FOO
141312
    1MOL0     O    1   3.207   9.660   9.646 -0.2162  0.0625 -0.0440
    1MOL0     C    2   3.294   9.604   9.711  0.1303 -0.2361  0.1811
    1MOL0     O    3   3.402   9.546   9.651  0.1501  0.7975 -0.1420
    1MOL0     C    4   3.406   9.541   9.510 -0.1459 -0.3234 -0.7670
    1MOL0     C    5   3.311   9.478   9.427  0.4344  0.2309 -0.6865
    1MOL0     C    6   3.326   9.480   9.284  0.2082 -0.0447  0.1154
    1MOL0     C    7   3.436   9.535   9.222 -1.3677  0.5875  1.0030
    1MOL0     O    8   3.440   9.529   9.084 -0.3618  0.1098  0.1509
    1MOL0     C    9   3.535   9.600   9.007  1.2660 -0.0663 -0.1511
    1MOL0     C   10   3.644   9.495   8.974  0.3707  0.4359 -0.1476
    1MOL0     C   11   3.618   9.425   8.851 -0.6449 -1.0810  1.3377
    1MOL0     C   12   3.709   9.304   8.834  0.1014 -0.9397 -1.2038
    1MOL0     C   13   3.678   9.216   8.710  0.1050  0.2175 -0.1006
    1MOL0     C   14   3.762   9.262   8.595  0.0107  0.3438 -0.3442
    1MOL0     C   15   3.740   9.409   8.562  0.6646 -0.0207  0.5506
    1MOL0     C   16   3.786   9.435   8.413  0.3029 -0.2365  0.4907
    1MOL0     N   17   3.714   9.554   8.361  0.5779 -1.3880 -0.0505
    1MOL0     C   18   3.597   9.545   8.293 -0.6591  0.3584  0.3989
    1MOL0     C   19   3.570   9.666   8.241  0.4899 -0.8707 -0.2875
    1MOL0     C   20   3.445   9.691   8.166 -0.1081 -0.2319  0.9252
    1MOL0     C   21   3.472   9.715   8.014  0.0976  0.0243 -0.3298
    1MOL0     C   22   3.567   9.833   7.990  0.4298  0.7969  0.5240
    1MOL0     C   23   3.566   9.884   7.845  0.5477 -0.4158 -0.5680
    1MOL0     O   24   3.658   9.797   7.771  0.3847  0.7375  0.2807
    1MOL0     C   25   3.654   9.776   7.638  0.1352 -0.1495  0.1641
    1MOL0     C   26   3.565   9.835   7.554  0.1780  0.2368 -0.3986
    1MOL0     C   27   3.585   9.826   7.415  0.7667  0.4249  1.0212
    1MOL0     C   28   3.481   9.909   7.324 -0.1078  0.5274 -0.0696
    1MOL0     C   29   3.688   9.735   7.359  0.1538 -0.5375  1.7903
    1MOL0     C   30   3.724   9.737   7.213  0.1344  0.1754 -0.3602
    1MOL0     O   31   3.796   9.626   7.175 -0.6102 -0.4739  0.6489
    1MOL0     C   32   3.845   9.609   7.042 -0.1735 -0.0181 -0.0167
    1MOL0     C   33   3.943   9.687   6.983  0.6674  0.5057  0.4667
    1MOL0     C   34   3.996   9.667   6.858  0.5209  0.6792  0.3945
    1MOL0     C   35   3.940   9.564   6.782  0.6320  0.0326 -0.4430
    1MOL0     O   36   3.973   9.540   6.649 -0.5009  0.3510  0.7643
    1MOL0     C   37   4.055   9.634   6.575  1.0531 -0.1987 -0.4318
    1MOL0     C   38   4.085   9.600   6.429  0.4792  0.0745 -0.1485
    1MOL0     C   39   4.170   9.477   6.415  0.1744  0.7995 -0.5408
    1MOL0     C   40   4.132   9.395   6.298  0.2152  0.0201 -0.5102
    1MOL0     C   41   4.240   9.285   6.279 -0.6093 -0.4615 -0.0870
    1MOL0     C   42   4.349   9.359   6.193 -0.4730 -0.5448 -0.1274
    1MOL0     C   43   4.475   9.278   6.201 -0.4146  0.0389 -0.6471
    1MOL0     C   44   4.578   9.321   6.086  0.0631 -0.2784  0.0758
    1MOL0    Cl   45   4.522   9.294   5.921  0.1828  0.0750  0.8432
    1MOL0     C   46   3.845   9.480   6.831  0.4077 -0.8946 -0.5272
    1MOL0     C   47   3.800   9.502   6.964 -0.4166  0.7659  0.0758
    1MOL0     O   48   3.679   9.813   7.132 -0.7713 -0.3169 -0.5851
    1MOL0     C   49   3.769   9.675   7.442  0.3991  0.2109 -0.2166
    1MOL0     C   50   3.750   9.694   7.576 -0.4043  0.0391 -0.1301
    1MOL0     N   51   3.675   9.745   8.283  0.3351  0.0315  0.0934
    1MOL0     N   52   3.762   9.679   8.354  0.2380  0.5523 -0.8766
    1MOL0     C   53   3.534   9.597   9.310 -0.0044 -0.0654  0.3483
    1MOL0     C   54   3.518   9.601   9.447  0.1412 -0.9916  0.1312
    1MOL0     C   55   3.284   9.604   9.858 -0.9011 -0.1470 -0.1019
    1MOL0     C   56   3.165   9.637   9.923  0.4410 -0.2729  1.4027
    1MOL0     C   57   3.152   9.638  10.056 -0.0955  1.0443  0.9527
    1MOL0     C   58   3.259   9.588  10.134 -0.1482 -0.9056 -0.0166
    1MOL0     O   59   3.252   9.590  10.270 -0.5303 -0.3379  0.0503
    1MOL0     C   60   3.132   9.639  10.336  1.1935  0.4945  0.7949
    1MOL0     C   61   3.150   9.660  10.489 -0.8813 -0.1325  0.1462
    1MOL0     C   62   3.192   9.536  10.571  0.1621 -0.2784 -0.0053
    1MOL0     C   63   3.309   9.578  10.667  0.8507  0.2860 -0.8436
    1MOL0     C   64   3.329   9.454  10.752  0.7722 -0.3617 -0.3979
    1MOL0     C   65   3.343   9.352  10.814 -0.2589 -0.2427  0.3763
    1MOL0     C   66   3.382   9.557  10.077 -0.5830 -0.3718 -0.4633
    1MOL0     C   67   3.399   9.575   9.945 -0.6110 -0.1894  0.6459
    1MOL0     C   68   3.544   9.553   9.898 -0.7123 -0.2813 -0.5049
    1MOL0     H   69   3.230   9.431   9.481  1.2738  2.7178  3.1843
    1MOL0     H   70   3.259   9.429   9.216  1.4317 -1.9728  0.2814
    1MOL0     H   71   3.573   9.680   9.072  0.9880 -1.2116  1.4742
    1MOL0     H   72   3.493   9.637   8.913 -0.2260 -0.2234  0.4257
    1MOL0     H   73   3.731   9.558   8.954  2.2039 -2.0612 -0.4563
    1MOL0     H   74   3.672   9.421   9.049 -1.3427 -1.7309 -1.5361
    1MOL0     H   75   3.512   9.397   8.853 -1.4614  1.7333  0.9963
    1MOL0     H   76   3.635   9.495   8.769  1.0297 -3.7027 -0.7038
    1MOL0     H   77   3.814   9.336   8.832  0.2813 -0.1161  4.3410
    1MOL0     H   78   3.693   9.242   8.923 -0.3372 -0.9182 -1.2689
    1MOL0     H   79   3.575   9.210   8.672  0.3658  0.6240 -0.8751
    1MOL0     H   80   3.694   9.111   8.735 -2.0809 -0.0083  0.5756
    1MOL0     H   81   3.866   9.246   8.623  0.0620  0.1471 -0.6480
    1MOL0     H   82   3.740   9.204   8.505  0.7307  1.0852 -1.0045
    1MOL0     H   83   3.791   9.482   8.626  1.4131  1.0606 -1.2016
    1MOL0     H   84   3.632   9.424   8.565  0.5387 -0.9746  1.7571
    1MOL0     H   85   3.894   9.440   8.399  0.2589 -1.3366 -0.4629
    1MOL0     H   86   3.747   9.361   8.342  1.0079  0.8223 -1.0635
    1MOL0     H   87   3.545   9.452   8.270 -0.9634 -0.3783  3.5479
    1MOL0     H   88   3.384   9.766   8.216  1.1331  1.2712  0.2805
    1MOL0     H   89   3.380   9.603   8.165 -1.7453  0.9453 -0.2191
    1MOL0     H   90   3.535   9.640   7.966  2.2727  2.1293 -0.9549
    1MOL0     H   91   3.369   9.723   7.977 -2.5184  0.8618  5.9166
    1MOL0     H   92   3.535   9.911   8.059  2.5995  2.4557 -0.2323
    1MOL0     H   93   3.671   9.824   8.024 -0.6398 -0.4687  3.8912
    1MOL0     H   94   3.467   9.870   7.801  2.3274 -1.3295 -4.8523
    1MOL0     H   95   3.599   9.988   7.838  1.2140 -0.5445  0.4298
    1MOL0     H   96   3.480   9.884   7.602  0.5727 -1.8180  2.5956
    1MOL0     H   97   3.436   9.839   7.252 -0.6152 -0.9302  1.5881
    1MOL0     H   98   3.529  10.001   7.289 -3.1697  2.1470 -0.3577
    1MOL0     H   99   3.398   9.943   7.386 -0.6893  1.6736 -1.4256
    1MOL0     H  100   3.978   9.774   7.038  3.1680  0.5611 -1.0728
    1MOL0     H  101   4.063   9.740   6.814  2.3407 -1.1583 -0.0266
    1MOL0     H  102   4.004   9.730   6.588 -0.1873 -0.8632 -0.2364
    1MOL0     H  103   4.158   9.639   6.612  0.4888  0.3996  1.1233
    1MOL0     H  104   3.999   9.610   6.362  0.0597  1.3744  0.5549
    1MOL0     H  105   4.148   9.686   6.404 -1.6790  1.8148  0.0623
    1MOL0     H  106   4.142   9.419   6.503 -3.3256  3.9027  0.6502
    1MOL0     H  107   4.275   9.501   6.432  0.3555 -0.0132 -0.4653
    1MOL0     H  108   4.123   9.471   6.219 -0.3445 -0.9233 -1.3856
    1MOL0     H  109   4.035   9.344   6.296  2.4875 -4.9419  0.7773
    1MOL0     H  110   4.281   9.253   6.375 -2.8698 -1.7249  0.5459
    1MOL0     H  111   4.193   9.199   6.229  0.1014 -0.2836 -1.0863
    1MOL0     H  112   4.370   9.461   6.230 -0.6048 -0.7062  0.4014
    1MOL0     H  113   4.317   9.385   6.091  0.1503 -2.3219 -0.8005
    1MOL0     H  114   4.454   9.173   6.176  0.9737 -0.1027 -1.3242
    1MOL0     H  115   4.522   9.288   6.299 -2.5130  3.3034  0.1852
    1MOL0     H  116   4.674   9.270   6.095  1.3121  1.6105 -1.6521
    1MOL0     H  117   4.587   9.427   6.111 -0.4359 -0.8454  3.0674
    1MOL0     H  118   3.803   9.408   6.762 -4.3124  1.4202 -0.4665
    1MOL0     H  119   3.733   9.425   7.003  0.0156  2.2664  4.2943
    1MOL0     H  120   3.853   9.613   7.414  0.9551  0.8411  0.0153
    1MOL0     H  121   3.822   9.633   7.629 -0.1063 -0.6951 -1.3445
    1MOL0     H  122   3.627   9.637   9.270 -0.0131  1.9554  2.1796
    1MOL0     H  123   3.582   9.647   9.521 -0.7887  0.0350  0.3403
    1MOL0     H  124   3.081   9.673   9.866  2.2505 -0.9675 -1.9731
    1MOL0     H  125   3.055   9.666  10.095 -0.6589 -0.4938  0.7372
    1MOL0     H  126   3.111   9.736  10.291 -0.1243 -0.5200 -0.8863
    1MOL0     H  127   3.039   9.586  10.315  0.4505  2.3158 -0.7267
    1MOL0     H  128   3.051   9.692  10.524 -1.8209  1.0279 -3.2473
    1MOL0     H  129   3.224   9.740  10.499 -0.6360  0.0449 -2.4852
    1MOL0     H  130   3.100   9.506  10.622 -0.0518  1.0185  0.4296
    1MOL0     H  131   3.220   9.451  10.508  2.0847 -0.1608  0.6475
    1MOL0     H  132   3.290   9.660  10.736  2.9973 -0.1050  0.2888
    1MOL0     H  133   3.401   9.599  10.612  1.6097  0.9460  0.6158
    1MOL0     H  134   3.362   9.255  10.854  2.6266  0.6126  1.3365
    1MOL0     H  135   3.461   9.526  10.144  0.9876  4.4336  0.2987
    1MOL0     H  136   3.571   9.450   9.871  0.5648  0.1619 -0.9847
    1MOL0     H  137   3.579   9.620   9.818  2.8342 -4.0087 -2.4799
    1MOL0     H  138   3.609   9.564   9.985  1.7157  1.3736 -2.3883
    2MOL0     O  139   6.321   7.381   3.933 -0.0351 -0.6517  0.0854
    2MOL0     C  140   6.234   7.434   4.003  0.0295 -1.1400 -0.5586
    2MOL0     O  141   6.122   7.364   4.065 -0.2338 -0.2188  0.2374
    2MOL0     C  142   6.102   7.230   4.054  0.0479 -0.5308 -1.2175
    2MOL0     C  143   5.965   7.180   4.052  0.0213 -0.4783  0.0029
    2MOL0     C  144   5.948   7.040   4.040  0.1903  0.9363  0.0975
    2MOL0     C  145   6.053   6.954   4.016  0.4539  1.4485 -0.0278
    2MOL0     O  146   6.030   6.816   3.989 -0.3596  0.2123  1.0994
    2MOL0     C  147   5.925   6.790   3.888  0.2235 -0.2030 -0.7431
    2MOL0     C  148   5.874   6.646   3.894 -0.0897  0.1655  0.4292
    2MOL0     C  149   5.968   6.537   3.846  0.5166  0.2565  0.4045
    2MOL0     C  150   6.054   6.478   3.966  0.6646 -0.7933  0.5519
    2MOL0     C  151   6.205   6.496   3.962  0.8006  0.0595 -0.6323
    2MOL0     C  152   6.275   6.429   4.080 -0.1570 -0.6654  1.6042
    2MOL0     C  153   6.271   6.274   4.093  0.2397  1.1466 -0.5592
    2MOL0     C  154   6.326   6.233   4.235  1.0120 -0.1791 -0.6037
    2MOL0     N  155   6.453   6.294   4.285  0.7784  0.3920 -0.7186
    2MOL0     C  156   6.570   6.234   4.254  0.2139 -0.2285  0.1739
    2MOL0     C  157   6.667   6.315   4.315 -0.2292 -0.1480 -0.2890
    2MOL0     C  158   6.810   6.283   4.317 -0.0410  0.0416  0.1643
    2MOL0     C  159   6.911   6.405   4.322 -0.0735 -0.2965  0.2471
    2MOL0     C  160   6.920   6.477   4.180 -0.2786  1.0577  0.4483
    2MOL0     C  161   6.988   6.388   4.076  0.3512 -0.2458  0.1985
    2MOL0     O  162   7.001   6.463   3.952  0.0225  0.2314  0.0834
    2MOL0     C  163   6.898   6.471   3.863 -0.8481  0.6488  0.1063
    2MOL0     C  164   6.798   6.381   3.853  0.6929 -0.6203 -0.4300
    2MOL0     C  165   6.714   6.374   3.735 -0.8222  0.3153  0.3521
    2MOL0     C  166   6.615   6.259   3.717 -0.8447  0.4161  0.2130
    2MOL0     C  167   6.727   6.475   3.631  0.6274  0.1543  0.1714
    2MOL0     C  168   6.632   6.499   3.519 -0.7543  0.3901  0.9418
    2MOL0     O  169   6.669   6.567   3.401  0.7154 -1.3631 -0.4292
    2MOL0     C  170   6.564   6.590   3.301 -0.4864 -0.8434  0.3552
    2MOL0     C  171   6.512   6.720   3.283  0.3092  0.0524 -0.4755
    2MOL0     C  172   6.415   6.738   3.182  0.0237  0.4703 -0.3082
    2MOL0     C  173   6.363   6.628   3.110  0.2616 -0.1307  0.0682
    2MOL0     O  174   6.272   6.659   3.012 -0.2915  0.4561  0.0116
    2MOL0     C  175   6.257   6.560   2.910  0.6540 -0.5137 -1.0541
    2MOL0     C  176   6.149   6.604   2.814 -0.1995 -0.4832  0.3600
    2MOL0     C  177   6.148   6.515   2.701  0.1184  1.3592  0.6579
    2MOL0     C  178   6.092   6.575   2.564 -0.0602 -0.4048 -0.0523
    2MOL0     C  179   6.106   6.458   2.466  0.5215  0.3453 -0.1591
    2MOL0     C  180   6.052   6.501   2.329  0.0355  0.6556 -0.6072
    2MOL0     C  181   6.010   6.389   2.232  0.2589  0.5369 -0.3557
    2MOL0     C  182   5.935   6.431   2.105 -0.8582  0.2984 -0.2252
    2MOL0    Cl  183   6.034   6.492   1.971  0.2170  0.3568 -0.1424
    2MOL0     C  184   6.421   6.493   3.122  1.2080 -0.3537 -0.4462
    2MOL0     C  185   6.510   6.478   3.230 -0.4370 -0.3116 -0.2114
    2MOL0     O  186   6.514   6.448   3.528 -0.5715 -0.0102 -0.5879
    2MOL0     C  187   6.805   6.581   3.661 -0.3970 -0.7182  0.7620
    2MOL0     C  188   6.906   6.565   3.756  0.1665 -0.0967  0.8929
    2MOL0     N  189   6.599   6.427   4.361  0.4961  0.3215 -0.4293
    2MOL0     N  190   6.465   6.406   4.347  0.2795 -0.4090 -0.3272
    2MOL0     C  191   6.185   7.001   4.035 -0.2552 -0.0753  0.2173
    2MOL0     C  192   6.205   7.139   4.063 -0.0083  0.5848 -0.7027
    2MOL0     C  193   6.240   7.582   4.032  0.9780  0.4444 -0.0221
    2MOL0     C  194   6.127   7.647   4.086 -0.3208  0.1750  0.6165
    2MOL0     C  195   6.124   7.786   4.111  0.7256  0.7252 -0.4459
    2MOL0     C  196   6.246   7.853   4.086 -0.3669  0.0946 -0.0694
    2MOL0     O  197   6.232   7.991   4.118  0.4212  0.1691  0.4459
    2MOL0     C  198   6.343   8.062   4.185 -0.4319  1.0186  0.2324
    2MOL0     C  199   6.458   8.119   4.090 -0.5126  0.4434 -0.6688
    2MOL0     C  200   6.426   8.167   3.955 -0.0886  0.7214  0.1850
    2MOL0     C  201   6.309   8.278   3.960 -0.0747 -0.6912  0.3740
    2MOL0     C  202   6.356   8.402   4.031  0.6234  0.3620 -0.0608
    2MOL0     C  203   6.402   8.500   4.082  0.5014 -0.4937 -0.2078
    2MOL0     C  204   6.367   7.789   4.053 -0.1046 -0.3642  0.0210
    2MOL0     C  205   6.364   7.657   4.016 -0.9299  0.5676  0.0499
    2MOL0     C  206   6.495   7.603   3.964 -0.5298  0.1809 -0.1964
    2MOL0     H  207   5.883   7.240   4.089 -0.4969 -0.4094 -1.2124
    2MOL0     H  208   5.849   6.995   4.044 -0.5231  2.4213  0.0672
    2MOL0     H  209   5.955   6.826   3.789 -0.2516  1.8611 -0.1875
    2MOL0     H  210   5.833   6.847   3.906 -0.9439 -2.3131  0.3131
    2MOL0     H  211   5.843   6.617   3.995 -0.9223  2.5184  0.8922
    2MOL0     H  212   5.783   6.633   3.834  1.4004  1.0188 -2.1800
    2MOL0     H  213   5.893   6.459   3.825  1.0532 -0.4452  1.0397
    2MOL0     H  214   6.023   6.572   3.759 -0.6317 -1.5897 -1.1671
    2MOL0     H  215   6.010   6.523   4.055  2.2637  1.3090  0.3787
    2MOL0     H  216   6.034   6.372   3.954  1.6757 -1.1431  1.7070
    2MOL0     H  217   6.234   6.600   3.974  0.8191  0.0814 -0.8529
    2MOL0     H  218   6.245   6.462   3.866  2.6316  2.0889 -0.6444
    2MOL0     H  219   6.380   6.460   4.080 -1.0267  2.7062  0.7087
    2MOL0     H  220   6.227   6.474   4.168 -1.7511  0.2671  0.3162
    2MOL0     H  221   6.321   6.226   4.009 -0.6820  0.5897 -0.7985
    2MOL0     H  222   6.166   6.243   4.094  0.4324  0.3943 -1.8094
    2MOL0     H  223   6.247   6.239   4.311  0.2986  1.6124 -1.4473
    2MOL0     H  224   6.347   6.126   4.226 -2.0578 -0.9612  0.3123
    2MOL0     H  225   6.584   6.137   4.206 -0.0047 -1.0850  1.7621
    2MOL0     H  226   6.829   6.229   4.224  0.9600  3.8587 -2.0478
    2MOL0     H  227   6.821   6.215   4.402 -1.8226 -0.2980  0.1747
    2MOL0     H  228   6.867   6.476   4.393 -1.3987  1.3020 -2.0503
    2MOL0     H  229   7.010   6.372   4.356 -0.2610  1.2161  2.4733
    2MOL0     H  230   6.818   6.505   4.152 -0.6582  2.1351  2.6873
    2MOL0     H  231   6.983   6.567   4.185 -0.3802  1.2243 -0.9823
    2MOL0     H  232   7.081   6.344   4.114  0.0005 -0.1761  1.1568
    2MOL0     H  233   6.924   6.304   4.048  0.4788  0.1998 -1.5508
    2MOL0     H  234   6.761   6.319   3.934 -3.7465  1.3827 -0.6363
    2MOL0     H  235   6.631   6.199   3.627 -0.2759 -1.5271  1.5387
    2MOL0     H  236   6.512   6.285   3.742 -1.0823  0.4242 -0.7280
    2MOL0     H  237   6.646   6.193   3.798  1.9612  2.1491  0.6897
    2MOL0     H  238   6.534   6.803   3.350 -1.1783 -0.4378  0.7006
    2MOL0     H  239   6.356   6.828   3.181 -2.9462 -1.1985  2.6693
    2MOL0     H  240   6.347   6.542   2.850  2.3639 -4.5634  2.2206
    2MOL0     H  241   6.227   6.462   2.948 -1.0936 -0.1535 -1.4195
    2MOL0     H  242   6.053   6.588   2.863  0.4911 -1.0391  1.5724
    2MOL0     H  243   6.159   6.709   2.786  0.4263  0.1617  2.7789
    2MOL0     H  244   6.087   6.426   2.721  0.5856  0.7751 -0.3978
    2MOL0     H  245   6.247   6.472   2.685  0.0316  0.3312  2.5721
    2MOL0     H  246   6.160   6.657   2.539 -1.1360  1.0698  1.5723
    2MOL0     H  247   5.988   6.604   2.581 -1.1047 -3.6956 -0.2104
    2MOL0     H  248   6.212   6.431   2.453  0.1615 -0.4821 -1.5448
    2MOL0     H  249   6.054   6.366   2.492  5.0874 -2.2872  0.8238
    2MOL0     H  250   6.118   6.570   2.275 -2.5060  2.4216 -1.6455
    2MOL0     H  251   5.959   6.557   2.343  0.1647  1.0341 -1.2338
    2MOL0     H  252   5.941   6.318   2.279  0.5210  1.3613  1.3507
    2MOL0     H  253   6.094   6.327   2.196 -0.5237  0.4166 -2.0832
    2MOL0     H  254   5.863   6.502   2.144 -0.0900  0.8045  0.3042
    2MOL0     H  255   5.879   6.344   2.069 -3.3326  1.0773  1.5048
    2MOL0     H  256   6.403   6.403   3.064 -2.3845  1.2839 -2.1578
    2MOL0     H  257   6.572   6.390   3.246  0.5766  0.1378 -1.4853
    2MOL0     H  258   6.831   6.654   3.586  1.8599 -2.2568 -0.0812
    2MOL0     H  259   6.998   6.620   3.774  0.7589 -1.3440  1.8757
    2MOL0     H  260   6.266   6.930   4.028  1.0698  1.4552 -0.4061
    2MOL0     H  261   6.308   7.164   4.090 -0.6824  3.1772 -0.2212
    2MOL0     H  262   6.035   7.589   4.092 -0.5449  0.3444 -0.8508
    2MOL0     H  263   6.032   7.837   4.139  1.6509  0.8973  2.6206
    2MOL0     H  264   6.298   8.141   4.246 -0.6713  1.0434  0.0247
    2MOL0     H  265   6.384   7.987   4.253  0.8443 -0.6083 -2.1605
    2MOL0     H  266   6.537   8.045   4.073 -1.3883 -0.3191 -1.5234
    2MOL0     H  267   6.507   8.190   4.158 -1.5028 -2.1230  3.0954
    2MOL0     H  268   6.516   8.214   3.914  0.8385 -1.5419 -0.5510
    2MOL0     H  269   6.391   8.079   3.899 -0.7678 -0.1898  1.9631
    2MOL0     H  270   6.216   8.240   4.004  0.0227 -1.7014 -0.2545
    2MOL0     H  271   6.275   8.306   3.860 -1.7534  1.0160  1.3576
    2MOL0     H  272   6.462   8.584   4.109  0.3781 -0.0196 -1.3502
    2MOL0     H  273   6.453   7.850   4.027 -0.4520 -0.0389 -0.3932
    2MOL0     H  274   6.491   7.583   3.857  3.0516  1.8325 -0.7796
    2MOL0     H  275   6.569   7.683   3.959 -0.5942  0.3063  0.6166
    2MOL0     H  276   6.535   7.524   4.028 -1.7637  0.0863  0.4960
    3MOL0     O  277   5.514   2.172   4.886  0.0122 -0.3929 -0.2231
    3MOL0     C  278   5.614   2.179   4.958  0.3612  0.3734 -0.4067
    3MOL0     O  279   5.747   2.150   4.919  0.3614 -0.0302 -0.0935
    3MOL0     C  280   5.789   2.110   4.796 -0.1700 -0.4771  0.1216
    3MOL0     C  281   5.927   2.109   4.785 -0.3077 -0.1631 -0.6111
    3MOL0     C  282   5.985   2.068   4.669  1.0521  0.7693 -0.2023
    3MOL0     C  283   5.912   2.039   4.546 -0.0221  0.4547 -0.1819
    3MOL0     O  284   5.984   2.002   4.438 -0.2229 -0.2361 -0.1218
    3MOL0     C  285   5.912   1.938   4.328  0.0656  1.0046  0.3177
    3MOL0     C  286   6.018   1.888   4.228 -0.4509 -0.1499  0.2696
    3MOL0     C  287   6.119   1.804   4.303 -0.5126  0.4201  0.5372
    3MOL0     C  288   6.201   1.710   4.209  0.3143  0.3289  0.0580
    3MOL0     C  289   6.274   1.780   4.101 -1.4710 -0.1724 -0.3956
    3MOL0     C  290   6.335   1.673   3.998  0.0727 -0.2419  0.5983
    3MOL0     C  291   6.480   1.628   4.024  0.1669  0.0481  0.7812
    3MOL0     C  292   6.506   1.518   3.924  0.0047  0.3856  0.4014
    3MOL0     N  293   6.541   1.575   3.786  0.2009 -0.0046  0.4926
    3MOL0     C  294   6.469   1.619   3.680 -0.7225  0.6659 -0.2820
    3MOL0     C  295   6.560   1.666   3.589 -1.0866 -0.5905 -0.7052
    3MOL0     C  296   6.525   1.733   3.465 -0.6847 -0.5738 -0.1863
    3MOL0     C  297   6.469   1.871   3.490 -1.4290 -0.3915  0.5199
    3MOL0     C  298   6.361   1.893   3.589 -0.1997  1.1145 -0.3980
    3MOL0     C  299   6.301   2.028   3.585  0.2452 -0.2806 -0.3816
    3MOL0     O  300   6.390   2.122   3.544  0.3873 -0.4886  0.2991
    3MOL0     C  301   6.341   2.245   3.516  0.1190  0.0614 -1.3143
    3MOL0     C  302   6.204   2.275   3.495 -0.2545 -0.7305  0.6475
    3MOL0     C  303   6.167   2.402   3.445  0.0940 -0.3554 -0.7088
    3MOL0     C  304   6.027   2.419   3.402  0.6628  0.2121 -0.5035
    3MOL0     C  305   6.256   2.509   3.440  0.2676  1.5069 -0.4311
    3MOL0     C  306   6.221   2.647   3.407 -1.0031  0.3887 -1.2047
    3MOL0     O  307   6.312   2.736   3.454 -0.3205  0.3333  0.0338
    3MOL0     C  308   6.301   2.863   3.397  0.2539  0.1059 -0.2675
    3MOL0     C  309   6.330   2.884   3.265  0.0197 -0.4315  0.7271
    3MOL0     C  310   6.334   3.004   3.204 -0.2367 -0.1370 -0.1260
    3MOL0     C  311   6.292   3.116   3.286 -0.1507 -1.2687  0.2195
    3MOL0     O  312   6.281   3.246   3.238 -0.4621  0.1515  0.4146
    3MOL0     C  313   6.294   3.266   3.097  0.2344 -0.9757  0.3497
    3MOL0     C  314   6.168   3.242   3.014  0.7806  0.2402  0.2222
    3MOL0     C  315   6.175   3.293   2.865 -0.1980  0.0458  0.6270
    3MOL0     C  316   6.206   3.442   2.855 -1.0009  0.5279  1.0049
    3MOL0     C  317   6.143   3.496   2.717 -0.3097  0.2007  0.3402
    3MOL0     C  318   6.168   3.650   2.704 -0.0224 -0.1720  0.1206
    3MOL0     C  319   6.098   3.717   2.586  0.0814  0.1031 -0.1437
    3MOL0     C  320   6.082   3.866   2.597 -0.5068 -0.3596  0.4986
    3MOL0    Cl  321   6.219   3.931   2.506 -0.2828  0.0414  0.2252
    3MOL0     C  322   6.253   3.093   3.419  0.4220  0.2393 -0.0725
    3MOL0     C  323   6.257   2.966   3.479  0.1980 -0.6880 -0.4332
    3MOL0     O  324   6.116   2.681   3.349 -0.3359 -0.4440  0.0712
    3MOL0     C  325   6.390   2.472   3.461 -0.2352 -1.0160 -0.6190
    3MOL0     C  326   6.439   2.345   3.502 -0.0105 -0.2451  0.5094
    3MOL0     N  327   6.686   1.653   3.645  0.2460  0.4778  0.0274
    3MOL0     N  328   6.673   1.604   3.766  0.4496  0.1505  0.1635
    3MOL0     C  329   5.771   2.046   4.564 -0.0203  0.1400 -0.6495
    3MOL0     C  330   5.707   2.091   4.683  0.1053  0.4512  0.1238
    3MOL0     C  331   5.583   2.216   5.103 -0.3390  0.7283  0.5188
    3MOL0     C  332   5.629   2.129   5.199  0.2512 -0.0168  1.3215
    3MOL0     C  333   5.606   2.155   5.331 -0.2483 -0.0444 -0.3687
    3MOL0     C  334   5.550   2.281   5.366 -0.0251  0.0049 -0.4966
    3MOL0     O  335   5.534   2.318   5.499  0.0859  0.0278  0.0603
    3MOL0     C  336   5.401   2.326   5.554 -0.0553 -0.3054 -0.0369
    3MOL0     C  337   5.376   2.191   5.613 -0.0528 -0.0971  0.1418
    3MOL0     C  338   5.244   2.181   5.693  0.2330 -0.1311 -0.9239
    3MOL0     C  339   5.226   2.055   5.788  0.2896 -0.1927  0.8151
    3MOL0     C  340   5.308   1.936   5.754  0.3686  0.1168  1.1467
    3MOL0     C  341   5.385   1.845   5.734 -0.1403 -0.4550  0.1055
    3MOL0     C  342   5.506   2.365   5.265 -0.5314  0.4235 -0.8725
    3MOL0     C  343   5.523   2.340   5.130 -1.5353 -0.2063 -0.1230
    3MOL0     C  344   5.473   2.430   5.020 -0.3295 -0.2354 -0.2239
    3MOL0     H  345   5.988   2.120   4.874 -3.1874 -0.7295  1.6027
    3MOL0     H  346   6.092   2.053   4.676  1.2222  1.7303 -0.6300
    3MOL0     H  347   5.852   1.994   4.256  1.7239  0.0359 -1.9413
    3MOL0     H  348   5.858   1.851   4.369 -0.7351  0.3375 -2.0074
    3MOL0     H  349   5.965   1.830   4.152  2.0193 -0.9186 -0.9850
    3MOL0     H  350   6.069   1.979   4.194  0.1819 -0.5936 -0.0008
    3MOL0     H  351   6.183   1.878   4.352 -2.0996  1.8756  0.4748
    3MOL0     H  352   6.074   1.737   4.376  0.2937  0.4282  1.0613
    3MOL0     H  353   6.269   1.645   4.264 -0.2259 -3.0850 -2.9200
    3MOL0     H  354   6.130   1.648   4.154 -1.3257  3.0532 -1.0958
    3MOL0     H  355   6.355   1.845   4.136 -1.1223  1.1727 -3.4296
    3MOL0     H  356   6.213   1.853   4.049  0.0590  0.4638 -1.3652
    3MOL0     H  357   6.268   1.587   3.989 -1.6227  1.0681  0.1636
    3MOL0     H  358   6.321   1.726   3.903 -0.2368  3.8518  2.7017
    3MOL0     H  359   6.504   1.590   4.124  0.0906 -1.7815  0.1493
    3MOL0     H  360   6.543   1.715   4.005  2.2730 -1.5897 -0.2483
    3MOL0     H  361   6.584   1.458   3.971 -2.2192 -2.6981  0.5246
    3MOL0     H  362   6.421   1.451   3.903  0.1313  0.4845 -0.4787
    3MOL0     H  363   6.362   1.637   3.683 -0.9540 -0.6044 -0.1642
    3MOL0     H  364   6.461   1.660   3.415  1.4955 -1.8798 -1.2082
    3MOL0     H  365   6.603   1.740   3.389 -1.5224  0.0971 -1.0082
    3MOL0     H  366   6.558   1.926   3.520 -2.4628  1.8231 -0.2519
    3MOL0     H  367   6.439   1.908   3.392  0.0730  2.4812  1.0214
    3MOL0     H  368   6.278   1.828   3.561  0.2852  0.1708  0.2691
    3MOL0     H  369   6.393   1.889   3.694 -1.3604  1.0770 -0.0276
    3MOL0     H  370   6.215   2.017   3.519  0.0765 -1.2805 -0.0106
    3MOL0     H  371   6.261   2.048   3.685 -2.4113  2.7380 -1.8803
    3MOL0     H  372   6.124   2.207   3.521 -1.2130 -0.6393 -1.8538
    3MOL0     H  373   5.986   2.502   3.461 -1.1271 -1.1062  0.1971
    3MOL0     H  374   5.963   2.333   3.425  0.7883  0.7259  1.9789
    3MOL0     H  375   6.018   2.440   3.295 -2.3969 -2.5367 -0.9488
    3MOL0     H  376   6.330   2.798   3.200 -1.5022  0.9621 -1.2186
    3MOL0     H  377   6.360   3.011   3.099  2.9876 -0.9783  0.5055
    3MOL0     H  378   6.340   3.363   3.075  4.1675 -3.1871 -2.5367
    3MOL0     H  379   6.374   3.209   3.049  0.6730  0.6229 -0.8812
    3MOL0     H  380   6.140   3.136   3.012 -0.5543  0.5758  0.8411
    3MOL0     H  381   6.088   3.300   3.059  1.6527  1.1757  0.6193
    3MOL0     H  382   6.074   3.273   2.828  0.8380 -0.8843 -1.8957
    3MOL0     H  383   6.245   3.231   2.808  1.7225  3.2180 -0.7417
    3MOL0     H  384   6.315   3.449   2.851 -1.0652  0.7251 -1.7193
    3MOL0     H  385   6.171   3.488   2.948 -1.0336 -0.6672  1.6058
    3MOL0     H  386   6.181   3.432   2.637  2.4267  1.4422  0.5491
    3MOL0     H  387   6.034   3.486   2.717 -0.6891  2.5733  3.7756
    3MOL0     H  388   6.276   3.657   2.688 -0.1921  0.9418 -0.6728
    3MOL0     H  389   6.123   3.696   2.793 -3.0229  2.1851 -2.3637
    3MOL0     H  390   5.995   3.679   2.588 -0.0312  0.4116 -0.0070
    3MOL0     H  391   6.134   3.694   2.485 -0.9684  3.5306 -1.4408
    3MOL0     H  392   6.085   3.894   2.703  2.1905  0.0408  0.4004
    3MOL0     H  393   5.992   3.897   2.543 -1.3153 -0.3688  1.8096
    3MOL0     H  394   6.212   3.179   3.472 -2.5733 -0.9479 -0.2760
    3MOL0     H  395   6.213   2.965   3.578  1.2450  1.4580  0.1263
    3MOL0     H  396   6.463   2.553   3.457  1.6425 -2.5436  0.8897
    3MOL0     H  397   6.545   2.328   3.522 -0.0370  1.2479  2.1827
    3MOL0     H  398   5.706   2.041   4.477 -0.5626  0.6162 -0.2799
    3MOL0     H  399   5.599   2.103   4.676 -0.4489 -2.0159  2.6602
    3MOL0     H  400   5.687   2.042   5.171  0.0881  0.1824  0.3213
    3MOL0     H  401   5.615   2.082   5.411  0.1244 -1.7703 -1.9218
    3MOL0     H  402   5.399   2.404   5.630 -0.7069 -0.5449  0.1935
    3MOL0     H  403   5.324   2.352   5.482  0.9440 -2.5078 -2.0328
    3MOL0     H  404   5.452   2.164   5.687  0.3965 -2.2472 -1.0223
    3MOL0     H  405   5.377   2.108   5.542  0.5293  0.3080 -0.3298
    3MOL0     H  406   5.244   2.275   5.749  2.1641  0.5838 -2.0514
    3MOL0     H  407   5.156   2.178   5.629 -1.7722  0.7840  1.6093
    3MOL0     H  408   5.124   2.015   5.780 -0.0980  0.8890 -0.0633
    3MOL0     H  409   5.243   2.086   5.891 -1.0443  4.1884 -0.0553
    3MOL0     H  410   5.455   1.766   5.718 -1.1104 -1.4776  0.7346
    3MOL0     H  411   5.461   2.462   5.286 -0.5444 -0.0758  1.6543
    3MOL0     H  412   5.400   2.371   4.964 -2.8837  3.3829 -1.0657
    3MOL0     H  413   5.421   2.515   5.063 -1.1189 -0.8272 -0.0002
    3MOL0     H  414   5.558   2.472   4.964  1.4871  1.2316  3.3481
    4MOL0     O  415   9.647   1.329   3.498  0.5300  1.3906  0.1237
    4MOL0     C  416   9.750   1.355   3.431  0.7093  0.1338  0.4607
    4MOL0     O  417   9.876   1.387   3.480 -0.7363  0.6159  0.0696
    4MOL0     C  418   9.879   1.400   3.620  0.5473 -0.6367  0.4402
    4MOL0     C  419   9.822   1.515   3.679  0.0355  0.1814  0.0064
    4MOL0     C  420   9.818   1.529   3.823  0.2011 -0.6622 -0.4455
    4MOL0     C  421   9.856   1.421   3.901 -0.0361  0.2916  0.1304
    4MOL0     O  422   9.871   1.422   4.038 -0.1168 -0.3935  0.6749
    4MOL0     C  423   9.772   1.492   4.114 -0.3797  1.0030 -0.9691
    4MOL0     C  424   9.805   1.460   4.266  0.9984 -0.0436  0.3196
    4MOL0     C  425   9.855   1.314   4.289  0.8720  0.4749 -0.7843
    4MOL0     C  426   9.823   1.283   4.438 -0.3418 -0.9721  0.5358
    4MOL0     C  427   9.878   1.158   4.505  0.2520 -0.6583 -0.2747
    4MOL0     C  428   9.914   1.044   4.409  0.1760  0.1189 -1.2548
    4MOL0     C  429   9.993   0.926   4.468  0.2067 -0.0733 -0.3524
    4MOL0     C  430  10.036   0.830   4.359 -1.7889 -0.2579 -0.3548
    4MOL0     N  431   9.924   0.790   4.282 -0.4667 -0.2530  0.7876
    4MOL0     C  432   9.899   0.812   4.152  0.2849  0.3476 -0.1211
    4MOL0     C  433   9.770   0.761   4.137  0.7137  0.2770 -0.0259
    4MOL0     C  434   9.701   0.748   4.001  0.0419 -0.3190  0.1945
    4MOL0     C  435   9.726   0.601   3.956  0.6044  0.2184 -0.0388
    4MOL0     C  436   9.874   0.560   3.915  0.0619 -0.5928 -0.4073
    4MOL0     C  437   9.887   0.413   3.895  0.7930  0.8223 -0.3730
    4MOL0     O  438  10.015   0.379   3.839 -0.1086 -0.1279 -0.3339
    4MOL0     C  439  10.121   0.363   3.929  0.0193 -0.3493 -0.1677
    4MOL0     C  440  10.125   0.387   4.069  1.1546 -0.5394  0.0648
    4MOL0     C  441  10.239   0.396   4.149  0.0480  0.4308  0.2247
    4MOL0     C  442  10.239   0.441   4.295 -0.3533  0.1083 -0.5340
    4MOL0     C  443  10.364   0.370   4.089  0.6463  0.2042  0.4559
    4MOL0     C  444  10.487   0.334   4.161  0.1702 -0.9139 -0.2822
    4MOL0     O  445  10.598   0.302   4.070  0.3493 -0.1519  0.0548
    4MOL0     C  446  10.706   0.241   4.134 -0.1414  0.3781  0.3961
    4MOL0     C  447  10.828   0.313   4.156 -0.4077 -0.7819 -0.6836
    4MOL0     C  448  10.942   0.253   4.210 -0.8868  0.3169 -0.7885
    4MOL0     C  449  10.935   0.117   4.244 -1.0729 -0.1689  0.7208
    4MOL0     O  450  11.055   0.064   4.274 -0.0615 -0.3118  0.4067
    4MOL0     C  451  11.069  -0.033   4.375 -0.2978  0.0952  0.0843
    4MOL0     C  452  11.215  -0.042   4.393  0.0485 -0.7909 -0.5266
    4MOL0     C  453  11.268   0.020   4.521 -0.1803  0.0524 -0.1971
    4MOL0     C  454  11.196  -0.003   4.647  0.7024 -0.0725  0.1545
    4MOL0     C  455  11.258   0.058   4.780 -0.3539  0.5484  0.1827
    4MOL0     C  456  11.351  -0.040   4.857  0.8059  0.3245 -0.1882
    4MOL0     C  457  11.275  -0.154   4.937 -1.1695  1.1891 -0.2844
    4MOL0     C  458  11.376  -0.220   5.040 -0.3682 -1.0041  0.5195
    4MOL0    Cl  459  11.295  -0.370   5.105 -0.0896  0.1704 -0.1163
    4MOL0     C  460  10.817   0.051   4.231  0.2359  0.1930 -0.6527
    4MOL0     C  461  10.707   0.107   4.160  0.7463  1.0293  1.0848
    4MOL0     O  462  10.487   0.302   4.279  0.1342 -0.7676  0.5400
    4MOL0     C  463  10.356   0.345   3.945  0.1117 -0.8009 -0.6168
    4MOL0     C  464  10.238   0.329   3.875 -0.3090 -2.2157  1.3497
    4MOL0     N  465   9.734   0.701   4.252 -0.4227 -0.5036 -0.1405
    4MOL0     N  466   9.823   0.721   4.335 -0.6425 -0.3647 -0.3906
    4MOL0     C  467   9.886   1.300   3.843  0.4517  0.0618 -0.5058
    4MOL0     C  468   9.907   1.288   3.699 -0.4376  0.2694 -0.0430
    4MOL0     C  469   9.739   1.327   3.284 -1.0253 -0.6252 -0.1931
    4MOL0     C  470   9.726   1.195   3.245 -0.0556  0.1965  0.3786
    4MOL0     C  471   9.735   1.155   3.111  0.4423 -0.0064 -0.1556
    4MOL0     C  472   9.757   1.259   3.013 -0.2209 -0.5941 -0.1775
    4MOL0     O  473   9.763   1.229   2.885  0.1560 -0.5254 -0.1388
    4MOL0     C  474   9.885   1.250   2.814 -0.4917  0.2507  0.6583
    4MOL0     C  475   9.875   1.202   2.671  0.4628 -1.1429  0.1380
    4MOL0     C  476   9.758   1.267   2.581 -0.3806 -0.2463 -0.5723
    4MOL0     C  477   9.715   1.185   2.451 -0.5034 -0.1584 -1.3102
    4MOL0     C  478   9.826   1.140   2.369 -0.6387  0.1283  0.9193
    4MOL0     C  479   9.915   1.086   2.306  0.3972 -0.5672  0.6373
    4MOL0     C  480   9.780   1.392   3.055 -0.8153 -0.9367 -0.4328
    4MOL0     C  481   9.770   1.429   3.190 -0.7500  0.1128  0.1629
    4MOL0     C  482   9.801   1.563   3.244 -0.4359 -0.8098 -0.2617
    4MOL0     H  483   9.780   1.595   3.620 -1.1765 -0.9374 -0.6972
    4MOL0     H  484   9.774   1.610   3.881 -2.0041 -3.7333  2.6073
    4MOL0     H  485   9.671   1.458   4.089 -1.1906  2.1200  0.6840
    4MOL0     H  486   9.780   1.600   4.102 -0.8825  0.9852 -1.5500
    4MOL0     H  487   9.892   1.524   4.285  0.9533 -0.4322  1.9789
    4MOL0     H  488   9.723   1.507   4.322  0.4849 -1.4083  0.7521
    4MOL0     H  489   9.811   1.234   4.229  2.0384 -1.0781  0.3514
    4MOL0     H  490   9.961   1.304   4.264  0.4898  1.2405 -2.9463
    4MOL0     H  491   9.841   1.375   4.494  2.8867 -0.8034 -0.5659
    4MOL0     H  492   9.716   1.263   4.423 -1.0401  2.2694  0.4624
    4MOL0     H  493   9.824   1.118   4.591  5.0369 -1.1735  2.8496
    4MOL0     H  494   9.971   1.198   4.546  0.2596  1.0657 -1.8319
    4MOL0     H  495   9.825   0.999   4.365  0.4990 -1.4132 -0.4459
    4MOL0     H  496   9.971   1.091   4.329  1.7858  2.7159  1.2000
    4MOL0     H  497   9.937   0.871   4.544  0.8966 -1.3705 -0.7580
    4MOL0     H  498  10.089   0.955   4.511  0.0895  2.7639 -1.7382
    4MOL0     H  499  10.121   0.875   4.305 -1.7360  2.3104  1.6987
    4MOL0     H  500  10.074   0.744   4.415 -0.5631  2.1685  2.8356
    4MOL0     H  501   9.961   0.852   4.073  1.4571  2.7990  1.9058
    4MOL0     H  502   9.757   0.817   3.937  1.6750 -0.3286  1.5378
    4MOL0     H  503   9.596   0.776   4.012  0.0551 -0.7860  1.8170
    4MOL0     H  504   9.692   0.524   4.027 -0.3990  1.1179  0.4968
    4MOL0     H  505   9.654   0.585   3.875 -0.9839  3.5774  0.5360
    4MOL0     H  506   9.901   0.622   3.829  1.6429  1.5136  1.4798
    4MOL0     H  507   9.954   0.581   3.987  0.9176  0.2004 -1.5543
    4MOL0     H  508   9.867   0.360   3.989 -2.7155  0.9350 -0.9118
    4MOL0     H  509   9.808   0.386   3.823  0.2143 -1.5815  1.0214
    4MOL0     H  510  10.038   0.408   4.130  2.7727  4.7074  1.0306
    4MOL0     H  511  10.143   0.490   4.312 -0.2926  0.6529 -1.6691
    4MOL0     H  512  10.319   0.515   4.307 -0.2453 -0.2114  0.9146
    4MOL0     H  513  10.243   0.360   4.368 -0.1157  0.3653 -0.2602
    4MOL0     H  514  10.830   0.420   4.137  1.0071 -0.8574 -1.0712
    4MOL0     H  515  11.034   0.306   4.232 -0.2188  0.4776 -3.6807
    4MOL0     H  516  11.000  -0.029   4.461 -1.0162 -1.1156 -0.3986
    4MOL0     H  517  11.049  -0.131   4.330 -0.4427  0.3499 -0.4042
    4MOL0     H  518  11.234  -0.149   4.394 -0.8864 -0.9860 -1.3343
    4MOL0     H  519  11.263   0.006   4.307  2.2208  0.9648  1.5322
    4MOL0     H  520  11.262   0.128   4.504 -2.9238  0.0117 -0.0128
    4MOL0     H  521  11.371  -0.012   4.539 -0.0261 -0.4908 -1.9151
    4MOL0     H  522  11.183  -0.111   4.657 -0.9644 -0.1027 -1.6322
    4MOL0     H  523  11.096   0.042   4.642 -1.0053 -3.5994 -1.2750
    4MOL0     H  524  11.319   0.146   4.760 -0.7420  0.9604  0.7573
    4MOL0     H  525  11.173   0.089   4.842  0.6496  1.4554  1.1571
    4MOL0     H  526  11.417   0.011   4.927  0.4577  3.0982 -1.7278
    4MOL0     H  527  11.427  -0.084   4.792  3.2034  0.8359  2.0957
    4MOL0     H  528  11.235  -0.218   4.857 -2.4468  0.2230  1.0601
    4MOL0     H  529  11.196  -0.110   4.998 -0.3205  0.1205  1.7057
    4MOL0     H  530  11.408  -0.148   5.115  2.8621 -2.5016  0.7129
    4MOL0     H  531  11.466  -0.248   4.984  0.3602  0.9598  0.6343
    4MOL0     H  532  10.792  -0.048   4.268 -3.3264  0.3124 -2.2355
    4MOL0     H  533  10.618   0.048   4.137  2.4679 -1.0361 -0.8386
    4MOL0     H  534  10.444   0.319   3.888  0.0718 -3.6319  0.4209
    4MOL0     H  535  10.244   0.317   3.767  0.5340 -1.3935  1.2881
    4MOL0     H  536   9.899   1.223   3.919 -0.2777 -1.8603 -2.2568
    4MOL0     H  537   9.937   1.192   3.657 -1.5348 -0.9342  1.7705
    4MOL0     H  538   9.705   1.118   3.319 -0.2444 -0.7646 -0.6435
    4MOL0     H  539   9.723   1.052   3.079  2.1224 -0.3255  0.1356
    4MOL0     H  540   9.908   1.356   2.814  1.1287 -0.0072 -2.2903
    4MOL0     H  541   9.963   1.199   2.872 -0.0896 -0.4537 -0.4686
    4MOL0     H  542   9.862   1.094   2.682  0.9832 -1.3571 -1.1856
    4MOL0     H  543   9.970   1.212   2.617  1.3128  3.0369  1.9937
    4MOL0     H  544   9.671   1.288   2.643  1.3199  1.4817  1.4213
    4MOL0     H  545   9.787   1.371   2.559  0.0082 -0.2623 -0.1591
    4MOL0     H  546   9.654   1.255   2.392 -2.4359 -2.2628 -1.9365
    4MOL0     H  547   9.651   1.098   2.471 -0.9300 -0.2965 -3.1408
    4MOL0     H  548   9.996   1.061   2.240 -0.3488 -1.3731  0.0054
    4MOL0     H  549   9.810   1.461   2.978 -2.8325  1.2905  0.6483
    4MOL0     H  550   9.815   1.635   3.162 -0.1198 -1.1658 -0.5258
    4MOL0     H  551   9.724   1.599   3.312  0.8007  0.6282  0.4251
    4MOL0     H  552   9.887   1.560   3.311 -1.8031 -4.5654  1.5977
    5MOL0     O  553   2.140   5.685   8.734  0.5283  0.0723  1.0598
    5MOL0     C  554   2.119   5.747   8.630 -0.0199 -0.0426 -0.1696
    5MOL0     O  555   2.037   5.850   8.610 -0.5092 -0.3217 -0.0272
    5MOL0     C  556   1.987   5.934   8.710 -0.3557  0.1790 -0.3734
    5MOL0     C  557   1.873   6.016   8.672  0.6177  0.2602 -0.0207
    5MOL0     C  558   1.821   6.121   8.753 -0.0712 -0.6791 -0.2913
    5MOL0     C  559   1.870   6.137   8.881 -0.1937 -0.4977  0.7888
    5MOL0     O  560   1.831   6.243   8.942  0.4017  0.0651  0.3040
    5MOL0     C  561   1.926   6.299   9.043  0.7346  0.3410 -0.3758
    5MOL0     C  562   1.858   6.428   9.109  0.0466  1.7942 -0.2612
    5MOL0     C  563   1.734   6.396   9.187  0.3771 -0.3958 -0.2614
    5MOL0     C  564   1.617   6.497   9.178 -1.1499  0.8268  0.0944
    5MOL0     C  565   1.503   6.445   9.270 -0.9167 -0.0542  0.0623
    5MOL0     C  566   1.364   6.503   9.220 -0.2493 -0.3097  0.0202
    5MOL0     C  567   1.260   6.413   9.283  0.1843  0.2978 -0.3750
    5MOL0     C  568   1.125   6.428   9.208 -0.5379  0.2301 -1.0920
    5MOL0     N  569   1.077   6.567   9.234 -0.5306  0.1043  0.2453
    5MOL0     C  570   1.076   6.665   9.138  0.1635 -1.0606 -0.5385
    5MOL0     C  571   1.043   6.773   9.210 -0.7208 -0.6156 -0.1805
    5MOL0     C  572   1.066   6.912   9.148 -0.5088  0.2396  0.5116
    5MOL0     C  573   1.006   6.943   9.013 -0.6234  0.0305 -0.7007
    5MOL0     C  574   0.869   6.898   8.984  1.0502  0.3354 -0.2632
    5MOL0     C  575   0.802   6.988   8.873 -0.6114  0.5815  1.2476
    5MOL0     O  576   0.877   7.002   8.754 -0.5105  0.6091  0.3300
    5MOL0     C  577   0.834   7.100   8.668  0.1630  0.1151 -0.2810
    5MOL0     C  578   0.755   7.069   8.558 -0.2421 -0.1529 -0.8638
    5MOL0     C  579   0.704   7.181   8.479 -0.2543  0.1753 -0.1686
    5MOL0     C  580   0.640   7.152   8.343 -0.4645 -1.2897 -0.3581
    5MOL0     C  581   0.727   7.318   8.518 -0.8921  0.2381 -0.8877
    5MOL0     C  582   0.685   7.431   8.440 -0.3688 -0.7106  0.4004
    5MOL0     O  583   0.755   7.548   8.448 -0.1697  0.1520 -0.6398
    5MOL0     C  584   0.728   7.663   8.378  0.4282 -1.4912  0.2223
    5MOL0     C  585   0.626   7.694   8.285 -0.0275  0.0808  0.7531
    5MOL0     C  586   0.614   7.828   8.237 -0.4147  0.2200 -0.0630
    5MOL0     C  587   0.698   7.930   8.271  0.5558 -0.5484 -0.5068
    5MOL0     O  588   0.686   8.049   8.210 -0.3803  0.3950  0.2157
    5MOL0     C  589   0.664   8.148   8.313  0.4847  0.0539  0.4926
    5MOL0     C  590   0.735   8.284   8.282 -0.2745  0.9097  0.1595
    5MOL0     C  591   0.684   8.348   8.147  0.1200 -0.0524 -0.9235
    5MOL0     C  592   0.774   8.467   8.124  0.7358 -0.1697  0.3130
    5MOL0     C  593   0.906   8.427   8.067 -0.1773  0.4230  0.1273
    5MOL0     C  594   0.999   8.547   8.049 -0.4374  0.1320 -0.0256
    5MOL0     C  595   1.145   8.505   8.078 -0.3639  0.2718 -0.5092
    5MOL0     C  596   1.207   8.416   7.963 -0.6878  0.2822 -0.2704
    5MOL0    Cl  597   1.159   8.468   7.804 -0.5280 -0.2017  0.1840
    5MOL0     C  598   0.805   7.898   8.355  0.6371 -0.1562  0.4686
    5MOL0     C  599   0.815   7.766   8.393  1.2415  0.0300  0.8434
    5MOL0     O  600   0.586   7.415   8.374  0.2881 -0.1216 -0.2071
    5MOL0     C  601   0.811   7.341   8.632 -0.0273  0.7756  0.6692
    5MOL0     C  602   0.863   7.238   8.706 -0.0028  0.9607  0.0782
    5MOL0     N  603   0.999   6.743   9.340 -0.9962  0.3987  0.7299
    5MOL0     N  604   1.026   6.612   9.355  0.4676  0.2937  0.2547
    5MOL0     C  605   1.970   6.045   8.925 -0.1514  0.1380  0.1990
    5MOL0     C  606   2.027   5.947   8.844 -0.0037 -0.1496  0.2847
    5MOL0     C  607   2.191   5.699   8.502 -0.1156 -0.0713  0.5515
    5MOL0     C  608   2.248   5.570   8.513 -0.9443  0.0226 -0.0249
    5MOL0     C  609   2.320   5.516   8.404  0.7627  1.1058  0.7735
    5MOL0     C  610   2.335   5.588   8.283  1.1149 -0.6543 -0.3794
    5MOL0     O  611   2.412   5.537   8.176  0.7139 -0.3016  0.2191
    5MOL0     C  612   2.408   5.599   8.039  0.2099 -1.5707  0.0449
    5MOL0     C  613   2.287   5.554   7.949 -1.3380  0.7185 -0.6851
    5MOL0     C  614   2.280   5.401   7.946  0.2259 -0.4485 -0.3638
    5MOL0     C  615   2.158   5.359   7.859 -0.7335  0.1569 -0.1918
    5MOL0     C  616   2.194   5.244   7.776  1.5596  0.2680 -0.1974
    5MOL0     C  617   2.211   5.147   7.704 -0.9594 -0.3220  0.8551
    5MOL0     C  618   2.264   5.712   8.273 -0.0879  0.4488 -0.5920
    5MOL0     C  619   2.199   5.768   8.382 -0.1961 -0.8778  0.3132
    5MOL0     C  620   2.139   5.904   8.350  0.1706 -0.7454  0.9157
    5MOL0     H  621   1.831   6.002   8.573  4.1799 -0.9973 -1.5242
    5MOL0     H  622   1.747   6.189   8.712 -0.6917  0.5208  2.5344
    5MOL0     H  623   2.020   6.338   9.003  1.5098  0.8236  1.7818
    5MOL0     H  624   1.954   6.234   9.127  0.1986  1.0845  0.3982
    5MOL0     H  625   1.928   6.467   9.184  0.8577 -2.8054  1.7260
    5MOL0     H  626   1.816   6.503   9.042 -2.7199  0.4936 -0.1234
    5MOL0     H  627   1.697   6.295   9.163 -0.9638 -0.6058  2.2926
    5MOL0     H  628   1.758   6.401   9.294  0.0317  1.6873 -0.2348
    5MOL0     H  629   1.647   6.598   9.207 -0.4403  0.1807  1.7357
    5MOL0     H  630   1.596   6.489   9.071  0.7087 -4.2096 -0.1390
    5MOL0     H  631   1.531   6.487   9.367  0.0527  2.8055 -1.3497
    5MOL0     H  632   1.499   6.336   9.267  2.7148 -0.3212  0.3104
    5MOL0     H  633   1.342   6.607   9.243  1.1627  0.5641 -2.1617
    5MOL0     H  634   1.346   6.492   9.112  2.1659 -2.1468 -0.2856
    5MOL0     H  635   1.241   6.426   9.390  1.7693  0.5195 -0.1051
    5MOL0     H  636   1.292   6.308   9.274  2.1382  0.8206 -0.0569
    5MOL0     H  637   1.151   6.401   9.105  0.3586 -0.2192 -0.7636
    5MOL0     H  638   1.049   6.355   9.236 -0.8978  0.8784 -0.3772
    5MOL0     H  639   1.106   6.668   9.034 -3.1809  1.4065 -1.5867
    5MOL0     H  640   1.173   6.935   9.154 -1.0837  3.4624  0.6100
    5MOL0     H  641   1.021   6.981   9.220  2.2382  2.6809  0.0655
    5MOL0     H  642   1.010   7.050   8.994  1.6008  0.3636  1.1732
    5MOL0     H  643   1.062   6.905   8.927 -3.1091 -1.4645 -1.7988
    5MOL0     H  644   0.869   6.794   8.953  0.4591 -0.0367  0.9305
    5MOL0     H  645   0.810   6.904   9.076 -4.2803 -3.1335 -2.9412
    5MOL0     H  646   0.705   6.944   8.849 -0.7040  2.4000 -2.3209
    5MOL0     H  647   0.782   7.089   8.908 -0.8856  0.7587  0.5933
    5MOL0     H  648   0.746   6.967   8.523 -0.1917 -0.1951 -0.7519
    5MOL0     H  649   0.697   7.189   8.257 -1.2899 -0.6573 -0.6466
    5MOL0     H  650   0.533   7.176   8.340 -0.6203 -1.8912  0.0446
    5MOL0     H  651   0.642   7.043   8.329 -4.2301 -1.3542 -1.5667
    5MOL0     H  652   0.560   7.615   8.251  3.8865 -3.2184  0.0024
    5MOL0     H  653   0.534   7.844   8.165  1.8952  0.5926 -2.7033
    5MOL0     H  654   0.555   8.152   8.307  0.4859 -0.9730 -0.5481
    5MOL0     H  655   0.677   8.114   8.416 -0.8869 -2.7990 -0.1889
    5MOL0     H  656   0.697   8.357   8.353 -0.2865  1.6776 -0.6253
    5MOL0     H  657   0.841   8.269   8.305 -0.1349 -0.2262 -1.0410
    5MOL0     H  658   0.578   8.375   8.154  0.6698  1.7429  1.9825
    5MOL0     H  659   0.692   8.271   8.070 -3.1275 -1.2609 -0.2239
    5MOL0     H  660   0.782   8.531   8.212 -1.1376  0.5941 -0.0156
    5MOL0     H  661   0.728   8.524   8.043  1.3904 -2.9621 -2.2114
    5MOL0     H  662   0.958   8.348   8.122  1.5244  3.0293  2.5422
    5MOL0     H  663   0.899   8.388   7.965 -0.5275 -3.3937  1.4738
    5MOL0     H  664   0.973   8.622   8.124  0.4010 -2.0555  2.5818
    5MOL0     H  665   0.982   8.592   7.950 -5.7123 -0.9126  0.1250
    5MOL0     H  666   1.142   8.446   8.170 -0.7108 -3.4668 -2.6779
    5MOL0     H  667   1.200   8.597   8.100  1.6005 -1.3842  2.1505
    5MOL0     H  668   1.174   8.319   8.000 -0.3535 -0.4623 -1.8838
    5MOL0     H  669   1.316   8.422   7.972 -0.5188  0.1778 -1.9903
    5MOL0     H  670   0.875   7.978   8.378  1.8177 -1.5998  2.1164
    5MOL0     H  671   0.901   7.735   8.452  1.7233  0.7891  0.5563
    5MOL0     H  672   0.837   7.440   8.668  1.2548  0.4792  0.5914
    5MOL0     H  673   0.906   7.262   8.802  1.7029 -0.9321 -0.1402
    5MOL0     H  674   2.014   6.058   9.023  1.2860 -2.1910 -0.0611
    5MOL0     H  675   2.114   5.893   8.880 -1.2539 -0.3905  3.3150
    5MOL0     H  676   2.256   5.506   8.601  3.1128  1.9445  1.2230
    5MOL0     H  677   2.356   5.414   8.401 -0.2893  0.5093  4.1990
    5MOL0     H  678   2.414   5.708   8.046  3.7778 -1.7318  1.8441
    5MOL0     H  679   2.504   5.568   7.995  0.7217  0.2489 -0.2135
    5MOL0     H  680   2.290   5.587   7.844 -0.6395  2.2579 -0.2052
    5MOL0     H  681   2.194   5.590   7.993 -0.7635  1.6510 -0.2204
    5MOL0     H  682   2.380   5.356   7.940  0.3270 -0.0846 -1.8420
    5MOL0     H  683   2.255   5.362   8.045 -0.0224  1.9761  0.5934
    5MOL0     H  684   2.126   5.447   7.801  0.4884  0.8164  0.0943
    5MOL0     H  685   2.077   5.330   7.926 -1.4457  2.6070  0.1273
    5MOL0     H  686   2.236   5.074   7.629 -0.7610  0.0221  0.5839
    5MOL0     H  687   2.287   5.768   8.183 -2.2056 -0.1951 -1.6024
    5MOL0     H  688   2.185   5.944   8.260  0.1953 -0.5247  1.0245
    5MOL0     H  689   2.030   5.901   8.340 -0.1630 -2.5051  3.8705
    5MOL0     H  690   2.167   5.976   8.428 -0.4793 -0.7981  1.2093
    6MOL0     O  691   3.015   7.826   7.220  0.6993 -0.0037 -0.0394
    6MOL0     C  692   2.903   7.853   7.257 -0.3459 -0.7126 -0.5732
    6MOL0     O  693   2.862   7.961   7.316 -0.5422 -0.1819  0.0850
    6MOL0     C  694   2.937   8.079   7.327 -1.4268 -0.3167 -0.1218
    6MOL0     C  695   3.035   8.117   7.235 -0.1472 -0.8956 -0.1418
    6MOL0     C  696   3.110   8.236   7.250  0.0271  0.3448 -0.3828
    6MOL0     C  697   3.072   8.321   7.357  0.5541 -0.0412  0.5126
    6MOL0     O  698   3.134   8.436   7.374 -0.1729 -1.1584 -0.9833
    6MOL0     C  699   3.258   8.434   7.440  0.2985  0.5551  0.3235
    6MOL0     C  700   3.242   8.452   7.594 -0.4666  0.2287  0.1274
    6MOL0     C  701   3.366   8.424   7.673  0.3492  0.6011 -0.3058
    6MOL0     C  702   3.427   8.569   7.694  0.2785 -0.1242 -0.3438
    6MOL0     C  703   3.567   8.564   7.762 -0.1453 -0.8279 -0.5390
    6MOL0     C  704   3.662   8.685   7.732  0.3483 -0.2110  0.5325
    6MOL0     C  705   3.608   8.824   7.791  0.4003  0.7901 -0.3920
    6MOL0     C  706   3.642   8.839   7.943  0.2356 -0.4270  0.2285
    6MOL0     N  707   3.595   8.971   7.995 -0.4251 -0.2196  0.0538
    6MOL0     C  708   3.477   8.995   8.063 -0.5987 -0.3208 -0.4352
    6MOL0     C  709   3.493   9.106   8.129  0.0947 -0.5025  0.3220
    6MOL0     C  710   3.394   9.181   8.213 -0.2925  0.4549 -0.1982
    6MOL0     C  711   3.439   9.184   8.363 -0.1584  0.2743  0.4764
    6MOL0     C  712   3.330   9.213   8.466 -0.2156  0.1842 -0.0392
    6MOL0     C  713   3.256   9.346   8.437 -0.0551  0.7576 -0.2196
    6MOL0     O  714   3.340   9.455   8.467  0.3007  0.0360  0.5595
    6MOL0     C  715   3.306   9.538   8.570 -0.3205  1.1051  0.1496
    6MOL0     C  716   3.354   9.670   8.563  0.4018  0.7640  0.3860
    6MOL0     C  717   3.309   9.763   8.669 -0.2303 -0.7598  0.0846
    6MOL0     C  718   3.363   9.908   8.664  0.1094 -0.2563 -0.7240
    6MOL0     C  719   3.239   9.719   8.786  0.0001  0.1242  0.1095
    6MOL0     C  720   3.213   9.802   8.903  0.8613  0.2822 -0.8223
    6MOL0     O  721   3.127   9.749   9.004 -0.0885  0.5262 -0.2466
    6MOL0     C  722   3.096   9.828   9.113 -0.1427 -0.1353  0.5744
    6MOL0     C  723   3.160   9.796   9.232 -0.3554  0.1549 -0.3419
    6MOL0     C  724   3.124   9.836   9.357 -0.4591 -0.9058  0.0816
    6MOL0     C  725   3.002   9.919   9.359  0.2640  0.2423 -1.2420
    6MOL0     O  726   2.949   9.960   9.481 -0.0462 -0.4056 -0.0011
    6MOL0     C  727   2.909   9.852   9.576  0.7657  0.8021 -0.4322
    6MOL0     C  728   2.876   9.913   9.715 -0.8704  2.0015  0.0105
    6MOL0     C  729   2.999   9.945   9.798  0.2338  0.5731  0.8036
    6MOL0     C  730   2.987  10.000   9.939 -0.0492  0.2780 -0.6809
    6MOL0     C  731   2.889  10.124   9.940  0.1517  0.0974  0.0674
    6MOL0     C  732   2.858  10.134  10.086 -0.7912  0.0750 -0.5973
    6MOL0     C  733   2.763  10.253  10.095  0.9225 -0.1182 -0.1110
    6MOL0     C  734   2.711  10.297  10.232 -0.0545  0.1195 -0.2713
    6MOL0    Cl  735   2.844  10.386  10.312  0.4291  0.5405  0.1367
    6MOL0     C  736   2.941   9.962   9.249  0.4074  0.0426 -0.4321
    6MOL0     C  737   2.985   9.919   9.122 -0.2518  1.6151  0.4463
    6MOL0     O  738   3.266   9.906   8.919  0.0663  0.1782 -0.0355
    6MOL0     C  739   3.202   9.588   8.788  0.4950  0.4212 -1.2735
    6MOL0     C  740   3.233   9.501   8.683 -0.3796  0.0772  0.2802
    6MOL0     N  741   3.614   9.158   8.099 -0.0298 -0.1295  0.3514
    6MOL0     N  742   3.677   9.080   8.013 -0.3455  0.6864  0.7928
    6MOL0     C  743   2.970   8.283   7.445 -0.4629  0.2853 -0.2612
    6MOL0     C  744   2.907   8.158   7.431  0.0201  1.0488 -0.0071
    6MOL0     C  745   2.815   7.741   7.246 -0.1959 -0.4350 -0.1109
    6MOL0     C  746   2.832   7.639   7.146 -0.1575 -0.3894  0.2199
    6MOL0     C  747   2.757   7.522   7.165  0.3244  0.2881  0.2058
    6MOL0     C  748   2.666   7.496   7.261  0.0502  0.2948 -0.0388
    6MOL0     O  749   2.592   7.380   7.279 -0.1700 -0.5883  0.6940
    6MOL0     C  750   2.570   7.328   7.406  0.0820 -0.4507  0.0950
    6MOL0     C  751   2.505   7.182   7.398 -0.4312 -0.2079  1.0791
    6MOL0     C  752   2.579   7.071   7.303 -0.4021 -0.1098  0.2304
    6MOL0     C  753   2.708   7.012   7.359  0.5044  0.6236  0.6000
    6MOL0     C  754   2.744   6.885   7.299 -0.0353 -0.5705  0.4231
    6MOL0     C  755   2.765   6.779   7.250  0.2158  0.3052 -1.0782
    6MOL0     C  756   2.652   7.589   7.363 -0.1978 -0.0740 -0.4463
    6MOL0     C  757   2.728   7.707   7.354  0.3486  0.4137  0.0602
    6MOL0     C  758   2.689   7.802   7.472 -0.3731 -2.1796  1.0477
    6MOL0     H  759   3.076   8.064   7.151  0.1226  1.7616 -1.8214
    6MOL0     H  760   3.186   8.267   7.179  0.3604 -1.5323 -0.8994
    6MOL0     H  761   3.313   8.519   7.399 -0.3711  2.0783  2.4080
    6MOL0     H  762   3.306   8.342   7.404  4.1977  2.5781 -0.2313
    6MOL0     H  763   3.197   8.548   7.623  0.0596 -0.0718  2.1151
    6MOL0     H  764   3.165   8.380   7.624 -0.8855  1.6474  2.7328
    6MOL0     H  765   3.334   8.381   7.769  0.6400  1.2838  0.1030
    6MOL0     H  766   3.433   8.358   7.616 -3.9417 -2.1671 -2.6944
    6MOL0     H  767   3.432   8.617   7.596  1.6498 -2.5596 -1.5728
    6MOL0     H  768   3.358   8.628   7.755  3.2296  0.5037  2.7423
    6MOL0     H  769   3.621   8.476   7.727 -0.4894 -1.5109  0.5816
    6MOL0     H  770   3.554   8.536   7.867 -1.2887  0.1827 -0.3903
    6MOL0     H  771   3.759   8.655   7.772  2.0447 -0.3206 -3.2202
    6MOL0     H  772   3.672   8.690   7.623 -4.9762  2.8994 -0.2113
    6MOL0     H  773   3.500   8.807   7.782  0.2999  0.1587  1.5362
    6MOL0     H  774   3.651   8.905   7.731  5.0892 -1.1329 -0.0005
    6MOL0     H  775   3.593   8.758   7.999 -0.9436 -0.7500 -1.1835
    6MOL0     H  776   3.748   8.817   7.955 -0.4413 -4.2899  0.5313
    6MOL0     H  777   3.388   8.932   8.058 -0.1603 -0.9706 -0.1062
    6MOL0     H  778   3.302   9.122   8.213  0.3818 -0.6322  0.7069
    6MOL0     H  779   3.367   9.269   8.154 -1.1176 -0.5376 -1.3840
    6MOL0     H  780   3.487   9.091   8.394  1.0892 -0.3150 -2.8264
    6MOL0     H  781   3.522   9.255   8.362 -0.6304  0.8303 -0.5310
    6MOL0     H  782   3.240   9.152   8.472 -3.8868  4.8585 -1.0133
    6MOL0     H  783   3.367   9.208   8.569  0.5289 -2.3755 -0.3761
    6MOL0     H  784   3.219   9.348   8.334  1.9236  3.6259 -0.9937
    6MOL0     H  785   3.174   9.341   8.509 -0.5984  1.0399 -0.8094
    6MOL0     H  786   3.409   9.707   8.476  0.0025 -1.8149 -1.0669
    6MOL0     H  787   3.276   9.974   8.666  0.8707  1.0714 -4.2805
    6MOL0     H  788   3.413   9.929   8.569  4.1314 -0.0825  1.2194
    6MOL0     H  789   3.427   9.939   8.747 -1.2245  1.8529 -0.4047
    6MOL0     H  790   3.253   9.740   9.222 -1.1958 -0.9699 -2.4050
    6MOL0     H  791   3.180   9.803   9.444 -2.2096 -5.3882 -0.2198
    6MOL0     H  792   2.823   9.793   9.544  0.6142 -0.3131  1.8627
    6MOL0     H  793   2.992   9.780   9.578  0.8667  0.9166 -0.5257
    6MOL0     H  794   2.817  10.002   9.691 -0.0383  1.7984 -3.3692
    6MOL0     H  795   2.822   9.836   9.771  1.2375 -0.6272 -1.2995
    6MOL0     H  796   3.053  10.022   9.741  0.3869 -0.6269 -0.7335
    6MOL0     H  797   3.071   9.864   9.782  0.2088  1.1251 -3.4951
    6MOL0     H  798   3.090  10.022   9.965 -0.5354 -0.3497  2.0306
    6MOL0     H  799   2.953   9.924  10.010  0.6564  1.9896  1.5713
    6MOL0     H  800   2.938  10.211   9.894 -1.6348 -0.3276 -2.8636
    6MOL0     H  801   2.795  10.105   9.887 -1.4088  0.4260  2.5562
    6MOL0     H  802   2.944  10.150  10.153  0.4507 -1.2591 -1.7938
    6MOL0     H  803   2.808  10.040  10.113 -1.6124  0.7796  0.4229
    6MOL0     H  804   2.667  10.249  10.043 -0.5973  4.1231  1.8786
    6MOL0     H  805   2.822  10.340  10.064  1.1439 -0.8647 -1.8648
    6MOL0     H  806   2.678  10.206  10.285  0.2632  0.2932  0.2351
    6MOL0     H  807   2.620  10.356  10.221 -0.7605 -1.3464 -3.1533
    6MOL0     H  808   2.852  10.024   9.250 -0.5854 -1.3046  2.3128
    6MOL0     H  809   2.938   9.947   9.028  0.2962 -0.2731 -0.4546
    6MOL0     H  810   3.148   9.538   8.868  2.6147 -1.9106 -1.1850
    6MOL0     H  811   3.200   9.398   8.692  1.1428 -0.6470 -1.6138
    6MOL0     H  812   2.950   8.351   7.528  0.9694  1.1780 -0.5947
    6MOL0     H  813   2.834   8.129   7.506 -0.8792  2.5209 -0.2909
    6MOL0     H  814   2.901   7.654   7.064  0.6487  0.2784  0.9968
    6MOL0     H  815   2.774   7.438   7.098 -3.2606 -1.6156  1.4440
    6MOL0     H  816   2.671   7.318   7.448  0.3962 -0.4014 -0.6326
    6MOL0     H  817   2.514   7.391   7.475  0.0243 -0.4042  0.0044
    6MOL0     H  818   2.406   7.205   7.355  1.3560  2.5128 -2.0809
    6MOL0     H  819   2.511   7.132   7.495  0.9689  0.2322  1.2353
    6MOL0     H  820   2.501   6.999   7.278 -0.3183 -0.7298  1.6740
    6MOL0     H  821   2.602   7.117   7.206  0.8250  2.7286  1.7321
    6MOL0     H  822   2.694   6.980   7.463 -1.7836 -2.2960 -0.4586
    6MOL0     H  823   2.789   7.086   7.353 -0.7669  2.1182  1.1334
    6MOL0     H  824   2.779   6.678   7.215  1.4864  0.4932 -1.1559
    6MOL0     H  825   2.580   7.572   7.442  2.3037 -1.2354  1.7782
    6MOL0     H  826   2.609   7.873   7.449  3.0214  1.4054 -0.8642
    6MOL0     H  827   2.662   7.742   7.559 -2.4442 -3.2107 -0.2223
    6MOL0     H  828   2.775   7.869   7.486 -1.7806  0.2176 -0.8840
    7MOL0     O  829   7.230   2.072   0.912 -0.3313 -0.4319  0.1726
    7MOL0     C  830   7.182   2.123   0.808 -0.2640  0.0071  0.7258
    7MOL0     O  831   7.147   2.048   0.704  0.6981 -0.9806 -0.1705
    7MOL0     C  832   7.220   1.941   0.659 -0.1956  0.1152 -0.6226
    7MOL0     C  833   7.255   1.825   0.732  0.2735  0.0208  0.0623
    7MOL0     C  834   7.336   1.724   0.677  1.1806  0.1617 -0.9544
    7MOL0     C  835   7.397   1.739   0.554 -0.3000 -0.7717 -0.1552
    7MOL0     O  836   7.469   1.636   0.500 -0.2789 -0.2169 -0.3872
    7MOL0     C  837   7.514   1.640   0.360 -0.0758 -0.0769 -0.0175
    7MOL0     C  838   7.565   1.505   0.312  0.2237  0.0427  0.4999
    7MOL0     C  839   7.436   1.416   0.278 -0.4232 -0.8984 -0.4545
    7MOL0     C  840   7.453   1.273   0.212  0.6130 -0.1074 -0.8790
    7MOL0     C  841   7.500   1.288   0.071 -0.0932 -0.5036 -0.1436
    7MOL0     C  842   7.502   1.156  -0.001  0.9463 -0.8840 -0.4662
    7MOL0     C  843   7.543   1.178  -0.143  0.9813  0.5974 -0.4081
    7MOL0     C  844   7.549   1.045  -0.221 -0.6814  0.2671 -0.5306
    7MOL0     N  845   7.585   1.060  -0.361  0.3261  0.1288  0.2462
    7MOL0     C  846   7.509   1.114  -0.456 -0.9501  1.4784 -0.7106
    7MOL0     C  847   7.584   1.121  -0.568 -0.0049 -0.0692  1.1078
    7MOL0     C  848   7.541   1.196  -0.699 -0.3932 -0.6829 -0.1461
    7MOL0     C  849   7.601   1.337  -0.683 -0.1733 -0.5567 -0.1193
    7MOL0     C  850   7.540   1.432  -0.579  0.4219 -0.4588  0.5612
    7MOL0     C  851   7.388   1.438  -0.571 -0.4361 -0.5607 -0.5566
    7MOL0     O  852   7.341   1.529  -0.479 -0.0027  0.4842 -0.4244
    7MOL0     C  853   7.200   1.531  -0.479  0.7464 -0.7517  0.4237
    7MOL0     C  854   7.142   1.632  -0.404 -0.0769  0.2435  0.7045
    7MOL0     C  855   7.001   1.661  -0.409  0.9796  0.3255 -0.6849
    7MOL0     C  856   6.946   1.776  -0.331  0.0578 -0.4000  0.7108
    7MOL0     C  857   6.918   1.592  -0.494 -1.1756 -0.5110 -0.7179
    7MOL0     C  858   6.775   1.588  -0.501 -0.0338  0.1777 -0.4452
    7MOL0     O  859   6.725   1.614  -0.619  0.3670  0.0793  0.6100
    7MOL0     C  860   6.587   1.620  -0.636  0.3561  0.1758  0.1451
    7MOL0     C  861   6.505   1.695  -0.546 -0.2195  0.6945  0.4178
    7MOL0     C  862   6.368   1.706  -0.567  0.3394  0.6968 -0.1646
    7MOL0     C  863   6.303   1.634  -0.674 -0.1632 -0.1344 -0.1194
    7MOL0     O  864   6.165   1.637  -0.680  0.1940 -0.7934 -0.3484
    7MOL0     C  865   6.102   1.762  -0.654  0.3166 -0.1032  0.0459
    7MOL0     C  866   5.972   1.769  -0.727  0.0477  0.0899  0.3063
    7MOL0     C  867   5.944   1.916  -0.760 -0.4873  0.0898 -0.4295
    7MOL0     C  868   6.022   1.979  -0.883 -0.2321 -0.0462 -0.0571
    7MOL0     C  869   6.034   2.134  -0.866 -0.9433  1.0095  0.3899
    7MOL0     C  870   6.120   2.203  -0.970 -0.3175 -0.2921  0.2816
    7MOL0     C  871   6.094   2.356  -0.994 -0.7277  0.6569 -0.0004
    7MOL0     C  872   6.163   2.387  -1.119  0.1234 -0.1533 -0.1224
    7MOL0    Cl  873   6.136   2.557  -1.159 -0.2359 -0.2426 -0.1328
    7MOL0     C  874   6.378   1.559  -0.763 -0.0983  0.2407  0.3874
    7MOL0     C  875   6.519   1.549  -0.736  0.7815  0.4599  0.1236
    7MOL0     O  876   6.722   1.561  -0.403  0.7577 -0.5682 -0.0323
    7MOL0     C  877   6.973   1.487  -0.568  0.5489 -0.7174 -0.5482
    7MOL0     C  878   7.112   1.465  -0.567  0.1778  0.6596 -0.2398
    7MOL0     N  879   7.704   1.069  -0.526 -1.1014 -0.4464  1.1281
    7MOL0     N  880   7.703   1.032  -0.402 -0.1082  0.6412 -0.7716
    7MOL0     C  881   7.360   1.861   0.485 -0.5353 -0.3352 -0.7040
    7MOL0     C  882   7.263   1.953   0.527 -0.3677  0.0927  0.3712
    7MOL0     C  883   7.153   2.271   0.810 -0.3152  0.7172  0.3879
    7MOL0     C  884   7.145   2.328   0.939 -0.9513  0.3310  0.0116
    7MOL0     C  885   7.142   2.469   0.942 -0.3948  0.2437 -0.5157
    7MOL0     C  886   7.135   2.552   0.837 -0.5598  0.6486 -0.8620
    7MOL0     O  887   7.148   2.688   0.847  0.2133 -0.7159 -0.1648
    7MOL0     C  888   7.087   2.775   0.750 -0.3122  0.4942 -0.4335
    7MOL0     C  889   7.078   2.919   0.795 -0.6108 -0.2493  0.0679
    7MOL0     C  890   7.214   2.980   0.844  0.9322  0.1397  0.7332
    7MOL0     C  891   7.211   3.125   0.893 -1.0959 -0.6485 -0.1734
    7MOL0     C  892   7.133   3.146   1.009  0.5225  0.3067  0.3655
    7MOL0     C  893   7.048   3.150   1.098 -0.2252 -0.3447  0.4065
    7MOL0     C  894   7.149   2.490   0.704  0.4829 -1.0909  0.2038
    7MOL0     C  895   7.152   2.352   0.695  0.3051 -0.6428  0.6908
    7MOL0     C  896   7.179   2.291   0.566  1.0157  0.4266  0.3333
    7MOL0     H  897   7.214   1.809   0.832  0.6781  2.1922  0.6310
    7MOL0     H  898   7.357   1.639   0.741  1.1892  0.6133 -0.3504
    7MOL0     H  899   7.596   1.711   0.344  0.4011 -0.9255 -1.6611
    7MOL0     H  900   7.428   1.666   0.298  0.2094 -0.2736 -0.5052
    7MOL0     H  901   7.637   1.510   0.230  0.4063 -0.8528  0.5918
    7MOL0     H  902   7.619   1.461   0.396  1.3497  0.6372  0.1144
    7MOL0     H  903   7.381   1.395   0.370  1.6418  1.7641  1.5562
    7MOL0     H  904   7.362   1.468   0.217 -3.2832 -0.8135  2.7877
    7MOL0     H  905   7.534   1.229   0.269  0.0691 -0.8220 -0.6402
    7MOL0     H  906   7.367   1.207   0.222 -0.8140  1.4454 -2.1382
    7MOL0     H  907   7.600   1.331   0.080  0.5036 -2.0460  0.9549
    7MOL0     H  908   7.432   1.351   0.012  1.0705  3.3106  2.2016
    7MOL0     H  909   7.565   1.083   0.050  0.4189 -0.7257  0.4357
    7MOL0     H  910   7.409   1.100   0.011 -2.0122  3.6547  0.6710
    7MOL0     H  911   7.637   1.233  -0.136  1.3587 -0.1640  0.8399
    7MOL0     H  912   7.457   1.237  -0.176 -2.1979 -1.7721  2.8598
    7MOL0     H  913   7.607   0.971  -0.165 -3.2071  0.1079  2.1138
    7MOL0     H  914   7.447   1.004  -0.213 -0.3833 -0.0733  3.3456
    7MOL0     H  915   7.410   1.156  -0.440 -1.7348 -0.2963 -0.7481
    7MOL0     H  916   7.433   1.198  -0.717 -1.1996 -1.4339  3.7330
    7MOL0     H  917   7.597   1.162  -0.787 -0.2548  1.1357 -0.8177
    7MOL0     H  918   7.710   1.337  -0.672  0.0365 -4.9471 -0.4632
    7MOL0     H  919   7.592   1.375  -0.785 -2.4907 -0.0802  0.2252
    7MOL0     H  920   7.591   1.405  -0.486  0.5421 -0.4024  0.5126
    7MOL0     H  921   7.582   1.531  -0.599  1.6385 -1.1572 -0.5289
    7MOL0     H  922   7.343   1.461  -0.668 -2.9842  0.5032  0.7651
    7MOL0     H  923   7.362   1.343  -0.525  0.9571 -0.5558  0.2876
    7MOL0     H  924   7.217   1.685  -0.346 -0.5832  2.7559 -0.7928
    7MOL0     H  925   6.987   1.789  -0.231 -1.4471  0.6155  1.2366
    7MOL0     H  926   6.838   1.770  -0.314 -0.3219 -2.1970 -1.8161
    7MOL0     H  927   6.972   1.860  -0.396 -0.6617 -0.4748  0.3197
    7MOL0     H  928   6.551   1.755  -0.468  1.2871  3.0765 -2.1141
    7MOL0     H  929   6.325   1.775  -0.495  0.0827 -1.7916  2.2618
    7MOL0     H  930   6.106   1.782  -0.546  3.8119  3.2171 -0.4708
    7MOL0     H  931   6.171   1.833  -0.700 -2.0062  0.2545 -3.2313
    7MOL0     H  932   5.986   1.711  -0.819  0.1226  1.2639 -0.4298
    7MOL0     H  933   5.887   1.727  -0.672 -0.5354  2.1032  1.0007
    7MOL0     H  934   5.952   1.977  -0.670 -1.1514  0.0962 -0.3708
    7MOL0     H  935   5.839   1.922  -0.791 -0.3753 -0.8827 -1.0296
    7MOL0     H  936   5.956   1.973  -0.969 -1.8826 -0.7954  1.2171
    7MOL0     H  937   6.121   1.934  -0.896  1.5922  2.4002  3.5942
    7MOL0     H  938   5.935   2.176  -0.848 -0.3022  1.7739  2.4427
    7MOL0     H  939   6.078   2.161  -0.770  0.5440 -1.5713  0.5284
    7MOL0     H  940   6.100   2.147  -1.062  2.2630 -0.2527 -0.3977
    7MOL0     H  941   6.225   2.181  -0.945 -0.5007 -1.3251  0.2067
    7MOL0     H  942   6.122   2.422  -0.912 -1.1955  2.3098 -1.1195
    7MOL0     H  943   5.987   2.374  -1.000 -0.9865 -0.5763  0.5934
    7MOL0     H  944   6.139   2.325  -1.205  4.2391 -1.7367 -0.3734
    7MOL0     H  945   6.272   2.381  -1.105  0.2805  1.8513 -0.2042
    7MOL0     H  946   6.339   1.499  -0.844 -0.0608 -0.0372  0.5757
    7MOL0     H  947   6.587   1.484  -0.790  3.0008  2.6002  0.1775
    7MOL0     H  948   6.914   1.422  -0.633  3.3077 -3.0123 -0.9282
    7MOL0     H  949   7.143   1.383  -0.631  0.0082 -0.1469  0.6884
    7MOL0     H  950   7.414   1.887   0.395 -1.0038  0.8918 -0.6420
    7MOL0     H  951   7.265   2.043   0.467 -0.0829 -1.1318 -1.5581
    7MOL0     H  952   7.138   2.269   1.030 -0.6827 -4.2152 -2.6080
    7MOL0     H  953   7.138   2.524   1.035 -0.2308  0.7790 -0.8224
    7MOL0     H  954   7.135   2.771   0.652 -0.1077 -3.7895 -0.3331
    7MOL0     H  955   6.982   2.747   0.743  0.1240 -2.1459  1.7335
    7MOL0     H  956   7.002   2.930   0.873  1.3016  1.5074  1.7855
    7MOL0     H  957   7.053   2.985   0.711 -1.7325  1.1321  1.4398
    7MOL0     H  958   7.231   2.925   0.936  1.7065  0.3758  0.7361
    7MOL0     H  959   7.299   2.972   0.776  0.3890  0.3385  0.0180
    7MOL0     H  960   7.176   3.190   0.812  0.5895  2.3154  1.3286
    7MOL0     H  961   7.313   3.159   0.912 -2.1833  3.4353 -0.7351
    7MOL0     H  962   6.993   3.169   1.188 -0.8981  3.9317 -0.6926
    7MOL0     H  963   7.161   2.544   0.611  0.8281  0.7464  1.2613
    7MOL0     H  964   7.094   2.225   0.548  1.3266  0.1322 -0.0638
    7MOL0     H  965   7.183   2.365   0.486  1.9954  4.8850  4.0264
    7MOL0     H  966   7.268   2.227   0.560 -0.8873 -2.4188  0.5300
    8MOL0     O  967   5.916   7.178   0.204 -0.9547 -0.1168 -0.0740
    8MOL0     C  968   6.033   7.209   0.237  0.3924  0.5082  0.8599
    8MOL0     O  969   6.151   7.212   0.155 -0.2385  0.3721 -0.5206
    8MOL0     C  970   6.130   7.201   0.018 -0.1755 -1.3299  0.3905
    8MOL0     C  971   6.027   7.258  -0.065 -0.1078  0.2202 -0.5751
    8MOL0     C  972   6.023   7.230  -0.205  1.6921 -0.1021 -0.0706
    8MOL0     C  973   6.120   7.155  -0.272  0.0804  0.1600  0.6130
    8MOL0     O  974   6.127   7.129  -0.410 -0.0751  0.7317  0.6348
    8MOL0     C  975   6.164   6.997  -0.458 -0.3602 -0.3690 -0.1677
    8MOL0     C  976   6.103   6.974  -0.599  0.7442  0.3254  0.0638
    8MOL0     C  977   6.116   6.834  -0.644  0.6485  0.4922 -0.5348
    8MOL0     C  978   6.033   6.822  -0.772 -0.2225 -0.0840 -0.0622
    8MOL0     C  979   6.075   6.917  -0.880 -0.4808  0.1926  0.1512
    8MOL0     C  980   6.205   6.886  -0.955  0.4304 -0.9048  0.0342
    8MOL0     C  981   6.208   6.957  -1.092  0.0570 -0.2185 -0.4264
    8MOL0     C  982   6.280   7.098  -1.096  0.1697  0.2440 -0.1412
    8MOL0     N  983   6.269   7.158  -1.223 -0.0263 -0.8738  0.5838
    8MOL0     C  984   6.163   7.205  -1.288  1.4850  0.9031  0.2593
    8MOL0     C  985   6.200   7.264  -1.393  1.5923  0.8309  0.5355
    8MOL0     C  986   6.110   7.311  -1.504 -0.5252 -0.4596  0.4011
    8MOL0     C  987   6.124   7.196  -1.609 -0.6259 -0.0935 -0.8148
    8MOL0     C  988   6.082   7.226  -1.756 -0.3021 -0.0363  0.0489
    8MOL0     C  989   6.036   7.097  -1.827  0.3433  0.9541  0.5603
    8MOL0     O  990   6.028   7.123  -1.979 -0.2354 -0.0687  0.2314
    8MOL0     C  991   6.040   7.007  -2.052 -0.0762  0.1778 -0.7550
    8MOL0     C  992   6.157   6.956  -2.099  0.0386  0.6535  0.9434
    8MOL0     C  993   6.163   6.826  -2.160  0.5453  0.2804 -0.4755
    8MOL0     C  994   6.291   6.754  -2.202  0.2837  0.1935 -1.2164
    8MOL0     C  995   6.037   6.750  -2.164 -0.3104  0.0270 -0.6047
    8MOL0     C  996   6.023   6.616  -2.225 -0.2204  0.7951  0.7219
    8MOL0     O  997   5.908   6.547  -2.189 -0.2139 -0.0564  0.5499
    8MOL0     C  998   5.879   6.424  -2.250 -0.2668 -0.7941 -0.4120
    8MOL0     C  999   5.751   6.407  -2.296  0.1951  0.3422 -0.5296
    8MOL0     C 1000   5.711   6.281  -2.339 -0.2579 -0.3180 -0.2339
    8MOL0     C 1001   5.790   6.163  -2.327 -0.1406  0.8562 -0.3277
    8MOL0     O 1002   5.757   6.032  -2.329  0.7310 -0.9848  0.2995
    8MOL0     C 1003   5.611   6.010  -2.321 -0.7587  0.0537  0.1865
    8MOL0     C 1004   5.549   6.026  -2.461  0.7144  1.3313  0.0085
    8MOL0     C 1005   5.406   6.002  -2.470  0.8822 -0.4824  0.3620
    8MOL0     C 1006   5.358   6.009  -2.614  0.3458  0.0430  0.6330
    8MOL0     C 1007   5.304   6.153  -2.639  0.7596  0.6434  0.1827
    8MOL0     C 1008   5.259   6.163  -2.797 -0.6151 -0.1379 -0.0867
    8MOL0     C 1009   5.218   6.308  -2.842 -0.7084 -0.4843 -0.7680
    8MOL0     C 1010   5.168   6.323  -2.987  0.4248 -0.1784 -0.3051
    8MOL0    Cl 1011   5.315   6.333  -3.092 -0.4358  0.6451 -0.3941
    8MOL0     C 1012   5.907   6.188  -2.272 -0.6263 -0.0833  0.7787
    8MOL0     C 1013   5.958   6.310  -2.235  1.1081  0.8791 -0.9115
    8MOL0     O 1014   6.112   6.567  -2.294  0.4202  0.0654  0.6409
    8MOL0     C 1015   5.920   6.814  -2.126  1.0967 -0.3497 -0.4445
    8MOL0     C 1016   5.920   6.942  -2.072  0.1844 -0.4136  0.6912
    8MOL0     N 1017   6.338   7.283  -1.391 -0.1669  0.9494  0.3877
    8MOL0     N 1018   6.375   7.208  -1.298 -0.1945  0.0103  0.0022
    8MOL0     C 1019   6.223   7.109  -0.196 -0.4681 -0.3928  0.0564
    8MOL0     C 1020   6.235   7.131  -0.051 -0.4037  0.0849  0.5817
    8MOL0     C 1021   6.048   7.229   0.386 -0.5261 -0.8558  0.1669
    8MOL0     C 1022   6.174   7.267   0.429 -0.1056 -1.0237  0.2870
    8MOL0     C 1023   6.197   7.315   0.555  0.4035  0.8537  0.3497
    8MOL0     C 1024   6.097   7.308   0.654 -0.5668 -0.0148 -0.0736
    8MOL0     O 1025   6.129   7.367   0.774  0.0625 -0.0911 -0.0639
    8MOL0     C 1026   6.045   7.461   0.844  0.3877  0.0011  0.3151
    8MOL0     C 1027   6.130   7.580   0.889 -0.8778  0.3091 -0.0877
    8MOL0     C 1028   6.223   7.547   1.010  0.1903  0.1927 -0.2506
    8MOL0     C 1029   6.183   7.457   1.134  0.1769 -0.5441 -0.6513
    8MOL0     C 1030   6.280   7.474   1.243 -0.3902 -0.6509 -0.1782
    8MOL0     C 1031   6.345   7.487   1.341 -0.3460  0.2984  1.0639
    8MOL0     C 1032   5.969   7.262   0.621  0.6753  0.2442 -1.2380
    8MOL0     C 1033   5.946   7.216   0.487 -0.4782 -0.4156 -0.4130
    8MOL0     C 1034   5.813   7.149   0.463 -0.5468  0.0743  0.4092
    8MOL0     H 1035   5.938   7.300  -0.019  1.1008 -0.0522  2.1985
    8MOL0     H 1036   5.931   7.263  -0.253  1.6725 -3.5465 -2.8531
    8MOL0     H 1037   6.146   6.920  -0.382 -0.3901  0.2434  0.4479
    8MOL0     H 1038   6.273   7.002  -0.458 -0.1874 -1.6326  3.1171
    8MOL0     H 1039   5.999   7.010  -0.598  1.4248  2.6029 -1.6831
    8MOL0     H 1040   6.151   7.051  -0.660  2.4033 -0.4454  0.3564
    8MOL0     H 1041   6.223   6.814  -0.656  0.1862 -1.2965 -1.9764
    8MOL0     H 1042   6.091   6.753  -0.575 -0.9563 -0.5685 -2.2578
    8MOL0     H 1043   6.032   6.720  -0.811 -0.5281 -0.9787  2.1290
    8MOL0     H 1044   5.927   6.825  -0.745 -0.1875 -5.1462  1.6080
    8MOL0     H 1045   6.078   7.022  -0.847  0.5333  0.2847 -0.1973
    8MOL0     H 1046   5.997   6.894  -0.952 -0.4003 -1.6271  0.6130
    8MOL0     H 1047   6.271   6.925  -0.877  0.7482  1.8977 -1.5023
    8MOL0     H 1048   6.226   6.779  -0.956  0.3961 -0.9085 -0.2325
    8MOL0     H 1049   6.104   6.972  -1.123  0.2998  1.0703 -0.6907
    8MOL0     H 1050   6.253   6.887  -1.163  0.7494 -0.7126  0.4755
    8MOL0     H 1051   6.230   7.170  -1.031 -2.0599  0.5038 -2.0224
    8MOL0     H 1052   6.383   7.087  -1.060  0.6221  0.7089 -1.2393
    8MOL0     H 1053   6.060   7.189  -1.256  0.9277  1.9681 -0.9239
    8MOL0     H 1054   6.148   7.404  -1.547 -0.9857 -0.9705 -1.1865
    8MOL0     H 1055   6.006   7.323  -1.471 -0.7233 -1.4343  0.1442
    8MOL0     H 1056   6.229   7.166  -1.623 -0.1953  0.8524  0.2662
    8MOL0     H 1057   6.071   7.105  -1.578 -3.7982  1.2258 -1.9362
    8MOL0     H 1058   6.014   7.311  -1.761  2.2307  1.9953 -2.9490
    8MOL0     H 1059   6.170   7.263  -1.808  1.4399 -1.4933  1.8202
    8MOL0     H 1060   6.115   7.024  -1.811  1.2720  1.7646 -0.2270
    8MOL0     H 1061   5.936   7.067  -1.792  0.6027  0.0485  0.5512
    8MOL0     H 1062   6.251   7.008  -2.086 -0.6645  1.5474  2.9329
    8MOL0     H 1063   6.368   6.824  -2.168  0.6415 -0.6657 -0.1686
    8MOL0     H 1064   6.306   6.725  -2.306 -1.3368 -0.0929 -1.4077
    8MOL0     H 1065   6.325   6.675  -2.133 -0.5715  1.4668  0.7504
    8MOL0     H 1066   5.679   6.488  -2.303 -0.3465  0.2545  2.6208
    8MOL0     H 1067   5.612   6.269  -2.382  0.0180 -3.3629 -0.1863
    8MOL0     H 1068   5.598   5.911  -2.276 -0.1665  0.8382  2.1842
    8MOL0     H 1069   5.574   6.093  -2.261  0.2982  0.8900 -0.2976
    8MOL0     H 1070   5.579   6.108  -2.527  0.0991  0.0241 -1.9874
    8MOL0     H 1071   5.584   5.939  -2.517 -1.2314  0.7961 -0.4217
    8MOL0     H 1072   5.354   6.074  -2.406 -2.1774 -0.0041 -2.4149
    8MOL0     H 1073   5.384   5.899  -2.439  2.2531 -0.4854  1.4145
    8MOL0     H 1074   5.280   5.937  -2.635  1.0358 -0.6900  0.5470
    8MOL0     H 1075   5.435   5.990  -2.689  1.2673 -0.8264  1.7595
    8MOL0     H 1076   5.213   6.164  -2.580  0.4859 -1.3149  0.1749
    8MOL0     H 1077   5.389   6.217  -2.613  1.9311 -1.3896  1.6042
    8MOL0     H 1078   5.173   6.100  -2.824 -1.2709 -0.3291  2.2168
    8MOL0     H 1079   5.345   6.134  -2.857 -0.9756 -1.5550  0.0374
    8MOL0     H 1080   5.315   6.357  -2.838 -0.4127 -1.0600  2.5806
    8MOL0     H 1081   5.143   6.354  -2.776  1.0587  0.7214  0.4720
    8MOL0     H 1082   5.095   6.404  -2.993 -1.5616 -1.7592  1.2392
    8MOL0     H 1083   5.105   6.243  -3.026  1.5871 -0.7859 -0.9960
    8MOL0     H 1084   5.961   6.096  -2.255 -4.3387 -2.7387 -0.5303
    8MOL0     H 1085   6.060   6.324  -2.200  1.0249  2.2506 -1.1912
    8MOL0     H 1086   5.824   6.762  -2.129  1.0966 -0.3560 -0.3213
    8MOL0     H 1087   5.831   6.986  -2.028 -0.3384 -2.8345  2.2926
    8MOL0     H 1088   6.304   7.051  -0.238 -1.8606 -1.8884 -0.6932
    8MOL0     H 1089   6.323   7.096   0.001 -1.7251  0.8703  3.6139
    8MOL0     H 1090   6.250   7.265   0.351 -2.0694 -0.4664 -1.7178
    8MOL0     H 1091   6.294   7.358   0.579  1.1983  0.0636 -1.3530
    8MOL0     H 1092   5.954   7.492   0.792 -1.7038 -2.0440  2.4962
    8MOL0     H 1093   5.997   7.415   0.930 -1.9746  1.6106 -0.0663
    8MOL0     H 1094   6.063   7.659   0.925 -0.5809 -0.1964  1.7151
    8MOL0     H 1095   6.184   7.615   0.801 -0.7977  1.0074  0.2311
    8MOL0     H 1096   6.308   7.494   0.966  0.1865  0.2605 -0.3399
    8MOL0     H 1097   6.271   7.636   1.050 -1.1234  0.5027  0.7243
    8MOL0     H 1098   6.179   7.351   1.108  0.8154 -1.2394  1.7955
    8MOL0     H 1099   6.084   7.489   1.169  0.8935 -0.5498  1.5375
    8MOL0     H 1100   6.408   7.500   1.427  3.8238 -3.4436 -1.0401
    8MOL0     H 1101   5.903   7.253   0.707  2.3128 -2.9308 -0.1707
    8MOL0     H 1102   5.759   7.206   0.387 -0.0095  1.9873  1.4005
    8MOL0     H 1103   5.826   7.041   0.449 -1.6921 -0.0755  0.4362
    8MOL0     H 1104   5.747   7.159   0.549  2.8446 -0.7748  3.3460
    9MOL0     O 1105   0.805   2.494   2.200 -0.0356 -0.7425  0.4323
    9MOL0     C 1106   0.799   2.580   2.112 -0.6762 -0.0650 -0.4751
    9MOL0     O 1107   0.730   2.562   1.995  0.7568  0.4373  0.0237
    9MOL0     C 1108   0.661   2.448   1.972 -0.6902  0.2423 -0.4685
    9MOL0     C 1109   0.696   2.372   1.862 -0.1395 -0.8253 -0.8400
    9MOL0     C 1110   0.609   2.258   1.828 -0.2470 -0.2804  0.5044
    9MOL0     C 1111   0.503   2.223   1.909 -0.3013  0.2404 -0.2637
    9MOL0     O 1112   0.424   2.108   1.873 -0.3886 -0.8281  0.5694
    9MOL0     C 1113   0.313   2.055   1.936 -0.2134  0.0665 -0.4231
    9MOL0     C 1114   0.338   1.927   2.021  0.1663 -0.4692 -0.1351
    9MOL0     C 1115   0.208   1.836   2.036  0.3465  0.2466  0.8984
    9MOL0     C 1116   0.235   1.699   1.981  0.2502  0.5208 -0.1709
    9MOL0     C 1117   0.251   1.699   1.824  0.3046 -0.7759 -0.7943
    9MOL0     C 1118   0.254   1.548   1.773  0.2153  0.2638 -1.0400
    9MOL0     C 1119   0.256   1.521   1.620  0.1229 -0.4915  0.3479
    9MOL0     C 1120   0.381   1.577   1.565 -0.5856  0.2087 -0.0269
    9MOL0     N 1121   0.374   1.579   1.418  0.3600 -0.2526  0.6333
    9MOL0     C 1122   0.474   1.543   1.326  0.9205 -1.1241 -0.1687
    9MOL0     C 1123   0.427   1.592   1.207  0.0758 -0.6634  0.8855
    9MOL0     C 1124   0.488   1.580   1.076 -0.2550 -0.6420  1.0925
    9MOL0     C 1125   0.551   1.711   1.028  0.6026 -0.4237 -0.3279
    9MOL0     C 1126   0.690   1.676   0.966  0.8650  1.1443 -0.6203
    9MOL0     C 1127   0.771   1.802   0.929  0.2330 -0.7892 -0.1210
    9MOL0     O 1128   0.680   1.906   0.883  0.4061 -0.1115  0.2883
    9MOL0     C 1129   0.719   1.992   0.787  0.0501 -0.9738  0.0777
    9MOL0     C 1130   0.631   2.089   0.765 -0.3745  0.8754 -1.0375
    9MOL0     C 1131   0.642   2.180   0.666  1.5087 -0.6258 -0.6713
    9MOL0     C 1132   0.514   2.265   0.644  0.0639 -0.2501 -0.1032
    9MOL0     C 1133   0.756   2.190   0.586  1.2639  0.2149 -0.1468
    9MOL0     C 1134   0.773   2.291   0.472 -0.4034 -0.1342  0.3852
    9MOL0     O 1135   0.881   2.272   0.414 -0.2747  0.0562  0.7616
    9MOL0     C 1136   0.954   2.356   0.325  0.9944  0.5968  0.2166
    9MOL0     C 1137   0.898   2.435   0.219 -0.2031 -0.0472  0.4985
    9MOL0     C 1138   0.991   2.518   0.140  0.8821 -0.5573  0.3728
    9MOL0     C 1139   1.128   2.517   0.159  0.5673 -0.4273 -1.1284
    9MOL0     O 1140   1.220   2.580   0.084 -0.4874  0.8636 -0.0649
    9MOL0     C 1141   1.169   2.611  -0.048  0.3141 -0.0240  0.3205
    9MOL0     C 1142   1.294   2.654  -0.139  1.1768 -0.6550 -0.0789
    9MOL0     C 1143   1.257   2.729  -0.260 -0.0163  0.3597 -0.5796
    9MOL0     C 1144   1.216   2.879  -0.237 -0.2245 -0.9524 -0.2134
    9MOL0     C 1145   1.279   2.969  -0.335  0.2780  0.1332  0.6428
    9MOL0     C 1146   1.192   3.100  -0.362  0.1333 -0.1710 -0.0202
    9MOL0     C 1147   1.259   3.202  -0.450 -0.6356  0.2063  0.5092
    9MOL0     C 1148   1.282   3.135  -0.589 -1.0075 -0.5223  0.2233
    9MOL0    Cl 1149   1.309   3.266  -0.707  0.0697 -0.1771 -0.0245
    9MOL0     C 1150   1.173   2.438   0.267 -0.3236  0.3953 -0.6206
    9MOL0     C 1151   1.093   2.363   0.351  0.9658  0.0285 -0.3571
    9MOL0     O 1152   0.693   2.374   0.435 -0.0354  0.0008 -0.1466
    9MOL0     C 1153   0.853   2.092   0.607  0.3397 -0.0649 -1.1028
    9MOL0     C 1154   0.838   1.996   0.716 -0.4148  0.1782  0.1037
    9MOL0     N 1155   0.297   1.643   1.218  0.1986 -0.2701 -0.0465
    9MOL0     N 1156   0.263   1.623   1.342 -0.3219 -0.3555  0.0875
    9MOL0     C 1157   0.474   2.296   2.029 -1.2450 -0.3671  0.1086
    9MOL0     C 1158   0.560   2.402   2.051 -0.7445 -0.4222  0.1635
    9MOL0     C 1159   0.856   2.714   2.135 -0.6505  0.3191 -0.2887
    9MOL0     C 1160   0.846   2.806   2.035  0.5217  0.0656  0.7909
    9MOL0     C 1161   0.896   2.931   2.041  0.5382 -0.3814 -0.1797
    9MOL0     C 1162   0.984   2.974   2.152  0.0163 -0.2250  0.4584
    9MOL0     O 1163   1.057   3.090   2.158  0.2483  0.0135 -0.0725
    9MOL0     C 1164   1.049   3.191   2.052  0.5410  0.1004 -0.8182
    9MOL0     C 1165   1.165   3.281   2.044  0.0107 -0.4506  0.5102
    9MOL0     C 1166   1.298   3.206   2.029 -0.4311 -0.5174  0.3504
    9MOL0     C 1167   1.407   3.312   2.002 -0.7769  0.3206 -0.5768
    9MOL0     C 1168   1.536   3.244   1.999  0.0238  0.4181 -0.0528
    9MOL0     C 1169   1.633   3.162   2.007  0.2716  0.3427  0.2437
    9MOL0     C 1170   0.991   2.881   2.263  0.5750 -0.6527  0.2625
    9MOL0     C 1171   0.938   2.747   2.249  0.5362  0.6602  0.0991
    9MOL0     C 1172   0.970   2.646   2.357  0.0288  0.1514 -0.2231
    9MOL0     H 1173   0.772   2.408   1.794 -0.6885  1.6751 -0.2327
    9MOL0     H 1174   0.624   2.217   1.728  2.6876 -5.2958  2.6241
    9MOL0     H 1175   0.252   2.022   1.851 -1.9739 -1.4291  1.3030
    9MOL0     H 1176   0.270   2.136   1.995  2.4025  2.2438 -1.3327
    9MOL0     H 1177   0.429   1.873   1.997  1.0580  0.8790  0.0889
    9MOL0     H 1178   0.366   1.969   2.118 -2.2994  3.4983 -0.8829
    9MOL0     H 1179   0.174   1.818   2.138 -2.0675  3.9006  0.9282
    9MOL0     H 1180   0.125   1.891   1.989 -1.8858  0.8976  5.0970
    9MOL0     H 1181   0.331   1.657   2.013 -1.1495 -5.0388 -2.0541
    9MOL0     H 1182   0.164   1.622   2.012 -1.0516  1.3029 -1.1206
    9MOL0     H 1183   0.338   1.760   1.799 -1.2997  0.6997 -3.1382
    9MOL0     H 1184   0.164   1.749   1.781 -0.5218 -0.5259  1.0617
    9MOL0     H 1185   0.346   1.499   1.808  0.5751 -0.3707 -2.7730
    9MOL0     H 1186   0.166   1.500   1.817  2.0211 -3.0534 -0.7440
    9MOL0     H 1187   0.163   1.560   1.576  1.2678  2.6621  0.4690
    9MOL0     H 1188   0.256   1.413   1.601  0.9421 -0.8826  2.3911
    9MOL0     H 1189   0.401   1.678   1.602 -4.5704  1.2806 -0.3787
    9MOL0     H 1190   0.468   1.519   1.599  0.9127  1.6211 -1.2610
    9MOL0     H 1191   0.571   1.497   1.345  0.2224 -1.2792  3.9252
    9MOL0     H 1192   0.418   1.555   0.995 -1.2825  3.6732  0.4271
    9MOL0     H 1193   0.571   1.510   1.090 -0.2269 -0.6246  1.0052
    9MOL0     H 1194   0.496   1.747   0.940 -1.0414 -0.0944  0.7964
    9MOL0     H 1195   0.549   1.791   1.103  0.9878 -0.5525 -0.1765
    9MOL0     H 1196   0.744   1.605   1.029 -3.0856 -0.1659  1.6431
    9MOL0     H 1197   0.680   1.617   0.874  0.8579  2.4149 -1.4520
    9MOL0     H 1198   0.841   1.841   1.004  1.3010 -1.0646 -0.9510
    9MOL0     H 1199   0.832   1.778   0.842 -1.4606  0.7355 -1.8347
    9MOL0     H 1200   0.539   2.079   0.822  0.2562 -0.7131 -0.2166
    9MOL0     H 1201   0.424   2.216   0.681 -1.0841  0.0204 -2.3827
    9MOL0     H 1202   0.488   2.298   0.543 -0.6331  0.9206  0.4385
    9MOL0     H 1203   0.531   2.351   0.709  0.5758  0.4837 -1.1790
    9MOL0     H 1204   0.791   2.436   0.199 -0.2643 -0.2423  0.8206
    9MOL0     H 1205   0.940   2.569   0.060  0.3385 -1.8807 -0.1511
    9MOL0     H 1206   1.127   2.522  -0.096  0.6061 -0.7050  1.2821
    9MOL0     H 1207   1.107   2.700  -0.057 -0.4012 -0.6199 -0.8304
    9MOL0     H 1208   1.352   2.722  -0.075  2.5790 -0.4394 -1.5217
    9MOL0     H 1209   1.339   2.557  -0.162 -0.3465 -1.1046 -1.3479
    9MOL0     H 1210   1.179   2.683  -0.321 -1.9735  2.8164 -0.1405
    9MOL0     H 1211   1.356   2.730  -0.306  1.1371  1.8043  1.7296
    9MOL0     H 1212   1.243   2.908  -0.135 -0.4392 -4.9129  1.1538
    9MOL0     H 1213   1.107   2.889  -0.241 -0.1313  0.8418  0.5513
    9MOL0     H 1214   1.379   2.997  -0.300  0.7199  1.7718 -1.6492
    9MOL0     H 1215   1.300   2.914  -0.427  2.0889 -1.0240  1.6925
    9MOL0     H 1216   1.162   3.145  -0.267  1.3919 -0.1199  0.3664
    9MOL0     H 1217   1.098   3.082  -0.415 -1.9493  3.9450  1.7795
    9MOL0     H 1218   1.361   3.219  -0.414  0.7893 -1.4756 -2.3161
    9MOL0     H 1219   1.206   3.297  -0.449 -4.7657 -1.8719  0.4670
    9MOL0     H 1220   1.198   3.073  -0.621 -1.7294  0.4035  0.2651
    9MOL0     H 1221   1.374   3.077  -0.587 -2.0754 -2.2739  0.3784
    9MOL0     H 1222   1.280   2.442   0.284 -0.3916  0.3171 -0.1431
    9MOL0     H 1223   1.138   2.308   0.433  0.5360 -0.4010 -0.4042
    9MOL0     H 1224   0.953   2.112   0.570  1.2839  2.4123  2.2912
    9MOL0     H 1225   0.923   1.929   0.728 -0.5415  0.0312  0.1823
    9MOL0     H 1226   0.395   2.269   2.099 -0.2397 -1.4590  0.8643
    9MOL0     H 1227   0.530   2.435   2.150  0.4519 -1.4188  0.8936
    9MOL0     H 1228   0.793   2.772   1.947  2.0906  0.2677 -0.2779
    9MOL0     H 1229   0.865   2.988   1.954  0.3011 -1.9993 -1.1753
    9MOL0     H 1230   1.036   3.139   1.956  0.5926 -0.0003 -0.7702
    9MOL0     H 1231   0.965   3.259   2.072  1.2915  0.7825  0.0675
    9MOL0     H 1232   1.165   3.336   2.138  0.4758 -3.5566  2.4732
    9MOL0     H 1233   1.151   3.346   1.957  1.9580 -3.4073 -2.2905
    9MOL0     H 1234   1.319   3.150   2.121 -0.3419 -2.0212 -0.5609
    9MOL0     H 1235   1.297   3.151   1.935 -0.0017  0.4727 -0.2421
    9MOL0     H 1236   1.410   3.388   2.081 -1.4604 -1.7629  1.5884
    9MOL0     H 1237   1.398   3.350   1.900 -4.0701 -2.8940 -1.7023
    9MOL0     H 1238   1.715   3.095   1.993 -0.7268 -0.2967 -3.8820
    9MOL0     H 1239   1.047   2.908   2.352 -0.9273 -1.9126  1.6532
    9MOL0     H 1240   0.884   2.624   2.420  1.1613  2.8894  2.5254
    9MOL0     H 1241   1.003   2.560   2.298 -2.8026  0.7962 -3.0309
    9MOL0     H 1242   1.041   2.685   2.430 -1.4733  6.1464 -1.4740
   10MOL0     O 1243  10.049   8.241   8.881  0.4389  1.1649  0.3539
   10MOL0     C 1244  10.088   8.130   8.846 -0.0833  0.0259  0.8178
   10MOL0     O 1245  10.209   8.071   8.868  0.1103 -0.4756 -0.2299
   10MOL0     C 1246  10.284   8.105   8.979 -1.1187  0.0208 -0.1773
   10MOL0     C 1247  10.403   8.014   9.006 -0.4700  0.2245  1.1396
   10MOL0     C 1248  10.476   8.038   9.121  0.0573  0.0723 -0.1914
   10MOL0     C 1249  10.451   8.129   9.214  0.3487  0.4489  0.0821
   10MOL0     O 1250  10.517   8.153   9.335  1.0022 -0.6523  0.0619
   10MOL0     C 1251  10.619   8.058   9.378 -0.3952 -0.5454  0.2341
   10MOL0     C 1252  10.711   8.104   9.494  0.6227 -0.1275 -0.3136
   10MOL0     C 1253  10.658   8.115   9.648 -1.2516 -0.3541  0.2808
   10MOL0     C 1254  10.782   8.142   9.735  1.2689  0.6235 -0.5573
   10MOL0     C 1255  10.842   8.281   9.734  0.5723  0.4657  0.5600
   10MOL0     C 1256  10.739   8.389   9.750 -0.1190 -0.1117 -0.1389
   10MOL0     C 1257  10.801   8.522   9.798 -0.5468 -0.0541  0.6979
   10MOL0     C 1258  10.698   8.632   9.775 -0.5567 -0.5645 -0.3132
   10MOL0     N 1259  10.756   8.749   9.844  0.1976  0.4086 -0.0492
   10MOL0     C 1260  10.861   8.817   9.789 -0.3878 -0.7922 -0.7035
   10MOL0     C 1261  10.861   8.931   9.863  0.1848 -0.2072 -0.0720
   10MOL0     C 1262  10.948   9.049   9.838 -1.1218 -0.9353 -0.4521
   10MOL0     C 1263  10.946   9.083   9.697 -0.1473 -0.0202  0.3722
   10MOL0     C 1264  10.811   9.119   9.639  0.4680  0.3179  0.2143
   10MOL0     C 1265  10.815   9.244   9.551 -0.5780 -0.2606 -0.2617
   10MOL0     O 1266  10.935   9.259   9.471  0.2571  1.3400 -0.3780
   10MOL0     C 1267  10.946   9.211   9.342  0.2395  0.8363  0.7901
   10MOL0     C 1268  10.869   9.111   9.280 -0.4801  0.1184  0.0583
   10MOL0     C 1269  10.887   9.070   9.145  0.0973 -0.1898  0.1366
   10MOL0     C 1270  10.781   8.958   9.096  0.7158  0.2267  0.2143
   10MOL0     C 1271  11.006   9.101   9.078  0.2273 -1.3422 -0.3507
   10MOL0     C 1272  11.043   9.046   8.945 -0.2922  0.3540  0.9895
   10MOL0     O 1273  11.168   9.073   8.903  0.8692  0.7625 -0.5393
   10MOL0     C 1274  11.208   9.028   8.780  1.0231  0.6317 -0.7030
   10MOL0     C 1275  11.319   8.937   8.761 -0.6947 -0.1004 -1.2039
   10MOL0     C 1276  11.362   8.894   8.624  0.0830  0.1575 -0.9119
   10MOL0     C 1277  11.291   8.934   8.513  0.3358 -0.0186 -0.4939
   10MOL0     O 1278  11.330   8.876   8.389  0.0863 -1.0100 -0.5658
   10MOL0     C 1279  11.244   8.895   8.272  0.4495  0.5282 -0.4961
   10MOL0     C 1280  11.322   8.843   8.152  0.2839 -0.0220  0.8208
   10MOL0     C 1281  11.240   8.841   8.019  0.6141  0.1078 -1.0797
   10MOL0     C 1282  11.327   8.839   7.892  0.7558 -0.5805 -0.9862
   10MOL0     C 1283  11.236   8.863   7.775  0.8798  0.5062 -0.2744
   10MOL0     C 1284  11.325   8.847   7.654  0.0894 -0.2969 -0.1002
   10MOL0     C 1285  11.228   8.858   7.524  0.4948 -0.7600 -0.0893
   10MOL0     C 1286  11.311   8.900   7.396 -0.0300 -0.0190 -1.0776
   10MOL0    Cl 1287  11.457   8.798   7.378  0.4164 -0.0330 -0.1977
   10MOL0     C 1288  11.189   9.023   8.532  0.4889 -0.9566  0.3053
   10MOL0     C 1289  11.143   9.063   8.667  0.3414 -0.0661  0.1763
   10MOL0     O 1290  10.964   8.972   8.883  0.0224 -0.4980 -0.6138
   10MOL0     C 1291  11.096   9.191   9.144  0.7641  0.2661  0.9028
   10MOL0     C 1292  11.068   9.237   9.276 -0.3870 -0.7702  0.1196
   10MOL0     N 1293  10.760   8.919   9.957  0.0125 -0.2912 -0.3615
   10MOL0     N 1294  10.693   8.813   9.948  0.3887  0.2160 -0.0632
   10MOL0     C 1295  10.328   8.198   9.200 -0.8997 -0.6162 -1.1238
   10MOL0     C 1296  10.258   8.195   9.080 -0.3945 -0.2450 -0.3627
   10MOL0     C 1297  10.010   8.051   8.753  0.4726 -0.4999  0.5643
   10MOL0     C 1298  10.080   7.979   8.656  0.1078 -0.4309 -0.7831
   10MOL0     C 1299  10.024   7.899   8.565  0.6917 -0.2312  0.4439
   10MOL0     C 1300   9.881   7.886   8.552 -1.1449  0.3166 -0.3463
   10MOL0     O 1301   9.814   7.813   8.459 -0.9357 -0.1248 -0.5377
   10MOL0     C 1302   9.776   7.904   8.359 -0.1222 -0.8499  0.3356
   10MOL0     C 1303   9.734   7.811   8.243  0.6820  0.3248  0.0214
   10MOL0     C 1304   9.601   7.736   8.250 -0.0881  0.1539 -0.0143
   10MOL0     C 1305   9.485   7.823   8.226  0.1154 -0.6236  0.6142
   10MOL0     C 1306   9.362   7.749   8.210  0.8015 -0.1520 -0.6492
   10MOL0     C 1307   9.270   7.670   8.201  0.1875  0.0281 -0.4334
   10MOL0     C 1308   9.817   7.947   8.657 -0.1454  0.1738 -0.1404
   10MOL0     C 1309   9.874   8.029   8.757  0.0529 -0.5051 -0.0540
   10MOL0     C 1310   9.780   8.073   8.867  0.2266  0.2161  0.4656
   10MOL0     H 1311  10.427   7.937   8.934  2.4247 -0.0139  2.2336
   10MOL0     H 1312  10.568   7.981   9.135  0.2213  0.7836  1.9520
   10MOL0     H 1313  10.692   8.023   9.304 -0.7564  0.4313 -0.6135
   10MOL0     H 1314  10.560   7.971   9.408 -2.4522  0.5147 -0.5102
   10MOL0     H 1315  10.801   8.043   9.482 -0.2933 -1.7006  0.5003
   10MOL0     H 1316  10.726   8.212   9.483  1.8021 -0.1720  0.5965
   10MOL0     H 1317  10.582   8.193   9.657 -1.0063 -0.1526  0.6250
   10MOL0     H 1318  10.619   8.019   9.682  1.0149  0.0226  4.7887
   10MOL0     H 1319  10.742   8.127   9.836  1.8970 -4.2056 -0.7817
   10MOL0     H 1320  10.851   8.059   9.717 -0.3570 -0.8064 -0.4552
   10MOL0     H 1321  10.887   8.295   9.636  0.3566 -3.9329 -0.4080
   10MOL0     H 1322  10.910   8.274   9.819 -0.7721 -3.8286  1.5879
   10MOL0     H 1323  10.685   8.401   9.656  2.0667  0.0137 -1.4298
   10MOL0     H 1324  10.664   8.366   9.827  0.9938 -1.0087  0.7203
   10MOL0     H 1325  10.892   8.551   9.747 -2.0495  0.9801 -1.5427
   10MOL0     H 1326  10.836   8.503   9.900  3.1343 -2.2693 -0.7931
   10MOL0     H 1327  10.693   8.649   9.667  1.0036 -0.0111 -0.3276
   10MOL0     H 1328  10.605   8.599   9.822 -0.5298 -0.9190 -0.5095
   10MOL0     H 1329  10.931   8.800   9.708 -2.0025 -0.6129 -2.1778
   10MOL0     H 1330  11.054   9.034   9.863 -0.6842  0.9100 -1.0213
   10MOL0     H 1331  10.915   9.134   9.898 -0.6648  2.4446 -4.5079
   10MOL0     H 1332  11.007   9.173   9.710  1.3099 -0.7963 -0.8697
   10MOL0     H 1333  11.011   9.014   9.642  2.6016 -0.3473  3.6776
   10MOL0     H 1334  10.772   9.030   9.590 -0.6541  0.3478  1.0064
   10MOL0     H 1335  10.738   9.138   9.718 -0.9630 -1.6486 -0.5720
   10MOL0     H 1336  10.729   9.252   9.484 -2.8132  2.1351  2.6320
   10MOL0     H 1337  10.814   9.335   9.611 -3.3036  0.9941 -1.9936
   10MOL0     H 1338  10.779   9.075   9.330 -0.8446  1.0532  0.1087
   10MOL0     H 1339  10.829   8.877   9.041  1.3329 -0.1390  1.2632
   10MOL0     H 1340  10.702   9.011   9.042 -0.4637  1.4326  2.9104
   10MOL0     H 1341  10.730   8.910   9.180  1.4428 -2.2080 -0.6436
   10MOL0     H 1342  11.372   8.910   8.852 -3.4470  0.9202  0.8391
   10MOL0     H 1343  11.437   8.818   8.605  1.9518  1.9776 -1.0926
   10MOL0     H 1344  11.154   8.836   8.292 -0.7307  2.1201 -0.8965
   10MOL0     H 1345  11.219   9.002   8.266 -2.1099  0.0889  0.7003
   10MOL0     H 1346  11.403   8.913   8.131  1.3034 -0.7958  2.0109
   10MOL0     H 1347  11.358   8.740   8.161 -0.8765 -0.4679  0.4762
   10MOL0     H 1348  11.167   8.923   8.023 -0.8786 -1.1308  3.4559
   10MOL0     H 1349  11.185   8.746   8.029  0.4902  0.1149 -1.6777
   10MOL0     H 1350  11.377   8.741   7.899  1.7492 -0.1526 -1.8378
   10MOL0     H 1351  11.409   8.910   7.901  1.5064 -1.6933  2.1392
   10MOL0     H 1352  11.163   8.782   7.765  0.3178  0.9923 -0.1686
   10MOL0     H 1353  11.170   8.951   7.777 -0.7207 -0.5113 -2.8154
   10MOL0     H 1354  11.366   8.747   7.666  2.8768  0.9721  2.2970
   10MOL0     H 1355  11.415   8.909   7.642  2.8790 -3.2648  3.2790
   10MOL0     H 1356  11.140   8.920   7.541  0.1553 -2.1401  4.3716
   10MOL0     H 1357  11.189   8.758   7.502 -0.2268 -0.5941  0.4176
   10MOL0     H 1358  11.346   9.004   7.398  0.0785 -0.0732  0.1542
   10MOL0     H 1359  11.242   8.889   7.312 -1.0425 -3.9019  0.0624
   10MOL0     H 1360  11.122   9.062   8.456  0.3414 -0.5539  0.6385
   10MOL0     H 1361  11.054   9.125   8.662  0.0003 -0.0381  3.7071
   10MOL0     H 1362  11.187   9.231   9.100 -0.6103  0.8224 -1.6407
   10MOL0     H 1363  11.127   9.321   9.310  1.7099 -2.0425 -0.2516
   10MOL0     H 1364  10.299   8.263   9.282  2.1472 -0.2125 -0.2159
   10MOL0     H 1365  10.171   8.260   9.075 -0.0616  0.4887  2.2549
   10MOL0     H 1366  10.187   7.998   8.652  0.1079 -0.2016  0.0562
   10MOL0     H 1367  10.088   7.842   8.499  1.8691 -2.3068  3.1820
   10MOL0     H 1368   9.686   7.961   8.386  0.4280  0.1634  0.0934
   10MOL0     H 1369   9.852   7.971   8.319 -1.0961  1.5485  2.2401
   10MOL0     H 1370   9.807   7.729   8.244  1.8412  1.3202  1.9085
   10MOL0     H 1371   9.737   7.862   8.146 -1.8824 -0.0277 -0.3092
   10MOL0     H 1372   9.614   7.647   8.188  0.5721 -0.0563  0.4220
   10MOL0     H 1373   9.599   7.696   8.352  1.0669  1.5279  0.5816
   10MOL0     H 1374   9.507   7.885   8.139 -0.7694  0.9771  1.4766
   10MOL0     H 1375   9.466   7.894   8.307 -0.5377 -0.3999  0.2707
   10MOL0     H 1376   9.185   7.605   8.192 -0.2807  0.4565  0.7069
   10MOL0     H 1377   9.717   7.907   8.658  0.1334 -0.6938 -2.0804
   10MOL0     H 1378   9.701   8.002   8.894  0.0710  0.3068  0.2403
   10MOL0     H 1379   9.835   8.090   8.961 -0.1576 -0.1914  0.7681
   10MOL0     H 1380   9.740   8.171   8.842 -0.0815 -0.2408 -0.8733
   11MOL0     O 1381   2.658   1.834   1.742 -0.8580  0.5760 -0.0038
   11MOL0     C 1382   2.555   1.857   1.805  0.0888  0.8386 -0.5010
   11MOL0     O 1383   2.450   1.779   1.811 -0.1980  0.3248 -0.5099
   11MOL0     C 1384   2.472   1.663   1.747 -0.1951 -0.0331 -0.1860
   11MOL0     C 1385   2.545   1.552   1.808  0.5046 -1.0538 -0.5613
   11MOL0     C 1386   2.567   1.441   1.734 -0.6646  0.3991  0.0919
   11MOL0     C 1387   2.515   1.423   1.602  0.3699  0.4226  0.0829
   11MOL0     O 1388   2.511   1.294   1.545 -0.2901  0.1257  0.8111
   11MOL0     C 1389   2.569   1.285   1.406  0.2083  0.0815 -0.0516
   11MOL0     C 1390   2.715   1.238   1.406 -0.9759 -0.7688 -0.2267
   11MOL0     C 1391   2.766   1.238   1.261 -1.0373  0.0450  0.0235
   11MOL0     C 1392   2.920   1.241   1.251  0.1463 -0.4661  0.1987
   11MOL0     C 1393   2.960   1.291   1.110 -1.0805 -0.7121  0.4750
   11MOL0     C 1394   3.102   1.262   1.099 -0.7450  1.1324 -0.7389
   11MOL0     C 1395   3.157   1.263   0.951  0.7746 -0.1218 -0.3978
   11MOL0     C 1396   3.316   1.245   0.956  0.2794 -0.3353 -0.1325
   11MOL0     N 1397   3.342   1.120   1.025  0.2752 -0.7607 -0.1656
   11MOL0     C 1398   3.310   1.004   0.970 -0.2407  0.4196  0.4334
   11MOL0     C 1399   3.335   0.912   1.065  0.7289 -0.3718  0.2270
   11MOL0     C 1400   3.339   0.759   1.034  1.1174 -0.2003  0.1918
   11MOL0     C 1401   3.475   0.691   1.029  1.0298 -0.6817  0.8012
   11MOL0     C 1402   3.457   0.547   1.004 -0.6280  0.4198  0.2011
   11MOL0     C 1403   3.395   0.454   1.111  0.2380 -0.2296  0.7635
   11MOL0     O 1404   3.418   0.497   1.247  0.4445 -0.4296  0.0224
   11MOL0     C 1405   3.542   0.474   1.303 -0.7251  0.0704  0.3855
   11MOL0     C 1406   3.651   0.400   1.246 -0.2968  0.3403 -0.9356
   11MOL0     C 1407   3.787   0.400   1.305  0.0045 -0.3184 -0.2600
   11MOL0     C 1408   3.891   0.344   1.228 -0.4859 -0.2193  0.8821
   11MOL0     C 1409   3.799   0.466   1.429  0.3314 -0.8218 -0.1540
   11MOL0     C 1410   3.926   0.466   1.508 -0.3440  0.6390  0.7403
   11MOL0     O 1411   3.913   0.498   1.639 -0.2510 -0.1644 -0.5930
   11MOL0     C 1412   4.017   0.480   1.732  0.2294 -0.6108  0.1192
   11MOL0     C 1413   4.027   0.367   1.798  0.0869 -0.6731 -0.1349
   11MOL0     C 1414   4.118   0.348   1.908 -0.1544  0.1908  0.6301
   11MOL0     C 1415   4.209   0.445   1.941 -0.1479 -0.0891 -0.1829
   11MOL0     O 1416   4.305   0.438   2.036 -0.0737  0.6846  0.9995
   11MOL0     C 1417   4.325   0.328   2.116  0.2859  0.0104 -0.4537
   11MOL0     C 1418   4.431   0.356   2.223 -0.0093 -0.2822  1.2140
   11MOL0     C 1419   4.366   0.424   2.345 -0.2261 -0.2256  0.0134
   11MOL0     C 1420   4.456   0.418   2.461 -0.0357  1.2574 -0.2775
   11MOL0     C 1421   4.389   0.485   2.580 -0.3320 -0.4517 -0.8123
   11MOL0     C 1422   4.471   0.518   2.699  0.3426 -0.1806 -0.3884
   11MOL0     C 1423   4.543   0.390   2.755 -0.9016  0.6637  0.1592
   11MOL0     C 1424   4.644   0.398   2.870 -0.6922  0.6769  0.9483
   11MOL0    Cl 1425   4.586   0.479   3.017 -0.2772  0.3374  0.3232
   11MOL0     C 1426   4.208   0.560   1.860  0.3054  0.6550  0.8278
   11MOL0     C 1427   4.110   0.578   1.752 -0.5256 -0.2223  0.0507
   11MOL0     O 1428   4.029   0.460   1.449 -0.5151  0.4796 -0.4575
   11MOL0     C 1429   3.686   0.516   1.497 -0.4081 -0.1678  0.1920
   11MOL0     C 1430   3.568   0.515   1.430  0.7007 -0.6395 -1.2932
   11MOL0     N 1431   3.379   0.973   1.182  0.7355 -0.2802 -0.5624
   11MOL0     N 1432   3.394   1.098   1.153 -0.1656 -0.0940  0.5869
   11MOL0     C 1433   2.452   1.525   1.538  0.4090  0.7762 -0.8709
   11MOL0     C 1434   2.420   1.639   1.618 -0.2056 -0.3582 -0.5617
   11MOL0     C 1435   2.549   1.996   1.853  0.5621 -1.5623 -0.2783
   11MOL0     C 1436   2.664   2.055   1.907 -0.7856  0.2966  0.1078
   11MOL0     C 1437   2.661   2.187   1.967 -0.1738  0.3819  0.6524
   11MOL0     C 1438   2.542   2.260   1.964 -0.9778  0.0911 -0.4992
   11MOL0     O 1439   2.533   2.389   2.025 -0.3445 -0.5641  0.6198
   11MOL0     C 1440   2.601   2.404   2.148 -0.8027 -0.6701 -0.2106
   11MOL0     C 1441   2.552   2.323   2.268 -0.2185  0.2019 -0.7741
   11MOL0     C 1442   2.405   2.351   2.295  0.6927 -0.2396 -0.9148
   11MOL0     C 1443   2.353   2.297   2.421 -0.2342  0.8133  0.6225
   11MOL0     C 1444   2.395   2.158   2.449  0.1744  0.9011 -0.1801
   11MOL0     C 1445   2.422   2.039   2.472 -0.3919 -0.1356  0.0765
   11MOL0     C 1446   2.434   2.206   1.900  0.3875 -0.9122 -0.1520
   11MOL0     C 1447   2.436   2.083   1.838  0.2810 -0.0226 -0.4055
   11MOL0     C 1448   2.310   2.029   1.801  0.1459  0.2352 -0.8110
   11MOL0     H 1449   2.588   1.572   1.906  0.9394  1.1301 -1.1469
   11MOL0     H 1450   2.598   1.357   1.795 -0.1761 -0.3871 -1.1954
   11MOL0     H 1451   2.540   1.373   1.348 -3.7282 -1.1919 -0.3206
   11MOL0     H 1452   2.513   1.210   1.350 -0.4595  0.4878  0.0613
   11MOL0     H 1453   2.773   1.305   1.469 -1.5404  0.3908 -0.9073
   11MOL0     H 1454   2.722   1.137   1.448 -1.6882  0.6619  3.7233
   11MOL0     H 1455   2.711   1.155   1.214  0.4727 -1.1434  0.2732
   11MOL0     H 1456   2.725   1.328   1.216 -0.0528  0.5682  0.1481
   11MOL0     H 1457   2.966   1.309   1.323  2.7822  0.1284 -1.8656
   11MOL0     H 1458   2.961   1.141   1.269  3.3815  0.1182 -2.8144
   11MOL0     H 1459   2.949   1.397   1.084  0.6670 -1.0968 -2.3941
   11MOL0     H 1460   2.908   1.243   1.026 -0.1836  1.4779 -1.4514
   11MOL0     H 1461   3.155   1.336   1.160 -1.3719 -1.1424  2.8757
   11MOL0     H 1462   3.129   1.162   1.134 -0.8145  1.6023  0.7085
   11MOL0     H 1463   3.133   1.363   0.915 -1.6432  0.3930  2.2361
   11MOL0     H 1464   3.100   1.186   0.900  0.3138  0.5766 -0.9484
   11MOL0     H 1465   3.365   1.260   0.860  0.1058  4.2099  0.2791
   11MOL0     H 1466   3.350   1.328   1.019 -4.3654  0.6896  1.3866
   11MOL0     H 1467   3.260   0.977   0.877  0.3729 -0.6171  0.3871
   11MOL0     H 1468   3.280   0.745   0.944  0.2657  0.5279  0.6147
   11MOL0     H 1469   3.280   0.708   1.111 -1.6425  2.2577 -0.1333
   11MOL0     H 1470   3.536   0.733   0.948  0.4714  1.7215  1.5341
   11MOL0     H 1471   3.528   0.704   1.123 -2.6042 -0.4989  3.0328
   11MOL0     H 1472   3.401   0.538   0.911 -3.8131  0.6212  1.9722
   11MOL0     H 1473   3.561   0.517   0.987 -0.4700  0.4885  1.0156
   11MOL0     H 1474   3.288   0.450   1.089  0.8366 -1.2769 -2.4341
   11MOL0     H 1475   3.442   0.359   1.086  3.2994  0.9264  1.6383
   11MOL0     H 1476   3.627   0.363   1.147 -4.4996 -0.5186  0.1976
   11MOL0     H 1477   3.850   0.276   1.153  1.4675 -1.5101  0.9088
   11MOL0     H 1478   3.962   0.283   1.285 -1.6904 -1.2581  1.3194
   11MOL0     H 1479   3.950   0.427   1.188 -1.6474  0.2945  0.1870
   11MOL0     H 1480   3.957   0.286   1.784 -2.3434  1.4046 -0.8248
   11MOL0     H 1481   4.129   0.253   1.960 -1.8486 -0.5715 -0.3329
   11MOL0     H 1482   4.226   0.302   2.156 -1.8251  2.9303 -3.2226
   11MOL0     H 1483   4.356   0.239   2.060  0.4735 -0.6963  0.7536
   11MOL0     H 1484   4.464   0.257   2.256 -3.1287 -2.0115 -0.3578
   11MOL0     H 1485   4.517   0.407   2.179 -1.6625  0.8870 -0.8285
   11MOL0     H 1486   4.271   0.374   2.368  0.4917 -1.1912  0.9346
   11MOL0     H 1487   4.349   0.532   2.338  0.5158 -0.1330 -0.3748
   11MOL0     H 1488   4.551   0.466   2.438  0.2339  2.7778  3.3559
   11MOL0     H 1489   4.463   0.315   2.497 -2.6919  0.2243 -2.3810
   11MOL0     H 1490   4.333   0.574   2.550  1.4240  0.8682 -0.3358
   11MOL0     H 1491   4.309   0.417   2.612 -1.3207  1.9465  2.3198
   11MOL0     H 1492   4.414   0.556   2.784  1.2945 -0.8572  0.5715
   11MOL0     H 1493   4.543   0.600   2.685 -0.0357  0.2033 -0.1006
   11MOL0     H 1494   4.607   0.345   2.678 -0.5203  3.1386 -1.0573
   11MOL0     H 1495   4.460   0.323   2.780  1.8585 -2.1543  2.6677
   11MOL0     H 1496   4.739   0.434   2.828  0.5885 -2.5618  0.7732
   11MOL0     H 1497   4.674   0.298   2.901  0.5637  1.8288  3.8977
   11MOL0     H 1498   4.284   0.637   1.871  2.5643 -0.5242 -3.7263
   11MOL0     H 1499   4.113   0.668   1.691 -0.3001 -0.7099 -0.6772
   11MOL0     H 1500   3.676   0.553   1.599 -0.6944  0.6199 -0.1137
   11MOL0     H 1501   3.486   0.562   1.483  0.4153 -3.1389  0.6445
   11MOL0     H 1502   2.421   1.505   1.436  2.3737  1.0171 -1.5637
   11MOL0     H 1503   2.365   1.726   1.582  1.4416  1.1157  0.2970
   11MOL0     H 1504   2.760   2.004   1.906 -0.4983  0.8225  0.4971
   11MOL0     H 1505   2.752   2.227   2.010  0.8240  0.9472 -1.7910
   11MOL0     H 1506   2.707   2.383   2.134 -0.5034 -3.3028  4.0822
   11MOL0     H 1507   2.600   2.510   2.174  1.0554 -0.3120 -1.3996
   11MOL0     H 1508   2.614   2.336   2.358 -0.7813 -1.2721 -0.1387
   11MOL0     H 1509   2.572   2.218   2.246 -1.4996 -0.0645 -0.7438
   11MOL0     H 1510   2.390   2.459   2.305  0.8044 -0.3154  0.1177
   11MOL0     H 1511   2.341   2.309   2.216 -3.2643  1.8780  0.8567
   11MOL0     H 1512   2.245   2.312   2.430 -0.7155 -1.7444 -0.0180
   11MOL0     H 1513   2.407   2.351   2.499 -2.2885  2.5310  0.9461
   11MOL0     H 1514   2.458   1.940   2.492 -1.5581 -0.2000  2.1121
   11MOL0     H 1515   2.357   2.282   1.892  3.5483  2.4710 -2.0004
   11MOL0     H 1516   2.300   1.985   1.701  0.5429 -0.8493 -0.3878
   11MOL0     H 1517   2.273   1.950   1.867 -1.0062  0.4898 -1.1219
   11MOL0     H 1518   2.235   2.108   1.798  0.7830  0.9019  0.1302
   12MOL0     O 1519   8.192  10.701   5.870 -0.5202 -0.5454  0.4551
   12MOL0     C 1520   8.301  10.662   5.817  0.7272 -0.1718 -1.1421
   12MOL0     O 1521   8.317  10.542   5.742 -0.4475 -0.3095 -0.0624
   12MOL0     C 1522   8.250  10.426   5.776 -0.8848 -0.0703 -0.1443
   12MOL0     C 1523   8.142  10.385   5.700  0.3948  0.0568  0.2944
   12MOL0     C 1524   8.069  10.260   5.727  0.5213  0.2451  0.7709
   12MOL0     C 1525   8.114  10.183   5.834  0.2649  0.4671  0.5077
   12MOL0     O 1526   8.057  10.060   5.859 -0.0708 -0.1834 -0.3704
   12MOL0     C 1527   7.917  10.036   5.823  0.3407  0.4390  0.8129
   12MOL0     C 1528   7.859   9.924   5.905 -0.6132 -0.6947 -0.3219
   12MOL0     C 1529   7.936   9.791   5.920  0.6482 -0.5706  0.3139
   12MOL0     C 1530   8.001   9.736   5.793 -0.5653 -0.9009 -0.3043
   12MOL0     C 1531   8.067   9.601   5.801 -0.0189 -0.4250 -0.6571
   12MOL0     C 1532   8.177   9.608   5.910  0.1124 -0.2701 -0.0131
   12MOL0     C 1533   8.273   9.718   5.928 -0.1172  0.0054 -0.1204
   12MOL0     C 1534   8.354   9.743   5.801 -0.8279 -0.2849  0.6145
   12MOL0     N 1535   8.421   9.633   5.738 -0.4056 -1.0443 -0.6282
   12MOL0     C 1536   8.506   9.544   5.803  0.5291 -0.7295 -0.9714
   12MOL0     C 1537   8.536   9.460   5.710 -0.8327  1.1672 -0.1074
   12MOL0     C 1538   8.635   9.340   5.730 -0.4649  0.4697  0.2559
   12MOL0     C 1539   8.782   9.363   5.698 -0.4724 -0.1414  0.6088
   12MOL0     C 1540   8.863   9.459   5.785 -0.0945 -0.4708 -1.0844
   12MOL0     C 1541   8.927   9.571   5.711  0.7511 -0.0741  0.3540
   12MOL0     O 1542   8.820   9.655   5.664  0.4250 -0.2675 -0.6220
   12MOL0     C 1543   8.840   9.747   5.568  0.6878 -0.0283  0.2421
   12MOL0     C 1544   8.964   9.782   5.524 -0.4552 -0.6571  1.0287
   12MOL0     C 1545   8.986   9.880   5.420 -1.3606 -0.0876  0.4319
   12MOL0     C 1546   9.127   9.929   5.390 -0.0837  0.4932  0.8336
   12MOL0     C 1547   8.872   9.927   5.347 -0.2638 -0.5496  0.2903
   12MOL0     C 1548   8.890  10.026   5.225  0.5703 -0.2506 -0.8148
   12MOL0     O 1549   8.768  10.055   5.167  0.6528 -0.7380 -0.3779
   12MOL0     C 1550   8.764  10.156   5.079  0.0324  0.4200  0.8153
   12MOL0     C 1551   8.741  10.130   4.941 -0.7224  1.0093  0.4190
   12MOL0     C 1552   8.743  10.233   4.853  0.5799 -0.5811  0.4432
   12MOL0     C 1553   8.752  10.360   4.897  0.0111  0.4099 -0.2563
   12MOL0     O 1554   8.761  10.474   4.830 -0.4762  0.1610  0.4034
   12MOL0     C 1555   8.667  10.482   4.720 -0.5663 -0.9818 -0.1263
   12MOL0     C 1556   8.531  10.497   4.787  0.1478 -0.5528  0.1373
   12MOL0     C 1557   8.417  10.526   4.692 -0.4551  0.8319  0.0342
   12MOL0     C 1558   8.296  10.555   4.776  0.3013  0.4823 -0.2553
   12MOL0     C 1559   8.187  10.589   4.673  0.3145 -0.1557 -0.3044
   12MOL0     C 1560   8.051  10.621   4.744 -0.1249 -0.5289  0.1135
   12MOL0     C 1561   7.936  10.549   4.665 -0.6655 -0.1685 -0.1542
   12MOL0     C 1562   7.948  10.397   4.698 -0.1202 -0.5026  0.0540
   12MOL0    Cl 1563   7.825  10.316   4.593 -0.2618  0.0099 -0.1943
   12MOL0     C 1564   8.786  10.390   5.026  0.0650  0.1944 -0.0025
   12MOL0     C 1565   8.791  10.291   5.121 -0.1787 -0.2625 -0.2210
   12MOL0     O 1566   8.999  10.062   5.186  0.1943 -0.5815  0.1798
   12MOL0     C 1567   8.745   9.888   5.393  1.0350 -0.4898  0.3132
   12MOL0     C 1568   8.731   9.802   5.503  1.0011 -0.0274 -0.7018
   12MOL0     N 1569   8.492   9.496   5.585  0.5513  0.5107 -0.6522
   12MOL0     N 1570   8.412   9.598   5.608 -0.3150 -0.0270 -0.3584
   12MOL0     C 1571   8.213  10.229   5.922 -0.1404 -0.9918  0.5858
   12MOL0     C 1572   8.288  10.348   5.891  0.0647 -0.8523  0.3973
   12MOL0     C 1573   8.421  10.745   5.833  0.2506  1.3578 -0.4323
   12MOL0     C 1574   8.541  10.675   5.844  0.3013 -0.1577  0.5394
   12MOL0     C 1575   8.660  10.732   5.875  0.5451 -0.6943 -0.0594
   12MOL0     C 1576   8.674  10.869   5.900 -0.6232  0.2824 -0.5657
   12MOL0     O 1577   8.790  10.932   5.930 -0.2584 -0.0625 -0.8259
   12MOL0     C 1578   8.857  10.871   6.034 -0.0852 -0.0239 -0.2106
   12MOL0     C 1579   8.968  10.972   6.093 -0.3134 -0.5158  0.6985
   12MOL0     C 1580   8.951  10.990   6.242 -0.0918  0.3644 -0.2001
   12MOL0     C 1581   9.036  11.107   6.300  0.0761 -0.1952 -0.3236
   12MOL0     C 1582   8.952  11.228   6.298 -0.1046 -0.4980 -0.2492
   12MOL0     C 1583   8.868  11.308   6.276  0.9506  0.1376 -0.6664
   12MOL0     C 1584   8.552  10.944   5.898  0.0293  0.0661 -0.3670
   12MOL0     C 1585   8.425  10.881   5.855 -0.7795  0.1319  0.2904
   12MOL0     C 1586   8.316  10.989   5.846  2.0255  0.2125  0.5635
   12MOL0     H 1587   8.106  10.452   5.622  0.0263 -2.0678 -1.4612
   12MOL0     H 1588   8.007  10.230   5.643  1.9455  1.5843 -0.8488
   12MOL0     H 1589   7.920   9.999   5.720  0.8772  2.0522  0.2221
   12MOL0     H 1590   7.865  10.131   5.834  1.4530  0.8704  2.7357
   12MOL0     H 1591   7.862   9.967   6.006  1.7166  2.1093 -1.4266
   12MOL0     H 1592   7.757   9.898   5.875  0.3952 -0.1841 -4.9262
   12MOL0     H 1593   7.998   9.796   6.010 -1.3665 -0.0218  1.7243
   12MOL0     H 1594   7.872   9.707   5.947 -0.9840  0.1280 -1.1841
   12MOL0     H 1595   7.927   9.723   5.713  0.5510 -1.8085 -1.2393
   12MOL0     H 1596   8.064   9.820   5.762 -5.6421  3.4388 -0.1579
   12MOL0     H 1597   8.107   9.585   5.700 -1.2252  0.7644 -1.3444
   12MOL0     H 1598   8.002   9.515   5.823  3.3347 -2.6946  1.3882
   12MOL0     H 1599   8.121   9.598   6.003 -0.0240 -3.3208 -0.3067
   12MOL0     H 1600   8.222   9.510   5.893  2.3846  1.1711 -3.3828
   12MOL0     H 1601   8.337   9.689   6.012 -2.6401 -0.5230  1.7254
   12MOL0     H 1602   8.229   9.814   5.956  1.5338  0.7409  0.1259
   12MOL0     H 1603   8.291   9.792   5.726 -0.6384 -0.4486  0.3508
   12MOL0     H 1604   8.432   9.814   5.831  0.9622 -1.4849 -0.9664
   12MOL0     H 1605   8.533   9.541   5.908  1.2216  1.6865 -1.0024
   12MOL0     H 1606   8.600   9.265   5.658  0.3771 -0.0897  0.4203
   12MOL0     H 1607   8.621   9.297   5.830 -1.4276  0.7252  0.2428
   12MOL0     H 1608   8.833   9.266   5.695 -0.8573 -0.3381  0.4776
   12MOL0     H 1609   8.768   9.407   5.599  2.9167  1.2119  0.5839
   12MOL0     H 1610   8.808   9.501   5.869  0.3094  1.1969 -1.6165
   12MOL0     H 1611   8.942   9.401   5.834 -2.6544 -2.2542  1.2049
   12MOL0     H 1612   8.995   9.623   5.778 -0.9112 -0.3602  2.3570
   12MOL0     H 1613   8.986   9.518   5.636  0.1717 -1.0289  0.5572
   12MOL0     H 1614   9.054   9.739   5.565  1.1156 -1.0465 -2.4665
   12MOL0     H 1615   9.136  10.038   5.388 -1.6192  0.6418 -0.2233
   12MOL0     H 1616   9.167   9.899   5.293 -0.3850  0.6296  0.6661
   12MOL0     H 1617   9.200   9.891   5.462 -1.5996 -1.8724  1.2062
   12MOL0     H 1618   8.739  10.026   4.913 -2.5261  1.0862  0.1611
   12MOL0     H 1619   8.726  10.213   4.748 -0.5481  0.8214  0.3187
   12MOL0     H 1620   8.700  10.569   4.663  1.0928 -1.4273  0.1052
   12MOL0     H 1621   8.662  10.397   4.651 -2.2021  0.2571 -1.6294
   12MOL0     H 1622   8.502  10.412   4.849  0.9718 -0.7473  0.2634
   12MOL0     H 1623   8.540  10.580   4.857  0.0216  0.4196 -0.9590
   12MOL0     H 1624   8.405  10.439   4.627 -1.1203  1.5296 -0.7962
   12MOL0     H 1625   8.443  10.615   4.635  1.8212  1.5185  1.9955
   12MOL0     H 1626   8.325  10.637   4.841  3.1387  1.1391 -2.1449
   12MOL0     H 1627   8.271  10.468   4.838  1.0588  2.1930  2.6262
   12MOL0     H 1628   8.214  10.671   4.606 -1.4794 -0.6172 -1.6690
   12MOL0     H 1629   8.187  10.505   4.603 -2.2857  1.3526 -2.2714
   12MOL0     H 1630   8.039  10.729   4.760  0.9621 -0.8311  3.8424
   12MOL0     H 1631   8.057  10.586   4.847 -0.5714 -1.0216 -0.0222
   12MOL0     H 1632   7.946  10.573   4.559 -1.5452  1.7916  0.1633
   12MOL0     H 1633   7.838  10.589   4.693 -0.8686 -1.4081  1.0412
   12MOL0     H 1634   7.933  10.383   4.806  0.5334  1.2126  0.4080
   12MOL0     H 1635   8.043  10.352   4.668  1.0701  2.7586 -1.5741
   12MOL0     H 1636   8.792  10.493   5.058 -3.9086  0.4761  0.3435
   12MOL0     H 1637   8.796  10.309   5.228  2.7786 -0.3136 -0.2731
   12MOL0     H 1638   8.653   9.920   5.343  0.2897 -2.1727  0.5403
   12MOL0     H 1639   8.632   9.771   5.534  1.5714 -1.2649 -0.0786
   12MOL0     H 1640   8.232  10.165   6.007 -2.1315 -1.0835  1.0046
   12MOL0     H 1641   8.371  10.388   5.948  0.1310 -1.1328  0.4970
   12MOL0     H 1642   8.539  10.567   5.834 -1.0237 -0.3643  2.4203
   12MOL0     H 1643   8.747  10.667   5.880  0.5910 -0.5475  2.2431
   12MOL0     H 1644   8.796  10.837   6.118  1.6466 -0.9383  0.7473
   12MOL0     H 1645   8.904  10.780   5.997  0.8054 -0.3101  1.5150
   12MOL0     H 1646   8.956  11.064   6.034 -0.9652 -1.6145 -0.9655
   12MOL0     H 1647   9.071  10.943   6.072  0.5917  1.6924  1.6983
   12MOL0     H 1648   8.847  11.007   6.272 -1.2060 -0.8341 -2.9803
   12MOL0     H 1649   8.986  10.899   6.290  1.4700  1.2436  0.4057
   12MOL0     H 1650   9.117  11.130   6.229 -0.9834 -1.0561 -1.8682
   12MOL0     H 1651   9.059  11.096   6.406 -1.6747  2.9230  0.5145
   12MOL0     H 1652   8.785  11.375   6.273  1.2163  0.8247  2.9691
   12MOL0     H 1653   8.566  11.044   5.937 -0.3038 -0.6366  1.6785
   12MOL0     H 1654   8.252  10.977   5.758 -1.7102  2.3490  2.7199
   12MOL0     H 1655   8.247  10.980   5.932 -0.5310  2.2013 -1.1321
   12MOL0     H 1656   8.349  11.092   5.859  1.3868  0.4068  0.7191
   13MOL0     O 1657   9.879   7.417   5.841 -0.1483 -0.7449  0.6556
   13MOL0     C 1658   9.772   7.468   5.797  0.1706 -0.3116  0.5972
   13MOL0     O 1659   9.746   7.591   5.755 -0.8375 -0.3226  0.4065
   13MOL0     C 1660   9.842   7.690   5.753  0.3257 -0.4692 -0.0895
   13MOL0     C 1661   9.831   7.806   5.675 -0.6719 -0.4671  0.3674
   13MOL0     C 1662   9.913   7.920   5.686  0.9589 -0.0948 -1.1139
   13MOL0     C 1663  10.022   7.908   5.772 -0.3823 -0.5069 -0.5923
   13MOL0     O 1664  10.106   8.009   5.816  0.0842  0.3646 -0.3470
   13MOL0     C 1665  10.069   8.148   5.788  0.1656  0.9369 -0.7806
   13MOL0     C 1666  10.175   8.253   5.843  0.6871 -0.1674  0.5498
   13MOL0     C 1667  10.320   8.199   5.837  0.3168  0.1784  0.0845
   13MOL0     C 1668  10.420   8.304   5.889 -0.0916 -0.6394  0.1325
   13MOL0     C 1669  10.552   8.231   5.919 -0.1104 -1.2156  0.6465
   13MOL0     C 1670  10.669   8.338   5.923  0.4057  0.5376 -1.7414
   13MOL0     C 1671  10.807   8.259   5.953  0.5834 -0.0968 -0.0321
   13MOL0     C 1672  10.861   8.202   5.823 -0.2133  0.0716 -0.3220
   13MOL0     N 1673  10.992   8.127   5.828 -0.0382  0.7600 -0.5462
   13MOL0     C 1674  11.025   8.032   5.727  0.3893 -0.9244 -0.0119
   13MOL0     C 1675  11.131   7.967   5.778  0.1739  0.4092 -0.3728
   13MOL0     C 1676  11.219   7.863   5.709 -0.1134  0.3923  0.3567
   13MOL0     C 1677  11.187   7.841   5.559  0.7455 -0.1735 -0.2303
   13MOL0     C 1678  11.290   7.751   5.493  0.0491  0.7898 -0.7992
   13MOL0     C 1679  11.280   7.731   5.339  0.5925 -0.1766 -0.6416
   13MOL0     O 1680  11.237   7.858   5.268  0.1054  0.1531 -0.4714
   13MOL0     C 1681  11.204   7.842   5.139  0.0721  0.0476  0.4001
   13MOL0     C 1682  11.307   7.864   5.048  0.5735 -0.7062 -0.6863
   13MOL0     C 1683  11.284   7.853   4.916  0.5373  1.0284  0.6727
   13MOL0     C 1684  11.401   7.866   4.817  0.4808  0.2533 -0.7177
   13MOL0     C 1685  11.146   7.820   4.863  0.0782 -0.4660 -0.6270
   13MOL0     C 1686  11.111   7.801   4.724 -0.9695 -0.6399  0.0413
   13MOL0     O 1687  10.982   7.806   4.686 -0.2605  0.3456 -0.4390
   13MOL0     C 1688  10.929   7.752   4.568 -0.5960  1.5568  0.5367
   13MOL0     C 1689  10.795   7.747   4.567 -1.2492  0.9528 -0.4434
   13MOL0     C 1690  10.727   7.691   4.467 -0.3099 -0.1657  0.7475
   13MOL0     C 1691  10.792   7.628   4.349  0.4461  0.0524 -0.7622
   13MOL0     O 1692  10.711   7.589   4.249  0.1063  0.3006  0.2697
   13MOL0     C 1693  10.770   7.560   4.127 -0.8727 -0.8691  0.0575
   13MOL0     C 1694  10.645   7.519   4.047  0.4619 -0.2836  0.5042
   13MOL0     C 1695  10.698   7.458   3.917  0.6704 -0.1395  0.7065
   13MOL0     C 1696  10.587   7.453   3.814  0.0509  1.0116  1.2032
   13MOL0     C 1697  10.635   7.381   3.683  0.1357  0.1584  0.9108
   13MOL0     C 1698  10.525   7.331   3.588  0.2706  0.5583 -0.4033
   13MOL0     C 1699  10.589   7.238   3.482  0.3204  0.0132 -1.3267
   13MOL0     C 1700  10.703   7.293   3.392  0.3637  1.2087  0.5078
   13MOL0    Cl 1701  10.626   7.400   3.288  0.3276  0.0386  0.0435
   13MOL0     C 1702  10.932   7.630   4.348 -0.2460 -0.3658 -0.3842
   13MOL0     C 1703  10.999   7.688   4.462 -1.4669  0.1391 -0.3934
   13MOL0     O 1704  11.208   7.792   4.649 -0.2987  0.9979 -0.2718
   13MOL0     C 1705  11.045   7.817   4.961  0.1264  0.2768  0.8117
   13MOL0     C 1706  11.073   7.818   5.096 -0.2693 -0.4335 -0.2690
   13MOL0     N 1707  11.164   8.018   5.903  0.5016  0.5017 -0.0004
   13MOL0     N 1708  11.080   8.115   5.933  0.1572  0.8227  0.4635
   13MOL0     C 1709  10.042   7.786   5.842 -0.3992 -1.1374  0.0503
   13MOL0     C 1710   9.948   7.688   5.841 -0.5012  0.0521  0.6699
   13MOL0     C 1711   9.657   7.378   5.789 -1.4781 -0.3307  0.3336
   13MOL0     C 1712   9.685   7.242   5.778  0.2276 -0.5060  0.2238
   13MOL0     C 1713   9.583   7.151   5.768 -0.1791  0.4192 -0.3729
   13MOL0     C 1714   9.453   7.192   5.765 -0.3473 -0.0043 -0.1183
   13MOL0     O 1715   9.344   7.108   5.759  0.4234 -0.8412  0.3388
   13MOL0     C 1716   9.370   6.965   5.755 -0.0576 -0.2770 -0.3126
   13MOL0     C 1717   9.239   6.884   5.776 -0.3921 -0.2675 -0.2863
   13MOL0     C 1718   9.263   6.733   5.749  0.2254 -0.0037  0.2833
   13MOL0     C 1719   9.147   6.646   5.785  0.5059  0.0315 -0.3691
   13MOL0     C 1720   9.172   6.517   5.732 -0.1094 -0.6805 -0.5067
   13MOL0     C 1721   9.205   6.417   5.670 -0.5703 -0.7357 -0.8428
   13MOL0     C 1722   9.418   7.326   5.765 -0.0411  0.0313 -0.4487
   13MOL0     C 1723   9.516   7.420   5.778  0.0694  0.6422 -0.1953
   13MOL0     C 1724   9.468   7.565   5.788 -1.5807  0.7188  0.8896
   13MOL0     H 1725   9.751   7.799   5.602  0.2639 -3.1572 -0.5207
   13MOL0     H 1726   9.880   8.013   5.640 -3.1337 -0.3958  0.7596
   13MOL0     H 1727   9.970   8.168   5.831  0.2329 -3.7002  2.1377
   13MOL0     H 1728  10.062   8.160   5.679  0.4755 -3.4471 -1.4475
   13MOL0     H 1729  10.171   8.348   5.787  0.6945 -0.1446  0.5876
   13MOL0     H 1730  10.145   8.275   5.946 -0.5928  2.1474 -0.2382
   13MOL0     H 1731  10.323   8.110   5.901 -1.0166 -0.9790 -1.4063
   13MOL0     H 1732  10.338   8.171   5.733 -4.4576 -0.5020 -0.7431
   13MOL0     H 1733  10.456   8.381   5.820  0.1584  1.0456  2.0557
   13MOL0     H 1734  10.378   8.353   5.977 -0.7966 -0.3265 -0.3599
   13MOL0     H 1735  10.565   8.163   5.834 -1.5184  0.5519 -1.0668
   13MOL0     H 1736  10.557   8.167   6.007  4.0056 -3.7612 -1.0997
   13MOL0     H 1737  10.673   8.385   5.825 -0.1965  2.1895 -1.0062
   13MOL0     H 1738  10.649   8.409   6.004 -0.3348 -1.4869 -0.0524
   13MOL0     H 1739  10.778   8.174   6.014  1.2897 -0.1885  0.1788
   13MOL0     H 1740  10.869   8.326   6.014 -1.6660  0.9839  1.1840
   13MOL0     H 1741  10.792   8.123   5.791 -0.0845 -0.9850  1.8105
   13MOL0     H 1742  10.871   8.287   5.755 -4.9271  5.0707  4.3086
   13MOL0     H 1743  10.981   8.008   5.631 -0.4666 -5.7184  1.2689
   13MOL0     H 1744  11.196   7.773   5.766  0.7660 -0.9209 -1.2667
   13MOL0     H 1745  11.320   7.902   5.721 -0.0257  0.5198 -0.6848
   13MOL0     H 1746  11.085   7.803   5.542  0.5653 -1.6033  3.2709
   13MOL0     H 1747  11.201   7.941   5.515  1.1460  0.4940  1.3552
   13MOL0     H 1748  11.392   7.790   5.506  1.5044 -2.4931 -1.4273
   13MOL0     H 1749  11.266   7.654   5.538 -2.7722  1.6258 -0.3175
   13MOL0     H 1750  11.381   7.699   5.312  1.6205  0.1381  2.4378
   13MOL0     H 1751  11.214   7.644   5.332  1.0905 -0.8312  1.7777
   13MOL0     H 1752  11.409   7.877   5.084  0.2788 -0.2246  0.0084
   13MOL0     H 1753  11.383   7.951   4.751 -0.5865  1.2978  0.8371
   13MOL0     H 1754  11.424   7.770   4.771  1.6673  0.6005 -0.8836
   13MOL0     H 1755  11.487   7.898   4.877  0.5366  1.8939 -1.6005
   13MOL0     H 1756  10.748   7.773   4.662  0.0703 -1.6609  1.0483
   13MOL0     H 1757  10.619   7.690   4.468 -0.3686  0.4415 -0.8896
   13MOL0     H 1758  10.825   7.646   4.087  0.9644 -1.9728  0.0954
   13MOL0     H 1759  10.850   7.487   4.143  1.6110  1.3056 -1.4691
   13MOL0     H 1760  10.583   7.448   4.103 -2.1905  1.5451  0.0947
   13MOL0     H 1761  10.583   7.607   4.025  1.4435  0.4833  0.7646
   13MOL0     H 1762  10.742   7.360   3.936  2.4833 -0.0579 -2.4940
   13MOL0     H 1763  10.781   7.521   3.885  3.8075 -3.2831  1.8839
   13MOL0     H 1764  10.550   7.552   3.783 -3.1192 -0.4783 -0.3284
   13MOL0     H 1765  10.501   7.398   3.853  0.4159  0.4780  1.2709
   13MOL0     H 1766  10.691   7.459   3.631  0.3682 -0.9673 -0.5727
   13MOL0     H 1767  10.700   7.297   3.707  1.2432  0.8064  0.2437
   13MOL0     H 1768  10.476   7.415   3.537  1.0674  2.0651  1.1953
   13MOL0     H 1769  10.458   7.268   3.647  0.5550 -2.9612 -3.4489
   13MOL0     H 1770  10.524   7.197   3.404  0.3675 -2.1530 -0.3216
   13MOL0     H 1771  10.627   7.153   3.539 -0.9070  1.0759  1.2437
   13MOL0     H 1772  10.751   7.217   3.329 -1.1508 -1.8264  2.7333
   13MOL0     H 1773  10.780   7.342   3.451  0.0360 -0.5807  2.5595
   13MOL0     H 1774  10.984   7.598   4.258 -2.1192 -0.4016 -1.5028
   13MOL0     H 1775  11.107   7.689   4.451 -1.6848  1.7879 -4.4959
   13MOL0     H 1776  10.944   7.799   4.925  0.5928 -1.0762  0.1212
   13MOL0     H 1777  10.994   7.812   5.170  0.8769 -1.7130  0.9174
   13MOL0     H 1778  10.129   7.788   5.907  1.2858  0.7568 -2.1229
   13MOL0     H 1779   9.974   7.611   5.913 -0.5530 -0.8908 -0.3143
   13MOL0     H 1780   9.789   7.213   5.778  1.6194  3.8677  0.8203
   13MOL0     H 1781   9.612   7.046   5.772  0.8603  0.6533 -1.2229
   13MOL0     H 1782   9.395   6.943   5.651 -2.8121  1.0430 -1.3486
   13MOL0     H 1783   9.445   6.944   5.832 -1.3094  0.7973  1.2953
   13MOL0     H 1784   9.165   6.932   5.712  0.6449  0.8173 -0.7174
   13MOL0     H 1785   9.197   6.902   5.876 -0.5821  3.0434 -0.8307
   13MOL0     H 1786   9.293   6.731   5.644  0.9688  0.6955  0.4636
   13MOL0     H 1787   9.349   6.698   5.808  0.3337  0.6531  0.5284
   13MOL0     H 1788   9.051   6.689   5.754  1.0358  1.5513  0.0110
   13MOL0     H 1789   9.143   6.647   5.894 -1.2171  1.7951 -0.3847
   13MOL0     H 1790   9.252   6.345   5.606  4.8946 -0.1314  1.9280
   13MOL0     H 1791   9.315   7.359   5.773  0.2189  0.4536  1.8661
   13MOL0     H 1792   9.464   7.615   5.691  2.3041 -0.3717  0.0031
   13MOL0     H 1793   9.369   7.563   5.836 -1.8107  1.3388  0.4662
   13MOL0     H 1794   9.536   7.614   5.859  0.1638 -3.6691  2.5623
   14MOL0     O 1795   7.873   5.042   8.972  1.3301 -0.5240  0.2951
   14MOL0     C 1796   7.887   5.025   9.090  0.0294 -0.8753 -0.1442
   14MOL0     O 1797   7.782   5.016   9.180 -0.3468 -0.3079 -0.1146
   14MOL0     C 1798   7.651   5.031   9.129  0.1638  0.4452 -0.5451
   14MOL0     C 1799   7.565   4.918   9.101  0.1453 -0.0181  0.0963
   14MOL0     C 1800   7.440   4.942   9.034  0.1772  0.7049 -0.2063
   14MOL0     C 1801   7.390   5.067   9.018 -0.4739  0.1330 -0.4714
   14MOL0     O 1802   7.268   5.101   8.959 -0.1679  0.3810 -0.1086
   14MOL0     C 1803   7.182   4.996   8.911 -0.7239 -0.2612 -0.1076
   14MOL0     C 1804   7.047   5.056   8.867  0.7783 -0.4716  0.2796
   14MOL0     C 1805   6.967   4.977   8.756  0.4143  0.7286  0.0763
   14MOL0     C 1806   6.916   5.046   8.630  0.8872  0.5870 -0.5582
   14MOL0     C 1807   6.777   5.108   8.666  0.1736 -0.8896 -0.0683
   14MOL0     C 1808   6.744   5.236   8.593  0.0290  0.0821  0.1231
   14MOL0     C 1809   6.742   5.201   8.442  0.2244  0.0877 -0.3317
   14MOL0     C 1810   6.727   5.317   8.351 -0.8303  0.0776  0.0274
   14MOL0     N 1811   6.841   5.409   8.345 -0.5091  0.0180 -0.0981
   14MOL0     C 1812   6.878   5.526   8.411  0.5169 -0.0274 -0.5023
   14MOL0     C 1813   7.001   5.567   8.363 -0.3731 -0.6358 -0.1271
   14MOL0     C 1814   7.076   5.673   8.433 -0.7118  0.5965  0.3390
   14MOL0     C 1815   7.124   5.804   8.347 -0.5371  0.3433 -0.3674
   14MOL0     C 1816   7.026   5.845   8.243  0.0596 -0.4107  0.3391
   14MOL0     C 1817   7.045   5.985   8.190  0.4243  0.3680  0.6776
   14MOL0     O 1818   7.144   5.976   8.097 -0.7560 -0.8560 -0.8034
   14MOL0     C 1819   7.099   6.034   7.975 -0.1794  0.6050  0.7774
   14MOL0     C 1820   7.014   5.958   7.889  0.4402 -0.5155 -0.7036
   14MOL0     C 1821   6.979   6.013   7.765 -0.0253  0.4659  0.1240
   14MOL0     C 1822   6.897   5.925   7.667 -0.5618 -0.0963 -0.5280
   14MOL0     C 1823   7.025   6.139   7.723  0.0676  0.9002  0.4723
   14MOL0     C 1824   6.973   6.206   7.601 -0.2587 -0.1089  0.4888
   14MOL0     O 1825   7.053   6.243   7.504 -0.3456 -0.1158 -0.1450
   14MOL0     C 1826   7.039   6.335   7.402  0.7813  0.2702 -0.0440
   14MOL0     C 1827   7.010   6.468   7.418 -0.5070 -0.5384  0.7452
   14MOL0     C 1828   7.003   6.566   7.308 -0.1775  0.1202  0.4336
   14MOL0     C 1829   7.054   6.535   7.172  0.6092 -0.6369 -0.3631
   14MOL0     O 1830   7.057   6.609   7.065 -0.5289  0.4481  0.2704
   14MOL0     C 1831   7.100   6.748   7.075 -0.5643 -0.7072 -0.1849
   14MOL0     C 1832   7.072   6.823   6.951  0.6693 -0.4232 -0.0397
   14MOL0     C 1833   7.122   6.761   6.821  0.3361  0.7789 -0.5070
   14MOL0     C 1834   7.059   6.820   6.692 -0.1750 -0.3876 -0.2518
   14MOL0     C 1835   7.156   6.801   6.569 -0.2568 -0.5904 -0.6374
   14MOL0     C 1836   7.168   6.926   6.476  0.8094  0.5213 -0.6487
   14MOL0     C 1837   7.313   6.934   6.432  0.0167  1.0887  0.6033
   14MOL0     C 1838   7.326   7.058   6.344  0.4912 -0.1417  0.4887
   14MOL0    Cl 1839   7.274   7.208   6.440  0.6086 -0.2689  0.1845
   14MOL0     C 1840   7.074   6.395   7.164 -0.7459 -0.0752  0.6431
   14MOL0     C 1841   7.068   6.308   7.272  0.3677  0.2981  0.2283
   14MOL0     O 1842   6.848   6.226   7.581 -0.6681  0.0062 -0.2638
   14MOL0     C 1843   7.120   6.212   7.801  0.8351  0.6274 -0.1666
   14MOL0     C 1844   7.145   6.157   7.923 -0.1612 -0.8118 -0.2553
   14MOL0     N 1845   7.041   5.477   8.272 -0.7325  0.2733  1.2815
   14MOL0     N 1846   6.947   5.389   8.265  0.2378  0.1466 -0.0440
   14MOL0     C 1847   7.470   5.180   9.049  0.7042  0.0603  0.0348
   14MOL0     C 1848   7.601   5.161   9.095  0.3773 -0.5463 -0.3945
   14MOL0     C 1849   8.017   5.017   9.136 -0.0848  0.5784 -0.4956
   14MOL0     C 1850   8.038   5.078   9.269  0.6072  0.0335  0.2707
   14MOL0     C 1851   8.165   5.067   9.328  0.1159  0.2485 -0.6977
   14MOL0     C 1852   8.270   5.006   9.269  0.0380 -0.9941  0.4181
   14MOL0     O 1853   8.394   4.997   9.321  0.4752  0.1624 -0.4626
   14MOL0     C 1854   8.459   5.120   9.366  0.2133 -0.1851 -0.2762
   14MOL0     C 1855   8.602   5.107   9.403  1.1434 -0.0520  0.3919
   14MOL0     C 1856   8.700   5.063   9.299 -0.7282 -0.2388  1.4378
   14MOL0     C 1857   8.850   5.094   9.340 -0.0696 -0.2225  1.2385
   14MOL0     C 1858   8.957   5.012   9.272  1.2249  0.3593 -0.7177
   14MOL0     C 1859   9.100   4.920   9.195  0.7512 -0.1100  0.3461
   14MOL0     C 1860   8.250   4.947   9.144 -0.2605  0.1845 -0.2012
   14MOL0     C 1861   8.130   4.952   9.081  0.0216  0.2831  1.0580
   14MOL0     C 1862   8.116   4.873   8.948  0.4651  0.8628 -0.1653
   14MOL0     H 1863   7.608   4.819   9.113 -0.0529 -0.0243  0.7575
   14MOL0     H 1864   7.386   4.853   9.003  2.0952 -0.6323  0.1157
   14MOL0     H 1865   7.170   4.921   8.990 -1.4563 -0.4609 -0.4001
   14MOL0     H 1866   7.233   4.951   8.825  0.2864 -0.5242  0.6026
   14MOL0     H 1867   6.985   5.068   8.956  2.2982  0.3990  1.2734
   14MOL0     H 1868   7.070   5.154   8.823 -1.1264  1.8118  3.8954
   14MOL0     H 1869   7.040   4.905   8.719 -0.9434 -0.6518 -0.0092
   14MOL0     H 1870   6.882   4.925   8.800  1.6888 -1.3339  0.2474
   14MOL0     H 1871   6.981   5.125   8.591  1.1994  0.9437  0.6515
   14MOL0     H 1872   6.891   4.969   8.557  0.9794  0.0183  0.0091
   14MOL0     H 1873   6.767   5.123   8.774  0.8044 -0.1618 -0.0948
   14MOL0     H 1874   6.700   5.037   8.638 -1.4188  0.6825  0.1609
   14MOL0     H 1875   6.646   5.274   8.624  1.9827  2.5774  4.0331
   14MOL0     H 1876   6.806   5.319   8.628  1.0871 -0.2118 -1.0197
   14MOL0     H 1877   6.665   5.124   8.428  1.5757 -1.2668 -0.5374
   14MOL0     H 1878   6.839   5.157   8.420  1.9254  3.6578 -0.7290
   14MOL0     H 1879   6.711   5.277   8.251 -1.4062  1.0202 -0.2710
   14MOL0     H 1880   6.641   5.374   8.388  0.2581  2.1049 -0.4074
   14MOL0     H 1881   6.823   5.584   8.485 -0.9254 -1.7533 -0.1481
   14MOL0     H 1882   7.171   5.632   8.469  0.0153  3.7606  2.4742
   14MOL0     H 1883   7.013   5.702   8.518 -4.4954 -1.1029 -1.6437
   14MOL0     H 1884   7.134   5.886   8.419  3.9625  0.0838 -0.4511
   14MOL0     H 1885   7.221   5.784   8.300 -1.7395 -1.2018 -2.3364
   14MOL0     H 1886   7.031   5.776   8.158  0.7094 -0.6127  0.5367
   14MOL0     H 1887   6.926   5.842   8.286  0.5770 -1.0202  1.5325
   14MOL0     H 1888   6.947   6.017   8.153  1.3132  0.7104 -1.5471
   14MOL0     H 1889   7.092   6.048   8.266  0.7162  4.3069 -2.4263
   14MOL0     H 1890   6.959   5.870   7.921 -0.4892 -0.0670 -1.0173
   14MOL0     H 1891   6.968   5.841   7.665 -1.9802 -1.3070 -1.5145
   14MOL0     H 1892   6.888   5.979   7.573 -2.3717  0.0470 -0.2898
   14MOL0     H 1893   6.805   5.898   7.719 -1.8112  3.1161 -0.8497
   14MOL0     H 1894   6.982   6.492   7.520  2.1091  0.3354  1.3305
   14MOL0     H 1895   6.968   6.668   7.321  0.0088  0.4583 -1.4259
   14MOL0     H 1896   7.037   6.788   7.155  0.5602 -0.5937  0.6687
   14MOL0     H 1897   7.208   6.755   7.091 -0.2210 -1.3612 -1.9357
   14MOL0     H 1898   6.965   6.844   6.950  0.6170 -0.6633  0.2358
   14MOL0     H 1899   7.123   6.920   6.964  2.3595 -1.3368  0.5276
   14MOL0     H 1900   7.112   6.654   6.837  2.3350  0.6582  0.1708
   14MOL0     H 1901   7.226   6.794   6.818  1.0138 -1.2786 -0.4671
   14MOL0     H 1902   7.056   6.927   6.715 -0.6567 -0.4222 -0.1554
   14MOL0     H 1903   6.961   6.778   6.671 -0.4044  0.4246 -0.8655
   14MOL0     H 1904   7.252   6.767   6.609  0.0332 -0.0303 -0.8409
   14MOL0     H 1905   7.123   6.715   6.511  1.5314 -1.1192 -0.9253
   14MOL0     H 1906   7.150   7.018   6.534  2.1567  2.7944 -3.5829
   14MOL0     H 1907   7.103   6.908   6.390 -0.5224 -3.0321  0.9078
   14MOL0     H 1908   7.336   6.855   6.360  3.7236  0.8150  1.8691
   14MOL0     H 1909   7.393   6.927   6.506  2.8363  0.4713 -2.3168
   14MOL0     H 1910   7.262   7.045   6.257  1.4960  0.6935 -0.4039
   14MOL0     H 1911   7.429   7.067   6.309  0.0961 -1.0016 -0.9537
   14MOL0     H 1912   7.098   6.339   7.075 -1.6185  1.6363 -0.7360
   14MOL0     H 1913   7.085   6.205   7.243 -2.8445 -0.2030 -0.1529
   14MOL0     H 1914   7.162   6.306   7.766 -2.6637  1.8539 -1.6052
   14MOL0     H 1915   7.212   6.216   7.984 -0.6377 -1.6369  1.1088
   14MOL0     H 1916   7.427   5.280   9.041  0.5669 -0.1550 -2.6977
   14MOL0     H 1917   7.653   5.254   9.115 -1.5341  0.1334  1.8698
   14MOL0     H 1918   7.964   5.121   9.336  1.4098 -0.1923  1.3269
   14MOL0     H 1919   8.163   5.099   9.432 -0.2120 -0.8120 -0.3661
   14MOL0     H 1920   8.461   5.194   9.285  0.3290  2.3114  1.8894
   14MOL0     H 1921   8.398   5.166   9.444 -1.1370 -0.1370 -1.3194
   14MOL0     H 1922   8.600   5.030   9.482 -2.7950  0.1089  0.6458
   14MOL0     H 1923   8.651   5.195   9.444  3.1377 -0.8902 -0.0902
   14MOL0     H 1924   8.683   4.959   9.268 -0.5166  0.5064 -1.5311
   14MOL0     H 1925   8.674   5.126   9.213  4.4754  0.4036 -0.0109
   14MOL0     H 1926   8.857   5.075   9.447 -3.3954 -2.1065  1.2484
   14MOL0     H 1927   8.866   5.202   9.324  1.6133 -0.2687  2.3277
   14MOL0     H 1928   9.186   4.857   9.179 -1.6376 -3.4679 -0.2269
   14MOL0     H 1929   8.331   4.899   9.089  0.1898  0.3322  0.3193
   14MOL0     H 1930   8.079   4.941   8.870 -2.1046 -2.0150 -1.6705
   14MOL0     H 1931   8.206   4.819   8.915  0.4890  0.5226  0.4533
   14MOL0     H 1932   8.043   4.793   8.963  2.0374 -0.4877  0.6468
   15MOL0     O 1933   8.112   6.905   2.778  0.1889  0.5518 -0.2437
   15MOL0     C 1934   8.163   6.943   2.884  0.0609 -0.1001  0.3135
   15MOL0     O 1935   8.190   6.862   2.992  0.6527  0.4276 -0.1866
   15MOL0     C 1936   8.109   6.759   3.026 -0.7185  0.4109 -0.7400
   15MOL0     C 1937   8.173   6.653   3.093 -0.3382 -0.7990  0.5202
   15MOL0     C 1938   8.100   6.538   3.127 -0.1565  0.6986  0.0368
   15MOL0     C 1939   7.963   6.523   3.104 -0.0106 -0.0936  0.0395
   15MOL0     O 1940   7.907   6.405   3.136  0.5526  0.3820  0.5250
   15MOL0     C 1941   7.779   6.376   3.088  0.0850  0.6647  0.3288
   15MOL0     C 1942   7.745   6.231   3.126 -0.6228 -0.1510 -0.9869
   15MOL0     C 1943   7.809   6.129   3.026 -0.5177  0.0013  0.2196
   15MOL0     C 1944   7.765   5.989   3.058  0.7865  0.0402 -0.2140
   15MOL0     C 1945   7.788   5.896   2.938  0.1736  0.3066  0.3857
   15MOL0     C 1946   7.934   5.881   2.901  0.8590  0.5846 -0.1816
   15MOL0     C 1947   8.028   5.842   3.012 -0.4550 -0.6116 -0.4645
   15MOL0     C 1948   7.997   5.709   3.073  0.6197 -0.0733 -0.0734
   15MOL0     N 1949   8.109   5.630   3.123  0.3509 -0.1420 -0.6418
   15MOL0     C 1950   8.179   5.546   3.047 -0.4158  0.0478  0.8986
   15MOL0     C 1951   8.298   5.520   3.116 -0.1349  0.1393  0.0302
   15MOL0     C 1952   8.398   5.420   3.083  0.2906  1.0734  0.1932
   15MOL0     C 1953   8.357   5.269   3.100  0.2836 -0.3895  0.3654
   15MOL0     C 1954   8.345   5.234   3.246  1.1079 -0.3248 -0.6204
   15MOL0     C 1955   8.327   5.078   3.273 -0.7336 -1.4816 -0.2052
   15MOL0     O 1956   8.313   5.055   3.411  0.9052  0.0543  0.2161
   15MOL0     C 1957   8.227   4.948   3.448 -0.2870 -0.6965 -0.2100
   15MOL0     C 1958   8.198   4.944   3.581  0.2403 -0.2637 -0.1038
   15MOL0     C 1959   8.100   4.855   3.631 -0.9697  0.6115  0.2886
   15MOL0     C 1960   8.064   4.871   3.772 -0.0015  0.1584  0.0091
   15MOL0     C 1961   8.055   4.752   3.542  0.1831  0.4519  0.0698
   15MOL0     C 1962   7.964   4.644   3.583  0.9065  0.0895 -0.2654
   15MOL0     O 1963   7.894   4.588   3.481 -0.0738  0.0928  0.7286
   15MOL0     C 1964   7.835   4.463   3.501 -0.3238  0.0012  1.5099
   15MOL0     C 1965   7.907   4.363   3.427  0.2366 -0.1292  0.2623
   15MOL0     C 1966   7.851   4.229   3.416  0.3971 -0.2912 -0.9843
   15MOL0     C 1967   7.744   4.199   3.505 -0.7507  0.3525 -1.0372
   15MOL0     O 1968   7.718   4.065   3.526  0.3688  0.2644 -0.7092
   15MOL0     C 1969   7.614   4.015   3.608 -0.0328 -0.5907  0.5627
   15MOL0     C 1970   7.646   4.020   3.753  0.8151 -0.2573 -0.5825
   15MOL0     C 1971   7.781   3.951   3.799 -0.3352 -0.3751 -0.2235
   15MOL0     C 1972   7.767   3.803   3.819 -0.5904 -0.1470  0.6182
   15MOL0     C 1973   7.903   3.736   3.833 -0.1112  0.1233 -0.3085
   15MOL0     C 1974   7.903   3.629   3.941 -0.1093 -0.3829 -0.4599
   15MOL0     C 1975   7.914   3.702   4.090  0.4606 -0.2638  0.1447
   15MOL0     C 1976   8.056   3.727   4.122  0.5026 -0.0030  0.0203
   15MOL0    Cl 1977   8.082   3.758   4.297 -0.2912  0.2084  0.3623
   15MOL0     C 1978   7.687   4.304   3.577 -0.2130  0.1102 -0.3694
   15MOL0     C 1979   7.719   4.442   3.572  0.0062  0.0403  0.1723
   15MOL0     O 1980   7.957   4.607   3.696 -0.0075 -0.4965 -1.0019
   15MOL0     C 1981   8.100   4.748   3.410 -0.5606 -0.4214  0.0034
   15MOL0     C 1982   8.181   4.847   3.364  0.3615 -0.2592 -0.2591
   15MOL0     N 1983   8.278   5.588   3.238 -0.0369  0.1699 -1.1310
   15MOL0     N 1984   8.161   5.654   3.237 -0.7670  0.4046  0.0129
   15MOL0     C 1985   7.904   6.636   3.051 -0.5482 -0.5308 -0.0638
   15MOL0     C 1986   7.973   6.746   3.001  0.1702  0.3130  0.0603
   15MOL0     C 1987   8.228   7.073   2.874  0.1949 -0.2969  0.0262
   15MOL0     C 1988   8.332   7.092   2.970  0.9189 -0.5105 -0.8229
   15MOL0     C 1989   8.397   7.218   2.969 -0.4401  0.7091  0.7300
   15MOL0     C 1990   8.360   7.324   2.893  0.8621 -0.4854 -0.5497
   15MOL0     O 1991   8.411   7.453   2.910 -0.7549 -0.8500  0.5052
   15MOL0     C 1992   8.524   7.467   3.000  0.1632  0.5299 -0.0281
   15MOL0     C 1993   8.564   7.606   3.007  0.2153 -0.3306  0.0869
   15MOL0     C 1994   8.619   7.655   2.865 -0.4089  0.5138  0.9226
   15MOL0     C 1995   8.674   7.793   2.893  0.3287 -0.3115 -0.7550
   15MOL0     C 1996   8.554   7.886   2.927  0.4816  0.3485 -0.0032
   15MOL0     C 1997   8.472   7.970   2.942 -0.4891 -0.1827 -0.5642
   15MOL0     C 1998   8.249   7.306   2.809 -0.0402  0.3896 -0.6715
   15MOL0     C 1999   8.183   7.182   2.794  0.4408 -0.3828  0.3837
   15MOL0     C 2000   8.062   7.180   2.698  0.4646  0.7271 -1.3388
   15MOL0     H 2001   8.281   6.649   3.103  0.0014  0.5825 -1.9727
   15MOL0     H 2002   8.141   6.449   3.174  1.8024  0.0719 -2.5987
   15MOL0     H 2003   7.759   6.382   2.981 -0.3056 -3.6830 -0.0030
   15MOL0     H 2004   7.713   6.447   3.139  1.8607 -0.5407  4.8542
   15MOL0     H 2005   7.787   6.217   3.226 -0.4735  1.7231 -0.7582
   15MOL0     H 2006   7.640   6.216   3.151 -0.1332 -0.7583  0.8457
   15MOL0     H 2007   7.781   6.166   2.927  2.7282  0.3376 -0.6899
   15MOL0     H 2008   7.918   6.138   3.036 -0.8116  0.9104  5.6612
   15MOL0     H 2009   7.819   5.947   3.144  1.9776  1.8067 -0.0395
   15MOL0     H 2010   7.658   5.982   3.076  0.6772  3.3455  1.1384
   15MOL0     H 2011   7.727   5.921   2.851  0.7368 -1.8400 -0.7148
   15MOL0     H 2012   7.767   5.794   2.972  1.7530  0.1924  1.1128
   15MOL0     H 2013   7.932   5.804   2.823 -1.1923  0.3304  0.0503
   15MOL0     H 2014   7.962   5.968   2.842  0.7103 -1.8162 -4.2387
   15MOL0     H 2015   8.034   5.926   3.083  1.2048  0.1745 -1.4709
   15MOL0     H 2016   8.129   5.858   2.974 -0.2018  1.6214  0.9408
   15MOL0     H 2017   7.935   5.733   3.160 -0.7670 -1.2449 -0.7033
   15MOL0     H 2018   7.950   5.644   3.000  3.8499 -0.5898 -1.8973
   15MOL0     H 2019   8.152   5.504   2.951  0.6864 -1.0114  1.0215
   15MOL0     H 2020   8.493   5.442   3.133 -0.1633 -2.0293  2.7001
   15MOL0     H 2021   8.417   5.439   2.977 -1.0706  1.9342  0.0737
   15MOL0     H 2022   8.260   5.260   3.050  0.5438  0.2403 -0.2687
   15MOL0     H 2023   8.428   5.219   3.035 -2.1558 -1.1512 -1.9119
   15MOL0     H 2024   8.435   5.263   3.301  3.1823 -1.1880 -3.3285
   15MOL0     H 2025   8.255   5.290   3.272  2.3706  1.4801  0.0636
   15MOL0     H 2026   8.245   5.042   3.210 -2.6513 -1.5192  2.1430
   15MOL0     H 2027   8.415   5.019   3.246 -0.7685 -1.3663 -0.5730
   15MOL0     H 2028   8.236   5.026   3.642  3.2806 -3.5640  2.8826
   15MOL0     H 2029   8.125   4.818   3.846  0.4366 -2.2007 -1.9302
   15MOL0     H 2030   7.956   4.860   3.786  0.2049 -0.0856  1.6196
   15MOL0     H 2031   8.084   4.977   3.792 -0.2219  0.0867  0.6489
   15MOL0     H 2032   7.988   4.395   3.363  0.2007 -1.5180 -0.5110
   15MOL0     H 2033   7.904   4.155   3.356 -1.8069 -1.4161 -1.6664
   15MOL0     H 2034   7.527   4.069   3.571 -0.4736 -1.7970 -0.2453
   15MOL0     H 2035   7.594   3.912   3.577 -0.1579 -0.3374 -0.2083
   15MOL0     H 2036   7.639   4.121   3.797 -2.1773 -0.1376 -1.1191
   15MOL0     H 2037   7.573   3.971   3.818  2.8197 -0.1650  1.9526
   15MOL0     H 2038   7.800   3.997   3.897 -2.8500  3.2843 -1.2741
   15MOL0     H 2039   7.863   3.974   3.731  1.8588 -1.5440  1.8453
   15MOL0     H 2040   7.706   3.758   3.740 -0.5052 -1.0196  1.0429
   15MOL0     H 2041   7.714   3.789   3.914  0.8210  0.9920  1.6293
   15MOL0     H 2042   7.930   3.693   3.736  0.2154 -0.4134  0.0108
   15MOL0     H 2043   7.984   3.803   3.862  0.6262 -1.3612  1.2366
   15MOL0     H 2044   7.981   3.553   3.930  0.6187  0.1611  0.7033
   15MOL0     H 2045   7.804   3.582   3.948 -1.5153  2.2982 -1.1857
   15MOL0     H 2046   7.856   3.634   4.153 -2.9193  0.1637 -2.2195
   15MOL0     H 2047   7.859   3.797   4.095  0.9815  0.0017  1.2133
   15MOL0     H 2048   8.109   3.794   4.053  0.3188 -1.2280 -1.3720
   15MOL0     H 2049   8.114   3.639   4.095 -2.1661 -0.7418 -4.3482
   15MOL0     H 2050   7.624   4.268   3.657 -1.2450 -1.3012 -1.7556
   15MOL0     H 2051   7.659   4.526   3.607  2.4397  1.0704  2.2308
   15MOL0     H 2052   8.065   4.667   3.347 -2.4720 -1.1006  1.8188
   15MOL0     H 2053   8.228   4.847   3.266  2.4615 -1.2745  0.6797
   15MOL0     H 2054   7.797   6.629   3.034 -0.5834  0.4636 -0.2618
   15MOL0     H 2055   7.927   6.838   2.966  1.4730  0.3948 -1.5833
   15MOL0     H 2056   8.370   7.007   3.025 -1.5987 -0.6960  0.7718
   15MOL0     H 2057   8.486   7.216   3.031  1.1228  1.9006 -1.3560
   15MOL0     H 2058   8.487   7.432   3.096 -0.8106 -4.7951 -2.0172
   15MOL0     H 2059   8.609   7.402   2.974  2.1635  1.5268  3.3940
   15MOL0     H 2060   8.634   7.604   3.091  0.9971 -0.2253 -0.5484
   15MOL0     H 2061   8.472   7.659   3.033  1.3110  1.8235 -0.2607
   15MOL0     H 2062   8.699   7.591   2.825 -1.4799  1.4183 -3.1476
   15MOL0     H 2063   8.540   7.660   2.790 -0.0981  0.6865  0.6037
   15MOL0     H 2064   8.708   7.847   2.804 -1.9345  0.5551 -1.1529
   15MOL0     H 2065   8.751   7.797   2.972 -1.3933 -0.5736  1.0192
   15MOL0     H 2066   8.414   8.052   2.980  0.9463  2.1236 -3.0256
   15MOL0     H 2067   8.205   7.381   2.745 -1.8521 -0.1811 -0.1410
   15MOL0     H 2068   8.031   7.273   2.650  2.3861  0.8513 -2.4453
   15MOL0     H 2069   8.087   7.122   2.609  3.4388 -1.6515  0.8409
   15MOL0     H 2070   7.973   7.140   2.747  1.0342  1.2437  0.1447
   16MOL0     O 2071  10.984   3.840   7.315  0.4526 -0.5708 -0.4776
   16MOL0     C 2072  11.040   3.941   7.275 -0.8455 -0.4229  0.4594
   16MOL0     O 2073  11.167   3.942   7.206  0.0040  0.0616 -0.6932
   16MOL0     C 2074  11.197   3.820   7.150 -0.8994  0.8722  0.7120
   16MOL0     C 2075  11.214   3.809   7.017 -0.2184 -0.3978  0.8193
   16MOL0     C 2076  11.226   3.680   6.960 -0.3874  0.8706 -0.3739
   16MOL0     C 2077  11.233   3.559   7.037 -0.6342 -0.3177 -0.8899
   16MOL0     O 2078  11.246   3.431   6.990  0.1087  0.7733 -0.3096
   16MOL0     C 2079  11.287   3.410   6.853 -0.0521 -0.1260  0.2201
   16MOL0     C 2080  11.303   3.258   6.826  0.3033 -0.8774  0.8739
   16MOL0     C 2081  11.442   3.205   6.892 -0.1223 -0.8987  0.0583
   16MOL0     C 2082  11.464   3.047   6.864 -0.5414 -0.3863  0.8039
   16MOL0     C 2083  11.588   2.990   6.938 -0.3050  0.4017  0.4491
   16MOL0     C 2084  11.717   3.063   6.892 -0.2703  0.8913  0.4186
   16MOL0     C 2085  11.848   3.007   6.969  0.2766  0.0067  1.0436
   16MOL0     C 2086  11.887   2.874   6.924 -0.4243 -0.4189  0.1620
   16MOL0     N 2087  12.018   2.822   6.999 -0.4467  0.6762  0.0657
   16MOL0     C 2088  12.141   2.872   6.955  0.2133 -0.4025  0.2395
   16MOL0     C 2089  12.217   2.846   7.063  0.2514 -0.0788  0.7786
   16MOL0     C 2090  12.352   2.898   7.102  0.3227  0.1309 -0.2476
   16MOL0     C 2091  12.468   2.826   7.030  0.5295 -0.6924  0.0600
   16MOL0     C 2092  12.453   2.690   6.964  0.1212 -0.4266 -0.2463
   16MOL0     C 2093  12.569   2.649   6.873 -0.0862 -1.1278 -1.3439
   16MOL0     O 2094  12.531   2.640   6.739  0.5095 -0.3202 -1.0035
   16MOL0     C 2095  12.626   2.625   6.643 -0.8512  0.0932 -1.0770
   16MOL0     C 2096  12.596   2.648   6.515 -0.9654  0.1071  0.0188
   16MOL0     C 2097  12.703   2.638   6.415  0.4093 -1.5055  0.4049
   16MOL0     C 2098  12.674   2.646   6.267 -0.5622 -0.8809  0.4448
   16MOL0     C 2099  12.839   2.608   6.454 -0.2510  0.1103  0.2196
   16MOL0     C 2100  12.957   2.609   6.358 -0.7857  0.1109  0.8247
   16MOL0     O 2101  13.063   2.519   6.394 -0.3309 -0.0851  1.0675
   16MOL0     C 2102  13.195   2.535   6.354  0.6125 -0.4693 -0.3551
   16MOL0     C 2103  13.254   2.635   6.278  1.1608  0.2474  0.8103
   16MOL0     C 2104  13.387   2.632   6.262 -0.2952 -0.9162  0.9859
   16MOL0     C 2105  13.471   2.540   6.327 -0.1564  0.8195 -0.2135
   16MOL0     O 2106  13.612   2.546   6.312  0.0805 -0.2409 -0.8220
   16MOL0     C 2107  13.687   2.540   6.437 -1.0086 -0.5726 -0.1591
   16MOL0     C 2108  13.793   2.655   6.447 -0.5438 -0.1807  1.5075
   16MOL0     C 2109  13.734   2.801   6.429  0.1587  0.9177  1.0840
   16MOL0     C 2110  13.739   2.853   6.286  0.7230  0.1516 -0.0861
   16MOL0     C 2111  13.666   2.988   6.283  0.3577 -0.1765  0.7753
   16MOL0     C 2112  13.691   3.045   6.147  0.2519 -0.2487  0.2082
   16MOL0     C 2113  13.639   2.956   6.027 -1.2054 -0.1476  0.9269
   16MOL0     C 2114  13.682   3.014   5.894  0.1753  0.1585  0.7242
   16MOL0    Cl 2115  13.652   3.197   5.860  0.4562 -0.3063  0.0510
   16MOL0     C 2116  13.416   2.436   6.392 -0.4978  0.2423 -0.7325
   16MOL0     C 2117  13.274   2.435   6.411 -0.8054  0.1648 -0.3113
   16MOL0     O 2118  12.962   2.705   6.277  0.2204  0.2461  0.7461
   16MOL0     C 2119  12.863   2.582   6.585  0.2364  1.5603 -0.3990
   16MOL0     C 2120  12.764   2.590   6.675  0.0575  0.0081  0.2067
   16MOL0     N 2121  12.149   2.766   7.157  0.0544 -0.2528  1.2459
   16MOL0     N 2122  12.027   2.755   7.116 -0.6223  0.9991 -0.1815
   16MOL0     C 2123  11.240   3.582   7.175 -0.1732  0.9436  0.1344
   16MOL0     C 2124  11.224   3.704   7.235  0.6769  0.3081  0.0085
   16MOL0     C 2125  10.966   4.066   7.278  0.0445 -0.4898 -1.2577
   16MOL0     C 2126  10.839   4.075   7.216 -0.4451  0.0558 -0.6569
   16MOL0     C 2127  10.776   4.203   7.211  0.6640 -0.6031 -0.4676
   16MOL0     C 2128  10.842   4.314   7.275 -0.5459  0.7371  0.5183
   16MOL0     O 2129  10.778   4.429   7.265 -0.6942  1.0239 -0.3874
   16MOL0     C 2130  10.847   4.547   7.284 -0.1287  0.4752  0.1751
   16MOL0     C 2131  10.775   4.676   7.236 -0.0311 -0.0600 -0.8474
   16MOL0     C 2132  10.759   4.669   7.088  1.1921 -0.6662 -0.0514
   16MOL0     C 2133  10.876   4.696   6.998 -0.9239  0.1112  0.5223
   16MOL0     C 2134  10.949   4.568   6.976 -0.2299 -0.1085  0.4746
   16MOL0     C 2135  10.995   4.457   6.975 -0.0981 -0.5535  0.1381
   16MOL0     C 2136  10.956   4.299   7.357  0.1587  0.7386  0.3615
   16MOL0     C 2137  11.032   4.176   7.349 -0.2778 -0.2735  0.2404
   16MOL0     C 2138  11.164   4.164   7.427  0.4055 -0.8602 -0.4023
   16MOL0     H 2139  11.215   3.895   6.951  1.4775 -1.0588 -0.0729
   16MOL0     H 2140  11.238   3.667   6.853 -0.6784 -1.1505 -0.1918
   16MOL0     H 2141  11.386   3.456   6.846 -0.8305  2.1904  2.5253
   16MOL0     H 2142  11.218   3.458   6.784  1.4793  1.4415 -0.2880
   16MOL0     H 2143  11.217   3.199   6.858  1.0187 -1.8044  1.1609
   16MOL0     H 2144  11.303   3.248   6.717  2.5446 -3.5889  0.9964
   16MOL0     H 2145  11.530   3.265   6.864  0.9374 -1.4547  1.9857
   16MOL0     H 2146  11.432   3.222   6.999 -1.6347  0.2610 -0.2338
   16MOL0     H 2147  11.383   2.983   6.899  0.1990 -0.0830  3.2257
   16MOL0     H 2148  11.479   3.035   6.756  1.6838  0.1347  1.0168
   16MOL0     H 2149  11.596   2.881   6.923 -0.4368  0.0331  2.6604
   16MOL0     H 2150  11.569   3.026   7.039 -2.3550 -0.9064  0.5971
   16MOL0     H 2151  11.735   3.039   6.786 -1.4369  0.1803  0.3648
   16MOL0     H 2152  11.709   3.169   6.917 -0.1275  0.6756  1.3888
   16MOL0     H 2153  11.831   2.995   7.076 -3.0464 -2.9504  0.3706
   16MOL0     H 2154  11.930   3.076   6.945 -3.4851  3.3841 -4.4538
   16MOL0     H 2155  11.815   2.793   6.935  0.7696 -1.8063 -1.5799
   16MOL0     H 2156  11.924   2.868   6.821  4.1670 -1.0048  1.6186
   16MOL0     H 2157  12.161   2.926   6.864 -1.6086 -2.7552 -1.6929
   16MOL0     H 2158  12.365   2.878   7.209  1.4109  1.2435 -0.1564
   16MOL0     H 2159  12.349   3.007   7.096  0.9825  0.2036  0.5279
   16MOL0     H 2160  12.508   2.897   6.957  1.8891  1.1330  2.4176
   16MOL0     H 2161  12.539   2.808   7.112 -2.4588  0.0748  3.0306
   16MOL0     H 2162  12.428   2.606   7.030 -2.1991 -0.6902 -1.3687
   16MOL0     H 2163  12.360   2.694   6.907 -1.8016  3.0197  2.6701
   16MOL0     H 2164  12.650   2.722   6.877 -0.2477 -0.9255  2.4485
   16MOL0     H 2165  12.606   2.557   6.920  1.8147  2.0956  4.5558
   16MOL0     H 2166  12.495   2.669   6.481 -1.1760 -1.2808 -0.2668
   16MOL0     H 2167  12.565   2.656   6.255 -0.9590 -4.7138 -0.4593
   16MOL0     H 2168  12.705   2.547   6.233  0.6371 -0.2149 -0.4657
   16MOL0     H 2169  12.725   2.720   6.205  1.0343 -0.8918  1.6969
   16MOL0     H 2170  13.196   2.708   6.223  2.3913  1.1730  0.6908
   16MOL0     H 2171  13.437   2.683   6.180 -1.3890 -3.6319 -1.5890
   16MOL0     H 2172  13.623   2.554   6.524 -0.5826 -0.8039  0.1975
   16MOL0     H 2173  13.749   2.450   6.444 -1.3513 -0.8428 -0.4768
   16MOL0     H 2174  13.838   2.645   6.546 -0.7655 -2.3396  1.4473
   16MOL0     H 2175  13.868   2.632   6.371 -3.8102 -2.5144 -1.3263
   16MOL0     H 2176  13.794   2.881   6.473 -0.0136  1.0442  1.0896
   16MOL0     H 2177  13.627   2.802   6.453  0.5674 -0.1801  3.1546
   16MOL0     H 2178  13.689   2.784   6.217  0.0666 -0.6696  1.1713
   16MOL0     H 2179  13.844   2.856   6.256  0.5166 -1.2165 -1.0418
   16MOL0     H 2180  13.558   2.983   6.301  0.4008  0.1340  1.1210
   16MOL0     H 2181  13.699   3.060   6.358 -0.0011  1.2065 -0.3589
   16MOL0     H 2182  13.797   3.060   6.126 -0.1848  1.4530 -0.9735
   16MOL0     H 2183  13.645   3.143   6.133  2.1941  0.4231 -2.2520
   16MOL0     H 2184  13.531   2.948   6.013 -0.9326  0.7193 -2.7172
   16MOL0     H 2185  13.684   2.858   6.041 -0.0748  0.3066  0.6308
   16MOL0     H 2186  13.634   2.962   5.810  0.0966 -0.7937  1.3406
   16MOL0     H 2187  13.789   2.991   5.900  0.7031  2.4897  1.0088
   16MOL0     H 2188  13.490   2.362   6.422 -1.1175  0.4213  1.3673
   16MOL0     H 2189  13.239   2.351   6.471  2.4415 -1.1452 -0.0810
   16MOL0     H 2190  12.967   2.584   6.616  0.7944  0.6513 -2.0791
   16MOL0     H 2191  12.787   2.565   6.778  1.1924  2.4313  0.6193
   16MOL0     H 2192  11.252   3.493   7.237 -2.8892 -2.0857 -3.2397
   16MOL0     H 2193  11.235   3.697   7.342 -1.4018 -5.5013  0.2206
   16MOL0     H 2194  10.774   4.005   7.164 -0.1273 -0.2819 -0.6037
   16MOL0     H 2195  10.679   4.213   7.163  0.2217 -2.5727 -0.0713
   16MOL0     H 2196  10.870   4.563   7.389 -1.4356  4.4553  0.0055
   16MOL0     H 2197  10.949   4.533   7.246 -0.1866  1.4887 -0.3686
   16MOL0     H 2198  10.821   4.769   7.270 -2.2644 -0.3563  3.7585
   16MOL0     H 2199  10.682   4.683   7.294  0.0923  0.6984 -0.7356
   16MOL0     H 2200  10.718   4.571   7.062 -0.6973  0.2605 -0.7574
   16MOL0     H 2201  10.671   4.729   7.064  1.6704  0.1595  0.2330
   16MOL0     H 2202  10.936   4.778   7.040 -2.0381  0.6583  1.0907
   16MOL0     H 2203  10.826   4.734   6.909  0.9799  1.7938  0.0791
   16MOL0     H 2204  11.052   4.366   6.977  2.4061  0.7300 -2.7121
   16MOL0     H 2205  10.983   4.381   7.422  1.2636  3.3189 -3.0457
   16MOL0     H 2206  11.203   4.062   7.437  1.1482 -0.3483  3.3684
   16MOL0     H 2207  11.236   4.238   7.391 -0.8177  1.4763  1.6571
   16MOL0     H 2208  11.140   4.176   7.533  0.2208 -0.4864 -0.4891
   17MOL0     O 2209   6.556   5.934   8.750 -0.1933 -0.1272  0.0255
   17MOL0     C 2210   6.623   5.835   8.793  1.0670  0.3837  0.8541
   17MOL0     O 2211   6.665   5.734   8.714  1.2597  0.1003 -0.3312
   17MOL0     C 2212   6.627   5.730   8.582  0.4496 -0.4089 -0.8512
   17MOL0     C 2213   6.517   5.639   8.556  0.4692 -0.6729 -1.2514
   17MOL0     C 2214   6.482   5.630   8.421 -0.4787  0.0614 -1.0902
   17MOL0     C 2215   6.542   5.704   8.314 -0.2676  0.1117 -0.5354
   17MOL0     O 2216   6.511   5.697   8.180 -0.4387 -0.2363  0.1213
   17MOL0     C 2217   6.366   5.706   8.162  0.0859 -0.2838 -0.2922
   17MOL0     C 2218   6.343   5.708   8.016 -0.3112  0.0195  0.1359
   17MOL0     C 2219   6.198   5.733   7.978 -0.1858 -0.6681  0.0581
   17MOL0     C 2220   6.163   5.646   7.842 -0.0104  0.6541 -0.3859
   17MOL0     C 2221   6.092   5.524   7.896 -1.4268 -1.1124 -0.5023
   17MOL0     C 2222   6.074   5.419   7.785 -0.0803  0.9159  0.2423
   17MOL0     C 2223   6.027   5.276   7.857 -0.4206  0.0386  0.7250
   17MOL0     C 2224   5.992   5.158   7.766 -0.1141  0.7773 -0.5309
   17MOL0     N 2225   5.910   5.057   7.837  0.2286  0.3695 -0.2868
   17MOL0     C 2226   5.929   4.932   7.871  0.2169 -0.0972 -0.7524
   17MOL0     C 2227   5.810   4.882   7.900  0.8235 -0.0168  0.8682
   17MOL0     C 2228   5.794   4.746   7.948 -0.7930 -0.7078  0.0426
   17MOL0     C 2229   5.912   4.683   8.024  0.0477 -0.7587 -0.3625
   17MOL0     C 2230   5.877   4.533   8.060 -0.0774  0.2474 -0.4243
   17MOL0     C 2231   5.996   4.441   8.091  1.0837 -0.0225  0.2867
   17MOL0     O 2232   6.095   4.428   7.980  1.0474 -0.4879  0.0871
   17MOL0     C 2233   6.204   4.348   8.004  0.3785 -0.0156  1.0579
   17MOL0     C 2234   6.227   4.235   7.929 -0.2424  0.8383  0.9638
   17MOL0     C 2235   6.338   4.155   7.933 -0.1196 -0.2026  0.3237
   17MOL0     C 2236   6.368   4.066   7.817 -0.6882  0.3295 -0.4849
   17MOL0     C 2237   6.425   4.179   8.043  0.5155  0.1422 -0.1427
   17MOL0     C 2238   6.537   4.096   8.093 -1.4587 -0.5152  0.1546
   17MOL0     O 2239   6.520   3.964   8.075 -0.9665  0.4678 -0.0511
   17MOL0     C 2240   6.619   3.877   8.027 -1.5000  0.3458 -0.4099
   17MOL0     C 2241   6.751   3.896   8.038  0.0850 -0.2578  0.1665
   17MOL0     C 2242   6.843   3.803   7.982  0.6900  0.2440 -0.5135
   17MOL0     C 2243   6.794   3.679   7.927  0.3569 -0.2277 -0.2382
   17MOL0     O 2244   6.883   3.591   7.869  0.2358  0.5645 -1.5302
   17MOL0     C 2245   7.025   3.577   7.910  0.1619  0.6335  0.9222
   17MOL0     C 2246   7.103   3.649   7.804 -0.0958  0.2326 -0.2067
   17MOL0     C 2247   7.257   3.610   7.821  0.0574 -0.5210 -0.4398
   17MOL0     C 2248   7.329   3.635   7.685 -0.2331 -0.1492  0.0074
   17MOL0     C 2249   7.439   3.534   7.652 -0.7460 -0.0385  0.3588
   17MOL0     C 2250   7.520   3.555   7.526 -0.3904 -0.2053 -0.2009
   17MOL0     C 2251   7.637   3.446   7.517  0.3126 -0.3449  0.3434
   17MOL0     C 2252   7.687   3.459   7.374  0.0704 -1.0796 -0.2626
   17MOL0    Cl 2253   7.869   3.430   7.378  0.1209  0.2383 -0.2987
   17MOL0     C 2254   6.661   3.658   7.926  0.5415  0.2170 -0.6575
   17MOL0     C 2255   6.572   3.754   7.978 -0.4670 -0.4079 -0.4539
   17MOL0     O 2256   6.643   4.160   8.127  0.6020  0.6837 -0.4011
   17MOL0     C 2257   6.401   4.292   8.131  0.3693 -0.6176 -0.6676
   17MOL0     C 2258   6.297   4.378   8.101  0.0229 -0.3660 -0.0232
   17MOL0     N 2259   5.714   4.977   7.899 -0.0904 -0.4065  0.3895
   17MOL0     N 2260   5.777   5.083   7.864  0.4413  0.4608 -0.1156
   17MOL0     C 2261   6.636   5.795   8.361  0.8455 -0.8394  0.4740
   17MOL0     C 2262   6.690   5.806   8.486  0.5738  0.0712 -0.4732
   17MOL0     C 2263   6.631   5.819   8.933  1.2155  0.4244 -0.2844
   17MOL0     C 2264   6.700   5.700   8.967 -0.2033  0.5686 -1.1719
   17MOL0     C 2265   6.716   5.668   9.103  0.7096 -0.3533 -0.1532
   17MOL0     C 2266   6.645   5.738   9.198 -0.7337 -0.1770  0.1409
   17MOL0     O 2267   6.662   5.693   9.325 -0.7170 -0.0889  0.0440
   17MOL0     C 2268   6.766   5.770   9.387 -0.5087 -0.1592 -0.3515
   17MOL0     C 2269   6.772   5.733   9.533 -0.5058  0.6078 -0.8718
   17MOL0     C 2270   6.632   5.711   9.597 -0.1722 -0.1465  0.0000
   17MOL0     C 2271   6.579   5.571   9.612 -0.8519 -0.0176  0.0241
   17MOL0     C 2272   6.681   5.482   9.670 -0.0615  0.8623 -0.3950
   17MOL0     C 2273   6.761   5.404   9.720  0.2442  0.4038  0.0514
   17MOL0     C 2274   6.568   5.849   9.154 -0.0037  0.4652 -0.8926
   17MOL0     C 2275   6.556   5.894   9.029  0.6463 -0.3717 -0.9057
   17MOL0     C 2276   6.471   6.018   9.012  1.0533  0.8890 -0.1052
   17MOL0     H 2277   6.456   5.583   8.626  3.0351  0.5996  2.3001
   17MOL0     H 2278   6.400   5.560   8.415 -0.5965  0.0944 -0.0008
   17MOL0     H 2279   6.323   5.800   8.198 -1.3295 -0.7377 -0.6999
   17MOL0     H 2280   6.325   5.623   8.221  3.3616  1.6040  5.5022
   17MOL0     H 2281   6.403   5.783   7.965  0.8257 -0.1907  1.1164
   17MOL0     H 2282   6.376   5.611   7.976 -0.1369  1.1262 -2.6209
   17MOL0     H 2283   6.136   5.696   8.059 -0.6914 -1.1688 -0.5440
   17MOL0     H 2284   6.181   5.837   7.949  1.1565 -0.4552 -0.0483
   17MOL0     H 2285   6.099   5.703   7.774  0.3709  0.1490 -1.1748
   17MOL0     H 2286   6.252   5.625   7.783 -2.1281 -2.6258 -2.7260
   17MOL0     H 2287   5.996   5.562   7.930 -0.6491  1.9155 -1.3169
   17MOL0     H 2288   6.145   5.483   7.982  0.5060  0.5331 -0.8385
   17MOL0     H 2289   5.986   5.452   7.729 -0.4485 -0.8009 -0.2344
   17MOL0     H 2290   6.154   5.402   7.712 -1.7230 -0.0953 -1.4039
   17MOL0     H 2291   5.935   5.297   7.911 -0.6228  0.3246  0.2747
   17MOL0     H 2292   6.105   5.247   7.929 -1.8204 -3.0978  1.1662
   17MOL0     H 2293   5.933   5.193   7.681  2.0375  0.2010 -2.3741
   17MOL0     H 2294   6.078   5.106   7.724 -0.0466 -2.3935  2.9818
   17MOL0     H 2295   6.027   4.884   7.875  1.8134  2.9421 -0.1927
   17MOL0     H 2296   5.766   4.676   7.869  2.8028 -0.5439 -1.5833
   17MOL0     H 2297   5.723   4.752   8.031 -0.3779  0.0571  0.3526
   17MOL0     H 2298   6.001   4.687   7.960  0.9484 -2.8095  0.6512
   17MOL0     H 2299   5.935   4.740   8.114  3.0307  1.6066 -2.3831
   17MOL0     H 2300   5.811   4.516   8.145 -2.5247 -0.4390 -2.3737
   17MOL0     H 2301   5.825   4.493   7.973  0.6524  3.4828 -2.5192
   17MOL0     H 2302   6.050   4.490   8.174 -3.2027  3.2822  1.5020
   17MOL0     H 2303   5.987   4.342   8.136  3.1094  0.3373  1.6508
   17MOL0     H 2304   6.151   4.215   7.854 -3.6470  2.3137  3.7431
   17MOL0     H 2305   6.474   4.083   7.794 -0.8443 -0.2858 -1.7081
   17MOL0     H 2306   6.305   4.082   7.729  1.1998  2.2740 -1.5846
   17MOL0     H 2307   6.360   3.961   7.846  3.6713 -0.0242  0.1095
   17MOL0     H 2308   6.799   3.986   8.074 -0.8188  0.2515  0.1217
   17MOL0     H 2309   6.947   3.833   7.978  1.4843 -2.2852 -1.0199
   17MOL0     H 2310   7.051   3.615   8.009  1.1241  4.0046 -0.4677
   17MOL0     H 2311   7.059   3.473   7.909  2.3205  1.2895  1.1125
   17MOL0     H 2312   7.065   3.609   7.709 -0.6834 -0.3585  0.2695
   17MOL0     H 2313   7.096   3.758   7.806  0.9339  0.3010  0.9848
   17MOL0     H 2314   7.267   3.502   7.834 -2.6114 -0.8716 -0.8888
   17MOL0     H 2315   7.303   3.657   7.909  1.3329  0.0160 -1.3635
   17MOL0     H 2316   7.363   3.740   7.682 -1.7216  0.7409  5.2166
   17MOL0     H 2317   7.263   3.620   7.599  0.2602  1.2523 -0.6685
   17MOL0     H 2318   7.512   3.531   7.734  0.4339 -3.0416 -0.6709
   17MOL0     H 2319   7.413   3.428   7.648  1.2302 -0.6672  2.2755
   17MOL0     H 2320   7.562   3.656   7.521 -1.3254  0.1368 -2.1280
   17MOL0     H 2321   7.460   3.537   7.436  0.4655  0.3362 -0.8959
   17MOL0     H 2322   7.600   3.344   7.531 -0.1518 -0.1680  0.4183
   17MOL0     H 2323   7.721   3.464   7.585  0.4543  2.2298 -0.4365
   17MOL0     H 2324   7.665   3.559   7.336 -1.9600 -0.6479  1.8048
   17MOL0     H 2325   7.631   3.390   7.310  0.6934 -2.4105  0.5765
   17MOL0     H 2326   6.617   3.564   7.894 -1.5563  0.2093  1.9158
   17MOL0     H 2327   6.465   3.738   7.969 -1.4510  3.8268  1.3947
   17MOL0     H 2328   6.455   4.305   8.224 -2.3278 -3.2583  1.4873
   17MOL0     H 2329   6.277   4.464   8.164  4.0160  0.1087  0.8877
   17MOL0     H 2330   6.674   5.867   8.289 -0.8522  0.3296  0.6803
   17MOL0     H 2331   6.765   5.883   8.502 -0.6912  1.3896 -0.6831
   17MOL0     H 2332   6.753   5.644   8.890  0.6979  2.8704 -2.3036
   17MOL0     H 2333   6.777   5.585   9.135  0.4945 -0.0716  1.0410
   17MOL0     H 2334   6.865   5.745   9.345 -0.3233  0.3781 -0.2432
   17MOL0     H 2335   6.754   5.877   9.368 -1.3650 -0.3325 -0.8114
   17MOL0     H 2336   6.824   5.815   9.583 -2.7421  1.9217 -0.5630
   17MOL0     H 2337   6.833   5.643   9.548  0.1932  1.6616  4.3346
   17MOL0     H 2338   6.656   5.742   9.699  2.6044 -4.5783  0.9665
   17MOL0     H 2339   6.552   5.771   9.553 -2.3491 -1.0889  2.4026
   17MOL0     H 2340   6.533   5.543   9.517 -2.7920 -2.3129  1.5127
   17MOL0     H 2341   6.493   5.555   9.678 -0.9298 -3.7705 -0.7639
   17MOL0     H 2342   6.832   5.329   9.746  1.2140  1.2186 -0.1754
   17MOL0     H 2343   6.515   5.899   9.234 -0.9456  0.0209 -1.2324
   17MOL0     H 2344   6.422   6.037   9.108 -1.1401 -2.2194 -0.4572
   17MOL0     H 2345   6.528   6.110   8.994 -1.4933  2.0838 -2.7378
   17MOL0     H 2346   6.386   6.011   8.944  1.8459  0.4603 -1.0695
   18MOL0     O 2347  11.373   9.191   3.242  0.0377  0.1273  0.4051
   18MOL0     C 2348  11.431   9.279   3.177 -0.0798 -0.3233 -0.7907
   18MOL0     O 2349  11.380   9.343   3.072 -0.1066 -0.4085  0.2388
   18MOL0     C 2350  11.252   9.324   3.017 -1.1585 -0.4285  0.1661
   18MOL0     C 2351  11.228   9.368   2.887 -0.4502  0.4698  0.6502
   18MOL0     C 2352  11.104   9.363   2.826 -0.7963  0.3019 -1.2652
   18MOL0     C 2353  10.993   9.326   2.898  1.1973 -0.3496 -0.8675
   18MOL0     O 2354  10.868   9.357   2.854 -0.1838  0.0257  0.3828
   18MOL0     C 2355  10.807   9.260   2.782  0.8732 -0.2701 -0.6419
   18MOL0     C 2356  10.678   9.202   2.858 -0.3610  0.8070 -0.6973
   18MOL0     C 2357  10.614   9.082   2.783  0.6347 -0.6348  0.2849
   18MOL0     C 2358  10.480   9.032   2.845  0.3550  0.0084  1.2690
   18MOL0     C 2359  10.426   8.909   2.776 -0.3807  1.0267 -0.7686
   18MOL0     C 2360  10.274   8.874   2.812  0.2426  0.4281 -0.0578
   18MOL0     C 2361  10.215   8.765   2.724 -0.4567 -0.2429  0.5581
   18MOL0     C 2362  10.098   8.686   2.791  1.3438  0.3916  0.1752
   18MOL0     N 2363   9.962   8.755   2.772  0.2341  0.3005 -1.0293
   18MOL0     C 2364   9.829   8.700   2.752 -0.4787 -0.1800  0.3305
   18MOL0     C 2365   9.750   8.820   2.760  0.2088  0.1998  0.1141
   18MOL0     C 2366   9.604   8.811   2.755  0.1206  0.3142 -0.0517
   18MOL0     C 2367   9.534   8.945   2.777  0.1893  0.4747 -0.2095
   18MOL0     C 2368   9.387   8.932   2.731  0.3535 -0.7034  1.1424
   18MOL0     C 2369   9.383   8.916   2.583 -0.0201  0.7459 -0.2093
   18MOL0     O 2370   9.257   8.965   2.543  0.0947 -0.0060  0.1724
   18MOL0     C 2371   9.254   9.077   2.476  0.5190  0.5250 -1.0006
   18MOL0     C 2372   9.336   9.184   2.485  0.6963  0.2203  0.2712
   18MOL0     C 2373   9.328   9.290   2.397  0.1287  0.5354  0.4098
   18MOL0     C 2374   9.443   9.386   2.435 -0.3865  0.9615 -0.7560
   18MOL0     C 2375   9.220   9.305   2.298  0.1786 -0.0947 -1.3697
   18MOL0     C 2376   9.194   9.426   2.220  0.3820  0.2076  0.4696
   18MOL0     O 2377   9.139   9.411   2.087  0.2527  0.0169 -0.5512
   18MOL0     C 2378   9.090   9.522   2.032  0.1053 -0.4404  0.3786
   18MOL0     C 2379   8.980   9.592   2.095  0.7430  0.2683  0.0769
   18MOL0     C 2380   8.890   9.655   2.026  0.5878  0.1352  0.5386
   18MOL0     C 2381   8.896   9.657   1.886 -0.1155 -0.1496  0.8773
   18MOL0     O 2382   8.798   9.731   1.830 -0.7640 -0.7879  0.7014
   18MOL0     C 2383   8.847   9.818   1.731  0.2711 -0.1588  1.2488
   18MOL0     C 2384   8.724   9.904   1.699  0.6743 -0.1127  0.5428
   18MOL0     C 2385   8.649   9.971   1.815  0.3553 -0.4723  0.0726
   18MOL0     C 2386   8.742  10.078   1.870  0.5845 -0.2464  0.9346
   18MOL0     C 2387   8.668  10.154   1.972  1.3627  0.3678 -0.6477
   18MOL0     C 2388   8.762  10.226   2.060  0.3106 -0.9098  0.4075
   18MOL0     C 2389   8.858  10.147   2.142  0.1808  0.0056  0.4835
   18MOL0     C 2390   8.796  10.093   2.271  0.0449  0.0096  0.4805
   18MOL0    Cl 2391   8.900   9.973   2.348  0.2979 -0.6299  0.2279
   18MOL0     C 2392   9.007   9.612   1.818 -0.1269  0.2043 -0.4759
   18MOL0     C 2393   9.114   9.552   1.893 -0.4468 -1.0694 -0.0400
   18MOL0     O 2394   9.225   9.533   2.278  0.5065  0.3935  0.2841
   18MOL0     C 2395   9.133   9.199   2.303 -0.4300 -0.3141  0.0955
   18MOL0     C 2396   9.157   9.083   2.384  0.0902  0.5585  0.4707
   18MOL0     N 2397   9.828   8.932   2.791 -0.0401  0.3771  0.6102
   18MOL0     N 2398   9.952   8.888   2.798 -0.2297 -1.1172  0.2717
   18MOL0     C 2399  11.014   9.297   3.031  0.6890 -0.4529 -1.0128
   18MOL0     C 2400  11.145   9.282   3.088 -0.7659  0.2975  0.4915
   18MOL0     C 2401  11.576   9.320   3.208 -0.6053  0.9470  0.1254
   18MOL0     C 2402  11.641   9.412   3.136  0.8992  0.7607  0.3750
   18MOL0     C 2403  11.775   9.438   3.159 -0.2800  0.2417  0.4358
   18MOL0     C 2404  11.857   9.368   3.247  0.1910  0.1085  0.8031
   18MOL0     O 2405  11.989   9.404   3.255  0.6802 -0.4700 -0.3667
   18MOL0     C 2406  12.058   9.368   3.378 -1.0550  0.4734  0.9956
   18MOL0     C 2407  12.163   9.486   3.416  0.1714  0.1826 -0.8965
   18MOL0     C 2408  12.307   9.431   3.395 -0.1507  0.0967  0.4992
   18MOL0     C 2409  12.420   9.548   3.418 -0.2341  1.2109  0.7398
   18MOL0     C 2410  12.389   9.654   3.322  0.8225 -0.1503 -0.3963
   18MOL0     C 2411  12.363   9.751   3.244 -0.8217  0.4262  0.1386
   18MOL0     C 2412  11.788   9.274   3.322  0.1971  0.4942 -0.0651
   18MOL0     C 2413  11.652   9.251   3.320  0.6011 -0.1199  1.0941
   18MOL0     C 2414  11.614   9.131   3.403 -0.7605 -0.0915 -0.3092
   18MOL0     H 2415  11.311   9.413   2.833 -0.0559 -0.2603  0.6422
   18MOL0     H 2416  11.095   9.404   2.725  0.7770 -1.8527 -2.3656
   18MOL0     H 2417  10.871   9.174   2.760 -1.5097 -2.4957  0.4700
   18MOL0     H 2418  10.762   9.305   2.694 -0.2637  2.2475  1.1097
   18MOL0     H 2419  10.707   9.170   2.958 -2.0389  2.8539  0.5171
   18MOL0     H 2420  10.606   9.283   2.870 -2.6214 -1.1589 -0.2345
   18MOL0     H 2421  10.600   9.113   2.679  2.6871  1.2004  0.4921
   18MOL0     H 2422  10.684   8.998   2.792 -1.0096 -2.0899  0.1733
   18MOL0     H 2423  10.496   9.011   2.951  0.5442 -0.8175  1.0836
   18MOL0     H 2424  10.420   9.124   2.838  0.4200 -0.0194  0.1875
   18MOL0     H 2425  10.486   8.819   2.795  0.4178  0.2624 -5.5788
   18MOL0     H 2426  10.430   8.935   2.670 -1.6046  4.3239 -0.1231
   18MOL0     H 2427  10.272   8.839   2.915  1.1600  0.7600  0.0826
   18MOL0     H 2428  10.209   8.961   2.797 -0.8036 -0.4686 -0.9285
   18MOL0     H 2429  10.296   8.693   2.713  1.3024  1.5426  1.3130
   18MOL0     H 2430  10.194   8.803   2.624  1.1936 -0.4023  0.1282
   18MOL0     H 2431  10.089   8.589   2.741 -2.2472  0.7197 -0.0723
   18MOL0     H 2432  10.119   8.680   2.898 -0.7486  1.2968  0.6818
   18MOL0     H 2433   9.801   8.602   2.714  3.0453 -1.2519  0.1849
   18MOL0     H 2434   9.571   8.740   2.831  1.9557 -1.5796 -0.9006
   18MOL0     H 2435   9.566   8.764   2.664 -0.3703  0.3778  0.1176
   18MOL0     H 2436   9.545   8.959   2.885  2.1661  0.7644 -0.4086
   18MOL0     H 2437   9.583   9.027   2.724  0.4740  0.6442  0.3085
   18MOL0     H 2438   9.340   8.860   2.798  3.0674 -2.3615  1.4260
   18MOL0     H 2439   9.352   9.035   2.743  0.8203  0.4325 -4.4170
   18MOL0     H 2440   9.471   8.961   2.538  1.8551 -0.3986  2.0829
   18MOL0     H 2441   9.394   8.811   2.555 -1.7405  1.1803 -2.9106
   18MOL0     H 2442   9.417   9.177   2.556  0.3020  0.6092  0.7685
   18MOL0     H 2443   9.407   9.464   2.503  0.9128  0.0111  1.1146
   18MOL0     H 2444   9.482   9.443   2.349  1.1455  0.1663 -0.6193
   18MOL0     H 2445   9.531   9.337   2.478  1.5738 -1.0344 -6.1764
   18MOL0     H 2446   8.956   9.575   2.199 -3.0574 -3.0367 -1.0849
   18MOL0     H 2447   8.810   9.701   2.085 -1.3918 -4.6330  2.0138
   18MOL0     H 2448   8.936   9.876   1.757  1.6428 -1.1062 -1.0124
   18MOL0     H 2449   8.867   9.765   1.637 -4.4494 -1.9372  0.9470
   18MOL0     H 2450   8.757   9.985   1.632 -1.8714  0.6666  0.1509
   18MOL0     H 2451   8.643   9.850   1.650  3.0106 -1.4538 -2.1887
   18MOL0     H 2452   8.626   9.901   1.895 -2.0751 -0.3701 -0.4526
   18MOL0     H 2453   8.551  10.004   1.780  0.7089  1.8762  1.0973
   18MOL0     H 2454   8.782  10.145   1.792  1.3476  0.8434  2.2195
   18MOL0     H 2455   8.838  10.037   1.904  3.3942  3.9328 -1.0287
   18MOL0     H 2456   8.603  10.232   1.931 -0.0219  0.4345  1.5261
   18MOL0     H 2457   8.606  10.084   2.027  1.2361  0.0106 -1.2315
   18MOL0     H 2458   8.701  10.289   2.125 -0.4669  0.2969 -1.4093
   18MOL0     H 2459   8.808  10.291   1.985 -3.8047 -1.6367 -3.1476
   18MOL0     H 2460   8.927  10.224   2.176 -1.1225  1.3938  0.1189
   18MOL0     H 2461   8.907  10.063   2.092 -0.4572 -1.9526  2.9590
   18MOL0     H 2462   8.701  10.043   2.248  0.4031 -1.3035  1.6952
   18MOL0     H 2463   8.772  10.176   2.338 -0.1240 -0.0268  0.4662
   18MOL0     H 2464   9.006   9.617   1.709 -0.2453  1.6852 -0.4203
   18MOL0     H 2465   9.196   9.505   1.839 -0.1159 -1.1154  0.5047
   18MOL0     H 2466   9.056   9.190   2.227  0.7958 -0.5619 -1.1697
   18MOL0     H 2467   9.097   8.992   2.385 -0.3387  0.7240 -2.2972
   18MOL0     H 2468  10.936   9.272   3.102  3.2576  1.1171  2.6678
   18MOL0     H 2469  11.159   9.246   3.189  3.0107  1.3429  0.5092
   18MOL0     H 2470  11.592   9.473   3.061 -3.6160 -0.2962  2.1508
   18MOL0     H 2471  11.815   9.525   3.109  2.1988 -1.4165 -0.7123
   18MOL0     H 2472  11.995   9.342   3.464  1.0715 -0.8763  2.2456
   18MOL0     H 2473  12.107   9.272   3.363  0.7234  1.5270 -0.3169
   18MOL0     H 2474  12.161   9.506   3.524  0.8347 -2.2447 -0.3703
   18MOL0     H 2475  12.139   9.577   3.360 -2.5527 -0.7080 -1.2986
   18MOL0     H 2476  12.327   9.341   3.453  0.7312 -0.3682 -0.4864
   18MOL0     H 2477  12.312   9.397   3.291 -0.1488 -3.7597  1.6005
   18MOL0     H 2478  12.519   9.505   3.402 -1.0898 -0.8870  0.7807
   18MOL0     H 2479  12.412   9.579   3.522  0.3867 -1.4128  1.6353
   18MOL0     H 2480  12.349   9.836   3.180  0.3189  0.7912  0.3535
   18MOL0     H 2481  11.850   9.214   3.388  1.6740 -1.2849 -2.8844
   18MOL0     H 2482  11.622   9.035   3.351 -0.4101  0.0541 -0.5287
   18MOL0     H 2483  11.681   9.116   3.488 -0.8164 -1.0692 -0.4243
   18MOL0     H 2484  11.515   9.134   3.450  1.0344  1.6700  3.8750
   19MOL0     O 2485   9.955   2.777   7.960  0.6278  0.5746  0.1880
   19MOL0     C 2486   9.854   2.744   8.023 -0.2426 -0.6127  0.1347
   19MOL0     O 2487   9.854   2.674   8.138  0.2325 -0.3223  0.6015
   19MOL0     C 2488   9.952   2.707   8.226  0.7947  0.1939  0.1365
   19MOL0     C 2489   9.933   2.817   8.310 -0.0736  0.3950  0.8383
   19MOL0     C 2490  10.034   2.842   8.405 -0.3508 -0.5919  0.1589
   19MOL0     C 2491  10.152   2.769   8.408  0.0504 -0.8159  0.5289
   19MOL0     O 2492  10.247   2.810   8.492 -0.2420 -0.5027 -0.0831
   19MOL0     C 2493  10.348   2.710   8.538  0.0336 -0.3032 -0.3593
   19MOL0     C 2494  10.416   2.751   8.665  0.4591 -0.0251 -0.7945
   19MOL0     C 2495  10.322   2.758   8.791 -0.1401 -0.0929 -0.1017
   19MOL0     C 2496  10.392   2.836   8.908  0.0134  0.6168 -0.8136
   19MOL0     C 2497  10.389   2.983   8.897 -1.1548 -0.3282 -0.0751
   19MOL0     C 2498  10.487   3.047   8.994  0.4454  0.0899  0.3289
   19MOL0     C 2499  10.525   3.196   8.967 -0.3698  0.6635  1.3269
   19MOL0     C 2500  10.599   3.265   9.086 -0.0173  0.3918 -0.3104
   19MOL0     N 2501  10.667   3.387   9.046  0.4758 -0.0655 -0.7639
   19MOL0     C 2502  10.602   3.496   8.997 -0.1330  0.4486 -0.2177
   19MOL0     C 2503  10.701   3.589   8.968 -0.1386  0.4390  0.6964
   19MOL0     C 2504  10.678   3.731   8.940 -0.3327  0.3310  0.1506
   19MOL0     C 2505  10.588   3.810   9.037  0.0370 -0.1565  0.4603
   19MOL0     C 2506  10.590   3.957   9.021 -0.1891 -1.2997 -0.5487
   19MOL0     C 2507  10.499   4.010   8.914 -0.0066 -0.9437 -0.5103
   19MOL0     O 2508  10.521   3.951   8.780 -0.1421  0.0415  0.2486
   19MOL0     C 2509  10.638   3.992   8.713  0.0826 -0.6894  0.7271
   19MOL0     C 2510  10.741   4.087   8.759 -0.2655 -0.1651 -0.3997
   19MOL0     C 2511  10.850   4.131   8.683 -0.2446 -0.1352 -0.0826
   19MOL0     C 2512  10.953   4.224   8.736  0.7678  0.2327  0.2018
   19MOL0     C 2513  10.861   4.072   8.551 -0.5870 -0.6703 -0.3277
   19MOL0     C 2514  10.950   4.114   8.442  0.3538 -1.2608  0.1812
   19MOL0     O 2515  10.988   4.020   8.356 -0.4873 -0.1551  0.5038
   19MOL0     C 2516  11.095   4.045   8.271 -0.1199  0.0529  0.8663
   19MOL0     C 2517  11.211   4.119   8.297  0.1297  0.4565  0.9046
   19MOL0     C 2518  11.322   4.129   8.203 -0.7072  0.7159 -0.0440
   19MOL0     C 2519  11.297   4.086   8.077 -1.4301 -0.3598 -0.1641
   19MOL0     O 2520  11.388   4.121   7.976  0.4565  0.0002 -0.8282
   19MOL0     C 2521  11.438   4.252   7.965  0.2194  0.9439 -0.6591
   19MOL0     C 2522  11.496   4.263   7.826  0.6245 -0.1861 -0.2304
   19MOL0     C 2523  11.609   4.359   7.798 -0.8682 -0.1868 -0.1702
   19MOL0     C 2524  11.619   4.366   7.646  0.5615 -0.7181 -0.2770
   19MOL0     C 2525  11.759   4.389   7.593  1.0497 -0.6874 -0.7757
   19MOL0     C 2526  11.821   4.522   7.656  1.0516  0.6695 -0.2894
   19MOL0     C 2527  11.945   4.584   7.596  0.4735  0.4233  0.2442
   19MOL0     C 2528  12.079   4.555   7.657 -0.7464  0.5593  0.2863
   19MOL0    Cl 2529  12.130   4.388   7.602  0.0233 -0.0809  0.2974
   19MOL0     C 2530  11.186   4.020   8.047  0.5097  0.6389  0.5224
   19MOL0     C 2531  11.091   3.998   8.140 -0.2638  0.4090 -0.0403
   19MOL0     O 2532  10.980   4.236   8.435  0.0345 -0.0796 -0.3518
   19MOL0     C 2533  10.770   3.969   8.509  0.0391  0.1816 -0.9025
   19MOL0     C 2534  10.657   3.935   8.593  0.5962  0.6138  0.5988
   19MOL0     N 2535  10.819   3.529   9.003 -0.6765 -0.2820  0.1450
   19MOL0     N 2536  10.796   3.406   9.038  0.7769 -0.0619  0.1552
   19MOL0     C 2537  10.176   2.669   8.315  0.4008  0.1072  0.2001
   19MOL0     C 2538  10.081   2.638   8.220  0.7468 -0.5877 -0.0781
   19MOL0     C 2539   9.725   2.790   7.947 -0.1687  0.0391  0.7618
   19MOL0     C 2540   9.728   2.892   7.841  0.9488 -0.0810 -0.9232
   19MOL0     C 2541   9.617   2.935   7.778  0.9069  0.3901  0.8432
   19MOL0     C 2542   9.492   2.884   7.803 -0.0819 -0.0730  0.6224
   19MOL0     O 2543   9.376   2.917   7.742  0.0671 -0.0720  0.3372
   19MOL0     C 2544   9.370   3.023   7.649 -0.0893 -0.0924  0.3136
   19MOL0     C 2545   9.350   3.156   7.726 -0.7420  1.0999 -0.2978
   19MOL0     C 2546   9.258   3.248   7.646  0.9216 -0.2593  0.6192
   19MOL0     C 2547   9.261   3.394   7.703 -0.5845 -0.2974 -0.0313
   19MOL0     C 2548   9.188   3.405   7.823  0.0166 -0.1421 -0.2828
   19MOL0     C 2549   9.118   3.411   7.927 -0.3776  0.4944  0.6145
   19MOL0     C 2550   9.492   2.783   7.901  0.2176 -0.7050  0.6932
   19MOL0     C 2551   9.599   2.736   7.977  0.4819  0.2131  0.4660
   19MOL0     C 2552   9.585   2.604   8.061  0.6956 -0.3687 -0.4494
   19MOL0     H 2553   9.837   2.868   8.313  0.7348  1.9069  1.8835
   19MOL0     H 2554  10.023   2.930   8.468  0.9272 -1.7992  2.1699
   19MOL0     H 2555  10.428   2.691   8.466  1.6411  4.3432 -0.1354
   19MOL0     H 2556  10.301   2.617   8.570 -0.2791 -0.2822 -0.7529
   19MOL0     H 2557  10.487   2.672   8.692 -2.0467 -2.8130 -1.8344
   19MOL0     H 2558  10.478   2.840   8.651  1.3103 -0.0276  2.2376
   19MOL0     H 2559  10.222   2.797   8.768  1.2551  4.5259  0.5527
   19MOL0     H 2560  10.310   2.659   8.835 -0.4456  1.4627  3.6390
   19MOL0     H 2561  10.328   2.818   8.995  1.8222  3.0080  1.1581
   19MOL0     H 2562  10.492   2.801   8.931 -0.5399  1.0797  2.8937
   19MOL0     H 2563  10.295   3.037   8.915  1.0477  3.9730 -0.0935
   19MOL0     H 2564  10.412   3.023   8.798 -3.3204  0.4867 -0.3036
   19MOL0     H 2565  10.451   3.034   9.096 -0.0747  4.4665  0.9162
   19MOL0     H 2566  10.586   3.002   8.991  0.4968  0.2441 -0.4714
   19MOL0     H 2567  10.441   3.261   8.943  0.4353  2.5807  3.3512
   19MOL0     H 2568  10.598   3.195   8.885 -3.2509 -1.5361 -1.4580
   19MOL0     H 2569  10.529   3.296   9.164  0.7427 -0.6749  0.8378
   19MOL0     H 2570  10.675   3.198   9.128  2.6970  3.1064 -0.6003
   19MOL0     H 2571  10.496   3.512   8.981 -0.3729 -0.7620  0.0690
   19MOL0     H 2572  10.657   3.737   8.833  0.8232 -1.4787 -0.2186
   19MOL0     H 2573  10.781   3.767   8.952  0.2337  0.6069 -4.1795
   19MOL0     H 2574  10.484   3.777   9.040  0.0191 -0.0539  2.6151
   19MOL0     H 2575  10.633   3.782   9.133 -0.5424  1.6861  1.3185
   19MOL0     H 2576  10.547   4.005   9.109 -0.3203  0.2128 -1.4033
   19MOL0     H 2577  10.693   3.989   9.008 -0.4799 -0.6831 -1.4773
   19MOL0     H 2578  10.396   3.992   8.945  0.1989  0.5129  1.1526
   19MOL0     H 2579  10.502   4.119   8.908 -0.8491 -0.9790 -2.3831
   19MOL0     H 2580  10.743   4.141   8.853  2.4141  1.6585 -1.3554
   19MOL0     H 2581  10.934   4.322   8.691 -2.7532  0.0859  1.0683
   19MOL0     H 2582  11.052   4.186   8.712  0.3280  0.6758 -2.6530
   19MOL0     H 2583  10.949   4.241   8.844 -2.0547 -0.6977  0.3291
   19MOL0     H 2584  11.221   4.164   8.395  5.0558  1.9311  0.0234
   19MOL0     H 2585  11.408   4.188   8.233  0.5564 -0.6509 -0.8082
   19MOL0     H 2586  11.356   4.322   7.983 -0.2794 -0.2592  2.3014
   19MOL0     H 2587  11.517   4.277   8.038 -0.4683  0.7012  0.1827
   19MOL0     H 2588  11.537   4.164   7.804 -0.3151 -0.7286  0.4070
   19MOL0     H 2589  11.416   4.274   7.751  1.8077 -2.9705 -2.0868
   19MOL0     H 2590  11.695   4.332   7.861 -0.9785 -0.1702 -0.0125
   19MOL0     H 2591  11.581   4.459   7.830 -1.1339 -0.3368  0.0720
   19MOL0     H 2592  11.545   4.435   7.605  1.8717 -0.4749 -2.4386
   19MOL0     H 2593  11.601   4.268   7.601  2.9398 -1.2132 -0.3030
   19MOL0     H 2594  11.819   4.299   7.608  2.6498 -0.0526 -2.9585
   19MOL0     H 2595  11.756   4.404   7.485  1.5828  1.2475 -0.5698
   19MOL0     H 2596  11.841   4.510   7.763 -1.6339  1.2211  0.3513
   19MOL0     H 2597  11.737   4.592   7.659 -1.1347 -1.6885 -2.1727
   19MOL0     H 2598  11.932   4.691   7.616  0.5846  0.3522  0.6900
   19MOL0     H 2599  11.936   4.584   7.487  2.0862  1.3133  0.0774
   19MOL0     H 2600  12.074   4.543   7.765  0.0085  0.2377  0.2931
   19MOL0     H 2601  12.161   4.624   7.633 -1.0103  0.4212 -1.1496
   19MOL0     H 2602  11.162   3.998   7.944  0.1209  1.7166  0.3696
   19MOL0     H 2603  10.997   3.944   8.129 -1.0694  1.8865 -0.8543
   19MOL0     H 2604  10.775   3.931   8.407  0.3434  0.4348 -0.9838
   19MOL0     H 2605  10.584   3.864   8.554  0.6650 -0.6490  2.6111
   19MOL0     H 2606  10.258   2.599   8.321 -0.8488 -1.3800  0.6661
   19MOL0     H 2607  10.093   2.578   8.131  0.5417  0.5237 -0.8723
   19MOL0     H 2608   9.824   2.934   7.815  1.9004  0.2805  2.6590
   19MOL0     H 2609   9.626   3.008   7.698  3.0089 -1.4134 -0.6933
   19MOL0     H 2610   9.456   3.022   7.582  0.1318  0.4107  0.5863
   19MOL0     H 2611   9.283   3.003   7.587  0.4595 -2.1442  0.1167
   19MOL0     H 2612   9.446   3.206   7.744  0.6386 -1.8545  1.2733
   19MOL0     H 2613   9.304   3.113   7.815 -2.5459  0.3580 -1.5139
   19MOL0     H 2614   9.301   3.263   7.547 -0.4251 -0.4665 -0.0227
   19MOL0     H 2615   9.157   3.212   7.626 -0.5412  4.3803 -1.7608
   19MOL0     H 2616   9.221   3.467   7.632 -3.8254 -0.7296  1.1953
   19MOL0     H 2617   9.366   3.424   7.711 -0.8694  0.7433 -0.0416
   19MOL0     H 2618   9.072   3.420   8.024  0.7723  0.7880  1.1440
   19MOL0     H 2619   9.399   2.729   7.919 -1.2017  1.2682 -0.3353
   19MOL0     H 2620   9.674   2.542   8.052  0.6081 -0.1598 -4.1774
   19MOL0     H 2621   9.553   2.635   8.161  0.8836 -1.5888  0.0021
   19MOL0     H 2622   9.509   2.535   8.023 -0.6517  0.7475  0.1021
   20MOL0     O 2623   8.027   6.322   5.030  0.1345 -0.3939  0.8966
   20MOL0     C 2624   7.941   6.404   5.061  0.6564  1.0070 -0.4903
   20MOL0     O 2625   7.932   6.525   5.004  0.3249  0.0554  0.1630
   20MOL0     C 2626   8.005   6.559   4.890  0.5571  0.9549 -0.1930
   20MOL0     C 2627   8.033   6.698   4.875 -0.7349  0.1236  0.0779
   20MOL0     C 2628   8.103   6.744   4.761  0.8230 -0.3023  0.1132
   20MOL0     C 2629   8.138   6.662   4.665  1.1450 -0.0501 -0.3784
   20MOL0     O 2630   8.203   6.735   4.565 -0.6267  0.7478  0.4995
   20MOL0     C 2631   8.244   6.669   4.446 -0.4843  0.5738 -0.1622
   20MOL0     C 2632   8.378   6.594   4.475  0.2324 -0.5953  0.1282
   20MOL0     C 2633   8.475   6.669   4.573  0.2421 -0.5403 -0.6250
   20MOL0     C 2634   8.621   6.602   4.576  0.6336 -0.7022  0.1720
   20MOL0     C 2635   8.703   6.667   4.699 -0.0282  0.2646 -0.3443
   20MOL0     C 2636   8.854   6.626   4.688  0.5486 -0.5207 -1.2536
   20MOL0     C 2637   8.944   6.670   4.571  0.1453  0.3104 -0.2744
   20MOL0     C 2638   8.927   6.817   4.534  0.7145 -0.2421  0.0970
   20MOL0     N 2639   9.022   6.867   4.436  0.3184 -0.3387  0.0464
   20MOL0     C 2640   9.025   6.813   4.303  0.7175 -0.7248  0.4604
   20MOL0     C 2641   9.152   6.857   4.265 -0.5192  0.3786  0.3670
   20MOL0     C 2642   9.222   6.814   4.140 -0.8856  0.0790  0.1182
   20MOL0     C 2643   9.370   6.792   4.134  0.8909 -0.7995 -0.7691
   20MOL0     C 2644   9.453   6.918   4.123 -0.0631 -0.5697 -0.3186
   20MOL0     C 2645   9.601   6.885   4.142  0.2606 -0.1902 -0.5408
   20MOL0     O 2646   9.643   6.865   4.285  0.7293  0.8711 -0.1321
   20MOL0     C 2647   9.653   6.976   4.363 -0.3271 -0.3777  0.7931
   20MOL0     C 2648   9.766   7.070   4.364 -1.2037 -0.9221  0.2320
   20MOL0     C 2649   9.774   7.158   4.476  0.1527 -0.6579  1.1875
   20MOL0     C 2650   9.916   7.214   4.496 -0.6051  0.9435  0.9171
   20MOL0     C 2651   9.664   7.184   4.559  0.0733  0.3615 -0.6619
   20MOL0     C 2652   9.672   7.263   4.679 -0.0938  1.0496  0.2489
   20MOL0     O 2653   9.727   7.380   4.650  0.3138 -0.3866 -0.2159
   20MOL0     C 2654   9.757   7.453   4.762 -0.8095 -0.5243  0.0492
   20MOL0     C 2655   9.887   7.446   4.828 -0.3925 -0.6391 -0.6978
   20MOL0     C 2656   9.915   7.514   4.945 -0.4961 -0.0595  0.0097
   20MOL0     C 2657   9.818   7.589   5.006 -0.6991  0.1872  0.1968
   20MOL0     O 2658   9.841   7.658   5.118  0.1707  0.1951 -0.2917
   20MOL0     C 2659   9.868   7.583   5.246 -1.0718  0.1596  0.5656
   20MOL0     C 2660   9.975   7.656   5.333  0.1793 -0.2638  1.0047
   20MOL0     C 2661  10.116   7.666   5.267  0.3587  0.4735 -0.2337
   20MOL0     C 2662  10.211   7.765   5.340  0.2136  0.0381  0.8520
   20MOL0     C 2663  10.254   7.719   5.481 -0.8555 -0.6992 -0.1282
   20MOL0     C 2664  10.382   7.785   5.527 -0.1188  0.5436  0.1743
   20MOL0     C 2665  10.511   7.728   5.475  0.1565 -0.3597  0.5299
   20MOL0     C 2666  10.627   7.792   5.541 -1.3054 -1.1805  0.4785
   20MOL0    Cl 2667  10.789   7.763   5.457 -0.2577 -0.0123 -0.3301
   20MOL0     C 2668   9.693   7.604   4.945 -0.0912 -0.2220 -0.0661
   20MOL0     C 2669   9.666   7.540   4.821 -0.2319 -0.8765  1.1145
   20MOL0     O 2670   9.615   7.238   4.779  0.4377 -0.0505  0.1619
   20MOL0     C 2671   9.543   7.113   4.534 -0.2248  0.1866 -0.3298
   20MOL0     C 2672   9.541   7.009   4.443 -0.2756 -0.2211  0.1350
   20MOL0     N 2673   9.213   6.931   4.364 -0.4372  0.1944  0.2487
   20MOL0     N 2674   9.133   6.935   4.469 -0.2704 -0.2192 -0.1380
   20MOL0     C 2675   8.112   6.524   4.683  0.4465 -0.2465  0.3288
   20MOL0     C 2676   8.044   6.466   4.788  0.9267 -0.3458 -0.4575
   20MOL0     C 2677   7.833   6.375   5.161  0.2019  0.1501 -0.4436
   20MOL0     C 2678   7.710   6.444   5.146  0.5323  1.1239 -0.1827
   20MOL0     C 2679   7.601   6.420   5.227 -0.7021  0.4891 -0.1371
   20MOL0     C 2680   7.614   6.329   5.335 -0.6879 -0.3737 -0.2389
   20MOL0     O 2681   7.524   6.305   5.435 -0.4724 -0.3724  0.7352
   20MOL0     C 2682   7.388   6.317   5.426 -0.2868 -1.1120 -0.1068
   20MOL0     C 2683   7.337   6.458   5.454  0.6031  0.1868 -0.0550
   20MOL0     C 2684   7.184   6.463   5.430 -0.2687  1.1052 -0.5704
   20MOL0     C 2685   7.126   6.591   5.495  1.0350 -1.0774 -0.5298
   20MOL0     C 2686   7.155   6.721   5.408 -0.9725  0.2969  0.3888
   20MOL0     C 2687   7.167   6.829   5.357  0.3094  0.7817  0.2636
   20MOL0     C 2688   7.748   6.291   5.362 -0.4735  0.7753  0.0246
   20MOL0     C 2689   7.858   6.310   5.278 -0.5853  0.3896 -0.4103
   20MOL0     C 2690   7.993   6.271   5.340  0.3304  0.6243 -0.4854
   20MOL0     H 2691   7.994   6.775   4.942  2.9670  4.2802 -1.9877
   20MOL0     H 2692   8.124   6.850   4.755  1.6121 -0.3740  1.3059
   20MOL0     H 2693   8.275   6.753   4.383  1.3322 -0.5095 -0.8013
   20MOL0     H 2694   8.174   6.603   4.395 -0.2710 -0.1507  0.4562
   20MOL0     H 2695   8.355   6.494   4.514  0.1605 -0.0600  1.5167
   20MOL0     H 2696   8.432   6.579   4.382  1.9042  2.2306  0.5267
   20MOL0     H 2697   8.499   6.760   4.516 -0.9258  0.0545 -0.2087
   20MOL0     H 2698   8.440   6.687   4.675  1.8940 -0.0076 -0.1179
   20MOL0     H 2699   8.617   6.494   4.585  1.1728 -0.6399  1.3717
   20MOL0     H 2700   8.669   6.636   4.484  1.2404 -0.4102  0.5847
   20MOL0     H 2701   8.662   6.628   4.792 -4.3085 -2.2257 -2.9357
   20MOL0     H 2702   8.694   6.775   4.688 -0.5902  0.0333 -2.6502
   20MOL0     H 2703   8.903   6.660   4.780 -0.5879 -1.8444 -0.1280
   20MOL0     H 2704   8.869   6.519   4.706 -0.5394 -0.1052  3.5133
   20MOL0     H 2705   8.922   6.605   4.485  0.2443  0.8078 -0.6817
   20MOL0     H 2706   9.050   6.652   4.593  0.3098 -0.4519 -1.5404
   20MOL0     H 2707   8.834   6.826   4.476 -0.4460 -1.3277  1.6870
   20MOL0     H 2708   8.922   6.880   4.623  2.9191 -0.0610  0.1292
   20MOL0     H 2709   8.953   6.760   4.241  3.9309 -1.8765 -2.5820
   20MOL0     H 2710   9.199   6.877   4.054  0.1017  2.4657  1.5306
   20MOL0     H 2711   9.181   6.713   4.123  1.9697 -1.3094  0.8081
   20MOL0     H 2712   9.402   6.742   4.226  0.2698 -1.6035 -0.9814
   20MOL0     H 2713   9.394   6.734   4.044  1.7300  3.0116 -3.2578
   20MOL0     H 2714   9.438   6.957   4.021  0.6034 -3.2315 -1.5336
   20MOL0     H 2715   9.417   6.989   4.197  2.6317 -1.1298  1.6837
   20MOL0     H 2716   9.627   6.791   4.092 -0.2700 -0.5348 -0.1846
   20MOL0     H 2717   9.651   6.968   4.093 -0.3729  0.4468 -0.1300
   20MOL0     H 2718   9.845   7.060   4.291 -1.9763 -1.4956 -0.5468
   20MOL0     H 2719   9.936   7.202   4.603  0.2896 -2.1822  0.4868
   20MOL0     H 2720   9.926   7.318   4.463 -1.5947  0.9243  0.5201
   20MOL0     H 2721   9.984   7.154   4.435 -3.1856  1.3069 -2.6515
   20MOL0     H 2722   9.958   7.381   4.779 -2.2719 -2.9231 -0.5979
   20MOL0     H 2723  10.021   7.518   4.970 -0.4188  2.2237 -0.4837
   20MOL0     H 2724   9.780   7.573   5.310  0.0226  0.8835  2.2270
   20MOL0     H 2725   9.896   7.479   5.228 -0.7993  0.2805  0.2704
   20MOL0     H 2726   9.944   7.760   5.351  5.6100  3.0435 -4.6487
   20MOL0     H 2727   9.988   7.606   5.429 -0.7155 -1.3899  0.5563
   20MOL0     H 2728  10.107   7.686   5.160 -0.8091  0.3445 -0.1732
   20MOL0     H 2729  10.162   7.568   5.277 -0.5337  0.3006  4.6027
   20MOL0     H 2730  10.168   7.864   5.358 -1.2098 -0.7884  2.3029
   20MOL0     H 2731  10.303   7.779   5.282  0.3075 -1.2897  0.6537
   20MOL0     H 2732  10.173   7.722   5.555 -1.6166 -1.1852 -0.9177
   20MOL0     H 2733  10.279   7.613   5.478 -0.1034 -0.5119 -1.0605
   20MOL0     H 2734  10.382   7.785   5.636  4.3109 -0.4413  0.3725
   20MOL0     H 2735  10.372   7.891   5.502 -1.7165  0.9064  2.0829
   20MOL0     H 2736  10.519   7.759   5.371 -1.2840 -0.2986  0.4071
   20MOL0     H 2737  10.516   7.619   5.479 -1.2743 -0.4351  0.9806
   20MOL0     H 2738  10.631   7.753   5.643 -3.2250 -0.4171  0.9044
   20MOL0     H 2739  10.610   7.900   5.550 -2.7204 -1.4946  1.9353
   20MOL0     H 2740   9.618   7.663   4.995  0.0765 -1.4697  1.7541
   20MOL0     H 2741   9.568   7.566   4.782  0.0394 -0.9957  0.3472
   20MOL0     H 2742   9.458   7.134   4.598 -0.2201  1.9089 -0.8502
   20MOL0     H 2743   9.471   6.927   4.450  0.4636 -1.0317 -1.3854
   20MOL0     H 2744   8.161   6.452   4.618 -0.3704  0.8615 -1.6092
   20MOL0     H 2745   8.031   6.359   4.784 -4.9142  0.0188 -0.6219
   20MOL0     H 2746   7.695   6.520   5.070  0.1997  2.5996  1.3143
   20MOL0     H 2747   7.514   6.479   5.199 -1.0381  0.9424  1.7217
   20MOL0     H 2748   7.355   6.295   5.324  2.2526 -0.3753 -1.1684
   20MOL0     H 2749   7.361   6.245   5.504  1.6402  0.1557  1.8429
   20MOL0     H 2750   7.378   6.534   5.387 -3.3707  1.1695 -1.6360
   20MOL0     H 2751   7.349   6.488   5.559 -0.5739 -3.6700  1.3632
   20MOL0     H 2752   7.163   6.471   5.323 -2.2894  1.5687 -0.1842
   20MOL0     H 2753   7.126   6.376   5.463  0.0735 -0.0394 -2.8003
   20MOL0     H 2754   7.168   6.628   5.589 -2.4318  0.2291  0.6516
   20MOL0     H 2755   7.017   6.587   5.500  0.5199  4.7666  1.3035
   20MOL0     H 2756   7.179   6.922   5.305 -3.2096  0.0422 -2.2775
   20MOL0     H 2757   7.754   6.251   5.463  1.4684  0.3076 -0.2462
   20MOL0     H 2758   8.041   6.206   5.266 -1.5431 -1.8257  0.2887
   20MOL0     H 2759   8.056   6.357   5.362 -1.0656  1.4654  0.4002
   20MOL0     H 2760   7.978   6.216   5.434 -2.2203  0.0313 -1.1717
   21MOL0     O 2761   2.460  10.491   8.895  0.6921  0.0733 -0.8608
   21MOL0     C 2762   2.577  10.462   8.859 -0.0798 -0.7501  0.1078
   21MOL0     O 2763   2.696  10.485   8.920  0.2983  0.1490  0.0666
   21MOL0     C 2764   2.678  10.479   9.057 -0.6422  0.8280  0.0955
   21MOL0     C 2765   2.630  10.586   9.125 -0.3259  0.9017  0.1895
   21MOL0     C 2766   2.614  10.582   9.263  0.2922  0.0408  0.4142
   21MOL0     C 2767   2.661  10.469   9.337  0.2256  0.3257  0.6879
   21MOL0     O 2768   2.659  10.493   9.473 -0.3611  0.1437 -0.4312
   21MOL0     C 2769   2.681  10.393   9.572 -0.4267  0.5188  0.3072
   21MOL0     C 2770   2.572  10.426   9.673 -0.4439 -0.5059 -0.0420
   21MOL0     C 2771   2.609  10.543   9.760  0.3017  0.0218 -0.8632
   21MOL0     C 2772   2.549  10.553   9.897  0.6031 -1.0430  0.6883
   21MOL0     C 2773   2.590  10.688   9.958  0.2240 -0.5743  0.1782
   21MOL0     C 2774   2.709  10.681  10.058  0.5680 -0.8559 -0.6089
   21MOL0     C 2775   2.740  10.820  10.124  0.1831 -0.8899  0.0449
   21MOL0     C 2776   2.630  10.879  10.222  0.0613  0.7658 -0.2607
   21MOL0     N 2777   2.692  10.986  10.300  0.4325 -0.1519  0.8108
   21MOL0     C 2778   2.786  11.082  10.257 -0.3999  0.5244  0.6471
   21MOL0     C 2779   2.789  11.167  10.364  0.1567 -0.2194 -0.0151
   21MOL0     C 2780   2.884  11.281  10.386 -0.5798  0.2633  1.0338
   21MOL0     C 2781   3.028  11.222  10.358  0.3964 -0.2112 -1.1959
   21MOL0     C 2782   3.138  11.319  10.395 -0.1616 -0.7378  0.3457
   21MOL0     C 2783   3.169  11.347  10.544  0.8597 -0.6559 -0.5336
   21MOL0     O 2784   3.258  11.462  10.548 -0.4769 -0.5795 -0.2674
   21MOL0     C 2785   3.219  11.588  10.520 -0.6000 -0.9796 -0.7401
   21MOL0     C 2786   3.309  11.681  10.471  0.4277  0.2962  0.0770
   21MOL0     C 2787   3.268  11.814  10.456 -0.0814 -0.3755  0.6390
   21MOL0     C 2788   3.362  11.907  10.385  0.3850  1.1551  1.9793
   21MOL0     C 2789   3.141  11.857  10.497 -0.1832 -0.7547  0.0092
   21MOL0     C 2790   3.078  11.987  10.469  0.5518 -0.6329 -0.4457
   21MOL0     O 2791   3.153  12.102  10.458  0.3311 -0.0186 -0.3503
   21MOL0     C 2792   3.104  12.231  10.429 -0.0256  0.0212 -0.0864
   21MOL0     C 2793   3.191  12.316  10.374 -0.2011 -0.7168  0.4714
   21MOL0     C 2794   3.160  12.452  10.354  0.4536 -0.0580 -0.7630
   21MOL0     C 2795   3.030  12.500  10.379  0.0359 -0.9830  0.3986
   21MOL0     O 2796   2.987  12.629  10.349  0.2120  0.0178 -0.6333
   21MOL0     C 2797   3.097  12.729  10.368 -0.6069 -0.4523 -0.1681
   21MOL0     C 2798   3.052  12.873  10.387  1.3714  0.2493 -0.2272
   21MOL0     C 2799   3.013  12.913  10.531  0.9745 -0.8889  1.3646
   21MOL0     C 2800   2.910  13.033  10.518 -0.1468  0.3744 -1.2976
   21MOL0     C 2801   2.826  13.061  10.648 -1.1737  0.7556 -0.2193
   21MOL0     C 2802   2.784  12.930  10.722  0.2478 -0.1384  0.1310
   21MOL0     C 2803   2.679  12.939  10.835  0.1057 -0.3554  0.2460
   21MOL0     C 2804   2.729  13.022  10.957  0.1335  0.5310 -0.3401
   21MOL0    Cl 2805   2.591  13.117  11.007 -0.3983  0.1584  0.5076
   21MOL0     C 2806   2.935  12.400  10.422  1.1122 -0.3185 -0.2977
   21MOL0     C 2807   2.978  12.281  10.464 -0.4297  1.5035  0.2813
   21MOL0     O 2808   2.952  11.983  10.453 -1.3514 -0.1060 -0.1504
   21MOL0     C 2809   3.053  11.756  10.555 -0.3564  0.5419 -0.0301
   21MOL0     C 2810   3.088  11.623  10.555 -1.2760 -0.3598 -0.8706
   21MOL0     N 2811   2.710  11.125  10.464 -0.3580 -0.4411 -0.6422
   21MOL0     N 2812   2.655  11.014  10.429 -1.0053 -0.1684  0.6680
   21MOL0     C 2813   2.712  10.356   9.266 -0.7301 -0.0777 -0.5666
   21MOL0     C 2814   2.722  10.360   9.132  0.3703 -1.0057  0.1172
   21MOL0     C 2815   2.599  10.440   8.716  0.1715  0.2877 -0.5247
   21MOL0     C 2816   2.717  10.488   8.665 -0.6014 -0.5235  0.3064
   21MOL0     C 2817   2.765  10.443   8.538 -0.2128 -0.4353  0.6828
   21MOL0     C 2818   2.697  10.355   8.452  0.2429 -0.6271  0.7189
   21MOL0     O 2819   2.751  10.309   8.336  0.1539  0.3159 -0.4997
   21MOL0     C 2820   2.716  10.178   8.296 -0.2641 -0.3139  0.1923
   21MOL0     C 2821   2.792  10.154   8.162 -0.1085 -0.3935 -0.1384
   21MOL0     C 2822   2.920  10.060   8.183  1.4397  0.1287  0.1753
   21MOL0     C 2823   2.882   9.913   8.228  0.0748  0.4839  0.9511
   21MOL0     C 2824   2.999   9.848   8.294 -0.0080 -0.0191  0.3635
   21MOL0     C 2825   3.096   9.790   8.318 -1.3648  0.3132  1.0469
   21MOL0     C 2826   2.568  10.318   8.508 -0.2339 -0.7330  0.1952
   21MOL0     C 2827   2.523  10.359   8.629 -0.6933 -0.0203 -0.3527
   21MOL0     C 2828   2.399  10.287   8.680  0.2792 -0.0798 -0.6911
   21MOL0     H 2829   2.609  10.676   9.068  2.7435  0.6354 -1.5740
   21MOL0     H 2830   2.570  10.669   9.311  2.7707  1.5389  0.1740
   21MOL0     H 2831   2.782  10.388   9.612  0.7855 -1.8002 -2.6111
   21MOL0     H 2832   2.681  10.296   9.521  1.1855 -0.4239  2.0101
   21MOL0     H 2833   2.482  10.445   9.615 -1.4451 -2.7529  0.6513
   21MOL0     H 2834   2.559  10.339   9.738  1.9523 -2.8312 -2.3829
   21MOL0     H 2835   2.718  10.549   9.764  0.2681  5.0744 -0.5562
   21MOL0     H 2836   2.573  10.632   9.707 -0.4699  1.4300  1.7886
   21MOL0     H 2837   2.440  10.546   9.898  0.3078  1.7302 -1.0329
   21MOL0     H 2838   2.564  10.471   9.967 -3.9036 -2.6627  0.0446
   21MOL0     H 2839   2.501  10.725  10.011 -1.4779 -1.7719 -1.6651
   21MOL0     H 2840   2.609  10.761   9.879 -0.1281  0.8164  1.3345
   21MOL0     H 2841   2.683  10.599  10.125 -1.4842  1.4860  1.7052
   21MOL0     H 2842   2.795  10.656   9.995  0.7556  1.5309 -1.4322
   21MOL0     H 2843   2.772  10.888  10.045 -2.2152  0.5778  0.2434
   21MOL0     H 2844   2.829  10.803  10.185 -0.6510  0.7273  1.8281
   21MOL0     H 2845   2.542  10.905  10.163 -0.3610  0.6098  0.2891
   21MOL0     H 2846   2.608  10.791  10.284  1.5956  0.0542 -0.6896
   21MOL0     H 2847   2.849  11.078  10.169  1.4797  0.2337  1.9271
   21MOL0     H 2848   2.873  11.323  10.486  1.4290  2.2283  0.5129
   21MOL0     H 2849   2.870  11.369  10.321 -2.4690 -0.6869  0.0607
   21MOL0     H 2850   3.049  11.137  10.423  2.8839  2.4605  1.8649
   21MOL0     H 2851   3.030  11.182  10.256 -1.9119 -3.3439 -0.1587
   21MOL0     H 2852   3.232  11.279  10.359  0.8317  0.5287  1.4161
   21MOL0     H 2853   3.125  11.418  10.350  1.9556 -1.0748 -1.1381
   21MOL0     H 2854   3.083  11.369  10.609  1.2045 -3.3687  1.0042
   21MOL0     H 2855   3.204  11.250  10.580 -3.0440 -2.7533 -1.8521
   21MOL0     H 2856   3.408  11.653  10.437  0.9899  0.2919  1.6333
   21MOL0     H 2857   3.311  11.955  10.301 -2.0395 -3.8162  0.1918
   21MOL0     H 2858   3.452  11.862  10.342 -1.1540 -2.5514  2.2765
   21MOL0     H 2859   3.406  11.982  10.451  0.1733  1.2543  2.0076
   21MOL0     H 2860   3.290  12.274  10.358  0.1302  0.0113  0.5857
   21MOL0     H 2861   3.241  12.522  10.334 -0.1302  2.1369  3.4920
   21MOL0     H 2862   3.168  12.702  10.447  0.8796  0.3376 -1.1928
   21MOL0     H 2863   3.152  12.720  10.274 -0.3246 -3.8007  0.1914
   21MOL0     H 2864   3.128  12.944  10.353  0.6858  0.8846 -0.4563
   21MOL0     H 2865   2.965  12.897  10.326 -0.1830 -0.7439  1.4939
   21MOL0     H 2866   3.100  12.944  10.590  1.1637  0.4372  0.4301
   21MOL0     H 2867   2.963  12.826  10.576  0.8502 -0.4153  2.1715
   21MOL0     H 2868   2.830  13.010  10.447 -1.7270  3.3609 -0.6499
   21MOL0     H 2869   2.956  13.124  10.476  0.6074 -0.1875 -1.7054
   21MOL0     H 2870   2.886  13.112  10.724 -2.2889  1.7286  0.0369
   21MOL0     H 2871   2.744  13.123  10.610 -0.8711  0.3140 -1.6817
   21MOL0     H 2872   2.875  12.889  10.768  0.3995  2.0625  1.9716
   21MOL0     H 2873   2.760  12.850  10.651  1.9500 -1.7806  1.3063
   21MOL0     H 2874   2.644  12.844  10.876 -1.7441  0.0323 -0.3074
   21MOL0     H 2875   2.592  12.990  10.792 -0.0783  3.2856  4.2050
   21MOL0     H 2876   2.808  13.090  10.925  2.9950 -2.3993  0.0159
   21MOL0     H 2877   2.758  12.965  11.045 -0.9879  1.0179  0.3727
   21MOL0     H 2878   2.830  12.426  10.435  1.7991  3.2727 -0.8728
   21MOL0     H 2879   2.910  12.219  10.522  0.0360 -0.1937 -0.9191
   21MOL0     H 2880   2.952  11.777  10.590 -0.4181 -1.6900  1.2995
   21MOL0     H 2881   3.009  11.558  10.593 -0.0866 -0.2931  1.9363
   21MOL0     H 2882   2.766  10.273   9.309  0.9857  2.2461  2.0628
   21MOL0     H 2883   2.769  10.279   9.077  1.8758 -1.6169  2.1780
   21MOL0     H 2884   2.782  10.554   8.722  0.1247 -2.6007  2.0160
   21MOL0     H 2885   2.847  10.483   8.479 -1.8348 -0.5731 -1.8390
   21MOL0     H 2886   2.751  10.116   8.379  0.2144  1.0722  1.0561
   21MOL0     H 2887   2.607  10.177   8.285 -0.4781  2.3391  1.4743
   21MOL0     H 2888   2.814  10.250   8.114  2.4769 -1.0157 -0.3305
   21MOL0     H 2889   2.729  10.099   8.092 -1.0736 -0.0100  0.4085
   21MOL0     H 2890   2.957  10.060   8.080  1.4752 -1.4324  0.1660
   21MOL0     H 2891   2.991  10.092   8.259  1.1909  1.4026 -0.1137
   21MOL0     H 2892   2.864   9.857   8.136  0.8829  1.8417 -0.0743
   21MOL0     H 2893   2.794   9.928   8.291 -0.2241  2.4254  0.1451
   21MOL0     H 2894   3.188   9.739   8.340  1.0632  2.8561 -2.2827
   21MOL0     H 2895   2.519  10.237   8.457  1.7403 -1.8491 -0.0320
   21MOL0     H 2896   2.388  10.191   8.630  1.5746 -0.4969 -0.2102
   21MOL0     H 2897   2.404  10.254   8.784 -1.4424 -1.1986 -0.9332
   21MOL0     H 2898   2.305  10.341   8.667 -1.2194 -2.0219  1.3578
   22MOL0     O 2899   3.683   6.095   6.687  0.0630 -0.2206  0.0235
   22MOL0     C 2900   3.755   6.098   6.788 -0.5922  0.4223  0.8064
   22MOL0     O 2901   3.721   6.153   6.908 -0.2248 -0.0518 -0.1884
   22MOL0     C 2902   3.589   6.182   6.923 -0.6386 -1.1703 -0.3353
   22MOL0     C 2903   3.495   6.079   6.934 -0.0626  0.5526  0.0970
   22MOL0     C 2904   3.356   6.110   6.937 -0.3678  0.2007  0.8463
   22MOL0     C 2905   3.312   6.241   6.914  0.5847  0.1964  0.5358
   22MOL0     O 2906   3.179   6.251   6.886  0.1545 -0.3723  0.5494
   22MOL0     C 2907   3.157   6.252   6.737  0.8314 -0.0071 -0.4592
   22MOL0     C 2908   3.032   6.165   6.692  0.2903  0.2211 -0.5015
   22MOL0     C 2909   2.908   6.250   6.650 -0.2126 -0.0972 -0.5951
   22MOL0     C 2910   2.797   6.151   6.625  0.0081 -0.1245 -0.0585
   22MOL0     C 2911   2.658   6.201   6.660 -0.3129  0.6709 -0.0676
   22MOL0     C 2912   2.645   6.202   6.809  0.0442  0.0952  1.0248
   22MOL0     C 2913   2.511   6.229   6.859  0.8692 -0.1834 -0.6009
   22MOL0     C 2914   2.516   6.263   7.016  0.3386 -0.6207 -0.0008
   22MOL0     N 2915   2.484   6.143   7.093 -0.1353  0.7888 -0.0088
   22MOL0     C 2916   2.551   6.121   7.212  1.0090  0.5291 -0.4694
   22MOL0     C 2917   2.524   5.996   7.248  0.0133 -0.3608 -0.9883
   22MOL0     C 2918   2.567   5.923   7.378  0.5633 -0.5329  0.0796
   22MOL0     C 2919   2.512   6.001   7.502 -0.2159  0.0555  0.5022
   22MOL0     C 2920   2.565   5.963   7.645 -1.2948  0.6739  0.8053
   22MOL0     C 2921   2.516   6.058   7.748 -0.5562 -0.5536 -0.1508
   22MOL0     O 2922   2.589   5.998   7.854 -0.3011  0.7002 -0.2645
   22MOL0     C 2923   2.547   6.035   7.985  0.0662 -0.8614  0.9269
   22MOL0     C 2924   2.611   5.957   8.077 -0.4240 -0.0545 -0.3422
   22MOL0     C 2925   2.586   5.979   8.209 -0.3534 -0.1400  0.2000
   22MOL0     C 2926   2.660   5.889   8.302  0.8044 -0.3719  0.9507
   22MOL0     C 2927   2.504   6.098   8.251 -1.2335  0.2651 -0.7224
   22MOL0     C 2928   2.483   6.135   8.396 -0.3927  0.0171  0.3414
   22MOL0     O 2929   2.363   6.201   8.426  0.1791 -0.2872  0.3637
   22MOL0     C 2930   2.343   6.261   8.552 -0.3428 -0.5123 -0.7485
   22MOL0     C 2931   2.412   6.380   8.584  0.0632 -0.4482 -0.5486
   22MOL0     C 2932   2.370   6.466   8.687 -0.0524 -0.1432 -0.9955
   22MOL0     C 2933   2.263   6.429   8.774 -0.0038  0.2300  0.0551
   22MOL0     O 2934   2.225   6.509   8.884  0.5127 -0.0205  0.6242
   22MOL0     C 2935   2.259   6.649   8.878  0.1824 -0.0054  0.5439
   22MOL0     C 2936   2.203   6.715   9.002 -0.3401  0.8168 -0.0980
   22MOL0     C 2937   2.291   6.667   9.126  0.2349 -0.2484  0.2172
   22MOL0     C 2938   2.283   6.522   9.164 -0.3288 -0.4962  0.6029
   22MOL0     C 2939   2.387   6.504   9.276  0.1665  0.0584 -0.4485
   22MOL0     C 2940   2.325   6.535   9.413 -0.1384 -1.2739 -0.4457
   22MOL0     C 2941   2.442   6.592   9.508  0.0596  0.2565 -0.3883
   22MOL0     C 2942   2.357   6.643   9.636  0.1947  0.2452 -0.0372
   22MOL0    Cl 2943   2.477   6.727   9.740 -0.2536  0.3617  0.1464
   22MOL0     C 2944   2.195   6.306   8.745 -0.7900 -0.4651  0.1915
   22MOL0     C 2945   2.241   6.227   8.637 -0.2870 -0.2447  0.1366
   22MOL0     O 2946   2.581   6.114   8.470 -0.5268 -0.5778 -0.8232
   22MOL0     C 2947   2.444   6.177   8.150  0.7694 -0.4428  0.1962
   22MOL0     C 2948   2.467   6.146   8.015  0.0227  0.2901  0.2306
   22MOL0     N 2949   2.437   5.941   7.160 -1.1126 -0.0984  0.0889
   22MOL0     N 2950   2.406   6.036   7.067  0.4925  0.5467  0.4163
   22MOL0     C 2951   3.411   6.348   6.898  0.0917  0.5141  0.3715
   22MOL0     C 2952   3.539   6.307   6.876 -1.3708 -0.2305 -0.5688
   22MOL0     C 2953   3.886   6.029   6.777  0.1556  0.5969  0.2623
   22MOL0     C 2954   3.994   6.105   6.829  0.2936  0.2201  0.4668
   22MOL0     C 2955   4.125   6.056   6.819  0.0846 -0.4871  0.1290
   22MOL0     C 2956   4.154   5.933   6.761 -0.0392 -0.0465 -0.1377
   22MOL0     O 2957   4.272   5.881   6.733  0.1162  1.0797 -0.2314
   22MOL0     C 2958   4.379   5.901   6.816  0.0464  0.1940 -0.1620
   22MOL0     C 2959   4.361   5.881   6.962  0.2911  0.1008 -0.2515
   22MOL0     C 2960   4.287   5.759   7.015 -0.8083  0.2628  0.1570
   22MOL0     C 2961   4.341   5.744   7.162  0.0938  0.1318 -0.1978
   22MOL0     C 2962   4.254   5.647   7.236  0.0487  0.7365  0.0299
   22MOL0     C 2963   4.175   5.560   7.287  1.1434  1.0817 -0.0529
   22MOL0     C 2964   4.046   5.869   6.697 -0.6752  1.0198 -0.2414
   22MOL0     C 2965   3.913   5.908   6.713  0.3696  0.8781 -0.7587
   22MOL0     C 2966   3.799   5.821   6.656 -0.1532  0.5926  0.5480
   22MOL0     H 2967   3.537   5.982   6.952  0.8158  1.0702  0.8652
   22MOL0     H 2968   3.293   6.023   6.949  0.6228 -0.2889  2.9080
   22MOL0     H 2969   3.244   6.202   6.695 -0.4804 -1.4450 -1.5869
   22MOL0     H 2970   3.159   6.351   6.691  0.0241  0.8681  1.2637
   22MOL0     H 2971   3.044   6.103   6.602 -5.0336 -0.3416 -1.1222
   22MOL0     H 2972   3.016   6.095   6.774 -0.7160  1.7043  0.6200
   22MOL0     H 2973   2.880   6.318   6.731 -1.3219 -1.7377  0.4686
   22MOL0     H 2974   2.924   6.302   6.555 -1.3854 -2.2749 -2.0542
   22MOL0     H 2975   2.783   6.121   6.521 -1.8041  1.2360 -0.2606
   22MOL0     H 2976   2.814   6.060   6.683 -2.0851  1.4107  3.2925
   22MOL0     H 2977   2.593   6.129   6.610  1.4093 -0.2793 -1.0493
   22MOL0     H 2978   2.638   6.301   6.620 -0.2724  0.8675  0.4053
   22MOL0     H 2979   2.679   6.111   6.861  0.5727  1.1607  2.6093
   22MOL0     H 2980   2.713   6.285   6.830  0.0363  0.3268  0.1546
   22MOL0     H 2981   2.431   6.156   6.843  0.5978  0.2769 -1.4238
   22MOL0     H 2982   2.484   6.322   6.809  2.4062  0.3507 -0.4714
   22MOL0     H 2983   2.618   6.295   7.038  1.1564 -1.6344 -1.9750
   22MOL0     H 2984   2.458   6.349   7.048 -0.9172 -2.3299  2.6697
   22MOL0     H 2985   2.615   6.186   7.271  0.3052  1.3186 -0.5555
   22MOL0     H 2986   2.675   5.937   7.384  0.3505  1.3344  0.1102
   22MOL0     H 2987   2.518   5.826   7.389 -0.5361 -0.1241 -0.9331
   22MOL0     H 2988   2.537   6.107   7.489  2.5592 -0.1369  3.0697
   22MOL0     H 2989   2.404   5.988   7.496 -0.2512 -0.0866  1.2855
   22MOL0     H 2990   2.539   5.858   7.662  0.2871  0.3008  1.0364
   22MOL0     H 2991   2.672   5.984   7.643 -1.3290  0.9727  1.7739
   22MOL0     H 2992   2.561   6.155   7.728  0.6232 -0.8142  1.0832
   22MOL0     H 2993   2.410   6.084   7.760 -0.5647  1.7518 -3.7109
   22MOL0     H 2994   2.664   5.873   8.033 -3.6235 -1.2223 -2.3967
   22MOL0     H 2995   2.756   5.938   8.321  0.5363  2.0430 -2.8208
   22MOL0     H 2996   2.674   5.796   8.246  2.1686 -1.3686  2.8263
   22MOL0     H 2997   2.612   5.876   8.400  1.0707  3.0153  1.6576
   22MOL0     H 2998   2.498   6.404   8.522  1.2626  0.8951  1.5365
   22MOL0     H 2999   2.429   6.554   8.713  0.5527 -1.1093  1.1170
   22MOL0     H 3000   2.368   6.655   8.877  0.3352 -1.4548 -2.1143
   22MOL0     H 3001   2.218   6.699   8.790 -1.5948 -0.7169  0.9187
   22MOL0     H 3002   2.208   6.824   8.997 -0.2427  0.7575 -2.8421
   22MOL0     H 3003   2.099   6.685   9.019  0.0097 -0.6055 -0.3333
   22MOL0     H 3004   2.253   6.735   9.202  0.1223  1.6355 -1.4214
   22MOL0     H 3005   2.397   6.687   9.109  0.4685  0.0237  1.8928
   22MOL0     H 3006   2.315   6.456   9.082  3.1583  1.5107  0.1504
   22MOL0     H 3007   2.178   6.504   9.189 -0.8900  2.7910  1.0524
   22MOL0     H 3008   2.401   6.396   9.269  1.1853  0.2003 -0.6882
   22MOL0     H 3009   2.480   6.561   9.266 -1.2383  3.6866  3.6546
   22MOL0     H 3010   2.276   6.444   9.451  1.0130 -2.3059 -1.3484
   22MOL0     H 3011   2.249   6.613   9.404  1.0806 -0.2525 -2.5363
   22MOL0     H 3012   2.492   6.677   9.462  1.9044 -1.3335 -1.4899
   22MOL0     H 3013   2.512   6.511   9.534 -0.6406 -0.1749  0.2184
   22MOL0     H 3014   2.320   6.555   9.689  1.3162 -1.5580 -2.0774
   22MOL0     H 3015   2.275   6.713   9.618 -0.1939 -0.4684 -1.2053
   22MOL0     H 3016   2.103   6.281   8.797 -2.6596  2.5765 -1.3093
   22MOL0     H 3017   2.177   6.152   8.593  0.6190 -0.3922 -0.9714
   22MOL0     H 3018   2.389   6.267   8.175  0.0032 -0.9055  0.2114
   22MOL0     H 3019   2.435   6.200   7.926  1.3827 -0.3103 -0.6475
   22MOL0     H 3020   3.385   6.452   6.880 -1.7336  0.4402  2.1865
   22MOL0     H 3021   3.600   6.392   6.844 -1.0648  0.7744  2.3687
   22MOL0     H 3022   3.988   6.201   6.877  2.5634  1.0428 -0.7694
   22MOL0     H 3023   4.213   6.112   6.851  0.4865 -1.4241  0.7123
   22MOL0     H 3024   4.459   5.839   6.773  1.0360  1.4810 -0.2782
   22MOL0     H 3025   4.408   6.007   6.809  0.8608 -0.0290 -0.3198
   22MOL0     H 3026   4.299   5.962   7.003 -1.2985 -1.4744  0.5945
   22MOL0     H 3027   4.461   5.871   7.006  0.6841 -4.1309 -1.6353
   22MOL0     H 3028   4.180   5.782   7.017 -0.5091  1.7064  1.7640
   22MOL0     H 3029   4.310   5.676   6.947  1.5701  0.6773  0.3865
   22MOL0     H 3030   4.329   5.841   7.209 -2.6732 -0.2501  0.0385
   22MOL0     H 3031   4.443   5.710   7.182 -0.5854 -1.1112  1.3920
   22MOL0     H 3032   4.112   5.503   7.352  0.9583  1.0013 -0.3015
   22MOL0     H 3033   4.068   5.777   6.644 -2.1292  0.7960 -0.4923
   22MOL0     H 3034   3.823   5.716   6.639 -1.2196  0.5752 -1.0995
   22MOL0     H 3035   3.707   5.816   6.716 -0.6831  0.8200 -0.2287
   22MOL0     H 3036   3.758   5.854   6.560  1.2897 -1.7472 -0.9702
   23MOL0     O 3037   0.623   8.856  10.662 -0.6394  0.2033 -0.2556
   23MOL0     C 3038   0.730   8.843  10.604  0.7107  0.2694 -0.4496
   23MOL0     O 3039   0.750   8.755  10.498  0.4495 -0.5908 -0.2217
   23MOL0     C 3040   0.637   8.695  10.448  0.2275 -0.3599 -0.5104
   23MOL0     C 3041   0.649   8.559  10.431  0.1025  0.4219  0.0839
   23MOL0     C 3042   0.545   8.483  10.372 -0.0116  0.0280  0.0561
   23MOL0     C 3043   0.437   8.547  10.312 -0.9274  0.3301 -0.2343
   23MOL0     O 3044   0.354   8.461  10.249 -0.0491  0.4479 -0.1346
   23MOL0     C 3045   0.221   8.504  10.232 -1.4718 -1.0844 -0.3768
   23MOL0     C 3046   0.137   8.393  10.164 -0.4528 -0.2218 -1.5405
   23MOL0     C 3047   0.156   8.395  10.014 -0.4181  1.1338  0.1252
   23MOL0     C 3048   0.127   8.253   9.950  0.3621  0.2926 -0.2525
   23MOL0     C 3049   0.179   8.228   9.804  0.7347  0.1332 -0.3472
   23MOL0     C 3050   0.170   8.085   9.749  0.2709  0.4173  0.3689
   23MOL0     C 3051   0.019   8.035   9.741  0.1709 -0.3399 -0.0067
   23MOL0     C 3052   0.021   7.896   9.674  0.1302  0.1192  0.4290
   23MOL0     N 3053  -0.108   7.842   9.705 -0.1502  0.1695  0.1497
   23MOL0     C 3054  -0.136   7.793   9.825 -0.4983  0.5206  1.0201
   23MOL0     C 3055  -0.270   7.794   9.827 -0.6375 -0.3927 -0.3521
   23MOL0     C 3056  -0.349   7.733   9.940 -0.6213 -0.3387  0.5375
   23MOL0     C 3057  -0.459   7.835   9.984  0.5244  0.2647  0.0935
   23MOL0     C 3058  -0.536   7.777  10.111  0.2201 -0.1423  0.0115
   23MOL0     C 3059  -0.687   7.819  10.121  0.6062  0.3098 -0.0125
   23MOL0     O 3060  -0.761   7.697  10.104 -0.5390  0.2700  1.4003
   23MOL0     C 3061  -0.887   7.721  10.047  0.0685  0.1394 -0.2305
   23MOL0     C 3062  -0.989   7.761  10.136  0.6384 -0.7341 -0.7301
   23MOL0     C 3063  -1.123   7.797  10.100  0.1416 -0.2522 -0.2866
   23MOL0     C 3064  -1.219   7.821  10.208 -0.1878 -0.9796  0.8567
   23MOL0     C 3065  -1.155   7.800   9.961  0.1259  0.0745  0.5315
   23MOL0     C 3066  -1.288   7.844   9.908  0.5547 -0.7243  0.3960
   23MOL0     O 3067  -1.288   7.860   9.773 -0.0538 -0.0483 -0.1611
   23MOL0     C 3068  -1.404   7.881   9.696  0.8257  0.4617  0.3152
   23MOL0     C 3069  -1.528   7.809   9.726  0.2051 -0.0616  0.2907
   23MOL0     C 3070  -1.633   7.826   9.632 -0.2176  0.0196 -0.0863
   23MOL0     C 3071  -1.622   7.901   9.513 -0.4517 -0.0894  0.4943
   23MOL0     O 3072  -1.727   7.933   9.430  0.3711  0.2495  0.3698
   23MOL0     C 3073  -1.846   7.972   9.497  0.2805  0.2697  0.1608
   23MOL0     C 3074  -1.928   8.043   9.392  0.4000  1.0791 -0.5996
   23MOL0     C 3075  -1.988   7.929   9.304 -0.1456  0.4152 -0.9714
   23MOL0     C 3076  -2.048   7.975   9.171 -0.5693 -0.0256 -0.8063
   23MOL0     C 3077  -2.127   7.862   9.098 -0.1487  0.0674  0.0171
   23MOL0     C 3078  -2.243   7.817   9.186  0.0517 -0.2162  0.0869
   23MOL0     C 3079  -2.355   7.751   9.103 -0.3547  0.0007  0.4352
   23MOL0     C 3080  -2.335   7.610   9.089  0.3764  0.2063  0.3906
   23MOL0    Cl 3081  -2.463   7.558   8.971  0.5779  0.1166 -0.2701
   23MOL0     C 3082  -1.498   7.962   9.481 -0.7751  0.1337 -0.5905
   23MOL0     C 3083  -1.392   7.933   9.569  0.8651  0.4693 -0.1586
   23MOL0     O 3084  -1.377   7.873   9.980 -0.5409 -0.5413 -0.0543
   23MOL0     C 3085  -1.048   7.760   9.874 -0.2514 -0.2426  0.3527
   23MOL0     C 3086  -0.923   7.717   9.913 -0.1067 -0.9817 -0.0255
   23MOL0     N 3087  -0.320   7.835   9.703 -0.2418  0.1788  0.3368
   23MOL0     N 3088  -0.218   7.864   9.629 -0.2238 -0.4517  0.3782
   23MOL0     C 3089   0.423   8.682  10.336  0.3803 -0.2427  0.4074
   23MOL0     C 3090   0.525   8.756  10.403 -0.1666  1.1374 -0.9985
   23MOL0     C 3091   0.834   8.941  10.615 -0.5465  0.8943 -0.3335
   23MOL0     C 3092   0.898   8.982  10.498  0.2205  0.5020 -0.5303
   23MOL0     C 3093   1.004   9.075  10.503 -0.5002  1.1561  1.1317
   23MOL0     C 3094   1.048   9.133  10.627 -0.9575 -0.2230 -0.6382
   23MOL0     O 3095   1.157   9.216  10.654  0.6972  0.6127  0.3156
   23MOL0     C 3096   1.252   9.206  10.545 -0.4750 -0.5224  0.7882
   23MOL0     C 3097   1.378   9.305  10.555 -0.4106 -0.7768  0.3823
   23MOL0     C 3098   1.321   9.442  10.595  0.3896  0.5872 -0.2048
   23MOL0     C 3099   1.434   9.538  10.625 -0.0255 -0.2130 -0.8382
   23MOL0     C 3100   1.392   9.668  10.674  0.5609 -0.6542 -0.3301
   23MOL0     C 3101   1.358   9.768  10.722 -1.0896 -0.1221  0.3159
   23MOL0     C 3102   0.994   9.091  10.741  0.5692 -0.6672  0.0457
   23MOL0     C 3103   0.885   9.002  10.734 -0.1781  0.2575 -0.3425
   23MOL0     C 3104   0.827   8.962  10.863 -1.2358 -0.4743 -0.2594
   23MOL0     H 3105   0.742   8.515  10.463 -1.5591 -2.0940  1.8494
   23MOL0     H 3106   0.542   8.375  10.369 -0.4454  0.0606 -1.4129
   23MOL0     H 3107   0.207   8.589  10.165  2.6118  0.7299  0.7439
   23MOL0     H 3108   0.180   8.529  10.331 -0.3240  2.4664 -0.6523
   23MOL0     H 3109   0.165   8.298  10.212 -1.6927  1.7198  3.7319
   23MOL0     H 3110   0.031   8.412  10.183 -0.0037 -0.2890  1.5176
   23MOL0     H 3111   0.081   8.460   9.967 -1.1820 -0.8190 -1.4773
   23MOL0     H 3112   0.254   8.432   9.984 -0.8368  0.2082 -2.6187
   23MOL0     H 3113   0.188   8.178  10.002  0.9328  1.2828  0.5377
   23MOL0     H 3114   0.023   8.220   9.959  0.9197 -0.8197  3.7240
   23MOL0     H 3115   0.286   8.252   9.803  1.9069 -4.1891 -0.0271
   23MOL0     H 3116   0.131   8.299   9.736 -0.8581  1.3800  1.9447
   23MOL0     H 3117   0.212   8.087   9.648  0.0634 -2.6736  0.1243
   23MOL0     H 3118   0.233   8.010   9.797 -0.5018 -0.6220 -0.1808
   23MOL0     H 3119  -0.044   8.099   9.678 -0.0399 -0.6673 -0.1290
   23MOL0     H 3120  -0.019   8.030   9.843  0.9581 -2.6088  0.2333
   23MOL0     H 3121   0.043   7.907   9.568  1.6118  0.9839  0.7942
   23MOL0     H 3122   0.098   7.835   9.723 -1.0573 -1.1025  0.8373
   23MOL0     H 3123  -0.060   7.781   9.901  1.6422  2.1321 -0.7391
   23MOL0     H 3124  -0.286   7.713  10.027 -1.9241  0.6943  1.7679
   23MOL0     H 3125  -0.392   7.642   9.899 -4.9997  1.5887  0.2908
   23MOL0     H 3126  -0.430   7.934  10.020 -1.4149  0.6721  0.6659
   23MOL0     H 3127  -0.528   7.848   9.900 -0.6395 -1.8448  0.6187
   23MOL0     H 3128  -0.515   7.670  10.108  2.9961  0.3156 -2.4436
   23MOL0     H 3129  -0.489   7.823  10.199  3.3486  0.3946 -1.7769
   23MOL0     H 3130  -0.720   7.856  10.219 -3.2412 -1.1582 -0.5914
   23MOL0     H 3131  -0.708   7.894  10.043  0.7017  0.0298 -0.3080
   23MOL0     H 3132  -0.962   7.743  10.240  2.1236 -1.8910 -1.2788
   23MOL0     H 3133  -1.179   7.798  10.307 -1.4924  2.2871  2.3037
   23MOL0     H 3134  -1.306   7.756  10.204 -0.8549 -0.1617  1.7210
   23MOL0     H 3135  -1.241   7.928  10.210 -0.6500 -0.8807 -2.7922
   23MOL0     H 3136  -1.549   7.763   9.822  1.0966  0.2155  0.6235
   23MOL0     H 3137  -1.727   7.773   9.647 -0.7337  0.2905 -2.1206
   23MOL0     H 3138  -1.902   7.894   9.550  0.1121  2.2925  3.1995
   23MOL0     H 3139  -1.822   8.039   9.580  1.3652 -4.6421  4.2786
   23MOL0     H 3140  -2.002   8.096   9.452  0.4389 -1.7316  2.1652
   23MOL0     H 3141  -1.865   8.103   9.325 -1.9511  2.3156 -1.8535
   23MOL0     H 3142  -2.074   7.885   9.355  0.5151 -6.5423 -4.6229
   23MOL0     H 3143  -1.918   7.845   9.307 -2.0067 -1.1995 -0.9045
   23MOL0     H 3144  -1.960   8.009   9.115 -0.1228  1.9313  0.9696
   23MOL0     H 3145  -2.101   8.069   9.188  0.5975  0.4797  0.2823
   23MOL0     H 3146  -2.164   7.915   9.010 -1.7233 -1.2356 -0.1486
   23MOL0     H 3147  -2.078   7.768   9.068  1.0552 -0.3273  2.9327
   23MOL0     H 3148  -2.289   7.903   9.234  0.2662  0.1833 -0.4189
   23MOL0     H 3149  -2.211   7.733   9.249  0.0733 -0.4624 -0.2462
   23MOL0     H 3150  -2.357   7.786   9.000 -0.8873  2.1067  1.1006
   23MOL0     H 3151  -2.448   7.768   9.158 -0.1839  1.0554  0.4202
   23MOL0     H 3152  -2.355   7.560   9.185 -0.1346 -2.9276 -1.2179
   23MOL0     H 3153  -2.238   7.568   9.063 -0.4586 -1.8419  0.4163
   23MOL0     H 3154  -1.480   8.022   9.392 -0.5877  2.6124  1.0268
   23MOL0     H 3155  -1.293   7.976   9.555  0.4594  1.9643  1.1597
   23MOL0     H 3156  -1.067   7.747   9.767 -1.5259  0.9714  0.4021
   23MOL0     H 3157  -0.859   7.693   9.829 -0.2408  1.0654 -0.7827
   23MOL0     H 3158   0.331   8.736  10.315  1.3405  0.8018 -1.3324
   23MOL0     H 3159   0.511   8.862  10.426 -2.7010  0.0820  3.4879
   23MOL0     H 3160   0.862   8.955  10.399 -0.2907  3.2421 -1.1977
   23MOL0     H 3161   1.064   9.085  10.413 -3.4381 -0.3015 -1.1361
   23MOL0     H 3162   1.276   9.101  10.525  0.3261 -0.1396 -0.3509
   23MOL0     H 3163   1.207   9.236  10.450  0.9031 -1.7430 -0.2942
   23MOL0     H 3164   1.430   9.307  10.459 -0.4082  0.2950  0.4019
   23MOL0     H 3165   1.456   9.267  10.622  0.3006 -0.2197 -0.1194
   23MOL0     H 3166   1.248   9.481  10.524 -2.2557 -1.5952  1.1250
   23MOL0     H 3167   1.270   9.434  10.692  0.2221 -0.0931 -0.3468
   23MOL0     H 3168   1.481   9.566  10.530  0.4390 -0.0580 -0.5649
   23MOL0     H 3169   1.502   9.500  10.701 -0.3244  2.5325  0.9317
   23MOL0     H 3170   1.321   9.853  10.776  1.8411  1.6757 -0.2253
   23MOL0     H 3171   1.019   9.141  10.834  1.9730  0.5173 -0.9202
   23MOL0     H 3172   0.860   9.026  10.946 -2.9448 -1.1151  0.9776
   23MOL0     H 3173   0.718   8.975  10.862 -1.0488  2.7395  2.5452
   23MOL0     H 3174   0.861   8.862  10.892  0.4943  0.6181  1.7728
   24MOL0     O 3175   1.460   3.329   4.909  0.2615  0.0239 -0.4045
   24MOL0     C 3176   1.532   3.324   4.809 -0.6966 -0.6360 -0.0513
   24MOL0     O 3177   1.491   3.318   4.678 -0.1895  0.4512  0.4309
   24MOL0     C 3178   1.354   3.324   4.647 -0.5832 -0.1517  0.2740
   24MOL0     C 3179   1.266   3.212   4.662 -0.6674  0.1652  0.6389
   24MOL0     C 3180   1.132   3.233   4.625  0.3054  0.2869  0.7178
   24MOL0     C 3181   1.099   3.354   4.560  0.5936  0.9316  0.4754
   24MOL0     O 3182   0.965   3.382   4.531 -0.1505  0.1656  0.8276
   24MOL0     C 3183   0.887   3.297   4.446 -0.0124 -0.0219 -0.4015
   24MOL0     C 3184   0.749   3.366   4.418  0.1604  0.0737  0.9880
   24MOL0     C 3185   0.753   3.514   4.385  0.1897 -0.0052  0.5534
   24MOL0     C 3186   0.676   3.591   4.495 -0.6299  0.8023 -0.7494
   24MOL0     C 3187   0.695   3.732   4.466  0.0760 -0.0531 -0.4660
   24MOL0     C 3188   0.580   3.800   4.542  0.3936  0.2180  0.4788
   24MOL0     C 3189   0.601   3.956   4.534 -0.7795  0.2109 -0.3725
   24MOL0     C 3190   0.471   4.034   4.511  0.9316  0.8133 -0.8453
   24MOL0     N 3191   0.386   3.998   4.619 -0.4180 -0.1200  0.3465
   24MOL0     C 3192   0.396   4.067   4.741 -0.3204  0.2011  0.2840
   24MOL0     C 3193   0.280   4.033   4.810  0.3542  0.3801  0.0058
   24MOL0     C 3194   0.218   4.105   4.930  0.0136 -0.8486  0.5714
   24MOL0     C 3195   0.258   4.049   5.064 -0.2084 -0.3804  0.5466
   24MOL0     C 3196   0.202   4.142   5.179  0.0461 -0.1449  1.2625
   24MOL0     C 3197   0.187   4.079   5.309  0.6977 -0.5564 -0.1123
   24MOL0     O 3198   0.314   4.010   5.342 -0.1950 -0.3602  0.1568
   24MOL0     C 3199   0.364   4.034   5.463 -0.1081 -0.5579  0.5511
   24MOL0     C 3200   0.490   4.095   5.472 -0.2873 -0.5149  0.7355
   24MOL0     C 3201   0.564   4.098   5.585  0.8881  0.2313 -0.2364
   24MOL0     C 3202   0.697   4.172   5.566  0.0715  0.0895 -0.0369
   24MOL0     C 3203   0.498   4.049   5.709  0.9466  0.4683  0.6317
   24MOL0     C 3204   0.563   4.049   5.835 -0.1814  0.0567 -0.3886
   24MOL0     O 3205   0.690   4.097   5.840  0.1004  0.2093  0.4908
   24MOL0     C 3206   0.748   4.135   5.955  1.5885 -0.9856  0.0773
   24MOL0     C 3207   0.695   4.247   6.021 -0.1302 -0.4967 -0.5739
   24MOL0     C 3208   0.763   4.312   6.120 -0.0323 -0.4882  0.2850
   24MOL0     C 3209   0.883   4.255   6.166 -0.5599 -0.6369 -0.1479
   24MOL0     O 3210   0.945   4.315   6.268  0.4311 -0.2187 -1.4496
   24MOL0     C 3211   1.072   4.275   6.309 -0.4288  0.1694 -0.5603
   24MOL0     C 3212   1.133   4.392   6.395  0.2344  0.0013  0.7106
   24MOL0     C 3213   1.277   4.372   6.443  0.2054  0.7555  0.6377
   24MOL0     C 3214   1.373   4.326   6.318  0.4549 -0.1724 -0.4578
   24MOL0     C 3215   1.506   4.319   6.384 -0.9179  0.3118  0.3574
   24MOL0     C 3216   1.621   4.275   6.289 -0.1905  0.0792  0.9008
   24MOL0     C 3217   1.637   4.372   6.170 -0.7323 -0.1127 -0.6099
   24MOL0     C 3218   1.720   4.314   6.059 -0.2811  0.6903 -0.3769
   24MOL0    Cl 3219   1.638   4.198   5.964 -0.1163 -0.2837  0.0719
   24MOL0     C 3220   0.933   4.146   6.100  0.3460  0.3399  0.0437
   24MOL0     C 3221   0.869   4.084   5.998 -0.6157 -0.5486  0.9305
   24MOL0     O 3222   0.497   4.019   5.936 -1.6523 -0.0274 -0.3009
   24MOL0     C 3223   0.366   3.993   5.700  1.2764 -0.1792 -0.5064
   24MOL0     C 3224   0.307   3.982   5.575 -0.4379 -0.8478  0.0648
   24MOL0     N 3225   0.212   3.939   4.726 -0.5461  0.3836 -0.2752
   24MOL0     N 3226   0.275   3.917   4.614  0.7858  0.1396  0.5734
   24MOL0     C 3227   1.182   3.457   4.538  0.7186 -0.5580  0.2424
   24MOL0     C 3228   1.311   3.442   4.594 -0.2820 -0.0837  1.3691
   24MOL0     C 3229   1.679   3.313   4.826 -0.4214  0.1949 -1.0529
   24MOL0     C 3230   1.726   3.247   4.945  0.3511 -0.3572  0.6081
   24MOL0     C 3231   1.858   3.219   4.965  0.2708  0.4711 -0.6714
   24MOL0     C 3232   1.955   3.263   4.876  0.6537 -0.4481 -0.4577
   24MOL0     O 3233   2.094   3.246   4.884 -0.2525 -0.0957  0.2078
   24MOL0     C 3234   2.143   3.157   4.978 -0.3339  0.0196  0.9722
   24MOL0     C 3235   2.088   3.010   4.950  0.2621 -0.1504 -0.0813
   24MOL0     C 3236   2.099   2.922   5.074 -1.1996  0.4591 -0.3755
   24MOL0     C 3237   2.044   2.780   5.064 -0.7020  0.1891  0.3802
   24MOL0     C 3238   1.903   2.767   5.049 -0.8188  0.0330 -0.8301
   24MOL0     C 3239   1.787   2.761   5.023  0.0663 -1.2269  0.3974
   24MOL0     C 3240   1.910   3.331   4.755  0.1556 -0.0756 -0.9183
   24MOL0     C 3241   1.776   3.360   4.731  1.3950  0.7595  0.5034
   24MOL0     C 3242   1.744   3.443   4.613 -0.0316  0.0929 -0.0618
   24MOL0     H 3243   1.302   3.116   4.696 -1.8361 -1.4893 -2.4074
   24MOL0     H 3244   1.053   3.167   4.661  0.8748  0.3388  2.1356
   24MOL0     H 3245   0.862   3.201   4.492 -1.0215  0.6316  0.4504
   24MOL0     H 3246   0.933   3.293   4.347 -0.8077  0.9501 -0.8392
   24MOL0     H 3247   0.696   3.300   4.349  0.1544 -1.4769  2.4072
   24MOL0     H 3248   0.690   3.341   4.507 -0.1482 -1.6925  0.3276
   24MOL0     H 3249   0.858   3.545   4.385  0.5201 -1.0348  1.6500
   24MOL0     H 3250   0.698   3.522   4.291  1.4173 -1.3123 -0.3102
   24MOL0     H 3251   0.573   3.562   4.474  0.1623 -1.1830 -2.1269
   24MOL0     H 3252   0.703   3.563   4.597  1.0358 -0.9479 -1.6157
   24MOL0     H 3253   0.682   3.764   4.362  0.9008  2.3694  0.0985
   24MOL0     H 3254   0.794   3.764   4.500 -0.3345 -0.9011  1.7111
   24MOL0     H 3255   0.484   3.773   4.498  1.7177  0.4624 -2.8088
   24MOL0     H 3256   0.587   3.773   4.648 -4.8611  0.5032  1.1577
   24MOL0     H 3257   0.675   3.964   4.455 -1.7207 -2.8679 -1.7090
   24MOL0     H 3258   0.646   4.014   4.616 -2.0017 -0.2260  0.6503
   24MOL0     H 3259   0.489   4.141   4.520  2.1285  0.6503 -1.0805
   24MOL0     H 3260   0.426   4.009   4.414 -2.0304  3.0628 -0.1724
   24MOL0     H 3261   0.468   4.146   4.761 -1.1300  0.7211  1.2427
   24MOL0     H 3262   0.114   4.127   4.907  0.1515 -2.4227 -2.0800
   24MOL0     H 3263   0.262   4.205   4.923  0.4707 -0.9807  1.4212
   24MOL0     H 3264   0.212   3.951   5.079 -0.6046 -0.6042 -1.7799
   24MOL0     H 3265   0.364   4.031   5.082  0.7090  3.0011 -0.7165
   24MOL0     H 3266   0.289   4.207   5.184  0.8662 -1.2023  1.0811
   24MOL0     H 3267   0.104   4.184   5.153  0.0721 -1.2382 -0.7688
   24MOL0     H 3268   0.164   4.146   5.393 -0.9972  1.2558 -1.9105
   24MOL0     H 3269   0.098   4.017   5.310  1.2929 -1.5496  2.9276
   24MOL0     H 3270   0.514   4.133   5.373 -2.6579  0.5423  0.4788
   24MOL0     H 3271   0.776   4.124   5.625  0.9301  0.8060 -0.5788
   24MOL0     H 3272   0.694   4.274   5.607 -3.0638  0.9540 -2.0896
   24MOL0     H 3273   0.726   4.184   5.462  2.7477 -0.5236  0.5765
   24MOL0     H 3274   0.597   4.274   5.984 -0.9662 -2.2080  0.2682
   24MOL0     H 3275   0.729   4.390   6.186 -0.7765 -1.1784  0.7426
   24MOL0     H 3276   1.058   4.188   6.373 -0.9716  1.3466  0.9864
   24MOL0     H 3277   1.131   4.253   6.219 -2.2163 -2.2616 -1.2324
   24MOL0     H 3278   1.125   4.484   6.338  2.1127 -0.0805  0.2420
   24MOL0     H 3279   1.081   4.415   6.489  1.6078 -3.7547  2.6422
   24MOL0     H 3280   1.270   4.279   6.500 -1.7423 -1.2398 -2.5400
   24MOL0     H 3281   1.332   4.444   6.505  3.1478  0.3967 -1.3520
   24MOL0     H 3282   1.372   4.399   6.236 -1.8238  1.7098  1.1212
   24MOL0     H 3283   1.355   4.226   6.278  0.4483 -1.8798  3.4155
   24MOL0     H 3284   1.543   4.416   6.419  0.6829  0.5562 -1.8031
   24MOL0     H 3285   1.509   4.248   6.467  0.7691  0.0239  0.0791
   24MOL0     H 3286   1.600   4.172   6.259 -1.3472 -0.2224  2.5805
   24MOL0     H 3287   1.714   4.278   6.348  0.8146  1.5881 -0.6580
   24MOL0     H 3288   1.688   4.466   6.187  0.8811 -0.6431 -2.3218
   24MOL0     H 3289   1.539   4.385   6.122 -0.1442 -4.3430 -3.5399
   24MOL0     H 3290   1.813   4.272   6.098  1.1093  2.9051 -1.1184
   24MOL0     H 3291   1.743   4.392   5.985  0.2919  0.0263 -0.9119
   24MOL0     H 3292   1.024   4.091   6.124 -0.5805 -1.0846  0.3834
   24MOL0     H 3293   0.908   3.997   5.946 -0.5726  0.2804 -0.4818
   24MOL0     H 3294   0.307   3.956   5.783 -0.2753  0.1409 -1.4256
   24MOL0     H 3295   0.211   3.934   5.564 -1.2873  0.8443 -0.1962
   24MOL0     H 3296   1.145   3.552   4.501  1.4627 -0.6627 -0.7991
   24MOL0     H 3297   1.364   3.537   4.590 -2.9083  1.4942  1.7063
   24MOL0     H 3298   1.660   3.215   5.024  0.3574  0.5312  0.9822
   24MOL0     H 3299   1.882   3.171   5.060 -0.8551  1.4351  0.1198
   24MOL0     H 3300   2.250   3.166   4.957 -0.8879  0.6130 -2.0709
   24MOL0     H 3301   2.128   3.192   5.081 -1.1259  1.1750  0.4804
   24MOL0     H 3302   2.154   2.964   4.875  0.0832 -0.5989  0.0366
   24MOL0     H 3303   1.983   2.999   4.922  0.7737 -0.6124 -1.9710
   24MOL0     H 3304   2.206   2.904   5.091 -0.7126  0.7500 -2.7872
   24MOL0     H 3305   2.057   2.982   5.156  1.0395  3.5457 -1.2801
   24MOL0     H 3306   2.080   2.721   5.149  2.6206  0.1712 -0.8836
   24MOL0     H 3307   2.097   2.742   4.976  3.7757  0.3118  2.7359
   24MOL0     H 3308   1.685   2.739   4.996  0.0111 -1.0368  0.4545
   24MOL0     H 3309   1.987   3.349   4.681 -0.5420 -0.7246 -1.8158
   24MOL0     H 3310   1.815   3.517   4.575 -0.6984  0.2283 -1.0618
   24MOL0     H 3311   1.730   3.383   4.523 -1.3527  0.2524  0.0247
   24MOL0     H 3312   1.648   3.493   4.631  0.7908  1.5449  0.5153
   25MOL0     O 3313   7.253   8.733   5.154 -0.6985 -0.2869  0.1137
   25MOL0     C 3314   7.145   8.690   5.123  0.7305 -0.3238  0.8603
   25MOL0     O 3315   7.047   8.763   5.075  0.8091  0.3371 -0.8618
   25MOL0     C 3316   7.044   8.902   5.089 -0.0505  0.4990  0.9056
   25MOL0     C 3317   7.094   8.974   5.201 -0.4543  0.1342  0.5490
   25MOL0     C 3318   7.078   9.117   5.213 -0.9574  0.1335 -0.7982
   25MOL0     C 3319   7.024   9.188   5.104  0.2906 -0.1542  1.2431
   25MOL0     O 3320   7.008   9.325   5.088 -0.5838 -0.1706 -0.1461
   25MOL0     C 3321   7.062   9.411   5.178  0.1871 -0.1159 -0.9644
   25MOL0     C 3322   6.978   9.538   5.173  0.0630  0.3322  0.7957
   25MOL0     C 3323   7.014   9.616   5.040 -0.7645  1.3378 -0.2136
   25MOL0     C 3324   7.137   9.710   5.051  0.7735  0.8910 -0.6865
   25MOL0     C 3325   7.114   9.846   5.131  0.4554  0.0426  0.0556
   25MOL0     C 3326   7.243   9.913   5.172 -0.8224  0.0943  0.5230
   25MOL0     C 3327   7.338   9.845   5.285 -0.3641 -1.0607  0.1893
   25MOL0     C 3328   7.253   9.810   5.411  0.2042 -0.6303 -1.6418
   25MOL0     N 3329   7.212   9.940   5.476 -0.5527  1.2043  0.0100
   25MOL0     C 3330   7.279   9.999   5.574  0.3778 -0.3829 -0.5289
   25MOL0     C 3331   7.209  10.115   5.593 -0.2099  1.5105 -0.9649
   25MOL0     C 3332   7.240  10.210   5.710 -0.5297 -0.2473  0.0704
   25MOL0     C 3333   7.136  10.180   5.817  0.1410  0.3900 -0.8101
   25MOL0     C 3334   7.120  10.296   5.909 -0.8172 -1.0216  0.4454
   25MOL0     C 3335   7.040  10.402   5.825  0.0535  0.4018 -0.0202
   25MOL0     O 3336   6.905  10.404   5.875  0.7526  0.0099  0.6060
   25MOL0     C 3337   6.878  10.515   5.952  0.2052  0.1227  1.0049
   25MOL0     C 3338   6.883  10.649   5.910 -0.2566  1.0563 -0.8004
   25MOL0     C 3339   6.827  10.762   5.976  0.2968 -0.3620  1.0671
   25MOL0     C 3340   6.858  10.901   5.916  0.9893 -0.1788 -0.1749
   25MOL0     C 3341   6.751  10.737   6.091  0.4515 -0.9453 -0.2582
   25MOL0     C 3342   6.695  10.839   6.187  0.4755 -0.7225 -0.4421
   25MOL0     O 3343   6.671  10.801   6.315  0.1643 -1.0818  0.0954
   25MOL0     C 3344   6.622  10.874   6.413  0.1019 -0.3710 -0.5277
   25MOL0     C 3345   6.568  11.004   6.411 -0.8228 -0.0930 -0.5163
   25MOL0     C 3346   6.537  11.076   6.534 -1.1330  0.3827 -0.0906
   25MOL0     C 3347   6.539  11.010   6.660 -0.1788 -0.6885 -0.3548
   25MOL0     O 3348   6.485  11.091   6.758 -1.3159 -0.1786 -1.0481
   25MOL0     C 3349   6.475  11.046   6.891  0.1376  0.2017  0.4733
   25MOL0     C 3350   6.492  11.167   6.980  0.2439  0.1784  0.2051
   25MOL0     C 3351   6.474  11.144   7.134  1.0907  0.1693 -0.2480
   25MOL0     C 3352   6.507  11.271   7.213  0.2487  1.1517  0.2551
   25MOL0     C 3353   6.434  11.261   7.354 -0.9939 -0.1890 -0.8519
   25MOL0     C 3354   6.294  11.327   7.356  0.0741  0.1225  0.5289
   25MOL0     C 3355   6.206  11.277   7.471 -0.3752  0.2656  0.9659
   25MOL0     C 3356   6.141  11.394   7.555  0.7052  0.6640  0.4383
   25MOL0    Cl 3357   6.042  11.526   7.473  0.4750  0.1243 -0.4576
   25MOL0     C 3358   6.576  10.875   6.661  0.3485  0.2852 -0.4310
   25MOL0     C 3359   6.613  10.804   6.542  0.1755  0.0970  0.3435
   25MOL0     O 3360   6.665  10.944   6.138  0.1630 -1.0433  0.2240
   25MOL0     C 3361   6.730  10.600   6.121  1.2015  0.3072 -0.4894
   25MOL0     C 3362   6.791  10.494   6.058  0.4548  0.3822  0.3886
   25MOL0     N 3363   7.094  10.110   5.519 -0.2932  0.4601  0.7495
   25MOL0     N 3364   7.093  10.001   5.450  0.7985  0.4374 -0.4822
   25MOL0     C 3365   6.962   9.111   4.997 -0.0529  0.2455 -0.7482
   25MOL0     C 3366   6.979   8.977   4.994 -0.5111 -0.0694 -0.4894
   25MOL0     C 3367   7.111   8.546   5.130  0.4760 -0.2786  0.3424
   25MOL0     C 3368   6.975   8.511   5.134 -0.1433 -0.0785 -0.4392
   25MOL0     C 3369   6.930   8.387   5.154  0.1546  0.0990 -0.1989
   25MOL0     C 3370   7.015   8.279   5.157 -0.3851 -1.3454 -0.3102
   25MOL0     O 3371   6.969   8.152   5.179  0.6420 -0.4716 -0.0940
   25MOL0     C 3372   7.041   8.046   5.242  0.3788  0.7526  0.2626
   25MOL0     C 3373   7.051   8.072   5.397  0.0992 -0.0557 -0.2809
   25MOL0     C 3374   7.147   7.967   5.453 -0.7749 -0.0058 -0.6604
   25MOL0     C 3375   7.203   8.001   5.595  0.2762 -0.0994  0.1928
   25MOL0     C 3376   7.104   7.979   5.700  0.1468  0.2441 -0.8402
   25MOL0     C 3377   7.033   7.986   5.800 -0.7814 -0.1464 -0.8126
   25MOL0     C 3378   7.150   8.300   5.140  0.9058 -0.4236  0.2203
   25MOL0     C 3379   7.198   8.432   5.133  0.6978  0.4929 -0.6819
   25MOL0     C 3380   7.345   8.446   5.151  0.2252  0.1148  0.1326
   25MOL0     H 3381   7.147   8.924   5.281  2.1772 -0.4857 -1.4459
   25MOL0     H 3382   7.127   9.169   5.294 -1.3747 -2.7091  1.4240
   25MOL0     H 3383   7.165   9.433   5.149 -0.2741  2.4856 -0.9307
   25MOL0     H 3384   7.068   9.369   5.279  3.2885 -0.9468 -1.4021
   25MOL0     H 3385   6.871   9.520   5.181 -0.2212  1.6346  0.2330
   25MOL0     H 3386   7.011   9.597   5.259 -0.1153  0.6793  0.6276
   25MOL0     H 3387   7.032   9.549   4.955  0.5829 -1.0642  1.8270
   25MOL0     H 3388   6.937   9.686   5.006 -1.7754  0.6233  0.5547
   25MOL0     H 3389   7.218   9.646   5.088 -0.4596 -0.8913 -0.9500
   25MOL0     H 3390   7.162   9.739   4.948  2.3342 -0.2755 -0.6755
   25MOL0     H 3391   7.059   9.846   5.225 -1.3871  2.2824 -0.9278
   25MOL0     H 3392   7.061   9.900   5.052  1.2031 -2.9593 -2.7478
   25MOL0     H 3393   7.315   9.915   5.090  0.4009  2.3328  1.5579
   25MOL0     H 3394   7.222  10.017   5.194  2.4541  1.0614 -0.2815
   25MOL0     H 3395   7.421   9.914   5.304  1.1963 -2.0999 -2.2805
   25MOL0     H 3396   7.387   9.756   5.243  0.5657 -0.5232  0.1186
   25MOL0     H 3397   7.165   9.745   5.401 -1.8227  1.0611  2.7376
   25MOL0     H 3398   7.304   9.752   5.488 -1.6252 -1.0324 -0.6768
   25MOL0     H 3399   7.368   9.960   5.622  0.2133 -1.6512 -1.2131
   25MOL0     H 3400   7.255  10.317   5.694  1.8509 -0.2393  1.7839
   25MOL0     H 3401   7.338  10.173   5.742 -1.4395 -0.8967  2.2856
   25MOL0     H 3402   7.039  10.169   5.767  0.2995  2.1626 -1.5652
   25MOL0     H 3403   7.155  10.092   5.879  0.3980  0.6964 -0.4497
   25MOL0     H 3404   7.064  10.263   5.997 -2.8269 -1.2288 -0.8359
   25MOL0     H 3405   7.215  10.336   5.943 -0.6678 -0.0597 -1.0485
   25MOL0     H 3406   7.088  10.500   5.814 -1.6367  1.4805  1.5142
   25MOL0     H 3407   7.027  10.373   5.721 -0.3191  0.0400  0.1247
   25MOL0     H 3408   6.927  10.673   5.814  0.7725  0.3094 -0.5272
   25MOL0     H 3409   6.765  10.954   5.897  1.2651 -0.1388 -1.4595
   25MOL0     H 3410   6.910  10.888   5.821  0.3913 -0.3125 -0.4815
   25MOL0     H 3411   6.921  10.963   5.981  2.9518  0.7845 -2.8005
   25MOL0     H 3412   6.542  11.055   6.319 -0.9120  1.7023  0.4491
   25MOL0     H 3413   6.487  11.169   6.508 -2.3652  0.3569  1.9494
   25MOL0     H 3414   6.375  11.011   6.918  0.8469  0.2353  3.4409
   25MOL0     H 3415   6.549  10.968   6.909 -0.8197 -1.9532 -3.6984
   25MOL0     H 3416   6.590  11.211   6.962  0.0191  0.6290  0.0406
   25MOL0     H 3417   6.428  11.251   6.951 -1.6005 -0.3684  2.4206
   25MOL0     H 3418   6.543  11.071   7.177 -2.3744 -2.6299  1.0264
   25MOL0     H 3419   6.371  11.106   7.140  0.6839  1.1283 -0.9505
   25MOL0     H 3420   6.477  11.360   7.157 -2.9070 -0.5007 -0.9755
   25MOL0     H 3421   6.615  11.270   7.230  0.5042 -0.8570 -1.1265
   25MOL0     H 3422   6.433  11.161   7.397  1.3661  0.4157  0.8700
   25MOL0     H 3423   6.496  11.319   7.423 -2.8958  2.6090 -1.3306
   25MOL0     H 3424   6.241  11.310   7.262  2.0154 -0.0316 -0.5919
   25MOL0     H 3425   6.314  11.434   7.355 -0.7981  0.3583 -2.7432
   25MOL0     H 3426   6.258  11.205   7.536  2.1891  2.1720  1.1953
   25MOL0     H 3427   6.131  11.207   7.433 -0.0288 -0.0312  0.8241
   25MOL0     H 3428   6.232  11.441   7.594  0.8093  1.1284 -0.3393
   25MOL0     H 3429   6.084  11.338   7.630 -0.9659 -0.9757 -1.9194
   25MOL0     H 3430   6.577  10.815   6.751  0.1294 -1.5070 -1.5739
   25MOL0     H 3431   6.639  10.699   6.543  2.3809  0.5964  0.2760
   25MOL0     H 3432   6.646  10.588   6.189  0.8863  1.2590 -0.6964
   25MOL0     H 3433   6.749  10.396   6.078  1.4330 -0.4209 -1.2392
   25MOL0     H 3434   6.890   9.156   4.929 -0.4079  2.1957  0.8161
   25MOL0     H 3435   6.954   8.922   4.904 -2.4350 -0.8444  0.4597
   25MOL0     H 3436   6.899   8.587   5.115 -0.9461 -0.6169  0.5199
   25MOL0     H 3437   6.823   8.382   5.171  0.5037 -4.6130  2.0725
   25MOL0     H 3438   6.981   7.954   5.239  2.0449 -0.4366  1.8599
   25MOL0     H 3439   7.139   8.025   5.198  1.3343 -1.0548  3.0005
   25MOL0     H 3440   6.954   8.076   5.448 -0.6491 -2.9850 -1.2914
   25MOL0     H 3441   7.105   8.168   5.404  0.2589 -0.1527 -0.1700
   25MOL0     H 3442   7.093   7.873   5.463  1.0889 -1.1853 -1.2044
   25MOL0     H 3443   7.230   7.957   5.382  0.8884  1.7677  0.9201
   25MOL0     H 3444   7.223   8.107   5.613  0.2558 -0.2810  1.3271
   25MOL0     H 3445   7.287   7.937   5.626  1.3563 -0.6280 -3.3159
   25MOL0     H 3446   6.981   7.992   5.893 -0.5654 -0.3113 -0.6812
   25MOL0     H 3447   7.217   8.215   5.132  2.7963  1.1423 -1.6056
   25MOL0     H 3448   7.383   8.531   5.094  2.0482 -1.5953 -1.3894
   25MOL0     H 3449   7.382   8.459   5.253  1.7742 -0.5698 -0.3007
   25MOL0     H 3450   7.395   8.361   5.102  1.1642  0.1875  0.9351
   26MOL0     O 3451   4.740   3.353   2.675  0.3324 -0.8981  0.2117
   26MOL0     C 3452   4.784   3.282   2.767  0.1996  0.6842  0.1170
   26MOL0     O 3453   4.880   3.176   2.754 -0.1645 -0.2033  0.7103
   26MOL0     C 3454   4.918   3.126   2.638 -0.5444 -0.1351 -0.5351
   26MOL0     C 3455   5.015   3.027   2.667  0.4781  0.3129  0.7683
   26MOL0     C 3456   5.073   2.958   2.567 -0.0635  0.8829 -0.1529
   26MOL0     C 3457   5.043   2.989   2.430 -0.0114 -0.3729 -0.1195
   26MOL0     O 3458   5.109   2.923   2.329 -0.4722 -0.3899  0.1198
   26MOL0     C 3459   5.045   2.865   2.218  0.4536 -1.4482 -0.1386
   26MOL0     C 3460   5.045   2.720   2.227 -0.4685  0.8224 -0.6473
   26MOL0     C 3461   4.988   2.653   2.097  0.0263  0.6055 -0.9954
   26MOL0     C 3462   4.847   2.699   2.069 -0.3309 -0.1731  0.6458
   26MOL0     C 3463   4.770   2.598   1.985  0.3968 -0.9747  0.1907
   26MOL0     C 3464   4.618   2.607   1.975  0.0802  0.4052  0.2615
   26MOL0     C 3465   4.551   2.729   1.926  0.1332  0.3095 -0.1660
   26MOL0     C 3466   4.618   2.774   1.792  0.8530  0.2316 -0.9866
   26MOL0     N 3467   4.620   2.666   1.689  0.0765 -0.6015 -0.0039
   26MOL0     C 3468   4.721   2.639   1.601 -0.0439 -0.5276  0.0875
   26MOL0     C 3469   4.668   2.557   1.507  0.8419  1.3826 -0.3822
   26MOL0     C 3470   4.735   2.499   1.383 -0.5271  0.5153 -1.0188
   26MOL0     C 3471   4.741   2.596   1.260 -0.4643 -0.0295 -1.0701
   26MOL0     C 3472   4.607   2.598   1.191  0.1557  0.5840  0.6653
   26MOL0     C 3473   4.595   2.690   1.072 -0.0990 -1.5813 -0.4034
   26MOL0     O 3474   4.681   2.647   0.961 -0.2064  1.0336  0.0298
   26MOL0     C 3475   4.773   2.744   0.918  0.4476 -0.1821  0.3553
   26MOL0     C 3476   4.731   2.855   0.844 -0.2144  0.3255  0.0546
   26MOL0     C 3477   4.818   2.957   0.799  1.0174  0.1020  0.1127
   26MOL0     C 3478   4.756   3.067   0.703  0.3975 -0.7622  1.0197
   26MOL0     C 3479   4.952   2.959   0.835 -0.2558  0.0178  0.6171
   26MOL0     C 3480   5.047   3.068   0.805 -0.5592 -0.1518  0.1644
   26MOL0     O 3481   5.183   3.038   0.828  0.3113  0.9903  0.8710
   26MOL0     C 3482   5.270   3.141   0.827 -0.7255  0.6197  0.3441
   26MOL0     C 3483   5.252   3.263   0.890 -0.0500 -0.1459  0.5878
   26MOL0     C 3484   5.334   3.374   0.866 -0.5197 -0.5296 -0.2762
   26MOL0     C 3485   5.450   3.366   0.775  0.2491 -0.4861 -0.5296
   26MOL0     O 3486   5.518   3.483   0.746  0.1425  0.3196  0.0055
   26MOL0     C 3487   5.589   3.544   0.846 -1.4077  0.2631  0.5471
   26MOL0     C 3488   5.691   3.642   0.781  0.3078 -0.4583  0.2623
   26MOL0     C 3489   5.606   3.760   0.714 -0.2887  0.1473 -0.3975
   26MOL0     C 3490   5.640   3.767   0.565  0.1732 -0.4837  0.1584
   26MOL0     C 3491   5.562   3.878   0.482  0.6118  0.0103 -0.9609
   26MOL0     C 3492   5.565   3.847   0.337  1.1462 -0.5606  1.0588
   26MOL0     C 3493   5.484   3.962   0.261 -0.3884  0.0403  0.7567
   26MOL0     C 3494   5.469   3.927   0.105 -0.0650 -0.8591  0.1072
   26MOL0    Cl 3495   5.636   3.941   0.032  0.1565  0.0240 -0.4050
   26MOL0     C 3496   5.468   3.244   0.719 -0.0609  0.0809 -0.1128
   26MOL0     C 3497   5.377   3.133   0.734 -0.5099  0.1980  0.5591
   26MOL0     O 3498   5.003   3.178   0.776  0.3007  1.2089  0.0271
   26MOL0     C 3499   4.997   2.847   0.911  0.0123 -1.1036  0.2155
   26MOL0     C 3500   4.909   2.744   0.955 -0.1768  0.5859  0.4160
   26MOL0     N 3501   4.532   2.531   1.539 -0.5676  0.0839 -0.4141
   26MOL0     N 3502   4.505   2.592   1.650  0.1269  0.2180  0.2901
   26MOL0     C 3503   4.962   3.101   2.408  0.4892 -0.2373 -0.1654
   26MOL0     C 3504   4.895   3.164   2.509 -0.1001 -0.5810  0.3048
   26MOL0     C 3505   4.726   3.295   2.906  0.2569 -0.4156  0.0019
   26MOL0     C 3506   4.757   3.201   3.007  0.8730 -0.2121  0.9502
   26MOL0     C 3507   4.700   3.202   3.132 -0.3108  0.0561 -0.4581
   26MOL0     C 3508   4.608   3.301   3.164 -0.6023 -0.5550 -0.0946
   26MOL0     O 3509   4.537   3.304   3.280 -0.1297 -0.9148  0.0003
   26MOL0     C 3510   4.450   3.193   3.304  0.1351 -0.0579  0.0130
   26MOL0     C 3511   4.352   3.220   3.413 -0.0413 -0.1256  0.4199
   26MOL0     C 3512   4.430   3.255   3.543  0.3290 -0.8597 -0.0419
   26MOL0     C 3513   4.330   3.261   3.667  0.2612  0.8310  0.1342
   26MOL0     C 3514   4.372   3.348   3.773 -0.5925 -0.2693 -0.0724
   26MOL0     C 3515   4.421   3.428   3.859 -0.3218  0.4662  0.5758
   26MOL0     C 3516   4.575   3.401   3.062  0.3884 -0.2075 -0.2443
   26MOL0     C 3517   4.644   3.401   2.944 -0.6154 -1.0574  0.1387
   26MOL0     C 3518   4.645   3.530   2.883  1.3099  0.6995  1.2155
   26MOL0     H 3519   5.027   3.000   2.772  0.0311 -1.1969  0.4537
   26MOL0     H 3520   5.137   2.872   2.586 -0.7520  0.5186  0.5866
   26MOL0     H 3521   5.108   2.885   2.131 -3.0276  3.7414 -1.9004
   26MOL0     H 3522   4.956   2.924   2.194  1.5006  0.0477 -0.5108
   26MOL0     H 3523   5.145   2.686   2.252  0.5220  3.8787 -0.0129
   26MOL0     H 3524   4.973   2.691   2.305  0.7001  0.2932  0.2644
   26MOL0     H 3525   5.065   2.666   2.020 -0.3030 -1.8755 -1.8549
   26MOL0     H 3526   4.980   2.544   2.110 -1.7253  0.9882  2.0610
   26MOL0     H 3527   4.788   2.704   2.161 -0.3660 -0.5912  0.6480
   26MOL0     H 3528   4.847   2.788   2.005  2.6634  0.0278  0.7857
   26MOL0     H 3529   4.777   2.501   2.035 -1.5788 -0.9580  0.5557
   26MOL0     H 3530   4.805   2.591   1.882  2.2013  1.1559  0.5700
   26MOL0     H 3531   4.584   2.515   1.927 -0.9818  1.2554 -0.6420
   26MOL0     H 3532   4.579   2.594   2.076  2.8308  0.1709  1.3957
   26MOL0     H 3533   4.558   2.811   1.998 -1.6221 -0.3091  0.7561
   26MOL0     H 3534   4.445   2.712   1.905  0.2675 -0.0034 -0.6092
   26MOL0     H 3535   4.563   2.860   1.753 -0.1488  0.4471  0.8192
   26MOL0     H 3536   4.721   2.805   1.814  0.8138 -0.9679  1.2151
   26MOL0     H 3537   4.824   2.672   1.608  0.5204 -2.2027  0.2017
   26MOL0     H 3538   4.682   2.407   1.358  1.3732 -0.6325 -0.9979
   26MOL0     H 3539   4.838   2.478   1.413 -1.0503  0.2819  0.7482
   26MOL0     H 3540   4.769   2.696   1.295  0.0553 -1.1828  2.1714
   26MOL0     H 3541   4.816   2.574   1.183  0.0039 -0.4886 -0.4899
   26MOL0     H 3542   4.581   2.499   1.153  2.5369  0.6998 -1.5445
   26MOL0     H 3543   4.530   2.642   1.255 -0.0024  0.4072  0.5980
   26MOL0     H 3544   4.489   2.695   1.048 -0.0405  1.0106 -0.3622
   26MOL0     H 3545   4.614   2.793   1.104 -1.2428 -1.5654  0.2874
   26MOL0     H 3546   4.626   2.874   0.822 -1.2827 -1.3128  3.1266
   26MOL0     H 3547   4.667   3.028   0.652  0.0316  1.4438 -0.1439
   26MOL0     H 3548   4.830   3.096   0.628 -1.5741  1.2722 -0.2823
   26MOL0     H 3549   4.729   3.159   0.757 -2.3913 -1.7584  1.4957
   26MOL0     H 3550   5.167   3.265   0.957 -0.1444  1.0852  0.4505
   26MOL0     H 3551   5.302   3.474   0.894 -0.7582 -0.3209 -1.2766
   26MOL0     H 3552   5.515   3.591   0.912 -2.9704  1.8051 -2.1613
   26MOL0     H 3553   5.654   3.472   0.897 -0.0177  2.4193  2.0305
   26MOL0     H 3554   5.752   3.700   0.852 -0.5039  0.5881  0.1375
   26MOL0     H 3555   5.759   3.582   0.720  0.5136  0.6005 -0.6030
   26MOL0     H 3556   5.629   3.860   0.751 -0.8347  1.1464 -2.5903
   26MOL0     H 3557   5.499   3.743   0.723 -0.7819  2.6881 -0.7910
   26MOL0     H 3558   5.618   3.676   0.509  1.3287 -2.5049  2.8074
   26MOL0     H 3559   5.747   3.790   0.560  0.2058 -0.8544 -1.0343
   26MOL0     H 3560   5.459   3.874   0.519  1.6082  1.2210  2.2712
   26MOL0     H 3561   5.602   3.978   0.503 -0.8728  0.4957 -0.2973
   26MOL0     H 3562   5.514   3.753   0.313 -3.3649  1.8575 -0.0213
   26MOL0     H 3563   5.668   3.838   0.301 -0.1197  0.0726 -3.3523
   26MOL0     H 3564   5.532   4.061   0.263 -1.5036  0.6230  3.6477
   26MOL0     H 3565   5.387   3.970   0.310 -0.7764 -2.7815  0.5982
   26MOL0     H 3566   5.404   4.011   0.080 -0.0706  0.2522  3.2923
   26MOL0     H 3567   5.412   3.837   0.081  0.0894 -1.5057  1.9796
   26MOL0     H 3568   5.549   3.234   0.647  2.7580  0.7317  2.7138
   26MOL0     H 3569   5.390   3.035   0.691 -3.4037  0.5317 -1.3740
   26MOL0     H 3570   5.101   2.856   0.941  0.9509  1.4299 -3.2118
   26MOL0     H 3571   4.936   2.654   1.010 -3.2577 -0.2923  0.6699
   26MOL0     H 3572   4.935   3.117   2.304  2.9491 -1.3998 -1.0522
   26MOL0     H 3573   4.833   3.250   2.484 -0.7194 -0.8270  0.9592
   26MOL0     H 3574   4.831   3.124   2.986  0.1633 -0.3759 -1.2682
   26MOL0     H 3575   4.724   3.123   3.203  0.0033 -1.9384 -2.6307
   26MOL0     H 3576   4.400   3.164   3.211 -3.4443  1.5872  1.2193
   26MOL0     H 3577   4.507   3.105   3.332 -0.0415 -0.2653 -0.2629
   26MOL0     H 3578   4.275   3.146   3.436  1.3016 -0.5932  3.9747
   26MOL0     H 3579   4.296   3.306   3.376 -0.7904  1.3106  4.4225
   26MOL0     H 3580   4.514   3.185   3.547  0.2129 -1.2306 -2.4303
   26MOL0     H 3581   4.478   3.351   3.524  3.1073 -2.5160 -2.3595
   26MOL0     H 3582   4.294   3.161   3.691  0.4688 -0.0206 -2.7688
   26MOL0     H 3583   4.246   3.306   3.613  1.2077  0.5884 -1.6117
   26MOL0     H 3584   4.488   3.488   3.917  2.0065  0.2499 -1.7361
   26MOL0     H 3585   4.507   3.472   3.109  1.3436 -1.1787  2.8061
   26MOL0     H 3586   4.746   3.556   2.852  0.4831  3.0409  0.2775
   26MOL0     H 3587   4.574   3.534   2.799  3.6228  2.4027 -0.7804
   26MOL0     H 3588   4.605   3.604   2.953 -3.8702 -3.2615  3.2040
   27MOL0     O 3589   1.593   4.870   6.729  0.2142 -0.4921 -0.6330
   27MOL0     C 3590   1.557   4.947   6.639  0.1613 -0.3374  0.7034
   27MOL0     O 3591   1.627   5.032   6.561 -0.6104 -0.5960 -0.4490
   27MOL0     C 3592   1.765   5.016   6.574 -1.1923  0.6260  0.7890
   27MOL0     C 3593   1.828   5.026   6.703 -0.1451  0.0773  0.9086
   27MOL0     C 3594   1.970   5.012   6.733 -0.2349 -0.6003  0.1588
   27MOL0     C 3595   2.051   4.968   6.619 -0.0432  0.0847 -0.7288
   27MOL0     O 3596   2.181   4.939   6.654  0.2012 -0.4657  0.4882
   27MOL0     C 3597   2.280   5.008   6.585  0.0254 -0.8234  0.1164
   27MOL0     C 3598   2.386   5.036   6.682  0.4178  0.2788 -0.5030
   27MOL0     C 3599   2.500   5.122   6.616  0.5688 -0.4438 -0.3418
   27MOL0     C 3600   2.609   5.138   6.709 -0.1653  0.0665 -0.4197
   27MOL0     C 3601   2.721   5.215   6.645 -0.0806  0.6256 -0.4199
   27MOL0     C 3602   2.822   5.246   6.751  0.1225 -0.0338  0.1733
   27MOL0     C 3603   2.927   5.343   6.704 -0.2723 -0.3033 -1.8329
   27MOL0     C 3604   3.030   5.283   6.613 -1.0707 -0.0478  0.6795
   27MOL0     N 3605   3.139   5.377   6.572 -0.2968 -0.3150  0.4968
   27MOL0     C 3606   3.280   5.369   6.596  0.9456  0.2894  0.3752
   27MOL0     C 3607   3.333   5.466   6.523 -0.1942 -0.1425 -0.1482
   27MOL0     C 3608   3.474   5.518   6.533  0.1128 -1.1862 -0.4096
   27MOL0     C 3609   3.480   5.665   6.533 -0.2547 -0.5536  0.5626
   27MOL0     C 3610   3.439   5.737   6.663 -0.1493  0.0100  0.1196
   27MOL0     C 3611   3.291   5.721   6.709 -0.4098  0.6207 -0.3634
   27MOL0     O 3612   3.209   5.793   6.623 -0.3937  0.0691 -0.0775
   27MOL0     C 3613   3.073   5.775   6.624  0.3907 -0.4498  0.0872
   27MOL0     C 3614   3.001   5.729   6.734  0.2062 -0.5629 -0.0937
   27MOL0     C 3615   2.857   5.713   6.728 -1.3400 -0.0975 -0.6496
   27MOL0     C 3616   2.781   5.666   6.845  0.3295  0.3796  0.6071
   27MOL0     C 3617   2.793   5.740   6.606  0.1642 -0.0830  0.6291
   27MOL0     C 3618   2.653   5.732   6.585  0.3845  1.0418  0.3502
   27MOL0     O 3619   2.566   5.819   6.652  0.4530  0.0930  0.4762
   27MOL0     C 3620   2.428   5.808   6.667  0.9024  0.3386 -0.1784
   27MOL0     C 3621   2.351   5.832   6.781 -0.2016 -0.4146  0.1980
   27MOL0     C 3622   2.212   5.837   6.785  1.2592 -1.3771  0.2081
   27MOL0     C 3623   2.136   5.816   6.667 -0.5241 -0.7927  0.6399
   27MOL0     O 3624   2.003   5.814   6.653  1.4631 -1.0193  0.1154
   27MOL0     C 3625   1.906   5.776   6.755  0.2371 -0.2222 -0.3811
   27MOL0     C 3626   1.924   5.627   6.802  0.6474 -1.0339 -0.3871
   27MOL0     C 3627   1.813   5.568   6.888 -0.6174 -0.3877 -0.5438
   27MOL0     C 3628   1.801   5.624   7.034 -0.5594  0.1797  0.5938
   27MOL0     C 3629   1.665   5.593   7.081  0.6787  0.4984  0.6994
   27MOL0     C 3630   1.633   5.629   7.228  0.7527 -0.2752 -1.3574
   27MOL0     C 3631   1.745   5.636   7.329 -0.0745 -0.1244  0.7509
   27MOL0     C 3632   1.691   5.670   7.464  0.0095 -0.5111 -0.7826
   27MOL0    Cl 3633   1.591   5.530   7.528  0.0653  0.2685  0.1044
   27MOL0     C 3634   2.213   5.785   6.548  0.1667 -0.7758  0.7708
   27MOL0     C 3635   2.353   5.770   6.552 -0.8831  0.0651  0.0942
   27MOL0     O 3636   2.623   5.639   6.515  0.2426  0.0862  0.9971
   27MOL0     C 3637   2.868   5.783   6.490  0.0568 -0.0875 -0.3277
   27MOL0     C 3638   3.003   5.809   6.505  0.5401  1.1570  0.8410
   27MOL0     N 3639   3.232   5.533   6.461 -0.0629  0.3086 -1.0539
   27MOL0     N 3640   3.121   5.481   6.489  0.5085  0.1130 -0.1098
   27MOL0     C 3641   1.989   4.953   6.494  1.5534  0.4494  0.2771
   27MOL0     C 3642   1.849   4.980   6.468 -0.4830  0.2820 -0.4684
   27MOL0     C 3643   1.411   4.944   6.605 -1.1823 -1.0672 -0.3315
   27MOL0     C 3644   1.354   5.065   6.559  0.6602 -0.8424  0.6773
   27MOL0     C 3645   1.219   5.075   6.526  0.3377  0.0591  0.7018
   27MOL0     C 3646   1.129   4.960   6.540  0.5901  0.4725  0.3172
   27MOL0     O 3647   0.996   4.961   6.502 -0.2186  0.0738 -0.0446
   27MOL0     C 3648   0.935   5.086   6.442 -0.3411  0.2004 -1.1258
   27MOL0     C 3649   0.900   5.179   6.557  0.1039  0.2295 -0.2569
   27MOL0     C 3650   0.831   5.295   6.503  0.1085  1.1404 -0.2906
   27MOL0     C 3651   0.773   5.375   6.615  0.1477  0.6464  0.1398
   27MOL0     C 3652   0.882   5.454   6.679 -0.4704  0.5026 -0.9435
   27MOL0     C 3653   0.979   5.495   6.743  0.5991  0.3845 -0.1784
   27MOL0     C 3654   1.190   4.833   6.580  0.6300  0.0430 -1.1529
   27MOL0     C 3655   1.320   4.829   6.621 -0.6002  0.5353  0.7968
   27MOL0     C 3656   1.363   4.696   6.689  0.1081 -0.1103  0.5888
   27MOL0     H 3657   1.750   5.051   6.774 -0.9218  2.5635 -0.6737
   27MOL0     H 3658   2.019   5.019   6.829  1.7041 -1.2143 -0.7216
   27MOL0     H 3659   2.248   5.094   6.526  1.6082  1.1962  2.0541
   27MOL0     H 3660   2.319   4.935   6.514  0.5211  0.7458 -1.2908
   27MOL0     H 3661   2.344   5.102   6.758  2.6495  1.0141  0.1959
   27MOL0     H 3662   2.430   4.948   6.731  1.0148 -0.1449 -1.7488
   27MOL0     H 3663   2.531   5.073   6.524 -1.1429 -1.6099 -0.3538
   27MOL0     H 3664   2.470   5.224   6.589 -0.7785  0.0513  2.5965
   27MOL0     H 3665   2.570   5.203   6.787 -3.8378  1.0259 -2.7771
   27MOL0     H 3666   2.641   5.047   6.762 -0.0312 -1.0662 -2.3349
   27MOL0     H 3667   2.679   5.301   6.592  3.7622  2.4719 -0.8278
   27MOL0     H 3668   2.769   5.146   6.576  0.2037  2.3424 -2.0161
   27MOL0     H 3669   2.762   5.284   6.834 -1.1097 -1.2974 -0.0881
   27MOL0     H 3670   2.867   5.153   6.788 -1.0082  0.2067  2.3249
   27MOL0     H 3671   2.972   5.373   6.799  0.0115 -2.2253 -1.3192
   27MOL0     H 3672   2.880   5.424   6.647  1.4059  1.4894 -0.7790
   27MOL0     H 3673   3.079   5.198   6.661 -1.4524 -0.3460  0.5407
   27MOL0     H 3674   2.981   5.253   6.520  1.1983 -1.5153 -0.1183
   27MOL0     H 3675   3.341   5.307   6.662 -1.2774 -3.1576 -0.5481
   27MOL0     H 3676   3.533   5.486   6.446 -0.0346  1.7514 -1.7044
   27MOL0     H 3677   3.519   5.469   6.619  0.8030 -3.4891 -1.9769
   27MOL0     H 3678   3.578   5.700   6.503 -0.1069 -0.8635  0.6790
   27MOL0     H 3679   3.411   5.695   6.454 -2.2474 -2.3815  1.4981
   27MOL0     H 3680   3.502   5.691   6.739 -2.7377 -0.3078  2.2233
   27MOL0     H 3681   3.476   5.839   6.674  0.5110 -0.2066 -0.0251
   27MOL0     H 3682   3.280   5.612   6.720 -0.5205  0.8481  2.5012
   27MOL0     H 3683   3.282   5.759   6.811 -1.9636  1.3883 -0.7557
   27MOL0     H 3684   3.049   5.700   6.827  0.5319 -0.0394 -0.0960
   27MOL0     H 3685   2.757   5.560   6.839  1.1311 -0.0049  3.0600
   27MOL0     H 3686   2.688   5.721   6.858 -1.2268 -1.2175 -2.6501
   27MOL0     H 3687   2.842   5.682   6.935 -1.2096 -0.3409  1.8294
   27MOL0     H 3688   2.404   5.851   6.874  0.2045 -3.0572  0.5868
   27MOL0     H 3689   2.171   5.836   6.886 -2.1355 -0.6276 -1.0030
   27MOL0     H 3690   1.930   5.832   6.845  1.2647 -2.0536  0.5494
   27MOL0     H 3691   1.804   5.790   6.718  0.9132  2.1456 -1.5198
   27MOL0     H 3692   1.932   5.568   6.710 -0.3270 -0.4455 -0.8521
   27MOL0     H 3693   2.018   5.621   6.859 -0.3390  0.4084  1.4682
   27MOL0     H 3694   1.850   5.466   6.899  3.5612  1.1438  1.8056
   27MOL0     H 3695   1.714   5.555   6.842 -0.3008 -2.2610 -0.7677
   27MOL0     H 3696   1.809   5.733   7.032  1.8345  0.0411 -0.6224
   27MOL0     H 3697   1.880   5.572   7.089 -0.2738 -1.5624 -1.3316
   27MOL0     H 3698   1.593   5.633   7.009  0.3231 -3.2061 -1.2282
   27MOL0     H 3699   1.653   5.485   7.067 -1.4271  0.9749 -1.9977
   27MOL0     H 3700   1.548   5.570   7.265  1.7381 -0.4483  0.8104
   27MOL0     H 3701   1.601   5.733   7.220  0.4780 -0.3929 -1.8455
   27MOL0     H 3702   1.821   5.709   7.297  0.4277 -1.7295 -2.0297
   27MOL0     H 3703   1.793   5.538   7.335  2.6827  1.1037  0.6651
   27MOL0     H 3704   1.642   5.767   7.472 -0.3302 -0.6980 -0.5646
   27MOL0     H 3705   1.777   5.679   7.531  1.0303 -2.1869 -1.8008
   27MOL0     H 3706   2.169   5.775   6.449  0.5149 -0.9473  0.6307
   27MOL0     H 3707   2.406   5.740   6.462 -1.0389 -1.5806  0.5321
   27MOL0     H 3708   2.813   5.807   6.399 -4.1197  0.9291  2.2363
   27MOL0     H 3709   3.069   5.817   6.419  1.2909  1.5626  1.4528
   27MOL0     H 3710   2.063   4.926   6.419  2.2159 -1.3246  1.4989
   27MOL0     H 3711   1.820   4.970   6.364  3.3110  0.5920 -1.7098
   27MOL0     H 3712   1.410   5.156   6.538 -1.6642  0.5939  0.3466
   27MOL0     H 3713   1.181   5.174   6.504  0.9972  0.0305 -0.6365
   27MOL0     H 3714   0.990   5.135   6.361 -0.2447  1.0115 -0.5834
   27MOL0     H 3715   0.840   5.047   6.404  0.1704 -0.4612 -1.7631
   27MOL0     H 3716   0.990   5.196   6.616  1.8095 -1.7376 -2.1176
   27MOL0     H 3717   0.822   5.137   6.621  1.5713 -2.8125 -0.2862
   27MOL0     H 3718   0.896   5.365   6.451  0.5012 -0.1422 -1.5731
   27MOL0     H 3719   0.757   5.271   6.426  2.0834  0.9047 -2.1726
   27MOL0     H 3720   0.711   5.323   6.688  1.5796 -0.3719  0.6811
   27MOL0     H 3721   0.708   5.451   6.571 -0.2311  0.0932 -0.2700
   27MOL0     H 3722   1.051   5.536   6.811  0.9717 -0.1748 -0.2254
   27MOL0     H 3723   1.125   4.746   6.577 -0.5287  0.7422  1.1091
   27MOL0     H 3724   1.462   4.673   6.649  0.3808 -1.3431  1.8712
   27MOL0     H 3725   1.368   4.707   6.797  1.3042 -0.8289  0.6229
   27MOL0     H 3726   1.285   4.621   6.669 -0.4171  0.4307  0.5864
   28MOL0     O 3727   8.683   1.382  10.755  0.1673 -0.7570  0.1050
   28MOL0     C 3728   8.790   1.345  10.700  0.4889  0.7570 -0.4661
   28MOL0     O 3729   8.915   1.385  10.728  0.1584 -0.4967 -0.3064
   28MOL0     C 3730   8.938   1.492  10.814  0.2964 -0.1545  0.7307
   28MOL0     C 3731   8.911   1.474  10.946  0.6787  0.7256 -0.7174
   28MOL0     C 3732   8.935   1.577  11.046 -0.4855 -0.2438 -0.9053
   28MOL0     C 3733   8.990   1.701  11.001 -0.2236  0.4569 -0.3134
   28MOL0     O 3734   9.022   1.807  11.070 -0.8873 -0.5276 -0.3661
   28MOL0     C 3735   8.977   1.836  11.208  0.3906  1.1851 -0.0277
   28MOL0     C 3736   9.049   1.957  11.253  0.3988  1.0885 -0.1043
   28MOL0     C 3737   8.993   2.010  11.388 -0.1614 -0.3897  1.1140
   28MOL0     C 3738   9.066   1.931  11.501  0.4525 -0.9177 -0.1621
   28MOL0     C 3739   9.017   1.959  11.645  0.2731 -0.2544 -0.7403
   28MOL0     C 3740   8.862   1.928  11.667 -0.7478 -0.1407 -0.3679
   28MOL0     C 3741   8.812   1.966  11.807 -0.8075 -0.2967 -0.4522
   28MOL0     C 3742   8.662   1.963  11.823  0.2657 -0.0158  0.2682
   28MOL0     N 3743   8.630   1.986  11.968  0.0493 -0.2522 -0.7326
   28MOL0     C 3744   8.660   1.898  12.071 -0.2201  0.7003 -0.1747
   28MOL0     C 3745   8.614   1.964  12.181  0.7100  0.4114 -0.2003
   28MOL0     C 3746   8.638   1.908  12.319 -0.0103 -0.5253  0.5237
   28MOL0     C 3747   8.579   2.005  12.434  0.2216 -0.3023  0.3405
   28MOL0     C 3748   8.652   1.978  12.558  0.4437  0.0459  0.9398
   28MOL0     C 3749   8.559   2.015  12.678 -0.0122  0.5306 -0.2699
   28MOL0     O 3750   8.631   2.021  12.797 -0.2850 -0.3486  0.4468
   28MOL0     C 3751   8.574   2.030  12.917  0.0221  0.0653 -0.6347
   28MOL0     C 3752   8.656   2.021  13.028 -0.1608 -0.2026  0.0734
   28MOL0     C 3753   8.608   2.028  13.161 -1.5595  0.2225 -0.5950
   28MOL0     C 3754   8.712   2.020  13.265  1.9165 -0.3355  0.7225
   28MOL0     C 3755   8.468   2.029  13.190  0.1756 -0.5626  0.2883
   28MOL0     C 3756   8.416   2.013  13.330  0.5151 -0.1732 -0.0065
   28MOL0     O 3757   8.499   1.969  13.435  0.5569  0.6775 -0.6649
   28MOL0     C 3758   8.449   1.966  13.564 -0.2350 -0.4504 -0.0306
   28MOL0     C 3759   8.385   2.066  13.631 -0.5583  0.1153 -0.8192
   28MOL0     C 3760   8.328   2.047  13.760 -0.6573  0.0093  0.6982
   28MOL0     C 3761   8.326   1.920  13.825 -0.3932  0.7143  0.0853
   28MOL0     O 3762   8.275   1.914  13.952 -0.4374  0.3973 -0.1784
   28MOL0     C 3763   8.319   1.802  14.027  0.0383  0.9098  0.5273
   28MOL0     C 3764   8.298   1.819  14.174 -0.0032  0.6302 -0.1171
   28MOL0     C 3765   8.386   1.939  14.231  1.2068  0.1972  0.4731
   28MOL0     C 3766   8.347   1.936  14.377 -0.6730 -0.1455 -0.8390
   28MOL0     C 3767   8.395   2.066  14.456  0.0233 -0.1201  0.1010
   28MOL0     C 3768   8.331   2.077  14.597  0.0854 -0.6678 -0.3387
   28MOL0     C 3769   8.416   1.977  14.686  0.4995  0.7639  0.1710
   28MOL0     C 3770   8.544   2.039  14.725  0.0617 -0.3641  0.9283
   28MOL0    Cl 3771   8.627   1.953  14.859 -0.4664 -0.5696  0.0587
   28MOL0     C 3772   8.387   1.824  13.746  0.5413 -0.1086  0.4294
   28MOL0     C 3773   8.459   1.847  13.626 -0.4233 -0.5046 -0.3657
   28MOL0     O 3774   8.299   2.050  13.343 -0.1928 -0.0143  0.2274
   28MOL0     C 3775   8.384   2.052  13.078  0.1047  0.2291 -0.4227
   28MOL0     C 3776   8.442   2.051  12.942  0.4612 -0.1670 -0.1438
   28MOL0     N 3777   8.569   2.092  12.142 -0.5146  0.0929  0.3366
   28MOL0     N 3778   8.579   2.101  12.012  0.8557 -0.8000 -1.3997
   28MOL0     C 3779   9.015   1.713  10.860 -0.1507 -0.3871 -0.5091
   28MOL0     C 3780   8.986   1.610  10.771  1.0696 -0.2259 -0.3331
   28MOL0     C 3781   8.782   1.227  10.602 -0.5946 -0.1997  0.2454
   28MOL0     C 3782   8.893   1.148  10.580 -0.0637 -0.7772 -0.5944
   28MOL0     C 3783   8.887   1.025  10.513 -0.4844 -0.2211 -0.4240
   28MOL0     C 3784   8.767   0.979  10.455 -1.5160 -0.3447 -0.2227
   28MOL0     O 3785   8.754   0.871  10.366 -0.3094 -0.0989 -0.4410
   28MOL0     C 3786   8.824   0.740  10.397  0.3292 -1.1047  0.2660
   28MOL0     C 3787   8.714   0.642  10.457 -0.8946 -0.2047 -1.5427
   28MOL0     C 3788   8.669   0.679  10.598 -0.3093 -0.3549 -0.9463
   28MOL0     C 3789   8.528   0.629  10.641 -0.4513  0.9464  0.1172
   28MOL0     C 3790   8.420   0.699  10.572 -0.4529  0.3580 -1.4121
   28MOL0     C 3791   8.326   0.757  10.524  0.5614 -0.0954  0.6427
   28MOL0     C 3792   8.660   1.062  10.483  0.8829 -0.1576  0.5610
   28MOL0     C 3793   8.663   1.183  10.551  1.3774  0.1562  0.3196
   28MOL0     C 3794   8.524   1.241  10.577 -0.0674  0.2861  0.0880
   28MOL0     H 3795   8.850   1.390  10.979  0.8021  1.8753  2.9200
   28MOL0     H 3796   8.917   1.567  11.153  0.5171  0.2037 -0.6878
   28MOL0     H 3797   8.998   1.752  11.274  1.0408  0.3809 -1.2133
   28MOL0     H 3798   8.869   1.850  11.200  0.4145  0.9525 -0.9121
   28MOL0     H 3799   9.157   1.943  11.261  0.2053  0.0179  0.9289
   28MOL0     H 3800   9.033   2.040  11.184  2.6545  3.5937  2.1241
   28MOL0     H 3801   9.022   2.115  11.392 -0.1210 -0.2839 -1.1449
   28MOL0     H 3802   8.884   1.998  11.391 -0.0994 -1.1313  0.7256
   28MOL0     H 3803   9.049   1.824  11.488  1.5687 -1.0779 -0.4383
   28MOL0     H 3804   9.174   1.943  11.487  0.3105 -0.8459 -1.3153
   28MOL0     H 3805   9.039   2.064  11.667  0.3255  0.2004 -2.8219
   28MOL0     H 3806   9.066   1.899  11.722 -0.3038 -0.8540 -0.8275
   28MOL0     H 3807   8.810   1.987  11.590 -1.0418  2.0558  1.4096
   28MOL0     H 3808   8.847   1.823  11.641 -3.4990  0.1941 -0.3939
   28MOL0     H 3809   8.840   2.068  11.837  5.1894 -2.3182  2.3071
   28MOL0     H 3810   8.861   1.898  11.877 -0.0045  1.5040  0.8057
   28MOL0     H 3811   8.617   2.039  11.759 -0.9807  0.2194  1.3869
   28MOL0     H 3812   8.628   1.862  11.795 -2.2107  0.7335  0.3316
   28MOL0     H 3813   8.690   1.794  12.067 -2.0100 -0.1219  3.5487
   28MOL0     H 3814   8.746   1.901  12.334 -0.5044 -3.4029  4.0271
   28MOL0     H 3815   8.598   1.807  12.331  1.1238 -1.1373 -0.4923
   28MOL0     H 3816   8.602   2.106  12.401  1.4436 -0.0270  1.9366
   28MOL0     H 3817   8.473   1.984  12.452 -0.6904  3.9880  0.9207
   28MOL0     H 3818   8.687   1.875  12.570  1.2736 -0.0428 -1.7274
   28MOL0     H 3819   8.738   2.045  12.555 -0.3348  1.0302 -1.4379
   28MOL0     H 3820   8.521   2.116  12.659  1.8348  1.5752  1.2425
   28MOL0     H 3821   8.474   1.946  12.689 -2.0129  2.4647 -2.3702
   28MOL0     H 3822   8.763   2.011  13.016 -0.2868 -0.6465 -0.7536
   28MOL0     H 3823   8.699   1.917  13.302  0.6932 -1.4179 -2.3805
   28MOL0     H 3824   8.706   2.108  13.330  2.8207  1.7226 -1.8421
   28MOL0     H 3825   8.815   2.013  13.228  1.2784  4.1718 -2.6095
   28MOL0     H 3826   8.361   2.156  13.576 -0.6624  0.0972 -0.8043
   28MOL0     H 3827   8.279   2.128  13.813  1.6562  2.1618 -0.2478
   28MOL0     H 3828   8.266   1.711  13.997  1.0216  0.7901 -0.9835
   28MOL0     H 3829   8.426   1.781  14.016  0.2008  1.6651  0.6184
   28MOL0     H 3830   8.193   1.839  14.193 -0.1649  1.3438 -1.6513
   28MOL0     H 3831   8.331   1.721  14.211  1.5112  0.9491 -0.5274
   28MOL0     H 3832   8.359   2.030  14.177  1.7778  2.3324  3.5427
   28MOL0     H 3833   8.493   1.916  14.228  1.2109  0.3132 -0.5491
   28MOL0     H 3834   8.385   1.845  14.425 -2.2107 -1.4918 -2.0538
   28MOL0     H 3835   8.238   1.935  14.389 -0.8528 -0.6062 -2.2545
   28MOL0     H 3836   8.504   2.077  14.459  0.3364 -2.1133 -1.6185
   28MOL0     H 3837   8.361   2.151  14.396 -2.8865 -0.9583  0.4262
   28MOL0     H 3838   8.223   2.057  14.602  0.4045 -2.1754  2.0038
   28MOL0     H 3839   8.333   2.180  14.634  0.0650 -2.0030  3.8431
   28MOL0     H 3840   8.443   1.878  14.647  0.4566 -0.2865  2.6308
   28MOL0     H 3841   8.366   1.955  14.780 -1.4674 -0.7605 -1.1448
   28MOL0     H 3842   8.526   2.145  14.749  0.9289  0.3201 -1.2555
   28MOL0     H 3843   8.612   2.030  14.640 -0.0724 -0.2901  0.8125
   28MOL0     H 3844   8.394   1.722  13.784  2.5608  0.0230  0.5253
   28MOL0     H 3845   8.499   1.761  13.573 -2.0796 -2.7413  1.7865
   28MOL0     H 3846   8.277   2.063  13.087  0.3271  1.9925  0.5917
   28MOL0     H 3847   8.387   2.052  12.849  2.7827 -1.0453 -1.6304
   28MOL0     H 3848   9.069   1.802  10.830  1.9593 -1.9284 -1.5159
   28MOL0     H 3849   9.000   1.615  10.664 -2.3263 -1.5719 -0.9937
   28MOL0     H 3850   8.989   1.173  10.622  0.0516 -0.5505 -0.9943
   28MOL0     H 3851   8.979   0.968  10.496  1.8818  3.4469 -1.0462
   28MOL0     H 3852   8.876   0.697  10.312 -0.9196  1.1568 -1.7540
   28MOL0     H 3853   8.898   0.755  10.476  1.3844 -0.3717 -0.8298
   28MOL0     H 3854   8.757   0.542  10.465 -4.1245 -1.5303  2.5804
   28MOL0     H 3855   8.626   0.624  10.394 -2.2779 -0.6697  0.4419
   28MOL0     H 3856   8.738   0.643  10.675 -0.7885 -0.5373 -0.5978
   28MOL0     H 3857   8.653   0.787  10.605 -1.7293 -0.4838 -1.7559
   28MOL0     H 3858   8.527   0.641  10.750 -0.0594  0.7581  0.1449
   28MOL0     H 3859   8.519   0.520  10.635 -0.0286  0.9620 -1.1280
   28MOL0     H 3860   8.237   0.794  10.479  0.9254 -2.5090 -2.4060
   28MOL0     H 3861   8.568   1.024  10.439  1.4850 -0.7446 -0.2387
   28MOL0     H 3862   8.497   1.235  10.683  0.6556 -1.9770  0.2048
   28MOL0     H 3863   8.520   1.349  10.560 -1.1836  0.2422 -0.0522
   28MOL0     H 3864   8.442   1.186  10.529  0.5311 -0.8588  0.3361
   29MOL0     O 3865   0.528   6.382  11.478 -0.3656  0.4964 -0.5165
   29MOL0     C 3866   0.449   6.403  11.576 -0.1800 -0.1904 -0.3432
   29MOL0     O 3867   0.378   6.309  11.630 -0.8292  0.4340  0.4512
   29MOL0     C 3868   0.372   6.185  11.572  0.0627 -1.1833  0.1405
   29MOL0     C 3869   0.265   6.158  11.489  0.3572  0.2193  1.2293
   29MOL0     C 3870   0.259   6.040  11.405  0.1535  0.1022 -0.4316
   29MOL0     C 3871   0.362   5.950  11.423 -0.5204 -0.9453  0.7052
   29MOL0     O 3872   0.370   5.840  11.342  0.0700  0.0093  0.0690
   29MOL0     C 3873   0.259   5.756  11.345  0.2107  0.4796 -0.1644
   29MOL0     C 3874   0.284   5.604  11.329 -0.9867 -0.0477  0.2649
   29MOL0     C 3875   0.158   5.519  11.346  0.4812  1.2159 -0.0439
   29MOL0     C 3876   0.069   5.540  11.473  0.5026  0.3835  0.2247
   29MOL0     C 3877   0.146   5.550  11.604  0.2996  0.4590  0.1034
   29MOL0     C 3878   0.087   5.633  11.726  0.1792  0.4180  0.8091
   29MOL0     C 3879   0.088   5.779  11.684  0.6687 -0.4363 -0.3881
   29MOL0     C 3880   0.009   5.890  11.761  0.1883  0.4765  0.0474
   29MOL0     N 3881   0.081   5.907  11.885  0.1561 -0.6216 -0.0994
   29MOL0     C 3882   0.065   5.824  11.984  0.7299 -0.9243  0.2410
   29MOL0     C 3883   0.151   5.870  12.083 -0.4363 -0.6282  0.3070
   29MOL0     C 3884   0.174   5.792  12.217  0.0621 -0.3969  0.3969
   29MOL0     C 3885   0.131   5.871  12.338  0.4736 -1.0617 -1.2839
   29MOL0     C 3886   0.220   5.992  12.364 -0.0327  0.6445 -0.6913
   29MOL0     C 3887   0.148   6.075  12.480  0.1255 -0.6082  0.4651
   29MOL0     O 3888   0.021   6.130  12.435 -0.8546  0.6236 -0.4845
   29MOL0     C 3889  -0.077   6.150  12.524 -0.1300 -0.2297 -0.0636
   29MOL0     C 3890  -0.065   6.128  12.661 -0.1264  0.0950 -0.9360
   29MOL0     C 3891  -0.163   6.164  12.752  1.2306  0.0223  0.4360
   29MOL0     C 3892  -0.135   6.133  12.897  0.6526 -0.3734  0.2530
   29MOL0     C 3893  -0.280   6.222  12.708  0.1103 -0.1224  0.0296
   29MOL0     C 3894  -0.393   6.266  12.792 -0.6370  0.4657  0.0404
   29MOL0     O 3895  -0.513   6.237  12.737  0.6391 -0.1606 -0.9325
   29MOL0     C 3896  -0.635   6.252  12.806 -0.3325 -0.2872  0.3729
   29MOL0     C 3897  -0.643   6.205  12.938 -0.5791  0.6119 -0.2945
   29MOL0     C 3898  -0.764   6.218  12.999  0.0894  0.5858 -0.2533
   29MOL0     C 3899  -0.872   6.288  12.939  0.6361  0.1061 -0.1944
   29MOL0     O 3900  -0.998   6.303  12.992 -0.4911 -0.2059 -0.1625
   29MOL0     C 3901  -0.994   6.311  13.138  0.2308  1.2937 -0.1791
   29MOL0     C 3902  -1.122   6.356  13.201  0.0726 -0.2672 -0.0005
   29MOL0     C 3903  -1.126   6.296  13.343  0.9483  0.3218  0.1571
   29MOL0     C 3904  -1.035   6.377  13.436  0.6376  1.2075  0.1650
   29MOL0     C 3905  -1.062   6.321  13.574 -0.5945  0.4130 -0.4912
   29MOL0     C 3906  -0.982   6.391  13.683  0.0092 -0.1404 -0.1106
   29MOL0     C 3907  -1.021   6.379  13.827 -0.0149  0.0362  0.7693
   29MOL0     C 3908  -1.171   6.403  13.864 -0.0803 -0.3572 -0.5861
   29MOL0    Cl 3909  -1.214   6.584  13.871 -0.1844  0.3348  0.2616
   29MOL0     C 3910  -0.853   6.333  12.803 -0.5497  0.8524 -1.4042
   29MOL0     C 3911  -0.729   6.324  12.740 -0.9311 -0.3204 -0.3821
   29MOL0     O 3912  -0.369   6.305  12.904  0.1188  0.4266  0.4587
   29MOL0     C 3913  -0.293   6.245  12.572 -0.8413  0.4777 -0.8682
   29MOL0     C 3914  -0.196   6.206  12.482 -0.3979  0.2552 -0.2087
   29MOL0     N 3915   0.222   5.973  12.033  0.0358  0.0568  0.3746
   29MOL0     N 3916   0.171   6.004  11.918 -0.5249  0.1289  0.5757
   29MOL0     C 3917   0.469   5.968  11.512 -0.7979  0.3430 -0.4547
   29MOL0     C 3918   0.479   6.090  11.586  0.4639 -0.7756 -0.0680
   29MOL0     C 3919   0.451   6.548  11.625  0.8084  0.2260  0.4960
   29MOL0     C 3920   0.533   6.648  11.555  0.0688  0.1775  0.4617
   29MOL0     C 3921   0.536   6.784  11.595  0.0660 -0.4879  0.4101
   29MOL0     C 3922   0.470   6.823  11.717  0.7504  0.9980  1.0600
   29MOL0     O 3923   0.467   6.950  11.756 -0.1469  0.5236 -0.4366
   29MOL0     C 3924   0.360   7.023  11.696  0.0620  0.3255 -0.4028
   29MOL0     C 3925   0.307   7.118  11.804 -0.0764  0.7383  0.0155
   29MOL0     C 3926   0.419   7.219  11.851  0.3708  0.2455  0.3927
   29MOL0     C 3927   0.436   7.225  12.005 -0.6199 -0.5359 -0.5452
   29MOL0     C 3928   0.514   7.343  12.042 -0.3225 -0.3271 -0.3296
   29MOL0     C 3929   0.571   7.439  12.102 -0.3468  0.7165 -0.0464
   29MOL0     C 3930   0.400   6.720  11.790  0.7189  0.9908  0.1788
   29MOL0     C 3931   0.379   6.592  11.745  0.0072 -0.1589  0.1540
   29MOL0     C 3932   0.276   6.502  11.805 -1.3207  0.0266  0.4283
   29MOL0     H 3933   0.185   6.228  11.467 -0.3906 -0.6887  1.0089
   29MOL0     H 3934   0.186   6.037  11.324  1.9832  0.1162 -2.1641
   29MOL0     H 3935   0.189   5.787  11.267 -0.2150 -1.2529 -0.5358
   29MOL0     H 3936   0.212   5.756  11.443  0.2972  3.1111 -0.0591
   29MOL0     H 3937   0.337   5.575  11.238  2.4480 -0.2728  2.1831
   29MOL0     H 3938   0.353   5.576  11.409 -1.3912 -0.5599  0.4444
   29MOL0     H 3939   0.094   5.519  11.258 -1.6424 -0.7820  1.3827
   29MOL0     H 3940   0.191   5.415  11.356  0.0611  1.2978  3.0157
   29MOL0     H 3941   0.007   5.629  11.460  1.0476  0.7292 -0.0266
   29MOL0     H 3942   0.000   5.455  11.482  1.8111 -0.4965  2.9129
   29MOL0     H 3943   0.249   5.584  11.591  0.3117  0.0131 -1.0231
   29MOL0     H 3944   0.150   5.444  11.632  0.7116  0.6561  0.8068
   29MOL0     H 3945  -0.006   5.586  11.760 -0.2906  0.4086 -0.4335
   29MOL0     H 3946   0.147   5.624  11.816 -1.7371 -1.2987  2.0080
   29MOL0     H 3947   0.042   5.791  11.586 -0.1437 -0.1690  0.0193
   29MOL0     H 3948   0.192   5.813  11.678  0.4154  0.6241  0.7666
   29MOL0     H 3949   0.001   5.982  11.702 -1.0748 -1.1533 -2.5492
   29MOL0     H 3950  -0.095   5.860  11.777 -0.0285 -1.3046 -3.6834
   29MOL0     H 3951  -0.002   5.738  11.984  1.6175 -1.6822 -1.8564
   29MOL0     H 3952   0.280   5.762  12.218  0.2003  0.1012  1.4617
   29MOL0     H 3953   0.120   5.697  12.212 -0.0145 -0.3955  1.0967
   29MOL0     H 3954   0.033   5.913  12.314  1.1461  3.3643  2.2619
   29MOL0     H 3955   0.133   5.799  12.420  1.7726 -1.6345 -1.7852
   29MOL0     H 3956   0.321   5.965  12.397 -0.4026 -0.4486 -0.4240
   29MOL0     H 3957   0.246   6.054  12.277 -0.3835  3.1275  0.8778
   29MOL0     H 3958   0.155   6.009  12.567 -3.4771 -0.5941  0.9146
   29MOL0     H 3959   0.213   6.163  12.493  0.5312 -0.6045 -1.3423
   29MOL0     H 3960   0.031   6.093  12.699 -1.1612  1.8455  3.9312
   29MOL0     H 3961  -0.044   6.073  12.907  3.3059  3.5591  2.6238
   29MOL0     H 3962  -0.222   6.094  12.951 -0.6730  0.9943 -0.8023
   29MOL0     H 3963  -0.120   6.224  12.956  1.7212 -2.6129  3.8111
   29MOL0     H 3964  -0.556   6.160  12.985  2.0339 -2.1269 -6.5573
   29MOL0     H 3965  -0.775   6.176  13.099 -2.3242  1.9081  0.1172
   29MOL0     H 3966  -0.966   6.210  13.168  0.5024  0.7156 -2.2015
   29MOL0     H 3967  -0.916   6.383  13.167  2.1068 -0.9880  0.7363
   29MOL0     H 3968  -1.120   6.465  13.211 -1.0796 -0.3135  0.9374
   29MOL0     H 3969  -1.209   6.326  13.142 -1.8678  3.3787  0.6845
   29MOL0     H 3970  -1.109   6.188  13.344 -0.7867 -0.0202 -1.7465
   29MOL0     H 3971  -1.233   6.311  13.362  1.0888  2.6805 -0.6447
   29MOL0     H 3972  -1.064   6.482  13.434  2.8645  1.9267  1.6746
   29MOL0     H 3973  -0.932   6.373  13.397  0.8435 -2.1338  0.7615
   29MOL0     H 3974  -1.168   6.334  13.596 -0.2598  2.3712  0.1358
   29MOL0     H 3975  -1.042   6.213  13.578 -0.9749  0.3534  2.9001
   29MOL0     H 3976  -0.979   6.497  13.656 -0.9242 -0.9770 -4.0798
   29MOL0     H 3977  -0.876   6.366  13.672  0.1932  0.8866 -0.8485
   29MOL0     H 3978  -0.948   6.437  13.884 -0.3458  0.8573  0.3902
   29MOL0     H 3979  -1.010   6.272  13.847 -6.5870 -1.3699 -0.5855
   29MOL0     H 3980  -1.183   6.356  13.962  2.7994 -4.8982 -2.0934
   29MOL0     H 3981  -1.235   6.351  13.792 -0.9112 -1.4656  0.8925
   29MOL0     H 3982  -0.933   6.398  12.768 -2.1699  0.6937  1.6029
   29MOL0     H 3983  -0.713   6.369  12.642 -2.4884  0.4397 -0.3203
   29MOL0     H 3984  -0.374   6.304  12.531 -1.0759 -0.5391 -1.9452
   29MOL0     H 3985  -0.210   6.220  12.375  0.6694 -2.1120 -0.7190
   29MOL0     H 3986   0.550   5.897  11.519  0.2271  1.2316 -2.5001
   29MOL0     H 3987   0.563   6.129  11.642  0.1374  1.3192 -0.9459
   29MOL0     H 3988   0.583   6.623  11.462 -2.8531 -2.9756 -0.4590
   29MOL0     H 3989   0.601   6.856  11.547 -1.0262  0.1986 -0.1037
   29MOL0     H 3990   0.403   7.083  11.617  1.4802  0.4797  0.4584
   29MOL0     H 3991   0.275   6.965  11.658 -1.6615  1.7583  1.0853
   29MOL0     H 3992   0.262   7.066  11.889 -1.7006 -0.7222 -1.6569
   29MOL0     H 3993   0.226   7.177  11.761 -0.6093 -2.1392 -3.4378
   29MOL0     H 3994   0.515   7.191  11.807  0.6473 -0.8100  1.5910
   29MOL0     H 3995   0.398   7.319  11.814 -0.2366  1.3105  3.3290
   29MOL0     H 3996   0.495   7.139  12.040  0.6172 -0.5525 -2.5074
   29MOL0     H 3997   0.337   7.231  12.051 -0.4616  3.3306 -0.4516
   29MOL0     H 3998   0.623   7.507  12.166  1.1966 -1.5551  1.2483
   29MOL0     H 3999   0.352   6.733  11.886  0.4603 -1.1599  0.3881
   29MOL0     H 4000   0.206   6.456  11.735 -1.0942 -3.4281  2.2178
   29MOL0     H 4001   0.330   6.421  11.856  3.5445  1.6007 -1.5657
   29MOL0     H 4002   0.219   6.564  11.875 -0.6984 -0.3840  1.3244
   30MOL0     O 4003  10.207   0.189   6.267  0.0140  0.3246  0.3165
   30MOL0     C 4004  10.290   0.257   6.215  0.4515 -0.5028  0.4990
   30MOL0     O 4005  10.376   0.344   6.283 -0.2614  0.0895  0.4966
   30MOL0     C 4006  10.408   0.320   6.419  0.2216 -0.1584 -0.3846
   30MOL0     C 4007  10.392   0.201   6.487  0.6194 -0.5175  0.6688
   30MOL0     C 4008  10.404   0.185   6.621  0.5239  0.2936  0.1413
   30MOL0     C 4009  10.448   0.291   6.702  0.8177  0.4657  0.8039
   30MOL0     O 4010  10.450   0.303   6.835 -0.1309  0.1450 -0.6025
   30MOL0     C 4011  10.366   0.225   6.915 -0.0873 -0.5888  0.0098
   30MOL0     C 4012  10.380   0.241   7.069  0.0139 -1.1544  0.5829
   30MOL0     C 4013  10.339   0.375   7.138 -0.9408  1.0121 -0.1926
   30MOL0     C 4014  10.336   0.358   7.295 -1.2863  0.5435 -0.5326
   30MOL0     C 4015  10.295   0.487   7.360  0.3313 -0.4118 -0.6856
   30MOL0     C 4016  10.154   0.544   7.334  0.1542 -0.4884 -0.3559
   30MOL0     C 4017  10.143   0.687   7.387  0.5236  0.0181  0.4470
   30MOL0     C 4018  10.009   0.757   7.366  0.7419 -0.1270 -1.2834
   30MOL0     N 4019   9.908   0.717   7.467 -0.7860  0.3042 -0.3015
   30MOL0     C 4020   9.909   0.623   7.569  1.1819  0.6604 -0.3264
   30MOL0     C 4021   9.788   0.634   7.633 -1.0035 -0.2372  0.4861
   30MOL0     C 4022   9.729   0.533   7.726  0.1078 -0.1329  0.3067
   30MOL0     C 4023   9.711   0.604   7.859  1.7517  0.5144  0.1073
   30MOL0     C 4024   9.834   0.667   7.932  0.6058  0.2059 -0.3974
   30MOL0     C 4025   9.882   0.566   8.027  0.1711 -0.6371  0.2123
   30MOL0     O 4026   9.986   0.634   8.106  0.7086  0.0448 -0.5432
   30MOL0     C 4027  10.110   0.636   8.037 -0.6289 -0.7405  0.4579
   30MOL0     C 4028  10.169   0.529   7.970  0.1583  0.2226 -0.4602
   30MOL0     C 4029  10.290   0.531   7.911  0.2953  0.3016  0.7561
   30MOL0     C 4030  10.321   0.411   7.824  0.5601  0.0267  0.3113
   30MOL0     C 4031  10.359   0.654   7.908  0.1988  0.6332 -0.0194
   30MOL0     C 4032  10.489   0.673   7.840  0.0635 -0.4490 -0.2898
   30MOL0     O 4033  10.542   0.801   7.854  0.1056 -0.6120  0.4509
   30MOL0     C 4034  10.674   0.827   7.810  0.1684  0.6514 -1.1972
   30MOL0     C 4035  10.783   0.746   7.853  0.3529 -0.9175 -0.7190
   30MOL0     C 4036  10.909   0.786   7.824 -0.4189 -0.2880  0.4187
   30MOL0     C 4037  10.932   0.892   7.734 -0.4111 -0.4647 -0.5749
   30MOL0     O 4038  11.062   0.921   7.703  1.0641 -0.5552 -0.0705
   30MOL0     C 4039  11.120   1.019   7.796  0.3265 -1.2753  0.4681
   30MOL0     C 4040  11.250   1.091   7.740  1.1472  0.1216  0.0480
   30MOL0     C 4041  11.375   1.009   7.732  0.4233  0.1351  0.0338
   30MOL0     C 4042  11.485   1.105   7.701  0.4053 -0.4074 -0.9335
   30MOL0     C 4043  11.609   1.032   7.638  0.6208 -0.3941  0.4042
   30MOL0     C 4044  11.651   0.912   7.715 -1.1104 -0.6385 -0.2021
   30MOL0     C 4045  11.790   0.861   7.680 -1.9592  0.3143  0.1795
   30MOL0     C 4046  11.796   0.707   7.701 -0.3323 -0.7505  0.7489
   30MOL0    Cl 4047  11.655   0.630   7.606  0.0900  0.4338  0.1630
   30MOL0     C 4048  10.822   0.959   7.680 -0.2176 -0.2827  0.3785
   30MOL0     C 4049  10.693   0.936   7.729 -0.0545 -0.0578 -0.6749
   30MOL0     O 4050  10.550   0.579   7.781 -0.0449 -0.3307  0.2238
   30MOL0     C 4051  10.306   0.767   7.975  0.5597 -0.3158  0.0528
   30MOL0     C 4052  10.190   0.753   8.043 -0.1812  0.1164 -1.3711
   30MOL0     N 4053   9.711   0.733   7.574  0.4675  0.7931 -0.6092
   30MOL0     N 4054   9.781   0.777   7.484  0.2050  1.5893 -0.6417
   30MOL0     C 4055  10.485   0.410   6.634  0.9848 -0.4605  0.2402
   30MOL0     C 4056  10.467   0.426   6.495 -0.7223 -0.1819  0.0665
   30MOL0     C 4057  10.278   0.256   6.074  0.4931 -0.4549  1.3534
   30MOL0     C 4058  10.360   0.180   5.985 -0.3851  0.0726  0.0663
   30MOL0     C 4059  10.341   0.173   5.846 -0.5349  0.2103 -0.0893
   30MOL0     C 4060  10.244   0.258   5.786 -0.4170  0.5601  0.1381
   30MOL0     O 4061  10.256   0.263   5.653  0.3285  0.6909  0.9086
   30MOL0     C 4062  10.149   0.307   5.567 -0.5617  0.2009  1.3304
   30MOL0     C 4063  10.012   0.234   5.608 -0.3652  0.2553 -0.4928
   30MOL0     C 4064   9.917   0.281   5.499  0.2072  0.4114 -0.1708
   30MOL0     C 4065   9.769   0.266   5.539  0.6400  0.4638 -0.1722
   30MOL0     C 4066   9.679   0.343   5.453  0.6693 -0.2590  0.1653
   30MOL0     C 4067   9.613   0.423   5.387 -0.3320  0.0883 -0.5026
   30MOL0     C 4068  10.177   0.347   5.870 -0.1581 -0.5597 -1.3380
   30MOL0     C 4069  10.183   0.345   6.011 -0.4590 -0.3746 -0.2353
   30MOL0     C 4070  10.068   0.424   6.076  0.1581  1.3846  0.2500
   30MOL0     H 4071  10.343   0.117   6.439 -0.4706  0.4265  0.0870
   30MOL0     H 4072  10.381   0.093   6.674 -3.6021  1.3061  0.4491
   30MOL0     H 4073  10.404   0.126   6.889  6.1373  1.8490 -1.9282
   30MOL0     H 4074  10.259   0.243   6.897  0.2562  2.5913  0.5816
   30MOL0     H 4075  10.315   0.165   7.114  0.4025 -2.6102 -1.1665
   30MOL0     H 4076  10.485   0.225   7.095  1.7956  2.6561 -2.9898
   30MOL0     H 4077  10.418   0.447   7.113  1.9503 -1.7487  0.3499
   30MOL0     H 4078  10.238   0.388   7.098 -1.1543 -2.5366 -1.0763
   30MOL0     H 4079  10.269   0.274   7.317 -0.3116  0.0367  0.6320
   30MOL0     H 4080  10.439   0.334   7.320 -0.9998 -0.9495 -2.8539
   30MOL0     H 4081  10.351   0.564   7.306 -1.1605  0.9192 -0.4293
   30MOL0     H 4082  10.322   0.473   7.465  1.9870  0.9672 -0.8782
   30MOL0     H 4083  10.148   0.545   7.225  1.5508 -0.8673 -0.4552
   30MOL0     H 4084  10.070   0.486   7.373 -1.9081  3.3979  1.5531
   30MOL0     H 4085  10.221   0.742   7.334 -1.1690  1.0370 -1.0990
   30MOL0     H 4086  10.158   0.692   7.495 -0.8315  1.7045  0.5985
   30MOL0     H 4087  10.028   0.864   7.358  0.9678 -0.2745 -3.1438
   30MOL0     H 4088   9.951   0.731   7.277 -0.9342 -1.0644 -0.0010
   30MOL0     H 4089   9.987   0.553   7.597 -1.4379 -2.1923  0.4696
   30MOL0     H 4090   9.792   0.446   7.744 -1.5918 -1.5123 -0.1826
   30MOL0     H 4091   9.635   0.489   7.692  0.3241 -0.5946  0.3061
   30MOL0     H 4092   9.656   0.690   7.822 -1.6302 -2.6215 -3.0081
   30MOL0     H 4093   9.641   0.553   7.927  2.1118 -0.7829 -0.4570
   30MOL0     H 4094   9.921   0.682   7.868  0.1123 -1.6949 -1.5982
   30MOL0     H 4095   9.816   0.760   7.987  2.2657 -0.2382  0.9858
   30MOL0     H 4096   9.803   0.548   8.101 -0.4806 -2.5658 -0.8856
   30MOL0     H 4097   9.912   0.473   7.977 -1.2374 -1.7923  1.4130
   30MOL0     H 4098  10.119   0.433   7.965  1.4798 -0.7975  2.8773
   30MOL0     H 4099  10.282   0.318   7.864  3.6111 -1.7159 -0.3902
   30MOL0     H 4100  10.428   0.387   7.817  0.1223 -1.5373 -2.1011
   30MOL0     H 4101  10.294   0.435   7.721  1.6720  2.6261  0.5282
   30MOL0     H 4102  10.760   0.666   7.922 -0.0050  2.3679  3.3374
   30MOL0     H 4103  10.993   0.735   7.871 -0.5735 -1.4230 -0.4872
   30MOL0     H 4104  11.048   1.093   7.833 -0.5511 -1.8392 -0.0614
   30MOL0     H 4105  11.152   0.961   7.883  0.8178 -0.6551  0.7016
   30MOL0     H 4106  11.234   1.133   7.641  3.2782  1.4763  0.2043
   30MOL0     H 4107  11.269   1.175   7.808 -1.5721 -0.2649  1.4396
   30MOL0     H 4108  11.370   0.940   7.647 -1.7253  2.7302 -2.1221
   30MOL0     H 4109  11.388   0.957   7.828 -0.6999 -0.6815 -0.2371
   30MOL0     H 4110  11.501   1.155   7.797  0.8406 -2.4916  0.1274
   30MOL0     H 4111  11.453   1.172   7.621 -1.1128  1.6057  1.2259
   30MOL0     H 4112  11.587   0.996   7.537 -1.6238  4.5641 -1.1980
   30MOL0     H 4113  11.699   1.094   7.645  1.2440 -1.2973  0.4904
   30MOL0     H 4114  11.571   0.839   7.702 -0.8811 -0.6634 -1.5508
   30MOL0     H 4115  11.652   0.944   7.820 -1.0783  2.7598 -1.1257
   30MOL0     H 4116  11.860   0.906   7.751 -3.4424 -0.3290  2.1343
   30MOL0     H 4117  11.813   0.888   7.577  1.2647  1.1258  0.9966
   30MOL0     H 4118  11.790   0.676   7.805 -0.1848 -0.6941  0.7737
   30MOL0     H 4119  11.892   0.675   7.660  1.7665  3.0182  2.1926
   30MOL0     H 4120  10.838   1.021   7.593 -1.7697 -1.5482 -0.8818
   30MOL0     H 4121  10.605   0.989   7.696 -2.0696 -3.0561 -0.5242
   30MOL0     H 4122  10.352   0.864   7.985  1.5880 -0.5043 -2.2168
   30MOL0     H 4123  10.154   0.838   8.100  1.5930  0.2921 -0.4435
   30MOL0     H 4124  10.508   0.506   6.680  0.1617  0.3861 -1.0558
   30MOL0     H 4125  10.505   0.517   6.451  2.0236  2.5993  6.7732
   30MOL0     H 4126  10.426   0.109   6.034  0.6591  0.9401 -0.0496
   30MOL0     H 4127  10.411   0.110   5.794 -0.1423  1.8067 -1.5940
   30MOL0     H 4128  10.141   0.416   5.559  1.3590  0.2647 -0.4647
   30MOL0     H 4129  10.174   0.271   5.467  1.8033  2.1475  1.1198
   30MOL0     H 4130   9.985   0.276   5.706  1.1006  0.6218 -0.2263
   30MOL0     H 4131  10.023   0.126   5.620  4.3096  0.4450 -1.5012
   30MOL0     H 4132   9.926   0.388   5.478 -2.5005  1.3000  2.5078
   30MOL0     H 4133   9.925   0.215   5.412 -3.3617 -0.9353  0.3551
   30MOL0     H 4134   9.762   0.302   5.642 -2.7170  0.5113 -0.3080
   30MOL0     H 4135   9.737   0.161   5.542  0.6091  0.4850  1.5142
   30MOL0     H 4136   9.551   0.496   5.338 -1.9540 -0.0083  1.2721
   30MOL0     H 4137  10.110   0.421   5.827 -0.9523  0.7954  1.9329
   30MOL0     H 4138   9.970   0.379   6.064  1.8639 -2.7176  0.0831
   30MOL0     H 4139  10.087   0.440   6.183  0.1094  1.6947  0.2130
   30MOL0     H 4140  10.057   0.524   6.033  0.8604  0.7038 -1.6137
   31MOL0     O 4141   3.966   5.049   1.971 -0.0264  0.0299 -0.6291
   31MOL0     C 4142   3.941   5.173   1.962 -0.3444 -0.6845  1.3458
   31MOL0     O 4143   3.965   5.247   1.842 -0.7437  0.1846 -0.1135
   31MOL0     C 4144   3.975   5.196   1.717 -0.5518 -0.4961  0.3061
   31MOL0     C 4145   3.949   5.052   1.676 -0.5931  0.1677  0.5604
   31MOL0     C 4146   3.944   5.033   1.542 -0.6501  0.6879 -0.9429
   31MOL0     C 4147   3.963   5.129   1.450 -0.2855 -0.6638  0.0668
   31MOL0     O 4148   3.982   5.077   1.323 -0.0270 -0.1450 -0.5297
   31MOL0     C 4149   4.027   5.176   1.216  0.0904 -0.0848 -0.6641
   31MOL0     C 4150   3.989   5.110   1.088  0.3032  1.0785  0.7570
   31MOL0     C 4151   3.842   5.104   1.063 -0.2786  0.3742 -0.0691
   31MOL0     C 4152   3.812   5.066   0.922 -0.2474 -0.2978 -0.9065
   31MOL0     C 4153   3.670   5.086   0.879 -0.4599  0.5445  1.1528
   31MOL0     C 4154   3.647   5.233   0.840 -0.4127  0.8129  0.3491
   31MOL0     C 4155   3.511   5.238   0.758 -0.6588 -0.3861 -0.2080
   31MOL0     C 4156   3.514   5.176   0.611  1.5482  0.0709 -0.9072
   31MOL0     N 4157   3.371   5.169   0.547 -0.5090 -0.5500  0.8381
   31MOL0     C 4158   3.326   5.272   0.468  0.2548 -0.3180  0.1532
   31MOL0     C 4159   3.192   5.273   0.479  0.6020  0.0431  0.2636
   31MOL0     C 4160   3.113   5.384   0.411  0.4253 -0.4669 -0.5491
   31MOL0     C 4161   3.151   5.410   0.271 -0.3703 -0.3499  0.0071
   31MOL0     C 4162   3.070   5.530   0.212 -0.0257 -0.2693 -0.2159
   31MOL0     C 4163   3.125   5.674   0.241  0.9407 -0.2180  0.2731
   31MOL0     O 4164   3.073   5.778   0.150  0.2662  0.9089 -0.5378
   31MOL0     C 4165   3.148   5.885   0.119 -0.4672 -0.3514 -0.6871
   31MOL0     C 4166   3.284   5.905   0.155  0.2249  0.2763 -0.6928
   31MOL0     C 4167   3.360   6.015   0.110  1.0218  0.2625 -0.6194
   31MOL0     C 4168   3.508   6.001   0.125 -0.4739  0.0529 -0.4016
   31MOL0     C 4169   3.293   6.128   0.047 -0.4961 -0.1916  0.4152
   31MOL0     C 4170   3.352   6.258   0.002  0.3808  0.0043 -0.8258
   31MOL0     O 4171   3.261   6.361  -0.015 -0.5009  0.6222 -0.6759
   31MOL0     C 4172   3.314   6.483  -0.040  0.2927  0.5776  0.9919
   31MOL0     C 4173   3.372   6.561   0.061 -1.1650  0.9659 -0.4100
   31MOL0     C 4174   3.462   6.668   0.027  0.5617  0.6246  0.2192
   31MOL0     C 4175   3.478   6.709  -0.105 -0.0092  0.0637 -0.6919
   31MOL0     O 4176   3.546   6.833  -0.118  0.3744  0.0281 -0.3073
   31MOL0     C 4177   3.578   6.893  -0.246  0.9608  0.1392  0.6658
   31MOL0     C 4178   3.666   7.016  -0.232 -0.6737 -0.7896  0.6849
   31MOL0     C 4179   3.690   7.108  -0.351 -0.6924  0.1929 -0.4427
   31MOL0     C 4180   3.563   7.158  -0.415 -0.5850  0.8076  0.8745
   31MOL0     C 4181   3.598   7.222  -0.550  0.6775 -0.0635 -0.4800
   31MOL0     C 4182   3.454   7.263  -0.609  0.4613 -0.7115  0.3638
   31MOL0     C 4183   3.454   7.369  -0.713  0.1868  0.1065  0.1445
   31MOL0     C 4184   3.531   7.338  -0.840 -0.9900  0.3792 -0.1062
   31MOL0    Cl 4185   3.697   7.375  -0.830  0.2255  0.3335  0.0522
   31MOL0     C 4186   3.402   6.641  -0.202 -0.6703 -1.2705  0.4257
   31MOL0     C 4187   3.329   6.525  -0.173  0.8327 -0.4326 -0.1348
   31MOL0     O 4188   3.471   6.270  -0.005 -0.9700 -0.4723 -0.1882
   31MOL0     C 4189   3.150   6.113   0.025 -0.4497 -0.1368 -0.4638
   31MOL0     C 4190   3.083   5.992   0.061 -0.2643 -0.0395 -0.9514
   31MOL0     N 4191   3.159   5.177   0.577  0.4623  0.7405  0.4380
   31MOL0     N 4192   3.269   5.116   0.617  0.0422 -0.1337 -0.0972
   31MOL0     C 4193   4.000   5.260   1.485 -0.5128  0.4361 -0.4324
   31MOL0     C 4194   3.989   5.292   1.617 -0.9427 -0.8009  0.4365
   31MOL0     C 4195   3.919   5.257   2.081  0.0864  0.3405  0.6550
   31MOL0     C 4196   3.844   5.368   2.054 -0.6752 -0.7782 -0.0421
   31MOL0     C 4197   3.818   5.462   2.161 -0.5186 -0.5561  0.4671
   31MOL0     C 4198   3.850   5.431   2.297  1.0983  0.1996  0.9339
   31MOL0     O 4199   3.822   5.520   2.402  0.1559 -0.7990 -0.2790
   31MOL0     C 4200   3.845   5.495   2.541 -0.0404  0.3135 -0.4499
   31MOL0     C 4201   3.720   5.438   2.602  0.4825 -0.5356 -0.0067
   31MOL0     C 4202   3.665   5.297   2.564  0.0500  0.6120 -0.1620
   31MOL0     C 4203   3.632   5.217   2.693  0.6563 -0.6231  0.1622
   31MOL0     C 4204   3.763   5.187   2.749 -0.3531  0.0523  0.8678
   31MOL0     C 4205   3.871   5.159   2.803  0.1507  0.1377  0.0955
   31MOL0     C 4206   3.924   5.317   2.319  0.1586  0.0007 -0.5562
   31MOL0     C 4207   3.949   5.227   2.209  0.6018 -0.3541 -0.2237
   31MOL0     C 4208   4.027   5.107   2.246 -0.4880  0.4313  0.1841
   31MOL0     H 4209   3.927   4.969   1.742  4.9370 -1.7861  0.4829
   31MOL0     H 4210   3.928   4.928   1.519 -0.7189  0.9266 -2.0419
   31MOL0     H 4211   4.135   5.192   1.222  0.2325 -0.8658 -0.9495
   31MOL0     H 4212   3.972   5.270   1.220 -2.0267 -1.3016  0.5481
   31MOL0     H 4213   4.043   5.158   1.006  1.6265 -0.5977  0.5837
   31MOL0     H 4214   4.022   5.006   1.097  0.6530  1.2343  1.3465
   31MOL0     H 4215   3.810   5.015   1.119  2.5513 -0.5496  0.2635
   31MOL0     H 4216   3.784   5.188   1.102  1.1430 -0.4043  4.4354
   31MOL0     H 4217   3.884   5.120   0.860 -0.8964  4.1653  1.8262
   31MOL0     H 4218   3.834   4.959   0.910 -1.1963 -0.7346  0.9259
   31MOL0     H 4219   3.590   5.049   0.944 -0.5091  1.9730  1.9225
   31MOL0     H 4220   3.671   5.030   0.785  1.7619  0.8864  0.9221
   31MOL0     H 4221   3.658   5.299   0.927 -1.5291 -0.3821  1.4455
   31MOL0     H 4222   3.722   5.260   0.765 -0.0193  1.9550  1.1275
   31MOL0     H 4223   3.479   5.342   0.750 -1.1747 -0.2085  2.7413
   31MOL0     H 4224   3.433   5.189   0.817 -0.3115 -1.0263 -0.2686
   31MOL0     H 4225   3.576   5.244   0.551  1.4788  0.4421 -0.5642
   31MOL0     H 4226   3.566   5.080   0.605  0.3847 -0.6282 -0.1359
   31MOL0     H 4227   3.385   5.339   0.406  4.4172 -1.7116  2.1971
   31MOL0     H 4228   3.118   5.473   0.474 -0.7723  0.0998 -1.2371
   31MOL0     H 4229   3.007   5.359   0.400  0.0982  1.7043 -3.4990
   31MOL0     H 4230   3.251   5.454   0.269 -1.7406  3.1210 -0.3570
   31MOL0     H 4231   3.143   5.323   0.206 -1.2917  0.9990 -1.7856
   31MOL0     H 4232   3.071   5.516   0.103 -0.5268  1.4345 -0.4676
   31MOL0     H 4233   2.971   5.523   0.259  0.4308 -3.0293  0.4964
   31MOL0     H 4234   3.114   5.697   0.348 -1.8785 -1.6150  0.3871
   31MOL0     H 4235   3.230   5.652   0.225  1.0277  1.5617 -2.0226
   31MOL0     H 4236   3.344   5.832   0.209  0.2892  1.9245  1.5943
   31MOL0     H 4237   3.542   5.917   0.063 -1.4432  0.4712 -1.5598
   31MOL0     H 4238   3.541   5.977   0.226  0.9499  1.1413 -0.5713
   31MOL0     H 4239   3.572   6.085   0.096  1.1159 -0.3130  1.8462
   31MOL0     H 4240   3.373   6.522   0.162  3.6851 -0.0844 -0.6237
   31MOL0     H 4241   3.504   6.719   0.113 -2.3221  0.6728  1.7093
   31MOL0     H 4242   3.626   6.817  -0.308 -1.2405  0.0063 -0.9985
   31MOL0     H 4243   3.486   6.927  -0.294  1.2428  0.9840  0.7153
   31MOL0     H 4244   3.610   7.093  -0.178  1.4724 -1.1993  3.7766
   31MOL0     H 4245   3.758   6.982  -0.185 -0.7276 -3.1663 -0.7775
   31MOL0     H 4246   3.754   7.064  -0.427 -0.6314 -1.0927  0.3183
   31MOL0     H 4247   3.754   7.188  -0.315  2.6602 -2.2380 -0.5611
   31MOL0     H 4248   3.505   7.228  -0.353  1.3765  0.9008  2.6926
   31MOL0     H 4249   3.504   7.070  -0.441  3.4671 -1.8477 -0.1658
   31MOL0     H 4250   3.653   7.316  -0.548  1.1593 -0.3506 -0.1876
   31MOL0     H 4251   3.653   7.153  -0.614  0.4451 -0.3411 -0.3816
   31MOL0     H 4252   3.393   7.310  -0.532 -4.0302  1.0842 -3.7447
   31MOL0     H 4253   3.407   7.173  -0.649  1.8921 -2.5916  2.6338
   31MOL0     H 4254   3.498   7.463  -0.678 -2.2231  0.7518  1.6471
   31MOL0     H 4255   3.350   7.397  -0.734  0.3464  2.2510  1.8931
   31MOL0     H 4256   3.485   7.393  -0.922 -0.3000 -2.1099 -2.3287
   31MOL0     H 4257   3.513   7.232  -0.864 -0.1176  0.0143  0.7914
   31MOL0     H 4258   3.405   6.673  -0.306 -0.0745 -1.9325  0.2299
   31MOL0     H 4259   3.277   6.482  -0.258  2.4947 -0.2960 -1.2692
   31MOL0     H 4260   3.088   6.193  -0.016  1.4243  1.0170 -1.1539
   31MOL0     H 4261   2.976   5.999   0.049 -0.0558 -0.6403 -4.1281
   31MOL0     H 4262   4.026   5.342   1.418  0.1452  1.6047  1.1951
   31MOL0     H 4263   4.005   5.398   1.637 -1.1523 -0.0588 -2.7961
   31MOL0     H 4264   3.808   5.398   1.956 -0.3693  1.6557  0.5286
   31MOL0     H 4265   3.764   5.551   2.133  1.7631  0.7366 -0.0335
   31MOL0     H 4266   3.924   5.422   2.559  0.0399  0.4341 -0.3096
   31MOL0     H 4267   3.849   5.595   2.587 -4.5520  1.0238 -1.1458
   31MOL0     H 4268   3.639   5.511   2.593  1.2386  0.7764  2.6865
   31MOL0     H 4269   3.743   5.451   2.708 -1.6077 -1.1306  0.5742
   31MOL0     H 4270   3.568   5.297   2.515  0.6972  0.3477 -1.4959
   31MOL0     H 4271   3.746   5.245   2.511  1.0507  0.3831  1.5008
   31MOL0     H 4272   3.590   5.118   2.671  0.1625 -0.1065 -1.3244
   31MOL0     H 4273   3.571   5.273   2.764 -0.1600 -0.2115 -0.8347
   31MOL0     H 4274   3.966   5.149   2.853  0.9850  0.5882 -1.3214
   31MOL0     H 4275   3.959   5.288   2.418  0.5515 -0.2925 -0.7781
   31MOL0     H 4276   4.066   5.106   2.348 -0.1720 -0.7508  0.0679
   31MOL0     H 4277   3.953   5.026   2.243 -0.9970  0.7235  2.7387
   31MOL0     H 4278   4.114   5.088   2.182 -2.1086 -2.2216 -1.4247
   32MOL0     O 4279   4.457   5.056  10.403 -0.3711  0.1773  0.3290
   32MOL0     C 4280   4.502   5.050  10.518 -0.2686  0.4024 -0.3175
   32MOL0     O 4281   4.545   4.936  10.582  0.3445 -0.1307  0.4483
   32MOL0     C 4282   4.570   4.835  10.503 -0.4359  0.1935 -0.7480
   32MOL0     C 4283   4.696   4.826  10.432 -0.6846 -0.9505 -0.3088
   32MOL0     C 4284   4.728   4.727  10.333 -0.4962  0.2675  0.8813
   32MOL0     C 4285   4.631   4.633  10.304 -0.0346  0.5467 -0.1620
   32MOL0     O 4286   4.661   4.539  10.202 -0.0222 -0.4249 -0.9957
   32MOL0     C 4287   4.559   4.451  10.165  0.4076  0.4010  0.1090
   32MOL0     C 4288   4.603   4.352  10.058  0.1469  0.2815 -0.5569
   32MOL0     C 4289   4.478   4.286   9.994 -0.4223  0.5495  0.0036
   32MOL0     C 4290   4.519   4.167   9.910  0.0217  1.0679  0.4100
   32MOL0     C 4291   4.462   4.161   9.773 -0.0375 -0.0840  0.0684
   32MOL0     C 4292   4.535   4.054   9.684  0.3057 -1.3113  0.6221
   32MOL0     C 4293   4.460   4.029   9.558  0.2066  0.4569 -0.1762
   32MOL0     C 4294   4.453   4.137   9.454  0.5072  0.1410  0.2958
   32MOL0     N 4295   4.366   4.092   9.348  0.4719  0.8566  0.3061
   32MOL0     C 4296   4.310   4.168   9.242  0.6000 -0.1420  0.1667
   32MOL0     C 4297   4.252   4.065   9.167 -0.5292  0.7531 -0.1634
   32MOL0     C 4298   4.192   4.081   9.037  0.5498  0.2394 -0.3237
   32MOL0     C 4299   4.298   4.099   8.921  0.7276 -0.9507 -0.8533
   32MOL0     C 4300   4.238   4.173   8.801 -0.1470 -0.6065 -1.0400
   32MOL0     C 4301   4.325   4.162   8.669  0.3237 -0.2659 -0.8310
   32MOL0     O 4302   4.453   4.217   8.686 -0.2523 -0.1513 -0.6611
   32MOL0     C 4303   4.488   4.326   8.610  0.2942  0.8094  0.8097
   32MOL0     C 4304   4.626   4.347   8.594  0.1483  0.4387  0.1485
   32MOL0     C 4305   4.679   4.452   8.523 -0.5358 -0.2139  0.0534
   32MOL0     C 4306   4.825   4.445   8.504  0.4544 -0.4773 -0.8940
   32MOL0     C 4307   4.588   4.555   8.480 -0.3281 -0.2677 -0.5694
   32MOL0     C 4308   4.627   4.680   8.424  1.0122 -0.4681  0.1587
   32MOL0     O 4309   4.746   4.682   8.355  0.2688 -0.0766 -0.5161
   32MOL0     C 4310   4.789   4.789   8.279 -0.1202 -0.5020 -0.4382
   32MOL0     C 4311   4.752   4.927   8.274 -0.2531 -0.0701 -0.3767
   32MOL0     C 4312   4.815   5.024   8.196  0.2759 -0.2982  0.7263
   32MOL0     C 4313   4.929   4.991   8.123  0.4484  0.3166 -1.1132
   32MOL0     O 4314   5.012   5.075   8.053  0.5722  0.3012  0.8147
   32MOL0     C 4315   5.005   5.213   8.086 -1.7928  0.3561  0.5343
   32MOL0     C 4316   5.113   5.296   8.020 -0.1356  0.0074  0.4114
   32MOL0     C 4317   5.089   5.292   7.868 -0.0053 -0.2839 -0.1585
   32MOL0     C 4318   5.211   5.362   7.794 -0.0856 -0.4796 -0.6781
   32MOL0     C 4319   5.335   5.287   7.759 -0.0982  0.1582 -0.6733
   32MOL0     C 4320   5.452   5.382   7.742 -0.2867  0.5680 -0.8616
   32MOL0     C 4321   5.577   5.314   7.723  0.4903 -0.2204 -0.2454
   32MOL0     C 4322   5.613   5.250   7.582  0.1080  1.3351 -0.2674
   32MOL0    Cl 4323   5.498   5.285   7.452 -0.1169  0.3203 -0.2644
   32MOL0     C 4324   4.962   4.856   8.125  0.2658  0.6593  0.8492
   32MOL0     C 4325   4.895   4.753   8.197 -0.4046 -1.3464  0.4393
   32MOL0     O 4326   4.543   4.770   8.420 -0.3657  0.2146 -0.9129
   32MOL0     C 4327   4.444   4.525   8.491 -0.7299  0.1521  0.4439
   32MOL0     C 4328   4.401   4.419   8.559  0.1383  0.2503 -0.3396
   32MOL0     N 4329   4.288   3.940   9.207  0.2842  0.3722  0.1131
   32MOL0     N 4330   4.357   3.956   9.310 -0.0092 -0.5193 -0.1384
   32MOL0     C 4331   4.498   4.649  10.365  0.7556  0.3132  0.0465
   32MOL0     C 4332   4.472   4.736  10.472  0.7221  0.9009 -0.3221
   32MOL0     C 4333   4.489   5.173  10.603  0.6197  0.1082  0.4487
   32MOL0     C 4334   4.514   5.162  10.739 -0.0831  0.7441 -0.3599
   32MOL0     C 4335   4.541   5.279  10.819  0.5625 -0.2966 -0.2258
   32MOL0     C 4336   4.523   5.408  10.767 -0.8093 -0.1161  0.3288
   32MOL0     O 4337   4.524   5.520  10.844  0.2076 -0.4983  0.2363
   32MOL0     C 4338   4.545   5.508  10.994 -0.5860 -0.3156  1.0514
   32MOL0     C 4339   4.532   5.654  11.047 -0.0915 -0.1280  0.0589
   32MOL0     C 4340   4.645   5.736  10.992 -1.2563 -0.0853  0.4649
   32MOL0     C 4341   4.670   5.846  11.089 -0.4139 -0.3422  0.5351
   32MOL0     C 4342   4.571   5.953  11.083 -0.4376 -0.3434  0.3479
   32MOL0     C 4343   4.486   6.035  11.054  0.5635 -0.7697  0.1927
   32MOL0     C 4344   4.486   5.417  10.635  0.7413  0.3819 -0.7488
   32MOL0     C 4345   4.474   5.303  10.551  1.1060 -0.1651 -0.0460
   32MOL0     C 4346   4.442   5.334  10.405 -0.3621  0.5002  0.0674
   32MOL0     H 4347   4.765   4.904  10.464 -1.9374 -1.1154  3.2681
   32MOL0     H 4348   4.824   4.732  10.283 -1.1876 -2.5114 -0.9256
   32MOL0     H 4349   4.491   4.525  10.122  2.3916  2.1349 -0.2382
   32MOL0     H 4350   4.525   4.396  10.253 -0.3638  0.1505 -0.3438
   32MOL0     H 4351   4.664   4.394   9.978 -1.8698  2.4208 -1.0983
   32MOL0     H 4352   4.660   4.278  10.115 -1.7479 -1.0781 -0.3094
   32MOL0     H 4353   4.404   4.264  10.072 -2.9923  1.2017 -2.1332
   32MOL0     H 4354   4.438   4.362   9.926  1.3817  0.4858 -1.2090
   32MOL0     H 4355   4.626   4.148   9.913 -0.1759 -0.8402 -1.5105
   32MOL0     H 4356   4.478   4.075   9.954  1.5762  0.2263  0.1804
   32MOL0     H 4357   4.477   4.258   9.724  1.2277 -1.2603 -2.0290
   32MOL0     H 4358   4.354   4.142   9.775 -0.7418  3.2493  1.7863
   32MOL0     H 4359   4.630   4.098   9.653 -1.7460  2.0148 -1.5675
   32MOL0     H 4360   4.544   3.958   9.735 -1.3344 -2.3117 -0.8631
   32MOL0     H 4361   4.359   4.000   9.587  0.8882 -0.3710  1.5090
   32MOL0     H 4362   4.501   3.944   9.502 -3.7499  0.6790 -3.9744
   32MOL0     H 4363   4.414   4.228   9.501 -1.7241 -1.8505  2.5649
   32MOL0     H 4364   4.554   4.162   9.418 -0.8132  2.2140 -2.4137
   32MOL0     H 4365   4.297   4.275   9.225  0.7875 -0.4781 -2.6989
   32MOL0     H 4366   4.138   4.176   9.031  4.4106  2.5997 -2.1127
   32MOL0     H 4367   4.123   4.001   9.012  2.2733 -1.4966  0.2149
   32MOL0     H 4368   4.375   4.166   8.960 -0.6603  1.2748 -1.7852
   32MOL0     H 4369   4.345   4.001   8.906  4.1628 -0.0568  2.4552
   32MOL0     H 4370   4.145   4.120   8.781  0.5114 -2.0533 -0.3939
   32MOL0     H 4371   4.213   4.272   8.840  2.1439 -0.2166 -0.3608
   32MOL0     H 4372   4.347   4.055   8.663 -2.0147 -1.3716  4.5728
   32MOL0     H 4373   4.276   4.194   8.577 -2.5214 -0.3199  0.5684
   32MOL0     H 4374   4.685   4.258   8.615 -1.0327 -1.1340 -2.7334
   32MOL0     H 4375   4.850   4.408   8.404  2.0843 -0.0119 -0.6790
   32MOL0     H 4376   4.855   4.390   8.593 -1.7700  3.1274  2.3800
   32MOL0     H 4377   4.879   4.538   8.521  1.4962 -1.3873  1.0945
   32MOL0     H 4378   4.663   4.944   8.333  0.5718 -0.0538  0.9110
   32MOL0     H 4379   4.777   5.125   8.193 -0.7349 -0.6855 -1.7639
   32MOL0     H 4380   4.911   5.248   8.042 -0.9989  0.3018 -1.2864
   32MOL0     H 4381   5.010   5.230   8.195 -1.9145  1.5068  0.3812
   32MOL0     H 4382   5.113   5.399   8.058  0.2796  2.1999 -4.7322
   32MOL0     H 4383   5.207   5.250   8.052 -1.4997 -1.1287  3.0622
   32MOL0     H 4384   4.992   5.336   7.842 -0.2944 -1.0674 -0.4349
   32MOL0     H 4385   5.088   5.185   7.846  0.4549 -0.5123  0.8689
   32MOL0     H 4386   5.226   5.446   7.863 -0.4754 -0.5033 -0.5599
   32MOL0     H 4387   5.167   5.401   7.702 -1.5639 -2.0733 -0.6933
   32MOL0     H 4388   5.358   5.206   7.829  0.0586 -0.8195 -1.8145
   32MOL0     H 4389   5.308   5.238   7.665 -1.2814  1.2092 -0.9101
   32MOL0     H 4390   5.454   5.440   7.835  0.7371 -1.3538  0.3923
   32MOL0     H 4391   5.419   5.451   7.664 -2.9359 -0.3048 -0.6346
   32MOL0     H 4392   5.592   5.240   7.802  0.6073 -0.3217 -0.3623
   32MOL0     H 4393   5.635   5.406   7.731  1.2528 -0.2108 -3.8908
   32MOL0     H 4394   5.627   5.144   7.603  0.8578  1.6287  0.8092
   32MOL0     H 4395   5.710   5.297   7.559  0.7996  0.9300  1.6551
   32MOL0     H 4396   5.055   4.830   8.077 -0.5051 -0.3149 -0.1577
   32MOL0     H 4397   4.930   4.651   8.202  1.3795 -0.7458  1.0434
   32MOL0     H 4398   4.374   4.601   8.459 -0.5373  0.7102  1.3290
   32MOL0     H 4399   4.296   4.404   8.580  0.0079 -1.0191 -1.8012
   32MOL0     H 4400   4.412   4.588  10.338  1.4785 -0.3664 -0.7811
   32MOL0     H 4401   4.375   4.745  10.520 -0.8525 -0.4974 -3.0269
   32MOL0     H 4402   4.513   5.065  10.789 -1.8710  0.1793 -1.4023
   32MOL0     H 4403   4.589   5.261  10.914 -0.9710 -0.2597  0.5850
   32MOL0     H 4404   4.475   5.435  11.037 -2.0740  0.3611 -0.1490
   32MOL0     H 4405   4.641   5.458  11.011 -1.9219 -4.6086 -2.0832
   32MOL0     H 4406   4.539   5.649  11.156 -0.6761 -0.4716  0.0842
   32MOL0     H 4407   4.431   5.695  11.035  0.8600  2.4893  0.2049
   32MOL0     H 4408   4.737   5.677  10.988 -0.7071  0.7437  0.4677
   32MOL0     H 4409   4.628   5.776  10.891  3.3166 -0.2104 -0.5950
   32MOL0     H 4410   4.766   5.897  11.073 -0.2278 -0.1672  2.0748
   32MOL0     H 4411   4.686   5.807  11.190 -0.3713  0.1350  0.7164
   32MOL0     H 4412   4.393   6.087  11.042 -0.1351 -2.2185 -0.9714
   32MOL0     H 4413   4.463   5.520  10.609  2.8086  0.5155 -2.3084
   32MOL0     H 4414   4.345   5.289  10.380 -0.4372  0.1957  0.8440
   32MOL0     H 4415   4.438   5.441  10.382  0.2310  0.0347 -2.5123
   32MOL0     H 4416   4.514   5.285  10.340  0.0048 -0.4774  1.1644
   33MOL0     O 4417   3.331  11.226   7.998  0.1236  0.0384  0.6227
   33MOL0     C 4418   3.370  11.123   8.044 -0.8007  1.3594  1.3671
   33MOL0     O 4419   3.377  11.005   7.967 -0.5171 -0.0163 -0.6037
   33MOL0     C 4420   3.309  11.000   7.846  1.7619 -0.0066  0.3195
   33MOL0     C 4421   3.371  11.025   7.720 -0.0294  0.4286 -0.8527
   33MOL0     C 4422   3.295  11.032   7.598 -1.1842  0.1526 -0.9533
   33MOL0     C 4423   3.158  11.003   7.614 -0.1534  0.3526 -0.0778
   33MOL0     O 4424   3.088  11.018   7.498  0.1225 -0.2119  0.1444
   33MOL0     C 4425   2.939  11.027   7.496 -0.6336  0.2241  0.5107
   33MOL0     C 4426   2.863  11.041   7.365  0.2010  0.1110 -0.5452
   33MOL0     C 4427   2.939  11.139   7.274 -0.0343  0.4321 -0.3410
   33MOL0     C 4428   2.859  11.135   7.143  0.2501 -0.2803  0.5668
   33MOL0     C 4429   2.951  11.201   7.039 -0.5464  0.4802 -0.9893
   33MOL0     C 4430   2.883  11.182   6.898  0.1623  0.2112  0.6439
   33MOL0     C 4431   2.961  11.229   6.780  0.4774 -0.3949  0.5242
   33MOL0     C 4432   3.040  11.361   6.793 -0.9240 -0.6328 -0.2147
   33MOL0     N 4433   3.150  11.373   6.690 -0.6484  0.4016  0.6361
   33MOL0     C 4434   3.133  11.412   6.553  0.5964  0.3497 -0.0748
   33MOL0     C 4435   3.259  11.409   6.501 -0.3864  0.3067 -0.5642
   33MOL0     C 4436   3.316  11.464   6.373  0.1915  0.2251 -0.0149
   33MOL0     C 4437   3.285  11.364   6.258 -0.2876  0.0218 -1.2676
   33MOL0     C 4438   3.293  11.442   6.128 -0.5726  0.4707 -0.6639
   33MOL0     C 4439   3.243  11.364   6.003 -0.6012 -0.6326  0.6694
   33MOL0     O 4440   3.342  11.261   5.973 -0.3042  0.2337 -0.8736
   33MOL0     C 4441   3.397  11.255   5.854  0.6001 -0.5648  1.2190
   33MOL0     C 4442   3.531  11.255   5.840 -0.1103  0.5847 -0.0089
   33MOL0     C 4443   3.593  11.231   5.718 -0.2056  0.0073  0.7200
   33MOL0     C 4444   3.745  11.247   5.709  0.4628  0.5000 -0.2011
   33MOL0     C 4445   3.511  11.209   5.606  0.1754  0.9427 -1.1610
   33MOL0     C 4446   3.564  11.183   5.473 -0.4992 -0.4799  0.4352
   33MOL0     O 4447   3.485  11.106   5.385  0.5746  0.1841 -0.2976
   33MOL0     C 4448   3.560  11.061   5.276  1.1441  0.6152  0.6327
   33MOL0     C 4449   3.627  10.936   5.264 -0.1657 -0.4337  0.2280
   33MOL0     C 4450   3.678  10.893   5.132  0.6088 -1.5244 -0.2798
   33MOL0     C 4451   3.666  10.967   5.016  0.8198 -1.1113 -0.6987
   33MOL0     O 4452   3.724  10.911   4.911  0.2290 -0.5771  0.2342
   33MOL0     C 4453   3.650  10.935   4.791  0.1499 -1.4172  0.1015
   33MOL0     C 4454   3.521  10.860   4.788  0.1350  0.8872  0.3662
   33MOL0     C 4455   3.428  10.885   4.673 -1.0958  0.1585  0.4742
   33MOL0     C 4456   3.282  10.856   4.720 -0.2390 -0.1358 -0.1522
   33MOL0     C 4457   3.174  10.886   4.608 -1.0119 -0.3551 -0.0565
   33MOL0     C 4458   3.198  10.813   4.480  0.3479 -0.1851  0.5565
   33MOL0     C 4459   3.078  10.816   4.381 -0.1055  0.3767 -0.6177
   33MOL0     C 4460   3.108  10.754   4.249 -0.5790 -0.3367  0.2734
   33MOL0    Cl 4461   3.062  10.863   4.112  0.3125 -0.1614  0.3712
   33MOL0     C 4462   3.616  11.099   5.030  0.1517  0.9411 -0.4437
   33MOL0     C 4463   3.559  11.141   5.158 -0.0039  0.0222 -0.1930
   33MOL0     O 4464   3.667  11.253   5.441 -0.3585 -0.2044  0.1489
   33MOL0     C 4465   3.371  11.207   5.620 -0.6089  0.9125 -0.3725
   33MOL0     C 4466   3.317  11.227   5.747  0.3398  0.0848 -0.2517
   33MOL0     N 4467   3.348  11.375   6.604  0.4833 -0.0752  0.0958
   33MOL0     N 4468   3.284  11.346   6.715  0.4529  0.3048  0.6930
   33MOL0     C 4469   3.100  10.982   7.737  0.7706  0.6013  0.2003
   33MOL0     C 4470   3.168  10.975   7.849 -0.9469  0.1717 -0.3236
   33MOL0     C 4471   3.448  11.124   8.172  0.1460  0.6703 -0.1884
   33MOL0     C 4472   3.450  11.008   8.251 -0.3748  0.2738 -0.0929
   33MOL0     C 4473   3.527  11.002   8.368  0.7345  0.1619 -0.9592
   33MOL0     C 4474   3.608  11.101   8.421  0.1921 -1.0211 -0.9355
   33MOL0     O 4475   3.682  11.081   8.539  0.2335  0.1371  0.1671
   33MOL0     C 4476   3.773  11.185   8.577  0.0592  0.6826  0.0903
   33MOL0     C 4477   3.880  11.126   8.670 -0.0029  0.4261 -0.0591
   33MOL0     C 4478   3.989  11.233   8.695  0.5929 -0.5538 -0.3516
   33MOL0     C 4479   4.091  11.184   8.799  0.3681  0.4855 -0.0279
   33MOL0     C 4480   4.185  11.076   8.756  0.4353  0.1794  1.0280
   33MOL0     C 4481   4.265  10.997   8.707 -1.3167 -0.2769  0.1217
   33MOL0     C 4482   3.596  11.224   8.352  0.5462 -0.6008  0.3854
   33MOL0     C 4483   3.512  11.240   8.237  0.0795  0.1578 -0.4180
   33MOL0     C 4484   3.498  11.381   8.188  0.4886  0.2849  0.6494
   33MOL0     H 4485   3.478  11.039   7.723 -0.1282  1.0349  0.5542
   33MOL0     H 4486   3.351  11.034   7.505  0.0078  2.7396 -0.2567
   33MOL0     H 4487   2.917  11.122   7.545 -1.6166  0.5321 -0.4802
   33MOL0     H 4488   2.909  10.940   7.555  1.8137  0.2083  1.8886
   33MOL0     H 4489   2.865  10.943   7.318 -1.2120 -0.7066  0.9840
   33MOL0     H 4490   2.760  11.077   7.375 -0.0443 -0.6075 -0.4777
   33MOL0     H 4491   2.944  11.234   7.328 -0.6876 -0.0160  0.5376
   33MOL0     H 4492   3.039  11.102   7.249  0.5519 -1.8794  4.3494
   33MOL0     H 4493   2.845  11.033   7.105  0.0198  0.5841 -1.8533
   33MOL0     H 4494   2.767  11.193   7.153 -1.1026 -2.4769  1.6857
   33MOL0     H 4495   3.045  11.146   7.034 -1.9333 -2.1028 -0.3925
   33MOL0     H 4496   2.959  11.310   7.051  0.6166  0.7342 -3.5570
   33MOL0     H 4497   2.848  11.080   6.881 -5.1306  1.9600 -1.0026
   33MOL0     H 4498   2.790  11.239   6.904  0.7418  1.2225  0.2137
   33MOL0     H 4499   2.884  11.238   6.703  0.6628  2.9586  0.5804
   33MOL0     H 4500   3.032  11.156   6.741 -0.2402  0.9517 -3.9209
   33MOL0     H 4501   2.974  11.447   6.777  3.1121  2.2183 -3.9528
   33MOL0     H 4502   3.089  11.368   6.891  1.5220  1.7936 -1.4764
   33MOL0     H 4503   3.038  11.438   6.507  0.5252  0.3293  0.0600
   33MOL0     H 4504   3.425  11.478   6.378  0.3408 -0.9150  0.2571
   33MOL0     H 4505   3.273  11.562   6.349 -1.3280 -0.0012  1.5427
   33MOL0     H 4506   3.363  11.288   6.255 -1.4112 -1.1507 -1.6834
   33MOL0     H 4507   3.192  11.312   6.283  1.1549 -1.2540  1.9267
   33MOL0     H 4508   3.247  11.541   6.130  0.2591  0.9027 -1.7545
   33MOL0     H 4509   3.396  11.475   6.109 -0.0639  0.0057  1.1396
   33MOL0     H 4510   3.146  11.313   6.015 -1.9819  0.6653 -3.4651
   33MOL0     H 4511   3.227  11.433   5.920  3.6431 -1.2138 -0.8458
   33MOL0     H 4512   3.600  11.300   5.912  2.5565  2.9011 -3.6516
   33MOL0     H 4513   3.761  11.336   5.647  3.5134  1.4543  1.6976
   33MOL0     H 4514   3.803  11.162   5.673 -2.0455 -0.4278 -2.3024
   33MOL0     H 4515   3.789  11.271   5.807 -0.0978  0.1445  0.1383
   33MOL0     H 4516   3.629  10.866   5.347 -0.4253  0.2856  0.8608
   33MOL0     H 4517   3.728  10.797   5.128  0.9022 -1.3924  0.1061
   33MOL0     H 4518   3.633  11.042   4.775  2.4126 -0.3001  4.0312
   33MOL0     H 4519   3.711  10.894   4.710 -1.1398  1.5476 -2.6172
   33MOL0     H 4520   3.542  10.752   4.789 -0.5457  0.7436  2.0839
   33MOL0     H 4521   3.467  10.879   4.881 -0.7368  0.6274 -0.0671
   33MOL0     H 4522   3.452  10.816   4.592 -0.4020  0.5141  0.3695
   33MOL0     H 4523   3.433  10.987   4.634  1.7269  0.2145  0.7736
   33MOL0     H 4524   3.251  10.922   4.801  0.2157  1.8991 -1.5796
   33MOL0     H 4525   3.268  10.753   4.756 -0.2083 -0.5383 -1.2624
   33MOL0     H 4526   3.080  10.855   4.654 -0.8763 -1.8546 -0.7356
   33MOL0     H 4527   3.172  10.994   4.591  0.7206 -0.5434 -1.8380
   33MOL0     H 4528   3.210  10.708   4.508  3.2258 -0.0171  0.3091
   33MOL0     H 4529   3.279  10.861   4.424 -2.8660  1.8047 -2.7957
   33MOL0     H 4530   3.063  10.925   4.379  4.5024  1.3204  2.3355
   33MOL0     H 4531   2.981  10.783   4.419 -1.2524  4.0463  0.0779
   33MOL0     H 4532   3.053  10.660   4.257 -1.5935  0.2397  0.1254
   33MOL0     H 4533   3.215  10.729   4.244 -0.8938 -1.6020 -0.7436
   33MOL0     H 4534   3.619  11.173   4.951  0.5149  1.7488  0.3138
   33MOL0     H 4535   3.509  11.238   5.162 -1.4304 -0.7145  2.8956
   33MOL0     H 4536   3.307  11.178   5.537  0.1757 -1.5878 -0.1998
   33MOL0     H 4537   3.212  11.208   5.763  0.5604 -0.2250  0.9758
   33MOL0     H 4538   2.997  10.960   7.762  1.6274 -4.2411  0.2881
   33MOL0     H 4539   3.135  10.943   7.947  1.3049 -0.9943  0.1087
   33MOL0     H 4540   3.389  10.927   8.213 -0.0593  0.3574 -0.8122
   33MOL0     H 4541   3.539  10.908   8.422 -0.0050 -1.0170 -2.7434
   33MOL0     H 4542   3.820  11.232   8.490  1.2286 -2.1671 -0.9297
   33MOL0     H 4543   3.717  11.267   8.623  1.3140  2.3825 -1.2287
   33MOL0     H 4544   3.922  11.034   8.630  0.8830 -0.2788  2.3340
   33MOL0     H 4545   3.837  11.102   8.767  0.7682  1.2390  0.4970
   33MOL0     H 4546   4.047  11.250   8.604 -0.2717  0.3638 -0.7497
   33MOL0     H 4547   3.941  11.327   8.724 -0.4624 -0.0243 -3.4100
   33MOL0     H 4548   4.036  11.148   8.886  0.3692 -0.0861 -0.2554
   33MOL0     H 4549   4.149  11.270   8.832  1.6906 -0.1161 -0.7271
   33MOL0     H 4550   4.326  10.918   8.669  1.3392  1.7336 -0.1216
   33MOL0     H 4551   3.635  11.319   8.386 -1.4172  1.1498 -1.8347
   33MOL0     H 4552   3.393  11.399   8.163  0.7930 -0.3220 -1.2885
   33MOL0     H 4553   3.533  11.448   8.267  1.4507  2.5070 -1.5195
   33MOL0     H 4554   3.560  11.399   8.099 -0.6446  0.6489 -0.0905
   34MOL0     O 4555   9.929   7.938   7.695  0.7876 -0.4943  0.1383
   34MOL0     C 4556   9.843   7.912   7.781 -0.4666 -0.4681 -0.2785
   34MOL0     O 4557   9.857   7.960   7.905 -0.1678 -1.2191  0.2472
   34MOL0     C 4558   9.951   8.062   7.921  0.0869  0.0433  0.6928
   34MOL0     C 4559   9.961   8.178   7.847 -0.2990 -0.1318  0.0720
   34MOL0     C 4560  10.064   8.273   7.870  0.0383  0.4322  0.0833
   34MOL0     C 4561  10.166   8.243   7.968 -0.0734  0.0587  0.7051
   34MOL0     O 4562  10.274   8.323   7.962  0.5381 -0.5316  0.2415
   34MOL0     C 4563  10.388   8.301   8.045  0.1452  0.9551  0.3091
   34MOL0     C 4564  10.499   8.399   8.019 -0.3473 -0.2392  0.2055
   34MOL0     C 4565  10.458   8.549   8.027  0.0538  0.5138  1.0602
   34MOL0     C 4566  10.576   8.646   7.977 -0.5111  0.2292  0.0881
   34MOL0     C 4567  10.623   8.729   8.099 -0.2252  0.5989 -0.3003
   34MOL0     C 4568  10.695   8.857   8.072 -0.0115 -0.9536 -0.3605
   34MOL0     C 4569  10.843   8.834   8.016  0.2970 -0.0579 -0.9115
   34MOL0     C 4570  10.870   8.923   7.888 -1.0930  0.0827 -1.1932
   34MOL0     N 4571  10.835   8.850   7.769  0.3069 -0.2016  1.0013
   34MOL0     C 4572  10.716   8.854   7.701  0.6055 -0.2162  0.0608
   34MOL0     C 4573  10.733   8.773   7.596  0.9424  0.1041  0.3007
   34MOL0     C 4574  10.631   8.743   7.483 -0.5150  0.0407  0.2501
   34MOL0     C 4575  10.551   8.612   7.503 -0.2579  0.3761  0.0812
   34MOL0     C 4576  10.483   8.609   7.639 -0.4046  0.3545  1.0575
   34MOL0     C 4577  10.352   8.525   7.634  0.1175 -0.2520  0.5141
   34MOL0     O 4578  10.260   8.582   7.534 -0.0118  0.3401  0.5892
   34MOL0     C 4579  10.129   8.572   7.570 -0.9048 -0.1197  0.6266
   34MOL0     C 4580  10.042   8.491   7.493  0.6954  0.0054 -0.3348
   34MOL0     C 4581   9.911   8.452   7.528 -0.9469  0.1303  0.0051
   34MOL0     C 4582   9.834   8.349   7.451 -0.2590  0.2674 -0.4969
   34MOL0     C 4583   9.861   8.528   7.638  1.0836 -0.0213 -0.9756
   34MOL0     C 4584   9.734   8.497   7.706  0.4697  0.1030  0.7701
   34MOL0     O 4585   9.673   8.608   7.759  0.1078  0.9165  0.2201
   34MOL0     C 4586   9.551   8.602   7.834 -0.0890  0.1628  0.4156
   34MOL0     C 4587   9.485   8.723   7.853  0.9268 -1.0914  0.1684
   34MOL0     C 4588   9.351   8.726   7.901 -0.1803  0.2910  1.3907
   34MOL0     C 4589   9.289   8.610   7.935  0.1665  1.0229  0.2545
   34MOL0     O 4590   9.154   8.620   7.976 -0.5627  0.1226 -0.1637
   34MOL0     C 4591   9.057   8.561   7.877 -0.4800 -0.6962 -0.1488
   34MOL0     C 4592   8.918   8.614   7.911 -0.1591  0.7227  0.2053
   34MOL0     C 4593   8.823   8.564   7.799 -0.5713 -0.9061  0.4518
   34MOL0     C 4594   8.818   8.658   7.672  0.2600 -0.3501  0.6993
   34MOL0     C 4595   8.708   8.608   7.568  0.0563  0.0124 -0.6215
   34MOL0     C 4596   8.733   8.461   7.534 -1.2563  0.3732  0.1952
   34MOL0     C 4597   8.868   8.455   7.449  0.1604 -0.0547 -0.3885
   34MOL0     C 4598   8.883   8.330   7.362 -0.9443  0.3674  0.0819
   34MOL0    Cl 4599   8.888   8.193   7.471  0.3292  0.0722 -0.3252
   34MOL0     C 4600   9.357   8.489   7.912  0.9562  0.5936 -0.1885
   34MOL0     C 4601   9.485   8.477   7.868 -0.6485 -0.3178  0.4875
   34MOL0     O 4602   9.689   8.388   7.687 -0.2719  0.8867 -0.0929
   34MOL0     C 4603   9.932   8.638   7.695 -0.3674  0.0299  0.1166
   34MOL0     C 4604  10.067   8.657   7.666  0.8504  0.6931  1.0327
   34MOL0     N 4605  10.858   8.724   7.598 -0.2449  0.4864 -0.9629
   34MOL0     N 4606  10.920   8.767   7.709  0.6607 -0.7805 -0.5619
   34MOL0     C 4607  10.139   8.142   8.061 -0.0028 -0.3661 -0.6110
   34MOL0     C 4608  10.042   8.052   8.030 -0.1509  0.4625  0.1940
   34MOL0     C 4609   9.733   7.819   7.746  0.8796 -0.7882  0.5546
   34MOL0     C 4610   9.695   7.739   7.861  0.1205 -0.6616 -0.1042
   34MOL0     C 4611   9.583   7.650   7.837  0.6970  1.5259 -0.1063
   34MOL0     C 4612   9.527   7.629   7.704 -0.0688  1.0801 -0.2229
   34MOL0     O 4613   9.427   7.544   7.708 -0.0271 -0.2805  0.4597
   34MOL0     C 4614   9.372   7.490   7.588  1.3126 -0.7548 -0.3858
   34MOL0     C 4615   9.246   7.396   7.620 -0.3527 -0.5747  0.2536
   34MOL0     C 4616   9.133   7.445   7.706  0.3452  0.0381 -0.1417
   34MOL0     C 4617   9.170   7.440   7.857 -0.7750  0.2447 -0.3658
   34MOL0     C 4618   9.064   7.516   7.935 -0.3510 -0.6214  1.6046
   34MOL0     C 4619   8.983   7.581   7.993  0.2371 -0.2449  0.2451
   34MOL0     C 4620   9.583   7.698   7.601  0.3598 -0.1077 -0.2370
   34MOL0     C 4621   9.676   7.791   7.622 -0.7070 -0.4955  0.1335
   34MOL0     C 4622   9.713   7.889   7.506 -0.0297  0.8131  0.2384
   34MOL0     H 4623   9.889   8.186   7.765  0.6725 -2.9164 -1.1578
   34MOL0     H 4624  10.068   8.364   7.810 -0.4324  2.0560  2.3676
   34MOL0     H 4625  10.429   8.200   8.033  0.3209  0.9775  0.7258
   34MOL0     H 4626  10.348   8.314   8.146 -2.1599  0.4142 -0.4600
   34MOL0     H 4627  10.568   8.383   8.103 -0.6318  3.1150  1.2285
   34MOL0     H 4628  10.538   8.388   7.917 -2.3293  5.4892 -1.5869
   34MOL0     H 4629  10.372   8.552   7.959  0.9505  0.0078 -0.1152
   34MOL0     H 4630  10.414   8.583   8.122  0.4176  0.7688  1.1382
   34MOL0     H 4631  10.651   8.589   7.921 -0.4272  1.5948 -1.2667
   34MOL0     H 4632  10.540   8.726   7.911  2.0414  2.3385  1.0909
   34MOL0     H 4633  10.686   8.674   8.170 -0.9710 -0.0464 -0.1238
   34MOL0     H 4634  10.534   8.747   8.161 -1.3298  0.5334 -1.8097
   34MOL0     H 4635  10.629   8.913   8.005  0.2363  1.2478  1.1278
   34MOL0     H 4636  10.714   8.911   8.165  2.4824 -1.2039 -0.6680
   34MOL0     H 4637  10.878   8.731   8.000 -0.4442 -0.1584 -2.0117
   34MOL0     H 4638  10.902   8.874   8.099 -1.5876 -0.4725  0.7103
   34MOL0     H 4639  10.819   9.020   7.894 -1.8415 -0.3833  0.7035
   34MOL0     H 4640  10.978   8.929   7.870 -0.8937 -2.0576 -0.9545
   34MOL0     H 4641  10.626   8.902   7.740  0.8994  2.6384 -2.3891
   34MOL0     H 4642  10.686   8.721   7.391 -1.0675 -2.1874  0.4124
   34MOL0     H 4643  10.562   8.825   7.462 -1.8415 -1.4271 -1.3801
   34MOL0     H 4644  10.479   8.601   7.422 -0.2438  2.2513 -0.2249
   34MOL0     H 4645  10.619   8.526   7.496 -2.0197 -1.0000 -0.7358
   34MOL0     H 4646  10.558   8.567   7.706  0.2927 -2.4541 -1.2886
   34MOL0     H 4647  10.446   8.705   7.674 -4.7770 -0.9760  0.7135
   34MOL0     H 4648  10.381   8.428   7.595 -1.3005 -1.0558  1.3433
   34MOL0     H 4649  10.315   8.502   7.735 -0.3691 -0.7707  0.2194
   34MOL0     H 4650  10.083   8.441   7.405  3.0880  0.4821  0.4328
   34MOL0     H 4651   9.728   8.376   7.442  0.0732  2.4492  1.2247
   34MOL0     H 4652   9.841   8.248   7.491 -2.8211  0.4945  0.7368
   34MOL0     H 4653   9.874   8.352   7.349  0.7943  1.3045 -0.0786
   34MOL0     H 4654   9.516   8.818   7.811  2.6572  0.4274  4.3332
   34MOL0     H 4655   9.288   8.814   7.907 -3.1599 -1.5173 -0.6605
   34MOL0     H 4656   9.085   8.593   7.777  3.1885 -2.0468  0.2736
   34MOL0     H 4657   9.067   8.455   7.902  1.6040 -0.3872  0.5481
   34MOL0     H 4658   8.891   8.581   8.012  0.7749 -3.7922 -0.8255
   34MOL0     H 4659   8.911   8.723   7.904  0.7984  0.7607 -0.3043
   34MOL0     H 4660   8.728   8.584   7.849  0.3745  4.7141  0.6727
   34MOL0     H 4661   8.839   8.458   7.777 -0.7782 -1.4449  2.6043
   34MOL0     H 4662   8.921   8.649   7.636 -0.2784 -1.8550 -0.6068
   34MOL0     H 4663   8.799   8.764   7.690 -2.1702 -0.9320  1.9953
   34MOL0     H 4664   8.605   8.604   7.606 -0.2394 -0.6084 -1.4688
   34MOL0     H 4665   8.714   8.667   7.476  1.1815 -1.0691 -1.2609
   34MOL0     H 4666   8.655   8.434   7.463  0.4429  0.6259 -1.8744
   34MOL0     H 4667   8.731   8.396   7.623 -1.2322 -1.8296 -1.3396
   34MOL0     H 4668   8.946   8.458   7.526 -2.6515  1.3673  2.6046
   34MOL0     H 4669   8.874   8.548   7.392 -1.1133  0.5685  0.4689
   34MOL0     H 4670   8.976   8.330   7.304  0.0307  1.4928  1.5800
   34MOL0     H 4671   8.795   8.324   7.298 -0.7815 -0.4243 -0.0824
   34MOL0     H 4672   9.298   8.399   7.932  1.9654 -0.3201 -1.2028
   34MOL0     H 4673   9.524   8.377   7.853  1.1872  0.3719  0.3982
   34MOL0     H 4674   9.901   8.696   7.781 -3.7625 -2.6066  0.8989
   34MOL0     H 4675  10.135   8.729   7.711  1.5096 -1.6683  4.1581
   34MOL0     H 4676  10.207   8.139   8.146  1.4938 -1.1123 -1.7708
   34MOL0     H 4677  10.028   7.962   8.090  3.9905  1.2547  2.7503
   34MOL0     H 4678   9.747   7.745   7.956 -1.7588 -1.2310  1.0027
   34MOL0     H 4679   9.537   7.604   7.923 -0.6778 -1.3852 -2.2320
   34MOL0     H 4680   9.347   7.573   7.521  1.7004  1.8185  2.4599
   34MOL0     H 4681   9.454   7.439   7.536  2.0973  0.1927 -0.1158
   34MOL0     H 4682   9.293   7.310   7.668  0.9268  0.0213  0.1069
   34MOL0     H 4683   9.201   7.366   7.525 -0.6672  1.0824 -0.1461
   34MOL0     H 4684   9.107   7.549   7.683 -0.5537  0.5584  2.8738
   34MOL0     H 4685   9.041   7.394   7.677  0.4949  0.1415 -0.8183
   34MOL0     H 4686   9.264   7.491   7.879 -0.1062 -1.4733  1.0666
   34MOL0     H 4687   9.185   7.342   7.904 -0.3982  0.7953  0.6993
   34MOL0     H 4688   8.898   7.625   8.041 -0.1830  2.4080 -2.6020
   34MOL0     H 4689   9.541   7.687   7.502 -0.7133  1.6459 -0.0170
   34MOL0     H 4690   9.652   7.870   7.417  0.0844  0.5755  0.2111
   34MOL0     H 4691   9.699   7.994   7.536 -1.2804  0.8356 -0.3665
   34MOL0     H 4692   9.820   7.882   7.482 -0.0224  3.3489 -0.8435
   35MOL0     O 4693   1.053  10.837   8.929  0.6287 -0.1373 -0.0620
   35MOL0     C 4694   0.968  10.833   8.837 -2.4511 -0.4527  0.6064
   35MOL0     O 4695   0.852  10.898   8.832 -0.4099 -0.9739  0.2265
   35MOL0     C 4696   0.799  10.943   8.954 -0.7481 -0.6338  0.2164
   35MOL0     C 4697   0.744  11.075   8.952 -0.2199 -0.1194 -0.3100
   35MOL0     C 4698   0.681  11.136   9.067 -0.4291  0.6343 -0.0881
   35MOL0     C 4699   0.679  11.060   9.188  1.5229 -0.1378  0.0199
   35MOL0     O 4700   0.641  11.131   9.309  0.1489  0.1395  0.5854
   35MOL0     C 4701   0.713  11.074   9.421  0.5601 -0.8806  0.6184
   35MOL0     C 4702   0.738  11.192   9.513 -0.7672  0.4725  0.0853
   35MOL0     C 4703   0.847  11.282   9.469  0.4307  0.5044  0.6469
   35MOL0     C 4704   0.889  11.391   9.582 -0.6189  0.7844 -0.4280
   35MOL0     C 4705   1.017  11.495   9.547  0.5172  0.0312 -1.3155
   35MOL0     C 4706   0.995  11.561   9.410  0.3244  0.8011 -0.4761
   35MOL0     C 4707   1.109  11.661   9.381  0.0106 -0.5719 -0.4377
   35MOL0     C 4708   1.069  11.732   9.249 -0.6776 -0.1690 -0.3702
   35MOL0     N 4709   1.166  11.836   9.220 -0.3144 -0.3553  0.8650
   35MOL0     C 4710   1.305  11.834   9.243  0.7821  0.7717 -0.4418
   35MOL0     C 4711   1.337  11.969   9.242 -0.0982 -1.0376  1.3539
   35MOL0     C 4712   1.475  12.025   9.242  0.1443 -0.1894 -0.0435
   35MOL0     C 4713   1.550  12.025   9.103  0.3302  0.1565  0.2251
   35MOL0     C 4714   1.552  11.891   9.026 -0.6880  0.0679 -0.8351
   35MOL0     C 4715   1.635  11.891   8.906 -0.9423  0.3608 -0.9294
   35MOL0     O 4716   1.559  11.945   8.798 -0.0413  0.4958  0.3289
   35MOL0     C 4717   1.621  11.923   8.683 -0.3118 -0.1453  0.6474
   35MOL0     C 4718   1.673  12.042   8.620 -0.0941 -0.1740 -0.5416
   35MOL0     C 4719   1.752  12.040   8.506 -0.2473 -0.0231 -0.0064
   35MOL0     C 4720   1.804  12.172   8.454 -0.3060 -0.0954 -0.7411
   35MOL0     C 4721   1.779  11.914   8.441 -0.0388 -0.2296 -0.3046
   35MOL0     C 4722   1.848  11.896   8.315  0.1425 -0.5604  0.2518
   35MOL0     O 4723   1.894  11.771   8.293  0.4643  0.3751  0.4040
   35MOL0     C 4724   1.967  11.757   8.172  0.1423 -0.4265  0.4458
   35MOL0     C 4725   1.917  11.668   8.081 -0.0090  1.4564 -0.0515
   35MOL0     C 4726   1.974  11.660   7.953 -0.7009 -0.1417  0.5958
   35MOL0     C 4727   2.084  11.729   7.912  0.2909 -0.5754 -0.0819
   35MOL0     O 4728   2.128  11.719   7.776  0.0972 -0.1526  0.7231
   35MOL0     C 4729   2.252  11.789   7.740 -0.2024  0.6767  0.7035
   35MOL0     C 4730   2.315  11.746   7.611  0.3311 -0.4180  0.3992
   35MOL0     C 4731   2.234  11.778   7.478 -0.3334 -0.0559 -0.5470
   35MOL0     C 4732   2.206  11.924   7.447  0.5130  0.3614 -0.1704
   35MOL0     C 4733   2.132  11.952   7.310 -0.6955 -1.4005  0.1407
   35MOL0     C 4734   1.992  11.894   7.296 -0.3441  1.0603 -0.5483
   35MOL0     C 4735   1.946  11.908   7.154  0.2071  0.0319 -0.3470
   35MOL0     C 4736   2.000  11.813   7.051  0.6654  1.1243  0.5606
   35MOL0    Cl 4737   1.942  11.650   7.087  0.8021  0.0630  0.9437
   35MOL0     C 4738   2.150  11.806   8.016  0.4783 -0.0071 -0.0571
   35MOL0     C 4739   2.076  11.834   8.138  0.0136  0.8379  0.2841
   35MOL0     O 4740   1.831  11.979   8.220  0.6458  0.1820 -0.4137
   35MOL0     C 4741   1.736  11.797   8.510 -0.6231 -0.2949  0.4471
   35MOL0     C 4742   1.657  11.797   8.628 -0.2958  0.7093  0.1218
   35MOL0     N 4743   1.227  12.036   9.202 -0.1575 -0.2373 -0.5037
   35MOL0     N 4744   1.130  11.965   9.204  0.7965 -0.0217 -0.6478
   35MOL0     C 4745   0.724  10.923   9.187 -0.4648 -0.3587 -0.5373
   35MOL0     C 4746   0.791  10.865   9.076  0.2541  0.9276 -0.1223
   35MOL0     C 4747   1.020  10.785   8.703  0.2332  0.6865  0.1772
   35MOL0     C 4748   1.157  10.769   8.677 -0.1875 -0.2800  0.4393
   35MOL0     C 4749   1.203  10.714   8.556  0.1016 -0.3518  1.0989
   35MOL0     C 4750   1.123  10.639   8.475 -0.4036  0.9749 -0.6159
   35MOL0     O 4751   1.188  10.548   8.388  0.5141  0.0065  0.1604
   35MOL0     C 4752   1.092  10.457   8.328  0.0453 -0.7463  0.4217
   35MOL0     C 4753   1.159  10.345   8.246 -0.9449 -0.7301 -0.3195
   35MOL0     C 4754   1.265  10.405   8.149  0.5433 -0.3739 -0.7844
   35MOL0     C 4755   1.224  10.527   8.066  0.7670 -1.2400  1.7264
   35MOL0     C 4756   1.321  10.541   7.962 -0.2056 -0.8262  0.7269
   35MOL0     C 4757   1.407  10.564   7.876  0.4414 -1.3471  0.5198
   35MOL0     C 4758   0.979  10.651   8.499  0.0030 -0.4033 -0.4491
   35MOL0     C 4759   0.929  10.727   8.604 -0.9245  0.9072 -0.2319
   35MOL0     C 4760   0.778  10.727   8.619  0.7845 -0.0746  0.5332
   35MOL0     H 4761   0.758  11.124   8.857  0.1405 -3.7814 -2.3330
   35MOL0     H 4762   0.648  11.239   9.059 -0.3685  0.6009 -0.8293
   35MOL0     H 4763   0.811  11.038   9.388  0.2064 -1.9748  0.7031
   35MOL0     H 4764   0.663  10.997   9.480 -0.5164 -0.9529 -0.3442
   35MOL0     H 4765   0.653  11.260   9.515  0.8951  2.6519  0.1857
   35MOL0     H 4766   0.766  11.149   9.610 -1.0549  1.2768  0.5345
   35MOL0     H 4767   0.939  11.227   9.448 -0.9539 -0.7279 -3.2259
   35MOL0     H 4768   0.829  11.320   9.368  2.3980 -0.6103 -0.1862
   35MOL0     H 4769   0.796  11.440   9.614 -2.5336 -2.3506 -0.8614
   35MOL0     H 4770   0.912  11.334   9.673  0.9696  2.8370  0.5546
   35MOL0     H 4771   1.114  11.445   9.553  0.6068  0.2997 -0.2151
   35MOL0     H 4772   1.020  11.573   9.624  0.4646  2.0338 -3.2782
   35MOL0     H 4773   0.988  11.487   9.330  1.9885  2.7161 -2.5074
   35MOL0     H 4774   0.905  11.623   9.410  1.1934  2.4803  4.1088
   35MOL0     H 4775   1.207  11.614   9.387  2.2645  3.5771 -1.2749
   35MOL0     H 4776   1.091  11.737   9.458 -1.6808  0.3120 -1.6171
   35MOL0     H 4777   1.059  11.659   9.168  0.5317  0.6001 -1.2497
   35MOL0     H 4778   0.975  11.787   9.257 -0.3850  0.1570  1.1152
   35MOL0     H 4779   1.369  11.746   9.256  0.9057  0.6727 -1.6112
   35MOL0     H 4780   1.521  11.959   9.316 -1.2559  0.2155  1.2460
   35MOL0     H 4781   1.464  12.127   9.281 -0.7569 -0.6980  1.1273
   35MOL0     H 4782   1.511  12.107   9.043  0.6735  0.7727  0.8426
   35MOL0     H 4783   1.655  12.041   9.130  1.1390 -1.6569 -1.5030
   35MOL0     H 4784   1.598  11.815   9.091  1.0896 -0.0789 -2.2129
   35MOL0     H 4785   1.449  11.866   9.001 -0.5785 -0.3711 -0.8654
   35MOL0     H 4786   1.718  11.953   8.939  0.0386 -1.9716  1.3353
   35MOL0     H 4787   1.672  11.793   8.875  0.4761  1.1994 -1.9706
   35MOL0     H 4788   1.632  12.136   8.657  3.1497  0.3129  2.2842
   35MOL0     H 4789   1.899  12.152   8.405  0.2406  0.0313  0.2437
   35MOL0     H 4790   1.820  12.225   8.548 -2.9127 -1.7616  0.7752
   35MOL0     H 4791   1.749  12.224   8.375  2.1535  2.7682 -0.7017
   35MOL0     H 4792   1.832  11.603   8.097 -0.3160  1.6850 -0.7138
   35MOL0     H 4793   1.930  11.616   7.863 -0.8882 -0.0700  0.6520
   35MOL0     H 4794   2.225  11.894   7.731 -1.0295  0.4634  0.5601
   35MOL0     H 4795   2.323  11.770   7.821  0.8778  4.5136  0.8456
   35MOL0     H 4796   2.412  11.795   7.600  2.6008 -4.2655  1.2487
   35MOL0     H 4797   2.343  11.640   7.607  0.9468 -0.2844  1.0571
   35MOL0     H 4798   2.143  11.718   7.481 -0.2852 -0.1530 -0.9324
   35MOL0     H 4799   2.297  11.743   7.395  1.5239 -0.4095  0.9510
   35MOL0     H 4800   2.307  11.968   7.441 -0.1187  1.7716 -1.1194
   35MOL0     H 4801   2.133  11.974   7.511 -1.3232  0.5723 -2.3037
   35MOL0     H 4802   2.127  12.061   7.301 -0.8669 -1.4126  0.0967
   35MOL0     H 4803   2.192  11.925   7.223  0.9614 -2.5347  1.5366
   35MOL0     H 4804   1.932  11.955   7.364  3.2362  0.3490  3.6644
   35MOL0     H 4805   1.994  11.788   7.324  2.2061  0.4503 -2.6739
   35MOL0     H 4806   1.966  12.013   7.135 -1.0856  1.5660  5.0828
   35MOL0     H 4807   1.837  11.905   7.153  0.1961 -0.0220  0.3330
   35MOL0     H 4808   2.107  11.820   7.068  0.4419  1.1255  2.0703
   35MOL0     H 4809   1.981  11.835   6.945  1.6826 -0.4756  0.0054
   35MOL0     H 4810   2.241  11.864   8.016  0.8290 -0.2940 -3.7678
   35MOL0     H 4811   2.126  11.885   8.220 -2.4563  0.8353  1.9006
   35MOL0     H 4812   1.750  11.701   8.461 -0.8948  0.8755 -2.0789
   35MOL0     H 4813   1.630  11.710   8.686  0.7089  1.2828  1.5123
   35MOL0     H 4814   0.708  10.872   9.282  0.2605 -0.8172 -0.6536
   35MOL0     H 4815   0.811  10.759   9.065 -4.2500 -0.2406  0.8489
   35MOL0     H 4816   1.233  10.820   8.734  0.4247 -2.7241  1.9547
   35MOL0     H 4817   1.307  10.718   8.527 -0.2577 -1.5681 -0.5597
   35MOL0     H 4818   1.027  10.403   8.398 -1.1498  0.2781  0.1321
   35MOL0     H 4819   1.018  10.508   8.265  1.1374  2.6453  1.6958
   35MOL0     H 4820   1.077  10.323   8.176 -2.4936  1.2372  0.7485
   35MOL0     H 4821   1.197  10.266   8.311 -3.0207 -1.0960  0.5283
   35MOL0     H 4822   1.346  10.437   8.215  1.3512 -4.5465  0.5214
   35MOL0     H 4823   1.297  10.327   8.079  0.9922 -0.1207 -0.8639
   35MOL0     H 4824   1.221  10.618   8.127 -5.0211  0.1799 -0.0237
   35MOL0     H 4825   1.129  10.511   8.015  1.0044 -1.8132  1.4563
   35MOL0     H 4826   1.479  10.592   7.802 -1.8278  3.2132 -0.3313
   35MOL0     H 4827   0.914  10.587   8.440 -0.3556 -0.1091 -0.3715
   35MOL0     H 4828   0.730  10.690   8.528  0.8101 -3.5495  1.7972
   35MOL0     H 4829   0.740  10.694   8.716 -0.7156  2.6271  0.9610
   35MOL0     H 4830   0.747  10.832   8.625 -1.0775 -0.3961 -1.8891
   36MOL0     O 4831   9.620   2.229   2.923  0.2679 -0.0089  0.4291
   36MOL0     C 4832   9.643   2.187   3.033  0.1329 -0.1819  0.2597
   36MOL0     O 4833   9.745   2.215   3.112 -0.4815 -0.6440 -0.4032
   36MOL0     C 4834   9.851   2.298   3.078 -0.0577 -0.5679 -0.9645
   36MOL0     C 4835   9.887   2.361   2.954 -0.2266 -0.2844 -0.1922
   36MOL0     C 4836   9.997   2.449   2.950  1.1663 -0.1170 -0.5464
   36MOL0     C 4837  10.084   2.461   3.056 -0.3807  0.6898 -0.5640
   36MOL0     O 4838  10.201   2.529   3.052 -0.4061  0.8078 -0.3104
   36MOL0     C 4839  10.189   2.661   3.099  0.0174  0.8194 -0.2001
   36MOL0     C 4840  10.327   2.727   3.103 -0.1536  0.3861  0.0740
   36MOL0     C 4841  10.447   2.632   3.132 -0.0375  0.5276  0.3210
   36MOL0     C 4842  10.436   2.539   3.249 -0.4362 -0.6501  0.5279
   36MOL0     C 4843  10.543   2.437   3.256 -0.7851 -0.1137  0.2666
   36MOL0     C 4844  10.547   2.342   3.139  0.2595  0.4139  0.9790
   36MOL0     C 4845  10.637   2.225   3.161 -0.1060  0.1960  0.5544
   36MOL0     C 4846  10.787   2.257   3.186  0.3318  0.6858 -0.7537
   36MOL0     N 4847  10.821   2.245   3.329 -0.3032 -0.8419 -0.6223
   36MOL0     C 4848  10.835   2.352   3.421 -0.4843  1.1462 -0.1032
   36MOL0     C 4849  10.912   2.293   3.521  0.4257  0.1454 -0.5173
   36MOL0     C 4850  10.929   2.356   3.649 -0.3480  0.1380 -0.7942
   36MOL0     C 4851  11.068   2.423   3.659  0.4872  0.4309 -0.2254
   36MOL0     C 4852  11.086   2.561   3.569  0.7340  0.2633 -0.3457
   36MOL0     C 4853  11.235   2.589   3.524  0.5436  0.5646  0.4687
   36MOL0     O 4854  11.299   2.631   3.641 -0.5683  0.3944 -0.0878
   36MOL0     C 4855  11.433   2.623   3.638 -0.2811 -0.8121  0.6971
   36MOL0     C 4856  11.498   2.522   3.699 -0.0934 -0.5531  0.6589
   36MOL0     C 4857  11.634   2.525   3.719 -0.8432 -0.1150  0.2461
   36MOL0     C 4858  11.695   2.407   3.808  0.1220 -0.1888  0.0125
   36MOL0     C 4859  11.716   2.641   3.678  0.6989  0.2030 -1.1422
   36MOL0     C 4860  11.851   2.674   3.724 -0.2595  0.8142 -0.5520
   36MOL0     O 4861  11.933   2.741   3.640 -0.8465 -0.2687 -0.1969
   36MOL0     C 4862  12.048   2.804   3.675  0.0694  0.2971 -0.6444
   36MOL0     C 4863  12.168   2.735   3.691 -0.2569  0.5567  0.1548
   36MOL0     C 4864  12.275   2.803   3.735 -0.0799 -0.4935  0.0864
   36MOL0     C 4865  12.271   2.926   3.797  0.2448  0.3715 -0.3303
   36MOL0     O 4866  12.392   2.966   3.839 -0.9859 -0.6470 -0.3072
   36MOL0     C 4867  12.378   3.070   3.943  0.4117 -0.3363 -0.0560
   36MOL0     C 4868  12.525   3.096   4.001  0.6757  0.1252 -0.4609
   36MOL0     C 4869  12.562   3.011   4.115  0.0639  0.0799 -0.8489
   36MOL0     C 4870  12.717   3.013   4.129  0.7400  0.1322  0.2085
   36MOL0     C 4871  12.743   2.896   4.223 -0.0613 -0.2274 -0.9870
   36MOL0     C 4872  12.883   2.917   4.268 -0.5285 -0.6751 -1.0733
   36MOL0     C 4873  12.929   2.803   4.364  0.2315 -0.2249 -0.3293
   36MOL0     C 4874  12.983   2.687   4.283 -0.6567  0.1024  0.2213
   36MOL0    Cl 4875  13.065   2.724   4.132 -0.1495  0.5223 -0.2605
   36MOL0     C 4876  12.154   2.992   3.801  0.3977  0.6086  0.0204
   36MOL0     C 4877  12.041   2.933   3.735  0.5707  0.1361  0.1711
   36MOL0     O 4878  11.877   2.646   3.841  0.0890  0.4542 -0.1843
   36MOL0     C 4879  11.649   2.733   3.594  0.5807 -0.4887 -0.6830
   36MOL0     C 4880  11.504   2.735   3.588  0.1234 -1.0097 -0.2217
   36MOL0     N 4881  10.925   2.156   3.496  0.7707 -0.3476 -0.6257
   36MOL0     N 4882  10.869   2.132   3.383  0.4812 -0.6584 -0.8045
   36MOL0     C 4883  10.049   2.401   3.180  0.0689  1.3339  0.0780
   36MOL0     C 4884   9.929   2.329   3.187  0.4859 -0.0828  0.6428
   36MOL0     C 4885   9.539   2.083   3.080  0.7811  0.1055  0.4412
   36MOL0     C 4886   9.440   2.048   2.983 -0.7053  1.2818  0.5756
   36MOL0     C 4887   9.329   1.966   3.020  0.4876  0.1872  0.4577
   36MOL0     C 4888   9.317   1.917   3.145 -0.2311  0.3592  0.5849
   36MOL0     O 4889   9.203   1.849   3.178  0.1082  0.0889 -1.5827
   36MOL0     C 4890   9.078   1.850   3.100  0.2987  0.0830  0.4065
   36MOL0     C 4891   9.005   1.987   3.075  0.0727  0.2332  0.0051
   36MOL0     C 4892   8.997   2.075   3.207 -0.3206 -0.4721  0.4339
   36MOL0     C 4893   8.932   2.215   3.195  0.1653  0.0169 -0.1066
   36MOL0     C 4894   9.010   2.307   3.108 -0.6688 -0.3856  0.6536
   36MOL0     C 4895   9.081   2.390   3.063 -0.1291  0.5416 -0.1874
   36MOL0     C 4896   9.424   1.943   3.237  1.0105 -0.3084  0.3333
   36MOL0     C 4897   9.530   2.020   3.205 -0.8061 -0.0857 -0.6230
   36MOL0     C 4898   9.628   2.050   3.321 -0.2362  0.7667  0.2954
   36MOL0     H 4899   9.832   2.341   2.863  0.8092 -0.6909 -0.7468
   36MOL0     H 4900  10.022   2.517   2.868 -1.4549  1.9756  0.2461
   36MOL0     H 4901  10.151   2.656   3.201  1.2153 -2.6323  0.2005
   36MOL0     H 4902  10.119   2.711   3.032  1.8860 -1.8070 -4.5965
   36MOL0     H 4903  10.336   2.783   3.010  1.8510 -1.3575 -0.8752
   36MOL0     H 4904  10.332   2.800   3.184 -1.8872  0.7113 -0.0733
   36MOL0     H 4905  10.461   2.579   3.037 -3.7380 -0.2187  0.0158
   36MOL0     H 4906  10.536   2.690   3.157  3.8105 -3.3948 -2.6392
   36MOL0     H 4907  10.436   2.594   3.343  0.0674  0.0621  0.1191
   36MOL0     H 4908  10.341   2.485   3.241 -0.4003 -0.7339  0.6547
   36MOL0     H 4909  10.538   2.381   3.350  2.3868  0.5176  0.8965
   36MOL0     H 4910  10.636   2.491   3.275  0.1033 -1.8771  1.1448
   36MOL0     H 4911  10.448   2.315   3.102  0.1536  2.9339 -0.8436
   36MOL0     H 4912  10.590   2.391   3.051 -3.1263 -1.1282 -1.7504
   36MOL0     H 4913  10.632   2.165   3.069 -2.0463  2.0083 -0.6130
   36MOL0     H 4914  10.590   2.167   3.241  1.1006  2.0812  2.7713
   36MOL0     H 4915  10.838   2.185   3.121 -1.7491 -2.1979  0.5688
   36MOL0     H 4916  10.812   2.360   3.157  0.1240  0.4025 -2.0139
   36MOL0     H 4917  10.806   2.456   3.419  1.5287  1.8080  1.5920
   36MOL0     H 4918  10.912   2.288   3.733  1.1744  0.5768 -0.1022
   36MOL0     H 4919  10.849   2.431   3.654 -3.1827 -2.6474  4.2299
   36MOL0     H 4920  11.086   2.446   3.765 -2.0805 -1.2813  0.6803
   36MOL0     H 4921  11.141   2.349   3.623  0.2552  0.4701 -0.7895
   36MOL0     H 4922  11.028   2.556   3.476  0.0556 -0.2253  0.0903
   36MOL0     H 4923  11.047   2.640   3.634 -0.4175 -0.3724 -0.2358
   36MOL0     H 4924  11.283   2.504   3.476  0.1710  0.5151  0.1830
   36MOL0     H 4925  11.243   2.680   3.463 -0.7864  1.0003  0.9013
   36MOL0     H 4926  11.434   2.442   3.736 -1.1426 -0.5232 -1.0055
   36MOL0     H 4927  11.644   2.404   3.905 -0.3337 -1.7034 -0.2584
   36MOL0     H 4928  11.802   2.426   3.823 -0.3559  1.1675  2.2556
   36MOL0     H 4929  11.688   2.310   3.758 -2.3691  0.1314 -0.3532
   36MOL0     H 4930  12.178   2.636   3.647 -2.1081 -1.8627  4.4878
   36MOL0     H 4931  12.371   2.753   3.737  0.2104  0.0886  1.6751
   36MOL0     H 4932  12.331   3.157   3.896 -2.4036 -1.4716  0.4609
   36MOL0     H 4933  12.319   3.043   4.031 -0.9365  1.4373 -0.3570
   36MOL0     H 4934  12.602   3.096   3.923  0.1269  2.3099 -1.0610
   36MOL0     H 4935  12.522   3.200   4.034 -0.9044 -0.8955  3.2114
   36MOL0     H 4936  12.529   2.909   4.096 -1.8868 -0.1121  2.6977
   36MOL0     H 4937  12.513   3.051   4.204  1.2321  0.2463 -0.2549
   36MOL0     H 4938  12.759   3.105   4.170  0.6251  0.9357 -1.4286
   36MOL0     H 4939  12.758   2.992   4.030 -0.3303 -1.8624  0.1202
   36MOL0     H 4940  12.675   2.889   4.309  0.2815 -4.5599 -0.8658
   36MOL0     H 4941  12.734   2.796   4.181  1.7805 -1.2992  1.0097
   36MOL0     H 4942  12.895   3.011   4.323 -4.6365 -1.2729  1.2479
   36MOL0     H 4943  12.941   2.916   4.175 -2.1001  1.0818 -2.1396
   36MOL0     H 4944  12.851   2.760   4.428  0.2696 -1.0105 -0.8018
   36MOL0     H 4945  13.006   2.842   4.431 -0.1156 -1.0172  0.5647
   36MOL0     H 4946  12.894   2.628   4.262 -1.1905 -0.2960  3.2153
   36MOL0     H 4947  13.057   2.632   4.342 -0.5329 -0.0136 -0.0397
   36MOL0     H 4948  12.132   3.090   3.843 -1.3307  0.8034 -1.2321
   36MOL0     H 4949  11.947   2.985   3.751  1.6934  2.2321  0.3064
   36MOL0     H 4950  11.720   2.805   3.555  2.0890 -1.9118 -0.6777
   36MOL0     H 4951  11.450   2.799   3.519  1.3718 -1.1223 -1.3542
   36MOL0     H 4952  10.114   2.407   3.266 -0.8576 -0.0328  0.9138
   36MOL0     H 4953   9.893   2.291   3.282 -1.1756 -0.2225 -0.0066
   36MOL0     H 4954   9.452   2.067   2.877 -0.2369 -2.9435 -0.3057
   36MOL0     H 4955   9.257   1.938   2.944 -1.3819 -0.5713  2.4138
   36MOL0     H 4956   9.101   1.796   3.008  0.2302  0.3872  0.2107
   36MOL0     H 4957   9.018   1.775   3.153  0.5341 -0.8761 -0.6447
   36MOL0     H 4958   8.902   1.968   3.042  0.2511  1.0863 -1.1188
   36MOL0     H 4959   9.061   2.044   2.999  0.8258 -2.2577 -1.4163
   36MOL0     H 4960   8.950   2.021   3.289 -0.4275  2.1915  2.2775
   36MOL0     H 4961   9.104   2.090   3.226  0.0449 -1.2864 -0.8802
   36MOL0     H 4962   8.925   2.246   3.299 -3.3692 -2.6177  0.6383
   36MOL0     H 4963   8.829   2.213   3.158  0.1496  1.7645 -0.2426
   36MOL0     H 4964   9.138   2.474   3.030  0.5420 -0.7992 -2.7589
   36MOL0     H 4965   9.403   1.902   3.335 -0.9671  3.0545  1.4520
   36MOL0     H 4966   9.660   2.155   3.320  3.2561 -0.1594 -1.1191
   36MOL0     H 4967   9.581   2.029   3.417 -1.7707  0.0336 -0.5830
   36MOL0     H 4968   9.720   1.993   3.306 -0.3384  0.9345 -1.1403
   37MOL0     O 4969   1.219   0.037   1.604 -0.2873 -0.6532 -0.3286
   37MOL0     C 4970   1.332  -0.011   1.587 -0.4398 -1.1585  0.0166
   37MOL0     O 4971   1.359  -0.123   1.510 -1.2855 -0.5485 -0.0032
   37MOL0     C 4972   1.267  -0.184   1.429  0.2489 -1.0781 -0.8720
   37MOL0     C 4973   1.263  -0.319   1.448 -0.8513  1.4523  0.5986
   37MOL0     C 4974   1.178  -0.398   1.367 -0.0851  0.5207 -0.1433
   37MOL0     C 4975   1.074  -0.343   1.295  0.5866  0.4271  0.0982
   37MOL0     O 4976   0.988  -0.418   1.218 -0.2424  0.0746  0.0365
   37MOL0     C 4977   0.858  -0.375   1.212 -0.4826  0.7709 -0.2689
   37MOL0     C 4978   0.758  -0.493   1.187 -0.5748 -1.2955 -0.2877
   37MOL0     C 4979   0.612  -0.435   1.174  0.7746 -0.3295 -0.1176
   37MOL0     C 4980   0.511  -0.544   1.203  0.0938  0.3085  0.2688
   37MOL0     C 4981   0.528  -0.674   1.115 -0.7877 -0.3341  0.5497
   37MOL0     C 4982   0.396  -0.742   1.110  1.5784  0.1724  0.9397
   37MOL0     C 4983   0.413  -0.855   1.021 -0.8839 -0.0570  0.3841
   37MOL0     C 4984   0.292  -0.948   1.007  0.3421  1.4061  1.2129
   37MOL0     N 4985   0.244  -1.026   1.127  0.2218  0.0627 -0.4685
   37MOL0     C 4986   0.257  -1.160   1.128 -0.3298  0.8512 -0.8315
   37MOL0     C 4987   0.185  -1.199   1.238 -0.4053 -0.0655 -0.1266
   37MOL0     C 4988   0.180  -1.344   1.279 -0.0425  0.5214 -0.0086
   37MOL0     C 4989   0.166  -1.432   1.156  0.6284 -0.9379 -0.1424
   37MOL0     C 4990   0.126  -1.569   1.195  0.1367  0.6154  0.3473
   37MOL0     C 4991  -0.026  -1.586   1.175  0.7565  0.6103  0.2673
   37MOL0     O 4992  -0.088  -1.550   1.297  0.0605 -0.0222 -0.1712
   37MOL0     C 4993  -0.227  -1.556   1.309  0.3789 -0.1348 -0.1584
   37MOL0     C 4994  -0.276  -1.528   1.435  0.1729  0.1231  0.5390
   37MOL0     C 4995  -0.413  -1.540   1.459  0.3891 -0.5972 -0.6954
   37MOL0     C 4996  -0.463  -1.504   1.602  0.7529  0.2014  0.1709
   37MOL0     C 4997  -0.499  -1.587   1.358  0.0773  0.0566 -0.7242
   37MOL0     C 4998  -0.637  -1.614   1.381  0.6092 -1.1250  0.1133
   37MOL0     O 4999  -0.712  -1.541   1.463 -1.2603  0.5338  0.5218
   37MOL0     C 5000  -0.848  -1.551   1.476  0.3388 -0.6208 -0.6782
   37MOL0     C 5001  -0.898  -1.519   1.607 -0.0052  0.1664 -0.5586
   37MOL0     C 5002  -1.033  -1.544   1.647  0.6798 -0.6528  0.0623
   37MOL0     C 5003  -1.122  -1.582   1.549 -0.4317  0.1421  0.9702
   37MOL0     O 5004  -1.261  -1.585   1.562 -0.7545 -0.0469 -0.4935
   37MOL0     C 5005  -1.313  -1.708   1.613  0.1027  0.1647  0.7561
   37MOL0     C 5006  -1.461  -1.750   1.571 -0.2332 -0.2761  0.0920
   37MOL0     C 5007  -1.573  -1.650   1.602  0.1466  0.2553 -0.3873
   37MOL0     C 5008  -1.694  -1.732   1.605  0.4935  0.3692 -0.4692
   37MOL0     C 5009  -1.804  -1.645   1.670 -0.0690 -0.4502  0.6836
   37MOL0     C 5010  -1.810  -1.667   1.818 -0.1405 -1.2045 -1.0370
   37MOL0     C 5011  -1.935  -1.596   1.873 -0.8563 -0.0333  0.6324
   37MOL0     C 5012  -1.932  -1.444   1.849 -0.5932 -0.0065  0.5904
   37MOL0    Cl 5013  -2.008  -1.390   1.685 -0.1164 -0.1702  0.5234
   37MOL0     C 5014  -1.075  -1.615   1.422 -1.0149  0.3660  0.6080
   37MOL0     C 5015  -0.946  -1.612   1.387 -0.6290 -0.7432 -0.4507
   37MOL0     O 5016  -0.678  -1.700   1.307  0.2565  0.8221 -0.0352
   37MOL0     C 5017  -0.439  -1.612   1.230  0.4416  0.1540  0.3892
   37MOL0     C 5018  -0.303  -1.611   1.213  0.0584 -0.5991 -0.3940
   37MOL0     N 5019   0.131  -1.087   1.303 -0.4695  0.1517 -0.3166
   37MOL0     N 5020   0.165  -0.983   1.225 -0.2948  0.3533  0.0135
   37MOL0     C 5021   1.066  -0.200   1.292 -0.3233 -0.2134  0.0002
   37MOL0     C 5022   1.166  -0.120   1.360  0.5610 -0.4359 -0.4619
   37MOL0     C 5023   1.459   0.049   1.640  0.5877 -0.9451  0.2088
   37MOL0     C 5024   1.541  -0.031   1.727  1.3535  0.3025  0.4086
   37MOL0     C 5025   1.660   0.021   1.771 -0.1616  0.3063 -0.0988
   37MOL0     C 5026   1.691   0.150   1.730 -0.0479  0.1104 -0.8567
   37MOL0     O 5027   1.811   0.205   1.773 -0.7614  0.1841 -0.3930
   37MOL0     C 5028   1.930   0.143   1.724 -1.0212  0.3897  0.2084
   37MOL0     C 5029   2.060   0.215   1.777 -0.5391 -0.2579  0.0414
   37MOL0     C 5030   2.067   0.355   1.728 -0.0540 -0.7642  0.7237
   37MOL0     C 5031   2.204   0.422   1.733 -0.1797 -0.0688  0.2326
   37MOL0     C 5032   2.271   0.419   1.599  0.2158 -0.4578 -0.7964
   37MOL0     C 5033   2.323   0.454   1.495 -0.5096  0.2867  0.1186
   37MOL0     C 5034   1.623   0.232   1.636 -0.5077 -0.2350 -0.7203
   37MOL0     C 5035   1.506   0.169   1.596  0.1681  0.5521 -0.2031
   37MOL0     C 5036   1.424   0.240   1.482 -0.1975 -0.9006 -0.5892
   37MOL0     H 5037   1.353  -0.346   1.502 -0.0562  0.6503 -1.0726
   37MOL0     H 5038   1.184  -0.507   1.362  0.2348  0.5070  0.4340
   37MOL0     H 5039   0.850  -0.329   1.113 -2.3854 -0.5155 -0.7514
   37MOL0     H 5040   0.825  -0.319   1.300  1.8151 -0.4100  1.4600
   37MOL0     H 5041   0.778  -0.549   1.096 -0.4959 -0.9135 -0.5074
   37MOL0     H 5042   0.752  -0.550   1.280 -1.7854  0.5664  0.8554
   37MOL0     H 5043   0.592  -0.340   1.224 -0.1751  0.3017 -1.6022
   37MOL0     H 5044   0.591  -0.401   1.072  0.2195  2.1900  0.7631
   37MOL0     H 5045   0.520  -0.575   1.307  2.4352 -0.1633 -0.0169
   37MOL0     H 5046   0.409  -0.511   1.181 -0.4415 -1.6017 -0.3013
   37MOL0     H 5047   0.610  -0.731   1.160 -0.0249  1.3241  1.3887
   37MOL0     H 5048   0.564  -0.653   1.014 -1.2215  2.3977  0.8775
   37MOL0     H 5049   0.363  -0.779   1.207 -1.6975 -2.0208 -0.8320
   37MOL0     H 5050   0.313  -0.678   1.079 -0.6032 -2.9570 -0.1182
   37MOL0     H 5051   0.488  -0.924   1.062 -2.1352  0.3554  3.6482
   37MOL0     H 5052   0.453  -0.834   0.921 -0.2116 -3.3072 -0.1352
   37MOL0     H 5053   0.206  -0.892   0.970 -1.8008 -3.1717 -1.7199
   37MOL0     H 5054   0.314  -1.021   0.928  0.9149 -0.9223  3.3945
   37MOL0     H 5055   0.310  -1.222   1.058 -0.6821  2.4696 -2.6180
   37MOL0     H 5056   0.088  -1.363   1.336 -0.1630 -0.0179 -0.3811
   37MOL0     H 5057   0.266  -1.362   1.345  0.4643 -1.3311 -1.0896
   37MOL0     H 5058   0.096  -1.396   1.080  1.7819  3.1650  0.4668
   37MOL0     H 5059   0.267  -1.437   1.113  2.4024  0.1737  3.4820
   37MOL0     H 5060   0.167  -1.633   1.116  1.9693 -0.0638  1.7849
   37MOL0     H 5061   0.163  -1.603   1.292 -0.9093  1.6197  1.1208
   37MOL0     H 5062  -0.071  -1.534   1.090  4.0739  2.8227 -0.2797
   37MOL0     H 5063  -0.055  -1.688   1.147 -1.2460  1.2727 -0.3024
   37MOL0     H 5064  -0.198  -1.507   1.507  1.0971 -3.7528  0.8748
   37MOL0     H 5065  -0.515  -1.594   1.638  1.5460 -0.1508  0.4762
   37MOL0     H 5066  -0.546  -1.433   1.600 -1.1949 -1.9127  1.1151
   37MOL0     H 5067  -0.382  -1.469   1.667 -0.1406  1.5082  0.6137
   37MOL0     H 5068  -0.836  -1.469   1.681 -0.8348 -3.4676  2.9308
   37MOL0     H 5069  -1.068  -1.521   1.748  0.6379 -0.4149 -0.0067
   37MOL0     H 5070  -1.246  -1.790   1.585 -2.0569 -0.7361 -2.4423
   37MOL0     H 5071  -1.328  -1.699   1.721  0.9621  1.6153  0.7766
   37MOL0     H 5072  -1.458  -1.768   1.463  1.3297  2.4698 -0.3969
   37MOL0     H 5073  -1.480  -1.848   1.616 -0.5828 -1.7499 -3.0186
   37MOL0     H 5074  -1.581  -1.579   1.520  1.0210  3.7450  2.3072
   37MOL0     H 5075  -1.534  -1.598   1.690  1.7058 -3.8320  1.5986
   37MOL0     H 5076  -1.684  -1.834   1.644  1.2433 -0.2898 -2.2830
   37MOL0     H 5077  -1.719  -1.751   1.501  1.0168  0.4881 -0.6168
   37MOL0     H 5078  -1.795  -1.538   1.652  3.1574 -0.4505  1.6444
   37MOL0     H 5079  -1.900  -1.670   1.623 -0.6836  1.8123  0.6019
   37MOL0     H 5080  -1.724  -1.614   1.859 -0.3288  0.6920 -2.8878
   37MOL0     H 5081  -1.812  -1.770   1.853  0.8629 -0.3258  1.9004
   37MOL0     H 5082  -1.941  -1.607   1.981  2.3064  0.8318  0.9941
   37MOL0     H 5083  -2.021  -1.654   1.838  0.2293 -2.0632  1.2207
   37MOL0     H 5084  -1.840  -1.388   1.865 -1.6344  2.6210 -1.7154
   37MOL0     H 5085  -2.001  -1.396   1.919 -0.7743  1.0285 -0.2697
   37MOL0     H 5086  -1.135  -1.657   1.342  2.0601 -2.7735 -0.2837
   37MOL0     H 5087  -0.930  -1.647   1.285  2.8019 -2.0083  0.3633
   37MOL0     H 5088  -0.505  -1.646   1.151 -1.3555  0.7234  1.5707
   37MOL0     H 5089  -0.261  -1.645   1.119  1.8476 -0.6178  0.3789
   37MOL0     H 5090   0.991  -0.153   1.229 -0.0206 -1.2782 -1.1948
   37MOL0     H 5091   1.165  -0.011   1.354 -3.0850 -0.2708  0.6206
   37MOL0     H 5092   1.512  -0.131   1.758  2.1148 -0.5627 -1.5819
   37MOL0     H 5093   1.707  -0.052   1.837 -0.4318  1.0169  0.9174
   37MOL0     H 5094   1.934   0.044   1.770 -1.6727 -0.5584 -1.6731
   37MOL0     H 5095   1.926   0.131   1.615 -0.3145 -0.0445  0.2237
   37MOL0     H 5096   2.145   0.162   1.732  0.6363  0.4384  1.3732
   37MOL0     H 5097   2.061   0.224   1.886 -1.9796 -1.1147  0.1563
   37MOL0     H 5098   2.025   0.353   1.626 -4.8404 -1.8452  2.4422
   37MOL0     H 5099   1.997   0.424   1.776 -0.8698  1.1490 -2.8395
   37MOL0     H 5100   2.266   0.374   1.809  0.4585  2.6360  1.5643
   37MOL0     H 5101   2.198   0.525   1.770 -4.4042  0.0078 -0.1327
   37MOL0     H 5102   2.365   0.483   1.400  0.4896 -2.2341 -0.2863
   37MOL0     H 5103   1.662   0.320   1.586  3.1415 -1.3351 -0.1833
   37MOL0     H 5104   1.469   0.338   1.465 -1.8861 -0.1232 -0.7459
   37MOL0     H 5105   1.420   0.177   1.393  1.1959  0.9198 -2.0126
   37MOL0     H 5106   1.322   0.267   1.512 -0.0779 -0.0379 -0.9242
   38MOL0     O 5107  10.846   9.173  10.339 -0.5726 -0.3982  0.4134
   38MOL0     C 5108  10.753   9.111  10.280 -0.8586  0.3694  0.6659
   38MOL0     O 5109  10.742   8.969  10.282  0.3930 -0.7891  0.6501
   38MOL0     C 5110  10.835   8.891  10.353  1.3754  0.1767 -0.6193
   38MOL0     C 5111  10.876   8.772  10.291 -0.2761 -0.0412  1.3195
   38MOL0     C 5112  10.979   8.696  10.343  1.2108 -0.3868 -0.6792
   38MOL0     C 5113  11.027   8.722  10.475 -0.3739 -0.3116  0.2980
   38MOL0     O 5114  11.126   8.647  10.531  0.2163  0.2632 -0.0178
   38MOL0     C 5115  11.101   8.585  10.658  0.8085  0.8622 -0.0703
   38MOL0     C 5116  11.166   8.658  10.772 -0.1430 -0.3226 -0.6122
   38MOL0     C 5117  11.183   8.564  10.886 -0.4208 -0.5979  0.2660
   38MOL0     C 5118  11.226   8.635  11.017 -0.7711  0.3628  0.5577
   38MOL0     C 5119  11.212   8.543  11.142  0.4114  0.0533 -0.5328
   38MOL0     C 5120  11.331   8.436  11.141 -0.1321 -0.6690  0.0914
   38MOL0     C 5121  11.327   8.338  11.253 -0.2499 -0.1271  0.2995
   38MOL0     C 5122  11.199   8.261  11.264  0.3797  0.8693 -0.6130
   38MOL0     N 5123  11.212   8.166  11.376 -0.1082  0.6894 -0.0627
   38MOL0     C 5124  11.262   8.036  11.375  0.7046  0.0517 -0.5884
   38MOL0     C 5125  11.245   8.002  11.499 -1.1473  1.2298 -0.7206
   38MOL0     C 5126  11.293   7.859  11.544 -0.2943 -0.7102 -0.6279
   38MOL0     C 5127  11.438   7.832  11.528  0.4543  0.5456 -0.0940
   38MOL0     C 5128  11.531   7.930  11.586 -0.1001  0.1098 -0.2940
   38MOL0     C 5129  11.494   7.963  11.730 -0.5250  0.5676 -0.5887
   38MOL0     O 5130  11.613   7.982  11.815  0.4838  0.2673  0.0410
   38MOL0     C 5131  11.634   7.927  11.946 -0.4066 -0.7642  0.2206
   38MOL0     C 5132  11.567   7.821  12.014  0.4425 -0.6385  0.5285
   38MOL0     C 5133  11.618   7.754  12.125  0.2865  0.2597 -0.0154
   38MOL0     C 5134  11.540   7.640  12.163  0.5373 -0.2115 -0.7389
   38MOL0     C 5135  11.738   7.803  12.182  0.4891 -0.4488 -0.2296
   38MOL0     C 5136  11.794   7.754  12.298  0.5570 -1.0824  0.6154
   38MOL0     O 5137  11.914   7.821  12.335  0.9000 -0.3986 -0.3001
   38MOL0     C 5138  11.991   7.770  12.436  0.2694 -0.7168 -0.2338
   38MOL0     C 5139  12.046   7.865  12.534  0.3940  1.2046  0.4550
   38MOL0     C 5140  12.117   7.820  12.648  0.3308 -0.4441  0.3656
   38MOL0     C 5141  12.150   7.682  12.674 -0.0448 -0.5651 -0.9258
   38MOL0     O 5142  12.241   7.642  12.768  0.0644  0.1383 -0.8000
   38MOL0     C 5143  12.195   7.644  12.904 -0.7827 -0.7169 -0.2824
   38MOL0     C 5144  12.210   7.507  12.972  0.3567  0.3146  0.8534
   38MOL0     C 5145  12.145   7.491  13.103  0.1654 -1.1428 -0.9176
   38MOL0     C 5146  12.218   7.506  13.242 -0.2276 -0.1215 -0.5142
   38MOL0     C 5147  12.257   7.648  13.263  0.9332  0.4742  0.2665
   38MOL0     C 5148  12.382   7.671  13.348 -0.2305 -0.1326  0.8529
   38MOL0     C 5149  12.390   7.589  13.475  0.3213 -0.0364 -0.3194
   38MOL0     C 5150  12.492   7.657  13.576 -0.0137 -0.2615  0.4898
   38MOL0    Cl 5151  12.418   7.806  13.629 -0.0559 -0.1984 -0.0444
   38MOL0     C 5152  12.101   7.587  12.573 -0.9681 -0.6447 -1.3831
   38MOL0     C 5153  12.023   7.632  12.463  0.5651  0.3785 -0.8313
   38MOL0     O 5154  11.748   7.659  12.353  0.6155  1.2554 -0.2131
   38MOL0     C 5155  11.813   7.900  12.110 -0.6937 -0.5331  0.0926
   38MOL0     C 5156  11.750   7.970  12.002  0.1939  0.5854  0.3139
   38MOL0     N 5157  11.217   8.105  11.582  1.0464 -0.5503 -0.2725
   38MOL0     N 5158  11.189   8.206  11.509  0.6102 -0.4934 -0.1025
   38MOL0     C 5159  10.971   8.830  10.543 -0.2702 -0.4078 -0.6964
   38MOL0     C 5160  10.884   8.916  10.486  0.0817  0.3325 -0.9932
   38MOL0     C 5161  10.632   9.177  10.221 -0.0600 -1.2713  0.4228
   38MOL0     C 5162  10.505   9.119  10.248 -0.1584  0.0638  0.9785
   38MOL0     C 5163  10.380   9.174  10.205 -0.1721  0.8593  0.7354
   38MOL0     C 5164  10.378   9.296  10.143 -0.8517  0.4195  0.8637
   38MOL0     O 5165  10.250   9.352  10.124  0.2392  0.0273 -0.4810
   38MOL0     C 5166  10.242   9.467  10.213  0.5874 -0.2028  0.9673
   38MOL0     C 5167  10.097   9.521  10.225 -0.1985 -1.0930 -0.0641
   38MOL0     C 5168  10.004   9.460  10.328 -0.2451 -0.6183  0.0778
   38MOL0     C 5169   9.983   9.311  10.294  0.5631 -0.3425 -0.2513
   38MOL0     C 5170   9.898   9.246  10.396  0.1186  0.0085 -0.4411
   38MOL0     C 5171   9.837   9.178  10.473  0.4479 -0.3501 -0.5903
   38MOL0     C 5172  10.499   9.358  10.112 -0.2008  0.4511 -0.3419
   38MOL0     C 5173  10.627   9.301  10.147 -0.0247 -0.8623  0.8741
   38MOL0     C 5174  10.748   9.399  10.125 -0.5530 -0.3506  0.2937
   38MOL0     H 5175  10.838   8.744  10.194  3.1236  1.9279 -0.7745
   38MOL0     H 5176  11.002   8.608  10.284 -1.8081  0.3637 -3.2639
   38MOL0     H 5177  11.150   8.487  10.662 -0.2721  0.3582  1.5833
   38MOL0     H 5178  10.996   8.575  10.685  1.0245  0.8977  0.8178
   38MOL0     H 5179  11.265   8.693  10.742  0.0738 -0.8463 -0.5201
   38MOL0     H 5180  11.110   8.745  10.809  1.6659 -0.6027  3.2143
   38MOL0     H 5181  11.089   8.513  10.909  0.8177 -1.1427  5.5519
   38MOL0     H 5182  11.251   8.483  10.858 -2.1257 -1.0949 -2.8273
   38MOL0     H 5183  11.333   8.652  11.007 -0.4127 -2.5198 -2.0901
   38MOL0     H 5184  11.166   8.724  11.036 -0.5318  0.5696  0.3342
   38MOL0     H 5185  11.121   8.482  11.138  2.2990 -3.3065  2.1863
   38MOL0     H 5186  11.215   8.610  11.228 -0.6612  1.5453 -1.5995
   38MOL0     H 5187  11.340   8.377  11.049  1.1095 -2.1015  1.0738
   38MOL0     H 5188  11.421   8.498  11.149 -2.3329  3.0280 -1.0336
   38MOL0     H 5189  11.325   8.380  11.354  0.0298 -2.2091  1.2370
   38MOL0     H 5190  11.410   8.267  11.248  0.0339 -0.0452  2.6825
   38MOL0     H 5191  11.108   8.320  11.250  1.3309  1.8353 -3.5124
   38MOL0     H 5192  11.196   8.211  11.166 -0.2127  0.0864 -0.2050
   38MOL0     H 5193  11.292   7.970  11.294 -2.4480 -1.2467 -0.8339
   38MOL0     H 5194  11.224   7.793  11.492 -0.5405 -2.1078  1.3588
   38MOL0     H 5195  11.277   7.844  11.651 -0.1802 -0.6441 -0.6014
   38MOL0     H 5196  11.450   7.731  11.568 -4.5190  0.8708  3.1950
   38MOL0     H 5197  11.462   7.832  11.421 -1.5330  2.5808 -0.6297
   38MOL0     H 5198  11.633   7.889  11.584 -0.5374 -1.0179 -0.5853
   38MOL0     H 5199  11.524   8.017  11.520 -2.5316 -1.3727 -2.1972
   38MOL0     H 5200  11.438   8.057  11.735 -3.7867 -1.3050  1.9348
   38MOL0     H 5201  11.438   7.880  11.773  0.6315 -0.0916 -0.3293
   38MOL0     H 5202  11.473   7.786  11.974  0.8911  0.0508 -1.1989
   38MOL0     H 5203  11.449   7.637  12.101 -1.2874  0.3413  1.7595
   38MOL0     H 5204  11.519   7.657  12.269  1.6272 -1.6143 -0.2693
   38MOL0     H 5205  11.604   7.554  12.148  0.8076  0.2530 -2.5239
   38MOL0     H 5206  12.020   7.971  12.528 -2.2965  0.6993  1.8373
   38MOL0     H 5207  12.160   7.886  12.722  4.2941 -2.3901  0.0380
   38MOL0     H 5208  12.262   7.716  12.952 -1.0948 -0.6144  0.0084
   38MOL0     H 5209  12.098   7.685  12.936 -0.5901 -2.3033  2.7165
   38MOL0     H 5210  12.166   7.435  12.903  0.1738  2.3435 -1.3143
   38MOL0     H 5211  12.317   7.483  12.979  0.6503  1.7730  1.9631
   38MOL0     H 5212  12.107   7.388  13.110  3.7541 -2.4991  1.5997
   38MOL0     H 5213  12.056   7.555  13.099 -1.1340 -2.9046 -1.9403
   38MOL0     H 5214  12.303   7.438  13.245 -0.1722 -0.0316  0.0421
   38MOL0     H 5215  12.155   7.470  13.324  1.0088 -0.3682  0.3572
   38MOL0     H 5216  12.282   7.698  13.168 -0.2640  0.9876  0.2123
   38MOL0     H 5217  12.176   7.713  13.296  0.8001  1.8222 -2.4261
   38MOL0     H 5218  12.393   7.775  13.379 -0.4448 -0.3557  1.7067
   38MOL0     H 5219  12.462   7.650  13.276 -0.7249  2.2107 -0.4573
   38MOL0     H 5220  12.438   7.494  13.448 -1.6881 -0.3159 -3.3581
   38MOL0     H 5221  12.296   7.563  13.526  1.3203 -3.8478 -0.1406
   38MOL0     H 5222  12.582   7.675  13.516 -0.7406  0.4353 -0.4426
   38MOL0     H 5223  12.489   7.590  13.662  0.9863  0.1714  0.8687
   38MOL0     H 5224  12.137   7.485  12.585 -0.4684 -0.1132  6.0755
   38MOL0     H 5225  11.999   7.549  12.397 -0.8036  0.3423 -0.3157
   38MOL0     H 5226  11.906   7.949  12.135 -0.3991 -0.6459 -0.7540
   38MOL0     H 5227  11.796   8.052  11.949 -5.0799  2.5455 -2.0025
   38MOL0     H 5228  11.003   8.870  10.639  0.4030 -0.1024 -1.0393
   38MOL0     H 5229  10.862   9.009  10.539 -1.2832  0.5622 -1.9225
   38MOL0     H 5230  10.490   9.025  10.299 -1.0757 -1.0036 -1.1275
   38MOL0     H 5231  10.291   9.112  10.216 -0.0740  0.1930 -1.6972
   38MOL0     H 5232  10.274   9.433  10.312  2.7961 -1.0872  0.0266
   38MOL0     H 5233  10.309   9.550  10.190 -0.2933  0.0334 -0.9317
   38MOL0     H 5234  10.043   9.519  10.130  1.2087  0.8490 -0.9703
   38MOL0     H 5235  10.103   9.628  10.249  1.4724 -0.6158 -2.3019
   38MOL0     H 5236  10.042   9.467  10.431 -0.8922  1.8002  0.1993
   38MOL0     H 5237   9.912   9.517  10.323  1.5771  2.5799  0.5552
   38MOL0     H 5238  10.080   9.259  10.295  2.0323  2.2211 -0.2058
   38MOL0     H 5239   9.946   9.292  10.193 -1.4194  1.3311  0.1092
   38MOL0     H 5240   9.781   9.115  10.539  1.3584 -1.7118 -1.0661
   38MOL0     H 5241  10.516   9.446  10.050  0.4163  0.8684  0.4088
   38MOL0     H 5242  10.786   9.443  10.218  0.2940 -1.2978  0.4005
   38MOL0     H 5243  10.820   9.339  10.070 -2.2505 -2.0909 -0.1565
   38MOL0     H 5244  10.723   9.480  10.056 -0.3692 -0.0727  0.5479
   39MOL0     O 5245   6.336   1.901   8.374 -0.5277 -0.3797 -0.4222
   39MOL0     C 5246   6.301   1.796   8.324 -0.1218  0.5375  0.2692
   39MOL0     O 5247   6.296   1.673   8.384 -0.2793 -1.1441 -0.9403
   39MOL0     C 5248   6.358   1.672   8.509 -0.5619 -0.2399 -0.5817
   39MOL0     C 5249   6.264   1.651   8.623 -0.2853  0.5576  0.0494
   39MOL0     C 5250   6.326   1.630   8.752  0.4015  0.0012  0.0833
   39MOL0     C 5251   6.466   1.638   8.764  0.4699  0.4810  1.2393
   39MOL0     O 5252   6.524   1.623   8.888  0.1285  0.3408  0.4440
   39MOL0     C 5253   6.668   1.659   8.903 -0.6203 -0.5975  0.4735
   39MOL0     C 5254   6.727   1.625   9.031  0.2843 -1.1575 -0.3258
   39MOL0     C 5255   6.864   1.688   9.059 -0.2130 -0.3322  0.1544
   39MOL0     C 5256   6.906   1.703   9.202 -1.0597  0.3070  0.0791
   39MOL0     C 5257   7.016   1.800   9.228  0.4373 -0.6296  0.4327
   39MOL0     C 5258   7.154   1.742   9.184  0.2459 -1.3000 -0.3674
   39MOL0     C 5259   7.260   1.850   9.218  0.3911 -0.8070  0.4133
   39MOL0     C 5260   7.403   1.805   9.221  0.9276 -0.5809  0.0093
   39MOL0     N 5261   7.495   1.924   9.247 -0.2096 -0.2127 -0.2362
   39MOL0     C 5262   7.476   1.999   9.365 -0.0535 -0.0081  0.7842
   39MOL0     C 5263   7.593   2.070   9.371  0.5646  0.6814  0.3360
   39MOL0     C 5264   7.648   2.157   9.474  0.5655 -1.1175 -0.8335
   39MOL0     C 5265   7.653   2.079   9.605 -0.8778 -0.2561 -0.5963
   39MOL0     C 5266   7.717   2.154   9.717  0.3071  0.3969  0.1098
   39MOL0     C 5267   7.864   2.140   9.724 -0.2831 -0.2885  0.8281
   39MOL0     O 5268   7.922   2.187   9.847 -0.3241 -0.3881  0.1708
   39MOL0     C 5269   7.966   2.083   9.929 -0.1301  0.5868 -0.7280
   39MOL0     C 5270   8.095   2.081   9.979 -0.0261 -0.1293  0.3968
   39MOL0     C 5271   8.140   1.989  10.078  0.2189 -1.0445 -0.4363
   39MOL0     C 5272   8.283   2.006  10.123  0.0894 -0.7710  0.1157
   39MOL0     C 5273   8.044   1.898  10.138 -1.2348 -0.4097 -0.0864
   39MOL0     C 5274   8.079   1.816  10.257  0.0556  0.8226  0.3151
   39MOL0     O 5275   8.160   1.875  10.349  0.0564  0.4037  0.9682
   39MOL0     C 5276   8.195   1.807  10.465 -0.5594  0.2563  0.2079
   39MOL0     C 5277   8.246   1.676  10.475 -0.1552  0.5066  0.8159
   39MOL0     C 5278   8.289   1.619  10.593 -0.0507 -0.0475  0.0617
   39MOL0     C 5279   8.283   1.692  10.713  0.4903 -0.9193  0.7560
   39MOL0     O 5280   8.310   1.642  10.839 -0.2959  0.2996 -0.2818
   39MOL0     C 5281   8.350   1.498  10.846  0.2542 -0.7644  0.5176
   39MOL0     C 5282   8.298   1.448  10.986 -0.5449 -0.1887  0.1357
   39MOL0     C 5283   8.143   1.423  10.977  0.1502 -0.5217  0.0060
   39MOL0     C 5284   8.082   1.372  11.103 -0.4052  0.2952 -0.0404
   39MOL0     C 5285   8.045   1.485  11.189  0.1604 -0.2092  0.0844
   39MOL0     C 5286   8.039   1.448  11.334  0.2371 -1.0638  0.4094
   39MOL0     C 5287   7.996   1.558  11.435 -0.3783 -0.9148 -0.8818
   39MOL0     C 5288   7.871   1.636  11.399 -0.7234 -0.2321  0.0175
   39MOL0    Cl 5289   7.731   1.514  11.391  0.7508 -0.4971 -0.3504
   39MOL0     C 5290   8.244   1.823  10.703 -0.2280  0.6688  0.1850
   39MOL0     C 5291   8.194   1.881  10.580 -0.6395  0.2352  0.4286
   39MOL0     O 5292   8.037   1.695  10.268 -0.5764 -0.4506  0.7581
   39MOL0     C 5293   7.914   1.891  10.081  0.0083  0.3434 -0.2953
   39MOL0     C 5294   7.875   1.987   9.983  0.5884  0.4077  0.2724
   39MOL0     N 5295   7.667   2.038   9.256  0.7999 -1.0113 -0.6375
   39MOL0     N 5296   7.613   1.940   9.189  0.4228  0.8308  0.6477
   39MOL0     C 5297   6.540   1.659   8.649 -1.4098 -0.4621  0.3661
   39MOL0     C 5298   6.493   1.684   8.522  0.2223  0.0342 -0.3282
   39MOL0     C 5299   6.258   1.797   8.183  0.2489  0.0171 -0.8841
   39MOL0     C 5300   6.295   1.898   8.096  0.2734 -0.2115 -0.7799
   39MOL0     C 5301   6.256   1.919   7.966 -0.3640  0.7433  0.1719
   39MOL0     C 5302   6.160   1.834   7.906 -0.0994  0.0260  1.0250
   39MOL0     O 5303   6.106   1.843   7.784 -0.4299  0.8731 -0.0788
   39MOL0     C 5304   6.165   1.937   7.689 -0.0886 -1.0183 -0.7748
   39MOL0     C 5305   6.100   1.905   7.555 -0.2231  0.3280 -0.0329
   39MOL0     C 5306   5.952   1.952   7.549 -0.1895  0.0932  0.4885
   39MOL0     C 5307   5.869   1.937   7.421  0.3422  0.6206 -0.6113
   39MOL0     C 5308   5.951   1.973   7.310 -0.2870  1.0291  0.0159
   39MOL0     C 5309   6.020   2.017   7.211 -0.6206 -0.0375 -0.6800
   39MOL0     C 5310   6.120   1.721   7.980  0.1025  0.5037  0.3723
   39MOL0     C 5311   6.174   1.705   8.116  0.1656 -0.1866 -1.0109
   39MOL0     C 5312   6.143   1.571   8.178 -0.8149 -0.8390 -0.1983
   39MOL0     H 5313   6.159   1.632   8.604 -0.2143 -1.3818  1.3079
   39MOL0     H 5314   6.278   1.589   8.840  2.6311  0.4248  1.5743
   39MOL0     H 5315   6.666   1.767   8.888 -1.0679 -0.6195  0.3583
   39MOL0     H 5316   6.730   1.610   8.827 -0.5128  1.1873 -0.6372
   39MOL0     H 5317   6.648   1.645   9.104 -2.0062 -2.9741 -2.1161
   39MOL0     H 5318   6.737   1.516   9.030 -0.3076 -1.2573 -2.8056
   39MOL0     H 5319   6.939   1.634   9.000 -0.0198  0.8760 -0.7372
   39MOL0     H 5320   6.866   1.786   9.011  0.2912 -0.7018 -0.6029
   39MOL0     H 5321   6.821   1.724   9.268 -0.4206  0.0845  0.9848
   39MOL0     H 5322   6.943   1.603   9.226 -0.8304  0.2679 -0.4155
   39MOL0     H 5323   7.016   1.828   9.334 -1.1879  1.6178 -0.1045
   39MOL0     H 5324   6.994   1.886   9.165  0.3326 -1.4885 -0.7355
   39MOL0     H 5325   7.164   1.649   9.240  0.3764 -0.0213  1.8208
   39MOL0     H 5326   7.156   1.731   9.075 -0.1207 -0.1791 -0.5009
   39MOL0     H 5327   7.234   1.895   9.315 -0.1084 -2.4316  1.0561
   39MOL0     H 5328   7.255   1.929   9.142  1.4398 -0.8694  0.2696
   39MOL0     H 5329   7.414   1.723   9.292  0.6457  1.1285  2.1368
   39MOL0     H 5330   7.417   1.776   9.116 -0.6160  2.0040 -1.0316
   39MOL0     H 5331   7.393   1.996   9.435 -1.6718 -1.7554 -1.0727
   39MOL0     H 5332   7.572   2.235   9.481  0.7012 -1.0739  0.2350
   39MOL0     H 5333   7.746   2.201   9.453  0.6912 -0.1972  1.4034
   39MOL0     H 5334   7.551   2.053   9.636 -1.5218  0.7980 -1.7527
   39MOL0     H 5335   7.705   1.984   9.587  2.0583  1.6281 -2.8156
   39MOL0     H 5336   7.685   2.258   9.707 -0.6732  0.0313 -0.6080
   39MOL0     H 5337   7.681   2.122   9.815 -3.0996  1.9772 -0.5107
   39MOL0     H 5338   7.884   2.033   9.718  1.8042 -0.0236  2.1925
   39MOL0     H 5339   7.903   2.202   9.642 -0.6976 -3.1054 -1.6638
   39MOL0     H 5340   8.147   2.169   9.943 -1.0268  0.5989  0.7140
   39MOL0     H 5341   8.288   2.071  10.210 -0.5936 -2.4055  1.4155
   39MOL0     H 5342   8.332   2.064  10.043 -0.9752  2.6475  1.7780
   39MOL0     H 5343   8.331   1.910  10.142 -0.3978 -1.1531 -0.5284
   39MOL0     H 5344   8.267   1.632  10.378  0.7781 -0.9340  1.6380
   39MOL0     H 5345   8.329   1.518  10.585  0.6550  0.3870 -3.2603
   39MOL0     H 5346   8.299   1.436  10.772 -1.7463 -0.2647  1.4133
   39MOL0     H 5347   8.458   1.482  10.840 -0.1378 -4.8246  1.2845
   39MOL0     H 5348   8.354   1.360  11.018 -1.4573  0.2966  3.4029
   39MOL0     H 5349   8.309   1.535  11.051 -0.8357  1.4345 -1.8669
   39MOL0     H 5350   8.137   1.346  10.899 -2.1724  0.0418 -0.4687
   39MOL0     H 5351   8.090   1.512  10.942  2.2548  0.8985  0.3105
   39MOL0     H 5352   8.139   1.293  11.152 -0.7336  0.7195  1.0628
   39MOL0     H 5353   7.987   1.328  11.071 -0.6958  1.9808 -1.7030
   39MOL0     H 5354   8.115   1.567  11.177 -0.2882 -0.1449 -2.8870
   39MOL0     H 5355   7.950   1.519  11.147  0.7727 -0.2487 -1.3549
   39MOL0     H 5356   8.138   1.407  11.358  1.3042  1.2006  0.1332
   39MOL0     H 5357   7.953   1.381  11.334 -0.4180 -0.4962 -3.7464
   39MOL0     H 5358   8.083   1.622  11.455 -1.2432 -0.3529  1.4422
   39MOL0     H 5359   7.980   1.513  11.533 -2.6090  0.8557 -0.3499
   39MOL0     H 5360   7.886   1.692  11.306 -3.7300 -0.6371 -0.8333
   39MOL0     H 5361   7.824   1.696  11.477 -1.5191 -0.3600 -0.3504
   39MOL0     H 5362   8.258   1.879  10.794 -2.7946  0.2274  0.9484
   39MOL0     H 5363   8.168   1.986  10.575  0.9966  0.7773  2.3544
   39MOL0     H 5364   7.861   1.804  10.120  0.5113 -1.2395 -2.8948
   39MOL0     H 5365   7.772   1.988   9.950  1.0657  0.8108 -1.2625
   39MOL0     H 5366   6.647   1.642   8.641 -2.0651 -4.4292 -2.4214
   39MOL0     H 5367   6.561   1.702   8.440 -0.7623 -0.2498 -1.2364
   39MOL0     H 5368   6.372   1.964   8.135 -1.1725  2.3413 -2.0033
   39MOL0     H 5369   6.292   1.995   7.897  0.5906 -0.1474 -0.3300
   39MOL0     H 5370   6.150   2.035   7.733 -0.1140 -3.1460  4.7077
   39MOL0     H 5371   6.272   1.913   7.687 -0.2020 -1.4943 -2.2123
   39MOL0     H 5372   6.098   1.797   7.541 -2.9220 -0.7076  5.5202
   39MOL0     H 5373   6.164   1.957   7.483 -0.8921  0.4053 -0.5872
   39MOL0     H 5374   5.899   1.906   7.633  0.0373  1.4418  1.3924
   39MOL0     H 5375   5.936   2.059   7.567 -0.4091  0.3602 -1.1201
   39MOL0     H 5376   5.778   1.998   7.425  0.7827  1.2058  1.1201
   39MOL0     H 5377   5.853   1.829   7.410 -2.2669  0.9393 -0.6886
   39MOL0     H 5378   6.079   2.062   7.135  0.5823 -0.1034  0.1843
   39MOL0     H 5379   6.054   1.646   7.939  1.2149  0.2514 -1.0368
   39MOL0     H 5380   6.235   1.513   8.190  0.4435  1.1522  0.2752
   39MOL0     H 5381   6.104   1.588   8.279  1.8882 -0.8482  0.9222
   39MOL0     H 5382   6.071   1.510   8.122  1.5278 -3.1129 -0.9093
   40MOL0     O 5383   2.901  10.599   1.475  0.0243  0.3724 -0.4773
   40MOL0     C 5384   3.020  10.571   1.509  0.5872  0.2878  0.3962
   40MOL0     O 5385   3.069  10.542   1.638  0.5675 -0.1346 -0.0914
   40MOL0     C 5386   2.976  10.527   1.726 -0.5438  0.1518  0.3639
   40MOL0     C 5387   2.928  10.407   1.761 -0.8020  0.5668 -0.3598
   40MOL0     C 5388   2.829  10.389   1.851  0.6947 -0.5507  0.3621
   40MOL0     C 5389   2.772  10.491   1.914  0.3281 -0.3360  0.6112
   40MOL0     O 5390   2.651  10.472   1.989 -0.3050  0.0319  0.3486
   40MOL0     C 5391   2.577  10.589   2.023  0.5082 -0.3337 -1.0172
   40MOL0     C 5392   2.470  10.558   2.129 -0.1839  0.6466  0.9535
   40MOL0     C 5393   2.391  10.686   2.166 -0.6970  0.0674 -0.7927
   40MOL0     C 5394   2.447  10.761   2.281 -0.0277 -0.5098 -0.5081
   40MOL0     C 5395   2.343  10.843   2.352 -0.1671 -0.1862  0.3345
   40MOL0     C 5396   2.288  10.954   2.259 -0.6480  0.3214  0.5741
   40MOL0     C 5397   2.178  11.037   2.332  0.2821 -0.8946 -0.2877
   40MOL0     C 5398   2.226  11.159   2.414  0.2626 -0.3645 -0.4766
   40MOL0     N 5399   2.120  11.233   2.479  0.8083 -0.8488 -0.5753
   40MOL0     C 5400   2.127  11.310   2.592 -1.0911  0.4698 -0.5709
   40MOL0     C 5401   2.014  11.390   2.581 -0.0370  0.4916  0.0599
   40MOL0     C 5402   1.984  11.501   2.679 -0.3732 -0.3849  0.3730
   40MOL0     C 5403   1.865  11.588   2.651  0.7489  0.3120 -0.3994
   40MOL0     C 5404   1.829  11.673   2.768  0.6032  0.3574  0.0826
   40MOL0     C 5405   1.710  11.751   2.716 -0.1758 -0.5168 -0.7443
   40MOL0     O 5406   1.647  11.837   2.825 -1.4877 -0.2962 -0.1671
   40MOL0     C 5407   1.564  11.791   2.924  0.1662  0.0490  0.6621
   40MOL0     C 5408   1.559  11.659   2.968  0.4696 -1.5034  1.1088
   40MOL0     C 5409   1.476  11.617   3.072 -0.6699  0.6155 -0.7954
   40MOL0     C 5410   1.495  11.477   3.121  0.5116  0.0693  0.6280
   40MOL0     C 5411   1.405  11.717   3.149  0.7984 -0.8924 -0.4702
   40MOL0     C 5412   1.335  11.699   3.283 -0.5229 -0.5216  0.3682
   40MOL0     O 5413   1.261  11.803   3.332  0.0877  0.2378  0.8296
   40MOL0     C 5414   1.241  11.791   3.470  0.4868 -0.0677  1.0009
   40MOL0     C 5415   1.141  11.711   3.526 -0.2716 -0.0608  0.2234
   40MOL0     C 5416   1.115  11.726   3.658 -0.5441 -0.0683  0.7796
   40MOL0     C 5417   1.196  11.802   3.745 -1.0841 -1.1356  0.4441
   40MOL0     O 5418   1.184  11.803   3.884 -0.0333 -0.2740 -0.6680
   40MOL0     C 5419   1.119  11.919   3.930 -0.5803  0.0443  0.3569
   40MOL0     C 5420   0.963  11.921   3.914  0.2098 -0.9602 -0.5138
   40MOL0     C 5421   0.912  11.788   3.982  0.3029  0.6516  0.3787
   40MOL0     C 5422   0.757  11.769   3.955 -0.1701  0.6700 -1.0068
   40MOL0     C 5423   0.716  11.623   3.998  0.1918  0.3396 -0.5206
   40MOL0     C 5424   0.564  11.641   4.008 -0.4769  0.6359  0.2472
   40MOL0     C 5425   0.490  11.519   4.062  1.0801 -0.0053  0.2317
   40MOL0     C 5426   0.337  11.524   4.039  0.1700 -0.7790  0.5224
   40MOL0    Cl 5427   0.261  11.661   4.124  0.1341 -0.4278 -0.2150
   40MOL0     C 5428   1.304  11.878   3.687 -0.5473  0.2924  0.0084
   40MOL0     C 5429   1.331  11.869   3.548  0.0151  1.2631 -0.6334
   40MOL0     O 5430   1.374  11.596   3.345  0.4606  0.5405 -0.0575
   40MOL0     C 5431   1.403  11.851   3.095  0.0138  0.2771 -0.4029
   40MOL0     C 5432   1.480  11.887   2.983  0.4553  0.1158 -0.1985
   40MOL0     N 5433   1.935  11.352   2.477  0.3310  1.0282 -0.3792
   40MOL0     N 5434   2.008  11.268   2.416 -0.1654 -0.4705 -0.5218
   40MOL0     C 5435   2.824  10.616   1.886  0.4261  0.6076 -0.7009
   40MOL0     C 5436   2.930  10.638   1.794  0.4264  0.1474  0.1998
   40MOL0     C 5437   3.126  10.600   1.407 -0.5005 -0.5994 -0.8305
   40MOL0     C 5438   3.252  10.535   1.422  0.6931  0.3224  0.0722
   40MOL0     C 5439   3.360  10.541   1.334  0.5157 -0.2960  0.8253
   40MOL0     C 5440   3.350  10.640   1.241 -0.4003 -0.3092  0.5548
   40MOL0     O 5441   3.470  10.684   1.179  0.1522  0.1539  0.1829
   40MOL0     C 5442   3.529  10.590   1.086  0.2103 -0.8575 -1.1475
   40MOL0     C 5443   3.611  10.669   0.985 -0.0916  0.2661  0.5029
   40MOL0     C 5444   3.723  10.763   1.044 -0.1889  0.0174 -0.2876
   40MOL0     C 5445   3.784  10.841   0.930  0.5417  0.7795  0.1586
   40MOL0     C 5446   3.927  10.881   0.955  0.3811  0.8942  1.2079
   40MOL0     C 5447   4.047  10.908   0.986  0.2353 -0.1059  0.3808
   40MOL0     C 5448   3.225  10.700   1.216 -0.2225  0.7266  0.4268
   40MOL0     C 5449   3.118  10.692   1.300 -0.0145  0.4391  0.0032
   40MOL0     C 5450   2.982  10.758   1.271 -0.7922 -0.6795  0.3126
   40MOL0     H 5451   2.962  10.314   1.718 -0.6080  1.1658 -1.5499
   40MOL0     H 5452   2.798  10.287   1.872 -1.5894  0.2213  0.9723
   40MOL0     H 5453   2.542  10.632   1.929  1.5177 -2.1520 -2.2835
   40MOL0     H 5454   2.629  10.671   2.074 -3.2404  3.4318 -2.6797
   40MOL0     H 5455   2.402  10.477   2.103  4.2218 -3.7597  1.6354
   40MOL0     H 5456   2.518  10.501   2.209  0.5594 -2.0593 -1.2837
   40MOL0     H 5457   2.393  10.759   2.084 -1.8996  0.8292 -0.1772
   40MOL0     H 5458   2.291  10.657   2.197 -0.1484  0.0945  1.1394
   40MOL0     H 5459   2.499  10.706   2.360 -0.5142  1.0113  0.9456
   40MOL0     H 5460   2.523  10.826   2.237 -1.1951  0.2980 -1.3932
   40MOL0     H 5461   2.374  10.883   2.449  0.4594 -0.1951  0.1484
   40MOL0     H 5462   2.257  10.781   2.379 -1.0166 -0.0227 -1.7985
   40MOL0     H 5463   2.371  11.015   2.223 -0.4697 -0.6771 -0.7942
   40MOL0     H 5464   2.241  10.911   2.170  0.5544  4.0939 -2.1509
   40MOL0     H 5465   2.124  10.962   2.390 -2.1574  0.5624 -0.5413
   40MOL0     H 5466   2.115  11.086   2.257 -0.3918 -0.1092  0.7594
   40MOL0     H 5467   2.293  11.120   2.491 -0.8579 -0.9787  0.2229
   40MOL0     H 5468   2.289  11.229   2.358  0.0037 -2.0575 -3.0502
   40MOL0     H 5469   2.207  11.303   2.665 -2.2744  1.3847  0.8794
   40MOL0     H 5470   2.071  11.565   2.695 -0.6982 -0.6108  3.8173
   40MOL0     H 5471   1.978  11.453   2.777 -0.2435  2.3997  1.8360
   40MOL0     H 5472   1.889  11.655   2.568 -2.5577  1.1346 -0.8080
   40MOL0     H 5473   1.777  11.530   2.624 -1.7766  2.5621  2.2944
   40MOL0     H 5474   1.806  11.622   2.861 -2.0647  1.6958  0.2609
   40MOL0     H 5475   1.912  11.737   2.799  1.0507 -0.6264  0.9465
   40MOL0     H 5476   1.736  11.827   2.641 -1.6565 -1.3396 -2.1536
   40MOL0     H 5477   1.636  11.684   2.671 -1.2599 -0.5431  1.0068
   40MOL0     H 5478   1.623  11.585   2.920 -1.2086 -4.0445  2.5138
   40MOL0     H 5479   1.538  11.478   3.222 -0.1184  3.5523  1.0038
   40MOL0     H 5480   1.560  11.416   3.058 -1.3708 -0.1017 -1.2905
   40MOL0     H 5481   1.404  11.416   3.125  1.9376 -2.1780  0.3503
   40MOL0     H 5482   1.087  11.649   3.456  1.9648 -1.3736 -0.4431
   40MOL0     H 5483   1.045  11.661   3.709 -0.6184 -2.3484 -1.9865
   40MOL0     H 5484   1.144  11.931   4.036 -1.2917  1.0561  0.4361
   40MOL0     H 5485   1.165  12.003   3.876  0.6706 -0.6546  0.3221
   40MOL0     H 5486   0.929  12.003   3.977 -1.5484 -0.3219 -2.2272
   40MOL0     H 5487   0.927  11.940   3.813 -1.0701  3.5937  0.5697
   40MOL0     H 5488   0.924  11.789   4.090  0.7114 -0.5830  0.3607
   40MOL0     H 5489   0.948  11.696   3.935 -0.4595  0.7323 -0.3920
   40MOL0     H 5490   0.734  11.766   3.848  0.1806  1.6826 -1.1248
   40MOL0     H 5491   0.690  11.842   4.000  2.7499  2.1995  1.2828
   40MOL0     H 5492   0.735  11.552   3.917 -0.5172  2.7364 -2.8945
   40MOL0     H 5493   0.770  11.593   4.088 -0.3962 -3.2079 -1.1821
   40MOL0     H 5494   0.529  11.686   3.915  3.2268  6.1916  1.0542
   40MOL0     H 5495   0.553  11.714   4.089 -0.6903 -0.8799  1.6401
   40MOL0     H 5496   0.506  11.492   4.167 -0.0434 -1.5905  0.0414
   40MOL0     H 5497   0.525  11.430   4.009 -1.1150 -2.4659  2.5893
   40MOL0     H 5498   0.299  11.429   4.078  1.2364 -0.7503  1.7026
   40MOL0     H 5499   0.319  11.533   3.932 -0.8094 -2.8532  0.4590
   40MOL0     H 5500   1.377  11.926   3.752  0.7490  1.8157 -2.4205
   40MOL0     H 5501   1.418  11.903   3.493 -0.3348 -0.3280 -2.2664
   40MOL0     H 5502   1.345  11.919   3.156 -0.3081  2.3365 -2.8539
   40MOL0     H 5503   1.486  11.989   2.948  4.2885 -0.7056 -2.5024
   40MOL0     H 5504   2.802  10.715   1.924  2.3069  2.0849 -3.1285
   40MOL0     H 5505   2.967  10.737   1.769 -2.8788  1.0374 -1.9689
   40MOL0     H 5506   3.255  10.477   1.513  0.6131  2.5931  1.5952
   40MOL0     H 5507   3.451  10.486   1.352  1.9718  1.4907 -0.6290
   40MOL0     H 5508   3.597  10.523   1.140  0.3335 -0.6940 -1.1020
   40MOL0     H 5509   3.456  10.524   1.037  0.1463 -1.9449  0.3183
   40MOL0     H 5510   3.543  10.723   0.919 -0.7913  0.3106  1.2520
   40MOL0     H 5511   3.664  10.607   0.912  0.2995  1.1640  0.0089
   40MOL0     H 5512   3.677  10.830   1.118  0.3078 -1.8624  1.8147
   40MOL0     H 5513   3.798  10.695   1.086  0.9634 -1.1991 -3.9255
   40MOL0     H 5514   3.715  10.925   0.918 -3.6644 -1.9780  2.4701
   40MOL0     H 5515   3.784  10.788   0.835  3.8085  2.4339 -0.9086
   40MOL0     H 5516   4.150  10.931   1.001  0.7603  0.1372 -2.9557
   40MOL0     H 5517   3.232  10.769   1.133  0.3424 -0.2780 -0.3954
   40MOL0     H 5518   2.937  10.811   1.356  0.7978 -1.6304  1.8007
   40MOL0     H 5519   3.005  10.850   1.216  2.6255 -0.1297  2.3207
   40MOL0     H 5520   2.904  10.700   1.221 -3.2354  2.2657  0.4226
   41MOL0     O 5521   9.651   8.305   1.950 -0.1063  0.3115  0.0229
   41MOL0     C 5522   9.579   8.405   1.939 -0.5828 -0.4675 -0.7417
   41MOL0     O 5523   9.618   8.541   1.958  0.6573 -0.7450 -0.7412
   41MOL0     C 5524   9.743   8.574   1.934 -0.4607  1.0146  0.0229
   41MOL0     C 5525   9.823   8.521   1.826 -0.5367 -0.5598 -0.9911
   41MOL0     C 5526   9.963   8.531   1.829  0.3442  0.8036  0.6250
   41MOL0     C 5527  10.022   8.607   1.926  0.0160  0.1320 -0.0970
   41MOL0     O 5528  10.154   8.635   1.926  0.8276 -0.2937  0.1006
   41MOL0     C 5529  10.234   8.624   1.806  0.6004  0.9903  0.1321
   41MOL0     C 5530  10.373   8.661   1.834  0.0555  0.4462  0.7593
   41MOL0     C 5531  10.399   8.804   1.881  0.4624 -0.9845 -0.1530
   41MOL0     C 5532  10.552   8.815   1.886  0.1045  0.1743  0.4491
   41MOL0     C 5533  10.576   8.968   1.870 -0.7517  0.2263  0.3950
   41MOL0     C 5534  10.722   9.004   1.910  0.4218 -0.8815 -0.4819
   41MOL0     C 5535  10.743   9.149   1.943  0.2421 -0.4129  0.3036
   41MOL0     C 5536  10.764   9.215   1.805 -0.1331 -0.0266 -0.4618
   41MOL0     N 5537  10.897   9.276   1.780  0.5054 -0.4354 -0.6105
   41MOL0     C 5538  10.987   9.317   1.874 -0.1273  0.0262  0.6773
   41MOL0     C 5539  11.098   9.357   1.801 -0.6258  0.3623 -0.1135
   41MOL0     C 5540  11.231   9.401   1.862  0.0761 -0.6458  0.6844
   41MOL0     C 5541  11.305   9.510   1.774  0.3049 -0.4963  0.5164
   41MOL0     C 5542  11.395   9.612   1.847 -0.4330  0.1688  0.1519
   41MOL0     C 5543  11.422   9.726   1.753 -0.4319 -0.1533 -0.4464
   41MOL0     O 5544  11.429   9.852   1.814  0.0438  0.3938 -0.3413
   41MOL0     C 5545  11.523   9.950   1.778 -0.4859 -1.0141  0.3966
   41MOL0     C 5546  11.635   9.927   1.700 -0.6940 -0.0826  0.5522
   41MOL0     C 5547  11.730  10.032   1.674 -0.1975  0.1497  1.1064
   41MOL0     C 5548  11.862   9.993   1.604 -0.5637 -0.2518 -0.3681
   41MOL0     C 5549  11.713  10.160   1.720  0.6334 -1.1325 -1.5071
   41MOL0     C 5550  11.805  10.279   1.693  0.3060 -0.1888 -0.3693
   41MOL0     O 5551  11.796  10.388   1.780  0.3503 -0.4962  0.1101
   41MOL0     C 5552  11.872  10.502   1.750  0.2387  0.1139 -0.1565
   41MOL0     C 5553  11.843  10.579   1.634 -0.9758 -0.3347 -0.1902
   41MOL0     C 5554  11.904  10.705   1.618  1.0143  0.0281 -0.4608
   41MOL0     C 5555  12.001  10.743   1.709 -0.4558  0.1483 -0.1242
   41MOL0     O 5556  12.077  10.853   1.672 -0.3217 -0.0032  0.3194
   41MOL0     C 5557  12.108  10.948   1.779 -0.4269 -0.4928  0.7117
   41MOL0     C 5558  12.143  11.084   1.719  0.2657 -0.5121  0.4888
   41MOL0     C 5559  12.266  11.071   1.631 -0.1501 -0.4242 -0.0744
   41MOL0     C 5560  12.281  11.208   1.565  0.2524  0.2224 -1.1118
   41MOL0     C 5561  12.363  11.297   1.651  0.4210  0.7229 -0.4278
   41MOL0     C 5562  12.362  11.444   1.614 -0.2239  0.3905 -0.6781
   41MOL0     C 5563  12.485  11.528   1.668 -0.4815  0.2897 -0.7104
   41MOL0     C 5564  12.477  11.665   1.590  0.8849 -0.5559  0.8387
   41MOL0    Cl 5565  12.566  11.791   1.659  0.1740 -0.5149  0.1781
   41MOL0     C 5566  12.039  10.664   1.819 -0.2096  0.5711 -0.0635
   41MOL0     C 5567  11.981  10.537   1.833 -0.5121 -0.2777  0.6042
   41MOL0     O 5568  11.874  10.283   1.594  0.9659 -0.4835  0.6965
   41MOL0     C 5569  11.592  10.182   1.790  0.0280  0.7885  0.1263
   41MOL0     C 5570  11.507  10.081   1.827 -1.1216 -0.2277 -0.3805
   41MOL0     N 5571  11.085   9.330   1.662  0.7296  0.2004 -0.8707
   41MOL0     N 5572  10.960   9.283   1.659  0.3989 -0.5622  0.4720
   41MOL0     C 5573   9.948   8.662   2.029  0.3458  0.0969 -0.4141
   41MOL0     C 5574   9.807   8.646   2.033  0.3423  0.1789 -0.0433
   41MOL0     C 5575   9.437   8.383   1.938 -0.3928 -1.1950  0.5458
   41MOL0     C 5576   9.383   8.374   2.061  0.8181 -0.5304 -0.2344
   41MOL0     C 5577   9.251   8.352   2.062  0.0792  0.8922  0.3893
   41MOL0     C 5578   9.165   8.350   1.954 -0.1585  0.4080  0.1593
   41MOL0     O 5579   9.033   8.341   1.989 -0.0247 -1.2511 -0.4260
   41MOL0     C 5580   8.925   8.316   1.895 -0.8443 -0.4124 -1.1004
   41MOL0     C 5581   8.923   8.164   1.853  0.7165  1.2387 -0.5508
   41MOL0     C 5582   8.939   8.046   1.948  0.2308  0.1350  0.9373
   41MOL0     C 5583   8.826   8.022   2.056 -0.6093 -0.9484  0.3404
   41MOL0     C 5584   8.802   7.880   2.100 -1.1207  0.1790  0.0277
   41MOL0     C 5585   8.765   7.768   2.123 -0.9739 -0.3911  0.7216
   41MOL0     C 5586   9.217   8.345   1.826 -1.1738  0.0629  0.3648
   41MOL0     C 5587   9.365   8.367   1.818  1.1964 -0.7025  0.2558
   41MOL0     C 5588   9.433   8.357   1.683 -0.9429 -0.3140 -0.2106
   41MOL0     H 5589   9.783   8.464   1.743 -0.1869 -0.2326 -1.3836
   41MOL0     H 5590   9.999   8.468   1.748 -3.1125  0.5952 -0.9418
   41MOL0     H 5591  10.187   8.682   1.727  3.3004  3.1736 -0.0221
   41MOL0     H 5592  10.235   8.518   1.778 -0.5889  0.5659  1.5305
   41MOL0     H 5593  10.390   8.598   1.922 -0.4116  0.9996  1.2574
   41MOL0     H 5594  10.433   8.628   1.749 -1.7725 -1.3827  0.0999
   41MOL0     H 5595  10.351   8.870   1.808  1.1273  0.9464  1.0732
   41MOL0     H 5596  10.350   8.822   1.977  2.8133  1.6739  0.6950
   41MOL0     H 5597  10.587   8.797   1.988 -3.1855  2.7129  2.1944
   41MOL0     H 5598  10.608   8.748   1.820 -0.2371 -1.6042  1.8701
   41MOL0     H 5599  10.505   9.029   1.927 -0.9778  0.1930  0.1499
   41MOL0     H 5600  10.572   9.000   1.766 -1.5665 -0.8666  0.0710
   41MOL0     H 5601  10.735   8.957   2.008  2.0539 -1.4995 -0.9593
   41MOL0     H 5602  10.794   8.966   1.836  1.6150 -1.5791  0.9896
   41MOL0     H 5603  10.837   9.163   1.997 -0.1320  1.8084  0.4750
   41MOL0     H 5604  10.655   9.194   1.992 -1.5065 -1.1401 -2.0055
   41MOL0     H 5605  10.740   9.147   1.722  1.8374 -0.4456 -0.7226
   41MOL0     H 5606  10.691   9.297   1.801  0.4618  0.5428  0.0848
   41MOL0     H 5607  10.977   9.312   1.982  1.7237 -0.6638  0.8679
   41MOL0     H 5608  11.311   9.331   1.888  0.1452 -0.0229  2.2898
   41MOL0     H 5609  11.205   9.441   1.961 -0.9256 -1.9625  0.9786
   41MOL0     H 5610  11.361   9.453   1.700  0.6074  0.0179  0.3372
   41MOL0     H 5611  11.230   9.560   1.713 -0.5005 -0.5197  1.4632
   41MOL0     H 5612  11.347   9.676   1.922  0.4317  2.3958 -1.1195
   41MOL0     H 5613  11.478   9.555   1.889 -1.1909  0.0652  1.5912
   41MOL0     H 5614  11.509   9.692   1.695 -0.9861 -0.6499 -0.9933
   41MOL0     H 5615  11.337   9.746   1.688  1.0756  5.1355 -1.2540
   41MOL0     H 5616  11.658   9.828   1.661  1.9075  0.0080  1.6529
   41MOL0     H 5617  11.876  10.009   1.497  1.5478  0.0632 -0.1004
   41MOL0     H 5618  11.872   9.885   1.618 -2.4452 -0.4377 -0.2462
   41MOL0     H 5619  11.940  10.052   1.653  1.0156 -1.6805 -1.0536
   41MOL0     H 5620  11.767  10.553   1.561 -2.5366  0.4363  1.0937
   41MOL0     H 5621  11.865  10.768   1.539 -0.7472 -1.7615 -1.1041
   41MOL0     H 5622  12.013  10.968   1.831 -1.6624 -3.6368 -0.1494
   41MOL0     H 5623  12.178  10.910   1.854 -1.1050  1.9269  2.7223
   41MOL0     H 5624  12.052  11.123   1.673 -1.6251 -2.6275  2.1690
   41MOL0     H 5625  12.154  11.147   1.808 -4.0129  0.1523  0.7344
   41MOL0     H 5626  12.238  10.994   1.559 -0.9049 -0.0365 -0.2129
   41MOL0     H 5627  12.351  11.035   1.689 -1.0171 -4.1031 -0.8675
   41MOL0     H 5628  12.184  11.253   1.545 -0.9001 -0.5503  2.1655
   41MOL0     H 5629  12.330  11.185   1.470 -1.5935  0.5039 -2.1701
   41MOL0     H 5630  12.325  11.292   1.754  0.4683  2.2462 -0.3031
   41MOL0     H 5631  12.468  11.272   1.637  0.4813  1.2493 -0.9636
   41MOL0     H 5632  12.273  11.497   1.651  0.0183 -0.0757  0.6057
   41MOL0     H 5633  12.359  11.450   1.505  3.2186  2.6428 -0.8017
   41MOL0     H 5634  12.584  11.487   1.645  0.2425  1.6759 -0.2214
   41MOL0     H 5635  12.483  11.539   1.777  0.4660  4.4273 -0.9425
   41MOL0     H 5636  12.373  11.696   1.583  1.5516  1.3890 -2.6287
   41MOL0     H 5637  12.512  11.662   1.487 -0.2348  0.6826  0.4043
   41MOL0     H 5638  12.125  10.698   1.877  1.1726 -1.6555 -0.6724
   41MOL0     H 5639  11.998  10.490   1.929  0.3438 -2.0692 -0.3750
   41MOL0     H 5640  11.567  10.281   1.828 -4.0651 -0.3748  1.0074
   41MOL0     H 5641  11.425  10.099   1.895 -0.3757  0.0407  0.4759
   41MOL0     H 5642  10.017   8.718   2.091  1.2750 -1.1296 -0.2910
   41MOL0     H 5643   9.751   8.676   2.120 -1.1664 -1.5930 -0.3465
   41MOL0     H 5644   9.432   8.391   2.156  0.1773  1.9844 -0.2813
   41MOL0     H 5645   9.187   8.343   2.149 -0.8133  0.5804 -0.2836
   41MOL0     H 5646   8.828   8.343   1.936 -1.4288  1.5022 -3.4639
   41MOL0     H 5647   8.926   8.384   1.809  0.1534  0.9474 -0.0419
   41MOL0     H 5648   8.999   8.148   1.776  1.0509 -1.6426  0.2740
   41MOL0     H 5649   8.823   8.154   1.809  0.9177  1.9589 -1.1992
   41MOL0     H 5650   8.943   7.958   1.883  1.2582  0.7193  0.1756
   41MOL0     H 5651   9.031   8.071   2.002 -0.0379  0.4309  1.2581
   41MOL0     H 5652   8.734   8.043   2.000  1.7915  0.1251 -3.5037
   41MOL0     H 5653   8.832   8.095   2.138 -1.8181  1.1813 -1.3527
   41MOL0     H 5654   8.728   7.668   2.119  0.7162 -1.1338  2.2990
   41MOL0     H 5655   9.159   8.338   1.734 -0.9580 -2.1044  0.3248
   41MOL0     H 5656   9.527   8.301   1.687 -0.4814  0.4994  0.5671
   41MOL0     H 5657   9.364   8.300   1.621 -1.0891  1.0925 -1.4008
   41MOL0     H 5658   9.461   8.448   1.630  1.2212  0.0147  1.3337
   42MOL0     O 5659   2.147  10.233   7.804 -0.4655  0.3055 -0.3535
   42MOL0     C 5660   2.032  10.250   7.759 -0.5780 -0.9055  0.4274
   42MOL0     O 5661   1.940  10.145   7.748 -0.4213 -0.1701  0.3000
   42MOL0     C 5662   1.975  10.014   7.725  0.0839  0.5144  0.3240
   42MOL0     C 5663   2.098   9.962   7.697  0.3705  0.0738 -1.1677
   42MOL0     C 5664   2.127   9.820   7.687 -1.9125 -1.2462 -0.9338
   42MOL0     C 5665   2.025   9.732   7.672  0.1506 -1.0600 -0.1091
   42MOL0     O 5666   2.052   9.596   7.651 -0.1442 -0.4999  0.1602
   42MOL0     C 5667   2.137   9.565   7.533  1.1333  0.1307 -0.4331
   42MOL0     C 5668   2.172   9.414   7.524  0.9035 -1.0022 -0.5904
   42MOL0     C 5669   2.244   9.375   7.396  0.0372  0.0503 -1.1546
   42MOL0     C 5670   2.400   9.387   7.411  0.7062 -0.0141 -0.3824
   42MOL0     C 5671   2.457   9.405   7.259 -0.1557  0.8175 -0.8384
   42MOL0     C 5672   2.595   9.465   7.266  0.6414 -0.6980  0.2357
   42MOL0     C 5673   2.659   9.507   7.126  0.2255  0.4429 -0.5131
   42MOL0     C 5674   2.683   9.388   7.038 -0.0806  0.6569 -0.0301
   42MOL0     N 5675   2.738   9.416   6.905 -0.0715  1.2097  1.0053
   42MOL0     C 5676   2.875   9.413   6.869 -0.4259 -0.3855  0.9208
   42MOL0     C 5677   2.877   9.460   6.743  0.4965  0.8573  0.1441
   42MOL0     C 5678   2.989   9.474   6.644  0.0761  0.3052 -0.4072
   42MOL0     C 5679   3.088   9.350   6.645  0.6741 -0.4398 -0.2832
   42MOL0     C 5680   3.166   9.325   6.526 -0.0970  0.0409 -0.0019
   42MOL0     C 5681   3.074   9.262   6.414 -0.8977  0.2868 -0.0877
   42MOL0     O 5682   3.075   9.115   6.423 -0.1989  0.3838 -0.6053
   42MOL0     C 5683   3.144   9.046   6.327  0.7761  0.2754 -0.2869
   42MOL0     C 5684   3.267   8.997   6.353  0.3979  0.8239 -0.3804
   42MOL0     C 5685   3.325   8.903   6.268  0.0776  0.1354  0.4238
   42MOL0     C 5686   3.451   8.835   6.314 -0.3614 -0.2772  0.9657
   42MOL0     C 5687   3.261   8.870   6.144  0.3105 -0.5719  0.6835
   42MOL0     C 5688   3.315   8.784   6.033  0.1781 -0.0551 -0.5783
   42MOL0     O 5689   3.234   8.753   5.926 -0.8952  0.1402  0.9643
   42MOL0     C 5690   3.259   8.638   5.863  0.7732  0.4855 -0.0785
   42MOL0     C 5691   3.336   8.636   5.747 -1.0757  0.0014  0.1967
   42MOL0     C 5692   3.375   8.515   5.687  0.7843 -0.1068  0.0910
   42MOL0     C 5693   3.326   8.397   5.736  0.1420  0.9617  0.3762
   42MOL0     O 5694   3.361   8.280   5.677 -0.4396 -0.1592  0.3898
   42MOL0     C 5695   3.258   8.187   5.649  0.5282  0.6912  0.2651
   42MOL0     C 5696   3.301   8.071   5.554 -0.2113 -0.1445 -1.0194
   42MOL0     C 5697   3.338   8.124   5.410  0.1161  0.2936  1.0902
   42MOL0     C 5698   3.431   8.031   5.329 -0.0688 -0.7488 -0.1925
   42MOL0     C 5699   3.573   8.028   5.381 -0.4517 -1.1516 -1.1048
   42MOL0     C 5700   3.677   7.995   5.275  0.1837  0.2638 -0.8619
   42MOL0     C 5701   3.669   7.844   5.256  0.6825 -0.6922 -0.0222
   42MOL0     C 5702   3.778   7.795   5.160  0.5683  0.3895 -0.2937
   42MOL0    Cl 5703   3.939   7.834   5.232 -0.1744 -0.3886  0.3162
   42MOL0     C 5704   3.256   8.396   5.848  0.6832  0.1572 -0.8670
   42MOL0     C 5705   3.217   8.512   5.916 -0.5584 -0.7777  0.1438
   42MOL0     O 5706   3.421   8.735   6.053  0.1934  0.2747 -1.0700
   42MOL0     C 5707   3.133   8.932   6.121  0.4756 -0.3167  0.2829
   42MOL0     C 5708   3.071   9.020   6.207 -0.5899 -0.1355 -0.5327
   42MOL0     N 5709   2.742   9.467   6.692  0.0912 -0.3681 -0.5002
   42MOL0     N 5710   2.666   9.426   6.789  0.4266  0.0178  0.0529
   42MOL0     C 5711   1.889   9.784   7.695  0.6293 -0.9923 -0.2633
   42MOL0     C 5712   1.872   9.921   7.720  0.1181  0.3968  0.6050
   42MOL0     C 5713   1.988  10.394   7.725 -0.1865 -0.2128  0.1702
   42MOL0     C 5714   2.045  10.499   7.796 -0.5793  0.4210 -0.4016
   42MOL0     C 5715   2.021  10.632   7.763 -0.6362  0.2551  0.2155
   42MOL0     C 5716   1.935  10.666   7.667  0.7612  0.0174 -0.2063
   42MOL0     O 5717   1.913  10.800   7.637 -0.1460  0.2893  0.1024
   42MOL0     C 5718   1.784  10.851   7.645  0.9626  0.3249  0.8774
   42MOL0     C 5719   1.789  10.995   7.594  0.4018  0.1294  0.2821
   42MOL0     C 5720   1.646  11.046   7.564  0.1678  0.2759  0.3323
   42MOL0     C 5721   1.543  11.029   7.680  0.4517 -0.2302 -0.5067
   42MOL0     C 5722   1.592  11.076   7.802  0.6482 -0.1994  0.3011
   42MOL0     C 5723   1.639  11.119   7.912 -0.5626  0.8585  0.3230
   42MOL0     C 5724   1.861  10.562   7.606  0.4537 -0.6717 -0.6118
   42MOL0     C 5725   1.885  10.432   7.630 -0.0483  0.1774 -0.6450
   42MOL0     C 5726   1.811  10.337   7.545 -0.2483 -0.5302  0.4218
   42MOL0     H 5727   2.181  10.032   7.697 -0.8090  1.6545  2.4537
   42MOL0     H 5728   2.231   9.791   7.679 -1.0891 -0.1360  3.2961
   42MOL0     H 5729   2.230   9.620   7.514  1.8349 -1.7422 -2.9445
   42MOL0     H 5730   2.073   9.582   7.446 -1.0179 -4.1707  0.0347
   42MOL0     H 5731   2.224   9.389   7.617 -1.2096 -0.6921  0.7522
   42MOL0     H 5732   2.071   9.371   7.530  0.0567  1.0078  2.4706
   42MOL0     H 5733   2.210   9.274   7.373 -2.9632  0.1522  1.9522
   42MOL0     H 5734   2.195   9.434   7.318  0.0523  1.9887  0.2342
   42MOL0     H 5735   2.418   9.474   7.474  0.2865  0.8200 -1.3918
   42MOL0     H 5736   2.444   9.297   7.454 -0.6294 -1.0094 -1.0107
   42MOL0     H 5737   2.403   9.485   7.207  0.8073  1.3814 -0.9943
   42MOL0     H 5738   2.451   9.310   7.206  3.3128 -2.4984  3.8532
   42MOL0     H 5739   2.564   9.559   7.314 -2.0496 -1.2156 -0.3614
   42MOL0     H 5740   2.661   9.406   7.331 -1.1477 -0.9913  1.8946
   42MOL0     H 5741   2.751   9.564   7.148  0.0495  0.5932 -0.1458
   42MOL0     H 5742   2.599   9.583   7.075  0.6631  0.4962 -0.9513
   42MOL0     H 5743   2.743   9.316   7.094 -0.8912  0.2211  0.2950
   42MOL0     H 5744   2.585   9.347   7.012 -1.1633  1.3063  2.7592
   42MOL0     H 5745   2.960   9.359   6.908  1.0355  0.0192 -1.5088
   42MOL0     H 5746   3.058   9.557   6.664  2.2119 -0.9189 -2.1748
   42MOL0     H 5747   2.953   9.482   6.541  0.3711  0.8865 -0.4731
   42MOL0     H 5748   3.165   9.382   6.716 -2.3786  2.4877  2.0625
   42MOL0     H 5749   3.030   9.266   6.684 -0.3985  0.3966 -0.0097
   42MOL0     H 5750   3.233   9.408   6.502 -0.3199  0.0008 -0.7843
   42MOL0     H 5751   3.245   9.252   6.550  1.8023  0.4238 -4.2837
   42MOL0     H 5752   2.971   9.301   6.419 -0.9450  0.4007 -1.5678
   42MOL0     H 5753   3.119   9.300   6.322  0.7059  1.7065  1.2248
   42MOL0     H 5754   3.310   9.022   6.449  0.5551  1.4756 -0.6216
   42MOL0     H 5755   3.456   8.729   6.288  3.0665  0.1126 -0.4937
   42MOL0     H 5756   3.472   8.856   6.419  0.2529  3.9234  0.1711
   42MOL0     H 5757   3.534   8.886   6.264  1.3682 -2.1132  1.8285
   42MOL0     H 5758   3.381   8.728   5.712  1.3215 -1.7126 -1.6469
   42MOL0     H 5759   3.426   8.485   5.596  3.0184  1.4088  0.7495
   42MOL0     H 5760   3.231   8.150   5.749 -0.6846  1.2175  0.1497
   42MOL0     H 5761   3.163   8.226   5.612 -2.2177 -3.1537  2.4217
   42MOL0     H 5762   3.385   8.020   5.603 -2.0053  0.1149  2.6296
   42MOL0     H 5763   3.214   8.005   5.541 -1.8159  2.1617 -2.8014
   42MOL0     H 5764   3.388   8.218   5.436 -1.3674  1.4177  0.0434
   42MOL0     H 5765   3.247   8.140   5.352 -0.3256 -2.1385  1.0234
   42MOL0     H 5766   3.432   8.072   5.228  1.4015 -0.9738 -0.2969
   42MOL0     H 5767   3.393   7.929   5.326 -0.2707 -0.6839  0.1238
   42MOL0     H 5768   3.592   8.131   5.410 -2.1335 -1.8821  3.3522
   42MOL0     H 5769   3.566   7.967   5.472 -0.8620 -0.3954 -0.6235
   42MOL0     H 5770   3.773   8.024   5.320 -0.4893  0.7700  0.2965
   42MOL0     H 5771   3.656   8.050   5.182  0.0950  1.2846 -0.2565
   42MOL0     H 5772   3.575   7.806   5.216  1.7085  0.4483 -3.9885
   42MOL0     H 5773   3.678   7.788   5.349  0.1829 -2.2430 -0.8828
   42MOL0     H 5774   3.763   7.828   5.056 -1.8906  1.3478  0.3135
   42MOL0     H 5775   3.768   7.686   5.153  0.5434  0.4653 -2.2025
   42MOL0     H 5776   3.234   8.303   5.900  0.5574  0.3383 -0.5942
   42MOL0     H 5777   3.176   8.502   6.016 -0.1693  0.6445  0.4772
   42MOL0     H 5778   3.081   8.928   6.026  1.8207  4.6961 -0.9860
   42MOL0     H 5779   2.973   9.068   6.201 -1.2554 -1.1799  1.1417
   42MOL0     H 5780   1.814   9.706   7.703 -0.5199  0.2328  1.6550
   42MOL0     H 5781   1.769   9.947   7.738 -0.1684 -0.1679 -0.1792
   42MOL0     H 5782   2.132  10.485   7.858  0.6716  0.5705 -2.0669
   42MOL0     H 5783   2.061  10.711   7.826 -2.5237 -0.4001  2.3598
   42MOL0     H 5784   1.707  10.806   7.582  1.7491  0.7226 -0.3845
   42MOL0     H 5785   1.751  10.839   7.749  0.5946 -0.9217  0.6394
   42MOL0     H 5786   1.842  11.005   7.499 -1.7929 -0.7352 -1.1239
   42MOL0     H 5787   1.829  11.066   7.666 -1.5826  2.2753 -0.6170
   42MOL0     H 5788   1.651  11.155   7.553 -2.3727  0.3477 -0.6522
   42MOL0     H 5789   1.613  11.009   7.467  1.3833 -0.2461  0.0903
   42MOL0     H 5790   1.530  10.921   7.690  1.8775 -0.2578  1.7691
   42MOL0     H 5791   1.453  11.083   7.649 -0.2255  0.3961  2.2816
   42MOL0     H 5792   1.683  11.152   8.004 -0.6290 -0.1900  0.7394
   42MOL0     H 5793   1.792  10.580   7.524  0.8377 -2.1621 -1.3023
   42MOL0     H 5794   1.732  10.388   7.489  0.0569  2.8222  2.7885
   42MOL0     H 5795   1.857  10.281   7.463 -2.8858 -1.5845 -0.4222
   42MOL0     H 5796   1.750  10.270   7.607 -1.5757 -0.5279 -0.8284
   43MOL0     O 5797  10.553   5.458   3.851  0.4776  0.7522 -0.2775
   43MOL0     C 5798  10.653   5.463   3.926  0.3359 -1.2511 -0.1966
   43MOL0     O 5799  10.744   5.565   3.924 -0.6649 -0.1273 -0.1167
   43MOL0     C 5800  10.717   5.666   3.835  0.4197  0.7394 -0.7806
   43MOL0     C 5801  10.698   5.792   3.891 -0.0807 -0.4839  0.3332
   43MOL0     C 5802  10.667   5.901   3.805  0.1778  0.5760 -0.2895
   43MOL0     C 5803  10.643   5.873   3.682  0.4180 -0.3521 -0.0954
   43MOL0     O 5804  10.618   5.979   3.607 -0.0121  0.6247 -0.0277
   43MOL0     C 5805  10.636   5.977   3.463 -0.0682 -0.1305 -1.4258
   43MOL0     C 5806  10.674   6.118   3.398 -0.8699 -0.0146 -0.3598
   43MOL0     C 5807  10.829   6.127   3.436 -0.5141 -0.0966  0.2701
   43MOL0     C 5808  10.882   6.262   3.396  0.2604 -0.4600  0.7269
   43MOL0     C 5809  11.040   6.270   3.396 -0.4538 -0.3915  0.1936
   43MOL0     C 5810  11.083   6.404   3.349  0.4469 -0.2379  0.2852
   43MOL0     C 5811  11.083   6.509   3.453  0.7579  0.0784 -0.7259
   43MOL0     C 5812  11.121   6.640   3.400  0.2079  0.3246 -0.5813
   43MOL0     N 5813  11.042   6.681   3.288  0.2914 -0.0411  0.1112
   43MOL0     C 5814  10.937   6.775   3.301  0.4279  0.6379 -0.6568
   43MOL0     C 5815  10.928   6.829   3.172 -0.4960 -0.8015  0.2788
   43MOL0     C 5816  10.826   6.925   3.112  0.8523 -0.3665  0.1847
   43MOL0     C 5817  10.709   6.853   3.043  0.8452  0.6433 -0.2997
   43MOL0     C 5818  10.611   6.927   2.957 -0.2734  0.6494 -0.1288
   43MOL0     C 5819  10.663   7.030   2.857  0.3332 -0.1673 -0.6181
   43MOL0     O 5820  10.782   6.989   2.813 -0.4757  0.4764 -0.0330
   43MOL0     C 5821  10.827   7.029   2.694  1.0228 -0.1948 -0.1512
   43MOL0     C 5822  10.780   7.148   2.627  0.2181  0.4693 -0.8037
   43MOL0     C 5823  10.845   7.199   2.516  0.1684 -0.3175  0.0105
   43MOL0     C 5824  10.786   7.326   2.467  0.1540 -0.1082  0.4497
   43MOL0     C 5825  10.960   7.126   2.466 -0.1590 -0.3151 -0.0384
   43MOL0     C 5826  11.041   7.164   2.356 -0.7944 -0.1820 -0.5574
   43MOL0     O 5827  11.099   7.067   2.282  0.1188 -0.0905  0.3494
   43MOL0     C 5828  11.174   7.099   2.171  0.8157  0.2490 -0.3259
   43MOL0     C 5829  11.311   7.117   2.186  0.4003  0.0904 -0.7648
   43MOL0     C 5830  11.395   7.143   2.081  0.5847 -0.9255  0.6972
   43MOL0     C 5831  11.328   7.151   1.954 -0.4409 -0.1210 -0.6130
   43MOL0     O 5832  11.402   7.187   1.844 -0.6172 -0.4879  0.2805
   43MOL0     C 5833  11.389   7.324   1.803 -0.2814  0.3589 -0.2199
   43MOL0     C 5834  11.453   7.349   1.663  0.5366 -0.3978 -0.7166
   43MOL0     C 5835  11.357   7.273   1.562 -0.1300 -0.0089 -0.3478
   43MOL0     C 5836  11.421   7.302   1.427  0.0938  0.1765 -0.3747
   43MOL0     C 5837  11.321   7.272   1.318 -0.7900 -0.0766 -0.9056
   43MOL0     C 5838  11.389   7.292   1.185 -0.0918 -0.6953 -0.4669
   43MOL0     C 5839  11.404   7.443   1.166  0.2496  0.0829  0.0692
   43MOL0     C 5840  11.487   7.474   1.039 -0.4709 -0.1266 -0.5482
   43MOL0    Cl 5841  11.391   7.405   0.905 -0.0887  0.1125  0.5262
   43MOL0     C 5842  11.189   7.144   1.939 -0.6218 -0.4033  0.0726
   43MOL0     C 5843  11.111   7.106   2.050 -0.2668  0.3723  0.3585
   43MOL0     O 5844  11.046   7.288   2.331 -0.5532  0.1055 -0.2734
   43MOL0     C 5845  11.012   7.014   2.543  1.0210  0.4618 -0.7285
   43MOL0     C 5846  10.937   6.965   2.657 -0.9798 -0.0175 -0.8270
   43MOL0     N 5847  11.021   6.768   3.088 -0.4861  0.6876  0.2243
   43MOL0     N 5848  11.082   6.676   3.157 -0.4587  0.5682  0.6392
   43MOL0     C 5849  10.638   5.737   3.629  0.2113 -0.3616  0.8117
   43MOL0     C 5850  10.692   5.639   3.702  0.8657 -0.5565  0.6704
   43MOL0     C 5851  10.681   5.353   4.022 -1.2096  0.1704 -0.0619
   43MOL0     C 5852  10.758   5.385   4.135 -0.2491  0.0069 -0.6987
   43MOL0     C 5853  10.793   5.294   4.236  0.5692 -0.5733  0.4595
   43MOL0     C 5854  10.753   5.157   4.222 -0.5941  0.3204  0.3348
   43MOL0     O 5855  10.776   5.072   4.325 -0.8639  0.6607 -0.3556
   43MOL0     C 5856  10.878   5.087   4.418  0.8753  0.0791 -0.0690
   43MOL0     C 5857  10.914   4.958   4.492  0.1744  1.1679  0.3490
   43MOL0     C 5858  11.063   4.952   4.522 -0.3799  0.3951 -0.6715
   43MOL0     C 5859  11.111   4.874   4.641  0.2506  0.5215 -0.5367
   43MOL0     C 5860  11.260   4.879   4.668  0.9484 -0.5569  0.3393
   43MOL0     C 5861  11.370   4.911   4.683  0.7425 -0.5619 -0.5399
   43MOL0     C 5862  10.674   5.120   4.112  0.1385 -0.2405  0.4560
   43MOL0     C 5863  10.636   5.218   4.023 -1.2935 -0.1225 -0.1171
   43MOL0     C 5864  10.545   5.163   3.914 -0.7269  0.0784  0.2444
   43MOL0     H 5865  10.738   5.806   3.992  1.6768 -1.8076 -0.1421
   43MOL0     H 5866  10.650   5.993   3.860  0.3050  1.2043 -1.2779
   43MOL0     H 5867  10.544   5.939   3.418  0.2720 -1.8490 -0.7525
   43MOL0     H 5868  10.714   5.906   3.435  2.7932  0.9234  2.9351
   43MOL0     H 5869  10.649   6.117   3.292  4.1440  2.4495 -1.9081
   43MOL0     H 5870  10.617   6.201   3.441  1.0039  1.3867 -0.4328
   43MOL0     H 5871  10.838   6.129   3.545 -0.9834  1.6636  0.3115
   43MOL0     H 5872  10.882   6.040   3.397  1.0637  1.2486 -0.7158
   43MOL0     H 5873  10.836   6.281   3.299  0.4632 -0.7451  0.5748
   43MOL0     H 5874  10.839   6.342   3.457 -3.5656  0.6791 -2.9740
   43MOL0     H 5875  11.084   6.186   3.341  0.6008 -1.0056  1.8892
   43MOL0     H 5876  11.078   6.263   3.498 -0.1162  1.1716  0.1992
   43MOL0     H 5877  11.184   6.405   3.306  0.6621  0.8916  0.8020
   43MOL0     H 5878  11.019   6.428   3.263  2.3691  0.0181 -1.1391
   43MOL0     H 5879  11.153   6.491   3.536  0.1882 -1.0812 -0.4816
   43MOL0     H 5880  10.980   6.513   3.490  1.0047  0.5678 -0.0580
   43MOL0     H 5881  11.135   6.699   3.491 -0.7278 -1.7833  0.9948
   43MOL0     H 5882  11.221   6.621   3.360  0.3712 -2.3663  0.9192
   43MOL0     H 5883  10.881   6.805   3.389 -0.2454 -0.6535 -0.6274
   43MOL0     H 5884  10.871   6.991   3.038  0.5898 -0.1376  0.2275
   43MOL0     H 5885  10.777   6.970   3.199  1.0334 -1.1506  0.7067
   43MOL0     H 5886  10.757   6.773   2.986  0.6136  1.0665 -1.1023
   43MOL0     H 5887  10.662   6.793   3.121 -1.5650  0.4770 -1.7860
   43MOL0     H 5888  10.562   6.852   2.895  1.9977 -1.3109  0.3030
   43MOL0     H 5889  10.542   6.980   3.023  0.6200 -0.2634  1.6141
   43MOL0     H 5890  10.586   7.047   2.780 -1.4871 -3.0273  0.4080
   43MOL0     H 5891  10.674   7.128   2.904 -2.4946  0.7500 -1.6163
   43MOL0     H 5892  10.695   7.208   2.660  2.6951  1.7780  4.0669
   43MOL0     H 5893  10.844   7.410   2.505 -1.8798  1.3360  0.5149
   43MOL0     H 5894  10.684   7.342   2.502 -0.1575  1.5052 -1.1032
   43MOL0     H 5895  10.784   7.317   2.358 -0.4883 -1.6650  0.5535
   43MOL0     H 5896  11.353   7.100   2.284  1.3891 -1.6247 -1.4283
   43MOL0     H 5897  11.503   7.152   2.075  0.3583  2.6369 -0.6338
   43MOL0     H 5898  11.283   7.352   1.810 -0.3064  0.5726 -1.1959
   43MOL0     H 5899  11.436   7.395   1.871  2.0481  0.4449 -1.8103
   43MOL0     H 5900  11.467   7.457   1.656 -3.6507  0.8589  4.2349
   43MOL0     H 5901  11.552   7.303   1.653 -0.2189 -1.6436 -3.5684
   43MOL0     H 5902  11.251   7.298   1.564  0.1257  1.2257  2.0666
   43MOL0     H 5903  11.358   7.164   1.570  1.0199 -0.1550 -1.9652
   43MOL0     H 5904  11.519   7.255   1.413  3.0841  5.3586  0.5593
   43MOL0     H 5905  11.428   7.411   1.434 -0.2684  0.1438  0.5974
   43MOL0     H 5906  11.284   7.171   1.337  0.4525  0.1895  4.6165
   43MOL0     H 5907  11.238   7.343   1.326  0.9193  1.7972  3.5934
   43MOL0     H 5908  11.335   7.243   1.104  1.4706 -2.2698 -0.6119
   43MOL0     H 5909  11.492   7.255   1.186  0.9728  2.0707 -0.9059
   43MOL0     H 5910  11.451   7.491   1.252  1.1140 -1.0293  0.2364
   43MOL0     H 5911  11.308   7.496   1.170 -0.9443 -2.0126  1.4032
   43MOL0     H 5912  11.588   7.436   1.050 -0.9577 -1.3642 -0.1898
   43MOL0     H 5913  11.491   7.584   1.044  0.4670 -0.1999  0.7822
   43MOL0     H 5914  11.148   7.167   1.841  1.3242  3.8617  0.0185
   43MOL0     H 5915  11.002   7.099   2.052 -0.2813  0.1500  3.3994
   43MOL0     H 5916  11.114   6.981   2.526  1.6910  0.2413  2.9244
   43MOL0     H 5917  10.976   6.887   2.723 -0.9854 -0.8370 -1.7723
   43MOL0     H 5918  10.597   5.710   3.532 -0.5886 -0.1910  1.0894
   43MOL0     H 5919  10.698   5.539   3.659  0.4723  0.7545 -2.6874
   43MOL0     H 5920  10.792   5.488   4.135 -0.2255  0.0110 -1.5470
   43MOL0     H 5921  10.843   5.325   4.327 -0.2234  2.0623  0.0896
   43MOL0     H 5922  10.964   5.130   4.367  0.6169 -1.2756 -1.7339
   43MOL0     H 5923  10.847   5.162   4.492  0.3165  1.2825 -1.4748
   43MOL0     H 5924  10.897   4.870   4.429  1.0145  0.7105  0.7449
   43MOL0     H 5925  10.853   4.937   4.580 -0.7535  2.5491  0.0672
   43MOL0     H 5926  11.112   4.920   4.430 -1.5132 -2.1235 -0.4683
   43MOL0     H 5927  11.087   5.056   4.546  1.2516 -0.3378  1.1391
   43MOL0     H 5928  11.075   4.772   4.635 -1.4876  1.1454 -1.2299
   43MOL0     H 5929  11.049   4.904   4.726 -0.3499  3.0843 -1.7692
   43MOL0     H 5930  11.471   4.945   4.698  0.5353 -0.5979  1.1818
   43MOL0     H 5931  10.630   5.021   4.118  2.2871 -1.1798  1.8335
   43MOL0     H 5932  10.583   5.207   3.821 -1.6185  0.5665  0.0971
   43MOL0     H 5933  10.565   5.057   3.895  0.9306  0.5311 -0.7285
   43MOL0     H 5934  10.436   5.155   3.924 -1.0617  1.7708 -1.4928
   44MOL0     O 5935  10.536   3.556   4.247 -0.2502  0.3820 -0.8877
   44MOL0     C 5936  10.609   3.606   4.165  0.3636 -0.1933 -0.6881
   44MOL0     O 5937  10.674   3.539   4.080 -0.1035  0.8948 -0.1547
   44MOL0     C 5938  10.620   3.417   4.044  0.1553  0.6813 -0.4804
   44MOL0     C 5939  10.536   3.413   3.928  0.2061 -0.5829 -0.3541
   44MOL0     C 5940  10.458   3.303   3.906  0.3412 -0.1752  0.3946
   44MOL0     C 5941  10.466   3.186   3.985 -0.7271  0.4667 -0.2268
   44MOL0     O 5942  10.382   3.073   3.967 -0.2783 -0.8847 -0.1330
   44MOL0     C 5943  10.358   3.019   3.834  0.1349  0.2126  0.7700
   44MOL0     C 5944  10.228   2.937   3.842  0.1877  0.1604 -0.0386
   44MOL0     C 5945  10.112   3.031   3.891 -0.9491 -0.4019  0.5908
   44MOL0     C 5946   9.986   2.966   3.895 -0.2876 -0.6826 -0.9336
   44MOL0     C 5947   9.905   2.970   3.760  0.0507 -0.2060 -0.4813
   44MOL0     C 5948   9.754   2.936   3.787  0.0539  0.1536  0.9596
   44MOL0     C 5949   9.661   2.922   3.657 -0.6450 -0.3920  0.3670
   44MOL0     C 5950   9.697   2.790   3.574  0.7599 -0.4674 -0.6990
   44MOL0     N 5951   9.832   2.746   3.547 -0.4172  0.0195  0.1556
   44MOL0     C 5952   9.909   2.674   3.637 -0.3267 -0.4997 -0.6492
   44MOL0     C 5953  10.022   2.625   3.570 -1.1140 -0.2423 -0.0326
   44MOL0     C 5954  10.110   2.528   3.639  1.0231 -0.2305 -0.2775
   44MOL0     C 5955  10.067   2.385   3.602  0.0259  0.1006  0.8429
   44MOL0     C 5956  10.156   2.282   3.674  0.5529 -0.0239  0.0288
   44MOL0     C 5957  10.303   2.301   3.681 -0.1276 -0.5933 -0.1583
   44MOL0     O 5958  10.363   2.323   3.551 -0.1634  0.1914  0.0764
   44MOL0     C 5959  10.410   2.211   3.489  0.1954  0.2650 -0.0881
   44MOL0     C 5960  10.314   2.142   3.416 -0.1726  0.2944 -0.0802
   44MOL0     C 5961  10.343   2.018   3.365 -0.3085  0.0188  0.4777
   44MOL0     C 5962  10.226   1.953   3.283  0.8870 -0.1229  0.3210
   44MOL0     C 5963  10.480   1.977   3.386  0.4479 -0.4411 -0.3992
   44MOL0     C 5964  10.546   1.871   3.315  0.0592  0.4810 -0.3184
   44MOL0     O 5965  10.682   1.882   3.284 -0.1478 -0.0009  0.0685
   44MOL0     C 5966  10.736   1.770   3.221 -0.3277  0.2836  0.1633
   44MOL0     C 5967  10.705   1.737   3.092  0.0516 -1.0168 -1.3041
   44MOL0     C 5968  10.749   1.622   3.035  0.7015 -0.0121  0.5689
   44MOL0     C 5969  10.823   1.540   3.108 -0.5721 -0.4617 -1.3316
   44MOL0     O 5970  10.856   1.424   3.051 -0.3190 -0.4981  0.2239
   44MOL0     C 5971  10.998   1.391   3.036  0.3902 -0.5110  0.5507
   44MOL0     C 5972  11.076   1.443   2.914  0.1903 -0.1579 -0.1912
   44MOL0     C 5973  11.027   1.402   2.781  0.4140  0.0189 -0.3638
   44MOL0     C 5974  11.103   1.477   2.675  0.1045  0.1213 -0.2631
   44MOL0     C 5975  11.093   1.424   2.533  0.0357  0.0507 -0.3485
   44MOL0     C 5976  11.190   1.513   2.443  0.9947 -0.1288 -0.5240
   44MOL0     C 5977  11.199   1.459   2.301  0.3758 -1.2374 -0.5979
   44MOL0     C 5978  11.330   1.516   2.232  0.6923  0.0530  0.2417
   44MOL0    Cl 5979  11.332   1.684   2.256  0.3918  0.4925  0.1642
   44MOL0     C 5980  10.861   1.565   3.242  0.2057  0.0020 -0.4248
   44MOL0     C 5981  10.816   1.686   3.291  0.2620 -0.5947 -0.3797
   44MOL0     O 5982  10.479   1.771   3.294 -0.1505 -0.4790  0.4505
   44MOL0     C 5983  10.570   2.041   3.480  0.5155 -1.0935 -0.3628
   44MOL0     C 5984  10.537   2.160   3.524  0.3318 -0.1533  0.1268
   44MOL0     N 5985  10.010   2.675   3.441 -0.4101 -0.8938  0.1755
   44MOL0     N 5986   9.903   2.756   3.426 -0.2890 -0.1450 -0.7317
   44MOL0     C 5987  10.547   3.193   4.099 -0.0655  0.6633  0.4658
   44MOL0     C 5988  10.632   3.300   4.125 -0.0727  0.0476  0.3404
   44MOL0     C 5989  10.641   3.744   4.182 -0.1227  0.3340  0.1112
   44MOL0     C 5990  10.729   3.811   4.087  0.5228  0.5890  0.3547
   44MOL0     C 5991  10.765   3.942   4.085  0.9935  0.0964  1.1816
   44MOL0     C 5992  10.704   4.026   4.178  0.3574 -0.1741  0.3181
   44MOL0     O 5993  10.723   4.163   4.165  0.4839 -0.1597  0.4561
   44MOL0     C 5994  10.626   4.252   4.102 -1.1896  0.5398  0.0408
   44MOL0     C 5995  10.655   4.402   4.137  0.3634  0.1776 -0.5493
   44MOL0     C 5996  10.772   4.451   4.045 -0.8464  0.2659 -0.6518
   44MOL0     C 5997  10.848   4.572   4.111  0.2690 -0.0864 -0.3683
   44MOL0     C 5998  10.759   4.668   4.186 -1.3460  1.1132  1.1302
   44MOL0     C 5999  10.717   4.746   4.255 -0.2191  0.1434  0.3357
   44MOL0     C 6000  10.623   3.967   4.284  0.5173 -0.1021 -0.1794
   44MOL0     C 6001  10.589   3.828   4.282 -0.2074 -0.5829  0.3167
   44MOL0     C 6002  10.494   3.786   4.394  0.4021 -0.5094 -0.9291
   44MOL0     H 6003  10.534   3.497   3.859 -2.0458 -0.2867  0.0165
   44MOL0     H 6004  10.397   3.294   3.817  0.3294  2.7383  0.0136
   44MOL0     H 6005  10.443   2.961   3.797  1.0708  1.2874  1.1767
   44MOL0     H 6006  10.358   3.102   3.764  0.4044 -1.8559 -1.8420
   44MOL0     H 6007  10.181   2.901   3.750 -0.8397  1.8202 -0.2058
   44MOL0     H 6008  10.233   2.857   3.916  0.0757  0.9884  0.8874
   44MOL0     H 6009  10.139   3.077   3.986  0.0628 -0.3741  0.3050
   44MOL0     H 6010  10.101   3.115   3.821  0.9640  0.6813  1.5117
   44MOL0     H 6011   9.988   2.860   3.922  0.5239 -0.3701  0.3615
   44MOL0     H 6012   9.924   3.009   3.974  0.3017 -0.0141 -0.8269
   44MOL0     H 6013   9.965   2.899   3.702  0.8066  2.0863 -2.6920
   44MOL0     H 6014   9.901   3.065   3.706 -0.0266 -0.2065 -0.4767
   44MOL0     H 6015   9.742   2.842   3.843  1.7014 -1.3476 -1.0616
   44MOL0     H 6016   9.708   3.016   3.845  1.2666  0.7441  1.1481
   44MOL0     H 6017   9.678   3.005   3.587  0.3982 -1.8670 -1.2004
   44MOL0     H 6018   9.557   2.930   3.688 -0.0147  0.2501  2.5019
   44MOL0     H 6019   9.636   2.714   3.625 -2.2323  3.1891  1.7125
   44MOL0     H 6020   9.638   2.806   3.483 -0.4227 -0.3395  0.0561
   44MOL0     H 6021   9.893   2.654   3.743 -0.2603  1.7071 -0.1605
   44MOL0     H 6022  10.091   2.546   3.745  0.8353  1.7053 -0.6130
   44MOL0     H 6023  10.217   2.543   3.623  1.1637 -1.3260 -0.4409
   44MOL0     H 6024   9.964   2.365   3.634 -2.1194 -1.1660 -5.3615
   44MOL0     H 6025  10.057   2.363   3.495 -0.6793 -2.2793  1.3443
   44MOL0     H 6026  10.116   2.273   3.775  1.2196  0.6070  0.3627
   44MOL0     H 6027  10.146   2.182   3.631 -2.0152 -0.8818  2.3133
   44MOL0     H 6028  10.336   2.389   3.737 -3.4413  1.4948 -1.1716
   44MOL0     H 6029  10.352   2.219   3.734  1.7874  2.0665  2.4916
   44MOL0     H 6030  10.218   2.188   3.396 -0.4898 -1.0157 -1.7781
   44MOL0     H 6031  10.162   2.029   3.238  3.0309  0.4458 -1.9412
   44MOL0     H 6032  10.154   1.882   3.327 -0.1783  0.9183  0.3054
   44MOL0     H 6033  10.262   1.902   3.194 -0.1615 -0.7422  0.2298
   44MOL0     H 6034  10.635   1.806   3.046 -0.0782 -0.4808 -0.3289
   44MOL0     H 6035  10.723   1.617   2.930 -1.6279  3.3837  0.8419
   44MOL0     H 6036  11.064   1.435   3.111  0.4576  0.3167  0.0186
   44MOL0     H 6037  11.018   1.283   3.039  1.3026 -0.3308  1.3364
   44MOL0     H 6038  11.060   1.551   2.919  0.4134 -0.1624  2.8270
   44MOL0     H 6039  11.186   1.438   2.914  0.3589  1.8796 -2.2895
   44MOL0     H 6040  10.920   1.427   2.781  0.6242  1.1419  1.7556
   44MOL0     H 6041  11.053   1.296   2.766  1.3199  0.4380 -1.9047
   44MOL0     H 6042  11.208   1.497   2.699 -1.0044  2.0886  4.1653
   44MOL0     H 6043  11.056   1.576   2.675  1.4771  0.7965 -1.1221
   44MOL0     H 6044  11.128   1.320   2.540 -0.4663 -0.0557  0.7984
   44MOL0     H 6045  10.992   1.432   2.492  1.1409 -0.7231 -3.5426
   44MOL0     H 6046  11.285   1.520   2.497 -0.1174 -2.0854  1.9529
   44MOL0     H 6047  11.140   1.610   2.443 -0.3911 -0.7891  0.3556
   44MOL0     H 6048  11.105   1.488   2.253 -0.4823  1.0939  2.1721
   44MOL0     H 6049  11.190   1.350   2.299 -0.4521 -1.1825 -3.1160
   44MOL0     H 6050  11.322   1.496   2.125  5.3941  1.4272 -0.5938
   44MOL0     H 6051  11.424   1.476   2.272  0.3321  0.0103  1.0651
   44MOL0     H 6052  10.899   1.482   3.301 -0.3271 -1.7132 -2.3613
   44MOL0     H 6053  10.838   1.720   3.391 -0.5256  3.2974 -1.3554
   44MOL0     H 6054  10.666   2.002   3.512 -0.0826 -0.7902  1.9334
   44MOL0     H 6055  10.595   2.215   3.597 -1.3694  0.7369  0.8808
   44MOL0     H 6056  10.535   3.113   4.172 -0.7548  0.9334  0.6568
   44MOL0     H 6057  10.686   3.302   4.220  1.9740  0.4225 -0.7739
   44MOL0     H 6058  10.774   3.751   4.009 -0.9011  1.8816 -1.5552
   44MOL0     H 6059  10.824   3.976   4.001 -1.6392 -0.2302 -0.9589
   44MOL0     H 6060  10.620   4.238   3.994  0.1189 -0.2428  0.0394
   44MOL0     H 6061  10.525   4.238   4.141 -0.6862 -0.4101  1.0347
   44MOL0     H 6062  10.681   4.416   4.242  0.4839  1.8832 -0.7850
   44MOL0     H 6063  10.562   4.449   4.104  0.8805  0.4540 -1.6712
   44MOL0     H 6064  10.840   4.369   4.020 -0.6485  0.1946  0.0872
   44MOL0     H 6065  10.716   4.489   3.959 -0.9783  0.9965 -0.2545
   44MOL0     H 6066  10.903   4.638   4.043 -3.2345  3.5493  0.0238
   44MOL0     H 6067  10.924   4.526   4.175  2.1204 -1.2733 -3.1680
   44MOL0     H 6068  10.660   4.814   4.315  1.6949  1.2192  1.0404
   44MOL0     H 6069  10.584   4.031   4.362 -0.1819 -0.7327  0.0074
   44MOL0     H 6070  10.401   3.821   4.347  0.8054 -0.2123 -1.5199
   44MOL0     H 6071  10.496   3.686   4.437 -0.7795 -0.2280 -0.1529
   44MOL0     H 6072  10.518   3.842   4.485 -0.1872 -1.6985 -0.0260
   45MOL0     O 6073   6.553   5.851   6.121 -0.2863  0.2222  0.0923
   45MOL0     C 6074   6.616   5.909   6.203 -1.3422  0.2054 -0.2605
   45MOL0     O 6075   6.562   5.973   6.313 -0.4312  1.2541  0.4499
   45MOL0     C 6076   6.430   5.955   6.358 -1.4721 -0.1385  0.0735
   45MOL0     C 6077   6.398   5.906   6.486 -0.4242 -0.4540  0.1966
   45MOL0     C 6078   6.266   5.876   6.520  0.7748 -0.0394 -0.0222
   45MOL0     C 6079   6.159   5.916   6.428 -0.3309 -0.1176 -1.1082
   45MOL0     O 6080   6.029   5.905   6.456 -0.0133  0.9455 -0.2255
   45MOL0     C 6081   5.976   5.773   6.420  0.9068  0.0357 -0.2779
   45MOL0     C 6082   5.956   5.670   6.524  0.3897  0.0785 -0.4660
   45MOL0     C 6083   5.944   5.525   6.481 -0.6881  0.7413 -0.1789
   45MOL0     C 6084   5.871   5.442   6.595  0.7583 -0.3009 -0.4891
   45MOL0     C 6085   5.805   5.317   6.543  0.0769 -0.0485 -0.2648
   45MOL0     C 6086   5.893   5.211   6.475 -0.0864  0.0381  0.0328
   45MOL0     C 6087   5.996   5.130   6.562  0.3586 -0.1370 -0.7162
   45MOL0     C 6088   6.095   5.055   6.478 -0.6123  0.3697 -0.2239
   45MOL0     N 6089   6.211   5.033   6.567 -0.7160  0.8021 -0.2016
   45MOL0     C 6090   6.315   5.112   6.575 -0.0011  0.2309 -0.1055
   45MOL0     C 6091   6.387   5.076   6.679  0.1172 -0.1193 -0.6461
   45MOL0     C 6092   6.527   5.123   6.723  0.0385  0.5989  0.4796
   45MOL0     C 6093   6.537   5.136   6.882  0.4540 -0.1975 -0.8769
   45MOL0     C 6094   6.579   5.011   6.954  0.0784  0.0430  0.7328
   45MOL0     C 6095   6.552   5.011   7.101 -0.6562  0.0860  0.6978
   45MOL0     O 6096   6.604   5.135   7.153 -0.1602 -0.8417  0.5773
   45MOL0     C 6097   6.528   5.230   7.209  0.9406 -0.8822  0.7489
   45MOL0     C 6098   6.589   5.333   7.289 -0.0991  0.4949 -0.2329
   45MOL0     C 6099   6.520   5.439   7.343 -1.0886  0.0268  0.7705
   45MOL0     C 6100   6.590   5.548   7.416  0.3418 -0.0699  0.8538
   45MOL0     C 6101   6.373   5.446   7.311 -0.1192 -0.5009  0.9259
   45MOL0     C 6102   6.287   5.561   7.359 -0.6245  0.0490 -0.5782
   45MOL0     O 6103   6.315   5.691   7.322 -0.7016  0.4823 -0.2488
   45MOL0     C 6104   6.242   5.791   7.366 -0.7950  0.1561 -0.2458
   45MOL0     C 6105   6.194   5.818   7.493 -0.1797 -0.4296  0.7755
   45MOL0     C 6106   6.132   5.941   7.514 -0.6637  0.2085 -0.5514
   45MOL0     C 6107   6.079   6.016   7.408 -0.2131 -0.3549  0.2820
   45MOL0     O 6108   5.989   6.118   7.431  0.0515 -0.0945  0.9090
   45MOL0     C 6109   5.894   6.150   7.330  0.4059 -0.0719  0.2714
   45MOL0     C 6110   5.771   6.214   7.394  0.3149 -0.7375  0.3132
   45MOL0     C 6111   5.802   6.341   7.462 -0.7913  0.1723 -0.1864
   45MOL0     C 6112   5.669   6.399   7.505  0.4077  0.4887 -0.0995
   45MOL0     C 6113   5.680   6.546   7.540  0.0029 -0.9374 -0.4711
   45MOL0     C 6114   5.760   6.567   7.666  0.4483  0.9240 -0.6535
   45MOL0     C 6115   5.811   6.708   7.696  0.5662  0.5459  0.1708
   45MOL0     C 6116   5.747   6.780   7.820  1.1141  0.3891 -1.1562
   45MOL0    Cl 6117   5.788   6.713   7.984  0.1121  0.1516 -0.2679
   45MOL0     C 6118   6.131   5.988   7.279 -0.1040  0.2677 -0.2171
   45MOL0     C 6119   6.217   5.879   7.267  0.5506 -0.2363  0.1885
   45MOL0     O 6120   6.197   5.524   7.436  0.4342 -0.1230 -0.3546
   45MOL0     C 6121   6.320   5.343   7.239  0.4525  0.1895 -0.2466
   45MOL0     C 6122   6.399   5.235   7.199  0.0500  0.6109  0.3711
   45MOL0     N 6123   6.316   4.972   6.741  0.2442  0.3361  1.0822
   45MOL0     N 6124   6.208   4.953   6.671  0.0661  0.6095 -0.7001
   45MOL0     C 6125   6.191   5.973   6.313  0.6788  0.1077  0.2450
   45MOL0     C 6126   6.328   5.991   6.276  0.2147  0.2461 -0.0845
   45MOL0     C 6127   6.764   5.930   6.184 -0.2375 -0.8489 -0.1562
   45MOL0     C 6128   6.825   6.057   6.222  0.2259  0.3272 -0.5535
   45MOL0     C 6129   6.955   6.083   6.191  0.1777  0.4944 -0.2206
   45MOL0     C 6130   7.038   5.994   6.115  0.5829  1.4159 -0.8367
   45MOL0     O 6131   7.177   6.005   6.119 -0.0318  0.2121  0.3588
   45MOL0     C 6132   7.237   6.030   5.988  0.7841 -0.1812  0.4116
   45MOL0     C 6133   7.252   5.891   5.909 -0.4261 -0.1076 -0.6844
   45MOL0     C 6134   7.326   5.795   6.000  0.5170 -0.7322  0.4840
   45MOL0     C 6135   7.341   5.658   5.930  0.4733  0.3983  1.6775
   45MOL0     C 6136   7.308   5.550   6.014  1.3288 -0.0411 -0.3411
   45MOL0     C 6137   7.272   5.473   6.102  0.4485 -0.0433 -0.2638
   45MOL0     C 6138   6.978   5.874   6.079  0.2972  0.9005 -1.2251
   45MOL0     C 6139   6.847   5.842   6.118  0.4382  0.3877  0.2313
   45MOL0     C 6140   6.802   5.700   6.083  0.4130  0.6051 -1.2371
   45MOL0     H 6141   6.475   5.882   6.558 -0.0642  1.4088  0.4960
   45MOL0     H 6142   6.243   5.846   6.622 -0.6226  4.2565  1.1507
   45MOL0     H 6143   6.047   5.745   6.342  0.7857 -0.5681 -0.1725
   45MOL0     H 6144   5.884   5.793   6.363  1.5050  2.5726 -0.4591
   45MOL0     H 6145   6.039   5.689   6.592  0.6492  1.8288 -1.2076
   45MOL0     H 6146   5.868   5.700   6.582  1.7827  1.6748  0.9150
   45MOL0     H 6147   5.894   5.521   6.383  0.4081  2.2308 -0.8479
   45MOL0     H 6148   6.044   5.485   6.463 -1.8832 -1.6376 -2.1369
   45MOL0     H 6149   5.939   5.417   6.677 -0.8441  0.3166  1.0884
   45MOL0     H 6150   5.795   5.506   6.640  3.1084  1.1878  1.6246
   45MOL0     H 6151   5.729   5.348   6.471 -0.6508  2.8421  1.5851
   45MOL0     H 6152   5.754   5.270   6.628 -3.3390  3.1909 -0.2465
   45MOL0     H 6153   5.829   5.131   6.439 -0.8625  0.3816  0.6095
   45MOL0     H 6154   5.946   5.259   6.392 -5.3939 -0.4301 -4.1836
   45MOL0     H 6155   5.924   5.057   6.600 -1.3693  0.2395 -3.0419
   45MOL0     H 6156   6.046   5.197   6.632  3.9924 -0.0807 -3.1153
   45MOL0     H 6157   6.054   4.960   6.442  1.2288 -0.2193 -0.8712
   45MOL0     H 6158   6.128   5.111   6.390 -1.0125  0.1001 -0.5549
   45MOL0     H 6159   6.343   5.189   6.504  0.1352 -1.8838 -2.5021
   45MOL0     H 6160   6.541   5.223   6.682 -0.8588  0.5377  0.0207
   45MOL0     H 6161   6.590   5.039   6.691 -1.7828 -2.1909  3.5799
   45MOL0     H 6162   6.597   5.223   6.910 -2.6266  2.0747 -0.7559
   45MOL0     H 6163   6.440   5.168   6.921 -0.4935 -0.4787 -2.8959
   45MOL0     H 6164   6.519   4.928   6.915  2.2586 -1.6972  0.9194
   45MOL0     H 6165   6.685   5.002   6.931 -0.8457 -3.4529 -3.3154
   45MOL0     H 6166   6.453   4.971   7.127  0.8062 -3.9032  0.7786
   45MOL0     H 6167   6.625   4.936   7.130  1.7703  1.2279 -2.0259
   45MOL0     H 6168   6.695   5.312   7.304  0.3081  2.7880  0.4871
   45MOL0     H 6169   6.531   5.579   7.502  0.4945 -1.1931  1.3876
   45MOL0     H 6170   6.607   5.634   7.351 -0.7820  1.0604  2.0110
   45MOL0     H 6171   6.691   5.513   7.438  1.0960 -1.2308 -3.4372
   45MOL0     H 6172   6.203   5.766   7.587 -0.0530  2.3525  2.4144
   45MOL0     H 6173   6.088   5.967   7.610 -2.5905 -1.5465 -0.8668
   45MOL0     H 6174   5.940   6.226   7.266  3.1913 -2.0434 -0.2570
   45MOL0     H 6175   5.861   6.059   7.279 -0.6761  0.0312  0.7551
   45MOL0     H 6176   5.711   6.247   7.309  0.3574  3.4644  1.6746
   45MOL0     H 6177   5.721   6.145   7.463  1.1954  1.9051  3.8870
   45MOL0     H 6178   5.864   6.401   7.393 -0.7060  1.2468  0.7838
   45MOL0     H 6179   5.863   6.327   7.551  0.9915 -0.5151 -1.4452
   45MOL0     H 6180   5.628   6.326   7.575  0.4484 -2.4801 -2.9287
   45MOL0     H 6181   5.594   6.394   7.425  2.2767 -0.0331 -1.9296
   45MOL0     H 6182   5.719   6.590   7.448 -0.7123  0.5084 -0.1113
   45MOL0     H 6183   5.576   6.575   7.559  0.2478 -1.3146  1.7016
   45MOL0     H 6184   5.841   6.493   7.669  1.6831  2.2576  1.0736
   45MOL0     H 6185   5.701   6.531   7.750 -1.0792 -1.9410 -2.7697
   45MOL0     H 6186   5.792   6.777   7.614  1.8252 -0.8212 -1.3425
   45MOL0     H 6187   5.920   6.699   7.710  0.2646 -0.2568  2.4871
   45MOL0     H 6188   5.639   6.767   7.824  1.3615 -1.9553  1.4377
   45MOL0     H 6189   5.770   6.887   7.823 -0.9062  0.8353  0.4774
   45MOL0     H 6190   6.105   6.051   7.194  0.9118  0.3758 -0.4538
   45MOL0     H 6191   6.267   5.864   7.172  0.0994 -0.6830  0.0153
   45MOL0     H 6192   6.214   5.345   7.217 -0.2015  1.2395  2.5763
   45MOL0     H 6193   6.341   5.168   7.137  0.3416  0.0568  0.6943
   45MOL0     H 6194   6.107   5.994   6.248 -0.4743  0.7309  1.8827
   45MOL0     H 6195   6.365   6.031   6.182 -0.0668 -2.2808 -1.3519
   45MOL0     H 6196   6.784   6.122   6.298  0.1116  1.7060 -1.7604
   45MOL0     H 6197   6.993   6.178   6.228 -0.2951  0.4030  0.5330
   45MOL0     H 6198   7.169   6.101   5.940  2.1014  1.1388  0.4324
   45MOL0     H 6199   7.335   6.078   5.992  1.8989 -2.4178  3.0768
   45MOL0     H 6200   7.315   5.917   5.823  1.0444  1.6692  0.8481
   45MOL0     H 6201   7.162   5.853   5.861 -0.7997  0.0172 -0.0941
   45MOL0     H 6202   7.426   5.838   6.015 -0.1067  1.2471 -0.5454
   45MOL0     H 6203   7.279   5.786   6.098 -0.0231  3.0920  0.7324
   45MOL0     H 6204   7.443   5.632   5.901 -0.2929 -0.5360 -0.3603
   45MOL0     H 6205   7.278   5.646   5.842  2.1358  0.6451  0.4087
   45MOL0     H 6206   7.229   5.428   6.189 -1.1828  0.4491 -0.7709
   45MOL0     H 6207   7.046   5.809   6.025  1.4384  1.0244  0.0194
   45MOL0     H 6208   6.878   5.640   6.033 -0.6245  0.4710 -2.7170
   45MOL0     H 6209   6.776   5.641   6.172  0.0935 -1.5382 -2.6769
   45MOL0     H 6210   6.717   5.703   6.015  0.4227 -1.6508 -1.4409
   46MOL0     O 6211   7.137   9.313   9.983  0.5390 -0.2695  0.0652
   46MOL0     C 6212   7.160   9.323  10.102  1.1186  0.9750 -1.3719
   46MOL0     O 6213   7.162   9.444  10.177  0.6896  0.6742 -0.7246
   46MOL0     C 6214   7.147   9.559  10.100  0.5003 -0.8593 -0.1927
   46MOL0     C 6215   7.033   9.577  10.015 -0.5294  0.3633 -0.4374
   46MOL0     C 6216   7.006   9.698   9.946 -0.5739 -0.9536 -0.3514
   46MOL0     C 6217   7.092   9.808   9.972  0.6570 -0.0315  0.6169
   46MOL0     O 6218   7.054   9.927   9.909 -0.4185  0.8887  0.5279
   46MOL0     C 6219   7.149  10.033   9.884  0.8506 -0.0868 -0.6916
   46MOL0     C 6220   7.110  10.082   9.746  0.3590 -1.0529 -1.0421
   46MOL0     C 6221   7.216  10.182   9.688 -0.1895  0.0347  0.5494
   46MOL0     C 6222   7.214  10.308   9.767 -0.3193  0.0601  0.3906
   46MOL0     C 6223   7.299  10.420   9.696 -0.0675  0.6220 -0.1806
   46MOL0     C 6224   7.224  10.495   9.588  0.2674 -0.2185 -1.1231
   46MOL0     C 6225   7.106  10.581   9.655 -0.0559 -0.2083  0.5285
   46MOL0     C 6226   7.021  10.619   9.531  0.2756  0.4559 -0.2532
   46MOL0     N 6227   6.896  10.690   9.557  0.3955 -0.0898  0.2055
   46MOL0     C 6228   6.855  10.734   9.673  0.2026 -0.1445  0.0494
   46MOL0     C 6229   6.753  10.819   9.651  0.0965 -0.3504  0.0760
   46MOL0     C 6230   6.661  10.886   9.755 -0.3891 -0.2899 -0.6334
   46MOL0     C 6231   6.730  11.004   9.840 -0.7148  0.3231 -0.2853
   46MOL0     C 6232   6.785  11.117   9.752  0.6894  0.4546 -0.5239
   46MOL0     C 6233   6.923  11.157   9.821  0.0291  0.4463 -1.2364
   46MOL0     O 6234   6.967  11.263   9.748  0.7783 -0.2806  0.7958
   46MOL0     C 6235   7.045  11.252   9.633 -0.2565  0.7484  0.3795
   46MOL0     C 6236   7.068  11.135   9.563  0.4013 -0.7411  0.1853
   46MOL0     C 6237   7.164  11.135   9.462 -0.4866  0.5840  0.2537
   46MOL0     C 6238   7.172  10.995   9.388 -1.0116  0.7383  0.2006
   46MOL0     C 6239   7.234  11.257   9.416 -0.3163 -1.2216 -0.5952
   46MOL0     C 6240   7.333  11.266   9.299  0.1710 -0.6794  0.4835
   46MOL0     O 6241   7.375  11.152   9.242 -0.3146  0.0425  0.2772
   46MOL0     C 6242   7.419  11.165   9.113 -0.1986 -0.0056 -0.0394
   46MOL0     C 6243   7.551  11.188   9.080  0.3136 -0.1534 -0.7437
   46MOL0     C 6244   7.595  11.213   8.950 -0.2600 -0.2114 -0.4480
   46MOL0     C 6245   7.500  11.231   8.844 -0.8516  0.3337 -0.1159
   46MOL0     O 6246   7.529  11.264   8.718  0.4595 -0.5717  0.6533
   46MOL0     C 6247   7.657  11.254   8.656  0.9631  0.4909 -0.9911
   46MOL0     C 6248   7.694  11.114   8.630  0.1858 -0.2374  0.1783
   46MOL0     C 6249   7.600  11.043   8.535 -0.8667 -0.3263  1.1165
   46MOL0     C 6250   7.647  11.077   8.393 -0.0208 -0.2396 -0.3863
   46MOL0     C 6251   7.552  11.036   8.293  0.0199 -1.2690  0.8569
   46MOL0     C 6252   7.414  11.119   8.292 -0.7921  0.0906 -0.1178
   46MOL0     C 6253   7.348  11.099   8.154 -0.2422 -0.2959  0.7587
   46MOL0     C 6254   7.199  11.115   8.157 -0.0421 -0.2681  0.1421
   46MOL0    Cl 6255   7.122  11.086   7.999 -0.3151  0.4220  0.1002
   46MOL0     C 6256   7.371  11.200   8.877 -0.3507  0.2791  0.3222
   46MOL0     C 6257   7.333  11.171   9.010 -0.4877 -0.8090 -0.1109
   46MOL0     O 6258   7.374  11.379   9.280  1.9111  0.1814  0.5688
   46MOL0     C 6259   7.202  11.373   9.485  0.1059 -0.3264 -0.1682
   46MOL0     C 6260   7.101  11.373   9.588  0.0838  0.2318 -0.3339
   46MOL0     N 6261   6.735  10.844   9.517  0.0475  0.5706  0.6066
   46MOL0     N 6262   6.825  10.764   9.463  0.4717 -0.1180  0.7369
   46MOL0     C 6263   7.199   9.783  10.061 -0.1372 -0.0168 -0.0732
   46MOL0     C 6264   7.226   9.663  10.127  0.4211 -0.4732 -0.4480
   46MOL0     C 6265   7.179   9.200  10.189 -0.1460  0.5151  0.1776
   46MOL0     C 6266   7.211   9.221  10.325 -0.2610  0.1583 -0.1010
   46MOL0     C 6267   7.238   9.116  10.419  0.6380 -0.1345  0.5919
   46MOL0     C 6268   7.241   8.983  10.373 -0.5065 -0.4072  0.0181
   46MOL0     O 6269   7.249   8.878  10.459  0.0940  0.1099 -0.1840
   46MOL0     C 6270   7.362   8.883  10.543  1.1238 -0.1127 -0.5656
   46MOL0     C 6271   7.396   8.744  10.601  0.9062  0.6395  0.0375
   46MOL0     C 6272   7.275   8.681  10.671 -0.1545 -0.2787  0.3804
   46MOL0     C 6273   7.307   8.545  10.738  0.7463  0.1641 -0.1088
   46MOL0     C 6274   7.183   8.491  10.780 -0.1933  1.1758 -0.1566
   46MOL0     C 6275   7.078   8.434  10.814 -0.0286  0.9849  0.1486
   46MOL0     C 6276   7.221   8.955  10.233  0.6298 -0.2946  0.9113
   46MOL0     C 6277   7.198   9.062  10.149  0.6039  0.6579  0.8200
   46MOL0     C 6278   7.170   9.039  10.004  0.3576 -0.2553 -1.2362
   46MOL0     H 6279   6.947   9.512  10.002 -1.0236  1.2291 -1.7310
   46MOL0     H 6280   6.918   9.693   9.882  0.4221  0.1945 -1.8595
   46MOL0     H 6281   7.252   9.998   9.896  0.7980  0.5002  2.1558
   46MOL0     H 6282   7.148  10.117   9.954 -1.4463  1.5476 -2.5200
   46MOL0     H 6283   7.095   9.995   9.682  0.8129  0.4024 -3.2153
   46MOL0     H 6284   7.019  10.141   9.759  1.9092  1.3052 -0.0846
   46MOL0     H 6285   7.320  10.150   9.695 -0.0854 -0.2292 -1.6226
   46MOL0     H 6286   7.187  10.198   9.584 -1.3146 -1.8475  0.5214
   46MOL0     H 6287   7.115  10.345   9.796  0.1091 -0.2002  2.2967
   46MOL0     H 6288   7.257  10.296   9.867 -1.4793  0.6381  0.9766
   46MOL0     H 6289   7.386  10.370   9.653 -0.5486 -1.9399  1.5832
   46MOL0     H 6290   7.325  10.495   9.771 -0.6281  0.3908  0.2548
   46MOL0     H 6291   7.286  10.564   9.530  1.2861  0.5549  0.7533
   46MOL0     H 6292   7.177  10.419   9.526 -1.2642 -1.4851  1.4170
   46MOL0     H 6293   7.145  10.668   9.709 -0.0410  0.2644 -0.2338
   46MOL0     H 6294   7.036  10.528   9.721 -0.9208 -4.0893 -3.0659
   46MOL0     H 6295   7.075  10.687   9.465 -0.8898 -2.6793 -4.9263
   46MOL0     H 6296   7.006  10.529   9.470  0.9252 -1.0520  1.7178
   46MOL0     H 6297   6.897  10.706   9.770  0.0010  0.3033  0.2711
   46MOL0     H 6298   6.630  10.812   9.829  0.1051  2.1626  2.2158
   46MOL0     H 6299   6.572  10.916   9.699 -0.3150 -3.2814 -2.6088
   46MOL0     H 6300   6.649  11.045   9.902  0.5106  1.5711  0.5372
   46MOL0     H 6301   6.808  10.954   9.897  1.0156  3.3774  0.2101
   46MOL0     H 6302   6.793  11.098   9.645 -1.2324  2.1791 -1.0391
   46MOL0     H 6303   6.718  11.203   9.765  0.3714  0.3729 -1.5736
   46MOL0     H 6304   6.901  11.183   9.925 -3.1456 -2.7037 -0.9609
   46MOL0     H 6305   7.005  11.085   9.819  0.4963  0.7603  1.8021
   46MOL0     H 6306   7.023  11.042   9.596 -1.1564 -0.4441 -1.0083
   46MOL0     H 6307   7.276  10.962   9.391 -1.7971 -2.1057 -0.8680
   46MOL0     H 6308   7.128  10.999   9.288 -1.2285  4.3378  0.3159
   46MOL0     H 6309   7.110  10.920   9.438 -0.1634 -0.5189 -0.5755
   46MOL0     H 6310   7.613  11.199   9.168 -0.7085  1.3542 -0.1763
   46MOL0     H 6311   7.701  11.237   8.945 -0.6227  2.6449  2.5184
   46MOL0     H 6312   7.653  11.314   8.565 -2.3609  0.8978 -0.6972
   46MOL0     H 6313   7.729  11.300   8.724 -0.2868  0.0981  0.6570
   46MOL0     H 6314   7.795  11.095   8.594  1.3300 -1.2706  3.5589
   46MOL0     H 6315   7.686  11.061   8.725  0.0100 -1.4867 -0.5097
   46MOL0     H 6316   7.495  11.071   8.549 -1.0875  1.1528 -2.3255
   46MOL0     H 6317   7.606  10.937   8.560 -0.2699 -0.5433  0.1151
   46MOL0     H 6318   7.741  11.028   8.366  1.1858  0.2548  2.5798
   46MOL0     H 6319   7.671  11.182   8.374 -0.7715 -0.3746 -2.3489
   46MOL0     H 6320   7.608  11.050   8.200  0.1656 -0.4089  1.0672
   46MOL0     H 6321   7.530  10.930   8.310  1.6701 -1.5533  1.4213
   46MOL0     H 6322   7.435  11.223   8.321 -3.1688  0.7469 -0.5906
   46MOL0     H 6323   7.340  11.087   8.365 -0.7299 -1.5255 -0.7310
   46MOL0     H 6324   7.370  11.002   8.108 -4.6775 -0.3579 -1.8028
   46MOL0     H 6325   7.402  11.176   8.098  0.7005 -0.0952  1.9152
   46MOL0     H 6326   7.161  11.209   8.199  1.9993  1.6124 -1.9756
   46MOL0     H 6327   7.154  11.029   8.207 -1.4747  0.5182  0.2885
   46MOL0     H 6328   7.310  11.230   8.792  1.9679  3.1881 -0.4626
   46MOL0     H 6329   7.233  11.154   9.051 -1.1104  2.2160 -0.1954
   46MOL0     H 6330   7.238  11.473   9.463  2.3596 -0.9950  0.2700
   46MOL0     H 6331   7.085  11.456   9.656  1.5232  1.5338 -1.5135
   46MOL0     H 6332   7.266   9.863  10.091 -0.0418 -1.0119  2.6586
   46MOL0     H 6333   7.318   9.662  10.186  0.8649 -0.2442 -1.1201
   46MOL0     H 6334   7.208   9.323  10.362  3.9691  0.2933  0.4036
   46MOL0     H 6335   7.249   9.135  10.525  0.0730 -1.4407  0.9088
   46MOL0     H 6336   7.448   8.914  10.483  2.3608 -0.2230  1.0586
   46MOL0     H 6337   7.332   8.958  10.617  1.2131  0.0963 -0.7406
   46MOL0     H 6338   7.472   8.739  10.679 -3.2119 -1.8387  4.4554
   46MOL0     H 6339   7.415   8.670  10.523 -0.7432 -0.4306  0.5959
   46MOL0     H 6340   7.233   8.748  10.746 -0.5900  1.6519 -1.4877
   46MOL0     H 6341   7.197   8.690  10.594 -1.0595  2.9827  1.5267
   46MOL0     H 6342   7.368   8.569  10.825  0.9292 -1.2652  0.1915
   46MOL0     H 6343   7.352   8.474  10.668 -3.4491 -1.1514 -1.8157
   46MOL0     H 6344   6.979   8.399  10.836 -0.3763  1.6771 -0.2746
   46MOL0     H 6345   7.218   8.859  10.183 -1.7877  0.2540 -0.1461
   46MOL0     H 6346   7.236   9.101   9.941  1.2748  1.2265  1.0592
   46MOL0     H 6347   7.202   8.937   9.982  0.8949 -0.2036 -0.7294
   46MOL0     H 6348   7.062   9.048   9.989 -0.2439 -1.8339  1.5360
   47MOL0     O 6349   8.077   6.189  10.712  0.1524  0.0407  0.2744
   47MOL0     C 6350   8.172   6.196  10.787 -0.0255  1.1021 -0.5168
   47MOL0     O 6351   8.235   6.308  10.824 -0.1490 -0.7076 -0.4470
   47MOL0     C 6352   8.229   6.422  10.747  0.4524 -0.1118  0.3087
   47MOL0     C 6353   8.260   6.413  10.615 -0.5807 -0.2674 -0.3926
   47MOL0     C 6354   8.264   6.531  10.537  0.8438  0.0728  0.1820
   47MOL0     C 6355   8.221   6.652  10.589  0.2021  0.0465  0.7199
   47MOL0     O 6356   8.226   6.758  10.497 -0.1801  0.5286 -0.2193
   47MOL0     C 6357   8.129   6.856  10.542  0.0695 -0.0917  0.1072
   47MOL0     C 6358   8.112   6.943  10.423  0.2790 -0.0543  0.2424
   47MOL0     C 6359   8.234   7.036  10.398 -0.3163  0.0959 -0.7980
   47MOL0     C 6360   8.240   7.107  10.263 -0.5465 -0.4127 -0.0485
   47MOL0     C 6361   8.374   7.164  10.212 -0.6775 -0.6860 -0.3840
   47MOL0     C 6362   8.361   7.174  10.061 -0.5031  0.7284  0.6078
   47MOL0     C 6363   8.492   7.242  10.003  0.0797  0.4068 -0.1999
   47MOL0     C 6364   8.482   7.266   9.853 -0.3324 -0.2390 -0.4514
   47MOL0     N 6365   8.493   7.137   9.779 -0.2025 -0.1774  0.9041
   47MOL0     C 6366   8.607   7.083   9.730 -0.1401 -0.0298 -1.6765
   47MOL0     C 6367   8.568   6.981   9.650 -0.5233  0.1350 -0.1258
   47MOL0     C 6368   8.655   6.879   9.578  0.5370 -0.3981 -0.5846
   47MOL0     C 6369   8.755   6.965   9.506 -0.7586 -0.1374  0.6690
   47MOL0     C 6370   8.872   6.875   9.453  0.0434 -0.1131  0.1006
   47MOL0     C 6371   8.968   6.953   9.362 -0.9916  0.7312 -0.5892
   47MOL0     O 6372   9.079   6.876   9.328 -0.1894 -0.4335 -0.3289
   47MOL0     C 6373   9.076   6.828   9.202 -0.6810  0.6838  0.1351
   47MOL0     C 6374   9.102   6.906   9.089  0.3637  0.2756 -0.5671
   47MOL0     C 6375   9.120   6.855   8.962 -0.4285 -1.1030  0.1086
   47MOL0     C 6376   9.167   6.947   8.856  1.0531 -0.5791 -0.1910
   47MOL0     C 6377   9.106   6.718   8.948  0.1767  0.0994 -0.7787
   47MOL0     C 6378   9.135   6.635   8.823  0.9820 -0.9693  0.6906
   47MOL0     O 6379   9.072   6.680   8.716 -0.4140  0.5124  0.3234
   47MOL0     C 6380   9.089   6.611   8.603  0.8145 -0.3995  0.1397
   47MOL0     C 6381   9.044   6.472   8.585 -0.0655 -0.1556 -0.6064
   47MOL0     C 6382   9.075   6.412   8.466 -0.4700  0.3847 -0.2921
   47MOL0     C 6383   9.163   6.474   8.377  0.1472 -0.3303  0.7008
   47MOL0     O 6384   9.193   6.403   8.261 -0.1506 -0.6174  0.8560
   47MOL0     C 6385   9.080   6.402   8.169 -1.4891  0.1972 -0.4607
   47MOL0     C 6386   9.138   6.408   8.022 -0.2912  0.5319  0.3039
   47MOL0     C 6387   9.202   6.543   7.977  0.1658 -0.0908 -0.7460
   47MOL0     C 6388   9.105   6.662   8.002 -0.3088  0.0611 -0.6898
   47MOL0     C 6389   9.086   6.770   7.896  0.4635  0.5347  0.4062
   47MOL0     C 6390   9.215   6.824   7.847 -0.9502 -0.6436 -0.5759
   47MOL0     C 6391   9.186   6.940   7.750  0.0027  0.0806  0.8734
   47MOL0     C 6392   9.316   7.007   7.685  0.5261  0.4232 -0.8237
   47MOL0    Cl 6393   9.406   6.913   7.559 -0.6272 -0.1036 -0.0211
   47MOL0     C 6394   9.220   6.597   8.399  1.5156  0.3628  0.1525
   47MOL0     C 6395   9.175   6.671   8.497  1.1667 -0.4950 -0.3981
   47MOL0     O 6396   9.211   6.535   8.833 -0.4019 -0.6243  0.9677
   47MOL0     C 6397   9.086   6.641   9.066  1.0649 -0.3788  0.0156
   47MOL0     C 6398   9.051   6.692   9.187 -0.4177  1.1046  0.7682
   47MOL0     N 6399   8.431   6.979   9.663 -0.0501  0.6555  0.3127
   47MOL0     N 6400   8.386   7.076   9.728 -0.9494 -0.8224 -0.5177
   47MOL0     C 6401   8.197   6.663  10.730 -0.5086  1.5745 -0.1563
   47MOL0     C 6402   8.207   6.547  10.807 -0.6531 -0.0408  0.5157
   47MOL0     C 6403   8.225   6.068  10.852  0.3311 -0.2728 -0.2610
   47MOL0     C 6404   8.297   6.093  10.971 -0.7676  0.1068  0.8144
   47MOL0     C 6405   8.360   5.987  11.028 -0.5416  1.6328  0.4867
   47MOL0     C 6406   8.338   5.850  10.984 -0.3980 -0.4590  0.0118
   47MOL0     O 6407   8.393   5.741  11.042  0.4149 -0.0641  0.4789
   47MOL0     C 6408   8.491   5.749  11.152  0.5266  1.3123  0.1772
   47MOL0     C 6409   8.619   5.780  11.090  0.0740 -0.1887 -0.3217
   47MOL0     C 6410   8.699   5.659  11.039 -0.7121 -0.5804  0.2615
   47MOL0     C 6411   8.651   5.607  10.908 -0.3020 -1.1725 -0.0016
   47MOL0     C 6412   8.755   5.501  10.882  0.0708 -0.2837 -0.3828
   47MOL0     C 6413   8.825   5.403  10.866  0.5506 -0.1845  0.0881
   47MOL0     C 6414   8.259   5.834  10.869 -0.6723 -0.0065  0.4297
   47MOL0     C 6415   8.208   5.936  10.797 -0.1417 -0.5764  0.0497
   47MOL0     C 6416   8.144   5.905  10.664 -0.0969  0.0861  1.3842
   47MOL0     H 6417   8.302   6.320  10.577 -0.0587 -1.0422  1.9653
   47MOL0     H 6418   8.282   6.526  10.430 -1.3596  2.4103 -0.3916
   47MOL0     H 6419   8.154   6.923  10.625  2.1092 -2.0010  1.1278
   47MOL0     H 6420   8.034   6.820  10.582  0.0908 -0.2975 -0.0270
   47MOL0     H 6421   8.113   6.876  10.337  4.0580  0.7571 -0.5335
   47MOL0     H 6422   8.031   7.017  10.428  2.4304  2.4355  0.1217
   47MOL0     H 6423   8.236   7.103  10.485 -0.5475 -1.5970  0.5575
   47MOL0     H 6424   8.321   6.971  10.408  1.6875  1.7325 -5.0266
   47MOL0     H 6425   8.190   7.040  10.192 -1.9793 -0.5420  1.0382
   47MOL0     H 6426   8.184   7.200  10.271  0.2472 -0.0526  2.2234
   47MOL0     H 6427   8.456   7.100  10.246 -1.2939 -0.1261  2.4494
   47MOL0     H 6428   8.389   7.257  10.267 -2.3958  0.0247 -1.0577
   47MOL0     H 6429   8.356   7.071  10.026  3.8839 -0.2946  2.3726
   47MOL0     H 6430   8.277   7.238  10.031  0.5394  0.3757 -3.6455
   47MOL0     H 6431   8.575   7.170  10.011  1.2899  1.5597 -1.9289
   47MOL0     H 6432   8.510   7.335  10.057  1.2066 -1.2501  2.5127
   47MOL0     H 6433   8.389   7.315   9.822 -0.4878 -0.2140  0.0356
   47MOL0     H 6434   8.564   7.335   9.831 -1.8043  2.0001  0.6763
   47MOL0     H 6435   8.706   7.117   9.760 -1.4749  0.6293  2.8801
   47MOL0     H 6436   8.589   6.830   9.506 -2.7029  2.8916 -0.1695
   47MOL0     H 6437   8.691   6.805   9.651 -0.4949 -0.8089 -0.4727
   47MOL0     H 6438   8.711   7.024   9.425 -0.4149  0.8685  1.1944
   47MOL0     H 6439   8.793   7.049   9.566 -1.5913  2.3727 -2.0645
   47MOL0     H 6440   8.920   6.841   9.545  1.2292 -1.2657 -0.8935
   47MOL0     H 6441   8.835   6.785   9.402  1.1934 -1.6732  1.8695
   47MOL0     H 6442   8.910   6.974   9.272 -1.9569  0.6618  0.0131
   47MOL0     H 6443   8.992   7.034   9.432 -1.5912 -1.4192  2.2998
   47MOL0     H 6444   9.103   7.013   9.108  1.3113  0.2246 -0.2451
   47MOL0     H 6445   9.081   6.956   8.789  0.7454 -0.2659  0.2438
   47MOL0     H 6446   9.241   6.898   8.792  1.9250  0.2167  0.1942
   47MOL0     H 6447   9.193   7.043   8.900 -2.7746 -0.5613  2.5430
   47MOL0     H 6448   9.004   6.419   8.671  2.8332  0.6065  1.3915
   47MOL0     H 6449   9.039   6.315   8.433  0.7833 -0.3432  0.3825
   47MOL0     H 6450   9.030   6.305   8.180  0.9409 -1.1542 -0.6020
   47MOL0     H 6451   9.016   6.488   8.191 -1.4371 -0.0705  0.8295
   47MOL0     H 6452   9.219   6.336   8.005 -1.1092 -0.2265 -0.4897
   47MOL0     H 6453   9.050   6.374   7.968 -0.9541  0.8475  1.1693
   47MOL0     H 6454   9.208   6.535   7.868 -3.2591 -0.3034 -1.0316
   47MOL0     H 6455   9.302   6.542   8.022  0.0170 -1.4817 -0.3950
   47MOL0     H 6456   9.147   6.714   8.089  0.3022  3.9422 -3.0472
   47MOL0     H 6457   9.006   6.625   8.029 -1.1939  1.9616 -1.1712
   47MOL0     H 6458   9.020   6.727   7.820 -2.4879  1.5753  2.2129
   47MOL0     H 6459   9.028   6.855   7.932  2.3332  2.4100 -0.8004
   47MOL0     H 6460   9.280   6.754   7.794  0.0535  1.3807 -2.1678
   47MOL0     H 6461   9.270   6.875   7.926  0.5860  0.0101 -2.0018
   47MOL0     H 6462   9.132   7.024   7.794  1.0054  1.9223 -1.2075
   47MOL0     H 6463   9.127   6.914   7.662  1.4214  3.5845 -1.3766
   47MOL0     H 6464   9.385   7.027   7.768 -0.1712  1.7584 -0.5393
   47MOL0     H 6465   9.275   7.097   7.638  2.1562  1.6079 -0.0907
   47MOL0     H 6466   9.298   6.637   8.334 -0.3307  4.8501  0.3255
   47MOL0     H 6467   9.219   6.770   8.502  1.9138 -0.8650  0.6884
   47MOL0     H 6468   9.074   6.535   9.046  0.1705 -0.6420  1.7049
   47MOL0     H 6469   9.030   6.618   9.263 -0.5931 -0.3836 -0.6728
   47MOL0     H 6470   8.185   6.763  10.773  1.3173  0.6867  2.7116
   47MOL0     H 6471   8.191   6.547  10.915 -4.0128 -4.2446  0.2834
   47MOL0     H 6472   8.308   6.193  11.013 -2.3071  0.6152  0.0803
   47MOL0     H 6473   8.427   5.992  11.113 -0.6006 -3.7116  1.2098
   47MOL0     H 6474   8.460   5.826  11.223 -2.1192 -0.0365  0.6038
   47MOL0     H 6475   8.497   5.655  11.208 -1.7864  2.4466  2.5325
   47MOL0     H 6476   8.676   5.839  11.162 -0.4610  0.4808 -0.4329
   47MOL0     H 6477   8.608   5.843  11.001 -0.6771  0.9015  0.5193
   47MOL0     H 6478   8.802   5.697  11.032 -0.0315 -2.2966  0.2534
   47MOL0     H 6479   8.694   5.577  11.112 -0.4524  1.2797  2.4651
   47MOL0     H 6480   8.656   5.675  10.823  0.1150 -2.8787 -1.3985
   47MOL0     H 6481   8.552   5.561  10.919  0.8273 -3.9819 -0.6271
   47MOL0     H 6482   8.879   5.315  10.838 -1.9751 -0.7075 -4.1101
   47MOL0     H 6483   8.255   5.734  10.827 -2.4270 -0.1394  0.8413
   47MOL0     H 6484   8.195   5.936  10.572 -2.0021 -2.1233 -0.5463
   47MOL0     H 6485   8.133   5.798  10.644  3.2924 -0.7686  3.2486
   47MOL0     H 6486   8.049   5.956  10.645 -0.9016 -2.5666 -3.0503
   48MOL0     O 6487   2.837  10.052   2.849 -0.2328  0.3326 -0.2351
   48MOL0     C 6488   2.737   9.992   2.884  0.2214 -0.1418 -0.4258
   48MOL0     O 6489   2.723   9.857   2.900 -0.0271 -0.3667  0.0047
   48MOL0     C 6490   2.814   9.777   2.851 -1.1429  0.9097 -0.3192
   48MOL0     C 6491   2.901   9.719   2.946  0.2849 -0.7942  1.0097
   48MOL0     C 6492   2.998   9.634   2.891 -0.3218  0.3133  0.6580
   48MOL0     C 6493   3.002   9.602   2.752 -0.1366  0.0686 -0.0519
   48MOL0     O 6494   3.102   9.522   2.702  0.4597  0.0421  0.0505
   48MOL0     C 6495   3.137   9.408   2.779 -0.0632  0.6305 -0.2711
   48MOL0     C 6496   3.171   9.288   2.685 -0.3740 -0.0005  0.7833
   48MOL0     C 6497   3.232   9.336   2.551 -0.0976 -0.3522 -1.1299
   48MOL0     C 6498   3.258   9.213   2.457 -0.4750  0.2707  0.0005
   48MOL0     C 6499   3.300   9.250   2.315 -0.5397  0.8185  0.1471
   48MOL0     C 6500   3.338   9.121   2.236 -0.2769 -0.2917 -0.2786
   48MOL0     C 6501   3.386   9.149   2.094 -0.3023  0.2629 -0.5329
   48MOL0     C 6502   3.408   9.027   2.002  0.2601 -0.6088  0.3073
   48MOL0     N 6503   3.403   9.077   1.861 -0.3779  1.0912 -0.3267
   48MOL0     C 6504   3.298   9.133   1.787  0.8439 -0.2541 -0.0928
   48MOL0     C 6505   3.337   9.135   1.656  0.5541 -0.2592  0.9165
   48MOL0     C 6506   3.258   9.178   1.538 -0.4902 -0.6358 -0.6864
   48MOL0     C 6507   3.176   9.053   1.487  1.6427  0.6507  0.2836
   48MOL0     C 6508   3.264   8.944   1.427  0.8940  0.3596  0.1049
   48MOL0     C 6509   3.364   8.986   1.324  0.5049 -0.8918  1.3629
   48MOL0     O 6510   3.433   8.874   1.267 -0.1619  0.5828  0.0738
   48MOL0     C 6511   3.550   8.826   1.327 -0.8396 -0.4933  0.2773
   48MOL0     C 6512   3.635   8.749   1.248 -1.3481 -0.8268 -0.0993
   48MOL0     C 6513   3.776   8.717   1.281  0.2711 -0.7121 -1.5023
   48MOL0     C 6514   3.855   8.648   1.174 -0.7361 -0.2606 -0.0444
   48MOL0     C 6515   3.825   8.750   1.412 -1.5309  0.6709  0.5964
   48MOL0     C 6516   3.966   8.716   1.451  0.5915  0.0985  0.4921
   48MOL0     O 6517   4.025   8.610   1.388  0.1130 -0.2972 -0.2421
   48MOL0     C 6518   4.150   8.565   1.429  0.3529  0.4438 -1.1980
   48MOL0     C 6519   4.166   8.495   1.547 -0.0504  0.2278 -0.5046
   48MOL0     C 6520   4.291   8.434   1.579  0.3635 -0.0693 -0.1642
   48MOL0     C 6521   4.398   8.445   1.489 -1.4776 -0.6416  0.2706
   48MOL0     O 6522   4.512   8.369   1.524  0.4951 -0.4931  0.3474
   48MOL0     C 6523   4.620   8.360   1.436  0.6429 -0.2976 -0.2440
   48MOL0     C 6524   4.736   8.452   1.478  0.3767  0.1360  0.3916
   48MOL0     C 6525   4.878   8.393   1.476 -0.6607 -0.6821  0.0261
   48MOL0     C 6526   4.993   8.497   1.498  0.5970 -0.7637 -0.0777
   48MOL0     C 6527   5.127   8.429   1.506  0.1217 -0.0098 -0.0955
   48MOL0     C 6528   5.240   8.520   1.525 -1.0808  1.0009 -1.2486
   48MOL0     C 6529   5.333   8.503   1.420  0.0984  0.9382 -0.0598
   48MOL0     C 6530   5.469   8.580   1.433  0.2729 -0.1882 -1.3411
   48MOL0    Cl 6531   5.570   8.509   1.562  0.4791 -0.2176 -0.4327
   48MOL0     C 6532   4.374   8.512   1.363  0.0261  0.3901 -0.1612
   48MOL0     C 6533   4.249   8.564   1.333 -0.5728 -0.2339 -0.1446
   48MOL0     O 6534   4.021   8.775   1.539 -1.0909  0.2136 -0.9289
   48MOL0     C 6535   3.742   8.821   1.489  1.1300  0.0075  0.1987
   48MOL0     C 6536   3.604   8.850   1.453 -0.7871  1.0456 -0.2449
   48MOL0     N 6537   3.472   9.107   1.653 -0.5729  0.5560  0.8815
   48MOL0     N 6538   3.504   9.065   1.770 -0.2580  0.1631 -0.4455
   48MOL0     C 6539   2.907   9.667   2.669  0.4787  1.0066  0.3879
   48MOL0     C 6540   2.813   9.755   2.717 -0.6242 -0.3799  1.3746
   48MOL0     C 6541   2.630  10.085   2.938 -0.0506 -0.7244  0.4875
   48MOL0     C 6542   2.664  10.214   2.982  1.1749 -0.0092  0.9416
   48MOL0     C 6543   2.575  10.311   3.026 -0.3200  0.7775 -1.3454
   48MOL0     C 6544   2.439  10.280   3.047 -0.5606 -0.0635 -0.0918
   48MOL0     O 6545   2.366  10.381   3.109 -0.1982 -0.2590  0.6996
   48MOL0     C 6546   2.236  10.342   3.154 -0.7596 -0.0176  0.0188
   48MOL0     C 6547   2.130  10.373   3.044 -0.4905 -0.2406  0.3758
   48MOL0     C 6548   2.061  10.506   3.038  0.3165  0.0095 -1.1282
   48MOL0     C 6549   1.943  10.495   2.931 -1.0672 -0.5992 -0.6990
   48MOL0     C 6550   1.993  10.478   2.791 -0.1977 -0.7098 -0.1095
   48MOL0     C 6551   2.015  10.472   2.674 -0.7285  0.2343  0.9202
   48MOL0     C 6552   2.397  10.149   2.993 -0.5205 -0.3053 -1.0086
   48MOL0     C 6553   2.491  10.052   2.935 -0.1977  0.1303  0.3225
   48MOL0     C 6554   2.436   9.928   2.860 -0.0719  0.0144  0.0381
   48MOL0     H 6555   2.905   9.738   3.053 -0.6401 -0.7403  1.0459
   48MOL0     H 6556   3.059   9.591   2.970 -1.1399  0.2126  1.2520
   48MOL0     H 6557   3.056   9.382   2.847 -2.0172  3.0851 -1.4827
   48MOL0     H 6558   3.218   9.443   2.843 -1.0759 -0.4781  1.6954
   48MOL0     H 6559   3.247   9.242   2.748  1.1927  0.6477 -0.5445
   48MOL0     H 6560   3.094   9.212   2.674 -1.1344  0.2793  3.4904
   48MOL0     H 6561   3.175   9.418   2.506  0.6894  1.0630  0.3039
   48MOL0     H 6562   3.332   9.380   2.567 -0.3863 -0.1820  0.4146
   48MOL0     H 6563   3.335   9.143   2.492  0.8061  0.6968 -1.8108
   48MOL0     H 6564   3.164   9.158   2.448 -0.5366  0.5589 -1.3382
   48MOL0     H 6565   3.385   9.319   2.310 -1.0500  1.4911  0.6130
   48MOL0     H 6566   3.219   9.311   2.274 -1.5055 -0.4842  0.0641
   48MOL0     H 6567   3.404   9.062   2.299  0.5063  0.5625 -0.2728
   48MOL0     H 6568   3.249   9.058   2.224 -3.0191  3.3871 -1.4450
   48MOL0     H 6569   3.469   9.220   2.096  0.0509 -0.0203 -2.9170
   48MOL0     H 6570   3.310   9.211   2.046 -0.7550  0.9646  1.0212
   48MOL0     H 6571   3.491   8.962   2.029  1.3956  1.5315  2.2969
   48MOL0     H 6572   3.320   8.962   2.015 -0.1369 -0.9347 -3.0833
   48MOL0     H 6573   3.206   9.174   1.827  1.1240  1.4279 -1.0709
   48MOL0     H 6574   3.324   9.226   1.465  0.9719  4.8999  3.5863
   48MOL0     H 6575   3.186   9.256   1.567 -2.4597 -3.1627  1.8160
   48MOL0     H 6576   3.107   9.006   1.558  1.1344  1.1337  0.1222
   48MOL0     H 6577   3.106   9.089   1.411 -2.3345 -3.2190  1.6473
   48MOL0     H 6578   3.308   8.893   1.514 -0.4827  0.2624  0.7649
   48MOL0     H 6579   3.209   8.866   1.374  2.5514  0.2973 -1.6405
   48MOL0     H 6580   3.317   9.051   1.249 -0.5362 -0.2189  2.5571
   48MOL0     H 6581   3.433   9.049   1.381  1.3099 -3.2445  3.1231
   48MOL0     H 6582   3.592   8.715   1.154 -0.3630 -2.4193 -0.0071
   48MOL0     H 6583   3.890   8.549   1.205  0.3048  0.2816  0.5719
   48MOL0     H 6584   3.946   8.707   1.158 -0.3958  0.5457  3.7000
   48MOL0     H 6585   3.795   8.635   1.084 -0.5200 -1.4670 -0.0320
   48MOL0     H 6586   4.073   8.491   1.604 -1.9125  2.1288 -3.1801
   48MOL0     H 6587   4.300   8.367   1.663 -1.5109 -3.3025 -2.3349
   48MOL0     H 6588   4.639   8.252   1.445 -3.7913 -1.1933  1.1018
   48MOL0     H 6589   4.590   8.371   1.332  1.1274  0.8394 -0.2708
   48MOL0     H 6590   4.737   8.544   1.419 -1.2966  0.6104  1.0481
   48MOL0     H 6591   4.715   8.493   1.577  0.5945  2.2370 -0.3923
   48MOL0     H 6592   4.891   8.355   1.374  1.2230  2.6615 -1.1341
   48MOL0     H 6593   4.869   8.315   1.552 -0.7714 -1.1065 -0.4155
   48MOL0     H 6594   4.969   8.557   1.587  0.2517  3.0862 -2.5380
   48MOL0     H 6595   4.994   8.568   1.415 -2.3463 -0.0320  0.3787
   48MOL0     H 6596   5.129   8.353   1.585  5.5573 -0.7420 -0.5478
   48MOL0     H 6597   5.129   8.371   1.413  0.8323  0.2130 -0.2246
   48MOL0     H 6598   5.293   8.522   1.621  3.3157  0.9594 -3.4461
   48MOL0     H 6599   5.202   8.621   1.506 -1.8105  1.5660  2.3985
   48MOL0     H 6600   5.279   8.520   1.326 -0.1261 -3.3523 -0.9221
   48MOL0     H 6601   5.364   8.398   1.427  0.4351  1.0381 -0.0309
   48MOL0     H 6602   5.463   8.684   1.468  4.6498 -0.6355  1.5921
   48MOL0     H 6603   5.530   8.582   1.342  1.2206  1.9222 -0.7388
   48MOL0     H 6604   4.451   8.530   1.288 -0.3417  1.4347 -0.2950
   48MOL0     H 6605   4.237   8.621   1.241  3.6315 -0.4945 -1.0651
   48MOL0     H 6606   3.780   8.862   1.582  1.0187 -1.9373  1.1584
   48MOL0     H 6607   3.545   8.904   1.526 -0.4132 -1.3799  1.9788
   48MOL0     H 6608   2.910   9.645   2.563 -1.5457  0.6876  0.3587
   48MOL0     H 6609   2.746   9.799   2.644  2.8653 -2.1517 -3.4614
   48MOL0     H 6610   2.771  10.233   2.986  1.1251  1.9137 -2.5542
   48MOL0     H 6611   2.614  10.403   3.068 -1.1471 -0.5587  2.9379
   48MOL0     H 6612   2.233  10.235   3.172  3.7907 -0.1056  1.6503
   48MOL0     H 6613   2.214  10.401   3.244 -3.7183 -0.6045 -0.2301
   48MOL0     H 6614   2.052  10.296   3.050 -0.1982 -0.6065 -0.3805
   48MOL0     H 6615   2.177  10.349   2.949 -0.1369  0.0266  0.4842
   48MOL0     H 6616   2.012  10.531   3.133 -0.0458  0.1876 -1.3627
   48MOL0     H 6617   2.134  10.581   3.008 -0.1428 -0.8629 -4.8666
   48MOL0     H 6618   1.865  10.571   2.924 -2.0001 -1.5878 -1.1840
   48MOL0     H 6619   1.885  10.409   2.966 -1.5851  0.6949  1.8974
   48MOL0     H 6620   2.035  10.490   2.570  0.2553  1.0210  1.2235
   48MOL0     H 6621   2.290  10.134   2.993 -0.3897 -1.3599 -0.7917
   48MOL0     H 6622   2.327   9.936   2.862 -0.3155 -1.8160 -2.4311
   48MOL0     H 6623   2.478   9.916   2.760 -2.2537  0.1679 -0.9473
   48MOL0     H 6624   2.463   9.840   2.919 -1.7455  0.0126  0.8557
   49MOL0     O 6625   7.676   7.112   6.563  0.1572  0.1416  0.2516
   49MOL0     C 6626   7.756   7.096   6.659  0.1279  0.8147  0.1935
   49MOL0     O 6627   7.793   7.188   6.746 -0.4932 -0.2254  0.2924
   49MOL0     C 6628   7.707   7.294   6.762 -0.5873  0.3143  0.3654
   49MOL0     C 6629   7.750   7.413   6.796 -1.2357 -0.0071  0.2052
   49MOL0     C 6630   7.677   7.526   6.822 -0.6315  0.6985  0.2775
   49MOL0     C 6631   7.543   7.508   6.848 -1.0263 -0.8229  0.7798
   49MOL0     O 6632   7.470   7.620   6.898  0.0375  0.1139 -0.1754
   49MOL0     C 6633   7.337   7.610   6.926  0.1841 -1.4035  0.1554
   49MOL0     C 6634   7.290   7.744   6.992 -0.1405  0.2816 -0.4983
   49MOL0     C 6635   7.374   7.781   7.116  0.5992 -0.7755 -0.0485
   49MOL0     C 6636   7.289   7.793   7.237 -1.3999  0.1752  0.3097
   49MOL0     C 6637   7.255   7.649   7.289  0.0146  0.0041 -0.1807
   49MOL0     C 6638   7.264   7.636   7.438  1.2662 -0.2444  0.3714
   49MOL0     C 6639   7.138   7.696   7.503  0.2859  0.5255 -0.1877
   49MOL0     C 6640   7.147   7.681   7.655 -0.5826  0.9342 -0.6709
   49MOL0     N 6641   7.248   7.767   7.726 -0.3349 -0.2608  1.1630
   49MOL0     C 6642   7.312   7.722   7.836  0.4683  0.1848  0.0644
   49MOL0     C 6643   7.374   7.841   7.882  0.0920  0.7982  0.3963
   49MOL0     C 6644   7.443   7.849   8.012 -0.2494 -0.4193  0.1572
   49MOL0     C 6645   7.533   7.715   8.027 -0.0660  0.7816 -0.5730
   49MOL0     C 6646   7.653   7.718   8.132 -0.4959 -0.8895 -1.1068
   49MOL0     C 6647   7.618   7.773   8.267  0.5343  0.2419 -0.0260
   49MOL0     O 6648   7.735   7.761   8.354  0.0299 -0.3245  0.0789
   49MOL0     C 6649   7.707   7.697   8.470  0.1368  0.6172  0.6235
   49MOL0     C 6650   7.617   7.743   8.571 -0.5775 -0.4227  0.6461
   49MOL0     C 6651   7.619   7.689   8.707  0.1110  0.1796  0.4310
   49MOL0     C 6652   7.549   7.754   8.819 -0.3040  0.1426 -0.0518
   49MOL0     C 6653   7.695   7.565   8.736  1.5019 -0.8198 -0.3709
   49MOL0     C 6654   7.700   7.508   8.872 -0.2635  0.2164 -0.5043
   49MOL0     O 6655   7.730   7.384   8.869 -0.7600 -0.2204  0.2082
   49MOL0     C 6656   7.762   7.317   8.985 -0.2843 -1.0544  0.1674
   49MOL0     C 6657   7.666   7.292   9.086 -0.0156 -0.3245  0.0254
   49MOL0     C 6658   7.705   7.217   9.194 -0.5254  0.4946 -0.1370
   49MOL0     C 6659   7.830   7.169   9.203  0.5431  0.9054  0.5975
   49MOL0     O 6660   7.850   7.086   9.312 -0.7077 -0.6072 -0.0864
   49MOL0     C 6661   7.840   7.146   9.440 -0.2221  0.2481 -0.5374
   49MOL0     C 6662   7.867   7.037   9.544 -0.7783 -0.2424  0.1586
   49MOL0     C 6663   7.860   7.079   9.691  1.0006  0.5531  1.1991
   49MOL0     C 6664   7.722   7.076   9.758  0.1040 -0.1778  0.5399
   49MOL0     C 6665   7.726   7.101   9.905  1.0619  0.2051 -0.4282
   49MOL0     C 6666   7.767   6.982   9.983 -0.5161 -0.1753  0.2873
   49MOL0     C 6667   7.646   6.896  10.030 -0.1016  0.1710  0.1234
   49MOL0     C 6668   7.710   6.750  10.047  0.0900  0.3703  0.1900
   49MOL0    Cl 6669   7.599   6.644  10.123 -0.2480  0.2973  0.4534
   49MOL0     C 6670   7.919   7.177   9.095  0.3318 -0.0539  0.3064
   49MOL0     C 6671   7.888   7.260   8.988 -0.5997  0.6540  0.4071
   49MOL0     O 6672   7.694   7.574   8.973 -1.1988 -0.3561 -0.2031
   49MOL0     C 6673   7.772   7.509   8.630  0.0359  0.0936  0.0497
   49MOL0     C 6674   7.781   7.578   8.505  0.8804  0.1781  0.2086
   49MOL0     N 6675   7.343   7.948   7.793  0.2413 -0.3495 -0.0490
   49MOL0     N 6676   7.270   7.899   7.692  0.0071  0.2145 -0.2604
   49MOL0     C 6677   7.488   7.383   6.809 -0.4991  0.1010  0.1243
   49MOL0     C 6678   7.564   7.279   6.763  0.8203  1.2683 -0.2560
   49MOL0     C 6679   7.830   6.972   6.679 -0.4105 -0.4268  0.4905
   49MOL0     C 6680   7.895   6.901   6.575  0.7524  0.1125  0.2643
   49MOL0     C 6681   7.968   6.780   6.599  0.4279 -0.5143 -0.1370
   49MOL0     C 6682   7.979   6.741   6.737  0.0810  0.9614  1.1550
   49MOL0     O 6683   8.059   6.637   6.749 -0.3361  0.3296  0.8179
   49MOL0     C 6684   8.038   6.535   6.853 -0.1386 -1.0430  0.3633
   49MOL0     C 6685   8.128   6.567   6.976  0.2433 -0.7065 -0.2571
   49MOL0     C 6686   8.264   6.511   6.961 -0.0381 -0.3984 -0.3637
   49MOL0     C 6687   8.376   6.586   7.027 -0.7921 -1.0060 -0.5588
   49MOL0     C 6688   8.394   6.733   7.000 -0.1364 -0.1061 -0.5056
   49MOL0     C 6689   8.411   6.850   6.984 -0.5089 -0.5442 -0.9905
   49MOL0     C 6690   7.919   6.805   6.838 -0.3160  0.4282 -0.0151
   49MOL0     C 6691   7.842   6.915   6.814 -0.2748 -0.9877  0.2316
   49MOL0     C 6692   7.767   6.960   6.942  0.6893 -0.5896 -0.4111
   49MOL0     H 6693   7.857   7.431   6.792 -1.8343  4.4753 -1.0667
   49MOL0     H 6694   7.727   7.622   6.829  2.7210 -0.7951 -0.9288
   49MOL0     H 6695   7.308   7.524   6.988 -3.0111 -1.5661 -1.3516
   49MOL0     H 6696   7.285   7.606   6.829  1.4419 -3.8250 -0.5212
   49MOL0     H 6697   7.298   7.825   6.919  4.6665  0.8380  0.2688
   49MOL0     H 6698   7.187   7.738   7.027  0.1749 -0.2042  0.3781
   49MOL0     H 6699   7.460   7.721   7.149  1.3899  0.4655  0.2265
   49MOL0     H 6700   7.414   7.880   7.095 -2.5495  0.4006 -1.0747
   49MOL0     H 6701   7.330   7.856   7.317 -0.6951 -2.5291  2.2168
   49MOL0     H 6702   7.202   7.853   7.208 -1.2100  0.3701  0.1380
   49MOL0     H 6703   7.332   7.582   7.250 -0.6490 -0.5568 -0.5617
   49MOL0     H 6704   7.158   7.612   7.255  0.8656 -1.8184 -0.7356
   49MOL0     H 6705   7.269   7.529   7.463 -2.3202 -0.8451 -0.9244
   49MOL0     H 6706   7.356   7.675   7.482  0.0393  0.9383  2.0480
   49MOL0     H 6707   7.048   7.642   7.474 -1.0486  1.2615  2.2603
   49MOL0     H 6708   7.122   7.802   7.484 -0.8257  1.2681  3.9171
   49MOL0     H 6709   7.046   7.703   7.691 -0.8294 -0.8069 -0.1883
   49MOL0     H 6710   7.160   7.575   7.681 -0.2487  0.7255 -1.6466
   49MOL0     H 6711   7.306   7.627   7.888 -1.0301  0.6073  0.7331
   49MOL0     H 6712   7.371   7.842   8.095  0.3247  0.5672  0.7610
   49MOL0     H 6713   7.502   7.940   8.020  1.5006 -1.3738 -1.3376
   49MOL0     H 6714   7.466   7.641   8.070 -1.2281  1.9335 -0.3274
   49MOL0     H 6715   7.584   7.684   7.935  2.3316 -0.1544  0.9866
   49MOL0     H 6716   7.685   7.614   8.144 -2.7400 -1.5748 -0.5298
   49MOL0     H 6717   7.735   7.778   8.091 -0.0162  0.6300  1.8029
   49MOL0     H 6718   7.600   7.881   8.264 -1.8615  0.0878  3.3389
   49MOL0     H 6719   7.526   7.733   8.311 -0.3175 -0.1271 -2.0280
   49MOL0     H 6720   7.567   7.837   8.552  3.2401  1.5400 -0.8284
   49MOL0     H 6721   7.625   7.779   8.894 -0.8925  0.4574  0.4520
   49MOL0     H 6722   7.479   7.680   8.858 -0.2971  1.0969  1.9031
   49MOL0     H 6723   7.493   7.840   8.782  2.6972  1.9753 -0.6782
   49MOL0     H 6724   7.564   7.330   9.091 -0.6733 -1.8228 -1.3369
   49MOL0     H 6725   7.629   7.194   9.268 -0.1232 -3.2395 -0.7042
   49MOL0     H 6726   7.917   7.222   9.453 -1.1994  1.9714 -3.7516
   49MOL0     H 6727   7.745   7.198   9.459  0.9804  2.2050  0.3609
   49MOL0     H 6728   7.806   6.951   9.516  4.2785 -5.4032  2.9619
   49MOL0     H 6729   7.971   7.003   9.539 -0.6389  0.0584  0.9538
   49MOL0     H 6730   7.898   7.181   9.701  1.5956  0.8917 -2.7391
   49MOL0     H 6731   7.937   7.021   9.742  0.9469 -0.2370  0.4125
   49MOL0     H 6732   7.665   6.985   9.737 -0.9519  0.4926  0.4469
   49MOL0     H 6733   7.690   7.167   9.707  0.6652 -1.0985 -1.5873
   49MOL0     H 6734   7.792   7.181   9.940  0.5830 -0.1578  1.4225
   49MOL0     H 6735   7.625   7.132   9.931  1.0291  1.2368 -1.6888
   49MOL0     H 6736   7.816   7.021  10.073  0.3080 -0.0453 -0.2168
   49MOL0     H 6737   7.835   6.919   9.924  2.7233  2.2271  1.1811
   49MOL0     H 6738   7.572   6.889   9.950  1.5063  1.6177 -1.5807
   49MOL0     H 6739   7.593   6.934  10.118 -2.4655 -0.7347 -0.8523
   49MOL0     H 6740   7.796   6.754  10.115 -0.4214 -0.9680  0.9421
   49MOL0     H 6741   7.758   6.700   9.962  0.2358 -2.6946  1.9271
   49MOL0     H 6742   8.010   7.120   9.088 -0.5618 -1.6216  0.9843
   49MOL0     H 6743   7.955   7.261   8.902 -0.6760  0.4004  0.3432
   49MOL0     H 6744   7.830   7.417   8.639  1.1008  0.8026  0.6481
   49MOL0     H 6745   7.852   7.546   8.430  1.6330  1.1227  0.5126
   49MOL0     H 6746   7.382   7.368   6.828 -0.1894 -1.0232  1.0346
   49MOL0     H 6747   7.508   7.191   6.736 -2.1550  2.1277  2.4373
   49MOL0     H 6748   7.876   6.940   6.475  2.4984  1.5369  0.4304
   49MOL0     H 6749   8.004   6.713   6.523 -0.1081 -1.6684  0.5951
   49MOL0     H 6750   7.932   6.535   6.882  0.3414 -1.0470  2.2708
   49MOL0     H 6751   8.068   6.433   6.829  0.5427 -1.4303  2.6087
   49MOL0     H 6752   8.085   6.539   7.073  0.1882  1.4942  0.3929
   49MOL0     H 6753   8.150   6.674   6.974 -2.3092 -0.0963 -2.7960
   49MOL0     H 6754   8.262   6.405   6.989 -0.2230 -0.2947  0.0217
   49MOL0     H 6755   8.283   6.527   6.854 -3.5777  1.4618 -0.8621
   49MOL0     H 6756   8.469   6.540   6.994 -0.1829 -0.2947  0.1065
   49MOL0     H 6757   8.366   6.579   7.136 -0.0628  1.0536 -0.3035
   49MOL0     H 6758   8.434   6.955   6.985  2.2705 -1.0655  0.8309
   49MOL0     H 6759   7.939   6.765   6.937 -0.8875  1.9576  0.7675
   49MOL0     H 6760   7.824   7.024   7.010 -2.3538  0.3020  1.4856
   49MOL0     H 6761   7.679   7.016   6.910 -1.6847 -1.9684  3.0080
   49MOL0     H 6762   7.726   6.874   6.997  0.0562 -0.8679 -1.3064
   50MOL0     O 6763   1.534  10.908   6.947  0.3817 -0.1024  0.5038
   50MOL0     C 6764   1.597  10.862   6.850  0.0406 -0.3307  0.6323
   50MOL0     O 6765   1.648  10.938   6.748 -0.8750 -0.0149 -0.0788
   50MOL0     C 6766   1.683  11.065   6.783  0.4183  0.5597 -0.3938
   50MOL0     C 6767   1.610  11.169   6.734  0.7475 -0.6259  0.2671
   50MOL0     C 6768   1.649  11.306   6.756  0.3686  0.4842 -0.6251
   50MOL0     C 6769   1.768  11.328   6.823 -0.4784  0.1532  0.5666
   50MOL0     O 6770   1.844  11.446   6.822  0.1415  0.3995  0.0911
   50MOL0     C 6771   1.801  11.561   6.749 -0.6517  0.0006  0.5712
   50MOL0     C 6772   1.832  11.560   6.594 -0.4809 -0.4724  0.7546
   50MOL0     C 6773   1.974  11.537   6.543 -0.2754 -0.0626  0.4254
   50MOL0     C 6774   2.083  11.596   6.626 -0.7522  0.5559  0.6502
   50MOL0     C 6775   2.217  11.563   6.560 -0.5221  0.8273 -0.3205
   50MOL0     C 6776   2.250  11.411   6.539 -0.7606  0.2807 -0.6263
   50MOL0     C 6777   2.394  11.382   6.496 -0.3491  0.4136 -0.4200
   50MOL0     C 6778   2.492  11.380   6.608  0.1233  0.0860  0.6128
   50MOL0     N 6779   2.615  11.348   6.552 -0.8670  1.1499  0.4857
   50MOL0     C 6780   2.667  11.225   6.505  0.4423 -0.1852 -0.4037
   50MOL0     C 6781   2.776  11.249   6.431  0.2465 -1.0424 -0.4683
   50MOL0     C 6782   2.870  11.160   6.362  0.7018  0.0928  0.7818
   50MOL0     C 6783   2.801  11.080   6.238 -0.1979 -0.9339 -0.0373
   50MOL0     C 6784   2.900  11.072   6.119  0.9190 -0.1136 -0.6490
   50MOL0     C 6785   3.030  11.004   6.151  0.6290 -0.1129  0.3929
   50MOL0     O 6786   3.098  10.993   6.022  0.4221 -0.2030  0.3574
   50MOL0     C 6787   3.218  10.923   6.032 -0.4747  0.3731 -0.2310
   50MOL0     C 6788   3.332  10.973   6.101  0.7458 -0.8328 -1.3388
   50MOL0     C 6789   3.453  10.907   6.117  0.4479  0.2745 -0.2298
   50MOL0     C 6790   3.559  10.973   6.205 -0.1676 -0.0340  0.0006
   50MOL0     C 6791   3.466  10.783   6.052  0.8299  0.4002 -0.5917
   50MOL0     C 6792   3.588  10.692   6.069  0.0269 -0.8035  0.7617
   50MOL0     O 6793   3.559  10.549   6.075  0.4256 -0.2414  0.1898
   50MOL0     C 6794   3.669  10.472   6.112  0.0440 -0.0953 -0.0249
   50MOL0     C 6795   3.673  10.389   6.226 -0.3112  0.1548  0.4685
   50MOL0     C 6796   3.784  10.303   6.261 -0.0102  0.4826 -0.1768
   50MOL0     C 6797   3.898  10.300   6.183  0.0336  0.5002  0.1199
   50MOL0     O 6798   4.011  10.240   6.238  0.0490 -0.8776  0.4502
   50MOL0     C 6799   4.136  10.248   6.167 -0.9434  0.0595  0.3729
   50MOL0     C 6800   4.252  10.181   6.241  0.4876  0.4988 -0.2286
   50MOL0     C 6801   4.343  10.280   6.317  0.0721  0.4161 -0.1033
   50MOL0     C 6802   4.287  10.344   6.453  0.2685 -0.2235  0.4301
   50MOL0     C 6803   4.276  10.250   6.569 -0.5579  0.0635  0.6309
   50MOL0     C 6804   4.403  10.178   6.611 -0.9952 -0.0143 -0.1841
   50MOL0     C 6805   4.385  10.081   6.727 -0.3935  0.5932  0.1432
   50MOL0     C 6806   4.507   9.987   6.725 -1.4627  1.6685 -0.7502
   50MOL0    Cl 6807   4.540   9.946   6.900  0.2141  0.6150  0.1364
   50MOL0     C 6808   3.893  10.375   6.069  0.2983 -0.8329  0.5090
   50MOL0     C 6809   3.784  10.456   6.033 -0.5882 -0.2575  0.2163
   50MOL0     O 6810   3.696  10.750   6.076 -0.1585 -0.2363 -0.4607
   50MOL0     C 6811   3.357  10.736   5.985  0.5255  0.7246  0.0865
   50MOL0     C 6812   3.235  10.802   5.965  0.6499  0.2318 -0.5170
   50MOL0     N 6813   2.786  11.392   6.425 -0.4528  0.1123  0.5254
   50MOL0     N 6814   2.689  11.442   6.490  0.5818 -0.3690  0.3827
   50MOL0     C 6815   1.837  11.223   6.883  0.8484 -0.4297 -0.4916
   50MOL0     C 6816   1.793  11.094   6.867 -0.2100 -0.0875 -0.6312
   50MOL0     C 6817   1.611  10.724   6.824 -0.1018 -0.1378 -0.7170
   50MOL0     C 6818   1.535  10.668   6.715 -1.3983 -0.6275 -0.1429
   50MOL0     C 6819   1.565  10.529   6.687  0.1789 -0.0038 -0.1527
   50MOL0     C 6820   1.647  10.450   6.767  0.2855 -0.1315 -0.0074
   50MOL0     O 6821   1.673  10.314   6.737  0.2595  0.3431  1.0240
   50MOL0     C 6822   1.587  10.238   6.650 -0.2563  0.0649  0.2810
   50MOL0     C 6823   1.591  10.089   6.690 -0.3711  0.2645  0.0314
   50MOL0     C 6824   1.567   9.993   6.573  0.4497 -0.2841  0.4019
   50MOL0     C 6825   1.674   9.996   6.460  0.2433 -0.7454 -0.0414
   50MOL0     C 6826   1.820   9.994   6.493  0.5175 -1.0356 -0.4395
   50MOL0     C 6827   1.941  10.001   6.502 -0.3187  0.1353  0.1951
   50MOL0     C 6828   1.723  10.504   6.872  0.0419  0.6725  0.2009
   50MOL0     C 6829   1.694  10.639   6.906  0.4614 -0.1292 -0.6288
   50MOL0     C 6830   1.769  10.694   7.021  0.4068  0.8112 -0.3294
   50MOL0     H 6831   1.526  11.131   6.677 -0.4083 -2.2077  2.8090
   50MOL0     H 6832   1.586  11.378   6.704 -0.7237 -0.3997 -0.5565
   50MOL0     H 6833   1.856  11.650   6.782 -0.6893  0.5430 -0.7527
   50MOL0     H 6834   1.694  11.574   6.770 -0.7441  1.2753 -0.5078
   50MOL0     H 6835   1.762  11.495   6.541  0.4812  0.3430 -1.6318
   50MOL0     H 6836   1.813  11.661   6.556  1.0555 -1.1355 -2.0055
   50MOL0     H 6837   1.977  11.428   6.537 -1.0730 -0.0913  0.4358
   50MOL0     H 6838   1.976  11.577   6.441  0.3275 -0.0439  0.4436
   50MOL0     H 6839   2.078  11.706   6.628 -0.0757  0.5919  0.5434
   50MOL0     H 6840   2.094  11.569   6.731  2.2095  1.3364  0.6315
   50MOL0     H 6841   2.290  11.611   6.625 -1.3653  2.0777 -0.2731
   50MOL0     H 6842   2.246  11.606   6.463  2.2123 -1.8837 -0.8846
   50MOL0     H 6843   2.230  11.359   6.633  1.2378 -0.1465 -0.3952
   50MOL0     H 6844   2.183  11.370   6.463  0.0523 -1.3416 -0.5224
   50MOL0     H 6845   2.420  11.457   6.420 -0.5791  0.3507 -0.5611
   50MOL0     H 6846   2.402  11.285   6.447 -1.1226 -0.1327  0.5018
   50MOL0     H 6847   2.504  11.478   6.655  5.2453  0.4673 -0.8747
   50MOL0     H 6848   2.471  11.292   6.670  2.6349 -0.6281  0.5220
   50MOL0     H 6849   2.634  11.125   6.531 -1.8059  0.6303  0.1315
   50MOL0     H 6850   2.924  11.097   6.434  2.8357  1.8036  0.7817
   50MOL0     H 6851   2.928  11.237   6.310  0.5164  0.7622  1.5639
   50MOL0     H 6852   2.770  10.979   6.265 -1.1432 -0.2817  1.4598
   50MOL0     H 6853   2.718  11.129   6.188  2.7262  3.4640 -1.2135
   50MOL0     H 6854   2.850  11.020   6.037  2.0549 -0.1428 -1.3375
   50MOL0     H 6855   2.919  11.171   6.077 -0.1186  0.1579 -0.5230
   50MOL0     H 6856   3.089  11.063   6.221 -0.3160 -0.5805  1.6066
   50MOL0     H 6857   3.013  10.904   6.192  0.9396 -0.0034  0.7925
   50MOL0     H 6858   3.337  11.065   6.157 -0.1787 -1.5614 -0.0149
   50MOL0     H 6859   3.582  10.918   6.297 -0.3252  1.8367  1.1941
   50MOL0     H 6860   3.540  11.072   6.245  2.0524 -0.1928  1.6178
   50MOL0     H 6861   3.652  10.976   6.147 -0.7763 -1.1217 -1.0779
   50MOL0     H 6862   3.584  10.391   6.289 -0.1636 -2.6310  0.9031
   50MOL0     H 6863   3.780  10.255   6.358  2.1918  1.4355  0.4299
   50MOL0     H 6864   4.129  10.195   6.071 -0.8052 -0.6997  0.7787
   50MOL0     H 6865   4.155  10.355   6.155  1.5581 -0.2604  1.1109
   50MOL0     H 6866   4.223  10.091   6.296  1.4093  0.9887  1.1153
   50MOL0     H 6867   4.317  10.146   6.161  0.9967  0.2325  0.2992
   50MOL0     H 6868   4.362  10.369   6.256  1.8870 -0.1356 -0.4195
   50MOL0     H 6869   4.438  10.231   6.338 -0.6402 -0.1509  2.0824
   50MOL0     H 6870   4.196  10.398   6.424 -0.5175 -1.3953  0.6371
   50MOL0     H 6871   4.357  10.417   6.495  0.6275  0.0493 -0.5980
   50MOL0     H 6872   4.231  10.315   6.645  2.3312 -0.2933  2.8689
   50MOL0     H 6873   4.205  10.177   6.531 -0.4698  0.5790 -0.5508
   50MOL0     H 6874   4.473  10.252   6.650  0.4668 -1.1169 -0.5854
   50MOL0     H 6875   4.446  10.137   6.518 -3.2719 -0.3824 -1.1509
   50MOL0     H 6876   4.288  10.030   6.728  0.7500 -1.8130  3.2340
   50MOL0     H 6877   4.391  10.136   6.821  1.6636 -0.2247  0.5547
   50MOL0     H 6878   4.599  10.032   6.688 -0.7046 -1.2000 -2.7165
   50MOL0     H 6879   4.489   9.903   6.656 -0.3368  1.0689 -0.3326
   50MOL0     H 6880   3.977  10.383   6.001 -0.2062 -0.1586 -0.0591
   50MOL0     H 6881   3.791  10.530   5.954 -3.1865 -1.3131 -1.1223
   50MOL0     H 6882   3.364  10.639   5.936  6.3672  1.5806 -1.6167
   50MOL0     H 6883   3.159  10.770   5.894  1.4821  1.1626 -1.8487
   50MOL0     H 6884   1.916  11.236   6.957  1.3938 -0.2753 -1.0869
   50MOL0     H 6885   1.853  11.016   6.914  0.9589  0.7976 -0.5896
   50MOL0     H 6886   1.468  10.733   6.661  0.9974  1.6147 -0.5909
   50MOL0     H 6887   1.522  10.496   6.594  2.1065  1.0868 -1.5151
   50MOL0     H 6888   1.483  10.272   6.656  0.0235  1.2634 -1.1099
   50MOL0     H 6889   1.616  10.260   6.547 -0.4801 -1.1459 -0.0563
   50MOL0     H 6890   1.521  10.075   6.773 -0.3518 -0.3191 -0.0525
   50MOL0     H 6891   1.687  10.054   6.728 -1.1068 -2.0500 -0.0860
   50MOL0     H 6892   1.578   9.891   6.611  0.4041 -0.5183 -0.2024
   50MOL0     H 6893   1.471  10.003   6.521  1.6309 -3.3328 -2.7812
   50MOL0     H 6894   1.665  10.090   6.404  1.2661  0.0854  1.1452
   50MOL0     H 6895   1.661   9.908   6.396 -2.3136 -1.7038  1.6868
   50MOL0     H 6896   2.045  10.022   6.489 -0.6863  1.8024 -0.3475
   50MOL0     H 6897   1.803  10.450   6.922  0.4133 -0.2009 -1.2626
   50MOL0     H 6898   1.820  10.788   6.996  0.2752  0.7079 -1.0020
   50MOL0     H 6899   1.691  10.718   7.093  0.0938  0.8599 -0.6851
   50MOL0     H 6900   1.834  10.622   7.070 -0.1790  0.2243 -0.4087
   51MOL0     O 6901   3.206  10.245   7.524 -1.4102  0.1580 -0.5559
   51MOL0     C 6902   3.152  10.216   7.628 -0.2733  0.2897  0.5446
   51MOL0     O 6903   3.014  10.191   7.635  0.5928  1.1986 -0.1681
   51MOL0     C 6904   2.935  10.271   7.565 -1.8551 -0.4321 -0.5242
   51MOL0     C 6905   2.925  10.257   7.421 -0.6034 -0.6068  0.2545
   51MOL0     C 6906   2.831  10.335   7.356 -0.0057  0.3074 -0.7196
   51MOL0     C 6907   2.758  10.431   7.422  0.0129 -0.3981  0.7321
   51MOL0     O 6908   2.681  10.509   7.333  0.6651 -0.4971 -0.3658
   51MOL0     C 6909   2.606  10.618   7.396 -0.1047  0.3885 -0.3133
   51MOL0     C 6910   2.523  10.692   7.297 -0.0265 -0.8101 -0.0713
   51MOL0     C 6911   2.610  10.762   7.192  0.9327  1.0953 -0.6486
   51MOL0     C 6912   2.555  10.847   7.085  0.0665  0.2274  0.2883
   51MOL0     C 6913   2.507  10.763   6.958 -0.7799 -0.0673 -0.3922
   51MOL0     C 6914   2.465  10.868   6.858 -0.1711 -0.0011 -0.2044
   51MOL0     C 6915   2.467  10.800   6.710 -0.1341  1.0000  0.5906
   51MOL0     C 6916   2.425  10.903   6.601  0.7672 -0.0979  1.0137
   51MOL0     N 6917   2.436  10.861   6.459 -0.7882 -0.2116  0.1287
   51MOL0     C 6918   2.471  10.735   6.423  0.3695  0.4960 -0.1407
   51MOL0     C 6919   2.517  10.749   6.300 -0.3025  0.7120  0.8231
   51MOL0     C 6920   2.570  10.627   6.227  0.2905  0.3834 -0.5741
   51MOL0     C 6921   2.697  10.564   6.281  1.1291  0.3981 -1.1236
   51MOL0     C 6922   2.804  10.574   6.171  0.5210 -0.4187 -0.5119
   51MOL0     C 6923   2.952  10.547   6.221 -0.6585 -0.5008 -0.1818
   51MOL0     O 6924   2.969  10.403   6.244  1.0154 -0.2724 -0.7902
   51MOL0     C 6925   3.085  10.353   6.297  0.2742  0.4451 -0.1296
   51MOL0     C 6926   3.181  10.450   6.340 -1.2991 -0.0519  0.6576
   51MOL0     C 6927   3.288  10.404   6.415  0.7035 -0.2611 -0.1021
   51MOL0     C 6928   3.381  10.522   6.455  0.6391 -0.2280 -0.9321
   51MOL0     C 6929   3.309  10.261   6.438 -0.1678  0.4086 -1.1158
   51MOL0     C 6930   3.433  10.206   6.508 -0.1541 -1.1589  0.1054
   51MOL0     O 6931   3.531  10.295   6.558  0.0957  0.0078 -0.4663
   51MOL0     C 6932   3.634  10.250   6.645 -0.0686 -0.6096  0.9781
   51MOL0     C 6933   3.737  10.336   6.635 -0.9231 -1.0944 -1.6531
   51MOL0     C 6934   3.822  10.321   6.747 -0.2741  0.0575 -0.6461
   51MOL0     C 6935   3.834  10.201   6.820  0.7469  0.2714  1.1552
   51MOL0     O 6936   3.947  10.182   6.898  0.3561 -0.2657 -0.1152
   51MOL0     C 6937   3.921  10.103   7.027  0.5350 -0.6185  0.7671
   51MOL0     C 6938   4.007  10.160   7.142  0.6503 -0.1221 -0.2743
   51MOL0     C 6939   3.965  10.302   7.174  0.4742 -0.0150  0.3292
   51MOL0     C 6940   4.053  10.339   7.295 -0.8144 -0.2203  0.0641
   51MOL0     C 6941   4.039  10.483   7.336 -0.2072  0.8839 -0.1642
   51MOL0     C 6942   4.104  10.501   7.473 -0.2350 -0.1079  0.2380
   51MOL0     C 6943   4.265  10.486   7.468 -0.1439  0.2430 -0.3278
   51MOL0     C 6944   4.353  10.608   7.491  0.4107 -1.4758  0.4923
   51MOL0    Cl 6945   4.525  10.551   7.447  0.0772  0.1142  0.2555
   51MOL0     C 6946   3.730  10.101   6.804 -0.8319 -0.0100  0.1977
   51MOL0     C 6947   3.626  10.136   6.720  0.5023  0.5869  0.0538
   51MOL0     O 6948   3.424  10.086   6.512  0.2624 -0.2170  0.2461
   51MOL0     C 6949   3.215  10.180   6.389  0.1740  0.3073 -1.0671
   51MOL0     C 6950   3.097  10.217   6.332  0.5383 -0.0229 -0.6407
   51MOL0     N 6951   2.490  10.868   6.254  0.1292 -0.3766  0.6377
   51MOL0     N 6952   2.455  10.940   6.354 -1.2167 -0.4621  0.6387
   51MOL0     C 6953   2.765  10.443   7.556 -0.0562  1.0333 -0.7201
   51MOL0     C 6954   2.861  10.372   7.628 -0.7062 -1.1617  0.2116
   51MOL0     C 6955   3.233  10.204   7.748  0.4706 -1.0777 -0.9256
   51MOL0     C 6956   3.161  10.207   7.870 -0.4322  1.2132  1.3421
   51MOL0     C 6957   3.234  10.224   7.991  0.0391 -0.4275  0.2949
   51MOL0     C 6958   3.376  10.247   7.988  0.5010 -0.3161 -0.3401
   51MOL0     O 6959   3.422  10.281   8.110  0.0225  0.0747 -0.5078
   51MOL0     C 6960   3.562  10.307   8.137 -0.7342  0.6764 -0.7854
   51MOL0     C 6961   3.640  10.185   8.180 -0.0700  0.0660 -0.6900
   51MOL0     C 6962   3.792  10.216   8.226  0.1204  0.0139  0.5599
   51MOL0     C 6963   3.897  10.188   8.114  0.5816  0.0353  0.1617
   51MOL0     C 6964   3.890  10.274   7.999  0.1176  0.2250  0.0191
   51MOL0     C 6965   3.876  10.319   7.890 -0.4160 -0.5487  0.6066
   51MOL0     C 6966   3.444  10.227   7.866  1.0667  0.0879 -0.6654
   51MOL0     C 6967   3.380  10.199   7.746  0.4819  0.1939 -0.9563
   51MOL0     C 6968   3.466  10.191   7.623 -0.2123  0.1319  1.1379
   51MOL0     H 6969   2.993  10.187   7.375  0.5867 -0.4411  1.6858
   51MOL0     H 6970   2.823  10.338   7.248 -0.1083  1.3675 -0.6936
   51MOL0     H 6971   2.674  10.685   7.450  0.7673 -0.4243 -0.3614
   51MOL0     H 6972   2.534  10.584   7.471 -0.2723  1.9895  0.2739
   51MOL0     H 6973   2.451  10.624   7.252 -0.9664 -0.0297  0.2190
   51MOL0     H 6974   2.465  10.764   7.356  0.8390 -0.3520  0.2466
   51MOL0     H 6975   2.688  10.815   7.248 -1.2609  2.9442  0.8126
   51MOL0     H 6976   2.669  10.682   7.145  0.2542 -0.1131  0.4784
   51MOL0     H 6977   2.478  10.914   7.123  1.6023  1.0971  2.0293
   51MOL0     H 6978   2.637  10.916   7.065 -1.0510  1.7011  0.6594
   51MOL0     H 6979   2.434  10.683   6.976  1.0042 -1.3845  1.6044
   51MOL0     H 6980   2.595  10.709   6.922 -0.2586  0.7020 -0.2921
   51MOL0     H 6981   2.368  10.916   6.870 -0.6426 -0.9174 -0.2520
   51MOL0     H 6982   2.536  10.951   6.855 -0.7385  0.7032  2.7068
   51MOL0     H 6983   2.403  10.712   6.698  1.5869 -0.2422  0.0137
   51MOL0     H 6984   2.566  10.753   6.704 -1.0150 -1.3038  2.2156
   51MOL0     H 6985   2.322  10.926   6.629  1.4822  1.9871  2.0921
   51MOL0     H 6986   2.470  11.000   6.622  0.1700  0.5710 -0.6731
   51MOL0     H 6987   2.462  10.647   6.486 -2.0780  0.4478 -0.4608
   51MOL0     H 6988   2.583  10.660   6.123 -0.6722 -0.8812 -1.1278
   51MOL0     H 6989   2.494  10.548   6.222  3.3237 -2.7492 -0.8964
   51MOL0     H 6990   2.720  10.610   6.377 -0.8596  1.2601 -1.0180
   51MOL0     H 6991   2.685  10.457   6.299  0.3937  0.6470 -0.0731
   51MOL0     H 6992   2.794  10.502   6.090 -0.8350 -1.9353  0.9427
   51MOL0     H 6993   2.803  10.678   6.137  0.1322 -0.6682 -1.2788
   51MOL0     H 6994   3.028  10.585   6.152  0.4175  1.0336  1.7720
   51MOL0     H 6995   2.960  10.617   6.304 -0.3153  1.3594 -1.7122
   51MOL0     H 6996   3.184  10.554   6.311  1.8763  0.4656  2.3542
   51MOL0     H 6997   3.353  10.610   6.397 -1.8999 -1.0374 -1.0349
   51MOL0     H 6998   3.488  10.497   6.453  0.0987 -2.7669 -2.1072
   51MOL0     H 6999   3.360  10.534   6.562  1.5655 -4.6968 -0.0440
   51MOL0     H 7000   3.737  10.413   6.558  1.3495 -1.4076 -2.0276
   51MOL0     H 7001   3.901  10.395   6.755 -2.9030  3.3804 -2.6844
   51MOL0     H 7002   3.817  10.118   7.055  0.1662  1.4194 -1.3746
   51MOL0     H 7003   3.962  10.002   7.024  3.4601  0.4805 -0.2711
   51MOL0     H 7004   3.996  10.096   7.230  4.9536 -1.4299 -0.4259
   51MOL0     H 7005   4.112  10.165   7.109 -0.2526  2.8377 -3.2939
   51MOL0     H 7006   3.859  10.308   7.202 -0.4035  1.5995 -2.8384
   51MOL0     H 7007   3.990  10.374   7.095  0.4437  1.4797  1.6154
   51MOL0     H 7008   4.160  10.318   7.291 -0.7579  0.2053 -1.2678
   51MOL0     H 7009   4.018  10.281   7.380  0.9957 -0.2807  0.8109
   51MOL0     H 7010   4.088  10.545   7.260  0.8408 -0.8166 -0.9206
   51MOL0     H 7011   3.931  10.501   7.332  0.0620  2.9790  0.7800
   51MOL0     H 7012   4.069  10.429   7.547  3.2162 -0.9068  1.2789
   51MOL0     H 7013   4.082  10.602   7.509 -0.2135 -0.1441  0.3531
   51MOL0     H 7014   4.290  10.446   7.369 -0.6466 -3.1676  0.7937
   51MOL0     H 7015   4.289  10.402   7.535  1.3207  1.1110  0.2804
   51MOL0     H 7016   4.350  10.650   7.592  3.5133  2.3413 -0.7530
   51MOL0     H 7017   4.328  10.696   7.432 -0.5523 -2.3908 -0.5146
   51MOL0     H 7018   3.734  10.006   6.855  2.4075  0.6182  1.3453
   51MOL0     H 7019   3.544  10.066   6.710  1.3996 -0.1938 -3.2626
   51MOL0     H 7020   3.205  10.072   6.392 -4.5892  0.5424 -1.3131
   51MOL0     H 7021   3.029  10.137   6.304  0.6352  0.0937 -1.2199
   51MOL0     H 7022   2.714  10.518   7.616  1.3989  1.1172  0.4798
   51MOL0     H 7023   2.878  10.395   7.733  0.3329  1.4948 -0.4567
   51MOL0     H 7024   3.052  10.211   7.868 -0.4529  0.4616 -0.4322
   51MOL0     H 7025   3.182  10.233   8.085 -0.5082  1.8116 -0.1682
   51MOL0     H 7026   3.622  10.362   8.065  2.0773 -2.9719 -1.5158
   51MOL0     H 7027   3.556  10.374   8.224 -1.9358  0.0561 -0.3572
   51MOL0     H 7028   3.639  10.112   8.098 -3.1601 -1.1655  0.2840
   51MOL0     H 7029   3.578  10.150   8.263 -0.7706  2.3319 -0.1823
   51MOL0     H 7030   3.792  10.317   8.266  1.5936 -0.3870  1.6692
   51MOL0     H 7031   3.812  10.149   8.310 -0.2782 -0.6260  0.1577
   51MOL0     H 7032   3.891  10.082   8.089 -0.1235  0.4544 -1.6051
   51MOL0     H 7033   3.992  10.213   8.162  1.2467  1.0104 -1.5495
   51MOL0     H 7034   3.869  10.360   7.791  1.4554 -1.8613 -0.1432
   51MOL0     H 7035   3.549  10.257   7.872 -0.1742  5.0317  1.6599
   51MOL0     H 7036   3.421  10.139   7.538 -0.1331 -0.0653  1.2157
   51MOL0     H 7037   3.502  10.287   7.587 -3.9309  1.1529 -0.3366
   51MOL0     H 7038   3.557  10.136   7.648 -0.3268 -0.4881  0.2356
   52MOL0     O 7039   7.326   3.065  10.351  0.2613 -0.6575  0.2418
   52MOL0     C 7040   7.281   3.021  10.246  0.4596  0.5925 -0.5820
   52MOL0     O 7041   7.318   3.057  10.124 -0.4357 -0.4338 -0.4498
   52MOL0     C 7042   7.385   3.175  10.105 -0.1295  0.7509  0.6536
   52MOL0     C 7043   7.524   3.190  10.120 -0.2784 -0.4425 -0.2136
   52MOL0     C 7044   7.589   3.311  10.085  0.5708  0.9523  0.3749
   52MOL0     C 7045   7.515   3.427  10.033 -1.1220  0.4682  0.1602
   52MOL0     O 7046   7.574   3.546   9.993  0.6976  0.4978 -0.7653
   52MOL0     C 7047   7.708   3.567  10.022  0.0425 -0.0342 -0.0037
   52MOL0     C 7048   7.727   3.719  10.044  1.0815  0.0486 -0.2306
   52MOL0     C 7049   7.867   3.759  10.081 -0.1707  0.2305 -0.6546
   52MOL0     C 7050   7.909   3.701  10.215  0.2684  0.2623  0.2879
   52MOL0     C 7051   8.025   3.782  10.285  1.0610 -0.2889 -0.0154
   52MOL0     C 7052   8.079   3.710  10.424  0.6249 -0.4691  0.0431
   52MOL0     C 7053   8.102   3.558  10.417 -0.2557 -0.0888 -0.3297
   52MOL0     C 7054   8.190   3.512  10.533  0.8621 -0.3343  0.5985
   52MOL0     N 7055   8.136   3.485  10.668 -1.1327  0.0369  0.0846
   52MOL0     C 7056   8.021   3.530  10.717 -0.9525 -0.3032 -0.2108
   52MOL0     C 7057   8.009   3.468  10.835 -0.1647  0.4072  0.4386
   52MOL0     C 7058   7.898   3.501  10.924 -0.8241 -0.7667 -0.0879
   52MOL0     C 7059   7.802   3.382  10.938 -0.7723  0.3902 -0.6311
   52MOL0     C 7060   7.763   3.365  11.093 -0.0769  0.7533  0.3166
   52MOL0     C 7061   7.687   3.238  11.112 -0.2937  0.1970  0.6147
   52MOL0     O 7062   7.640   3.220  11.250 -0.0215 -1.3497 -0.2920
   52MOL0     C 7063   7.724   3.244  11.358 -0.5682  0.1567  0.6995
   52MOL0     C 7064   7.680   3.323  11.454 -0.1980  0.9120  0.4302
   52MOL0     C 7065   7.753   3.336  11.577 -0.1035 -0.3011  0.2834
   52MOL0     C 7066   7.685   3.427  11.678 -0.2884  0.2608 -0.0827
   52MOL0     C 7067   7.886   3.263  11.598 -0.0089 -0.0151 -1.0641
   52MOL0     C 7068   7.965   3.261  11.722 -0.2827 -0.2957 -0.4096
   52MOL0     O 7069   8.093   3.228  11.709 -0.2845 -0.3782 -0.3207
   52MOL0     C 7070   8.177   3.241  11.816 -0.1898 -0.2343  0.3764
   52MOL0     C 7071   8.155   3.172  11.941  0.4127 -0.0934  0.4020
   52MOL0     C 7072   8.242   3.181  12.048 -0.7456 -0.4187 -0.0993
   52MOL0     C 7073   8.370   3.240  12.019  0.0348 -0.1577 -0.3324
   52MOL0     O 7074   8.465   3.237  12.117 -0.2353  0.2350 -0.8546
   52MOL0     C 7075   8.592   3.300  12.109  0.5938 -0.1106 -0.7850
   52MOL0     C 7076   8.674   3.318  12.243  0.1137  0.5220 -0.1747
   52MOL0     C 7077   8.584   3.300  12.367 -0.4703 -0.3300 -0.0996
   52MOL0     C 7078   8.482   3.418  12.365  1.0025 -0.0331 -0.1571
   52MOL0     C 7079   8.397   3.406  12.493 -0.5783 -0.0649 -0.0677
   52MOL0     C 7080   8.395   3.542  12.561  0.2756  0.9331  0.0265
   52MOL0     C 7081   8.315   3.652  12.471 -0.3552  0.3988  0.6822
   52MOL0     C 7082   8.223   3.735  12.557  0.3017 -0.1509  0.3099
   52MOL0    Cl 7083   8.130   3.868  12.476  0.3957 -0.2816 -0.1590
   52MOL0     C 7084   8.384   3.318  11.903  0.8502  0.4918  0.2908
   52MOL0     C 7085   8.287   3.315  11.804  0.2523 -0.0225 -0.4814
   52MOL0     O 7086   7.915   3.288  11.834  0.3175 -0.2930 -0.1333
   52MOL0     C 7087   7.922   3.180  11.491  0.4659 -0.7528  0.0881
   52MOL0     C 7088   7.847   3.185  11.370 -0.9956 -0.0100  0.1130
   52MOL0     N 7089   8.117   3.391  10.860 -0.6743  0.0705  0.5562
   52MOL0     N 7090   8.204   3.412  10.759  0.2923  0.2344 -0.2841
   52MOL0     C 7091   7.385   3.409  10.015 -0.3523 -0.0046 -0.9532
   52MOL0     C 7092   7.325   3.284  10.052 -0.1345 -0.7305  0.2565
   52MOL0     C 7093   7.175   2.921  10.257  0.3712 -1.3838  0.4177
   52MOL0     C 7094   7.068   2.940  10.343  0.5193 -0.2061  0.2633
   52MOL0     C 7095   6.962   2.850  10.338  0.1517  0.7668  0.1016
   52MOL0     C 7096   6.957   2.741  10.253 -0.3331 -0.1323 -0.5574
   52MOL0     O 7097   6.844   2.650  10.267 -0.8172  0.3232 -0.3382
   52MOL0     C 7098   6.837   2.530  10.186 -0.8484 -0.1414  1.0360
   52MOL0     C 7099   6.925   2.414  10.221 -0.2439 -0.3287  0.2397
   52MOL0     C 7100   6.918   2.280  10.134  0.2807 -1.6627  0.7476
   52MOL0     C 7101   6.994   2.143  10.177  0.8206 -0.1134 -0.8730
   52MOL0     C 7102   6.963   2.106  10.319 -0.3422 -0.4610 -0.8647
   52MOL0     C 7103   6.933   2.081  10.435 -0.1669 -0.4254  0.7980
   52MOL0     C 7104   7.059   2.720  10.169 -0.6297  0.5137 -0.0069
   52MOL0     C 7105   7.172   2.804  10.168  0.1273 -1.4164 -1.1395
   52MOL0     C 7106   7.288   2.762  10.093  0.2481 -0.9290 -0.5030
   52MOL0     H 7107   7.581   3.114  10.171  1.3848  0.3077 -0.8952
   52MOL0     H 7108   7.696   3.297  10.098  0.0510 -1.6744  2.7133
   52MOL0     H 7109   7.760   3.519   9.938 -2.2527 -3.5237  0.3834
   52MOL0     H 7110   7.755   3.521  10.109  1.2044 -1.7493 -1.4615
   52MOL0     H 7111   7.682   3.784   9.968 -2.5203  0.1578  1.8066
   52MOL0     H 7112   7.669   3.765  10.124  1.5209 -0.6656  0.5088
   52MOL0     H 7113   7.932   3.713  10.006  2.5420  1.6520  0.6407
   52MOL0     H 7114   7.889   3.866  10.084  1.4062 -0.0847  0.4783
   52MOL0     H 7115   7.825   3.702  10.285  0.7476 -3.8435  1.2093
   52MOL0     H 7116   7.935   3.595  10.204 -1.8219 -0.3725  0.9809
   52MOL0     H 7117   8.002   3.886  10.312  5.2130  0.6789  0.4905
   52MOL0     H 7118   8.117   3.793  10.226  1.6126 -1.6634  0.5454
   52MOL0     H 7119   8.164   3.768  10.462  0.6858 -0.5305  0.0001
   52MOL0     H 7120   7.997   3.717  10.496 -0.0322 -0.8553 -0.6518
   52MOL0     H 7121   8.163   3.546  10.326  2.3411  2.5848  0.8882
   52MOL0     H 7122   8.010   3.500  10.409 -1.8630  1.9125  2.2585
   52MOL0     H 7123   8.257   3.430  10.505  2.1160  1.0430 -0.6250
   52MOL0     H 7124   8.256   3.595  10.562  2.5653 -1.1098 -0.8330
   52MOL0     H 7125   7.956   3.607  10.677 -0.1519  1.5290  1.8044
   52MOL0     H 7126   7.842   3.589  10.891 -2.3624 -1.9791 -0.8084
   52MOL0     H 7127   7.934   3.539  11.021 -2.8061  2.8205 -0.5855
   52MOL0     H 7128   7.715   3.407  10.877 -1.0439 -2.0676 -1.3298
   52MOL0     H 7129   7.848   3.292  10.896 -1.5075  0.0652 -0.7533
   52MOL0     H 7130   7.854   3.363  11.154 -1.7597  1.4229  2.9935
   52MOL0     H 7131   7.698   3.448  11.122 -0.2239  0.3231  1.2502
   52MOL0     H 7132   7.599   3.233  11.048  0.9301  3.5174 -1.6009
   52MOL0     H 7133   7.756   3.156  11.088 -0.6725  0.1859 -0.5073
   52MOL0     H 7134   7.583   3.370  11.443 -1.0374 -0.4088  1.8228
   52MOL0     H 7135   7.756   3.508  11.697 -0.1339 -0.2396  1.6137
   52MOL0     H 7136   7.662   3.367  11.767 -0.3860  1.0638  0.4452
   52MOL0     H 7137   7.591   3.469  11.642 -0.8655  0.1134  1.1950
   52MOL0     H 7138   8.062   3.119  11.959 -0.8903  1.9580  0.1002
   52MOL0     H 7139   8.228   3.123  12.139  0.6394  1.1526  1.1855
   52MOL0     H 7140   8.650   3.245  12.034 -0.6089 -0.0577 -1.7907
   52MOL0     H 7141   8.576   3.404  12.081  0.1980 -0.7460 -3.1753
   52MOL0     H 7142   8.745   3.235  12.253  0.1162  0.7498  2.7765
   52MOL0     H 7143   8.732   3.411  12.239  2.1329 -0.7002 -1.1957
   52MOL0     H 7144   8.637   3.294  12.463 -1.9683 -2.9585  0.6445
   52MOL0     H 7145   8.519   3.214  12.350 -1.7397  0.9946 -2.6568
   52MOL0     H 7146   8.416   3.406  12.279 -3.0007 -0.1066  2.6824
   52MOL0     H 7147   8.534   3.514  12.368  2.9257 -1.0283  2.4333
   52MOL0     H 7148   8.294   3.375  12.474 -0.2146 -0.2937 -1.7976
   52MOL0     H 7149   8.442   3.336  12.564 -1.4677 -0.4688  0.1046
   52MOL0     H 7150   8.492   3.588  12.579 -0.0459  1.8211 -0.4044
   52MOL0     H 7151   8.340   3.530  12.654  2.6576 -1.9539  1.2116
   52MOL0     H 7152   8.261   3.607  12.387  3.1234 -0.5701 -1.2668
   52MOL0     H 7153   8.395   3.711  12.424  0.8293 -1.9026 -0.3548
   52MOL0     H 7154   8.285   3.789  12.631 -2.6724 -1.1074  3.7941
   52MOL0     H 7155   8.157   3.665  12.609  4.5286 -3.6918  1.5402
   52MOL0     H 7156   8.486   3.354  11.891  1.4026 -0.7765  0.8413
   52MOL0     H 7157   8.300   3.357  11.704 -1.0370 -1.5269 -1.3290
   52MOL0     H 7158   8.024   3.141  11.487  0.7465  0.0078 -2.6880
   52MOL0     H 7159   7.889   3.115  11.298  1.7651 -0.1707  1.7217
   52MOL0     H 7160   7.318   3.484   9.974  1.3385  0.9531 -2.0766
   52MOL0     H 7161   7.217   3.282  10.042 -0.0311 -0.7802 -1.0496
   52MOL0     H 7162   7.052   3.026  10.407 -2.9240 -0.8251  0.4032
   52MOL0     H 7163   6.874   2.860  10.401  0.8033  0.9256  1.0154
   52MOL0     H 7164   6.736   2.488  10.186 -0.4508 -1.2122 -0.7726
   52MOL0     H 7165   6.865   2.545  10.081  2.8549 -2.8252  1.4422
   52MOL0     H 7166   6.904   2.377  10.322 -3.7190 -0.0986 -0.2770
   52MOL0     H 7167   7.028   2.449  10.208 -0.5315  0.1571 -0.8264
   52MOL0     H 7168   6.814   2.252  10.114 -0.0320 -1.2378  1.7165
   52MOL0     H 7169   6.944   2.317  10.035 -2.1303 -0.1313  0.6287
   52MOL0     H 7170   7.102   2.145  10.162  0.9785 -0.7882  0.0812
   52MOL0     H 7171   6.954   2.070  10.106 -2.1754 -1.1339  1.6305
   52MOL0     H 7172   6.902   2.069  10.537 -2.3436  2.0608  0.5407
   52MOL0     H 7173   7.077   2.629  10.113 -0.8005  0.2455  0.3690
   52MOL0     H 7174   7.312   2.659  10.120 -1.7399 -1.2207  0.3332
   52MOL0     H 7175   7.250   2.775   9.992 -4.0425  2.0198  1.1986
   52MOL0     H 7176   7.378   2.824  10.109 -0.6993 -0.2042  2.7707
   53MOL0     O 7177   4.180   4.399   9.532 -0.4488 -0.4988 -0.6487
   53MOL0     C 7178   4.109   4.348   9.623 -1.1135  0.1624  0.6016
   53MOL0     O 7179   4.016   4.257   9.599 -0.0106 -0.4840 -0.8896
   53MOL0     C 7180   3.976   4.231   9.476 -0.0228 -0.6538 -0.3872
   53MOL0     C 7181   3.977   4.102   9.428  0.1359 -0.1569  0.6539
   53MOL0     C 7182   3.929   4.088   9.295  0.2981 -0.5847  0.2458
   53MOL0     C 7183   3.856   4.189   9.223 -1.0839  0.3104 -0.5732
   53MOL0     O 7184   3.783   4.175   9.110  0.1695  0.5011 -0.9284
   53MOL0     C 7185   3.796   4.050   9.039  0.4100 -0.6189  0.6162
   53MOL0     C 7186   3.739   4.062   8.898 -0.8673 -0.2620  0.1372
   53MOL0     C 7187   3.821   4.157   8.802 -1.1402 -0.1392  0.9213
   53MOL0     C 7188   3.749   4.189   8.673 -0.1939  0.5690  0.1828
   53MOL0     C 7189   3.848   4.266   8.578 -0.0191  0.7717 -0.1177
   53MOL0     C 7190   3.795   4.288   8.437 -0.5466  1.0709  0.7536
   53MOL0     C 7191   3.838   4.176   8.342 -0.6360 -0.5663  0.7877
   53MOL0     C 7192   3.991   4.199   8.302  0.3335 -0.0297 -0.3654
   53MOL0     N 7193   4.072   4.070   8.324 -0.2178 -0.7128  0.1033
   53MOL0     C 7194   4.026   3.935   8.331  0.2497 -0.4516 -0.2413
   53MOL0     C 7195   4.118   3.863   8.396  1.3091 -0.9119  0.8070
   53MOL0     C 7196   4.110   3.716   8.425  0.4319 -0.1668 -0.5512
   53MOL0     C 7197   4.235   3.637   8.389  0.5397 -0.3927  0.1230
   53MOL0     C 7198   4.252   3.493   8.454  1.1509 -0.0736 -0.0689
   53MOL0     C 7199   4.130   3.397   8.432 -0.7301  0.1549 -0.3552
   53MOL0     O 7200   4.093   3.400   8.295  0.1966 -0.5617  0.0618
   53MOL0     C 7201   3.992   3.317   8.262  0.0168 -0.8010  1.3204
   53MOL0     C 7202   3.999   3.177   8.289  0.2563 -0.2449  0.3752
   53MOL0     C 7203   3.900   3.092   8.244  0.3010  0.0386 -0.0552
   53MOL0     C 7204   3.932   2.938   8.267  0.3690 -0.8334 -0.1363
   53MOL0     C 7205   3.782   3.146   8.180  0.1914  0.6722  0.1062
   53MOL0     C 7206   3.679   3.051   8.118 -0.5582 -0.1201  0.5699
   53MOL0     O 7207   3.734   2.951   8.047 -1.4054  0.5755  0.1298
   53MOL0     C 7208   3.689   2.818   8.046  0.6645 -1.0291  0.3900
   53MOL0     C 7209   3.750   2.723   7.969  0.0591  0.0968  0.6155
   53MOL0     C 7210   3.725   2.579   7.974 -0.1948 -0.0019  0.2829
   53MOL0     C 7211   3.612   2.531   8.044 -0.1326 -0.2974  0.4391
   53MOL0     O 7212   3.560   2.405   8.039  0.0268 -0.5639 -0.3714
   53MOL0     C 7213   3.599   2.319   7.935  0.4706  0.3077 -0.9182
   53MOL0     C 7214   3.506   2.190   7.921 -0.0642 -0.1798 -0.8407
   53MOL0     C 7215   3.534   2.100   8.045  0.3646 -0.4480  0.0408
   53MOL0     C 7216   3.451   1.964   8.028  0.1692 -0.3722 -0.0643
   53MOL0     C 7217   3.547   1.849   8.014  0.3966  0.3562 -0.1272
   53MOL0     C 7218   3.645   1.834   7.905  0.8879 -0.6583  0.0184
   53MOL0     C 7219   3.733   1.715   7.924 -0.2279 -0.1713 -0.3273
   53MOL0     C 7220   3.871   1.715   7.835 -0.4023 -0.2916 -0.1326
   53MOL0    Cl 7221   3.967   1.851   7.885  0.5617 -0.0184  0.0111
   53MOL0     C 7222   3.544   2.626   8.122 -0.3357 -0.5031  0.4219
   53MOL0     C 7223   3.589   2.763   8.138 -0.0789 -0.3331  0.1105
   53MOL0     O 7224   3.560   3.060   8.150  0.4401 -0.3583 -0.6669
   53MOL0     C 7225   3.768   3.284   8.164 -0.3594  1.0173  0.4315
   53MOL0     C 7226   3.874   3.371   8.200 -0.1500  0.2921  0.8056
   53MOL0     N 7227   4.223   3.953   8.428 -0.2713 -0.8040  0.2614
   53MOL0     N 7228   4.203   4.071   8.374 -0.2959 -0.0634  0.1226
   53MOL0     C 7229   3.850   4.314   9.277  0.7106  0.2937  0.4052
   53MOL0     C 7230   3.906   4.332   9.399 -0.2374  0.0955  0.4838
   53MOL0     C 7231   4.148   4.381   9.768  1.2520 -0.1713 -0.2390
   53MOL0     C 7232   4.106   4.290   9.872  0.0083 -1.0399 -0.1191
   53MOL0     C 7233   4.122   4.321  10.005  0.1932  0.0697 -0.0773
   53MOL0     C 7234   4.187   4.437  10.053  0.0264  0.2060 -0.1232
   53MOL0     O 7235   4.217   4.459  10.192  0.6072 -0.1134 -1.1183
   53MOL0     C 7236   4.195   4.358  10.291 -0.8248  0.0314  0.1508
   53MOL0     C 7237   4.287   4.361  10.420  0.0920 -0.9379  0.0028
   53MOL0     C 7238   4.215   4.298  10.540  1.2064 -0.3737  0.8286
   53MOL0     C 7239   4.326   4.292  10.652  0.5607 -0.3047 -0.3626
   53MOL0     C 7240   4.343   4.418  10.716  0.5671 -0.3844 -0.7009
   53MOL0     C 7241   4.366   4.536  10.742  0.1183 -0.1603 -0.2669
   53MOL0     C 7242   4.233   4.525   9.954  0.8089  0.0185  0.8247
   53MOL0     C 7243   4.203   4.505   9.816 -0.1535  0.4385 -0.1643
   53MOL0     C 7244   4.248   4.614   9.725 -0.4035 -0.6581  0.4112
   53MOL0     H 7245   4.020   4.020   9.485  1.1882 -1.8508 -2.3463
   53MOL0     H 7246   3.922   3.985   9.263  0.9680 -1.4148  2.5728
   53MOL0     H 7247   3.739   3.977   9.097 -0.3055 -1.5659 -1.1869
   53MOL0     H 7248   3.900   4.017   9.032  0.2499 -1.2580  1.1537
   53MOL0     H 7249   3.766   3.965   8.856  1.7257  1.1309 -1.6905
   53MOL0     H 7250   3.633   4.088   8.906 -0.6904 -0.0105  2.0601
   53MOL0     H 7251   3.843   4.252   8.852 -0.1073 -0.6670  1.4973
   53MOL0     H 7252   3.922   4.122   8.778 -1.5005 -1.1649  0.8745
   53MOL0     H 7253   3.727   4.102   8.611  0.5420  0.2017  0.4298
   53MOL0     H 7254   3.659   4.251   8.679  1.1390  2.7921 -1.2114
   53MOL0     H 7255   3.944   4.213   8.569  1.3246  2.1172  3.9617
   53MOL0     H 7256   3.869   4.366   8.618  1.7360  0.6887 -0.7348
   53MOL0     H 7257   3.687   4.296   8.428 -0.4216  2.9230  0.5228
   53MOL0     H 7258   3.836   4.385   8.405  0.3063 -0.1807 -2.4202
   53MOL0     H 7259   3.799   4.175   8.241  4.9385 -1.9386 -1.7635
   53MOL0     H 7260   3.818   4.079   8.388  1.3774 -1.4837 -0.1580
   53MOL0     H 7261   3.995   4.222   8.195  3.3825 -0.4785 -0.4348
   53MOL0     H 7262   4.032   4.287   8.353 -1.5207 -0.6672  2.4820
   53MOL0     H 7263   3.926   3.919   8.294 -1.3973  4.9291  0.9536
   53MOL0     H 7264   4.019   3.674   8.382  1.1845  1.6493 -4.3739
   53MOL0     H 7265   4.103   3.711   8.534  0.6572  3.9201 -0.1772
   53MOL0     H 7266   4.235   3.627   8.281  1.5964 -1.0040  0.1736
   53MOL0     H 7267   4.319   3.700   8.419 -0.1566 -1.0880  4.1773
   53MOL0     H 7268   4.347   3.455   8.414  1.1595  1.2440 -1.3871
   53MOL0     H 7269   4.247   3.509   8.562 -2.0074  3.7990 -0.5785
   53MOL0     H 7270   4.165   3.295   8.455 -0.9766  0.3468  0.9058
   53MOL0     H 7271   4.052   3.429   8.501 -0.1110  0.8545  0.0288
   53MOL0     H 7272   4.085   3.146   8.349  3.1662  1.3328 -2.6167
   53MOL0     H 7273   3.842   2.876   8.278  1.3195 -2.1615  0.5371
   53MOL0     H 7274   3.997   2.922   8.354  0.4114  0.5212  0.1024
   53MOL0     H 7275   3.978   2.889   8.180  2.3400  0.6778 -0.0162
   53MOL0     H 7276   3.837   2.760   7.915 -0.2260 -0.2124 -0.0710
   53MOL0     H 7277   3.792   2.517   7.915  1.9794  0.3906  2.1972
   53MOL0     H 7278   3.608   2.376   7.842  2.2228  0.9844 -0.3615
   53MOL0     H 7279   3.704   2.295   7.954  1.2752  1.9920 -2.8233
   53MOL0     H 7280   3.401   2.220   7.929  0.2681  0.4777  2.2451
   53MOL0     H 7281   3.539   2.130   7.836  0.0553 -1.5519  0.1319
   53MOL0     H 7282   3.493   2.145   8.136  2.2097 -0.5563  0.9535
   53MOL0     H 7283   3.642   2.083   8.046  0.0436 -2.8062 -0.5473
   53MOL0     H 7284   3.395   1.966   7.934  0.2759  0.9733 -0.1096
   53MOL0     H 7285   3.380   1.952   8.111 -2.2117 -2.9278 -2.2712
   53MOL0     H 7286   3.601   1.853   8.109  0.7024  0.6807 -0.3088
   53MOL0     H 7287   3.489   1.756   8.013 -1.2156  1.3283 -0.8548
   53MOL0     H 7288   3.709   1.922   7.895  1.2083 -0.9205 -0.2603
   53MOL0     H 7289   3.589   1.817   7.813 -0.0059  1.8404  0.0192
   53MOL0     H 7290   3.681   1.621   7.905  2.2525 -1.5140 -0.8784
   53MOL0     H 7291   3.761   1.714   8.029 -2.8975  1.0312  0.5008
   53MOL0     H 7292   3.844   1.733   7.730 -3.0265  3.6611  1.0013
   53MOL0     H 7293   3.922   1.621   7.859 -2.8116 -0.8268  3.7803
   53MOL0     H 7294   3.465   2.594   8.190 -0.5019 -0.7237  0.1295
   53MOL0     H 7295   3.539   2.829   8.208  0.2169  0.0673 -0.0552
   53MOL0     H 7296   3.680   3.316   8.111  0.3719  0.1534 -1.3790
   53MOL0     H 7297   3.868   3.478   8.185  0.6265  0.3726  1.0277
   53MOL0     H 7298   3.793   4.391   9.225  0.6930 -0.7272 -1.1482
   53MOL0     H 7299   3.887   4.424   9.453  0.8424  0.8192 -0.3159
   53MOL0     H 7300   4.071   4.195   9.833 -1.3296  0.1420 -1.9443
   53MOL0     H 7301   4.085   4.245  10.073  2.0648  0.0832  1.0147
   53MOL0     H 7302   4.090   4.362  10.322 -0.8383 -1.2136  0.3210
   53MOL0     H 7303   4.201   4.262  10.241  1.9523 -1.3915  2.8655
   53MOL0     H 7304   4.287   4.467  10.448 -3.4594 -0.4182 -1.4043
   53MOL0     H 7305   4.389   4.326  10.401  0.7739  1.6495 -1.7664
   53MOL0     H 7306   4.127   4.359  10.560  0.4694 -0.8384 -0.8073
   53MOL0     H 7307   4.164   4.205  10.512  1.7532  0.3392 -3.0342
   53MOL0     H 7308   4.418   4.257  10.605 -0.1877 -1.4390 -1.0411
   53MOL0     H 7309   4.308   4.215  10.728 -0.2087  2.0104  1.9462
   53MOL0     H 7310   4.394   4.637  10.764  0.2054  0.3056 -2.3195
   53MOL0     H 7311   4.283   4.618   9.981 -0.7371  1.1099  0.1141
   53MOL0     H 7312   4.292   4.695   9.784 -1.3515 -1.2113  1.9326
   53MOL0     H 7313   4.329   4.572   9.665  0.6187  0.3398  1.0546
   53MOL0     H 7314   4.176   4.639   9.646  1.5625  0.0762 -1.2305
   54MOL0     O 7315   7.886   0.557   3.098  0.3403 -0.1753  0.1145
   54MOL0     C 7316   7.762   0.585   3.117  0.1603 -0.5474 -0.0071
   54MOL0     O 7317   7.662   0.571   3.017 -0.3819 -0.0196 -0.4221
   54MOL0     C 7318   7.697   0.507   2.898  0.4192 -0.8017  0.5121
   54MOL0     C 7319   7.610   0.410   2.839 -0.4362 -0.0767  0.9026
   54MOL0     C 7320   7.629   0.341   2.711 -0.0402  0.1648 -0.0897
   54MOL0     C 7321   7.747   0.366   2.643 -0.9373 -0.1563 -0.4253
   54MOL0     O 7322   7.811   0.310   2.531 -0.2633  0.5004  0.3229
   54MOL0     C 7323   7.731   0.272   2.424 -0.0010  0.8521 -0.2122
   54MOL0     C 7324   7.820   0.213   2.316  0.1099 -0.4017 -0.8360
   54MOL0     C 7325   7.754   0.118   2.217 -0.4691  0.6700  0.5260
   54MOL0     C 7326   7.699  -0.004   2.282  0.1739  0.2290  0.4896
   54MOL0     C 7327   7.799  -0.110   2.330 -0.4931  0.5356 -0.3411
   54MOL0     C 7328   7.722  -0.247   2.333 -0.4595  0.4426  0.0279
   54MOL0     C 7329   7.795  -0.355   2.423  0.9599 -1.0776 -0.2371
   54MOL0     C 7330   7.697  -0.470   2.445 -0.4223  0.1417  0.4753
   54MOL0     N 7331   7.667  -0.548   2.322  0.0753 -0.1126 -0.0932
   54MOL0     C 7332   7.576  -0.520   2.226  0.8465 -0.1709  0.4675
   54MOL0     C 7333   7.570  -0.636   2.149 -0.6104  0.1259  0.0428
   54MOL0     C 7334   7.491  -0.667   2.029 -0.4476 -0.1858 -0.6584
   54MOL0     C 7335   7.537  -0.590   1.908  0.1258  0.2845  0.8667
   54MOL0     C 7336   7.477  -0.655   1.775 -0.1525  0.0287  0.1297
   54MOL0     C 7337   7.332  -0.704   1.771 -0.2805 -0.1397  0.1039
   54MOL0     O 7338   7.244  -0.611   1.841 -0.8544  0.0581 -0.2098
   54MOL0     C 7339   7.228  -0.489   1.784  0.6361 -0.1687 -0.2109
   54MOL0     C 7340   7.243  -0.375   1.864  0.5058  0.9519  0.1966
   54MOL0     C 7341   7.228  -0.254   1.804 -0.1988 -0.7394 -0.5785
   54MOL0     C 7342   7.226  -0.141   1.902 -0.1634 -0.1010 -0.7709
   54MOL0     C 7343   7.213  -0.235   1.663 -0.2525  0.1194  0.2061
   54MOL0     C 7344   7.204  -0.106   1.605  0.0641  0.0937  0.0589
   54MOL0     O 7345   7.294  -0.063   1.511  0.7221  0.0878  0.8272
   54MOL0     C 7346   7.265   0.051   1.435  0.1061  0.2804  0.4643
   54MOL0     C 7347   7.342   0.161   1.472  0.2360  0.0582 -0.1041
   54MOL0     C 7348   7.315   0.285   1.409 -1.0420  1.1841  0.0897
   54MOL0     C 7349   7.224   0.297   1.310 -0.3710  0.4750 -0.0619
   54MOL0     O 7350   7.201   0.425   1.262  0.2948 -0.4092 -0.4605
   54MOL0     C 7351   7.142   0.451   1.133  0.5303 -0.1482  0.1717
   54MOL0     C 7352   7.154   0.602   1.111 -0.2313 -1.3887 -0.0102
   54MOL0     C 7353   7.298   0.628   1.068 -0.0133  0.8697  0.7327
   54MOL0     C 7354   7.304   0.752   0.991  0.1841  1.0960  0.6499
   54MOL0     C 7355   7.441   0.811   0.977  0.0612 -0.0248 -1.3772
   54MOL0     C 7356   7.525   0.837   1.105 -0.0189 -0.4430  1.1725
   54MOL0     C 7357   7.452   0.917   1.207  0.0400  0.2115  0.6306
   54MOL0     C 7358   7.552   0.962   1.311  0.1120  0.5736 -0.1752
   54MOL0    Cl 7359   7.447   1.070   1.402 -0.5166 -0.1435 -0.4163
   54MOL0     C 7360   7.156   0.178   1.265 -0.3703 -0.4216  0.0662
   54MOL0     C 7361   7.173   0.059   1.331  0.6451  0.3132  0.2938
   54MOL0     O 7362   7.108  -0.037   1.645  0.2068 -0.2375 -0.6621
   54MOL0     C 7363   7.200  -0.352   1.579  0.4938 -0.2494  0.2574
   54MOL0     C 7364   7.197  -0.474   1.641  0.3965 -0.1063  0.0665
   54MOL0     N 7365   7.674  -0.713   2.193 -0.9253  0.6499 -0.3217
   54MOL0     N 7366   7.725  -0.665   2.288  0.4602 -0.6303  0.1040
   54MOL0     C 7367   7.830   0.460   2.703  0.1974  0.0778  0.1962
   54MOL0     C 7368   7.810   0.527   2.821  1.3722 -0.0082  0.7536
   54MOL0     C 7369   7.722   0.662   3.238 -0.6967 -0.2183  0.7514
   54MOL0     C 7370   7.663   0.788   3.222  0.7236  0.8547  0.2044
   54MOL0     C 7371   7.645   0.879   3.333  0.3386 -0.7350  0.1161
   54MOL0     C 7372   7.672   0.827   3.464 -1.3418 -0.5483  0.0447
   54MOL0     O 7373   7.627   0.906   3.570  0.3615 -0.1871 -0.5073
   54MOL0     C 7374   7.693   0.902   3.698 -0.5935 -0.1703  0.5422
   54MOL0     C 7375   7.624   0.816   3.805  0.4712  0.6809  0.3521
   54MOL0     C 7376   7.661   0.827   3.954  0.0164 -0.6582  1.7373
   54MOL0     C 7377   7.580   0.754   4.052  0.8900  0.3972 -0.3165
   54MOL0     C 7378   7.455   0.816   4.087  0.0023  1.1334 -0.8767
   54MOL0     C 7379   7.356   0.875   4.125 -0.2453 -0.0204 -0.7377
   54MOL0     C 7380   7.730   0.705   3.479 -0.1745  0.0712 -1.1842
   54MOL0     C 7381   7.755   0.622   3.374  0.3014  0.1209 -0.2940
   54MOL0     C 7382   7.815   0.487   3.393  0.3384  0.1182 -0.1095
   54MOL0     H 7383   7.522   0.384   2.897 -0.2849  1.1424  1.7153
   54MOL0     H 7384   7.562   0.267   2.668  1.5666 -1.6388  0.3730
   54MOL0     H 7385   7.676   0.354   2.376 -2.0862 -1.3014 -1.7771
   54MOL0     H 7386   7.647   0.207   2.448  0.1795  0.7951  0.2674
   54MOL0     H 7387   7.871   0.297   2.267 -0.0210  1.4600  1.9911
   54MOL0     H 7388   7.896   0.150   2.362 -0.9457 -0.6298  0.6417
   54MOL0     H 7389   7.663   0.159   2.171 -0.6602  0.4401  0.7009
   54MOL0     H 7390   7.837   0.101   2.147  0.3402  0.5336  1.4961
   54MOL0     H 7391   7.629   0.013   2.364  1.7111 -2.3800  2.4838
   54MOL0     H 7392   7.648  -0.049   2.196  0.5359  3.5391 -1.6375
   54MOL0     H 7393   7.843  -0.072   2.422  2.4854  3.0520 -2.5992
   54MOL0     H 7394   7.874  -0.114   2.251 -1.2098 -0.4637 -0.9873
   54MOL0     H 7395   7.624  -0.219   2.373 -0.2156  2.0201 -0.3781
   54MOL0     H 7396   7.710  -0.298   2.237 -1.1111  0.6344  0.0022
   54MOL0     H 7397   7.820  -0.312   2.520 -0.1209 -0.8450 -0.0522
   54MOL0     H 7398   7.887  -0.394   2.378  1.6063  1.2308 -1.0564
   54MOL0     H 7399   7.735  -0.539   2.521 -2.4174  0.1838  1.5689
   54MOL0     H 7400   7.612  -0.418   2.491 -0.4198  1.5743 -1.0713
   54MOL0     H 7401   7.517  -0.431   2.209  0.2157 -0.7646 -0.5507
   54MOL0     H 7402   7.387  -0.647   2.056 -1.1669  0.8058 -3.7681
   54MOL0     H 7403   7.502  -0.775   2.014 -1.9651 -0.4658  0.0639
   54MOL0     H 7404   7.512  -0.485   1.927  2.3294  0.4835  3.2270
   54MOL0     H 7405   7.645  -0.577   1.895 -0.0576  1.3966  0.2958
   54MOL0     H 7406   7.482  -0.581   1.695 -2.3136 -0.7269 -0.7771
   54MOL0     H 7407   7.541  -0.735   1.737 -2.1603  1.0115 -6.5998
   54MOL0     H 7408   7.303  -0.722   1.668 -2.8612 -3.0649  1.1865
   54MOL0     H 7409   7.332  -0.806   1.811  2.4206 -1.3818 -2.6739
   54MOL0     H 7410   7.251  -0.404   1.969  3.0372  3.2309  0.7330
   54MOL0     H 7411   7.242  -0.178   2.004  2.1643  0.5014 -0.8681
   54MOL0     H 7412   7.130  -0.091   1.882  0.4605  1.6953  0.4296
   54MOL0     H 7413   7.310  -0.075   1.879  0.2731 -0.6898 -0.8794
   54MOL0     H 7414   7.400   0.157   1.563  0.7463 -2.0793 -0.4733
   54MOL0     H 7415   7.353   0.380   1.447 -2.0634  1.2324  1.0543
   54MOL0     H 7416   7.191   0.393   1.054 -2.5177 -2.6579 -0.0861
   54MOL0     H 7417   7.037   0.421   1.137  0.7851 -0.9119  1.4504
   54MOL0     H 7418   7.085   0.642   1.036  2.4433  2.4553 -0.7569
   54MOL0     H 7419   7.127   0.659   1.200 -0.7280 -1.5640 -0.0471
   54MOL0     H 7420   7.330   0.544   1.005 -2.1921  0.7445 -0.2892
   54MOL0     H 7421   7.366   0.625   1.153  0.0216 -0.2553  0.6843
   54MOL0     H 7422   7.233   0.824   1.033  0.6020  2.0171 -0.1965
   54MOL0     H 7423   7.265   0.739   0.890 -0.1378 -0.9919  0.9826
   54MOL0     H 7424   7.500   0.746   0.912 -0.0627 -0.0965 -1.4202
   54MOL0     H 7425   7.445   0.908   0.927  0.7729 -0.1155 -1.4951
   54MOL0     H 7426   7.614   0.895   1.078  0.0113 -0.1127  1.9402
   54MOL0     H 7427   7.554   0.745   1.158 -0.4375  0.4634  3.0762
   54MOL0     H 7428   7.364   0.867   1.250 -1.2506 -0.7407 -2.7677
   54MOL0     H 7429   7.408   1.005   1.159 -1.1413 -0.1928  0.9413
   54MOL0     H 7430   7.644   1.012   1.279 -0.5251  3.6501  2.2236
   54MOL0     H 7431   7.581   0.872   1.366  0.9512  0.5396 -0.6544
   54MOL0     H 7432   7.077   0.196   1.192 -2.7289 -1.7175  2.1398
   54MOL0     H 7433   7.100  -0.020   1.315  1.9725 -1.2375  1.4191
   54MOL0     H 7434   7.186  -0.347   1.471  3.2976  1.8132 -0.1019
   54MOL0     H 7435   7.186  -0.561   1.577  0.7911 -0.3654  0.3480
   54MOL0     H 7436   7.924   0.472   2.650 -0.8815  1.0599 -1.5934
   54MOL0     H 7437   7.889   0.589   2.862  2.7116 -1.1827  0.0679
   54MOL0     H 7438   7.652   0.824   3.120 -3.5090  2.0914  0.9316
   54MOL0     H 7439   7.617   0.983   3.327  4.2714  0.4401 -1.5339
   54MOL0     H 7440   7.792   0.856   3.684 -0.4128  0.3026  0.2408
   54MOL0     H 7441   7.707   0.996   3.751 -1.3619  1.1763 -1.5084
   54MOL0     H 7442   7.623   0.714   3.767 -1.3196  0.0263  1.9935
   54MOL0     H 7443   7.516   0.835   3.799  0.1912 -0.2389  2.0745
   54MOL0     H 7444   7.765   0.795   3.965  0.7457  1.2563  0.8093
   54MOL0     H 7445   7.663   0.932   3.982 -1.9138  0.1037 -0.6687
   54MOL0     H 7446   7.637   0.727   4.142 -0.5018  0.2401  0.5375
   54MOL0     H 7447   7.554   0.659   4.004  3.7178  0.4588 -2.2096
   54MOL0     H 7448   7.270   0.938   4.137 -0.9902  0.0465 -5.0453
   54MOL0     H 7449   7.755   0.686   3.582  2.1672  4.6210 -0.6676
   54MOL0     H 7450   7.755   0.400   3.364  0.9109 -0.5554  0.6974
   54MOL0     H 7451   7.916   0.467   3.358  1.3321  1.9380  1.5276
   54MOL0     H 7452   7.830   0.472   3.500  0.8929 -0.6353 -0.2906
   55MOL0     O 7453   7.532   0.331   5.566 -0.6020 -0.1052  0.6347
   55MOL0     C 7454   7.584   0.406   5.485  0.1338 -0.6561  0.5251
   55MOL0     O 7455   7.552   0.531   5.467  0.2390 -0.1966 -0.0916
   55MOL0     C 7456   7.434   0.577   5.513  0.7036 -0.4647 -0.4461
   55MOL0     C 7457   7.310   0.519   5.564  0.0943 -1.0208  0.1372
   55MOL0     C 7458   7.193   0.594   5.583 -0.1655 -0.0932  0.0730
   55MOL0     C 7459   7.198   0.739   5.570  0.6129  0.4569 -0.1315
   55MOL0     O 7460   7.090   0.827   5.605 -1.1859 -0.5050  0.7781
   55MOL0     C 7461   6.985   0.768   5.677  0.2195 -0.8541 -0.1929
   55MOL0     C 7462   6.872   0.862   5.716 -0.1623  0.2282 -0.6470
   55MOL0     C 7463   6.926   0.960   5.827 -1.1851  0.0062  0.4327
   55MOL0     C 7464   6.826   1.001   5.929 -0.0707 -0.5586 -0.5591
   55MOL0     C 7465   6.686   1.031   5.875 -0.2560 -0.1375 -0.1463
   55MOL0     C 7466   6.609   1.113   5.976 -0.6223 -0.4513 -0.0436
   55MOL0     C 7467   6.454   1.098   5.933 -0.4403 -0.3759  0.5046
   55MOL0     C 7468   6.370   1.172   6.037 -0.3664 -1.2523 -0.1545
   55MOL0     N 7469   6.229   1.172   6.006  0.4341 -0.0673  0.3911
   55MOL0     C 7470   6.143   1.084   6.061  0.1749  0.0393  0.0326
   55MOL0     C 7471   6.021   1.101   6.004  1.1634  0.0008  0.4067
   55MOL0     C 7472   5.884   1.037   6.034 -0.2372 -0.2375 -0.0058
   55MOL0     C 7473   5.887   0.887   6.038 -0.1227  0.7914 -0.9097
   55MOL0     C 7474   5.980   0.834   6.156  0.3075 -0.4741  1.4618
   55MOL0     C 7475   5.941   0.685   6.180 -0.3509  0.1592  0.3127
   55MOL0     O 7476   5.987   0.587   6.082  0.0821  0.0884 -0.4573
   55MOL0     C 7477   5.959   0.457   6.112  0.1176 -0.1117 -1.2704
   55MOL0     C 7478   6.017   0.350   6.033  0.2528  0.2966  0.4400
   55MOL0     C 7479   6.003   0.212   6.064  0.3250 -0.6405 -0.4012
   55MOL0     C 7480   6.078   0.111   5.983 -0.0435  0.2965 -0.3607
   55MOL0     C 7481   5.935   0.173   6.183  1.1120 -0.4145  0.3417
   55MOL0     C 7482   5.924   0.036   6.219  0.1937 -0.5999 -0.1955
   55MOL0     O 7483   5.797  -0.005   6.270  0.6465 -0.6213  0.3150
   55MOL0     C 7484   5.774  -0.127   6.331  0.2216 -0.4333  0.2149
   55MOL0     C 7485   5.646  -0.191   6.337 -0.4202  0.2536  0.5395
   55MOL0     C 7486   5.624  -0.302   6.413 -0.0374  0.4887  0.0781
   55MOL0     C 7487   5.722  -0.365   6.481 -0.3301 -0.2569 -0.7168
   55MOL0     O 7488   5.702  -0.492   6.545 -0.3859  0.9224 -0.3989
   55MOL0     C 7489   5.768  -0.533   6.663 -0.1631 -0.5284 -0.9456
   55MOL0     C 7490   5.694  -0.623   6.754  0.1234 -0.3135 -0.3901
   55MOL0     C 7491   5.683  -0.771   6.705 -0.4013  0.3834  0.1188
   55MOL0     C 7492   5.814  -0.853   6.704  0.1540  0.3840 -0.2573
   55MOL0     C 7493   5.798  -1.004   6.667 -0.0855 -0.3682 -0.6367
   55MOL0     C 7494   5.919  -1.093   6.710 -0.6926 -0.3530 -0.0779
   55MOL0     C 7495   5.975  -1.189   6.614  0.1505 -0.8092  0.5873
   55MOL0     C 7496   5.877  -1.301   6.567 -0.3906 -0.2792 -0.9912
   55MOL0    Cl 7497   5.773  -1.240   6.437 -0.2075  0.0220  0.7721
   55MOL0     C 7498   5.840  -0.298   6.497 -0.8943  1.1073  0.6715
   55MOL0     C 7499   5.871  -0.187   6.418 -0.6012  0.7310  0.2183
   55MOL0     O 7500   6.023  -0.032   6.209  0.9475 -0.2994 -0.8375
   55MOL0     C 7501   5.880   0.276   6.268 -0.2416  0.0240  0.4634
   55MOL0     C 7502   5.887   0.414   6.228 -0.2429 -0.7533  0.7538
   55MOL0     N 7503   6.033   1.211   5.918 -0.3135  0.1370  0.8653
   55MOL0     N 7504   6.162   1.257   5.919 -0.5872 -0.0071  0.3265
   55MOL0     C 7505   7.316   0.799   5.526 -0.4039 -0.0361  0.2634
   55MOL0     C 7506   7.428   0.717   5.495  0.1853 -0.4541  0.2063
   55MOL0     C 7507   7.701   0.363   5.399 -0.1229 -0.1515  1.1088
   55MOL0     C 7508   7.682   0.252   5.314 -0.2853  0.2422  0.9261
   55MOL0     C 7509   7.783   0.210   5.218  0.2736  0.0315 -0.1138
   55MOL0     C 7510   7.908   0.273   5.214  0.7617 -0.7668 -0.4644
   55MOL0     O 7511   8.007   0.240   5.116 -0.0620 -0.5461 -0.5310
   55MOL0     C 7512   7.981   0.154   5.007  0.0131  0.2169  0.1660
   55MOL0     C 7513   7.913   0.234   4.893  0.2635  0.4499  0.4687
   55MOL0     C 7514   7.887   0.136   4.777  0.6409 -0.4361  0.8737
   55MOL0     C 7515   7.753   0.187   4.720  0.2709 -0.0975 -0.6633
   55MOL0     C 7516   7.634   0.118   4.780  0.4170  0.1705  0.8989
   55MOL0     C 7517   7.537   0.064   4.832 -0.0110  0.5894  0.9027
   55MOL0     C 7518   7.928   0.372   5.314  0.6673  0.3241 -0.0627
   55MOL0     C 7519   7.833   0.416   5.411  1.5766 -0.3757  0.3269
   55MOL0     C 7520   7.859   0.515   5.526 -0.1531  0.3059 -0.1573
   55MOL0     H 7521   7.295   0.414   5.590 -2.4923 -1.1974 -1.6404
   55MOL0     H 7522   7.101   0.545   5.613 -0.2256  0.6524  1.1821
   55MOL0     H 7523   7.018   0.732   5.775 -1.6900 -1.5705  0.2369
   55MOL0     H 7524   6.949   0.691   5.609  2.8062 -1.3676 -1.0837
   55MOL0     H 7525   6.843   0.905   5.620 -0.5784  1.9969  0.2295
   55MOL0     H 7526   6.788   0.800   5.750 -0.4370  0.6142 -0.6096
   55MOL0     H 7527   7.011   0.914   5.877  0.0595 -2.7171 -3.6937
   55MOL0     H 7528   6.971   1.047   5.778  1.7133 -1.0600  1.0037
   55MOL0     H 7529   6.815   0.936   6.016 -2.8685  1.6326  0.8744
   55MOL0     H 7530   6.860   1.089   5.984 -1.7144 -0.7682  0.9089
   55MOL0     H 7531   6.635   0.935   5.863 -0.5617  0.1397 -1.1774
   55MOL0     H 7532   6.686   1.094   5.785  2.4533  0.0206 -0.1058
   55MOL0     H 7533   6.623   1.076   6.078 -0.2642 -1.7980 -0.5621
   55MOL0     H 7534   6.647   1.216   5.971 -0.1956 -0.6511 -4.1270
   55MOL0     H 7535   6.427   0.993   5.944  1.5426 -1.1820 -1.5443
   55MOL0     H 7536   6.437   1.124   5.828  0.6756  0.4939  0.5167
   55MOL0     H 7537   6.394   1.125   6.133 -1.2367 -2.6013 -0.5749
   55MOL0     H 7538   6.391   1.279   6.046  1.4239 -1.5048 -0.9125
   55MOL0     H 7539   6.153   1.027   6.153  4.1766  0.6291  0.1619
   55MOL0     H 7540   5.815   1.066   5.955 -0.4732  5.4955  1.8652
   55MOL0     H 7541   5.855   1.092   6.124  1.9084  2.7286 -0.9978
   55MOL0     H 7542   5.783   0.864   6.061  0.7486 -0.9781  1.9405
   55MOL0     H 7543   5.929   0.838   5.950 -0.0852  1.4273 -1.2530
   55MOL0     H 7544   6.084   0.839   6.123 -0.5480  1.1939 -1.2674
   55MOL0     H 7545   5.955   0.893   6.245 -0.4567  0.1609  0.8388
   55MOL0     H 7546   5.964   0.656   6.282 -1.5672 -0.4090  0.4347
   55MOL0     H 7547   5.833   0.680   6.197 -0.1012 -1.0149  1.6724
   55MOL0     H 7548   6.089   0.372   5.955  2.3760 -1.8346  1.6562
   55MOL0     H 7549   6.013   0.034   5.941 -1.6281  1.0055  0.7034
   55MOL0     H 7550   6.165   0.070   6.035  1.4611  0.6560 -2.4549
   55MOL0     H 7551   6.120   0.153   5.891  0.0774  1.2599  0.1190
   55MOL0     H 7552   5.561  -0.152   6.282  0.2129 -1.1644 -1.5216
   55MOL0     H 7553   5.527  -0.350   6.416 -0.1589  0.7709  1.1550
   55MOL0     H 7554   5.856  -0.591   6.633 -0.3611 -2.2388  1.5131
   55MOL0     H 7555   5.807  -0.449   6.721  2.9167 -1.5412 -1.3327
   55MOL0     H 7556   5.745  -0.639   6.850  1.3709  2.1226 -0.5614
   55MOL0     H 7557   5.592  -0.589   6.776 -0.0870  1.0726 -3.1235
   55MOL0     H 7558   5.636  -0.765   6.606 -3.4669  0.9490  1.4966
   55MOL0     H 7559   5.612  -0.820   6.772  1.4207 -2.2576  0.2609
   55MOL0     H 7560   5.861  -0.846   6.802 -1.7492 -2.4681  0.9864
   55MOL0     H 7561   5.884  -0.811   6.631  1.0558 -2.9268 -1.4718
   55MOL0     H 7562   5.710  -1.050   6.711 -0.4902  0.0629 -0.9918
   55MOL0     H 7563   5.786  -1.000   6.559  1.9681 -0.0955 -0.9044
   55MOL0     H 7564   5.899  -1.152   6.800  1.8788  0.3367  1.0360
   55MOL0     H 7565   5.996  -1.021   6.740 -0.5313  0.7219 -2.7565
   55MOL0     H 7566   6.064  -1.232   6.662 -1.0456 -1.7232  2.0803
   55MOL0     H 7567   6.009  -1.134   6.526 -4.2153 -2.2440 -2.2526
   55MOL0     H 7568   5.806  -1.338   6.642 -0.8173  1.7675 -0.3123
   55MOL0     H 7569   5.950  -1.378   6.540 -0.6770 -1.4932  1.4291
   55MOL0     H 7570   5.918  -0.356   6.545 -0.7921  0.0469 -0.7080
   55MOL0     H 7571   5.973  -0.150   6.416  0.4080 -1.5018  3.1943
   55MOL0     H 7572   5.831   0.259   6.363 -0.4670 -1.1469  0.1477
   55MOL0     H 7573   5.837   0.481   6.297 -0.1413  0.4636 -0.3095
   55MOL0     H 7574   7.337   0.906   5.524  0.1526 -0.1233  0.8714
   55MOL0     H 7575   7.508   0.776   5.451 -0.7421  0.5978 -0.1032
   55MOL0     H 7576   7.584   0.205   5.305  0.2388 -0.5361 -2.2391
   55MOL0     H 7577   7.766   0.126   5.151  1.5969  0.3356 -0.8709
   55MOL0     H 7578   8.072   0.121   4.957 -1.2829 -0.5629 -1.7792
   55MOL0     H 7579   7.920   0.065   5.023 -1.1164  0.6741 -1.3954
   55MOL0     H 7580   7.973   0.319   4.861  0.7585  0.7931  2.2116
   55MOL0     H 7581   7.817   0.273   4.927 -1.7622 -0.1855 -3.7700
   55MOL0     H 7582   7.970   0.141   4.706 -1.3549 -1.8049 -1.7282
   55MOL0     H 7583   7.875   0.034   4.816 -1.7282 -0.5636 -0.0030
   55MOL0     H 7584   7.761   0.164   4.613 -0.9094 -2.1236 -0.3564
   55MOL0     H 7585   7.740   0.293   4.744  0.6513 -0.1512 -0.2071
   55MOL0     H 7586   7.468   0.012   4.896 -0.6886 -0.7101 -0.8069
   55MOL0     H 7587   8.029   0.412   5.313  2.3116 -3.0956  3.3979
   55MOL0     H 7588   7.967   0.536   5.525 -0.5038  3.4076 -4.1030
   55MOL0     H 7589   7.810   0.612   5.508  1.2250  0.8280 -1.3787
   55MOL0     H 7590   7.821   0.472   5.618  0.8827  0.1473  0.2127
   56MOL0     O 7591   0.994   7.638   8.649  0.2595 -0.5431  0.0099
   56MOL0     C 7592   1.034   7.694   8.756 -0.8120  0.3864  0.1685
   56MOL0     O 7593   1.056   7.635   8.873 -0.2292  0.5627 -0.4567
   56MOL0     C 7594   1.117   7.516   8.877 -1.0840  0.5222 -0.8775
   56MOL0     C 7595   1.111   7.454   8.999 -0.9203 -0.0333 -0.2671
   56MOL0     C 7596   1.173   7.329   9.022 -0.5820 -0.4210  0.6054
   56MOL0     C 7597   1.241   7.263   8.917 -1.4463  0.2002  0.4501
   56MOL0     O 7598   1.314   7.147   8.936 -0.6296 -0.0690  0.1116
   56MOL0     C 7599   1.369   7.113   9.060 -1.2164 -0.7149 -0.0659
   56MOL0     C 7600   1.511   7.167   9.082 -0.5103  0.8214  0.4473
   56MOL0     C 7601   1.510   7.322   9.126  0.1447 -0.1714  0.0673
   56MOL0     C 7602   1.659   7.366   9.161 -1.0203 -0.6658  0.1466
   56MOL0     C 7603   1.667   7.517   9.209 -0.1094 -0.0903 -0.2052
   56MOL0     C 7604   1.812   7.549   9.252  0.0114  0.1407 -0.0062
   56MOL0     C 7605   1.814   7.702   9.265  0.1241 -0.0470 -0.0697
   56MOL0     C 7606   1.953   7.754   9.294 -0.2737  0.2717 -0.4078
   56MOL0     N 7607   1.955   7.898   9.241 -1.1987 -0.0197 -1.2208
   56MOL0     C 7608   2.052   7.934   9.157  0.2837 -0.5605  0.5481
   56MOL0     C 7609   2.028   8.064   9.125 -0.4130  0.5600 -0.6119
   56MOL0     C 7610   2.119   8.157   9.061  0.1190 -0.2048  0.2643
   56MOL0     C 7611   2.130   8.124   8.912 -0.8598  0.2070  0.7618
   56MOL0     C 7612   2.151   8.250   8.813  0.2848  0.0796  0.2505
   56MOL0     C 7613   2.022   8.324   8.792 -0.2546 -0.1736  0.6245
   56MOL0     O 7614   2.046   8.472   8.788  0.5060 -0.1897  0.9519
   56MOL0     C 7615   1.946   8.550   8.718 -0.3862 -0.3300  0.4743
   56MOL0     C 7616   1.942   8.688   8.741 -0.4880 -0.5661  0.4671
   56MOL0     C 7617   1.834   8.765   8.696  0.1245  0.2409  0.8266
   56MOL0     C 7618   1.846   8.916   8.731  0.5592  0.1839  0.0634
   56MOL0     C 7619   1.737   8.710   8.610 -0.3955 -0.3345  0.6237
   56MOL0     C 7620   1.620   8.779   8.546 -0.7282 -0.2005 -0.3386
   56MOL0     O 7621   1.529   8.694   8.488 -0.3462  0.4936 -0.6819
   56MOL0     C 7622   1.430   8.759   8.422 -0.0889  0.5175  0.0185
   56MOL0     C 7623   1.295   8.767   8.488 -0.6294 -0.0512  0.4912
   56MOL0     C 7624   1.183   8.809   8.418 -0.3530  0.0678 -0.0470
   56MOL0     C 7625   1.196   8.858   8.282 -0.1417 -0.4007 -0.3887
   56MOL0     O 7626   1.100   8.889   8.194  0.0924 -0.2574  0.3245
   56MOL0     C 7627   0.962   8.906   8.237  0.6154 -0.7924  0.2903
   56MOL0     C 7628   0.903   8.949   8.101 -0.1988 -1.1541  0.2127
   56MOL0     C 7629   0.765   9.009   8.130 -0.5343  0.1096  0.5983
   56MOL0     C 7630   0.679   8.890   8.159 -0.1888 -0.2145 -0.4815
   56MOL0     C 7631   0.541   8.906   8.094  0.1283  0.0847 -0.1629
   56MOL0     C 7632   0.432   8.813   8.159  0.1947 -0.5711 -0.6037
   56MOL0     C 7633   0.307   8.803   8.061 -0.4121  0.0011 -1.0912
   56MOL0     C 7634   0.191   8.732   8.121 -0.0765 -0.3490 -0.5906
   56MOL0    Cl 7635   0.038   8.760   8.017 -0.1018  0.0112  0.2221
   56MOL0     C 7636   1.328   8.851   8.225  0.4381  0.5043 -0.6768
   56MOL0     C 7637   1.448   8.806   8.293 -1.0591 -0.1440 -0.2149
   56MOL0     O 7638   1.622   8.906   8.536 -0.3589  0.1092  0.9669
   56MOL0     C 7639   1.745   8.575   8.585  0.6634  0.6918  0.4415
   56MOL0     C 7640   1.850   8.500   8.630  1.1687  0.0405  0.1926
   56MOL0     N 7641   1.925   8.114   9.195  0.3321  0.1394 -1.0785
   56MOL0     N 7642   1.878   8.008   9.266  0.8727  0.4026  0.0742
   56MOL0     C 7643   1.247   7.327   8.793 -1.3488 -0.8582 -0.6763
   56MOL0     C 7644   1.172   7.443   8.768 -0.1911  0.2262  0.6597
   56MOL0     C 7645   1.066   7.843   8.750  1.0865  0.7673 -0.7010
   56MOL0     C 7646   1.021   7.905   8.861  0.3818  0.4412  0.2088
   56MOL0     C 7647   1.045   8.045   8.870  0.6730  0.1505 -0.7144
   56MOL0     C 7648   1.119   8.116   8.777 -0.2597  0.6329  0.5813
   56MOL0     O 7649   1.145   8.249   8.793 -0.1764  0.4472  0.1012
   56MOL0     C 7650   1.227   8.283   8.897 -0.4278  0.1056  0.1164
   56MOL0     C 7651   1.299   8.408   8.851  0.5563  1.4912 -0.2451
   56MOL0     C 7652   1.412   8.431   8.948 -0.0281 -0.0499 -0.2863
   56MOL0     C 7653   1.495   8.542   8.928  1.0636  0.5403  0.3032
   56MOL0     C 7654   1.602   8.545   9.021 -0.6947  0.7440  0.5276
   56MOL0     C 7655   1.682   8.507   9.116 -0.4852  0.0656 -0.3869
   56MOL0     C 7656   1.151   8.051   8.655 -0.3186 -0.1148  0.4735
   56MOL0     C 7657   1.128   7.911   8.639  0.6301 -0.2326 -0.7859
   56MOL0     C 7658   1.182   7.848   8.513  0.9262 -0.0508  0.2196
   56MOL0     H 7659   1.053   7.492   9.082 -0.2560 -1.3529  0.8327
   56MOL0     H 7660   1.154   7.270   9.111 -0.5325 -2.2541 -0.5505
   56MOL0     H 7661   1.361   7.004   9.067 -2.6863 -0.5789  0.5529
   56MOL0     H 7662   1.299   7.147   9.137 -2.4312  1.8087 -2.1329
   56MOL0     H 7663   1.549   7.100   9.159 -0.9592 -0.9455 -0.7944
   56MOL0     H 7664   1.566   7.152   8.989 -1.7320 -0.8680 -0.0588
   56MOL0     H 7665   1.470   7.384   9.045  1.2479  1.5662  0.7976
   56MOL0     H 7666   1.446   7.331   9.214  0.3594 -3.7219  0.7111
   56MOL0     H 7667   1.699   7.300   9.238 -0.1015 -0.2721  0.0129
   56MOL0     H 7668   1.725   7.356   9.074 -1.8601 -0.0098 -0.5897
   56MOL0     H 7669   1.605   7.522   9.299  1.8223  1.5423  1.1096
   56MOL0     H 7670   1.636   7.577   9.124  1.4444  2.2344  0.7775
   56MOL0     H 7671   1.826   7.499   9.348 -1.3931  2.1121  1.3195
   56MOL0     H 7672   1.877   7.506   9.176  0.0309 -1.4652  0.8828
   56MOL0     H 7673   1.750   7.722   9.351 -0.6886 -1.2482 -0.3602
   56MOL0     H 7674   1.787   7.741   9.166 -0.2064 -1.1848 -0.4487
   56MOL0     H 7675   1.964   7.731   9.401 -0.8228 -2.0086 -0.7854
   56MOL0     H 7676   2.031   7.698   9.242 -1.6345 -1.0861 -1.0813
   56MOL0     H 7677   2.140   7.875   9.136  1.4670  0.8428  1.3668
   56MOL0     H 7678   2.219   8.165   9.104  3.1726  1.4638 -6.0068
   56MOL0     H 7679   2.074   8.257   9.068  1.4053  0.5608 -1.5187
   56MOL0     H 7680   2.215   8.056   8.903 -2.5968 -2.4358  2.5948
   56MOL0     H 7681   2.039   8.072   8.881 -0.6074  0.5764 -0.6381
   56MOL0     H 7682   2.216   8.322   8.864  1.7479 -1.5548  0.7916
   56MOL0     H 7683   2.194   8.229   8.715  2.1685 -0.2985  1.1232
   56MOL0     H 7684   1.995   8.289   8.692  3.6693  0.5610 -0.8931
   56MOL0     H 7685   1.947   8.291   8.864 -1.2135 -1.4245 -0.8974
   56MOL0     H 7686   2.025   8.730   8.797 -2.2008 -1.5592  4.0381
   56MOL0     H 7687   1.751   8.949   8.773  1.5014 -0.1147  2.5682
   56MOL0     H 7688   1.870   8.976   8.643 -3.4464  1.5781 -0.2812
   56MOL0     H 7689   1.927   8.940   8.801  3.3355 -2.2982 -2.0072
   56MOL0     H 7690   1.279   8.722   8.585  0.2678  1.7138  1.5136
   56MOL0     H 7691   1.090   8.822   8.473  0.7506  1.6496  1.5830
   56MOL0     H 7692   0.923   8.810   8.272 -0.7683 -0.1648  0.5237
   56MOL0     H 7693   0.943   8.985   8.310 -0.9496 -0.9807  0.1172
   56MOL0     H 7694   0.958   9.030   8.052  1.4190 -0.8016  2.4669
   56MOL0     H 7695   0.910   8.870   8.026 -1.4963 -1.8939  0.8258
   56MOL0     H 7696   0.729   9.073   8.049 -0.8919 -2.0467 -1.0220
   56MOL0     H 7697   0.764   9.077   8.216 -0.3021  0.5783  0.2377
   56MOL0     H 7698   0.674   8.875   8.267  3.0238  1.3845  0.0087
   56MOL0     H 7699   0.726   8.805   8.109 -0.0912 -1.5238  1.7391
   56MOL0     H 7700   0.527   9.015   8.095  2.0723  0.4993  3.9782
   56MOL0     H 7701   0.541   8.879   7.988  2.9753  1.7206 -0.6872
   56MOL0     H 7702   0.391   8.852   8.252 -0.4612  1.9976 -1.8847
   56MOL0     H 7703   0.477   8.714   8.174  3.0121  0.8041  0.4992
   56MOL0     H 7704   0.341   8.756   7.968 -2.1820  4.6849 -4.5514
   56MOL0     H 7705   0.271   8.902   8.030 -3.8098  0.6726  3.9305
   56MOL0     H 7706   0.169   8.776   8.219 -2.5823 -1.6281 -0.4836
   56MOL0     H 7707   0.218   8.627   8.131  1.9276 -0.0056 -2.0304
   56MOL0     H 7708   1.343   8.885   8.123  1.3127  3.1761  0.2553
   56MOL0     H 7709   1.544   8.800   8.243 -1.0699 -0.9497 -0.1672
   56MOL0     H 7710   1.669   8.530   8.522 -0.5251 -1.0537  2.9877
   56MOL0     H 7711   1.842   8.397   8.596 -2.3507  0.9350 -2.2461
   56MOL0     H 7712   1.306   7.266   8.726  1.7124 -1.8817  2.6441
   56MOL0     H 7713   1.161   7.483   8.667  0.3017  1.2977  1.0244
   56MOL0     H 7714   0.955   7.864   8.936 -2.4197  0.9377 -1.8239
   56MOL0     H 7715   1.031   8.103   8.961 -1.3226 -1.0480 -0.1883
   56MOL0     H 7716   1.166   8.308   8.985  1.1160 -1.2485  1.6275
   56MOL0     H 7717   1.305   8.209   8.911  0.5376  0.7368 -1.6264
   56MOL0     H 7718   1.218   8.480   8.857 -2.8476 -2.1146  2.2869
   56MOL0     H 7719   1.335   8.404   8.748 -1.8376  1.0672 -1.1201
   56MOL0     H 7720   1.370   8.419   9.048  2.3203 -0.3716  0.7266
   56MOL0     H 7721   1.477   8.343   8.944 -0.8962 -0.6788 -1.2084
   56MOL0     H 7722   1.426   8.626   8.940 -1.9909 -1.5880 -1.1036
   56MOL0     H 7723   1.532   8.543   8.825 -1.3466 -2.1744 -0.7334
   56MOL0     H 7724   1.726   8.493   9.213 -1.0316  0.0542 -0.1323
   56MOL0     H 7725   1.215   8.086   8.576  0.3079 -0.2954  0.8964
   56MOL0     H 7726   1.112   7.859   8.430 -0.6746  3.7222  1.8178
   56MOL0     H 7727   1.271   7.905   8.483 -0.7180  0.2302 -5.0519
   56MOL0     H 7728   1.221   7.747   8.527  1.0613  0.2504  2.4941
   57MOL0     O 7729   2.980   8.988   3.518  0.4666 -0.0621  0.8196
   57MOL0     C 7730   2.881   8.981   3.593 -0.3309 -0.8719 -0.7484
   57MOL0     O 7731   2.816   8.867   3.634 -0.5923  0.1553 -0.6694
   57MOL0     C 7732   2.896   8.762   3.649 -0.0800  0.6434 -0.6601
   57MOL0     C 7733   2.951   8.693   3.540  0.4175 -0.9655 -0.1322
   57MOL0     C 7734   3.019   8.576   3.569  0.7033 -0.5483 -0.2063
   57MOL0     C 7735   3.050   8.527   3.699  0.0381  0.3381 -0.7724
   57MOL0     O 7736   3.122   8.409   3.729  0.1662  1.1405  0.5915
   57MOL0     C 7737   3.159   8.331   3.620 -0.4972  0.3615  0.0853
   57MOL0     C 7738   3.205   8.189   3.673  0.9769 -0.9838  0.1682
   57MOL0     C 7739   3.084   8.122   3.741  0.0568  0.8597  0.0309
   57MOL0     C 7740   3.122   7.970   3.754 -0.3409  1.2201  0.1063
   57MOL0     C 7741   3.017   7.896   3.844  0.4148 -0.2040  0.8466
   57MOL0     C 7742   3.025   7.741   3.839 -0.3545 -0.4727  0.3958
   57MOL0     C 7743   2.903   7.660   3.883 -1.4633  0.1303  0.3274
   57MOL0     C 7744   2.790   7.677   3.775  0.0430  0.0344 -0.3218
   57MOL0     N 7745   2.700   7.558   3.769 -0.6865 -0.9014  0.2750
   57MOL0     C 7746   2.703   7.457   3.675  0.1489  0.6786  0.1509
   57MOL0     C 7747   2.610   7.372   3.716  0.4856 -0.1547 -0.4792
   57MOL0     C 7748   2.574   7.255   3.630 -0.0103  0.3884  0.4868
   57MOL0     C 7749   2.426   7.257   3.594 -0.7096 -0.1822 -0.3285
   57MOL0     C 7750   2.395   7.126   3.534  0.2968  0.0859  0.3162
   57MOL0     C 7751   2.249   7.114   3.490  0.5228  0.2828  1.1456
   57MOL0     O 7752   2.234   7.197   3.367 -1.0123  0.7594  0.5921
   57MOL0     C 7753   2.120   7.261   3.338  0.3284  0.4754  0.6328
   57MOL0     C 7754   1.990   7.210   3.364 -0.1355 -0.7517  0.4292
   57MOL0     C 7755   1.887   7.298   3.359 -0.1397 -0.3290  0.2344
   57MOL0     C 7756   1.758   7.266   3.440  0.0164  0.4294  0.0174
   57MOL0     C 7757   1.906   7.426   3.299  0.3242 -0.5263 -0.5501
   57MOL0     C 7758   1.798   7.523   3.261 -0.2423 -0.4602  0.0453
   57MOL0     O 7759   1.838   7.652   3.227  0.4195  0.7463 -0.2029
   57MOL0     C 7760   1.747   7.745   3.179  0.1863 -1.2712  0.4110
   57MOL0     C 7761   1.780   7.882   3.218 -0.0741  0.1242  0.2879
   57MOL0     C 7762   1.698   7.988   3.175  0.4837  0.4211 -0.6192
   57MOL0     C 7763   1.602   7.962   3.076 -0.1571  0.2332  0.3620
   57MOL0     O 7764   1.515   8.058   3.033  0.1243 -0.3907 -0.9408
   57MOL0     C 7765   1.577   8.196   3.013  1.0964 -0.4449  0.2056
   57MOL0     C 7766   1.561   8.305   3.124  0.0653 -0.7597  0.4065
   57MOL0     C 7767   1.603   8.455   3.096 -0.7609  0.3056 -0.2368
   57MOL0     C 7768   1.735   8.456   3.018  0.0121 -0.9309  0.5820
   57MOL0     C 7769   1.786   8.600   3.006 -0.1568  0.4585  0.4130
   57MOL0     C 7770   1.679   8.695   2.946  0.3353 -1.0007 -0.1065
   57MOL0     C 7771   1.753   8.817   2.892  0.1612  0.9083 -0.2111
   57MOL0     C 7772   1.665   8.941   2.888  0.7921  0.2415  0.5757
   57MOL0    Cl 7773   1.539   8.929   2.750  0.1037 -0.1328 -0.0924
   57MOL0     C 7774   1.567   7.833   3.038 -0.1069 -0.1870  0.3423
   57MOL0     C 7775   1.638   7.721   3.091  1.3275 -0.2802 -0.6545
   57MOL0     O 7776   1.685   7.481   3.258 -0.2618  0.4850  0.1706
   57MOL0     C 7777   2.037   7.468   3.265 -0.7365  0.8711  0.1221
   57MOL0     C 7778   2.143   7.389   3.288 -0.2836  0.3887 -0.0006
   57MOL0     N 7779   2.547   7.420   3.822 -0.0258 -0.2241 -0.7706
   57MOL0     N 7780   2.601   7.534   3.854  0.2362  0.1931  0.3723
   57MOL0     C 7781   2.987   8.599   3.808  0.6725 -0.6488  0.4677
   57MOL0     C 7782   2.914   8.714   3.783 -0.1897 -0.4654  0.3852
   57MOL0     C 7783   2.828   9.120   3.632 -0.2682 -1.2187 -0.1594
   57MOL0     C 7784   2.870   9.237   3.565  0.1294 -1.2381  0.4790
   57MOL0     C 7785   2.802   9.358   3.580  0.6609 -0.0956 -0.1087
   57MOL0     C 7786   2.694   9.365   3.664  0.2841 -0.7555  0.7196
   57MOL0     O 7787   2.641   9.498   3.677  0.5225  0.7052 -0.3042
   57MOL0     C 7788   2.508   9.527   3.694 -0.6373 -0.0765 -0.5018
   57MOL0     C 7789   2.432   9.528   3.561 -0.4555  0.1836 -0.7083
   57MOL0     C 7790   2.283   9.562   3.576  0.5044  0.7245  0.1798
   57MOL0     C 7791   2.184   9.454   3.606 -0.5233  0.2434 -0.3978
   57MOL0     C 7792   2.047   9.459   3.538 -1.0866  1.2252  0.1751
   57MOL0     C 7793   1.944   9.449   3.482  1.2886  0.9719  1.3727
   57MOL0     C 7794   2.661   9.257   3.740  0.3486 -0.0764  0.5630
   57MOL0     C 7795   2.717   9.134   3.727  0.7139 -0.0516  0.5480
   57MOL0     C 7796   2.664   9.022   3.824 -0.7903 -0.1523  0.7316
   57MOL0     H 7797   2.929   8.715   3.436 -0.5211 -4.2708 -0.7395
   57MOL0     H 7798   3.050   8.521   3.481  1.3705 -1.1347  0.3759
   57MOL0     H 7799   3.238   8.367   3.553 -0.6560 -1.4117 -1.1188
   57MOL0     H 7800   3.087   8.317   3.539 -0.2220 -2.2141  0.2084
   57MOL0     H 7801   3.259   8.139   3.592  0.1859 -1.4280 -0.0996
   57MOL0     H 7802   3.278   8.206   3.752  1.5377  1.0552 -0.6970
   57MOL0     H 7803   3.064   8.169   3.837 -1.3067 -1.5519  1.0089
   57MOL0     H 7804   2.999   8.114   3.672 -1.3456 -0.5575  1.8106
   57MOL0     H 7805   3.122   7.912   3.661 -3.0523  0.7848  0.2969
   57MOL0     H 7806   3.222   7.970   3.799  0.6592 -1.7697 -1.8189
   57MOL0     H 7807   2.926   7.937   3.799  0.7117  2.0512  2.1596
   57MOL0     H 7808   3.019   7.917   3.952  2.2971  0.3522  0.7312
   57MOL0     H 7809   3.041   7.717   3.733 -1.6660  1.1389 -0.2135
   57MOL0     H 7810   3.118   7.705   3.882 -0.2500  0.4943  0.9979
   57MOL0     H 7811   2.872   7.686   3.985 -0.9986 -2.3591  1.1793
   57MOL0     H 7812   2.938   7.557   3.892 -1.0899  0.3115  1.0609
   57MOL0     H 7813   2.726   7.762   3.800  1.2154  0.1899  2.4225
   57MOL0     H 7814   2.838   7.690   3.677 -0.0879  2.4446 -0.1412
   57MOL0     H 7815   2.769   7.450   3.589 -2.4425 -0.8377 -1.8293
   57MOL0     H 7816   2.605   7.161   3.677 -1.9836  0.8900  3.0150
   57MOL0     H 7817   2.629   7.262   3.536 -4.0009 -0.4170 -2.1870
   57MOL0     H 7818   2.361   7.276   3.680  1.9765 -0.1188  1.8153
   57MOL0     H 7819   2.420   7.332   3.514 -0.6818  0.1903  0.0191
   57MOL0     H 7820   2.451   7.105   3.442 -0.2076 -0.9073  0.2221
   57MOL0     H 7821   2.438   7.059   3.609 -0.5854  1.2114  1.8907
   57MOL0     H 7822   2.227   7.008   3.473 -2.3510  1.3305 -3.3712
   57MOL0     H 7823   2.186   7.160   3.567  2.7159  2.0836  1.9662
   57MOL0     H 7824   1.980   7.119   3.423  1.5165 -1.0294  0.3470
   57MOL0     H 7825   1.681   7.344   3.438 -0.1712  0.2455 -1.7726
   57MOL0     H 7826   1.780   7.251   3.546 -2.4240 -1.4426  0.3484
   57MOL0     H 7827   1.699   7.185   3.398 -0.1619  0.9953 -0.8625
   57MOL0     H 7828   1.858   7.886   3.293 -1.7910  0.0957  2.1442
   57MOL0     H 7829   1.710   8.089   3.213 -1.5546  0.2479  0.6486
   57MOL0     H 7830   1.685   8.183   3.004  0.7184 -4.0366 -0.7654
   57MOL0     H 7831   1.538   8.233   2.918  2.4402 -1.7754 -0.9190
   57MOL0     H 7832   1.457   8.300   3.158  0.6456  2.9286  3.5053
   57MOL0     H 7833   1.622   8.271   3.208  1.1515 -0.9250 -0.4293
   57MOL0     H 7834   1.595   8.532   3.173  0.5518  0.3276 -0.0883
   57MOL0     H 7835   1.524   8.493   3.031 -2.6611  0.2644  1.9162
   57MOL0     H 7836   1.711   8.419   2.918  0.2873  3.0338 -1.1451
   57MOL0     H 7837   1.812   8.392   3.063  1.3379  2.0561  2.9573
   57MOL0     H 7838   1.813   8.634   3.106 -3.2375 -2.2205  2.3539
   57MOL0     H 7839   1.877   8.601   2.945 -0.8272 -1.6013 -0.7163
   57MOL0     H 7840   1.616   8.726   3.030  0.6930 -2.1143  0.5951
   57MOL0     H 7841   1.618   8.665   2.861  1.3846  2.3878 -2.2725
   57MOL0     H 7842   1.791   8.794   2.792 -1.8987  4.5775 -2.0503
   57MOL0     H 7843   1.839   8.836   2.957 -1.0561 -0.6917  2.0048
   57MOL0     H 7844   1.737   9.017   2.857  1.3060 -0.9646 -1.4612
   57MOL0     H 7845   1.621   8.967   2.984  0.3614  0.5062  0.3095
   57MOL0     H 7846   1.485   7.816   2.969  0.6498  0.6977 -0.8460
   57MOL0     H 7847   1.607   7.624   3.053 -2.3692  0.5123 -0.0535
   57MOL0     H 7848   2.057   7.555   3.203 -3.6046  0.8214 -1.0470
   57MOL0     H 7849   2.236   7.433   3.254 -0.3964  3.0817  2.7587
   57MOL0     H 7850   3.008   8.563   3.909  4.1072 -0.7000 -0.1277
   57MOL0     H 7851   2.857   8.774   3.852 -2.6740  0.3901 -2.2088
   57MOL0     H 7852   2.947   9.222   3.490  2.1628 -0.5240  2.3112
   57MOL0     H 7853   2.831   9.450   3.531 -3.4359  0.9075 -1.0058
   57MOL0     H 7854   2.468   9.451   3.762  1.4748 -1.4119 -0.6524
   57MOL0     H 7855   2.490   9.626   3.737  0.4788  0.7445 -1.8536
   57MOL0     H 7856   2.452   9.431   3.513  1.3957 -0.7363  1.7022
   57MOL0     H 7857   2.477   9.596   3.488 -2.0362  1.4166 -0.5963
   57MOL0     H 7858   2.265   9.639   3.653  0.1198 -0.7425  1.6244
   57MOL0     H 7859   2.250   9.616   3.487  0.6127 -2.5143 -1.9542
   57MOL0     H 7860   2.172   9.439   3.714 -0.8609 -0.1827 -0.4876
   57MOL0     H 7861   2.224   9.361   3.564  0.0621  1.5826 -2.9683
   57MOL0     H 7862   1.854   9.428   3.429  1.1222 -1.1010  2.3427
   57MOL0     H 7863   2.590   9.284   3.818 -3.3156 -0.0873 -2.4837
   57MOL0     H 7864   2.616   8.942   3.768  2.5187 -0.9564 -1.2590
   57MOL0     H 7865   2.748   8.978   3.879 -1.7123 -1.1237  1.3956
   57MOL0     H 7866   2.603   9.073   3.899 -3.0088  1.9873 -2.2738
   58MOL0     O 7867   1.853  10.014   1.371  0.7578  0.6718 -1.0024
   58MOL0     C 7868   1.873   9.891   1.372 -0.1460 -0.2648  0.1002
   58MOL0     O 7869   1.818   9.808   1.469 -0.5891  0.6233  0.2579
   58MOL0     C 7870   1.755   9.865   1.576  0.1861  0.0005 -0.7805
   58MOL0     C 7871   1.831   9.877   1.696  0.6642 -0.5148 -0.1165
   58MOL0     C 7872   1.769   9.942   1.805  0.3642  0.5296 -0.9331
   58MOL0     C 7873   1.639   9.980   1.799  0.5401 -0.5260 -0.6336
   58MOL0     O 7874   1.604  10.067   1.903 -0.7814  0.3588  1.0490
   58MOL0     C 7875   1.509  10.167   1.902  0.4199  1.0446 -0.0583
   58MOL0     C 7876   1.525  10.254   2.030 -0.5240  0.2893  1.2094
   58MOL0     C 7877   1.398  10.348   2.046 -0.2498 -0.4389  0.3541
   58MOL0     C 7878   1.446  10.486   2.100  0.8099 -0.2393  0.8733
   58MOL0     C 7879   1.342  10.586   2.067 -0.4086 -1.2710  0.0959
   58MOL0     C 7880   1.367  10.719   2.132  0.5094 -0.3561 -0.8446
   58MOL0     C 7881   1.285  10.831   2.075 -0.1207  0.1529 -1.2178
   58MOL0     C 7882   1.319  10.967   2.138  0.2612  0.4119  0.6352
   58MOL0     N 7883   1.244  10.996   2.269  0.4892 -0.1440  1.5958
   58MOL0     C 7884   1.305  10.972   2.382 -0.8040  1.1237 -1.6708
   58MOL0     C 7885   1.230  11.038   2.479  0.3128  0.2054 -0.4908
   58MOL0     C 7886   1.240  11.031   2.625 -0.3574 -0.0087 -0.1470
   58MOL0     C 7887   1.097  11.005   2.672  0.1247 -0.4520  0.2454
   58MOL0     C 7888   1.096  10.991   2.830  0.1956 -0.6516 -1.2027
   58MOL0     C 7889   1.164  11.114   2.903 -0.7992  0.3862  0.2668
   58MOL0     O 7890   1.099  11.239   2.882  0.4529 -0.6215 -0.1935
   58MOL0     C 7891   1.051  11.320   2.981  0.0304  0.4292  0.5521
   58MOL0     C 7892   0.952  11.406   2.939 -0.8377  0.4295  0.0395
   58MOL0     C 7893   0.880  11.481   3.027  0.2408  0.4146 -0.5507
   58MOL0     C 7894   0.771  11.571   2.969 -0.4929  0.0319 -0.3093
   58MOL0     C 7895   0.906  11.467   3.166  0.0509 -0.6451 -0.6033
   58MOL0     C 7896   0.831  11.515   3.286 -0.4350  0.5920 -0.1518
   58MOL0     O 7897   0.715  11.571   3.259 -0.4976 -0.4146  0.7661
   58MOL0     C 7898   0.624  11.581   3.357  0.0122  0.6059 -0.1365
   58MOL0     C 7899   0.491  11.527   3.337  0.9737 -0.9817 -0.7178
   58MOL0     C 7900   0.396  11.546   3.445  0.2237 -0.3502  0.1324
   58MOL0     C 7901   0.411  11.631   3.560  0.4317  0.1340 -0.5558
   58MOL0     O 7902   0.308  11.631   3.649 -0.3286 -0.3588  0.4391
   58MOL0     C 7903   0.271  11.755   3.707  0.5205 -0.6046  0.5745
   58MOL0     C 7904   0.127  11.734   3.759  0.1684  0.0826 -0.5580
   58MOL0     C 7905   0.084  11.833   3.857  0.2594 -1.2726 -0.5872
   58MOL0     C 7906  -0.057  11.787   3.921 -0.4409 -0.6151  0.3204
   58MOL0     C 7907  -0.087  11.878   4.040 -0.1296 -0.5767  0.8691
   58MOL0     C 7908  -0.224  11.852   4.105  0.7473  0.5024 -0.5673
   58MOL0     C 7909  -0.270  11.993   4.148 -0.8901 -0.1298 -0.3273
   58MOL0     C 7910  -0.180  12.066   4.257 -0.2981  0.6288 -0.1567
   58MOL0    Cl 7911  -0.140  11.947   4.393 -0.5551 -0.1980 -0.3159
   58MOL0     C 7912   0.534  11.688   3.574 -0.3790 -0.0123  0.7297
   58MOL0     C 7913   0.638  11.667   3.474 -0.0910 -0.4812 -0.5358
   58MOL0     O 7914   0.877  11.512   3.400  0.0143  0.1832  0.6978
   58MOL0     C 7915   1.029  11.397   3.207  0.3295  1.0410  0.4266
   58MOL0     C 7916   1.108  11.327   3.110  0.7599  0.4635 -0.8403
   58MOL0     N 7917   1.127  11.104   2.406  0.2899  0.3854 -0.3409
   58MOL0     N 7918   1.142  11.076   2.281 -0.0481 -0.3519 -0.6799
   58MOL0     C 7919   1.563   9.963   1.683 -0.0590 -0.1744 -0.4540
   58MOL0     C 7920   1.621   9.897   1.577 -0.3315  0.5443 -0.0764
   58MOL0     C 7921   1.942   9.824   1.262  0.1807  0.1798 -0.5962
   58MOL0     C 7922   2.040   9.732   1.294  1.4577 -0.0171 -1.1594
   58MOL0     C 7923   2.125   9.685   1.204  0.3431 -0.0900  1.0264
   58MOL0     C 7924   2.119   9.724   1.067 -0.0465  0.2771  0.6211
   58MOL0     O 7925   2.236   9.693   1.006  0.3412  0.1491  0.6681
   58MOL0     C 7926   2.255   9.726   0.870 -0.3111 -0.4950  0.9299
   58MOL0     C 7927   2.391   9.652   0.849 -0.1312  0.1025  0.6704
   58MOL0     C 7928   2.429   9.622   0.699  0.3950  0.9848 -0.9342
   58MOL0     C 7929   2.464   9.749   0.614  1.1444  0.4338 -0.9731
   58MOL0     C 7930   2.604   9.788   0.640  0.7707  0.6031  0.1614
   58MOL0     C 7931   2.711   9.830   0.666  1.2493 -0.2845 -0.4741
   58MOL0     C 7932   2.019   9.810   1.029 -0.4841 -0.1075 -0.3097
   58MOL0     C 7933   1.927   9.844   1.130  1.0079  0.3976 -1.1053
   58MOL0     C 7934   1.818   9.932   1.076 -0.1715  0.1714 -0.1494
   58MOL0     H 7935   1.934   9.841   1.696  1.0401  0.4326 -2.2831
   58MOL0     H 7936   1.832   9.974   1.887  0.7900  1.8748 -1.7606
   58MOL0     H 7937   1.410  10.122   1.898  0.4454  0.8638  1.0521
   58MOL0     H 7938   1.536  10.222   1.811  1.9874  0.7716  0.1971
   58MOL0     H 7939   1.525  10.190   2.119  0.0607  0.6712  1.4964
   58MOL0     H 7940   1.621  10.307   2.025  0.8296 -2.1495 -1.2503
   58MOL0     H 7941   1.332  10.349   1.958 -1.3368 -0.6689  1.1390
   58MOL0     H 7942   1.338  10.303   2.126  0.8806 -0.5690  1.1605
   58MOL0     H 7943   1.463  10.483   2.208 -0.9547  1.8110  1.3000
   58MOL0     H 7944   1.542  10.510   2.054 -0.2036 -0.5765 -1.6206
   58MOL0     H 7945   1.238  10.560   2.089 -0.5391  0.2464  1.4993
   58MOL0     H 7946   1.344  10.599   1.958 -1.2590  0.6591  0.2660
   58MOL0     H 7947   1.356  10.699   2.239  1.9858 -1.3516 -0.8515
   58MOL0     H 7948   1.473  10.742   2.119  0.2279  1.6067  0.0539
   58MOL0     H 7949   1.180  10.807   2.094  0.2780 -1.3488 -0.7611
   58MOL0     H 7950   1.298  10.829   1.966  0.1085  2.1929 -1.2601
   58MOL0     H 7951   1.424  10.979   2.165  0.3420 -1.4740  1.3087
   58MOL0     H 7952   1.292  11.031   2.053 -0.3832 -0.6562  0.0175
   58MOL0     H 7953   1.390  10.909   2.406 -1.6629  0.9220  1.2188
   58MOL0     H 7954   1.277  11.128   2.661 -1.0248 -0.1040  0.8647
   58MOL0     H 7955   1.301  10.944   2.651 -1.4423 -0.2843  1.6271
   58MOL0     H 7956   1.026  11.080   2.635  0.8878 -0.2706 -0.8914
   58MOL0     H 7957   1.067  10.911   2.623 -2.2224 -1.2176  2.9009
   58MOL0     H 7958   0.992  10.985   2.862  0.0802 -1.7206 -1.7347
   58MOL0     H 7959   1.139  10.900   2.870  2.7553  0.4367 -1.2824
   58MOL0     H 7960   1.175  11.093   3.009  2.8183  1.3532  0.2246
   58MOL0     H 7961   1.267  11.123   2.867 -0.3918  1.3760  1.6112
   58MOL0     H 7962   0.922  11.419   2.835 -0.1358  1.1083 -0.0906
   58MOL0     H 7963   0.774  11.585   2.860 -2.3484  3.3580 -0.0514
   58MOL0     H 7964   0.777  11.671   3.012  0.6078  0.6276 -1.7634
   58MOL0     H 7965   0.670  11.537   2.995  0.1436  0.2246  2.8069
   58MOL0     H 7966   0.462  11.486   3.241  0.0458 -0.4157 -0.7003
   58MOL0     H 7967   0.299  11.500   3.429  0.5291 -0.3896 -1.9730
   58MOL0     H 7968   0.349  11.792   3.775  1.8696  1.4178 -1.9019
   58MOL0     H 7969   0.266  11.827   3.625  1.2419 -0.5408  0.5800
   58MOL0     H 7970   0.061  11.750   3.673 -1.1878  0.6302  0.5447
   58MOL0     H 7971   0.121  11.633   3.802 -0.1261 -0.0617 -0.9322
   58MOL0     H 7972   0.066  11.929   3.807 -2.0147 -1.3029  0.0345
   58MOL0     H 7973   0.166  11.850   3.926 -2.2530 -1.3953  2.6477
   58MOL0     H 7974  -0.047  11.679   3.936 -0.0045 -1.2531 -3.4462
   58MOL0     H 7975  -0.138  11.799   3.849 -0.8955 -2.1625  0.5462
   58MOL0     H 7976  -0.006  11.872   4.113  1.0619  0.1289 -0.3577
   58MOL0     H 7977  -0.088  11.979   3.998 -1.2227 -0.9274  0.0145
   58MOL0     H 7978  -0.244  11.786   4.189 -0.3420  0.8680 -0.5209
   58MOL0     H 7979  -0.286  11.817   4.022  0.7239  1.7399 -1.0936
   58MOL0     H 7980  -0.374  11.992   4.181 -2.0963  0.4836 -3.6796
   58MOL0     H 7981  -0.262  12.058   4.060  3.0422 -0.7266 -0.5839
   58MOL0     H 7982  -0.226  12.155   4.301  1.5058  0.2267  2.7272
   58MOL0     H 7983  -0.084  12.091   4.212 -0.1233  0.6541  0.2376
   58MOL0     H 7984   0.559  11.760   3.652 -1.6704  1.0076  0.2380
   58MOL0     H 7985   0.728  11.727   3.482 -1.5762  1.6299  1.6882
   58MOL0     H 7986   1.062  11.385   3.309  2.0077  1.2085 -0.0701
   58MOL0     H 7987   1.205  11.289   3.142  0.4051  1.9051  2.3331
   58MOL0     H 7988   1.465  10.009   1.682 -0.4093 -0.8228  0.8935
   58MOL0     H 7989   1.564   9.889   1.485 -1.4571  2.7448  0.3551
   58MOL0     H 7990   2.047   9.704   1.398 -0.3874 -2.7751 -1.6525
   58MOL0     H 7991   2.215   9.628   1.226  0.4522 -0.0968  0.5766
   58MOL0     H 7992   2.172   9.684   0.812  0.7887 -0.9148 -0.3977
   58MOL0     H 7993   2.259   9.831   0.843 -2.7140 -1.1242 -2.5064
   58MOL0     H 7994   2.392   9.560   0.908 -2.5032 -0.5057 -0.1133
   58MOL0     H 7995   2.466   9.715   0.896  0.1884  4.0257 -4.3114
   58MOL0     H 7996   2.516   9.557   0.699 -0.8467 -0.8815  1.7306
   58MOL0     H 7997   2.343   9.568   0.659 -0.0141 -0.7030  1.9081
   58MOL0     H 7998   2.392   9.824   0.647  2.7803  1.8087 -0.3337
   58MOL0     H 7999   2.463   9.722   0.508  0.8970 -1.7930 -0.4614
   58MOL0     H 8000   2.808   9.870   0.690  0.9892  1.1249 -1.6045
   58MOL0     H 8001   2.011   9.834   0.923  0.7005  0.5083 -0.2811
   58MOL0     H 8002   1.733   9.945   1.144 -2.8196  3.5268 -3.6174
   58MOL0     H 8003   1.863  10.032   1.070 -0.1399  0.2693  1.2851
   58MOL0     H 8004   1.769   9.892   0.987 -0.5869  1.5977 -0.5931
   59MOL0     O 8005  10.987   3.290   5.490  0.4689  0.1397 -0.0866
   59MOL0     C 8006  11.072   3.374   5.461 -0.9149 -0.5672 -0.2542
   59MOL0     O 8007  11.197   3.380   5.515  0.1650  0.6297  0.3512
   59MOL0     C 8008  11.213   3.331   5.644  0.4155  0.0472  0.0680
   59MOL0     C 8009  11.248   3.195   5.662  0.0294 -0.6128 -0.0134
   59MOL0     C 8010  11.280   3.154   5.789  0.2909 -1.2002  0.2195
   59MOL0     C 8011  11.271   3.243   5.904  0.3168 -0.1769  1.1072
   59MOL0     O 8012  11.324   3.191   6.013  0.1695 -0.3397  0.0534
   59MOL0     C 8013  11.354   3.285   6.119  0.1187  0.4482 -0.2182
   59MOL0     C 8014  11.384   3.214   6.253 -0.5099  0.3249 -0.0903
   59MOL0     C 8015  11.351   3.304   6.369 -0.1545  0.7832  0.7992
   59MOL0     C 8016  11.432   3.436   6.354 -0.0700 -0.9448 -0.8360
   59MOL0     C 8017  11.392   3.542   6.466  0.1268 -0.4669  0.9402
   59MOL0     C 8018  11.463   3.675   6.440 -0.8097 -0.5686  0.8918
   59MOL0     C 8019  11.396   3.778   6.534  0.0224  0.5569  0.2340
   59MOL0     C 8020  11.247   3.800   6.522 -0.4207  0.3385  0.0355
   59MOL0     N 8021  11.232   3.941   6.562  0.2263  0.4540 -0.2144
   59MOL0     C 8022  11.265   4.050   6.489  0.1424  0.4659  0.3156
   59MOL0     C 8023  11.242   4.147   6.582  0.1622  0.3535  1.0737
   59MOL0     C 8024  11.271   4.291   6.553 -0.5742  0.7376  0.3645
   59MOL0     C 8025  11.142   4.363   6.531  0.9609  0.7755 -0.5292
   59MOL0     C 8026  11.101   4.375   6.378 -0.2090  0.6207 -0.6735
   59MOL0     C 8027  10.956   4.410   6.344 -0.2338  0.4983  0.3363
   59MOL0     O 8028  10.907   4.525   6.416  0.2156 -0.3152  0.9654
   59MOL0     C 8029  10.771   4.550   6.403  0.3158  0.0254 -1.0102
   59MOL0     C 8030  10.694   4.518   6.288 -0.9191 -0.1488  0.5507
   59MOL0     C 8031  10.555   4.538   6.286 -0.8698  0.1114 -0.2702
   59MOL0     C 8032  10.486   4.478   6.170 -0.3326  0.1294 -0.0747
   59MOL0     C 8033  10.490   4.587   6.411 -0.7771  0.1819  0.2850
   59MOL0     C 8034  10.347   4.593   6.427 -0.1502 -0.1983  0.0356
   59MOL0     O 8035  10.306   4.585   6.559 -0.2750 -0.6242 -0.3433
   59MOL0     C 8036  10.175   4.557   6.585  0.4780  0.5630  1.0442
   59MOL0     C 8037  10.086   4.665   6.630  0.0162  0.0918 -0.1135
   59MOL0     C 8038   9.963   4.634   6.668  0.1014 -0.8706 -0.1416
   59MOL0     C 8039   9.903   4.508   6.642  0.5010  0.6161  0.8302
   59MOL0     O 8040   9.775   4.491   6.683  0.2545 -0.0012  0.5030
   59MOL0     C 8041   9.672   4.473   6.578 -0.6381  0.3735  0.8145
   59MOL0     C 8042   9.541   4.433   6.637  0.2111  0.1689 -0.2572
   59MOL0     C 8043   9.442   4.554   6.649  0.3483  0.5309 -0.0946
   59MOL0     C 8044   9.333   4.506   6.749  0.1899 -1.3208 -0.1907
   59MOL0     C 8045   9.232   4.620   6.768  1.4758 -0.2867 -0.0625
   59MOL0     C 8046   9.127   4.617   6.665  0.2666  0.4504  0.2082
   59MOL0     C 8047   9.018   4.725   6.709 -0.0896 -1.0400  0.6444
   59MOL0     C 8048   8.884   4.729   6.632 -1.4627  0.1782 -0.1917
   59MOL0    Cl 8049   8.813   4.562   6.653  0.2737 -0.0831  0.1778
   59MOL0     C 8050   9.985   4.400   6.587  0.1726  0.3176 -0.7589
   59MOL0     C 8051  10.121   4.428   6.574  0.9093 -0.1047 -0.1057
   59MOL0     O 8052  10.267   4.610   6.331  0.2289 -0.3581 -0.4790
   59MOL0     C 8053  10.573   4.620   6.523  0.3192  0.5474  0.5041
   59MOL0     C 8054  10.712   4.605   6.517 -0.1625 -0.2841  0.0018
   59MOL0     N 8055  11.180   4.091   6.692  0.2013  0.3763 -0.7470
   59MOL0     N 8056  11.163   3.961   6.672  0.2078 -0.1158 -0.2202
   59MOL0     C 8057  11.224   3.377   5.881  0.4802 -0.2831  0.0198
   59MOL0     C 8058  11.194   3.414   5.750  0.8601 -0.9094 -0.0673
   59MOL0     C 8059  11.060   3.449   5.341  0.0555  0.0546 -0.3186
   59MOL0     C 8060  11.173   3.469   5.254 -0.2856  0.2779 -0.5193
   59MOL0     C 8061  11.159   3.529   5.133 -0.0872 -0.4156 -0.8070
   59MOL0     C 8062  11.041   3.567   5.088  1.1256  0.7063  0.5516
   59MOL0     O 8063  11.038   3.634   4.964 -0.0613  0.2671 -0.3195
   59MOL0     C 8064  10.915   3.646   4.897  0.4936  0.6657  0.0041
   59MOL0     C 8065  10.929   3.712   4.753 -0.1008 -0.5486 -0.1986
   59MOL0     C 8066  10.810   3.669   4.662  0.7909 -0.7084 -0.1821
   59MOL0     C 8067  10.665   3.699   4.709 -0.1028 -1.0125  0.2034
   59MOL0     C 8068  10.646   3.846   4.731 -0.2624  0.8940  0.0871
   59MOL0     C 8069  10.614   3.957   4.749 -0.8385  0.3114  0.3835
   59MOL0     C 8070  10.927   3.545   5.167  1.4127 -0.0075  0.1118
   59MOL0     C 8071  10.934   3.488   5.295  1.0320  0.0895  0.1865
   59MOL0     C 8072  10.812   3.466   5.371  0.0025  0.2308 -0.2241
   59MOL0     H 8073  11.280   3.144   5.571  1.9281  1.1196 -0.3985
   59MOL0     H 8074  11.330   3.059   5.808  3.9393  1.0539  3.3185
   59MOL0     H 8075  11.262   3.337   6.148 -2.9490 -2.8525 -3.1008
   59MOL0     H 8076  11.426   3.355   6.077  2.5944 -2.7886 -1.7852
   59MOL0     H 8077  11.325   3.122   6.262 -0.3005  0.1799 -0.1825
   59MOL0     H 8078  11.486   3.174   6.247 -0.5174  0.2815 -6.1495
   59MOL0     H 8079  11.245   3.326   6.377 -0.4703 -0.8314  1.4716
   59MOL0     H 8080  11.384   3.252   6.459 -2.1137 -0.3750  0.8881
   59MOL0     H 8081  11.540   3.422   6.368 -0.4942 -1.2339  3.6943
   59MOL0     H 8082  11.414   3.483   6.257 -2.8930  2.5729  1.1459
   59MOL0     H 8083  11.424   3.510   6.566 -1.3643 -2.0003  0.9631
   59MOL0     H 8084  11.284   3.554   6.459  0.1263 -1.1243 -0.4383
   59MOL0     H 8085  11.571   3.664   6.451 -0.5963  1.3548  1.1021
   59MOL0     H 8086  11.448   3.694   6.334 -0.3623 -4.4964 -0.0177
   59MOL0     H 8087  11.454   3.870   6.521  1.5086 -0.3741  0.0420
   59MOL0     H 8088  11.424   3.737   6.632  1.7239  0.1576 -0.4005
   59MOL0     H 8089  11.224   3.786   6.416 -0.7947  0.9023  0.0424
   59MOL0     H 8090  11.193   3.737   6.594 -3.2114  1.4161 -0.9878
   59MOL0     H 8091  11.315   4.064   6.394  0.1901  2.6749  0.6134
   59MOL0     H 8092  11.334   4.308   6.465 -0.5296  5.2143  1.0018
   59MOL0     H 8093  11.334   4.318   6.638  0.8943 -1.9805  0.2569
   59MOL0     H 8094  11.062   4.319   6.591  0.0342  4.0014  0.8126
   59MOL0     H 8095  11.149   4.463   6.575  1.5944  0.5041  0.0026
   59MOL0     H 8096  11.153   4.462   6.336 -1.7489  0.5608 -2.9177
   59MOL0     H 8097  11.124   4.291   6.312 -1.1805  1.5335 -2.2271
   59MOL0     H 8098  10.951   4.445   6.241 -2.3118  1.3990  0.6995
   59MOL0     H 8099  10.890   4.325   6.366  2.3987 -2.8943 -3.4292
   59MOL0     H 8100  10.737   4.495   6.191 -1.9242  0.3172 -0.0265
   59MOL0     H 8101  10.473   4.561   6.100  2.2119 -0.8039 -1.7955
   59MOL0     H 8102  10.389   4.431   6.190 -1.9572  2.6990 -1.3806
   59MOL0     H 8103  10.540   4.405   6.109  0.9572  0.4314  0.6537
   59MOL0     H 8104  10.136   4.754   6.666 -1.2031  0.4289  0.7883
   59MOL0     H 8105   9.899   4.702   6.723  2.6927  0.6986  1.1250
   59MOL0     H 8106   9.662   4.571   6.530  2.5655  0.7850  0.7696
   59MOL0     H 8107   9.710   4.405   6.501  0.1954  2.4365 -0.6869
   59MOL0     H 8108   9.494   4.350   6.583  0.6748 -2.0426  2.4941
   59MOL0     H 8109   9.560   4.391   6.737  1.7517 -1.5818 -1.2305
   59MOL0     H 8110   9.406   4.574   6.548  2.0573  2.4155 -0.4012
   59MOL0     H 8111   9.501   4.632   6.698 -1.0002 -1.1664  4.8186
   59MOL0     H 8112   9.383   4.493   6.845  2.5938  4.3813 -0.2481
   59MOL0     H 8113   9.285   4.410   6.731 -3.3921  0.4711 -1.1258
   59MOL0     H 8114   9.179   4.602   6.862  1.2594 -5.6171 -0.8793
   59MOL0     H 8115   9.284   4.716   6.773 -1.8602  1.7496 -1.4030
   59MOL0     H 8116   9.071   4.524   6.677 -2.1057  1.8650  1.0481
   59MOL0     H 8117   9.170   4.628   6.565  3.2229  0.9607  1.4472
   59MOL0     H 8118   9.079   4.816   6.702  0.0837 -1.1511  0.6741
   59MOL0     H 8119   8.989   4.725   6.814 -2.7341  0.2241 -0.0153
   59MOL0     H 8120   8.908   4.750   6.528 -0.4852 -0.5575 -0.1335
   59MOL0     H 8121   8.824   4.809   6.675  0.4573  2.0212 -0.7938
   59MOL0     H 8122   9.939   4.302   6.578  2.5779 -1.3134  2.7002
   59MOL0     H 8123  10.181   4.349   6.530 -0.1617  0.6214 -3.1094
   59MOL0     H 8124  10.532   4.664   6.613 -0.7801 -0.0528  0.3099
   59MOL0     H 8125  10.770   4.623   6.607  0.9836  0.7694 -0.9071
   59MOL0     H 8126  11.216   3.453   5.958  0.4510 -1.4062  1.1666
   59MOL0     H 8127  11.156   3.514   5.729 -1.0158 -1.8567 -1.4832
   59MOL0     H 8128  11.273   3.446   5.291  0.3976 -1.3506 -3.1045
   59MOL0     H 8129  11.243   3.556   5.070 -0.9465 -0.1460 -1.8534
   59MOL0     H 8130  10.885   3.541   4.887 -0.9979  1.0686 -0.0650
   59MOL0     H 8131  10.834   3.692   4.954 -2.0713 -3.3185 -0.0153
   59MOL0     H 8132  11.025   3.700   4.701  0.4419  0.8366  0.4239
   59MOL0     H 8133  10.922   3.821   4.758  3.0506 -0.2814  1.1476
   59MOL0     H 8134  10.818   3.722   4.567  0.8582 -0.5511 -0.0876
   59MOL0     H 8135  10.806   3.560   4.652  1.8639 -0.7037 -0.8764
   59MOL0     H 8136  10.634   3.638   4.794 -1.2999 -2.1905 -1.0343
   59MOL0     H 8137  10.590   3.675   4.633 -0.8851  2.4515 -0.2885
   59MOL0     H 8138  10.588   4.056   4.779  1.3973  0.4108  2.2807
   59MOL0     H 8139  10.834   3.582   5.125  2.5865  3.2950  0.1028
   59MOL0     H 8140  10.830   3.512   5.468 -0.2070  0.5456 -0.3325
   59MOL0     H 8141  10.725   3.517   5.328 -0.4058  0.4216  0.8075
   59MOL0     H 8142  10.792   3.359   5.385 -1.8178  0.6384  0.5156
   60MOL0     O 8143   1.564   1.072   2.725  0.2805  0.7600  0.2491
   60MOL0     C 8144   1.537   1.083   2.608  0.3563 -0.4730  0.5895
   60MOL0     O 8145   1.570   0.989   2.515 -0.4572  0.2608  0.5540
   60MOL0     C 8146   1.650   0.886   2.546 -0.0666  0.6359 -0.4508
   60MOL0     C 8147   1.605   0.762   2.599  0.0694  0.0156 -0.3420
   60MOL0     C 8148   1.700   0.663   2.640 -0.3405  0.6169  0.1481
   60MOL0     C 8149   1.836   0.686   2.610  0.5505 -0.1137  0.8803
   60MOL0     O 8150   1.936   0.596   2.629 -0.0398  1.0807  0.2847
   60MOL0     C 8151   1.908   0.472   2.571  0.0315  0.8834 -0.0147
   60MOL0     C 8152   1.998   0.363   2.622 -0.6256  0.5661 -0.0870
   60MOL0     C 8153   2.147   0.399   2.614 -0.4461 -0.6535  0.4549
   60MOL0     C 8154   2.243   0.282   2.632  0.4851 -0.8418  0.2662
   60MOL0     C 8155   2.267   0.188   2.507  0.0317  0.6288 -0.1156
   60MOL0     C 8156   2.372   0.083   2.533 -0.2188  0.2614 -0.4356
   60MOL0     C 8157   2.397  -0.022   2.424 -1.1669 -0.5108  0.8149
   60MOL0     C 8158   2.454   0.052   2.298  0.6088  1.0746 -0.9882
   60MOL0     N 8159   2.508  -0.050   2.205  0.8005 -0.5438 -0.3645
   60MOL0     C 8160   2.426  -0.149   2.143 -0.3741 -1.0153 -0.8013
   60MOL0     C 8161   2.505  -0.245   2.101  0.6315  1.1348 -0.0463
   60MOL0     C 8162   2.467  -0.379   2.027 -0.2334  0.5881 -0.3065
   60MOL0     C 8163   2.578  -0.486   2.039  0.3731 -0.5391  0.5381
   60MOL0     C 8164   2.552  -0.616   1.964 -0.4607  0.0764  0.2363
   60MOL0     C 8165   2.579  -0.592   1.809 -0.8536  0.1752 -0.0427
   60MOL0     O 8166   2.605  -0.722   1.751 -1.2884 -0.5930 -0.9559
   60MOL0     C 8167   2.632  -0.733   1.617  0.5515 -0.7110  0.7166
   60MOL0     C 8168   2.634  -0.628   1.530  0.1414 -0.5064 -0.0557
   60MOL0     C 8169   2.641  -0.646   1.387  0.6215  0.3380 -0.2916
   60MOL0     C 8170   2.656  -0.526   1.298  0.1911  0.4143 -0.2735
   60MOL0     C 8171   2.647  -0.776   1.341  0.6752  0.7187 -0.4749
   60MOL0     C 8172   2.641  -0.806   1.200 -0.0492 -0.5487  0.3064
   60MOL0     O 8173   2.605  -0.935   1.172  0.2226 -0.2102 -0.5721
   60MOL0     C 8174   2.602  -0.972   1.040  0.4295 -0.0924  0.8803
   60MOL0     C 8175   2.690  -1.075   0.996 -0.7888  0.2243 -0.3099
   60MOL0     C 8176   2.681  -1.118   0.861  0.7976  0.6284 -0.5660
   60MOL0     C 8177   2.589  -1.064   0.773  0.3646 -0.5330  0.0045
   60MOL0     O 8178   2.578  -1.110   0.640 -0.4406 -0.4429 -0.3441
   60MOL0     C 8179   2.696  -1.145   0.560  1.0780  1.0870 -0.1884
   60MOL0     C 8180   2.751  -1.007   0.505 -0.2534  0.7766  0.5696
   60MOL0     C 8181   2.869  -1.037   0.409  0.1354  1.1246  0.3705
   60MOL0     C 8182   2.917  -0.911   0.334 -0.5707 -0.3242 -0.2211
   60MOL0     C 8183   3.067  -0.924   0.310 -1.1970  0.0361  0.4107
   60MOL0     C 8184   3.120  -0.795   0.249  0.0279  0.3006 -0.0220
   60MOL0     C 8185   3.073  -0.783   0.104  0.1114  0.3884  0.1324
   60MOL0     C 8186   3.120  -0.649   0.035 -0.5051  1.0359  0.2616
   60MOL0    Cl 8187   3.296  -0.629   0.037 -0.1255  0.1528 -0.6183
   60MOL0     C 8188   2.501  -0.958   0.818  0.1352  0.1470  0.1315
   60MOL0     C 8189   2.500  -0.921   0.960 -0.6946  0.2039  0.6394
   60MOL0     O 8190   2.662  -0.718   1.113  1.0156 -0.0900  0.3091
   60MOL0     C 8191   2.638  -0.882   1.432 -0.9959  0.1110  1.0654
   60MOL0     C 8192   2.634  -0.862   1.564  0.2817  0.7242  0.3154
   60MOL0     N 8193   2.638  -0.209   2.139  0.2537  0.7649  0.0169
   60MOL0     N 8194   2.636  -0.095   2.209  0.6554 -0.2545 -0.4991
   60MOL0     C 8195   1.879   0.800   2.545  0.4773  0.0438  0.2370
   60MOL0     C 8196   1.794   0.910   2.524  0.1423 -0.3293 -0.4303
   60MOL0     C 8197   1.453   1.193   2.551  0.1536 -0.2391  0.0554
   60MOL0     C 8198   1.495   1.237   2.422  0.5836  0.0693 -0.7640
   60MOL0     C 8199   1.442   1.361   2.374 -0.9320 -0.8692  0.4798
   60MOL0     C 8200   1.355   1.445   2.447  0.4390  0.3740 -0.1669
   60MOL0     O 8201   1.304   1.560   2.387 -0.6619  0.4069  0.4138
   60MOL0     C 8202   1.167   1.589   2.395  0.0694 -0.2211 -1.2650
   60MOL0     C 8203   1.150   1.744   2.405 -0.4679 -0.8191 -0.6861
   60MOL0     C 8204   1.240   1.816   2.508 -1.3875 -0.5741  0.7867
   60MOL0     C 8205   1.239   1.755   2.647 -0.6501 -1.0853 -0.7230
   60MOL0     C 8206   1.100   1.735   2.696 -1.1227 -0.2443 -0.3018
   60MOL0     C 8207   0.986   1.719   2.729 -1.2692  0.3403 -0.2655
   60MOL0     C 8208   1.305   1.390   2.567  0.1409 -0.6905 -0.5693
   60MOL0     C 8209   1.358   1.272   2.620 -0.1483 -0.4407  0.2506
   60MOL0     C 8210   1.298   1.218   2.751 -0.9699 -1.0696  1.0629
   60MOL0     H 8211   1.499   0.743   2.614 -0.5928  2.5811 -1.3513
   60MOL0     H 8212   1.671   0.561   2.665 -3.7478  2.1809  3.8353
   60MOL0     H 8213   1.924   0.478   2.463 -1.3381 -1.6203 -0.4388
   60MOL0     H 8214   1.807   0.431   2.568  0.9137 -1.3631 -2.0409
   60MOL0     H 8215   1.975   0.352   2.729  4.4894  1.1110  1.3384
   60MOL0     H 8216   1.985   0.275   2.558 -0.3556  2.1278 -2.3707
   60MOL0     H 8217   2.168   0.448   2.519  0.7921 -3.4524 -0.8197
   60MOL0     H 8218   2.168   0.472   2.692 -1.8312 -0.4213  0.6384
   60MOL0     H 8219   2.334   0.340   2.649  0.9723 -0.7202 -2.3688
   60MOL0     H 8220   2.207   0.226   2.718 -0.6734 -2.0015 -0.9257
   60MOL0     H 8221   2.286   0.250   2.418 -2.1259  0.4488 -0.7782
   60MOL0     H 8222   2.179   0.130   2.478 -1.0244  1.0300  2.1016
   60MOL0     H 8223   2.461   0.142   2.556 -1.1225  2.4610 -2.2019
   60MOL0     H 8224   2.342   0.021   2.618  1.5843 -0.7715 -0.4927
   60MOL0     H 8225   2.310  -0.085   2.405 -0.8562 -0.5144 -0.7462
   60MOL0     H 8226   2.482  -0.074   2.470 -0.0196  1.0530  0.5566
   60MOL0     H 8227   2.371   0.112   2.261 -0.7101  1.2626  1.9433
   60MOL0     H 8228   2.538   0.122   2.303  1.3292  0.5693 -4.2525
   60MOL0     H 8229   2.321  -0.145   2.169  0.1944 -1.7605  1.8629
   60MOL0     H 8230   2.451  -0.368   1.920 -2.5734  1.4102  0.0714
   60MOL0     H 8231   2.374  -0.425   2.062  1.3068 -2.4362  0.1449
   60MOL0     H 8232   2.666  -0.436   1.998 -0.8402 -1.2886 -3.4172
   60MOL0     H 8233   2.601  -0.513   2.143  0.4349  0.3978  0.7795
   60MOL0     H 8234   2.614  -0.702   1.991  1.8883  1.4593 -0.4048
   60MOL0     H 8235   2.444  -0.630   1.965 -0.3859 -0.7555 -1.5449
   60MOL0     H 8236   2.494  -0.538   1.765 -0.3856  0.2876 -0.8329
   60MOL0     H 8237   2.675  -0.541   1.799 -2.3520  3.2539 -0.0369
   60MOL0     H 8238   2.615  -0.527   1.565 -2.1471 -1.5797  2.0449
   60MOL0     H 8239   2.569  -0.516   1.231  0.4989  2.2111 -0.4597
   60MOL0     H 8240   2.756  -0.543   1.257  1.4034  1.6767  2.0121
   60MOL0     H 8241   2.663  -0.439   1.363  1.7664  0.6220 -0.6877
   60MOL0     H 8242   2.765  -1.108   1.068 -2.9917  0.3081  2.1863
   60MOL0     H 8243   2.740  -1.204   0.830 -1.7002 -1.1064 -0.7329
   60MOL0     H 8244   2.768  -1.206   0.614 -0.1671 -0.5862 -0.3311
   60MOL0     H 8245   2.651  -1.203   0.479 -0.2839  1.1036  0.5267
   60MOL0     H 8246   2.668  -0.958   0.454 -1.4696 -1.8602 -0.1192
   60MOL0     H 8247   2.783  -0.942   0.587 -0.5508  0.8781  0.6067
   60MOL0     H 8248   2.833  -1.112   0.338 -0.5660 -0.1169  1.9859
   60MOL0     H 8249   2.952  -1.078   0.468 -0.7579  0.8584  1.4794
   60MOL0     H 8250   2.895  -0.818   0.387  1.5679 -0.3187  0.7302
   60MOL0     H 8251   2.870  -0.914   0.235  1.9354  0.7046 -1.5161
   60MOL0     H 8252   3.124  -0.942   0.401  0.0166  1.0824 -0.1038
   60MOL0     H 8253   3.087  -0.997   0.231 -2.2747 -0.5240  0.6353
   60MOL0     H 8254   3.227  -0.818   0.257 -0.0013  0.7020  1.9539
   60MOL0     H 8255   3.117  -0.705   0.311 -1.0607 -0.2641  0.7832
   60MOL0     H 8256   2.964  -0.781   0.105  0.1097  0.6150  1.4556
   60MOL0     H 8257   3.098  -0.874   0.048  1.9267  1.2059 -0.4509
   60MOL0     H 8258   3.089  -0.560   0.091  2.4505  1.7194  0.9711
   60MOL0     H 8259   3.077  -0.652  -0.065  2.3749  0.1619 -1.0284
   60MOL0     H 8260   2.426  -0.926   0.747 -1.0574 -3.2505 -0.3247
   60MOL0     H 8261   2.440  -0.836   0.988 -0.6656  0.4617 -0.0435
   60MOL0     H 8262   2.641  -0.981   1.389  3.6166  0.6834 -0.4786
   60MOL0     H 8263   2.633  -0.948   1.630 -0.3836  2.1656  2.2984
   60MOL0     H 8264   1.984   0.786   2.522 -0.4118 -3.1464 -2.6747
   60MOL0     H 8265   1.833   1.001   2.481  1.5133 -0.3319  0.7694
   60MOL0     H 8266   1.573   1.197   2.358  2.6912  2.3752  0.2196
   60MOL0     H 8267   1.471   1.405   2.280  1.6871 -0.1602  1.5336
   60MOL0     H 8268   1.107   1.545   2.314  0.1599 -2.0360 -0.3887
   60MOL0     H 8269   1.132   1.547   2.489  4.6621 -2.8005 -0.4460
   60MOL0     H 8270   1.044   1.765   2.422 -0.4923 -0.0697 -1.6529
   60MOL0     H 8271   1.164   1.793   2.309  2.2615 -1.6062 -0.7659
   60MOL0     H 8272   1.343   1.811   2.472 -0.9578 -2.8789  2.1210
   60MOL0     H 8273   1.205   1.919   2.511  1.9116  0.7915 -1.3241
   60MOL0     H 8274   1.294   1.824   2.712 -2.0335 -1.3445  0.8033
   60MOL0     H 8275   1.294   1.661   2.646  0.4590 -0.5665  2.2490
   60MOL0     H 8276   0.881   1.700   2.741 -0.9883 -1.2295 -0.0780
   60MOL0     H 8277   1.220   1.419   2.629  1.6514  0.4119  1.0915
   60MOL0     H 8278   1.267   1.114   2.738 -1.8666 -0.5194 -2.3168
   60MOL0     H 8279   1.377   1.226   2.826  1.3924 -1.5515 -1.2236
   60MOL0     H 8280   1.224   1.285   2.796  0.4102  2.6178 -1.6206
   61MOL0     O 8281  10.146   0.694   5.533 -0.8386  1.0811  0.5697
   61MOL0     C 8282  10.132   0.817   5.519  0.2708  0.8133 -0.4097
   61MOL0     O 8283  10.191   0.908   5.596 -0.1123 -0.3145  0.1296
   61MOL0     C 8284  10.268   0.848   5.706 -0.1461  0.6026  0.0892
   61MOL0     C 8285  10.377   0.754   5.699  0.1441 -0.6052 -0.5491
   61MOL0     C 8286  10.452   0.723   5.809 -0.6282  0.2682 -0.0499
   61MOL0     C 8287  10.421   0.785   5.930 -0.0505  0.8124 -0.6116
   61MOL0     O 8288  10.501   0.761   6.039 -0.5004  0.1612 -0.3164
   61MOL0     C 8289  10.561   0.631   6.061  0.3338  0.1279  0.4187
   61MOL0     C 8290  10.631   0.622   6.198 -0.3793  0.2459 -0.2209
   61MOL0     C 8291  10.721   0.497   6.209  0.7531 -0.5418  0.1096
   61MOL0     C 8292  10.816   0.479   6.323  0.1694 -0.1441 -0.2824
   61MOL0     C 8293  10.925   0.588   6.333  0.2023  0.0559 -0.4695
   61MOL0     C 8294  11.042   0.541   6.255 -0.0540  0.1987  0.5002
   61MOL0     C 8295  11.155   0.645   6.264 -0.2074 -0.1522  0.6256
   61MOL0     C 8296  11.147   0.753   6.152 -0.5474 -0.3495  0.2174
   61MOL0     N 8297  11.200   0.878   6.200 -0.3339  0.5973  0.1822
   61MOL0     C 8298  11.172   1.004   6.155 -0.0186  0.0197  1.2710
   61MOL0     C 8299  11.261   1.083   6.221 -0.7277 -0.9331  0.4493
   61MOL0     C 8300  11.275   1.233   6.179 -0.5987  0.2451  0.3583
   61MOL0     C 8301  11.415   1.272   6.127  0.7081  0.1910  0.1678
   61MOL0     C 8302  11.426   1.222   5.985  0.1774 -0.0712  0.8891
   61MOL0     C 8303  11.574   1.245   5.938  0.8927 -0.5671  0.2281
   61MOL0     O 8304  11.665   1.175   6.026 -0.1618  0.0455 -0.4822
   61MOL0     C 8305  11.652   1.037   6.023 -0.1168  0.2298  0.0860
   61MOL0     C 8306  11.688   0.966   5.909 -0.3977  0.8759 -0.1790
   61MOL0     C 8307  11.673   0.825   5.903 -0.1312 -0.3737  0.1242
   61MOL0     C 8308  11.715   0.752   5.771  0.7154  0.2255 -0.0337
   61MOL0     C 8309  11.611   0.755   6.005  0.0735  0.8137 -0.0944
   61MOL0     C 8310  11.592   0.609   5.991 -0.5185 -0.8092 -0.3682
   61MOL0     O 8311  11.470   0.563   5.982  0.3420  0.3107 -0.0061
   61MOL0     C 8312  11.455   0.424   5.977 -0.2892 -0.7484  0.3516
   61MOL0     C 8313  11.489   0.347   5.866  0.0944  0.4906 -0.3557
   61MOL0     C 8314  11.459   0.211   5.856 -0.1772  0.2129 -0.5316
   61MOL0     C 8315  11.399   0.142   5.964  0.6949  0.7693 -0.5787
   61MOL0     O 8316  11.384   0.009   5.952 -0.1022  0.1423 -0.1365
   61MOL0     C 8317  11.328  -0.057   6.063  0.9383  0.1261 -0.5101
   61MOL0     C 8318  11.305  -0.201   6.029 -0.8093  1.3455  0.4386
   61MOL0     C 8319  11.222  -0.220   5.895  0.3223  0.1787 -0.2881
   61MOL0     C 8320  11.190  -0.366   5.870 -1.0105  0.4780 -0.4423
   61MOL0     C 8321  11.198  -0.420   5.732  2.1169 -1.4019 -0.2939
   61MOL0     C 8322  11.091  -0.347   5.638 -0.4290 -0.1172 -0.3586
   61MOL0     C 8323  11.089  -0.396   5.494 -0.6112 -0.5867 -0.3560
   61MOL0     C 8324  11.012  -0.298   5.395 -0.4475 -0.3028  0.3495
   61MOL0    Cl 8325  11.066  -0.121   5.409  0.0073 -0.2312  0.3083
   61MOL0     C 8326  11.353   0.222   6.068  0.2928 -0.5025  0.1106
   61MOL0     C 8327  11.387   0.356   6.074 -0.0623  0.2864 -0.8713
   61MOL0     O 8328  11.695   0.539   6.010 -0.0929 -0.4606 -0.4803
   61MOL0     C 8329  11.573   0.830   6.123 -0.5128  1.0485  0.2248
   61MOL0     C 8330  11.601   0.960   6.132 -0.8803 -0.1425 -0.3967
   61MOL0     N 8331  11.332   1.007   6.315  0.8582  0.5732  0.8394
   61MOL0     N 8332  11.290   0.886   6.292  0.0989  0.0047  0.7065
   61MOL0     C 8333  10.308   0.872   5.946  0.9968  0.0835  0.9043
   61MOL0     C 8334  10.230   0.903   5.831 -0.1757 -0.0170  0.6996
   61MOL0     C 8335  10.044   0.869   5.410  0.7394 -0.4456  0.4452
   61MOL0     C 8336  10.042   1.010   5.390 -1.1957  0.3235 -0.3957
   61MOL0     C 8337  10.009   1.069   5.276 -0.0595 -0.3783  0.2797
   61MOL0     C 8338   9.952   0.997   5.170 -0.6599 -0.3730 -0.7013
   61MOL0     O 8339   9.920   1.068   5.068 -0.0794 -0.6580 -0.0550
   61MOL0     C 8340   9.811   1.021   4.988  1.0999 -0.0848  0.7202
   61MOL0     C 8341   9.746   1.132   4.911 -0.0852  0.0222  0.1162
   61MOL0     C 8342   9.664   1.241   4.984 -0.1261 -0.0326  0.6039
   61MOL0     C 8343   9.584   1.323   4.883 -0.1099 -0.1158  0.7920
   61MOL0     C 8344   9.566   1.455   4.943  0.1351 -0.8986  0.8714
   61MOL0     C 8345   9.558   1.576   4.974 -0.0830 -0.7334  0.6532
   61MOL0     C 8346   9.939   0.860   5.191  0.6797  0.2853 -0.5531
   61MOL0     C 8347   9.985   0.790   5.308 -0.4152  0.1323  0.0379
   61MOL0     C 8348   9.987   0.630   5.312 -0.4925 -0.2272  0.1777
   61MOL0     H 8349  10.403   0.716   5.601  3.4033  2.5331 -1.1470
   61MOL0     H 8350  10.519   0.638   5.795 -0.4275  0.8243 -3.3716
   61MOL0     H 8351  10.635   0.611   5.983  0.1134 -1.7248  0.6302
   61MOL0     H 8352  10.478   0.559   6.061  0.6822 -0.5035 -3.4621
   61MOL0     H 8353  10.687   0.714   6.219 -0.3483  0.1142  0.2979
   61MOL0     H 8354  10.566   0.638   6.285  0.2591 -0.8593  0.4817
   61MOL0     H 8355  10.646   0.418   6.222 -0.0114  0.1324 -0.1442
   61MOL0     H 8356  10.774   0.479   6.115  0.6099  2.7173 -0.7181
   61MOL0     H 8357  10.758   0.490   6.414  0.9244 -3.3121  0.7244
   61MOL0     H 8358  10.864   0.381   6.315 -0.4882 -0.6753  1.7978
   61MOL0     H 8359  10.959   0.592   6.437  1.4295 -0.7835 -0.8124
   61MOL0     H 8360  10.884   0.686   6.310  1.2751  1.3724  2.6007
   61MOL0     H 8361  11.072   0.446   6.301 -0.2141 -0.3409 -0.4747
   61MOL0     H 8362  11.013   0.523   6.151  0.3338  0.3054  0.3702
   61MOL0     H 8363  11.238   0.575   6.251  0.4161  0.9321 -1.8723
   61MOL0     H 8364  11.156   0.692   6.363 -0.0709  1.7214 -0.2056
   61MOL0     H 8365  11.195   0.713   6.061 -2.5352  1.3542 -1.6952
   61MOL0     H 8366  11.042   0.769   6.125  0.2668  1.0679 -2.5057
   61MOL0     H 8367  11.095   1.026   6.082  1.6551 -0.7984 -0.8697
   61MOL0     H 8368  11.241   1.298   6.260 -1.2753 -0.0263  0.3000
   61MOL0     H 8369  11.203   1.250   6.098  0.8874  2.7514 -0.5242
   61MOL0     H 8370  11.432   1.380   6.126  0.4048  0.2505 -1.5210
   61MOL0     H 8371  11.494   1.229   6.189  3.0985  2.4323 -1.0993
   61MOL0     H 8372  11.396   1.117   5.979  2.3347 -0.6497 -2.8941
   61MOL0     H 8373  11.355   1.278   5.923  0.5326 -2.9954 -2.4510
   61MOL0     H 8374  11.573   1.216   5.833  0.2754  0.5678 -0.0959
   61MOL0     H 8375  11.601   1.351   5.941 -0.4868 -0.2107  0.8395
   61MOL0     H 8376  11.729   1.012   5.820 -0.0583  0.4995 -0.2220
   61MOL0     H 8377  11.806   0.800   5.735 -0.4627  1.0990 -2.0571
   61MOL0     H 8378  11.640   0.746   5.691  1.4292 -2.4402 -0.6039
   61MOL0     H 8379  11.753   0.652   5.791  1.8982 -0.1655 -3.6605
   61MOL0     H 8380  11.524   0.409   5.784  1.3166  0.9538  0.4946
   61MOL0     H 8381  11.507   0.154   5.776  2.4888  0.3490  0.8663
   61MOL0     H 8382  11.392  -0.052   6.151  2.5722  0.1654 -1.6640
   61MOL0     H 8383  11.235  -0.002   6.078  1.2070  0.6048 -0.5891
   61MOL0     H 8384  11.401  -0.252   6.023 -0.6554  1.5173  1.3065
   61MOL0     H 8385  11.242  -0.242   6.109  0.3102 -0.4350  0.4469
   61MOL0     H 8386  11.291  -0.182   5.819 -0.3202  0.6460 -0.6482
   61MOL0     H 8387  11.134  -0.156   5.899  1.0687  1.1557  2.3266
   61MOL0     H 8388  11.097  -0.395   5.920  0.0682  1.1320  2.1338
   61MOL0     H 8389  11.275  -0.416   5.916 -1.7597 -0.7232 -0.3381
   61MOL0     H 8390  11.299  -0.407   5.690  1.5171  1.9923 -1.0303
   61MOL0     H 8391  11.161  -0.522   5.744 -1.9990 -0.0395  0.1013
   61MOL0     H 8392  11.115  -0.241   5.633 -0.5591  0.1583  2.9045
   61MOL0     H 8393  10.998  -0.365   5.694  0.0028  0.8926  0.7187
   61MOL0     H 8394  11.028  -0.487   5.504  0.0496 -1.0044 -0.0228
   61MOL0     H 8395  11.189  -0.430   5.464 -1.2638 -3.0043  0.0117
   61MOL0     H 8396  10.903  -0.300   5.404 -0.5374  0.7247 -0.4059
   61MOL0     H 8397  11.032  -0.334   5.294  3.8280 -0.9008  1.2142
   61MOL0     H 8398  11.290   0.179   6.145  1.9154 -0.3764  1.5779
   61MOL0     H 8399  11.340   0.415   6.151 -0.6019  2.3152 -2.6580
   61MOL0     H 8400  11.532   0.783   6.212  1.8196 -1.6708  0.0162
   61MOL0     H 8401  11.586   1.013   6.226  2.5557 -2.0462  1.4150
   61MOL0     H 8402  10.291   0.909   6.047  2.9375  0.3604  1.1624
   61MOL0     H 8403  10.146   0.969   5.849  0.3785  0.6435  0.9498
   61MOL0     H 8404  10.087   1.070   5.469 -0.6935 -1.5059  0.7792
   61MOL0     H 8405  10.006   1.177   5.265  2.1355 -0.2900  0.0938
   61MOL0     H 8406   9.856   0.947   4.922  0.2053  0.3928 -0.4598
   61MOL0     H 8407   9.724   0.968   5.028  0.9592 -1.5597 -1.3652
   61MOL0     H 8408   9.685   1.093   4.829  0.0425  1.5684 -0.7526
   61MOL0     H 8409   9.830   1.174   4.854 -0.5713  0.0686 -0.5753
   61MOL0     H 8410   9.589   1.197   5.050  1.4708 -1.2110  1.7347
   61MOL0     H 8411   9.733   1.304   5.040 -2.1145  1.7840  1.1117
   61MOL0     H 8412   9.479   1.301   4.862  0.0962 -0.0743 -0.3602
   61MOL0     H 8413   9.643   1.319   4.790  1.8254 -0.6382  1.9868
   61MOL0     H 8414   9.545   1.679   5.001  3.3704  0.0750 -0.2726
   61MOL0     H 8415   9.900   0.798   5.112 -0.4613  1.0469 -0.6113
   61MOL0     H 8416   9.959   0.588   5.409 -2.7095  0.0404 -0.2884
   61MOL0     H 8417   9.906   0.575   5.262  0.4227 -4.8991  3.2698
   61MOL0     H 8418  10.084   0.587   5.287 -1.1367 -1.0884 -0.9212
   62MOL0     O 8419  10.584   9.215   5.161  0.3368 -1.0055 -0.0441
   62MOL0     C 8420  10.579   9.307   5.090 -0.1457 -0.7403  1.0237
   62MOL0     O 8421  10.474   9.340   5.003  1.4406 -0.1898 -0.0899
   62MOL0     C 8422  10.362   9.270   4.971 -0.4534 -0.3840 -0.4901
   62MOL0     C 8423  10.323   9.166   5.051  0.2609 -0.0820 -0.1116
   62MOL0     C 8424  10.198   9.099   5.032  0.3855 -1.4540  0.7101
   62MOL0     C 8425  10.116   9.131   4.922  0.3876  0.1748  0.7576
   62MOL0     O 8426  10.008   9.062   4.918 -0.3816 -0.0369 -0.0221
   62MOL0     C 8427  10.014   8.949   4.833 -0.3114 -0.3703 -0.3953
   62MOL0     C 8428   9.882   8.880   4.819 -0.0085  0.3205 -0.3311
   62MOL0     C 8429   9.782   8.968   4.750 -0.3089  0.0947 -0.8472
   62MOL0     C 8430   9.660   8.883   4.719  1.3005 -0.0426 -0.5616
   62MOL0     C 8431   9.549   8.956   4.638  0.1603 -0.5885 -0.1128
   62MOL0     C 8432   9.487   9.071   4.714  0.3395 -0.5603  0.0311
   62MOL0     C 8433   9.379   9.150   4.632  0.1581  0.0917  0.1343
   62MOL0     C 8434   9.362   9.302   4.640 -0.4198  0.4021 -0.0088
   62MOL0     N 8435   9.237   9.338   4.560 -0.6453 -0.1139  0.4959
   62MOL0     C 8436   9.101   9.349   4.591 -0.2013 -0.3654  0.4120
   62MOL0     C 8437   9.044   9.367   4.468  0.3402  0.5469  0.4822
   62MOL0     C 8438   8.894   9.401   4.444 -0.4716 -0.3076 -0.3217
   62MOL0     C 8439   8.809   9.373   4.568  1.9747  0.1975 -0.4303
   62MOL0     C 8440   8.669   9.421   4.548 -0.2495 -0.7495  0.1079
   62MOL0     C 8441   8.576   9.411   4.676 -0.6446  1.0312 -0.0442
   62MOL0     O 8442   8.494   9.292   4.676 -0.6328  0.4435 -0.0005
   62MOL0     C 8443   8.404   9.276   4.566 -0.0341 -0.2408  0.3883
   62MOL0     C 8444   8.278   9.344   4.564  0.5520  0.6770  0.4902
   62MOL0     C 8445   8.196   9.343   4.452  0.5089  0.6876 -0.9318
   62MOL0     C 8446   8.070   9.424   4.468 -0.3289 -0.3309 -0.5831
   62MOL0     C 8447   8.235   9.267   4.335  0.9211 -0.1878 -0.9278
   62MOL0     C 8448   8.149   9.241   4.204 -0.6355  0.1699 -0.4413
   62MOL0     O 8449   8.220   9.239   4.080 -0.0867  0.0895 -0.7185
   62MOL0     C 8450   8.148   9.219   3.959  0.3194 -0.2713 -0.3249
   62MOL0     C 8451   8.021   9.158   3.944  1.4571  0.5942 -0.4800
   62MOL0     C 8452   7.977   9.130   3.819 -0.0949  1.0218 -1.1175
   62MOL0     C 8453   8.027   9.191   3.706  0.2555  0.5041 -0.7354
   62MOL0     O 8454   7.944   9.199   3.601  0.1700 -0.5622  0.0483
   62MOL0     C 8455   8.000   9.238   3.478  0.1133 -0.6690 -1.0292
   62MOL0     C 8456   7.918   9.187   3.356  0.7630 -0.1746  0.3791
   62MOL0     C 8457   7.941   9.046   3.329  0.0112  0.3170 -0.7491
   62MOL0     C 8458   7.851   9.003   3.220 -1.3727 -0.5981  0.0397
   62MOL0     C 8459   7.896   8.870   3.150 -0.1384 -1.8800 -0.8236
   62MOL0     C 8460   7.809   8.823   3.029 -0.7079  0.2860 -1.3090
   62MOL0     C 8461   7.852   8.678   3.001 -0.6684  0.5211 -0.3849
   62MOL0     C 8462   8.002   8.668   2.946 -0.0277  0.5978 -0.5410
   62MOL0    Cl 8463   8.138   8.700   3.048 -0.6690  0.5143 -0.6329
   62MOL0     C 8464   8.138   9.268   3.723 -1.1629 -0.1148 -0.8324
   62MOL0     C 8465   8.197   9.283   3.844 -0.5734  0.1242  0.2264
   62MOL0     O 8466   8.035   9.214   4.229 -0.4023  0.3744  0.0026
   62MOL0     C 8467   8.362   9.213   4.337 -0.0063  0.2235  0.2939
   62MOL0     C 8468   8.443   9.200   4.455  0.5544  0.4694  0.2861
   62MOL0     N 8469   9.143   9.359   4.367  0.7409  0.0490  0.0164
   62MOL0     N 8470   9.243   9.326   4.425 -0.3804 -0.5143  0.2673
   62MOL0     C 8471  10.159   9.236   4.838  0.4356  0.3509 -0.5830
   62MOL0     C 8472  10.282   9.302   4.860 -0.1166  1.0728  0.1223
   62MOL0     C 8473  10.682   9.418   5.103  0.7364  0.2955 -0.0241
   62MOL0     C 8474  10.670   9.530   5.032 -0.1819 -0.6783 -0.3620
   62MOL0     C 8475  10.752   9.637   5.050  0.3472  0.0450  0.9487
   62MOL0     C 8476  10.860   9.631   5.135  1.3878 -0.2702  0.1710
   62MOL0     O 8477  10.936   9.743   5.144 -0.6581 -0.2710 -0.1178
   62MOL0     C 8478  11.055   9.742   5.065 -0.8638 -0.1393  0.0495
   62MOL0     C 8479  11.143   9.867   5.114 -0.5377  0.5304  0.0023
   62MOL0     C 8480  11.284   9.877   5.045 -0.7118 -0.1620 -0.6106
   62MOL0     C 8481  11.374   9.977   5.121  0.0168  0.4609 -0.1625
   62MOL0     C 8482  11.377   9.949   5.263 -0.9384  0.9888 -0.7904
   62MOL0     C 8483  11.388   9.925   5.383 -1.1329 -0.5940  0.3576
   62MOL0     C 8484  10.881   9.513   5.193 -0.1252 -0.4021 -0.0913
   62MOL0     C 8485  10.792   9.406   5.186  0.1622  0.2994 -0.3009
   62MOL0     C 8486  10.813   9.289   5.277  0.0624  0.0268 -0.4010
   62MOL0     H 8487  10.380   9.117   5.129 -1.6241 -3.5897 -0.7183
   62MOL0     H 8488  10.164   9.022   5.100 -0.6399 -1.3300  0.3604
   62MOL0     H 8489  10.078   8.870   4.873  0.2301 -0.9035 -2.2052
   62MOL0     H 8490  10.066   8.981   4.742  0.5658 -4.1027 -1.3732
   62MOL0     H 8491   9.893   8.786   4.764  2.0937  0.3846 -0.1052
   62MOL0     H 8492   9.855   8.858   4.922  0.2044  2.2473  0.1784
   62MOL0     H 8493   9.764   9.051   4.819  1.3025  2.1650 -2.7686
   62MOL0     H 8494   9.831   9.012   4.663  0.7897 -0.4480 -0.5328
   62MOL0     H 8495   9.679   8.788   4.668  1.4627 -1.4155  1.9038
   62MOL0     H 8496   9.614   8.847   4.811 -1.0558 -0.6186 -1.8843
   62MOL0     H 8497   9.477   8.877   4.618 -0.2999 -0.6629  1.7205
   62MOL0     H 8498   9.576   8.998   4.540 -0.9081 -2.0699 -1.0666
   62MOL0     H 8499   9.442   9.017   4.798 -0.1305 -0.0463  0.1174
   62MOL0     H 8500   9.558   9.140   4.761 -0.1597 -0.7933  1.1479
   62MOL0     H 8501   9.283   9.103   4.655 -0.3918  0.0748 -2.0211
   62MOL0     H 8502   9.392   9.138   4.524  2.7045  2.6157  0.0387
   62MOL0     H 8503   9.355   9.343   4.741  2.5285  0.2952  0.3073
   62MOL0     H 8504   9.447   9.360   4.603 -0.7516  1.8529  1.4138
   62MOL0     H 8505   9.071   9.362   4.695  1.4052  1.4592  0.7274
   62MOL0     H 8506   8.850   9.340   4.364 -3.8937  1.3722  0.1258
   62MOL0     H 8507   8.875   9.505   4.417 -1.9130 -0.5466 -0.2790
   62MOL0     H 8508   8.796   9.265   4.578 -3.0427  0.5190 -1.0686
   62MOL0     H 8509   8.850   9.420   4.658 -3.6109  1.9025  1.6122
   62MOL0     H 8510   8.685   9.528   4.534 -2.3585 -0.2928  0.7925
   62MOL0     H 8511   8.623   9.378   4.458 -1.3735 -0.6429  0.6125
   62MOL0     H 8512   8.629   9.413   4.772  0.3362  3.8509 -0.5491
   62MOL0     H 8513   8.506   9.494   4.667  0.1410  1.7824  0.5900
   62MOL0     H 8514   8.249   9.406   4.649  0.1159 -1.3274  1.8849
   62MOL0     H 8515   8.090   9.531   4.481  0.5214 -0.5062 -0.3875
   62MOL0     H 8516   8.018   9.390   4.558 -1.8343  1.8909 -0.5439
   62MOL0     H 8517   8.013   9.403   4.377 -0.3630 -2.3500 -0.1500
   62MOL0     H 8518   7.960   9.123   4.028 -0.6661  0.9024 -1.8159
   62MOL0     H 8519   7.885   9.077   3.795 -0.6923  1.4299  0.1643
   62MOL0     H 8520   8.014   9.347   3.478 -0.6310 -0.5126  1.4510
   62MOL0     H 8521   8.100   9.196   3.474  0.0612 -0.7109 -2.1857
   62MOL0     H 8522   7.812   9.185   3.383  0.8874 -2.8518  1.0160
   62MOL0     H 8523   7.933   9.252   3.270  1.4084  0.9285  1.3038
   62MOL0     H 8524   7.930   8.985   3.419  7.7695 -1.5935 -0.3941
   62MOL0     H 8525   8.045   9.031   3.298 -0.1552 -2.4945 -0.2091
   62MOL0     H 8526   7.841   9.072   3.136 -1.2506 -1.7710 -0.9691
   62MOL0     H 8527   7.749   8.993   3.261 -1.6123 -2.5828 -0.8935
   62MOL0     H 8528   7.997   8.888   3.114  2.1502 -4.4964  3.5169
   62MOL0     H 8529   7.905   8.802   3.234  1.1851  0.0964  0.7307
   62MOL0     H 8530   7.839   8.891   2.948  0.1833 -0.2271 -1.4251
   62MOL0     H 8531   7.701   8.830   3.037 -0.9055 -3.2483  1.0340
   62MOL0     H 8532   7.780   8.632   2.932  1.3395 -2.2231 -0.7982
   62MOL0     H 8533   7.848   8.614   3.089 -0.0600 -1.0766 -1.4633
   62MOL0     H 8534   8.000   8.722   2.851 -1.6105 -0.4832 -1.1635
   62MOL0     H 8535   8.008   8.560   2.932  3.8990  0.5033  0.6385
   62MOL0     H 8536   8.184   9.315   3.636  0.3853  0.0615  0.0494
   62MOL0     H 8537   8.290   9.337   3.853 -1.5753  2.1379 -0.8264
   62MOL0     H 8538   8.381   9.146   4.254 -2.3971 -2.2254  1.5405
   62MOL0     H 8539   8.542   9.156   4.456  0.1212 -0.5139  1.1041
   62MOL0     H 8540  10.090   9.276   4.764 -0.1739 -0.6020 -0.5437
   62MOL0     H 8541  10.293   9.395   4.806  3.0371  0.1348 -1.0273
   62MOL0     H 8542  10.588   9.548   4.963 -0.5320  1.1060  0.4734
   62MOL0     H 8543  10.728   9.727   4.994 -1.7541 -0.3909  1.0513
   62MOL0     H 8544  11.109   9.650   5.088  0.2976  0.4999  0.0079
   62MOL0     H 8545  11.016   9.745   4.963 -0.4453  0.6001 -0.1011
   62MOL0     H 8546  11.163   9.850   5.220  2.2345 -2.5754 -0.8349
   62MOL0     H 8547  11.089   9.961   5.095 -0.9347  0.0948 -1.1554
   62MOL0     H 8548  11.328   9.776   5.052 -3.2965 -1.4629 -1.9056
   62MOL0     H 8549  11.268   9.906   4.941 -0.3327  1.6571 -0.1966
   62MOL0     H 8550  11.324  10.075   5.123 -0.8062  0.0631  1.7866
   62MOL0     H 8551  11.479   9.978   5.092 -0.9632 -1.4174 -4.5519
   62MOL0     H 8552  11.410   9.915   5.488 -0.2116 -0.9976  0.1364
   62MOL0     H 8553  10.961   9.512   5.267 -0.3409  3.0945  0.3461
   62MOL0     H 8554  10.814   9.189   5.233 -1.7290 -1.5670  2.8501
   62MOL0     H 8555  10.913   9.296   5.321  0.3405 -0.1374 -0.9974
   62MOL0     H 8556  10.735   9.293   5.354  0.7559  0.9702  0.2752
   63MOL0     O 8557   3.723   8.988   2.459  0.7042 -0.6145  0.1694
   63MOL0     C 8558   3.765   8.874   2.475  0.9748 -0.2217 -0.5210
   63MOL0     O 8559   3.847   8.837   2.570 -0.7224  0.2573  0.8693
   63MOL0     C 8560   3.928   8.935   2.623  0.2619  0.6723 -0.3510
   63MOL0     C 8561   3.899   8.978   2.751 -0.6198 -0.0796 -0.1571
   63MOL0     C 8562   3.971   9.088   2.804  0.1976 -0.3565 -0.2912
   63MOL0     C 8563   4.090   9.135   2.750  0.5080 -0.1146 -1.0708
   63MOL0     O 8564   4.139   9.235   2.832  0.1595  0.0649  0.2290
   63MOL0     C 8565   4.195   9.325   2.737 -0.2732 -1.3448  0.1805
   63MOL0     C 8566   4.215   9.462   2.806 -0.0694  0.1796 -0.8157
   63MOL0     C 8567   4.299   9.466   2.935  0.1612  0.5355 -1.2997
   63MOL0     C 8568   4.210   9.502   3.062 -0.1715  0.0385  0.0351
   63MOL0     C 8569   4.135   9.635   3.067 -0.8153  0.0095  0.2246
   63MOL0     C 8570   4.231   9.755   3.082  0.8425 -0.9750  0.5740
   63MOL0     C 8571   4.139   9.879   3.097 -0.2417 -0.0596  0.1323
   63MOL0     C 8572   4.206  10.000   3.151  0.2098 -0.5706 -0.4702
   63MOL0     N 8573   4.304  10.073   3.067  0.1965 -0.4069  0.5496
   63MOL0     C 8574   4.323  10.051   2.936  0.0927  0.3713  0.3877
   63MOL0     C 8575   4.448  10.100   2.909 -0.4368 -0.0999  1.1114
   63MOL0     C 8576   4.535  10.066   2.789 -0.4976  0.5180  0.1052
   63MOL0     C 8577   4.689  10.053   2.826 -0.0038  0.1956 -0.0935
   63MOL0     C 8578   4.773  10.034   2.702  0.5927  0.6512  1.2543
   63MOL0     C 8579   4.721   9.922   2.617  0.2398 -0.8238  0.3202
   63MOL0     O 8580   4.748   9.799   2.687 -0.0571  0.1585 -1.1083
   63MOL0     C 8581   4.716   9.677   2.633 -0.2035 -0.5818 -0.8101
   63MOL0     C 8582   4.707   9.561   2.711 -0.5886  0.2070  0.0940
   63MOL0     C 8583   4.640   9.446   2.684 -0.0964  0.8952  0.0474
   63MOL0     C 8584   4.643   9.337   2.794  0.2455 -0.4768  0.8503
   63MOL0     C 8585   4.581   9.444   2.556  0.1402  1.2073 -0.3134
   63MOL0     C 8586   4.495   9.339   2.508 -0.2876  1.3876 -0.6634
   63MOL0     O 8587   4.406   9.364   2.417  0.4138 -1.1130  0.8157
   63MOL0     C 8588   4.311   9.276   2.376  0.0425 -0.4905 -0.7521
   63MOL0     C 8589   4.344   9.162   2.300 -0.5004  0.4912  0.0486
   63MOL0     C 8590   4.246   9.080   2.243  0.3829  0.4252  0.0023
   63MOL0     C 8591   4.113   9.118   2.267  0.5322  0.5349 -0.1477
   63MOL0     O 8592   4.012   9.042   2.205 -0.2079 -0.2592  0.1846
   63MOL0     C 8593   3.877   9.100   2.187  0.5008 -0.8586  0.6205
   63MOL0     C 8594   3.884   9.189   2.061 -0.2692 -0.5806  0.5607
   63MOL0     C 8595   3.909   9.120   1.928  0.0530  0.0765  0.2967
   63MOL0     C 8596   3.802   9.015   1.891  0.0511 -0.5903  0.3200
   63MOL0     C 8597   3.879   8.879   1.868 -0.4239  0.5949 -0.1721
   63MOL0     C 8598   3.796   8.753   1.853 -0.4042  1.1110  0.3123
   63MOL0     C 8599   3.642   8.766   1.879 -0.0994 -0.7855 -0.1069
   63MOL0     C 8600   3.574   8.641   1.834 -0.2026 -0.7640  0.3132
   63MOL0    Cl 8601   3.395   8.680   1.840 -0.0752  0.3609  0.2986
   63MOL0     C 8602   4.081   9.226   2.340 -0.2459 -0.4568 -0.0626
   63MOL0     C 8603   4.178   9.316   2.383 -0.2479  0.2422 -0.0654
   63MOL0     O 8604   4.517   9.223   2.554 -0.3388 -0.2749  0.0604
   63MOL0     C 8605   4.599   9.552   2.470 -1.4005 -0.0558 -0.8858
   63MOL0     C 8606   4.669   9.666   2.508 -0.2317  0.0188 -0.3884
   63MOL0     N 8607   4.489  10.172   3.025 -0.2892  0.0487  0.5923
   63MOL0     N 8608   4.401  10.155   3.114  0.6353 -0.5145  0.5943
   63MOL0     C 8609   4.130   9.079   2.631  0.5456 -0.7147 -0.4133
   63MOL0     C 8610   4.049   8.975   2.564 -0.1547 -0.3476  0.3949
   63MOL0     C 8611   3.704   8.761   2.406 -0.4422  0.0964  0.4251
   63MOL0     C 8612   3.779   8.677   2.316  0.2620 -0.8604 -0.3845
   63MOL0     C 8613   3.710   8.576   2.243 -0.1029  0.5419 -0.9638
   63MOL0     C 8614   3.574   8.559   2.269 -0.3490  0.2363 -0.0238
   63MOL0     O 8615   3.499   8.460   2.214 -0.0012  0.7102 -0.3268
   63MOL0     C 8616   3.551   8.322   2.214 -0.6190 -0.3181  0.0655
   63MOL0     C 8617   3.605   8.285   2.082 -0.0663  0.0835 -0.4189
   63MOL0     C 8618   3.484   8.227   2.003 -0.1062  0.0573  1.5224
   63MOL0     C 8619   3.512   8.246   1.852 -0.6404  0.3255 -0.4656
   63MOL0     C 8620   3.635   8.170   1.811  0.0835 -0.0585 -0.4665
   63MOL0     C 8621   3.743   8.121   1.794  0.0200 -0.4755  0.0745
   63MOL0     C 8622   3.496   8.643   2.351 -0.8128 -0.3752 -1.3844
   63MOL0     C 8623   3.561   8.754   2.417  0.0711  1.0749  1.1574
   63MOL0     C 8624   3.475   8.831   2.508  0.7970 -0.7261 -0.8620
   63MOL0     H 8625   3.813   8.938   2.804 -0.7740  0.0479 -0.3129
   63MOL0     H 8626   3.939   9.121   2.903  1.3944  1.3258 -0.4129
   63MOL0     H 8627   4.130   9.343   2.651 -1.2573 -1.5038  0.8790
   63MOL0     H 8628   4.289   9.286   2.697  2.6110  1.6664  3.3839
   63MOL0     H 8629   4.260   9.531   2.734 -1.7995  3.4484  0.9843
   63MOL0     H 8630   4.116   9.510   2.806  0.2342  1.0170 -3.9496
   63MOL0     H 8631   4.341   9.368   2.958 -1.8948 -0.1817 -0.2922
   63MOL0     H 8632   4.374   9.546   2.929 -0.9246  2.1886  3.1053
   63MOL0     H 8633   4.131   9.427   3.067 -0.8221  0.3583 -3.1301
   63MOL0     H 8634   4.262   9.495   3.158 -0.3588  3.0666  0.4789
   63MOL0     H 8635   4.065   9.643   3.151 -1.8887  1.4371 -0.7722
   63MOL0     H 8636   4.076   9.656   2.978  0.9336  2.2626 -0.4804
   63MOL0     H 8637   4.279   9.737   3.179 -3.0448 -0.5011  2.8192
   63MOL0     H 8638   4.303   9.777   3.004  0.3571  1.5790  0.7548
   63MOL0     H 8639   4.068   9.867   3.179  0.8312  3.0150  1.6511
   63MOL0     H 8640   4.082   9.908   3.009  0.1579 -1.6850 -0.6997
   63MOL0     H 8641   4.123  10.067   3.177  0.3189 -0.3889 -0.5797
   63MOL0     H 8642   4.268   9.973   3.236  4.0402  0.2657 -2.7541
   63MOL0     H 8643   4.266   9.989   2.868 -2.1785 -1.0158  3.3114
   63MOL0     H 8644   4.525  10.134   2.704 -0.9791  0.8136  0.3882
   63MOL0     H 8645   4.481   9.977   2.756 -0.9509 -0.2935  2.7860
   63MOL0     H 8646   4.721  10.147   2.870  1.3188 -1.0290  1.6937
   63MOL0     H 8647   4.706   9.962   2.884  1.0620 -0.1722 -0.9689
   63MOL0     H 8648   4.784  10.121   2.638  4.2997  0.5150  1.4511
   63MOL0     H 8649   4.876  10.019   2.737  2.5776 -1.3244 -4.2809
   63MOL0     H 8650   4.617   9.939   2.587  0.1844  0.1297  1.0029
   63MOL0     H 8651   4.796   9.931   2.537  0.9821  3.5215  1.2121
   63MOL0     H 8652   4.756   9.582   2.806  0.2375 -1.1744 -0.0132
   63MOL0     H 8653   4.712   9.253   2.778  2.8765  1.6994  0.0030
   63MOL0     H 8654   4.544   9.293   2.807 -0.2716  1.0396  2.5567
   63MOL0     H 8655   4.670   9.384   2.889  0.2322 -1.3422  1.2966
   63MOL0     H 8656   4.451   9.141   2.299 -0.6365 -0.4434 -2.4060
   63MOL0     H 8657   4.281   8.991   2.191  1.8397  0.7993  0.2839
   63MOL0     H 8658   3.802   9.021   2.174  0.7396 -0.7076 -2.1542
   63MOL0     H 8659   3.842   9.163   2.270  2.6583 -0.3155  1.1921
   63MOL0     H 8660   3.800   9.258   2.044 -0.4960 -0.4588  2.0707
   63MOL0     H 8661   3.970   9.254   2.079 -1.8398  1.7544  0.1002
   63MOL0     H 8662   3.996   9.057   1.948  1.3096  1.4642 -0.6363
   63MOL0     H 8663   3.926   9.190   1.846 -1.4131  0.3301  0.1790
   63MOL0     H 8664   3.751   9.052   1.801 -1.1292  3.8687  2.5388
   63MOL0     H 8665   3.713   9.000   1.954  0.3861  1.1384  1.2567
   63MOL0     H 8666   3.948   8.898   1.785 -0.9620  2.4128 -0.2561
   63MOL0     H 8667   3.947   8.859   1.951  0.0858 -0.9434 -0.9289
   63MOL0     H 8668   3.828   8.672   1.919 -2.6700 -0.0255  0.1206
   63MOL0     H 8669   3.817   8.718   1.752 -4.0935  1.4753 -0.7461
   63MOL0     H 8670   3.593   8.848   1.825  0.2053  0.4013  1.3645
   63MOL0     H 8671   3.616   8.785   1.983 -3.3893 -1.0706 -0.7768
   63MOL0     H 8672   3.601   8.560   1.902  0.7871  1.1396  2.2865
   63MOL0     H 8673   3.613   8.631   1.732  1.2868  0.1929  0.7642
   63MOL0     H 8674   3.984   9.271   2.356  0.3049  1.6224 -2.0170
   63MOL0     H 8675   4.143   9.405   2.433  0.0136  0.4051 -0.1683
   63MOL0     H 8676   4.557   9.550   2.370  0.1981  0.8884 -1.6142
   63MOL0     H 8677   4.681   9.747   2.436 -0.3743  0.7046  0.3367
   63MOL0     H 8678   4.226   9.111   2.591  1.3770  1.4547  2.8718
   63MOL0     H 8679   4.091   8.939   2.471 -0.5879  0.9720 -0.3293
   63MOL0     H 8680   3.885   8.701   2.306  0.1171 -0.8612 -2.4760
   63MOL0     H 8681   3.765   8.514   2.173  0.4554  0.1626 -0.2108
   63MOL0     H 8682   3.632   8.318   2.288  0.5941 -2.1876 -1.2641
   63MOL0     H 8683   3.475   8.253   2.252  0.6670 -0.7975  1.9405
   63MOL0     H 8684   3.676   8.206   2.109  1.6173  2.4662  2.8337
   63MOL0     H 8685   3.659   8.360   2.024  1.6259 -2.4181 -2.3023
   63MOL0     H 8686   3.484   8.122   2.036  0.4889 -1.0410 -1.6197
   63MOL0     H 8687   3.382   8.255   2.032 -0.5856  0.5167 -0.4075
   63MOL0     H 8688   3.515   8.353   1.833  1.2710  0.0413 -2.0589
   63MOL0     H 8689   3.426   8.211   1.794 -0.7936  0.5614 -0.3820
   63MOL0     H 8690   3.829   8.067   1.761  0.0303  1.5467 -3.7366
   63MOL0     H 8691   3.390   8.625   2.365 -0.4110 -0.9687  1.4294
   63MOL0     H 8692   3.396   8.762   2.539 -0.8372  0.0353 -3.0651
   63MOL0     H 8693   3.518   8.867   2.602 -2.1539 -1.8797  1.0757
   63MOL0     H 8694   3.434   8.914   2.449 -2.0277 -3.2360 -2.7734
   64MOL0     O 8695   9.112   8.658   8.753  0.2635 -0.3212  0.1105
   64MOL0     C 8696   8.988   8.646   8.745 -0.0931 -0.0093 -0.9265
   64MOL0     O 8697   8.923   8.607   8.638 -0.3307 -0.2942  0.2155
   64MOL0     C 8698   8.993   8.504   8.576  0.2720  1.2443  0.0264
   64MOL0     C 8699   8.996   8.378   8.633  0.8832 -0.4753 -1.0415
   64MOL0     C 8700   9.049   8.275   8.555  0.4862 -0.0538  0.8232
   64MOL0     C 8701   9.098   8.289   8.433 -0.9377  0.0883  0.3147
   64MOL0     O 8702   9.134   8.176   8.359  0.4285 -0.3457 -0.4812
   64MOL0     C 8703   9.251   8.179   8.273 -0.7654 -0.6380  0.2312
   64MOL0     C 8704   9.386   8.206   8.353  1.5515 -0.6563 -1.4707
   64MOL0     C 8705   9.509   8.230   8.271  0.1003  0.2852 -0.0018
   64MOL0     C 8706   9.610   8.326   8.341 -0.3761 -0.3597 -0.3538
   64MOL0     C 8707   9.749   8.310   8.295 -0.5125  0.0903 -0.1262
   64MOL0     C 8708   9.781   8.360   8.145 -0.8033  0.3776  0.4742
   64MOL0     C 8709   9.862   8.489   8.154  0.6700 -0.8505 -0.4093
   64MOL0     C 8710   9.919   8.549   8.026 -0.1799  0.4640 -0.2330
   64MOL0     N 8711   9.981   8.677   8.062 -0.0941 -0.0596  0.2149
   64MOL0     C 8712  10.109   8.697   8.124 -0.5892  0.8376 -0.0694
   64MOL0     C 8713  10.104   8.830   8.161  1.1470 -1.1035  0.4459
   64MOL0     C 8714  10.204   8.904   8.221 -0.4075 -0.4352  0.5541
   64MOL0     C 8715  10.319   8.933   8.135  0.2993  0.7527 -1.0617
   64MOL0     C 8716  10.313   9.064   8.055 -0.6922 -0.2362  0.8174
   64MOL0     C 8717  10.205   9.070   7.945 -0.6128 -0.1293  0.4798
   64MOL0     O 8718  10.208   9.210   7.894  0.7637  0.3933 -0.3047
   64MOL0     C 8719  10.096   9.254   7.829  0.9720 -0.5954  0.3513
   64MOL0     C 8720  10.088   9.393   7.814  0.4648 -0.0842  0.9436
   64MOL0     C 8721  10.002   9.449   7.720  0.2392 -0.5876 -0.4077
   64MOL0     C 8722   9.975   9.596   7.697  0.1490 -0.2863  0.2970
   64MOL0     C 8723   9.910   9.360   7.657  0.6647  0.0653  0.0213
   64MOL0     C 8724   9.808   9.405   7.562 -0.4298 -0.0374 -0.5744
   64MOL0     O 8725   9.676   9.387   7.603  0.3603  0.6411  0.0161
   64MOL0     C 8726   9.577   9.469   7.565  0.0812 -0.4964 -0.0166
   64MOL0     C 8727   9.507   9.470   7.441  0.5267  0.2028  0.5624
   64MOL0     C 8728   9.429   9.578   7.412  1.4455 -0.9790 -0.4634
   64MOL0     C 8729   9.406   9.674   7.508  1.1214  0.0931 -0.8292
   64MOL0     O 8730   9.320   9.780   7.485 -0.4213  0.0969  0.1541
   64MOL0     C 8731   9.389   9.912   7.488  0.4920  0.1322  0.2390
   64MOL0     C 8732   9.307  10.000   7.390 -0.0638  0.8022 -0.1642
   64MOL0     C 8733   9.387  10.025   7.258 -0.1419  0.2053  0.6274
   64MOL0     C 8734   9.299  10.095   7.158 -0.3175  0.2080 -0.0165
   64MOL0     C 8735   9.381  10.151   7.042  0.3678  0.8731  0.6774
   64MOL0     C 8736   9.283  10.143   6.924 -0.1965  0.4205  0.0739
   64MOL0     C 8737   9.375  10.153   6.803  0.9294  0.3267  1.0106
   64MOL0     C 8738   9.285  10.165   6.682 -0.6323 -1.3096 -0.1379
   64MOL0    Cl 8739   9.373  10.156   6.525 -0.0681  0.6977  0.2978
   64MOL0     C 8740   9.461   9.666   7.644 -0.3792  0.5974 -0.8811
   64MOL0     C 8741   9.548   9.566   7.673  0.1316  0.6393 -0.4998
   64MOL0     O 8742   9.839   9.466   7.459 -0.4389  0.2740 -0.2786
   64MOL0     C 8743   9.906   9.231   7.695  0.2743  0.1835 -0.0136
   64MOL0     C 8744   9.999   9.167   7.765  0.5913 -0.4108  0.3880
   64MOL0     N 8745   9.981   8.889   8.107 -0.2875  0.0338 -0.9150
   64MOL0     N 8746   9.914   8.792   8.057  0.2156 -0.2443  0.4847
   64MOL0     C 8747   9.096   8.415   8.380  0.4515 -0.0078  0.1226
   64MOL0     C 8748   9.045   8.529   8.451  0.8509  0.2522  0.3891
   64MOL0     C 8749   8.917   8.662   8.871 -0.3906 -0.7100  0.6402
   64MOL0     C 8750   8.805   8.586   8.891  1.0934  0.2866 -1.2761
   64MOL0     C 8751   8.724   8.597   9.010 -0.2271  0.5873  0.2319
   64MOL0     C 8752   8.750   8.698   9.099  0.3828  0.0447  0.7823
   64MOL0     O 8753   8.678   8.698   9.213  0.1586 -0.1299 -0.6843
   64MOL0     C 8754   8.684   8.815   9.299  0.2974  0.8389  0.0067
   64MOL0     C 8755   8.568   8.806   9.400  0.4328 -0.7911 -0.0872
   64MOL0     C 8756   8.425   8.849   9.348 -0.3988  0.3378  0.6087
   64MOL0     C 8757   8.328   8.743   9.400 -0.3367  0.6776 -0.4646
   64MOL0     C 8758   8.195   8.794   9.428 -0.0202 -1.3002 -0.7736
   64MOL0     C 8759   8.082   8.839   9.464 -0.0970 -0.1601 -0.6875
   64MOL0     C 8760   8.854   8.794   9.068 -0.2353  0.5390  0.1433
   64MOL0     C 8761   8.942   8.772   8.965 -0.1605  0.1894  0.0419
   64MOL0     C 8762   9.057   8.870   8.957 -0.4280 -0.2435  0.0725
   64MOL0     H 8763   8.970   8.358   8.737  1.2399  2.1597 -0.3786
   64MOL0     H 8764   9.051   8.180   8.608 -0.9707 -1.1780 -1.0166
   64MOL0     H 8765   9.234   8.248   8.189  1.9765 -1.6954 -1.3202
   64MOL0     H 8766   9.256   8.076   8.236 -3.0384 -0.9636  0.6773
   64MOL0     H 8767   9.360   8.291   8.416 -0.2846 -2.7465  0.8415
   64MOL0     H 8768   9.388   8.126   8.429  0.7898  0.0112 -0.7191
   64MOL0     H 8769   9.554   8.130   8.262  0.2840  0.3791 -0.1477
   64MOL0     H 8770   9.483   8.262   8.170 -0.0211  1.7620  0.4725
   64MOL0     H 8771   9.578   8.429   8.321  0.3620 -0.2815 -1.1592
   64MOL0     H 8772   9.602   8.302   8.448 -3.0112  0.6842 -0.2257
   64MOL0     H 8773   9.771   8.204   8.313 -1.3003  0.4417  3.7058
   64MOL0     H 8774   9.814   8.367   8.363 -1.7098 -1.3118  2.3374
   64MOL0     H 8775   9.844   8.285   8.096 -1.6864  0.5960 -1.0471
   64MOL0     H 8776   9.690   8.379   8.087  0.8241  1.4895 -1.9066
   64MOL0     H 8777   9.938   8.466   8.228 -0.0497 -0.2478  0.5399
   64MOL0     H 8778   9.794   8.560   8.202  1.5811 -0.6483  0.6083
   64MOL0     H 8779   9.978   8.473   7.974  0.1652 -0.2248  1.1161
   64MOL0     H 8780   9.825   8.568   7.973 -0.5159  2.1449  0.8576
   64MOL0     H 8781  10.184   8.623   8.150  1.3643  2.7698  0.0524
   64MOL0     H 8782  10.248   8.848   8.305 -0.5331 -3.3970 -1.2080
   64MOL0     H 8783  10.162   8.999   8.253 -1.6374 -0.3343 -1.2014
   64MOL0     H 8784  10.405   8.945   8.202  0.8283 -2.3653 -1.0469
   64MOL0     H 8785  10.334   8.847   8.069 -1.1061 -1.9021  1.8583
   64MOL0     H 8786  10.276   9.138   8.126 -0.0064 -1.6591  2.7667
   64MOL0     H 8787  10.410   9.087   8.011  2.6282 -2.9244  5.7146
   64MOL0     H 8788  10.226   8.995   7.868  1.3147  1.7454 -0.9378
   64MOL0     H 8789  10.108   9.039   7.984  0.2461  1.1803  4.1254
   64MOL0     H 8790  10.158   9.454   7.870 -1.0431  2.1653  0.5214
   64MOL0     H 8791  10.022   9.627   7.603 -0.2296 -3.1492 -0.9479
   64MOL0     H 8792  10.012   9.647   7.787 -1.8035  3.1617 -0.6837
   64MOL0     H 8793   9.868   9.621   7.699  0.2609  0.5249 -1.5191
   64MOL0     H 8794   9.534   9.400   7.362 -0.2693  0.9368 -0.3890
   64MOL0     H 8795   9.378   9.598   7.319  0.9788  0.3884  0.0560
   64MOL0     H 8796   9.385   9.946   7.592 -0.0659 -2.3720  1.1324
   64MOL0     H 8797   9.494   9.908   7.460  1.0021  3.3467  1.3200
   64MOL0     H 8798   9.217   9.939   7.380  1.7761 -2.8420  3.0609
   64MOL0     H 8799   9.276  10.096   7.434 -2.0712  1.5998 -3.0054
   64MOL0     H 8800   9.420   9.941   7.197 -0.5442  1.7413 -1.8630
   64MOL0     H 8801   9.466  10.093   7.292 -2.1987  3.0234  0.1255
   64MOL0     H 8802   9.236  10.171   7.205  0.3211  0.3083  0.7004
   64MOL0     H 8803   9.234  10.015   7.123 -3.0647  2.5558 -0.6076
   64MOL0     H 8804   9.420  10.253   7.050 -1.2678  1.5767  0.0632
   64MOL0     H 8805   9.463  10.083   7.016 -1.5048 -0.7537 -1.3304
   64MOL0     H 8806   9.219  10.231   6.933 -1.4891 -0.4113 -0.6476
   64MOL0     H 8807   9.231  10.048   6.912  2.2812 -1.0547  0.3748
   64MOL0     H 8808   9.443  10.068   6.813  2.0362  1.1230  0.5092
   64MOL0     H 8809   9.443  10.237   6.825  1.5030 -0.7548  3.8346
   64MOL0     H 8810   9.250  10.269   6.680 -1.1890 -1.5106 -1.7265
   64MOL0     H 8811   9.197  10.102   6.674 -2.2864  1.0647 -2.4599
   64MOL0     H 8812   9.435   9.737   7.722  3.7775 -0.9565  2.2956
   64MOL0     H 8813   9.589   9.556   7.773  0.6003 -2.9889 -0.9013
   64MOL0     H 8814   9.839   9.160   7.646  0.2460  0.1378  0.0905
   64MOL0     H 8815  10.007   9.060   7.776 -0.8066 -0.7842 -1.7532
   64MOL0     H 8816   9.129   8.431   8.278 -2.5889  1.7056 -0.6998
   64MOL0     H 8817   9.024   8.627   8.409 -1.0919  0.6415  2.0882
   64MOL0     H 8818   8.780   8.511   8.817 -1.1861 -0.7010  0.3659
   64MOL0     H 8819   8.650   8.521   9.029 -1.1607  1.0951 -1.2873
   64MOL0     H 8820   8.769   8.823   9.367  3.6450 -1.1536 -3.5310
   64MOL0     H 8821   8.669   8.905   9.239 -1.8283  0.0606 -0.7194
   64MOL0     H 8822   8.596   8.875   9.480  1.3052 -1.9414  0.6391
   64MOL0     H 8823   8.562   8.701   9.432 -1.6825 -1.0347 -1.1103
   64MOL0     H 8824   8.396   8.950   9.380  0.8548  1.1065 -0.5937
   64MOL0     H 8825   8.421   8.849   9.239  0.6215 -4.7915  0.3171
   64MOL0     H 8826   8.365   8.693   9.490 -0.3151  3.2932  1.0656
   64MOL0     H 8827   8.308   8.667   9.323 -0.0586  0.4426 -0.3073
   64MOL0     H 8828   8.000   8.888   9.511  1.5125  0.9082  1.1614
   64MOL0     H 8829   8.868   8.884   9.127  0.0686  1.8550 -1.8598
   64MOL0     H 8830   9.141   8.820   9.004 -0.2898  0.3240  0.4401
   64MOL0     H 8831   9.078   8.899   8.854  0.0541  2.5414  0.8527
   64MOL0     H 8832   9.025   8.962   9.008  1.0111 -1.0002  2.4976
   65MOL0     O 8833   5.033   9.437   7.037  0.0447 -0.1178  0.3397
   65MOL0     C 8834   5.151   9.472   7.038  0.1394 -0.0071  0.1632
   65MOL0     O 8835   5.189   9.600   7.041 -0.2809 -0.2044  0.7779
   65MOL0     C 8836   5.098   9.699   7.065  0.2784 -0.9565  0.5553
   65MOL0     C 8837   5.121   9.793   7.168 -0.5804  0.1673  0.7388
   65MOL0     C 8838   5.024   9.893   7.204  0.1527  0.3660 -0.7513
   65MOL0     C 8839   4.903   9.899   7.147  0.5697 -0.4533  0.8779
   65MOL0     O 8840   4.802   9.987   7.181 -0.4968  0.3261  1.1758
   65MOL0     C 8841   4.816  10.071   7.299  0.5046 -0.7333 -0.2027
   65MOL0     C 8842   4.689  10.167   7.313 -0.0276  1.4999  0.6674
   65MOL0     C 8843   4.681  10.277   7.207  0.4306  0.1134  0.0067
   65MOL0     C 8844   4.535  10.318   7.184  0.8813 -0.3127 -0.1912
   65MOL0     C 8845   4.522  10.412   7.062 -1.2577  1.1568 -0.2478
   65MOL0     C 8846   4.374  10.414   7.000 -0.6672 -0.0829 -0.0915
   65MOL0     C 8847   4.370  10.503   6.875  0.2911 -0.0174 -0.2944
   65MOL0     C 8848   4.413  10.643   6.889  0.2365 -0.0787 -1.3163
   65MOL0     N 8849   4.318  10.729   6.963 -0.7366  0.7643 -0.2598
   65MOL0     C 8850   4.223  10.804   6.899 -0.0745  0.3034  0.2909
   65MOL0     C 8851   4.148  10.855   6.993  1.0536  0.0194 -0.1781
   65MOL0     C 8852   4.018  10.930   6.971  0.1798  0.0864  0.3039
   65MOL0     C 8853   4.022  11.047   6.866 -0.5836  0.4089 -0.0035
   65MOL0     C 8854   3.893  11.119   6.874 -0.5582  0.6753 -0.9695
   65MOL0     C 8855   3.891  11.228   6.769 -1.1946  0.6203  0.0610
   65MOL0     O 8856   3.868  11.365   6.811 -0.4088 -0.1325  1.0527
   65MOL0     C 8857   3.766  11.385   6.891  0.5027  0.4355 -0.9741
   65MOL0     C 8858   3.801  11.440   7.017  0.7490  0.4247 -0.4939
   65MOL0     C 8859   3.709  11.455   7.127 -0.3001  0.3907  0.9273
   65MOL0     C 8860   3.752  11.519   7.263  0.0492 -0.1878  0.0374
   65MOL0     C 8861   3.575  11.409   7.104  0.4724 -0.1863  0.3357
   65MOL0     C 8862   3.468  11.399   7.216 -1.1684  0.3815  0.5192
   65MOL0     O 8863   3.510  11.412   7.346  0.3306 -0.2218 -0.2257
   65MOL0     C 8864   3.405  11.433   7.447  0.0799 -1.1672 -0.3153
   65MOL0     C 8865   3.406  11.366   7.563 -0.3400  0.2362 -0.2933
   65MOL0     C 8866   3.301  11.374   7.657 -0.6951  0.8987  0.1365
   65MOL0     C 8867   3.190  11.450   7.633 -0.8486  0.1585  0.5183
   65MOL0     O 8868   3.082  11.454   7.718 -0.1118 -0.2737 -0.5489
   65MOL0     C 8869   2.977  11.362   7.670 -0.3869  0.7202  0.8304
   65MOL0     C 8870   2.876  11.361   7.783 -0.2500 -1.0041 -0.5916
   65MOL0     C 8871   2.934  11.289   7.910  0.5221  0.5389  0.2413
   65MOL0     C 8872   2.827  11.214   7.978  0.2852 -0.3375 -0.5116
   65MOL0     C 8873   2.880  11.119   8.090 -0.8057 -0.3551 -0.7412
   65MOL0     C 8874   2.982  11.200   8.186  0.0368  0.5225 -0.3917
   65MOL0     C 8875   3.042  11.114   8.303  0.4858 -0.7007  0.9067
   65MOL0     C 8876   3.113  11.207   8.396 -0.3198 -0.2292  0.8267
   65MOL0    Cl 8877   3.226  11.123   8.508  0.4090  0.5679  0.3176
   65MOL0     C 8878   3.189  11.526   7.514  1.3402  0.2515 -0.7709
   65MOL0     C 8879   3.290  11.515   7.421  0.8047  0.4577 -0.4777
   65MOL0     O 8880   3.357  11.378   7.177  0.6010 -0.5085 -0.3491
   65MOL0     C 8881   3.541  11.353   6.975 -0.1635  0.1147 -0.1329
   65MOL0     C 8882   3.634  11.356   6.869  0.4565  0.2292 -0.9015
   65MOL0     N 8883   4.198  10.809   7.116  0.4336 -0.6336  0.3755
   65MOL0     N 8884   4.310  10.743   7.097 -0.2540  0.1359  0.1829
   65MOL0     C 8885   4.887   9.818   7.034 -0.0890 -0.3837 -0.5402
   65MOL0     C 8886   4.980   9.722   6.993  1.0126  1.2248  0.0550
   65MOL0     C 8887   5.261   9.378   7.039 -0.5524  0.2308 -0.4788
   65MOL0     C 8888   5.392   9.410   7.002 -0.9110  0.7676  1.0036
   65MOL0     C 8889   5.495   9.324   6.968 -0.5250 -0.2696  1.1111
   65MOL0     C 8890   5.472   9.187   6.986  0.1386 -0.5518 -0.3877
   65MOL0     O 8891   5.567   9.096   6.961  0.4717  0.9875  0.5288
   65MOL0     C 8892   5.631   9.105   6.836  0.3349  0.5229  0.3773
   65MOL0     C 8893   5.690   8.968   6.792  0.8019  0.3136  0.1676
   65MOL0     C 8894   5.777   8.892   6.892  0.7318 -0.1798 -0.3575
   65MOL0     C 8895   5.888   8.829   6.800 -0.3818 -0.2168 -0.4899
   65MOL0     C 8896   5.969   8.742   6.887  0.0009  0.7414 -0.6122
   65MOL0     C 8897   6.058   8.669   6.938 -1.1765 -0.2722  0.1483
   65MOL0     C 8898   5.351   9.143   7.030  0.1872  0.1915 -0.6819
   65MOL0     C 8899   5.244   9.238   7.060 -1.5085  0.1777 -0.3954
   65MOL0     C 8900   5.124   9.172   7.109 -0.5399  0.8761 -0.1145
   65MOL0     H 8901   5.216   9.788   7.219 -0.5714 -1.3564  0.6095
   65MOL0     H 8902   5.057   9.967   7.276  3.5696  0.4964 -2.2386
   65MOL0     H 8903   4.901  10.139   7.292 -2.3224  3.0837 -0.1918
   65MOL0     H 8904   4.814   9.994   7.377 -2.9454 -1.0978 -0.5078
   65MOL0     H 8905   4.599  10.105   7.318 -0.0291  1.2176 -1.7940
   65MOL0     H 8906   4.683  10.212   7.412 -1.8935  0.5554  1.0315
   65MOL0     H 8907   4.735  10.365   7.244  0.6588 -0.6332  1.5251
   65MOL0     H 8908   4.735  10.257   7.114  2.5324 -0.5569  1.3138
   65MOL0     H 8909   4.470  10.231   7.173 -1.2708  1.3960 -1.8699
   65MOL0     H 8910   4.486  10.369   7.268 -2.7518 -0.2247 -2.2077
   65MOL0     H 8911   4.574  10.355   6.985 -1.2328  2.5648 -1.3143
   65MOL0     H 8912   4.553  10.512   7.096 -2.5598  0.9643  1.6353
   65MOL0     H 8913   4.333  10.316   6.974  1.8454 -0.9453 -1.0921
   65MOL0     H 8914   4.307  10.456   7.076  0.2678  1.2636  0.0378
   65MOL0     H 8915   4.272  10.496   6.827  0.3816  1.9424 -0.8600
   65MOL0     H 8916   4.436  10.458   6.800 -0.8205 -3.2125  0.5263
   65MOL0     H 8917   4.506  10.651   6.946 -1.6983 -1.3827  2.3897
   65MOL0     H 8918   4.421  10.689   6.790 -4.4955 -0.8670 -2.3533
   65MOL0     H 8919   4.214  10.797   6.791  1.0474 -0.1715  0.2160
   65MOL0     H 8920   3.997  10.986   7.062 -2.4988  2.6591 -1.6802
   65MOL0     H 8921   3.931  10.867   6.951  0.5701 -0.4146  0.1572
   65MOL0     H 8922   4.115  11.100   6.891  0.6156 -2.5888  2.4998
   65MOL0     H 8923   4.035  11.011   6.763 -1.8688  1.7329 -0.6624
   65MOL0     H 8924   3.806  11.054   6.861  1.4023 -2.6179  1.0957
   65MOL0     H 8925   3.885  11.158   6.977 -2.4215 -3.6220  0.7628
   65MOL0     H 8926   3.984  11.232   6.712 -0.6347 -1.0127  0.7960
   65MOL0     H 8927   3.820  11.191   6.693 -0.8972  0.6032 -0.2094
   65MOL0     H 8928   3.905  11.459   7.040  0.5027 -0.1335  1.1620
   65MOL0     H 8929   3.666  11.580   7.293 -1.5476 -2.2315 -0.1696
   65MOL0     H 8930   3.841  11.580   7.249 -1.2778  1.7886 -0.2805
   65MOL0     H 8931   3.771  11.450   7.345 -0.7575  0.2563  0.6146
   65MOL0     H 8932   3.504  11.324   7.584 -0.1070  0.3634 -1.0922
   65MOL0     H 8933   3.286  11.312   7.745 -1.4513  0.8018 -0.0474
   65MOL0     H 8934   2.913  11.398   7.589  0.7035  1.0114  0.0771
   65MOL0     H 8935   3.026  11.268   7.643  1.4872  2.2858 -1.6329
   65MOL0     H 8936   2.847  11.466   7.795 -0.0836 -0.6035 -3.1255
   65MOL0     H 8937   2.785  11.306   7.757 -2.2373  2.6003 -2.0101
   65MOL0     H 8938   2.991  11.358   7.973  1.1390 -0.5949  0.9580
   65MOL0     H 8939   3.003  11.214   7.870 -0.9137 -0.1565 -1.0354
   65MOL0     H 8940   2.769  11.155   7.906 -0.7288  1.6224 -1.3649
   65MOL0     H 8941   2.748  11.276   8.021 -0.0731 -2.3926  2.0454
   65MOL0     H 8942   2.794  11.075   8.142 -0.0932 -1.1216 -0.1953
   65MOL0     H 8943   2.940  11.046   8.035  1.1453  0.2674  0.4617
   65MOL0     H 8944   2.925  11.287   8.220  1.7817  1.8073 -0.5875
   65MOL0     H 8945   3.061  11.236   8.119 -1.2655  0.5574 -1.9745
   65MOL0     H 8946   3.106  11.044   8.247  0.5810  2.0601 -2.8603
   65MOL0     H 8947   2.961  11.067   8.358  0.6458  0.9072  2.6170
   65MOL0     H 8948   3.043  11.273   8.446  1.5732  2.2303  0.4116
   65MOL0     H 8949   3.172  11.282   8.343 -1.0949  0.3595  0.7840
   65MOL0     H 8950   3.110  11.600   7.509  0.1173 -1.0295 -0.9356
   65MOL0     H 8951   3.288  11.585   7.337  1.2701  1.6683  0.4919
   65MOL0     H 8952   3.441  11.313   6.965 -0.3972  0.1973  1.5780
   65MOL0     H 8953   3.592  11.308   6.782 -1.9700  2.5346 -1.1045
   65MOL0     H 8954   4.796   9.830   6.976  0.1649  2.6073 -0.4870
   65MOL0     H 8955   4.969   9.656   6.908  1.4459  2.8699 -1.3546
   65MOL0     H 8956   5.416   9.516   6.997  2.8912  0.0288  1.1957
   65MOL0     H 8957   5.577   9.377   6.922 -1.3544 -0.6175 -0.8728
   65MOL0     H 8958   5.558   9.139   6.761 -0.3573 -1.7664 -0.0539
   65MOL0     H 8959   5.702   9.187   6.847  0.4162  0.3579  1.1358
   65MOL0     H 8960   5.737   8.979   6.694  0.3311  0.7419 -0.0187
   65MOL0     H 8961   5.614   8.892   6.771  0.4467 -0.4784  3.6125
   65MOL0     H 8962   5.812   8.968   6.963 -2.1119  1.8248 -0.9400
   65MOL0     H 8963   5.733   8.801   6.933 -0.6596  0.1388 -1.0799
   65MOL0     H 8964   5.948   8.908   6.753  2.8413 -2.1407  0.1367
   65MOL0     H 8965   5.838   8.762   6.730 -0.2884 -2.2600  1.3313
   65MOL0     H 8966   6.137   8.622   6.992  0.2500  1.1921 -0.5869
   65MOL0     H 8967   5.331   9.039   7.051 -1.2191 -0.0280 -2.7135
   65MOL0     H 8968   5.048   9.188   7.032  0.2949  0.1204 -1.1160
   65MOL0     H 8969   5.129   9.063   7.120  0.7583  1.0191  1.0926
   65MOL0     H 8970   5.113   9.223   7.205  2.7227 -0.6001  1.1675
   66MOL0     O 8971   3.964   6.033   4.306 -0.1059  0.2068  0.8577
   66MOL0     C 8972   4.066   6.095   4.273 -0.6298  0.1607  0.8227
   66MOL0     O 8973   4.178   6.031   4.223 -0.6992 -0.5135 -0.9427
   66MOL0     C 8974   4.181   5.896   4.199 -0.5620 -0.0063 -0.3438
   66MOL0     C 8975   4.106   5.833   4.100  0.2260 -0.4521 -0.8854
   66MOL0     C 8976   4.114   5.702   4.077 -0.7448  0.1011 -0.5432
   66MOL0     C 8977   4.210   5.628   4.155  0.5281 -0.1574  0.6077
   66MOL0     O 8978   4.213   5.496   4.118  0.3074 -0.4382  0.1232
   66MOL0     C 8979   4.346   5.437   4.129 -0.0085  1.8280 -0.0290
   66MOL0     C 8980   4.301   5.300   4.057  0.1056 -1.4218 -0.8912
   66MOL0     C 8981   4.419   5.218   4.006 -0.2443 -0.7313  0.3568
   66MOL0     C 8982   4.373   5.085   3.976  0.1802  0.0957  0.0821
   66MOL0     C 8983   4.490   4.998   3.927  0.3656  0.6334 -0.8799
   66MOL0     C 8984   4.581   5.038   3.810 -0.0043 -0.7276  0.1964
   66MOL0     C 8985   4.516   5.017   3.673 -0.6645 -0.7626  0.7044
   66MOL0     C 8986   4.633   5.034   3.565  0.7685  0.5323 -0.2270
   66MOL0     N 8987   4.590   5.025   3.420  0.6140  0.4844  0.0374
   66MOL0     C 8988   4.459   5.022   3.374  1.0020 -0.0148 -0.1409
   66MOL0     C 8989   4.474   5.040   3.240 -0.1342 -1.0010  0.6173
   66MOL0     C 8990   4.355   5.080   3.154 -0.5295 -0.4402 -0.8700
   66MOL0     C 8991   4.370   5.183   3.038 -1.1393  0.2638  1.0348
   66MOL0     C 8992   4.231   5.205   2.984  0.9426  0.1960 -0.2979
   66MOL0     C 8993   4.242   5.278   2.851 -0.0311  0.4282  0.0641
   66MOL0     O 8994   4.294   5.184   2.755 -0.1092 -0.2177  0.2065
   66MOL0     C 8995   4.309   5.226   2.628  0.3689  0.0504  0.8051
   66MOL0     C 8996   4.248   5.345   2.578 -0.7180 -0.5171  0.1584
   66MOL0     C 8997   4.281   5.390   2.445  0.7834 -0.2009 -0.1990
   66MOL0     C 8998   4.208   5.511   2.398  0.0223 -0.1492 -0.0923
   66MOL0     C 8999   4.368   5.305   2.365 -0.6122  0.6936  0.8031
   66MOL0     C 9000   4.387   5.327   2.220 -0.1265 -0.0215 -0.9228
   66MOL0     O 9001   4.389   5.223   2.132  0.2171 -0.2363 -0.2426
   66MOL0     C 9002   4.407   5.260   2.005 -0.7358  0.4715  0.7120
   66MOL0     C 9003   4.313   5.240   1.904 -0.1105 -0.3780 -0.6020
   66MOL0     C 9004   4.339   5.266   1.772  0.4707  0.0124 -0.4247
   66MOL0     C 9005   4.464   5.302   1.732 -0.1108  0.3641 -0.7973
   66MOL0     O 9006   4.503   5.335   1.602 -0.6244 -0.1566 -0.0534
   66MOL0     C 9007   4.404   5.377   1.505 -0.3640 -0.7590 -1.1559
   66MOL0     C 9008   4.466   5.465   1.387  0.1337 -0.8052  0.2513
   66MOL0     C 9009   4.526   5.389   1.276 -1.2252  0.0364 -1.2625
   66MOL0     C 9010   4.586   5.485   1.168 -0.4891 -0.0230 -0.7102
   66MOL0     C 9011   4.647   5.411   1.047 -0.4753 -0.7732  0.1406
   66MOL0     C 9012   4.794   5.377   1.093  0.3519  0.4710  0.1162
   66MOL0     C 9013   4.864   5.277   1.005  0.2959 -0.6236  0.7662
   66MOL0     C 9014   4.921   5.348   0.875 -0.5372  0.3086  0.1787
   66MOL0    Cl 9015   4.804   5.346   0.746  0.2237 -0.0881 -0.0880
   66MOL0     C 9016   4.568   5.325   1.837 -0.1451  0.9400  1.0414
   66MOL0     C 9017   4.532   5.301   1.968  0.0122 -0.1814 -0.2351
   66MOL0     O 9018   4.383   5.449   2.193  0.0553  0.0184 -0.1173
   66MOL0     C 9019   4.403   5.175   2.413 -0.0926 -0.3853  0.2685
   66MOL0     C 9020   4.378   5.138   2.546  0.3273  0.9289  0.7973
   66MOL0     N 9021   4.608   5.046   3.206  0.3865 -0.2043 -0.1429
   66MOL0     N 9022   4.674   5.040   3.319  0.2538  0.7675 -0.6528
   66MOL0     C 9023   4.285   5.693   4.251 -1.1394 -0.2853 -0.1165
   66MOL0     C 9024   4.276   5.819   4.275 -1.0027 -0.7316  0.6751
   66MOL0     C 9025   4.064   6.249   4.271  0.5237 -0.4364 -0.5397
   66MOL0     C 9026   3.928   6.310   4.264 -0.5356  0.1649 -0.5245
   66MOL0     C 9027   3.928   6.444   4.238  0.5491  0.4335 -0.4595
   66MOL0     C 9028   4.035   6.523   4.229  0.1015 -0.4073 -0.2219
   66MOL0     O 9029   4.011   6.654   4.182 -0.8134  0.3031  0.0934
   66MOL0     C 9030   4.027   6.665   4.039 -0.1704  0.4981  0.2576
   66MOL0     C 9031   3.961   6.797   4.002  0.1478 -0.4286 -0.5228
   66MOL0     C 9032   4.002   6.839   3.852 -0.5970  0.7176  1.2793
   66MOL0     C 9033   3.884   6.821   3.759 -0.2288 -0.2857  0.8186
   66MOL0     C 9034   3.836   6.684   3.725 -0.0062 -0.5383 -0.4873
   66MOL0     C 9035   3.832   6.566   3.707 -0.3165  0.9348 -0.1626
   66MOL0     C 9036   4.166   6.474   4.242  0.4286 -0.5741  0.7003
   66MOL0     C 9037   4.180   6.332   4.267  0.2391  0.2930 -0.0400
   66MOL0     C 9038   4.323   6.289   4.298 -0.0138  0.8799 -0.1540
   66MOL0     H 9039   4.040   5.898   4.044  0.7540  2.3621  1.5299
   66MOL0     H 9040   4.057   5.642   4.006  1.3355 -2.2109 -0.4092
   66MOL0     H 9041   4.390   5.414   4.226  0.1707 -0.0905 -0.5270
   66MOL0     H 9042   4.425   5.489   4.073  0.3947  0.1675 -1.0790
   66MOL0     H 9043   4.251   5.246   4.138  0.4413 -0.4068 -0.0024
   66MOL0     H 9044   4.233   5.323   3.974  2.0875 -1.1556 -2.5050
   66MOL0     H 9045   4.459   5.274   3.921 -1.2772 -1.7912 -0.8585
   66MOL0     H 9046   4.507   5.218   4.072 -0.2856  0.1843  0.4193
   66MOL0     H 9047   4.333   5.027   4.060  2.0674 -1.3285  0.0713
   66MOL0     H 9048   4.295   5.081   3.899 -2.5758 -1.4423  2.7302
   66MOL0     H 9049   4.449   4.899   3.904  3.2285 -1.0326  0.6144
   66MOL0     H 9050   4.559   4.973   4.008 -0.9414 -2.2388 -0.5070
   66MOL0     H 9051   4.630   5.136   3.815  1.0357 -1.3062  1.6249
   66MOL0     H 9052   4.667   4.972   3.795  2.5645  2.2478  0.7831
   66MOL0     H 9053   4.439   5.093   3.659 -0.5730 -0.8366 -0.3302
   66MOL0     H 9054   4.459   4.924   3.667  0.9260 -1.7705  0.7148
   66MOL0     H 9055   4.661   5.140   3.559 -2.7210  1.6399  1.0522
   66MOL0     H 9056   4.722   4.973   3.586  1.4941 -0.1335 -4.2916
   66MOL0     H 9057   4.368   5.018   3.432  0.6925 -0.3936 -0.6378
   66MOL0     H 9058   4.270   5.090   3.223 -0.2632 -1.6064 -0.3412
   66MOL0     H 9059   4.320   4.988   3.106  0.5119 -1.0506 -0.4866
   66MOL0     H 9060   4.413   5.276   3.076 -1.6358 -0.1559  2.6978
   66MOL0     H 9061   4.443   5.151   2.963 -0.6538 -2.3808  2.4942
   66MOL0     H 9062   4.175   5.117   2.951 -2.0211  2.6199 -2.2666
   66MOL0     H 9063   4.175   5.254   3.065  1.8952  1.8013 -0.5746
   66MOL0     H 9064   4.144   5.318   2.823  1.1327  3.1199 -0.5199
   66MOL0     H 9065   4.312   5.363   2.850  0.5948  0.0343  2.6514
   66MOL0     H 9066   4.183   5.405   2.640  0.4982  1.6439 -0.5760
   66MOL0     H 9067   4.146   5.551   2.479 -0.2904 -0.6151 -0.1007
   66MOL0     H 9068   4.142   5.480   2.317 -2.5180 -2.6570  2.6746
   66MOL0     H 9069   4.274   5.589   2.359  0.1547 -0.4886 -0.5482
   66MOL0     H 9070   4.213   5.202   1.924 -0.5420  0.5947 -0.8686
   66MOL0     H 9071   4.265   5.246   1.695 -0.5766  0.8736  0.3231
   66MOL0     H 9072   4.365   5.284   1.461 -2.1406 -0.8241  0.3874
   66MOL0     H 9073   4.319   5.424   1.555 -0.3994 -2.5362  0.5859
   66MOL0     H 9074   4.378   5.514   1.342 -0.9630 -0.7110  2.3815
   66MOL0     H 9075   4.542   5.523   1.439  0.4793 -1.9637  1.0615
   66MOL0     H 9076   4.451   5.329   1.223 -1.5104 -1.0090  0.2611
   66MOL0     H 9077   4.595   5.319   1.323  0.3880  2.2501 -0.1538
   66MOL0     H 9078   4.662   5.549   1.214  0.1213 -0.3673 -1.2148
   66MOL0     H 9079   4.513   5.556   1.127 -2.4123 -2.5906 -2.0253
   66MOL0     H 9080   4.582   5.328   1.018 -0.2750 -0.4617 -1.2679
   66MOL0     H 9081   4.651   5.483   0.964  0.0041  2.7410  2.9577
   66MOL0     H 9082   4.790   5.330   1.192  0.2698 -0.7109 -0.4346
   66MOL0     H 9083   4.853   5.469   1.100  0.9688  0.0508  0.5207
   66MOL0     H 9084   4.799   5.196   0.971  2.3736 -0.8359 -3.1910
   66MOL0     H 9085   4.946   5.234   1.064  0.4480  1.1040  1.8732
   66MOL0     H 9086   4.997   5.281   0.835 -0.1319  0.0998  1.2623
   66MOL0     H 9087   4.960   5.448   0.895 -0.9410  0.3798  0.6261
   66MOL0     H 9088   4.666   5.366   1.814 -0.9484  1.3435 -2.1536
   66MOL0     H 9089   4.613   5.304   2.040 -0.3729  2.9579  0.1825
   66MOL0     H 9090   4.443   5.101   2.344 -2.0638  0.0969 -1.4687
   66MOL0     H 9091   4.384   5.032   2.568  0.1422  0.3723 -1.5593
   66MOL0     H 9092   4.350   5.640   4.320  1.9222  1.0776 -1.7401
   66MOL0     H 9093   4.347   5.865   4.343  1.7684  0.5641 -2.7869
   66MOL0     H 9094   3.833   6.261   4.282 -0.2211 -0.1620  0.2773
   66MOL0     H 9095   3.834   6.497   4.231  0.5841  0.7507  1.1291
   66MOL0     H 9096   4.130   6.664   4.004 -0.5082 -0.7869 -0.8176
   66MOL0     H 9097   3.974   6.585   3.985  2.2332  1.7942 -4.6098
   66MOL0     H 9098   3.979   6.889   4.058 -0.2075 -1.0556  0.6630
   66MOL0     H 9099   3.853   6.785   4.011 -0.4232  2.8109 -1.8823
   66MOL0     H 9100   4.016   6.947   3.843  1.1774  0.4827  0.8716
   66MOL0     H 9101   4.099   6.800   3.819 -1.3506 -0.7720  0.7591
   66MOL0     H 9102   3.919   6.864   3.665  2.9439  0.2495  2.1180
   66MOL0     H 9103   3.798   6.879   3.792 -0.7911 -0.4553 -0.2819
   66MOL0     H 9104   3.830   6.459   3.697  0.5738  0.3724  3.7725
   66MOL0     H 9105   4.256   6.534   4.243 -0.9074  1.6848 -1.6212
   66MOL0     H 9106   4.329   6.273   4.405  2.8313 -1.3053 -0.5517
   66MOL0     H 9107   4.362   6.197   4.254  3.1861  0.3561  3.2998
   66MOL0     H 9108   4.392   6.363   4.257  1.0967 -0.6134 -1.0731
   67MOL0     O 9109   3.051   9.237   9.669  1.0704  0.0997  0.0123
   67MOL0     C 9110   3.147   9.160   9.681 -0.2862 -0.6544  0.0605
   67MOL0     O 9111   3.184   9.084   9.788  0.1884 -0.3497  0.0757
   67MOL0     C 9112   3.107   9.107   9.900  0.2571 -1.0156 -0.1988
   67MOL0     C 9113   3.111   9.228   9.977 -0.6191  0.2970  0.5154
   67MOL0     C 9114   3.040   9.242  10.094  0.3716 -0.4382 -0.2408
   67MOL0     C 9115   2.959   9.133  10.139  0.3148 -0.0979  0.2351
   67MOL0     O 9116   2.876   9.139  10.246 -0.3837  0.9341 -0.1060
   67MOL0     C 9117   2.927   9.058  10.353  0.5436  0.0957  0.2622
   67MOL0     C 9118   3.036   9.135  10.428  0.5647 -0.2954  0.7457
   67MOL0     C 9119   3.066   9.048  10.545 -0.6511  0.5011 -0.5868
   67MOL0     C 9120   3.196   9.073  10.617  0.9382  0.5857  0.7613
   67MOL0     C 9121   3.189   9.027  10.763 -0.7086  0.9735 -0.0366
   67MOL0     C 9122   3.146   8.883  10.782 -0.5206 -0.4270  0.6994
   67MOL0     C 9123   3.235   8.766  10.730 -0.3233  0.6516 -0.1339
   67MOL0     C 9124   3.232   8.663  10.841 -0.9546  0.7631 -0.6006
   67MOL0     N 9125   3.094   8.629  10.894 -0.7859 -0.6076  0.0053
   67MOL0     C 9126   3.059   8.588  11.018  1.4642 -0.4491 -0.0609
   67MOL0     C 9127   2.925   8.557  10.997  0.2266  0.6461  0.3331
   67MOL0     C 9128   2.843   8.474  11.098 -0.1486  0.2634 -0.0259
   67MOL0     C 9129   2.871   8.325  11.091  0.3518 -0.2603  0.3439
   67MOL0     C 9130   2.798   8.241  11.200  0.4782 -0.0436 -0.2873
   67MOL0     C 9131   2.899   8.170  11.293 -0.1536 -0.3508  0.4351
   67MOL0     O 9132   2.822   8.099  11.391 -0.6705  0.2203 -0.1083
   67MOL0     C 9133   2.735   8.162  11.471  0.9641 -0.0059  0.1688
   67MOL0     C 9134   2.771   8.275  11.542  0.4010 -1.0126 -0.3523
   67MOL0     C 9135   2.686   8.341  11.633  0.4156 -0.4747 -0.0464
   67MOL0     C 9136   2.758   8.474  11.695  0.0718 -0.3382 -0.2968
   67MOL0     C 9137   2.556   8.284  11.662  0.3174  0.1069  0.0362
   67MOL0     C 9138   2.460   8.343  11.763  0.2979 -1.4223 -1.0504
   67MOL0     O 9139   2.512   8.440  11.852  0.0325  0.1900 -0.7720
   67MOL0     C 9140   2.447   8.482  11.965  0.8928 -0.1162 -0.5088
   67MOL0     C 9141   2.508   8.565  12.043  0.3734  0.3014 -1.3038
   67MOL0     C 9142   2.451   8.626  12.152 -0.4087 -0.9403  0.0443
   67MOL0     C 9143   2.337   8.576  12.210 -0.0735 -1.2905 -0.5548
   67MOL0     O 9144   2.276   8.611  12.329 -0.3862 -0.3879  0.4849
   67MOL0     C 9145   2.370   8.641  12.434  0.8083 -0.1803  0.5605
   67MOL0     C 9146   2.302   8.629  12.568  0.3515 -0.3673 -0.7816
   67MOL0     C 9147   2.402   8.677  12.672 -0.0805 -0.6412 -0.6823
   67MOL0     C 9148   2.515   8.571  12.693 -0.7138 -0.8725  0.4427
   67MOL0     C 9149   2.566   8.593  12.839  0.6899  0.0914  0.3072
   67MOL0     C 9150   2.684   8.505  12.876 -0.3459  0.0867 -0.4880
   67MOL0     C 9151   2.814   8.539  12.797 -0.2707  0.8097  0.2474
   67MOL0     C 9152   2.866   8.678  12.816 -1.0022 -1.6812 -1.3143
   67MOL0    Cl 9153   2.947   8.690  12.975  0.2410 -0.7333  0.2703
   67MOL0     C 9154   2.273   8.478  12.133 -0.3444 -0.3467  0.6103
   67MOL0     C 9155   2.317   8.438  12.005 -1.0780  0.5084 -0.3326
   67MOL0     O 9156   2.339   8.313  11.758 -0.3810 -0.1525  0.0941
   67MOL0     C 9157   2.518   8.172  11.580 -0.1168  0.6030 -0.9010
   67MOL0     C 9158   2.601   8.113  11.489 -0.4673  0.0805  0.1483
   67MOL0     N 9159   2.890   8.575  10.869 -0.0024  1.4116 -0.5315
   67MOL0     N 9160   2.996   8.608  10.806  0.1688 -0.5032  0.4248
   67MOL0     C 9161   2.951   9.020  10.058  0.1269  0.1204  0.4885
   67MOL0     C 9162   3.029   8.994   9.955 -0.5782  0.6184  0.3573
   67MOL0     C 9163   3.236   9.139   9.567  0.8135  1.2217  0.4966
   67MOL0     C 9164   3.180   9.074   9.456  0.5306  0.5547 -0.1536
   67MOL0     C 9165   3.260   9.046   9.348  0.2439 -0.8285  0.1874
   67MOL0     C 9166   3.395   9.082   9.343  0.0871 -0.3890  0.0860
   67MOL0     O 9167   3.459   9.058   9.223 -0.3452  0.4580  0.2982
   67MOL0     C 9168   3.581   9.127   9.198 -0.2723 -0.3560  0.2844
   67MOL0     C 9169   3.699   9.027   9.196 -1.0876  0.4411  0.1863
   67MOL0     C 9170   3.759   8.980   9.331  0.6044  1.4623 -0.7328
   67MOL0     C 9171   3.874   8.882   9.286 -0.1306 -0.7104 -0.3092
   67MOL0     C 9172   3.924   8.811   9.398  0.5646  0.6177 -0.0158
   67MOL0     C 9173   3.979   8.789   9.499  0.4978  1.1670  0.5763
   67MOL0     C 9174   3.453   9.137   9.461 -0.3101 -0.5765 -0.1013
   67MOL0     C 9175   3.374   9.173   9.573 -0.9688  0.7887 -0.1137
   67MOL0     C 9176   3.445   9.233   9.695  0.2177  0.8461  0.5681
   67MOL0     H 9177   3.160   9.305   9.918  3.1948 -2.3338 -0.1369
   67MOL0     H 9178   3.036   9.334  10.151 -2.0294  0.0198 -1.0238
   67MOL0     H 9179   2.982   8.971  10.317  1.1381 -0.5553  2.5733
   67MOL0     H 9180   2.845   9.023  10.416 -0.8842  2.8174  0.0999
   67MOL0     H 9181   3.127   9.144  10.369  0.8209  0.7887  1.2828
   67MOL0     H 9182   2.997   9.237  10.441 -2.0420 -0.9337 -1.1321
   67MOL0     H 9183   2.990   9.061  10.623  1.5897 -0.7954  1.9700
   67MOL0     H 9184   3.057   8.944  10.513 -1.1599  1.3966 -3.6449
   67MOL0     H 9185   3.280   9.033  10.560 -3.8967 -2.7891 -5.2947
   67MOL0     H 9186   3.212   9.181  10.614 -2.4642  1.2024 -2.3732
   67MOL0     H 9187   3.121   9.082  10.828  0.3737  0.3056  1.7381
   67MOL0     H 9188   3.287   9.033  10.811 -1.2942 -0.3125  1.4019
   67MOL0     H 9189   3.144   8.878  10.891  1.8484  2.4583  1.0012
   67MOL0     H 9190   3.041   8.876  10.752 -1.2025  7.4577 -0.9415
   67MOL0     H 9191   3.334   8.805  10.707 -0.3114  0.9275  0.3753
   67MOL0     H 9192   3.211   8.707  10.641  1.3364 -0.8309  0.3492
   67MOL0     H 9193   3.276   8.568  10.809 -2.1859 -1.0234  2.5103
   67MOL0     H 9194   3.285   8.708  10.926 -2.3156  3.1028 -0.9036
   67MOL0     H 9195   3.119   8.578  11.107  4.4361  0.8269 -1.7707
   67MOL0     H 9196   2.737   8.480  11.072 -0.5850  0.0515  1.5843
   67MOL0     H 9197   2.856   8.508  11.201  0.4501 -0.3365  0.0999
   67MOL0     H 9198   2.850   8.301  10.987  0.2832  2.6242 -0.3903
   67MOL0     H 9199   2.978   8.304  11.100  0.6480  0.4179 -1.2707
   67MOL0     H 9200   2.722   8.290  11.262 -0.8101 -1.2063 -0.9176
   67MOL0     H 9201   2.749   8.160  11.146  2.5501 -1.6106  0.0440
   67MOL0     H 9202   2.955   8.099  11.232 -0.1426  0.5005 -0.5600
   67MOL0     H 9203   2.966   8.246  11.333 -2.7441  1.0923  2.3826
   67MOL0     H 9204   2.869   8.322  11.536  0.0521 -0.3897 -4.6686
   67MOL0     H 9205   2.823   8.515  11.618  1.3978  1.3971  1.6215
   67MOL0     H 9206   2.809   8.451  11.790  1.8887 -1.0419 -1.3982
   67MOL0     H 9207   2.685   8.549  11.727 -4.4624 -3.0436 -3.2112
   67MOL0     H 9208   2.607   8.595  12.010  0.3265 -0.7896 -2.5167
   67MOL0     H 9209   2.499   8.706  12.208  1.2005 -1.4033 -0.6021
   67MOL0     H 9210   2.457   8.574  12.439 -0.9908 -2.6344  1.0165
   67MOL0     H 9211   2.394   8.747  12.428  0.7808 -0.1654  0.7409
   67MOL0     H 9212   2.209   8.685  12.577 -0.7587 -2.4357  2.5348
   67MOL0     H 9213   2.269   8.525  12.570  0.7440 -0.4917  1.0306
   67MOL0     H 9214   2.354   8.686  12.769  0.6828 -1.4700 -0.2126
   67MOL0     H 9215   2.432   8.780  12.648 -0.6207 -0.9260 -2.8209
   67MOL0     H 9216   2.592   8.592  12.618 -0.7304  4.3914  1.5152
   67MOL0     H 9217   2.473   8.472  12.672  0.4054 -1.4030  0.6405
   67MOL0     H 9218   2.595   8.695  12.866  0.0546  0.1308  0.8694
   67MOL0     H 9219   2.481   8.585  12.907  0.0368  3.1584 -0.0148
   67MOL0     H 9220   2.658   8.405  12.840 -2.0889  1.1104 -2.2496
   67MOL0     H 9221   2.690   8.523  12.984 -2.2653  0.1638 -0.3503
   67MOL0     H 9222   2.787   8.531  12.692 -2.6439  2.6131  0.6385
   67MOL0     H 9223   2.897   8.469  12.807 -1.4658 -1.4959 -3.8502
   67MOL0     H 9224   2.790   8.756  12.803  1.3830  1.1996  0.7830
   67MOL0     H 9225   2.942   8.694  12.739  1.4722 -3.7007  0.5670
   67MOL0     H 9226   2.196   8.418  12.180  1.6272 -1.7347  2.2692
   67MOL0     H 9227   2.244   8.365  11.970 -0.7206  1.0177 -2.2691
   67MOL0     H 9228   2.429   8.114  11.604 -1.5256  3.4503  1.2761
   67MOL0     H 9229   2.565   8.025  11.436 -1.0288  1.6085 -2.1827
   67MOL0     H 9230   2.893   8.934  10.086  0.6983 -0.8852 -1.2622
   67MOL0     H 9231   3.023   8.900   9.901 -1.1807  1.2348 -0.6875
   67MOL0     H 9232   3.074   9.049   9.456 -0.5523  4.4287 -0.2551
   67MOL0     H 9233   3.225   8.994   9.259 -0.5329  1.4282 -0.9205
   67MOL0     H 9234   3.570   9.166   9.096  2.0171  0.6852  0.3842
   67MOL0     H 9235   3.598   9.212   9.264 -1.9314 -0.3802  0.8017
   67MOL0     H 9236   3.776   9.081   9.140 -0.4089 -1.9419 -1.3460
   67MOL0     H 9237   3.679   8.936   9.139 -0.5439 -2.6487  4.4883
   67MOL0     H 9238   3.796   9.067   9.385 -0.7255  1.1961  0.6690
   67MOL0     H 9239   3.677   8.932   9.385  1.1485  0.1374 -1.0554
   67MOL0     H 9240   3.953   8.939   9.237 -0.1613  0.1464  0.5995
   67MOL0     H 9241   3.827   8.811   9.217 -2.6176  1.0075 -0.5339
   67MOL0     H 9242   4.027   8.739   9.581  0.1939 -1.5525 -0.7627
   67MOL0     H 9243   3.559   9.162   9.469 -1.2589  3.7289  2.6916
   67MOL0     H 9244   3.480   9.153   9.762  1.8056  1.7884  0.9261
   67MOL0     H 9245   3.535   9.286   9.662 -0.3486  0.8714 -1.0160
   67MOL0     H 9246   3.372   9.297   9.745 -0.3285  0.2757  0.5113
   68MOL0     O 9247   7.696   4.895  10.221  0.7824 -0.2822  0.5224
   68MOL0     C 9248   7.776   4.827  10.281  0.1809 -0.4589 -0.5523
   68MOL0     O 9249   7.768   4.783  10.412 -0.3481 -0.1521 -0.2098
   68MOL0     C 9250   7.675   4.845  10.499  0.5553 -0.1715  0.1522
   68MOL0     C 9251   7.580   4.757  10.546 -0.6976  0.2804 -0.0092
   68MOL0     C 9252   7.470   4.799  10.614  0.5021 -0.8883  0.0112
   68MOL0     C 9253   7.462   4.933  10.653 -0.1357 -0.2392  0.8259
   68MOL0     O 9254   7.351   4.980  10.725  0.6678 -0.6152 -0.4541
   68MOL0     C 9255   7.306   5.124  10.733 -0.4551 -0.2127 -0.4152
   68MOL0     C 9256   7.179   5.138  10.801  0.1712  0.2575  1.3518
   68MOL0     C 9257   7.059   5.113  10.708  0.0199  0.1015  0.4925
   68MOL0     C 9258   6.918   5.109  10.767  0.3027  0.0014  0.1303
   68MOL0     C 9259   6.876   5.014  10.882  0.0793 -0.5936  0.2361
   68MOL0     C 9260   6.752   5.077  10.965  0.3404 -0.6643 -0.1816
   68MOL0     C 9261   6.621   5.069  10.874  0.2552 -0.0715  0.2949
   68MOL0     C 9262   6.575   4.922  10.853 -0.1555 -0.5538  0.8530
   68MOL0     N 9263   6.578   4.839  10.974 -0.3653 -0.1005 -0.6001
   68MOL0     C 9264   6.499   4.856  11.081  0.2203 -1.9834  0.2782
   68MOL0     C 9265   6.506   4.745  11.151  0.1289  0.0088 -0.3137
   68MOL0     C 9266   6.445   4.715  11.281 -0.6496  1.1412 -0.4816
   68MOL0     C 9267   6.497   4.578  11.332 -0.3917  0.4549 -0.2019
   68MOL0     C 9268   6.490   4.549  11.484 -0.1212  0.3794 -0.1782
   68MOL0     C 9269   6.477   4.392  11.521 -0.1114 -0.4592  0.3563
   68MOL0     O 9270   6.371   4.336  11.445 -0.0182 -0.6938 -0.7865
   68MOL0     C 9271   6.237   4.370  11.481 -0.3655  0.6381  0.1788
   68MOL0     C 9272   6.165   4.455  11.400  0.1149  0.3654  0.2801
   68MOL0     C 9273   6.031   4.477  11.422  0.2480  0.9798  0.1405
   68MOL0     C 9274   5.955   4.569  11.330  0.4653  0.5849 -0.3242
   68MOL0     C 9275   5.974   4.408  11.526  0.1286 -0.3929  0.0797
   68MOL0     C 9276   5.829   4.418  11.562  0.2858 -0.2057  0.8792
   68MOL0     O 9277   5.732   4.353  11.482  0.7040 -0.3822  0.5453
   68MOL0     C 9278   5.605   4.344  11.532 -0.4594 -0.0128 -0.5712
   68MOL0     C 9279   5.565   4.312  11.668 -0.0568  0.1208  1.0107
   68MOL0     C 9280   5.436   4.299  11.704  1.0763 -0.2912  0.2423
   68MOL0     C 9281   5.325   4.317  11.621 -0.2548  0.7579  0.2721
   68MOL0     O 9282   5.189   4.298  11.659 -0.5290 -0.6538 -0.1340
   68MOL0     C 9283   5.144   4.262  11.794  0.5224 -0.7390 -0.3687
   68MOL0     C 9284   4.993   4.287  11.813 -0.5621 -0.0618 -0.6640
   68MOL0     C 9285   4.899   4.239  11.713  1.1659 -0.1659  0.5025
   68MOL0     C 9286   4.764   4.303  11.721  0.5419 -0.5834 -0.7274
   68MOL0     C 9287   4.660   4.232  11.638  0.4461  0.2029 -0.1179
   68MOL0     C 9288   4.682   4.255  11.487  0.1510  0.2955 -0.3333
   68MOL0     C 9289   4.668   4.401  11.447 -0.1859 -0.9838  0.1232
   68MOL0     C 9290   4.673   4.424  11.298  0.4866  0.4923  0.6417
   68MOL0    Cl 9291   4.620   4.577  11.244 -0.3463 -0.1828  0.2090
   68MOL0     C 9292   5.360   4.334  11.484  0.5241  0.1722  0.5530
   68MOL0     C 9293   5.501   4.339  11.441 -0.5827 -0.5909 -0.2259
   68MOL0     O 9294   5.802   4.497  11.648  0.5414 -0.1006 -0.8812
   68MOL0     C 9295   6.048   4.331  11.614  0.0792 -0.7645 -0.1282
   68MOL0     C 9296   6.176   4.302  11.580 -0.2912  0.3020 -0.6189
   68MOL0     N 9297   6.600   4.660  11.092 -0.4962 -0.5541  0.2989
   68MOL0     N 9298   6.633   4.716  10.982 -0.3245  0.4313 -0.3156
   68MOL0     C 9299   7.567   5.024  10.620 -0.7823 -0.6708  0.1989
   68MOL0     C 9300   7.671   4.980  10.528  0.1926 -0.5405 -0.7062
   68MOL0     C 9301   7.892   4.797  10.200  0.7632 -0.0715 -0.0252
   68MOL0     C 9302   7.920   4.663  10.208 -0.0054 -0.4187  0.1818
   68MOL0     C 9303   8.032   4.601  10.141 -0.0375  0.5709 -0.8836
   68MOL0     C 9304   8.119   4.677  10.076  0.8375 -0.8064 -0.7317
   68MOL0     O 9305   8.229   4.632  10.016  0.4060 -0.8210 -0.3695
   68MOL0     C 9306   8.287   4.514  10.072  0.6768  1.1962 -0.2055
   68MOL0     C 9307   8.423   4.501  10.002  0.4373 -0.1040  0.1343
   68MOL0     C 9308   8.497   4.375  10.057  0.3573 -0.1695  0.6356
   68MOL0     C 9309   8.636   4.350   9.987  0.6823  1.0573 -0.1111
   68MOL0     C 9310   8.720   4.477  10.000  0.5271  0.5902 -0.0418
   68MOL0     C 9311   8.794   4.572  10.011 -0.7705  0.7586  1.1448
   68MOL0     C 9312   8.090   4.816  10.064 -0.1674 -0.7352 -0.0581
   68MOL0     C 9313   7.972   4.880  10.112  0.3665  0.4440  1.0776
   68MOL0     C 9314   7.943   5.019  10.072 -0.0208  0.4481  0.4649
   68MOL0     H 9315   7.568   4.663  10.493 -0.0113 -1.0642  2.0699
   68MOL0     H 9316   7.378   4.743  10.623 -2.4231  3.1781 -1.4876
   68MOL0     H 9317   7.304   5.166  10.632 -0.5782 -2.1060 -1.2503
   68MOL0     H 9318   7.380   5.174  10.796  0.1277  0.2985 -1.4676
   68MOL0     H 9319   7.171   5.071  10.887 -0.8650  1.3617  2.1476
   68MOL0     H 9320   7.173   5.242  10.837 -4.4108  0.2508  1.1715
   68MOL0     H 9321   7.066   5.182  10.623 -4.3197 -0.7038 -0.7681
   68MOL0     H 9322   7.065   5.011  10.668 -2.2922 -1.5037  3.7322
   68MOL0     H 9323   6.902   5.211  10.803  0.8892  1.2707 -2.8702
   68MOL0     H 9324   6.847   5.085  10.687 -0.3630 -0.6170  0.8890
   68MOL0     H 9325   6.958   5.003  10.953 -0.8347 -1.3584  1.2111
   68MOL0     H 9326   6.847   4.914  10.847  0.0137 -0.9707  1.3399
   68MOL0     H 9327   6.731   5.016  11.053 -2.2988  0.0339 -0.2622
   68MOL0     H 9328   6.772   5.178  11.001 -0.3159 -1.0877  1.4211
   68MOL0     H 9329   6.617   5.127  10.782 -0.6463  0.6325  0.7612
   68MOL0     H 9330   6.542   5.108  10.940  1.0122 -0.5627  1.5361
   68MOL0     H 9331   6.474   4.926  10.811  0.4811 -0.5242 -0.7742
   68MOL0     H 9332   6.635   4.890  10.767 -1.2390  0.6152 -0.3885
   68MOL0     H 9333   6.449   4.948  11.109 -0.0166 -2.0829  0.1759
   68MOL0     H 9334   6.337   4.726  11.273 -1.0808  0.0334  2.5664
   68MOL0     H 9335   6.480   4.796  11.345 -0.5725  0.1554  0.7728
   68MOL0     H 9336   6.442   4.501  11.276 -1.5130  1.2682 -0.2501
   68MOL0     H 9337   6.605   4.585  11.316 -0.8220  1.6546 -3.0173
   68MOL0     H 9338   6.567   4.603  11.539 -0.8696 -3.0628  4.8866
   68MOL0     H 9339   6.393   4.583  11.521  1.0764  2.3400  1.3945
   68MOL0     H 9340   6.564   4.330  11.495  0.7143  0.7570  0.1012
   68MOL0     H 9341   6.467   4.387  11.630  3.9793  2.6642  1.1310
   68MOL0     H 9342   6.219   4.497  11.315 -0.3266  1.1262  0.3675
   68MOL0     H 9343   5.906   4.520  11.246 -0.3770  1.2365 -0.2250
   68MOL0     H 9344   6.026   4.642  11.291  0.0262  1.2276  0.0550
   68MOL0     H 9345   5.882   4.621  11.394 -3.6805 -3.3132 -1.3787
   68MOL0     H 9346   5.629   4.310  11.756  1.4833 -2.2164 -0.0910
   68MOL0     H 9347   5.420   4.267  11.806 -0.3809 -2.1936 -0.5143
   68MOL0     H 9348   5.153   4.153  11.798 -0.2869 -0.7744  2.0009
   68MOL0     H 9349   5.190   4.306  11.883  2.4635 -0.3831 -1.4961
   68MOL0     H 9350   4.952   4.237  11.902 -4.2658 -0.7850 -2.5574
   68MOL0     H 9351   4.977   4.394  11.824 -0.8845 -0.3303  2.1773
   68MOL0     H 9352   4.877   4.132  11.720 -2.8727  0.5602  1.7227
   68MOL0     H 9353   4.946   4.266  11.618 -0.6365  3.0347  0.3504
   68MOL0     H 9354   4.771   4.409  11.692  1.0901 -0.4085  0.0280
   68MOL0     H 9355   4.722   4.309  11.822  1.3215  0.0484 -0.4342
   68MOL0     H 9356   4.661   4.124  11.656 -0.1678  0.0735 -0.8462
   68MOL0     H 9357   4.566   4.269  11.678 -1.3245 -4.6756  0.9034
   68MOL0     H 9358   4.614   4.187  11.435  1.1132 -1.9566  1.2209
   68MOL0     H 9359   4.788   4.237  11.464  0.1989  3.1171 -2.9320
   68MOL0     H 9360   4.750   4.457  11.492 -0.2145 -0.7868 -0.0707
   68MOL0     H 9361   4.570   4.439  11.477 -1.6221 -2.2273 -2.6002
   68MOL0     H 9362   4.601   4.355  11.253  0.1488 -0.6943  2.8478
   68MOL0     H 9363   4.773   4.407  11.256 -0.4641 -0.7605 -1.2979
   68MOL0     H 9364   5.282   4.320  11.410 -2.0228 -1.3397  3.3310
   68MOL0     H 9365   5.530   4.362  11.338  2.5830  2.0715  1.0569
   68MOL0     H 9366   5.997   4.277  11.693  1.8430  0.0986  1.6923
   68MOL0     H 9367   6.243   4.231  11.628 -1.0329 -0.4462 -0.6619
   68MOL0     H 9368   7.561   5.129  10.649  1.5337 -0.3984 -0.1267
   68MOL0     H 9369   7.734   5.046  10.469 -0.0642  0.3069 -0.0647
   68MOL0     H 9370   7.865   4.605  10.282  0.0070  0.7948  1.1607
   68MOL0     H 9371   8.033   4.493  10.153 -3.2471  0.6390  0.9737
   68MOL0     H 9372   8.299   4.524  10.181 -0.1723  0.8797 -0.0805
   68MOL0     H 9373   8.226   4.426  10.051 -0.3376  2.2590 -1.9550
   68MOL0     H 9374   8.470   4.594  10.036  1.7710 -1.1541  1.3068
   68MOL0     H 9375   8.426   4.485   9.894 -1.6219  2.5395 -0.4147
   68MOL0     H 9376   8.515   4.378  10.165 -0.2204 -2.6386  0.8470
   68MOL0     H 9377   8.442   4.287  10.024  1.0634 -1.1019  1.8542
   68MOL0     H 9378   8.617   4.316   9.884  4.4672  1.1911 -1.0398
   68MOL0     H 9379   8.691   4.272  10.040 -0.2145  2.3694  2.9283
   68MOL0     H 9380   8.841   4.666  10.030  1.9695 -0.7507  2.4878
   68MOL0     H 9381   8.166   4.879  10.017 -0.9134  1.6420  1.7265
   68MOL0     H 9382   7.879   5.027   9.983  2.6514  1.2746 -1.4994
   68MOL0     H 9383   7.893   5.070  10.155  0.3847 -1.0457  1.6612
   68MOL0     H 9384   8.037   5.069  10.047 -0.2949  1.1056  0.7017
   69MOL0     O 9385   3.027  10.467   5.889  0.2384 -0.3003 -0.7828
   69MOL0     C 9386   3.093  10.421   5.799  1.0485 -0.2069 -0.4875
   69MOL0     O 9387   3.111  10.480   5.675  0.2881  0.0039 -0.2754
   69MOL0     C 9388   3.089  10.612   5.664 -1.0748 -0.0948 -0.4216
   69MOL0     C 9389   3.212  10.686   5.651 -0.2445  0.0202 -0.6583
   69MOL0     C 9390   3.200  10.818   5.634  0.0150 -0.0651  0.3796
   69MOL0     C 9391   3.073  10.881   5.627  0.0784  0.5865 -0.0416
   69MOL0     O 9392   3.064  11.022   5.626  0.6008  0.7533  0.9458
   69MOL0     C 9393   2.929  11.084   5.617  0.1429  0.4711  0.1827
   69MOL0     C 9394   2.948  11.234   5.614 -0.7931 -0.0933  0.7740
   69MOL0     C 9395   3.006  11.272   5.479  0.6029 -0.5034  0.0122
   69MOL0     C 9396   2.989  11.419   5.445  0.1997 -0.8784 -1.4218
   69MOL0     C 9397   3.038  11.459   5.309 -0.8947  1.3934  0.9938
   69MOL0     C 9398   3.050  11.613   5.301  1.2612 -0.1160 -0.6616
   69MOL0     C 9399   3.096  11.664   5.171  0.3594  0.3136 -0.2791
   69MOL0     C 9400   2.991  11.693   5.062 -0.6533 -0.2870 -0.6880
   69MOL0     N 9401   2.961  11.577   4.985  0.3983  0.4343  0.8456
   69MOL0     C 9402   3.062  11.501   4.925  0.0795 -0.7463 -0.2258
   69MOL0     C 9403   3.008  11.378   4.923 -0.6918  0.4564 -0.6047
   69MOL0     C 9404   3.081  11.254   4.868 -0.0585  0.5541 -0.3457
   69MOL0     C 9405   3.141  11.185   4.997  0.3964 -0.3710  0.3450
   69MOL0     C 9406   3.040  11.123   5.091 -0.4859  0.3205 -0.3791
   69MOL0     C 9407   3.097  11.009   5.183 -0.1164 -0.4803 -0.5730
   69MOL0     O 9408   3.112  10.893   5.108  0.2906  0.5140 -0.6749
   69MOL0     C 9409   3.176  10.779   5.161 -0.0132 -0.1822  0.7745
   69MOL0     C 9410   3.176  10.666   5.078 -0.6485 -0.1857  0.0696
   69MOL0     C 9411   3.258  10.550   5.098  0.4272 -0.8324 -0.1093
   69MOL0     C 9412   3.272  10.450   4.984  0.5396 -0.4132  0.2272
   69MOL0     C 9413   3.326  10.547   5.221 -0.5096  0.3831 -0.9202
   69MOL0     C 9414   3.411  10.422   5.258 -0.1194  0.2718 -0.0638
   69MOL0     O 9415   3.528  10.454   5.326 -0.1148  0.7356  0.1264
   69MOL0     C 9416   3.586  10.368   5.421 -0.0399  0.2073 -0.0768
   69MOL0     C 9417   3.638  10.427   5.536  0.5839  0.1999 -0.2726
   69MOL0     C 9418   3.672  10.357   5.647  0.2482  0.8609 -0.0444
   69MOL0     C 9419   3.680  10.214   5.630 -0.3531  0.5601  0.6738
   69MOL0     O 9420   3.743  10.133   5.725  0.2123 -0.0860 -0.4043
   69MOL0     C 9421   3.802  10.001   5.688  0.1194 -0.8456 -0.5791
   69MOL0     C 9422   3.850   9.923   5.805 -0.0180 -0.3958 -0.3024
   69MOL0     C 9423   3.993   9.972   5.855 -0.4058  0.1207 -0.5711
   69MOL0     C 9424   4.030   9.857   5.952 -0.1223 -0.3871  0.2866
   69MOL0     C 9425   4.178   9.861   5.972  0.1908 -0.2658 -0.5374
   69MOL0     C 9426   4.210   9.792   6.109 -0.2980 -0.3485 -0.8715
   69MOL0     C 9427   4.356   9.742   6.121  0.0972  0.0945  0.9146
   69MOL0     C 9428   4.464   9.860   6.112 -0.3139  0.5550  0.1976
   69MOL0    Cl 9429   4.480   9.942   6.287 -0.3364  0.0933  0.5032
   69MOL0     C 9430   3.646  10.157   5.510  1.0376  0.0685 -0.5237
   69MOL0     C 9431   3.594  10.231   5.408 -0.7151  0.1973 -0.2553
   69MOL0     O 9432   3.369  10.310   5.233  0.6533  0.1860 -0.2669
   69MOL0     C 9433   3.324  10.661   5.311  0.6003  0.4091 -0.0507
   69MOL0     C 9434   3.242  10.770   5.281  0.1232  0.3201 -0.6802
   69MOL0     N 9435   2.877  11.385   4.967  0.2024 -0.0061  0.6198
   69MOL0     N 9436   2.841  11.503   4.996  1.3982 -0.9219  0.3475
   69MOL0     C 9437   2.951  10.810   5.647 -0.4118  0.1350  0.5363
   69MOL0     C 9438   2.961  10.671   5.658  0.2953 -0.4321  0.1129
   69MOL0     C 9439   3.198  10.316   5.844 -0.3769 -0.6940  0.8489
   69MOL0     C 9440   3.181  10.266   5.976 -0.0230  0.5983  0.6733
   69MOL0     C 9441   3.262  10.167   6.024 -0.2269 -0.2955  0.8954
   69MOL0     C 9442   3.364  10.115   5.954 -0.5061 -0.4543  0.4695
   69MOL0     O 9443   3.457  10.030   6.005  0.0817  0.0262 -0.1831
   69MOL0     C 9444   3.583  10.089   6.032  0.3788  0.5641  0.0512
   69MOL0     C 9445   3.661  10.008   6.139  0.0815 -0.1009 -0.2176
   69MOL0     C 9446   3.589   9.983   6.270  0.2430 -0.4592 -0.0688
   69MOL0     C 9447   3.661   9.874   6.357  0.0099  1.3176 -0.7128
   69MOL0     C 9448   3.797   9.911   6.387 -0.3882 -0.3682 -0.0951
   69MOL0     C 9449   3.915   9.928   6.384 -0.2016  0.1205  0.9071
   69MOL0     C 9450   3.384  10.166   5.818  1.0089 -0.3926  0.6618
   69MOL0     C 9451   3.302  10.266   5.765  0.4501  1.0577 -0.4952
   69MOL0     C 9452   3.326  10.309   5.624 -0.5248 -1.2081  0.2246
   69MOL0     H 9453   3.303  10.626   5.643 -0.6226 -0.4987 -1.1352
   69MOL0     H 9454   3.290  10.879   5.627 -0.4471  0.5933  0.1043
   69MOL0     H 9455   2.889  11.044   5.710  0.9162 -3.0647 -0.8335
   69MOL0     H 9456   2.871  11.048   5.532  0.7647  1.8657 -0.8832
   69MOL0     H 9457   2.850  11.280   5.631 -1.4268 -0.2953 -1.8968
   69MOL0     H 9458   3.021  11.264   5.690  0.7080  2.0664 -1.3679
   69MOL0     H 9459   3.112  11.244   5.482  0.7563  0.0983  0.3921
   69MOL0     H 9460   2.950  11.218   5.402 -0.7498 -2.7916  2.4322
   69MOL0     H 9461   2.884  11.445   5.458  0.5006 -0.6409  1.0481
   69MOL0     H 9462   3.038  11.476   5.525 -3.1388 -0.2979  0.3584
   69MOL0     H 9463   2.973  11.421   5.230  2.3418  0.1558 -1.3020
   69MOL0     H 9464   3.130  11.411   5.273 -2.0406  0.6773 -1.1206
   69MOL0     H 9465   2.954  11.664   5.313  1.3049  0.4014 -2.2288
   69MOL0     H 9466   3.117  11.645   5.381 -1.5218 -3.3227  3.3564
   69MOL0     H 9467   3.189  11.618   5.136  3.0672  3.0778  2.5976
   69MOL0     H 9468   3.129  11.767   5.192  0.8711 -0.1856  1.4716
   69MOL0     H 9469   2.901  11.733   5.110 -0.2389  0.2039 -0.3067
   69MOL0     H 9470   3.043  11.773   5.009  2.5691 -2.3506 -0.9053
   69MOL0     H 9471   3.168  11.523   4.913 -0.4468  1.1549 -1.6689
   69MOL0     H 9472   3.158  11.277   4.794  1.3542 -1.0592  0.5469
   69MOL0     H 9473   3.014  11.184   4.818 -0.8943  2.8418 -2.6743
   69MOL0     H 9474   3.203  11.102   4.965  0.0052 -1.3904  2.1112
   69MOL0     H 9475   3.204  11.260   5.045 -0.9922  1.6192 -0.7575
   69MOL0     H 9476   2.964  11.181   5.144 -0.8659 -1.7152  1.4642
   69MOL0     H 9477   2.978  11.060   5.026 -0.5952 -0.4539  0.4486
   69MOL0     H 9478   3.193  11.041   5.224  0.4588  1.3376 -3.0746
   69MOL0     H 9479   3.015  10.986   5.253  0.5867 -0.7114  0.1870
   69MOL0     H 9480   3.115  10.679   4.989 -3.4403  5.5256  2.3308
   69MOL0     H 9481   3.305  10.352   5.017  2.3972  0.5415  1.3845
   69MOL0     H 9482   3.345  10.497   4.918 -0.2987  2.4352  1.1584
   69MOL0     H 9483   3.179  10.439   4.928  0.2906  1.7040  0.1426
   69MOL0     H 9484   3.636  10.536   5.532 -1.5634  0.3085  1.6466
   69MOL0     H 9485   3.703  10.401   5.741 -5.3686  0.2204  2.5202
   69MOL0     H 9486   3.728   9.933   5.644 -3.6404  0.6120  2.8659
   69MOL0     H 9487   3.887  10.018   5.621  2.3114 -1.5728  1.8431
   69MOL0     H 9488   3.768   9.917   5.877  0.7715 -3.4696  0.4701
   69MOL0     H 9489   3.863   9.829   5.752 -2.4233 -1.3161  0.5846
   69MOL0     H 9490   3.984  10.065   5.912  0.2221  0.5330 -1.1478
   69MOL0     H 9491   4.072   9.976   5.781  2.9911  0.1200  2.7423
   69MOL0     H 9492   3.991   9.757   5.930 -0.1236 -1.0557  2.9865
   69MOL0     H 9493   3.980   9.877   6.047 -0.9026  0.6050 -0.3056
   69MOL0     H 9494   4.204   9.785   5.898 -0.8922 -1.1677 -0.0109
   69MOL0     H 9495   4.226   9.957   5.946  3.0997 -1.4434  0.1430
   69MOL0     H 9496   4.150   9.701   6.120 -0.1117 -0.3756  0.0022
   69MOL0     H 9497   4.192   9.866   6.187 -0.3071 -2.1536  0.9292
   69MOL0     H 9498   4.387   9.680   6.037  0.5013 -0.0117  1.1415
   69MOL0     H 9499   4.378   9.694   6.217  3.9305  3.6243  2.1068
   69MOL0     H 9500   4.446   9.938   6.038 -1.9987 -2.1568 -2.4652
   69MOL0     H 9501   4.562   9.824   6.080 -0.4373 -0.5449  1.0116
   69MOL0     H 9502   3.661  10.053   5.480  0.7212 -0.2102  0.2529
   69MOL0     H 9503   3.562  10.173   5.322  1.3047  0.2852 -1.1318
   69MOL0     H 9504   3.370  10.662   5.410  0.9050  1.1454 -0.1960
   69MOL0     H 9505   3.236  10.859   5.343  1.5417  0.3060 -0.5028
   69MOL0     H 9506   2.848  10.843   5.659 -0.2217  1.4807 -1.1576
   69MOL0     H 9507   2.874  10.609   5.678  1.3888 -1.5437  1.7307
   69MOL0     H 9508   3.107  10.286   6.053  1.7979  0.0116  2.6784
   69MOL0     H 9509   3.249  10.128   6.125 -2.4527  2.6752  1.9104
   69MOL0     H 9510   3.633  10.099   5.935  0.8618  4.0016  0.5216
   69MOL0     H 9511   3.564  10.190   6.069  0.2328 -0.4228  2.9409
   69MOL0     H 9512   3.761  10.053   6.144  0.9219 -1.8567 -0.4970
   69MOL0     H 9513   3.692   9.910   6.102  0.1053 -0.5822  1.0395
   69MOL0     H 9514   3.601  10.079   6.322  0.8270 -1.2384  1.2691
   69MOL0     H 9515   3.482   9.961   6.262  0.0230 -1.1500  3.5065
   69MOL0     H 9516   3.656   9.778   6.306  0.4668 -1.4372  3.9220
   69MOL0     H 9517   3.598   9.867   6.446 -1.9184 -0.4950 -2.1164
   69MOL0     H 9518   4.022   9.941   6.380 -0.2955  0.7328 -1.8138
   69MOL0     H 9519   3.475  10.149   5.762  1.4713 -1.9010  1.8088
   69MOL0     H 9520   3.370  10.223   5.573 -1.4161 -1.9888  0.7441
   69MOL0     H 9521   3.230  10.305   5.573 -1.4782  3.5759  1.1757
   69MOL0     H 9522   3.376  10.405   5.609 -1.6212 -0.7045 -0.2928
   70MOL0     O 9523   9.870   0.206   7.683  0.1113 -0.4381  0.1915
   70MOL0     C 9524   9.796   0.113   7.650  0.4312  0.6236  0.9526
   70MOL0     O 9525   9.760   0.085   7.524  0.2603 -0.2889 -0.9176
   70MOL0     C 9526   9.751   0.204   7.451 -0.8959  0.3797  0.9286
   70MOL0     C 9527   9.653   0.307   7.479 -0.1322 -0.7421  0.0037
   70MOL0     C 9528   9.634   0.407   7.393  0.1056  0.8290  0.7104
   70MOL0     C 9529   9.725   0.424   7.285  0.3869 -0.1862  0.3827
   70MOL0     O 9530   9.731   0.525   7.198 -0.3287 -0.6772  0.1298
   70MOL0     C 9531   9.627   0.620   7.200 -0.1899 -0.1222  0.1980
   70MOL0     C 9532   9.642   0.712   7.080 -0.9725 -0.7094 -0.3229
   70MOL0     C 9533   9.621   0.635   6.951 -0.5637 -0.0818  0.0133
   70MOL0     C 9534   9.646   0.727   6.839  0.0219  0.0964 -0.0918
   70MOL0     C 9535   9.609   0.662   6.707  0.4424  0.0885  0.6828
   70MOL0     C 9536   9.632   0.757   6.592  0.1451 -0.7403  0.7285
   70MOL0     C 9537   9.787   0.773   6.563  0.2531  0.3011 -0.7404
   70MOL0     C 9538   9.804   0.836   6.431 -0.1519  0.1100 -0.0921
   70MOL0     N 9539   9.939   0.819   6.377 -0.9266  0.2312 -0.5685
   70MOL0     C 9540  10.061   0.825   6.438 -0.1486 -0.5461 -0.0346
   70MOL0     C 9541  10.150   0.764   6.350  0.5987  0.6086  0.0427
   70MOL0     C 9542  10.299   0.750   6.362 -0.3070  0.1050  0.0618
   70MOL0     C 9543  10.357   0.892   6.366 -0.2656  0.2002  1.0169
   70MOL0     C 9544  10.517   0.890   6.390 -0.0689 -0.6322  0.0407
   70MOL0     C 9545  10.583   1.016   6.441  0.7579  0.5568 -0.3362
   70MOL0     O 9546  10.585   1.129   6.352 -0.0852 -0.2864  0.0095
   70MOL0     C 9547  10.597   1.251   6.407 -0.4116 -1.3218 -0.0992
   70MOL0     C 9548  10.622   1.289   6.539  0.1745  0.4555  0.0244
   70MOL0     C 9549  10.622   1.421   6.590 -0.2202  0.2756 -0.0105
   70MOL0     C 9550  10.633   1.429   6.739  0.0062  0.0015 -0.6892
   70MOL0     C 9551  10.624   1.525   6.488 -0.0061  0.6303  0.1805
   70MOL0     C 9552  10.639   1.665   6.508  0.5090 -0.9530 -0.3512
   70MOL0     O 9553  10.694   1.735   6.411 -0.2295 -0.2202 -0.9645
   70MOL0     C 9554  10.718   1.872   6.423 -0.0233 -0.2898 -0.1352
   70MOL0     C 9555  10.825   1.917   6.343  0.4271 -1.6949  0.8618
   70MOL0     C 9556  10.854   2.058   6.339 -0.8605 -0.1045  0.0286
   70MOL0     C 9557  10.797   2.143   6.430 -0.3276 -0.6010 -0.2804
   70MOL0     O 9558  10.843   2.268   6.408  0.3264 -0.8339 -0.5116
   70MOL0     C 9559  10.829   2.362   6.516  0.0080 -1.0717  0.3872
   70MOL0     C 9560  10.881   2.506   6.489 -0.2465 -0.8122 -0.4528
   70MOL0     C 9561  10.988   2.530   6.385 -0.4170 -0.5347 -0.3399
   70MOL0     C 9562  11.040   2.679   6.414 -0.4244 -0.1175  0.0002
   70MOL0     C 9563  11.166   2.719   6.331  1.2459 -0.5242 -1.7902
   70MOL0     C 9564  11.252   2.831   6.396  0.7996 -0.1967 -0.2921
   70MOL0     C 9565  11.339   2.774   6.517  0.7121 -0.4834 -0.5474
   70MOL0     C 9566  11.476   2.849   6.512  1.2134 -0.2688  0.9047
   70MOL0    Cl 9567  11.598   2.759   6.608 -0.3927  0.1082  0.0633
   70MOL0     C 9568  10.705   2.095   6.523 -0.5561  1.5044  0.1289
   70MOL0     C 9569  10.648   1.969   6.504  0.4435  0.6951 -0.7636
   70MOL0     O 9570  10.589   1.715   6.608  0.0137  0.7258 -0.1342
   70MOL0     C 9571  10.614   1.487   6.347 -0.0902  0.1570 -0.1255
   70MOL0     C 9572  10.599   1.352   6.313 -0.7611  0.0968  0.4111
   70MOL0     N 9573  10.091   0.740   6.235 -0.8451  0.5521  0.2594
   70MOL0     N 9574   9.968   0.760   6.256 -0.0126 -0.8158 -0.3411
   70MOL0     C 9575   9.824   0.328   7.258  0.7031  0.2671 -1.2214
   70MOL0     C 9576   9.838   0.223   7.342  0.1231 -0.5243 -0.0243
   70MOL0     C 9577   9.761   0.007   7.762 -0.1904  0.5111 -0.4653
   70MOL0     C 9578   9.774   0.059   7.899 -0.3372  0.3096  0.1779
   70MOL0     C 9579   9.752  -0.025   8.002  0.0418  1.0628 -0.9337
   70MOL0     C 9580   9.722  -0.168   7.983 -0.3645 -0.7997  0.2905
   70MOL0     O 9581   9.689  -0.255   8.087 -0.1120 -0.7054  0.3779
   70MOL0     C 9582   9.548  -0.279   8.092 -0.2048  0.7288  0.3574
   70MOL0     C 9583   9.463  -0.152   8.101 -0.9414  0.4274 -0.9048
   70MOL0     C 9584   9.419  -0.094   8.234  0.2577 -0.0114 -0.7320
   70MOL0     C 9585   9.524  -0.005   8.312 -0.1202 -1.0868 -1.0280
   70MOL0     C 9586   9.538   0.140   8.282 -0.1040 -0.9789  1.3556
   70MOL0     C 9587   9.534   0.253   8.236  0.8377 -0.0859  0.4510
   70MOL0     C 9588   9.716  -0.214   7.854  0.0116  0.1113 -0.3088
   70MOL0     C 9589   9.751  -0.129   7.741 -0.2006  0.0971  0.4292
   70MOL0     C 9590   9.738  -0.193   7.605  0.6026 -0.3102 -0.4065
   70MOL0     H 9591   9.595   0.300   7.570 -0.8610  1.3531 -0.2570
   70MOL0     H 9592   9.570   0.487   7.428  2.1492  1.5268  3.1251
   70MOL0     H 9593   9.626   0.674   7.295 -1.0274 -0.6252  0.4876
   70MOL0     H 9594   9.537   0.558   7.194 -0.3828 -0.0356  1.6986
   70MOL0     H 9595   9.562   0.786   7.082 -1.2047 -0.8721 -2.1613
   70MOL0     H 9596   9.740   0.761   7.085 -1.6453  0.8849 -1.8168
   70MOL0     H 9597   9.683   0.545   6.958  0.2421  0.5920  3.5852
   70MOL0     H 9598   9.521   0.592   6.946  0.7211 -3.2916 -5.0326
   70MOL0     H 9599   9.590   0.819   6.858  0.3781  0.2161  0.3929
   70MOL0     H 9600   9.752   0.753   6.832 -0.1590  0.4848 -4.1444
   70MOL0     H 9601   9.506   0.628   6.702  1.4407 -3.1287 -0.7834
   70MOL0     H 9602   9.662   0.570   6.682  0.1073  0.6622 -2.7422
   70MOL0     H 9603   9.591   0.706   6.504  1.7973  3.4537 -2.8557
   70MOL0     H 9604   9.584   0.855   6.595  0.1894 -0.5181 -2.2997
   70MOL0     H 9605   9.829   0.671   6.566  1.0617  0.5533 -2.2742
   70MOL0     H 9606   9.830   0.826   6.648 -2.2583  2.2239 -0.5565
   70MOL0     H 9607   9.735   0.794   6.356  0.5928  1.5415 -1.6590
   70MOL0     H 9608   9.774   0.941   6.435 -0.0320  0.1666 -0.5982
   70MOL0     H 9609  10.083   0.877   6.530  2.2402 -0.6753 -0.4609
   70MOL0     H 9610  10.343   0.701   6.275  2.6511  1.4236  0.6992
   70MOL0     H 9611  10.313   0.683   6.447  2.2622 -2.2441 -2.0360
   70MOL0     H 9612  10.339   0.923   6.263 -1.7055  0.7331  1.4097
   70MOL0     H 9613  10.300   0.950   6.440 -3.1299  0.0572 -0.9022
   70MOL0     H 9614  10.538   0.801   6.449  0.9081 -0.9783 -0.8006
   70MOL0     H 9615  10.565   0.878   6.293 -0.7744  2.4830 -0.8143
   70MOL0     H 9616  10.526   1.041   6.531 -1.9254 -0.3365 -1.6635
   70MOL0     H 9617  10.682   0.984   6.473  0.0532  0.5188  1.9941
   70MOL0     H 9618  10.612   1.211   6.613  0.2587  2.6809  2.5428
   70MOL0     H 9619  10.649   1.334   6.791  1.0282  1.7845  2.4974
   70MOL0     H 9620  10.543   1.474   6.782  0.0354  0.5374 -1.1641
   70MOL0     H 9621  10.730   1.472   6.765  0.9187 -2.2477 -0.2126
   70MOL0     H 9622  10.878   1.842   6.284  1.8693 -1.2549  1.5630
   70MOL0     H 9623  10.924   2.101   6.268 -1.2270  1.3171  0.5009
   70MOL0     H 9624  10.724   2.382   6.542  0.7358  0.4116  2.5005
   70MOL0     H 9625  10.875   2.331   6.610  1.1336  4.1536  1.8950
   70MOL0     H 9626  10.793   2.565   6.463  1.0675  2.9163  2.6473
   70MOL0     H 9627  10.912   2.546   6.586 -1.5956 -1.6133  0.3497
   70MOL0     H 9628  10.954   2.518   6.282 -2.0577 -3.8338  0.4557
   70MOL0     H 9629  11.067   2.456   6.404 -0.7803 -1.0498 -0.7980
   70MOL0     H 9630  11.077   2.676   6.517 -1.5745  1.4084  0.4934
   70MOL0     H 9631  10.964   2.757   6.412 -0.6884 -0.3781 -1.5172
   70MOL0     H 9632  11.227   2.630   6.319  1.2872 -0.2741 -3.9328
   70MOL0     H 9633  11.151   2.747   6.226  2.2497  0.3914 -1.7053
   70MOL0     H 9634  11.178   2.898   6.442  2.3377  0.4792  1.3076
   70MOL0     H 9635  11.311   2.890   6.326  0.7537 -1.6113 -1.5777
   70MOL0     H 9636  11.355   2.667   6.499  0.5318 -0.1331 -3.2950
   70MOL0     H 9637  11.286   2.784   6.612  1.0379  0.7768 -0.4821
   70MOL0     H 9638  11.455   2.944   6.562  3.6666  0.3498  0.8728
   70MOL0     H 9639  11.511   2.862   6.410  2.0664 -2.7565  0.8169
   70MOL0     H 9640  10.659   2.164   6.594 -2.2200  1.4610 -0.8655
   70MOL0     H 9641  10.557   1.939   6.555  1.0846 -1.9911 -1.0196
   70MOL0     H 9642  10.607   1.567   6.273  0.3943 -0.6750 -1.0852
   70MOL0     H 9643  10.577   1.329   6.210 -0.3693  1.4104  0.0164
   70MOL0     H 9644   9.899   0.330   7.179  1.6255 -1.0303 -0.4211
   70MOL0     H 9645   9.925   0.158   7.334 -0.7095 -1.4099 -3.5075
   70MOL0     H 9646   9.784   0.166   7.915  0.5460  0.3114 -0.3187
   70MOL0     H 9647   9.733   0.006   8.104 -1.7686 -0.4620 -0.7450
   70MOL0     H 9648   9.518  -0.344   8.010  0.7269  1.1367 -0.3245
   70MOL0     H 9649   9.522  -0.331   8.185 -0.4531  5.0110  2.9636
   70MOL0     H 9650   9.372  -0.177   8.045 -0.9771  0.4261 -0.8460
   70MOL0     H 9651   9.516  -0.075   8.045 -0.4503 -0.8237 -2.2284
   70MOL0     H 9652   9.325  -0.038   8.229 -0.4262 -0.9675  0.7255
   70MOL0     H 9653   9.394  -0.178   8.299 -1.7924 -0.1869 -1.6667
   70MOL0     H 9654   9.619  -0.059   8.304  1.5575  1.6890 -1.0109
   70MOL0     H 9655   9.513  -0.018   8.420  0.0936 -1.5371 -1.0592
   70MOL0     H 9656   9.558   0.351   8.198  1.7562  0.4030  2.1590
   70MOL0     H 9657   9.687  -0.316   7.831  0.5337  0.6184 -3.7383
   70MOL0     H 9658   9.829  -0.169   7.548  1.9889 -1.0376  1.3889
   70MOL0     H 9659   9.751  -0.301   7.610 -1.1247 -0.5380 -0.2390
   70MOL0     H 9660   9.656  -0.162   7.540  1.5355  0.0697 -1.4359
   71MOL0     O 9661   7.525   8.548   9.776  0.5387 -0.2336  0.6133
   71MOL0     C 9662   7.542   8.659   9.823 -0.8093 -0.7750  0.3707
   71MOL0     O 9663   7.441   8.758   9.845  0.5041 -0.3752  0.0106
   71MOL0     C 9664   7.330   8.745   9.774  1.4957  0.6402 -0.7211
   71MOL0     C 9665   7.223   8.661   9.833 -0.0948 -1.4877  1.2358
   71MOL0     C 9666   7.103   8.652   9.764  0.0176 -0.4535 -0.1294
   71MOL0     C 9667   7.074   8.724   9.654  0.4958  0.2977 -0.7661
   71MOL0     O 9668   6.956   8.698   9.595  0.6042  0.3690  0.2995
   71MOL0     C 9669   6.904   8.785   9.499 -0.3085  0.2754 -0.5098
   71MOL0     C 9670   6.815   8.901   9.562 -0.2874 -0.2396  0.0655
   71MOL0     C 9671   6.725   8.978   9.468 -0.0294 -0.3340 -0.5363
   71MOL0     C 9672   6.784   9.104   9.423  1.4756  0.0006 -0.0371
   71MOL0     C 9673   6.671   9.197   9.362 -0.0195 -0.0998  1.2257
   71MOL0     C 9674   6.722   9.293   9.251  0.1853 -0.7358 -0.7902
   71MOL0     C 9675   6.641   9.424   9.218 -0.1510 -0.0824 -0.7678
   71MOL0     C 9676   6.728   9.549   9.183 -0.2571 -0.1650 -0.7759
   71MOL0     N 9677   6.817   9.534   9.070  0.1292 -0.0564 -1.3734
   71MOL0     C 9678   6.782   9.521   8.941 -0.2530 -0.2863  0.0062
   71MOL0     C 9679   6.894   9.478   8.871  0.0240 -0.2543  0.8336
   71MOL0     C 9680   6.933   9.430   8.732  0.9740  0.5080 -0.1286
   71MOL0     C 9681   6.948   9.280   8.727 -0.1083 -0.0417  0.3739
   71MOL0     C 9682   6.873   9.184   8.827  0.1595  0.0507 -0.7268
   71MOL0     C 9683   6.719   9.180   8.834 -0.1153  0.1224  0.1610
   71MOL0     O 9684   6.668   9.210   8.703  0.2699  0.3445 -0.2750
   71MOL0     C 9685   6.536   9.269   8.675  0.3464 -0.0372 -0.0139
   71MOL0     C 9686   6.430   9.288   8.769 -1.1821 -0.4855  0.0576
   71MOL0     C 9687   6.303   9.348   8.724  0.5751  0.5517 -0.3305
   71MOL0     C 9688   6.204   9.371   8.836 -0.1898 -0.0982  0.3387
   71MOL0     C 9689   6.279   9.371   8.585  1.2683 -0.2842 -0.4305
   71MOL0     C 9690   6.139   9.403   8.537 -0.4306 -0.2605  0.8813
   71MOL0     O 9691   6.030   9.353   8.606  0.3265 -0.7120  0.5485
   71MOL0     C 9692   5.912   9.411   8.580  1.0480  0.2743 -0.3508
   71MOL0     C 9693   5.815   9.332   8.533 -0.6833  0.3145  1.0624
   71MOL0     C 9694   5.680   9.378   8.528  0.1484 -0.2983 -0.4820
   71MOL0     C 9695   5.648   9.512   8.570 -0.4891  0.8316  0.1297
   71MOL0     O 9696   5.521   9.556   8.609  0.0618 -0.2052 -0.2783
   71MOL0     C 9697   5.397   9.500   8.555 -0.5237 -0.6091  0.3573
   71MOL0     C 9698   5.269   9.576   8.591 -0.1255 -0.1041  1.2291
   71MOL0     C 9699   5.273   9.733   8.559 -0.3662 -0.0281  0.1998
   71MOL0     C 9700   5.135   9.790   8.586  0.2669  0.6201  1.0947
   71MOL0     C 9701   5.135   9.943   8.572 -0.0321  0.3323  0.3709
   71MOL0     C 9702   4.995   9.997   8.586  0.1276 -0.8549  0.5536
   71MOL0     C 9703   4.903   9.936   8.692  0.0878  0.7547 -0.6006
   71MOL0     C 9704   4.775  10.003   8.699  0.7176  0.6180  0.0535
   71MOL0    Cl 9705   4.676   9.966   8.555  0.3654 -0.7125  0.4638
   71MOL0     C 9706   5.758   9.599   8.595  0.8593 -0.6400  0.5757
   71MOL0     C 9707   5.890   9.548   8.583  0.4320 -0.2694 -0.0616
   71MOL0     O 9708   6.140   9.473   8.432  0.3023 -0.0902  0.5512
   71MOL0     C 9709   6.384   9.350   8.501  0.6607 -0.7918 -0.8618
   71MOL0     C 9710   6.506   9.300   8.549  0.6319  0.1126  0.5686
   71MOL0     N 9711   6.987   9.474   8.970  0.1488  0.4856  0.3253
   71MOL0     N 9712   6.946   9.509   9.080 -1.5084  0.9245  0.2675
   71MOL0     C 9713   7.182   8.799   9.601  1.2150  0.2170 -0.1146
   71MOL0     C 9714   7.311   8.805   9.652  0.2553  0.3199  0.3780
   71MOL0     C 9715   7.680   8.700   9.860 -0.4313  1.2647  0.4890
   71MOL0     C 9716   7.711   8.787   9.963 -0.5904  0.3894 -0.1721
   71MOL0     C 9717   7.843   8.820  10.001  0.1970  0.2268 -0.5375
   71MOL0     C 9718   7.948   8.790   9.915 -0.1898  0.2360 -0.1886
   71MOL0     O 9719   8.086   8.832   9.926  0.5456  0.4367  0.4095
   71MOL0     C 9720   8.168   8.786  10.034  0.2064 -0.0549  0.7259
   71MOL0     C 9721   8.300   8.751   9.965  0.1814  0.1826  0.1614
   71MOL0     C 9722   8.394   8.660  10.034  0.4707  0.2072  0.5582
   71MOL0     C 9723   8.486   8.583   9.933  0.3522  0.1587  0.0804
   71MOL0     C 9724   8.558   8.667   9.840 -0.8590  1.2960 -0.3273
   71MOL0     C 9725   8.612   8.722   9.749  0.2889 -0.8654 -0.3258
   71MOL0     C 9726   7.919   8.708   9.810 -0.4458  0.1509  0.7473
   71MOL0     C 9727   7.789   8.661   9.774 -0.1654  0.0679 -0.0439
   71MOL0     C 9728   7.775   8.585   9.646  0.0532 -0.0059 -1.0972
   71MOL0     H 9729   7.241   8.601   9.922 -0.0575  0.5430  2.6392
   71MOL0     H 9730   7.032   8.593   9.822  1.8374  0.5188  3.4029
   71MOL0     H 9731   6.834   8.740   9.428 -0.7033  0.1722 -0.0616
   71MOL0     H 9732   6.975   8.829   9.429 -1.4829  1.6770 -0.8834
   71MOL0     H 9733   6.749   8.857   9.637  0.0531  0.6954  0.9411
   71MOL0     H 9734   6.867   8.972   9.627  0.9085  1.2970 -2.4018
   71MOL0     H 9735   6.707   8.911   9.383  0.5118 -1.0101 -0.1186
   71MOL0     H 9736   6.632   8.991   9.523  1.1913 -4.9275  3.2781
   71MOL0     H 9737   6.825   9.160   9.508 -1.3815  0.2538  1.2901
   71MOL0     H 9738   6.849   9.095   9.336 -2.4032  1.1065 -3.3853
   71MOL0     H 9739   6.634   9.262   9.443 -1.3845 -1.0575  1.4102
   71MOL0     H 9740   6.587   9.141   9.319 -1.9899  1.8702  2.2583
   71MOL0     H 9741   6.819   9.328   9.286 -0.6866 -2.2257  3.7355
   71MOL0     H 9742   6.713   9.240   9.155 -2.1219 -1.4910 -0.2394
   71MOL0     H 9743   6.585   9.450   9.308  1.1555  0.8557 -0.1902
   71MOL0     H 9744   6.565   9.400   9.143  0.3457  1.3058 -1.7535
   71MOL0     H 9745   6.653   9.622   9.150  0.5191  0.3590 -1.4196
   71MOL0     H 9746   6.791   9.567   9.271  1.4861 -1.0211 -1.8129
   71MOL0     H 9747   6.677   9.528   8.915 -0.4679 -1.5088  0.4808
   71MOL0     H 9748   7.022   9.484   8.699  2.5960 -1.0069  1.5270
   71MOL0     H 9749   6.863   9.476   8.662 -0.4961  0.3909  1.1914
   71MOL0     H 9750   6.928   9.255   8.622  0.8075  3.6548 -0.8411
   71MOL0     H 9751   7.055   9.264   8.738 -0.1617 -1.3774 -0.7649
   71MOL0     H 9752   6.917   9.085   8.813  0.2851 -0.2301  1.2627
   71MOL0     H 9753   6.901   9.225   8.925  0.3974 -1.7683  0.0193
   71MOL0     H 9754   6.691   9.080   8.867  1.2460  0.4092  2.3631
   71MOL0     H 9755   6.674   9.253   8.903 -0.9030 -0.0716 -0.1369
   71MOL0     H 9756   6.425   9.247   8.870 -2.6425 -1.2021 -0.2693
   71MOL0     H 9757   6.173   9.475   8.823  1.4343  0.4176  0.3661
   71MOL0     H 9758   6.254   9.365   8.934  0.4720  3.4130  0.3444
   71MOL0     H 9759   6.123   9.300   8.817 -1.9128  2.3302 -2.0960
   71MOL0     H 9760   5.824   9.227   8.509  0.0742  0.4508  0.7053
   71MOL0     H 9761   5.604   9.301   8.519 -1.1143  0.8729 -0.1109
   71MOL0     H 9762   5.405   9.502   8.446 -3.6070 -2.0982  0.0268
   71MOL0     H 9763   5.383   9.397   8.588 -1.2687 -1.1298 -1.4664
   71MOL0     H 9764   5.186   9.536   8.532  0.4980 -0.2820  0.4581
   71MOL0     H 9765   5.251   9.574   8.699 -1.0223  0.4975  1.1006
   71MOL0     H 9766   5.315   9.754   8.460  1.1963 -0.4434  0.7415
   71MOL0     H 9767   5.348   9.770   8.630  1.4287  0.4287 -1.8439
   71MOL0     H 9768   5.119   9.753   8.688 -0.9750 -2.2947 -0.0347
   71MOL0     H 9769   5.062   9.742   8.520 -0.5822  0.6847  1.9590
   71MOL0     H 9770   5.202   9.974   8.654  0.0108 -2.1918  1.3932
   71MOL0     H 9771   5.180   9.978   8.479  0.6961 -2.5053 -0.4272
   71MOL0     H 9772   4.943   9.985   8.490 -0.9585 -1.3081  1.1852
   71MOL0     H 9773   5.007  10.105   8.594  2.2155 -0.8739 -1.2395
   71MOL0     H 9774   4.955   9.944   8.788  2.1063  1.8227 -1.7225
   71MOL0     H 9775   4.887   9.830   8.669 -2.6264  0.8769  0.3488
   71MOL0     H 9776   4.793  10.110   8.717  1.2013  0.2393  2.0602
   71MOL0     H 9777   4.730   9.953   8.785 -2.3492 -1.3619 -2.4743
   71MOL0     H 9778   5.733   9.704   8.603  5.4938  0.6284  1.0113
   71MOL0     H 9779   5.976   9.610   8.606  2.2222 -2.5633 -0.2009
   71MOL0     H 9780   6.365   9.354   8.394 -2.3130  1.4376 -0.3785
   71MOL0     H 9781   6.581   9.271   8.476  0.2770  2.8090 -0.9857
   71MOL0     H 9782   7.166   8.856   9.510  2.6252  1.3846  0.3342
   71MOL0     H 9783   7.395   8.849   9.598  0.9408 -3.5269 -2.0394
   71MOL0     H 9784   7.624   8.826  10.014 -0.6354  2.4260 -1.6724
   71MOL0     H 9785   7.862   8.890  10.083 -0.2163 -0.6486  0.3257
   71MOL0     H 9786   8.178   8.860  10.114 -1.2590 -1.0233  1.8545
   71MOL0     H 9787   8.131   8.699  10.088  0.3203  0.5170  1.7472
   71MOL0     H 9788   8.365   8.835   9.937  3.4593 -1.7518  1.4580
   71MOL0     H 9789   8.281   8.703   9.868  2.3932 -0.3888 -0.0451
   71MOL0     H 9790   8.455   8.723  10.099  3.5706 -1.3488 -0.6495
   71MOL0     H 9791   8.328   8.585  10.079  0.8551 -1.1684 -1.0868
   71MOL0     H 9792   8.414   8.520   9.880 -1.0038  1.6667  0.0457
   71MOL0     H 9793   8.557   8.514   9.979 -0.4936 -0.5777  0.3249
   71MOL0     H 9794   8.682   8.768   9.683 -1.4473  0.9915 -1.0008
   71MOL0     H 9795   8.009   8.684   9.754  0.0429 -0.1199  1.6383
   71MOL0     H 9796   7.758   8.479   9.670  0.6122  0.6365  2.7013
   71MOL0     H 9797   7.690   8.626   9.592 -1.5026  1.1573  2.0530
   71MOL0     H 9798   7.866   8.588   9.585  1.5735  3.4048  1.0931
   72MOL0     O 9799   2.922   3.935   8.684 -0.1710 -0.1352  0.2466
   72MOL0     C 9800   2.807   3.949   8.726 -1.0205 -0.5927  1.0356
   72MOL0     O 9801   2.704   3.902   8.662 -0.3443 -1.2399  0.3938
   72MOL0     C 9802   2.728   3.838   8.545 -1.3752 -0.3905  0.5928
   72MOL0     C 9803   2.662   3.894   8.442 -0.0495 -1.2155 -0.3885
   72MOL0     C 9804   2.687   3.852   8.306  0.8456 -0.0309 -0.4559
   72MOL0     C 9805   2.773   3.757   8.273 -0.1475 -1.3236  0.7294
   72MOL0     O 9806   2.806   3.714   8.151  0.5721  0.2672  0.5908
   72MOL0     C 9807   2.689   3.699   8.060  0.9344 -0.0797  0.2846
   72MOL0     C 9808   2.724   3.612   7.945 -0.2032  0.2441  0.8321
   72MOL0     C 9809   2.825   3.657   7.841 -0.5101 -0.0841  0.3868
   72MOL0     C 9810   2.768   3.776   7.773 -0.2739  0.2066 -0.1979
   72MOL0     C 9811   2.875   3.821   7.667  0.0783  1.0736  0.7204
   72MOL0     C 9812   2.818   3.918   7.561 -0.3933  0.1544 -1.4318
   72MOL0     C 9813   2.941   3.963   7.481  0.1771 -0.3872  0.3681
   72MOL0     C 9814   2.907   4.075   7.373  1.1019  0.8328  0.1023
   72MOL0     N 9815   2.825   4.015   7.257 -0.1601 -0.2953  0.1457
   72MOL0     C 9816   2.871   3.928   7.151 -0.8747 -0.1629  0.1184
   72MOL0     C 9817   2.759   3.902   7.077 -1.5400  0.1690  1.8058
   72MOL0     C 9818   2.745   3.819   6.949  0.0670  0.0038 -0.7592
   72MOL0     C 9819   2.731   3.668   6.968  0.0021  0.0353  0.0179
   72MOL0     C 9820   2.607   3.621   7.053 -0.5832  0.4220 -0.2441
   72MOL0     C 9821   2.627   3.488   7.109  0.1595  0.5128 -0.2362
   72MOL0     O 9822   2.639   3.394   7.003 -0.4778 -0.2706  0.1652
   72MOL0     C 9823   2.705   3.274   7.023  0.0550  1.1927  0.1392
   72MOL0     C 9824   2.709   3.207   7.151 -0.8113  0.3147 -0.1649
   72MOL0     C 9825   2.767   3.079   7.157  0.3870 -0.0686  0.4387
   72MOL0     C 9826   2.783   3.029   7.296 -0.7711  0.0149 -1.2688
   72MOL0     C 9827   2.822   3.018   7.043 -0.2435 -0.4461 -0.0200
   72MOL0     C 9828   2.895   2.887   7.049 -0.6223  0.8394 -0.1842
   72MOL0     O 9829   2.902   2.823   6.927  0.5202 -0.4403 -0.0410
   72MOL0     C 9830   2.937   2.685   6.917  0.0898 -0.0603  0.0352
   72MOL0     C 9831   2.898   2.592   7.015 -0.2458  0.0922  0.2525
   72MOL0     C 9832   2.926   2.452   6.995 -0.3664 -0.0502 -0.9818
   72MOL0     C 9833   2.994   2.415   6.880  0.4174 -0.3240 -0.0327
   72MOL0     O 9834   3.044   2.294   6.844 -0.2316 -0.2277  0.0304
   72MOL0     C 9835   3.070   2.199   6.946  0.1441  0.4931  0.7449
   72MOL0     C 9836   3.152   2.075   6.889 -0.3820 -0.2618 -0.2819
   72MOL0     C 9837   3.065   1.968   6.813 -0.4239  0.5773 -1.5646
   72MOL0     C 9838   3.136   1.828   6.826  0.5711 -0.0078  0.5046
   72MOL0     C 9839   3.042   1.714   6.783  0.3873  0.3308 -0.2836
   72MOL0     C 9840   2.984   1.718   6.638 -0.4429 -0.1648  0.2154
   72MOL0     C 9841   2.888   1.589   6.628  0.2661  0.5627  0.3193
   72MOL0     C 9842   2.820   1.558   6.497 -0.6156 -0.3599 -0.1356
   72MOL0    Cl 9843   2.808   1.701   6.398  0.0126  0.5287  0.1945
   72MOL0     C 9844   3.026   2.504   6.783 -0.8287  0.2487  0.0391
   72MOL0     C 9845   3.005   2.641   6.801  0.2664  0.3819 -0.2575
   72MOL0     O 9846   2.943   2.842   7.156 -0.4661  0.3471 -0.2338
   72MOL0     C 9847   2.801   3.073   6.916 -0.4318 -0.4858  0.1068
   72MOL0     C 9848   2.746   3.205   6.910  0.5229  0.0473  0.4016
   72MOL0     N 9849   2.659   3.983   7.117  0.4255 -0.4930  0.3332
   72MOL0     N 9850   2.702   4.051   7.222  0.0221  0.2940  0.6683
   72MOL0     C 9851   2.836   3.691   8.383  0.1525  0.8042  0.2522
   72MOL0     C 9852   2.815   3.733   8.518 -0.7022 -0.6842 -0.6543
   72MOL0     C 9853   2.778   4.029   8.853 -0.3418 -0.0160 -0.5354
   72MOL0     C 9854   2.652   4.089   8.862  0.0658 -0.2434 -0.8221
   72MOL0     C 9855   2.613   4.179   8.953 -0.3412 -1.0422 -0.6844
   72MOL0     C 9856   2.700   4.223   9.062 -0.1731  0.9610  0.0405
   72MOL0     O 9857   2.668   4.306   9.167  0.0031 -0.4785  0.2675
   72MOL0     C 9858   2.627   4.444   9.147 -0.4025 -0.0666  0.6214
   72MOL0     C 9859   2.483   4.469   9.086  0.8858 -0.0652  0.6358
   72MOL0     C 9860   2.363   4.404   9.168  0.1687 -0.8808  0.1656
   72MOL0     C 9861   2.229   4.463   9.122 -0.7859  0.7752  0.5817
   72MOL0     C 9862   2.120   4.360   9.111  0.3520 -0.1703 -0.0229
   72MOL0     C 9863   2.020   4.299   9.112  1.1320  0.7256 -1.1826
   72MOL0     C 9864   2.832   4.169   9.049 -0.5116  0.8177 -0.1509
   72MOL0     C 9865   2.868   4.068   8.958  0.4930 -0.2786  0.8335
   72MOL0     C 9866   3.008   4.003   8.973 -0.6648  0.3764  0.3987
   72MOL0     H 9867   2.592   3.969   8.477 -0.2041 -1.9152  0.8716
   72MOL0     H 9868   2.629   3.898   8.226  1.6780 -0.5170 -1.3544
   72MOL0     H 9869   2.672   3.800   8.023 -0.3583 -0.2686  0.3112
   72MOL0     H 9870   2.607   3.651   8.115  0.6592  0.4267  0.3215
   72MOL0     H 9871   2.757   3.516   7.986 -0.0834  0.6509  1.7266
   72MOL0     H 9872   2.634   3.588   7.888  2.0209  0.5127 -3.1265
   72MOL0     H 9873   2.923   3.680   7.885 -0.3205  0.6710 -0.4182
   72MOL0     H 9874   2.846   3.586   7.760 -0.4662  0.3179  0.0470
   72MOL0     H 9875   2.674   3.745   7.725 -0.0518  1.6997 -1.6962
   72MOL0     H 9876   2.747   3.860   7.838  0.2028 -0.9415  1.5115
   72MOL0     H 9877   2.901   3.733   7.607 -2.7671  1.1850 -0.8849
   72MOL0     H 9878   2.960   3.862   7.722  0.8371 -1.1790  1.3417
   72MOL0     H 9879   2.738   3.866   7.508  1.2264 -1.1343 -2.6835
   72MOL0     H 9880   2.775   4.005   7.612  1.7515  0.4520 -0.0369
   72MOL0     H 9881   2.994   3.881   7.431 -1.4328 -0.4615 -1.3424
   72MOL0     H 9882   3.008   4.016   7.549 -0.6908  3.1389 -1.2635
   72MOL0     H 9883   2.849   4.155   7.420  0.0845 -0.8089  1.7918
   72MOL0     H 9884   2.994   4.122   7.327 -1.3769  3.8926 -1.9658
   72MOL0     H 9885   2.972   3.893   7.137 -0.5032 -0.0231  2.1020
   72MOL0     H 9886   2.828   3.839   6.880  0.6954  2.2203  0.5332
   72MOL0     H 9887   2.660   3.855   6.890  0.3115 -0.9143 -1.7022
   72MOL0     H 9888   2.732   3.609   6.875  0.6803 -1.5100  0.9740
   72MOL0     H 9889   2.819   3.643   7.027 -1.6191 -0.0260  2.5214
   72MOL0     H 9890   2.595   3.694   7.134 -0.1930 -0.4649  0.6271
   72MOL0     H 9891   2.515   3.616   6.994 -0.0444  0.3519 -1.0972
   72MOL0     H 9892   2.703   3.479   7.187 -0.4068 -0.9756  0.1853
   72MOL0     H 9893   2.529   3.461   7.149  0.5977  1.2683  1.4098
   72MOL0     H 9894   2.686   3.257   7.245  2.5801  0.7808  0.5356
   72MOL0     H 9895   2.880   3.071   7.325 -1.3590 -1.6997  4.6001
   72MOL0     H 9896   2.788   2.920   7.308  0.2705  0.1302 -0.4652
   72MOL0     H 9897   2.700   3.060   7.361 -0.7375 -1.3400 -0.5293
   72MOL0     H 9898   2.852   2.621   7.109  0.1455 -0.3766  0.5971
   72MOL0     H 9899   2.901   2.381   7.074  0.2448  0.9057  0.1016
   72MOL0     H 9900   3.143   2.258   7.004  1.5969  1.0644 -1.5460
   72MOL0     H 9901   2.986   2.156   7.001 -0.6786  1.1844  0.0553
   72MOL0     H 9902   3.235   2.112   6.829 -0.9892  1.8160  0.0995
   72MOL0     H 9903   3.184   2.021   6.979 -0.9385  0.9568  0.6714
   72MOL0     H 9904   3.040   1.996   6.710  2.2951  1.7194 -2.0038
   72MOL0     H 9905   2.978   1.962   6.879  2.4847 -0.7750  2.6109
   72MOL0     H 9906   3.175   1.799   6.924  3.1879 -0.5186 -0.6058
   72MOL0     H 9907   3.228   1.820   6.768  0.8943  2.5874  0.5585
   72MOL0     H 9908   3.112   1.631   6.799  1.3833 -0.0166 -4.9988
   72MOL0     H 9909   2.955   1.714   6.849 -2.2692 -0.8840 -3.5491
   72MOL0     H 9910   3.071   1.712   6.571 -0.1679 -0.6179  0.6050
   72MOL0     H 9911   2.932   1.811   6.612 -0.6349  0.3949  2.4299
   72MOL0     H 9912   2.809   1.612   6.700  0.5767 -0.6539  1.0899
   72MOL0     H 9913   2.946   1.500   6.656 -0.2895  0.4303  1.0751
   72MOL0     H 9914   2.716   1.535   6.521 -1.4814  2.0062 -1.3379
   72MOL0     H 9915   2.862   1.472   6.443 -0.9495  0.0848 -1.1197
   72MOL0     H 9916   3.070   2.459   6.694  0.1185  2.0919 -0.4748
   72MOL0     H 9917   3.039   2.711   6.725  2.9959 -1.5699 -0.9709
   72MOL0     H 9918   2.829   3.021   6.825 -3.2759  0.0799 -1.2150
   72MOL0     H 9919   2.721   3.261   6.820  1.6427  0.9242  0.6120
   72MOL0     H 9920   2.886   3.595   8.374 -2.1541 -0.6651  1.9161
   72MOL0     H 9921   2.868   3.694   8.603 -1.0346 -0.7236 -0.4645
   72MOL0     H 9922   2.582   4.071   8.782  0.3797 -0.7129 -0.9992
   72MOL0     H 9923   2.512   4.218   8.961  0.3235  0.8063 -0.6963
   72MOL0     H 9924   2.638   4.499   9.240 -0.5608 -1.1967  1.3218
   72MOL0     H 9925   2.704   4.495   9.088  1.1141 -1.8255  1.0231
   72MOL0     H 9926   2.484   4.436   8.982 -1.2623  1.4310  0.0674
   72MOL0     H 9927   2.457   4.575   9.085 -1.5360 -0.5404 -2.5718
   72MOL0     H 9928   2.353   4.297   9.148 -1.4904 -0.6553 -0.3177
   72MOL0     H 9929   2.375   4.418   9.276 -0.0339  2.3996 -0.1168
   72MOL0     H 9930   2.259   4.505   9.025  0.7322  1.5590  1.3486
   72MOL0     H 9931   2.203   4.547   9.188 -1.4623  0.4919  0.6799
   72MOL0     H 9932   1.926   4.248   9.113 -0.3268  3.2289 -1.7921
   72MOL0     H 9933   2.915   4.207   9.107  1.4128  1.5044 -3.1027
   72MOL0     H 9934   3.065   4.043   8.889 -2.5825 -2.4802 -2.4975
   72MOL0     H 9935   3.064   4.033   9.062  0.3441  2.0778 -0.7353
   72MOL0     H 9936   3.005   3.894   8.969  0.4268  0.2407  2.1073
   73MOL0     O 9937   1.963   8.926   1.334  0.7991  0.9705  0.3708
   73MOL0     C 9938   1.959   9.042   1.300  0.0193 -0.3886 -0.5707
   73MOL0     O 9939   1.928   9.153   1.381  0.1131 -0.1621 -0.1701
   73MOL0     C 9940   1.924   9.134   1.515  0.0757  0.0600 -0.4892
   73MOL0     C 9941   2.030   9.171   1.597  0.1122 -0.0128 -0.2525
   73MOL0     C 9942   2.011   9.158   1.741 -0.8216  0.8524  0.7075
   73MOL0     C 9943   1.891   9.092   1.788  0.4410 -0.5386 -0.4356
   73MOL0     O 9944   1.876   9.074   1.927  0.5190 -0.2067  0.4939
   73MOL0     C 9945   1.876   9.187   2.017  0.0842  0.4925  0.4569
   73MOL0     C 9946   1.822   9.165   2.156  0.2142  0.3242  0.5875
   73MOL0     C 9947   1.862   9.031   2.223  0.3485 -0.3077  0.2392
   73MOL0     C 9948   1.842   9.027   2.371 -0.7053  0.6169  0.0930
   73MOL0     C 9949   1.863   8.877   2.413  1.0945  0.3648 -0.1579
   73MOL0     C 9950   1.750   8.767   2.385  0.1042 -0.3438  0.1279
   73MOL0     C 9951   1.797   8.633   2.445 -0.5807  0.3949 -0.7302
   73MOL0     C 9952   1.704   8.598   2.564 -0.2644  0.5415  0.2955
   73MOL0     N 9953   1.764   8.480   2.634  0.9121 -0.5533  0.1252
   73MOL0     C 9954   1.737   8.345   2.615  0.1849 -0.2394  0.0972
   73MOL0     C 9955   1.832   8.273   2.681  0.8520 -0.0383 -0.0453
   73MOL0     C 9956   1.818   8.122   2.700  0.1831  0.0236  0.6111
   73MOL0     C 9957   1.949   8.062   2.753 -0.4954  0.2698  0.2611
   73MOL0     C 9958   1.974   7.912   2.730 -0.2565 -0.0947 -0.6116
   73MOL0     C 9959   1.875   7.827   2.826 -0.8308 -0.4603  0.5234
   73MOL0     O 9960   1.744   7.816   2.778 -0.0449  0.0299 -0.2511
   73MOL0     C 9961   1.716   7.714   2.699 -0.1444 -0.4219  0.6690
   73MOL0     C 9962   1.607   7.740   2.610 -0.4637 -0.2239  0.1058
   73MOL0     C 9963   1.569   7.648   2.508 -0.9168 -0.2064 -0.3017
   73MOL0     C 9964   1.473   7.691   2.401  0.0027 -0.0533  0.0445
   73MOL0     C 9965   1.630   7.518   2.504  0.0318 -0.0572 -0.3738
   73MOL0     C 9966   1.587   7.404   2.425  0.4798 -0.6787 -0.1431
   73MOL0     O 9967   1.671   7.293   2.417  0.7025  0.3009  0.0214
   73MOL0     C 9968   1.618   7.188   2.343 -1.6148 -0.8485 -0.4518
   73MOL0     C 9969   1.613   7.192   2.203  0.5815  0.2690 -0.3599
   73MOL0     C 9970   1.556   7.085   2.142 -0.3155 -0.9639  0.5194
   73MOL0     C 9971   1.513   6.966   2.201  1.6998  0.7929  0.9196
   73MOL0     O 9972   1.440   6.853   2.145 -0.5045 -0.4611  0.2094
   73MOL0     C 9973   1.400   6.870   2.013  0.6085 -0.3716  1.5149
   73MOL0     C 9974   1.349   6.735   1.958 -0.3049 -1.1811  0.2565
   73MOL0     C 9975   1.300   6.736   1.810  0.0957  1.3417 -0.0462
   73MOL0     C 9976   1.192   6.851   1.794 -0.0742  0.1097  0.5830
   73MOL0     C 9977   1.114   6.840   1.660 -0.1535  0.0254 -0.0634
   73MOL0     C 9978   0.980   6.896   1.680 -0.0681  1.1376  0.5527
   73MOL0     C 9979   0.883   6.886   1.559 -0.1064  0.0318 -0.3296
   73MOL0     C 9980   0.784   7.004   1.545  0.2184  0.2807 -0.0279
   73MOL0    Cl 9981   0.713   7.027   1.387 -0.1065  0.4802  0.1922
   73MOL0     C 9982   1.525   6.955   2.348 -0.1442  0.2062 -0.8251
   73MOL0     C 9983   1.575   7.072   2.417  0.5018 -0.1503  0.4626
   73MOL0     O 9984   1.467   7.401   2.391 -0.1549 -0.3659  0.2713
   73MOL0     C 9985   1.734   7.501   2.591  0.0589  0.1858  0.6373
   73MOL0     C 9986   1.779   7.594   2.683 -0.1916 -0.8746 -0.1467
   73MOL0     N 9987   1.916   8.368   2.725 -0.3109  0.7450 -0.8680
   73MOL0     N 9988   1.884   8.491   2.689  0.3703  0.3368  0.7677
   73MOL0     C 9989   1.793   9.055   1.706 -0.5111 -0.1514 -0.6738
   73MOL0     C 9990   1.807   9.072   1.572 -0.3593 -0.0328  1.3538
   73MOL0     C 9991   2.004   9.053   1.157  0.8294  0.7949  1.0601
   73MOL0     C 9992   1.975   8.948   1.064  0.0839  0.4720  0.2217
   73MOL0     C 9993   2.006   8.952   0.924  0.4728 -0.0154  0.3993
   73MOL0     C 9994   2.089   9.053   0.883  0.6351  0.2578 -0.1170
   73MOL0     O 9995   2.121   9.058   0.752  1.1993 -0.6278  0.0824
   73MOL0     C 9996   2.246   9.000   0.723 -0.2362  0.6244 -0.2703
   73MOL0     C 9997   2.304   9.087   0.612  1.4832  1.0041  0.7532
   73MOL0     C 9998   2.367   9.213   0.653  0.1277  0.6352 -0.1539
   73MOL0     C 9999   2.451   9.257   0.538 -0.5378 -0.3263  0.2440
   73MOL0     C10000   2.400   9.361   0.448  0.0377 -1.0109 -0.2330
   73MOL0     C10001   2.373   9.450   0.365  0.2098  0.6030 -0.6128
   73MOL0     C10002   2.127   9.151   0.975 -0.3678 -0.1865 -0.0456
   73MOL0     C10003   2.079   9.162   1.105 -0.1011 -0.6815 -0.3481
   73MOL0     C10004   2.116   9.287   1.187  0.3336  0.1285  0.1167
   73MOL0     H10005   2.122   9.220   1.565  0.8974  0.8205  2.8652
   73MOL0     H10006   2.091   9.184   1.810  0.2331 -1.9941  0.6880
   73MOL0     H10007   1.817   9.265   1.968 -0.1572 -0.0169 -0.0664
   73MOL0     H10008   1.981   9.210   2.040  1.5988 -3.5716 -1.4139
   73MOL0     H10009   1.837   9.255   2.217 -2.7816  1.6213 -0.3854
   73MOL0     H10010   1.714   9.179   2.151 -0.4202 -3.7013  0.0079
   73MOL0     H10011   1.800   8.954   2.179 -0.2037 -1.5318  2.9479
   73MOL0     H10012   1.969   9.015   2.205  0.9429  1.1571  2.0896
   73MOL0     H10013   1.902   9.093   2.434 -0.5080 -0.4315  1.0338
   73MOL0     H10014   1.740   9.055   2.400 -0.5483  1.4826 -0.1595
   73MOL0     H10015   1.883   8.868   2.520  1.0071  1.7288 -0.0006
   73MOL0     H10016   1.956   8.839   2.369  0.1655  0.8512 -2.7219
   73MOL0     H10017   1.662   8.806   2.437 -0.5361  0.2563 -1.3675
   73MOL0     H10018   1.732   8.760   2.278 -2.1669  0.1350  0.4205
   73MOL0     H10019   1.903   8.639   2.471 -0.5786  0.8165 -0.8325
   73MOL0     H10020   1.786   8.556   2.368  2.3976  1.4148 -2.3501
   73MOL0     H10021   1.688   8.681   2.634  0.4838 -1.9182  3.6034
   73MOL0     H10022   1.601   8.575   2.537 -0.3541 -1.1954  1.9613
   73MOL0     H10023   1.656   8.299   2.559  0.8559 -0.2357 -0.9193
   73MOL0     H10024   1.793   8.079   2.602 -0.3752 -2.4408  1.7737
   73MOL0     H10025   1.735   8.107   2.769 -1.2544  2.5325 -0.4280
   73MOL0     H10026   2.027   8.121   2.703 -2.0106  1.5209 -0.7493
   73MOL0     H10027   1.948   8.093   2.858  1.6884  0.2873  0.3229
   73MOL0     H10028   1.960   7.883   2.626 -0.3848 -3.3466  0.2127
   73MOL0     H10029   2.082   7.906   2.746 -0.2321  0.3191 -0.6073
   73MOL0     H10030   1.925   7.730   2.831 -1.8253 -1.1982 -2.0500
   73MOL0     H10031   1.880   7.866   2.928  3.8819  1.7396 -0.2927
   73MOL0     H10032   1.543   7.827   2.614 -3.3701 -2.2754  1.4559
   73MOL0     H10033   1.503   7.663   2.300 -0.4935  2.2497 -0.8068
   73MOL0     H10034   1.462   7.800   2.398 -1.5137 -0.1929 -0.7897
   73MOL0     H10035   1.376   7.642   2.415 -0.0017 -1.8398 -4.5465
   73MOL0     H10036   1.639   7.285   2.151 -1.0688  1.1786  0.3743
   73MOL0     H10037   1.553   7.105   2.036  0.9127 -4.4988 -0.3327
   73MOL0     H10038   1.332   6.955   2.023 -2.0090 -1.9939 -1.0502
   73MOL0     H10039   1.475   6.907   1.943 -0.6188  0.0990  0.4092
   73MOL0     H10040   1.435   6.667   1.958  0.0905 -0.7095 -0.6444
   73MOL0     H10041   1.273   6.699   2.028 -1.9865  0.7015 -0.5088
   73MOL0     H10042   1.259   6.637   1.788  0.8163  1.0094  0.0933
   73MOL0     H10043   1.383   6.757   1.743  1.6223  3.2711  2.2569
   73MOL0     H10044   1.237   6.950   1.811 -0.1936 -0.1672  2.9239
   73MOL0     H10045   1.120   6.832   1.874 -0.1892 -2.3547 -0.0302
   73MOL0     H10046   1.170   6.893   1.583 -0.3295 -0.1555 -0.3195
   73MOL0     H10047   1.088   6.740   1.623  1.7396 -0.3775 -0.4039
   73MOL0     H10048   0.992   7.002   1.705  1.3369  0.8853  1.0450
   73MOL0     H10049   0.925   6.841   1.757  1.3039  0.4743  1.0890
   73MOL0     H10050   0.829   6.791   1.565  0.5198 -0.8026 -4.4332
   73MOL0     H10051   0.957   6.868   1.480  1.1864 -2.6403  1.3276
   73MOL0     H10052   0.840   7.092   1.579  0.7587 -0.6810  1.6701
   73MOL0     H10053   0.709   6.985   1.621  1.5137  4.2244  2.5887
   73MOL0     H10054   1.492   6.866   2.402  3.8080 -0.9051  0.0618
   73MOL0     H10055   1.578   7.084   2.524  0.8829  1.9748  0.2600
   73MOL0     H10056   1.793   7.410   2.589  1.0873  0.8075  1.5192
   73MOL0     H10057   1.865   7.563   2.743  0.4477 -1.8948 -1.5151
   73MOL0     H10058   1.696   9.012   1.729  1.0574 -3.2917  0.6517
   73MOL0     H10059   1.726   9.036   1.508 -1.3522  3.1263  0.6689
   73MOL0     H10060   1.929   8.857   1.103  2.1954 -0.4290  0.7761
   73MOL0     H10061   1.978   8.864   0.867 -0.3942 -0.0245  0.8184
   73MOL0     H10062   2.312   9.003   0.811  1.9796 -0.3969 -1.8042
   73MOL0     H10063   2.233   8.896   0.694  0.9316 -0.1927  1.8852
   73MOL0     H10064   2.225   9.124   0.545 -0.0561 -2.0236  0.7139
   73MOL0     H10065   2.369   9.016   0.560 -0.5111 -1.1365  1.0313
   73MOL0     H10066   2.288   9.283   0.684 -0.5724 -0.4598  0.5971
   73MOL0     H10067   2.433   9.199   0.738  0.8345 -0.1996 -0.8230
   73MOL0     H10068   2.475   9.171   0.475 -1.3055 -1.6415  1.6815
   73MOL0     H10069   2.548   9.295   0.574  0.8335  1.4754 -4.4850
   73MOL0     H10070   2.370   9.510   0.276 -0.4962 -1.6892 -2.2343
   73MOL0     H10071   2.188   9.232   0.935  2.2967 -2.1785 -0.2215
   73MOL0     H10072   2.216   9.314   1.153  1.4897 -4.5874 -0.9362
   73MOL0     H10073   2.041   9.363   1.163  0.6337  0.8484  1.3764
   73MOL0     H10074   2.100   9.273   1.294 -1.7223  2.6695  0.2406
   74MOL0     O10075   8.819   3.097   8.134 -0.5721  0.6464 -1.0420
   74MOL0     C10076   8.857   2.989   8.187 -0.4727 -0.5454 -0.0356
   74MOL0     O10077   8.892   2.880   8.126 -0.4577  0.4374 -0.6151
   74MOL0     C10078   8.933   2.881   7.996  0.9107 -0.3984 -0.3291
   74MOL0     C10079   8.921   2.759   7.939 -0.0395 -0.1317  0.0990
   74MOL0     C10080   8.951   2.753   7.800  0.1365 -0.6595  1.0177
   74MOL0     C10081   9.001   2.855   7.730  0.0205 -0.3053 -0.1143
   74MOL0     O10082   9.030   2.848   7.597 -0.1231  0.6261  0.2910
   74MOL0     C10083   8.980   2.751   7.508  0.6117  0.3394  0.2455
   74MOL0     C10084   8.830   2.755   7.490  0.0678  0.0518 -0.0430
   74MOL0     C10085   8.786   2.664   7.372 -0.3734 -0.5452 -0.7118
   74MOL0     C10086   8.818   2.512   7.393 -0.6040 -0.3885  0.1409
   74MOL0     C10087   8.775   2.409   7.292  0.0098  0.5785 -0.6207
   74MOL0     C10088   8.789   2.443   7.138  0.0168  0.0039  0.3304
   74MOL0     C10089   8.739   2.326   7.047  0.0744  0.6712  0.0457
   74MOL0     C10090   8.590   2.283   7.054 -0.3655  0.0017  1.0800
   74MOL0     N10091   8.562   2.187   6.947  0.0727 -0.3064 -0.4023
   74MOL0     C10092   8.535   2.243   6.817  0.8808  1.2047 -0.0726
   74MOL0     C10093   8.494   2.141   6.739  0.7259 -0.2246  0.1469
   74MOL0     C10094   8.446   2.170   6.594 -0.4522 -0.3108 -0.8723
   74MOL0     C10095   8.353   2.057   6.552 -0.3747  0.2184 -0.3806
   74MOL0     C10096   8.436   1.945   6.485  0.1848  0.1145  0.0530
   74MOL0     C10097   8.358   1.828   6.422  0.0839 -0.1019  0.6702
   74MOL0     O10098   8.297   1.746   6.520  0.7077  0.0620 -0.7810
   74MOL0     C10099   8.319   1.608   6.518 -0.3855  0.0700 -0.1832
   74MOL0     C10100   8.445   1.540   6.514 -0.4003  0.4692  0.4998
   74MOL0     C10101   8.453   1.403   6.539  0.1089  0.3382  0.0111
   74MOL0     C10102   8.594   1.355   6.539  0.0924  0.3565 -0.2064
   74MOL0     C10103   8.332   1.325   6.551  0.1277 -0.0452  0.9073
   74MOL0     C10104   8.326   1.182   6.584  0.2537  0.1059 -1.2189
   74MOL0     O10105   8.209   1.120   6.551 -0.1736  0.0492  0.2005
   74MOL0     C10106   8.192   0.997   6.618 -0.5166 -0.0274  0.0563
   74MOL0     C10107   8.202   0.885   6.533  0.5245 -0.2383  0.0020
   74MOL0     C10108   8.168   0.761   6.588  0.8312 -0.5535  0.2098
   74MOL0     C10109   8.150   0.752   6.734 -0.7195  0.0727 -0.2173
   74MOL0     O10110   8.132   0.634   6.788 -0.2278  0.4077 -0.5342
   74MOL0     C10111   8.006   0.583   6.805  0.5665 -0.4080  0.0129
   74MOL0     C10112   7.904   0.680   6.884  0.1504 -0.3454 -0.4810
   74MOL0     C10113   7.762   0.628   6.886 -0.3481 -0.7301 -0.3443
   74MOL0     C10114   7.662   0.749   6.883  0.2778 -0.0962  0.2252
   74MOL0     C10115   7.515   0.720   6.877  0.5172 -0.1843 -0.0926
   74MOL0     C10116   7.483   0.612   6.782  0.1598 -0.3692 -0.0207
   74MOL0     C10117   7.326   0.616   6.756 -0.2346 -1.6787 -0.1510
   74MOL0     C10118   7.224   0.589   6.875 -1.1013 -0.0730 -0.4139
   74MOL0    Cl10119   7.202   0.745   6.967 -0.1804 -0.0989  0.5966
   74MOL0     C10120   8.153   0.864   6.814  0.2757  0.8587 -0.2059
   74MOL0     C10121   8.168   0.987   6.751 -0.6673  1.0787 -0.7883
   74MOL0     O10122   8.427   1.129   6.628 -0.0811  0.0527 -0.2453
   74MOL0     C10123   8.204   1.396   6.547 -0.1313  0.7204 -0.6651
   74MOL0     C10124   8.204   1.533   6.537 -0.6463 -0.5140 -0.3271
   74MOL0     N10125   8.491   2.035   6.817 -0.4738  1.1643 -0.5050
   74MOL0     N10126   8.527   2.056   6.938  0.4508  0.1169  1.0167
   74MOL0     C10127   9.026   2.970   7.795  0.1932  0.2845 -0.3411
   74MOL0     C10128   8.998   2.988   7.927 -0.2962 -0.3937 -0.2672
   74MOL0     C10129   8.833   2.969   8.337 -1.2428 -0.2700  1.7390
   74MOL0     C10130   8.901   2.856   8.394 -0.1777 -0.0260  0.5694
   74MOL0     C10131   8.917   2.836   8.531  0.5485 -0.5861 -0.8005
   74MOL0     C10132   8.865   2.929   8.622  0.0560  0.2928 -0.1644
   74MOL0     O10133   8.874   2.898   8.758  0.2714  1.2145  0.1608
   74MOL0     C10134   8.998   2.883   8.827 -0.5642 -0.8343  0.1750
   74MOL0     C10135   9.090   3.003   8.798 -0.0030  0.6503  0.1501
   74MOL0     C10136   9.196   3.020   8.904 -0.6876 -0.1783  0.0902
   74MOL0     C10137   9.289   2.902   8.922 -0.2003  0.7666 -0.3897
   74MOL0     C10138   9.236   2.770   8.956 -0.5074  0.4908 -0.4659
   74MOL0     C10139   9.196   2.652   8.955 -0.1899  0.9861  0.5368
   74MOL0     C10140   8.798   3.044   8.569 -0.0631  0.2139 -0.2551
   74MOL0     C10141   8.780   3.060   8.429 -0.2381 -0.0268 -0.0971
   74MOL0     C10142   8.706   3.186   8.386 -0.2392  0.0742  0.1601
   74MOL0     H10143   8.890   2.677   8.002 -0.9372 -0.1683 -0.3637
   74MOL0     H10144   8.928   2.657   7.754 -2.0053  0.0351  0.4875
   74MOL0     H10145   9.009   2.651   7.544 -2.8143  0.1745  3.1052
   74MOL0     H10146   9.023   2.791   7.416 -0.3099 -0.3223 -0.4949
   74MOL0     H10147   8.783   2.725   7.584 -0.0021 -1.8575 -0.6469
   74MOL0     H10148   8.799   2.857   7.466  0.8923  0.4986  0.7640
   74MOL0     H10149   8.678   2.671   7.357 -0.7077 -0.7856  1.3232
   74MOL0     H10150   8.851   2.698   7.291  3.0635 -0.3377  1.8662
   74MOL0     H10151   8.925   2.493   7.379 -1.0651 -3.7616  0.4150
   74MOL0     H10152   8.790   2.474   7.491 -2.1808 -0.7675 -0.4244
   74MOL0     H10153   8.670   2.405   7.321 -0.0462 -0.1670 -0.9171
   74MOL0     H10154   8.810   2.306   7.304 -2.4112 -0.3752 -1.1184
   74MOL0     H10155   8.717   2.524   7.120 -1.7879 -1.6020 -0.0114
   74MOL0     H10156   8.891   2.468   7.110 -0.5977  0.0938 -2.0372
   74MOL0     H10157   8.795   2.233   7.063 -1.7010 -0.7670 -1.4840
   74MOL0     H10158   8.760   2.370   6.949 -0.2372  2.1136  0.6033
   74MOL0     H10159   8.561   2.235   7.148 -1.0020  0.6853  1.2469
   74MOL0     H10160   8.525   2.369   7.036  3.7765  2.6506 -3.7545
   74MOL0     H10161   8.531   2.349   6.791 -2.0076  1.2048  0.0361
   74MOL0     H10162   8.529   2.184   6.524  1.2631 -1.1986  0.8928
   74MOL0     H10163   8.378   2.255   6.591 -0.1215 -0.0600 -1.3505
   74MOL0     H10164   8.295   2.024   6.639  0.6679  2.0832  1.0837
   74MOL0     H10165   8.281   2.088   6.475  2.1483  1.6583 -2.2967
   74MOL0     H10166   8.471   2.005   6.401 -1.4622  2.6684  1.0547
   74MOL0     H10167   8.519   1.906   6.545 -0.4446 -2.0085 -0.3687
   74MOL0     H10168   8.283   1.862   6.350 -0.8205 -0.2778  1.5038
   74MOL0     H10169   8.418   1.762   6.358 -3.4085 -0.1984 -2.8287
   74MOL0     H10170   8.527   1.611   6.508 -0.1358  0.3136  1.8762
   74MOL0     H10171   8.655   1.415   6.471 -1.3010  1.0433 -0.8811
   74MOL0     H10172   8.598   1.250   6.512 -1.6007 -0.1647  1.3351
   74MOL0     H10173   8.628   1.368   6.643  2.1495  1.8244 -0.9857
   74MOL0     H10174   8.223   0.892   6.427  1.4860 -1.7079  0.0608
   74MOL0     H10175   8.156   0.675   6.523 -1.5627 -0.0992 -0.0514
   74MOL0     H10176   7.960   0.557   6.710 -1.5757 -3.0036  1.6208
   74MOL0     H10177   8.004   0.498   6.874 -0.8340  0.1041  0.6406
   74MOL0     H10178   7.953   0.674   6.982  1.5583 -1.1229 -1.1990
   74MOL0     H10179   7.912   0.784   6.850  2.3157 -0.5113 -0.5917
   74MOL0     H10180   7.756   0.575   6.981  1.7296 -2.7304 -1.2437
   74MOL0     H10181   7.727   0.562   6.806 -1.7949 -1.8368  1.1264
   74MOL0     H10182   7.682   0.816   6.799 -1.4549 -1.6920 -1.5680
   74MOL0     H10183   7.686   0.797   6.978  0.7008 -0.4813  0.3184
   74MOL0     H10184   7.479   0.670   6.967 -1.1757  0.4187 -0.3948
   74MOL0     H10185   7.471   0.819   6.862 -1.2014 -1.1373 -1.7030
   74MOL0     H10186   7.511   0.513   6.819 -0.4763 -1.7061 -2.8395
   74MOL0     H10187   7.526   0.620   6.681 -0.3568 -2.7155 -0.4988
   74MOL0     H10188   7.310   0.541   6.678 -2.6936 -1.2497 -0.1537
   74MOL0     H10189   7.295   0.712   6.713  1.9638  0.4727  2.6790
   74MOL0     H10190   7.258   0.516   6.950 -0.6723 -0.3598 -0.8822
   74MOL0     H10191   7.128   0.554   6.838 -0.2498 -1.6767 -1.2125
   74MOL0     H10192   8.140   0.854   6.921  1.1615 -0.8835 -0.2362
   74MOL0     H10193   8.177   1.076   6.812 -2.7355  3.2770 -3.3818
   74MOL0     H10194   8.108   1.347   6.557  0.0764  0.6362  1.3280
   74MOL0     H10195   8.108   1.584   6.530 -1.6169 -2.3076 -0.5264
   74MOL0     H10196   9.076   3.048   7.738  1.4479 -0.9047 -0.9186
   74MOL0     H10197   9.029   3.082   7.971 -0.6055 -0.9874  1.2990
   74MOL0     H10198   8.939   2.778   8.329 -3.2229  0.8167 -2.5197
   74MOL0     H10199   8.967   2.756   8.585  0.1193 -0.1132  0.3446
   74MOL0     H10200   8.985   2.880   8.935  4.1830  0.2184  0.9836
   74MOL0     H10201   9.045   2.791   8.791 -0.2826 -0.6236  0.0024
   74MOL0     H10202   9.022   3.088   8.807  0.8273  1.2561  0.9224
   74MOL0     H10203   9.135   3.003   8.698  1.7634  0.3721  0.9103
   74MOL0     H10204   9.274   3.094   8.884  1.1378 -1.3535  2.4072
   74MOL0     H10205   9.146   3.053   8.996 -0.9928  1.7009 -0.7018
   74MOL0     H10206   9.361   2.929   9.000 -2.0405  1.9927  0.9619
   74MOL0     H10207   9.350   2.890   8.832  1.6713 -3.3651  1.1536
   74MOL0     H10208   9.177   2.550   8.929 -1.6491  0.8101  2.1584
   74MOL0     H10209   8.753   3.113   8.640 -1.8011  1.4673 -2.4497
   74MOL0     H10210   8.644   3.226   8.468 -1.6097 -1.2370 -0.1985
   74MOL0     H10211   8.780   3.258   8.351 -1.2859  1.6316  0.9890
   74MOL0     H10212   8.638   3.167   8.302  0.7543 -1.1603 -0.3947
   75MOL0     O10213   3.279   4.613   1.370 -0.8389  0.5696 -0.1746
   75MOL0     C10214   3.203   4.540   1.430  1.1791  0.3160  0.4558
   75MOL0     O10215   3.092   4.475   1.381  0.3701 -0.7268 -0.0572
   75MOL0     C10216   3.077   4.482   1.250  0.8978  0.4333  0.8350
   75MOL0     C10217   2.958   4.542   1.201 -0.3333 -0.7094  0.2457
   75MOL0     C10218   2.929   4.559   1.061  0.8205  1.9902  0.1437
   75MOL0     C10219   3.020   4.501   0.974 -1.6031 -1.2547 -0.4228
   75MOL0     O10220   3.011   4.522   0.837  0.1765  0.6701  0.0876
   75MOL0     C10221   2.888   4.487   0.774  0.9443  0.3326  0.2466
   75MOL0     C10222   2.828   4.623   0.734  0.8080 -0.0865 -0.2990
   75MOL0     C10223   2.896   4.681   0.614 -0.1736  0.3043  0.2660
   75MOL0     C10224   2.869   4.607   0.482  0.4303 -1.2259  0.1580
   75MOL0     C10225   2.903   4.694   0.366  0.3900  0.5547  1.8118
   75MOL0     C10226   3.054   4.733   0.355  1.0570 -0.9308 -0.0739
   75MOL0     C10227   3.092   4.878   0.402  0.1353  0.0671 -0.1126
   75MOL0     C10228   3.207   4.939   0.319 -0.3556 -0.4151  0.4834
   75MOL0     N10229   3.330   4.866   0.338  0.9192 -0.6520 -0.0076
   75MOL0     C10230   3.384   4.824   0.464 -1.1392 -1.6283  0.9258
   75MOL0     C10231   3.506   4.782   0.434 -0.2015  0.5241  0.5198
   75MOL0     C10232   3.606   4.724   0.522 -0.1553  1.1245 -0.0366
   75MOL0     C10233   3.743   4.796   0.506  0.3892  0.1323 -0.7786
   75MOL0     C10234   3.849   4.709   0.576  0.1204 -0.9754  0.1764
   75MOL0     C10235   3.986   4.760   0.556  0.5291  0.6375  0.3429
   75MOL0     O10236   4.083   4.682   0.635 -0.2307 -0.0936  1.0225
   75MOL0     C10237   4.062   4.649   0.763  0.0033 -0.9436 -0.3889
   75MOL0     C10238   4.057   4.517   0.783  0.8835  0.5543 -0.7067
   75MOL0     C10239   4.049   4.465   0.910 -0.1025 -0.7550 -0.2007
   75MOL0     C10240   4.049   4.311   0.908 -0.4953 -0.3191 -0.1097
   75MOL0     C10241   4.076   4.549   1.025 -0.6864  0.7930  0.1242
   75MOL0     C10242   4.085   4.503   1.167 -0.7775  0.2401 -0.8861
   75MOL0     O10243   4.137   4.593   1.252 -0.1735  0.4286 -0.5294
   75MOL0     C10244   4.126   4.566   1.392  0.5734 -0.6552  0.0486
   75MOL0     C10245   4.192   4.462   1.458  0.7740 -0.1312  0.3546
   75MOL0     C10246   4.185   4.460   1.598  0.2486  0.3450 -0.2100
   75MOL0     C10247   4.117   4.556   1.682 -0.0274  0.9537  0.2998
   75MOL0     O10248   4.108   4.537   1.819 -0.2299 -0.3083 -0.3496
   75MOL0     C10249   4.129   4.658   1.893 -0.4824 -1.3189  0.0197
   75MOL0     C10250   4.080   4.630   2.040 -0.5067 -0.7840  0.7215
   75MOL0     C10251   4.147   4.732   2.143  0.5296 -0.2595  0.1245
   75MOL0     C10252   4.131   4.687   2.285 -0.6806  0.4234  0.3956
   75MOL0     C10253   4.183   4.795   2.377  0.3683 -0.5852  0.0729
   75MOL0     C10254   4.144   4.785   2.528  0.4675  0.6679 -0.2113
   75MOL0     C10255   4.133   4.659   2.609  0.4384  0.4548  0.8103
   75MOL0     C10256   4.155   4.667   2.758 -0.2571 -1.3936 -0.0543
   75MOL0    Cl10257   4.233   4.828   2.818 -0.2329  0.2833  0.2178
   75MOL0     C10258   4.067   4.660   1.600 -0.2405 -0.4374 -0.0221
   75MOL0     C10259   4.066   4.667   1.460 -0.2797 -0.5544  0.8067
   75MOL0     O10260   4.068   4.387   1.196  0.0983  0.1556 -0.1181
   75MOL0     C10261   4.092   4.687   0.998 -0.0964 -0.2991  0.3012
   75MOL0     C10262   4.082   4.736   0.867  0.3567  0.0642  0.0216
   75MOL0     N10263   3.525   4.788   0.297 -0.5898 -0.6168 -0.4664
   75MOL0     N10264   3.420   4.841   0.246 -1.2112  0.8001  0.3391
   75MOL0     C10265   3.139   4.441   1.017 -1.4006 -0.0271  0.4079
   75MOL0     C10266   3.168   4.424   1.153  0.1538 -0.2149 -0.5191
   75MOL0     C10267   3.233   4.508   1.570  0.2683  1.1283 -0.0041
   75MOL0     C10268   3.265   4.614   1.662 -0.0046  0.3971 -1.9683
   75MOL0     C10269   3.284   4.589   1.800 -0.8822  0.6626 -0.1794
   75MOL0     C10270   3.284   4.455   1.847 -0.7839 -0.6124 -0.6207
   75MOL0     O10271   3.283   4.436   1.984 -0.3434  0.7843  0.2701
   75MOL0     C10272   3.288   4.303   2.032 -0.3037  0.0109 -0.5935
   75MOL0     C10273   3.297   4.302   2.185 -0.0634  1.2078 -0.2245
   75MOL0     C10274   3.438   4.349   2.224 -0.9665  0.2582  0.4325
   75MOL0     C10275   3.504   4.260   2.323 -0.1708 -0.2010 -0.2606
   75MOL0     C10276   3.546   4.132   2.269 -0.5398 -0.2230  0.4348
   75MOL0     C10277   3.597   4.029   2.221  0.0452  0.5925  0.2836
   75MOL0     C10278   3.272   4.349   1.759  0.2471 -0.8819  0.4189
   75MOL0     C10279   3.249   4.377   1.617  0.5464 -0.3524  0.4354
   75MOL0     C10280   3.259   4.258   1.516 -0.4469  0.1759 -0.4610
   75MOL0     H10281   2.893   4.577   1.280 -1.7128  1.1849 -1.6216
   75MOL0     H10282   2.834   4.609   1.045 -0.6039 -0.8916 -1.1285
   75MOL0     H10283   2.828   4.424   0.840 -0.6524 -0.9526 -2.2780
   75MOL0     H10284   2.898   4.433   0.680  3.4223  2.5382 -0.8912
   75MOL0     H10285   2.722   4.609   0.715  0.8297  1.4419 -1.7295
   75MOL0     H10286   2.851   4.692   0.816 -0.1068 -0.0240 -0.0916
   75MOL0     H10287   2.856   4.781   0.599 -0.6392  0.2388  1.0025
   75MOL0     H10288   3.005   4.683   0.629  0.0093 -0.3462 -0.8862
   75MOL0     H10289   2.938   4.522   0.477  2.2075  0.2226 -1.9497
   75MOL0     H10290   2.763   4.583   0.477  0.0587  0.0485  1.3329
   75MOL0     H10291   2.846   4.787   0.370  0.0269  0.5075 -0.6090
   75MOL0     H10292   2.881   4.647   0.270  2.6437  0.1431  1.4353
   75MOL0     H10293   3.122   4.658   0.397  0.0800 -1.5768  0.3823
   75MOL0     H10294   3.080   4.729   0.249  0.0484 -0.9547 -0.3287
   75MOL0     H10295   3.124   4.861   0.505  1.9582 -0.1392 -0.6939
   75MOL0     H10296   3.005   4.945   0.407  1.2060  1.4493  0.8393
   75MOL0     H10297   3.175   4.939   0.214 -2.2767 -0.1422  1.0359
   75MOL0     H10298   3.225   5.045   0.336 -1.6901 -0.2663  1.1187
   75MOL0     H10299   3.345   4.837   0.565  1.0162  0.0570  1.6204
   75MOL0     H10300   3.607   4.618   0.495  1.0072  1.1278 -0.0667
   75MOL0     H10301   3.582   4.733   0.628 -1.8194  0.6803 -0.3551
   75MOL0     H10302   3.782   4.807   0.404 -1.2971  1.1775 -1.3434
   75MOL0     H10303   3.731   4.891   0.560 -0.9614 -0.0669 -0.6975
   75MOL0     H10304   3.827   4.703   0.683  0.8721 -2.9343  0.2612
   75MOL0     H10305   3.847   4.608   0.535  1.5344  0.2082 -3.2159
   75MOL0     H10306   4.022   4.751   0.453  0.1955 -1.7632  0.3720
   75MOL0     H10307   3.982   4.861   0.598 -3.4168 -0.4385  3.1590
   75MOL0     H10308   4.045   4.451   0.698 -0.2894  1.6654 -1.4381
   75MOL0     H10309   3.947   4.287   0.879 -0.7036 -0.1510  0.4706
   75MOL0     H10310   4.074   4.261   1.002  2.7130 -0.2176 -0.7764
   75MOL0     H10311   4.122   4.282   0.832  0.2084  0.4175  0.2659
   75MOL0     H10312   4.238   4.381   1.402 -0.2566 -0.8421  0.5229
   75MOL0     H10313   4.230   4.382   1.659  5.2959  2.5420 -0.6851
   75MOL0     H10314   4.235   4.686   1.895 -1.0575  0.9968  1.1581
   75MOL0     H10315   4.085   4.751   1.857  1.4717  0.0794  1.0219
   75MOL0     H10316   3.971   4.642   2.038 -0.9126 -3.7377  0.6628
   75MOL0     H10317   4.103   4.531   2.081  0.3638 -0.1245  1.8740
   75MOL0     H10318   4.109   4.832   2.122  1.5531 -0.0201 -0.6460
   75MOL0     H10319   4.247   4.757   2.106  0.0266  1.1035 -0.3607
   75MOL0     H10320   4.183   4.598   2.322 -0.4601  0.6518  0.6384
   75MOL0     H10321   4.024   4.668   2.292 -0.4969 -0.3500  1.3518
   75MOL0     H10322   4.290   4.807   2.360  0.1559  0.3695 -0.6981
   75MOL0     H10323   4.144   4.894   2.351 -2.3941 -0.5706  3.5366
   75MOL0     H10324   4.043   4.823   2.549  0.3959 -0.4649  1.6905
   75MOL0     H10325   4.205   4.856   2.583 -0.2959 -0.4645  2.2091
   75MOL0     H10326   4.201   4.581   2.574 -1.3161  0.5795 -3.5285
   75MOL0     H10327   4.033   4.626   2.580 -0.5384  3.8641 -0.1272
   75MOL0     H10328   4.219   4.587   2.796 -2.2893 -1.7348  2.9184
   75MOL0     H10329   4.067   4.651   2.820  1.6334 -1.4179  2.8018
   75MOL0     H10330   4.022   4.753   1.635  2.1638  0.3336  1.2155
   75MOL0     H10331   4.014   4.744   1.405  0.3689  1.5536  2.9749
   75MOL0     H10332   4.124   4.761   1.070  2.0333  2.4563 -3.1638
   75MOL0     H10333   4.114   4.838   0.848  2.1576 -0.4708 -0.0273
   75MOL0     H10334   3.201   4.403   0.937  1.0755  0.0041  2.2009
   75MOL0     H10335   3.253   4.366   1.186  1.1525  2.3157  1.7177
   75MOL0     H10336   3.277   4.714   1.621 -0.1137  1.1929 -0.1845
   75MOL0     H10337   3.297   4.665   1.875  0.7862 -0.7243  1.0086
   75MOL0     H10338   3.192   4.253   2.014  0.3389 -0.4184 -3.2911
   75MOL0     H10339   3.373   4.255   1.982  0.0013  0.6975 -0.7509
   75MOL0     H10340   3.276   4.207   2.234  2.2160  0.8522  0.1604
   75MOL0     H10341   3.226   4.378   2.222 -0.7642  0.3123  0.3262
   75MOL0     H10342   3.497   4.355   2.133 -2.3476 -2.8463 -0.8058
   75MOL0     H10343   3.427   4.452   2.257 -1.9003  0.5366 -0.7134
   75MOL0     H10344   3.426   4.232   2.395 -0.6311 -0.8988 -1.0144
   75MOL0     H10345   3.591   4.308   2.368  0.0302 -1.5867  0.8960
   75MOL0     H10346   3.651   3.951   2.170 -2.7920 -2.6137  1.7586
   75MOL0     H10347   3.286   4.244   1.784 -0.3867 -0.9152  0.6570
   75MOL0     H10348   3.259   4.169   1.580 -0.2391 -0.2031 -0.9716
   75MOL0     H10349   3.170   4.262   1.453 -1.5496  0.5034  1.0872
   75MOL0     H10350   3.350   4.264   1.456  1.0561 -1.0135  1.5597
   76MOL0     O10351   4.498   8.286  11.218 -0.4381  0.9250  0.5464
   76MOL0     C10352   4.540   8.251  11.331  0.3046  0.2944 -0.1364
   76MOL0     O10353   4.543   8.118  11.371 -0.1867  0.6194 -0.2236
   76MOL0     C10354   4.502   8.009  11.300  0.0816 -0.4437  0.1331
   76MOL0     C10355   4.452   8.014  11.165 -0.7061  1.5404  0.8685
   76MOL0     C10356   4.418   7.896  11.101  0.0276 -0.9576  0.4323
   76MOL0     C10357   4.430   7.775  11.168 -0.3663  0.1148  0.3868
   76MOL0     O10358   4.388   7.661  11.100 -0.2156 -0.0475 -0.2837
   76MOL0     C10359   4.299   7.577  11.183  0.3289 -0.6078 -0.2106
   76MOL0     C10360   4.196   7.510  11.100 -0.2468  0.2879  0.3250
   76MOL0     C10361   4.239   7.468  10.957 -0.3323 -0.2018 -0.1888
   76MOL0     C10362   4.127   7.364  10.910  0.4489  0.0615  0.9393
   76MOL0     C10363   4.165   7.282  10.781 -0.6054 -1.3362 -0.2081
   76MOL0     C10364   4.047   7.234  10.699  0.3787  0.0229 -0.1265
   76MOL0     C10365   4.082   7.105  10.623 -0.2329  0.8596 -0.0010
   76MOL0     C10366   4.205   7.125  10.533  0.6979 -0.1666 -0.0902
   76MOL0     N10367   4.229   7.002  10.454 -1.2714 -0.2316 -0.3376
   76MOL0     C10368   4.328   6.908  10.467 -1.0397 -0.0435 -0.6917
   76MOL0     C10369   4.312   6.832  10.356 -0.4721 -0.5068  0.1102
   76MOL0     C10370   4.397   6.718  10.307 -0.1703 -0.5663  0.0818
   76MOL0     C10371   4.402   6.620  10.424  0.8524  0.3207  0.5610
   76MOL0     C10372   4.470   6.481  10.379  0.8949 -0.2003 -0.1158
   76MOL0     C10373   4.620   6.509  10.374 -0.9130  1.5054 -0.8735
   76MOL0     O10374   4.667   6.553  10.499 -0.0376 -0.0614  0.7008
   76MOL0     C10375   4.777   6.631  10.490 -0.7357  0.4123  0.1337
   76MOL0     C10376   4.899   6.587  10.444  0.1187  0.0915  0.3259
   76MOL0     C10377   5.018   6.662  10.462  0.7267 -1.6628 -0.4658
   76MOL0     C10378   5.149   6.602  10.411  0.4129 -0.7141  0.3339
   76MOL0     C10379   5.017   6.799  10.518 -0.1056  0.2773  0.6736
   76MOL0     C10380   5.132   6.889  10.536  0.5275 -0.1715 -0.1043
   76MOL0     O10381   5.104   7.017  10.590  0.8273  0.6188  0.2380
   76MOL0     C10382   5.209   7.105  10.615 -0.6486  0.3267 -0.0113
   76MOL0     C10383   5.256   7.187  10.518 -0.6445  0.0545  0.0133
   76MOL0     C10384   5.351   7.284  10.544  0.1235 -0.1153  0.1448
   76MOL0     C10385   5.407   7.304  10.676  1.0968 -0.4181 -0.5518
   76MOL0     O10386   5.479   7.408  10.716 -0.1530  0.0199 -0.1310
   76MOL0     C10387   5.561   7.471  10.619  0.8148 -0.1142  0.0636
   76MOL0     C10388   5.632   7.583  10.686 -0.4922  0.0535  0.3465
   76MOL0     C10389   5.529   7.685  10.756 -0.8380 -0.0750 -0.4414
   76MOL0     C10390   5.593   7.791  10.841 -0.7731  0.6050 -0.5671
   76MOL0     C10391   5.505   7.883  10.937  0.3832  0.1639 -0.4164
   76MOL0     C10392   5.427   7.803  11.044  0.8517 -0.5571 -0.4526
   76MOL0     C10393   5.390   7.887  11.173  0.3119  0.3185 -0.3961
   76MOL0     C10394   5.264   7.974  11.167 -0.0747  0.0431  0.8507
   76MOL0    Cl10395   5.290   8.106  11.046 -0.5417  0.5468 -0.5600
   76MOL0     C10396   5.352   7.223  10.773  0.0198 -0.4071 -0.7744
   76MOL0     C10397   5.260   7.114  10.746 -0.2587 -0.0378  0.2585
   76MOL0     O10398   5.251   6.851  10.521  0.0028  0.8552  0.5020
   76MOL0     C10399   4.892   6.843  10.547  0.4412 -0.8773  0.1562
   76MOL0     C10400   4.778   6.766  10.535  0.2498  0.5675 -0.9991
   76MOL0     N10401   4.200   6.879  10.283  1.0753  0.0404 -0.8398
   76MOL0     N10402   4.148   6.983  10.345  0.5425 -0.0677 -0.4197
   76MOL0     C10403   4.488   7.772  11.291  0.6180  0.8673 -0.4805
   76MOL0     C10404   4.519   7.887  11.355  0.3809 -0.3316 -1.0348
   76MOL0     C10405   4.594   8.344  11.421 -0.2794  0.2427 -0.3558
   76MOL0     C10406   4.721   8.404  11.385  1.1693  0.2058  0.4054
   76MOL0     C10407   4.787   8.489  11.475  0.4740  0.5723 -0.3386
   76MOL0     C10408   4.746   8.497  11.608  0.2813 -0.0128  0.3684
   76MOL0     O10409   4.823   8.551  11.702 -1.1433  0.2124 -0.6545
   76MOL0     C10410   4.946   8.479  11.743  0.6448 -0.7301  0.2228
   76MOL0     C10411   4.954   8.491  11.897  0.1788 -0.2568 -0.3374
   76MOL0     C10412   5.088   8.443  11.958  0.0921 -0.7288  0.8794
   76MOL0     C10413   5.113   8.520  12.095 -0.0244  0.2274  0.7913
   76MOL0     C10414   5.013   8.487  12.201  0.3631 -0.4993  0.4630
   76MOL0     C10415   4.932   8.472  12.287  0.5696  0.3656 -0.2541
   76MOL0     C10416   4.631   8.427  11.651 -0.0659 -0.8536  0.5212
   76MOL0     C10417   4.540   8.366  11.557 -0.2828 -0.2502  1.0146
   76MOL0     C10418   4.411   8.303  11.613 -0.5247  0.3086  0.0557
   76MOL0     H10419   4.430   8.104  11.108 -2.0637 -0.1685 -1.4567
   76MOL0     H10420   4.388   7.894  10.997  1.6718 -1.2111 -0.0700
   76MOL0     H10421   4.248   7.625  11.267 -2.0385 -0.9445 -1.3562
   76MOL0     H10422   4.362   7.503  11.232 -0.6045 -1.8102 -0.7697
   76MOL0     H10423   4.165   7.418  11.151 -0.6044 -0.6330 -1.4788
   76MOL0     H10424   4.102   7.565  11.094 -0.0301  0.7385  0.9513
   76MOL0     H10425   4.245   7.555  10.890  1.8702  1.1490  1.6156
   76MOL0     H10426   4.341   7.429  10.955 -0.4572 -0.5870  0.7634
   76MOL0     H10427   4.109   7.285  10.983  2.7429  1.5556  3.3023
   76MOL0     H10428   4.029   7.410  10.891 -0.2289 -1.2365  1.1948
   76MOL0     H10429   4.248   7.217  10.809  0.8039  0.4701  0.0794
   76MOL0     H10430   4.217   7.367  10.734 -1.2871  0.8752  2.7612
   76MOL0     H10431   3.961   7.207  10.761 -1.1275  1.7227 -1.3854
   76MOL0     H10432   3.999   7.305  10.631  1.8058  1.4940  0.3180
   76MOL0     H10433   3.998   7.071  10.561  0.5674 -2.4457  0.5623
   76MOL0     H10434   4.093   7.022  10.692  2.5040  1.8034  0.7995
   76MOL0     H10435   4.192   7.207  10.461  2.8113  1.5353  1.3272
   76MOL0     H10436   4.300   7.134  10.588  0.7680 -3.1966  0.4420
   76MOL0     H10437   4.400   6.920  10.547 -1.9645 -2.5762  0.6488
   76MOL0     H10438   4.492   6.758  10.269 -0.8497 -1.1131 -2.3472
   76MOL0     H10439   4.363   6.665  10.218  1.5979 -0.7567 -0.5266
   76MOL0     H10440   4.448   6.659  10.515  0.2690 -1.7912  1.8312
   76MOL0     H10441   4.301   6.597  10.458  0.7288 -0.0879 -0.0643
   76MOL0     H10442   4.439   6.403  10.450  1.8870 -0.1548  0.3781
   76MOL0     H10443   4.430   6.448  10.283  0.7608 -0.3544 -0.0107
   76MOL0     H10444   4.674   6.418  10.345 -0.8742  1.8820 -2.0641
   76MOL0     H10445   4.633   6.580  10.291 -0.4496  2.8527  0.3077
   76MOL0     H10446   4.924   6.486  10.413 -2.3757 -0.5334  0.1513
   76MOL0     H10447   5.206   6.677  10.355 -0.1286  0.1964  0.9651
   76MOL0     H10448   5.140   6.516  10.345  0.0159  1.6512 -2.9437
   76MOL0     H10449   5.202   6.566  10.500  1.0242  3.0793  1.7285
   76MOL0     H10450   5.209   7.188  10.420 -0.2869 -3.3459 -0.3281
   76MOL0     H10451   5.375   7.355  10.465 -3.4770 -0.5819 -1.5659
   76MOL0     H10452   5.624   7.392  10.576 -0.2051 -1.6431  1.2486
   76MOL0     H10453   5.512   7.522  10.536  3.5398  0.0432 -1.5667
   76MOL0     H10454   5.703   7.532  10.752  0.6204  1.8109  0.5781
   76MOL0     H10455   5.682   7.647  10.613 -1.8168  4.4461  2.9220
   76MOL0     H10456   5.453   7.633  10.814 -1.4672 -0.6128 -1.7207
   76MOL0     H10457   5.468   7.747  10.689 -2.8096 -1.1954  0.2635
   76MOL0     H10458   5.655   7.847  10.770  1.3025 -2.7210 -1.5930
   76MOL0     H10459   5.668   7.746  10.906  2.0832  2.7090 -2.1701
   76MOL0     H10460   5.574   7.956  10.980 -0.4736  2.4359 -2.6372
   76MOL0     H10461   5.437   7.953  10.887  3.0459  2.8622 -0.5095
   76MOL0     H10462   5.483   7.720  11.087  1.8994  0.0513 -0.6103
   76MOL0     H10463   5.340   7.766  10.987 -1.2053  2.5156  0.4429
   76MOL0     H10464   5.476   7.938  11.218  0.9860 -1.8557  0.9093
   76MOL0     H10465   5.356   7.810  11.243  2.3902 -1.1780 -0.9413
   76MOL0     H10466   5.238   8.015  11.265 -0.6800  0.6353  0.4477
   76MOL0     H10467   5.177   7.916  11.135  0.2276 -0.0046  0.0971
   76MOL0     H10468   5.393   7.222  10.873  1.9876  0.5579 -1.5163
   76MOL0     H10469   5.238   7.057  10.835 -0.0884  1.4792  1.3232
   76MOL0     H10470   4.877   6.944  10.583  0.4144 -0.6427 -0.5050
   76MOL0     H10471   4.681   6.805  10.562  0.7319  0.1506  1.5131
   76MOL0     H10472   4.528   7.679  11.329  2.8201  1.2945 -1.5685
   76MOL0     H10473   4.570   7.877  11.451  1.4806 -0.4232 -1.6158
   76MOL0     H10474   4.761   8.400  11.284 -3.3515  0.7108 -1.6587
   76MOL0     H10475   4.882   8.537  11.456 -1.1707  2.7012 -4.1474
   76MOL0     H10476   4.952   8.375  11.712 -1.1608 -0.5647 -0.8491
   76MOL0     H10477   5.030   8.531  11.697 -0.4983  0.8252 -0.1843
   76MOL0     H10478   4.872   8.432  11.938  1.9154  0.3558  4.5871
   76MOL0     H10479   4.938   8.594  11.928  0.3790 -0.7209  1.3892
   76MOL0     H10480   5.093   8.336  11.982  1.4144 -1.2593 -1.4687
   76MOL0     H10481   5.165   8.467  11.884 -1.8017  0.7668 -0.6958
   76MOL0     H10482   5.117   8.629  12.082  0.2859  0.2450  1.0287
   76MOL0     H10483   5.217   8.496  12.121  0.2607  2.1419  1.6055
   76MOL0     H10484   4.854   8.454  12.358  1.1608  1.8253  0.8285
   76MOL0     H10485   4.614   8.447  11.756 -1.4386  0.7596  0.0326
   76MOL0     H10486   4.434   8.217  11.677 -5.7181 -2.6116 -1.3925
   76MOL0     H10487   4.350   8.383  11.658 -1.0043 -1.0098  1.8614
   76MOL0     H10488   4.349   8.266  11.530  1.1272 -3.4846  0.3251
   77MOL0     O10489   8.301   4.474   3.641 -0.4755 -0.2714 -0.9331
   77MOL0     C10490   8.377   4.404   3.578 -0.2105 -0.7059  0.1923
   77MOL0     O10491   8.502   4.455   3.524  0.3673 -0.0176 -0.3335
   77MOL0     C10492   8.541   4.585   3.552 -0.5622  0.9741  1.3479
   77MOL0     C10493   8.654   4.605   3.642  0.4635  0.0691  0.6173
   77MOL0     C10494   8.681   4.728   3.699  0.0737 -1.1459 -0.3603
   77MOL0     C10495   8.610   4.848   3.655  0.0721  1.0083  0.5799
   77MOL0     O10496   8.641   4.976   3.703 -0.1165 -0.0909 -0.5298
   77MOL0     C10497   8.772   5.018   3.660 -0.5166  0.2276 -0.3093
   77MOL0     C10498   8.768   5.174   3.651  0.6762 -0.3720 -1.0472
   77MOL0     C10499   8.649   5.217   3.568 -0.2461 -0.1095  0.0331
   77MOL0     C10500   8.648   5.366   3.533  0.3281  0.5719 -0.0711
   77MOL0     C10501   8.583   5.447   3.655 -0.5340  0.6671 -0.1176
   77MOL0     C10502   8.561   5.597   3.629  0.5251  0.4560 -0.9104
   77MOL0     C10503   8.688   5.679   3.577  0.1745 -0.0434  0.2117
   77MOL0     C10504   8.664   5.827   3.590  0.5773 -0.2330  0.1604
   77MOL0     N10505   8.540   5.875   3.512 -0.0816  0.7438  0.0216
   77MOL0     C10506   8.528   5.870   3.383  0.5242  0.2688  1.6319
   77MOL0     C10507   8.420   5.951   3.358 -0.1352 -0.5695  0.6244
   77MOL0     C10508   8.348   5.962   3.217  0.1241 -0.2620 -0.0629
   77MOL0     C10509   8.418   6.025   3.088 -0.4424  0.4771  0.1909
   77MOL0     C10510   8.345   6.153   3.039 -0.3920 -1.0698 -0.7026
   77MOL0     C10511   8.343   6.266   3.145 -0.2152  0.1636  0.0084
   77MOL0     O10512   8.473   6.279   3.211 -0.0164 -0.7416  0.1945
   77MOL0     C10513   8.503   6.399   3.275 -1.2204 -0.7925  0.5407
   77MOL0     C10514   8.405   6.488   3.328  1.1605  0.7516  0.8165
   77MOL0     C10515   8.440   6.604   3.386 -0.3627 -0.0102 -0.6617
   77MOL0     C10516   8.326   6.684   3.441  0.0595 -0.3597  0.9373
   77MOL0     C10517   8.577   6.631   3.404  0.9203 -0.1300 -0.1592
   77MOL0     C10518   8.623   6.742   3.493  0.6170  0.0561 -0.3069
   77MOL0     O10519   8.529   6.812   3.561 -0.7096 -0.5046 -0.1449
   77MOL0     C10520   8.544   6.937   3.612  0.3323  0.0888  0.5217
   77MOL0     C10521   8.644   7.023   3.578  0.5505 -0.1002  0.7016
   77MOL0     C10522   8.655   7.158   3.611 -0.1243 -1.6076 -0.3918
   77MOL0     C10523   8.562   7.203   3.714 -1.0010  0.6092  0.7427
   77MOL0     O10524   8.565   7.331   3.764  0.1271 -0.2745 -0.4480
   77MOL0     C10525   8.679   7.416   3.742  0.2417  0.5849 -0.3016
   77MOL0     C10526   8.651   7.541   3.834 -0.1127  0.3049  0.0401
   77MOL0     C10527   8.513   7.600   3.807  0.0689 -0.5431 -0.3769
   77MOL0     C10528   8.500   7.733   3.886  0.6852  0.0616  0.3604
   77MOL0     C10529   8.350   7.790   3.849 -0.1936  0.0943  0.1844
   77MOL0     C10530   8.304   7.884   3.959  0.1946  0.0572  0.7491
   77MOL0     C10531   8.151   7.906   3.972 -0.1379 -0.3575 -1.3851
   77MOL0     C10532   8.071   7.901   3.849 -0.3625  0.5652  0.2859
   77MOL0    Cl10533   7.902   7.903   3.901  0.3231  0.1516  0.6728
   77MOL0     C10534   8.466   7.110   3.763  0.5197 -0.2142 -0.6153
   77MOL0     C10535   8.453   6.984   3.710 -0.1650  0.5945  0.5202
   77MOL0     O10536   8.748   6.753   3.509 -0.7013  0.1897 -0.3297
   77MOL0     C10537   8.668   6.547   3.348 -0.3382 -0.0979  0.4782
   77MOL0     C10538   8.635   6.429   3.282 -0.6531 -0.7259  0.1183
   77MOL0     N10539   8.390   6.026   3.472  0.2001  0.4374 -0.1296
   77MOL0     N10540   8.453   5.970   3.566  0.0981  0.1027  0.3087
   77MOL0     C10541   8.521   4.830   3.552  1.1305  0.6853  0.4163
   77MOL0     C10542   8.475   4.702   3.504 -0.8289 -0.2083  0.4901
   77MOL0     C10543   8.333   4.265   3.543  0.2703  0.3264  0.4312
   77MOL0     C10544   8.399   4.206   3.435  0.3708  0.0357  0.8340
   77MOL0     C10545   8.357   4.080   3.391  0.1113  0.4403  0.5438
   77MOL0     C10546   8.247   4.021   3.446  0.4507 -0.1464  0.9940
   77MOL0     O10547   8.193   3.919   3.377  0.3703  0.2271  0.0528
   77MOL0     C10548   8.069   3.865   3.402  0.0596 -0.1195  1.5001
   77MOL0     C10549   8.018   3.786   3.277 -0.2775  0.1676  0.9032
   77MOL0     C10550   7.907   3.676   3.296  1.2622  0.5418  0.2223
   77MOL0     C10551   7.881   3.595   3.160 -0.5725  0.4798 -0.7203
   77MOL0     C10552   8.001   3.514   3.130 -1.0669 -0.3477 -0.0138
   77MOL0     C10553   8.113   3.460   3.103 -0.1883  0.6486 -0.0705
   77MOL0     C10554   8.186   4.068   3.562 -1.5562  0.3994 -0.0378
   77MOL0     C10555   8.228   4.194   3.608 -0.0163  0.7080 -0.5053
   77MOL0     C10556   8.158   4.244   3.736  0.2744 -0.1091  0.8939
   77MOL0     H10557   8.716   4.523   3.678  0.2432  0.0504  0.9610
   77MOL0     H10558   8.757   4.751   3.774  0.1713 -0.8131 -0.5583
   77MOL0     H10559   8.786   4.973   3.561  1.7177  0.3902 -0.1234
   77MOL0     H10560   8.858   4.984   3.719 -0.9330  0.7036  0.6066
   77MOL0     H10561   8.769   5.215   3.753 -0.5563 -3.3775  0.2896
   77MOL0     H10562   8.857   5.218   3.606  0.9196 -0.4738 -0.6716
   77MOL0     H10563   8.671   5.165   3.474  0.4842  1.5435 -0.7605
   77MOL0     H10564   8.557   5.196   3.622  2.1521  0.0000  4.6610
   77MOL0     H10565   8.750   5.399   3.511  0.6794 -1.6513 -2.2059
   77MOL0     H10566   8.582   5.379   3.447 -2.6291 -2.0406  1.5690
   77MOL0     H10567   8.657   5.443   3.736 -0.8255  1.5089  0.2018
   77MOL0     H10568   8.498   5.393   3.697 -0.4289 -0.5405 -1.4228
   77MOL0     H10569   8.473   5.617   3.568  1.0404  4.3152 -0.6579
   77MOL0     H10570   8.535   5.643   3.725  1.4170  2.7674 -1.7195
   77MOL0     H10571   8.701   5.656   3.471 -1.8607  0.6041 -0.2293
   77MOL0     H10572   8.780   5.644   3.625  1.1519 -1.5717 -2.5340
   77MOL0     H10573   8.657   5.880   3.685  3.9535  1.0359 -0.1569
   77MOL0     H10574   8.753   5.873   3.547  1.4615 -0.2635  1.8490
   77MOL0     H10575   8.572   5.796   3.317  0.6453  0.9247  0.9659
   77MOL0     H10576   8.247   5.998   3.237 -0.5307 -2.8957  1.9956
   77MOL0     H10577   8.321   5.862   3.184 -0.3587  0.7097 -2.8988
   77MOL0     H10578   8.524   6.034   3.113 -0.5012  0.7281  0.3549
   77MOL0     H10579   8.401   5.941   3.019  0.6036 -0.3389  0.8998
   77MOL0     H10580   8.401   6.202   2.959  0.5875  0.7531  1.0014
   77MOL0     H10581   8.243   6.127   3.007 -3.1807  6.0244  0.6629
   77MOL0     H10582   8.310   6.356   3.091 -1.0995 -2.0628 -3.4767
   77MOL0     H10583   8.267   6.250   3.222 -2.3874  0.1931 -2.0169
   77MOL0     H10584   8.303   6.454   3.317  1.8812 -1.4020  0.3029
   77MOL0     H10585   8.232   6.656   3.391  1.5627 -0.0926 -2.2818
   77MOL0     H10586   8.337   6.788   3.410 -0.5672 -0.7667 -0.7812
   77MOL0     H10587   8.320   6.657   3.547  3.4493 -1.2429  1.0096
   77MOL0     H10588   8.728   6.995   3.515 -0.9869  2.0278 -2.6002
   77MOL0     H10589   8.735   7.219   3.571 -2.6882  1.3802 -1.2897
   77MOL0     H10590   8.771   7.365   3.772 -0.7025 -0.5405  0.7869
   77MOL0     H10591   8.682   7.436   3.634 -0.0293 -0.2388 -0.4676
   77MOL0     H10592   8.655   7.507   3.938  4.4373  0.8201  0.2479
   77MOL0     H10593   8.729   7.615   3.813 -1.8727  1.7729 -1.6583
   77MOL0     H10594   8.429   7.536   3.836 -1.1276  0.6055 -1.2140
   77MOL0     H10595   8.507   7.610   3.698  0.9947  0.2257 -0.3673
   77MOL0     H10596   8.583   7.794   3.850  0.1388 -0.1649 -1.3957
   77MOL0     H10597   8.501   7.721   3.994 -1.2931 -1.8292  0.2221
   77MOL0     H10598   8.354   7.842   3.753 -1.3431  2.5066  1.3598
   77MOL0     H10599   8.272   7.714   3.843 -0.5763  0.3986  1.1317
   77MOL0     H10600   8.341   7.982   3.929 -1.5548 -0.0965 -2.2779
   77MOL0     H10601   8.352   7.855   4.053  2.6138  4.4149  1.1502
   77MOL0     H10602   8.129   8.004   4.015 -0.0703  0.3004 -2.7906
   77MOL0     H10603   8.122   7.827   4.042  1.2788 -0.0846 -0.4456
   77MOL0     H10604   8.089   7.809   3.792  0.7291 -0.8638  2.7521
   77MOL0     H10605   8.104   7.988   3.792  1.7175  0.8382  1.7958
   77MOL0     H10606   8.390   7.141   3.834  0.3116 -0.7550 -0.5963
   77MOL0     H10607   8.372   6.923   3.747  1.3540 -2.4802 -0.8964
   77MOL0     H10608   8.776   6.556   3.361  0.1118 -2.4801 -0.9496
   77MOL0     H10609   8.717   6.369   3.242 -0.5577 -0.0977 -0.6517
   77MOL0     H10610   8.472   4.924   3.529  0.0323  0.0581  0.0896
   77MOL0     H10611   8.389   4.687   3.441 -0.5353 -1.6922  0.4173
   77MOL0     H10612   8.483   4.256   3.387 -1.3585  1.6496 -0.6570
   77MOL0     H10613   8.403   4.041   3.300  2.6750 -0.9518  2.2867
   77MOL0     H10614   8.070   3.796   3.487  0.3215 -1.2997  0.5773
   77MOL0     H10615   7.989   3.939   3.400 -1.1225 -1.2934 -1.4889
   77MOL0     H10616   8.111   3.751   3.232 -0.1644  0.8852  0.5542
   77MOL0     H10617   7.986   3.856   3.200 -0.2991  0.4217  1.1396
   77MOL0     H10618   7.938   3.605   3.374  0.2646  1.2046  1.2466
   77MOL0     H10619   7.808   3.714   3.323  0.0299 -1.1907 -1.6012
   77MOL0     H10620   7.868   3.674   3.086  1.5696  0.9244 -0.6724
   77MOL0     H10621   7.800   3.523   3.180  0.4074  0.3397  3.8233
   77MOL0     H10622   8.206   3.407   3.097 -0.9290 -0.5233 -3.1090
   77MOL0     H10623   8.094   4.021   3.595  0.2473 -1.3555  2.9230
   77MOL0     H10624   8.077   4.313   3.710 -1.5500 -2.1268  0.9443
   77MOL0     H10625   8.121   4.154   3.787  2.7278 -0.7077  1.7662
   77MOL0     H10626   8.222   4.293   3.809 -1.8457 -0.6113  3.2072
   78MOL0     O10627   3.193   0.008   3.867  0.2982 -0.4019  0.1498
   78MOL0     C10628   3.186  -0.031   3.980  0.9727  0.5118 -0.3674
   78MOL0     O10629   3.225  -0.152   4.023 -0.9101 -0.1946  0.6132
   78MOL0     C10630   3.303  -0.239   3.956  0.1214 -0.8623  0.5234
   78MOL0     C10631   3.428  -0.203   3.895  0.0539  0.7523 -0.3270
   78MOL0     C10632   3.499  -0.308   3.834 -0.4533 -0.7690  1.0812
   78MOL0     C10633   3.449  -0.439   3.825  0.9411  0.0910 -0.6958
   78MOL0     O10634   3.512  -0.547   3.771 -0.2251 -0.3450  0.7350
   78MOL0     C10635   3.605  -0.504   3.665 -0.6116 -0.2195 -0.1015
   78MOL0     C10636   3.674  -0.640   3.622 -0.4878  0.9438  0.5829
   78MOL0     C10637   3.794  -0.626   3.519 -0.0615 -0.1049 -0.6428
   78MOL0     C10638   3.889  -0.741   3.547  0.9087 -0.3664 -0.5338
   78MOL0     C10639   4.023  -0.718   3.480 -0.6771  0.2710  0.5722
   78MOL0     C10640   4.035  -0.815   3.360  0.2417 -0.1145  0.3793
   78MOL0     C10641   4.086  -0.955   3.415  0.5370 -0.8182  0.1579
   78MOL0     C10642   4.072  -1.059   3.308  0.1481 -0.7177  0.1709
   78MOL0     N10643   4.121  -1.190   3.353  0.5708  0.0515  0.0559
   78MOL0     C10644   4.250  -1.239   3.353  0.0739 -0.3732 -0.3619
   78MOL0     C10645   4.248  -1.367   3.401 -0.6990 -0.1475  0.6082
   78MOL0     C10646   4.360  -1.454   3.432 -0.1888  0.0827  0.1993
   78MOL0     C10647   4.448  -1.395   3.536  0.6320 -0.1137 -0.6026
   78MOL0     C10648   4.545  -1.499   3.596 -0.3997  0.2882  0.8587
   78MOL0     C10649   4.624  -1.438   3.715 -0.2864 -0.0053  0.3631
   78MOL0     O10650   4.732  -1.345   3.671  0.1036 -0.2855  0.0267
   78MOL0     C10651   4.862  -1.390   3.668  0.2445  0.2061 -0.2978
   78MOL0     C10652   4.962  -1.288   3.679 -0.0899  0.3765 -0.7562
   78MOL0     C10653   5.093  -1.326   3.684  1.0313  0.1602  0.2838
   78MOL0     C10654   5.191  -1.216   3.702 -0.0377 -0.7321 -0.4577
   78MOL0     C10655   5.126  -1.468   3.676 -0.4801 -0.4440  0.1454
   78MOL0     C10656   5.273  -1.513   3.659  0.1486 -0.1435 -0.1130
   78MOL0     O10657   5.286  -1.645   3.607  0.3386  0.7561 -0.5702
   78MOL0     C10658   5.403  -1.712   3.602  1.1741  0.7558  0.8291
   78MOL0     C10659   5.500  -1.676   3.521 -0.3947 -0.6811  0.3676
   78MOL0     C10660   5.624  -1.750   3.505 -0.4249 -0.7052  0.0230
   78MOL0     C10661   5.637  -1.868   3.582 -0.1597  0.9400  0.1178
   78MOL0     O10662   5.728  -1.963   3.537  0.0918  0.5363  0.1116
   78MOL0     C10663   5.759  -2.083   3.609 -0.9770  0.4965  0.2766
   78MOL0     C10664   5.898  -2.070   3.669 -0.4470 -0.2664 -0.9562
   78MOL0     C10665   6.008  -2.072   3.566 -0.2628  0.0903  0.0713
   78MOL0     C10666   6.077  -1.946   3.531 -1.0789  0.5256 -0.1642
   78MOL0     C10667   5.987  -1.829   3.486 -0.5243 -0.4621  0.1093
   78MOL0     C10668   6.065  -1.719   3.416  1.4189  0.1972  0.8314
   78MOL0     C10669   5.983  -1.605   3.351  0.2873  0.3225 -0.8856
   78MOL0     C10670   5.922  -1.517   3.455  0.3847 -0.8140 -1.0621
   78MOL0    Cl10671   5.885  -1.362   3.379 -0.0575 -0.3946 -0.0467
   78MOL0     C10672   5.538  -1.886   3.683 -0.0928  0.4254 -0.2407
   78MOL0     C10673   5.424  -1.816   3.686 -0.4423  0.3062  0.0933
   78MOL0     O10674   5.365  -1.435   3.690  0.4641  0.7560  0.3364
   78MOL0     C10675   5.028  -1.561   3.661 -0.4791  0.9857 -0.5093
   78MOL0     C10676   4.895  -1.522   3.662 -0.6328 -0.2952  0.3709
   78MOL0     N10677   4.110  -1.392   3.426 -0.5382  1.0004  0.2130
   78MOL0     N10678   4.047  -1.283   3.405 -0.0025  0.1704  0.9103
   78MOL0     C10679   3.328  -0.464   3.878 -0.5061  0.1175 -0.0387
   78MOL0     C10680   3.262  -0.372   3.956  0.0526  0.3935  0.9407
   78MOL0     C10681   3.095   0.057   4.070  0.4040  0.9317 -0.7693
   78MOL0     C10682   3.078   0.194   4.043  0.5585 -0.3278  0.1608
   78MOL0     C10683   2.983   0.276   4.095  0.0201  0.5432  0.5029
   78MOL0     C10684   2.908   0.232   4.204 -0.0291  0.1384  0.0470
   78MOL0     O10685   2.834   0.319   4.272  1.3343 -0.1965 -0.0911
   78MOL0     C10686   2.901   0.397   4.370  0.3435 -0.1534 -0.2730
   78MOL0     C10687   2.788   0.469   4.451  0.3220 -0.2118  0.9775
   78MOL0     C10688   2.697   0.541   4.349  0.7091  0.3274 -0.1823
   78MOL0     C10689   2.745   0.614   4.226  0.0292 -0.6752  0.0123
   78MOL0     C10690   2.864   0.701   4.245  0.2472  0.0366  0.2503
   78MOL0     C10691   2.971   0.768   4.264  1.1548  0.3433 -0.4334
   78MOL0     C10692   2.918   0.101   4.247 -0.1984 -0.9310  0.4197
   78MOL0     C10693   3.001   0.010   4.169  0.9739  0.5702 -0.3965
   78MOL0     C10694   2.984  -0.139   4.184  0.8717 -0.1136 -0.1764
   78MOL0     H10695   3.447  -0.096   3.891 -3.7681  1.5494 -4.8757
   78MOL0     H10696   3.596  -0.279   3.796  0.3176 -2.0080  2.0206
   78MOL0     H10697   3.676  -0.433   3.708 -0.6566 -0.9901  1.3073
   78MOL0     H10698   3.548  -0.452   3.587 -0.0969  0.6432  0.0865
   78MOL0     H10699   3.710  -0.684   3.716  1.7658  2.4858  0.5000
   78MOL0     H10700   3.596  -0.707   3.583  1.2594 -1.2847  0.7081
   78MOL0     H10701   3.768  -0.621   3.413  0.6215 -0.4787 -0.8340
   78MOL0     H10702   3.861  -0.543   3.546  2.1542 -2.1284  0.4233
   78MOL0     H10703   3.895  -0.752   3.656 -1.8568 -0.5174 -0.3341
   78MOL0     H10704   3.845  -0.833   3.508  3.1505 -0.6139 -2.7534
   78MOL0     H10705   4.104  -0.745   3.549  1.6522 -2.7223 -2.9057
   78MOL0     H10706   4.048  -0.618   3.445  0.5137 -0.3915 -0.5885
   78MOL0     H10707   3.939  -0.815   3.307  0.0432  3.6438  0.4708
   78MOL0     H10708   4.116  -0.782   3.295  0.4492 -0.4148  0.4829
   78MOL0     H10709   4.036  -0.994   3.504  2.4650 -1.2552  1.0907
   78MOL0     H10710   4.193  -0.955   3.437 -0.0616 -0.5817  3.5882
   78MOL0     H10711   3.966  -1.074   3.285 -0.3926 -1.2403  2.7132
   78MOL0     H10712   4.116  -1.040   3.210 -2.5769 -1.5773 -1.3346
   78MOL0     H10713   4.345  -1.190   3.333  0.6427  0.3719  3.3796
   78MOL0     H10714   4.417  -1.464   3.339 -2.1817 -0.3517 -1.0318
   78MOL0     H10715   4.316  -1.553   3.451 -3.3125  1.2858 -0.2477
   78MOL0     H10716   4.512  -1.321   3.487  1.1648 -0.0597  0.1473
   78MOL0     H10717   4.387  -1.338   3.608  2.5018  3.0825 -1.3601
   78MOL0     H10718   4.486  -1.586   3.626 -2.9998  0.8861 -2.0389
   78MOL0     H10719   4.614  -1.528   3.516 -2.2013 -1.8689 -0.0133
   78MOL0     H10720   4.558  -1.387   3.785 -1.8437 -3.4642  1.6655
   78MOL0     H10721   4.665  -1.514   3.783  3.9517  1.8049  0.1809
   78MOL0     H10722   4.934  -1.184   3.680 -0.0848  0.4231  1.9803
   78MOL0     H10723   5.150  -1.119   3.731  0.5346  0.3415 -2.9194
   78MOL0     H10724   5.235  -1.202   3.602  0.8175 -0.6900 -0.0861
   78MOL0     H10725   5.267  -1.240   3.777 -0.4014  0.3014  0.2665
   78MOL0     H10726   5.500  -1.584   3.463  2.8154  0.7916  2.4211
   78MOL0     H10727   5.700  -1.730   3.431 -2.4792  1.4137 -1.6811
   78MOL0     H10728   5.700  -2.094   3.700 -0.8241 -4.3790  0.0088
   78MOL0     H10729   5.739  -2.171   3.548  2.8560  0.7916 -1.7349
   78MOL0     H10730   5.904  -1.978   3.729  3.7676 -1.5183  0.9369
   78MOL0     H10731   5.917  -2.149   3.743  0.7201  2.4748  1.9430
   78MOL0     H10732   5.971  -2.120   3.475  2.9896 -2.6086 -0.0382
   78MOL0     H10733   6.081  -2.143   3.606  2.3536  3.0456  0.9485
   78MOL0     H10734   6.148  -1.988   3.459 -0.0982  1.8997 -0.0437
   78MOL0     H10735   6.147  -1.924   3.612 -0.9349  2.6005 -0.7952
   78MOL0     H10736   5.905  -1.866   3.423  0.5460 -2.4181 -0.2139
   78MOL0     H10737   5.938  -1.788   3.575  0.8119  1.7014 -0.0783
   78MOL0     H10738   6.133  -1.753   3.337 -1.4848 -1.0946 -1.3228
   78MOL0     H10739   6.129  -1.671   3.490  3.8109 -1.1860 -0.2452
   78MOL0     H10740   5.904  -1.649   3.290 -1.4097 -0.9762  2.0360
   78MOL0     H10741   6.055  -1.538   3.302  0.1457  1.9811  1.0423
   78MOL0     H10742   5.982  -1.509   3.546 -4.1272  0.7952  2.1648
   78MOL0     H10743   5.831  -1.567   3.490 -3.1344  5.0177 -0.4378
   78MOL0     H10744   5.539  -1.983   3.732  1.8321  0.9107  0.7892
   78MOL0     H10745   5.338  -1.863   3.732  0.2826 -1.7339 -0.5505
   78MOL0     H10746   5.054  -1.664   3.642 -1.2370  1.1478 -2.7531
   78MOL0     H10747   4.816  -1.593   3.639 -1.7187  0.6687  1.0413
   78MOL0     H10748   3.305  -0.569   3.863  1.0057 -0.1698 -0.5446
   78MOL0     H10749   3.167  -0.398   4.000  0.6454 -1.0627  1.4129
   78MOL0     H10750   3.136   0.237   3.961  0.5295  0.2431  0.4364
   78MOL0     H10751   2.983   0.382   4.073  0.9985  0.0192 -2.4358
   78MOL0     H10752   2.966   0.329   4.426  0.5020  1.0712  1.0932
   78MOL0     H10753   2.972   0.462   4.316  0.6672 -1.6577 -1.7371
   78MOL0     H10754   2.824   0.531   4.534 -0.7767 -0.6997  1.8552
   78MOL0     H10755   2.729   0.397   4.510 -3.5105 -0.9680 -3.2468
   78MOL0     H10756   2.611   0.482   4.318  0.4706  0.8538 -0.5329
   78MOL0     H10757   2.642   0.619   4.403 -0.2775  0.8141 -1.8211
   78MOL0     H10758   2.668   0.676   4.180  0.5037  0.4369  0.6455
   78MOL0     H10759   2.775   0.542   4.149  3.4229  0.9584 -0.4114
   78MOL0     H10760   3.066   0.815   4.279  1.0560  0.1852  0.8061
   78MOL0     H10761   2.854   0.075   4.331 -0.3927  1.9026  1.2506
   78MOL0     H10762   2.928  -0.175   4.097  2.3538 -0.3945 -1.0531
   78MOL0     H10763   3.083  -0.186   4.184  0.5654 -0.7969 -1.1548
   78MOL0     H10764   2.925  -0.163   4.273  2.5545 -3.8964  0.1060
   79MOL0     O10765   8.243   2.717   2.008 -0.5524  0.1067  0.2843
   79MOL0     C10766   8.322   2.792   1.950  0.2607 -0.5496  0.4989
   79MOL0     O10767   8.286   2.875   1.844 -1.1056  0.2876  0.2672
   79MOL0     C10768   8.153   2.918   1.833  0.7722 -0.2396 -0.5659
   79MOL0     C10769   8.039   2.826   1.830  0.0431 -0.2681 -0.2845
   79MOL0     C10770   7.902   2.875   1.814 -0.3915 -0.4875 -0.4229
   79MOL0     C10771   7.880   3.009   1.807 -0.5736  0.0159 -0.6840
   79MOL0     O10772   7.751   3.051   1.803  0.3184 -0.1125  0.4926
   79MOL0     C10773   7.728   3.189   1.743  0.3964 -0.0333 -0.4431
   79MOL0     C10774   7.750   3.201   1.591 -0.7768 -0.7082  0.3194
   79MOL0     C10775   7.763   3.345   1.545  0.1867  0.0276  0.2138
   79MOL0     C10776   7.641   3.425   1.575  0.1044 -0.3061 -0.4367
   79MOL0     C10777   7.675   3.577   1.576  0.1850  0.2854 -0.2886
   79MOL0     C10778   7.743   3.633   1.457  0.8193 -0.0688  0.4151
   79MOL0     C10779   7.771   3.783   1.456  0.0847  0.6133  0.1403
   79MOL0     C10780   7.639   3.862   1.455 -0.1627 -0.1037 -0.1416
   79MOL0     N10781   7.553   3.823   1.334 -1.1857  0.0574  0.4567
   79MOL0     C10782   7.443   3.740   1.345 -0.0124  0.0061 -0.3052
   79MOL0     C10783   7.404   3.719   1.215  1.0857 -0.0178 -0.2588
   79MOL0     C10784   7.291   3.651   1.151 -0.2478 -0.2239 -0.0353
   79MOL0     C10785   7.165   3.735   1.160 -0.0893 -0.4474 -0.5040
   79MOL0     C10786   7.048   3.688   1.081  0.4240  1.3086  1.0832
   79MOL0     C10787   7.003   3.547   1.117 -0.5709  0.5937  0.0101
   79MOL0     O10788   6.888   3.509   1.046 -0.6415 -0.3148 -0.1243
   79MOL0     C10789   6.807   3.412   1.097  0.5554  0.2748 -0.3848
   79MOL0     C10790   6.774   3.295   1.025  0.3009  0.5112 -0.4731
   79MOL0     C10791   6.679   3.208   1.075  0.1777  0.0402 -1.0426
   79MOL0     C10792   6.673   3.078   0.998  0.7351 -0.0752  0.3456
   79MOL0     C10793   6.609   3.232   1.198  0.1733 -0.1598  0.1777
   79MOL0     C10794   6.513   3.125   1.253  0.0758  0.6832  0.5265
   79MOL0     O10795   6.472   3.141   1.380 -0.4012  0.6597 -0.4006
   79MOL0     C10796   6.407   3.035   1.450  0.8141 -0.6615 -0.2530
   79MOL0     C10797   6.298   3.076   1.532 -0.0397 -0.1912 -0.3813
   79MOL0     C10798   6.210   2.993   1.590 -0.5906  0.9519  0.0269
   79MOL0     C10799   6.245   2.850   1.582  0.3639  0.2169 -1.5226
   79MOL0     O10800   6.173   2.763   1.668  0.4988  0.5909 -0.5919
   79MOL0     C10801   6.116   2.647   1.610  0.0542  0.7241  0.6902
   79MOL0     C10802   6.048   2.579   1.721 -0.7961  1.0019 -0.5417
   79MOL0     C10803   5.968   2.460   1.668 -0.5991 -0.5054 -0.3090
   79MOL0     C10804   5.914   2.384   1.796  0.5742  0.2615  0.8108
   79MOL0     C10805   5.825   2.258   1.771  0.0196 -0.8827  0.4503
   79MOL0     C10806   5.898   2.139   1.699  0.7236 -0.4733 -0.3304
   79MOL0     C10807   5.813   2.007   1.703 -0.1541  0.4973  0.7857
   79MOL0     C10808   5.789   1.956   1.845  0.2522  0.5356 -0.3999
   79MOL0    Cl10809   5.939   1.908   1.931  0.4772  0.1224  0.3543
   79MOL0     C10810   6.355   2.806   1.510 -0.0153  0.7375  0.0472
   79MOL0     C10811   6.450   2.896   1.452 -0.4416 -0.0952 -0.3633
   79MOL0     O10812   6.461   3.051   1.174 -0.2051  0.9044  0.0933
   79MOL0     C10813   6.640   3.353   1.270 -0.0542 -0.1735  0.0116
   79MOL0     C10814   6.734   3.446   1.214  0.3347 -0.4344 -0.7196
   79MOL0     N10815   7.498   3.773   1.135 -0.1765  1.3165 -0.5708
   79MOL0     N10816   7.579   3.844   1.201 -0.0046  0.3856 -0.2965
   79MOL0     C10817   7.994   3.095   1.815  0.0024 -0.4201 -0.6177
   79MOL0     C10818   8.133   3.058   1.811  0.5719  0.8813 -0.0004
   79MOL0     C10819   8.462   2.802   1.991  0.6226 -0.1472  0.0255
   79MOL0     C10820   8.554   2.818   1.883  0.2617  0.1154 -0.8405
   79MOL0     C10821   8.684   2.811   1.906  0.3706  0.6096 -0.0237
   79MOL0     C10822   8.736   2.807   2.038  0.7112  0.0434 -0.8657
   79MOL0     O10823   8.869   2.816   2.065  0.6500  0.5034  0.5293
   79MOL0     C10824   8.931   2.946   2.043 -0.3341  0.5664 -0.5756
   79MOL0     C10825   9.064   2.970   2.126 -0.7506 -0.1790  0.3379
   79MOL0     C10826   9.150   2.841   2.165  0.4002 -0.1559 -0.2611
   79MOL0     C10827   9.204   2.768   2.044 -0.6352 -0.6968 -0.1571
   79MOL0     C10828   9.235   2.851   1.926  0.8917 -0.1695 -0.3149
   79MOL0     C10829   9.258   2.903   1.827  0.4241 -1.0975  0.5423
   79MOL0     C10830   8.643   2.792   2.147 -0.0600 -0.0467  0.2273
   79MOL0     C10831   8.506   2.792   2.123 -1.3537  0.2430  0.0397
   79MOL0     C10832   8.417   2.768   2.248 -0.1917  0.4231 -0.1746
   79MOL0     H10833   8.055   2.718   1.826  0.3723 -0.2136 -3.3833
   79MOL0     H10834   7.831   2.794   1.831  1.2496 -1.3655  3.0743
   79MOL0     H10835   7.785   3.254   1.809 -0.2020 -0.4611  0.5257
   79MOL0     H10836   7.623   3.210   1.767  1.2364 -0.2888  4.7856
   79MOL0     H10837   7.839   3.139   1.573  0.5552  1.3624 -0.5571
   79MOL0     H10838   7.670   3.148   1.539  0.4234 -1.0565 -1.2597
   79MOL0     H10839   7.847   3.395   1.595 -1.7370  2.2549  1.4222
   79MOL0     H10840   7.782   3.348   1.437  0.3309 -0.1904  0.2336
   79MOL0     H10841   7.565   3.403   1.499 -0.7522  1.6621 -0.2243
   79MOL0     H10842   7.623   3.408   1.682  1.4503  2.2272  0.2721
   79MOL0     H10843   7.746   3.599   1.656 -0.0417  0.8669 -0.2389
   79MOL0     H10844   7.583   3.632   1.600 -1.3651 -2.8273  1.4323
   79MOL0     H10845   7.840   3.584   1.451  1.0186  0.2917  0.6970
   79MOL0     H10846   7.680   3.607   1.371 -0.8072 -1.9595  2.0768
   79MOL0     H10847   7.815   3.816   1.361  0.1791  0.3803  0.1049
   79MOL0     H10848   7.827   3.804   1.547 -2.0983  3.8994  0.8967
   79MOL0     H10849   7.574   3.854   1.542 -1.6022  2.7386 -0.8499
   79MOL0     H10850   7.657   3.968   1.437 -1.2083 -0.0755 -1.1806
   79MOL0     H10851   7.389   3.711   1.435 -1.0389  0.8750 -0.6149
   79MOL0     H10852   7.281   3.555   1.203  0.9332 -0.8653 -0.9341
   79MOL0     H10853   7.304   3.629   1.044  0.0299 -1.8551  0.3024
   79MOL0     H10854   7.122   3.729   1.260  1.8801 -0.3512  0.4143
   79MOL0     H10855   7.197   3.836   1.133 -1.3081  0.2863  0.7164
   79MOL0     H10856   6.963   3.755   1.098  0.8036  1.9563  0.5045
   79MOL0     H10857   7.083   3.699   0.978  4.5645  0.7189  2.2307
   79MOL0     H10858   7.080   3.473   1.094 -2.5136 -1.1594 -1.2779
   79MOL0     H10859   6.998   3.551   1.226 -1.0326 -0.5092  0.0453
   79MOL0     H10860   6.837   3.273   0.939  0.6283  4.7446 -1.5317
   79MOL0     H10861   6.657   2.996   1.068 -0.1197 -0.5384 -0.3571
   79MOL0     H10862   6.767   3.050   0.950  0.0382 -0.9384 -0.5465
   79MOL0     H10863   6.590   3.080   0.926  0.4244 -3.8346  0.4244
   79MOL0     H10864   6.267   3.179   1.547  2.0587  0.4010  0.1470
   79MOL0     H10865   6.126   3.012   1.655  0.6115  2.1576  1.2984
   79MOL0     H10866   6.038   2.680   1.540 -2.0117 -4.0264  0.3914
   79MOL0     H10867   6.188   2.579   1.563  0.5916  0.7332  1.4891
   79MOL0     H10868   6.120   2.534   1.790 -2.1279 -1.9073 -0.9171
   79MOL0     H10869   5.989   2.644   1.786 -1.1557 -2.5336  2.9930
   79MOL0     H10870   6.032   2.396   1.606  1.4255 -2.0835  3.1109
   79MOL0     H10871   5.881   2.492   1.611 -1.2693 -1.2178  0.2991
   79MOL0     H10872   5.839   2.447   1.846 -0.2889  0.4870 -0.7122
   79MOL0     H10873   5.995   2.362   1.867 -1.0474 -3.1775  1.8344
   79MOL0     H10874   5.766   2.226   1.857 -1.0950 -3.6669 -1.2126
   79MOL0     H10875   5.745   2.290   1.704  2.5568  0.9363 -1.9774
   79MOL0     H10876   5.996   2.124   1.747 -0.2452 -2.9335  1.0433
   79MOL0     H10877   5.923   2.171   1.597  1.9491 -0.6045 -0.0879
   79MOL0     H10878   5.865   1.935   1.638 -2.1283  0.5705 -1.0112
   79MOL0     H10879   5.715   2.026   1.658 -0.0243 -1.3633 -0.4195
   79MOL0     H10880   5.729   1.864   1.846  1.0258 -0.2660  5.1429
   79MOL0     H10881   5.732   2.030   1.903 -0.9379  0.5341 -1.5207
   79MOL0     H10882   6.380   2.701   1.506 -0.4869  0.6230  0.0851
   79MOL0     H10883   6.537   2.853   1.404 -0.6807 -0.1558 -0.7461
   79MOL0     H10884   6.601   3.380   1.367 -2.3034  0.8334 -1.0977
   79MOL0     H10885   6.755   3.543   1.257  1.0400 -1.1960  0.7010
   79MOL0     H10886   7.987   3.203   1.814 -1.8054 -0.3740  2.8499
   79MOL0     H10887   8.211   3.134   1.814 -1.0702  2.6401  0.6724
   79MOL0     H10888   8.527   2.828   1.779 -1.0073  0.1541 -0.5312
   79MOL0     H10889   8.754   2.805   1.824  0.0807  0.2388 -0.2481
   79MOL0     H10890   8.951   2.964   1.937 -1.1023  2.1548 -0.4758
   79MOL0     H10891   8.858   3.025   2.063 -0.7628 -0.4848  2.5776
   79MOL0     H10892   9.036   3.011   2.224 -1.6226  0.2266 -0.0688
   79MOL0     H10893   9.133   3.030   2.067 -4.2250 -0.6709 -4.8927
   79MOL0     H10894   9.227   2.871   2.236 -1.1141 -1.0620  1.8823
   79MOL0     H10895   9.091   2.775   2.229 -3.7908  1.5370 -2.0217
   79MOL0     H10896   9.131   2.693   2.011 -0.0092 -0.2849 -2.6699
   79MOL0     H10897   9.288   2.703   2.070 -0.2821 -0.9891 -1.9011
   79MOL0     H10898   9.269   2.945   1.729  2.0282 -0.6060  0.9016
   79MOL0     H10899   8.681   2.773   2.246 -3.3726  1.4651  1.9521
   79MOL0     H10900   8.324   2.825   2.235 -0.4082 -0.4923 -3.6768
   79MOL0     H10901   8.384   2.664   2.253 -1.7606  0.7377 -2.3410
   79MOL0     H10902   8.471   2.807   2.335 -3.4404 -1.0731  2.7612
   80MOL0     O10903   4.931  10.279   9.259 -0.4925  0.3037  0.0087
   80MOL0     C10904   4.847  10.334   9.334 -1.0043 -0.3338  0.7559
   80MOL0     O10905   4.831  10.308   9.464  0.2832 -0.9662 -0.9096
   80MOL0     C10906   4.940  10.331   9.548  1.2453 -0.7612 -0.0560
   80MOL0     C10907   5.073  10.362   9.518  0.0153  0.3434  1.1348
   80MOL0     C10908   5.176  10.370   9.608  0.1339  0.9661 -0.6862
   80MOL0     C10909   5.147  10.327   9.743 -0.0700  0.5491  0.6622
   80MOL0     O10910   5.263  10.312   9.823 -0.6159 -0.7840 -0.2069
   80MOL0     C10911   5.265  10.395   9.942  0.8076  0.0176 -0.2242
   80MOL0     C10912   5.350  10.526   9.912 -0.4319 -0.1697 -0.0564
   80MOL0     C10913   5.359  10.620  10.027 -0.2769 -1.3845 -1.0574
   80MOL0     C10914   5.381  10.760   9.975  0.2496  0.4018  0.1880
   80MOL0     C10915   5.533  10.781   9.948  1.0304  0.6271 -0.6540
   80MOL0     C10916   5.564  10.923   9.898 -1.0585  0.3123 -0.4403
   80MOL0     C10917   5.711  10.938   9.889 -0.8927 -0.0584  0.9782
   80MOL0     C10918   5.773  10.871   9.764 -0.0215 -0.7537  0.8414
   80MOL0     N10919   5.873  10.775   9.814 -0.0895  0.0063  0.2212
   80MOL0     C10920   5.994  10.812   9.856 -0.0528 -0.0297 -0.2551
   80MOL0     C10921   6.041  10.700   9.905 -0.6798  1.0299 -1.0842
   80MOL0     C10922   6.178  10.668   9.954  0.9325  0.2906 -0.3492
   80MOL0     C10923   6.252  10.582   9.840  0.4188  1.1621 -1.3075
   80MOL0     C10924   6.265  10.653   9.705 -0.5148 -0.7279 -0.2472
   80MOL0     C10925   6.388  10.623   9.623 -0.1483  0.8432  0.4024
   80MOL0     O10926   6.397  10.481   9.625  0.1462  0.0211  0.9559
   80MOL0     C10927   6.513  10.430   9.568  0.7913  0.5337 -0.5095
   80MOL0     C10928   6.543  10.303   9.625  0.5103 -0.0566 -0.7057
   80MOL0     C10929   6.649  10.233   9.577 -0.2602  0.0768 -0.0424
   80MOL0     C10930   6.688  10.097   9.646 -1.1656 -0.7266  0.0540
   80MOL0     C10931   6.729  10.288   9.476  0.6638 -0.3704 -0.2360
   80MOL0     C10932   6.854  10.219   9.431  0.0225  0.0287 -0.0623
   80MOL0     O10933   6.854  10.160   9.306  0.6375 -0.1272 -0.4870
   80MOL0     C10934   6.954  10.085   9.261  0.0934 -0.4107 -0.7449
   80MOL0     C10935   6.966   9.956   9.296 -0.6817  0.0808 -0.4001
   80MOL0     C10936   7.064   9.880   9.236 -0.0357 -0.5226 -0.2152
   80MOL0     C10937   7.160   9.940   9.151  0.3257 -0.8221  0.2912
   80MOL0     O10938   7.264   9.869   9.082  0.1788  0.1641  0.4664
   80MOL0     C10939   7.263   9.731   9.109  0.6341 -0.5879  0.3434
   80MOL0     C10940   7.362   9.642   9.030 -0.8105 -0.0403  1.3016
   80MOL0     C10941   7.497   9.695   9.074  0.4398 -0.4518 -1.1016
   80MOL0     C10942   7.618   9.630   9.002  0.3334  0.1346 -0.4202
   80MOL0     C10943   7.749   9.650   9.084 -0.1483 -0.2299  0.3602
   80MOL0     C10944   7.778   9.555   9.203  0.9022 -0.1608  0.2868
   80MOL0     C10945   7.752   9.414   9.173  0.5177  0.6888  1.2983
   80MOL0     C10946   7.813   9.358   9.047 -0.1512 -0.5992 -0.7149
   80MOL0    Cl10947   7.776   9.182   9.060 -0.2294 -0.0498  0.4069
   80MOL0     C10948   7.148  10.070   9.112 -0.4856 -0.6664 -0.5155
   80MOL0     C10949   7.044  10.143   9.171 -0.4945  0.6943 -0.2651
   80MOL0     O10950   6.949  10.215   9.509  0.9713  0.5644  0.0066
   80MOL0     C10951   6.705  10.414   9.423  0.0872 -0.5718 -0.5436
   80MOL0     C10952   6.592  10.491   9.471  0.5493  0.5541  0.2435
   80MOL0     N10953   5.940  10.605   9.915 -0.8999 -0.3304 -0.9046
   80MOL0     N10954   5.844  10.649   9.844  0.1462 -0.0321  0.2453
   80MOL0     C10955   5.020  10.288   9.779 -0.0682  0.6709 -1.4187
   80MOL0     C10956   4.918  10.305   9.687  0.5765  0.0267  0.6424
   80MOL0     C10957   4.743  10.420   9.263  0.1497  1.1335  0.4052
   80MOL0     C10958   4.763  10.443   9.126  0.7943  0.5508 -1.2068
   80MOL0     C10959   4.669  10.514   9.051 -0.6543 -0.8480  0.6302
   80MOL0     C10960   4.547  10.552   9.107 -0.2179  0.4756 -0.0824
   80MOL0     O10961   4.462  10.590   9.012 -0.0417 -0.2671  0.0792
   80MOL0     C10962   4.327  10.634   9.057  0.2982 -1.5146 -0.3207
   80MOL0     C10963   4.258  10.688   8.932  1.1256  0.0636  0.7783
   80MOL0     C10964   4.108  10.730   8.943  0.4570  0.1834 -0.5354
   80MOL0     C10965   4.018  10.604   8.942 -0.8087  0.4093 -0.7156
   80MOL0     C10966   4.002  10.539   9.068 -0.4005  0.2770  0.9877
   80MOL0     C10967   3.999  10.468   9.167 -0.4594  0.4320  0.9113
   80MOL0     C10968   4.521  10.520   9.237  0.0391  0.0460  0.6062
   80MOL0     C10969   4.619  10.462   9.319  0.3344  0.0890  1.0183
   80MOL0     C10970   4.581  10.444   9.469  0.0474 -0.2823 -0.2185
   80MOL0     H10971   5.102  10.382   9.416  1.8137  3.6725  2.1220
   80MOL0     H10972   5.278  10.386   9.572  1.4127  0.3360  2.3300
   80MOL0     H10973   5.306  10.341  10.028 -0.1394  2.0543  1.6122
   80MOL0     H10974   5.163  10.429   9.961  1.2954  1.8756 -0.7556
   80MOL0     H10975   5.450  10.506   9.871  0.1674  2.3124  0.0695
   80MOL0     H10976   5.304  10.577   9.828  1.6084 -1.3339 -1.9895
   80MOL0     H10977   5.258  10.615  10.069  0.4225 -2.7671  0.5836
   80MOL0     H10978   5.431  10.596  10.106 -0.5877 -1.1226 -0.6869
   80MOL0     H10979   5.320  10.770   9.885 -4.1961 -3.1049  2.4207
   80MOL0     H10980   5.342  10.835  10.045 -1.0271 -0.6201  0.6060
   80MOL0     H10981   5.560  10.710   9.870 -0.6543  0.4326 -1.0831
   80MOL0     H10982   5.585  10.769  10.044  1.3926 -3.7282 -1.2156
   80MOL0     H10983   5.517  10.935   9.800 -0.1653 -0.7250 -1.0262
   80MOL0     H10984   5.520  10.998   9.963  0.3681 -0.3347  1.3528
   80MOL0     H10985   5.767  10.907   9.978 -0.1746 -1.1769  0.1699
   80MOL0     H10986   5.718  11.047   9.880 -2.1263 -0.0540 -0.2697
   80MOL0     H10987   5.697  10.825   9.699 -0.9242  2.2393 -0.3888
   80MOL0     H10988   5.829  10.933   9.694 -0.3287  1.5503  2.5274
   80MOL0     H10989   6.042  10.909   9.851  1.0110 -0.2471  3.1291
   80MOL0     H10990   6.176  10.609  10.046  1.9945  2.4637  1.1597
   80MOL0     H10991   6.229  10.759   9.986  0.9661  0.3087 -0.4560
   80MOL0     H10992   6.351  10.555   9.877 -0.8515 -2.3960 -0.0581
   80MOL0     H10993   6.206  10.484   9.831  6.4126 -2.4228  1.0744
   80MOL0     H10994   6.183  10.626   9.637  0.4843 -1.3562 -1.2296
   80MOL0     H10995   6.273  10.760   9.727  2.5982 -1.3112  2.1817
   80MOL0     H10996   6.385  10.649   9.517 -1.7011 -1.8405 -0.3079
   80MOL0     H10997   6.479  10.656   9.674 -1.1943  0.6087  2.5181
   80MOL0     H10998   6.487  10.252   9.703 -3.5558  2.2060 -1.8430
   80MOL0     H10999   6.722  10.016   9.580 -1.7763 -1.4701  0.6413
   80MOL0     H11000   6.600  10.061   9.700 -1.6552  3.3864  2.3638
   80MOL0     H11001   6.760  10.117   9.725 -3.3991 -0.2045  2.0499
   80MOL0     H11002   6.895   9.908   9.363 -0.7321 -1.6847 -1.6333
   80MOL0     H11003   7.068   9.781   9.281  3.5839  0.5880  2.3485
   80MOL0     H11004   7.287   9.705   9.212 -0.2167  0.2926  0.7860
   80MOL0     H11005   7.161   9.699   9.084  1.5726 -2.3307 -1.5591
   80MOL0     H11006   7.345   9.539   9.062  1.9826 -1.1306 -0.3909
   80MOL0     H11007   7.355   9.644   8.921  0.5088 -3.9112  1.0018
   80MOL0     H11008   7.513   9.690   9.182 -3.2520  1.8083 -0.2772
   80MOL0     H11009   7.508   9.802   9.054  0.7141  0.1741  1.8867
   80MOL0     H11010   7.634   9.683   8.907 -0.1387  2.8129  0.9147
   80MOL0     H11011   7.599   9.523   8.990 -0.5566 -0.0368  1.9541
   80MOL0     H11012   7.826   9.638   9.008  0.1886  2.1712  0.2424
   80MOL0     H11013   7.769   9.755   9.108  0.0578 -0.0807 -0.4459
   80MOL0     H11014   7.703   9.576   9.281 -0.1101 -2.5840  0.0532
   80MOL0     H11015   7.874   9.571   9.253  0.3655  3.4436  0.4807
   80MOL0     H11016   7.644   9.406   9.160  0.7113 -4.8936  0.3796
   80MOL0     H11017   7.789   9.349   9.253  3.8524  0.9004  0.1093
   80MOL0     H11018   7.918   9.389   9.053 -0.1200 -0.7636 -0.3696
   80MOL0     H11019   7.786   9.387   8.945  0.9666 -0.6667 -1.0425
   80MOL0     H11020   7.216  10.111   9.038 -2.1571  1.3054 -1.0426
   80MOL0     H11021   7.026  10.244   9.136 -0.2831  0.7720 -0.1528
   80MOL0     H11022   6.770  10.455   9.347 -0.4101 -0.6510 -1.0189
   80MOL0     H11023   6.561  10.581   9.419 -1.8156 -0.3343 -0.0146
   80MOL0     H11024   4.991  10.259   9.880  2.3337  1.3962 -0.4405
   80MOL0     H11025   4.823  10.264   9.721 -0.6497  2.9983  1.0803
   80MOL0     H11026   4.839  10.394   9.066  1.6874  0.4257 -0.0019
   80MOL0     H11027   4.697  10.539   8.949  1.7210  0.3484  1.5191
   80MOL0     H11028   4.268  10.556   9.106 -3.6824  0.9629 -0.7659
   80MOL0     H11029   4.344  10.718   9.125  1.3113 -0.8156 -1.3942
   80MOL0     H11030   4.274  10.629   8.842 -0.2173 -1.6064  1.5546
   80MOL0     H11031   4.306  10.783   8.908 -0.1183  0.5757  0.1856
   80MOL0     H11032   4.071  10.786   9.029 -3.0413 -0.9885 -1.1224
   80MOL0     H11033   4.076  10.796   8.862 -0.3856 -1.3367 -1.5055
   80MOL0     H11034   4.054  10.533   8.867  2.6366  0.8904  0.3182
   80MOL0     H11035   3.918  10.628   8.904 -0.0250  0.6251 -2.7865
   80MOL0     H11036   4.007  10.411   9.258  0.7864  0.8801  1.1012
   80MOL0     H11037   4.425  10.549   9.280  0.1872 -0.0679  1.0152
   80MOL0     H11038   4.654  10.501   9.528  0.1729  1.5520 -2.0350
   80MOL0     H11039   4.478  10.472   9.493  0.0447 -0.5217  0.0509
   80MOL0     H11040   4.602  10.342   9.502  2.8074  0.2756  0.0494
   81MOL0     O11041   2.082   0.896   3.677 -0.1451 -0.0520  0.7365
   81MOL0     C11042   2.026   0.860   3.569 -0.9854 -0.9273 -0.3024
   81MOL0     O11043   2.084   0.877   3.442 -0.5946 -0.2102 -0.1170
   81MOL0     C11044   2.198   0.942   3.420 -0.0477 -0.0563 -0.7186
   81MOL0     C11045   2.276   0.894   3.336 -0.5519 -0.5271  0.3313
   81MOL0     C11046   2.397   0.953   3.298  0.7744  0.0585  0.0096
   81MOL0     C11047   2.430   1.087   3.339 -0.3666 -0.3864 -0.6768
   81MOL0     O11048   2.552   1.133   3.296 -0.0081 -0.2994 -0.4298
   81MOL0     C11049   2.584   1.265   3.336 -0.0788  1.0142 -0.6534
   81MOL0     C11050   2.710   1.313   3.285 -1.2152  0.4250  1.4157
   81MOL0     C11051   2.716   1.334   3.133 -0.3493 -0.7506  1.0648
   81MOL0     C11052   2.852   1.397   3.105 -0.4313 -0.4492  0.3274
   81MOL0     C11053   2.965   1.287   3.095  0.3376  0.0111  0.9990
   81MOL0     C11054   3.075   1.317   2.992  0.9025 -0.0099  0.0502
   81MOL0     C11055   3.176   1.199   3.005 -0.8663 -1.1597 -0.2339
   81MOL0     C11056   3.310   1.278   3.021  0.2938 -0.4361 -0.2157
   81MOL0     N11057   3.421   1.192   2.994 -0.3339  0.4672 -0.5164
   81MOL0     C11058   3.484   1.113   3.081  0.1607  0.0277  0.1108
   81MOL0     C11059   3.570   1.038   3.009 -0.3821  0.0048  0.7921
   81MOL0     C11060   3.668   0.925   3.036  1.0645 -0.7112  0.6715
   81MOL0     C11061   3.612   0.794   2.984 -0.8270 -0.6658 -0.0104
   81MOL0     C11062   3.696   0.676   3.035 -1.6785 -0.5269  0.8438
   81MOL0     C11063   3.633   0.541   3.037  0.7673 -0.5188 -1.2397
   81MOL0     O11064   3.747   0.452   3.071  0.4077 -0.5596  0.2525
   81MOL0     C11065   3.752   0.322   3.029 -0.8343  0.6038 -0.2161
   81MOL0     C11066   3.866   0.247   3.025 -0.3037  0.3340 -0.7433
   81MOL0     C11067   3.883   0.116   2.985  0.4032  0.1566 -0.4446
   81MOL0     C11068   4.018   0.053   2.975 -0.5316 -0.1443  0.8533
   81MOL0     C11069   3.763   0.052   2.937  0.2343  0.1504  0.1512
   81MOL0     C11070   3.769  -0.079   2.873 -0.0221  0.2649 -0.7628
   81MOL0     O11071   3.855  -0.106   2.774 -0.0869 -0.7075 -0.6685
   81MOL0     C11072   3.832  -0.205   2.681  0.2885 -0.0282 -0.3828
   81MOL0     C11073   3.917  -0.315   2.680  0.1130  0.6492  0.3509
   81MOL0     C11074   3.923  -0.397   2.569  0.5228 -0.4505 -0.3010
   81MOL0     C11075   3.851  -0.359   2.456  0.9259  0.6910  0.6488
   81MOL0     O11076   3.842  -0.427   2.330  0.4443 -0.1488 -0.1288
   81MOL0     C11077   3.740  -0.530   2.345 -0.9461  0.7457 -0.0355
   81MOL0     C11078   3.757  -0.629   2.224 -0.2787  0.1991  0.2925
   81MOL0     C11079   3.655  -0.748   2.232 -0.8893 -0.2368 -0.9457
   81MOL0     C11080   3.692  -0.876   2.151  0.5475  0.4770  0.0416
   81MOL0     C11081   3.605  -0.912   2.020 -1.0630 -0.9086 -0.0819
   81MOL0     C11082   3.663  -0.821   1.899 -0.6998  0.8486  0.7163
   81MOL0     C11083   3.617  -0.874   1.766  0.8859 -0.0674 -0.1284
   81MOL0     C11084   3.484  -0.941   1.755 -0.3173  0.6872 -0.5926
   81MOL0    Cl11085   3.342  -0.836   1.806  0.1840  0.0300  0.0502
   81MOL0     C11086   3.764  -0.253   2.462  0.5566  0.3258 -0.4384
   81MOL0     C11087   3.763  -0.171   2.568  0.3202 -0.1580  0.9238
   81MOL0     O11088   3.692  -0.157   2.917 -0.0977  0.3403  0.1977
   81MOL0     C11089   3.641   0.118   2.947  0.0367 -0.1694  1.1462
   81MOL0     C11090   3.644   0.254   2.977  0.5601 -0.2134  0.2720
   81MOL0     N11091   3.534   1.056   2.877  0.0800 -0.1588 -0.4643
   81MOL0     N11092   3.453   1.153   2.868 -0.3778  0.1267  0.0877
   81MOL0     C11093   2.331   1.134   3.433  0.3993  0.0817  0.2800
   81MOL0     C11094   2.219   1.059   3.475 -0.9494 -1.2083  0.0573
   81MOL0     C11095   1.887   0.817   3.560 -0.3778  0.8792  0.2478
   81MOL0     C11096   1.784   0.908   3.529 -0.1397  0.1730 -0.5582
   81MOL0     C11097   1.655   0.863   3.521 -0.5909  0.1567 -0.0440
   81MOL0     C11098   1.632   0.728   3.529  0.0847 -0.3757 -0.5828
   81MOL0     O11099   1.504   0.694   3.492  0.3223 -0.1279  0.6889
   81MOL0     C11100   1.479   0.558   3.466  0.5430 -1.2541  0.1177
   81MOL0     C11101   1.350   0.541   3.390  0.0517 -0.2218  0.7181
   81MOL0     C11102   1.230   0.565   3.487  0.4354 -0.4736  0.3005
   81MOL0     C11103   1.189   0.716   3.478  0.2476 -0.2483  0.8068
   81MOL0     C11104   1.122   0.754   3.354 -0.3863 -0.2036  0.3910
   81MOL0     C11105   1.072   0.799   3.252  0.0089 -0.0100  0.3977
   81MOL0     C11106   1.732   0.637   3.549  0.0020  0.8399 -0.1190
   81MOL0     C11107   1.859   0.676   3.582  0.4857 -0.5330  0.8536
   81MOL0     C11108   1.951   0.570   3.639 -0.1706  0.2046  0.0255
   81MOL0     H11109   2.238   0.798   3.304 -0.7967 -1.0100  1.9696
   81MOL0     H11110   2.460   0.900   3.228  2.9372  0.0789  1.8285
   81MOL0     H11111   2.584   1.274   3.445  0.4574  0.8231 -0.6392
   81MOL0     H11112   2.515   1.340   3.295 -1.6003 -1.1555 -2.3139
   81MOL0     H11113   2.738   1.406   3.335  0.8553  1.0965 -0.8239
   81MOL0     H11114   2.787   1.243   3.319 -0.4665  0.4774 -0.1081
   81MOL0     H11115   2.705   1.238   3.083 -0.3567 -0.1771 -0.0666
   81MOL0     H11116   2.646   1.408   3.093  0.2468 -2.6010 -4.1428
   81MOL0     H11117   2.846   1.441   3.004 -0.3729 -0.4636  0.3179
   81MOL0     H11118   2.878   1.466   3.185 -3.1250  2.2724 -0.9243
   81MOL0     H11119   2.914   1.199   3.056  1.7620 -0.1596 -0.5901
   81MOL0     H11120   3.007   1.270   3.195  0.1555 -1.4760  0.8415
   81MOL0     H11121   3.030   1.323   2.893 -2.1963  0.4675  1.3576
   81MOL0     H11122   3.107   1.419   3.015 -0.2156 -0.7552  7.5587
   81MOL0     H11123   3.183   1.137   2.916  0.4453 -0.7157 -0.4564
   81MOL0     H11124   3.170   1.128   3.089 -4.4312  1.7178  2.2874
   81MOL0     H11125   3.313   1.367   2.958  2.4024 -0.5872 -0.4009
   81MOL0     H11126   3.317   1.307   3.126 -1.1767  1.7708 -0.6680
   81MOL0     H11127   3.479   1.133   3.188 -2.4959  0.9347 -0.0954
   81MOL0     H11128   3.690   0.927   3.143 -0.1010  0.9497  0.9164
   81MOL0     H11129   3.762   0.939   2.983  1.2771 -0.9644  0.9787
   81MOL0     H11130   3.510   0.782   3.019 -0.6473  1.1687  1.3084
   81MOL0     H11131   3.605   0.795   2.875 -3.2290  0.4887  0.1015
   81MOL0     H11132   3.771   0.680   2.955  1.7273  3.3957  3.8166
   81MOL0     H11133   3.751   0.703   3.125 -2.3204 -0.8994  1.3523
   81MOL0     H11134   3.556   0.549   3.115  0.4294  0.8422 -1.6935
   81MOL0     H11135   3.581   0.508   2.947  1.1308 -3.7437 -0.4110
   81MOL0     H11136   3.952   0.295   3.071 -0.5579 -0.3705  0.5387
   81MOL0     H11137   4.042   0.038   2.869 -1.6341  1.5095  0.3371
   81MOL0     H11138   4.012  -0.037   3.037 -1.0822  1.1061  2.6909
   81MOL0     H11139   4.089   0.120   3.024 -1.9996  1.7101  0.5221
   81MOL0     H11140   3.978  -0.329   2.768  2.2088 -0.2207 -1.1823
   81MOL0     H11141   3.977  -0.490   2.580  1.6054  0.2915  1.0625
   81MOL0     H11142   3.739  -0.574   2.445 -1.5699  0.9032  0.0301
   81MOL0     H11143   3.644  -0.484   2.318 -0.6716  1.5646  0.3525
   81MOL0     H11144   3.751  -0.582   2.125 -2.5255 -3.2369 -1.3939
   81MOL0     H11145   3.857  -0.674   2.229  0.7238  1.5193 -3.6016
   81MOL0     H11146   3.564  -0.701   2.193 -0.7119  0.6893 -0.2999
   81MOL0     H11147   3.639  -0.768   2.338 -0.2129  2.7210 -0.1858
   81MOL0     H11148   3.675  -0.956   2.223 -0.4075  1.1573  0.5974
   81MOL0     H11149   3.800  -0.871   2.134  1.0404 -0.2680  2.5490
   81MOL0     H11150   3.621  -1.018   2.000 -0.7711 -1.0563  0.8435
   81MOL0     H11151   3.500  -0.888   2.034 -0.2703  3.5964 -0.2152
   81MOL0     H11152   3.772  -0.819   1.905 -0.5475 -1.6158 -0.2104
   81MOL0     H11153   3.628  -0.718   1.908 -1.0012  0.6374  2.4198
   81MOL0     H11154   3.691  -0.951   1.743  2.0166  1.1661 -0.7771
   81MOL0     H11155   3.629  -0.798   1.688 -1.0132 -1.4923 -1.9375
   81MOL0     H11156   3.482  -1.025   1.826  1.1949  1.8690  0.9337
   81MOL0     H11157   3.461  -0.977   1.655 -3.1931  2.1403 -0.5343
   81MOL0     H11158   3.705  -0.235   2.372  0.5243 -2.1905 -1.0046
   81MOL0     H11159   3.686  -0.094   2.566 -2.9952 -3.1051 -3.2789
   81MOL0     H11160   3.544   0.074   2.925 -1.4605  1.9507  3.0612
   81MOL0     H11161   3.546   0.298   2.971  1.9131  2.8927 -2.4878
   81MOL0     H11162   2.342   1.237   3.464 -0.3693  0.0289  0.7419
   81MOL0     H11163   2.150   1.119   3.533  1.5274  0.9531  0.9672
   81MOL0     H11164   1.800   1.014   3.518  0.3470  0.4791  2.4339
   81MOL0     H11165   1.574   0.924   3.484 -1.1666 -0.3598  0.3566
   81MOL0     H11166   1.560   0.523   3.400 -0.4009  0.3310 -1.9860
   81MOL0     H11167   1.486   0.507   3.562  1.8525 -1.1760  0.0929
   81MOL0     H11168   1.337   0.440   3.351  0.1271  0.7392 -2.0067
   81MOL0     H11169   1.339   0.618   3.314 -1.4183  2.5439  3.4823
   81MOL0     H11170   1.145   0.497   3.483  2.7350 -3.7268  1.9775
   81MOL0     H11171   1.262   0.555   3.591 -1.0146  0.1526  0.8313
   81MOL0     H11172   1.275   0.784   3.484  1.6769 -2.0805  3.2253
   81MOL0     H11173   1.133   0.734   3.570 -0.1053  1.5073  0.2818
   81MOL0     H11174   1.030   0.860   3.175  0.9186 -1.7190 -1.5586
   81MOL0     H11175   1.706   0.532   3.553  0.6091  0.7176  1.1057
   81MOL0     H11176   2.045   0.561   3.584  0.4713  3.4556  0.3717
   81MOL0     H11177   1.987   0.602   3.738  2.1119 -2.9372  0.3568
   81MOL0     H11178   1.904   0.472   3.638  0.1247  0.0552 -1.0992
   82MOL0     O11179   2.756   1.887   5.337 -0.3010  0.3187 -0.4791
   82MOL0     C11180   2.684   1.960   5.398  0.3953  0.2992  0.0445
   82MOL0     O11181   2.615   2.067   5.354 -0.1572 -0.0038  0.0472
   82MOL0     C11182   2.558   2.063   5.227  0.3380  0.3276 -1.5503
   82MOL0     C11183   2.484   1.963   5.164 -0.3930  1.0264 -0.7248
   82MOL0     C11184   2.422   1.992   5.044  0.1590  0.5188 -0.4769
   82MOL0     C11185   2.421   2.129   4.989  0.4248  0.8371 -0.2140
   82MOL0     O11186   2.346   2.157   4.880  0.3022 -0.7898  0.3216
   82MOL0     C11187   2.437   2.182   4.773 -0.7605 -0.3658  0.2639
   82MOL0     C11188   2.360   2.188   4.644  0.1242  0.3220 -0.0129
   82MOL0     C11189   2.448   2.188   4.518  0.1171 -0.3821  0.8215
   82MOL0     C11190   2.372   2.227   4.397 -1.5180  0.7331 -0.6554
   82MOL0     C11191   2.449   2.219   4.260  0.2184 -0.7357 -0.5690
   82MOL0     C11192   2.373   2.299   4.153 -0.6946  0.4654 -0.2273
   82MOL0     C11193   2.452   2.315   4.016 -0.0738 -0.2441 -0.5750
   82MOL0     C11194   2.425   2.441   3.937 -0.3419  0.0037  0.6891
   82MOL0     N11195   2.280   2.440   3.901 -0.0891 -0.9032  0.6886
   82MOL0     C11196   2.187   2.533   3.949 -0.6991 -0.9096  0.1331
   82MOL0     C11197   2.072   2.503   3.884 -0.4920 -0.1650 -0.3885
   82MOL0     C11198   1.937   2.572   3.878  0.4520  0.0279  0.1838
   82MOL0     C11199   1.823   2.496   3.939 -1.0227 -0.2382  0.2263
   82MOL0     C11200   1.834   2.485   4.090  0.3186  0.1185  0.3737
   82MOL0     C11201   1.778   2.354   4.129 -0.1441  0.3677 -0.8088
   82MOL0     O11202   1.647   2.349   4.074  0.9865  0.0790 -0.0833
   82MOL0     C11203   1.547   2.289   4.151  0.3377 -0.1432  0.0029
   82MOL0     C11204   1.411   2.327   4.132  0.1818  1.0068 -0.6300
   82MOL0     C11205   1.308   2.269   4.206  0.9984 -1.2986  0.6618
   82MOL0     C11206   1.169   2.321   4.156  0.0036 -0.6065  1.0421
   82MOL0     C11207   1.330   2.176   4.303 -0.7813  0.0698 -0.4532
   82MOL0     C11208   1.224   2.096   4.365 -0.8760  0.0130 -0.6282
   82MOL0     O11209   1.258   2.016   4.470  0.6187 -0.1934 -0.1276
   82MOL0     C11210   1.182   1.901   4.481 -0.8992 -0.2898 -0.3281
   82MOL0     C11211   1.109   1.882   4.601  0.8930 -1.0527 -0.0100
   82MOL0     C11212   1.025   1.771   4.612  0.6130  0.2322  0.2951
   82MOL0     C11213   1.013   1.673   4.515  0.3742  0.1527 -0.0893
   82MOL0     O11214   0.918   1.578   4.532 -0.0256  1.0176 -0.6135
   82MOL0     C11215   0.892   1.489   4.415  0.0827 -1.0824  0.2847
   82MOL0     C11216   0.782   1.401   4.456  0.0907 -0.3081  0.2407
   82MOL0     C11217   0.818   1.298   4.564 -0.1701  0.0619 -1.1123
   82MOL0     C11218   0.706   1.190   4.596  0.1720  0.1294  0.0662
   82MOL0     C11219   0.746   1.069   4.688  0.1734  0.9657 -0.0300
   82MOL0     C11220   0.812   0.964   4.609 -0.5749 -0.3068  0.4407
   82MOL0     C11221   0.821   0.830   4.684 -0.7375 -0.2799  0.4163
   82MOL0     C11222   0.959   0.811   4.742 -0.1227 -0.8168 -0.6992
   82MOL0    Cl11223   1.063   0.755   4.602 -0.1716  0.0511  0.0737
   82MOL0     C11224   1.086   1.685   4.401 -0.3998  0.1321 -0.2768
   82MOL0     C11225   1.173   1.798   4.390 -0.6162 -0.2880 -0.1816
   82MOL0     O11226   1.109   2.108   4.334  0.6191 -0.4050 -0.3303
   82MOL0     C11227   1.467   2.139   4.324  0.3682 -0.0316  0.3716
   82MOL0     C11228   1.570   2.193   4.249  0.1332 -0.2726 -0.2342
   82MOL0     N11229   2.093   2.389   3.813 -0.0006 -0.0110 -0.4598
   82MOL0     N11230   2.217   2.354   3.816 -0.3481  0.5250 -0.0074
   82MOL0     C11231   2.478   2.230   5.054  0.0763 -0.0498 -0.5058
   82MOL0     C11232   2.543   2.197   5.176 -0.5945 -0.5376 -1.0892
   82MOL0     C11233   2.692   1.948   5.538 -0.3240 -0.3955  0.4378
   82MOL0     C11234   2.675   1.816   5.596 -0.3214 -0.6507  0.0141
   82MOL0     C11235   2.657   1.802   5.736 -0.2162 -0.2537 -0.4804
   82MOL0     C11236   2.662   1.915   5.820 -0.0714  0.2856 -0.0651
   82MOL0     O11237   2.659   1.920   5.960  0.1042 -0.0169  0.4010
   82MOL0     C11238   2.609   1.806   6.032 -1.4020 -0.1380 -0.2003
   82MOL0     C11239   2.465   1.767   6.016 -0.3362  0.2105  0.2636
   82MOL0     C11240   2.358   1.875   6.009 -0.1689  0.2427  0.6497
   82MOL0     C11241   2.339   1.953   6.143 -0.3644  0.7936 -0.2436
   82MOL0     C11242   2.418   2.075   6.138  0.1288  0.4359  0.7584
   82MOL0     C11243   2.479   2.180   6.117 -0.5640  0.2513  0.2237
   82MOL0     C11244   2.679   2.036   5.768  0.2914 -0.0922  0.3891
   82MOL0     C11245   2.697   2.061   5.625 -0.1175  0.3368  0.8722
   82MOL0     C11246   2.711   2.209   5.573  0.8333  0.3326 -0.6919
   82MOL0     H11247   2.477   1.858   5.193 -0.9765  1.1490 -0.4190
   82MOL0     H11248   2.381   1.912   4.983  2.6236 -4.4586  3.6288
   82MOL0     H11249   2.509   2.099   4.781  0.8550  1.0555  1.1087
   82MOL0     H11250   2.491   2.276   4.786 -1.0134 -0.4449  2.1853
   82MOL0     H11251   2.297   2.098   4.646  0.3642 -0.0085 -3.0217
   82MOL0     H11252   2.305   2.282   4.654 -1.1987 -0.5791  1.6994
   82MOL0     H11253   2.505   2.281   4.522 -2.8296  1.6593 -0.5972
   82MOL0     H11254   2.494   2.089   4.518  1.3524  0.1468  2.4334
   82MOL0     H11255   2.279   2.171   4.393 -0.1629 -1.8538  0.9929
   82MOL0     H11256   2.345   2.333   4.405 -3.1399  0.6188 -3.4792
   82MOL0     H11257   2.475   2.115   4.236  2.0200 -0.6740  0.9105
   82MOL0     H11258   2.550   2.257   4.272 -0.2803  0.7093 -0.7456
   82MOL0     H11259   2.277   2.255   4.127 -0.5620  0.2694 -0.3889
   82MOL0     H11260   2.372   2.404   4.185 -0.3829 -0.3655  2.8917
   82MOL0     H11261   2.423   2.238   3.945 -3.6674 -0.6302  1.0637
   82MOL0     H11262   2.557   2.300   4.042 -0.7163 -0.8810  1.9630
   82MOL0     H11263   2.445   2.525   4.004  2.1645  1.8779 -2.1836
   82MOL0     H11264   2.478   2.445   3.842  2.0033  3.0534  1.9663
   82MOL0     H11265   2.198   2.627   4.002  2.9208 -0.7401 -0.6694
   82MOL0     H11266   1.903   2.582   3.774 -3.2713 -0.8007  1.1639
   82MOL0     H11267   1.953   2.667   3.930 -0.5649  1.3361 -1.7443
   82MOL0     H11268   1.731   2.543   3.901 -0.2179 -0.5671 -2.3159
   82MOL0     H11269   1.830   2.396   3.895 -0.4507  0.7637 -2.1198
   82MOL0     H11270   1.939   2.489   4.120 -0.0055  2.0579  1.3752
   82MOL0     H11271   1.793   2.574   4.138  1.0480 -0.3626  1.9816
   82MOL0     H11272   1.844   2.273   4.096  0.2763  0.6852 -0.7460
   82MOL0     H11273   1.771   2.345   4.238  1.5154  0.4546 -0.6695
   82MOL0     H11274   1.385   2.404   4.061  0.3933  1.7253  0.0620
   82MOL0     H11275   1.185   2.386   4.070 -1.2793  2.3651  2.8763
   82MOL0     H11276   1.123   2.382   4.234 -1.6169  0.1000 -0.4148
   82MOL0     H11277   1.103   2.241   4.122  0.7606 -1.0397  0.5503
   82MOL0     H11278   1.096   1.952   4.683  1.6495  1.8059 -2.1875
   82MOL0     H11279   0.968   1.769   4.704 -3.7509 -0.0817 -2.0969
   82MOL0     H11280   0.848   1.548   4.334 -0.2086  0.9859  1.8768
   82MOL0     H11281   0.982   1.436   4.383  0.7419 -0.8559  1.6635
   82MOL0     H11282   0.700   1.464   4.491 -2.5008 -2.2295 -1.9447
   82MOL0     H11283   0.742   1.336   4.377 -1.0296  1.6197 -0.8599
   82MOL0     H11284   0.852   1.356   4.650  2.9688  1.4835 -3.1288
   82MOL0     H11285   0.912   1.251   4.533 -0.5375 -3.1532  2.0430
   82MOL0     H11286   0.658   1.153   4.505  0.3792 -2.5865  0.9775
   82MOL0     H11287   0.629   1.233   4.662 -2.3480 -1.9112 -1.3645
   82MOL0     H11288   0.807   1.107   4.771  1.8946  0.9653 -1.2365
   82MOL0     H11289   0.652   1.026   4.725 -1.4183  2.6897 -1.8280
   82MOL0     H11290   0.908   1.012   4.585 -0.3121  0.7825  3.3574
   82MOL0     H11291   0.761   0.952   4.512  2.0939  0.0887 -1.1210
   82MOL0     H11292   0.799   0.752   4.611  2.9188 -2.8577  1.7573
   82MOL0     H11293   0.752   0.832   4.769 -2.6265  0.9739 -1.0795
   82MOL0     H11294   0.958   0.739   4.824 -0.4820 -2.1265 -1.8261
   82MOL0     H11295   1.010   0.903   4.774 -0.6406 -0.1254 -1.8029
   82MOL0     H11296   1.069   1.618   4.318 -3.4855  0.6416 -0.1692
   82MOL0     H11297   1.244   1.813   4.309  1.7642  1.1041  1.9848
   82MOL0     H11298   1.481   2.067   4.404  1.3768  1.5057  1.6295
   82MOL0     H11299   1.668   2.148   4.258  0.6762  0.8343 -0.5389
   82MOL0     H11300   2.469   2.333   5.021 -0.1916  0.2162  0.3607
   82MOL0     H11301   2.572   2.287   5.229  2.0759 -1.5487 -0.6737
   82MOL0     H11302   2.654   1.730   5.532  0.2450 -2.8235  2.5714
   82MOL0     H11303   2.637   1.709   5.790  0.1858 -0.5609 -0.8495
   82MOL0     H11304   2.673   1.721   6.006  1.5132  1.9302 -0.1220
   82MOL0     H11305   2.612   1.820   6.141 -0.0811  2.1691 -0.4870
   82MOL0     H11306   2.428   1.704   6.098 -1.2267  0.6935  0.2470
   82MOL0     H11307   2.461   1.709   5.923  1.4255 -0.0656  0.3187
   82MOL0     H11308   2.383   1.950   5.933  5.1939  0.4863  2.2908
   82MOL0     H11309   2.264   1.823   5.991  1.0841 -1.7818 -0.3173
   82MOL0     H11310   2.375   1.891   6.225 -2.9893 -2.5315 -1.3654
   82MOL0     H11311   2.236   1.984   6.164  0.0359  1.7329  0.4356
   82MOL0     H11312   2.548   2.258   6.094 -0.2912  0.2615  1.0484
   82MOL0     H11313   2.681   2.121   5.835 -0.7453  0.8599 -0.7360
   82MOL0     H11314   2.622   2.270   5.562 -0.5203 -1.8803 -3.3437
   82MOL0     H11315   2.777   2.265   5.640  1.7384 -0.7342 -0.6398
   82MOL0     H11316   2.751   2.221   5.472  1.1068  2.8544 -0.3466
   83MOL0     O11317  10.550   7.015   9.865 -0.5081 -0.1245  0.6295
   83MOL0     C11318  10.668   7.001   9.853  0.4737 -0.2290  0.0843
   83MOL0     O11319  10.736   6.904   9.918  0.2396  1.5129  0.3322
   83MOL0     C11320  10.668   6.849  10.024  0.3339 -0.1203  0.1501
   83MOL0     C11321  10.559   6.761  10.004  0.4315  0.9345 -0.4161
   83MOL0     C11322  10.511   6.685  10.111  0.5564  0.5146 -0.6896
   83MOL0     C11323  10.551   6.705  10.250 -0.4211 -0.1927  0.3949
   83MOL0     O11324  10.503   6.638  10.358  0.6672  0.2213 -0.1003
   83MOL0     C11325  10.411   6.528  10.343  0.1791 -0.2279  0.2304
   83MOL0     C11326  10.329   6.513  10.472  1.5806 -0.0762  0.1151
   83MOL0     C11327  10.385   6.411  10.576  0.3255  0.2441 -0.7510
   83MOL0     C11328  10.510   6.462  10.633  1.2893  1.2595  0.0602
   83MOL0     C11329  10.563   6.371  10.750  0.5434  0.1075 -0.2670
   83MOL0     C11330  10.601   6.236  10.696  0.4972  0.4582  0.6055
   83MOL0     C11331  10.647   6.145  10.804 -0.2985  0.8710  0.5314
   83MOL0     C11332  10.549   6.043  10.875  0.9012  0.5165 -0.9350
   83MOL0     N11333  10.441   6.130  10.926 -0.8606  0.4368  0.4183
   83MOL0     C11334  10.433   6.163  11.062 -0.9268  0.2390  0.3471
   83MOL0     C11335  10.305   6.204  11.073  0.9395  0.9226 -0.0680
   83MOL0     C11336  10.255   6.261  11.203 -0.4258 -0.0455 -0.5977
   83MOL0     C11337  10.249   6.418  11.217 -1.2755 -0.2246 -0.7117
   83MOL0     C11338  10.238   6.445  11.362 -0.3620 -0.1385  0.2000
   83MOL0     C11339  10.199   6.585  11.410  0.1969 -0.1348 -1.1220
   83MOL0     O11340  10.248   6.614  11.535 -0.8021  0.0098  0.4404
   83MOL0     C11341  10.380   6.604  11.573  0.5890  1.1960 -0.6574
   83MOL0     C11342  10.484   6.611  11.479  0.4880 -0.6970  0.2046
   83MOL0     C11343  10.614   6.601  11.517 -0.0021  0.3542 -0.5512
   83MOL0     C11344  10.710   6.595  11.396 -0.2088  1.6285 -0.4853
   83MOL0     C11345  10.648   6.603  11.655  0.6247 -0.1352  0.5805
   83MOL0     C11346  10.793   6.599  11.697 -0.3498 -0.0351  0.0880
   83MOL0     O11347  10.890   6.583  11.607  0.6536 -0.3681  0.3862
   83MOL0     C11348  11.019   6.614  11.646  0.1320 -0.5849  0.3599
   83MOL0     C11349  11.071   6.746  11.618 -0.6007  0.5207  1.3501
   83MOL0     C11350  11.198   6.778  11.657  0.2906 -0.1423  0.0467
   83MOL0     C11351  11.291   6.677  11.705  0.0361  0.3885  0.1309
   83MOL0     O11352  11.407   6.695  11.773  0.1951  0.9389 -0.1250
   83MOL0     C11353  11.468   6.824  11.766 -0.3592 -0.6802  0.3826
   83MOL0     C11354  11.468   6.885  11.904  0.4958  0.2105 -0.3122
   83MOL0     C11355  11.576   6.989  11.924 -0.1870  0.1791 -0.3768
   83MOL0     C11356  11.530   7.108  11.995  0.6377 -0.5943  0.2253
   83MOL0     C11357  11.476   7.085  12.134  0.4137 -0.5388  0.2765
   83MOL0     C11358  11.573   7.022  12.222 -0.9494  0.0456  0.0945
   83MOL0     C11359  11.546   7.053  12.372  0.1306  0.1447 -0.1586
   83MOL0     C11360  11.633   6.984  12.459 -0.6492  0.2584 -0.3997
   83MOL0    Cl11361  11.606   7.021  12.634 -0.0368  0.0758 -0.3661
   83MOL0     C11362  11.241   6.548  11.705 -0.5664  0.1667 -1.2866
   83MOL0     C11363  11.105   6.514  11.685  0.2697 -1.4523  0.8149
   83MOL0     O11364  10.814   6.619  11.814 -0.2961  0.2733  0.1121
   83MOL0     C11365  10.541   6.610  11.747 -0.3568  0.1635 -0.2678
   83MOL0     C11366  10.409   6.605  11.706  0.2507 -0.0113  0.7414
   83MOL0     N11367  10.241   6.206  10.953 -0.0439 -0.7091  0.5603
   83MOL0     N11368  10.317   6.147  10.865  0.2416  0.4772 -0.3021
   83MOL0     C11369  10.632   6.819  10.263  0.4145 -0.1959 -0.4205
   83MOL0     C11370  10.694   6.884  10.155 -0.5674 -0.0524  0.4007
   83MOL0     C11371  10.739   7.127   9.796  1.1803 -1.2896 -0.4658
   83MOL0     C11372  10.870   7.156   9.843 -0.5709 -0.5176  0.5754
   83MOL0     C11373  10.939   7.272   9.794  0.0447  0.7980  0.8812
   83MOL0     C11374  10.879   7.345   9.701 -0.6800  0.1801  0.2090
   83MOL0     O11375  10.944   7.456   9.643  0.2931 -0.2375  0.1571
   83MOL0     C11376  11.008   7.558   9.713 -0.7585 -0.1893 -0.9720
   83MOL0     C11377  11.002   7.698   9.644  0.2342 -0.7077  0.7313
   83MOL0     C11378  11.060   7.705   9.508  0.3623 -0.1955 -0.0343
   83MOL0     C11379  10.989   7.806   9.420  0.8180  0.3812  0.4873
   83MOL0     C11380  11.013   7.787   9.275 -0.0845 -0.3151 -0.1307
   83MOL0     C11381  11.048   7.765   9.164  0.0775  0.3330 -0.0995
   83MOL0     C11382  10.749   7.316   9.657  0.4892 -0.1792 -0.3613
   83MOL0     C11383  10.676   7.210   9.708  0.2382 -0.8481 -0.3247
   83MOL0     C11384  10.533   7.208   9.653  0.6740  0.0821 -0.1448
   83MOL0     H11385  10.513   6.740   9.909  4.3408 -0.5895 -2.2152
   83MOL0     H11386  10.437   6.613  10.077  1.3474  0.7238 -3.0944
   83MOL0     H11387  10.469   6.436  10.327 -1.0628 -0.8936 -0.6071
   83MOL0     H11388  10.341   6.541  10.260  0.5793  1.7060  0.1600
   83MOL0     H11389  10.298   6.607  10.519 -4.7182 -1.9783  0.6640
   83MOL0     H11390  10.233   6.472  10.440  0.1922  1.9573  1.4206
   83MOL0     H11391  10.316   6.388  10.658  4.2837 -0.0764  2.8228
   83MOL0     H11392  10.406   6.320  10.519  2.5749 -1.6806  2.7836
   83MOL0     H11393  10.593   6.467  10.561  2.8667 -1.4977  1.5538
   83MOL0     H11394  10.473   6.554  10.679 -2.9982  1.2340 -2.7368
   83MOL0     H11395  10.479   6.356  10.818 -0.7855 -3.0553 -2.3745
   83MOL0     H11396  10.651   6.417  10.796 -1.6412  1.3368  3.0595
   83MOL0     H11397  10.528   6.178  10.640  0.1232  0.6665  0.8750
   83MOL0     H11398  10.689   6.258  10.634  0.2879  2.8551  1.0555
   83MOL0     H11399  10.687   6.203  10.888  0.7634  0.5713  0.2543
   83MOL0     H11400  10.733   6.092  10.762  1.0872  2.3253  1.3809
   83MOL0     H11401  10.499   5.968  10.813 -0.1735 -0.9519  1.5837
   83MOL0     H11402  10.600   5.992  10.957  1.0503  2.7484  0.4287
   83MOL0     H11403  10.512   6.165  11.136 -1.5127  0.0915  0.9874
   83MOL0     H11404  10.320   6.214  11.278 -0.8697  1.3183  0.6999
   83MOL0     H11405  10.156   6.217  11.214 -0.9726  1.7007  2.5411
   83MOL0     H11406  10.337   6.464  11.170 -2.1581  0.6927 -1.5030
   83MOL0     H11407  10.170   6.468  11.160 -1.7085 -0.1604 -0.0704
   83MOL0     H11408  10.164   6.372  11.396 -1.9678  1.6914  0.8123
   83MOL0     H11409  10.336   6.424  11.406 -0.0702  2.7917  1.1740
   83MOL0     H11410  10.232   6.665  11.343 -0.6381  4.0573  2.9895
   83MOL0     H11411  10.090   6.591  11.410  0.2667  2.3361 -2.4153
   83MOL0     H11412  10.463   6.623  11.373 -1.6256  2.8887  0.8986
   83MOL0     H11413  10.757   6.496  11.394  2.9791  2.8025  3.0546
   83MOL0     H11414  10.796   6.662  11.405  0.8074  0.4677 -1.2320
   83MOL0     H11415  10.665   6.618  11.299 -0.8325 -0.1794 -0.6571
   83MOL0     H11416  11.001   6.813  11.570  1.8612  1.5103 -1.1562
   83MOL0     H11417  11.212   6.886  11.651  0.4783 -0.0726  1.4592
   83MOL0     H11418  11.572   6.824  11.733 -0.7882  1.8067 -1.2283
   83MOL0     H11419  11.421   6.892  11.695  0.3802  0.5683  1.0431
   83MOL0     H11420  11.368   6.927  11.922 -0.7846 -1.8709 -1.9731
   83MOL0     H11421  11.483   6.804  11.976  1.1766  0.2377 -0.4208
   83MOL0     H11422  11.600   7.036  11.828 -2.1277  0.6928 -0.6564
   83MOL0     H11423  11.663   6.944  11.972  1.3995  1.6317 -1.7910
   83MOL0     H11424  11.458   7.159  11.931  2.5614 -0.2261 -1.7365
   83MOL0     H11425  11.616   7.175  12.002 -1.2450  1.9396  0.3642
   83MOL0     H11426  11.455   7.184  12.176  0.3928 -1.0165  1.4417
   83MOL0     H11427  11.385   7.025  12.142  0.0161 -0.0188 -0.3731
   83MOL0     H11428  11.665   7.074  12.195 -2.5900  2.7438 -0.7409
   83MOL0     H11429  11.582   6.913  12.215  0.5127  0.2461 -1.9626
   83MOL0     H11430  11.441   7.033  12.396  0.6613 -0.4079  1.8941
   83MOL0     H11431  11.562   7.161  12.384  2.0424 -0.0425 -0.6663
   83MOL0     H11432  11.736   7.011  12.431  0.3496 -2.0489  0.7695
   83MOL0     H11433  11.624   6.876  12.452  0.4519  0.1388 -0.2032
   83MOL0     H11434  11.309   6.479  11.755 -0.6645  2.1824  1.9038
   83MOL0     H11435  11.055   6.419  11.700 -1.2925 -0.8977 -0.6342
   83MOL0     H11436  10.545   6.603  11.855 -1.3640 -3.8412 -0.3341
   83MOL0     H11437  10.335   6.603  11.786 -3.4411 -0.2415 -2.4239
   83MOL0     H11438  10.661   6.845  10.364  1.6067 -0.2472 -0.7254
   83MOL0     H11439  10.757   6.969  10.178  3.0981 -2.5297  0.2935
   83MOL0     H11440  10.913   7.091   9.919  0.4424  1.4875  1.8122
   83MOL0     H11441  11.036   7.306   9.830  0.9004 -0.4026 -0.2061
   83MOL0     H11442  10.966   7.563   9.814  1.0478  0.3231 -0.1996
   83MOL0     H11443  11.113   7.531   9.724 -0.5480  0.3800 -1.4925
   83MOL0     H11444  11.054   7.772   9.706  3.1209 -1.4845 -0.5897
   83MOL0     H11445  10.896   7.726   9.640 -0.0091 -1.6973 -0.2923
   83MOL0     H11446  11.160   7.747   9.522  2.1777 -4.5498  1.6933
   83MOL0     H11447  11.061   7.608   9.457 -0.2072  0.3533 -1.1263
   83MOL0     H11448  11.016   7.908   9.447  0.7750  1.2220 -2.3536
   83MOL0     H11449  10.880   7.795   9.430  0.5490 -5.1818 -3.3780
   83MOL0     H11450  11.094   7.744   9.070 -0.8754  1.9063 -0.9608
   83MOL0     H11451  10.699   7.385   9.589  1.7624 -1.4036 -2.6432
   83MOL0     H11452  10.460   7.267   9.709 -1.5168  0.7543 -3.4126
   83MOL0     H11453  10.537   7.250   9.552  0.4269  0.4936  0.0164
   83MOL0     H11454  10.503   7.105   9.634  0.3999  0.0591  0.3970
   84MOL0     O11455   9.338   5.216   7.537  0.2694 -0.3741  0.8603
   84MOL0     C11456   9.231   5.205   7.589  0.4082 -0.5584 -0.4716
   84MOL0     O11457   9.114   5.220   7.528 -0.0253 -0.5415 -0.4398
   84MOL0     C11458   9.091   5.259   7.396 -1.0827 -0.8679 -0.5014
   84MOL0     C11459   9.176   5.347   7.325 -0.8648 -0.3399  0.4734
   84MOL0     C11460   9.147   5.387   7.193 -0.4765  0.0038 -0.0545
   84MOL0     C11461   9.020   5.355   7.132 -0.2410 -1.1078 -0.4994
   84MOL0     O11462   8.982   5.389   7.005 -0.5777  0.1809 -0.6444
   84MOL0     C11463   8.987   5.529   6.966 -0.4631  0.0738  0.1911
   84MOL0     C11464   9.110   5.562   6.879 -0.6171  0.3137 -0.9075
   84MOL0     C11465   9.110   5.705   6.843 -0.3772 -0.3007 -0.5845
   84MOL0     C11466   9.257   5.751   6.821  0.6562 -0.2461  0.2090
   84MOL0     C11467   9.318   5.681   6.693  0.0812  0.0895 -0.3540
   84MOL0     C11468   9.389   5.769   6.589  0.0541 -0.1156  0.1176
   84MOL0     C11469   9.427   5.701   6.456 -0.0012  0.3849  0.8452
   84MOL0     C11470   9.518   5.788   6.370  0.8137 -0.9484 -1.3328
   84MOL0     N11471   9.596   5.725   6.273 -0.1797  0.4447 -0.1081
   84MOL0     C11472   9.696   5.640   6.302 -1.3145  0.6596  0.3000
   84MOL0     C11473   9.752   5.604   6.183  0.2847 -1.2202  0.0691
   84MOL0     C11474   9.865   5.509   6.155  0.2457  1.1743 -0.2650
   84MOL0     C11475   9.893   5.485   6.007 -0.2710  0.0803  1.0713
   84MOL0     C11476   9.987   5.371   5.986 -0.5656 -0.0118 -0.6258
   84MOL0     C11477  10.058   5.372   5.845 -1.0739  0.5659  0.9796
   84MOL0     O11478  10.147   5.258   5.852  0.2959  1.1096  0.1328
   84MOL0     C11479  10.269   5.261   5.786 -0.3134  0.0595  0.5766
   84MOL0     C11480  10.309   5.363   5.700 -1.4956  0.4289  0.5461
   84MOL0     C11481  10.442   5.364   5.642  0.5511 -0.6659 -0.2897
   84MOL0     C11482  10.472   5.480   5.554  0.1280 -0.5111  0.7506
   84MOL0     C11483  10.523   5.250   5.676  0.5187  0.2271 -0.5534
   84MOL0     C11484  10.655   5.248   5.621 -0.2928 -0.1897 -0.5336
   84MOL0     O11485  10.703   5.137   5.567  0.1885 -1.3602 -0.4352
   84MOL0     C11486  10.784   5.136   5.459  0.1402 -0.3748  0.4583
   84MOL0     C11487  10.856   5.018   5.440 -0.4788  0.4365 -0.2210
   84MOL0     C11488  10.934   4.991   5.327 -0.9320  0.4545 -0.8953
   84MOL0     C11489  10.953   5.105   5.229  0.2540  0.4631  0.1178
   84MOL0     O11490  11.043   5.090   5.125 -0.2134  0.1577  0.2470
   84MOL0     C11491  10.998   4.994   5.027  0.4421  0.2868  0.8570
   84MOL0     C11492  11.062   4.854   5.024  0.1271  0.9471 -0.1113
   84MOL0     C11493  11.219   4.850   5.019  0.1962 -0.4091 -0.1141
   84MOL0     C11494  11.281   4.719   5.061  0.3644  0.9590 -0.0572
   84MOL0     C11495  11.438   4.726   5.064  0.2589  0.0381 -0.1105
   84MOL0     C11496  11.511   4.595   5.058 -0.8115  1.0252  0.3978
   84MOL0     C11497  11.499   4.513   4.924  0.3879 -0.5039 -0.6326
   84MOL0     C11498  11.559   4.369   4.954  0.7289  0.8388 -1.3544
   84MOL0    Cl11499  11.506   4.286   5.100 -0.3257 -0.5797  0.2096
   84MOL0     C11500  10.870   5.220   5.248 -0.8689  0.2199 -0.2290
   84MOL0     C11501  10.791   5.234   5.359  0.3398 -0.1577  0.4698
   84MOL0     O11502  10.719   5.348   5.636  0.7078 -0.2650 -0.6897
   84MOL0     C11503  10.479   5.146   5.757 -0.0492  0.7224 -0.0650
   84MOL0     C11504  10.353   5.156   5.819  0.0350  0.8555  0.1371
   84MOL0     N11505   9.706   5.691   6.091  0.1183  0.0745 -0.1046
   84MOL0     N11506   9.607   5.754   6.143 -0.2090 -0.4553 -0.6665
   84MOL0     C11507   8.926   5.285   7.211 -0.3078 -0.5086  0.3319
   84MOL0     C11508   8.966   5.242   7.340 -0.1715 -0.1817  0.1213
   84MOL0     C11509   9.222   5.180   7.734  0.2258  0.1167  0.7699
   84MOL0     C11510   9.200   5.049   7.766  0.0571  0.5368 -0.1436
   84MOL0     C11511   9.216   5.013   7.903  0.6379  0.3931 -0.7679
   84MOL0     C11512   9.250   5.105   7.999  1.3021 -0.7253 -0.4502
   84MOL0     O11513   9.262   5.054   8.127 -0.3994  0.5829 -0.7010
   84MOL0     C11514   9.311   5.151   8.233 -0.1821 -0.4447  0.9092
   84MOL0     C11515   9.312   5.084   8.374  0.4350  0.4049  0.0800
   84MOL0     C11516   9.171   5.062   8.418 -0.1099 -0.5699  0.3975
   84MOL0     C11517   9.148   5.061   8.557  0.0019 -0.4878 -0.0479
   84MOL0     C11518   9.007   5.033   8.583 -0.2448  1.0603 -0.1921
   84MOL0     C11519   8.887   5.009   8.606  0.2059  0.1170 -0.2309
   84MOL0     C11520   9.276   5.236   7.961 -0.1084  0.4816  0.1009
   84MOL0     C11521   9.262   5.274   7.826 -0.1966  0.3400 -0.5976
   84MOL0     C11522   9.283   5.417   7.810  0.7335  0.0694 -0.2197
   84MOL0     H11523   9.261   5.396   7.371 -2.0063  0.1341  2.1884
   84MOL0     H11524   9.207   5.457   7.136 -1.0896 -0.8031 -1.7621
   84MOL0     H11525   8.986   5.596   7.053  5.1517  1.4472 -0.4090
   84MOL0     H11526   8.900   5.546   6.901 -2.3349 -4.3632  1.1621
   84MOL0     H11527   9.204   5.530   6.925 -1.4726 -1.1299 -0.0872
   84MOL0     H11528   9.101   5.519   6.779 -3.0464  3.1590 -2.0583
   84MOL0     H11529   9.045   5.714   6.755 -0.6871 -1.8051 -0.5385
   84MOL0     H11530   9.067   5.766   6.924  0.9039  0.2856 -0.3289
   84MOL0     H11531   9.259   5.860   6.811  0.8854 -0.2402  0.3123
   84MOL0     H11532   9.318   5.716   6.904  0.3374  0.7286  0.8712
   84MOL0     H11533   9.245   5.626   6.634  0.4216 -0.6571 -0.0977
   84MOL0     H11534   9.385   5.603   6.731  0.7916  0.8965  0.1053
   84MOL0     H11535   9.323   5.856   6.588  0.9545  0.7451  3.2467
   84MOL0     H11536   9.485   5.799   6.633  1.3348  0.2831 -2.7041
   84MOL0     H11537   9.338   5.660   6.405  0.2009 -4.5069  3.8097
   84MOL0     H11538   9.476   5.605   6.475 -0.7964 -0.5411 -1.3825
   84MOL0     H11539   9.462   5.867   6.319  1.0524 -1.6623 -2.7696
   84MOL0     H11540   9.590   5.826   6.442  1.0495 -1.4440 -1.3021
   84MOL0     H11541   9.734   5.605   6.397  1.1983 -1.3816 -1.3216
   84MOL0     H11542   9.855   5.410   6.202 -2.0766  2.3627  2.0297
   84MOL0     H11543   9.950   5.554   6.207 -0.7084 -0.5726  3.1472
   84MOL0     H11544   9.799   5.467   5.954  1.0877  0.3212 -1.6258
   84MOL0     H11545   9.928   5.572   5.951 -1.1735 -1.2691 -1.7976
   84MOL0     H11546  10.077   5.371   6.048 -0.6117  0.5977 -0.5521
   84MOL0     H11547   9.944   5.271   5.996  0.7054 -0.4807  0.4207
   84MOL0     H11548  10.002   5.384   5.753  0.6146 -1.3796 -0.4033
   84MOL0     H11549  10.123   5.460   5.843 -0.4224  0.2523 -4.4967
   84MOL0     H11550  10.243   5.447   5.681  0.6601  2.1397  0.2080
   84MOL0     H11551  10.544   5.537   5.615 -1.2402  0.6152  1.3710
   84MOL0     H11552  10.386   5.546   5.540 -0.5822 -1.6594 -0.5061
   84MOL0     H11553  10.513   5.461   5.455 -1.6035 -0.8698  0.0637
   84MOL0     H11554  10.842   4.942   5.516 -0.3714  0.4878 -0.1502
   84MOL0     H11555  10.998   4.903   5.318 -1.5828  0.1512 -3.2419
   84MOL0     H11556  10.893   4.966   5.041  0.7434 -2.8287 -1.7531
   84MOL0     H11557  11.013   5.025   4.923 -0.4198 -2.9316 -0.3778
   84MOL0     H11558  11.024   4.790   5.105  1.3186 -0.8905 -0.9211
   84MOL0     H11559  11.015   4.811   4.936 -0.1792 -0.7225  0.8134
   84MOL0     H11560  11.260   4.929   5.082  1.3548  0.0786 -1.4351
   84MOL0     H11561  11.249   4.876   4.917  0.4319 -0.1160  0.0259
   84MOL0     H11562  11.253   4.656   4.977  0.0655  1.2574 -0.1828
   84MOL0     H11563  11.234   4.677   5.150 -0.7972  0.5110 -0.8601
   84MOL0     H11564  11.468   4.785   4.977  2.5344  0.3702  0.8213
   84MOL0     H11565  11.471   4.778   5.155 -2.9764  1.3950  0.4283
   84MOL0     H11566  11.478   4.549   5.152 -3.6781  3.3851  0.6885
   84MOL0     H11567  11.620   4.601   5.061 -0.4804 -2.7861  2.9907
   84MOL0     H11568  11.542   4.570   4.842  2.1031 -0.4452  0.2732
   84MOL0     H11569  11.393   4.504   4.896 -0.0346 -1.4473  1.0600
   84MOL0     H11570  11.667   4.381   4.953  0.8647 -0.2581 -1.2392
   84MOL0     H11571  11.536   4.290   4.882 -0.1605 -2.0186  1.7779
   84MOL0     H11572  10.880   5.309   5.187 -2.4998 -0.1911 -1.1569
   84MOL0     H11573  10.721   5.317   5.363  0.2387 -0.2597  0.8716
   84MOL0     H11574  10.550   5.065   5.771  0.4408  0.5995 -2.6342
   84MOL0     H11575  10.324   5.077   5.887 -2.2273  2.7957  1.6176
   84MOL0     H11576   8.822   5.269   7.184  0.3419 -2.5316 -1.1850
   84MOL0     H11577   8.902   5.185   7.406 -0.6067  1.2079  0.9350
   84MOL0     H11578   9.189   4.969   7.695 -0.4650 -0.6021  1.1686
   84MOL0     H11579   9.210   4.907   7.926 -2.0690  0.1178 -2.3780
   84MOL0     H11580   9.417   5.176   8.219 -0.0049 -0.4634  2.1115
   84MOL0     H11581   9.250   5.241   8.241  1.4592  0.6540  1.7724
   84MOL0     H11582   9.347   5.172   8.429 -2.5422  3.7940 -2.8493
   84MOL0     H11583   9.378   4.997   8.379  0.5821  0.5585  4.1720
   84MOL0     H11584   9.111   5.143   8.375  0.9709 -0.5443 -1.1513
   84MOL0     H11585   9.131   4.972   8.370 -0.5488  0.0713 -0.4785
   84MOL0     H11586   9.153   5.163   8.596  3.0726 -0.0581 -1.2395
   84MOL0     H11587   9.221   5.001   8.612 -1.0006  1.1702  3.3422
   84MOL0     H11588   8.787   4.984   8.636  1.0175 -4.2961 -0.6721
   84MOL0     H11589   9.282   5.317   8.033  2.7004 -1.0967  1.8226
   84MOL0     H11590   9.218   5.452   7.729 -1.3258  1.4166  1.8798
   84MOL0     H11591   9.263   5.480   7.897 -0.8074 -3.7846  2.5434
   84MOL0     H11592   9.387   5.413   7.778  0.9362 -3.0778  0.5390
   85MOL0     O11593   6.399   2.682   5.842 -0.0656 -0.4351 -0.1146
   85MOL0     C11594   6.343   2.788   5.877 -0.3518  0.2471  0.0749
   85MOL0     O11595   6.214   2.799   5.905  0.0919  0.3439  0.5903
   85MOL0     C11596   6.136   2.688   5.895 -1.4685  0.4876  0.1309
   85MOL0     C11597   6.081   2.653   5.771  0.6590 -0.7320 -0.3094
   85MOL0     C11598   5.986   2.555   5.762  0.4153  0.4005 -0.0918
   85MOL0     C11599   5.950   2.484   5.878 -0.1119  0.1549  0.3200
   85MOL0     O11600   5.847   2.396   5.885 -0.2769 -0.9067  0.0092
   85MOL0     C11601   5.837   2.329   5.754 -0.3987 -0.9423  0.3188
   85MOL0     C11602   5.742   2.220   5.746 -0.4977 -0.0774  1.1525
   85MOL0     C11603   5.783   2.075   5.797 -0.3696  0.1015  0.4742
   85MOL0     C11604   5.895   2.073   5.901 -0.6237 -0.1537 -0.2925
   85MOL0     C11605   5.835   2.128   6.036 -0.4847  0.3456  0.6621
   85MOL0     C11606   5.808   2.001   6.126 -0.6779 -1.0021  0.5335
   85MOL0     C11607   5.773   2.028   6.267 -0.0617  0.2539 -0.2409
   85MOL0     C11608   5.884   2.094   6.356 -0.3212  0.8604  0.1764
   85MOL0     N11609   6.010   2.023   6.361 -0.2873  0.8547 -0.3569
   85MOL0     C11610   6.120   2.036   6.281  0.4264  1.3537 -0.1978
   85MOL0     C11611   6.203   1.949   6.342  0.1073  0.0068  0.0522
   85MOL0     C11612   6.350   1.941   6.308 -0.0243 -0.6545 -0.0934
   85MOL0     C11613   6.442   1.876   6.408 -0.5571  0.0880 -0.7144
   85MOL0     C11614   6.591   1.875   6.353  0.9152  0.3511 -0.1714
   85MOL0     C11615   6.673   1.776   6.438 -0.1658  0.6773 -0.3831
   85MOL0     O11616   6.685   1.821   6.574  0.0642  0.4102 -0.5554
   85MOL0     C11617   6.704   1.720   6.663  0.0607  0.5625 -0.0507
   85MOL0     C11618   6.708   1.759   6.793  0.4167 -0.3229  0.0132
   85MOL0     C11619   6.748   1.671   6.897 -0.0020  0.8977 -0.3380
   85MOL0     C11620   6.733   1.724   7.035 -0.0376 -0.1945 -0.0998
   85MOL0     C11621   6.791   1.534   6.868  0.3289 -0.3997  0.6859
   85MOL0     C11622   6.842   1.435   6.962  1.4896 -0.4622 -0.4916
   85MOL0     O11623   6.822   1.460   7.097 -0.6144 -0.4992 -0.3647
   85MOL0     C11624   6.893   1.384   7.191 -0.3164  0.1934 -0.0648
   85MOL0     C11625   6.848   1.259   7.230  0.4158  0.4031  0.7793
   85MOL0     C11626   6.925   1.186   7.313 -0.2337  0.5351 -0.0111
   85MOL0     C11627   7.056   1.227   7.363  1.0542 -0.3932 -0.0326
   85MOL0     O11628   7.140   1.147   7.432 -0.3257  0.8574  0.5338
   85MOL0     C11629   7.081   1.084   7.554 -0.7160 -0.1021 -0.0428
   85MOL0     C11630   7.181   1.111   7.675  1.5731 -0.0306 -0.1176
   85MOL0     C11631   7.179   1.257   7.702 -0.3851 -1.2234 -0.7285
   85MOL0     C11632   7.269   1.282   7.824 -0.5905 -0.4333  0.3058
   85MOL0     C11633   7.418   1.279   7.799 -0.2835  0.4952  0.3073
   85MOL0     C11634   7.456   1.416   7.736 -1.2301 -0.0636  0.5346
   85MOL0     C11635   7.592   1.393   7.676 -0.4052  0.1257 -0.3128
   85MOL0     C11636   7.660   1.522   7.626  0.9975 -0.5430  0.7328
   85MOL0    Cl11637   7.528   1.644   7.577  0.5730  0.0663  0.4445
   85MOL0     C11638   7.100   1.351   7.314  0.2590 -1.2308  0.8314
   85MOL0     C11639   7.017   1.435   7.233 -0.3580 -1.2320  0.6242
   85MOL0     O11640   6.905   1.342   6.913 -0.8050  0.1008 -0.1768
   85MOL0     C11641   6.787   1.496   6.730  0.2169  0.6979  0.1063
   85MOL0     C11642   6.745   1.581   6.632 -0.0941 -0.1186  0.1105
   85MOL0     N11643   6.139   1.891   6.456 -0.2706 -0.2135  0.7267
   85MOL0     N11644   6.017   1.921   6.452 -0.4774 -0.4035  0.6656
   85MOL0     C11645   6.020   2.509   5.995 -0.1867 -0.2031  0.5199
   85MOL0     C11646   6.108   2.617   6.013 -0.9943  0.3324  0.7113
   85MOL0     C11647   6.430   2.896   5.892 -0.6281 -1.8581 -0.0070
   85MOL0     C11648   6.502   2.936   5.777 -0.0699 -0.6962  0.9893
   85MOL0     C11649   6.585   3.051   5.766 -0.0933  0.9013 -0.3204
   85MOL0     C11650   6.588   3.133   5.878  0.6592  0.1536 -0.5249
   85MOL0     O11651   6.671   3.245   5.901 -0.0931 -0.1133 -0.2670
   85MOL0     C11652   6.728   3.312   5.782  0.5891 -0.4878 -0.3824
   85MOL0     C11653   6.792   3.444   5.829  0.1441 -0.4520 -0.5293
   85MOL0     C11654   6.854   3.507   5.710 -0.4120 -0.3122  0.5854
   85MOL0     C11655   6.940   3.614   5.752  0.0718 -0.0285  0.2754
   85MOL0     C11656   6.958   3.709   5.649 -0.3400 -0.3640 -0.3110
   85MOL0     C11657   6.998   3.808   5.588 -0.7348  0.3089 -0.4190
   85MOL0     C11658   6.510   3.100   6.003 -0.1602 -0.2648  0.4266
   85MOL0     C11659   6.435   2.984   6.004 -0.4086 -0.9146 -0.1731
   85MOL0     C11660   6.375   2.951   6.142  0.3847  0.2427 -0.3548
   85MOL0     H11661   6.111   2.718   5.690  1.8839 -0.2214  0.5173
   85MOL0     H11662   5.933   2.547   5.668 -0.0755  1.3699  0.0858
   85MOL0     H11663   5.934   2.289   5.723 -0.0310 -2.0063  2.6311
   85MOL0     H11664   5.794   2.395   5.678  0.6946  2.4179  2.3880
   85MOL0     H11665   5.658   2.256   5.807  0.8195  3.0206  1.3320
   85MOL0     H11666   5.731   2.201   5.639  2.0831  2.4180  0.3322
   85MOL0     H11667   5.687   2.032   5.828 -1.1596  1.7085  0.3930
   85MOL0     H11668   5.815   2.014   5.713 -0.3282  1.6507 -0.6790
   85MOL0     H11669   5.916   1.966   5.916 -2.0038 -0.0952  2.5458
   85MOL0     H11670   5.993   2.114   5.875 -1.1210  0.4560 -1.2701
   85MOL0     H11671   5.752   2.198   6.025  0.2618  1.1661  0.0925
   85MOL0     H11672   5.913   2.198   6.069  0.3282 -0.3841  0.3438
   85MOL0     H11673   5.731   1.943   6.076  0.2173 -0.0390 -2.1206
   85MOL0     H11674   5.899   1.941   6.124  1.3765  1.6609 -4.7861
   85MOL0     H11675   5.765   1.931   6.317  1.2910  0.5037  0.5351
   85MOL0     H11676   5.679   2.083   6.276  0.2278  0.3919  4.5288
   85MOL0     H11677   5.901   2.199   6.330 -0.8378  1.2989  1.5044
   85MOL0     H11678   5.856   2.102   6.462  3.3271 -3.0814  1.6921
   85MOL0     H11679   6.133   2.097   6.193  0.1812 -3.7545 -4.2595
   85MOL0     H11680   6.375   2.046   6.288  0.3540 -0.8228 -0.5197
   85MOL0     H11681   6.351   1.889   6.211 -2.2320 -2.5578  0.7954
   85MOL0     H11682   6.431   1.931   6.502 -1.5576  0.4857 -1.0482
   85MOL0     H11683   6.406   1.775   6.432  2.8154 -0.7349  1.6958
   85MOL0     H11684   6.580   1.833   6.252 -0.6166  1.5306 -0.5325
   85MOL0     H11685   6.650   1.967   6.351  1.1560  0.1935 -2.1348
   85MOL0     H11686   6.619   1.682   6.434  1.5571 -0.3644 -0.1581
   85MOL0     H11687   6.768   1.749   6.392 -2.7033 -0.8636 -5.4562
   85MOL0     H11688   6.672   1.858   6.819 -0.5440 -0.4202 -0.8829
   85MOL0     H11689   6.657   1.680   7.100 -2.6778  3.5017 -0.3844
   85MOL0     H11690   6.715   1.831   7.026 -1.6568 -0.3197  1.1536
   85MOL0     H11691   6.826   1.711   7.090 -0.5249 -0.2650  0.7229
   85MOL0     H11692   6.761   1.208   7.189 -1.6696 -0.2455  5.4589
   85MOL0     H11693   6.889   1.091   7.349  1.5877  0.6939  2.4562
   85MOL0     H11694   6.978   1.117   7.571 -0.7280 -0.9299  1.7314
   85MOL0     H11695   7.070   0.976   7.536 -0.4175  0.0818 -1.4244
   85MOL0     H11696   7.139   1.075   7.770  2.5495  0.9189  0.6966
   85MOL0     H11697   7.280   1.069   7.657  2.3879  1.5879  0.4328
   85MOL0     H11698   7.076   1.281   7.733  1.1177  3.8130  1.3045
   85MOL0     H11699   7.188   1.315   7.610  1.1649 -0.4928 -0.1380
   85MOL0     H11700   7.252   1.195   7.889  0.4853  0.7892  2.3191
   85MOL0     H11701   7.249   1.373   7.881 -2.8945 -1.1540  0.7954
   85MOL0     H11702   7.469   1.274   7.896 -1.1001  1.6126  0.8282
   85MOL0     H11703   7.453   1.189   7.750  1.1546  1.4623 -0.5111
   85MOL0     H11704   7.455   1.497   7.809  0.0001  0.8070 -0.3745
   85MOL0     H11705   7.385   1.444   7.657  0.2460  3.0324  0.1567
   85MOL0     H11706   7.589   1.322   7.592 -0.6469 -2.0707  1.4675
   85MOL0     H11707   7.658   1.351   7.753 -0.1667 -0.2428 -0.7120
   85MOL0     H11708   7.714   1.491   7.537  1.9044 -0.1105  1.1235
   85MOL0     H11709   7.721   1.578   7.697 -0.6286 -0.6431  2.2775
   85MOL0     H11710   7.201   1.381   7.340  0.3277 -0.4096 -0.3164
   85MOL0     H11711   7.052   1.534   7.206  0.2195 -0.7930  2.7670
   85MOL0     H11712   6.824   1.399   6.699  0.5608  0.3846  1.4239
   85MOL0     H11713   6.758   1.547   6.530  0.8572  1.8609 -0.4857
   85MOL0     H11714   5.996   2.450   6.083 -0.9863 -0.8932 -0.1427
   85MOL0     H11715   6.138   2.645   6.114  1.1914 -2.2250  0.8828
   85MOL0     H11716   6.495   2.878   5.685  0.6220  2.4434 -1.2181
   85MOL0     H11717   6.655   3.063   5.684  1.9841 -1.8366  0.8702
   85MOL0     H11718   6.796   3.251   5.723 -0.5212 -1.3123 -0.8362
   85MOL0     H11719   6.644   3.346   5.721  0.4097  1.8457  1.0193
   85MOL0     H11720   6.870   3.425   5.903 -0.0872  1.1259  0.1724
   85MOL0     H11721   6.721   3.509   5.881  0.0690 -1.1358  0.2355
   85MOL0     H11722   6.905   3.433   5.648 -1.3359 -0.2322 -0.2959
   85MOL0     H11723   6.772   3.545   5.649 -0.5805  1.5489  1.8838
   85MOL0     H11724   7.037   3.579   5.788  1.2942  2.2747 -0.5307
   85MOL0     H11725   6.901   3.672   5.836  1.8042 -0.8620  1.7113
   85MOL0     H11726   7.031   3.898   5.541  1.0118  1.5548  2.8663
   85MOL0     H11727   6.505   3.167   6.088  1.8705  2.2104 -1.2092
   85MOL0     H11728   6.285   2.888   6.137 -0.4425  1.4682 -1.8317
   85MOL0     H11729   6.457   2.901   6.193  2.4280  0.9779 -2.7083
   85MOL0     H11730   6.349   3.042   6.196 -2.5584 -0.8541  0.2971
   86MOL0     O11731   0.731   7.245   4.009  1.0296  0.5021 -0.4864
   86MOL0     C11732   0.636   7.227   3.938  0.6664  0.4273 -0.5211
   86MOL0     O11733   0.571   7.102   3.921  0.2300 -0.4384  0.1087
   86MOL0     C11734   0.589   7.006   4.017 -0.6078 -0.5108  0.4155
   86MOL0     C11735   0.518   7.022   4.137 -0.2144  0.5886  0.0588
   86MOL0     C11736   0.538   6.928   4.242 -1.0114  0.2085  0.1823
   86MOL0     C11737   0.621   6.811   4.216 -0.1331 -1.2476 -0.4431
   86MOL0     O11738   0.629   6.709   4.307 -0.3722  0.0605  0.9781
   86MOL0     C11739   0.533   6.659   4.400 -0.9731 -0.7351 -0.8317
   86MOL0     C11740   0.609   6.630   4.532 -1.0638  0.6620 -0.4409
   86MOL0     C11741   0.691   6.742   4.597 -0.0827  0.4452 -0.3629
   86MOL0     C11742   0.643   6.894   4.572 -0.6599  0.8899 -0.0981
   86MOL0     C11743   0.721   6.993   4.669 -0.0286 -0.8752 -0.1192
   86MOL0     C11744   0.859   7.030   4.618 -0.1432 -0.6477 -0.5798
   86MOL0     C11745   0.920   7.141   4.692  0.6341  0.4847  0.0820
   86MOL0     C11746   1.053   7.194   4.645 -0.0703 -0.1393  0.0002
   86MOL0     N11747   1.151   7.082   4.623 -0.0706 -0.6577  0.1916
   86MOL0     C11748   1.242   7.047   4.712 -1.1778 -0.3575 -0.8578
   86MOL0     C11749   1.321   6.970   4.636 -0.4722 -0.5698  0.7372
   86MOL0     C11750   1.449   6.907   4.693  1.2350  0.9982 -0.3919
   86MOL0     C11751   1.414   6.784   4.774  0.0408  0.6188 -0.5355
   86MOL0     C11752   1.531   6.683   4.808 -0.8048  0.2492  0.2028
   86MOL0     C11753   1.582   6.621   4.676  0.6420 -1.0589 -0.3124
   86MOL0     O11754   1.718   6.654   4.653 -0.2402 -0.4695 -0.0002
   86MOL0     C11755   1.815   6.559   4.700  0.4693  0.2687 -0.6674
   86MOL0     C11756   1.803   6.480   4.811 -0.2877 -1.1573 -0.9761
   86MOL0     C11757   1.918   6.399   4.851 -0.2127  0.1035 -0.2536
   86MOL0     C11758   1.912   6.324   4.987  0.0752  0.9536 -0.2061
   86MOL0     C11759   2.035   6.401   4.774  1.2974 -0.2006  0.8972
   86MOL0     C11760   2.149   6.311   4.796 -0.8457 -0.3378 -0.4722
   86MOL0     O11761   2.245   6.314   4.706 -0.2401  1.1717  0.2868
   86MOL0     C11762   2.341   6.208   4.719 -0.2851  0.4346 -0.7726
   86MOL0     C11763   2.473   6.243   4.759  0.2197 -1.6503 -0.0952
   86MOL0     C11764   2.574   6.152   4.785  0.0280 -0.3416  0.1523
   86MOL0     C11765   2.555   6.014   4.762  0.1962 -0.3269  0.0248
   86MOL0     O11766   2.661   5.929   4.793  0.1868 -0.9343  0.0428
   86MOL0     C11767   2.694   5.827   4.701  0.0785  1.5280 -0.0444
   86MOL0     C11768   2.784   5.865   4.581 -0.7111 -0.2609 -0.4265
   86MOL0     C11769   2.919   5.910   4.639 -0.4172 -0.3172  1.0428
   86MOL0     C11770   3.014   5.962   4.518  0.1517  0.0609 -0.5886
   86MOL0     C11771   3.067   6.107   4.545  0.0754 -0.3989 -0.3245
   86MOL0     C11772   2.964   6.217   4.582  0.3001 -0.9244  0.6389
   86MOL0     C11773   2.889   6.251   4.447 -0.3358  0.3910 -0.0586
   86MOL0     C11774   2.762   6.333   4.471 -0.7578  0.3991  0.1277
   86MOL0    Cl11775   2.703   6.379   4.311  0.0880  0.0161 -0.0203
   86MOL0     C11776   2.421   5.972   4.741 -0.0532 -0.0462  0.2474
   86MOL0     C11777   2.317   6.069   4.715  0.3070  0.9158  0.0252
   86MOL0     O11778   2.162   6.244   4.899  1.0808  0.4250  0.3722
   86MOL0     C11779   2.027   6.471   4.650  0.0954 -1.1137  0.3830
   86MOL0     C11780   1.920   6.551   4.613 -0.0862  0.7802 -0.0774
   86MOL0     N11781   1.290   6.957   4.505 -0.1348 -0.9440 -0.1874
   86MOL0     N11782   1.174   7.015   4.500  0.3006 -0.7163  0.1788
   86MOL0     C11783   0.705   6.817   4.101 -0.5449  0.1273  0.3943
   86MOL0     C11784   0.686   6.904   3.994 -1.0803 -0.0281  0.7765
   86MOL0     C11785   0.567   7.343   3.864  0.3546 -0.1874  0.5838
   86MOL0     C11786   0.433   7.326   3.814 -0.3209  0.3596  0.2174
   86MOL0     C11787   0.371   7.430   3.746 -0.1690  0.1360  0.9018
   86MOL0     C11788   0.426   7.557   3.736  0.0462 -0.6167 -0.0988
   86MOL0     O11789   0.359   7.662   3.680  0.3256  0.3649 -0.1772
   86MOL0     C11790   0.372   7.791   3.735 -0.3229 -0.5237 -0.5540
   86MOL0     C11791   0.249   7.874   3.692 -0.3108 -0.0335 -0.4563
   86MOL0     C11792   0.248   7.911   3.544  0.1234 -0.0986 -0.3807
   86MOL0     C11793   0.246   8.062   3.517  0.5636 -0.5824  1.6993
   86MOL0     C11794   0.381   8.112   3.481 -0.4131  0.9438  0.7859
   86MOL0     C11795   0.489   8.165   3.447  0.6126  0.1685  0.2933
   86MOL0     C11796   0.548   7.571   3.784 -0.7895  0.9258 -0.8083
   86MOL0     C11797   0.623   7.474   3.850  0.9853  0.1496  0.0899
   86MOL0     C11798   0.763   7.504   3.894  0.3309  0.6242  0.1757
   86MOL0     H11799   0.445   7.102   4.146 -0.6813  0.0614  1.0979
   86MOL0     H11800   0.468   6.942   4.324  1.6642 -0.8066  2.8270
   86MOL0     H11801   0.491   6.568   4.356  1.7039 -1.5677 -1.8576
   86MOL0     H11802   0.448   6.727   4.414 -2.0675 -2.3106  0.4851
   86MOL0     H11803   0.544   6.590   4.610 -3.1468  2.3770 -1.2089
   86MOL0     H11804   0.679   6.547   4.517  2.6227  2.9094  2.6111
   86MOL0     H11805   0.695   6.726   4.705 -1.1398 -0.4378 -0.4386
   86MOL0     H11806   0.792   6.722   4.561  0.9917  5.0958 -0.5685
   86MOL0     H11807   0.670   6.927   4.471 -1.0913  1.1947 -0.1177
   86MOL0     H11808   0.534   6.901   4.582 -1.1120 -0.9066 -2.8382
   86MOL0     H11809   0.707   6.973   4.775 -0.5627  0.8633  0.1781
   86MOL0     H11810   0.659   7.083   4.657  1.4708  0.4807  1.7602
   86MOL0     H11811   0.934   6.951   4.612  3.1386  2.3068 -2.6334
   86MOL0     H11812   0.844   7.076   4.520 -0.5917  2.9458  1.0049
   86MOL0     H11813   0.933   7.098   4.792 -1.4778 -0.4316  0.0156
   86MOL0     H11814   0.852   7.226   4.683 -0.0066 -0.2145 -2.5456
   86MOL0     H11815   1.044   7.254   4.554  0.8806 -1.4333 -0.9822
   86MOL0     H11816   1.088   7.258   4.727  1.1403 -1.1508  0.3072
   86MOL0     H11817   1.272   7.078   4.811  3.1956 -0.2157 -2.0188
   86MOL0     H11818   1.506   6.983   4.748  2.4853  0.8572 -1.4498
   86MOL0     H11819   1.515   6.881   4.610  3.4200  3.9339  0.2755
   86MOL0     H11820   1.377   6.810   4.874  3.0626 -0.6098  1.0214
   86MOL0     H11821   1.331   6.719   4.746 -0.9092  0.2229  2.6975
   86MOL0     H11822   1.611   6.727   4.868  0.7007 -0.2502 -1.3690
   86MOL0     H11823   1.501   6.595   4.868 -0.7780  0.6223  0.7721
   86MOL0     H11824   1.579   6.512   4.684  2.2482 -0.9899  2.3988
   86MOL0     H11825   1.522   6.660   4.593 -2.8055  2.3053  3.3088
   86MOL0     H11826   1.708   6.489   4.862 -0.2249 -2.9379 -0.4670
   86MOL0     H11827   1.978   6.374   5.058  1.2473 -0.4730 -0.2389
   86MOL0     H11828   1.926   6.216   4.991 -2.0616  0.6706  1.7952
   86MOL0     H11829   1.806   6.336   5.015 -0.2346  2.9029 -1.9235
   86MOL0     H11830   2.503   6.347   4.769  0.6409 -1.8588  0.9944
   86MOL0     H11831   2.662   6.210   4.807  0.0679 -0.0645 -0.6981
   86MOL0     H11832   2.749   5.751   4.757 -3.2369 -0.5936  0.6659
   86MOL0     H11833   2.607   5.777   4.658 -0.1173  0.5653  1.4048
   86MOL0     H11834   2.801   5.773   4.525 -0.0311 -3.0373  3.9253
   86MOL0     H11835   2.745   5.948   4.520  2.8183  0.7797 -1.4840
   86MOL0     H11836   2.963   5.835   4.705  2.4234  1.1097  0.9274
   86MOL0     H11837   2.895   5.994   4.705 -2.1514 -0.9608  1.2972
   86MOL0     H11838   2.959   5.947   4.425 -2.3159  2.0540  0.4195
   86MOL0     H11839   3.094   5.888   4.515 -1.9109 -2.2707 -2.7367
   86MOL0     H11840   3.150   6.103   4.617  1.2121 -2.7028 -1.6365
   86MOL0     H11841   3.127   6.136   4.458  4.0881 -1.8312  1.6892
   86MOL0     H11842   3.002   6.312   4.619 -0.4886 -0.9575  1.5640
   86MOL0     H11843   2.887   6.187   4.654 -0.6181 -2.1511 -0.7741
   86MOL0     H11844   2.841   6.169   4.393 -0.3463  0.8070 -0.6916
   86MOL0     H11845   2.948   6.300   4.369 -2.6677 -4.5663 -5.7146
   86MOL0     H11846   2.786   6.421   4.531  2.9612 -0.1929 -0.2574
   86MOL0     H11847   2.691   6.279   4.534 -0.9038  0.4443  0.0021
   86MOL0     H11848   2.395   5.867   4.746  2.0410 -0.6306 -0.0276
   86MOL0     H11849   2.214   6.043   4.689  0.6251  0.3742 -0.7214
   86MOL0     H11850   2.120   6.488   4.596  0.4033  0.0574  1.2303
   86MOL0     H11851   1.915   6.620   4.530  0.2398 -0.9194 -1.5651
   86MOL0     H11852   0.766   6.728   4.089 -0.3534  0.0298  1.8964
   86MOL0     H11853   0.740   6.906   3.901 -1.0173  0.2942  0.8175
   86MOL0     H11854   0.381   7.232   3.821  3.4218 -1.8871  0.7331
   86MOL0     H11855   0.271   7.410   3.708  0.6689 -1.9138 -0.4325
   86MOL0     H11856   0.381   7.785   3.844  1.6121  0.2091 -0.6481
   86MOL0     H11857   0.458   7.845   3.695 -1.1805 -1.6514 -4.2978
   86MOL0     H11858   0.258   7.969   3.745  2.7116  1.0774 -2.6800
   86MOL0     H11859   0.157   7.821   3.719  1.7151 -2.2580  2.9251
   86MOL0     H11860   0.329   7.859   3.491  0.2039 -0.9566  0.5424
   86MOL0     H11861   0.154   7.876   3.502 -1.2328 -0.0432  2.4090
   86MOL0     H11862   0.188   8.124   3.585 -1.3285 -0.4545  0.0638
   86MOL0     H11863   0.180   8.074   3.431  1.3607  1.9260  1.3387
   86MOL0     H11864   0.581   8.219   3.433 -0.4993  1.8485 -1.0241
   86MOL0     H11865   0.604   7.662   3.763  1.8352 -0.8904 -2.3413
   86MOL0     H11866   0.766   7.502   4.003 -0.8175  2.1786  0.2748
   86MOL0     H11867   0.844   7.443   3.854  0.2995 -0.9700  2.3440
   86MOL0     H11868   0.787   7.604   3.858 -1.7715  0.6114 -1.5073
   87MOL0     O11869  11.217   0.321   0.844 -0.4715  0.0786 -0.5469
   87MOL0     C11870  11.236   0.346   0.724 -0.2122 -0.6604  0.2071
   87MOL0     O11871  11.147   0.342   0.624 -0.2277 -0.0040  0.7388
   87MOL0     C11872  11.033   0.415   0.627 -0.0692 -0.7610 -0.0022
   87MOL0     C11873  10.972   0.433   0.503 -0.9065 -0.4182  0.5684
   87MOL0     C11874  10.849   0.497   0.485  0.1270 -0.1986 -0.1023
   87MOL0     C11875  10.775   0.551   0.594 -0.0707  0.8296 -0.9808
   87MOL0     O11876  10.656   0.619   0.579  0.7810 -0.1038 -0.0899
   87MOL0     C11877  10.609   0.703   0.680 -0.1888  0.0069 -0.2713
   87MOL0     C11878  10.494   0.628   0.742 -0.3192  0.6512  0.0602
   87MOL0     C11879  10.444   0.707   0.865 -0.2180 -0.2335  0.7896
   87MOL0     C11880  10.423   0.612   0.983 -0.5762  0.6131  1.2335
   87MOL0     C11881  10.368   0.678   1.108 -0.6455  0.1309  0.3596
   87MOL0     C11882  10.233   0.752   1.087 -0.0275 -0.6828  0.1223
   87MOL0     C11883  10.181   0.824   1.208  0.0442  0.7888  0.2969
   87MOL0     C11884  10.252   0.968   1.212 -0.3503 -0.6914  0.2867
   87MOL0     N11885  10.223   1.053   1.327 -0.0132 -0.4686 -0.1769
   87MOL0     C11886  10.105   1.089   1.374 -0.2659  0.0397 -0.0823
   87MOL0     C11887  10.141   1.182   1.468 -0.4325 -0.2970  0.1118
   87MOL0     C11888  10.046   1.269   1.557  1.3533 -0.8540  0.2308
   87MOL0     C11889   9.982   1.191   1.667 -0.2214 -0.9808  0.1483
   87MOL0     C11890   9.919   1.278   1.780 -0.6455  0.3731 -0.1452
   87MOL0     C11891   9.915   1.218   1.912  1.1801  0.8978  0.4548
   87MOL0     O11892   9.845   1.294   2.013  0.6188  0.1057  0.6196
   87MOL0     C11893   9.714   1.312   2.010  0.0774  0.0371 -0.2955
   87MOL0     C11894   9.660   1.401   2.109  0.6270 -0.3539 -0.7704
   87MOL0     C11895   9.523   1.444   2.102 -0.2213 -0.5575 -1.0144
   87MOL0     C11896   9.477   1.541   2.207  0.5699 -0.3204 -0.1281
   87MOL0     C11897   9.448   1.401   1.996 -0.2288  0.2079  0.1888
   87MOL0     C11898   9.318   1.450   1.961 -0.4418  0.3602  0.2565
   87MOL0     O11899   9.305   1.587   1.972 -0.0263 -0.3558 -0.8513
   87MOL0     C11900   9.197   1.659   1.933  0.1672  0.3160 -0.2667
   87MOL0     C11901   9.067   1.625   1.963 -0.0041  1.1710  0.3931
   87MOL0     C11902   8.954   1.706   1.934 -0.5184  0.0533 -0.1024
   87MOL0     C11903   8.994   1.840   1.897 -0.4278  0.0438 -0.4417
   87MOL0     O11904   8.907   1.946   1.884 -0.0269  0.6496  0.8993
   87MOL0     C11905   8.804   1.949   1.972  0.1095  0.1817 -0.5891
   87MOL0     C11906   8.765   2.097   2.002 -0.1950  0.3233 -0.5491
   87MOL0     C11907   8.868   2.186   2.079  0.2126 -0.1435  0.9287
   87MOL0     C11908   8.989   2.221   1.996 -0.7166 -0.0366 -0.2681
   87MOL0     C11909   9.072   2.327   2.057 -0.2859 -0.6321  0.7460
   87MOL0     C11910   9.222   2.342   2.010 -0.6754  0.3077 -1.0316
   87MOL0     C11911   9.300   2.207   2.035 -0.2782  0.5619  0.2680
   87MOL0     C11912   9.447   2.221   2.002  0.4933  0.5383  0.2697
   87MOL0    Cl11913   9.528   2.061   1.972 -0.3186  0.3842  0.3899
   87MOL0     C11914   9.127   1.865   1.857  0.7506 -0.1337  0.3063
   87MOL0     C11915   9.222   1.776   1.868  0.6877 -0.1676 -0.1759
   87MOL0     O11916   9.238   1.371   1.912 -0.1114  0.1661 -0.1423
   87MOL0     C11917   9.491   1.307   1.915 -0.4026  1.1014  0.6848
   87MOL0     C11918   9.624   1.268   1.914 -0.3072  0.4197 -0.7148
   87MOL0     N11919  10.274   1.195   1.484 -0.4860 -0.1011 -0.7198
   87MOL0     N11920  10.320   1.112   1.397  0.0624 -0.1302  0.1322
   87MOL0     C11921  10.837   0.537   0.719  0.1525 -0.5853  0.0157
   87MOL0     C11922  10.963   0.476   0.733 -0.0531 -0.5934 -0.2051
   87MOL0     C11923  11.375   0.377   0.682 -0.1620  0.3173 -1.1111
   87MOL0     C11924  11.387   0.420   0.550 -0.9939  0.0458  0.6828
   87MOL0     C11925  11.500   0.442   0.478 -0.6942  0.2082 -0.8191
   87MOL0     C11926  11.624   0.410   0.548  1.2189  0.6441 -0.4377
   87MOL0     O11927  11.748   0.402   0.495 -0.6303  1.1123  1.0874
   87MOL0     C11928  11.767   0.446   0.358 -0.4745  0.7421 -0.7629
   87MOL0     C11929  11.758   0.328   0.267 -0.1852  0.0999 -0.1543
   87MOL0     C11930  11.786   0.350   0.122 -0.2585  0.5054 -0.1449
   87MOL0     C11931  11.745   0.225   0.041  0.2207  0.2227  0.8535
   87MOL0     C11932  11.602   0.214   0.038 -0.2343 -0.1220  0.4307
   87MOL0     C11933  11.481   0.209   0.039 -0.4782  0.2943 -0.1197
   87MOL0     C11934  11.618   0.384   0.691  1.2406  0.8121  0.4798
   87MOL0     C11935  11.495   0.357   0.755 -0.0847 -0.5087 -0.8427
   87MOL0     C11936  11.506   0.305   0.891 -0.2112  0.9223 -0.5270
   87MOL0     H11937  11.024   0.399   0.413  2.2153 -0.1589  2.1564
   87MOL0     H11938  10.814   0.507   0.383  4.0952  0.5885 -1.5295
   87MOL0     H11939  10.567   0.794   0.635  0.5098 -0.6986 -2.4577
   87MOL0     H11940  10.676   0.731   0.761 -1.2398 -0.5540  0.8290
   87MOL0     H11941  10.415   0.615   0.667 -1.6939  1.1810  1.3567
   87MOL0     H11942  10.524   0.528   0.772  0.3878 -0.0117 -2.5845
   87MOL0     H11943  10.518   0.783   0.893 -1.7460  4.1047 -5.0942
   87MOL0     H11944  10.355   0.767   0.843 -1.1338 -0.8182  2.7347
   87MOL0     H11945  10.356   0.529   0.961 -2.0206  2.1292 -0.3711
   87MOL0     H11946  10.522   0.569   1.003 -1.4582 -2.3230 -0.1337
   87MOL0     H11947  10.433   0.757   1.148  0.7979  0.3719 -2.2182
   87MOL0     H11948  10.351   0.601   1.184  0.1804  1.6130  2.1367
   87MOL0     H11949  10.233   0.824   1.004 -1.9149  2.0678  2.3292
   87MOL0     H11950  10.158   0.680   1.053 -2.3442  1.1300  1.1663
   87MOL0     H11951  10.207   0.776   1.303 -1.2594  0.0779  0.3126
   87MOL0     H11952  10.073   0.842   1.207  0.0410  0.8776 -1.5850
   87MOL0     H11953  10.361   0.967   1.208 -0.1565  3.5062  0.1251
   87MOL0     H11954  10.218   1.018   1.121 -1.5387 -2.7583 -0.4898
   87MOL0     H11955  10.009   1.052   1.340 -0.5166  2.3245 -2.1375
   87MOL0     H11956   9.967   1.320   1.502  2.1208 -0.2374 -0.3232
   87MOL0     H11957  10.106   1.342   1.611  2.2334 -1.8201  0.6116
   87MOL0     H11958   9.896   1.139   1.624  0.7422  0.1221 -3.4093
   87MOL0     H11959  10.044   1.109   1.706 -0.7508 -2.7322 -2.4413
   87MOL0     H11960   9.974   1.373   1.787  0.0495 -0.0897  0.8076
   87MOL0     H11961   9.814   1.300   1.758 -0.4260  2.3919  0.5543
   87MOL0     H11962   9.878   1.117   1.894 -1.6228  2.1525 -1.5465
   87MOL0     H11963  10.017   1.206   1.950  0.2559 -1.8401  2.3880
   87MOL0     H11964   9.717   1.439   2.193  2.6854  4.8266 -4.0168
   87MOL0     H11965   9.536   1.525   2.298  2.5617  0.4368 -1.2136
   87MOL0     H11966   9.368   1.537   2.217 -0.1635  4.9635 -2.4677
   87MOL0     H11967   9.507   1.643   2.180 -0.9605  0.7892  2.0994
   87MOL0     H11968   9.051   1.531   2.015  3.2485 -0.7024 -1.6490
   87MOL0     H11969   8.856   1.665   1.956 -0.3219 -0.0757  0.5383
   87MOL0     H11970   8.724   1.891   1.923  1.6530  0.0956 -3.1726
   87MOL0     H11971   8.825   1.912   2.073 -0.0509  0.4792 -0.4440
   87MOL0     H11972   8.730   2.149   1.913 -1.5387  2.3212  1.0631
   87MOL0     H11973   8.687   2.096   2.079  2.0480  3.3288  2.0481
   87MOL0     H11974   8.890   2.138   2.175  2.5808 -0.6994  0.1832
   87MOL0     H11975   8.810   2.275   2.104 -2.0860 -0.9979 -0.9563
   87MOL0     H11976   8.962   2.240   1.892  1.2693  0.6571 -0.7032
   87MOL0     H11977   9.042   2.126   1.989 -0.1209  0.2615  0.0854
   87MOL0     H11978   9.032   2.425   2.030 -0.7848 -1.5583 -2.2325
   87MOL0     H11979   9.067   2.303   2.164  2.0511 -3.1488  0.3921
   87MOL0     H11980   9.273   2.425   2.060 -0.5944  0.4744 -1.3914
   87MOL0     H11981   9.211   2.368   1.904  1.4802  1.5202 -1.0080
   87MOL0     H11982   9.260   2.130   1.968  2.0593 -0.4541 -0.0340
   87MOL0     H11983   9.279   2.176   2.138  0.5095  1.3687  0.6906
   87MOL0     H11984   9.494   2.264   2.092 -0.1661 -0.6672  1.2114
   87MOL0     H11985   9.455   2.292   1.919  2.9135 -2.7188 -2.5370
   87MOL0     H11986   9.155   1.965   1.827  1.0998  0.0611  1.2431
   87MOL0     H11987   9.323   1.800   1.836  0.2050  0.5100 -1.2425
   87MOL0     H11988   9.436   1.282   1.825  0.3081  1.4318  0.1408
   87MOL0     H11989   9.660   1.191   1.846 -2.5858  1.2295 -2.9834
   87MOL0     H11990  10.771   0.572   0.798 -0.8000  3.9894 -2.4173
   87MOL0     H11991  11.006   0.457   0.831 -1.1131 -1.2655  0.1447
   87MOL0     H11992  11.304   0.453   0.488  1.6980  1.5341 -2.4211
   87MOL0     H11993  11.496   0.481   0.377  3.5861  1.1935 -0.8019
   87MOL0     H11994  11.705   0.531   0.328 -1.6784  0.3252  0.4599
   87MOL0     H11995  11.869   0.486   0.364  0.9521 -2.6994  1.6359
   87MOL0     H11996  11.659   0.288   0.291 -0.3016  0.0272 -0.7361
   87MOL0     H11997  11.815   0.245   0.308 -1.1570 -1.0931 -1.1523
   87MOL0     H11998  11.733   0.441   0.091 -1.8159 -0.8322 -1.6104
   87MOL0     H11999  11.892   0.374   0.112 -0.4223  1.7633  0.8246
   87MOL0     H12000  11.784   0.132   0.085 -1.4726 -2.2416 -2.4253
   87MOL0     H12001  11.793   0.226  -0.057  1.7849  2.1592  1.5672
   87MOL0     H12002  11.376   0.227   0.050 -0.5819 -0.0677 -0.4822
   87MOL0     H12003  11.705   0.377   0.755  3.4152  1.2287 -2.2544
   87MOL0     H12004  11.501   0.377   0.973  0.7454  0.4459 -0.0289
   87MOL0     H12005  11.424   0.233   0.898  0.2790  0.3380 -0.6745
   87MOL0     H12006  11.603   0.256   0.906 -0.3116  0.8728 -0.0409
   88MOL0     O12007   5.487   4.247   3.187 -0.3269  0.0960  0.2126
   88MOL0     C12008   5.567   4.163   3.206 -1.0606 -0.1220  0.3369
   88MOL0     O12009   5.707   4.181   3.198 -0.4114 -1.5131 -0.4329
   88MOL0     C12010   5.763   4.309   3.191  1.1216  0.1342  0.0573
   88MOL0     C12011   5.693   4.428   3.237  0.4426 -0.4445  0.1247
   88MOL0     C12012   5.760   4.556   3.229  0.9699  0.0482  0.4073
   88MOL0     C12013   5.882   4.569   3.162 -0.0011 -0.4746 -0.1444
   88MOL0     O12014   5.955   4.682   3.152  0.7108  0.6147 -0.7344
   88MOL0     C12015   5.877   4.792   3.103 -0.0654  0.0736  0.3407
   88MOL0     C12016   5.970   4.905   3.041  1.2948  0.2475 -0.7024
   88MOL0     C12017   5.877   5.013   2.976 -0.7606 -0.3355 -0.3721
   88MOL0     C12018   5.968   5.116   2.888 -0.4486  0.4810  0.2105
   88MOL0     C12019   5.880   5.236   2.852 -0.4072  0.5508 -0.0708
   88MOL0     C12020   5.781   5.216   2.748 -0.1866 -0.3791  0.4298
   88MOL0     C12021   5.846   5.212   2.608 -0.1524 -0.5889  0.5980
   88MOL0     C12022   5.740   5.223   2.498  0.5189  0.5402 -0.7617
   88MOL0     N12023   5.814   5.252   2.375 -0.8038  0.1728 -0.7833
   88MOL0     C12024   5.889   5.160   2.301 -0.4802 -1.3904 -0.7570
   88MOL0     C12025   5.933   5.224   2.195 -0.2815 -0.6086 -0.5481
   88MOL0     C12026   6.022   5.176   2.091  0.4381 -0.9366  0.0510
   88MOL0     C12027   6.162   5.230   2.121  0.3983  0.1094  0.3145
   88MOL0     C12028   6.206   5.373   2.085 -0.1506 -0.1101  0.6854
   88MOL0     C12029   6.356   5.414   2.084  0.8350  0.8404  0.5372
   88MOL0     O12030   6.418   5.350   2.194  0.5052 -0.0467  0.6729
   88MOL0     C12031   6.518   5.257   2.154  0.5431 -0.1439 -0.1907
   88MOL0     C12032   6.505   5.121   2.183 -0.1491  0.0624  0.6718
   88MOL0     C12033   6.612   5.024   2.178 -0.0799  0.6688 -0.6139
   88MOL0     C12034   6.576   4.894   2.237  0.7137  0.3206  0.4501
   88MOL0     C12035   6.744   5.074   2.128  0.5724 -0.4025 -0.3535
   88MOL0     C12036   6.857   4.990   2.109  0.6183  0.7506  0.2654
   88MOL0     O12037   6.844   4.854   2.125  0.2845 -0.8924 -0.6239
   88MOL0     C12038   6.951   4.781   2.086 -0.8384  0.5334  0.9145
   88MOL0     C12039   6.973   4.759   1.948 -0.7626 -0.6496  0.7560
   88MOL0     C12040   7.094   4.688   1.911  0.2903  0.2672  1.2007
   88MOL0     C12041   7.175   4.636   2.007  1.2279  0.1984  0.2537
   88MOL0     O12042   7.285   4.563   1.960  0.5600 -0.0781 -0.1694
   88MOL0     C12043   7.404   4.557   2.041  0.3323 -0.1794 -0.8703
   88MOL0     C12044   7.523   4.527   1.957  0.6736  0.4096 -0.1059
   88MOL0     C12045   7.561   4.637   1.853 -0.1273 -0.0294 -0.1298
   88MOL0     C12046   7.703   4.607   1.803 -1.2959 -0.3573  1.1668
   88MOL0     C12047   7.821   4.629   1.899  0.7323  0.0520 -0.4027
   88MOL0     C12048   7.801   4.727   2.019 -0.3494  0.2198 -0.8414
   88MOL0     C12049   7.815   4.872   1.970 -0.3981  0.1018 -0.7399
   88MOL0     C12050   7.955   4.922   1.981  0.0622  0.4223  0.3664
   88MOL0    Cl12051   8.021   4.969   2.137  0.1045 -0.3905 -0.3978
   88MOL0     C12052   7.147   4.656   2.145 -0.5882 -0.3158  0.9170
   88MOL0     C12053   7.036   4.731   2.185 -0.9540 -0.5527 -0.5703
   88MOL0     O12054   6.960   5.041   2.074 -0.3115  0.1796 -0.0676
   88MOL0     C12055   6.750   5.214   2.099 -0.3835 -0.3585 -0.4474
   88MOL0     C12056   6.643   5.304   2.124 -0.5412  0.4560  0.5283
   88MOL0     N12057   5.888   5.354   2.205  0.6893  1.5415  0.2889
   88MOL0     N12058   5.808   5.365   2.304  0.0296 -0.5585  0.1389
   88MOL0     C12059   5.952   4.452   3.125  0.3207  0.6760  0.1704
   88MOL0     C12060   5.886   4.324   3.128  0.4603  1.0406 -0.3921
   88MOL0     C12061   5.531   4.024   3.232 -1.0074  0.3485 -1.4161
   88MOL0     C12062   5.639   3.930   3.258 -0.5823  0.4525  1.1401
   88MOL0     C12063   5.606   3.798   3.283  0.2348 -0.5825  0.4922
   88MOL0     C12064   5.477   3.750   3.266 -0.1951  0.6797  0.8310
   88MOL0     O12065   5.449   3.618   3.285 -0.0047  0.0145 -0.4095
   88MOL0     C12066   5.323   3.586   3.343  0.5646  0.4614 -0.6544
   88MOL0     C12067   5.314   3.437   3.398  0.4988  0.2050 -0.1629
   88MOL0     C12068   5.442   3.370   3.446 -0.3058  0.0103  0.1131
   88MOL0     C12069   5.422   3.228   3.491 -0.8075  0.1315  0.6022
   88MOL0     C12070   5.387   3.135   3.385  0.5781  0.4633 -0.4630
   88MOL0     C12071   5.351   3.062   3.293 -0.8718 -0.8193 -0.0305
   88MOL0     C12072   5.378   3.837   3.219  1.3638 -0.3860  0.4661
   88MOL0     C12073   5.401   3.976   3.209  0.4987 -0.4279  0.0452
   88MOL0     C12074   5.284   4.056   3.175 -0.5921 -0.0248  0.0366
   88MOL0     H12075   5.608   4.418   3.304 -0.5536  1.1791 -0.8234
   88MOL0     H12076   5.713   4.648   3.262 -1.0137  0.6547 -3.5297
   88MOL0     H12077   5.826   4.841   3.187  2.7649  2.2434  0.9442
   88MOL0     H12078   5.813   4.754   3.024  0.9601 -0.8371 -0.0837
   88MOL0     H12079   6.019   4.948   3.128 -0.8440  0.5892  0.3947
   88MOL0     H12080   6.043   4.868   2.968  4.1508 -0.0403  2.0731
   88MOL0     H12081   5.803   4.975   2.905 -1.1122 -0.8653  0.2652
   88MOL0     H12082   5.828   5.066   3.059 -1.3520  1.7437 -1.9602
   88MOL0     H12083   6.069   5.138   2.924  1.4166  1.1534 -4.6003
   88MOL0     H12084   5.999   5.065   2.796 -1.1133  0.9171 -0.2715
   88MOL0     H12085   5.950   5.319   2.835 -0.0548  0.5167  1.1207
   88MOL0     H12086   5.828   5.263   2.944  3.0330  1.7109  1.7296
   88MOL0     H12087   5.739   5.117   2.769  0.1190 -0.7625 -0.6925
   88MOL0     H12088   5.709   5.296   2.770  0.0234 -0.1741  0.3819
   88MOL0     H12089   5.907   5.121   2.595  2.5745  1.5243 -3.6252
   88MOL0     H12090   5.919   5.289   2.583 -0.7303 -1.1398 -3.6086
   88MOL0     H12091   5.694   5.125   2.482 -0.5793  0.9335 -0.1229
   88MOL0     H12092   5.663   5.294   2.529  0.2363  0.4751 -1.2876
   88MOL0     H12093   5.904   5.058   2.337 -1.6647 -1.0795  0.7361
   88MOL0     H12094   5.982   5.201   1.992  0.6075  2.1319  0.6741
   88MOL0     H12095   6.039   5.068   2.094 -0.7249 -1.1277  0.1591
   88MOL0     H12096   6.188   5.218   2.227 -0.9433  0.5011  0.7026
   88MOL0     H12097   6.229   5.172   2.057 -1.0433  0.2038 -1.3421
   88MOL0     H12098   6.166   5.377   1.983 -0.2448 -1.3902  0.6671
   88MOL0     H12099   6.157   5.439   2.158  0.0518  0.7256  0.0842
   88MOL0     H12100   6.402   5.389   1.988  1.5616 -1.5977  1.4518
   88MOL0     H12101   6.354   5.523   2.090  2.3848  0.9057  0.1084
   88MOL0     H12102   6.409   5.087   2.218 -0.9290  0.0201 -1.3910
   88MOL0     H12103   6.513   4.834   2.170  0.8637 -0.1426  0.7216
   88MOL0     H12104   6.520   4.912   2.329 -0.6941  0.1914 -0.3490
   88MOL0     H12105   6.668   4.836   2.254 -0.2815 -2.8741 -3.4789
   88MOL0     H12106   6.907   4.815   1.882  1.4094  1.3054  0.1068
   88MOL0     H12107   7.105   4.667   1.805  0.5185 -1.4969  1.5534
   88MOL0     H12108   7.412   4.648   2.101 -2.1343 -0.2822 -0.2718
   88MOL0     H12109   7.394   4.477   2.115  0.5192  0.2362 -0.3905
   88MOL0     H12110   7.600   4.528   2.035 -0.3447  1.0308  0.9341
   88MOL0     H12111   7.501   4.433   1.906 -6.7230  2.7064 -2.3196
   88MOL0     H12112   7.562   4.741   1.886  0.2944  1.7873 -5.0669
   88MOL0     H12113   7.482   4.648   1.778  0.3244  1.0420 -0.4596
   88MOL0     H12114   7.726   4.665   1.714  1.9621 -3.2295 -0.0576
   88MOL0     H12115   7.705   4.505   1.763 -2.9141  0.1647 -0.3852
   88MOL0     H12116   7.836   4.526   1.933 -1.2853  0.0086  0.5250
   88MOL0     H12117   7.918   4.646   1.853 -0.0703 -2.8646 -3.5912
   88MOL0     H12118   7.880   4.710   2.092 -0.0147  1.5256 -0.8622
   88MOL0     H12119   7.700   4.712   2.056 -1.5901 -2.8342 -4.7849
   88MOL0     H12120   7.738   4.933   2.019  1.5525  1.7622  0.3896
   88MOL0     H12121   7.787   4.874   1.864  0.4514 -0.3062 -0.9821
   88MOL0     H12122   7.961   5.003   1.907  1.7028  0.5756  0.6443
   88MOL0     H12123   8.023   4.857   1.926  0.2618  0.3904  0.6480
   88MOL0     H12124   7.206   4.607   2.221 -2.3812 -3.6359  0.3464
   88MOL0     H12125   7.010   4.748   2.289 -0.7543 -0.0517 -0.5986
   88MOL0     H12126   6.841   5.257   2.059 -0.2511 -1.3135 -1.2418
   88MOL0     H12127   6.654   5.412   2.127  3.1412  0.2007  3.7955
   88MOL0     H12128   6.048   4.460   3.074 -0.6507  1.8466 -1.6037
   88MOL0     H12129   5.946   4.235   3.110  0.6090  0.6929  1.6300
   88MOL0     H12130   5.742   3.965   3.257 -1.1319  2.1469  0.7404
   88MOL0     H12131   5.681   3.723   3.304  0.8922  0.4682  2.0665
   88MOL0     H12132   5.297   3.657   3.421  0.6571  2.2816 -2.2177
   88MOL0     H12133   5.244   3.591   3.268 -3.3246  0.1935  3.0458
   88MOL0     H12134   5.278   3.366   3.322 -0.9885  0.3722  0.3458
   88MOL0     H12135   5.235   3.418   3.472  0.5751 -1.3934 -0.4382
   88MOL0     H12136   5.519   3.379   3.369 -0.3706  0.9061  0.1402
   88MOL0     H12137   5.469   3.429   3.534  0.4816  0.9567 -0.7249
   88MOL0     H12138   5.346   3.213   3.568 -0.5127 -1.3245  0.6402
   88MOL0     H12139   5.517   3.201   3.538 -2.1705  0.8919  4.0956
   88MOL0     H12140   5.318   2.996   3.215  0.6014 -1.3142 -0.2714
   88MOL0     H12141   5.284   3.789   3.190  0.7788 -1.3201  3.5122
   88MOL0     H12142   5.197   3.989   3.171 -0.0438 -0.8819  1.5063
   88MOL0     H12143   5.259   4.132   3.249 -1.5601  1.3132 -1.5730
   88MOL0     H12144   5.293   4.107   3.078 -1.3292 -3.2675 -1.9011
   89MOL0     O12145   1.826   0.729   0.097  0.7474 -0.0190  0.0788
   89MOL0     C12146   1.718   0.668   0.117  1.0817  0.7574  0.0960
   89MOL0     O12147   1.660   0.580   0.029  0.1004 -0.1271 -1.1636
   89MOL0     C12148   1.733   0.551  -0.086  0.7739 -0.5762 -0.0102
   89MOL0     C12149   1.728   0.632  -0.206  0.3189  0.3136  0.0264
   89MOL0     C12150   1.789   0.590  -0.318  0.4499  0.4646  0.3200
   89MOL0     C12151   1.851   0.466  -0.323  0.3788 -0.0374 -0.6941
   89MOL0     O12152   1.919   0.425  -0.434 -1.2966 -0.1818  0.4237
   89MOL0     C12153   1.947   0.526  -0.527 -0.5729  0.0415  0.0124
   89MOL0     C12154   2.033   0.474  -0.637 -0.4593 -0.3780  0.0575
   89MOL0     C12155   1.971   0.350  -0.718 -0.5133 -0.2487 -0.4914
   89MOL0     C12156   2.030   0.309  -0.853  0.6485 -0.6158  0.8373
   89MOL0     C12157   1.932   0.217  -0.927  0.0106 -0.6370  0.1502
   89MOL0     C12158   1.925   0.075  -0.864  0.2334 -0.1822  0.4229
   89MOL0     C12159   2.056  -0.008  -0.857 -0.0196  0.3278  0.4763
   89MOL0     C12160   2.108  -0.036  -1.006 -0.2709 -0.6481 -0.5585
   89MOL0     N12161   2.189  -0.158  -0.996 -0.5412  0.0746  0.5389
   89MOL0     C12162   2.141  -0.280  -1.003 -0.1034 -0.2620 -0.2935
   89MOL0     C12163   2.234  -0.371  -0.954  0.1087  0.3634 -0.4030
   89MOL0     C12164   2.224  -0.522  -0.961 -0.7292 -0.6391 -0.4024
   89MOL0     C12165   2.264  -0.572  -1.097  0.7496 -0.9061 -0.8241
   89MOL0     C12166   2.302  -0.717  -1.096 -0.3227  0.3747  0.2446
   89MOL0     C12167   2.327  -0.777  -1.236  0.3751 -0.4168  0.4531
   89MOL0     O12168   2.402  -0.892  -1.213  0.2127  0.4379  1.0460
   89MOL0     C12169   2.341  -1.011  -1.182 -0.3833  0.0341  0.2543
   89MOL0     C12170   2.206  -1.024  -1.142 -0.2021 -0.0594 -0.0318
   89MOL0     C12171   2.136  -1.145  -1.124 -0.8939 -0.2644 -0.2962
   89MOL0     C12172   1.986  -1.141  -1.092 -1.0003  1.1217  0.4501
   89MOL0     C12173   2.205  -1.264  -1.142  0.7241 -0.2642 -1.0159
   89MOL0     C12174   2.155  -1.408  -1.105 -1.2697 -0.6105  0.0160
   89MOL0     O12175   2.251  -1.497  -1.147 -0.1163 -0.6672  0.5021
   89MOL0     C12176   2.237  -1.635  -1.133  0.8045  0.4637 -0.4111
   89MOL0     C12177   2.156  -1.705  -1.049  0.2815 -0.6607  0.1887
   89MOL0     C12178   2.157  -1.847  -1.056  0.0052 -0.9448 -0.0056
   89MOL0     C12179   2.228  -1.917  -1.147 -0.7328 -0.2342 -1.3794
   89MOL0     O12180   2.220  -2.053  -1.130  0.2551  0.2309  0.2863
   89MOL0     C12181   2.347  -2.119  -1.123 -0.0093  0.5715 -0.6455
   89MOL0     C12182   2.333  -2.272  -1.089 -0.0201  0.1687 -1.1214
   89MOL0     C12183   2.220  -2.306  -0.988 -0.0805 -0.5708  0.7570
   89MOL0     C12184   2.230  -2.229  -0.851  0.6983 -0.3694 -0.8491
   89MOL0     C12185   2.363  -2.281  -0.783 -0.0004 -0.7943 -0.5622
   89MOL0     C12186   2.369  -2.262  -0.633 -0.4188  0.5159  0.2030
   89MOL0     C12187   2.482  -2.349  -0.577  0.0376 -0.2458  0.3454
   89MOL0     C12188   2.500  -2.310  -0.429 -0.5947  0.8860  0.3778
   89MOL0    Cl12189   2.561  -2.144  -0.411 -0.3960  0.5346  0.4984
   89MOL0     C12190   2.320  -1.845  -1.225  0.3932 -0.0138 -0.5661
   89MOL0     C12191   2.324  -1.702  -1.220 -0.1762  0.1875  0.7746
   89MOL0     O12192   2.041  -1.428  -1.074 -0.0207  0.7587 -0.3936
   89MOL0     C12193   2.343  -1.250  -1.172 -0.8495 -0.5061 -0.5973
   89MOL0     C12194   2.410  -1.127  -1.192  1.4581 -0.2085  0.4239
   89MOL0     N12195   2.338  -0.294  -0.905 -0.0588  0.1330 -0.9492
   89MOL0     N12196   2.307  -0.166  -0.932  0.1413  0.2978  0.1042
   89MOL0     C12197   1.850   0.382  -0.216 -0.2887  0.0471 -0.1072
   89MOL0     C12198   1.799   0.428  -0.092  0.3502 -0.2738  0.7365
   89MOL0     C12199   1.646   0.686   0.248 -0.7149 -0.1612 -0.6477
   89MOL0     C12200   1.527   0.620   0.263 -0.5255 -0.4066  0.9978
   89MOL0     C12201   1.456   0.627   0.385  0.0315  0.6970  0.0303
   89MOL0     C12202   1.510   0.700   0.496 -0.4050 -0.5734  0.2728
   89MOL0     O12203   1.457   0.705   0.623  0.6973  0.0292 -0.4798
   89MOL0     C12204   1.329   0.640   0.647  0.0236  0.4394 -0.4064
   89MOL0     C12205   1.351   0.492   0.684 -0.7794 -0.3390 -0.7630
   89MOL0     C12206   1.240   0.408   0.751 -0.9278  0.0610  0.4520
   89MOL0     C12207   1.095   0.416   0.687  0.8080 -0.0418  0.8282
   89MOL0     C12208   1.044   0.549   0.690 -0.8149  0.4393  0.0708
   89MOL0     C12209   0.995   0.661   0.689  0.0026  0.5149 -0.3320
   89MOL0     C12210   1.633   0.755   0.482  0.2642 -0.7731  0.0851
   89MOL0     C12211   1.704   0.753   0.362  0.5350 -1.4960 -0.5310
   89MOL0     C12212   1.832   0.834   0.363 -0.7361  0.0207 -0.0296
   89MOL0     H12213   1.687   0.732  -0.196  0.0454  0.4822 -2.2446
   89MOL0     H12214   1.794   0.656  -0.404  5.6311 -1.6469 -1.3767
   89MOL0     H12215   1.985   0.618  -0.482 -2.6609  1.1859 -0.4493
   89MOL0     H12216   1.856   0.558  -0.578  0.6217  3.3746 -0.2704
   89MOL0     H12217   2.052   0.557  -0.707  1.4386 -0.1456  0.7833
   89MOL0     H12218   2.133   0.446  -0.601  0.1400 -0.0097 -1.2499
   89MOL0     H12219   1.980   0.264  -0.650  1.6905 -0.6750 -1.2724
   89MOL0     H12220   1.864   0.376  -0.716 -0.2764  0.7912  1.3005
   89MOL0     H12221   2.027   0.402  -0.911  2.8713 -0.7290  0.4653
   89MOL0     H12222   2.132   0.271  -0.845  0.3653 -1.7251 -0.5178
   89MOL0     H12223   1.953   0.211  -1.034  0.7435  0.2191  0.2437
   89MOL0     H12224   1.827   0.249  -0.927 -1.6251 -5.0488  2.4182
   89MOL0     H12225   1.882   0.094  -0.765 -0.3565 -2.6649  0.6989
   89MOL0     H12226   1.853   0.014  -0.917 -1.3872  0.1591  2.1278
   89MOL0     H12227   2.036  -0.096  -0.796 -1.2293  0.4679  0.3260
   89MOL0     H12228   2.132   0.048  -0.803 -0.5724  2.1511 -0.5393
   89MOL0     H12229   2.025  -0.044  -1.076  0.2981  0.6985 -1.4235
   89MOL0     H12230   2.169   0.050  -1.034 -1.0721  0.2103  0.2578
   89MOL0     H12231   2.040  -0.306  -1.033  0.0921  1.1909 -2.4313
   89MOL0     H12232   2.119  -0.551  -0.951 -1.0282 -1.2800 -4.0970
   89MOL0     H12233   2.293  -0.562  -0.886 -1.0206  1.3615  1.0136
   89MOL0     H12234   2.185  -0.560  -1.171 -0.2530  1.9626  0.5586
   89MOL0     H12235   2.358  -0.520  -1.116  1.2097 -1.2878  0.2715
   89MOL0     H12236   2.405  -0.707  -1.061 -0.1123  0.2424 -0.3226
   89MOL0     H12237   2.243  -0.785  -1.034  2.3810 -2.1007  0.3162
   89MOL0     H12238   2.231  -0.807  -1.281  0.6868 -0.9572  0.1418
   89MOL0     H12239   2.386  -0.710  -1.299  1.6768 -1.5627  0.4065
   89MOL0     H12240   2.156  -0.928  -1.134  0.8110  0.4624  0.2295
   89MOL0     H12241   1.953  -1.038  -1.084  0.3471  1.4406  3.0098
   89MOL0     H12242   1.984  -1.197  -0.998 -0.4871  0.7858  0.2677
   89MOL0     H12243   1.928  -1.191  -1.170 -2.0077  2.3176  0.4043
   89MOL0     H12244   2.099  -1.661  -0.969  1.2679 -0.0808  0.5858
   89MOL0     H12245   2.098  -1.903  -0.984 -4.0575  1.3626 -1.2089
   89MOL0     H12246   2.401  -2.134  -1.217  0.2912 -2.2034 -0.1240
   89MOL0     H12247   2.417  -2.071  -1.054  1.7543 -0.2815 -1.7396
   89MOL0     H12248   2.330  -2.329  -1.183  0.4476  0.5684 -1.3822
   89MOL0     H12249   2.429  -2.311  -1.055 -0.6955 -1.2362 -0.7552
   89MOL0     H12250   2.238  -2.413  -0.973  3.0584 -0.5683 -1.8738
   89MOL0     H12251   2.126  -2.275  -1.034 -1.2329 -1.3649  2.4448
   89MOL0     H12252   2.147  -2.239  -0.781  1.5006 -1.8705 -0.0813
   89MOL0     H12253   2.233  -2.123  -0.880  0.8107  1.0944  3.7336
   89MOL0     H12254   2.364  -2.390  -0.795 -1.5857 -1.1146  1.5494
   89MOL0     H12255   2.451  -2.236  -0.830  1.0505  2.1707  3.5870
   89MOL0     H12256   2.275  -2.278  -0.579  1.2983  0.6432  3.4179
   89MOL0     H12257   2.397  -2.157  -0.623 -0.2030  0.2801  2.5933
   89MOL0     H12258   2.570  -2.335  -0.641 -0.7064  0.7744 -0.4929
   89MOL0     H12259   2.454  -2.455  -0.582  1.9286 -0.7519 -0.4303
   89MOL0     H12260   2.576  -2.383  -0.398  1.3385 -0.3692 -5.9329
   89MOL0     H12261   2.407  -2.332  -0.374 -0.3191 -2.6911 -0.3330
   89MOL0     H12262   2.397  -1.903  -1.275 -0.5078 -1.6581 -0.1572
   89MOL0     H12263   2.384  -1.652  -1.295 -0.5848 -3.3624 -2.2290
   89MOL0     H12264   2.403  -1.340  -1.180  1.6325  0.9261  0.6887
   89MOL0     H12265   2.514  -1.121  -1.224  0.8739  3.1207 -1.2903
   89MOL0     H12266   1.902   0.287  -0.225 -0.2879  0.2132 -2.5865
   89MOL0     H12267   1.812   0.356  -0.012 -0.3082 -1.8630 -0.5184
   89MOL0     H12268   1.476   0.563   0.186 -0.5325 -0.7281  1.2398
   89MOL0     H12269   1.361   0.577   0.395 -1.8926  3.8133 -1.1940
   89MOL0     H12270   1.292   0.676   0.744  2.5986 -2.9639  2.1073
   89MOL0     H12271   1.264   0.654   0.560 -0.2809  0.7247 -0.1396
   89MOL0     H12272   1.442   0.497   0.746  1.9618 -1.0674 -4.3910
   89MOL0     H12273   1.384   0.429   0.601  0.3604  0.6472 -1.0803
   89MOL0     H12274   1.268   0.303   0.768 -0.2171  0.5508  2.6223
   89MOL0     H12275   1.238   0.442   0.855  2.6583 -1.3471  1.1340
   89MOL0     H12276   1.038   0.353   0.755  0.2554  1.6033  1.9281
   89MOL0     H12277   1.095   0.375   0.585  0.2753  1.3165  0.2509
   89MOL0     H12278   0.939   0.750   0.669  0.4930  0.8826 -0.0755
   89MOL0     H12279   1.671   0.791   0.578 -3.0384  0.5141  1.0223
   89MOL0     H12280   1.847   0.894   0.273  1.0265 -1.1721 -0.5928
   89MOL0     H12281   1.825   0.904   0.446  0.2141  0.6009 -0.4329
   89MOL0     H12282   1.912   0.761   0.371 -1.9123 -1.4066 -0.6717
   90MOL0     O12283  10.454   4.761   8.570  0.0035 -0.2976 -0.5097
   90MOL0     C12284  10.486   4.681   8.484 -0.4898 -0.4357  0.2474
   90MOL0     O12285  10.397   4.592   8.420 -0.2238  0.0014  0.1292
   90MOL0     C12286  10.267   4.626   8.400  0.2475  1.3571 -0.1219
   90MOL0     C12287  10.223   4.761   8.374  0.1165 -0.3052  0.9218
   90MOL0     C12288  10.091   4.792   8.331 -0.7088 -0.1447 -0.7500
   90MOL0     C12289  10.002   4.686   8.307 -0.5510 -0.3633  0.8533
   90MOL0     O12290   9.890   4.701   8.223 -0.8448 -0.3113 -0.4887
   90MOL0     C12291   9.811   4.822   8.241 -0.1791 -0.6045 -0.4462
   90MOL0     C12292   9.725   4.838   8.125 -0.0592 -0.8323  1.0714
   90MOL0     C12293   9.631   4.712   8.130  0.2396 -0.4604 -0.7744
   90MOL0     C12294   9.488   4.752   8.114 -0.5991  0.4181 -0.1992
   90MOL0     C12295   9.383   4.646   8.156  0.0656  0.7963 -1.7090
   90MOL0     C12296   9.233   4.695   8.152  0.0412 -0.2250  0.1398
   90MOL0     C12297   9.138   4.598   8.224  0.8927  0.6172  0.2258
   90MOL0     C12298   8.997   4.666   8.238 -0.0337 -0.8805  0.5898
   90MOL0     N12299   8.932   4.665   8.109  0.5848  1.0788  0.3403
   90MOL0     C12300   8.937   4.767   8.016  0.3916 -0.0781 -1.1052
   90MOL0     C12301   8.855   4.730   7.917 -0.3969  0.5757 -0.0948
   90MOL0     C12302   8.843   4.809   7.792  0.9066  0.1037 -0.2170
   90MOL0     C12303   8.739   4.911   7.824 -0.8347 -0.7177 -0.8358
   90MOL0     C12304   8.695   4.986   7.700 -0.4280  0.5132 -0.1403
   90MOL0     C12305   8.602   5.107   7.740 -0.0307 -0.9531  0.3322
   90MOL0     O12306   8.575   5.193   7.622 -0.0573  1.3419  0.4057
   90MOL0     C12307   8.653   5.300   7.588 -0.1212 -0.2171  0.8766
   90MOL0     C12308   8.615   5.366   7.467 -0.6047  0.0785  0.1256
   90MOL0     C12309   8.686   5.474   7.419  0.9119  0.1743 -0.7683
   90MOL0     C12310   8.665   5.504   7.280  0.5023  0.4348 -1.1987
   90MOL0     C12311   8.774   5.537   7.508 -0.6098 -0.2704  1.1437
   90MOL0     C12312   8.821   5.676   7.476  0.6450 -0.8460 -0.1384
   90MOL0     O12313   8.764   5.745   7.367 -0.7267 -0.6710 -0.7159
   90MOL0     C12314   8.816   5.867   7.331 -0.0053  1.2279 -0.0185
   90MOL0     C12315   8.916   5.862   7.232 -0.6304  0.3992  0.0277
   90MOL0     C12316   8.974   5.980   7.191  0.4955 -0.1560  0.3371
   90MOL0     C12317   8.943   6.104   7.253  1.0434  0.2081 -0.1498
   90MOL0     O12318   9.007   6.223   7.231  0.2726 -0.4067 -0.0184
   90MOL0     C12319   9.070   6.229   7.108  0.1575  0.2057 -0.2402
   90MOL0     C12320   9.047   6.374   7.060  0.4829  0.5468  0.5406
   90MOL0     C12321   9.129   6.402   6.934 -0.4833  0.4195 -0.2363
   90MOL0     C12322   9.075   6.528   6.858  0.5167 -0.0835 -0.1871
   90MOL0     C12323   8.932   6.503   6.787 -0.9227 -1.0545  0.5471
   90MOL0     C12324   8.889   6.624   6.713  0.7687  0.3495 -0.2797
   90MOL0     C12325   8.773   6.593   6.616 -0.2318  0.2002  0.3149
   90MOL0     C12326   8.817   6.568   6.473  0.1790  0.1064 -0.2285
   90MOL0    Cl12327   8.917   6.427   6.429  0.0641 -0.2359 -0.3349
   90MOL0     C12328   8.830   6.105   7.344  0.6915  1.0285  0.0684
   90MOL0     C12329   8.764   5.984   7.384 -0.7334  0.7503 -1.1946
   90MOL0     O12330   8.911   5.715   7.544 -0.6434 -0.4292 -0.1504
   90MOL0     C12331   8.820   5.473   7.622  0.1931  0.4563  0.5344
   90MOL0     C12332   8.755   5.355   7.662 -0.2051  0.7924  0.1228
   90MOL0     N12333   8.794   4.609   7.951 -0.1260 -0.1562  0.1316
   90MOL0     N12334   8.844   4.573   8.068  0.4970 -0.1621  0.0902
   90MOL0     C12335  10.043   4.550   8.331  0.4408 -0.2229  0.8498
   90MOL0     C12336  10.174   4.525   8.379 -0.2416 -0.1839 -0.4716
   90MOL0     C12337  10.622   4.681   8.434 -1.0661  0.6071  0.5018
   90MOL0     C12338  10.650   4.637   8.302  0.9052 -0.1224  0.0658
   90MOL0     C12339  10.779   4.634   8.247  0.0540  0.0199 -0.1313
   90MOL0     C12340  10.888   4.669   8.323  0.0177 -0.0363  0.9255
   90MOL0     O12341  11.014   4.663   8.275  0.4648  0.1996  0.2885
   90MOL0     C12342  11.046   4.547   8.209 -0.0535  1.5396  0.6745
   90MOL0     C12343  11.178   4.563   8.141  0.3672 -0.2094 -0.7890
   90MOL0     C12344  11.180   4.668   8.023  0.1960  0.1813  0.6731
   90MOL0     C12345  11.078   4.645   7.916  0.6386  0.1973  0.1512
   90MOL0     C12346  11.111   4.515   7.859  0.0452  0.3700 -0.2566
   90MOL0     C12347  11.147   4.419   7.798  0.2814 -0.2770 -0.0853
   90MOL0     C12348  10.870   4.717   8.450  0.9375 -0.3908 -0.4546
   90MOL0     C12349  10.741   4.721   8.509  0.3303 -0.5463 -0.2829
   90MOL0     C12350  10.740   4.735   8.659 -0.3939 -0.5319 -1.2745
   90MOL0     H12351  10.293   4.843   8.386  1.9276 -1.5671 -0.3959
   90MOL0     H12352  10.058   4.894   8.312 -3.0196 -0.6208  0.3093
   90MOL0     H12353   9.866   4.917   8.248  1.2907 -1.5459  1.9261
   90MOL0     H12354   9.750   4.820   8.331  1.5731  0.6122  0.8386
   90MOL0     H12355   9.679   4.936   8.145  3.0397  1.0473 -0.1737
   90MOL0     H12356   9.773   4.853   8.027 -1.3582  0.4865  0.6037
   90MOL0     H12357   9.656   4.631   8.061 -0.6287 -2.0776  0.7396
   90MOL0     H12358   9.633   4.670   8.231 -0.9956  0.4265 -0.3495
   90MOL0     H12359   9.466   4.845   8.168  0.7510  2.4531 -2.9152
   90MOL0     H12360   9.476   4.778   8.009  0.9815  3.7459  0.3055
   90MOL0     H12361   9.410   4.631   8.261 -1.6136  2.6050 -0.9603
   90MOL0     H12362   9.393   4.549   8.106  0.6228 -0.6718  1.0888
   90MOL0     H12363   9.220   4.798   8.186  5.3589  0.1942  1.7824
   90MOL0     H12364   9.209   4.691   8.046  2.6553  0.7169 -0.5668
   90MOL0     H12365   9.194   4.576   8.316  0.8269  0.4349  0.2237
   90MOL0     H12366   9.117   4.506   8.169 -3.2215  0.7024  1.3771
   90MOL0     H12367   8.938   4.608   8.309 -1.1032  0.3391  0.7371
   90MOL0     H12368   9.003   4.771   8.267  0.8843  0.2833 -3.2494
   90MOL0     H12369   8.990   4.862   8.014 -2.8859  1.9945  0.6674
   90MOL0     H12370   8.801   4.741   7.717 -0.1808 -1.4285  1.6736
   90MOL0     H12371   8.938   4.855   7.765  0.9574 -1.8180 -3.8580
   90MOL0     H12372   8.653   4.862   7.869  0.1321 -0.3134  1.5770
   90MOL0     H12373   8.773   4.985   7.897 -2.4640  2.1663 -2.7878
   90MOL0     H12374   8.780   5.026   7.645 -3.5571  2.8161 -3.8201
   90MOL0     H12375   8.642   4.913   7.638  2.2165 -1.7993  0.1064
   90MOL0     H12376   8.500   5.077   7.767 -0.6317 -0.7673 -1.6004
   90MOL0     H12377   8.661   5.147   7.823  2.6947 -2.3749 -0.7682
   90MOL0     H12378   8.528   5.333   7.411 -0.2690  2.0069 -1.6371
   90MOL0     H12379   8.617   5.423   7.226  3.3380 -1.2769 -1.3364
   90MOL0     H12380   8.759   5.523   7.227  0.8913 -1.5535 -1.2818
   90MOL0     H12381   8.610   5.599   7.289  2.5655  1.9227 -3.1210
   90MOL0     H12382   8.959   5.766   7.205  0.5897 -0.3139  3.8243
   90MOL0     H12383   9.060   5.970   7.126 -1.3082  0.4035 -2.3468
   90MOL0     H12384   9.177   6.211   7.118  0.2132  1.2482  1.2826
   90MOL0     H12385   9.023   6.173   7.027  1.3045 -0.9688 -0.1182
   90MOL0     H12386   8.941   6.383   7.036  0.9844  2.8984 -1.2303
   90MOL0     H12387   9.065   6.439   7.147  0.4616 -0.5785  1.4094
   90MOL0     H12388   9.135   6.318   6.864 -1.1488 -1.5537  1.9777
   90MOL0     H12389   9.234   6.414   6.964 -0.3093  0.8406 -0.9838
   90MOL0     H12390   9.152   6.547   6.782  1.1323  0.7403  0.6136
   90MOL0     H12391   9.067   6.621   6.915 -2.3907 -0.2721 -0.1534
   90MOL0     H12392   8.929   6.417   6.720 -1.1002 -0.4936 -0.1713
   90MOL0     H12393   8.855   6.479   6.861 -1.7754  0.0263  0.0350
   90MOL0     H12394   8.982   6.662   6.671  0.6727  1.9161  0.8490
   90MOL0     H12395   8.848   6.698   6.782 -5.0929 -1.4745 -1.2107
   90MOL0     H12396   8.704   6.678   6.607 -0.1194  0.2276 -0.3029
   90MOL0     H12397   8.710   6.507   6.642 -0.3637  0.0646 -0.4452
   90MOL0     H12398   8.867   6.658   6.437 -1.5240  0.4146 -1.9641
   90MOL0     H12399   8.726   6.553   6.415 -0.4239 -0.0564  0.7282
   90MOL0     H12400   8.812   6.203   7.386  0.4139  1.1382 -0.2997
   90MOL0     H12401   8.692   5.990   7.465  2.2626  1.5020  1.6285
   90MOL0     H12402   8.898   5.528   7.673 -0.1749  3.4088 -1.7624
   90MOL0     H12403   8.775   5.345   7.768  2.0106  2.3683 -0.0689
   90MOL0     H12404   9.977   4.465   8.315  2.5908 -1.6085 -1.4865
   90MOL0     H12405  10.211   4.424   8.395  2.6983  0.8903  0.1980
   90MOL0     H12406  10.573   4.596   8.236  2.4809 -2.1721 -0.6028
   90MOL0     H12407  10.788   4.610   8.141 -1.2622  2.2276 -0.8044
   90MOL0     H12408  11.061   4.474   8.288 -0.8396  0.0399 -0.5105
   90MOL0     H12409  10.972   4.516   8.135  0.9875 -3.2051  1.2965
   90MOL0     H12410  11.206   4.460   8.113  1.4423 -0.2450  0.3421
   90MOL0     H12411  11.253   4.600   8.212  0.7949  1.0688 -1.8742
   90MOL0     H12412  11.160   4.770   8.057 -2.0113  0.8138 -2.0638
   90MOL0     H12413  11.278   4.676   7.974 -0.6066 -0.1417 -1.0794
   90MOL0     H12414  11.083   4.733   7.851 -1.8682 -0.2907 -0.8111
   90MOL0     H12415  10.977   4.654   7.955  0.0884  1.6371 -1.4982
   90MOL0     H12416  11.166   4.321   7.760 -2.4960 -3.5511  5.6125
   90MOL0     H12417  10.964   4.736   8.501  1.0841 -1.8047 -0.1586
   90MOL0     H12418  10.843   4.753   8.693 -1.7830  1.4034  2.4815
   90MOL0     H12419  10.694   4.825   8.701  2.8374  0.1978  1.1615
   90MOL0     H12420  10.703   4.645   8.711 -1.5856  0.9069  0.4976
   91MOL0     O12421   0.090   6.733   4.491  0.4647 -1.1842 -0.2371
   91MOL0     C12422  -0.000   6.780   4.416 -0.1120 -0.2141  0.3565
   91MOL0     O12423  -0.126   6.801   4.454  0.3839  0.0130  0.2398
   91MOL0     C12424  -0.156   6.774   4.582  1.2456 -0.0569  0.7493
   91MOL0     C12425  -0.155   6.644   4.651  0.3154 -0.5367  0.4517
   91MOL0     C12426  -0.185   6.638   4.788 -0.5514  1.5408  0.8449
   91MOL0     C12427  -0.197   6.748   4.868 -1.1869  0.1102 -0.4061
   91MOL0     O12428  -0.220   6.731   5.004 -1.4500 -0.0740 -0.5001
   91MOL0     C12429  -0.336   6.798   5.061 -0.6787 -0.0853  0.5152
   91MOL0     C12430  -0.469   6.718   5.054  0.8973 -1.1274  0.3608
   91MOL0     C12431  -0.592   6.789   5.092  0.3939 -0.8660  0.1949
   91MOL0     C12432  -0.724   6.704   5.036 -0.0168 -0.1072 -0.1921
   91MOL0     C12433  -0.851   6.742   5.113 -1.1486  0.3761  0.0687
   91MOL0     C12434  -0.854   6.732   5.261 -0.4243 -0.1031 -0.4792
   91MOL0     C12435  -0.986   6.778   5.313  0.7958 -0.0610 -0.1295
   91MOL0     C12436  -1.018   6.753   5.460  0.3715 -0.1022  0.4716
   91MOL0     N12437  -0.940   6.851   5.539 -0.1490 -0.4250  0.9124
   91MOL0     C12438  -0.992   6.980   5.582 -1.2279  0.0581  0.8166
   91MOL0     C12439  -0.888   7.021   5.653 -0.1709 -0.1348 -1.3254
   91MOL0     C12440  -0.891   7.143   5.745 -0.1987 -0.5562  0.3578
   91MOL0     C12441  -0.797   7.262   5.692 -0.4359  0.1069  0.0001
   91MOL0     C12442  -0.807   7.405   5.752 -0.1311 -0.1533 -0.0053
   91MOL0     C12443  -0.684   7.494   5.713  0.1701  0.0952  0.1821
   91MOL0     O12444  -0.693   7.611   5.777  0.4776 -0.4847 -0.3903
   91MOL0     C12445  -0.660   7.624   5.912  0.1519 -0.4731  0.0219
   91MOL0     C12446  -0.724   7.717   5.991 -0.4563 -0.3061 -0.0689
   91MOL0     C12447  -0.692   7.739   6.127 -1.2924  0.1929 -0.1603
   91MOL0     C12448  -0.763   7.852   6.202  0.0608 -0.0953  0.2529
   91MOL0     C12449  -0.614   7.634   6.193  0.5195  0.3147 -0.5143
   91MOL0     C12450  -0.592   7.616   6.339  0.4588 -0.7802  0.1702
   91MOL0     O12451  -0.545   7.498   6.385  0.7375  0.2877 -0.2413
   91MOL0     C12452  -0.501   7.495   6.517  0.1754 -0.1833  0.7000
   91MOL0     C12453  -0.367   7.532   6.553  0.1079  0.8074 -0.1185
   91MOL0     C12454  -0.323   7.491   6.682  0.6998 -0.5893  0.3661
   91MOL0     C12455  -0.402   7.445   6.782  0.1386 -0.0904  1.5916
   91MOL0     O12456  -0.347   7.420   6.897 -0.2541  0.1576 -0.6428
   91MOL0     C12457  -0.439   7.389   7.002  1.0204  1.0641 -0.5595
   91MOL0     C12458  -0.378   7.355   7.149 -0.0173 -0.5296 -0.0680
   91MOL0     C12459  -0.491   7.324   7.246  0.5336 -0.1869  0.1738
   91MOL0     C12460  -0.431   7.274   7.378  0.3080 -0.5950 -0.3221
   91MOL0     C12461  -0.552   7.247   7.476  1.2658 -0.4284 -0.2539
   91MOL0     C12462  -0.514   7.192   7.615 -0.2560  0.6238  0.4209
   91MOL0     C12463  -0.421   7.060   7.622  0.1097  0.1769  0.1517
   91MOL0     C12464  -0.325   7.068   7.740  0.3653  0.0681  0.1534
   91MOL0    Cl12465  -0.262   6.897   7.758  0.0141  0.4017  0.1397
   91MOL0     C12466  -0.536   7.423   6.745 -0.8163 -0.6162  0.2162
   91MOL0     C12467  -0.583   7.438   6.613 -0.6325 -0.1875 -0.1800
   91MOL0     O12468  -0.606   7.716   6.411 -0.0532 -0.4127 -0.2890
   91MOL0     C12469  -0.558   7.542   6.110  0.1628 -0.4952  0.8263
   91MOL0     C12470  -0.575   7.533   5.976 -0.7235  0.9200 -0.4304
   91MOL0     N12471  -0.793   6.923   5.666 -0.3889  0.1479  0.7892
   91MOL0     N12472  -0.822   6.822   5.590 -0.4540  0.4607  0.8656
   91MOL0     C12473  -0.180   6.866   4.805 -0.4694 -0.6747  0.4501
   91MOL0     C12474  -0.171   6.881   4.667 -0.8438 -0.1033  0.3632
   91MOL0     C12475   0.030   6.797   4.272  0.1648  0.1801  0.2060
   91MOL0     C12476   0.157   6.747   4.236  0.8378 -0.3516 -0.0227
   91MOL0     C12477   0.204   6.751   4.104  0.2157  0.1385  0.2575
   91MOL0     C12478   0.130   6.815   4.006  0.1662  1.1111 -0.3945
   91MOL0     O12479   0.183   6.824   3.872  0.2435 -0.5850 -0.7530
   91MOL0     C12480   0.294   6.924   3.852 -0.1793 -0.7619 -0.5724
   91MOL0     C12481   0.340   6.934   3.706  0.2136 -0.1142 -0.0823
   91MOL0     C12482   0.224   6.986   3.619 -0.5571  0.5028 -1.3731
   91MOL0     C12483   0.233   7.001   3.466  0.1667 -0.0977 -0.0610
   91MOL0     C12484   0.321   7.121   3.429 -0.2643  0.3827 -0.1242
   91MOL0     C12485   0.395   7.201   3.383  0.7283 -0.5459 -0.0446
   91MOL0     C12486   0.012   6.886   4.042 -0.1673 -0.0176  0.0437
   91MOL0     C12487  -0.038   6.866   4.173  0.4947  0.1004 -1.0765
   91MOL0     C12488  -0.178   6.934   4.202 -0.5666 -0.5226  0.6693
   91MOL0     H12489  -0.136   6.554   4.593  1.1850 -0.2192  0.2301
   91MOL0     H12490  -0.209   6.544   4.838 -1.9109  1.0796 -0.5919
   91MOL0     H12491  -0.350   6.898   5.019 -0.4260  1.1154  3.0841
   91MOL0     H12492  -0.328   6.813   5.169 -4.8075  3.2239  0.6162
   91MOL0     H12493  -0.494   6.695   4.950 -0.6447 -1.2222  0.7207
   91MOL0     H12494  -0.465   6.618   5.098  0.3338 -1.2178  0.2143
   91MOL0     H12495  -0.585   6.813   5.199 -0.4050  0.6262 -0.0590
   91MOL0     H12496  -0.605   6.890   5.052  1.2470 -1.4431 -1.6526
   91MOL0     H12497  -0.736   6.733   4.931  1.1503  0.7640 -0.1109
   91MOL0     H12498  -0.704   6.597   5.044 -0.9992 -0.4029 -1.3193
   91MOL0     H12499  -0.929   6.670   5.085 -0.2303 -0.8088  0.4821
   91MOL0     H12500  -0.877   6.843   5.078 -3.2015  0.0726  0.5625
   91MOL0     H12501  -0.837   6.629   5.293 -3.5723 -0.2319  1.2405
   91MOL0     H12502  -0.777   6.796   5.306  1.7663 -1.7190 -1.7459
   91MOL0     H12503  -1.065   6.724   5.261  0.4052 -0.7668  1.1611
   91MOL0     H12504  -0.999   6.886   5.299  2.7748  0.1167 -0.8426
   91MOL0     H12505  -1.124   6.767   5.481  0.3917  2.7401 -0.8047
   91MOL0     H12506  -0.980   6.656   5.493  2.2131  1.0421  1.9698
   91MOL0     H12507  -1.092   7.017   5.564 -1.7430 -1.1037  1.1636
   91MOL0     H12508  -0.863   7.117   5.848  0.1830  1.4064  0.8042
   91MOL0     H12509  -0.994   7.176   5.759 -0.5898 -1.6269  0.0487
   91MOL0     H12510  -0.690   7.242   5.696 -0.5514 -0.2748  1.9233
   91MOL0     H12511  -0.825   7.278   5.587  1.0712 -1.0121 -0.6047
   91MOL0     H12512  -0.896   7.462   5.725  1.4844  3.2634  1.3425
   91MOL0     H12513  -0.812   7.392   5.861 -1.0096 -1.0555 -0.1362
   91MOL0     H12514  -0.598   7.431   5.738 -1.0552 -2.0040 -0.6448
   91MOL0     H12515  -0.683   7.507   5.604 -0.8611  1.3080  0.2954
   91MOL0     H12516  -0.775   7.800   5.942  2.9353  0.5812 -2.5081
   91MOL0     H12517  -0.851   7.812   6.254  0.8896 -1.4553  0.6714
   91MOL0     H12518  -0.788   7.943   6.148 -1.6306 -1.0912 -0.7329
   91MOL0     H12519  -0.693   7.891   6.277 -0.9553 -0.6845  1.5625
   91MOL0     H12520  -0.299   7.587   6.489 -0.7402 -1.8227 -3.6597
   91MOL0     H12521  -0.225   7.516   6.720  0.1189  1.4152  0.6858
   91MOL0     H12522  -0.503   7.476   7.018  0.3398  0.2164  1.8099
   91MOL0     H12523  -0.499   7.301   6.977  0.0781  1.9512 -1.5484
   91MOL0     H12524  -0.316   7.269   7.126  0.4186  0.2308 -1.8747
   91MOL0     H12525  -0.308   7.430   7.187 -0.7468 -0.1835  0.6360
   91MOL0     H12526  -0.552   7.245   7.203 -0.8322  1.3677 -0.8624
   91MOL0     H12527  -0.551   7.415   7.259  1.6492  1.1337 -3.1046
   91MOL0     H12528  -0.359   7.346   7.419 -1.2789  1.4183 -0.8589
   91MOL0     H12529  -0.387   7.178   7.350 -1.3601 -1.9337  1.3686
   91MOL0     H12530  -0.604   7.340   7.499 -1.2450 -2.1559  1.6628
   91MOL0     H12531  -0.633   7.195   7.425  0.5035  0.6616 -0.1756
   91MOL0     H12532  -0.603   7.165   7.672  1.8688 -3.7358  2.0732
   91MOL0     H12533  -0.478   7.284   7.662 -1.3049  1.8627 -1.0700
   91MOL0     H12534  -0.357   7.053   7.533  2.9986 -2.0771  2.2166
   91MOL0     H12535  -0.487   6.975   7.640 -2.6969  1.4011 -3.1738
   91MOL0     H12536  -0.387   7.108   7.821 -0.0681  3.8796 -1.8731
   91MOL0     H12537  -0.243   7.134   7.711 -1.3666  2.5844  0.6773
   91MOL0     H12538  -0.605   7.401   6.825  0.0144  2.7014  2.0610
   91MOL0     H12539  -0.689   7.423   6.592 -1.3336  0.0771  2.7741
   91MOL0     H12540  -0.493   7.467   6.154  2.8802  2.9989  3.2564
   91MOL0     H12541  -0.514   7.459   5.925  0.2086 -0.4058  2.3811
   91MOL0     H12542  -0.189   6.959   4.861  1.7931  0.4889 -0.9413
   91MOL0     H12543  -0.158   6.982   4.630  1.1219 -0.3116  0.3642
   91MOL0     H12544   0.222   6.707   4.314 -2.3842 -2.0182  2.0045
   91MOL0     H12545   0.292   6.693   4.080  0.1111  0.8795 -2.2711
   91MOL0     H12546   0.264   7.023   3.886  0.5852 -1.5760  2.7725
   91MOL0     H12547   0.381   6.906   3.915  0.5401  2.4395 -0.4862
   91MOL0     H12548   0.364   6.835   3.667 -3.4978 -2.1176  2.1777
   91MOL0     H12549   0.426   7.002   3.708  1.1572 -1.2930  0.6179
   91MOL0     H12550   0.134   6.926   3.632 -0.1767 -0.7982 -4.1201
   91MOL0     H12551   0.204   7.088   3.652 -3.3859 -0.2008 -0.6395
   91MOL0     H12552   0.129   7.006   3.431  0.6635 -0.1205 -1.6526
   91MOL0     H12553   0.284   6.914   3.423  2.2734  1.2161 -0.3482
   91MOL0     H12554   0.455   7.277   3.337  1.4705 -1.8377 -1.2887
   91MOL0     H12555  -0.048   6.944   3.974 -1.8576 -0.6980  0.8876
   91MOL0     H12556  -0.152   7.010   4.276 -0.2808 -1.3039  1.3864
   91MOL0     H12557  -0.233   6.960   4.111  2.9703  1.4649 -1.1078
   91MOL0     H12558  -0.238   6.857   4.251  1.2279 -2.7947 -0.4944
   92MOL0     O12559   9.389   5.943   4.866 -0.9271  0.7238  0.0353
   92MOL0     C12560   9.460   6.034   4.831  0.5805 -0.0920  1.0245
   92MOL0     O12561   9.594   6.027   4.807 -0.2270  0.0349  0.8041
   92MOL0     C12562   9.645   5.903   4.779  0.9990  0.3280  0.0715
   92MOL0     C12563   9.731   5.899   4.665  0.6228 -0.9767  0.1551
   92MOL0     C12564   9.803   5.795   4.636 -0.2752  0.9274  1.0136
   92MOL0     C12565   9.796   5.676   4.708  0.3034 -0.8468 -0.8369
   92MOL0     O12566   9.888   5.584   4.668 -0.8901 -0.0644  0.4874
   92MOL0     C12567   9.927   5.458   4.734  0.2951  0.6867  0.8025
   92MOL0     C12568   9.992   5.356   4.639 -0.3097 -0.6173 -0.3760
   92MOL0     C12569  10.062   5.242   4.719  0.0259  0.5765 -0.0642
   92MOL0     C12570   9.951   5.153   4.776 -0.6687 -0.5450  0.5015
   92MOL0     C12571  10.004   5.035   4.862 -0.7824  0.9132  0.0338
   92MOL0     C12572   9.909   4.911   4.868  0.4264  0.1848  0.9655
   92MOL0     C12573   9.782   4.916   4.953  0.0174  0.6038 -0.4082
   92MOL0     C12574   9.704   4.794   5.000  0.9978  1.5649  0.8956
   92MOL0     N12575   9.558   4.831   5.039  0.0975  0.3940  0.0721
   92MOL0     C12576   9.474   4.885   4.948  0.2023  0.3872  0.0931
   92MOL0     C12577   9.356   4.897   5.017  0.3471 -0.6230  0.1937
   92MOL0     C12578   9.233   4.950   4.944  0.2463  0.5115  0.0969
   92MOL0     C12579   9.184   5.080   5.013 -0.7603  0.2825 -0.2174
   92MOL0     C12580   9.032   5.065   5.036 -0.4651  0.3483 -0.9289
   92MOL0     C12581   8.975   5.192   5.098 -0.5498 -0.7777  0.4093
   92MOL0     O12582   9.036   5.225   5.224  0.1981 -0.4001  0.1351
   92MOL0     C12583   9.044   5.358   5.254 -0.3129 -0.3807  0.3221
   92MOL0     C12584   9.140   5.453   5.191  0.2409  0.2417  0.0912
   92MOL0     C12585   9.143   5.589   5.221 -0.3723  0.2384  0.1890
   92MOL0     C12586   9.252   5.662   5.142  0.0180 -0.3089  0.0215
   92MOL0     C12587   9.042   5.641   5.306 -0.4372  0.3594 -0.0246
   92MOL0     C12588   9.016   5.786   5.335  0.6296  0.2230  0.2721
   92MOL0     O12589   9.106   5.875   5.289  0.1283 -0.1702  0.8087
   92MOL0     C12590   9.046   6.000   5.259 -0.3410 -0.3124  0.5769
   92MOL0     C12591   9.063   6.113   5.338  0.2557  0.0338  1.5492
   92MOL0     C12592   9.014   6.240   5.300  0.1355  0.6176  0.4263
   92MOL0     C12593   8.958   6.261   5.170 -0.2076  0.5280 -0.7370
   92MOL0     O12594   8.902   6.381   5.119  0.2279  0.2208  0.0034
   92MOL0     C12595   8.943   6.496   5.187 -0.1203  0.7131  0.2749
   92MOL0     C12596   8.871   6.622   5.129 -1.1738 -0.0718  0.1825
   92MOL0     C12597   8.956   6.743   5.110 -0.4190  0.2820 -0.1800
   92MOL0     C12598   8.857   6.851   5.102  1.1157  0.4582  0.3419
   92MOL0     C12599   8.917   6.989   5.101  0.3716  0.6118  0.4300
   92MOL0     C12600   8.815   7.094   5.093  0.7652  0.2960  0.0561
   92MOL0     C12601   8.878   7.235   5.085  0.0364 -0.5304  0.2860
   92MOL0     C12602   8.771   7.349   5.100 -0.2441  0.2080  0.3896
   92MOL0    Cl12603   8.703   7.343   5.270  0.3701 -0.2292  0.2048
   92MOL0     C12604   8.935   6.143   5.104  0.3292 -0.8148  0.5831
   92MOL0     C12605   8.971   6.012   5.144 -0.6106 -0.2627  0.4153
   92MOL0     O12606   8.914   5.815   5.397  0.7146 -0.2347  0.2268
   92MOL0     C12607   8.959   5.550   5.377  0.3434  0.7359  0.8157
   92MOL0     C12608   8.960   5.409   5.349 -0.1314  0.0479 -0.4197
   92MOL0     N12609   9.372   4.845   5.147  0.3985 -0.6549 -0.4665
   92MOL0     N12610   9.500   4.811   5.159  0.4688 -0.2412 -0.3559
   92MOL0     C12611   9.718   5.671   4.822 -0.3749 -0.2819 -0.1441
   92MOL0     C12612   9.649   5.782   4.862 -0.1749 -0.0105 -0.0113
   92MOL0     C12613   9.408   6.162   4.790  0.1968  0.0499  0.7882
   92MOL0     C12614   9.491   6.273   4.778  0.2957 -1.1172 -0.6570
   92MOL0     C12615   9.438   6.410   4.752 -0.1381 -0.5643  0.2087
   92MOL0     C12616   9.293   6.422   4.740 -0.2990 -0.7681  0.4061
   92MOL0     O12617   9.234   6.537   4.694 -0.3725  0.2558  1.0659
   92MOL0     C12618   9.295   6.666   4.690  0.7384 -0.1925  0.3211
   92MOL0     C12619   9.271   6.738   4.819  0.2475  0.4036  0.3696
   92MOL0     C12620   9.330   6.881   4.805 -0.1059 -0.9397 -1.0474
   92MOL0     C12621   9.478   6.902   4.826 -0.0906  0.2359 -0.5081
   92MOL0     C12622   9.549   6.828   4.931 -0.7892  0.3976  0.6302
   92MOL0     C12623   9.609   6.760   5.011 -0.1643 -0.4803 -0.5012
   92MOL0     C12624   9.218   6.311   4.753 -0.5072 -1.1649  0.3709
   92MOL0     C12625   9.264   6.182   4.783  0.7980  0.6083 -0.1253
   92MOL0     C12626   9.151   6.079   4.804 -0.3998 -0.0553 -0.5380
   92MOL0     H12627   9.722   5.983   4.597 -3.0076 -0.7228  0.7416
   92MOL0     H12628   9.879   5.808   4.559 -0.4019 -4.1529 -0.3688
   92MOL0     H12629   9.846   5.400   4.778  0.1708 -1.8546 -2.4622
   92MOL0     H12630   9.994   5.485   4.817  0.3845 -0.9898  1.3064
   92MOL0     H12631   9.920   5.312   4.569 -1.9497 -0.2060  0.9831
   92MOL0     H12632  10.071   5.406   4.583 -0.8863  1.1650  0.3014
   92MOL0     H12633  10.123   5.186   4.648 -0.2324  0.3102 -0.0776
   92MOL0     H12634  10.126   5.280   4.799 -1.2613  0.5738  1.0078
   92MOL0     H12635   9.897   5.210   4.852  1.5861 -0.6135  2.2673
   92MOL0     H12636   9.879   5.112   4.704 -4.1119  3.8341  1.0211
   92MOL0     H12637  10.029   5.070   4.962  1.9467  0.1862 -0.3079
   92MOL0     H12638  10.102   5.005   4.823 -1.0088 -1.7260  1.3121
   92MOL0     H12639   9.898   4.871   4.767  0.1401  1.6195  0.4057
   92MOL0     H12640   9.984   4.841   4.906  3.1626 -0.1746 -4.1861
   92MOL0     H12641   9.714   4.987   4.905 -1.4662 -0.9371 -0.6624
   92MOL0     H12642   9.830   4.966   5.038  2.5517 -1.9718 -0.1435
   92MOL0     H12643   9.703   4.711   4.929 -0.0144  1.0297  1.5146
   92MOL0     H12644   9.754   4.747   5.086 -0.2275 -0.6445  0.4780
   92MOL0     H12645   9.495   4.900   4.843  2.1083 -5.6963 -0.8023
   92MOL0     H12646   9.161   4.870   4.926 -0.2008  0.7304  0.8543
   92MOL0     H12647   9.256   4.990   4.844  0.5063 -0.9660 -0.4566
   92MOL0     H12648   9.240   5.085   5.107 -1.9137 -2.6728  0.7369
   92MOL0     H12649   9.218   5.171   4.962  0.9061 -1.2655 -2.0098
   92MOL0     H12650   8.986   5.050   4.938  0.9656  1.1566 -1.7681
   92MOL0     H12651   9.025   4.977   5.101  1.7136 -0.8264 -2.1578
   92MOL0     H12652   8.978   5.271   5.022  1.5733 -2.6303 -1.5997
   92MOL0     H12653   8.866   5.188   5.109 -0.8133  0.6394 -1.2109
   92MOL0     H12654   9.203   5.404   5.118 -0.7682 -2.6466  0.9957
   92MOL0     H12655   9.345   5.675   5.198  0.0041  1.8086 -0.3488
   92MOL0     H12656   9.223   5.759   5.100  1.5992  0.2391  0.1282
   92MOL0     H12657   9.273   5.607   5.050 -5.6355 -0.6331 -1.4765
   92MOL0     H12658   9.108   6.108   5.437  1.6801  1.4872  1.0171
   92MOL0     H12659   9.019   6.319   5.374  0.9030  0.6674  0.3295
   92MOL0     H12660   8.918   6.492   5.293 -0.2006  0.0926  0.2387
   92MOL0     H12661   9.050   6.511   5.176 -0.2907  0.6231 -2.0730
   92MOL0     H12662   8.830   6.591   5.032  0.7073  2.5455 -1.6035
   92MOL0     H12663   8.790   6.638   5.201  1.6435 -2.7112  4.3401
   92MOL0     H12664   9.010   6.730   5.015 -1.7452 -2.7554 -0.6368
   92MOL0     H12665   9.028   6.744   5.192  0.0357 -3.1346 -0.3994
   92MOL0     H12666   8.784   6.840   5.183 -0.6794 -1.1124 -1.3714
   92MOL0     H12667   8.816   6.836   5.002 -1.5676  1.5535  1.2003
   92MOL0     H12668   8.981   7.005   5.188  3.1901  2.3824 -1.7632
   92MOL0     H12669   8.975   6.989   5.008 -1.4293 -0.8642 -0.7602
   92MOL0     H12670   8.746   7.082   5.177 -1.7508 -2.0300 -2.1798
   92MOL0     H12671   8.744   7.092   5.010  0.6790  4.1383 -0.1652
   92MOL0     H12672   8.944   7.254   5.000  1.6789  0.8821  1.7901
   92MOL0     H12673   8.956   7.255   5.160 -0.3380  2.1898  0.0776
   92MOL0     H12674   8.691   7.348   5.025 -1.4094 -0.3640  1.6025
   92MOL0     H12675   8.821   7.444   5.077 -1.8053  0.8628 -0.5104
   92MOL0     H12676   8.889   6.151   5.006 -1.9725 -1.4864  1.5530
   92MOL0     H12677   8.966   5.927   5.076 -0.5517 -0.1044  0.2111
   92MOL0     H12678   8.898   5.593   5.456 -1.1842 -1.0479  0.6745
   92MOL0     H12679   8.879   5.349   5.389 -3.7351  2.8327 -2.7845
   92MOL0     H12680   9.745   5.593   4.892  1.3033 -0.7910 -1.2909
   92MOL0     H12681   9.600   5.773   4.958 -1.2701  1.0802 -0.4473
   92MOL0     H12682   9.599   6.261   4.788  0.0719 -1.1100  2.7518
   92MOL0     H12683   9.516   6.484   4.738 -1.0670  0.3156 -0.5017
   92MOL0     H12684   9.403   6.657   4.671  0.6869 -1.0924  0.4115
   92MOL0     H12685   9.249   6.723   4.608 -2.1783 -3.1605 -0.3011
   92MOL0     H12686   9.318   6.687   4.904 -1.0164  1.0016  1.4702
   92MOL0     H12687   9.164   6.735   4.844  0.4419 -0.3013  1.1690
   92MOL0     H12688   9.311   6.916   4.703 -0.2264 -0.6772 -0.9357
   92MOL0     H12689   9.277   6.945   4.877  1.0151  0.0207 -1.0434
   92MOL0     H12690   9.484   7.011   4.838 -0.4142  0.3930 -1.6790
   92MOL0     H12691   9.527   6.877   4.732  0.4096 -0.3158 -0.1117
   92MOL0     H12692   9.661   6.707   5.088 -0.8269  0.9684  1.0027
   92MOL0     H12693   9.113   6.336   4.760 -0.0401  1.5543 -0.8752
   92MOL0     H12694   9.170   5.980   4.762  1.4878 -0.6858  1.5776
   92MOL0     H12695   9.132   6.063   4.911  0.1623  0.5579 -0.3402
   92MOL0     H12696   9.051   6.113   4.775 -1.1907 -2.3740 -0.8013
   93MOL0     O12697   3.367   0.913   4.685  0.0392  0.1619 -0.0199
   93MOL0     C12698   3.433   0.996   4.735 -0.4327  0.9481  0.2517
   93MOL0     O12699   3.381   1.103   4.804 -0.5335  0.5118  0.2021
   93MOL0     C12700   3.249   1.100   4.836 -1.2986 -0.6448  0.1864
   93MOL0     C12701   3.196   1.013   4.922  0.0187 -0.2909 -0.3120
   93MOL0     C12702   3.057   1.033   4.957 -1.1713 -0.2725 -0.0147
   93MOL0     C12703   2.979   1.144   4.902  0.2513  0.1103 -0.5615
   93MOL0     O12704   2.850   1.166   4.949 -0.6721 -0.6410  0.3237
   93MOL0     C12705   2.747   1.200   4.859  0.5424  0.6352 -0.1108
   93MOL0     C12706   2.615   1.168   4.913  0.4231  1.1269  1.1494
   93MOL0     C12707   2.559   1.025   4.875  0.5801  0.0434  0.1025
   93MOL0     C12708   2.619   0.917   4.957  1.1112  0.3979  1.0454
   93MOL0     C12709   2.577   0.785   4.899  0.3471  1.6711 -0.6208
   93MOL0     C12710   2.659   0.662   4.948  0.0557 -0.0729  0.2398
   93MOL0     C12711   2.812   0.663   4.899 -0.0113  0.2370 -0.2760
   93MOL0     C12712   2.891   0.548   4.960  0.1423 -0.4715 -0.0857
   93MOL0     N12713   3.017   0.523   4.886  0.8809 -0.6365 -0.0403
   93MOL0     C12714   3.120   0.614   4.867 -0.0115 -0.4133  0.2335
   93MOL0     C12715   3.190   0.552   4.767 -1.1482  0.2762  1.8228
   93MOL0     C12716   3.318   0.597   4.708  0.6617  0.4527  0.7758
   93MOL0     C12717   3.402   0.484   4.643  0.0544  0.1808  0.3150
   93MOL0     C12718   3.457   0.394   4.745 -0.7808 -0.7423 -0.4886
   93MOL0     C12719   3.580   0.309   4.695  0.2227 -1.3619 -0.2085
   93MOL0     O12720   3.565   0.181   4.768  0.2660 -0.0823 -0.2700
   93MOL0     C12721   3.649   0.087   4.716  0.7569  0.2647  0.8564
   93MOL0     C12722   3.763   0.114   4.645 -0.7699 -0.0600 -0.4299
   93MOL0     C12723   3.839   0.009   4.584 -0.0578 -0.2587 -0.1377
   93MOL0     C12724   3.976   0.048   4.517  0.1546 -0.3955  0.1000
   93MOL0     C12725   3.795  -0.124   4.608  0.0053  0.2958  0.6869
   93MOL0     C12726   3.868  -0.247   4.566 -0.3990  0.1787 -0.5692
   93MOL0     O12727   3.808  -0.373   4.593 -0.0486 -0.6641  0.7834
   93MOL0     C12728   3.896  -0.484   4.581  0.2154 -0.4412 -0.1460
   93MOL0     C12729   3.888  -0.579   4.477 -0.0765 -0.7090 -0.2908
   93MOL0     C12730   3.958  -0.702   4.493  0.7203  0.1557 -0.1608
   93MOL0     C12731   4.034  -0.731   4.607 -0.4030  0.1462 -0.2040
   93MOL0     O12732   4.120  -0.835   4.625  0.6992 -0.7437  1.1492
   93MOL0     C12733   4.214  -0.869   4.522  0.9083 -0.2257  0.2333
   93MOL0     C12734   4.249  -1.008   4.557  0.6717  0.4638  0.6118
   93MOL0     C12735   4.391  -1.048   4.504  0.0066  0.6990  0.3191
   93MOL0     C12736   4.406  -1.018   4.354  0.3776  0.3292 -0.2949
   93MOL0     C12737   4.539  -1.083   4.314 -0.4378 -0.4403  1.3714
   93MOL0     C12738   4.552  -1.067   4.168  0.4311  0.4585  0.1304
   93MOL0     C12739   4.698  -1.086   4.120 -0.1682 -0.4118 -0.3412
   93MOL0     C12740   4.731  -1.217   4.053 -0.2868 -0.2387 -0.2007
   93MOL0    Cl12741   4.724  -1.362   4.155 -0.2480  0.4361  0.1857
   93MOL0     C12742   4.048  -0.629   4.695 -0.1144  0.2317 -0.1569
   93MOL0     C12743   3.989  -0.506   4.681  0.3561 -1.2424  0.0216
   93MOL0     O12744   3.975  -0.242   4.505 -0.3520  0.6154 -0.3874
   93MOL0     C12745   3.672  -0.149   4.662 -0.3357  0.2462 -0.4404
   93MOL0     C12746   3.601  -0.046   4.723 -0.1223  0.7634  0.7091
   93MOL0     N12747   3.127   0.432   4.730  0.1348 -0.1244  0.1199
   93MOL0     N12748   3.022   0.419   4.809 -0.0346  0.8618  0.6142
   93MOL0     C12749   3.039   1.226   4.810 -0.5592  0.9567 -0.4718
   93MOL0     C12750   3.167   1.195   4.769 -0.8215 -0.4008  0.2567
   93MOL0     C12751   3.585   0.987   4.714  0.7282 -1.0344  1.0154
   93MOL0     C12752   3.667   1.044   4.811  0.3242  0.1544  0.4741
   93MOL0     C12753   3.801   1.075   4.784  0.2689  0.1362  0.5419
   93MOL0     C12754   3.860   1.007   4.672  1.3700  0.2756 -0.5508
   93MOL0     O12755   3.998   1.018   4.637 -0.1004 -0.2494 -0.4048
   93MOL0     C12756   4.085   1.094   4.723  0.0424  0.2500 -0.1880
   93MOL0     C12757   4.227   1.061   4.691 -0.2853  1.0557  0.9014
   93MOL0     C12758   4.260   0.913   4.718 -0.2701  0.3339 -0.3038
   93MOL0     C12759   4.414   0.886   4.703 -1.0367 -0.8652 -0.3244
   93MOL0     C12760   4.442   0.774   4.787 -0.5671 -0.7632  0.6952
   93MOL0     C12761   4.483   0.677   4.851 -0.6399  0.6393  0.7696
   93MOL0     C12762   3.782   0.942   4.576  0.4831  0.9204 -0.0834
   93MOL0     C12763   3.645   0.928   4.598 -0.0291  0.1657  0.7152
   93MOL0     C12764   3.570   0.846   4.494 -0.3167  0.3654  0.0659
   93MOL0     H12765   3.252   0.932   4.966  0.1586  0.3403  0.7041
   93MOL0     H12766   3.007   0.970   5.030  0.1704  1.5306  2.6641
   93MOL0     H12767   2.746   1.138   4.769  0.8233 -0.7532  0.8118
   93MOL0     H12768   2.759   1.306   4.833  1.5717  0.7958  0.9131
   93MOL0     H12769   2.604   1.192   5.019 -3.5073 -0.4549  1.2845
   93MOL0     H12770   2.549   1.235   4.857 -0.7690 -1.8989 -1.3668
   93MOL0     H12771   2.451   1.011   4.885  0.4700  0.0084 -1.0101
   93MOL0     H12772   2.593   0.996   4.775 -0.0819 -2.5330  0.5560
   93MOL0     H12773   2.727   0.935   4.949  0.6647  4.9549  2.1646
   93MOL0     H12774   2.590   0.934   5.061 -1.5896  0.5872  0.3473
   93MOL0     H12775   2.600   0.799   4.793  3.5807  0.2968 -0.2062
   93MOL0     H12776   2.477   0.764   4.937  0.4980 -0.2914 -1.1912
   93MOL0     H12777   2.662   0.647   5.057 -2.1738 -3.1126  0.0145
   93MOL0     H12778   2.620   0.571   4.900 -1.9023  1.2796 -0.8550
   93MOL0     H12779   2.874   0.752   4.911 -0.5564  0.8097 -1.5065
   93MOL0     H12780   2.814   0.634   4.793  0.3530 -0.3894 -0.1039
   93MOL0     H12781   2.923   0.573   5.061 -0.5544  0.5491 -0.1041
   93MOL0     H12782   2.822   0.463   4.963 -2.6375  1.5980 -0.4353
   93MOL0     H12783   3.138   0.709   4.917  2.2209 -1.2170  1.1083
   93MOL0     H12784   3.376   0.659   4.776 -0.6349  1.3809  1.0724
   93MOL0     H12785   3.283   0.667   4.631 -0.6548  0.9647  1.8009
   93MOL0     H12786   3.343   0.416   4.581 -0.8296 -0.3552  1.7141
   93MOL0     H12787   3.477   0.526   4.574 -1.5011  1.7002 -0.5438
   93MOL0     H12788   3.477   0.442   4.842 -1.9911  0.6487 -0.8790
   93MOL0     H12789   3.379   0.318   4.760 -2.0579  0.7592  1.0027
   93MOL0     H12790   3.585   0.320   4.586  2.2690  3.6571  0.1376
   93MOL0     H12791   3.671   0.356   4.735 -0.0127 -1.9013  1.0079
   93MOL0     H12792   3.802   0.216   4.645  0.5823 -0.5282  1.2652
   93MOL0     H12793   4.056   0.055   4.591 -0.9852  0.2459  1.2943
   93MOL0     H12794   3.971   0.141   4.459 -0.6581 -0.9787 -0.8056
   93MOL0     H12795   4.014  -0.026   4.444 -2.1385 -1.1897 -0.3597
   93MOL0     H12796   3.816  -0.580   4.395  2.8355 -3.1789 -3.1422
   93MOL0     H12797   3.940  -0.782   4.422 -3.5305 -1.2761  2.1898
   93MOL0     H12798   4.174  -0.852   4.422 -0.7851  2.6851  1.2804
   93MOL0     H12799   4.295  -0.798   4.542  0.3565 -0.0991  2.3437
   93MOL0     H12800   4.264  -1.032   4.663 -2.2262  1.8457  1.4615
   93MOL0     H12801   4.173  -1.082   4.530 -0.0570  1.4738 -0.1736
   93MOL0     H12802   4.403  -1.154   4.530 -0.3891  1.6300  5.3328
   93MOL0     H12803   4.467  -0.987   4.554  0.0543 -0.4795  1.7675
   93MOL0     H12804   4.405  -0.912   4.328  1.9229  1.0483  2.2430
   93MOL0     H12805   4.329  -1.076   4.302 -0.1221  0.8503 -0.1514
   93MOL0     H12806   4.622  -1.035   4.368  1.1338 -0.0803 -1.2106
   93MOL0     H12807   4.541  -1.186   4.350  0.3717 -0.4170  1.4251
   93MOL0     H12808   4.511  -0.967   4.157 -1.7502 -0.1817  1.7368
   93MOL0     H12809   4.489  -1.135   4.109  1.0123 -2.2183  2.3677
   93MOL0     H12810   4.778  -1.079   4.194 -0.7591 -0.5964  0.3333
   93MOL0     H12811   4.717  -1.010   4.044  0.1742  1.3007  1.3789
   93MOL0     H12812   4.825  -1.223   3.998 -1.1674 -1.3147 -1.6490
   93MOL0     H12813   4.654  -1.220   3.976 -0.6604 -0.8085  0.1805
   93MOL0     H12814   4.114  -0.641   4.780  0.5879 -0.7455 -0.8101
   93MOL0     H12815   4.003  -0.425   4.752 -0.1591 -0.4307 -0.7878
   93MOL0     H12816   3.628  -0.247   4.677  1.6348 -1.0407 -2.4369
   93MOL0     H12817   3.511  -0.064   4.781 -2.2989  0.3923 -2.5132
   93MOL0     H12818   2.994   1.317   4.773  0.5834  1.2043 -1.3049
   93MOL0     H12819   3.209   1.249   4.684 -0.3770 -2.2642 -0.7811
   93MOL0     H12820   3.628   1.110   4.887  4.9773  3.1682  0.7000
   93MOL0     H12821   3.858   1.140   4.850  0.2595 -1.4102  2.1638
   93MOL0     H12822   4.071   1.202   4.712 -1.6352 -0.1912 -4.1798
   93MOL0     H12823   4.072   1.083   4.831  1.2799  2.3825  0.2417
   93MOL0     H12824   4.276   1.121   4.769 -1.0713  0.3314  1.9889
   93MOL0     H12825   4.263   1.102   4.596  2.1125 -4.0673 -0.7274
   93MOL0     H12826   4.224   0.903   4.821 -0.3599  1.7059 -0.1931
   93MOL0     H12827   4.217   0.838   4.650 -1.9395 -0.2361  1.2702
   93MOL0     H12828   4.472   0.974   4.732 -3.8609  0.6003  1.3682
   93MOL0     H12829   4.451   0.875   4.601  0.9685 -0.3955  0.3157
   93MOL0     H12830   4.526   0.591   4.899 -2.2375 -1.3533 -1.1042
   93MOL0     H12831   3.814   0.903   4.480  0.8443 -1.0122  0.7829
   93MOL0     H12832   3.531   0.750   4.529  1.2848 -1.1710 -2.1167
   93MOL0     H12833   3.483   0.906   4.466  0.8261  1.9652 -0.2117
   93MOL0     H12834   3.626   0.837   4.400  0.2494  1.9731  0.2253
   94MOL0     O12835   7.130   2.821   8.618  0.3233 -0.5678  0.0216
   94MOL0     C12836   7.158   2.817   8.740  0.2818  0.5979  0.0338
   94MOL0     O12837   7.122   2.712   8.829 -0.1263  0.1634  0.2847
   94MOL0     C12838   7.068   2.592   8.771  0.4246 -0.6153  0.2363
   94MOL0     C12839   7.118   2.533   8.648  0.3069  0.1484  0.4778
   94MOL0     C12840   7.038   2.443   8.580  0.0710 -0.3774  0.7821
   94MOL0     C12841   6.908   2.403   8.624  0.6560 -0.2881 -0.8294
   94MOL0     O12842   6.815   2.331   8.559  0.0685 -0.2730  0.0536
   94MOL0     C12843   6.864   2.285   8.430  0.7502 -0.4199  0.1085
   94MOL0     C12844   6.757   2.205   8.356  0.2485  0.5432  0.3089
   94MOL0     C12845   6.645   2.281   8.274  1.0728 -0.1961 -0.7670
   94MOL0     C12846   6.554   2.183   8.211 -0.5892 -0.5324 -0.4717
   94MOL0     C12847   6.412   2.247   8.174  0.1849  0.1965 -0.3330
   94MOL0     C12848   6.318   2.258   8.298  0.0301  0.0722  0.0248
   94MOL0     C12849   6.192   2.335   8.284 -0.0981  0.2398 -0.1485
   94MOL0     C12850   6.080   2.286   8.387 -0.3622 -0.4787 -0.4950
   94MOL0     N12851   5.968   2.378   8.382  0.1185 -0.9368 -0.0534
   94MOL0     C12852   5.844   2.348   8.340 -0.2835  0.9624  0.9151
   94MOL0     C12853   5.775   2.466   8.335 -0.6738 -0.4716  0.8939
   94MOL0     C12854   5.647   2.490   8.260 -0.1978 -0.3808  0.6195
   94MOL0     C12855   5.534   2.419   8.329 -0.1306 -0.3674  0.1593
   94MOL0     C12856   5.394   2.480   8.285 -0.3336 -0.4427 -0.7558
   94MOL0     C12857   5.367   2.492   8.140  0.2218  0.4235  0.8308
   94MOL0     O12858   5.344   2.366   8.082  0.1326  0.3110 -0.3739
   94MOL0     C12859   5.304   2.355   7.956 -0.0510  0.1128  0.0188
   94MOL0     C12860   5.265   2.228   7.910 -0.1374 -0.0184 -1.1126
   94MOL0     C12861   5.223   2.208   7.778 -0.6501  0.8729 -0.1523
   94MOL0     C12862   5.171   2.070   7.755  0.3348 -0.5560 -0.2300
   94MOL0     C12863   5.223   2.314   7.685  0.7904 -0.2649 -1.0682
   94MOL0     C12864   5.181   2.316   7.542  0.1839 -0.3803  0.4433
   94MOL0     O12865   5.233   2.408   7.457 -0.5290  0.2942 -0.1458
   94MOL0     C12866   5.191   2.409   7.332 -0.0395 -0.2506  1.3468
   94MOL0     C12867   5.117   2.511   7.267 -0.7025  1.3997  0.1742
   94MOL0     C12868   5.092   2.511   7.124 -0.4235  0.0063  0.5086
   94MOL0     C12869   5.128   2.394   7.054 -0.4886 -0.7063  0.0100
   94MOL0     O12870   5.103   2.394   6.920 -0.4731 -0.3012  0.1909
   94MOL0     C12871   5.074   2.276   6.836  0.3033  0.4888 -0.9167
   94MOL0     C12872   5.206   2.252   6.762  0.2943 -0.3695  0.6200
   94MOL0     C12873   5.216   2.350   6.645 -0.3790  0.6248  0.9746
   94MOL0     C12874   5.336   2.320   6.552  0.5586  0.3143 -0.1336
   94MOL0     C12875   5.346   2.411   6.433  0.5597  0.0276 -0.2128
   94MOL0     C12876   5.475   2.392   6.347 -0.4201 -0.3521 -0.3994
   94MOL0     C12877   5.461   2.502   6.244 -0.5305  0.6150  1.0063
   94MOL0     C12878   5.533   2.490   6.104  0.3520 -0.9332  0.5318
   94MOL0    Cl12879   5.464   2.359   5.999 -0.2055  0.0305  0.2619
   94MOL0     C12880   5.200   2.288   7.117  0.7136 -0.5936  1.1598
   94MOL0     C12881   5.225   2.297   7.262  0.3453 -0.1065 -0.9308
   94MOL0     O12882   5.091   2.239   7.518 -0.0776  0.3011 -0.4763
   94MOL0     C12883   5.256   2.442   7.742 -0.5675  0.1488 -0.5788
   94MOL0     C12884   5.298   2.463   7.874 -0.1051  0.7512  0.5134
   94MOL0     N12885   5.854   2.569   8.380 -0.5378 -0.0633  0.4618
   94MOL0     N12886   5.957   2.506   8.420 -0.0011 -0.3495 -0.7824
   94MOL0     C12887   6.851   2.458   8.741 -0.2032  0.3127  0.7862
   94MOL0     C12888   6.932   2.557   8.811 -0.9474 -0.1305  1.6673
   94MOL0     C12889   7.243   2.923   8.798 -0.2502  0.7416 -0.3473
   94MOL0     C12890   7.190   2.969   8.920 -0.1219  0.6981  0.4508
   94MOL0     C12891   7.265   3.060   8.994  0.7325 -0.0862 -0.3078
   94MOL0     C12892   7.385   3.112   8.962 -0.6800 -0.2787  0.7210
   94MOL0     O12893   7.435   3.202   9.044 -0.8805  0.0610 -0.7993
   94MOL0     C12894   7.571   3.254   9.019  0.4236  0.3588 -0.1145
   94MOL0     C12895   7.601   3.364   9.123  0.2095 -0.3066 -0.1833
   94MOL0     C12896   7.749   3.410   9.111 -0.6928  0.3901 -0.5616
   94MOL0     C12897   7.788   3.537   9.196  0.1473  0.3991  0.4042
   94MOL0     C12898   7.923   3.531   9.239 -0.5435 -0.0526  0.2621
   94MOL0     C12899   8.037   3.535   9.286  0.1822 -0.5346  0.3808
   94MOL0     C12900   7.435   3.060   8.837  0.2451 -0.5676  0.2402
   94MOL0     C12901   7.362   2.971   8.748  0.1096 -0.0568 -1.2170
   94MOL0     C12902   7.412   2.942   8.614 -0.0418 -0.1694 -0.4223
   94MOL0     H12903   7.209   2.568   8.602  1.0820 -3.9260 -1.5558
   94MOL0     H12904   7.086   2.414   8.487 -3.0530 -1.1251 -0.7353
   94MOL0     H12905   6.954   2.224   8.442  2.2390  1.5892 -0.4750
   94MOL0     H12906   6.896   2.366   8.364  0.5375 -3.9324 -4.8119
   94MOL0     H12907   6.803   2.149   8.273  0.8607  0.0485  0.9663
   94MOL0     H12908   6.707   2.142   8.431 -0.8958  0.8091 -0.2139
   94MOL0     H12909   6.578   2.327   8.347 -0.6558 -4.5432  0.7642
   94MOL0     H12910   6.678   2.347   8.193  2.4239 -0.9638 -0.8786
   94MOL0     H12911   6.599   2.131   8.126 -0.3724 -1.7932  0.3991
   94MOL0     H12912   6.534   2.100   8.279  0.7359  0.1775  0.8555
   94MOL0     H12913   6.371   2.190   8.090  2.9781 -0.9664 -0.9864
   94MOL0     H12914   6.441   2.348   8.142  1.0733 -0.8300 -3.0484
   94MOL0     H12915   6.294   2.155   8.327  1.0163 -0.5802 -1.3456
   94MOL0     H12916   6.372   2.314   8.374  1.0820  3.3210 -2.8268
   94MOL0     H12917   6.157   2.335   8.180  1.4031 -0.0534 -0.6865
   94MOL0     H12918   6.211   2.440   8.305  0.9155  0.1349 -0.4960
   94MOL0     H12919   6.045   2.188   8.356  0.7941 -1.4099  1.0192
   94MOL0     H12920   6.119   2.286   8.489  2.9488 -0.9651 -1.6603
   94MOL0     H12921   5.815   2.253   8.298  2.1220  0.8479 -0.7001
   94MOL0     H12922   5.668   2.460   8.157  1.3564 -0.4200  0.9200
   94MOL0     H12923   5.627   2.596   8.247  2.6091 -0.0791 -2.5252
   94MOL0     H12924   5.535   2.313   8.302  0.8737  0.5313 -4.1544
   94MOL0     H12925   5.537   2.427   8.438  0.9907 -3.7938  0.5110
   94MOL0     H12926   5.309   2.423   8.321 -0.7910 -1.0711 -2.6971
   94MOL0     H12927   5.398   2.579   8.332 -1.1293 -0.9116  0.3255
   94MOL0     H12928   5.286   2.564   8.121 -1.0525 -0.9437  0.8632
   94MOL0     H12929   5.461   2.538   8.109  0.0758 -0.6305 -1.3630
   94MOL0     H12930   5.268   2.144   7.979 -0.4371  1.7548  1.1708
   94MOL0     H12931   5.208   2.009   7.838  3.9711  1.7000  0.0558
   94MOL0     H12932   5.207   2.027   7.662 -0.5639 -1.5265 -0.1453
   94MOL0     H12933   5.062   2.078   7.753  0.0583 -3.3246 -0.2104
   94MOL0     H12934   5.104   2.603   7.324 -0.9836  3.2879 -2.7403
   94MOL0     H12935   5.039   2.591   7.075 -1.3313 -0.1254  1.2493
   94MOL0     H12936   5.037   2.197   6.903 -0.2854  1.5187  0.0135
   94MOL0     H12937   4.989   2.284   6.768  0.0631  0.9751 -0.5671
   94MOL0     H12938   5.291   2.278   6.827 -2.0419  0.3583  3.6106
   94MOL0     H12939   5.206   2.149   6.726 -2.3591  0.4530 -2.1338
   94MOL0     H12940   5.216   2.453   6.682  0.1928  0.8407  0.3824
   94MOL0     H12941   5.120   2.339   6.593 -1.0278 -0.0274  2.2536
   94MOL0     H12942   5.317   2.223   6.504  2.5133  2.1449 -5.3693
   94MOL0     H12943   5.429   2.324   6.608 -0.0249  1.9702  0.7787
   94MOL0     H12944   5.256   2.391   6.374  0.5230 -1.7960  0.4103
   94MOL0     H12945   5.347   2.515   6.468 -2.5248  0.2075 -0.4369
   94MOL0     H12946   5.473   2.294   6.298 -1.0573  0.4052 -1.9778
   94MOL0     H12947   5.568   2.411   6.402  0.7733 -1.3550 -1.9725
   94MOL0     H12948   5.505   2.586   6.299  1.1487 -1.9345  3.9088
   94MOL0     H12949   5.354   2.512   6.225 -0.4515 -1.1413 -0.7196
   94MOL0     H12950   5.641   2.477   6.119  0.9235  2.7693  0.6668
   94MOL0     H12951   5.521   2.588   6.057 -0.0940 -1.0851  0.3281
   94MOL0     H12952   5.232   2.208   7.052  2.5567 -0.7431  2.1564
   94MOL0     H12953   5.281   2.222   7.315  2.4180  1.4004 -0.8946
   94MOL0     H12954   5.236   2.527   7.678 -0.4075 -0.1807 -1.0706
   94MOL0     H12955   5.311   2.568   7.898 -1.6389  1.5067 -1.6363
   94MOL0     H12956   6.748   2.434   8.763 -0.1590 -0.3613  0.3260
   94MOL0     H12957   6.894   2.619   8.891  4.0097  5.1150  0.5985
   94MOL0     H12958   7.099   2.927   8.963  0.6635  1.8237  3.4460
   94MOL0     H12959   7.213   3.077   9.088  0.8037  2.3439 -0.6420
   94MOL0     H12960   7.646   3.176   9.032  2.9100  2.9692  3.3304
   94MOL0     H12961   7.585   3.296   8.919 -0.2791  0.1560 -0.3071
   94MOL0     H12962   7.584   3.337   9.228 -0.4439  1.2428  0.1227
   94MOL0     H12963   7.539   3.450   9.096 -1.3504 -1.6225 -0.9815
   94MOL0     H12964   7.814   3.327   9.139 -1.1092 -1.2195 -3.8887
   94MOL0     H12965   7.777   3.427   9.007  0.2211  3.5893  0.0729
   94MOL0     H12966   7.735   3.528   9.291  0.7617 -2.6678  0.5682
   94MOL0     H12967   7.767   3.623   9.132  1.1514  1.0376  0.8957
   94MOL0     H12968   8.140   3.525   9.313  0.3086 -1.9549 -0.5023
   94MOL0     H12969   7.527   3.099   8.793 -0.7654 -0.4011 -1.8773
   94MOL0     H12970   7.375   3.030   8.561 -2.5914  2.3890  4.8857
   94MOL0     H12971   7.521   2.954   8.617 -0.1448  0.7964  3.0903
   94MOL0     H12972   7.373   2.851   8.566 -1.4139  2.1018 -4.0421
   95MOL0     O12973   9.123   3.295   6.034  0.2034 -0.1994  0.0082
   95MOL0     C12974   9.045   3.224   6.077  0.1548  0.0604  0.2895
   95MOL0     O12975   9.059   3.088   6.098 -0.1642  0.2859 -0.1881
   95MOL0     C12976   9.186   3.040   6.083 -0.7858  1.0477 -0.3177
   95MOL0     C12977   9.258   3.020   6.203 -0.1498 -0.4920  0.1678
   95MOL0     C12978   9.392   2.971   6.191 -0.7834  0.6389  0.6081
   95MOL0     C12979   9.444   2.926   6.065  0.9465  0.1847 -1.1097
   95MOL0     O12980   9.569   2.870   6.070 -0.1865  1.0052 -0.5016
   95MOL0     C12981   9.587   2.724   6.044 -0.2443 -0.3208 -0.4055
   95MOL0     C12982   9.727   2.689   6.094  0.1257  0.8856  1.0680
   95MOL0     C12983   9.777   2.747   6.225 -0.2962  0.9111  0.6730
   95MOL0     C12984   9.924   2.706   6.250  0.3056  0.3548  0.5128
   95MOL0     C12985   9.939   2.760   6.388  0.3137 -0.3017  0.2830
   95MOL0     C12986  10.077   2.730   6.449  0.0870 -0.7099 -0.1271
   95MOL0     C12987  10.117   2.824   6.559 -0.1162 -0.3576  1.3822
   95MOL0     C12988  10.257   2.797   6.629  0.7179  0.4653 -0.3247
   95MOL0     N12989  10.264   2.873   6.755 -0.4285  0.6757 -0.1420
   95MOL0     C12990  10.227   2.829   6.874  0.1456 -0.4764  0.0780
   95MOL0     C12991  10.254   2.929   6.959 -0.3716  1.2520  0.4809
   95MOL0     C12992  10.236   2.920   7.110  0.2271 -0.5106 -0.0756
   95MOL0     C12993  10.091   2.949   7.161  1.5165 -0.7450 -1.1402
   95MOL0     C12994   9.999   2.828   7.135  0.0045 -0.3367  0.9449
   95MOL0     C12995   9.850   2.855   7.188  0.0711 -0.1112 -0.0123
   95MOL0     O12996   9.761   2.743   7.163  0.7512 -0.0233  0.1903
   95MOL0     C12997   9.624   2.758   7.147  0.6765 -0.0140 -0.4423
   95MOL0     C12998   9.538   2.772   7.252  0.0725  1.2361  0.2680
   95MOL0     C12999   9.401   2.780   7.224  0.3871  0.1764 -1.0166
   95MOL0     C13000   9.322   2.772   7.354 -0.1806 -0.4597 -0.1395
   95MOL0     C13001   9.349   2.795   7.099 -0.4998 -0.1222 -0.5272
   95MOL0     C13002   9.208   2.791   7.072  1.0744 -0.6167  0.4041
   95MOL0     O13003   9.175   2.721   6.953  0.3164  0.4327 -0.0610
   95MOL0     C13004   9.044   2.689   6.926 -0.2603  0.5012 -0.6801
   95MOL0     C13005   9.033   2.577   6.840 -0.0730  0.3524  0.4435
   95MOL0     C13006   8.905   2.556   6.780  0.2663 -0.3879  0.5440
   95MOL0     C13007   8.790   2.641   6.820 -0.5956 -0.2293  0.0428
   95MOL0     O13008   8.666   2.609   6.778 -0.1686 -0.2123 -0.3155
   95MOL0     C13009   8.551   2.700   6.793 -0.7247  0.4161  0.2720
   95MOL0     C13010   8.433   2.647   6.712 -0.3325 -0.8143 -0.0973
   95MOL0     C13011   8.475   2.653   6.563 -0.0195  0.7596 -0.1549
   95MOL0     C13012   8.357   2.597   6.487  0.0967 -1.0328  0.1641
   95MOL0     C13013   8.376   2.597   6.337 -0.6287  0.7095  0.0675
   95MOL0     C13014   8.263   2.534   6.251 -0.5471 -0.2823 -0.3599
   95MOL0     C13015   8.295   2.593   6.115 -0.3915  0.3353 -0.5208
   95MOL0     C13016   8.204   2.546   6.012  0.3186 -0.0241 -0.9426
   95MOL0    Cl13017   8.038   2.598   6.053  0.1936 -0.0722  0.3047
   95MOL0     C13018   8.815   2.752   6.899 -0.1977  0.5302  1.0958
   95MOL0     C13019   8.938   2.770   6.947  0.0840 -0.0541 -0.0347
   95MOL0     O13020   9.129   2.841   7.151 -0.9268 -0.2756  0.7062
   95MOL0     C13021   9.442   2.772   6.997 -0.2044 -0.4076 -1.1961
   95MOL0     C13022   9.573   2.757   7.024  0.2729 -0.4814  0.4477
   95MOL0     N13023  10.306   3.031   6.891 -0.2509  0.0488 -0.2776
   95MOL0     N13024  10.303   3.001   6.771  0.5647  1.0342 -0.1522
   95MOL0     C13025   9.362   2.933   5.954 -0.7256  0.2703 -0.0071
   95MOL0     C13026   9.241   2.999   5.959 -0.4477  0.5034  0.1975
   95MOL0     C13027   8.915   3.290   6.136  0.1264  0.3976  0.1142
   95MOL0     C13028   8.820   3.207   6.191 -0.6063  0.1882 -0.9238
   95MOL0     C13029   8.702   3.254   6.245  0.4594  0.6375  0.1690
   95MOL0     C13030   8.665   3.386   6.249  0.4369 -0.1738 -0.1504
   95MOL0     O13031   8.555   3.434   6.312 -0.4540  0.4385  1.2816
   95MOL0     C13032   8.507   3.366   6.425  0.2841 -0.2133  0.0777
   95MOL0     C13033   8.471   3.469   6.528  0.6626 -0.3977  0.2074
   95MOL0     C13034   8.359   3.426   6.626  0.3354 -0.3326 -1.0081
   95MOL0     C13035   8.365   3.511   6.753 -0.2807  0.8616  0.7773
   95MOL0     C13036   8.298   3.648   6.734  0.0539 -0.6406 -0.8905
   95MOL0     C13037   8.263   3.768   6.746 -1.0268 -0.3348 -0.4690
   95MOL0     C13038   8.755   3.470   6.186  1.3167 -0.3324 -0.7772
   95MOL0     C13039   8.883   3.430   6.132  0.0382 -0.5293 -0.6312
   95MOL0     C13040   8.976   3.540   6.077  1.2213  0.4257  0.4725
   95MOL0     H13041   9.211   3.057   6.294 -0.9390  0.8404 -0.7461
   95MOL0     H13042   9.455   2.969   6.280 -2.1713 -2.3333  1.6621
   95MOL0     H13043   9.568   2.699   5.939 -3.7268 -2.0282  0.4749
   95MOL0     H13044   9.508   2.664   6.090  0.3751  1.0828  2.7220
   95MOL0     H13045   9.732   2.580   6.094 -1.1205  0.7427 -1.9194
   95MOL0     H13046   9.793   2.707   6.009 -1.3090  3.4669  0.4001
   95MOL0     H13047   9.779   2.856   6.234  1.3880  0.8357  1.5625
   95MOL0     H13048   9.709   2.723   6.308 -0.2422 -0.6601  0.2855
   95MOL0     H13049   9.921   2.597   6.240  2.8218  0.3351 -0.7414
   95MOL0     H13050   9.996   2.751   6.182 -2.1607  0.1643 -2.4300
   95MOL0     H13051   9.874   2.712   6.462  1.9406  0.5996  2.3957
   95MOL0     H13052   9.926   2.868   6.385 -4.3964 -0.6871 -1.8852
   95MOL0     H13053  10.082   2.634   6.501  0.3485 -0.4888  0.2629
   95MOL0     H13054  10.155   2.742   6.372 -1.9015  1.6254 -1.9260
   95MOL0     H13055  10.040   2.818   6.636 -0.4538 -2.1690  0.9390
   95MOL0     H13056  10.117   2.925   6.517 -0.3757 -1.3033 -1.0247
   95MOL0     H13057  10.280   2.692   6.645 -1.4895 -0.2134 -1.1808
   95MOL0     H13058  10.336   2.834   6.563  0.2249  0.0387 -1.1668
   95MOL0     H13059  10.199   2.729   6.905  0.1670 -0.4084  0.3160
   95MOL0     H13060  10.299   2.996   7.157  1.1180 -0.6450 -1.0321
   95MOL0     H13061  10.266   2.824   7.153  1.2169  0.0567  0.5371
   95MOL0     H13062  10.109   2.986   7.262 -1.0570  3.4753 -1.9711
   95MOL0     H13063  10.038   3.040   7.131 -0.2387 -0.1914  3.0120
   95MOL0     H13064   9.998   2.794   7.031 -0.9751 -1.5286  1.3295
   95MOL0     H13065  10.026   2.740   7.194  0.7772 -0.3392  0.6063
   95MOL0     H13066   9.853   2.876   7.295 -2.3853 -1.4367  0.4064
   95MOL0     H13067   9.804   2.949   7.157 -1.8065 -0.8241  0.4880
   95MOL0     H13068   9.581   2.742   7.346 -0.2269 -0.4545 -0.1071
   95MOL0     H13069   9.388   2.752   7.439 -1.2188 -0.9669  0.5745
   95MOL0     H13070   9.253   2.689   7.339  0.1950 -0.5021 -1.7907
   95MOL0     H13071   9.260   2.860   7.373 -1.5918 -2.0264  3.3315
   95MOL0     H13072   9.111   2.505   6.817  0.0023  0.6623 -0.2700
   95MOL0     H13073   8.902   2.469   6.714 -0.3688  1.2257 -1.6813
   95MOL0     H13074   8.517   2.718   6.895 -0.0492 -4.1944  1.5668
   95MOL0     H13075   8.581   2.796   6.750  1.1552 -1.2185 -2.3799
   95MOL0     H13076   8.414   2.544   6.743  1.4963 -0.6285  1.9065
   95MOL0     H13077   8.353   2.719   6.730 -0.6644 -1.3999  0.8633
   95MOL0     H13078   8.576   2.617   6.543 -0.3396 -0.2793  0.0451
   95MOL0     H13079   8.483   2.757   6.532  1.8221  0.0730 -2.1900
   95MOL0     H13080   8.270   2.656   6.520 -0.0146  0.0691 -1.9303
   95MOL0     H13081   8.338   2.496   6.525 -2.8408 -0.2657  1.0343
   95MOL0     H13082   8.385   2.701   6.306  1.8229 -0.0420 -2.1893
   95MOL0     H13083   8.473   2.546   6.332 -0.5187  0.7639  1.4550
   95MOL0     H13084   8.164   2.565   6.285 -1.0383 -1.0329 -1.1006
   95MOL0     H13085   8.278   2.428   6.272 -2.0454 -0.7083 -1.3130
   95MOL0     H13086   8.395   2.567   6.077 -1.3837 -0.2454 -2.9467
   95MOL0     H13087   8.297   2.702   6.120  3.0666  0.3894 -0.6631
   95MOL0     H13088   8.210   2.437   6.017 -0.0751 -0.0633 -1.3192
   95MOL0     H13089   8.247   2.578   5.917  3.5140 -2.8235 -0.6653
   95MOL0     H13090   8.732   2.815   6.929  1.1405  3.1542 -0.3105
   95MOL0     H13091   8.930   2.866   6.998  0.2594  0.3725 -0.8038
   95MOL0     H13092   9.422   2.775   6.890  1.4743  1.0578 -1.5092
   95MOL0     H13093   9.645   2.758   6.943  0.7029 -0.1781  0.8250
   95MOL0     H13094   9.409   2.900   5.862 -0.6224  0.5114 -0.0393
   95MOL0     H13095   9.181   2.991   5.869 -3.1746 -1.5851  2.0340
   95MOL0     H13096   8.831   3.099   6.181 -0.7411  0.3285 -3.0423
   95MOL0     H13097   8.635   3.177   6.281  0.6459 -0.5049 -1.7707
   95MOL0     H13098   8.418   3.313   6.388 -0.8056 -0.4021  2.7921
   95MOL0     H13099   8.577   3.297   6.472 -0.5104 -1.2363 -0.2057
   95MOL0     H13100   8.438   3.559   6.475  0.2554  0.1056  1.2823
   95MOL0     H13101   8.562   3.490   6.585  3.4037 -2.0762 -3.2004
   95MOL0     H13102   8.258   3.408   6.588  0.2716  0.4480 -1.2419
   95MOL0     H13103   8.397   3.334   6.670 -0.7291 -0.2075  0.2057
   95MOL0     H13104   8.466   3.513   6.795  0.2014 -2.8813  0.2020
   95MOL0     H13105   8.296   3.460   6.821  0.3343  1.0601  1.5568
   95MOL0     H13106   8.233   3.864   6.783 -0.4287 -0.1733 -0.3968
   95MOL0     H13107   8.731   3.575   6.199 -1.8063 -1.0346 -0.2677
   95MOL0     H13108   9.061   3.548   6.145  0.1301  2.2403  1.7064
   95MOL0     H13109   8.997   3.509   5.974 -1.0889 -0.0866  0.0946
   95MOL0     H13110   8.923   3.635   6.083 -2.2621 -1.2995 -0.0995
   96MOL0     O13111   4.621   4.690   5.652 -0.5316 -0.0478  0.9836
   96MOL0     C13112   4.684   4.716   5.550 -0.0349  0.1645 -0.9185
   96MOL0     O13113   4.762   4.631   5.483 -0.1108  0.6142  0.1474
   96MOL0     C13114   4.801   4.510   5.529  0.0084  0.4700  0.9422
   96MOL0     C13115   4.840   4.479   5.659 -0.0459  0.4291 -1.4317
   96MOL0     C13116   4.886   4.353   5.691  0.1400  0.4714 -0.7399
   96MOL0     C13117   4.876   4.253   5.597 -0.7812  0.6059 -0.3129
   96MOL0     O13118   4.895   4.125   5.648  0.2226 -0.7144  0.4116
   96MOL0     C13119   4.971   4.034   5.567  0.3149  0.0366 -0.1101
   96MOL0     C13120   5.126   4.071   5.566 -0.6149  0.5445 -0.3964
   96MOL0     C13121   5.194   4.080   5.709  0.4530 -0.1267  0.0081
   96MOL0     C13122   5.351   4.106   5.716  0.8020  0.3288 -0.5521
   96MOL0     C13123   5.389   4.219   5.612 -0.5507 -0.1621 -0.3965
   96MOL0     C13124   5.323   4.359   5.652 -0.3835 -0.1950 -0.0894
   96MOL0     C13125   5.336   4.476   5.558  0.4356  1.5087 -0.2064
   96MOL0     C13126   5.255   4.592   5.603  0.5292  0.1932  0.7628
   96MOL0     N13127   5.278   4.704   5.505  0.8749 -0.2268 -0.3362
   96MOL0     C13128   5.400   4.770   5.476  0.2219  0.4326 -0.2232
   96MOL0     C13129   5.365   4.866   5.393  0.9308 -0.2214  0.1244
   96MOL0     C13130   5.454   4.967   5.328  0.2086  0.9022 -0.2573
   96MOL0     C13131   5.447   5.100   5.390  0.1829  1.1410 -0.9871
   96MOL0     C13132   5.565   5.185   5.346  0.4267  0.6538  0.7335
   96MOL0     C13133   5.590   5.314   5.422 -0.2341  0.3859 -0.2307
   96MOL0     O13134   5.686   5.388   5.352  0.1181 -0.0731  0.2633
   96MOL0     C13135   5.706   5.527   5.384  0.3902 -0.8560 -0.2093
   96MOL0     C13136   5.629   5.612   5.469  0.2012  0.2717  0.2580
   96MOL0     C13137   5.670   5.744   5.496 -0.1524 -0.7387  0.2707
   96MOL0     C13138   5.585   5.829   5.587  0.3684 -0.8398 -0.5777
   96MOL0     C13139   5.787   5.796   5.442  0.9341 -1.0076 -0.4085
   96MOL0     C13140   5.842   5.927   5.473 -0.2331 -0.5172  0.4866
   96MOL0     O13141   5.979   5.917   5.503  1.1055  0.0827 -0.0684
   96MOL0     C13142   6.074   6.008   5.460 -0.3670  1.1613  0.3453
   96MOL0     C13143   6.056   6.144   5.472  0.8552  0.2062  0.0480
   96MOL0     C13144   6.159   6.230   5.436 -0.7069 -0.1542 -1.9474
   96MOL0     C13145   6.281   6.174   5.381 -0.0564  0.0340  0.8919
   96MOL0     O13146   6.386   6.258   5.336 -0.0036  0.2721  0.1183
   96MOL0     C13147   6.372   6.401   5.359 -0.1504  0.5877 -0.3550
   96MOL0     C13148   6.496   6.476   5.322 -0.0115 -0.5053  0.6816
   96MOL0     C13149   6.615   6.420   5.389  0.6127  0.1938  0.0427
   96MOL0     C13150   6.693   6.317   5.303 -0.0674  0.5949  0.0568
   96MOL0     C13151   6.782   6.229   5.389 -1.2976  0.8435  0.7277
   96MOL0     C13152   6.911   6.185   5.298 -0.6061 -0.5779  0.5476
   96MOL0     C13153   6.870   6.084   5.204 -0.8217 -0.0133 -0.2447
   96MOL0     C13154   6.984   6.034   5.116  0.4448 -0.8878 -0.1424
   96MOL0    Cl13155   7.090   5.927   5.214 -0.1422  0.1667  0.7052
   96MOL0     C13156   6.288   6.041   5.355 -0.7035 -0.0625  0.1569
   96MOL0     C13157   6.186   5.951   5.401 -0.6058  0.0358 -0.8266
   96MOL0     O13158   5.772   6.028   5.471  0.0460  0.5442  0.2655
   96MOL0     C13159   5.869   5.713   5.358  0.3471  1.2853 -0.1150
   96MOL0     C13160   5.823   5.584   5.330  0.3864 -0.4867 -0.8753
   96MOL0     N13161   5.224   4.876   5.376  0.6240  0.6897 -0.1064
   96MOL0     N13162   5.178   4.773   5.438  0.4074 -0.1137 -0.1695
   96MOL0     C13163   4.841   4.288   5.462  1.4262 -0.0804  0.2438
   96MOL0     C13164   4.815   4.420   5.426  0.1150  0.4981 -0.4970
   96MOL0     C13165   4.676   4.856   5.508 -0.2077  0.2074 -0.2224
   96MOL0     C13166   4.773   4.888   5.405 -0.5329 -0.1586 -0.6460
   96MOL0     C13167   4.764   5.008   5.334  1.5643  0.2812  0.3321
   96MOL0     C13168   4.659   5.102   5.351 -0.5166  0.0122  0.5051
   96MOL0     O13169   4.659   5.221   5.283 -0.7084 -0.8267  0.1856
   96MOL0     C13170   4.578   5.329   5.320 -0.1658 -0.3724 -0.7726
   96MOL0     C13171   4.629   5.462   5.258  0.4057 -0.2508  0.8390
   96MOL0     C13172   4.638   5.425   5.112 -0.3791  0.2425 -0.3532
   96MOL0     C13173   4.637   5.551   5.023  0.7440  1.1376  0.4024
   96MOL0     C13174   4.760   5.627   5.040  0.9919  0.0468 -1.3908
   96MOL0     C13175   4.855   5.680   5.085 -0.0736  0.7646 -1.2904
   96MOL0     C13176   4.569   5.069   5.457 -0.4638  0.1028 -0.2372
   96MOL0     C13177   4.575   4.954   5.534 -0.8235  0.9418 -0.1286
   96MOL0     C13178   4.467   4.926   5.620  0.5159 -0.2840  0.8623
   96MOL0     H13179   4.834   4.565   5.726  1.6340  1.3305 -2.3851
   96MOL0     H13180   4.928   4.343   5.791  2.0569  2.6651 -1.2384
   96MOL0     H13181   4.942   4.033   5.461  1.7243  2.0604 -0.5675
   96MOL0     H13182   4.945   3.943   5.621 -2.9665  0.7305 -0.3199
   96MOL0     H13183   5.163   3.984   5.511 -2.7879 -1.3770  1.0252
   96MOL0     H13184   5.139   4.164   5.509 -2.2221  0.0507 -1.6538
   96MOL0     H13185   5.130   4.154   5.759 -1.7619 -1.2410 -1.0319
   96MOL0     H13186   5.181   3.991   5.770  2.2060 -0.0240  0.5873
   96MOL0     H13187   5.370   4.135   5.820 -3.2144 -0.5785  0.5749
   96MOL0     H13188   5.411   4.022   5.680  0.6225  0.7217 -1.8101
   96MOL0     H13189   5.364   4.179   5.513 -0.9648  1.3237 -0.9228
   96MOL0     H13190   5.497   4.230   5.617 -0.6234 -0.1561  3.2545
   96MOL0     H13191   5.215   4.342   5.658 -0.1656 -1.4232  0.5026
   96MOL0     H13192   5.358   4.403   5.746 -2.3431  2.2647 -0.3888
   96MOL0     H13193   5.307   4.464   5.453  0.9061  1.2607 -0.3114
   96MOL0     H13194   5.441   4.502   5.546  1.7325 -2.3703  1.2746
   96MOL0     H13195   5.149   4.567   5.615  0.7168 -0.6429  0.7503
   96MOL0     H13196   5.290   4.625   5.702  1.0108  3.0631 -0.2852
   96MOL0     H13197   5.501   4.735   5.497  1.8455  0.8845 -5.7655
   96MOL0     H13198   5.429   4.981   5.223 -0.1449 -0.3446 -0.3651
   96MOL0     H13199   5.555   4.924   5.337  0.7184  1.9530 -0.8622
   96MOL0     H13200   5.354   5.151   5.366 -1.5174  0.2889  3.0198
   96MOL0     H13201   5.447   5.078   5.497 -2.3897 -3.4833 -1.6834
   96MOL0     H13202   5.656   5.125   5.353  1.1263  1.6481  0.4096
   96MOL0     H13203   5.547   5.209   5.241  3.5289 -0.3889 -0.1335
   96MOL0     H13204   5.498   5.374   5.421  0.6875  2.0312  2.7610
   96MOL0     H13205   5.620   5.297   5.526 -0.9352  0.9040  0.0655
   96MOL0     H13206   5.534   5.579   5.509  0.9250 -1.2653  0.7758
   96MOL0     H13207   5.563   5.930   5.550  0.6960  0.3487  2.1921
   96MOL0     H13208   5.633   5.843   5.685 -0.4549 -0.6886 -0.1838
   96MOL0     H13209   5.492   5.780   5.615  0.9526  0.2041  4.1522
   96MOL0     H13210   5.967   6.193   5.512  2.6886  3.4280  0.5007
   96MOL0     H13211   6.149   6.337   5.445 -0.5499 -0.1359 -1.9849
   96MOL0     H13212   6.276   6.413   5.308 -1.0650 -2.2971  0.4580
   96MOL0     H13213   6.353   6.416   5.465 -0.8924 -0.9236 -0.2481
   96MOL0     H13214   6.513   6.490   5.215  0.2797 -2.2069  0.4714
   96MOL0     H13215   6.471   6.574   5.363 -0.5552  1.2153 -3.2835
   96MOL0     H13216   6.573   6.373   5.479 -2.8412  1.7704 -0.5876
   96MOL0     H13217   6.677   6.502   5.425  0.9902 -0.2221  0.3552
   96MOL0     H13218   6.748   6.369   5.225 -1.0465 -0.1106 -1.1239
   96MOL0     H13219   6.628   6.256   5.240  2.2073 -0.3810 -1.4936
   96MOL0     H13220   6.808   6.288   5.477  4.2061 -1.7849  1.2474
   96MOL0     H13221   6.731   6.140   5.427 -0.0944 -0.0405  0.3375
   96MOL0     H13222   6.990   6.138   5.357  0.8928  1.1993  0.0264
   96MOL0     H13223   6.953   6.275   5.252 -2.1042 -1.2370 -2.3683
   96MOL0     H13224   6.783   6.123   5.152 -0.9112 -0.7872 -0.7016
   96MOL0     H13225   6.834   5.997   5.260  1.0360 -1.7448 -1.5612
   96MOL0     H13226   7.037   6.122   5.078 -0.8913  0.0735  0.1209
   96MOL0     H13227   6.939   5.974   5.036  1.0525  0.2979 -1.4132
   96MOL0     H13228   6.368   6.005   5.290 -0.8245 -1.4872  0.7820
   96MOL0     H13229   6.195   5.843   5.392  2.4250  0.1688 -0.4882
   96MOL0     H13230   5.965   5.749   5.322  2.0409  1.2035  3.7802
   96MOL0     H13231   5.882   5.520   5.264  3.5151  1.6107 -0.3111
   96MOL0     H13232   4.846   4.205   5.391  0.8845 -0.5028  0.6906
   96MOL0     H13233   4.795   4.456   5.325  1.1387 -0.1115 -0.9274
   96MOL0     H13234   4.864   4.835   5.378  0.9442  3.0880 -2.5355
   96MOL0     H13235   4.833   5.020   5.252 -1.3347  3.4551 -1.9321
   96MOL0     H13236   4.475   5.308   5.291  0.0270 -4.7968  0.9453
   96MOL0     H13237   4.591   5.340   5.428 -1.6923  1.6909 -0.7453
   96MOL0     H13238   4.723   5.488   5.307 -0.7852  2.6466  1.8058
   96MOL0     H13239   4.556   5.541   5.279 -3.1650 -2.0879 -3.1745
   96MOL0     H13240   4.731   5.369   5.093 -0.2370  0.7389 -1.1394
   96MOL0     H13241   4.552   5.365   5.082 -0.1429  1.2364 -3.2821
   96MOL0     H13242   4.540   5.601   5.030  0.8672  1.4282  0.0902
   96MOL0     H13243   4.639   5.510   4.921  1.5712  3.0927 -0.4200
   96MOL0     H13244   4.938   5.732   5.129 -1.2153  3.0539 -1.6964
   96MOL0     H13245   4.487   5.132   5.490 -0.6594 -1.4432  2.5197
   96MOL0     H13246   4.401   5.013   5.634 -1.6539 -1.4024 -1.5134
   96MOL0     H13247   4.404   4.847   5.578  0.7242 -0.4943  0.9476
   96MOL0     H13248   4.493   4.895   5.721 -0.9411 -1.0521  1.0301
   97MOL0     O13249  11.052  10.996   3.759 -0.5231 -0.3358 -0.3257
   97MOL0     C13250  11.152  11.056   3.742 -0.0352  0.2289  0.5648
   97MOL0     O13251  11.177  11.131   3.637 -0.8786 -0.2283 -0.7404
   97MOL0     C13252  11.078  11.138   3.536 -1.2956  1.2979 -0.7644
   97MOL0     C13253  11.110  11.059   3.421 -1.0697  0.6174  0.4292
   97MOL0     C13254  11.034  11.092   3.303 -0.6852  0.0524 -0.3757
   97MOL0     C13255  10.937  11.193   3.301  0.8700  0.5448  0.5748
   97MOL0     O13256  10.880  11.205   3.177 -0.2687  0.7184 -0.8037
   97MOL0     C13257  10.811  11.328   3.151 -1.1566 -0.7459  0.8982
   97MOL0     C13258  10.758  11.352   2.999 -1.0024  0.2899  0.1164
   97MOL0     C13259  10.633  11.254   2.976  0.5504  0.3995 -0.1089
   97MOL0     C13260  10.547  11.272   2.852  0.5348  0.1762 -0.5166
   97MOL0     C13261  10.407  11.214   2.868 -0.1304  0.0676 -0.2197
   97MOL0     C13262  10.405  11.063   2.840 -0.3703 -0.0705 -0.4441
   97MOL0     C13263  10.261  11.025   2.824 -0.2392 -0.7700  0.0647
   97MOL0     C13264  10.242  10.877   2.787 -0.6103 -0.2613  0.0430
   97MOL0     N13265  10.116  10.845   2.741 -0.8497  0.2060 -1.3019
   97MOL0     C13266  10.051  10.897   2.633  0.0417  0.2600  0.9753
   97MOL0     C13267   9.942  10.823   2.613 -0.6854  0.5915 -0.6103
   97MOL0     C13268   9.831  10.829   2.513  0.0949 -1.0734 -0.4084
   97MOL0     C13269   9.822  10.700   2.429  0.7436 -0.7875 -0.9486
   97MOL0     C13270   9.900  10.722   2.299 -0.6804 -0.9882  1.1304
   97MOL0     C13271  10.045  10.738   2.317  1.0711  0.1539  0.2985
   97MOL0     O13272  10.107  10.624   2.383 -0.5611 -0.9450 -0.0729
   97MOL0     C13273  10.234  10.657   2.441 -0.5626 -0.8976  0.1795
   97MOL0     C13274  10.283  10.582   2.544 -1.0655 -0.4780 -0.3381
   97MOL0     C13275  10.412  10.602   2.599 -0.3548 -0.0885  1.2242
   97MOL0     C13276  10.444  10.514   2.718 -0.1581 -0.4887  0.1520
   97MOL0     C13277  10.496  10.706   2.553  0.1265  0.8584 -0.1697
   97MOL0     C13278  10.609  10.758   2.638 -0.6333  0.4080 -0.2959
   97MOL0     O13279  10.656  10.886   2.608  0.2288 -0.0225  0.5802
   97MOL0     C13280  10.778  10.930   2.660 -0.0201 -0.5019  0.0354
   97MOL0     C13281  10.885  10.944   2.571  0.5733  0.3176 -0.4676
   97MOL0     C13282  11.010  10.992   2.616 -1.2654 -0.6125 -0.3799
   97MOL0     C13283  11.028  11.033   2.750 -0.3318  0.1211 -0.2657
   97MOL0     O13284  11.152  11.077   2.787  1.5355  0.0371  0.3756
   97MOL0     C13285  11.149  11.177   2.889  0.5382  0.0424 -0.0023
   97MOL0     C13286  11.292  11.223   2.912 -0.4399 -0.0313 -0.6678
   97MOL0     C13287  11.326  11.296   3.053  0.7753 -0.2836  0.1437
   97MOL0     C13288  11.257  11.438   3.064  0.6287 -0.8608 -0.4529
   97MOL0     C13289  11.297  11.525   3.187 -0.4152 -0.1350 -0.7861
   97MOL0     C13290  11.251  11.438   3.304 -0.0545 -0.2451  0.8853
   97MOL0     C13291  11.273  11.505   3.430 -0.8362 -0.5002 -0.4072
   97MOL0     C13292  11.423  11.479   3.475 -0.7550  0.0621 -0.0919
   97MOL0    Cl13293  11.461  11.300   3.501  0.0623 -0.4661 -0.0965
   97MOL0     C13294  10.914  11.020   2.836 -0.7996 -0.4962  0.3704
   97MOL0     C13295  10.792  10.973   2.790 -0.2490 -0.5204  0.0850
   97MOL0     O13296  10.676  10.675   2.704 -0.5055 -0.7649  0.1643
   97MOL0     C13297  10.454  10.781   2.448  0.5294 -0.4118  0.3132
   97MOL0     C13298  10.316  10.761   2.390 -0.2770  0.4612 -0.0644
   97MOL0     N13299   9.932  10.725   2.710  0.1025 -0.3902  0.1125
   97MOL0     N13300  10.041  10.734   2.785 -0.3409 -0.3170 -0.6448
   97MOL0     C13301  10.892  11.253   3.417 -0.5323 -0.5557  0.6413
   97MOL0     C13302  10.969  11.225   3.534 -0.5225 -0.4609  0.0753
   97MOL0     C13303  11.256  11.043   3.841  0.3487  0.9475  0.1497
   97MOL0     C13304  11.371  11.129   3.829 -0.0581  0.3225 -0.1059
   97MOL0     C13305  11.477  11.131   3.921  0.7488  0.9047 -0.8806
   97MOL0     C13306  11.479  11.031   4.019 -1.5799 -0.3310 -0.4340
   97MOL0     O13307  11.580  11.012   4.114  0.6918  0.1450 -0.4187
   97MOL0     C13308  11.694  11.095   4.100  0.3673 -0.7664 -1.0889
   97MOL0     C13309  11.793  11.046   4.204  1.0629 -0.1057  0.3416
   97MOL0     C13310  11.737  11.029   4.351 -0.2039 -0.7919 -0.3798
   97MOL0     C13311  11.833  11.045   4.466 -0.7118 -0.0790 -0.1355
   97MOL0     C13312  11.910  11.174   4.449 -0.2802  0.3182 -0.1424
   97MOL0     C13313  11.957  11.278   4.414  0.5830  0.1302  0.0002
   97MOL0     C13314  11.377  10.951   4.027 -0.0738 -0.0043  0.1731
   97MOL0     C13315  11.270  10.948   3.939  0.8327  0.5282 -0.0405
   97MOL0     C13316  11.185  10.818   3.935  0.0975 -0.3253 -0.0040
   97MOL0     H13317  11.194  10.991   3.431 -0.9401  0.8975  1.2981
   97MOL0     H13318  11.051  11.021   3.222 -0.3804 -3.0648  2.2308
   97MOL0     H13319  10.876  11.414   3.167 -2.0094  0.1516 -0.3189
   97MOL0     H13320  10.729  11.331   3.223 -0.0720 -3.5881  2.4021
   97MOL0     H13321  10.734  11.459   2.990 -1.0130  0.3184  0.4866
   97MOL0     H13322  10.842  11.325   2.934 -2.6574 -0.9913 -1.5877
   97MOL0     H13323  10.661  11.152   2.949 -1.1346  0.6310 -3.1425
   97MOL0     H13324  10.569  11.226   3.061  1.1763  2.2211  1.0283
   97MOL0     H13325  10.537  11.380   2.837  2.1060  0.8614  2.5184
   97MOL0     H13326  10.594  11.221   2.767  0.5719  1.9014 -1.5834
   97MOL0     H13327  10.351  11.269   2.792  1.3502 -0.3861 -1.6870
   97MOL0     H13328  10.372  11.238   2.969 -0.9912 -1.0521 -0.2414
   97MOL0     H13329  10.459  11.035   2.749  0.0575  1.4125 -0.6691
   97MOL0     H13330  10.441  11.000   2.922 -1.3784 -0.7655 -0.5236
   97MOL0     H13331  10.223  11.080   2.738  4.2341 -0.8632 -2.2886
   97MOL0     H13332  10.213  11.056   2.917  0.2949 -2.1369  0.8270
   97MOL0     H13333  10.311  10.847   2.708  1.9738  2.3263  1.1224
   97MOL0     H13334  10.278  10.811   2.867  0.8777 -2.1005 -2.0241
   97MOL0     H13335  10.094  10.977   2.574 -0.3429  1.9602  2.8629
   97MOL0     H13336   9.845  10.918   2.450 -3.8152 -1.1454 -1.6921
   97MOL0     H13337   9.748  10.847   2.582  1.6034  3.4851  0.5490
   97MOL0     H13338   9.873  10.619   2.484  1.4201  0.6685  0.6711
   97MOL0     H13339   9.716  10.692   2.406 -0.4724  4.9375  1.0457
   97MOL0     H13340   9.885  10.636   2.233  1.7421 -0.8176  0.2557
   97MOL0     H13341   9.867  10.809   2.242  1.3842 -0.2842  0.9200
   97MOL0     H13342  10.084  10.761   2.217  1.5739  0.5301  0.5762
   97MOL0     H13343  10.064  10.833   2.367  1.3419  1.8757 -2.7951
   97MOL0     H13344  10.225  10.511   2.602  1.6497 -2.5105  0.1031
   97MOL0     H13345  10.365  10.440   2.733  0.7164 -2.0475 -2.3791
   97MOL0     H13346  10.454  10.569   2.812 -1.6232  1.7851 -0.9342
   97MOL0     H13347  10.534  10.458   2.691 -0.3304 -1.4565  1.4714
   97MOL0     H13348  10.876  10.915   2.467 -2.3895  2.7340 -1.0428
   97MOL0     H13349  11.097  10.974   2.553  0.1573  1.2322  0.9509
   97MOL0     H13350  11.097  11.268   2.859 -1.6645 -1.7070 -1.7903
   97MOL0     H13351  11.126  11.118   2.978 -0.2552 -0.8308 -0.7637
   97MOL0     H13352  11.358  11.136   2.917 -2.7888 -1.8061  2.3107
   97MOL0     H13353  11.329  11.289   2.832 -0.4467  2.1122  1.0025
   97MOL0     H13354  11.434  11.286   3.070  0.6405  0.4605  1.6811
   97MOL0     H13355  11.288  11.233   3.135  1.9451  0.3175  1.1846
   97MOL0     H13356  11.150  11.419   3.067 -0.2145  3.1282 -0.0058
   97MOL0     H13357  11.285  11.490   2.971  1.0567 -0.9998 -0.4058
   97MOL0     H13358  11.401  11.555   3.200 -0.2285 -0.8323 -0.6733
   97MOL0     H13359  11.243  11.621   3.188  0.6980  0.5213 -1.1643
   97MOL0     H13360  11.297  11.339   3.302 -1.0587 -0.7267 -0.4822
   97MOL0     H13361  11.143  11.420   3.293 -0.2717  0.4923  1.7010
   97MOL0     H13362  11.204  11.460   3.502  1.0260 -4.2315 -0.7199
   97MOL0     H13363  11.273  11.615   3.423  3.2448 -0.3536 -1.0740
   97MOL0     H13364  11.440  11.531   3.570 -1.2308 -0.5433  0.3403
   97MOL0     H13365  11.494  11.516   3.401 -1.4291 -0.6240 -1.1001
   97MOL0     H13366  10.916  11.049   2.941  0.9878 -2.1055  0.8451
   97MOL0     H13367  10.700  10.971   2.848 -0.1326  1.1710  0.3916
   97MOL0     H13368  10.498  10.873   2.413 -2.0259  0.0564 -2.0147
   97MOL0     H13369  10.275  10.834   2.321 -4.9375 -3.4880 -2.0474
   97MOL0     H13370  10.803  11.315   3.407 -0.1036 -0.2976 -3.7367
   97MOL0     H13371  10.930  11.273   3.624 -1.6355  0.7231 -1.0054
   97MOL0     H13372  11.371  11.208   3.755  1.3077 -0.9073 -1.4758
   97MOL0     H13373  11.554  11.208   3.921 -0.3325  2.1391  2.2354
   97MOL0     H13374  11.732  11.087   3.998  1.8152 -0.1281 -0.6264
   97MOL0     H13375  11.680  11.201   4.125  5.2423 -0.3788  1.1357
   97MOL0     H13376  11.870  11.122   4.185  0.1083  0.9655  0.6479
   97MOL0     H13377  11.826  10.954   4.156  1.1720 -0.2520  0.6919
   97MOL0     H13378  11.663  11.105   4.378 -1.7122 -2.4044  0.2393
   97MOL0     H13379  11.692  10.929   4.357  1.6286 -1.8578 -2.8459
   97MOL0     H13380  11.904  10.962   4.475 -1.5478 -0.6178  2.3492
   97MOL0     H13381  11.790  11.045   4.567 -0.7113  0.2628 -0.1335
   97MOL0     H13382  12.002  11.368   4.379 -1.9954  1.4166 -0.3070
   97MOL0     H13383  11.401  10.872   4.098 -2.0765 -0.1070  0.7937
   97MOL0     H13384  11.163  10.779   3.835  0.2861 -0.0254 -0.1660
   97MOL0     H13385  11.255  10.746   3.978  1.3604  0.2828 -0.9808
   97MOL0     H13386  11.088  10.829   3.984  1.4839  0.5809  2.7558
   98MOL0     O13387   5.778   2.374   2.289  0.5748 -0.7322 -0.4626
   98MOL0     C13388   5.683   2.330   2.350  0.3951  0.4288  1.0990
   98MOL0     O13389   5.554   2.366   2.330 -0.1300  0.0820 -1.0760
   98MOL0     C13390   5.526   2.459   2.235 -0.1605 -0.2632  0.9354
   98MOL0     C13391   5.493   2.412   2.104 -0.9372 -0.2199 -0.6799
   98MOL0     C13392   5.427   2.494   2.012 -0.9015 -0.4021  1.5329
   98MOL0     C13393   5.408   2.629   2.044  0.8245  0.0794 -0.8053
   98MOL0     O13394   5.345   2.699   1.944 -0.4014  0.8555  0.3091
   98MOL0     C13395   5.366   2.840   1.947  0.5575 -0.0327  0.3480
   98MOL0     C13396   5.272   2.901   1.837  0.3757  0.5954 -1.0255
   98MOL0     C13397   5.321   2.874   1.700  0.8440 -0.6036  0.4648
   98MOL0     C13398   5.281   2.984   1.599 -0.5435  0.7367  0.2332
   98MOL0     C13399   5.339   2.966   1.456 -0.4255  0.4845 -0.0626
   98MOL0     C13400   5.282   3.068   1.355 -0.1490 -1.2324 -0.9129
   98MOL0     C13401   5.335   3.040   1.208 -0.6257 -0.5027 -0.2682
   98MOL0     C13402   5.467   3.121   1.196 -0.0478  0.0471  0.6594
   98MOL0     N13403   5.564   3.070   1.097 -0.0490 -0.7788  0.5919
   98MOL0     C13404   5.694   3.087   1.098  0.2954  0.1111  0.6571
   98MOL0     C13405   5.750   3.035   0.981  0.2964  1.0784 -0.2096
   98MOL0     C13406   5.894   3.057   0.939  0.2425 -1.1743  0.1171
   98MOL0     C13407   5.894   3.143   0.808 -0.4210 -0.5805 -0.6448
   98MOL0     C13408   5.931   3.064   0.687  0.9279  0.7161 -0.0218
   98MOL0     C13409   6.080   3.074   0.655  1.1857 -0.6744  0.9367
   98MOL0     O13410   6.178   3.008   0.738 -0.0530  1.1200 -1.6651
   98MOL0     C13411   6.315   3.013   0.700  0.5599 -0.2949  0.1519
   98MOL0     C13412   6.412   2.925   0.752 -0.6074  0.5662  0.4319
   98MOL0     C13413   6.545   2.914   0.708 -0.0887 -0.5813 -0.9407
   98MOL0     C13414   6.621   2.809   0.775  0.5813  0.1493 -0.3111
   98MOL0     C13415   6.588   2.999   0.608  0.0133  0.0662  0.3514
   98MOL0     C13416   6.732   3.003   0.558  0.2379 -1.0191 -0.3877
   98MOL0     O13417   6.765   3.106   0.471  0.6826 -0.5306  0.6895
   98MOL0     C13418   6.894   3.095   0.425 -0.2343 -0.4991 -0.7824
   98MOL0     C13419   7.008   3.131   0.494  0.0118 -0.0341  0.1098
   98MOL0     C13420   7.142   3.114   0.442  0.0499  0.0767  0.1327
   98MOL0     C13421   7.155   3.056   0.315  0.1558  0.2939  0.7137
   98MOL0     O13422   7.271   3.050   0.252 -0.6948 -0.8734 -0.1080
   98MOL0     C13423   7.305   2.942   0.157 -0.1067 -0.6090 -0.2963
   98MOL0     C13424   7.450   2.964   0.139 -1.1825  0.2824 -0.5421
   98MOL0     C13425   7.530   2.849   0.068  0.4986 -0.8966 -0.1110
   98MOL0     C13426   7.680   2.890   0.072  0.4838 -0.2326  0.7362
   98MOL0     C13427   7.754   2.777  -0.009  0.5687  0.1360 -0.9068
   98MOL0     C13428   7.902   2.784   0.009  0.2128  1.2083  1.3651
   98MOL0     C13429   7.974   2.668  -0.066 -0.3675 -0.1730  0.1831
   98MOL0     C13430   7.978   2.688  -0.219  0.0986 -0.8656  0.5093
   98MOL0    Cl13431   8.133   2.625  -0.272  0.0473 -0.2932  0.0034
   98MOL0     C13432   7.039   3.004   0.248 -0.0127  0.2643  0.5362
   98MOL0     C13433   6.916   3.043   0.298  1.4279  1.6248 -0.6658
   98MOL0     O13434   6.817   2.940   0.616  0.0761 -0.1288  0.1565
   98MOL0     C13435   6.487   3.081   0.545 -0.3622 -0.7289 -0.0480
   98MOL0     C13436   6.359   3.091   0.596  0.0392  0.0131  0.3111
   98MOL0     N13437   5.644   2.984   0.911  0.0216 -0.4900  0.3848
   98MOL0     N13438   5.531   3.013   0.973 -0.3475 -0.0585  0.3439
   98MOL0     C13439   5.445   2.677   2.163 -0.1096 -0.0190 -0.9131
   98MOL0     C13440   5.495   2.595   2.261 -0.3199  0.4127  0.1557
   98MOL0     C13441   5.710   2.216   2.430  0.0967  0.1518  0.6144
   98MOL0     C13442   5.733   2.097   2.356 -0.7538 -0.5171  1.0050
   98MOL0     C13443   5.763   1.978   2.420  0.8602 -0.5459  0.1256
   98MOL0     C13444   5.758   1.964   2.562 -0.1902 -0.5698  0.4497
   98MOL0     O13445   5.801   1.848   2.617 -0.1663 -0.5395  0.0128
   98MOL0     C13446   5.924   1.848   2.697  0.7612 -0.1053  0.4068
   98MOL0     C13447   5.946   1.724   2.773  0.3238  0.2468  0.2433
   98MOL0     C13448   5.843   1.694   2.887  0.2725 -0.1164  0.8244
   98MOL0     C13449   5.860   1.554   2.951 -0.5555  0.1797  0.0461
   98MOL0     C13450   5.968   1.562   3.052  0.2798 -1.1040 -0.1703
   98MOL0     C13451   6.051   1.579   3.129 -0.0827 -0.1978  0.0918
   98MOL0     C13452   5.738   2.082   2.643  0.2023  0.3830 -0.1509
   98MOL0     C13453   5.716   2.205   2.578 -0.4508 -0.3058  0.3655
   98MOL0     C13454   5.677   2.312   2.675  0.6982  0.4957 -0.1175
   98MOL0     H13455   5.520   2.310   2.081 -0.9698 -1.0242  2.4848
   98MOL0     H13456   5.392   2.454   1.918  1.0712 -1.9048  1.3656
   98MOL0     H13457   5.468   2.873   1.926 -0.1537  1.5635 -0.8129
   98MOL0     H13458   5.343   2.879   2.046  0.7521 -0.6316  0.6327
   98MOL0     H13459   5.170   2.862   1.846  1.0104 -0.9603 -0.1588
   98MOL0     H13460   5.288   3.005   1.867  2.6842 -0.6088  2.5499
   98MOL0     H13461   5.429   2.861   1.696  0.8150 -0.5680 -1.0565
   98MOL0     H13462   5.265   2.784   1.670 -0.8324  0.3693  0.5610
   98MOL0     H13463   5.172   2.990   1.589 -0.6310  0.7072  1.0920
   98MOL0     H13464   5.310   3.079   1.644  1.9014  0.5645 -0.8500
   98MOL0     H13465   5.329   2.868   1.409 -0.9887  1.1492 -1.3970
   98MOL0     H13466   5.447   2.980   1.463  0.0397 -2.3466 -0.3090
   98MOL0     H13467   5.173   3.056   1.364 -0.6187  2.6551  0.7728
   98MOL0     H13468   5.309   3.166   1.396 -1.1247 -0.6959 -1.4933
   98MOL0     H13469   5.266   3.060   1.125  0.0089  3.4022 -0.0373
   98MOL0     H13470   5.360   2.935   1.188 -0.4558 -0.3864 -0.6778
   98MOL0     H13471   5.438   3.219   1.159 -0.4382  0.3686  1.7672
   98MOL0     H13472   5.531   3.120   1.285  1.7211  0.1907 -0.5572
   98MOL0     H13473   5.748   3.134   1.179  0.8458 -1.8690  1.4904
   98MOL0     H13474   5.943   2.963   0.913 -0.2175 -0.6671 -2.9534
   98MOL0     H13475   5.945   3.107   1.021 -0.3137  1.0824 -0.8435
   98MOL0     H13476   5.803   3.202   0.793 -2.0527 -3.0757 -1.1899
   98MOL0     H13477   5.964   3.227   0.807  2.3151 -2.7077  0.6290
   98MOL0     H13478   5.889   2.965   0.708 -1.3025  1.4572 -0.6493
   98MOL0     H13479   5.874   3.117   0.610 -2.6743  1.1050  2.6545
   98MOL0     H13480   6.093   3.032   0.554  2.0468  0.2292  0.6526
   98MOL0     H13481   6.109   3.179   0.649  1.9769 -0.8800  0.9284
   98MOL0     H13482   6.383   2.852   0.827 -0.2688 -0.8436 -0.7466
   98MOL0     H13483   6.564   2.770   0.860  0.9504  0.6378  0.1684
   98MOL0     H13484   6.708   2.848   0.829  0.3583 -1.0881  1.0107
   98MOL0     H13485   6.626   2.733   0.697 -0.7670  1.2871 -1.5640
   98MOL0     H13486   6.998   3.180   0.590 -1.9089 -2.2168  1.1190
   98MOL0     H13487   7.226   3.166   0.486  0.3395  0.7873 -1.2006
   98MOL0     H13488   7.277   2.850   0.207 -0.1206  0.2597  1.3762
   98MOL0     H13489   7.261   2.949   0.057  0.1558 -0.2110 -0.3887
   98MOL0     H13490   7.468   3.067   0.107  3.4403  1.8832  5.3530
   98MOL0     H13491   7.487   2.968   0.242 -2.7448 -0.3995  0.0871
   98MOL0     H13492   7.495   2.855  -0.035 -1.3906  0.6093  0.5463
   98MOL0     H13493   7.509   2.751   0.111 -0.5814 -1.3136 -1.5057
   98MOL0     H13494   7.696   2.881   0.180 -5.6349 -3.6323  1.8021
   98MOL0     H13495   7.701   2.991   0.037 -0.2081  0.6185  2.6478
   98MOL0     H13496   7.719   2.680   0.030  0.8216  1.2016  2.2427
   98MOL0     H13497   7.722   2.784  -0.114  0.8812 -0.1136 -1.0226
   98MOL0     H13498   7.922   2.784   0.117  3.6478  5.1718  1.0077
   98MOL0     H13499   7.925   2.887  -0.020 -1.2063  1.1998  0.1369
   98MOL0     H13500   7.946   2.566  -0.040  1.6585 -1.5147 -2.4828
   98MOL0     H13501   8.073   2.666  -0.019 -0.8118  1.7797  1.3549
   98MOL0     H13502   7.966   2.796  -0.230  1.2385 -0.8113 -0.4609
   98MOL0     H13503   7.889   2.648  -0.269  0.1901 -2.9460  1.8922
   98MOL0     H13504   7.053   2.956   0.152 -2.5116  0.4638  0.0074
   98MOL0     H13505   6.841   2.998   0.235  0.9102  0.1564  0.9162
   98MOL0     H13506   6.515   3.145   0.461 -1.9834  1.3877  0.9157
   98MOL0     H13507   6.296   3.168   0.554 -0.1202  0.5416  1.4584
   98MOL0     H13508   5.417   2.776   2.197 -1.5505  0.2532 -2.7275
   98MOL0     H13509   5.478   2.632   2.361 -4.5103  2.4193 -1.0326
   98MOL0     H13510   5.739   2.109   2.249 -2.2589  0.0786  0.9579
   98MOL0     H13511   5.779   1.896   2.351 -0.3532 -0.0835 -0.7440
   98MOL0     H13512   6.005   1.858   2.624 -0.8890 -1.2585 -1.7232
   98MOL0     H13513   5.927   1.933   2.765 -4.2977 -0.6305  1.6848
   98MOL0     H13514   6.046   1.720   2.817  0.1092  1.2958  0.8498
   98MOL0     H13515   5.936   1.642   2.701 -1.3041 -1.1673  1.9730
   98MOL0     H13516   5.849   1.772   2.963  2.7619  0.8675 -0.2684
   98MOL0     H13517   5.746   1.711   2.839  0.6833  1.2252  0.4074
   98MOL0     H13518   5.885   1.473   2.881 -1.0996  0.0441  0.0045
   98MOL0     H13519   5.771   1.504   2.989  2.0427 -3.3043  2.1667
   98MOL0     H13520   6.136   1.585   3.194 -0.7550  0.4376  0.9308
   98MOL0     H13521   5.728   2.071   2.751 -5.4889  0.2438 -0.3643
   98MOL0     H13522   5.743   2.295   2.760 -1.3221  0.1317  1.4689
   98MOL0     H13523   5.692   2.406   2.623  1.1231 -1.2408 -3.4001
   98MOL0     H13524   5.576   2.292   2.713  1.2919 -0.1301  1.2127
   99MOL0     O13525   6.476   2.846   9.798 -0.4115  0.2279  0.0699
   99MOL0     C13526   6.480   2.775   9.897 -0.1991 -0.0420 -0.2802
   99MOL0     O13527   6.559   2.783  10.002  0.1504  0.4767 -0.9709
   99MOL0     C13528   6.636   2.893  10.025 -0.5601  0.0397  0.4590
   99MOL0     C13529   6.593   3.000  10.090 -0.4160 -0.5078  0.4018
   99MOL0     C13530   6.670   3.116  10.105  0.4147  0.1619  0.5849
   99MOL0     C13531   6.800   3.119  10.044  0.3296 -0.9877  0.4853
   99MOL0     O13532   6.888   3.222  10.071  0.4316 -0.2421  0.0817
   99MOL0     C13533   6.843   3.340  10.141 -0.0499  0.3225 -0.0655
   99MOL0     C13534   6.952   3.435  10.166  0.2992  0.2869 -0.0282
   99MOL0     C13535   7.059   3.365  10.267 -0.0655 -0.4537 -1.4904
   99MOL0     C13536   7.137   3.474  10.340  0.5573 -0.9686  0.1249
   99MOL0     C13537   7.255   3.419  10.420  0.2437  0.0895  0.6042
   99MOL0     C13538   7.334   3.513  10.500  0.7064  0.2146  0.2489
   99MOL0     C13539   7.413   3.638  10.455  0.0214  0.0740 -0.3577
   99MOL0     C13540   7.543   3.604  10.381  0.1589  0.1412 -0.3908
   99MOL0     N13541   7.649   3.527  10.457  0.9509 -0.5833 -0.2015
   99MOL0     C13542   7.649   3.390  10.457  0.7293 -0.3126 -0.2204
   99MOL0     C13543   7.707   3.352  10.573  0.9220 -1.1844 -0.0220
   99MOL0     C13544   7.748   3.215  10.599 -0.3071  0.0930 -0.4271
   99MOL0     C13545   7.890   3.196  10.557 -0.4738 -0.6941  0.1175
   99MOL0     C13546   7.925   3.048  10.534  0.1118 -0.1655  0.1449
   99MOL0     C13547   8.040   3.023  10.429 -0.9731 -0.8420  0.0543
   99MOL0     O13548   8.022   3.090  10.303 -0.0059  0.3950  0.7292
   99MOL0     C13549   7.949   3.029  10.195 -0.3936  0.3067  0.3721
   99MOL0     C13550   7.942   3.111  10.079 -0.6810 -1.1511  0.2525
   99MOL0     C13551   7.866   3.061   9.966 -0.3185  0.1649  0.5594
   99MOL0     C13552   7.847   3.163   9.858 -0.0309  0.8153  0.4527
   99MOL0     C13553   7.796   2.939   9.976  0.3661 -0.3589 -0.0373
   99MOL0     C13554   7.710   2.894   9.865 -0.0605  0.0212 -0.3150
   99MOL0     O13555   7.645   2.778   9.884  0.1041  0.6331 -0.2503
   99MOL0     C13556   7.524   2.750   9.827 -0.1011 -0.6990  0.3185
   99MOL0     C13557   7.443   2.834   9.760 -0.2551  0.2801 -0.1239
   99MOL0     C13558   7.325   2.789   9.696 -0.3498  0.4012 -0.1638
   99MOL0     C13559   7.302   2.649   9.685  0.3371  0.4474 -0.2819
   99MOL0     O13560   7.184   2.595   9.643  0.5129 -0.3342 -0.5645
   99MOL0     C13561   7.068   2.676   9.588  0.4150 -0.2987 -0.3705
   99MOL0     C13562   6.969   2.723   9.694  0.2568 -0.1989  0.0861
   99MOL0     C13563   6.830   2.661   9.673  0.5056  0.2746  0.7620
   99MOL0     C13564   6.825   2.519   9.728 -0.0968 -0.1908 -0.5200
   99MOL0     C13565   6.692   2.451   9.687 -0.4233 -0.5249  0.4158
   99MOL0     C13566   6.675   2.323   9.771 -0.9473  0.8701 -0.4297
   99MOL0     C13567   6.558   2.232   9.712 -0.0019 -0.8067 -0.3339
   99MOL0     C13568   6.533   2.104   9.790 -0.3716 -0.1409 -0.1417
   99MOL0    Cl13569   6.471   2.118   9.959  0.0937 -0.0384  0.2217
   99MOL0     C13570   7.395   2.573   9.742 -0.8991  0.3861 -0.8994
   99MOL0     C13571   7.496   2.621   9.824 -0.0581 -0.9889 -0.2593
   99MOL0     O13572   7.715   2.953   9.766 -0.1522 -0.4368 -0.3120
   99MOL0     C13573   7.811   2.870  10.096 -0.5213 -0.0624  0.1643
   99MOL0     C13574   7.885   2.907  10.200 -0.2188  0.1983  0.3315
   99MOL0     N13575   7.744   3.469  10.638  1.1185  0.9833 -0.6288
   99MOL0     N13576   7.703   3.569  10.573  0.3499 -0.8568  0.2784
   99MOL0     C13577   6.846   3.014   9.984 -1.5752 -0.5657  0.1439
   99MOL0     C13578   6.766   2.894   9.972  0.3266 -0.3115 -0.0052
   99MOL0     C13579   6.377   2.678   9.909  1.1430 -0.0457 -0.0790
   99MOL0     C13580   6.405   2.547   9.946 -1.0362 -0.3092  0.4212
   99MOL0     C13581   6.307   2.450   9.939 -0.4685  0.1433 -0.5860
   99MOL0     C13582   6.173   2.482   9.901  0.3834  0.3231 -0.7410
   99MOL0     O13583   6.088   2.371   9.899 -0.8256  0.0701 -0.0862
   99MOL0     C13584   5.953   2.393   9.935  1.8933 -0.4492 -0.0562
   99MOL0     C13585   5.939   2.441  10.080  0.3304 -0.2870 -0.5274
   99MOL0     C13586   6.003   2.360  10.184  0.0086 -0.3434 -0.8736
   99MOL0     C13587   6.016   2.208  10.150  0.2290  0.0689 -0.0006
   99MOL0     C13588   5.886   2.148  10.137 -0.7446 -0.4201 -0.0110
   99MOL0     C13589   5.787   2.096  10.100  0.1674  0.5392 -0.1623
   99MOL0     C13590   6.132   2.612   9.882  0.0761 -0.5623  0.1267
   99MOL0     C13591   6.240   2.709   9.869  0.1783  1.2162 -0.1549
   99MOL0     C13592   6.184   2.832   9.804 -0.8742  0.0343  0.0162
   99MOL0     H13593   6.494   3.000  10.135  1.1462 -0.7805  4.1953
   99MOL0     H13594   6.627   3.207  10.146  0.3552  0.2379  0.3544
   99MOL0     H13595   6.798   3.310  10.237 -0.7339 -1.2836 -0.8524
   99MOL0     H13596   6.772   3.388  10.073 -1.4437 -1.2168  0.2241
   99MOL0     H13597   6.991   3.486  10.078  0.4333 -0.8508 -0.6433
   99MOL0     H13598   6.909   3.518  10.223  1.0229 -0.0743  1.0844
   99MOL0     H13599   7.002   3.294  10.327  0.8329 -1.4072 -1.7400
   99MOL0     H13600   7.137   3.309  10.216  0.6449 -2.2769  1.3888
   99MOL0     H13601   7.163   3.554  10.270  0.6734 -2.2055 -1.2829
   99MOL0     H13602   7.072   3.514  10.420  2.5280 -2.0894  2.4200
   99MOL0     H13603   7.318   3.385  10.337 -1.9010  1.5484 -1.7928
   99MOL0     H13604   7.220   3.331  10.474 -0.6615  0.2803  0.3343
   99MOL0     H13605   7.254   3.544  10.567 -0.0407 -1.2874  0.0932
   99MOL0     H13606   7.398   3.459  10.570  1.0444  2.0337  1.4225
   99MOL0     H13607   7.443   3.701  10.539  0.4417  2.5344 -2.2274
   99MOL0     H13608   7.359   3.707  10.389 -1.8312  0.3755  1.3745
   99MOL0     H13609   7.509   3.536  10.302 -0.0912  0.3413 -0.4568
   99MOL0     H13610   7.574   3.700  10.338 -0.2240  0.3124 -0.2865
   99MOL0     H13611   7.616   3.316  10.385  2.6124 -3.2141  1.6903
   99MOL0     H13612   7.678   3.146  10.550  0.0151  1.7081 -3.3673
   99MOL0     H13613   7.745   3.188  10.705 -1.1080 -1.0777 -0.7277
   99MOL0     H13614   7.909   3.253  10.465  1.7060 -1.9204 -0.2615
   99MOL0     H13615   7.947   3.246  10.636 -3.0434  2.1105  0.3969
   99MOL0     H13616   7.958   3.001  10.627  0.4859 -2.5339 -1.1007
   99MOL0     H13617   7.838   2.989  10.505  1.2262 -2.5534  1.4211
   99MOL0     H13618   8.128   3.068  10.477 -1.6207 -0.5812  1.0261
   99MOL0     H13619   8.063   2.919  10.405  2.2695  0.2174 -2.1118
   99MOL0     H13620   7.976   3.213  10.085  0.3745 -1.4826  0.1129
   99MOL0     H13621   7.741   3.176   9.834 -0.2263 -0.9390  0.2655
   99MOL0     H13622   7.892   3.133   9.763 -2.1631  0.1502 -0.4159
   99MOL0     H13623   7.880   3.265   9.879  1.9820  1.1219 -3.4417
   99MOL0     H13624   7.461   2.941   9.751 -1.8723  0.7239  1.2114
   99MOL0     H13625   7.254   2.851   9.643  0.0149 -0.0321 -1.2051
   99MOL0     H13626   7.101   2.758   9.524 -1.6917  0.4239 -0.5943
   99MOL0     H13627   7.021   2.609   9.514  2.7157 -0.6443 -1.6345
   99MOL0     H13628   7.008   2.685   9.790 -0.0225 -2.2343 -0.5454
   99MOL0     H13629   6.969   2.832   9.697  0.1342 -0.1786 -0.5321
   99MOL0     H13630   6.820   2.655   9.564  0.5349 -1.9109  0.8354
   99MOL0     H13631   6.748   2.722   9.711 -1.2398 -0.7851 -1.0919
   99MOL0     H13632   6.836   2.531   9.837  0.3351  0.4423 -0.6247
   99MOL0     H13633   6.912   2.464   9.692  1.8446  2.7618 -0.6848
   99MOL0     H13634   6.602   2.513   9.702  1.1478  1.5438  1.8400
   99MOL0     H13635   6.711   2.435   9.581  3.2251  0.4073  0.8062
   99MOL0     H13636   6.637   2.357   9.868 -3.0502 -1.7851 -0.2250
   99MOL0     H13637   6.761   2.255   9.773 -1.9969 -0.4945  0.8158
   99MOL0     H13638   6.584   2.197   9.612 -2.0054 -1.8628 -0.5457
   99MOL0     H13639   6.468   2.294   9.705  1.6502  1.6569 -1.0960
   99MOL0     H13640   6.632   2.057   9.789  1.0156  2.5540  0.0794
   99MOL0     H13641   6.457   2.039   9.748 -3.9549  2.7698  1.3043
   99MOL0     H13642   7.394   2.465   9.732 -2.0881  0.5102 -2.3485
   99MOL0     H13643   7.565   2.552   9.873 -2.8729 -2.3049  2.2138
   99MOL0     H13644   7.749   2.781  10.102  0.0627 -0.5248 -0.4454
   99MOL0     H13645   7.901   2.846  10.288  2.1564  0.2489 -0.0057
   99MOL0     H13646   6.947   3.008   9.943  0.0006 -0.7924  3.6913
   99MOL0     H13647   6.798   2.804   9.920  2.7289 -0.7241  2.0262
   99MOL0     H13648   6.502   2.503   9.967  0.0260 -1.6823 -5.5402
   99MOL0     H13649   6.321   2.349   9.976 -2.6760  0.3330  0.9393
   99MOL0     H13650   5.898   2.460   9.867 -0.6848 -2.8186 -0.4768
   99MOL0     H13651   5.906   2.296   9.921 -0.0888  0.1370  2.0612
   99MOL0     H13652   5.831   2.431  10.093  0.1150  0.9734 -1.1941
   99MOL0     H13653   5.958   2.546  10.103 -1.6925 -0.3130  1.6031
   99MOL0     H13654   6.103   2.398  10.205 -1.0078  0.9677  2.3570
   99MOL0     H13655   5.946   2.360  10.277  3.5073 -0.9769  1.4511
   99MOL0     H13656   6.067   2.166  10.237 -0.5903  0.9449  0.9283
   99MOL0     H13657   6.076   2.195  10.059 -0.2411 -3.4413  0.0585
   99MOL0     H13658   5.705   2.032  10.074 -0.8505  1.9581 -0.6083
   99MOL0     H13659   6.027   2.634   9.862  0.3000 -0.7397 -1.3293
   99MOL0     H13660   6.076   2.833   9.790 -0.8335  0.9272 -0.3342
   99MOL0     H13661   6.207   2.922   9.861 -1.4394  1.5265 -1.9927
   99MOL0     H13662   6.229   2.850   9.706 -1.5719  2.8749  0.1221
  100MOL0     O13663   3.982   5.025   5.919 -0.4327  0.4156  0.8212
  100MOL0     C13664   3.937   4.907   5.915 -0.6208 -0.1720  0.1701
  100MOL0     O13665   3.807   4.878   5.934 -0.0105  0.3230 -0.0041
  100MOL0     C13666   3.722   4.985   5.952 -0.4051  0.0169  0.4682
  100MOL0     C13667   3.712   5.090   5.861  0.2666 -0.1376 -0.2112
  100MOL0     C13668   3.614   5.182   5.878  0.7351 -0.1721 -0.1596
  100MOL0     C13669   3.527   5.179   5.975 -0.6456 -0.6961 -0.6621
  100MOL0     O13670   3.441   5.282   5.973 -0.0208 -0.1019  0.7098
  100MOL0     C13671   3.367   5.331   6.082  0.4271 -0.0282  0.6599
  100MOL0     C13672   3.263   5.441   6.056  0.9416 -0.0329  0.0103
  100MOL0     C13673   3.335   5.570   6.024 -0.7527  1.0419  0.6616
  100MOL0     C13674   3.230   5.675   6.011 -0.2166  0.1656 -0.1302
  100MOL0     C13675   3.284   5.814   5.976 -0.3643 -1.1195 -0.9526
  100MOL0     C13676   3.361   5.867   6.105  0.3348 -0.3205 -0.5908
  100MOL0     C13677   3.443   5.997   6.073  0.7757 -0.4885 -0.6630
  100MOL0     C13678   3.593   5.974   6.064  0.2985 -0.1001 -0.3138
  100MOL0     N13679   3.620   5.865   5.972  0.9821  0.1548 -0.1254
  100MOL0     C13680   3.675   5.743   6.002  0.2995 -0.3220  0.2095
  100MOL0     C13681   3.678   5.685   5.885  0.6067  0.3675  0.6136
  100MOL0     C13682   3.718   5.544   5.858  0.1448 -0.0713 -1.1482
  100MOL0     C13683   3.854   5.497   5.882 -0.4073 -0.7376  0.7387
  100MOL0     C13684   3.969   5.566   5.797  0.2312  0.7420 -0.1475
  100MOL0     C13685   4.109   5.525   5.835 -0.8685  0.4650 -0.3917
  100MOL0     O13686   4.109   5.532   5.988  0.2296 -0.0786  0.3551
  100MOL0     C13687   4.227   5.501   6.051 -0.5904 -0.4693  0.1913
  100MOL0     C13688   4.350   5.547   6.003 -0.0371  0.9636 -0.0501
  100MOL0     C13689   4.475   5.528   6.072  0.0967 -0.7512 -0.5278
  100MOL0     C13690   4.583   5.594   5.998 -0.6339 -0.1272  0.4022
  100MOL0     C13691   4.484   5.436   6.178 -0.1356  0.4901 -0.2299
  100MOL0     C13692   4.610   5.420   6.252  0.3015  0.4137 -0.5184
  100MOL0     O13693   4.596   5.314   6.337  0.2343  0.7480 -0.0339
  100MOL0     C13694   4.706   5.267   6.412  1.0583 -0.5205 -0.5105
  100MOL0     C13695   4.662   5.217   6.542 -0.1945  0.0505  0.0354
  100MOL0     C13696   4.760   5.174   6.637  0.1450  0.3540  0.0147
  100MOL0     C13697   4.891   5.146   6.600 -0.2560 -1.1863 -0.4088
  100MOL0     O13698   4.980   5.082   6.677  0.6539  0.5224  0.3421
  100MOL0     C13699   5.011   5.145   6.798  0.1320 -0.4587  0.2318
  100MOL0     C13700   5.154   5.097   6.837  0.4165  0.1815 -0.2504
  100MOL0     C13701   5.171   5.114   6.985  0.9621  0.2721 -0.3149
  100MOL0     C13702   5.310   5.063   7.018 -0.4749 -0.3045 -0.6897
  100MOL0     C13703   5.388   5.178   7.073  0.0804 -1.2346  0.2902
  100MOL0     C13704   5.419   5.296   6.975 -0.6078 -1.0969  0.0757
  100MOL0     C13705   5.553   5.369   7.013  0.0329 -0.9247 -0.2728
  100MOL0     C13706   5.605   5.446   6.891  0.7241  0.1962  0.8570
  100MOL0    Cl13707   5.512   5.604   6.875  0.5237  0.0859  0.4438
  100MOL0     C13708   4.924   5.188   6.468  0.0682 -0.7444 -0.5217
  100MOL0     C13709   4.842   5.259   6.382  0.2457 -0.4600 -0.4317
  100MOL0     O13710   4.707   5.490   6.239 -0.4172 -0.0318 -0.9778
  100MOL0     C13711   4.363   5.373   6.215 -0.5095 -0.6579  0.6590
  100MOL0     C13712   4.236   5.416   6.164  0.4558 -0.5795  1.0102
  100MOL0     N13713   3.616   5.761   5.785 -0.7025 -0.5649 -0.0763
  100MOL0     N13714   3.589   5.875   5.835 -0.5893 -0.1344  0.4463
  100MOL0     C13715   3.537   5.082   6.072 -0.4067  0.7596 -0.5053
  100MOL0     C13716   3.637   4.979   6.058 -0.6877 -0.2597 -0.3408
  100MOL0     C13717   4.036   4.796   5.894 -0.2354 -0.9408  0.0476
  100MOL0     C13718   3.991   4.670   5.896 -1.3505 -1.1490 -0.4787
  100MOL0     C13719   4.062   4.562   5.852  0.0032  0.1370  0.3992
  100MOL0     C13720   4.195   4.570   5.815  0.7355 -0.3310 -0.3573
  100MOL0     O13721   4.261   4.465   5.760  0.2321 -1.2530 -0.1628
  100MOL0     C13722   4.386   4.495   5.695 -0.4311  0.4628 -0.9467
  100MOL0     C13723   4.444   4.377   5.631  0.4473 -0.6174 -0.0112
  100MOL0     C13724   4.454   4.265   5.735 -0.3983  0.7008  0.1723
  100MOL0     C13725   4.464   4.125   5.680 -0.4519  1.0605  0.2403
  100MOL0     C13726   4.352   4.096   5.590 -0.7965  0.5115 -0.3682
  100MOL0     C13727   4.251   4.060   5.544  0.1947  0.1068 -0.1684
  100MOL0     C13728   4.245   4.704   5.821 -0.1192  0.2845 -0.4149
  100MOL0     C13729   4.173   4.816   5.872  0.6581  1.2639  0.5742
  100MOL0     C13730   4.249   4.941   5.899 -0.2750 -0.1530  0.1497
  100MOL0     H13731   3.762   5.085   5.764  0.9677 -0.4595  0.1635
  100MOL0     H13732   3.593   5.258   5.803  0.2340  0.9183  1.0562
  100MOL0     H13733   3.437   5.356   6.162  2.0667  0.4600 -0.8607
  100MOL0     H13734   3.316   5.244   6.125 -2.0087  0.0433 -1.7704
  100MOL0     H13735   3.206   5.412   5.968  0.1444  0.7014  0.2688
  100MOL0     H13736   3.199   5.457   6.144  3.2516  1.8500  1.4906
  100MOL0     H13737   3.412   5.595   6.098  1.1612  0.7229 -1.0918
  100MOL0     H13738   3.382   5.554   5.926  0.4236 -0.6138  1.4383
  100MOL0     H13739   3.161   5.653   5.929 -0.0209 -3.7603  0.5465
  100MOL0     H13740   3.170   5.668   6.102 -2.4918 -1.5129 -1.6359
  100MOL0     H13741   3.199   5.879   5.958  2.2600  2.2337 -2.2769
  100MOL0     H13742   3.342   5.805   5.884 -3.4264 -4.0852 -2.8315
  100MOL0     H13743   3.286   5.886   6.183 -0.9451 -0.2190 -1.8062
  100MOL0     H13744   3.432   5.795   6.149 -0.4680 -1.5358 -1.2335
  100MOL0     H13745   3.401   6.078   6.134 -2.3407  1.5847 -5.0147
  100MOL0     H13746   3.408   6.043   5.980  2.6294  5.8747  1.2778
  100MOL0     H13747   3.643   6.064   6.027  1.5697  0.5646  2.7777
  100MOL0     H13748   3.637   5.951   6.161  1.7096  0.1587 -0.8744
  100MOL0     H13749   3.701   5.685   6.090  4.1896 -2.8875 -2.3118
  100MOL0     H13750   3.695   5.516   5.755 -1.3569  1.6656 -1.3188
  100MOL0     H13751   3.653   5.496   5.932  0.2008 -1.2435 -1.8269
  100MOL0     H13752   3.875   5.518   5.987  1.6702  2.8008 -0.2560
  100MOL0     H13753   3.878   5.390   5.882  1.4590 -0.4010 -1.6124
  100MOL0     H13754   3.954   5.535   5.693 -0.0474  0.8634 -0.1454
  100MOL0     H13755   3.963   5.675   5.804 -0.2628  0.6634  0.7597
  100MOL0     H13756   4.127   5.418   5.819  0.1722  0.5520  0.0824
  100MOL0     H13757   4.185   5.575   5.774  1.5715  0.2155  2.2059
  100MOL0     H13758   4.346   5.622   5.925 -1.4281  1.2341  0.2593
  100MOL0     H13759   4.657   5.520   5.965 -0.6194  0.0857 -0.0518
  100MOL0     H13760   4.622   5.667   6.070  0.6288 -1.1102  0.7675
  100MOL0     H13761   4.547   5.647   5.910  1.9028  0.3767 -0.4092
  100MOL0     H13762   4.563   5.231   6.583  1.5532  2.6140  4.0638
  100MOL0     H13763   4.740   5.128   6.733  1.2753  0.5153  0.3364
  100MOL0     H13764   5.005   5.254   6.803 -0.5767 -0.5063  0.4717
  100MOL0     H13765   4.953   5.103   6.880  0.6692 -0.5847  0.5474
  100MOL0     H13766   5.164   4.990   6.816 -2.3113  0.0882 -1.4141
  100MOL0     H13767   5.222   5.162   6.780  2.5229 -1.3235  0.3917
  100MOL0     H13768   5.096   5.066   7.048  0.8042  4.1768  2.8971
  100MOL0     H13769   5.156   5.221   7.002 -0.8133 -0.4649  4.1363
  100MOL0     H13770   5.367   5.022   6.934 -1.0172  1.0877 -1.7627
  100MOL0     H13771   5.287   4.994   7.101 -1.0699  1.0486  0.2989
  100MOL0     H13772   5.333   5.228   7.154 -0.7063 -2.4888  0.5625
  100MOL0     H13773   5.477   5.140   7.123 -0.2506 -0.9395  1.1208
  100MOL0     H13774   5.345   5.376   6.980  2.3715  1.8319  0.4890
  100MOL0     H13775   5.407   5.259   6.873 -2.4451  0.0402 -0.1615
  100MOL0     H13776   5.630   5.293   7.030  1.1876  0.2120 -0.2849
  100MOL0     H13777   5.544   5.429   7.104  2.4308 -0.9466  0.0334
  100MOL0     H13778   5.599   5.390   6.797 -2.4132  2.4628 -0.4571
  100MOL0     H13779   5.707   5.477   6.917  0.5451  1.2714  0.3159
  100MOL0     H13780   5.022   5.167   6.428 -0.0962 -2.6267 -0.0411
  100MOL0     H13781   4.885   5.301   6.292  3.7793  0.9374  1.6995
  100MOL0     H13782   4.371   5.298   6.293 -0.2826 -0.8990  0.4087
  100MOL0     H13783   4.159   5.367   6.222  0.4196 -0.6858  0.8719
  100MOL0     H13784   3.481   5.074   6.165 -0.8999  0.9261 -0.7917
  100MOL0     H13785   3.649   4.899   6.130  2.3655  0.2723 -0.1414
  100MOL0     H13786   3.893   4.658   5.941 -1.3617 -0.7304 -0.3886
  100MOL0     H13787   4.028   4.459   5.852  4.9542 -1.7820 -0.3962
  100MOL0     H13788   4.365   4.573   5.621 -1.1085  1.9102  0.7266
  100MOL0     H13789   4.455   4.535   5.769 -0.6230 -1.2839  0.2328
  100MOL0     H13790   4.546   4.396   5.596 -0.0877  1.5461 -0.5122
  100MOL0     H13791   4.392   4.354   5.538 -1.2244 -0.4445  0.8556
  100MOL0     H13792   4.536   4.283   5.804 -0.3497 -2.5992  1.1365
  100MOL0     H13793   4.367   4.260   5.801  0.0867  2.3713  1.0082
  100MOL0     H13794   4.483   4.052   5.759  0.5233 -0.8114 -1.5983
  100MOL0     H13795   4.561   4.124   5.629  2.0880 -0.4784  4.5916
  100MOL0     H13796   4.163   4.024   5.494 -0.2352 -0.1875  0.7872
  100MOL0     H13797   4.347   4.734   5.795 -0.1244  1.1610  0.5043
  100MOL0     H13798   4.356   4.918   5.901 -0.3234 -1.0168 -2.6495
  100MOL0     H13799   4.258   5.007   5.812  4.1937 -0.3307  0.2495
  100MOL0     H13800   4.225   5.007   5.983 -1.3623  1.8789 -1.6611
  101MOL0     O13801   8.228   9.811   7.988  0.3578 -0.0426 -1.0972
  101MOL0     C13802   8.232   9.691   7.968 -0.0259  0.7205 -0.4573
  101MOL0     O13803   8.341   9.619   7.940 -0.0902  0.1563  0.0652
  101MOL0     C13804   8.454   9.681   7.895  0.4161 -0.1674 -0.1521
  101MOL0     C13805   8.543   9.735   7.986 -0.2116 -0.4831 -0.6091
  101MOL0     C13806   8.649   9.821   7.956  0.7994  0.6283  0.0823
  101MOL0     C13807   8.656   9.849   7.815 -0.1003  0.0809  0.2791
  101MOL0     O13808   8.756   9.920   7.757 -0.8019  0.8167  0.4909
  101MOL0     C13809   8.890   9.921   7.810  0.0514 -1.1224 -0.0500
  101MOL0     C13810   8.978  10.011   7.737 -0.2267 -0.6612 -0.6759
  101MOL0     C13811   8.925  10.158   7.733 -0.2757 -0.1870  1.0455
  101MOL0     C13812   9.049  10.246   7.696 -0.9117 -0.1464 -0.3754
  101MOL0     C13813   9.018  10.391   7.680  0.3972 -0.1940  0.8088
  101MOL0     C13814   9.129  10.485   7.701  0.5771 -1.1098  0.0183
  101MOL0     C13815   9.254  10.453   7.618 -0.4187 -0.5703  0.4264
  101MOL0     C13816   9.247  10.483   7.463 -1.0182  0.6129 -0.7451
  101MOL0     N13817   9.237  10.624   7.439 -0.0970 -0.2193 -0.2183
  101MOL0     C13818   9.122  10.693   7.419  0.6051  0.3045  0.6664
  101MOL0     C13819   9.165  10.822   7.430 -0.8553 -0.0102  0.6419
  101MOL0     C13820   9.095  10.949   7.442 -0.6092  0.0340  0.5677
  101MOL0     C13821   9.118  11.028   7.583  0.2027 -0.1511  0.6881
  101MOL0     C13822   9.028  10.970   7.685 -0.4064 -0.0646 -0.6992
  101MOL0     C13823   9.052  11.061   7.815 -0.4779  0.3381 -0.5648
  101MOL0     O13824   9.188  11.056   7.864  0.6025 -0.1692 -0.5489
  101MOL0     C13825   9.210  10.942   7.932 -0.8061  0.6544  1.0482
  101MOL0     C13826   9.149  10.923   8.061  0.1432 -1.2736  0.5898
  101MOL0     C13827   9.171  10.805   8.132 -0.6779  0.0614 -0.1563
  101MOL0     C13828   9.110  10.799   8.278  0.5277  0.5999  1.1007
  101MOL0     C13829   9.235  10.695   8.069  0.0582 -0.0740 -0.4543
  101MOL0     C13830   9.262  10.566   8.140 -0.5662  0.3523 -0.1673
  101MOL0     O13831   9.326  10.471   8.061  0.6106 -0.4219 -0.2522
  101MOL0     C13832   9.298  10.344   8.088  0.3635 -0.2924 -0.9126
  101MOL0     C13833   9.386  10.259   8.155 -0.5225 -0.2695  0.6791
  101MOL0     C13834   9.353  10.123   8.181  0.8632 -0.1699  0.8172
  101MOL0     C13835   9.225  10.073   8.165  0.6265 -0.4365  0.2299
  101MOL0     O13836   9.200   9.946   8.215  0.0063 -0.2264  0.1053
  101MOL0     C13837   9.076   9.879   8.207  1.3227 -0.1576  0.0440
  101MOL0     C13838   9.095   9.748   8.287  0.7662 -0.3269 -0.0447
  101MOL0     C13839   8.972   9.646   8.286 -0.0227  0.0436  0.9673
  101MOL0     C13840   8.949   9.601   8.138  0.6439 -0.2914  0.1706
  101MOL0     C13841   8.824   9.520   8.117  0.0372  1.0341 -0.2046
  101MOL0     C13842   8.849   9.376   8.186  0.1988  0.1281  0.0313
  101MOL0     C13843   8.728   9.315   8.249  0.5681 -0.2798  0.3409
  101MOL0     C13844   8.634   9.271   8.135  0.3793  0.1674 -1.1300
  101MOL0    Cl13845   8.531   9.409   8.080  0.3841 -0.1759  0.2695
  101MOL0     C13846   9.137  10.151   8.091 -0.2454 -0.2300 -0.4455
  101MOL0     C13847   9.177  10.286   8.050  0.3961  0.0185  0.3149
  101MOL0     O13848   9.240  10.548   8.259  0.7970 -0.9663 -0.2949
  101MOL0     C13849   9.287  10.712   7.938 -0.6469 -0.1932 -0.9134
  101MOL0     C13850   9.281  10.832   7.875 -0.5152 -0.7080  0.1203
  101MOL0     N13851   9.307  10.822   7.439 -0.7584 -0.0583 -0.5566
  101MOL0     N13852   9.353  10.703   7.444  0.3811 -0.4695  0.9730
  101MOL0     C13853   8.568   9.796   7.728  0.2157  0.0751  0.2475
  101MOL0     C13854   8.466   9.712   7.762 -0.1454 -0.6345  0.1964
  101MOL0     C13855   8.103   9.625   7.959  0.0928 -0.0056  0.6532
  101MOL0     C13856   8.022   9.631   8.077  0.2567 -1.0528  0.4477
  101MOL0     C13857   7.901   9.575   8.084 -0.6238 -0.4875  0.9288
  101MOL0     C13858   7.846   9.507   7.972  0.1404  0.1388 -0.1245
  101MOL0     O13859   7.714   9.463   7.987 -1.6440  0.6735 -0.2226
  101MOL0     C13860   7.656   9.354   7.907  0.7217 -0.9321 -1.0554
  101MOL0     C13861   7.626   9.232   8.007 -0.3974  0.2137  0.3309
  101MOL0     C13862   7.611   9.110   7.920  0.0134  1.0687 -0.6253
  101MOL0     C13863   7.497   9.020   7.973  0.1443 -0.6099 -0.2577
  101MOL0     C13864   7.369   9.080   7.961  0.3627  0.4797  0.5692
  101MOL0     C13865   7.255   9.118   7.943 -0.4218  0.8750 -0.1139
  101MOL0     C13866   7.917   9.505   7.854  0.3060  0.2850  0.6601
  101MOL0     C13867   8.048   9.557   7.844  0.1826 -0.8521  0.3197
  101MOL0     C13868   8.114   9.548   7.707  0.1912  0.0538  0.2411
  101MOL0     H13869   8.533   9.712   8.092  0.5151  0.4149 -0.3416
  101MOL0     H13870   8.707   9.837   8.046 -1.0438 -2.0810  1.8753
  101MOL0     H13871   8.940   9.823   7.809 -0.7724 -1.5449 -0.1526
  101MOL0     H13872   8.890   9.961   7.912 -1.8819 -1.4565  0.1083
  101MOL0     H13873   9.074  10.010   7.790 -0.3996 -1.2342 -0.3631
  101MOL0     H13874   8.987   9.968   7.637  1.3802  0.1122 -0.8914
  101MOL0     H13875   8.838  10.160   7.667  1.4354 -3.2440 -1.5339
  101MOL0     H13876   8.891  10.193   7.832 -3.3652 -0.1009  0.0823
  101MOL0     H13877   9.127  10.234   7.772  1.5734  1.2750 -2.5330
  101MOL0     H13878   9.085  10.204   7.601 -0.8474 -0.8084 -0.0674
  101MOL0     H13879   8.933  10.419   7.743 -2.1900  1.9263 -3.1428
  101MOL0     H13880   8.986  10.421   7.579 -0.0456  0.4324  1.1293
  101MOL0     H13881   9.105  10.583   7.661 -0.5550 -1.8261 -1.1048
  101MOL0     H13882   9.148  10.504   7.807 -0.8839  2.0095 -0.1779
  101MOL0     H13883   9.277  10.346   7.627 -1.7008 -0.7256  2.6999
  101MOL0     H13884   9.331  10.512   7.667 -1.4683  0.9446  0.3243
  101MOL0     H13885   9.327  10.440   7.401  0.1481  1.0794  0.3905
  101MOL0     H13886   9.162  10.433   7.415  0.6392 -0.6311 -2.5767
  101MOL0     H13887   9.020  10.659   7.401  1.2517 -0.8009 -1.2324
  101MOL0     H13888   8.989  10.927   7.426 -0.5379 -0.2370  0.4560
  101MOL0     H13889   9.123  11.019   7.363 -0.6386  2.9839  3.0018
  101MOL0     H13890   9.223  11.008   7.606  0.9307  2.5098 -0.0251
  101MOL0     H13891   9.095  11.134   7.571 -2.9529 -0.9193 -1.2077
  101MOL0     H13892   8.928  10.968   7.640  0.4332  0.5299 -2.7032
  101MOL0     H13893   9.049  10.865   7.707 -4.7187 -0.5980  2.0378
  101MOL0     H13894   9.025  11.167   7.808 -0.3698  0.9147  4.3395
  101MOL0     H13895   8.982  11.020   7.888 -0.8780  1.5497 -0.2470
  101MOL0     H13896   9.089  11.007   8.096  1.7387  0.5993 -0.9695
  101MOL0     H13897   9.080  10.899   8.309 -0.2044  1.7947 -2.8394
  101MOL0     H13898   9.186  10.761   8.347  0.5863  0.2429  0.8446
  101MOL0     H13899   9.023  10.733   8.289 -0.8679  2.3309  1.0057
  101MOL0     H13900   9.478  10.305   8.188  0.6955 -2.5026  0.5996
  101MOL0     H13901   9.436  10.063   8.217  1.0544 -3.1550 -3.7886
  101MOL0     H13902   8.998   9.938   8.257  2.5198  0.4416  1.2789
  101MOL0     H13903   9.056   9.877   8.100  2.9990  1.7334 -0.3671
  101MOL0     H13904   9.187   9.707   8.242 -0.4275  1.2244 -4.4511
  101MOL0     H13905   9.119   9.775   8.390 -1.5905 -0.6477  0.6438
  101MOL0     H13906   8.885   9.695   8.331 -0.6822  0.1665 -0.3878
  101MOL0     H13907   9.001   9.556   8.342  0.1221 -0.4318  0.1424
  101MOL0     H13908   9.033   9.539   8.108 -0.0674  0.3689 -3.6129
  101MOL0     H13909   8.952   9.689   8.074  1.7520  0.3157  1.0198
  101MOL0     H13910   8.737   9.567   8.164  1.6661  1.6589  2.3865
  101MOL0     H13911   8.800   9.509   8.011 -0.5794 -1.8848  0.1743
  101MOL0     H13912   8.914   9.390   8.274 -0.5044 -1.9790  0.9647
  101MOL0     H13913   8.906   9.308   8.122  0.2788  0.6422 -0.4469
  101MOL0     H13914   8.688   9.397   8.309  0.2982  0.1430 -0.4112
  101MOL0     H13915   8.745   9.230   8.317 -2.9929 -2.7663 -1.5432
  101MOL0     H13916   8.569   9.194   8.176  0.4496  1.5963  1.9065
  101MOL0     H13917   8.686   9.230   8.048  4.0620  3.4444 -0.7747
  101MOL0     H13918   9.038  10.108   8.085 -0.9114  1.4246 -3.6278
  101MOL0     H13919   9.107  10.345   7.992  0.9871  1.4775  1.0500
  101MOL0     H13920   9.346  10.645   7.875  2.7389  1.7215 -0.0437
  101MOL0     H13921   9.334  10.834   7.780 -0.3061 -2.9463  0.1448
  101MOL0     H13922   8.601   9.822   7.627  2.0761 -3.4275 -0.1928
  101MOL0     H13923   8.385   9.697   7.692 -1.5516  0.0500  1.6139
  101MOL0     H13924   8.056   9.681   8.168 -0.9822 -1.1344  0.9682
  101MOL0     H13925   7.853   9.565   8.181  5.5822 -1.5128  4.4210
  101MOL0     H13926   7.571   9.411   7.869  1.1220  0.3108 -0.1526
  101MOL0     H13927   7.724   9.319   7.829  1.4887  1.0664 -1.3210
  101MOL0     H13928   7.535   9.255   8.064 -0.6819  0.9796 -0.4044
  101MOL0     H13929   7.708   9.212   8.077  3.0742  1.4396 -3.0337
  101MOL0     H13930   7.600   9.137   7.814 -1.0350  2.3634 -0.2250
  101MOL0     H13931   7.700   9.047   7.929 -2.0728 -1.8797  1.3072
  101MOL0     H13932   7.500   8.997   8.080 -3.7958  2.8965  0.8711
  101MOL0     H13933   7.488   8.930   7.911 -0.4764 -1.1489  0.5966
  101MOL0     H13934   7.161   9.145   7.900 -1.0224 -0.7305  0.1095
  101MOL0     H13935   7.884   9.455   7.764  1.8291 -0.1206  0.3095
  101MOL0     H13936   8.078   9.614   7.628 -0.5647 -0.5438  0.0670
  101MOL0     H13937   8.223   9.545   7.721 -0.2254 -1.1739  5.4337
  101MOL0     H13938   8.084   9.453   7.661 -3.2433  2.1707 -2.2776
  102MOL0     O13939   4.019   5.513   3.010  0.3384  0.6137  0.6337
  102MOL0     C13940   4.121   5.572   3.037 -0.3501  0.5801  0.6812
  102MOL0     O13941   4.211   5.550   3.141  0.2292  0.3458 -0.1363
  102MOL0     C13942   4.174   5.468   3.239  0.6638  0.6659 -0.6665
  102MOL0     C13943   4.041   5.434   3.281  0.3096  1.7991 -0.2165
  102MOL0     C13944   4.030   5.339   3.384 -0.1406  0.4599  0.5698
  102MOL0     C13945   4.136   5.271   3.452 -0.2981  0.0968 -0.7139
  102MOL0     O13946   4.116   5.189   3.562 -0.2355  0.2161 -0.2525
  102MOL0     C13947   3.991   5.198   3.630 -0.7031 -0.1002 -0.4692
  102MOL0     C13948   3.993   5.121   3.766 -0.4544 -0.2677  0.7101
  102MOL0     C13949   3.985   4.967   3.770 -0.9424  0.9169 -0.9010
  102MOL0     C13950   3.872   4.909   3.679  0.1833 -0.3940 -0.5028
  102MOL0     C13951   3.741   4.941   3.733 -0.0922 -0.6294  0.1896
  102MOL0     C13952   3.636   4.942   3.619  0.4537 -0.2949 -0.0441
  102MOL0     C13953   3.497   4.914   3.655  0.0212  0.2790 -0.3664
  102MOL0     C13954   3.397   4.932   3.538 -0.5106  0.1155  0.1330
  102MOL0     N13955   3.260   4.922   3.594 -0.3475 -0.2640  0.0975
  102MOL0     C13956   3.199   5.016   3.675 -0.6033  1.0407 -0.2894
  102MOL0     C13957   3.081   4.958   3.713  0.5113 -0.1391  0.8800
  102MOL0     C13958   2.992   5.010   3.822  0.8766  0.5965 -0.7328
  102MOL0     C13959   3.070   5.027   3.947  0.1344  0.1514 -0.6378
  102MOL0     C13960   3.120   4.901   4.014  0.4092 -0.1506  0.1940
  102MOL0     C13961   3.004   4.851   4.102  0.2650 -0.6533 -0.6233
  102MOL0     O13962   3.036   4.725   4.161 -0.1534 -0.2316 -0.9998
  102MOL0     C13963   3.008   4.618   4.090  0.3431 -0.4401 -0.4784
  102MOL0     C13964   2.981   4.622   3.952  1.1292  0.9512 -0.8212
  102MOL0     C13965   2.955   4.498   3.885 -1.0283  0.1591 -0.5913
  102MOL0     C13966   2.899   4.511   3.738  0.3493  1.1985  0.0504
  102MOL0     C13967   2.977   4.377   3.954  0.1879 -1.0745 -0.0017
  102MOL0     C13968   2.938   4.233   3.900 -0.1501 -0.1530  0.5970
  102MOL0     O13969   2.981   4.125   3.972  0.0621 -0.1385 -0.3670
  102MOL0     C13970   3.005   4.006   3.908 -0.1759  0.0357 -0.3522
  102MOL0     C13971   3.037   3.897   3.992 -0.6043 -0.1714 -0.0270
  102MOL0     C13972   3.064   3.775   3.944 -1.0849  0.0061 -0.2500
  102MOL0     C13973   3.072   3.751   3.807 -0.7580 -1.6404 -0.1359
  102MOL0     O13974   3.108   3.629   3.749 -0.1510 -0.3294 -0.5473
  102MOL0     C13975   3.015   3.524   3.756 -0.5622  0.1002  0.4177
  102MOL0     C13976   2.927   3.525   3.631  1.0438 -0.6094 -0.4660
  102MOL0     C13977   3.010   3.487   3.505  0.3642 -0.4149  1.0602
  102MOL0     C13978   2.912   3.473   3.380 -0.1048 -0.8913  0.0745
  102MOL0     C13979   2.959   3.387   3.263 -0.3994 -0.4584 -0.7498
  102MOL0     C13980   2.971   3.243   3.304  0.4850  0.2168 -1.9587
  102MOL0     C13981   2.950   3.158   3.182  0.0939  0.4272  0.8311
  102MOL0     C13982   2.808   3.181   3.120  0.8511 -0.3261  0.5391
  102MOL0    Cl13983   2.669   3.192   3.232  0.3589  0.5538 -0.4338
  102MOL0     C13984   3.047   3.848   3.721  0.6666 -0.0057 -0.8393
  102MOL0     C13985   3.015   3.974   3.771  0.2442 -1.1933 -0.2257
  102MOL0     O13986   2.880   4.225   3.796  0.3516 -0.6870  0.8182
  102MOL0     C13987   3.007   4.382   4.088 -0.0146  0.5919 -0.3004
  102MOL0     C13988   3.029   4.501   4.156  0.1192  0.5423  0.2579
  102MOL0     N13989   3.072   4.837   3.651 -0.0563  0.3735 -0.2234
  102MOL0     N13990   3.173   4.824   3.572 -0.0451 -0.4057  0.5399
  102MOL0     C13991   4.260   5.314   3.424 -0.2404 -0.2185 -0.6691
  102MOL0     C13992   4.279   5.405   3.315  1.1134  0.1084 -0.0832
  102MOL0     C13993   4.190   5.634   2.920 -0.8669  0.3915 -1.2828
  102MOL0     C13994   4.335   5.626   2.922  0.5242  0.0430 -0.1727
  102MOL0     C13995   4.412   5.664   2.812  0.8505 -0.5440  0.2461
  102MOL0     C13996   4.348   5.724   2.703 -0.7647 -0.2615 -0.4360
  102MOL0     O13997   4.425   5.761   2.594  0.6134  0.2795 -0.3266
  102MOL0     C13998   4.524   5.858   2.618 -0.9144 -0.6792  0.3435
  102MOL0     C13999   4.475   5.996   2.664  0.2989  0.0679  0.6338
  102MOL0     C14000   4.366   6.066   2.582 -0.8678  0.5491  0.0668
  102MOL0     C14001   4.322   6.201   2.636 -0.4662 -0.3069  0.7032
  102MOL0     C14002   4.311   6.210   2.785  0.1362  0.9294  0.3707
  102MOL0     C14003   4.310   6.230   2.902 -0.3827 -0.5209  0.5488
  102MOL0     C14004   4.210   5.751   2.706  0.5307 -0.1950  0.5668
  102MOL0     C14005   4.129   5.698   2.807  1.7569  0.4281 -0.6871
  102MOL0     C14006   3.985   5.727   2.806  0.6184 -0.0043 -0.4642
  102MOL0     H14007   3.953   5.482   3.238 -0.6370 -2.0465 -3.1350
  102MOL0     H14008   3.931   5.303   3.408  0.1216 -1.6461 -1.2175
  102MOL0     H14009   3.902   5.171   3.573  2.0427 -1.6730 -4.4377
  102MOL0     H14010   3.974   5.297   3.672  0.4658 -0.6292  1.4075
  102MOL0     H14011   4.086   5.141   3.820 -0.4664 -2.6357  1.7319
  102MOL0     H14012   3.921   5.178   3.826 -0.3375  0.0716  0.5314
  102MOL0     H14013   4.071   4.929   3.715 -2.5173 -2.6501 -1.1774
  102MOL0     H14014   3.983   4.921   3.869  0.7422  0.8380 -0.8644
  102MOL0     H14015   3.878   4.926   3.571  1.9610  1.1880 -0.1958
  102MOL0     H14016   3.861   4.802   3.696 -3.2462  0.0320  0.9022
  102MOL0     H14017   3.731   5.042   3.774 -1.7738 -0.6370 -0.1394
  102MOL0     H14018   3.723   4.881   3.822  0.0963 -0.0959  0.5920
  102MOL0     H14019   3.653   5.027   3.552  1.1958 -0.7638 -0.4785
  102MOL0     H14020   3.653   4.857   3.552 -0.1153  0.9760 -1.8949
  102MOL0     H14021   3.467   4.984   3.734  1.3328  1.7197 -1.0904
  102MOL0     H14022   3.497   4.815   3.702  2.1897 -0.3960 -1.6551
  102MOL0     H14023   3.410   5.029   3.488  1.3525 -1.4432 -2.7035
  102MOL0     H14024   3.418   4.860   3.459  0.2378 -0.1704  0.5745
  102MOL0     H14025   3.235   5.102   3.731 -1.3460  2.0240 -1.2703
  102MOL0     H14026   2.919   4.931   3.841  0.3998  1.5032  1.4817
  102MOL0     H14027   2.947   5.108   3.804  0.9345  0.6490 -0.5896
  102MOL0     H14028   3.158   5.090   3.933 -0.8823  2.2780  1.7932
  102MOL0     H14029   2.999   5.081   4.010 -0.2734 -1.6232  0.4980
  102MOL0     H14030   3.147   4.820   3.945 -2.1701 -3.6705  2.9707
  102MOL0     H14031   3.201   4.922   4.084  2.0633 -1.5013 -1.2097
  102MOL0     H14032   2.993   4.929   4.177  1.4045  0.3257 -1.4477
  102MOL0     H14033   2.905   4.849   4.054  0.3137  1.4461 -0.8850
  102MOL0     H14034   2.952   4.714   3.903 -1.9102 -0.0200 -1.1145
  102MOL0     H14035   2.975   4.459   3.679  0.5132  1.9559 -0.4160
  102MOL0     H14036   2.907   4.607   3.687  1.8115  1.4391  0.6705
  102MOL0     H14037   2.800   4.466   3.725  0.5198  0.0172  2.2262
  102MOL0     H14038   3.027   3.910   4.099 -1.1881  1.7067 -0.2705
  102MOL0     H14039   3.085   3.698   4.018  0.9830  1.1083  0.3900
  102MOL0     H14040   3.059   3.424   3.763  1.3660  0.7333 -1.4861
  102MOL0     H14041   2.955   3.523   3.848  0.8545 -0.0021  1.3736
  102MOL0     H14042   2.856   3.447   3.659  0.9250  0.2355  1.7877
  102MOL0     H14043   2.864   3.612   3.611  0.8062 -0.5984  0.3108
  102MOL0     H14044   3.058   3.390   3.521  1.7146 -0.1659 -1.0920
  102MOL0     H14045   3.083   3.562   3.473 -1.8368  1.1275 -0.7003
  102MOL0     H14046   2.885   3.573   3.344  2.5229  0.1273  0.6336
  102MOL0     H14047   2.819   3.431   3.418  0.9599 -2.2071  1.3245
  102MOL0     H14048   2.878   3.407   3.193 -0.1817 -1.3151 -1.2566
  102MOL0     H14049   3.054   3.421   3.220 -0.6650  1.0696 -0.1920
  102MOL0     H14050   2.901   3.229   3.386  1.5185  0.5002 -1.0024
  102MOL0     H14051   3.072   3.237   3.346  0.3912 -0.1688 -1.7852
  102MOL0     H14052   2.962   3.053   3.211  0.3088  0.9835  2.9157
  102MOL0     H14053   3.026   3.185   3.109 -0.5077 -0.9424 -0.3428
  102MOL0     H14054   2.790   3.094   3.057 -3.9851  0.6698  0.1650
  102MOL0     H14055   2.812   3.272   3.059 -0.6590  1.2476  2.6146
  102MOL0     H14056   3.038   3.837   3.614 -2.5806 -0.5399 -0.5972
  102MOL0     H14057   3.007   4.066   3.714 -3.6365 -0.8607  0.6153
  102MOL0     H14058   3.019   4.289   4.143  3.3766 -1.0746 -3.3832
  102MOL0     H14059   3.063   4.500   4.259  3.0608 -0.8706 -0.6246
  102MOL0     H14060   4.346   5.269   3.474  1.1221  0.5351 -2.2241
  102MOL0     H14061   4.376   5.440   3.280  0.4878  0.0689 -1.9989
  102MOL0     H14062   4.382   5.578   3.007  2.7816  0.5118 -1.0795
  102MOL0     H14063   4.520   5.665   2.817  0.7963 -0.0304  1.4520
  102MOL0     H14064   4.592   5.829   2.699 -0.0796  1.5504  0.5114
  102MOL0     H14065   4.581   5.870   2.526 -0.1127 -5.0821  0.0235
  102MOL0     H14066   4.560   6.064   2.676  0.2802 -0.0692  1.6691
  102MOL0     H14067   4.434   5.972   2.763  1.2923 -0.2685  0.9801
  102MOL0     H14068   4.407   6.063   2.480 -1.3159 -4.1234 -0.1778
  102MOL0     H14069   4.279   5.999   2.579 -0.9538  0.5683  1.6118
  102MOL0     H14070   4.229   6.220   2.582  0.5646 -1.0084 -1.4076
  102MOL0     H14071   4.408   6.264   2.611  0.0936 -1.9299 -1.8080
  102MOL0     H14072   4.307   6.234   3.009  1.9342  0.3263  0.6332
  102MOL0     H14073   4.169   5.800   2.619  2.2517  2.8378  1.2983
  102MOL0     H14074   3.919   5.644   2.836 -1.3587  1.4822 -0.5046
  102MOL0     H14075   3.947   5.797   2.881 -0.5197  0.8580 -1.7921
  102MOL0     H14076   3.945   5.742   2.706 -3.5200 -2.8060  0.4910
  103MOL0     O14077   0.262   1.441   9.192  0.1968  0.6847 -0.4783
  103MOL0     C14078   0.222   1.332   9.214 -0.1037  0.2957 -0.7391
  103MOL0     O14079   0.273   1.215   9.167 -0.0249  0.4273  0.1471
  103MOL0     C14080   0.390   1.226   9.097  0.5097 -0.1467  0.3587
  103MOL0     C14081   0.508   1.217   9.167  0.2197 -0.3410 -1.0733
  103MOL0     C14082   0.624   1.222   9.101  0.2689 -0.5441  0.4649
  103MOL0     C14083   0.628   1.240   8.959  0.5773  0.0344  0.2196
  103MOL0     O14084   0.743   1.243   8.883  0.4914 -1.2216  0.1112
  103MOL0     C14085   0.840   1.142   8.925 -0.6203  0.4478 -0.4189
  103MOL0     C14086   0.935   1.069   8.827  0.2782  0.3168 -0.9354
  103MOL0     C14087   1.024   1.165   8.738  0.8773 -0.5436 -0.0718
  103MOL0     C14088   1.119   1.100   8.623 -0.2303 -0.2932 -0.4047
  103MOL0     C14089   1.239   1.025   8.689  0.6707 -1.4715  0.0402
  103MOL0     C14090   1.361   1.001   8.611 -0.6140  0.2125  1.3041
  103MOL0     C14091   1.337   0.917   8.476  0.2129 -0.5680 -0.5732
  103MOL0     C14092   1.386   0.771   8.494 -0.8893 -0.3457  0.0943
  103MOL0     N14093   1.288   0.689   8.570  0.0052 -0.3159 -0.0509
  103MOL0     C14094   1.305   0.624   8.692 -0.9654 -0.0775  0.2968
  103MOL0     C14095   1.197   0.547   8.705  0.6389  0.3028  0.9462
  103MOL0     C14096   1.150   0.486   8.838 -0.4194  0.1077  0.0474
  103MOL0     C14097   1.052   0.581   8.904 -0.3960 -0.8990 -0.2849
  103MOL0     C14098   1.104   0.722   8.947  0.2227  0.3938 -0.0957
  103MOL0     C14099   1.200   0.718   9.072  1.1943 -0.1780  0.1757
  103MOL0     O14100   1.305   0.820   9.034  0.2582  0.0528  0.2507
  103MOL0     C14101   1.408   0.839   9.120 -0.8600 -0.2535  0.0202
  103MOL0     C14102   1.508   0.919   9.059 -0.0041 -0.7813  0.5108
  103MOL0     C14103   1.612   0.968   9.140 -0.1189  0.1969 -0.3701
  103MOL0     C14104   1.704   1.067   9.072  1.5294 -0.6031  0.4189
  103MOL0     C14105   1.615   0.940   9.285  0.6987  1.2183  0.3381
  103MOL0     C14106   1.739   0.977   9.357 -0.8650 -0.8202  0.1877
  103MOL0     O14107   1.737   1.061   9.469  0.5754 -0.6433 -0.3338
  103MOL0     C14108   1.640   1.154   9.479  0.1486  0.3518 -0.5912
  103MOL0     C14109   1.546   1.136   9.579  0.3931 -1.5037  0.3835
  103MOL0     C14110   1.442   1.225   9.595  1.2968 -0.1412  0.8784
  103MOL0     C14111   1.445   1.351   9.539  0.1346  0.0872  0.6986
  103MOL0     O14112   1.344   1.442   9.571  0.8957  0.3263 -0.0225
  103MOL0     C14113   1.320   1.560   9.501  0.5219  0.1901  0.9220
  103MOL0     C14114   1.406   1.680   9.550  0.3806 -0.2084  0.1110
  103MOL0     C14115   1.388   1.810   9.465  0.4329 -0.6064 -0.3138
  103MOL0     C14116   1.501   1.821   9.356  1.1460  0.6393  0.0967
  103MOL0     C14117   1.510   1.962   9.302 -0.8836 -0.6872 -0.3124
  103MOL0     C14118   1.414   1.983   9.192  1.3042  0.0502  0.2232
  103MOL0     C14119   1.443   2.104   9.115  0.4559  0.2929 -0.4174
  103MOL0     C14120   1.385   2.101   8.977 -0.4577 -0.0429 -0.5222
  103MOL0    Cl14121   1.198   2.083   8.979 -0.1504 -0.0352  0.0174
  103MOL0     C14122   1.544   1.372   9.433  0.1204  0.2452  0.3421
  103MOL0     C14123   1.634   1.264   9.398  0.1422 -0.8371 -0.0040
  103MOL0     O14124   1.841   0.928   9.310  0.2170 -0.1789  0.3251
  103MOL0     C14125   1.522   0.862   9.350  0.0041  1.0468  0.0214
  103MOL0     C14126   1.419   0.820   9.265  0.1639  0.5380  1.4930
  103MOL0     N14127   1.127   0.559   8.588  0.1311 -0.2450  0.1735
  103MOL0     N14128   1.171   0.646   8.512  0.7176 -0.2804  0.4327
  103MOL0     C14129   0.506   1.243   8.890 -0.3419 -0.5410 -0.2828
  103MOL0     C14130   0.383   1.244   8.957  0.3119 -0.1998  0.0299
  103MOL0     C14131   0.091   1.326   9.289 -0.4088  0.1842  0.0020
  103MOL0     C14132   0.018   1.447   9.291 -1.1273  0.1052  0.3904
  103MOL0     C14133  -0.083   1.460   9.387  0.0243  0.0345 -0.2097
  103MOL0     C14134  -0.119   1.350   9.474  0.9246 -0.2988  0.2398
  103MOL0     O14135  -0.220   1.364   9.565  0.0347 -0.1161 -0.6152
  103MOL0     C14136  -0.199   1.307   9.704 -0.1627  1.7365  0.4179
  103MOL0     C14137  -0.254   1.395   9.819  0.8118 -0.2022  0.3315
  103MOL0     C14138  -0.268   1.319   9.951 -0.0417 -0.1879  0.4755
  103MOL0     C14139  -0.375   1.366  10.041  1.0158  0.1545  0.7380
  103MOL0     C14140  -0.387   1.518  10.039  0.3275 -0.2814  0.7855
  103MOL0     C14141  -0.397   1.640  10.041 -0.5780 -0.4796  1.1234
  103MOL0     C14142  -0.049   1.235   9.458 -0.0279 -0.2833  0.2855
  103MOL0     C14143   0.056   1.214   9.372 -0.2930 -0.3807  0.8477
  103MOL0     C14144   0.137   1.090   9.365 -0.1047 -0.0180 -0.4176
  103MOL0     H14145   0.514   1.185   9.270  2.6253 -0.6226 -1.2267
  103MOL0     H14146   0.713   1.196   9.159 -1.2761 -0.7605  2.8981
  103MOL0     H14147   0.785   1.061   8.973 -0.3545  0.8951  0.6824
  103MOL0     H14148   0.903   1.183   9.005  1.9946 -1.3463 -1.4106
  103MOL0     H14149   1.010   1.004   8.871  0.7585  1.1712 -0.4780
  103MOL0     H14150   0.875   1.013   8.754  2.0405 -0.0857 -2.1277
  103MOL0     H14151   0.959   1.239   8.690  3.7814  3.6865  1.8030
  103MOL0     H14152   1.083   1.231   8.803  0.1189  0.1708 -0.0865
  103MOL0     H14153   1.059   1.044   8.550 -2.2616 -1.9966  2.3733
  103MOL0     H14154   1.164   1.187   8.574  0.1922  0.0312  0.5454
  103MOL0     H14155   1.201   0.929   8.725 -0.6669 -0.0838  2.6724
  103MOL0     H14156   1.279   1.085   8.771  2.9361 -3.0507  0.1841
  103MOL0     H14157   1.404   1.098   8.585  1.1216 -1.0990 -1.2158
  103MOL0     H14158   1.430   0.946   8.676  0.1903  2.2267  2.2349
  103MOL0     H14159   1.401   0.965   8.401 -2.4582  2.1064 -1.3474
  103MOL0     H14160   1.230   0.914   8.455 -0.5038 -1.8645  2.6657
  103MOL0     H14161   1.397   0.720   8.398  2.3134 -2.3205  1.3245
  103MOL0     H14162   1.485   0.769   8.541  0.3649  0.2186 -2.3768
  103MOL0     H14163   1.384   0.626   8.767  0.6972 -0.7791 -1.3695
  103MOL0     H14164   1.230   0.453   8.905 -0.1567  0.9835  0.1718
  103MOL0     H14165   1.086   0.401   8.813  0.9920 -0.3424 -2.3291
  103MOL0     H14166   0.973   0.595   8.831  2.6747  0.7033 -3.6180
  103MOL0     H14167   1.001   0.523   8.981 -0.0930 -0.8628 -0.0506
  103MOL0     H14168   1.154   0.761   8.857 -3.3948 -0.2476 -2.5976
  103MOL0     H14169   1.017   0.783   8.972  0.7064  0.9074  0.3514
  103MOL0     H14170   1.154   0.739   9.169  3.0363  1.2003  0.8169
  103MOL0     H14171   1.243   0.617   9.076 -0.4525 -0.8687  2.4393
  103MOL0     H14172   1.489   0.957   8.959  0.6657  1.6205  1.2186
  103MOL0     H14173   1.677   1.169   9.104 -0.9265 -1.8073  2.5903
  103MOL0     H14174   1.697   1.049   8.965  0.2559 -1.0845  0.5595
  103MOL0     H14175   1.807   1.049   9.103  1.2080  1.7814  3.3285
  103MOL0     H14176   1.541   1.042   9.634 -0.7328 -1.6666  0.0378
  103MOL0     H14177   1.367   1.214   9.672  0.1413  1.6321  0.0614
  103MOL0     H14178   1.350   1.545   9.397 -0.1123 -1.9455  1.0062
  103MOL0     H14179   1.216   1.593   9.506  0.7549  0.7820  4.3685
  103MOL0     H14180   1.398   1.697   9.658  1.0463 -0.5188  0.2105
  103MOL0     H14181   1.509   1.645   9.541  1.1574  1.4594  1.8143
  103MOL0     H14182   1.372   1.890   9.538  2.1884  1.8645 -2.4917
  103MOL0     H14183   1.292   1.799   9.414 -0.4602 -1.0779  1.3595
  103MOL0     H14184   1.473   1.754   9.275  3.1655  0.2579 -0.3535
  103MOL0     H14185   1.596   1.783   9.396  0.3922 -0.5720  0.8017
  103MOL0     H14186   1.494   2.038   9.379 -4.9311 -0.9760 -0.6473
  103MOL0     H14187   1.611   1.954   9.262 -0.7157  0.0609 -0.0582
  103MOL0     H14188   1.315   2.002   9.234  1.7886  1.1214  0.9088
  103MOL0     H14189   1.394   1.903   9.120 -3.8891  1.6165 -0.5093
  103MOL0     H14190   1.552   2.112   9.107  0.6495 -2.2934 -1.2229
  103MOL0     H14191   1.401   2.192   9.166  1.5071  0.5583  0.0305
  103MOL0     H14192   1.435   2.020   8.923 -0.4826  1.2868 -2.6161
  103MOL0     H14193   1.420   2.196   8.936 -1.3959 -0.2516 -1.8557
  103MOL0     H14194   1.542   1.463   9.373 -0.6725  0.5224  0.7669
  103MOL0     H14195   1.700   1.280   9.313 -0.5101  0.4451 -0.2870
  103MOL0     H14196   1.522   0.839   9.456  1.4568 -0.6215 -0.2940
  103MOL0     H14197   1.340   0.755   9.303  1.8206 -0.7162  2.9576
  103MOL0     H14198   0.513   1.258   8.783 -1.9230 -0.4049 -0.3935
  103MOL0     H14199   0.287   1.248   8.906 -0.0499 -1.0272  0.6180
  103MOL0     H14200   0.042   1.531   9.226 -1.0544  0.1486  0.4732
  103MOL0     H14201  -0.133   1.555   9.407 -0.0449 -0.2043  0.7617
  103MOL0     H14202  -0.227   1.202   9.709 -3.2635  2.3167 -1.7010
  103MOL0     H14203  -0.092   1.291   9.718  0.0859  2.3537 -0.6247
  103MOL0     H14204  -0.357   1.408   9.785  0.8556 -2.1856 -0.7156
  103MOL0     H14205  -0.190   1.483   9.825  2.1057 -1.2079  1.8512
  103MOL0     H14206  -0.274   1.211   9.932 -1.1518  0.1027 -0.9829
  103MOL0     H14207  -0.178   1.331  10.012 -0.3788  1.0586  0.7417
  103MOL0     H14208  -0.360   1.320  10.139 -1.4401 -0.2217  0.9914
  103MOL0     H14209  -0.476   1.332  10.016 -0.9111  4.5688  1.4750
  103MOL0     H14210  -0.423   1.741  10.063 -1.1789  0.6262 -3.7007
  103MOL0     H14211  -0.066   1.154   9.528 -1.4367 -1.3871 -1.2592
  103MOL0     H14212   0.245   1.099   9.377 -0.0995 -0.8119  0.2132
  103MOL0     H14213   0.103   1.034   9.453 -0.3991  0.7523 -0.0320
  103MOL0     H14214   0.116   1.036   9.272  0.7815 -1.1849  0.0380
  104MOL0     O14215   9.648   3.395   4.250  0.2174 -0.0079  0.1573
  104MOL0     C14216   9.742   3.425   4.308 -0.9808  0.5911 -0.6006
  104MOL0     O14217   9.866   3.435   4.256  0.9781 -0.2481 -0.0830
  104MOL0     C14218   9.896   3.405   4.129 -0.2078  0.2697  0.0962
  104MOL0     C14219  10.015   3.468   4.090 -0.1426 -0.0877  0.3445
  104MOL0     C14220  10.064   3.468   3.957 -0.6064  0.0840 -0.2328
  104MOL0     C14221  10.004   3.387   3.866  0.1455 -0.3703  0.6968
  104MOL0     O14222  10.056   3.405   3.737  0.1663  0.7215  0.2395
  104MOL0     C14223   9.954   3.419   3.638 -0.5672  0.5862  0.8732
  104MOL0     C14224   9.979   3.527   3.526 -0.1315  0.4046  0.1272
  104MOL0     C14225   9.945   3.662   3.589  0.9937 -0.1263  0.3459
  104MOL0     C14226   9.912   3.767   3.477  0.1801 -0.1310 -0.2725
  104MOL0     C14227   9.834   3.895   3.525 -0.6659  0.1883 -0.7181
  104MOL0     C14228   9.926   4.023   3.514 -0.1713  0.5362  0.9006
  104MOL0     C14229  10.060   4.013   3.588  0.6173 -0.6148  0.3670
  104MOL0     C14230  10.143   4.148   3.601 -0.0542 -0.5023 -0.3946
  104MOL0     N14231  10.151   4.230   3.484  0.3615 -0.8715  0.5857
  104MOL0     C14232  10.128   4.369   3.486 -0.0623  0.6913 -0.4752
  104MOL0     C14233  10.112   4.402   3.354  0.0308 -0.6757 -0.2730
  104MOL0     C14234  10.091   4.541   3.295 -0.1781 -0.9319 -0.1226
  104MOL0     C14235  10.237   4.597   3.287 -0.6394 -0.0193  0.5952
  104MOL0     C14236  10.239   4.746   3.256 -0.6216 -0.1035 -0.3181
  104MOL0     C14237  10.197   4.839   3.369  1.0040  0.4341 -0.4517
  104MOL0     O14238  10.300   4.884   3.436 -0.9596 -0.0127  0.1381
  104MOL0     C14239  10.274   4.987   3.524  0.3554  0.0548  0.5980
  104MOL0     C14240  10.170   4.982   3.620 -0.0415  0.0258 -1.9595
  104MOL0     C14241  10.163   5.090   3.709 -0.1104  0.2082  0.2148
  104MOL0     C14242  10.046   5.072   3.803 -0.0292 -0.6031  0.1002
  104MOL0     C14243  10.229   5.211   3.692 -0.8945 -0.6681 -0.4676
  104MOL0     C14244  10.189   5.345   3.752 -0.5000 -0.0738  1.1386
  104MOL0     O14245  10.272   5.444   3.717  0.2859  0.5890 -0.1114
  104MOL0     C14246  10.243   5.575   3.750 -0.1288 -0.6151  0.7180
  104MOL0     C14247  10.168   5.633   3.853  1.1766  0.4224  0.0142
  104MOL0     C14248  10.160   5.778   3.867 -1.2062  0.1658 -0.4326
  104MOL0     C14249  10.219   5.867   3.765  0.0879  0.8491  0.0386
  104MOL0     O14250  10.218   5.995   3.791  0.0263 -0.1864 -0.5867
  104MOL0     C14251  10.281   6.081   3.696  0.5534 -0.4385  0.8761
  104MOL0     C14252  10.267   6.228   3.748 -1.1939  0.6633 -0.3078
  104MOL0     C14253  10.393   6.278   3.812  0.3987  0.6591  0.6051
  104MOL0     C14254  10.392   6.430   3.854  0.5377  1.2095  0.2351
  104MOL0     C14255  10.269   6.467   3.948 -1.2148  0.2207  0.2736
  104MOL0     C14256  10.286   6.610   4.008 -0.3593  0.7861  0.9945
  104MOL0     C14257  10.151   6.645   4.082 -0.2819 -0.4235  0.2580
  104MOL0     C14258  10.060   6.735   3.993 -0.3251  0.0761  0.2534
  104MOL0    Cl14259   9.929   6.824   4.090 -0.0596 -0.1223  0.6838
  104MOL0     C14260  10.289   5.799   3.661 -0.8148 -0.7724 -0.4266
  104MOL0     C14261  10.302   5.660   3.661  0.5747 -0.6170 -0.3467
  104MOL0     O14262  10.088   5.353   3.809  0.2180  0.4092 -0.2313
  104MOL0     C14263  10.324   5.218   3.588 -0.5235  0.1845  0.1318
  104MOL0     C14264  10.349   5.105   3.507 -0.1202  0.3842  0.9750
  104MOL0     N14265  10.125   4.283   3.282 -0.6573 -0.5094  0.0796
  104MOL0     N14266  10.148   4.180   3.353 -0.1628 -0.4164 -0.7206
  104MOL0     C14267   9.897   3.303   3.902 -0.7155  0.6128  0.0916
  104MOL0     C14268   9.834   3.314   4.036 -0.6150 -0.6439  1.2005
  104MOL0     C14269   9.743   3.454   4.452 -0.4155  0.2379  0.4006
  104MOL0     C14270   9.634   3.532   4.510 -0.1367 -0.4839  0.2609
  104MOL0     C14271   9.629   3.551   4.648 -0.8963 -0.1816 -0.1953
  104MOL0     C14272   9.730   3.516   4.729  0.8650  0.4934  0.2908
  104MOL0     O14273   9.730   3.540   4.865  0.5930 -0.6958  0.0943
  104MOL0     C14274   9.616   3.607   4.920 -0.6356 -0.2518  0.3307
  104MOL0     C14275   9.639   3.624   5.071  0.5838  0.0950 -0.8100
  104MOL0     C14276   9.500   3.649   5.125  0.8922  0.6238 -0.7666
  104MOL0     C14277   9.465   3.792   5.126 -0.3434  0.5302 -0.1603
  104MOL0     C14278   9.389   3.825   5.261 -0.2737  0.1803  0.5358
  104MOL0     C14279   9.330   3.859   5.358 -0.0942 -0.4088  0.6772
  104MOL0     C14280   9.840   3.448   4.682  0.0706  0.6798 -0.2511
  104MOL0     C14281   9.839   3.395   4.547  1.2186 -0.4959 -0.0734
  104MOL0     C14282   9.954   3.306   4.509 -1.0544  0.0712 -0.1932
  104MOL0     H14283  10.069   3.529   4.161  1.3350 -1.3338  0.3677
  104MOL0     H14284  10.145   3.534   3.928 -0.6554  0.9411  1.4315
  104MOL0     H14285   9.853   3.441   3.674  0.2169  1.7664  2.4891
  104MOL0     H14286   9.954   3.318   3.596  0.1017 -0.0625  2.3476
  104MOL0     H14287  10.081   3.527   3.488  0.4565  0.6799  1.6383
  104MOL0     H14288   9.903   3.505   3.450 -1.2276  3.1167  0.2908
  104MOL0     H14289   9.852   3.656   3.645 -0.8172  2.8977 -2.0304
  104MOL0     H14290  10.013   3.690   3.671 -0.6722 -2.4470  2.6843
  104MOL0     H14291  10.009   3.782   3.430  0.3945  1.2148  0.5437
  104MOL0     H14292   9.839   3.709   3.419 -0.6252 -0.1435  0.7154
  104MOL0     H14293   9.814   3.889   3.632  1.1530  1.3942 -0.2611
  104MOL0     H14294   9.745   3.897   3.462 -1.8644 -1.6935  0.8033
  104MOL0     H14295   9.947   4.049   3.410  2.1044  0.2081  1.2140
  104MOL0     H14296   9.865   4.109   3.543 -3.7966 -1.5801  0.2184
  104MOL0     H14297  10.122   3.940   3.534  0.5971 -0.3145 -0.0619
  104MOL0     H14298  10.041   3.970   3.687  1.6644  1.4194  1.5310
  104MOL0     H14299  10.097   4.219   3.670 -0.3432 -1.1104  0.0480
  104MOL0     H14300  10.249   4.131   3.621  0.5864  1.4851 -1.7878
  104MOL0     H14301  10.140   4.431   3.574  3.1502  0.9275 -0.9654
  104MOL0     H14302  10.031   4.600   3.364  1.1094  1.6058 -1.0493
  104MOL0     H14303  10.049   4.543   3.194  2.6462 -0.2049 -1.3862
  104MOL0     H14304  10.291   4.585   3.381 -3.0304 -1.2798  1.8916
  104MOL0     H14305  10.290   4.543   3.208  2.5563  0.7147  2.0692
  104MOL0     H14306  10.343   4.771   3.234 -0.7515  0.8215  0.1045
  104MOL0     H14307  10.174   4.760   3.169 -2.0342  3.3417  1.1190
  104MOL0     H14308  10.148   4.929   3.329 -1.5267 -0.3942  0.5692
  104MOL0     H14309  10.126   4.793   3.438  1.9465 -0.6925 -0.2085
  104MOL0     H14310  10.100   4.900   3.621  0.1354 -0.1301 -0.1163
  104MOL0     H14311   9.964   5.128   3.756  0.4351  0.7697  0.8753
  104MOL0     H14312  10.055   5.103   3.908 -1.3496 -2.6665  0.8711
  104MOL0     H14313  10.019   4.966   3.802 -1.1548 -0.3280  0.1391
  104MOL0     H14314  10.137   5.563   3.931 -1.0949  2.0638  0.7023
  104MOL0     H14315  10.111   5.818   3.954  0.3518  2.1749 -0.4239
  104MOL0     H14316  10.387   6.062   3.676  1.0746  2.1751  0.7747
  104MOL0     H14317  10.227   6.077   3.601 -0.7496  3.3450  1.2691
  104MOL0     H14318  10.260   6.291   3.659 -3.3021 -0.9301 -1.3506
  104MOL0     H14319  10.184   6.248   3.816  1.0250  3.7963  1.7757
  104MOL0     H14320  10.486   6.256   3.760  0.4017 -0.7979  1.1589
  104MOL0     H14321  10.410   6.221   3.904 -1.9515  2.2555  2.1338
  104MOL0     H14322  10.373   6.496   3.769 -4.9354  0.3127  0.3848
  104MOL0     H14323  10.484   6.462   3.904 -0.7239 -0.5856  4.1583
  104MOL0     H14324  10.177   6.480   3.890 -1.0068  3.0948  0.4448
  104MOL0     H14325  10.261   6.397   4.031  0.5497  0.5355  0.7664
  104MOL0     H14326  10.309   6.683   3.931  2.2912 -1.1891 -0.2422
  104MOL0     H14327  10.364   6.615   4.083  0.6115 -3.4754  0.5413
  104MOL0     H14328  10.167   6.708   4.170 -1.4403  1.7167 -0.9674
  104MOL0     H14329  10.093   6.553   4.096 -1.3518 -0.3528 -2.8911
  104MOL0     H14330  10.011   6.669   3.921 -0.7084  1.0367 -0.3868
  104MOL0     H14331  10.122   6.813   3.948 -1.0878  0.1662 -0.6602
  104MOL0     H14332  10.344   5.852   3.584  2.1139 -0.5851  1.6209
  104MOL0     H14333  10.367   5.627   3.580  2.6784  4.8376 -1.3768
  104MOL0     H14334  10.384   5.304   3.558 -2.4941  1.3357 -0.7501
  104MOL0     H14335  10.408   5.099   3.416 -1.2613 -0.7391  0.2692
  104MOL0     H14336   9.847   3.233   3.836 -1.2656  0.4020  0.7136
  104MOL0     H14337   9.744   3.264   4.072 -2.0654  0.7411 -0.3024
  104MOL0     H14338   9.555   3.576   4.450  1.1723 -1.8068 -2.6621
  104MOL0     H14339   9.536   3.596   4.683 -2.6543 -4.4566  1.3142
  104MOL0     H14340   9.598   3.705   4.875 -1.2297 -1.0127 -1.2023
  104MOL0     H14341   9.526   3.546   4.904 -1.3494  0.9740 -0.5711
  104MOL0     H14342   9.715   3.696   5.103 -0.4458  1.1178 -0.5760
  104MOL0     H14343   9.678   3.536   5.123  0.0206  1.2186  1.6810
  104MOL0     H14344   9.417   3.586   5.094 -0.7995  1.4206  1.7793
  104MOL0     H14345   9.512   3.621   5.231 -0.4351 -0.3655 -0.8483
  104MOL0     H14346   9.412   3.796   5.030 -0.8613 -1.2183  0.0056
  104MOL0     H14347   9.563   3.838   5.118  0.8385 -1.9954 -1.6361
  104MOL0     H14348   9.279   3.895   5.444  0.6979  2.0454  0.2061
  104MOL0     H14349   9.916   3.419   4.753 -2.0038  1.5716  2.4850
  104MOL0     H14350  10.030   3.363   4.455 -1.5442  1.1188  0.1795
  104MOL0     H14351   9.999   3.255   4.595  0.3522  2.1530  0.3796
  104MOL0     H14352   9.921   3.232   4.436  1.2749  0.1547 -1.4064
  105MOL0     O14353   0.928   6.821   2.185 -0.1395 -0.3737 -0.1440
  105MOL0     C14354   0.983   6.708   2.200 -0.4371 -0.0712 -0.7889
  105MOL0     O14355   0.973   6.600   2.112  0.2428 -0.9995  0.3028
  105MOL0     C14356   0.881   6.615   2.011  0.2996  0.7750 -1.3188
  105MOL0     C14357   0.909   6.556   1.891 -0.2319 -0.1352  0.3523
  105MOL0     C14358   0.822   6.561   1.782  0.1658  0.7967  0.0307
  105MOL0     C14359   0.710   6.625   1.790  1.0051 -0.0868  0.2270
  105MOL0     O14360   0.619   6.638   1.680 -0.9484  0.6316  1.2016
  105MOL0     C14361   0.611   6.541   1.572 -0.6012 -0.5330  0.4821
  105MOL0     C14362   0.484   6.556   1.496  0.5917 -0.6162  0.8615
  105MOL0     C14363   0.472   6.687   1.405 -0.1374 -0.0417 -0.9320
  105MOL0     C14364   0.432   6.803   1.492  0.0618  0.8678 -1.1406
  105MOL0     C14365   0.375   6.914   1.407 -0.8798 -0.9638 -0.1480
  105MOL0     C14366   0.309   7.014   1.500 -0.6117 -0.0200 -1.1635
  105MOL0     C14367   0.275   7.149   1.425 -0.3831  1.2247  0.3673
  105MOL0     C14368   0.204   7.244   1.516 -0.4877  0.1388  0.2685
  105MOL0     N14369   0.169   7.379   1.468 -0.3639 -0.2068 -0.3846
  105MOL0     C14370   0.150   7.422   1.341  0.0755 -0.5446  0.7206
  105MOL0     C14371   0.121   7.554   1.363  0.9792  0.0503 -0.3366
  105MOL0     C14372   0.111   7.656   1.261  0.8220 -0.4185  0.1734
  105MOL0     C14373   0.119   7.803   1.304  0.0414 -0.0697  0.7952
  105MOL0     C14374   0.054   7.893   1.190  0.4807  0.1076  0.2932
  105MOL0     C14375   0.113   7.907   1.053 -0.4325  0.2174 -0.0224
  105MOL0     O14376   0.045   8.004   0.976 -0.1613 -0.9199 -1.0376
  105MOL0     C14377   0.133   8.100   0.941  1.0744 -0.1198 -0.3773
  105MOL0     C14378   0.171   8.117   0.804  0.1432  0.4256 -0.3775
  105MOL0     C14379   0.268   8.216   0.774  0.1662 -0.1441 -0.1005
  105MOL0     C14380   0.318   8.227   0.634 -0.2282  0.3801 -0.2360
  105MOL0     C14381   0.315   8.302   0.879 -0.5246 -0.4055  0.2590
  105MOL0     C14382   0.406   8.411   0.860  0.7744 -1.0129  0.2852
  105MOL0     O14383   0.530   8.378   0.869 -0.4965  0.6641 -0.2143
  105MOL0     C14384   0.621   8.476   0.860  0.1849 -0.1302 -1.6163
  105MOL0     C14385   0.663   8.525   0.986  0.0682 -0.3947 -0.2629
  105MOL0     C14386   0.749   8.638   0.995  0.5811 -0.3923 -0.6753
  105MOL0     C14387   0.809   8.687   0.879  0.6081  0.2323  0.3907
  105MOL0     O14388   0.917   8.773   0.901  0.0547 -0.1413 -0.2063
  105MOL0     C14389   1.005   8.810   0.790 -0.1896 -0.3136 -0.2639
  105MOL0     C14390   1.134   8.881   0.824 -0.0730  0.2738 -0.1241
  105MOL0     C14391   1.208   8.794   0.932  0.3973 -0.0037  0.0211
  105MOL0     C14392   1.357   8.785   0.903 -0.2946 -0.1698 -0.6869
  105MOL0     C14393   1.429   8.925   0.906 -0.4431 -0.5195  0.3507
  105MOL0     C14394   1.400   9.010   1.030  0.3336  0.0569  0.1031
  105MOL0     C14395   1.496   9.131   1.045  1.6583  0.0818 -0.3250
  105MOL0     C14396   1.642   9.094   1.061 -0.6566  0.7721  0.4388
  105MOL0    Cl14397   1.649   8.998   1.219  0.3965  0.0565 -0.1236
  105MOL0     C14398   0.754   8.647   0.749  0.1001 -0.5482 -0.4080
  105MOL0     C14399   0.668   8.546   0.744  0.3689  0.1834 -0.5351
  105MOL0     O14400   0.361   8.519   0.822  0.2677 -0.4167  0.7628
  105MOL0     C14401   0.270   8.278   1.005 -0.3664 -0.3990 -0.5739
  105MOL0     C14402   0.175   8.185   1.043  0.4591  0.2088 -0.9847
  105MOL0     N14403   0.134   7.578   1.498  0.4475  0.1589 -0.3741
  105MOL0     N14404   0.174   7.482   1.559  0.1375 -0.5509  0.2775
  105MOL0     C14405   0.671   6.685   1.909  0.0587 -0.3546  0.4553
  105MOL0     C14406   0.749   6.668   2.020 -0.2922 -0.2221 -0.5194
  105MOL0     C14407   1.056   6.679   2.324  0.4161 -0.6791  1.1548
  105MOL0     C14408   1.023   6.566   2.398  0.1689 -0.1090  0.5201
  105MOL0     C14409   1.074   6.529   2.521 -0.0624  0.5952  0.0520
  105MOL0     C14410   1.167   6.611   2.582 -0.3202 -0.3841 -0.9772
  105MOL0     O14411   1.202   6.577   2.712 -0.6689  0.4038  0.2969
  105MOL0     C14412   1.335   6.540   2.739 -0.1423 -0.3265  0.3983
  105MOL0     C14413   1.334   6.380   2.747  0.3747 -0.7025 -0.2149
  105MOL0     C14414   1.233   6.337   2.864 -0.1730 -0.0180  0.0666
  105MOL0     C14415   1.224   6.183   2.872  1.0949  1.4471  0.3913
  105MOL0     C14416   1.151   6.132   2.990 -0.5484 -0.3554  0.3267
  105MOL0     C14417   1.086   6.089   3.088 -0.3121  1.0040  0.2418
  105MOL0     C14418   1.196   6.730   2.521 -0.7583 -0.1147 -0.7451
  105MOL0     C14419   1.140   6.770   2.392  0.7420  0.4202  0.3579
  105MOL0     C14420   1.167   6.908   2.332  0.0238  0.3892 -0.5154
  105MOL0     H14421   1.004   6.504   1.878 -1.1594 -1.2174 -3.2614
  105MOL0     H14422   0.863   6.512   1.694  3.0498  1.1420  1.0539
  105MOL0     H14423   0.627   6.439   1.608 -2.3376 -2.1804 -2.8604
  105MOL0     H14424   0.698   6.561   1.509  0.4180 -2.3944  1.1926
  105MOL0     H14425   0.481   6.464   1.438  0.2504 -0.5015  0.6976
  105MOL0     H14426   0.387   6.556   1.547 -0.5223 -0.0670 -1.1559
  105MOL0     H14427   0.563   6.713   1.350  1.4000  0.4471  1.6944
  105MOL0     H14428   0.390   6.659   1.338 -1.0695 -0.5994  0.4027
  105MOL0     H14429   0.355   6.776   1.565  2.4944 -2.3666  0.4763
  105MOL0     H14430   0.514   6.839   1.555 -2.9475  2.2237  2.3247
  105MOL0     H14431   0.294   6.866   1.352  0.4236 -2.0952 -1.1493
  105MOL0     H14432   0.440   6.947   1.325 -2.6133  0.8360 -0.8764
  105MOL0     H14433   0.215   6.975   1.543 -0.8309 -0.8194 -2.3206
  105MOL0     H14434   0.382   7.041   1.577 -2.6393  2.1022  0.1463
  105MOL0     H14435   0.206   7.137   1.342 -1.1228  3.0859  0.6556
  105MOL0     H14436   0.372   7.173   1.381  2.4325 -2.2525  3.9205
  105MOL0     H14437   0.120   7.206   1.577 -0.5818  1.0817  0.7528
  105MOL0     H14438   0.282   7.253   1.592  0.6221  1.1812 -0.9638
  105MOL0     H14439   0.145   7.370   1.245  3.0720 -0.7025  0.5359
  105MOL0     H14440   0.019   7.638   1.206  0.4873 -0.0031  0.5907
  105MOL0     H14441   0.190   7.644   1.186  2.0968 -2.1826  1.7224
  105MOL0     H14442   0.071   7.808   1.402 -1.8695  1.7661 -0.1586
  105MOL0     H14443   0.220   7.844   1.317 -1.3351  3.6557  0.7817
  105MOL0     H14444  -0.051   7.871   1.168  1.4643 -2.5809 -2.5484
  105MOL0     H14445   0.043   7.995   1.227 -0.0500  0.1344  0.0689
  105MOL0     H14446   0.219   7.927   1.071 -0.4814 -0.9642  1.8451
  105MOL0     H14447   0.130   7.813   1.000  3.4613  1.5060 -1.3938
  105MOL0     H14448   0.133   8.050   0.727  2.5313 -0.5457 -0.8081
  105MOL0     H14449   0.425   8.206   0.622  0.2519  2.5160 -0.1093
  105MOL0     H14450   0.297   8.324   0.589  1.9299 -1.1465 -5.2217
  105MOL0     H14451   0.268   8.158   0.566  0.2631 -0.3097  0.0949
  105MOL0     H14452   0.616   8.477   1.071 -1.4055  0.2843 -0.6730
  105MOL0     H14453   0.773   8.692   1.086  3.1497  0.1046 -1.5860
  105MOL0     H14454   1.008   8.727   0.718 -2.0513  0.5557 -1.4209
  105MOL0     H14455   0.949   8.887   0.736 -2.0511 -0.5087  1.2779
  105MOL0     H14456   1.189   8.888   0.730 -0.5112  4.3337 -0.2833
  105MOL0     H14457   1.106   8.983   0.852 -0.4685 -0.2114  1.3480
  105MOL0     H14458   1.154   8.699   0.935 -2.5489  1.5230  3.6955
  105MOL0     H14459   1.204   8.834   1.034  1.4305 -0.4108  0.2302
  105MOL0     H14460   1.370   8.733   0.808  1.7663  0.3504 -0.7374
  105MOL0     H14461   1.391   8.726   0.990 -1.0365  0.3066 -0.0668
  105MOL0     H14462   1.537   8.908   0.898 -0.2040  1.0975 -0.1873
  105MOL0     H14463   1.418   8.982   0.814  1.5473  1.7893  1.4228
  105MOL0     H14464   1.392   8.951   1.122  1.4406  0.7247  0.6478
  105MOL0     H14465   1.302   9.059   1.030 -0.2086 -0.9109  1.9214
  105MOL0     H14466   1.466   9.195   1.128  0.8511 -1.1440  0.3661
  105MOL0     H14467   1.482   9.193   0.956 -1.9589 -3.6093 -2.7117
  105MOL0     H14468   1.720   9.170   1.052  0.4668 -0.3686  0.3730
  105MOL0     H14469   1.670   9.029   0.979 -1.8580  0.6751  0.0793
  105MOL0     H14470   0.794   8.691   0.658  1.4170 -0.9040 -0.0250
  105MOL0     H14471   0.618   8.512   0.654 -0.5094 -4.0140  1.2499
  105MOL0     H14472   0.302   8.334   1.092  2.2630 -1.1430 -0.9753
  105MOL0     H14473   0.138   8.172   1.144 -0.2968 -3.2394 -1.6077
  105MOL0     H14474   0.580   6.745   1.914 -1.2180 -2.1705  0.0886
  105MOL0     H14475   0.711   6.726   2.103 -1.4497  0.0672 -1.2347
  105MOL0     H14476   0.950   6.497   2.357 -1.9970  2.9962 -1.2382
  105MOL0     H14477   1.033   6.442   2.571 -3.7647  1.5666 -1.0019
  105MOL0     H14478   1.411   6.559   2.662  1.8397 -3.8012  1.2716
  105MOL0     H14479   1.371   6.583   2.833  2.6391  0.5688 -0.9632
  105MOL0     H14480   1.439   6.359   2.773  0.6492  0.7785 -0.0048
  105MOL0     H14481   1.307   6.327   2.656  0.2419  1.8649 -1.7853
  105MOL0     H14482   1.291   6.381   2.945  3.0111 -1.6617 -1.1488
  105MOL0     H14483   1.136   6.384   2.841  0.8791  1.1925 -2.2658
  105MOL0     H14484   1.326   6.147   2.885  0.8420  0.9288  1.0455
  105MOL0     H14485   1.167   6.138   2.790 -2.2582  0.9411  2.7871
  105MOL0     H14486   1.028   6.048   3.169  0.1010  2.0594  1.1032
  105MOL0     H14487   1.262   6.798   2.573 -2.4210  1.1214 -0.1602
  105MOL0     H14488   1.245   6.968   2.379 -0.9640  0.8707  0.5772
  105MOL0     H14489   1.194   6.897   2.226  0.1345 -0.9944 -0.3562
  105MOL0     H14490   1.080   6.974   2.338  2.7615  4.3936 -1.2243
  106MOL0     O14491   7.733   7.589   3.752 -0.3169 -0.1522  0.5535
  106MOL0     C14492   7.630   7.605   3.694  0.3477 -0.1275 -0.0777
  106MOL0     O14493   7.513   7.648   3.752 -0.0698 -0.0795  0.1267
  106MOL0     C14494   7.510   7.673   3.885  0.9010  0.7524 -0.1060
  106MOL0     C14495   7.566   7.786   3.940  0.1920 -0.0399  0.9453
  106MOL0     C14496   7.544   7.821   4.073  0.0192 -0.1459 -1.3395
  106MOL0     C14497   7.465   7.746   4.156 -0.7653  0.0516 -0.1323
  106MOL0     O14498   7.459   7.796   4.283 -0.3821 -0.7399  0.2952
  106MOL0     C14499   7.319   7.799   4.323  0.7426 -0.0073 -0.4877
  106MOL0     C14500   7.287   7.910   4.439 -0.5613  0.1308  0.2619
  106MOL0     C14501   7.309   8.054   4.404  0.5714  0.8017 -0.0361
  106MOL0     C14502   7.311   8.105   4.256  0.6763 -0.4415  0.0579
  106MOL0     C14503   7.368   8.243   4.257 -0.2683 -0.4930 -0.6225
  106MOL0     C14504   7.362   8.313   4.126  0.6886  0.9665  0.3219
  106MOL0     C14505   7.221   8.359   4.111 -0.1470  0.9462 -0.2650
  106MOL0     C14506   7.206   8.445   3.984 -0.0671 -0.7940  0.0943
  106MOL0     N14507   7.189   8.365   3.860  0.0488 -0.5130 -0.8817
  106MOL0     C14508   7.296   8.331   3.789 -1.1759  0.1818  0.1917
  106MOL0     C14509   7.246   8.245   3.692  0.0259 -0.1561 -0.2009
  106MOL0     C14510   7.337   8.179   3.586  1.6082  0.1658  0.3138
  106MOL0     C14511   7.356   8.032   3.631  0.8113 -0.9149 -0.8611
  106MOL0     C14512   7.412   7.953   3.519 -0.0976  0.3623 -0.4474
  106MOL0     C14513   7.563   7.944   3.527  0.0877  0.1508 -0.3134
  106MOL0     O14514   7.640   8.057   3.482  0.4627 -0.0733 -0.0498
  106MOL0     C14515   7.761   8.056   3.414 -0.2232  0.1986 -0.6107
  106MOL0     C14516   7.846   7.945   3.395 -0.4949  0.9262 -0.3839
  106MOL0     C14517   7.970   7.945   3.319  0.3498 -0.6860  0.0371
  106MOL0     C14518   8.051   7.820   3.316  0.8016 -0.2446 -0.7836
  106MOL0     C14519   8.009   8.067   3.263  0.3396 -0.9178  0.7552
  106MOL0     C14520   8.144   8.088   3.200  0.2797 -0.0531  0.5831
  106MOL0     O14521   8.200   8.204   3.231  0.0990  0.2202  0.0703
  106MOL0     C14522   8.267   8.298   3.156  0.5758 -0.1086  0.0167
  106MOL0     C14523   8.245   8.323   3.017  1.0834  0.2932 -1.2736
  106MOL0     C14524   8.329   8.414   2.954 -0.2888  0.0001  0.3739
  106MOL0     C14525   8.435   8.480   3.021  0.3482 -0.8012  0.4548
  106MOL0     O14526   8.510   8.564   2.956  0.5421  0.1999  0.0561
  106MOL0     C14527   8.460   8.632   2.841 -0.1758  0.1775  0.9633
  106MOL0     C14528   8.529   8.572   2.714  0.2416 -0.4880 -0.2759
  106MOL0     C14529   8.466   8.653   2.596 -0.2878  0.1844 -0.1398
  106MOL0     C14530   8.322   8.601   2.571 -0.5730  0.7600  0.2106
  106MOL0     C14531   8.273   8.671   2.441  0.1487 -1.0540 -0.4086
  106MOL0     C14532   8.156   8.618   2.386  0.7761  1.3429 -0.0327
  106MOL0     C14533   8.128   8.683   2.247  0.0750 -0.6416  0.4617
  106MOL0     C14534   8.043   8.597   2.163  1.0206 -0.2981  0.1121
  106MOL0    Cl14535   8.129   8.461   2.073  0.5138  0.3055 -0.4031
  106MOL0     C14536   8.469   8.436   3.150 -0.4886  0.7281 -0.4487
  106MOL0     C14537   8.382   8.347   3.218 -0.5289  0.3376 -0.2311
  106MOL0     O14538   8.198   8.002   3.133  0.6360  0.7757  1.0130
  106MOL0     C14539   7.921   8.179   3.284  0.3680  0.0679 -0.1706
  106MOL0     C14540   7.796   8.173   3.355  0.1337 -0.0527  0.6865
  106MOL0     N14541   7.110   8.223   3.713  0.1485  1.0349 -0.4341
  106MOL0     N14542   7.082   8.296   3.818 -0.5614 -0.2596  1.2784
  106MOL0     C14543   7.414   7.622   4.110  0.9350 -0.3106  0.3599
  106MOL0     C14544   7.444   7.577   3.970  0.0842 -1.0904 -0.0738
  106MOL0     C14545   7.632   7.575   3.555  0.0766  0.5764  0.7251
  106MOL0     C14546   7.515   7.616   3.483  0.2678 -0.0924  0.5145
  106MOL0     C14547   7.502   7.612   3.341  0.0310  0.2620 -0.1643
  106MOL0     C14548   7.613   7.575   3.272  0.0460 -0.3824  1.0183
  106MOL0     O14549   7.597   7.587   3.135 -0.6240 -0.2577  0.7118
  106MOL0     C14550   7.704   7.659   3.063  0.0334 -1.2320 -0.2104
  106MOL0     C14551   7.671   7.804   3.064  0.0120 -0.1698 -0.0779
  106MOL0     C14552   7.765   7.900   2.993  0.0257  0.2682  0.4882
  106MOL0     C14553   7.688   8.034   2.991 -1.4135  0.3306 -0.5388
  106MOL0     C14554   7.779   8.150   2.969  0.0674  0.0418 -0.2306
  106MOL0     C14555   7.859   8.236   2.938 -0.5831  0.6986  0.0339
  106MOL0     C14556   7.730   7.533   3.335  1.1500  0.3835  0.2810
  106MOL0     C14557   7.737   7.523   3.478 -0.0610 -0.8228 -0.7476
  106MOL0     C14558   7.876   7.497   3.525  0.5451 -0.0276  0.1985
  106MOL0     H14559   7.612   7.853   3.868  3.1917 -1.3587  1.4995
  106MOL0     H14560   7.591   7.910   4.115  1.1019  0.0001 -2.7790
  106MOL0     H14561   7.286   7.705   4.370 -1.7366  2.3954  3.1416
  106MOL0     H14562   7.251   7.811   4.239  1.9806  3.3463 -1.1416
  106MOL0     H14563   7.183   7.901   4.473 -1.0167 -1.2585 -1.3557
  106MOL0     H14564   7.342   7.882   4.529 -2.9210 -1.4755  1.3128
  106MOL0     H14565   7.239   8.115   4.462  1.7733  1.6055  0.6390
  106MOL0     H14566   7.404   8.076   4.455  1.5895 -2.7743 -0.1343
  106MOL0     H14567   7.381   8.050   4.193 -1.0041 -0.2619 -2.0905
  106MOL0     H14568   7.210   8.104   4.213  1.3838 -1.2073 -1.6291
  106MOL0     H14569   7.472   8.220   4.284 -0.6319 -1.2162  0.2194
  106MOL0     H14570   7.323   8.307   4.333  3.4452  2.8698 -0.9437
  106MOL0     H14571   7.413   8.409   4.136 -1.5606  2.2690  0.1509
  106MOL0     H14572   7.402   8.267   4.035 -0.6740  1.7115 -0.6969
  106MOL0     H14573   7.184   8.405   4.202  0.5926  1.5053 -0.2379
  106MOL0     H14574   7.158   8.271   4.094  0.6919  0.0419  1.1180
  106MOL0     H14575   7.123   8.515   3.983  1.2476  0.8233 -1.3908
  106MOL0     H14576   7.287   8.519   3.984 -2.4431  1.9599  0.8738
  106MOL0     H14577   7.394   8.376   3.797 -0.9703 -0.1489 -0.4445
  106MOL0     H14578   7.431   8.232   3.566  0.4984  0.7553 -4.7421
  106MOL0     H14579   7.282   8.180   3.491  0.5258 -0.2875  0.9211
  106MOL0     H14580   7.431   8.029   3.711  0.2447  0.4787 -0.2356
  106MOL0     H14581   7.258   7.989   3.652  1.6544 -1.3897  2.9148
  106MOL0     H14582   7.376   7.852   3.539 -3.6921  1.5093 -0.3351
  106MOL0     H14583   7.367   7.987   3.425 -2.5899 -2.5881 -0.4670
  106MOL0     H14584   7.601   7.914   3.625  0.2851  0.8314 -0.1781
  106MOL0     H14585   7.591   7.859   3.463 -1.4911  0.9299 -2.1527
  106MOL0     H14586   7.826   7.843   3.427  2.8396  0.1726 -0.3415
  106MOL0     H14587   7.975   7.744   3.339  0.9099 -0.5902 -1.5494
  106MOL0     H14588   8.132   7.813   3.389 -0.4116  1.0442  0.7752
  106MOL0     H14589   8.089   7.805   3.215  0.2688 -1.4618 -0.8272
  106MOL0     H14590   8.163   8.281   2.959  0.4148 -2.5976  1.5390
  106MOL0     H14591   8.309   8.441   2.851  4.4750 -0.4842 -0.9472
  106MOL0     H14592   8.351   8.638   2.835 -0.1763 -0.8471 -0.4509
  106MOL0     H14593   8.482   8.739   2.849 -0.6293  0.1461  3.8059
  106MOL0     H14594   8.638   8.578   2.705  0.2122  0.4204 -0.1947
  106MOL0     H14595   8.503   8.468   2.694  0.8862 -0.3493 -2.0315
  106MOL0     H14596   8.533   8.638   2.511  2.1381 -0.3398  1.7567
  106MOL0     H14597   8.461   8.760   2.620 -1.8034  0.1359 -0.1550
  106MOL0     H14598   8.245   8.625   2.644 -0.5639  3.0244 -0.4348
  106MOL0     H14599   8.339   8.493   2.566  4.1385  1.2689 -0.0937
  106MOL0     H14600   8.247   8.776   2.457  0.6464 -0.9288 -0.4097
  106MOL0     H14601   8.361   8.676   2.376  0.4035  2.8258 -0.0119
  106MOL0     H14602   8.067   8.629   2.448  0.3139 -0.8787 -0.2264
  106MOL0     H14603   8.154   8.510   2.369 -1.0680  1.2782  0.3454
  106MOL0     H14604   8.220   8.697   2.188 -0.6271 -1.6922 -0.9496
  106MOL0     H14605   8.079   8.780   2.261 -0.0561 -0.3562 -1.5551
  106MOL0     H14606   7.979   8.659   2.100 -2.4189 -3.2187  0.4582
  106MOL0     H14607   7.964   8.544   2.217  0.4737  0.7669  0.3801
  106MOL0     H14608   8.564   8.468   3.191 -0.3421  0.8765 -0.9025
  106MOL0     H14609   8.402   8.313   3.319 -1.6986 -1.6549 -0.6160
  106MOL0     H14610   7.952   8.276   3.246 -2.9129  1.5886  0.6373
  106MOL0     H14611   7.734   8.260   3.375  0.3279  0.0369  0.9094
  106MOL0     H14612   7.362   7.566   4.186  0.4555  1.7941  1.6716
  106MOL0     H14613   7.408   7.482   3.932  1.4954 -1.6284 -0.1113
  106MOL0     H14614   7.426   7.657   3.530 -2.7311 -0.7002 -3.9735
  106MOL0     H14615   7.413   7.651   3.293 -0.8158  3.6353  3.5815
  106MOL0     H14616   7.804   7.654   3.107  1.2464  3.4804 -1.8510
  106MOL0     H14617   7.705   7.631   2.957 -3.9272 -0.7768 -0.5005
  106MOL0     H14618   7.653   7.849   3.162  5.0286 -0.6281  1.3016
  106MOL0     H14619   7.578   7.798   3.007  1.2149  1.4054 -2.2970
  106MOL0     H14620   7.851   7.919   3.058  0.7323  3.8278 -1.2149
  106MOL0     H14621   7.789   7.867   2.891 -1.4629 -1.3294  0.6165
  106MOL0     H14622   7.629   8.055   3.080 -3.5675 -1.1685 -1.5396
  106MOL0     H14623   7.625   8.048   2.903  0.6725  2.8337 -1.8095
  106MOL0     H14624   7.912   8.327   2.918 -1.5946  1.3835  0.3998
  106MOL0     H14625   7.809   7.490   3.274 -2.1421 -2.0505 -2.6770
  106MOL0     H14626   7.941   7.451   3.449 -2.0445 -0.7570 -1.7119
  106MOL0     H14627   7.924   7.585   3.569  0.1454 -0.4762  1.5888
  106MOL0     H14628   7.873   7.422   3.605  0.1831 -1.2226 -0.8970
  107MOL0     O14629   0.296   4.663   4.384 -0.4493 -0.1859 -0.0294
  107MOL0     C14630   0.392   4.595   4.346 -0.5401 -0.1556 -0.4455
  107MOL0     O14631   0.404   4.462   4.380  0.0168 -0.1799  0.1538
  107MOL0     C14632   0.308   4.387   4.445 -0.2203  0.1586 -0.0888
  107MOL0     C14633   0.251   4.451   4.551 -0.2313  0.9702 -0.6614
  107MOL0     C14634   0.148   4.383   4.612  0.2260 -0.3101  0.1705
  107MOL0     C14635   0.099   4.254   4.566  0.1042 -0.0657 -1.1235
  107MOL0     O14636   0.005   4.195   4.640 -0.7270  0.0700 -0.7963
  107MOL0     C14637  -0.073   4.092   4.579 -0.7172  0.3654  0.6451
  107MOL0     C14638  -0.211   4.070   4.642  0.2938  1.0163  0.2486
  107MOL0     C14639  -0.205   4.024   4.791  0.3828 -0.4562 -0.8765
  107MOL0     C14640  -0.333   4.054   4.866  0.0963 -0.1406  0.1399
  107MOL0     C14641  -0.379   4.023   5.011  0.3907 -0.0344 -0.6615
  107MOL0     C14642  -0.514   4.094   5.050 -0.3586 -0.0997 -0.5528
  107MOL0     C14643  -0.556   4.075   5.198 -0.0884  0.1059  0.4309
  107MOL0     C14644  -0.607   3.939   5.233  0.5182  0.7492 -0.0934
  107MOL0     N14645  -0.753   3.938   5.224  0.2190  0.1212 -1.1961
  107MOL0     C14646  -0.839   3.935   5.114 -0.2930  0.1198 -1.2279
  107MOL0     C14647  -0.970   3.914   5.166 -0.3734  0.0557  0.2260
  107MOL0     C14648  -1.105   3.884   5.097 -0.2872 -0.1675 -0.5161
  107MOL0     C14649  -1.127   3.741   5.063 -0.2151  0.5049 -0.1651
  107MOL0     C14650  -1.134   3.638   5.174  0.5637 -0.3031  0.0702
  107MOL0     C14651  -1.219   3.671   5.300  0.5747  0.5843 -0.5002
  107MOL0     O14652  -1.360   3.670   5.263 -0.2560 -0.0219 -0.6759
  107MOL0     C14653  -1.398   3.547   5.223  0.3899 -0.0760  0.2791
  107MOL0     C14654  -1.364   3.421   5.270  0.9780  0.2459  0.3001
  107MOL0     C14655  -1.387   3.307   5.192  0.3713 -0.5949 -0.0948
  107MOL0     C14656  -1.328   3.188   5.250  0.2861  0.9553  0.1926
  107MOL0     C14657  -1.465   3.314   5.076  0.2681  0.1380 -0.3222
  107MOL0     C14658  -1.487   3.187   4.997 -1.5458  0.0732 -0.8644
  107MOL0     O14659  -1.617   3.172   4.963 -0.3385  0.2334 -0.2705
  107MOL0     C14660  -1.660   3.048   4.926 -0.2489 -0.3830  0.4785
  107MOL0     C14661  -1.629   2.932   5.003 -0.0662 -0.5379 -0.6657
  107MOL0     C14662  -1.663   2.804   4.963 -0.2740 -0.4899 -0.5361
  107MOL0     C14663  -1.735   2.789   4.850  0.4710  0.9849  0.1014
  107MOL0     O14664  -1.741   2.662   4.786 -0.3397 -0.6472  0.7760
  107MOL0     C14665  -1.680   2.554   4.857 -0.1224  0.2804  0.8019
  107MOL0     C14666  -1.715   2.433   4.774 -0.0727 -0.2864  0.6529
  107MOL0     C14667  -1.625   2.418   4.644 -0.5328 -0.1352 -0.5505
  107MOL0     C14668  -1.669   2.291   4.573 -0.6012 -0.4261 -0.3583
  107MOL0     C14669  -1.586   2.257   4.449 -0.0467  0.2662 -0.4749
  107MOL0     C14670  -1.664   2.139   4.384 -1.2084  0.6986 -0.5722
  107MOL0     C14671  -1.579   2.060   4.289  0.3539 -0.5514 -0.1291
  107MOL0     C14672  -1.675   1.963   4.198  1.5751  1.0215 -0.9321
  107MOL0    Cl14673  -1.682   1.793   4.260 -0.4703  0.2838  0.1253
  107MOL0     C14674  -1.786   2.898   4.780  0.5046 -0.6074  0.5217
  107MOL0     C14675  -1.734   3.027   4.812 -0.9207  0.0349  0.0080
  107MOL0     O14676  -1.392   3.119   4.963  0.3986  0.2064  0.3916
  107MOL0     C14677  -1.504   3.446   5.033  0.9731 -0.0084 -0.0807
  107MOL0     C14678  -1.478   3.556   5.108  0.8724 -1.3156  0.5292
  107MOL0     N14679  -0.950   3.904   5.304 -0.3300  0.5780 -0.8020
  107MOL0     N14680  -0.830   3.931   5.342  0.5194  0.5544  1.0906
  107MOL0     C14681   0.153   4.202   4.452  0.5803  0.2365  0.3014
  107MOL0     C14682   0.256   4.266   4.392  0.8346  0.1930 -0.0767
  107MOL0     C14683   0.500   4.664   4.268  0.4128 -0.3871 -0.5430
  107MOL0     C14684   0.632   4.635   4.299 -0.5916  0.0297  0.9730
  107MOL0     C14685   0.743   4.692   4.235 -0.2513  0.0857 -0.0711
  107MOL0     C14686   0.726   4.791   4.143  0.3301  0.2400  0.0936
  107MOL0     O14687   0.829   4.865   4.083  0.4182 -0.1925  0.8244
  107MOL0     C14688   0.937   4.787   4.026  0.0811  0.4822 -0.5654
  107MOL0     C14689   1.012   4.859   3.914 -0.9242 -0.6810 -0.5233
  107MOL0     C14690   1.115   4.956   3.961  0.8958  0.4855  0.3743
  107MOL0     C14691   1.214   4.976   3.842  0.2007 -0.1829 -0.2520
  107MOL0     C14692   1.155   5.037   3.716  1.1825  0.4997 -0.2836
  107MOL0     C14693   1.106   5.090   3.615 -0.3649  0.2191  0.0327
  107MOL0     C14694   0.604   4.823   4.100  0.4340  0.5118 -0.7152
  107MOL0     C14695   0.486   4.762   4.160 -0.0289  1.4214 -0.2451
  107MOL0     C14696   0.355   4.813   4.124 -0.1223  0.6454  0.3023
  107MOL0     H14697   0.292   4.542   4.595  2.8224  0.0001 -1.2777
  107MOL0     H14698   0.097   4.426   4.697 -0.6591 -1.8498  0.4578
  107MOL0     H14699  -0.002   4.010   4.591  2.2826  2.5885 -0.6904
  107MOL0     H14700  -0.091   4.110   4.473 -3.6553  0.8811  1.1490
  107MOL0     H14701  -0.283   4.151   4.629 -2.0880 -0.9281  0.6996
  107MOL0     H14702  -0.244   3.980   4.589  0.3548  1.5124 -0.6540
  107MOL0     H14703  -0.170   3.922   4.778  1.6781  0.0429 -1.4081
  107MOL0     H14704  -0.120   4.065   4.846  2.2871 -1.2642 -3.0432
  107MOL0     H14705  -0.320   4.162   4.868  2.0630 -0.3070 -0.9640
  107MOL0     H14706  -0.411   4.034   4.791 -1.8713  1.2328  1.7270
  107MOL0     H14707  -0.307   4.043   5.091 -0.4170  2.6168 -0.5110
  107MOL0     H14708  -0.386   3.914   5.023  1.4290 -0.1273 -0.8460
  107MOL0     H14709  -0.513   4.197   5.013 -1.0840 -1.2099 -4.0684
  107MOL0     H14710  -0.577   4.054   4.970  0.6837  2.3862 -2.7773
  107MOL0     H14711  -0.630   4.148   5.231 -1.0581 -1.1508  1.1161
  107MOL0     H14712  -0.463   4.079   5.257  1.3020 -0.8135 -1.5744
  107MOL0     H14713  -0.568   3.852   5.178  1.4998  0.7174  0.6191
  107MOL0     H14714  -0.578   3.905   5.333  4.4412 -0.3044 -1.3797
  107MOL0     H14715  -0.807   3.934   5.010  1.4861 -2.8663 -0.7576
  107MOL0     H14716  -1.098   3.951   5.011 -0.6693  1.2190  0.5023
  107MOL0     H14717  -1.192   3.916   5.155 -2.7665  2.6955 -5.1758
  107MOL0     H14718  -1.220   3.729   5.006 -0.8901  2.5951  0.4215
  107MOL0     H14719  -1.044   3.721   4.996  0.5201  1.7177  0.3465
  107MOL0     H14720  -1.167   3.542   5.132 -1.6571  0.2694  0.3644
  107MOL0     H14721  -1.030   3.641   5.206  0.8471  0.7079 -0.8590
  107MOL0     H14722  -1.199   3.606   5.386  0.2845  0.0117 -0.8550
  107MOL0     H14723  -1.193   3.768   5.343  0.2440  0.1656  0.7071
  107MOL0     H14724  -1.305   3.416   5.361 -1.4460 -1.4081  1.9017
  107MOL0     H14725  -1.403   3.111   5.272  1.3580  0.3737  1.9784
  107MOL0     H14726  -1.281   3.202   5.347 -2.0606  0.0491  1.5503
  107MOL0     H14727  -1.257   3.133   5.187 -0.0091 -0.1931  0.8252
  107MOL0     H14728  -1.566   2.952   5.089 -2.2486 -1.8145  1.3324
  107MOL0     H14729  -1.634   2.718   5.022  1.2357  2.4213  3.4251
  107MOL0     H14730  -1.572   2.562   4.873 -0.1701  1.2973  0.7324
  107MOL0     H14731  -1.735   2.553   4.952 -1.4264  3.0788  0.1889
  107MOL0     H14732  -1.706   2.345   4.838 -1.7124 -0.7931  0.2220
  107MOL0     H14733  -1.822   2.428   4.753 -0.0896 -4.7670  1.0097
  107MOL0     H14734  -1.520   2.419   4.673 -1.2792  0.5417  2.4738
  107MOL0     H14735  -1.648   2.496   4.572  1.7465 -1.5881 -3.0290
  107MOL0     H14736  -1.773   2.305   4.541 -0.7045 -2.3343 -0.9617
  107MOL0     H14737  -1.661   2.208   4.644  0.4157  0.4064  0.5428
  107MOL0     H14738  -1.573   2.337   4.376  0.3463 -0.5257 -1.2871
  107MOL0     H14739  -1.487   2.229   4.488 -0.2489  1.9960  1.4403
  107MOL0     H14740  -1.748   2.183   4.330  1.6489  1.2227 -5.1687
  107MOL0     H14741  -1.691   2.064   4.459  0.1355  0.9094  0.1713
  107MOL0     H14742  -1.500   2.000   4.335  1.3728  1.2477  0.5748
  107MOL0     H14743  -1.530   2.129   4.220 -0.7191  0.1057 -0.2439
  107MOL0     H14744  -1.635   1.941   4.099 -0.5635 -2.2757 -1.2336
  107MOL0     H14745  -1.777   1.992   4.173  1.2356  1.2585  0.6409
  107MOL0     H14746  -1.844   2.870   4.693  0.0753  0.0843  0.5852
  107MOL0     H14747  -1.761   3.114   4.753 -0.6729  0.7885  0.9820
  107MOL0     H14748  -1.578   3.466   4.956 -2.1593  0.9989  2.9408
  107MOL0     H14749  -1.519   3.651   5.076  1.8422 -1.2208 -0.4814
  107MOL0     H14750   0.115   4.104   4.422 -0.9897  0.3642  1.7111
  107MOL0     H14751   0.315   4.235   4.307  1.3614  2.7676 -0.7569
  107MOL0     H14752   0.666   4.563   4.373  1.1875  1.4517  1.5942
  107MOL0     H14753   0.846   4.680   4.267  1.1715 -0.4325 -4.1765
  107MOL0     H14754   1.007   4.769   4.107 -0.8339 -0.8968 -0.0510
  107MOL0     H14755   0.895   4.690   3.998  0.4834  0.3121 -0.5860
  107MOL0     H14756   0.941   4.924   3.861 -0.9130 -0.1653  0.0794
  107MOL0     H14757   1.056   4.774   3.862 -3.1457 -2.8380  0.8904
  107MOL0     H14758   1.067   5.052   3.983  0.4709 -0.4892  4.5217
  107MOL0     H14759   1.163   4.932   4.057 -2.4069 -0.5013  1.9110
  107MOL0     H14760   1.261   4.877   3.835  0.8446  0.1578 -0.8803
  107MOL0     H14761   1.294   5.044   3.872  1.2157 -1.6975  0.6490
  107MOL0     H14762   1.054   5.139   3.535 -0.6118  0.4826  0.3506
  107MOL0     H14763   0.597   4.905   4.030  0.7248  0.8075 -0.4007
  107MOL0     H14764   0.295   4.746   4.061 -1.4616 -1.3885  3.4364
  107MOL0     H14765   0.289   4.839   4.208  4.5158  1.3793  4.1092
  107MOL0     H14766   0.372   4.900   4.061 -0.5865  0.4533 -0.1009
  108MOL0     O14767   5.844   9.699   4.506 -0.5719 -0.6391 -0.1682
  108MOL0     C14768   5.841   9.595   4.440 -0.7031  0.1402  0.0763
  108MOL0     O14769   5.755   9.488   4.467  0.8954  0.9233 -1.0813
  108MOL0     C14770   5.647   9.519   4.538 -0.5189  0.3106  0.7593
  108MOL0     C14771   5.549   9.597   4.472  0.1991 -0.3524 -0.4770
  108MOL0     C14772   5.442   9.648   4.555  0.5219  0.3822 -0.2347
  108MOL0     C14773   5.425   9.598   4.682  0.7228 -1.5249  0.7467
  108MOL0     O14774   5.306   9.642   4.741  0.0494  0.5852 -0.2588
  108MOL0     C14775   5.291   9.603   4.870 -1.3964  0.5389  0.1527
  108MOL0     C14776   5.162   9.640   4.913  1.1842 -1.2924  0.0783
  108MOL0     C14777   5.176   9.792   4.929  1.0155 -0.6568 -0.6843
  108MOL0     C14778   5.036   9.857   4.952 -0.1887  0.4749  0.2863
  108MOL0     C14779   5.047  10.009   4.966  0.0501  0.8751  0.3349
  108MOL0     C14780   5.029  10.053   5.113 -0.1050  0.1194  0.6177
  108MOL0     C14781   5.090  10.188   5.148 -0.1221 -0.2039 -0.8181
  108MOL0     C14782   5.080  10.205   5.296 -0.5128 -0.1883  0.3441
  108MOL0     N14783   5.104  10.348   5.330 -0.6283 -0.1121  0.0212
  108MOL0     C14784   5.220  10.405   5.291  0.5143 -0.2114  0.2214
  108MOL0     C14785   5.211  10.535   5.330 -0.3536 -1.2684  0.0759
  108MOL0     C14786   5.336  10.623   5.334  0.0304 -0.0164  0.2031
  108MOL0     C14787   5.275  10.750   5.269 -0.0795 -0.2008  0.4684
  108MOL0     C14788   5.364  10.865   5.215  0.5916 -0.3702 -0.1683
  108MOL0     C14789   5.436  10.960   5.326 -0.7097 -0.5248 -0.3106
  108MOL0     O14790   5.478  11.074   5.250 -0.8335  0.8482  0.5650
  108MOL0     C14791   5.595  11.080   5.169  0.0681  0.2660 -0.9567
  108MOL0     C14792   5.611  11.205   5.126  0.5917  0.4406  0.8423
  108MOL0     C14793   5.697  11.232   5.019 -0.1360  0.1009  0.3799
  108MOL0     C14794   5.683  11.365   4.963  0.7968  0.2673 -0.7980
  108MOL0     C14795   5.785  11.134   4.975  0.7775  0.1000 -0.9521
  108MOL0     C14796   5.868  11.152   4.857  0.3000 -1.0887 -0.0787
  108MOL0     O14797   5.854  11.056   4.762 -0.4138  0.1731  0.5969
  108MOL0     C14798   5.910  11.041   4.637 -0.6592 -0.2407  0.1877
  108MOL0     C14799   5.836  10.957   4.536 -0.7611 -0.6875  0.1060
  108MOL0     C14800   5.881  10.950   4.403  0.7667  0.0512 -0.4140
  108MOL0     C14801   6.002  11.020   4.370  0.4430 -0.0593  0.2075
  108MOL0     O14802   6.068  11.038   4.246  0.2526  1.0015 -0.6258
  108MOL0     C14803   6.024  10.961   4.132 -0.5359  0.4093 -0.4365
  108MOL0     C14804   6.143  10.865   4.098  0.5930 -0.1704 -0.3528
  108MOL0     C14805   6.126  10.803   3.958  0.4133 -0.3771  0.1562
  108MOL0     C14806   6.018  10.696   3.952 -0.2550  0.8472 -0.1353
  108MOL0     C14807   6.023  10.609   3.827  0.5327 -0.3712  0.1731
  108MOL0     C14808   5.936  10.474   3.843 -0.1627  0.1073  0.2972
  108MOL0     C14809   5.805  10.494   3.925 -0.7169  1.4465 -0.0665
  108MOL0     C14810   5.729  10.365   3.936 -0.2832 -0.8726 -0.9523
  108MOL0    Cl14811   5.656  10.359   4.096  0.0449 -0.2668 -0.6065
  108MOL0     C14812   6.068  11.098   4.462  0.1690  0.1704  0.0587
  108MOL0     C14813   6.027  11.110   4.595  0.0924  0.2578  0.3951
  108MOL0     O14814   5.942  11.253   4.853 -0.0852  0.0403  0.2137
  108MOL0     C14815   5.779  11.009   5.030  1.0125  1.3576 -0.4671
  108MOL0     C14816   5.678  10.976   5.122 -1.2199  0.0595  0.4296
  108MOL0     N14817   5.095  10.558   5.398  0.0321 -0.9948  0.3330
  108MOL0     N14818   5.027  10.444   5.392 -0.7883 -0.6727 -1.3164
  108MOL0     C14819   5.520   9.511   4.734 -0.0579  0.0699 -0.7317
  108MOL0     C14820   5.635   9.468   4.667  0.3607 -0.1461 -0.5188
  108MOL0     C14821   5.942   9.572   4.332  0.3860 -0.0771 -0.5473
  108MOL0     C14822   5.891   9.533   4.215 -0.1392 -0.4130 -0.1039
  108MOL0     C14823   5.977   9.530   4.104  0.1389  0.2496  0.2635
  108MOL0     C14824   6.117   9.538   4.121  0.0943  0.4641 -0.5834
  108MOL0     O14825   6.192   9.564   4.015 -0.4742 -0.4385 -0.5287
  108MOL0     C14826   6.233   9.697   3.992  0.4184  0.0840 -0.1139
  108MOL0     C14827   6.125   9.788   3.930 -0.6619  0.1750 -0.2671
  108MOL0     C14828   6.182   9.918   3.872  1.5699 -0.3759 -0.2173
  108MOL0     C14829   6.097  10.039   3.907 -1.1186 -0.5229 -0.7361
  108MOL0     C14830   5.964  10.025   3.852  0.6139  0.2884 -0.3271
  108MOL0     C14831   5.857  10.033   3.800 -0.2933  0.6621 -0.4648
  108MOL0     C14832   6.161   9.555   4.242 -0.3583 -0.5108 -0.2131
  108MOL0     C14833   6.081   9.574   4.358  0.9645 -0.4612  1.3141
  108MOL0     C14834   6.159   9.598   4.481  0.7136 -0.6243  0.3005
  108MOL0     H14835   5.563   9.644   4.375 -0.4386  2.3285  0.6599
  108MOL0     H14836   5.374   9.723   4.517  1.2590  0.1508 -2.1241
  108MOL0     H14837   5.368   9.643   4.937 -0.3956  1.7061 -1.6080
  108MOL0     H14838   5.300   9.494   4.869  0.6186  0.6600 -0.4412
  108MOL0     H14839   5.092   9.609   4.834  1.6793  2.0635 -1.8624
  108MOL0     H14840   5.143   9.584   5.005  1.8335  1.5714  2.0958
  108MOL0     H14841   5.241   9.837   5.004 -0.6595 -0.8445  0.9340
  108MOL0     H14842   5.215   9.842   4.839  3.0611 -1.4565 -0.2838
  108MOL0     H14843   4.968   9.857   4.866 -3.9071  1.2440  2.9920
  108MOL0     H14844   4.972   9.812   5.029 -1.8322 -0.6943 -1.6669
  108MOL0     H14845   4.963  10.061   4.918  2.0653  2.1152 -2.0591
  108MOL0     H14846   5.140  10.033   4.915  2.4122 -3.0471  2.3528
  108MOL0     H14847   4.926  10.049   5.148  0.6121  0.5037  2.9990
  108MOL0     H14848   5.083   9.985   5.179 -1.3215  1.2363  2.8819
  108MOL0     H14849   5.043  10.282   5.117  4.0296  2.8097  1.1127
  108MOL0     H14850   5.193  10.187   5.111 -0.2545  0.1860 -1.2033
  108MOL0     H14851   4.980  10.171   5.327 -0.7096  0.9691  1.0238
  108MOL0     H14852   5.152  10.140   5.346 -0.0417  0.6892  0.8265
  108MOL0     H14853   5.303  10.350   5.248  3.6415  0.6688  4.5999
  108MOL0     H14854   5.424  10.585   5.281  0.6930 -1.1572  2.0522
  108MOL0     H14855   5.369  10.634   5.438  0.3038  0.1402  0.1025
  108MOL0     H14856   5.205  10.726   5.189  2.1557 -0.9927 -1.3724
  108MOL0     H14857   5.222  10.803   5.348  2.0026  2.7316  0.0822
  108MOL0     H14858   5.439  10.834   5.142 -0.2391  0.4057 -1.3867
  108MOL0     H14859   5.290  10.936   5.176  0.2560 -0.3592  0.4740
  108MOL0     H14860   5.360  10.977   5.403  0.7996 -1.2518  1.4035
  108MOL0     H14861   5.521  10.908   5.369  0.3994  0.2438 -1.4970
  108MOL0     H14862   5.549  11.290   5.152  1.3548  1.5996 -0.9118
  108MOL0     H14863   5.576  11.382   4.945  0.8111 -0.3183 -1.4681
  108MOL0     H14864   5.730  11.381   4.866 -1.8056 -0.2582 -2.2480
  108MOL0     H14865   5.727  11.438   5.031 -1.8028  1.7824 -0.6091
  108MOL0     H14866   5.756  10.891   4.568  0.0435  0.3019  5.1012
  108MOL0     H14867   5.822  10.891   4.334  0.3736 -2.2654  1.7690
  108MOL0     H14868   5.938  10.896   4.145  1.4434 -2.3348 -0.2436
  108MOL0     H14869   6.009  11.028   4.047  1.8893  2.6836  0.7616
  108MOL0     H14870   6.233  10.928   4.094 -0.3699  1.1838 -2.1093
  108MOL0     H14871   6.146  10.786   4.173  1.5399  0.6216  0.4790
  108MOL0     H14872   6.215  10.748   3.926 -1.3353 -1.1605 -3.9547
  108MOL0     H14873   6.101  10.878   3.882 -4.4280 -1.9439 -0.1255
  108MOL0     H14874   5.918  10.740   3.950 -0.7686 -0.3067 -0.9642
  108MOL0     H14875   6.038  10.637   4.042  3.1616  2.4669  0.3390
  108MOL0     H14876   5.966  10.669   3.755  0.7281  1.7806  1.7195
  108MOL0     H14877   6.121  10.587   3.784  0.3344 -0.1382 -0.4170
  108MOL0     H14878   6.007  10.404   3.889  1.5860  0.9571 -0.9665
  108MOL0     H14879   5.915  10.436   3.743  0.3643  1.1687 -0.2315
  108MOL0     H14880   5.748  10.573   3.876  0.9571  2.2499 -0.8007
  108MOL0     H14881   5.838  10.533   4.022  0.4509  0.6178 -0.1125
  108MOL0     H14882   5.807  10.289   3.925 -0.6503 -1.3434 -0.3922
  108MOL0     H14883   5.656  10.353   3.855  0.5720 -2.9980 -1.4828
  108MOL0     H14884   6.153  11.157   4.430  0.0705 -0.1930 -0.9062
  108MOL0     H14885   6.091  11.175   4.654  0.2005  0.1390  0.4111
  108MOL0     H14886   5.839  10.929   4.987 -0.3061 -1.2333  2.1817
  108MOL0     H14887   5.655  10.873   5.146 -2.9363 -0.0072 -1.2052
  108MOL0     H14888   5.509   9.467   4.832  1.6612 -0.7013 -0.8478
  108MOL0     H14889   5.711   9.406   4.715  1.1760  0.2949 -1.2313
  108MOL0     H14890   5.785   9.527   4.192 -0.0960  0.7824 -0.7102
  108MOL0     H14891   5.937   9.531   4.003 -0.0238 -1.0078  0.2958
  108MOL0     H14892   6.264   9.745   4.085 -2.1043  2.1592 -0.2170
  108MOL0     H14893   6.315   9.685   3.921  0.1452 -0.7326 -0.3010
  108MOL0     H14894   6.046   9.812   4.001  1.0660  1.4714  1.3125
  108MOL0     H14895   6.092   9.743   3.835  0.6032  1.5055 -1.3854
  108MOL0     H14896   6.288   9.928   3.895  2.0925 -0.7806 -2.2986
  108MOL0     H14897   6.179   9.906   3.763  1.1417 -1.7803 -0.0794
  108MOL0     H14898   6.145  10.132   3.876  3.7780 -1.9959  1.5214
  108MOL0     H14899   6.092  10.039   4.016 -3.8613 -0.8988 -0.7778
  108MOL0     H14900   5.769  10.054   3.742 -1.1514  2.8766  1.4393
  108MOL0     H14901   6.268   9.552   4.255 -0.4885  0.7271  1.4953
  108MOL0     H14902   6.099   9.609   4.572  1.4727  1.7155  0.5683
  108MOL0     H14903   6.230   9.517   4.504  0.0637 -0.7265  2.1044
  108MOL0     H14904   6.195   9.700   4.469 -6.0461  1.8997 -2.8363
  109MOL0     O14905   3.778  11.299  10.937  0.1234  0.5061 -0.0076
  109MOL0     C14906   3.679  11.317  11.016 -0.6117  1.0334  0.1936
  109MOL0     O14907   3.678  11.264  11.139  0.0900  0.1602 -0.0708
  109MOL0     C14908   3.783  11.238  11.222  0.3584  0.1140 -0.2800
  109MOL0     C14909   3.911  11.302  11.207 -0.3801 -0.7489 -0.9907
  109MOL0     C14910   4.012  11.276  11.304  0.1921 -0.4751  1.7784
  109MOL0     C14911   3.992  11.197  11.415  0.2490  0.0150 -0.1956
  109MOL0     O14912   4.078  11.178  11.519  0.0581 -0.0486  0.0452
  109MOL0     C14913   4.183  11.266  11.540 -0.2999  0.6824 -0.5530
  109MOL0     C14914   4.247  11.253  11.675  0.0172 -0.0906  0.5235
  109MOL0     C14915   4.206  11.366  11.770  0.2121  0.2026 -0.0449
  109MOL0     C14916   4.067  11.345  11.821  0.5517 -1.2532 -0.2680
  109MOL0     C14917   4.027  11.460  11.914 -0.4231  0.2926 -0.4357
  109MOL0     C14918   3.990  11.583  11.843  0.9965  0.3092  0.3500
  109MOL0     C14919   3.949  11.695  11.933 -0.5944 -0.3831  0.5638
  109MOL0     C14920   3.826  11.694  12.023  1.1941 -0.0838 -0.2009
  109MOL0     N14921   3.698  11.678  11.959 -0.1525 -0.0864 -0.5008
  109MOL0     C14922   3.641  11.562  11.916  0.2456  0.1480  0.1271
  109MOL0     C14923   3.512  11.583  11.886  0.0921  0.4393 -1.4472
  109MOL0     C14924   3.404  11.494  11.810  0.4660 -1.2097 -0.3918
  109MOL0     C14925   3.320  11.398  11.907 -0.8369  0.1238  0.8962
  109MOL0     C14926   3.417  11.298  11.973  0.5874 -0.0661 -0.9893
  109MOL0     C14927   3.328  11.201  12.043 -1.4475  0.0751 -0.0822
  109MOL0     O14928   3.423  11.104  12.110  0.0694 -0.2347 -0.0098
  109MOL0     C14929   3.375  10.991  12.163 -0.1494  0.1721 -0.0794
  109MOL0     C14930   3.245  10.968  12.197 -1.1356 -0.0330 -0.3809
  109MOL0     C14931   3.200  10.849  12.260  0.4217 -0.5702  0.4103
  109MOL0     C14932   3.055  10.836  12.299 -0.5018  0.7000 -0.2024
  109MOL0     C14933   3.295  10.748  12.282  0.5875 -0.1945 -0.2579
  109MOL0     C14934   3.258  10.619  12.348  0.6853 -0.4974 -0.1057
  109MOL0     O14935   3.141  10.569  12.316  0.0716  0.2235  0.0643
  109MOL0     C14936   3.091  10.463  12.376  0.2659 -0.4034 -0.0659
  109MOL0     C14937   3.078  10.346  12.296  0.3257 -0.9024 -0.1112
  109MOL0     C14938   3.030  10.225  12.352  0.5753 -0.5846 -0.0916
  109MOL0     C14939   2.997  10.219  12.485 -0.4413  0.0249 -0.2443
  109MOL0     O14940   2.925  10.111  12.526 -0.6825 -0.4058 -0.1287
  109MOL0     C14941   2.819  10.129  12.614 -0.0450  0.6734 -0.3187
  109MOL0     C14942   2.685  10.128  12.537  0.4950  1.2691  0.5894
  109MOL0     C14943   2.573  10.171  12.630  1.3391  0.2717  0.2834
  109MOL0     C14944   2.535  10.063  12.728  0.4567  0.8478  0.0492
  109MOL0     C14945   2.420  10.110  12.823 -0.1207 -0.2912  0.9692
  109MOL0     C14946   2.346   9.994  12.886  0.8730 -0.1068  0.0045
  109MOL0     C14947   2.430   9.952  13.013  0.6530  0.6958  0.0361
  109MOL0     C14948   2.346   9.875  13.114  0.5339 -0.1528 -1.0345
  109MOL0    Cl14949   2.188   9.956  13.157 -0.6131  0.0332  0.5992
  109MOL0     C14950   3.011  10.337  12.562  0.3682  0.0023 -0.6741
  109MOL0     C14951   3.051  10.457  12.507  0.8692 -0.3426 -0.5063
  109MOL0     O14952   3.322  10.578  12.442 -0.5607  0.6616 -0.2111
  109MOL0     C14953   3.430  10.779  12.249  0.1639 -0.5025 -0.1979
  109MOL0     C14954   3.472  10.898  12.199 -0.4966  0.0975  0.2774
  109MOL0     N14955   3.495  11.724  11.908  0.2706  0.1083 -0.2001
  109MOL0     N14956   3.603  11.779  11.950 -0.2108  0.0827  0.0241
  109MOL0     C14957   3.865  11.129  11.430  0.3016  0.4288  0.1797
  109MOL0     C14958   3.762  11.153  11.328  0.6477  0.1744  0.4767
  109MOL0     C14959   3.550  11.394  10.981  0.0645 -0.4987 -0.2482
  109MOL0     C14960   3.458  11.423  11.081 -0.0963 -0.0674  0.0679
  109MOL0     C14961   3.351  11.515  11.056  0.9097 -0.1094  0.1173
  109MOL0     C14962   3.335  11.573  10.929 -0.1707 -0.5578 -0.7440
  109MOL0     O14963   3.238  11.667  10.895 -0.0635 -0.0505  0.0409
  109MOL0     C14964   3.171  11.749  10.990 -0.0742 -1.4965 -0.1462
  109MOL0     C14965   3.064  11.843  10.929 -0.2783  0.5252  0.3206
  109MOL0     C14966   3.124  11.955  10.852 -0.4190 -0.8760  1.1940
  109MOL0     C14967   3.024  12.061  10.800 -0.6769 -0.0367  0.6655
  109MOL0     C14968   2.927  12.115  10.903 -0.0846 -0.0866 -0.3740
  109MOL0     C14969   2.847  12.169  10.977  0.5086  0.3764  0.5906
  109MOL0     C14970   3.414  11.524  10.822  0.0047 -0.0117  0.5653
  109MOL0     C14971   3.513  11.432  10.848  0.7903  0.0852 -0.7645
  109MOL0     C14972   3.606  11.400  10.729 -0.0590 -0.5016  0.5800
  109MOL0     H14973   3.939  11.361  11.121 -4.1681  0.2935 -1.6802
  109MOL0     H14974   4.110  11.324  11.302 -0.4729  0.9119  1.0034
  109MOL0     H14975   4.157  11.365  11.502  0.2959  1.8285  1.8456
  109MOL0     H14976   4.265  11.222  11.481  1.9184  1.4412  1.8059
  109MOL0     H14977   4.229  11.150  11.705 -1.3117 -0.7781 -2.3094
  109MOL0     H14978   4.356  11.265  11.670  0.3156 -0.8317  3.2820
  109MOL0     H14979   4.279  11.364  11.852 -3.2042 -0.6231  3.2685
  109MOL0     H14980   4.216  11.463  11.720  0.8663 -0.4511 -1.2163
  109MOL0     H14981   4.002  11.328  11.734 -2.7405 -1.7412  2.0826
  109MOL0     H14982   4.064  11.247  11.871  0.4037 -0.6148  1.0050
  109MOL0     H14983   4.115  11.493  11.970 -1.7201  0.8308  1.3647
  109MOL0     H14984   3.941  11.432  11.975 -0.5864 -1.2626 -1.3375
  109MOL0     H14985   4.075  11.619  11.784  0.5861 -1.1670 -1.1982
  109MOL0     H14986   3.906  11.559  11.777  1.9461 -0.0257 -0.7791
  109MOL0     H14987   3.935  11.782  11.867  3.2822 -0.4454 -0.5924
  109MOL0     H14988   4.043  11.724  11.982  0.2223  2.4013 -2.2990
  109MOL0     H14989   3.850  11.622  12.101 -1.5488 -0.6975  0.1822
  109MOL0     H14990   3.823  11.790  12.077  0.4997 -0.5164  0.5498
  109MOL0     H14991   3.696  11.470  11.898 -1.8856 -0.7711 -2.2769
  109MOL0     H14992   3.465  11.439  11.738  2.9314 -0.5971  1.1100
  109MOL0     H14993   3.335  11.560  11.758 -0.0524 -1.8270 -0.5031
  109MOL0     H14994   3.278  11.454  11.990  0.2217 -0.0338  1.5456
  109MOL0     H14995   3.236  11.346  11.859  0.5975 -0.5192 -1.0548
  109MOL0     H14996   3.489  11.241  11.914  4.3743  0.8203  2.3155
  109MOL0     H14997   3.477  11.352  12.047  0.2086 -1.5336  0.4401
  109MOL0     H14998   3.272  11.249  12.124 -1.1559 -0.7080  0.6100
  109MOL0     H14999   3.271  11.146  11.968 -0.5659 -2.0730  0.7184
  109MOL0     H15000   3.173  11.041  12.161 -1.6566 -0.3337  0.0367
  109MOL0     H15001   3.011  10.746  12.255  1.9887 -0.2906 -0.8477
  109MOL0     H15002   3.000  10.921  12.259  0.0870 -0.1271 -3.0287
  109MOL0     H15003   3.051  10.833  12.408 -1.0758  0.3345 -0.2304
  109MOL0     H15004   3.114  10.357  12.194 -0.2914  1.4490 -0.1414
  109MOL0     H15005   3.033  10.133  12.294 -1.4114  0.5468 -2.0896
  109MOL0     H15006   2.825  10.044  12.683  1.1167  1.9081  1.1831
  109MOL0     H15007   2.816  10.222  12.672  0.4124 -1.9339  4.3905
  109MOL0     H15008   2.689  10.187  12.445 -0.1854 -1.7594 -1.5229
  109MOL0     H15009   2.681  10.024  12.504  2.5638  1.6706 -1.1563
  109MOL0     H15010   2.486  10.199  12.570  2.7173  3.9039 -0.2628
  109MOL0     H15011   2.602  10.260  12.686  0.1421 -0.6800  2.5443
  109MOL0     H15012   2.622  10.047  12.792 -0.5489  3.6771  2.3335
  109MOL0     H15013   2.497   9.977  12.672 -1.7023  2.2588 -0.8026
  109MOL0     H15014   2.466  10.180  12.892  3.4909 -2.4095  0.9388
  109MOL0     H15015   2.345  10.163  12.763  1.0851 -0.4053 -0.7221
  109MOL0     H15016   2.338   9.915  12.811  0.2151 -0.5368  0.5161
  109MOL0     H15017   2.244  10.034  12.897  0.5386 -0.1166 -2.4961
  109MOL0     H15018   2.476  10.042  13.055 -0.6206  2.3052 -1.8310
  109MOL0     H15019   2.515   9.890  12.983  2.4675  2.4585  1.2974
  109MOL0     H15020   2.403   9.863  13.207  3.3059  2.2597 -2.2533
  109MOL0     H15021   2.311   9.785  13.063 -1.4619  0.2506 -0.4702
  109MOL0     H15022   2.987  10.331  12.668 -2.1445  0.3263 -1.1605
  109MOL0     H15023   3.050  10.546  12.568 -0.8555 -2.6021  3.0499
  109MOL0     H15024   3.497  10.695  12.260 -0.8267 -1.0426  2.8956
  109MOL0     H15025   3.576  10.917  12.173 -0.7366 -0.7940 -1.4063
  109MOL0     H15026   3.841  11.061  11.511 -1.7078 -2.0812 -2.3139
  109MOL0     H15027   3.662  11.113  11.336 -0.6803  3.0680 -0.3111
  109MOL0     H15028   3.480  11.393  11.183  1.5419 -1.2648 -0.5999
  109MOL0     H15029   3.306  11.567  11.141  3.9616 -0.9947  2.4582
  109MOL0     H15030   3.106  11.692  11.057 -1.9635 -1.1291 -1.5762
  109MOL0     H15031   3.248  11.812  11.036  0.4799 -0.0966 -2.7929
  109MOL0     H15032   2.993  11.884  11.002  0.6026 -0.6297  1.8974
  109MOL0     H15033   3.013  11.778  10.857  2.2742 -1.3323  0.0708
  109MOL0     H15034   3.194  12.005  10.919  0.2194 -1.2694  0.8339
  109MOL0     H15035   3.194  11.934  10.771 -2.0381  2.7646 -1.3774
  109MOL0     H15036   2.955  12.010  10.732  0.9114 -0.9030 -0.3564
  109MOL0     H15037   3.077  12.142  10.749  0.3190  2.1753  4.7742
  109MOL0     H15038   2.770  12.200  11.045 -1.8544 -0.8866 -1.3606
  109MOL0     H15039   3.406  11.558  10.720 -1.0313 -3.3431 -0.5740
  109MOL0     H15040   3.703  11.448  10.749 -0.6428  2.5798 -2.9974
  109MOL0     H15041   3.614  11.295  10.700 -1.6356 -0.9876  1.7333
  109MOL0     H15042   3.563  11.460  10.649 -1.5147 -0.1563  1.5844
  110MOL0     O15043   3.329   4.106   7.061 -0.2898 -0.3117  0.4060
  110MOL0     C15044   3.216   4.172   7.054 -1.2702 -1.0685  0.1733
  110MOL0     O15045   3.174   4.254   7.159 -0.3246  0.7150 -0.0809
  110MOL0     C15046   3.239   4.257   7.282 -1.1971  0.0398  0.7684
  110MOL0     C15047   3.281   4.374   7.339  0.2370 -0.0603 -0.1883
  110MOL0     C15048   3.333   4.379   7.470  0.3525 -0.4594 -0.3936
  110MOL0     C15049   3.357   4.260   7.530 -0.3246  0.4602 -0.7154
  110MOL0     O15050   3.425   4.274   7.649 -0.6906 -0.2209 -0.3957
  110MOL0     C15051   3.534   4.180   7.683 -0.1893 -0.1877 -0.2754
  110MOL0     C15052   3.640   4.266   7.758  0.2716  0.5456  0.6288
  110MOL0     C15053   3.772   4.185   7.787  0.9574 -0.5996 -0.2307
  110MOL0     C15054   3.735   4.068   7.873 -0.9597 -0.5402  0.6348
  110MOL0     C15055   3.852   3.999   7.947 -0.6277  0.2480  0.1124
  110MOL0     C15056   3.989   3.996   7.876  0.0754  0.1707  0.5190
  110MOL0     C15057   4.100   3.917   7.957 -0.2071  0.2990  0.1277
  110MOL0     C15058   4.226   3.924   7.870 -0.0145 -0.6276  1.0252
  110MOL0     N15059   4.323   3.829   7.919 -0.6627 -0.5645 -0.2853
  110MOL0     C15060   4.411   3.846   8.028  0.5011 -0.0585 -0.2456
  110MOL0     C15061   4.475   3.731   8.040 -0.5244  0.0834 -0.1145
  110MOL0     C15062   4.582   3.683   8.140 -0.0345 -0.2026 -0.5967
  110MOL0     C15063   4.625   3.537   8.114  0.1376  0.1585 -0.0544
  110MOL0     C15064   4.723   3.466   8.213 -1.0002 -0.4755 -0.3516
  110MOL0     C15065   4.664   3.427   8.344 -0.1816  0.4150 -0.4374
  110MOL0     O15066   4.607   3.526   8.436 -0.5424 -0.5768 -0.2418
  110MOL0     C15067   4.700   3.615   8.485  1.1303  0.9594 -0.7258
  110MOL0     C15068   4.648   3.739   8.519 -1.2086 -0.4575 -0.3755
  110MOL0     C15069   4.727   3.836   8.585  0.1714  0.3244  0.0811
  110MOL0     C15070   4.668   3.967   8.623  0.1654  0.3161  1.0227
  110MOL0     C15071   4.863   3.812   8.589 -0.6639  0.4523  0.1950
  110MOL0     C15072   4.965   3.914   8.629 -0.3690  0.2953  0.6922
  110MOL0     O15073   4.948   4.041   8.599 -0.4165  0.1246  0.2645
  110MOL0     C15074   5.040   4.140   8.635  0.3019  0.3227  0.3006
  110MOL0     C15075   5.096   4.140   8.765 -0.0761 -0.3337  0.7214
  110MOL0     C15076   5.191   4.234   8.776 -0.6382 -0.7462  0.4831
  110MOL0     C15077   5.221   4.338   8.690  1.0037  1.1217 -0.6539
  110MOL0     O15078   5.310   4.442   8.697 -0.0034 -0.1900 -0.1265
  110MOL0     C15079   5.377   4.472   8.820 -0.2461  0.1501 -0.3678
  110MOL0     C15080   5.455   4.598   8.804 -0.4955  0.9142 -0.3940
  110MOL0     C15081   5.589   4.564   8.729  0.0737 -0.2392 -0.8852
  110MOL0     C15082   5.595   4.495   8.598 -0.4222 -0.3595  0.3238
  110MOL0     C15083   5.723   4.532   8.508  0.0153 -0.5943 -0.2982
  110MOL0     C15084   5.858   4.491   8.565 -0.1470  0.6016 -0.6581
  110MOL0     C15085   5.870   4.340   8.603 -0.2674  0.2939 -0.3905
  110MOL0     C15086   6.007   4.284   8.610  0.4754 -1.3766  0.2716
  110MOL0    Cl15087   6.093   4.269   8.453  0.3407 -0.3803  0.0634
  110MOL0     C15088   5.153   4.341   8.568 -0.9102  0.2964 -0.1904
  110MOL0     C15089   5.066   4.240   8.539 -0.2852  0.1049 -0.3711
  110MOL0     O15090   5.057   3.871   8.690 -0.9597 -0.0772 -0.6780
  110MOL0     C15091   4.911   3.681   8.565 -0.0707  0.1483  0.8130
  110MOL0     C15092   4.832   3.580   8.517 -0.8644 -0.3770  0.2038
  110MOL0     N15093   4.433   3.648   7.940  0.0408 -0.0768 -0.1879
  110MOL0     N15094   4.342   3.706   7.865 -0.4308  0.1171 -0.3918
  110MOL0     C15095   3.336   4.138   7.464  0.2265  0.3051  0.2315
  110MOL0     C15096   3.270   4.138   7.342 -0.6044  0.6963  0.9924
  110MOL0     C15097   3.126   4.158   6.937 -0.5393 -0.3272 -0.4840
  110MOL0     C15098   3.007   4.238   6.938 -0.8823  0.6632  0.1326
  110MOL0     C15099   2.905   4.206   6.846 -0.0243  0.5677  0.5778
  110MOL0     C15100   2.930   4.116   6.741 -0.0632 -0.0647 -0.2811
  110MOL0     O15101   2.836   4.083   6.645  0.0168 -0.7698 -0.6918
  110MOL0     C15102   2.705   4.133   6.657  0.8929  0.3731 -0.7103
  110MOL0     C15103   2.638   4.099   6.525 -0.1860 -0.1199 -0.0642
  110MOL0     C15104   2.732   4.126   6.407 -0.4287  0.0853  0.2734
  110MOL0     C15105   2.663   4.156   6.276  0.5876  1.0003 -0.8244
  110MOL0     C15106   2.571   4.045   6.246 -0.6549 -0.4201  0.0306
  110MOL0     C15107   2.483   3.972   6.228 -0.0634 -0.0852 -0.3474
  110MOL0     C15108   3.064   4.068   6.723  0.5963 -0.5670  0.3071
  110MOL0     C15109   3.156   4.085   6.821 -0.3376 -0.4497  0.1616
  110MOL0     C15110   3.295   4.016   6.798  0.3511  0.3962 -0.4089
  110MOL0     H15111   3.277   4.468   7.285  2.5534 -1.0225 -2.2206
  110MOL0     H15112   3.372   4.476   7.501  3.3796 -1.9168  0.6715
  110MOL0     H15113   3.585   4.140   7.595  0.4386 -1.5324  0.6582
  110MOL0     H15114   3.491   4.107   7.753 -4.0714  0.3480 -1.8373
  110MOL0     H15115   3.668   4.356   7.702  0.2703  1.2375  1.7168
  110MOL0     H15116   3.599   4.302   7.852 -1.6868 -4.2605  1.9340
  110MOL0     H15117   3.817   4.154   7.693  0.3204  1.2319 -1.1957
  110MOL0     H15118   3.827   4.264   7.840  0.0591  0.7263 -1.2077
  110MOL0     H15119   3.667   4.086   7.957 -0.5090  0.6237  0.7754
  110MOL0     H15120   3.685   3.997   7.807  1.6338 -2.0850  0.1716
  110MOL0     H15121   3.824   3.898   7.978  0.4428  0.3479  1.4689
  110MOL0     H15122   3.868   4.038   8.048 -0.5688 -0.7364  0.4896
  110MOL0     H15123   3.987   3.948   7.777 -0.2030  2.9802 -0.9434
  110MOL0     H15124   4.038   4.093   7.860  3.5801 -0.9215  3.3060
  110MOL0     H15125   4.066   3.815   7.972 -3.2909  1.1586 -0.2741
  110MOL0     H15126   4.110   3.970   8.053 -1.1166  0.3183  0.2301
  110MOL0     H15127   4.186   3.900   7.771  0.3769 -2.1940  1.2181
  110MOL0     H15128   4.271   4.023   7.861 -0.0583 -0.4784  2.3347
  110MOL0     H15129   4.422   3.939   8.084 -2.2629 -0.7385  1.6431
  110MOL0     H15130   4.543   3.711   8.239  1.8679 -1.2482  0.5038
  110MOL0     H15131   4.679   3.729   8.122  1.4681 -3.2976 -1.0650
  110MOL0     H15132   4.533   3.477   8.111 -0.7271  1.4542 -1.6259
  110MOL0     H15133   4.656   3.527   8.010 -2.6220  1.5378 -1.1170
  110MOL0     H15134   4.761   3.376   8.166  3.5780  1.9083 -1.7547
  110MOL0     H15135   4.801   3.541   8.228 -1.7307 -0.0404  1.5722
  110MOL0     H15136   4.570   3.372   8.336  0.5253 -0.9127 -0.0222
  110MOL0     H15137   4.740   3.363   8.391 -1.1803  0.9735  2.0985
  110MOL0     H15138   4.544   3.747   8.491 -1.6102  1.0720  1.3462
  110MOL0     H15139   4.559   3.963   8.612  0.3754  1.0440 -2.3501
  110MOL0     H15140   4.704   4.040   8.550  1.8888 -1.0143  0.4624
  110MOL0     H15141   4.692   3.991   8.727  0.9909 -2.4709  1.5507
  110MOL0     H15142   5.090   4.066   8.845  0.1802 -1.5810 -0.3808
  110MOL0     H15143   5.245   4.223   8.870 -0.4589  3.2483  1.0358
  110MOL0     H15144   5.320   4.485   8.912  2.9178  1.4549  1.5857
  110MOL0     H15145   5.437   4.389   8.858  1.6613  1.8301  0.5086
  110MOL0     H15146   5.391   4.680   8.770 -0.1687  0.9173 -1.0101
  110MOL0     H15147   5.478   4.622   8.908 -0.6493  0.7197 -0.3125
  110MOL0     H15148   5.638   4.499   8.802 -2.2254  3.0997  4.2351
  110MOL0     H15149   5.649   4.653   8.715 -1.5661  0.6297 -3.0165
  110MOL0     H15150   5.506   4.530   8.546 -1.9969 -0.3322  2.8246
  110MOL0     H15151   5.583   4.387   8.612  3.1938 -1.0204 -0.7828
  110MOL0     H15152   5.712   4.482   8.412 -2.2537  1.4635 -1.2134
  110MOL0     H15153   5.723   4.633   8.465  1.7627 -1.1192 -1.6463
  110MOL0     H15154   5.881   4.544   8.658  2.6193  1.5569 -1.7945
  110MOL0     H15155   5.936   4.518   8.494 -0.1094 -0.7735 -1.1673
  110MOL0     H15156   5.836   4.278   8.520  1.3714 -1.3341  0.1020
  110MOL0     H15157   5.819   4.320   8.697  2.3921 -2.6410  0.5914
  110MOL0     H15158   5.994   4.189   8.663 -0.6129 -2.9084 -2.5659
  110MOL0     H15159   6.063   4.349   8.679  0.8256 -2.0158  0.6032
  110MOL0     H15160   5.169   4.416   8.491 -2.4120 -1.2732 -2.1545
  110MOL0     H15161   5.012   4.237   8.445  2.3031  2.4195 -2.0948
  110MOL0     H15162   5.016   3.654   8.572  0.4101  1.7590  0.1538
  110MOL0     H15163   4.869   3.478   8.521  2.4509  0.4922 -2.9737
  110MOL0     H15164   3.370   4.056   7.527 -1.3415  0.4614  1.3481
  110MOL0     H15165   3.227   4.048   7.300  0.5888 -0.5429  2.3323
  110MOL0     H15166   2.971   4.304   7.017 -0.9653  2.6388 -1.4842
  110MOL0     H15167   2.807   4.251   6.861 -1.7776 -1.7820 -2.5814
  110MOL0     H15168   2.646   4.091   6.740  3.7281 -2.6541  0.0037
  110MOL0     H15169   2.708   4.241   6.671  2.2333  0.1965  0.6780
  110MOL0     H15170   2.548   4.162   6.523  0.0495  0.3683 -4.3221
  110MOL0     H15171   2.621   3.991   6.521 -0.5347 -0.0482 -0.7013
  110MOL0     H15172   2.785   4.220   6.426 -0.5936  0.6662 -1.8549
  110MOL0     H15173   2.809   4.050   6.395  1.0865  1.3786  1.3485
  110MOL0     H15174   2.727   4.165   6.188  0.4747  1.9403 -0.8215
  110MOL0     H15175   2.612   4.252   6.288 -0.2527  0.1746  4.6250
  110MOL0     H15176   2.389   3.922   6.229  0.2203 -0.6171  0.0870
  110MOL0     H15177   3.084   4.012   6.632 -1.3084  2.0634 -1.9024
  110MOL0     H15178   3.317   3.950   6.882  2.4728  2.3758  0.7284
  110MOL0     H15179   3.285   3.947   6.714  0.4976 -0.7385  0.4830
  110MOL0     H15180   3.384   4.077   6.781  1.2758  0.2519  3.1427
  111MOL0     O15181   1.800   5.249   8.502 -0.8623 -0.3080  1.2764
  111MOL0     C15182   1.857   5.284   8.395 -1.0587 -0.1395 -0.0897
  111MOL0     O15183   1.834   5.404   8.330 -0.2802  0.5050 -0.1721
  111MOL0     C15184   1.730   5.493   8.362  0.4219  0.4979 -0.2208
  111MOL0     C15185   1.750   5.629   8.372 -0.4576  0.3684  0.2832
  111MOL0     C15186   1.647   5.712   8.402  0.1334  0.0389  0.4568
  111MOL0     C15187   1.519   5.679   8.424  0.2549  0.5045 -0.1896
  111MOL0     O15188   1.422   5.774   8.457  0.6803 -0.3101 -0.3471
  111MOL0     C15189   1.453   5.890   8.530  1.0851  0.8198  0.1221
  111MOL0     C15190   1.505   5.848   8.670 -0.1908 -0.1650 -0.2019
  111MOL0     C15191   1.406   5.752   8.743  0.2168  0.0671  0.1435
  111MOL0     C15192   1.255   5.807   8.743 -0.1527 -0.8057  0.5245
  111MOL0     C15193   1.157   5.752   8.851  0.6311 -0.3080  0.5505
  111MOL0     C15194   1.202   5.768   9.001  0.0947  0.1795 -0.2859
  111MOL0     C15195   1.091   5.759   9.111  0.5907 -0.2781  1.2851
  111MOL0     C15196   0.972   5.846   9.086  0.1903  0.1505 -0.6698
  111MOL0     N15197   0.876   5.846   9.198  0.5123 -0.3329  0.2378
  111MOL0     C15198   0.788   5.747   9.217  0.6079  0.0067 -0.5422
  111MOL0     C15199   0.731   5.780   9.335 -0.2148  0.1096 -0.9994
  111MOL0     C15200   0.635   5.697   9.424  0.2884 -0.3209  0.3645
  111MOL0     C15201   0.674   5.667   9.565 -0.2795  0.0385 -0.2251
  111MOL0     C15202   0.587   5.768   9.656 -1.1717 -0.1149  0.0728
  111MOL0     C15203   0.644   5.910   9.646 -0.9037 -1.1191 -0.5308
  111MOL0     O15204   0.588   5.981   9.755  0.1155 -0.2602 -0.4495
  111MOL0     C15205   0.661   6.073   9.828  0.0006  0.2671 -0.1019
  111MOL0     C15206   0.783   6.127   9.783 -0.3304  0.2832  0.2789
  111MOL0     C15207   0.863   6.216   9.859 -0.2308  0.5058  0.0743
  111MOL0     C15208   0.991   6.272   9.784  0.2398 -0.3302 -0.8723
  111MOL0     C15209   0.847   6.224   9.999  0.1373 -0.1391 -0.0711
  111MOL0     C15210   0.928   6.303  10.101 -0.1403 -0.2573  0.1405
  111MOL0     O15211   0.884   6.303  10.233  0.0479  0.6842  0.0789
  111MOL0     C15212   0.975   6.342  10.333  0.5415 -0.7803 -0.4728
  111MOL0     C15213   1.107   6.290  10.338  1.0104  0.8004  0.7835
  111MOL0     C15214   1.192   6.306  10.432 -0.4400  1.4828 -0.2409
  111MOL0     C15215   1.160   6.388  10.543  0.5834  0.3408  0.0182
  111MOL0     O15216   1.239   6.414  10.643 -0.9052 -0.3394  0.4977
  111MOL0     C15217   1.375   6.444  10.612  0.3658 -0.4510  0.5238
  111MOL0     C15218   1.406   6.539  10.727  0.5195 -0.1634  0.7174
  111MOL0     C15219   1.418   6.692  10.689  0.7721  1.0644  0.0549
  111MOL0     C15220   1.519   6.703  10.572 -0.2126  0.6546  0.2646
  111MOL0     C15221   1.607   6.825  10.572 -0.2409 -0.6895  0.5514
  111MOL0     C15222   1.700   6.823  10.443  0.8093  0.0455 -0.1884
  111MOL0     C15223   1.796   6.933  10.437  0.5221 -0.7711 -0.2902
  111MOL0     C15224   1.906   6.925  10.333  0.8052 -0.4733  0.6183
  111MOL0    Cl15225   2.029   6.801  10.358 -0.1762  0.1924 -0.0219
  111MOL0     C15226   1.023   6.431  10.549  0.2762  0.2964 -0.2488
  111MOL0     C15227   0.929   6.400  10.446 -0.4560 -0.4651 -0.5829
  111MOL0     O15228   1.039   6.347  10.065 -0.5139  0.5403  0.3180
  111MOL0     C15229   0.724   6.167  10.042  1.2025  0.6422  0.0889
  111MOL0     C15230   0.627   6.102   9.963 -1.4539  0.3978 -0.6005
  111MOL0     N15231   0.780   5.901   9.384  0.1954 -0.2959  0.1263
  111MOL0     N15232   0.869   5.942   9.300 -0.7956  0.1619  0.1854
  111MOL0     C15233   1.495   5.540   8.414 -0.3620 -1.4548 -0.0145
  111MOL0     C15234   1.599   5.451   8.388 -0.4510 -0.1501  0.4288
  111MOL0     C15235   1.965   5.194   8.338  0.0483  0.1757 -0.3500
  111MOL0     C15236   1.984   5.188   8.200  0.7147 -0.1251  0.1618
  111MOL0     C15237   2.087   5.110   8.137  0.9407  0.1464  0.3794
  111MOL0     C15238   2.176   5.035   8.225  0.5240  0.5054 -0.0671
  111MOL0     O15239   2.267   4.955   8.157  0.4602 -0.8765  1.1318
  111MOL0     C15240   2.373   4.897   8.233  0.2026  0.8278  1.1040
  111MOL0     C15241   2.491   4.847   8.138  0.7561  0.6764 -0.1471
  111MOL0     C15242   2.578   4.963   8.107  0.0266  0.4618 -0.1506
  111MOL0     C15243   2.513   5.073   8.016  0.8629  0.5452 -0.2578
  111MOL0     C15244   2.614   5.174   7.967  0.0201 -0.3875  0.0568
  111MOL0     C15245   2.677   5.264   7.908  1.3809  0.1861  0.9592
  111MOL0     C15246   2.173   5.059   8.364 -0.8469 -0.3456  0.2881
  111MOL0     C15247   2.061   5.137   8.416 -1.1198  1.1219  0.1674
  111MOL0     C15248   2.069   5.151   8.561 -0.1709 -0.0816 -0.1068
  111MOL0     H15249   1.854   5.658   8.359  0.3930 -2.6296 -0.3395
  111MOL0     H15250   1.678   5.816   8.401 -0.5176  0.2328 -0.8381
  111MOL0     H15251   1.357   5.942   8.536 -1.8824 -3.7105 -2.1803
  111MOL0     H15252   1.532   5.948   8.482  0.0924  1.3096 -0.9633
  111MOL0     H15253   1.599   5.792   8.669  2.5237  4.0078  0.4919
  111MOL0     H15254   1.541   5.933   8.728  1.4056 -1.2964  0.5753
  111MOL0     H15255   1.418   5.660   8.684  2.9598  1.3034 -1.4402
  111MOL0     H15256   1.444   5.735   8.844  0.4495  0.6281  0.1545
  111MOL0     H15257   1.261   5.915   8.760  1.9593 -1.2164  3.1049
  111MOL0     H15258   1.207   5.772   8.651 -0.0697 -1.0695  0.5813
  111MOL0     H15259   1.144   5.645   8.834  1.1511 -0.1184 -1.1490
  111MOL0     H15260   1.059   5.796   8.830 -0.2610 -2.6290 -0.4497
  111MOL0     H15261   1.275   5.697   9.041 -0.1312  0.8424  1.3832
  111MOL0     H15262   1.250   5.866   8.991 -0.6685  0.3771 -2.4470
  111MOL0     H15263   1.141   5.778   9.206  2.4017 -0.3943  0.3963
  111MOL0     H15264   1.050   5.658   9.119  0.5264 -0.3168  0.5631
  111MOL0     H15265   1.014   5.945   9.105  1.0451 -0.5797  1.5621
  111MOL0     H15266   0.928   5.827   8.988 -1.1885 -0.5857  0.0692
  111MOL0     H15267   0.775   5.652   9.166  0.6115 -1.6108  2.2595
  111MOL0     H15268   0.612   5.606   9.367 -1.2400 -2.0908  3.5808
  111MOL0     H15269   0.543   5.755   9.433  0.2252 -0.4033  0.2620
  111MOL0     H15270   0.649   5.564   9.590 -0.8687  0.7889  2.6425
  111MOL0     H15271   0.781   5.688   9.565 -0.5327  1.9861 -3.1802
  111MOL0     H15272   0.480   5.761   9.635 -1.0249 -1.4524 -0.3612
  111MOL0     H15273   0.602   5.727   9.756  0.6240  0.2928 -0.0020
  111MOL0     H15274   0.751   5.888   9.659 -0.2447  2.1085  0.3195
  111MOL0     H15275   0.626   5.973   9.558  0.6531 -1.5113 -1.1819
  111MOL0     H15276   0.811   6.104   9.681  2.5200  0.5554  0.8990
  111MOL0     H15277   0.989   6.381   9.793  0.5722 -0.2816 -1.3718
  111MOL0     H15278   0.989   6.248   9.677 -3.2452  2.3545 -1.6070
  111MOL0     H15279   1.077   6.235   9.840 -1.7313 -1.4148  1.6044
  111MOL0     H15280   1.136   6.230  10.253 -1.3529  0.7175 -0.0510
  111MOL0     H15281   1.295   6.276  10.415 -1.0105 -0.6105 -0.2369
  111MOL0     H15282   1.444   6.360  10.618  1.0259 -0.0297 -0.7778
  111MOL0     H15283   1.387   6.485  10.511 -0.0620 -4.1242 -1.2050
  111MOL0     H15284   1.330   6.520  10.804 -0.6206  3.7689  0.7630
  111MOL0     H15285   1.502   6.509  10.770  1.3197 -2.9945 -2.5710
  111MOL0     H15286   1.457   6.739  10.780  0.1916 -1.3288  1.6458
  111MOL0     H15287   1.330   6.746  10.654  1.7509  4.4787  2.3333
  111MOL0     H15288   1.468   6.712  10.475  1.6851 -1.8523 -1.0950
  111MOL0     H15289   1.582   6.614  10.570  0.5745  1.1770  1.1711
  111MOL0     H15290   1.541   6.912  10.579  0.3075 -0.2106 -0.0456
  111MOL0     H15291   1.677   6.818  10.656 -1.0283 -0.2747  1.2567
  111MOL0     H15292   1.635   6.831  10.355 -1.6037  0.7759  1.5693
  111MOL0     H15293   1.765   6.735  10.441  3.6397  1.9968  0.1992
  111MOL0     H15294   1.853   6.942  10.530  0.9674  1.7408 -0.7500
  111MOL0     H15295   1.746   7.030  10.431  1.6610  0.0985  2.5766
  111MOL0     H15296   1.957   7.021  10.321 -1.9133  1.2682  1.8885
  111MOL0     H15297   1.866   6.891  10.237 -0.3958 -1.7093  1.5168
  111MOL0     H15298   0.993   6.490  10.635  1.6158  1.2368 -0.3831
  111MOL0     H15299   0.827   6.434  10.461 -1.8392 -4.6361  1.0847
  111MOL0     H15300   0.702   6.171  10.148 -4.9937 -1.0947 -0.7776
  111MOL0     H15301   0.541   6.051  10.006 -2.7272  1.2121 -2.0639
  111MOL0     H15302   1.397   5.500   8.435 -0.9952  0.8090  1.7306
  111MOL0     H15303   1.566   5.348   8.379 -2.2837  0.5501 -1.9004
  111MOL0     H15304   1.923   5.243   8.128 -0.0390  1.0938  1.6496
  111MOL0     H15305   2.111   5.116   8.032  1.0193 -2.0133  0.2358
  111MOL0     H15306   2.406   4.971   8.307 -2.2428  1.7890  1.3291
  111MOL0     H15307   2.341   4.811   8.293  0.8239 -1.5996 -1.8107
  111MOL0     H15308   2.434   4.801   8.057 -0.1832  1.0124  0.3109
  111MOL0     H15309   2.545   4.761   8.180  1.3090  0.7364 -0.7239
  111MOL0     H15310   2.611   5.009   8.200 -0.5049  2.0119 -0.6911
  111MOL0     H15311   2.674   4.935   8.062  1.3140 -0.6125  3.0101
  111MOL0     H15312   2.448   5.140   8.074 -2.7475 -1.8621 -1.2273
  111MOL0     H15313   2.442   5.047   7.938 -1.0274  2.4829  0.7016
  111MOL0     H15314   2.714   5.345   7.848 -2.3779  1.3810 -0.0176
  111MOL0     H15315   2.250   5.017   8.428  0.3563 -0.2530 -1.0497
  111MOL0     H15316   1.981   5.114   8.614  0.0419 -1.3541 -0.6195
  111MOL0     H15317   2.158   5.104   8.604  0.0275  1.0287  0.7460
  111MOL0     H15318   2.088   5.258   8.574 -0.8380 -0.0146  0.3174
  112MOL0     O15319   5.274   1.202   6.541 -0.5376 -0.5067 -0.2358
  112MOL0     C15320   5.181   1.273   6.563  0.7313  0.2131 -0.2622
  112MOL0     O15321   5.159   1.332   6.684 -0.2642  0.2101 -0.4321
  112MOL0     C15322   5.261   1.379   6.757  0.0550 -0.1336 -0.3912
  112MOL0     C15323   5.399   1.395   6.727 -0.3009  0.1418  0.3751
  112MOL0     C15324   5.494   1.461   6.807  0.4630 -0.2698 -0.4950
  112MOL0     C15325   5.442   1.532   6.917 -0.6491  0.3263  0.2501
  112MOL0     O15326   5.533   1.613   6.986  0.1960 -0.4977  0.1576
  112MOL0     C15327   5.602   1.557   7.091 -0.3130 -0.1924  0.1886
  112MOL0     C15328   5.683   1.676   7.163  0.1930  0.3225  0.2620
  112MOL0     C15329   5.748   1.789   7.067  0.6935  0.4568  0.2592
  112MOL0     C15330   5.856   1.718   6.969  0.5027 -0.5352 -0.6060
  112MOL0     C15331   5.945   1.824   6.913  0.2865  0.7410  0.2319
  112MOL0     C15332   6.028   1.795   6.782 -0.1492  0.7131 -0.1871
  112MOL0     C15333   6.119   1.673   6.799 -0.1962  0.9831 -0.7386
  112MOL0     C15334   6.184   1.656   6.661 -0.4994  1.7145 -1.1463
  112MOL0     N15335   6.249   1.522   6.637  0.1892 -0.1537  0.9105
  112MOL0     C15336   6.373   1.494   6.684  0.0721  0.6233  0.2952
  112MOL0     C15337   6.390   1.362   6.691  0.1385 -0.0680 -0.1802
  112MOL0     C15338   6.508   1.275   6.720  0.0565 -0.1843  0.9958
  112MOL0     C15339   6.539   1.286   6.866 -0.2235  0.1558 -0.3236
  112MOL0     C15340   6.430   1.229   6.955 -0.2240 -0.7028 -0.5424
  112MOL0     C15341   6.475   1.227   7.103 -0.2208  0.0454  0.3233
  112MOL0     O15342   6.509   1.364   7.145 -0.2097 -0.2176 -0.4874
  112MOL0     C15343   6.419   1.413   7.236  0.9767  0.0286  0.7655
  112MOL0     C15344   6.330   1.517   7.202  0.1688  1.5746 -0.0530
  112MOL0     C15345   6.233   1.561   7.294  0.8012  0.9019 -0.3778
  112MOL0     C15346   6.124   1.652   7.237  0.8187  0.0845 -0.3714
  112MOL0     C15347   6.220   1.500   7.424  0.2267 -0.8128  0.2466
  112MOL0     C15348   6.108   1.508   7.521 -0.7033 -0.4114  0.4764
  112MOL0     O15349   6.127   1.473   7.649  0.6477 -0.0873  0.2637
  112MOL0     C15350   6.024   1.455   7.737 -0.9384  0.0438  0.9570
  112MOL0     C15351   6.038   1.349   7.827 -0.4961 -0.5635 -0.2395
  112MOL0     C15352   5.928   1.300   7.900 -0.9263  0.7276  0.5796
  112MOL0     C15353   5.812   1.380   7.914 -0.0278 -0.7663  0.7285
  112MOL0     O15354   5.705   1.333   7.984 -0.3412 -0.8380 -0.3702
  112MOL0     C15355   5.601   1.427   8.021 -0.1464 -0.9754  0.9244
  112MOL0     C15356   5.495   1.352   8.099  0.5527 -0.6473 -1.1475
  112MOL0     C15357   5.572   1.279   8.217  0.0209 -0.1354  0.3212
  112MOL0     C15358   5.502   1.296   8.358 -0.4275 -0.9197  0.9786
  112MOL0     C15359   5.377   1.215   8.359 -0.2124 -0.2570  0.6356
  112MOL0     C15360   5.309   1.208   8.493 -0.6963 -1.1299 -0.5311
  112MOL0     C15361   5.238   1.337   8.533 -0.1321 -0.6389  0.0302
  112MOL0     C15362   5.081   1.333   8.517  0.6796  0.9735  0.3293
  112MOL0    Cl15363   5.050   1.356   8.344  0.4727 -0.1651  0.0845
  112MOL0     C15364   5.803   1.493   7.827 -0.6216 -0.1521 -0.0593
  112MOL0     C15365   5.908   1.533   7.741  0.5504 -0.3100  0.0720
  112MOL0     O15366   6.000   1.537   7.476 -0.8684  0.1885  1.2009
  112MOL0     C15367   6.323   1.415   7.454 -0.7754 -0.0378 -0.6068
  112MOL0     C15368   6.417   1.372   7.367  0.3698  0.9148 -0.4921
  112MOL0     N15369   6.269   1.305   6.663  0.3923 -0.1359 -0.0919
  112MOL0     N15370   6.189   1.405   6.635  0.0148  0.0537  1.0670
  112MOL0     C15371   5.313   1.506   6.963  1.2174  0.3345 -0.7256
  112MOL0     C15372   5.221   1.450   6.872 -1.0027  0.0448  0.0738
  112MOL0     C15373   5.096   1.295   6.438  0.2372 -0.3938 -0.4393
  112MOL0     C15374   5.041   1.173   6.380  0.1145 -1.0211 -0.2073
  112MOL0     C15375   4.939   1.185   6.286  0.9346 -0.3222 -0.7403
  112MOL0     C15376   4.873   1.307   6.256  0.9031 -0.4346  0.0483
  112MOL0     O15377   4.772   1.300   6.158 -0.0221  0.4229 -0.1604
  112MOL0     C15378   4.664   1.386   6.180 -0.3676 -0.2874 -0.2508
  112MOL0     C15379   4.531   1.312   6.133  0.2843  0.1842  0.5408
  112MOL0     C15380   4.529   1.304   5.978 -0.6177 -0.5383 -0.3965
  112MOL0     C15381   4.515   1.434   5.894 -0.1112 -0.0965 -0.3201
  112MOL0     C15382   4.441   1.395   5.777  0.5054  0.4244  0.3164
  112MOL0     C15383   4.363   1.360   5.688  0.5571  1.0939 -0.1134
  112MOL0     C15384   4.926   1.422   6.306 -0.8426  0.5049  0.4227
  112MOL0     C15385   5.035   1.418   6.402 -0.0862 -0.1957 -0.5705
  112MOL0     C15386   5.089   1.552   6.460  1.2616  0.4254 -0.3367
  112MOL0     H15387   5.432   1.358   6.630  1.8403  0.0326  1.0842
  112MOL0     H15388   5.598   1.476   6.782  0.3836  0.3863 -0.4635
  112MOL0     H15389   5.670   1.483   7.049  1.6473  1.5740  0.1033
  112MOL0     H15390   5.539   1.510   7.167  1.8776  0.8709  2.8611
  112MOL0     H15391   5.600   1.723   7.217 -2.6097 -0.5616 -2.9348
  112MOL0     H15392   5.757   1.629   7.228 -0.3021  1.1524  1.4588
  112MOL0     H15393   5.674   1.833   7.000 -0.2631 -0.5482  0.6266
  112MOL0     H15394   5.796   1.861   7.134 -2.1429  2.9833 -0.2307
  112MOL0     H15395   5.906   1.639   7.026  0.0459  0.6107  1.4659
  112MOL0     H15396   5.808   1.674   6.881 -2.4351  1.9367 -0.4114
  112MOL0     H15397   6.014   1.866   6.986 -0.9583  2.8187  0.3110
  112MOL0     H15398   5.869   1.902   6.896 -0.2065  0.8138  2.5305
  112MOL0     H15399   5.967   1.763   6.697  1.6915 -0.8989 -0.9699
  112MOL0     H15400   6.077   1.890   6.756  0.4240  1.0673  1.9957
  112MOL0     H15401   6.065   1.583   6.827  0.6359  1.3154  2.2958
  112MOL0     H15402   6.194   1.692   6.876  2.8295 -4.4079 -1.8593
  112MOL0     H15403   6.103   1.663   6.588 -3.7192 -0.7383  1.8896
  112MOL0     H15404   6.266   1.727   6.646  0.3876  0.8398 -0.5944
  112MOL0     H15405   6.444   1.575   6.699  1.2751 -0.2140 -0.7191
  112MOL0     H15406   6.581   1.326   6.656  0.1444 -2.0022 -0.4518
  112MOL0     H15407   6.500   1.172   6.683 -0.9314 -0.7945  2.7746
  112MOL0     H15408   6.634   1.242   6.899  0.1827  0.4404 -1.1022
  112MOL0     H15409   6.552   1.393   6.879  1.3713  0.3868 -3.0693
  112MOL0     H15410   6.335   1.283   6.958  1.0380  1.5687  1.2789
  112MOL0     H15411   6.425   1.126   6.918  1.4938 -0.4327 -1.6589
  112MOL0     H15412   6.388   1.182   7.152  0.6107 -4.7704 -2.0554
  112MOL0     H15413   6.565   1.165   7.104  0.0338  0.3258 -1.5851
  112MOL0     H15414   6.319   1.551   7.099  0.1071  0.9058 -0.2734
  112MOL0     H15415   6.064   1.713   7.305  1.1509 -0.5665  0.5273
  112MOL0     H15416   6.049   1.589   7.188  0.3453  0.4187 -0.0871
  112MOL0     H15417   6.170   1.724   7.168  0.5187 -0.6639 -1.3834
  112MOL0     H15418   6.127   1.290   7.809  1.4412  2.8406 -3.1362
  112MOL0     H15419   5.950   1.211   7.959  0.9686  0.7239 -0.0762
  112MOL0     H15420   5.638   1.500   8.093 -1.9550  0.7129  0.2163
  112MOL0     H15421   5.550   1.461   7.930 -2.6967 -1.4842  2.0770
  112MOL0     H15422   5.420   1.426   8.127  3.2617  2.5678 -1.7346
  112MOL0     H15423   5.447   1.279   8.033 -1.8070  1.3401 -1.7591
  112MOL0     H15424   5.677   1.310   8.224  0.3294 -0.6705 -1.4640
  112MOL0     H15425   5.587   1.173   8.195  2.8878 -0.0885  1.5127
  112MOL0     H15426   5.483   1.402   8.378  1.4728 -0.1724 -0.8055
  112MOL0     H15427   5.569   1.261   8.437 -1.6825  0.1211  2.5477
  112MOL0     H15428   5.313   1.257   8.281  0.6572  2.9241  1.4660
  112MOL0     H15429   5.416   1.117   8.331  0.9328  0.9616 -2.4973
  112MOL0     H15430   5.390   1.185   8.564 -2.1940  0.9944  2.0793
  112MOL0     H15431   5.241   1.123   8.497  0.6893 -2.3146 -1.2610
  112MOL0     H15432   5.273   1.427   8.481 -1.2058  1.5706  2.8631
  112MOL0     H15433   5.245   1.358   8.640 -2.6332  0.4692  0.0291
  112MOL0     H15434   5.042   1.417   8.576  2.1474  0.8514  1.5344
  112MOL0     H15435   5.043   1.235   8.547  1.2572  1.2581  2.1070
  112MOL0     H15436   5.717   1.552   7.798 -1.0185  0.3024  1.9426
  112MOL0     H15437   5.898   1.616   7.671 -1.8140  1.4148  2.2843
  112MOL0     H15438   6.324   1.361   7.548  0.8365 -2.2836 -1.8242
  112MOL0     H15439   6.483   1.289   7.389  1.0271  1.5621  0.0005
  112MOL0     H15440   5.275   1.556   7.052  2.4064  0.1683 -0.1047
  112MOL0     H15441   5.119   1.445   6.909  0.5164 -0.5410  4.8516
  112MOL0     H15442   5.089   1.077   6.392  0.5545 -0.9710 -1.4320
  112MOL0     H15443   4.888   1.101   6.241 -2.3199  0.5491  0.9549
  112MOL0     H15444   4.664   1.406   6.288 -2.9522  1.3208 -0.4596
  112MOL0     H15445   4.683   1.479   6.126 -1.0129  0.5717  0.9394
  112MOL0     H15446   4.438   1.359   6.167  0.1103  2.0253 -2.1573
  112MOL0     H15447   4.544   1.210   6.169  4.2403  1.3099  2.9250
  112MOL0     H15448   4.628   1.266   5.952  0.9258  0.2844  3.6047
  112MOL0     H15449   4.447   1.233   5.958  1.5571 -2.4778 -3.4364
  112MOL0     H15450   4.618   1.469   5.879  0.0462 -1.0296 -1.6635
  112MOL0     H15451   4.458   1.510   5.948  0.7316 -0.6925  1.4844
  112MOL0     H15452   4.300   1.343   5.604 -1.3685  2.8395  0.8945
  112MOL0     H15453   4.887   1.514   6.264  0.1494  0.4509 -0.6485
  112MOL0     H15454   5.195   1.539   6.482  0.9122 -0.8816  0.6815
  112MOL0     H15455   5.088   1.635   6.389  2.1043  1.0756  0.3965
  112MOL0     H15456   5.036   1.570   6.554 -1.0478 -1.5771 -1.1202
  113MOL0     O15457   7.196  11.395   5.109 -0.3713 -0.1411  0.5798
  113MOL0     C15458   7.100  11.328   5.072 -0.2466  0.5718 -0.2807
  113MOL0     O15459   7.019  11.238   5.148  0.0741 -0.8116 -0.3712
  113MOL0     C15460   7.027  11.249   5.284 -1.0658  0.0945  0.5630
  113MOL0     C15461   7.003  11.367   5.344 -0.9165  0.1160 -0.7572
  113MOL0     C15462   7.003  11.369   5.485  0.6202  0.0802  0.5749
  113MOL0     C15463   7.024  11.255   5.566  0.1389 -0.1928 -0.3413
  113MOL0     O15464   7.023  11.260   5.704 -0.1028 -0.8768  0.2217
  113MOL0     C15465   7.098  11.373   5.752 -0.6273  0.4478  0.0919
  113MOL0     C15466   7.093  11.374   5.904  0.1939 -0.2748  0.3405
  113MOL0     C15467   6.959  11.408   5.959 -0.7530  0.8594 -0.2618
  113MOL0     C15468   6.913  11.304   6.063  0.1510  1.1977  1.0872
  113MOL0     C15469   6.947  11.345   6.202  0.5648  0.8747  1.3887
  113MOL0     C15470   6.882  11.244   6.302 -0.0417  0.0682  0.6771
  113MOL0     C15471   6.909  11.294   6.445 -0.4088  0.1742 -0.3798
  113MOL0     C15472   6.823  11.411   6.510  0.7283 -0.6070 -1.9526
  113MOL0     N15473   6.838  11.419   6.657  0.4017 -0.1716 -0.4983
  113MOL0     C15474   6.730  11.422   6.741 -0.7877 -0.3079 -0.4469
  113MOL0     C15475   6.775  11.489   6.849 -0.5867 -0.5071 -0.0159
  113MOL0     C15476   6.686  11.559   6.948 -0.4687  0.3496  0.2046
  113MOL0     C15477   6.734  11.529   7.093  1.5402  1.1225 -0.3444
  113MOL0     C15478   6.647  11.605   7.195  0.0056  0.0582 -1.4184
  113MOL0     C15479   6.709  11.585   7.329  0.0341  0.1507 -0.0416
  113MOL0     O15480   6.629  11.660   7.422  0.6723 -0.1768  0.5073
  113MOL0     C15481   6.659  11.797   7.440 -0.5545 -0.7927 -1.3584
  113MOL0     C15482   6.784  11.852   7.445  0.0246  0.0784 -0.2206
  113MOL0     C15483   6.797  11.991   7.447 -0.1771 -0.8182 -0.0883
  113MOL0     C15484   6.938  12.040   7.453 -1.0342 -0.2050  0.2664
  113MOL0     C15485   6.681  12.076   7.447 -0.1095 -0.7512  1.3493
  113MOL0     C15486   6.695  12.225   7.465 -0.8168 -0.4257 -0.1138
  113MOL0     O15487   6.582  12.279   7.513  0.1729  0.1534 -0.1808
  113MOL0     C15488   6.594  12.417   7.530 -0.4398  0.7816  0.1474
  113MOL0     C15489   6.589  12.483   7.656  0.4435 -0.4275 -0.0984
  113MOL0     C15490   6.590  12.622   7.664  0.3767  0.6303  0.0133
  113MOL0     C15491   6.604  12.695   7.547 -0.6947  0.4388  0.2297
  113MOL0     O15492   6.625  12.824   7.545  0.3744  0.5018 -0.5058
  113MOL0     C15493   6.621  12.904   7.668 -0.7700 -0.1504 -1.2877
  113MOL0     C15494   6.669  13.043   7.627  0.1349 -0.2462 -1.1466
  113MOL0     C15495   6.773  13.098   7.729  0.1903 -0.1204 -0.4605
  113MOL0     C15496   6.842  13.220   7.677  0.6914  0.0123  0.1068
  113MOL0     C15497   6.933  13.285   7.786  0.6849  0.6991 -0.9480
  113MOL0     C15498   7.026  13.394   7.726  0.0755  1.1767  0.1791
  113MOL0     C15499   6.953  13.514   7.655  0.3691  0.8871 -0.1103
  113MOL0     C15500   6.923  13.628   7.752 -0.2829 -0.4613  0.4120
  113MOL0    Cl15501   6.893  13.569   7.914  0.0992  0.1177  0.7759
  113MOL0     C15502   6.603  12.633   7.418 -0.6651  0.5957 -0.2565
  113MOL0     C15503   6.606  12.495   7.413  0.7764 -0.5175 -0.1774
  113MOL0     O15504   6.800  12.288   7.426  0.6868 -0.1484 -0.0388
  113MOL0     C15505   6.556  12.016   7.455 -0.1597 -0.4999  0.0616
  113MOL0     C15506   6.552  11.881   7.454  0.1291  0.0298  0.1094
  113MOL0     N15507   6.912  11.517   6.835 -0.6446  0.2237 -0.5909
  113MOL0     N15508   6.944  11.486   6.717  0.1441  0.5190 -0.2634
  113MOL0     C15509   7.054  11.140   5.503  0.0680 -0.3995 -0.3762
  113MOL0     C15510   7.059  11.137   5.355 -0.5881 -1.1311 -0.3917
  113MOL0     C15511   7.066  11.344   4.933  0.7967  0.2866 -0.6062
  113MOL0     C15512   6.938  11.353   4.888 -0.4820 -0.4404 -0.2627
  113MOL0     C15513   6.901  11.384   4.752 -0.2327  0.4471  0.6596
  113MOL0     C15514   6.999  11.382   4.653  0.6362 -0.2027 -0.0375
  113MOL0     O15515   6.983  11.402   4.517 -0.3002 -0.0756  1.1812
  113MOL0     C15516   6.850  11.422   4.477  0.4710 -0.6252  0.5967
  113MOL0     C15517   6.847  11.450   4.325 -0.1225  0.3927  0.1124
  113MOL0     C15518   6.944  11.555   4.274  0.2900  0.6496 -0.4530
  113MOL0     C15519   6.907  11.697   4.294 -0.2648  1.2447  0.4323
  113MOL0     C15520   7.012  11.789   4.241  0.3712  0.4616 -0.0223
  113MOL0     C15521   7.086  11.868   4.179  0.9348 -0.2619  0.3512
  113MOL0     C15522   7.129  11.358   4.692 -0.2159  0.3945 -1.0183
  113MOL0     C15523   7.167  11.345   4.826 -0.2725  1.0957 -0.3823
  113MOL0     C15524   7.317  11.333   4.853  1.4199 -0.0570 -0.7952
  113MOL0     H15525   6.982  11.456   5.286 -3.2998  1.3685  1.7593
  113MOL0     H15526   6.982  11.462   5.537 -3.2150 -1.6264  2.5067
  113MOL0     H15527   7.070  11.473   5.716  0.8411  1.3941  1.4300
  113MOL0     H15528   7.203  11.364   5.725 -0.6190 -0.0768  0.2869
  113MOL0     H15529   7.137  11.283   5.946  0.1658 -0.4479  0.0003
  113MOL0     H15530   7.158  11.454   5.939 -0.4324  2.1580 -3.4949
  113MOL0     H15531   6.960  11.514   5.985  1.9462  0.8118  0.1790
  113MOL0     H15532   6.889  11.402   5.876  0.0061 -0.2547 -0.8517
  113MOL0     H15533   6.808  11.281   6.044  0.2265 -0.7842  2.7178
  113MOL0     H15534   6.962  11.207   6.052 -3.2480 -0.4598 -1.3646
  113MOL0     H15535   6.900  11.442   6.218 -0.7176  0.3292  1.0208
  113MOL0     H15536   7.051  11.358   6.233  2.3032  0.0084 -3.3147
  113MOL0     H15537   6.774  11.239   6.286  0.1720 -2.5473 -0.3727
  113MOL0     H15538   6.927  11.145   6.295  1.9758  1.0471 -3.7938
  113MOL0     H15539   7.011  11.330   6.430 -1.6320  2.6930 -3.8479
  113MOL0     H15540   6.892  11.211   6.514 -1.2062  4.1841  4.8951
  113MOL0     H15541   6.827  11.502   6.450 -0.2502  0.5237 -0.3840
  113MOL0     H15542   6.716  11.390   6.506 -0.2625  3.4598 -1.3239
  113MOL0     H15543   6.629  11.388   6.719  0.0647 -1.7291 -2.3985
  113MOL0     H15544   6.577  11.544   6.945 -0.2455 -1.4973  0.1591
  113MOL0     H15545   6.703  11.667   6.936 -1.7647  0.3290 -2.5086
  113MOL0     H15546   6.721  11.421   7.106 -0.7289  1.3804 -0.0565
  113MOL0     H15547   6.841  11.540   7.108  1.2757 -0.0638  3.4525
  113MOL0     H15548   6.657  11.710   7.165 -2.7301  1.3661  1.6400
  113MOL0     H15549   6.545  11.565   7.197  1.2672 -3.5214 -2.5214
  113MOL0     H15550   6.695  11.480   7.357 -1.2432  0.5308  0.8488
  113MOL0     H15551   6.815  11.607   7.343 -0.0462 -0.9929  3.2136
  113MOL0     H15552   6.871  11.789   7.457  0.2794  0.6047  0.7922
  113MOL0     H15553   6.971  12.130   7.506 -1.1669  0.5508 -0.9064
  113MOL0     H15554   6.981  12.043   7.352  2.7270 -1.4456  1.6450
  113MOL0     H15555   6.996  11.955   7.491  0.2106 -0.0441 -1.1662
  113MOL0     H15556   6.594  12.427   7.749  3.0835  0.0369  0.1347
  113MOL0     H15557   6.600  12.659   7.766  0.2718 -2.5008  1.2741
  113MOL0     H15558   6.517  12.917   7.699 -0.6043  0.8323 -1.1131
  113MOL0     H15559   6.669  12.868   7.759 -0.4841  1.4969 -0.7609
  113MOL0     H15560   6.714  13.026   7.528  0.6758  0.4949 -1.0371
  113MOL0     H15561   6.589  13.115   7.609  0.2194 -0.5542 -3.0058
  113MOL0     H15562   6.846  13.020   7.753  0.1928 -0.1318 -0.5026
  113MOL0     H15563   6.726  13.112   7.826  0.8823 -2.2916  0.2585
  113MOL0     H15564   6.766  13.293   7.647 -1.3135 -2.1369 -0.3136
  113MOL0     H15565   6.890  13.193   7.582  2.0040 -2.9434  1.4828
  113MOL0     H15566   6.883  13.309   7.880 -0.7880  0.1560 -1.5656
  113MOL0     H15567   7.003  13.204   7.810  2.1839  1.8423 -1.3106
  113MOL0     H15568   7.079  13.341   7.647 -1.5319  1.2968 -1.0415
  113MOL0     H15569   7.097  13.433   7.799 -2.2905 -0.2187  3.5125
  113MOL0     H15570   6.864  13.482   7.601 -0.4198  0.9033  1.1415
  113MOL0     H15571   7.017  13.556   7.577  0.0668 -0.1085 -0.9235
  113MOL0     H15572   6.835  13.684   7.721  1.2784  1.1123 -1.3971
  113MOL0     H15573   7.008  13.697   7.760  0.3446 -0.4876 -3.7900
  113MOL0     H15574   6.609  12.691   7.326  2.3580  1.4980  0.4184
  113MOL0     H15575   6.593  12.450   7.315 -1.5991  0.7231 -0.4957
  113MOL0     H15576   6.466  12.077   7.447  1.3517  2.5009  3.1775
  113MOL0     H15577   6.461  11.821   7.445 -0.2958  0.9347 -2.8680
  113MOL0     H15578   7.078  11.046   5.552  1.5167 -0.4625 -1.1479
  113MOL0     H15579   7.095  11.052   5.297 -0.2463  2.5088 -6.3923
  113MOL0     H15580   6.853  11.369   4.954 -0.3249 -1.6847  0.2687
  113MOL0     H15581   6.801  11.409   4.718  0.4780  2.6843  0.0233
  113MOL0     H15582   6.785  11.334   4.489 -2.0449  0.8974 -0.8361
  113MOL0     H15583   6.801  11.511   4.519 -0.3787  1.2749 -3.8141
  113MOL0     H15584   6.745  11.480   4.298  0.1012  0.8297 -0.2478
  113MOL0     H15585   6.864  11.353   4.276 -2.6394  0.9568 -2.1510
  113MOL0     H15586   7.040  11.537   4.323 -0.1707 -0.8129 -0.0440
  113MOL0     H15587   6.967  11.531   4.170  6.1473  0.5129  0.5571
  113MOL0     H15588   6.901  11.721   4.400  3.2893 -1.9470  1.5849
  113MOL0     H15589   6.817  11.705   4.232  1.1112  4.5768 -1.3973
  113MOL0     H15590   7.135  11.952   4.135  1.0686 -0.7537 -0.4424
  113MOL0     H15591   7.201  11.361   4.611  1.7629 -0.0253  0.6164
  113MOL0     H15592   7.347  11.437   4.872  1.3924 -0.1816 -0.0199
  113MOL0     H15593   7.336  11.274   4.943 -1.3893 -0.1018 -0.1277
  113MOL0     H15594   7.384  11.294   4.776  0.7555 -0.4916 -1.1677
  114MOL0     O15595   1.056   0.118   0.828 -0.1949 -0.4932  0.5007
  114MOL0     C15596   1.038   0.014   0.764 -0.0339  0.8946 -0.4075
  114MOL0     O15597   1.095  -0.119   0.793 -1.2933 -0.3733 -0.4804
  114MOL0     C15598   1.194  -0.134   0.894  0.8630 -0.6329  0.7696
  114MOL0     C15599   1.280  -0.038   0.931 -0.0084 -1.0234 -0.0443
  114MOL0     C15600   1.359  -0.046   1.041 -1.0794  0.0692  0.6375
  114MOL0     C15601   1.376  -0.174   1.097 -0.1704 -0.0554 -0.7198
  114MOL0     O15602   1.463  -0.206   1.211 -0.6296 -0.0152  0.6441
  114MOL0     C15603   1.557  -0.108   1.255  0.8117  0.3341  0.9435
  114MOL0     C15604   1.662  -0.168   1.339  0.9150  0.6388 -0.3061
  114MOL0     C15605   1.744  -0.043   1.390 -0.2982  0.2325 -0.6371
  114MOL0     C15606   1.896  -0.061   1.403  1.1686  0.6986 -1.2271
  114MOL0     C15607   1.936  -0.170   1.508 -0.5341  0.2660 -0.1875
  114MOL0     C15608   2.100  -0.172   1.513  0.9590 -0.3641 -0.3493
  114MOL0     C15609   2.143  -0.307   1.580 -0.6745  0.5542  0.4170
  114MOL0     C15610   2.291  -0.324   1.632 -0.2289  0.2721  0.5367
  114MOL0     N15611   2.337  -0.214   1.719  0.0840  1.0646  0.2937
  114MOL0     C15612   2.446  -0.126   1.699 -0.7808  0.5511  0.9154
  114MOL0     C15613   2.421  -0.019   1.771  0.3520 -0.0990  0.7542
  114MOL0     C15614   2.472   0.121   1.750 -0.2535  0.8986 -0.5913
  114MOL0     C15615   2.517   0.190   1.877 -0.1435  1.0522  0.0210
  114MOL0     C15616   2.572   0.336   1.848  0.7737 -0.5684 -0.5692
  114MOL0     C15617   2.635   0.397   1.970  0.6973 -0.8161  0.0564
  114MOL0     O15618   2.544   0.410   2.070  0.0185 -0.0301 -0.2387
  114MOL0     C15619   2.544   0.497   2.180 -1.0046 -0.3283  0.5784
  114MOL0     C15620   2.608   0.619   2.178  0.2238 -0.2177  0.1218
  114MOL0     C15621   2.607   0.700   2.287 -0.2462 -0.8425  0.1508
  114MOL0     C15622   2.673   0.836   2.285  0.2555  0.5255 -1.4691
  114MOL0     C15623   2.542   0.657   2.407  0.2447  1.0261  0.1225
  114MOL0     C15624   2.525   0.745   2.521  0.4599 -0.0048  0.4210
  114MOL0     O15625   2.395   0.753   2.567 -0.6459  0.5655  0.6179
  114MOL0     C15626   2.362   0.815   2.688  0.1694 -0.4645 -0.5020
  114MOL0     C15627   2.352   0.954   2.681 -0.2406  0.6024 -0.2590
  114MOL0     C15628   2.296   1.020   2.790  0.3866 -0.1214 -0.3654
  114MOL0     C15629   2.249   0.960   2.904 -0.5149  0.9503  0.2140
  114MOL0     O15630   2.183   1.022   3.007  0.4852  0.0066 -0.0920
  114MOL0     C15631   2.191   1.168   3.022  0.0190  0.4073  0.0931
  114MOL0     C15632   2.079   1.216   3.124  0.9758  1.5565 -0.8828
  114MOL0     C15633   2.120   1.361   3.163 -0.2606  1.3516  0.9559
  114MOL0     C15634   2.018   1.423   3.265 -0.8016 -0.5070  0.8890
  114MOL0     C15635   2.044   1.383   3.411  0.8280  0.7945  0.7548
  114MOL0     C15636   1.948   1.447   3.504 -0.5117  0.3308 -0.9161
  114MOL0     C15637   1.799   1.396   3.491  0.1588 -0.3816  0.0316
  114MOL0     C15638   1.722   1.392   3.626 -0.2893 -1.2067 -0.3211
  114MOL0    Cl15639   1.554   1.369   3.571  0.2619  0.3302 -0.6238
  114MOL0     C15640   2.261   0.819   2.908 -0.3498 -0.1668 -1.1804
  114MOL0     C15641   2.313   0.748   2.801 -0.9148 -0.6689 -0.0584
  114MOL0     O15642   2.622   0.792   2.572 -0.1727 -1.1945 -0.1811
  114MOL0     C15643   2.467   0.538   2.404  0.8866  0.4181 -0.0405
  114MOL0     C15644   2.471   0.455   2.292  0.1116  0.6054  1.3485
  114MOL0     N15645   2.312  -0.044   1.846  0.2202  0.0558  0.5873
  114MOL0     N15646   2.263  -0.166   1.820  0.3333  0.1617 -0.5158
  114MOL0     C15647   1.295  -0.280   1.056 -0.9715  0.3500  0.7374
  114MOL0     C15648   1.201  -0.262   0.953  0.2658  0.2842 -0.7767
  114MOL0     C15649   0.938   0.016   0.655 -1.2668 -0.6605 -0.4461
  114MOL0     C15650   0.945  -0.095   0.566 -0.0837 -0.0492 -0.4676
  114MOL0     C15651   0.858  -0.107   0.450  0.4119 -0.5580 -0.3622
  114MOL0     C15652   0.762  -0.005   0.430 -0.0809  0.3324  0.2473
  114MOL0     O15653   0.684  -0.028   0.324  0.4396 -0.5723 -0.0694
  114MOL0     C15654   0.578   0.068   0.306 -0.8904  0.2139 -0.1405
  114MOL0     C15655   0.444   0.007   0.274  0.0345  0.7052  0.3752
  114MOL0     C15656   0.397  -0.068   0.391 -0.0801 -0.1625  0.2344
  114MOL0     C15657   0.292   0.004   0.471  0.0597 -0.1270 -0.0719
  114MOL0     C15658   0.352   0.101   0.560 -0.6685 -0.1724 -0.0892
  114MOL0     C15659   0.401   0.195   0.617 -0.0080 -0.7767 -0.0166
  114MOL0     C15660   0.756   0.104   0.519 -0.4019  0.6772  0.4079
  114MOL0     C15661   0.829   0.107   0.640  0.2925 -0.1358  0.9278
  114MOL0     C15662   0.786   0.209   0.740  0.4736 -0.3513  0.2630
  114MOL0     H15663   1.281   0.060   0.883  0.2811 -1.9373 -2.0060
  114MOL0     H15664   1.425   0.033   1.075  2.1456 -2.4863  0.8455
  114MOL0     H15665   1.490  -0.034   1.300 -1.2270  1.4105 -3.3315
  114MOL0     H15666   1.597  -0.057   1.167 -1.6349 -0.3538 -0.6598
  114MOL0     H15667   1.633  -0.233   1.423  2.8705 -0.3183 -0.3173
  114MOL0     H15668   1.731  -0.221   1.272 -0.1964 -1.8973  0.4130
  114MOL0     H15669   1.746   0.035   1.313  1.3721 -0.4546 -1.3380
  114MOL0     H15670   1.688  -0.011   1.479  0.1693 -1.9141  0.4938
  114MOL0     H15671   1.937  -0.093   1.307  2.5808  0.5615 -0.6074
  114MOL0     H15672   1.946   0.034   1.424 -1.7029  2.3457 -1.3350
  114MOL0     H15673   1.897  -0.270   1.485 -3.1401  1.2067 -0.1532
  114MOL0     H15674   1.896  -0.146   1.607 -1.3003 -0.2773 -0.3500
  114MOL0     H15675   2.133  -0.199   1.412  0.0951 -4.3491  0.2731
  114MOL0     H15676   2.142  -0.079   1.552  3.1454 -1.0248 -0.9211
  114MOL0     H15677   2.116  -0.387   1.511 -0.7488  2.0294 -1.3449
  114MOL0     H15678   2.083  -0.311   1.671 -2.4965  4.2122 -0.4199
  114MOL0     H15679   2.291  -0.415   1.692  0.0622  1.0789  1.7850
  114MOL0     H15680   2.359  -0.337   1.547  1.8216  1.5383  1.9066
  114MOL0     H15681   2.530  -0.115   1.631  0.1889 -0.6600  1.8869
  114MOL0     H15682   2.397   0.182   1.698 -0.6226 -0.7449 -2.0540
  114MOL0     H15683   2.554   0.127   1.677  0.7498  2.3333  0.5747
  114MOL0     H15684   2.428   0.205   1.940 -2.4166  0.2218 -2.7716
  114MOL0     H15685   2.592   0.129   1.927  1.7998  2.5206 -0.9918
  114MOL0     H15686   2.645   0.332   1.767  1.1958  1.0547 -0.3011
  114MOL0     H15687   2.488   0.403   1.829  2.3815  3.0787  3.4666
  114MOL0     H15688   2.718   0.330   1.995  0.2372 -1.5967 -0.4289
  114MOL0     H15689   2.672   0.496   1.943 -0.3162 -0.8162 -1.4458
  114MOL0     H15690   2.651   0.663   2.088 -1.3281 -0.3709 -0.7292
  114MOL0     H15691   2.644   0.880   2.189 -0.3382 -0.1355 -1.5992
  114MOL0     H15692   2.778   0.804   2.288 -0.9739 -4.1430 -0.2588
  114MOL0     H15693   2.661   0.908   2.366  0.1708 -1.6826  0.5716
  114MOL0     H15694   2.379   1.020   2.599 -0.7221 -1.9073 -2.5774
  114MOL0     H15695   2.298   1.126   2.769 -1.5827 -0.3271 -1.9293
  114MOL0     H15696   2.289   1.202   3.057 -0.0910  3.7369 -2.3818
  114MOL0     H15697   2.175   1.220   2.927  1.5974  0.5057 -0.1472
  114MOL0     H15698   1.980   1.210   3.079  0.3035  1.4746  0.5734
  114MOL0     H15699   2.079   1.143   3.205  2.5076  0.2700 -1.9628
  114MOL0     H15700   2.150   1.421   3.077  2.3319  0.2610  1.0054
  114MOL0     H15701   2.217   1.340   3.209 -0.5023 -2.5117  0.0010
  114MOL0     H15702   1.917   1.384   3.250  0.2543 -3.2879  0.5244
  114MOL0     H15703   2.022   1.533   3.264  2.3194 -0.5072 -1.5659
  114MOL0     H15704   2.020   1.278   3.424 -0.4195  0.8252 -0.9306
  114MOL0     H15705   2.149   1.399   3.440  2.0302  0.5499 -2.8502
  114MOL0     H15706   1.953   1.555   3.496  4.2517  0.3052 -0.9072
  114MOL0     H15707   1.987   1.419   3.603  3.5182  2.9929 -1.5292
  114MOL0     H15708   1.792   1.300   3.439 -0.2084 -0.7512  0.7491
  114MOL0     H15709   1.753   1.465   3.420  1.8189  0.8684  0.1281
  114MOL0     H15710   1.719   1.487   3.679  2.1966 -1.5436  0.5827
  114MOL0     H15711   1.769   1.330   3.703  1.3482  0.6979  0.3071
  114MOL0     H15712   2.237   0.767   3.000  1.5175 -2.3837 -1.8358
  114MOL0     H15713   2.318   0.640   2.792  1.8541 -0.7101  1.0460
  114MOL0     H15714   2.409   0.502   2.489 -1.7805 -1.9306 -2.6415
  114MOL0     H15715   2.422   0.359   2.280  0.1320  0.5234  1.8686
  114MOL0     H15716   1.314  -0.380   1.094 -1.3714  0.4870  1.3074
  114MOL0     H15717   1.134  -0.344   0.926 -0.3045  0.5773 -0.2905
  114MOL0     H15718   1.021  -0.172   0.576  0.2208  0.3927  0.7837
  114MOL0     H15719   0.873  -0.185   0.377  0.0451 -0.4574 -0.5491
  114MOL0     H15720   0.558   0.130   0.394 -3.4199 -1.6675  0.7331
  114MOL0     H15721   0.609   0.131   0.223  1.3690 -1.9838 -1.0717
  114MOL0     H15722   0.438  -0.050   0.181 -0.5271  5.2126 -2.7138
  114MOL0     H15723   0.374   0.087   0.246  1.3898  1.7921 -0.0250
  114MOL0     H15724   0.346  -0.154   0.347  0.1751  0.9200 -2.4243
  114MOL0     H15725   0.488  -0.093   0.445  0.0099 -1.1927 -0.3825
  114MOL0     H15726   0.242  -0.067   0.537  1.9008 -0.1510  1.3889
  114MOL0     H15727   0.220   0.047   0.402  0.8502 -1.1197 -1.5654
  114MOL0     H15728   0.442   0.287   0.654  1.6369 -0.9262 -1.3441
  114MOL0     H15729   0.704   0.198   0.502  1.3591  1.5681 -0.2985
  114MOL0     H15730   0.807   0.303   0.689 -1.6482  1.0964  1.8649
  114MOL0     H15731   0.679   0.189   0.756  0.9462 -3.7261 -0.0882
  114MOL0     H15732   0.825   0.209   0.843 -1.1044 -1.4099  0.9147
  115MOL0     O15733  10.790   4.660   3.770  0.5604 -0.2736  1.2356
  115MOL0     C15734  10.891   4.675   3.704 -0.3932 -0.0927  0.0659
  115MOL0     O15735  10.915   4.616   3.582 -0.4637  0.8237  0.1459
  115MOL0     C15736  10.807   4.604   3.494  0.6216 -0.1750 -0.2041
  115MOL0     C15737  10.695   4.687   3.499  0.0757  0.0300 -0.1293
  115MOL0     C15738  10.602   4.688   3.397 -0.9135 -1.1295 -0.1703
  115MOL0     C15739  10.634   4.613   3.280  0.5599 -0.5688 -1.0633
  115MOL0     O15740  10.551   4.614   3.174 -0.4497 -0.2595 -0.1941
  115MOL0     C15741  10.592   4.693   3.060 -0.2558  1.4623 -0.8288
  115MOL0     C15742  10.563   4.848   3.085  0.3949 -0.2427 -0.3174
  115MOL0     C15743  10.680   4.930   3.024 -0.3036 -0.0714  0.5406
  115MOL0     C15744  10.635   5.074   3.006 -0.0842 -0.6944 -0.4094
  115MOL0     C15745  10.717   5.153   2.898  0.2538  0.4715 -1.3104
  115MOL0     C15746  10.649   5.277   2.840  0.1101 -0.2231  0.2155
  115MOL0     C15747  10.631   5.393   2.947 -0.9358  0.1468  0.3646
  115MOL0     C15748  10.565   5.518   2.900  0.2340  0.7338  0.3645
  115MOL0     N15749  10.422   5.494   2.867  0.2340  0.5053  0.1872
  115MOL0     C15750  10.312   5.555   2.933 -0.4620  0.2500 -0.2240
  115MOL0     C15751  10.198   5.516   2.870 -0.2002 -0.5237 -1.1684
  115MOL0     C15752  10.064   5.583   2.904  0.5610  0.2724  0.1041
  115MOL0     C15753  10.066   5.730   2.925 -0.0040  0.8856  0.2556
  115MOL0     C15754  10.032   5.806   2.798 -0.3784 -0.6955  0.5918
  115MOL0     C15755  10.135   5.794   2.691 -0.0158  0.3286  0.3911
  115MOL0     O15756  10.077   5.844   2.568  0.0457 -0.2557 -0.1303
  115MOL0     C15757  10.166   5.854   2.461  0.6796 -0.6169 -0.6978
  115MOL0     C15758  10.287   5.925   2.467 -0.5415 -0.0247 -0.0121
  115MOL0     C15759  10.372   5.936   2.359  0.2901 -0.3791  0.2536
  115MOL0     C15760  10.498   6.004   2.390  1.0882  0.1536 -0.0692
  115MOL0     C15761  10.335   5.877   2.234  0.2120 -0.1455 -0.3350
  115MOL0     C15762  10.396   5.897   2.103 -0.7081 -0.3970  0.4637
  115MOL0     O15763  10.312   5.861   1.996 -0.3828 -0.0225  0.5950
  115MOL0     C15764  10.354   5.853   1.869 -0.2110  0.8468  0.2926
  115MOL0     C15765  10.412   5.722   1.830 -0.0461  0.1585 -0.2799
  115MOL0     C15766  10.432   5.697   1.698 -0.6892  0.2030  0.1847
  115MOL0     C15767  10.407   5.797   1.596 -0.2068 -0.1908  0.1441
  115MOL0     O15768  10.445   5.772   1.465 -0.1259  0.9418  0.4211
  115MOL0     C15769  10.591   5.768   1.445 -0.2029 -0.5644 -0.0630
  115MOL0     C15770  10.636   5.895   1.384 -0.3443 -0.3825 -0.5928
  115MOL0     C15771  10.557   5.959   1.262  0.6008  0.5622 -0.0054
  115MOL0     C15772  10.553   5.867   1.145  0.7825 -0.3179  0.2562
  115MOL0     C15773  10.653   5.878   1.041  0.2517 -0.3878 -0.1536
  115MOL0     C15774  10.625   5.789   0.920 -0.0657 -0.3082 -0.6948
  115MOL0     C15775  10.619   5.641   0.942  1.2186 -0.3262  0.3788
  115MOL0     C15776  10.751   5.584   1.011 -0.0563 -0.8253 -0.1204
  115MOL0    Cl15777  10.906   5.613   0.933  0.1908  0.6220 -0.3708
  115MOL0     C15778  10.357   5.925   1.628  0.2241 -0.0711  0.2956
  115MOL0     C15779  10.329   5.951   1.768 -0.0129 -0.6860  1.2653
  115MOL0     O15780  10.515   5.920   2.093 -1.1508  0.5527 -0.1524
  115MOL0     C15781  10.221   5.803   2.229  0.0275 -0.0377 -0.5932
  115MOL0     C15782  10.142   5.791   2.344  0.1325 -0.4233  1.1506
  115MOL0     N15783  10.243   5.411   2.792 -0.0045  0.3519 -0.0545
  115MOL0     N15784  10.369   5.411   2.774 -0.5741 -0.0471 -0.1684
  115MOL0     C15785  10.739   4.529   3.277  0.4061  0.7560 -0.2231
  115MOL0     C15786  10.819   4.520   3.388  0.0191 -0.4944  0.1972
  115MOL0     C15787  11.011   4.716   3.791  0.6447 -0.0017  0.8742
  115MOL0     C15788  11.134   4.644   3.785  0.7257  0.6007  1.4505
  115MOL0     C15789  11.240   4.664   3.875 -0.0697  0.7647  0.1711
  115MOL0     C15790  11.225   4.761   3.978  0.8240  1.0052 -0.4553
  115MOL0     O15791  11.312   4.788   4.079  0.8786  0.0410 -0.6847
  115MOL0     C15792  11.392   4.688   4.136 -0.0763  0.1351  0.0149
  115MOL0     C15793  11.311   4.581   4.217 -0.2115 -0.1861  0.3315
  115MOL0     C15794  11.394   4.448   4.251  0.1103 -0.4602  1.0427
  115MOL0     C15795  11.465   4.485   4.383  0.6332  0.2122 -1.0466
  115MOL0     C15796  11.360   4.499   4.495  0.3575  0.1755  0.3471
  115MOL0     C15797  11.290   4.526   4.590 -0.5871 -1.0637  0.3547
  115MOL0     C15798  11.112   4.842   3.974  0.3108  0.2505  0.1899
  115MOL0     C15799  11.004   4.825   3.882  0.2895  0.2754  0.0865
  115MOL0     C15800  10.890   4.919   3.870 -1.0128 -0.1427 -0.2015
  115MOL0     H15801  10.671   4.761   3.575 -0.1301 -1.5575  1.4236
  115MOL0     H15802  10.503   4.733   3.398  0.3765  1.9170 -0.5677
  115MOL0     H15803  10.547   4.655   2.968  2.2089  0.8547 -1.8609
  115MOL0     H15804  10.699   4.681   3.043 -0.5367  0.1065 -1.7349
  115MOL0     H15805  10.461   4.869   3.051  1.0140  2.9106 -0.5268
  115MOL0     H15806  10.564   4.868   3.193 -1.1908  0.5269 -0.4148
  115MOL0     H15807  10.767   4.921   3.089  1.9301 -1.8903 -2.4562
  115MOL0     H15808  10.709   4.899   2.924  0.1357 -0.7525  0.8707
  115MOL0     H15809  10.533   5.080   2.966  0.2747  3.4082 -1.1048
  115MOL0     H15810  10.634   5.123   3.104  0.2433 -0.3156 -0.5937
  115MOL0     H15811  10.745   5.087   2.815  0.0053 -4.6611  2.2923
  115MOL0     H15812  10.811   5.188   2.941 -0.9484  1.5315  0.6249
  115MOL0     H15813  10.704   5.316   2.754 -2.9493  0.2694 -1.6759
  115MOL0     H15814  10.562   5.243   2.783  2.0990 -1.2358 -2.4562
  115MOL0     H15815  10.739   5.410   2.955 -0.3068 -3.2103  0.3977
  115MOL0     H15816  10.584   5.349   3.035 -0.2212  0.3093  0.8417
  115MOL0     H15817  10.574   5.606   2.964  1.4250  2.4665 -2.0235
  115MOL0     H15818  10.631   5.538   2.815  0.4443  0.4281  0.4555
  115MOL0     H15819  10.316   5.622   3.018  0.0708 -1.0884  0.8365
  115MOL0     H15820  10.022   5.541   2.997  0.2910 -1.1110 -0.6187
  115MOL0     H15821   9.992   5.564   2.824  3.5948  1.7593 -3.2344
  115MOL0     H15822   9.997   5.752   3.006 -2.6024  0.4761 -1.7055
  115MOL0     H15823  10.160   5.774   2.960  0.6605  0.6187 -1.1249
  115MOL0     H15824   9.936   5.775   2.757  0.3016 -1.7135 -0.2996
  115MOL0     H15825  10.038   5.908   2.838  3.0363 -1.5378  2.6722
  115MOL0     H15826  10.219   5.854   2.726  0.2753  1.4597 -2.0334
  115MOL0     H15827  10.170   5.692   2.673 -3.3847 -0.6247 -1.7711
  115MOL0     H15828  10.308   5.965   2.566 -1.3286  1.0227 -0.2533
  115MOL0     H15829  10.482   6.105   2.353 -1.0196 -0.2884 -0.5321
  115MOL0     H15830  10.580   5.972   2.326 -0.0903  0.0899 -1.6262
  115MOL0     H15831  10.543   6.005   2.490  0.3991  0.7709  0.2463
  115MOL0     H15832  10.403   5.633   1.891 -0.0183  1.6711  2.0396
  115MOL0     H15833  10.460   5.597   1.665 -2.7216 -1.2580  2.5138
  115MOL0     H15834  10.634   5.748   1.543 -0.0117 -2.3366 -0.4831
  115MOL0     H15835  10.614   5.690   1.372 -0.5886  0.8496 -1.7718
  115MOL0     H15836  10.643   5.962   1.471 -0.1235  0.3295 -1.1441
  115MOL0     H15837  10.733   5.876   1.339  0.5025  2.3807 -0.1524
  115MOL0     H15838  10.609   6.048   1.225  0.3564  0.7240  0.0392
  115MOL0     H15839  10.460   5.987   1.305 -1.0522 -2.4527 -1.4605
  115MOL0     H15840  10.455   5.893   1.104  1.1065  0.2508 -0.1875
  115MOL0     H15841  10.555   5.761   1.170 -0.6678 -0.1064  1.4025
  115MOL0     H15842  10.641   5.983   1.015 -2.9657 -0.9923 -1.6748
  115MOL0     H15843  10.748   5.862   1.092  0.4765  4.5966  1.5514
  115MOL0     H15844  10.703   5.810   0.845  1.6359  4.5309  1.9599
  115MOL0     H15845  10.527   5.822   0.885  0.0351  0.3994 -0.3386
  115MOL0     H15846  10.605   5.584   0.850  1.1148  0.9674 -0.4374
  115MOL0     H15847  10.544   5.620   1.019 -0.2888 -1.6114 -1.3618
  115MOL0     H15848  10.740   5.476   1.023 -2.5266 -0.4494  1.7041
  115MOL0     H15849  10.756   5.632   1.109  1.9035  0.5575 -0.8285
  115MOL0     H15850  10.355   6.006   1.555 -0.3824  1.7004  2.1567
  115MOL0     H15851  10.292   6.050   1.791 -1.6525 -0.5749 -1.5017
  115MOL0     H15852  10.171   5.756   2.144 -1.0591  0.7579 -0.4156
  115MOL0     H15853  10.047   5.739   2.336 -1.5044  2.6044 -1.0913
  115MOL0     H15854  10.773   4.465   3.196 -1.4141 -3.1082  1.7903
  115MOL0     H15855  10.910   4.461   3.386  3.0897  3.5561  2.5367
  115MOL0     H15856  11.137   4.578   3.699 -2.6100  2.2329 -0.1011
  115MOL0     H15857  11.337   4.615   3.865 -0.5769 -0.0872 -0.7042
  115MOL0     H15858  11.446   4.642   4.053 -0.0357 -0.7893  0.5352
  115MOL0     H15859  11.470   4.725   4.204  0.6421 -1.2891  0.0069
  115MOL0     H15860  11.236   4.544   4.146  0.0178 -2.7612  1.3272
  115MOL0     H15861  11.270   4.632   4.305  3.1558  2.4079  0.6085
  115MOL0     H15862  11.320   4.367   4.245 -0.2539 -0.0255 -2.0901
  115MOL0     H15863  11.455   4.415   4.167 -0.1045  0.3399  0.5574
  115MOL0     H15864  11.515   4.581   4.374 -0.7154  1.0387 -0.1085
  115MOL0     H15865  11.536   4.405   4.406  1.0281  1.4019  2.3557
  115MOL0     H15866  11.221   4.536   4.671 -1.8657 -0.8567 -0.7265
  115MOL0     H15867  11.106   4.908   4.060  0.6339  1.8026 -0.9326
  115MOL0     H15868  10.888   4.956   3.767  4.2999 -0.2432 -0.6250
  115MOL0     H15869  10.798   4.863   3.891 -0.7216 -0.4993  0.1452
  115MOL0     H15870  10.890   4.996   3.948 -1.9074  0.9248 -1.2099
  116MOL0     O15871   8.135   3.258   8.899 -0.7838 -0.1928 -0.0077
  116MOL0     C15872   8.241   3.245   8.827  0.6581  0.1586  0.4890
  116MOL0     O15873   8.363   3.268   8.866  0.1494 -0.1325  0.3570
  116MOL0     C15874   8.375   3.296   9.002 -0.3501 -0.1781 -0.5974
  116MOL0     C15875   8.345   3.418   9.048  0.3355 -0.0842  0.3629
  116MOL0     C15876   8.380   3.449   9.178  0.3460 -0.2325  0.6275
  116MOL0     C15877   8.431   3.355   9.267 -0.8559 -0.1728 -0.2262
  116MOL0     O15878   8.443   3.393   9.394  0.3507 -0.1433  0.3449
  116MOL0     C15879   8.351   3.336   9.493 -0.4502 -0.5112  0.7810
  116MOL0     C15880   8.426   3.271   9.620 -0.3996 -0.0478 -0.0253
  116MOL0     C15881   8.545   3.179   9.592  0.2708  0.6587 -0.2505
  116MOL0     C15882   8.636   3.148   9.717  0.0835 -0.3746 -0.1231
  116MOL0     C15883   8.741   3.044   9.683 -0.1483 -0.5761  0.5598
  116MOL0     C15884   8.688   2.909   9.660  0.3607  0.7303 -0.4899
  116MOL0     C15885   8.782   2.820   9.589  0.2531  0.3561  0.2999
  116MOL0     C15886   8.707   2.697   9.536 -0.2704  0.2405 -0.6283
  116MOL0     N15887   8.786   2.586   9.496  0.4611 -0.5846  0.5612
  116MOL0     C15888   8.902   2.607   9.416  0.6794  0.2333 -0.8942
  116MOL0     C15889   8.980   2.496   9.425 -0.8776  0.0443 -0.0862
  116MOL0     C15890   9.097   2.469   9.344 -0.4669  0.4693 -0.3931
  116MOL0     C15891   9.221   2.493   9.422 -1.1593 -0.2720  0.1814
  116MOL0     C15892   9.258   2.643   9.443 -0.7397  0.3299 -0.1632
  116MOL0     C15893   9.296   2.719   9.310  0.0614 -0.0868 -0.9787
  116MOL0     O15894   9.293   2.856   9.355  0.9795  0.8889 -0.1621
  116MOL0     C15895   9.176   2.933   9.341 -0.8294 -0.6188 -0.8775
  116MOL0     C15896   9.060   2.923   9.260 -1.0909 -0.0970 -0.0311
  116MOL0     C15897   8.956   3.019   9.277  0.4063 -0.2676  0.4881
  116MOL0     C15898   8.817   2.987   9.211  0.5102 -0.5652 -0.2945
  116MOL0     C15899   8.979   3.136   9.342 -0.5369 -0.6318 -0.5605
  116MOL0     C15900   8.896   3.258   9.329  0.1147 -0.2567 -0.6548
  116MOL0     O15901   8.916   3.356   9.426 -0.3733  0.2156 -0.8967
  116MOL0     C15902   8.890   3.486   9.386 -0.3777  0.1538 -0.3543
  116MOL0     C15903   8.970   3.545   9.296 -0.7889 -0.1565  0.5063
  116MOL0     C15904   8.947   3.677   9.257  0.7202  0.8584 -0.6113
  116MOL0     C15905   8.834   3.743   9.313  1.0089  1.0132  0.0791
  116MOL0     O15906   8.778   3.865   9.273 -0.3412  0.1344  0.6034
  116MOL0     C15907   8.862   3.929   9.176 -0.1805 -0.7598 -1.2772
  116MOL0     C15908   8.810   4.062   9.132  0.1826 -1.1215  0.6756
  116MOL0     C15909   8.884   4.127   9.012 -0.5298 -0.0308 -0.5830
  116MOL0     C15910   8.781   4.217   8.942 -0.0297 -0.9496 -0.3830
  116MOL0     C15911   8.725   4.330   9.024 -0.1472  0.4666 -0.1205
  116MOL0     C15912   8.620   4.411   8.945 -0.1830 -0.1116 -0.3736
  116MOL0     C15913   8.549   4.526   9.027  0.1627  0.2557  0.4756
  116MOL0     C15914   8.411   4.542   8.970  0.2257 -0.0549 -0.2682
  116MOL0    Cl15915   8.297   4.396   8.982 -0.3001 -0.0888 -0.1286
  116MOL0     C15916   8.742   3.671   9.392 -0.3360 -0.0540 -0.2823
  116MOL0     C15917   8.769   3.542   9.432  0.5283 -0.6358  0.3334
  116MOL0     O15918   8.830   3.274   9.226  0.4175  0.5445 -0.3489
  116MOL0     C15919   9.095   3.138   9.422 -0.3076  0.5645 -0.2888
  116MOL0     C15920   9.194   3.045   9.421  0.7076  0.4945 -0.2607
  116MOL0     N15921   8.904   2.404   9.498  1.1026 -1.4129  0.0033
  116MOL0     N15922   8.796   2.463   9.549 -0.6000 -0.3520 -0.9009
  116MOL0     C15923   8.471   3.230   9.217  0.5610 -0.3201 -0.9386
  116MOL0     C15924   8.445   3.198   9.083  0.3632 -0.0268 -0.3896
  116MOL0     C15925   8.228   3.206   8.689 -0.7967  0.2211  0.5523
  116MOL0     C15926   8.102   3.223   8.619 -0.6745  0.5393 -0.1288
  116MOL0     C15927   8.100   3.227   8.482  0.3204  0.6063 -0.4213
  116MOL0     C15928   8.196   3.168   8.402 -0.2762  0.6733  0.1320
  116MOL0     O15929   8.197   3.147   8.262 -0.4784  0.0724  0.2297
  116MOL0     C15930   8.080   3.185   8.185  1.0732  0.0998 -0.5254
  116MOL0     C15931   8.115   3.177   8.039 -0.0422  0.1736  0.6163
  116MOL0     C15932   8.147   3.029   7.983 -0.0408 -0.0423  0.0733
  116MOL0     C15933   8.038   2.929   8.021  0.5200  0.4620  0.5891
  116MOL0     C15934   7.905   2.961   7.975 -0.3106  0.0718 -0.9685
  116MOL0     C15935   7.796   2.975   7.940 -0.0625  0.3460 -0.3899
  116MOL0     C15936   8.305   3.114   8.468  0.2462 -0.1292  0.9192
  116MOL0     C15937   8.329   3.143   8.605 -0.0697  0.0986 -0.3690
  116MOL0     C15938   8.451   3.083   8.659 -0.5891  0.0598  0.7020
  116MOL0     H15939   8.298   3.497   8.989 -2.5352 -3.3821 -2.2126
  116MOL0     H15940   8.354   3.550   9.209 -2.9880  0.0023 -2.2451
  116MOL0     H15941   8.298   3.262   9.433  0.1577 -1.4467  1.3585
  116MOL0     H15942   8.282   3.414   9.526  0.3219  0.8029 -0.6074
  116MOL0     H15943   8.470   3.350   9.682 -0.4325 -3.2230  4.5891
  116MOL0     H15944   8.344   3.215   9.666 -0.4281  0.5013  0.6095
  116MOL0     H15945   8.496   3.086   9.560  0.4929  0.3525  0.2882
  116MOL0     H15946   8.608   3.213   9.509 -1.4685  1.3983 -1.3101
  116MOL0     H15947   8.680   3.245   9.743 -0.8345 -0.5817  2.4672
  116MOL0     H15948   8.567   3.125   9.798 -0.7097  2.2539  0.0497
  116MOL0     H15949   8.805   3.025   9.770 -2.0015 -5.4013  1.2112
  116MOL0     H15950   8.796   3.083   9.596  0.9673  4.9844  3.3396
  116MOL0     H15951   8.642   2.867   9.750 -2.1368  1.6667 -1.2309
  116MOL0     H15952   8.614   2.928   9.582  0.1636  1.9938 -0.0207
  116MOL0     H15953   8.866   2.775   9.641  1.5584  0.6361 -1.4845
  116MOL0     H15954   8.818   2.867   9.497 -0.4874 -0.7392 -0.5867
  116MOL0     H15955   8.646   2.659   9.618  2.2417 -0.3950  1.0558
  116MOL0     H15956   8.655   2.731   9.446 -0.3949  0.3623 -0.5108
  116MOL0     H15957   8.924   2.702   9.367  0.5423  1.0627  0.5924
  116MOL0     H15958   9.093   2.528   9.252 -2.0408 -0.2878 -0.8482
  116MOL0     H15959   9.100   2.364   9.315 -1.0877  0.4712 -0.4657
  116MOL0     H15960   9.221   2.463   9.528 -3.2347  0.1158  0.3273
  116MOL0     H15961   9.299   2.439   9.367 -5.3189 -3.6443 -3.1129
  116MOL0     H15962   9.171   2.700   9.477  1.2710  5.7305 -2.9732
  116MOL0     H15963   9.339   2.657   9.514 -1.5686  1.3984  0.6131
  116MOL0     H15964   9.395   2.685   9.279 -0.7842 -2.1227 -1.6444
  116MOL0     H15965   9.223   2.696   9.232 -1.4260  2.0310 -0.3110
  116MOL0     H15966   9.031   2.844   9.192 -0.0066  1.2917 -2.2056
  116MOL0     H15967   8.740   3.037   9.272  2.3082  0.4217  1.2666
  116MOL0     H15968   8.794   2.882   9.194  1.6208 -0.6146 -1.6877
  116MOL0     H15969   8.811   3.040   9.115  2.8037 -0.3285 -0.3532
  116MOL0     H15970   9.048   3.489   9.245 -0.8647 -1.0907  1.3947
  116MOL0     H15971   9.009   3.725   9.182 -0.9960  0.3372 -2.4343
  116MOL0     H15972   8.960   3.948   9.220 -0.5212 -2.3923  0.3101
  116MOL0     H15973   8.873   3.849   9.102 -2.2479 -1.4891 -0.8630
  116MOL0     H15974   8.702   4.050   9.114  0.4778 -1.9856 -0.6899
  116MOL0     H15975   8.814   4.126   9.220  1.6041  0.3374 -0.3965
  116MOL0     H15976   8.924   4.055   8.941  2.1913  0.8067  0.0018
  116MOL0     H15977   8.967   4.190   9.046 -0.7830  0.0953 -0.1910
  116MOL0     H15978   8.692   4.162   8.912  0.7858 -1.9068 -1.1459
  116MOL0     H15979   8.822   4.260   8.850 -2.2567  0.3899 -0.8068
  116MOL0     H15980   8.676   4.304   9.118 -0.5147  1.1923 -0.1056
  116MOL0     H15981   8.802   4.405   9.046 -0.6027  0.5144  1.4596
  116MOL0     H15982   8.541   4.348   8.902  0.9971 -1.1542 -1.0892
  116MOL0     H15983   8.675   4.457   8.862 -2.4881  2.7614 -0.4735
  116MOL0     H15984   8.613   4.614   9.036 -1.5286  1.6284 -0.4140
  116MOL0     H15985   8.535   4.492   9.131  0.2722 -1.3110  0.0142
  116MOL0     H15986   8.424   4.558   8.862  1.5056  1.8199  0.1027
  116MOL0     H15987   8.374   4.631   9.021  3.3691  0.4550  1.4243
  116MOL0     H15988   8.646   3.714   9.421  1.4733  1.5154  4.2647
  116MOL0     H15989   8.703   3.478   9.489 -2.7048  2.1538  0.1132
  116MOL0     H15990   9.122   3.226   9.479  2.0946  1.7453 -2.9823
  116MOL0     H15991   9.284   3.054   9.481  1.7920  0.3808 -1.7991
  116MOL0     H15992   8.515   3.155   9.282  0.7398 -0.3132 -1.0521
  116MOL0     H15993   8.490   3.108   9.042  1.3220  1.2652 -2.3086
  116MOL0     H15994   8.020   3.268   8.675 -0.3678 -1.6552  2.2659
  116MOL0     H15995   8.007   3.270   8.447  1.1290 -0.3177 -4.1904
  116MOL0     H15996   8.002   3.112   8.207  1.1933 -0.2086 -1.1111
  116MOL0     H15997   8.034   3.279   8.216 -0.7305  0.0320 -2.6680
  116MOL0     H15998   8.195   3.249   8.024  1.2335 -0.8298  2.2404
  116MOL0     H15999   8.023   3.205   7.986 -0.7003 -0.7968  1.1981
  116MOL0     H16000   8.145   3.024   7.874 -1.7407  2.0707 -0.0641
  116MOL0     H16001   8.245   2.995   8.019 -0.4654 -1.9544 -0.4807
  116MOL0     H16002   8.040   2.903   8.127  1.8251 -1.1278  0.2226
  116MOL0     H16003   8.059   2.830   7.979  3.0459  2.0237 -2.2479
  116MOL0     H16004   7.702   3.007   7.899  0.7252  2.5663 -0.6294
  116MOL0     H16005   8.382   3.069   8.406  0.8283  0.8500  0.9174
  116MOL0     H16006   8.442   3.042   8.760 -0.9777 -1.4664  0.0831
  116MOL0     H16007   8.488   3.007   8.589  0.0041  0.4939  0.5341
  116MOL0     H16008   8.521   3.167   8.662 -1.5844  0.9157  0.3590
  117MOL0     O16009   0.456   4.971   7.514 -0.5299 -0.1911 -0.5891
  117MOL0     C16010   0.439   5.081   7.563  0.2672 -1.1046  0.3772
  117MOL0     O16011   0.513   5.137   7.662 -1.2526 -0.1736 -0.7038
  117MOL0     C16012   0.628   5.093   7.719  0.1028  0.6686  0.9353
  117MOL0     C16013   0.716   4.992   7.661 -0.0223  0.0148 -0.0893
  117MOL0     C16014   0.832   4.943   7.725 -0.7635  0.3675 -0.5081
  117MOL0     C16015   0.870   5.015   7.842 -0.3345 -0.4466 -0.5141
  117MOL0     O16016   0.987   4.986   7.896 -0.2866  0.4641  0.1983
  117MOL0     C16017   1.104   5.060   7.853 -0.8112  0.3489  0.8615
  117MOL0     C16018   1.236   4.985   7.873 -0.1525 -1.4422 -0.0571
  117MOL0     C16019   1.273   4.974   8.019  0.4615  1.9388  0.6189
  117MOL0     C16020   1.341   5.106   8.072  1.0221  0.1376  1.7078
  117MOL0     C16021   1.356   5.126   8.208  0.0135 -0.0762  0.1696
  117MOL0     C16022   1.387   5.002   8.290  0.4264 -0.7099 -0.8604
  117MOL0     C16023   1.401   5.053   8.438  0.6492 -0.1064 -0.0349
  117MOL0     C16024   1.431   4.939   8.520  0.3179 -0.4227  0.3380
  117MOL0     N16025   1.551   4.860   8.473  0.7453 -0.6393  0.5675
  117MOL0     C16026   1.686   4.906   8.449 -0.3665  0.2698  0.1132
  117MOL0     C16027   1.756   4.797   8.441 -0.0193 -0.4689 -0.0232
  117MOL0     C16028   1.902   4.778   8.419 -1.0177  0.0475  0.6521
  117MOL0     C16029   1.938   4.709   8.281 -0.2850 -0.1283  0.0054
  117MOL0     C16030   1.876   4.786   8.172  0.4472  1.2528  0.0736
  117MOL0     C16031   1.962   4.792   8.044 -0.9211 -0.8544  0.9527
  117MOL0     O16032   1.887   4.876   7.964 -0.2914 -0.5261 -1.1653
  117MOL0     C16033   1.900   4.855   7.836  0.4746  0.5030  0.4797
  117MOL0     C16034   1.777   4.829   7.768 -0.3267  0.2292 -0.4702
  117MOL0     C16035   1.768   4.821   7.622  0.5894  0.5501 -0.7571
  117MOL0     C16036   1.630   4.787   7.562  2.0819 -0.3337 -0.1897
  117MOL0     C16037   1.884   4.817   7.542 -0.0839  0.7675 -0.3399
  117MOL0     C16038   1.888   4.793   7.397  0.1464  0.5778  0.2688
  117MOL0     O16039   1.770   4.754   7.337 -1.0232  0.0153  0.0609
  117MOL0     C16040   1.773   4.706   7.212  1.1277  0.6284 -1.5627
  117MOL0     C16041   1.706   4.581   7.179 -0.2464 -0.2268  0.6409
  117MOL0     C16042   1.723   4.525   7.047 -0.3202 -0.0724 -0.3732
  117MOL0     C16043   1.798   4.587   6.948 -0.4687 -0.4051 -1.7028
  117MOL0     O16044   1.844   4.538   6.828  0.3315  1.2105  0.1110
  117MOL0     C16045   1.767   4.433   6.770 -0.0202 -0.1826  1.1084
  117MOL0     C16046   1.745   4.459   6.623  0.4808  0.0146 -0.9444
  117MOL0     C16047   1.869   4.503   6.541  0.8844 -1.2063  0.2711
  117MOL0     C16048   1.952   4.380   6.510  0.0845 -0.1526  0.1544
  117MOL0     C16049   2.040   4.390   6.382  0.7218  1.0074  0.5043
  117MOL0     C16050   2.159   4.483   6.389 -0.8048 -0.3730 -0.3611
  117MOL0     C16051   2.253   4.463   6.513 -0.5121  1.4067 -0.6823
  117MOL0     C16052   2.393   4.530   6.505  0.6706 -0.1984 -0.0836
  117MOL0    Cl16053   2.391   4.707   6.500 -0.2146 -0.2367 -0.7540
  117MOL0     C16054   1.853   4.708   6.985 -0.5648 -0.4463 -0.6491
  117MOL0     C16055   1.836   4.770   7.108 -0.2654  1.5981 -0.1280
  117MOL0     O16056   2.000   4.783   7.345  0.2664  0.6327  0.3571
  117MOL0     C16057   2.005   4.853   7.616 -0.1780 -0.7127  0.3730
  117MOL0     C16058   2.020   4.866   7.760 -0.1403  0.5163 -0.0102
  117MOL0     N16059   1.676   4.689   8.464  0.0288  0.9132  0.5953
  117MOL0     N16060   1.554   4.723   8.485  0.2232 -0.2984  0.3038
  117MOL0     C16061   0.779   5.114   7.901 -0.2651  0.9417  1.7314
  117MOL0     C16062   0.660   5.148   7.837 -0.6760 -0.7307 -0.7073
  117MOL0     C16063   0.336   5.171   7.491 -0.8654 -0.6774  0.7239
  117MOL0     C16064   0.369   5.306   7.446  0.0587  0.0995 -0.2373
  117MOL0     C16065   0.268   5.384   7.398  1.0512  0.3705  1.2541
  117MOL0     C16066   0.140   5.333   7.375 -0.5539  0.0838  0.4452
  117MOL0     O16067   0.040   5.416   7.338 -0.2836  0.1857  0.8474
  117MOL0     C16068   0.056   5.537   7.252 -0.0323  0.5095  0.2234
  117MOL0     C16069  -0.079   5.596   7.214  0.7028  0.2491  0.9946
  117MOL0     C16070  -0.150   5.503   7.115 -0.1390  0.3756  1.5523
  117MOL0     C16071  -0.298   5.545   7.097 -1.0600  0.4637 -1.2189
  117MOL0     C16072  -0.364   5.467   6.993  0.2093  0.0195 -0.4230
  117MOL0     C16073  -0.397   5.407   6.894 -0.3543 -0.7951  0.0857
  117MOL0     C16074   0.103   5.206   7.425  0.3362 -0.3376  0.7525
  117MOL0     C16075   0.205   5.123   7.479 -0.3264 -0.3604  0.4766
  117MOL0     C16076   0.164   4.993   7.539 -0.1231  0.2573  0.7592
  117MOL0     H16077   0.694   4.952   7.562 -2.0164 -0.2410  0.4179
  117MOL0     H16078   0.901   4.879   7.671 -2.3226 -0.2853 -1.8309
  117MOL0     H16079   1.103   5.160   7.899  0.3455  0.4340  0.7344
  117MOL0     H16080   1.088   5.078   7.746 -0.2299  4.2718  1.2795
  117MOL0     H16081   1.223   4.884   7.833  0.2965 -1.4502 -0.1850
  117MOL0     H16082   1.309   5.038   7.811 -0.8835  0.5003  0.6850
  117MOL0     H16083   1.183   4.948   8.075  1.2907 -1.5021  0.5832
  117MOL0     H16084   1.337   4.886   8.026 -0.4154  1.0470 -1.7337
  117MOL0     H16085   1.441   5.113   8.029  1.8074  0.4668  3.4600
  117MOL0     H16086   1.297   5.199   8.034  2.5567  0.5563  0.9172
  117MOL0     H16087   1.265   5.165   8.255  0.3463  0.2851  0.5206
  117MOL0     H16088   1.438   5.198   8.211  1.1797 -1.1747 -2.2676
  117MOL0     H16089   1.306   4.928   8.291  0.6691 -1.0892  2.7594
  117MOL0     H16090   1.489   4.974   8.262  2.4740  2.3495  2.7076
  117MOL0     H16091   1.302   5.077   8.478 -0.7509 -4.9076  0.0083
  117MOL0     H16092   1.469   5.135   8.465 -1.7850  2.2117 -0.5474
  117MOL0     H16093   1.444   4.974   8.622  0.7449 -1.7177  0.7526
  117MOL0     H16094   1.342   4.876   8.512  1.4722 -1.9428 -1.6178
  117MOL0     H16095   1.723   5.009   8.442  1.3135 -0.3390 -0.5392
  117MOL0     H16096   1.937   4.715   8.502 -0.3986 -0.5078 -0.0248
  117MOL0     H16097   1.962   4.869   8.428 -1.5805  0.8932 -2.8990
  117MOL0     H16098   2.047   4.706   8.282 -0.2544  0.6840  0.5077
  117MOL0     H16099   1.925   4.602   8.265  5.1718 -0.8656 -1.5667
  117MOL0     H16100   1.788   4.730   8.139  1.0394 -0.5857  1.4727
  117MOL0     H16101   1.859   4.890   8.203  4.2172  1.1704  3.0667
  117MOL0     H16102   2.063   4.829   8.063 -0.5548 -1.6856  0.7075
  117MOL0     H16103   1.975   4.690   8.006  0.0424 -0.7310  0.9237
  117MOL0     H16104   1.697   4.799   7.836 -2.3012 -2.6972 -3.7552
  117MOL0     H16105   1.596   4.858   7.487 -3.6469 -4.3128 -2.0204
  117MOL0     H16106   1.558   4.786   7.644  0.4040 -1.6471 -1.5967
  117MOL0     H16107   1.621   4.690   7.512 -2.3418 -0.6164  0.7553
  117MOL0     H16108   1.646   4.537   7.257 -2.0877  0.2535 -0.4346
  117MOL0     H16109   1.675   4.428   7.037  1.7411 -1.1637 -0.1626
  117MOL0     H16110   1.809   4.333   6.781  1.7396 -0.2004 -3.6049
  117MOL0     H16111   1.669   4.452   6.816  0.2224  1.0032  1.1790
  117MOL0     H16112   1.703   4.366   6.584 -1.0074 -1.5124  3.6496
  117MOL0     H16113   1.673   4.542   6.624  1.3459  0.8603  2.1815
  117MOL0     H16114   1.935   4.575   6.590  0.1067  0.6000 -1.2051
  117MOL0     H16115   1.839   4.538   6.442 -1.0439 -1.5333  0.7026
  117MOL0     H16116   1.884   4.295   6.506  2.4236 -2.1643  0.9550
  117MOL0     H16117   2.017   4.349   6.592  0.4280 -1.5660 -0.6198
  117MOL0     H16118   2.073   4.289   6.357 -2.1338 -0.0923  0.7984
  117MOL0     H16119   1.975   4.423   6.300  0.2483 -1.0441  0.0129
  117MOL0     H16120   2.123   4.585   6.405 -1.2094 -0.3474 -1.3997
  117MOL0     H16121   2.195   4.477   6.286 -0.3535  0.9332 -0.2995
  117MOL0     H16122   2.270   4.356   6.521 -0.9151  1.3263 -0.9147
  117MOL0     H16123   2.207   4.505   6.603  0.8575 -0.0703  0.7849
  117MOL0     H16124   2.434   4.499   6.408  0.9750  1.9076 -0.6850
  117MOL0     H16125   2.467   4.508   6.582  1.6617  0.0184 -0.9468
  117MOL0     H16126   1.923   4.754   6.915 -2.3340 -2.5994 -4.1491
  117MOL0     H16127   1.875   4.871   7.112 -3.0628  2.7792  0.1440
  117MOL0     H16128   2.098   4.855   7.561  0.5666  2.1629  1.5595
  117MOL0     H16129   2.110   4.882   7.819  0.2678 -1.4079 -0.0505
  117MOL0     H16130   0.816   5.164   7.990  3.4393  0.8310  0.4311
  117MOL0     H16131   0.589   5.217   7.882  1.5628  2.5830 -1.8001
  117MOL0     H16132   0.464   5.350   7.477 -0.4453  0.7808  0.3629
  117MOL0     H16133   0.282   5.488   7.369 -0.2628 -0.4379 -2.8147
  117MOL0     H16134   0.113   5.611   7.309  2.5711 -0.3790 -1.0509
  117MOL0     H16135   0.102   5.516   7.155  1.1252  0.9557  0.6625
  117MOL0     H16136  -0.051   5.688   7.162  2.6967 -0.9800 -0.2449
  117MOL0     H16137  -0.154   5.629   7.287 -1.1552 -0.7756 -0.3694
  117MOL0     H16138  -0.093   5.480   7.024  3.1263 -0.4599  3.6322
  117MOL0     H16139  -0.160   5.412   7.174 -3.6393  0.7098  1.6356
  117MOL0     H16140  -0.310   5.652   7.080 -1.1980  0.7390  0.4581
  117MOL0     H16141  -0.344   5.525   7.194  1.9286  1.2587  0.4615
  117MOL0     H16142  -0.420   5.366   6.798 -0.2447 -0.3895 -0.1171
  117MOL0     H16143  -0.003   5.183   7.428  0.3600 -0.4460  0.7880
  117MOL0     H16144   0.103   4.951   7.459 -3.9482  2.3183  2.3626
  117MOL0     H16145   0.240   4.921   7.573 -0.2259  0.2561  0.9903
  117MOL0     H16146   0.103   5.005   7.628 -0.6095 -1.6338  0.7262
  118MOL0     O16147  11.504   9.802   4.618 -0.3348 -0.4259  0.1858
  118MOL0     C16148  11.616   9.756   4.652  0.3148  0.0860 -0.5458
  118MOL0     O16149  11.668   9.630   4.632  0.4042 -0.6587 -0.3172
  118MOL0     C16150  11.626   9.555   4.524 -0.1673  0.5749 -0.3382
  118MOL0     C16151  11.723   9.509   4.433  1.1725 -0.1532 -0.6598
  118MOL0     C16152  11.683   9.430   4.322  0.4176 -0.7965 -0.1444
  118MOL0     C16153  11.549   9.395   4.303 -0.3542  0.7856 -1.8481
  118MOL0     O16154  11.527   9.300   4.208 -0.1750 -0.3786  0.1413
  118MOL0     C16155  11.400   9.265   4.149  0.2808  0.1058  0.9598
  118MOL0     C16156  11.396   9.343   4.015 -0.4425  0.0150  0.2888
  118MOL0     C16157  11.500   9.308   3.912  0.3287  0.3848 -0.5826
  118MOL0     C16158  11.498   9.401   3.791  0.5667 -0.3885 -0.2739
  118MOL0     C16159  11.364   9.382   3.715 -0.2983 -0.4715  0.2169
  118MOL0     C16160  11.382   9.450   3.574  0.0216 -0.2972 -1.2326
  118MOL0     C16161  11.256   9.441   3.483  0.9079  0.6707 -0.2830
  118MOL0     C16162  11.274   9.527   3.361  0.1563  0.4814 -0.2285
  118MOL0     N16163  11.274   9.668   3.404  0.7922  0.3027  0.1172
  118MOL0     C16164  11.368   9.753   3.349 -0.5066 -0.4831 -0.0303
  118MOL0     C16165  11.355   9.870   3.420  0.9661  0.9611  0.5507
  118MOL0     C16166  11.426   9.997   3.402 -0.2081  0.0976 -0.5377
  118MOL0     C16167  11.475  10.069   3.534 -0.3782 -1.0632 -0.6843
  118MOL0     C16168  11.564  10.182   3.496  1.4092  0.4277 -0.2045
  118MOL0     C16169  11.608  10.278   3.605 -0.2892 -0.1785  0.4177
  118MOL0     O16170  11.726  10.359   3.559  0.1813  0.0337 -0.0305
  118MOL0     C16171  11.791  10.438   3.647 -0.3527 -0.6794  0.1708
  118MOL0     C16172  11.869  10.545   3.607 -0.1390 -0.1186  1.3163
  118MOL0     C16173  11.950  10.628   3.689 -0.5848 -0.8321 -0.7687
  118MOL0     C16174  12.058  10.713   3.612  0.7854 -0.1107  0.5410
  118MOL0     C16175  11.918  10.626   3.830 -0.8232  0.1559  0.3464
  118MOL0     C16176  11.986  10.709   3.927 -0.9365 -0.1484 -0.7155
  118MOL0     O16177  12.085  10.804   3.889 -0.7559  0.2708  0.2219
  118MOL0     C16178  12.134  10.883   3.997 -1.1880  0.3176  1.2036
  118MOL0     C16179  12.069  10.997   4.011 -0.5742 -0.3872 -0.1602
  118MOL0     C16180  12.124  11.095   4.098 -0.2429 -0.3000 -0.4055
  118MOL0     C16181  12.235  11.063   4.181  0.6802  0.7495  0.0742
  118MOL0     O16182  12.273  11.147   4.279  0.0779  0.9104  0.1024
  118MOL0     C16183  12.406  11.132   4.332 -0.9207  0.7829 -0.7866
  118MOL0     C16184  12.464  11.268   4.381 -0.3999  0.6891  1.4125
  118MOL0     C16185  12.548  11.344   4.283  0.1209 -0.3193 -0.5922
  118MOL0     C16186  12.674  11.272   4.219 -0.3951  0.0278  0.5240
  118MOL0     C16187  12.732  11.361   4.106 -0.4222 -0.4772 -0.4887
  118MOL0     C16188  12.722  11.517   4.122  0.1512 -0.8212  0.1868
  118MOL0     C16189  12.785  11.571   4.257 -0.1586  0.1294 -0.0986
  118MOL0     C16190  12.906  11.497   4.313 -0.3758 -0.3534 -0.5410
  118MOL0    Cl16191  12.978  11.616   4.413  0.0214 -0.2074  0.6234
  118MOL0     C16192  12.303  10.943   4.149  0.3620 -0.8448 -0.4704
  118MOL0     C16193  12.256  10.854   4.059 -0.4597  0.0861 -0.8647
  118MOL0     O16194  11.936  10.708   4.049  0.1040  0.1049 -0.0794
  118MOL0     C16195  11.821  10.528   3.870 -0.2304 -0.1382 -0.1286
  118MOL0     C16196  11.773  10.440   3.784  0.2517 -0.5132 -0.3094
  118MOL0     N16197  11.256   9.859   3.514  0.6738  0.4654 -0.2281
  118MOL0     N16198  11.219   9.735   3.510  0.1600 -0.2730 -0.0951
  118MOL0     C16199  11.453   9.439   4.395  0.6694 -0.1969  0.1541
  118MOL0     C16200  11.496   9.522   4.497  0.4157  0.0644 -0.1870
  118MOL0     C16201  11.692   9.831   4.756  0.3067  0.2512 -0.7723
  118MOL0     C16202  11.797   9.767   4.824 -0.6867  0.0545  0.4398
  118MOL0     C16203  11.874   9.831   4.928  0.7470  0.8288  0.8011
  118MOL0     C16204  11.848   9.961   4.948 -0.3682  0.0522  0.1647
  118MOL0     O16205  11.913  10.043   5.037  0.0824  0.0278 -0.1841
  118MOL0     C16206  12.027   9.996   5.109  0.5652  0.5044  0.1010
  118MOL0     C16207  12.150   9.986   5.026  0.8916 -0.0741 -0.3752
  118MOL0     C16208  12.237  10.118   5.019 -0.3401  0.9055  0.6399
  118MOL0     C16209  12.334  10.114   4.892 -0.2782  0.5738 -0.1209
  118MOL0     C16210  12.260  10.144   4.767 -0.4718  0.5538 -0.1269
  118MOL0     C16211  12.213  10.166   4.660 -0.8151 -0.1261  0.5509
  118MOL0     C16212  11.758  10.039   4.879 -0.3488  0.9900 -0.7807
  118MOL0     C16213  11.675   9.973   4.784  0.7407 -0.3197  0.2837
  118MOL0     C16214  11.562  10.063   4.715  0.1604 -0.1473  0.0352
  118MOL0     H16215  11.828   9.529   4.448  1.3596  0.1385 -2.1779
  118MOL0     H16216  11.756   9.399   4.248 -0.5725 -0.3793 -1.3334
  118MOL0     H16217  11.312   9.295   4.206 -0.9528  2.9810 -2.0867
  118MOL0     H16218  11.410   9.158   4.130  2.2847  0.2361  1.0756
  118MOL0     H16219  11.299   9.342   3.964 -0.4684  3.0527  0.0836
  118MOL0     H16220  11.403   9.449   4.041 -2.8276 -0.4340  3.3938
  118MOL0     H16221  11.599   9.331   3.953 -0.5330  1.7899  0.7894
  118MOL0     H16222  11.484   9.204   3.882  0.2101  0.4201 -0.6389
  118MOL0     H16223  11.521   9.501   3.828  1.1927 -0.4737 -0.4199
  118MOL0     H16224  11.580   9.368   3.727  0.3955  2.0071 -1.8776
  118MOL0     H16225  11.283   9.429   3.773 -0.1453  1.1522 -0.8122
  118MOL0     H16226  11.354   9.277   3.687 -0.6261 -0.9193  1.8987
  118MOL0     H16227  11.410   9.554   3.593 -1.3102  0.3578 -2.6719
  118MOL0     H16228  11.468   9.409   3.520  0.6618 -0.3123 -0.2275
  118MOL0     H16229  11.167   9.468   3.540  0.6807 -2.6973  1.1841
  118MOL0     H16230  11.240   9.340   3.444  2.9955  0.3303 -0.3917
  118MOL0     H16231  11.373   9.499   3.322  0.6203  0.4507  0.9442
  118MOL0     H16232  11.196   9.516   3.284  0.9853  3.1488 -1.5917
  118MOL0     H16233  11.429   9.726   3.264  0.0094 -0.6109  0.3698
  118MOL0     H16234  11.345  10.059   3.360 -1.8218  0.7624  3.1547
  118MOL0     H16235  11.511   9.997   3.333 -1.5785  1.2849 -2.3435
  118MOL0     H16236  11.386  10.099   3.589  0.1119 -0.3322 -0.2692
  118MOL0     H16237  11.539  10.000   3.590  1.4652  2.4231  1.9034
  118MOL0     H16238  11.648  10.132   3.448 -0.8861 -1.6373 -2.3615
  118MOL0     H16239  11.513  10.248   3.426  1.6918 -2.1282 -2.9925
  118MOL0     H16240  11.528  10.348   3.631 -0.5957 -0.5701  0.5289
  118MOL0     H16241  11.627  10.223   3.697  4.4522  0.5788  0.1246
  118MOL0     H16242  11.884  10.548   3.500 -1.0196 -0.0785  1.1925
  118MOL0     H16243  12.153  10.685   3.660 -1.7170 -3.1635  4.2879
  118MOL0     H16244  12.034  10.819   3.623  2.1815  0.1448  1.4066
  118MOL0     H16245  12.058  10.676   3.509  0.9261  1.2214  0.0526
  118MOL0     H16246  11.984  11.009   3.944 -0.6709  1.0238  0.1821
  118MOL0     H16247  12.075  11.192   4.102 -0.0451 -0.0639 -2.4548
  118MOL0     H16248  12.409  11.055   4.409  0.6282  1.3358 -0.2529
  118MOL0     H16249  12.471  11.093   4.253  0.0269  0.0588  0.3127
  118MOL0     H16250  12.384  11.334   4.416 -2.5587 -1.5477  1.0005
  118MOL0     H16251  12.526  11.223   4.458  1.1766  0.8004  0.2524
  118MOL0     H16252  12.586  11.423   4.347  1.2215 -0.0368 -1.5728
  118MOL0     H16253  12.487  11.396   4.209  0.3157  1.2614  0.3207
  118MOL0     H16254  12.634  11.186   4.165 -0.4266  2.4431 -3.7600
  118MOL0     H16255  12.746  11.239   4.294 -0.7433 -2.7435 -0.2387
  118MOL0     H16256  12.837  11.336   4.088 -0.5338 -1.0109 -0.4138
  118MOL0     H16257  12.684  11.326   4.014  0.3330 -0.0622 -1.0533
  118MOL0     H16258  12.616  11.544   4.113 -0.0305 -0.7140  2.1323
  118MOL0     H16259  12.780  11.570   4.046  0.2557 -0.6368  0.3938
  118MOL0     H16260  12.711  11.580   4.337  0.6106 -1.0919  0.7831
  118MOL0     H16261  12.810  11.674   4.230 -3.9877  2.2050  3.1962
  118MOL0     H16262  12.985  11.481   4.238  1.5733 -0.0154  1.3226
  118MOL0     H16263  12.876  11.410   4.371 -0.4089  1.2976  2.0783
  118MOL0     H16264  12.399  10.926   4.196  1.5202  3.8152 -0.6260
  118MOL0     H16265  12.311  10.761   4.053 -2.5414 -1.1911 -1.2918
  118MOL0     H16266  11.774  10.507   3.966 -0.2634  2.5521  0.5234
  118MOL0     H16267  11.705  10.373   3.836  0.8143  0.3466  1.6048
  118MOL0     H16268  11.355   9.395   4.377  0.3228  0.7870 -0.4119
  118MOL0     H16269  11.416   9.561   4.560  0.4910  2.6221 -1.5496
  118MOL0     H16270  11.818   9.662   4.804  3.9765  0.5973  1.3989
  118MOL0     H16271  11.950   9.773   4.980 -1.4130  1.3992  5.0282
  118MOL0     H16272  12.045  10.060   5.196  0.4064 -0.8315  1.1435
  118MOL0     H16273  11.989   9.903   5.152  0.2131 -0.3498 -1.9414
  118MOL0     H16274  12.121   9.959   4.924  1.4616 -0.3520 -0.4659
  118MOL0     H16275  12.211   9.899   5.053 -0.5673 -1.1707 -0.4661
  118MOL0     H16276  12.166  10.200   5.018 -0.7938  0.5138 -0.0565
  118MOL0     H16277  12.295  10.121   5.112  0.1489 -0.2650  0.3918
  118MOL0     H16278  12.367  10.010   4.885 -1.8631 -0.1904  2.4067
  118MOL0     H16279  12.421  10.178   4.909  1.3782 -2.3393  4.2881
  118MOL0     H16280  12.169  10.165   4.562 -2.8205 -2.4957  1.3581
  118MOL0     H16281  11.777  10.144   4.897 -2.6826  1.2289  0.5995
  118MOL0     H16282  11.569  10.062   4.606 -2.9364 -1.0389 -0.2503
  118MOL0     H16283  11.461  10.028   4.736 -0.1395 -0.5992 -1.9526
  118MOL0     H16284  11.570  10.166   4.751  1.2143  0.6207 -2.2416
  119MOL0     O16285   9.060   3.467   4.301  0.1928  0.3817  0.4257
  119MOL0     C16286   8.954   3.465   4.253  0.8460  1.0355  0.2849
  119MOL0     O16287   8.865   3.365   4.247 -0.8223 -0.1726  0.8203
  119MOL0     C16288   8.875   3.248   4.317  0.4604  1.1400 -0.5743
  119MOL0     C16289   8.802   3.140   4.266  0.0550  0.9001  0.0656
  119MOL0     C16290   8.786   3.026   4.336  0.0839 -0.1275 -0.0851
  119MOL0     C16291   8.865   2.995   4.440  0.2191  0.0487  0.5631
  119MOL0     O16292   8.852   2.880   4.509 -0.1539 -1.0653 -0.1432
  119MOL0     C16293   8.903   2.844   4.636  0.2756  0.0157 -0.7049
  119MOL0     C16294   8.883   2.688   4.680  0.3013 -1.0645  0.2773
  119MOL0     C16295   8.743   2.663   4.725  0.0249  0.5767  0.2165
  119MOL0     C16296   8.681   2.596   4.617 -0.3420  1.0530  0.9072
  119MOL0     C16297   8.529   2.555   4.639  0.1642 -0.6292  0.2500
  119MOL0     C16298   8.433   2.680   4.618  0.1576 -0.4563  0.9872
  119MOL0     C16299   8.451   2.782   4.509 -0.1342  0.4831 -0.3828
  119MOL0     C16300   8.466   2.698   4.378 -0.4346 -0.2391 -0.0192
  119MOL0     N16301   8.485   2.775   4.263 -0.3424  0.4350 -0.2004
  119MOL0     C16302   8.401   2.857   4.189 -0.6671 -0.5886  0.2350
  119MOL0     C16303   8.457   2.874   4.077 -0.5602 -0.0528  0.9925
  119MOL0     C16304   8.401   2.953   3.957 -0.3603  0.6609  0.4665
  119MOL0     C16305   8.390   3.104   3.980 -0.6746  0.6991  0.3908
  119MOL0     C16306   8.412   3.182   3.842  0.7924 -0.5312 -0.1953
  119MOL0     C16307   8.364   3.329   3.846  0.0381  0.1105  0.3477
  119MOL0     O16308   8.440   3.397   3.947 -0.9914 -0.1617  0.1237
  119MOL0     C16309   8.417   3.535   3.973  0.3229  0.2411  1.2502
  119MOL0     C16310   8.365   3.611   3.871  0.0928  0.1410  0.7969
  119MOL0     C16311   8.365   3.750   3.878  0.8536 -0.5374 -0.2498
  119MOL0     C16312   8.342   3.820   3.746 -0.1323 -0.2020  0.1426
  119MOL0     C16313   8.401   3.805   4.007 -0.2705  0.0816  0.7811
  119MOL0     C16314   8.380   3.956   4.030  0.0287  0.4725  0.5896
  119MOL0     O16315   8.445   4.008   4.135 -0.0724  0.3306  0.1733
  119MOL0     C16316   8.435   4.141   4.166  1.3482  0.8884  0.1922
  119MOL0     C16317   8.318   4.214   4.208 -0.8319  0.3429 -0.4549
  119MOL0     C16318   8.318   4.357   4.229  0.3609 -0.2603 -0.3153
  119MOL0     C16319   8.439   4.428   4.243 -0.7664  0.1441  0.7670
  119MOL0     O16320   8.444   4.559   4.263  0.0952  0.2000 -0.4695
  119MOL0     C16321   8.574   4.625   4.291  0.0023 -0.0786 -0.8792
  119MOL0     C16322   8.552   4.762   4.351  0.5300 -0.0304 -0.1020
  119MOL0     C16323   8.464   4.867   4.264 -0.0304 -1.0736 -0.0073
  119MOL0     C16324   8.495   4.873   4.110  0.4494  0.1447 -0.2473
  119MOL0     C16325   8.396   4.943   4.024  0.5783  0.0176 -0.2655
  119MOL0     C16326   8.419   5.094   4.034  0.4355  0.2992  0.0663
  119MOL0     C16327   8.329   5.168   3.937  0.5019  0.6095 -0.6783
  119MOL0     C16328   8.304   5.321   3.969 -0.2994  0.0405  0.1377
  119MOL0    Cl16329   8.135   5.327   4.036 -0.2639  0.2004 -0.1806
  119MOL0     C16330   8.554   4.348   4.209  0.3736  0.6912 -0.7270
  119MOL0     C16331   8.554   4.217   4.180 -0.3370  0.2246  0.8115
  119MOL0     O16332   8.297   4.022   3.964 -0.6928  0.0835 -0.4422
  119MOL0     C16333   8.460   3.729   4.108  0.2938  0.0220 -0.5077
  119MOL0     C16334   8.459   3.590   4.089 -0.2310  0.2275  0.9425
  119MOL0     N16335   8.586   2.830   4.074 -0.4469 -0.6260  0.5797
  119MOL0     N16336   8.598   2.759   4.182  0.2036 -0.5115 -0.2122
  119MOL0     C16337   8.960   3.090   4.479  0.9685 -0.4039 -0.2068
  119MOL0     C16338   8.955   3.222   4.425  0.5581  0.5202 -0.5417
  119MOL0     C16339   8.919   3.581   4.171  0.2544 -0.4801  1.2311
  119MOL0     C16340   8.809   3.565   4.079  0.0265 -0.6193 -0.2415
  119MOL0     C16341   8.782   3.664   3.988  0.4934 -0.1440  0.4718
  119MOL0     C16342   8.854   3.783   3.983  0.2743 -0.7553  0.0825
  119MOL0     O16343   8.846   3.876   3.884  0.0842  0.2887  0.5492
  119MOL0     C16344   8.765   3.846   3.773 -0.2200 -1.1196 -0.8640
  119MOL0     C16345   8.751   3.986   3.698 -0.3968  0.2338 -0.4630
  119MOL0     C16346   8.643   4.074   3.768  0.0773  0.3831  0.5691
  119MOL0     C16347   8.698   4.202   3.815 -0.3741  0.1884 -0.4584
  119MOL0     C16348   8.600   4.305   3.854  0.1718  0.8075  0.0824
  119MOL0     C16349   8.515   4.376   3.884 -0.1037 -1.1159 -0.5143
  119MOL0     C16350   8.951   3.799   4.081  0.9821 -0.3352  1.5624
  119MOL0     C16351   8.973   3.710   4.182  0.7677 -0.6028  0.2380
  119MOL0     C16352   9.039   3.765   4.309 -0.8203  0.3349 -0.2256
  119MOL0     H16353   8.734   3.155   4.183 -1.5793  0.1653  1.2074
  119MOL0     H16354   8.708   2.963   4.296 -2.9467  2.3229  1.5790
  119MOL0     H16355   8.866   2.916   4.709 -0.7068 -3.2879  2.3027
  119MOL0     H16356   9.009   2.862   4.612 -0.0991  2.0233 -1.0460
  119MOL0     H16357   8.920   2.626   4.597 -1.0324  0.0873 -1.2496
  119MOL0     H16358   8.942   2.661   4.768  0.1832 -1.1540  0.3287
  119MOL0     H16359   8.735   2.596   4.812  0.9838  1.4530  1.0083
  119MOL0     H16360   8.702   2.757   4.761  0.8993  1.0869 -0.0856
  119MOL0     H16361   8.694   2.653   4.525  1.2086  0.9107  1.0097
  119MOL0     H16362   8.737   2.503   4.607  0.9227  1.7528  1.3112
  119MOL0     H16363   8.514   2.509   4.738  2.3157 -0.5547  0.6819
  119MOL0     H16364   8.504   2.487   4.558  0.0666  0.7133 -0.8750
  119MOL0     H16365   8.334   2.633   4.612 -0.4611  0.9653 -0.7403
  119MOL0     H16366   8.435   2.734   4.713  2.7129  1.7546 -0.1992
  119MOL0     H16367   8.532   2.852   4.529 -0.6353  0.9671 -0.0077
  119MOL0     H16368   8.359   2.841   4.503 -1.8145 -2.0411 -1.3741
  119MOL0     H16369   8.551   2.631   4.370  0.6705  1.0785  0.2702
  119MOL0     H16370   8.367   2.652   4.370 -1.7590  2.5349 -0.9897
  119MOL0     H16371   8.309   2.904   4.222 -0.2012  0.9386 -0.5438
  119MOL0     H16372   8.295   2.926   3.949 -0.6393  1.1522  2.0935
  119MOL0     H16373   8.459   2.935   3.866 -0.5644 -1.5926  0.7257
  119MOL0     H16374   8.300   3.124   4.039  0.0341  0.4347  1.6045
  119MOL0     H16375   8.485   3.135   4.025 -0.9168  0.1695  1.2967
  119MOL0     H16376   8.517   3.189   3.813  0.6385  3.7792 -0.3230
  119MOL0     H16377   8.365   3.128   3.759  0.8134  1.6675 -1.7354
  119MOL0     H16378   8.379   3.381   3.751  1.8540 -0.2803  0.3735
  119MOL0     H16379   8.258   3.339   3.872 -0.4923  2.7028 -2.2732
  119MOL0     H16380   8.340   3.575   3.772 -0.0184  1.0956  0.4677
  119MOL0     H16381   8.385   3.920   3.750 -2.0867  0.8135 -1.8591
  119MOL0     H16382   8.236   3.821   3.719 -0.0582 -1.3771 -0.2365
  119MOL0     H16383   8.400   3.767   3.670  3.0406 -0.2547  2.4213
  119MOL0     H16384   8.227   4.154   4.208  0.2492 -1.5431  2.4671
  119MOL0     H16385   8.228   4.409   4.257  0.9808 -0.5473  2.4751
  119MOL0     H16386   8.637   4.567   4.359  3.7773  0.4137 -3.6390
  119MOL0     H16387   8.623   4.642   4.195  0.3217 -3.7716 -1.5110
  119MOL0     H16388   8.507   4.750   4.450 -1.3023 -2.9781 -1.1481
  119MOL0     H16389   8.648   4.811   4.368  0.3761  0.6762 -1.1608
  119MOL0     H16390   8.489   4.962   4.310  0.0191 -1.0248 -0.1355
  119MOL0     H16391   8.357   4.854   4.286 -0.0574 -0.6328  0.1310
  119MOL0     H16392   8.491   4.770   4.073  0.5923 -0.8309  2.2849
  119MOL0     H16393   8.597   4.906   4.085  0.7129 -0.3894  0.1075
  119MOL0     H16394   8.406   4.888   3.930 -2.6010 -0.1997 -0.5868
  119MOL0     H16395   8.293   4.921   4.055  0.4808  0.3865 -0.3236
  119MOL0     H16396   8.522   5.118   4.002  2.2091  0.5720  5.1480
  119MOL0     H16397   8.410   5.134   4.135  1.1802 -1.2177  0.7626
  119MOL0     H16398   8.234   5.118   3.915 -0.5704  1.4802  1.6455
  119MOL0     H16399   8.389   5.173   3.846 -0.0953  0.3242 -1.0989
  119MOL0     H16400   8.303   5.368   3.870 -0.1380  0.7356  0.4559
  119MOL0     H16401   8.380   5.370   4.031  0.6648 -1.1361 -0.0754
  119MOL0     H16402   8.645   4.404   4.192  0.0117  0.5398 -3.8149
  119MOL0     H16403   8.652   4.172   4.167  0.2877  2.2881 -2.8973
  119MOL0     H16404   8.501   3.778   4.196 -1.1150  3.9628 -1.8096
  119MOL0     H16405   8.491   3.522   4.167  3.0814  0.4196 -0.0972
  119MOL0     H16406   9.017   3.059   4.566 -0.7203 -1.3163  0.6429
  119MOL0     H16407   9.029   3.284   4.475 -1.9656  2.0955  1.5334
  119MOL0     H16408   8.748   3.476   4.077  0.1247 -0.8129  2.1734
  119MOL0     H16409   8.695   3.647   3.925  0.5601  2.4125 -0.4339
  119MOL0     H16410   8.814   3.772   3.709  0.8833 -1.6626  0.5630
  119MOL0     H16411   8.664   3.820   3.808 -0.2574  2.3761  2.1971
  119MOL0     H16412   8.732   3.962   3.593 -0.8205 -3.0021  0.2491
  119MOL0     H16413   8.848   4.038   3.698 -0.0682 -0.3593 -1.3530
  119MOL0     H16414   8.573   4.097   3.687  2.2610  2.8866 -0.7434
  119MOL0     H16415   8.590   4.018   3.846 -2.3045  0.3528 -0.9721
  119MOL0     H16416   8.752   4.240   3.727  3.5230  0.2321  1.7559
  119MOL0     H16417   8.773   4.189   3.893 -2.4906  2.1641  2.1070
  119MOL0     H16418   8.431   4.438   3.908  1.0186  0.3964 -0.3491
  119MOL0     H16419   8.996   3.897   4.093 -0.1366  0.3884  0.2307
  119MOL0     H16420   8.988   3.849   4.357  2.0408  1.6636  0.7524
  119MOL0     H16421   9.044   3.700   4.397  0.0810  2.5271  1.4428
  119MOL0     H16422   9.141   3.799   4.288 -0.0248  0.5915  3.3469
  120MOL0     O16423   5.641   4.564  10.806 -0.7355  0.6480  0.1973
  120MOL0     C16424   5.681   4.676  10.773 -0.4257 -0.0574  0.6185
  120MOL0     O16425   5.719   4.705  10.643 -0.2051 -0.2238  0.1978
  120MOL0     C16426   5.722   4.611  10.541 -0.0826  0.1745  0.8165
  120MOL0     C16427   5.770   4.482  10.548  0.0372  0.2078  0.3368
  120MOL0     C16428   5.771   4.405  10.431 -0.2470 -0.6384  0.3887
  120MOL0     C16429   5.724   4.460  10.311 -0.0630 -0.1270 -0.7526
  120MOL0     O16430   5.721   4.373  10.206  0.7601 -0.3871  0.0630
  120MOL0     C16431   5.614   4.380  10.117 -0.1002 -0.6119 -0.0292
  120MOL0     C16432   5.620   4.249  10.033  0.1613 -0.0844  0.2375
  120MOL0     C16433   5.773   4.215  10.012 -0.1384  0.8344  0.2935
  120MOL0     C16434   5.775   4.112   9.892  0.4316  0.4433 -1.3850
  120MOL0     C16435   5.907   4.031   9.899 -0.1351  0.9164 -0.1980
  120MOL0     C16436   5.925   3.925   9.791 -1.6802 -0.9710 -0.2340
  120MOL0     C16437   5.960   3.995   9.654  0.1056 -0.0537 -1.1014
  120MOL0     C16438   5.967   3.912   9.531 -0.3776 -0.5120 -1.1773
  120MOL0     N16439   6.009   3.990   9.413 -1.0114 -0.5812  0.1429
  120MOL0     C16440   6.101   3.973   9.316 -0.1019  0.1779  0.1677
  120MOL0     C16441   6.084   4.074   9.231 -0.0029 -1.0609 -0.6352
  120MOL0     C16442   6.156   4.086   9.101  0.4706 -0.6385 -0.0388
  120MOL0     C16443   6.177   4.234   9.045  0.1965 -0.2931  0.2024
  120MOL0     C16444   6.039   4.307   9.005 -1.0935 -0.5549  0.4438
  120MOL0     C16445   6.062   4.457   8.960 -0.4047 -0.2035 -0.2358
  120MOL0     O16446   5.933   4.512   8.945  0.0224 -0.3592  0.8327
  120MOL0     C16447   5.927   4.644   8.908  0.4258  0.3887 -0.5332
  120MOL0     C16448   5.807   4.712   8.917  1.0329 -0.3312  0.2706
  120MOL0     C16449   5.793   4.845   8.885  0.5500  0.2419 -0.2328
  120MOL0     C16450   5.651   4.899   8.920 -0.1875 -0.3464  0.0730
  120MOL0     C16451   5.910   4.920   8.840  0.3122  0.6458  0.4580
  120MOL0     C16452   5.905   5.063   8.797  0.4806 -0.7450  0.1527
  120MOL0     O16453   5.786   5.124   8.813 -0.9484 -0.6027 -0.2995
  120MOL0     C16454   5.767   5.255   8.793  0.5918  0.6074  0.1304
  120MOL0     C16455   5.719   5.307   8.675 -0.4116  0.4434  0.0356
  120MOL0     C16456   5.717   5.445   8.643 -0.5529  0.7957  0.5629
  120MOL0     C16457   5.753   5.539   8.739 -1.0231 -0.7731  0.3841
  120MOL0     O16458   5.743   5.674   8.712  0.0447  0.5795 -0.4122
  120MOL0     C16459   5.617   5.717   8.667  0.4392 -0.4550  0.0385
  120MOL0     C16460   5.612   5.862   8.698  0.6108 -0.4347 -0.6095
  120MOL0     C16461   5.495   5.939   8.625  0.0652 -0.0693 -0.5915
  120MOL0     C16462   5.509   5.951   8.472 -0.6087 -0.2794  0.6525
  120MOL0     C16463   5.603   6.069   8.426  0.6310  0.6278 -0.7672
  120MOL0     C16464   5.754   6.012   8.402  0.2174  0.7409 -0.4431
  120MOL0     C16465   5.780   5.955   8.259 -0.2387  0.8000 -0.3401
  120MOL0     C16466   5.916   5.890   8.247  0.3524  0.2453  0.5627
  120MOL0    Cl16467   6.060   5.981   8.280  0.0826 -0.5711  0.2713
  120MOL0     C16468   5.806   5.491   8.853 -0.5502  0.3982 -0.2880
  120MOL0     C16469   5.818   5.354   8.881  0.0602 -0.1751 -0.2895
  120MOL0     O16470   6.008   5.124   8.755  0.6593 -0.3067 -1.5938
  120MOL0     C16471   6.027   4.852   8.824 -0.3519 -0.3174 -0.1792
  120MOL0     C16472   6.039   4.719   8.863  0.1696 -0.3750 -0.2818
  120MOL0     N16473   5.972   4.153   9.271 -0.9249 -0.0044 -0.6179
  120MOL0     N16474   5.934   4.100   9.385 -0.6291  0.3540  0.0338
  120MOL0     C16475   5.676   4.595  10.296 -0.3342  0.1653  0.6051
  120MOL0     C16476   5.679   4.664  10.416 -0.3360  0.0982 -0.3217
  120MOL0     C16477   5.702   4.784  10.870  0.6128 -0.1732 -1.1395
  120MOL0     C16478   5.786   4.891  10.837  0.7595  0.3993  0.1251
  120MOL0     C16479   5.810   4.996  10.925  0.4435 -0.4305 -0.5674
  120MOL0     C16480   5.740   5.002  11.051 -0.3042  0.2785  0.0930
  120MOL0     O16481   5.773   5.099  11.139  0.1892 -0.3198  0.1071
  120MOL0     C16482   5.727   5.102  11.270 -0.3982 -1.0430  0.4696
  120MOL0     C16483   5.777   5.230  11.344 -0.4406 -0.4046 -1.0070
  120MOL0     C16484   5.752   5.222  11.500 -0.0026 -0.0938  0.2572
  120MOL0     C16485   5.834   5.320  11.574 -0.5373  0.5902 -0.0310
  120MOL0     C16486   5.814   5.327  11.718  0.2555 -0.8455  0.1988
  120MOL0     C16487   5.801   5.328  11.836 -0.2355  0.0799  0.2926
  120MOL0     C16488   5.646   4.899  11.081  0.4834 -0.3624  0.1718
  120MOL0     C16489   5.631   4.795  10.995 -0.5345  0.5730  0.2322
  120MOL0     C16490   5.542   4.677  11.030 -0.2697  0.2154  0.8080
  120MOL0     H16491   5.816   4.450  10.640 -1.4063 -0.3401  0.8975
  120MOL0     H16492   5.824   4.310  10.430  0.5597 -0.2184 -1.3027
  120MOL0     H16493   5.623   4.469  10.054 -1.1747  0.8501  1.8179
  120MOL0     H16494   5.527   4.381  10.183  1.2172  1.6017  1.8129
  120MOL0     H16495   5.566   4.166  10.080  0.0926 -0.6851 -0.8497
  120MOL0     H16496   5.593   4.256   9.927  0.3605  2.4749  0.2877
  120MOL0     H16497   5.836   4.301   9.987 -1.2008  0.7272 -3.4074
  120MOL0     H16498   5.798   4.165  10.106 -0.2528 -1.6036 -0.8770
  120MOL0     H16499   5.692   4.044   9.912  1.5239 -0.6553 -0.4415
  120MOL0     H16500   5.762   4.161   9.795 -3.4959  1.5560 -0.4805
  120MOL0     H16501   5.916   3.978   9.994  3.4894  0.3633 -0.7119
  120MOL0     H16502   5.992   4.099   9.888  0.0827  0.4404 -1.6702
  120MOL0     H16503   6.008   3.860   9.821  2.4976  2.7174 -2.5895
  120MOL0     H16504   5.835   3.867   9.774  0.4229 -5.0524  1.1625
  120MOL0     H16505   6.052   4.053   9.652 -0.9112  1.6082 -2.6589
  120MOL0     H16506   5.890   4.077   9.636  1.0455  1.4914  1.6232
  120MOL0     H16507   6.025   3.821   9.549  2.0499  0.9487 -1.2210
  120MOL0     H16508   5.867   3.873   9.513 -0.9354  0.9139 -1.2936
  120MOL0     H16509   6.156   3.881   9.297  0.2030  0.6749 -1.5036
  120MOL0     H16510   6.093   4.035   9.029  1.1175 -0.3392 -0.8394
  120MOL0     H16511   6.257   4.045   9.111  0.5254  0.0597  4.1308
  120MOL0     H16512   6.236   4.289   9.119 -1.3911  1.8563 -0.0176
  120MOL0     H16513   6.230   4.224   8.950 -1.6480  1.7998 -1.1742
  120MOL0     H16514   5.979   4.254   8.931 -0.1747 -1.2550  0.1802
  120MOL0     H16515   5.991   4.315   9.103  0.2241 -0.2989  1.0954
  120MOL0     H16516   6.111   4.516   9.038  2.3146 -0.7372 -1.4073
  120MOL0     H16517   6.114   4.464   8.864 -3.3720 -2.4221 -2.1945
  120MOL0     H16518   5.729   4.657   8.970 -0.4564  0.7444 -0.7351
  120MOL0     H16519   5.626   4.939   8.821  0.2452  0.1020  0.1379
  120MOL0     H16520   5.665   4.978   8.995 -1.4136 -0.4600  0.4344
  120MOL0     H16521   5.571   4.829   8.944 -1.3125 -0.2225 -2.8682
  120MOL0     H16522   5.684   5.227   8.611 -0.6163 -0.3316  1.0888
  120MOL0     H16523   5.689   5.460   8.540 -0.3454 -2.9441 -0.1656
  120MOL0     H16524   5.597   5.703   8.560  1.8803  1.5836 -0.5396
  120MOL0     H16525   5.527   5.666   8.706  0.1770  1.0146  1.4728
  120MOL0     H16526   5.592   5.869   8.805 -6.3752  1.4353 -1.5797
  120MOL0     H16527   5.705   5.919   8.685  0.1710  1.0738  2.1590
  120MOL0     H16528   5.495   6.045   8.653  3.0914 -0.4455  1.2885
  120MOL0     H16529   5.397   5.897   8.652  0.9424 -2.0306 -0.2795
  120MOL0     H16530   5.406   5.975   8.447 -0.5835 -0.2807  0.5482
  120MOL0     H16531   5.552   5.862   8.424 -2.8856  0.2160 -2.6393
  120MOL0     H16532   5.557   6.120   8.341  1.8661  1.3406 -1.0351
  120MOL0     H16533   5.589   6.148   8.501 -2.5047  0.7010 -1.3073
  120MOL0     H16534   5.772   5.926   8.467 -1.8183 -1.7298 -2.8859
  120MOL0     H16535   5.816   6.101   8.411 -0.5288  1.3446 -1.1146
  120MOL0     H16536   5.782   6.033   8.183 -0.0095  0.6588 -0.4825
  120MOL0     H16537   5.692   5.894   8.236 -2.9863  1.3835  6.2335
  120MOL0     H16538   5.925   5.853   8.144 -2.2173  2.0836 -0.4165
  120MOL0     H16539   5.925   5.812   8.323 -1.8867 -3.3627 -2.5141
  120MOL0     H16540   5.839   5.574   8.915  2.8901 -0.2916 -1.0240
  120MOL0     H16541   5.875   5.324   8.968  0.7368  1.1670 -0.2579
  120MOL0     H16542   6.117   4.908   8.799 -0.9446  1.4581  1.4614
  120MOL0     H16543   6.142   4.684   8.859  0.1917 -0.1823 -2.1707
  120MOL0     H16544   5.644   4.645  10.205 -2.7544 -0.3492  1.0934
  120MOL0     H16545   5.647   4.768  10.417  0.5129  0.3813  1.6607
  120MOL0     H16546   5.833   4.897  10.739 -0.5231  1.9636 -0.4490
  120MOL0     H16547   5.875   5.082  10.905 -2.4843  1.4970 -2.6845
  120MOL0     H16548   5.617   5.109  11.272 -0.3000  2.1456  0.0137
  120MOL0     H16549   5.762   5.013  11.323 -2.2024 -3.2786 -1.8124
  120MOL0     H16550   5.750   5.326  11.300  1.1290  0.3446 -0.3957
  120MOL0     H16551   5.885   5.233  11.330 -0.4428 -0.3213 -1.0060
  120MOL0     H16552   5.646   5.238  11.521  0.2360 -1.9055  3.5140
  120MOL0     H16553   5.762   5.127  11.554 -0.2713  0.1172  0.6849
  120MOL0     H16554   5.823   5.418  11.526 -0.2320  0.5355 -0.2170
  120MOL0     H16555   5.936   5.283  11.569 -1.2689 -2.0971  2.3073
  120MOL0     H16556   5.792   5.335  11.943  0.6076 -0.4566  0.4046
  120MOL0     H16557   5.585   4.909  11.170 -1.3170  1.9929 -1.1932
  120MOL0     H16558   5.467   4.653  10.954  0.7155 -4.4118  1.0319
  120MOL0     H16559   5.609   4.593  11.050  2.5315  1.7624 -1.4722
  120MOL0     H16560   5.492   4.714  11.120 -3.1651  1.4926 -1.1751
  121MOL0     O16561  10.619   7.000   4.852  0.7558  0.0720 -0.5848
  121MOL0     C16562  10.526   7.036   4.782  0.3261 -0.5097  0.0299
  121MOL0     O16563  10.443   6.957   4.706  0.1831  0.3224  0.4977
  121MOL0     C16564  10.439   6.821   4.702 -0.2868 -0.3604 -0.0732
  121MOL0     C16565  10.493   6.744   4.809 -0.8194 -1.0345  0.2712
  121MOL0     C16566  10.476   6.605   4.799 -0.7692 -0.4977  0.3489
  121MOL0     C16567  10.416   6.547   4.689  0.7237 -0.9123 -0.2201
  121MOL0     O16568  10.394   6.414   4.704 -0.9233  1.0477 -0.6204
  121MOL0     C16569  10.360   6.331   4.591 -0.3885 -0.0081 -0.3320
  121MOL0     C16570  10.211   6.322   4.574  0.5405 -1.1783 -0.7024
  121MOL0     C16571  10.178   6.280   4.430  0.1238  0.0297 -0.4400
  121MOL0     C16572  10.251   6.147   4.386  0.4704 -1.1588  0.2927
  121MOL0     C16573  10.207   6.023   4.471  0.0426 -1.3162 -0.7356
  121MOL0     C16574  10.287   5.898   4.434 -0.0243 -0.5877 -0.2890
  121MOL0     C16575  10.265   5.787   4.537 -0.2476 -0.0007  0.8696
  121MOL0     C16576  10.383   5.766   4.619 -0.1192  0.3929 -0.1160
  121MOL0     N16577  10.352   5.661   4.722  0.1403  0.6291  0.3213
  121MOL0     C16578  10.275   5.673   4.841 -0.7950  0.6845 -0.3120
  121MOL0     C16579  10.287   5.545   4.894 -1.2671  0.4887  0.0956
  121MOL0     C16580  10.247   5.495   5.031  0.0381 -0.6209 -1.2612
  121MOL0     C16581  10.291   5.583   5.148  0.8862  0.2055 -0.4580
  121MOL0     C16582  10.423   5.535   5.213 -0.2771 -0.2431 -0.3951
  121MOL0     C16583  10.536   5.550   5.115 -0.9963 -0.0987  0.1134
  121MOL0     O16584  10.543   5.694   5.069  0.3852 -0.2998  0.0661
  121MOL0     C16585  10.673   5.727   5.029 -0.1202  0.3699 -1.2844
  121MOL0     C16586  10.700   5.864   5.035 -0.6136  0.1919  0.1588
  121MOL0     C16587  10.817   5.916   4.978  0.6220  0.5275 -0.5840
  121MOL0     C16588  10.840   6.059   5.018  0.2138  0.1288  0.3117
  121MOL0     C16589  10.922   5.828   4.938 -0.2971 -0.0347  0.2181
  121MOL0     C16590  11.063   5.857   4.916  0.2714 -0.3629 -0.1177
  121MOL0     O16591  11.145   5.757   4.868  0.5154 -0.1062  0.7399
  121MOL0     C16592  11.277   5.767   4.856 -0.5107 -0.0918 -0.1718
  121MOL0     C16593  11.344   5.884   4.807  0.1438 -0.3575 -0.7124
  121MOL0     C16594  11.481   5.885   4.813 -0.1827 -0.5354 -0.7536
  121MOL0     C16595  11.556   5.766   4.832 -0.4828 -0.9758 -0.5976
  121MOL0     O16596  11.693   5.778   4.822 -0.7162  0.2605  0.5994
  121MOL0     C16597  11.765   5.690   4.908 -0.2690  0.8423 -0.2841
  121MOL0     C16598  11.874   5.761   4.995 -0.0562  0.6990  0.2163
  121MOL0     C16599  11.847   5.900   5.044 -0.9921  0.3338  0.1237
  121MOL0     C16600  11.915   5.932   5.173 -0.0877  0.1284 -0.0349
  121MOL0     C16601  11.861   6.066   5.224 -0.8550  0.3421  0.4363
  121MOL0     C16602  11.745   6.032   5.314 -0.6146  0.2504 -0.4341
  121MOL0     C16603  11.773   5.986   5.460 -0.8669 -0.5214  0.3137
  121MOL0     C16604  11.852   6.085   5.537 -0.3926 -0.2209 -0.8932
  121MOL0    Cl16605  11.732   6.187   5.594  0.2468  0.1804 -0.5923
  121MOL0     C16606  11.484   5.645   4.855 -0.1446 -0.0495  0.4881
  121MOL0     C16607  11.352   5.653   4.877 -0.2247  0.3002  0.0423
  121MOL0     O16608  11.101   5.975   4.949 -0.1257  1.3367  0.5021
  121MOL0     C16609  10.891   5.692   4.934  0.3534  0.2585  0.5002
  121MOL0     C16610  10.771   5.641   4.981 -0.0189 -0.0274  0.1287
  121MOL0     N16611  10.380   5.474   4.812  0.2803  0.8482 -0.1770
  121MOL0     N16612  10.414   5.543   4.712  0.1052 -0.1698  0.4466
  121MOL0     C16613  10.374   6.620   4.579  0.4895  0.7118  0.2952
  121MOL0     C16614  10.382   6.758   4.587 -0.4238 -0.5840 -0.4802
  121MOL0     C16615  10.480   7.173   4.793 -0.2658  0.6860  1.0703
  121MOL0     C16616  10.571   7.278   4.805  0.2339  0.1443  0.0223
  121MOL0     C16617  10.525   7.405   4.838  0.7617 -0.0133  0.5893
  121MOL0     C16618  10.393   7.432   4.853  0.3830 -0.0053  0.0465
  121MOL0     O16619  10.341   7.559   4.878 -0.1211 -0.1287  0.3321
  121MOL0     C16620  10.408   7.687   4.851  0.7509 -0.1841 -0.4751
  121MOL0     C16621  10.441   7.749   4.983  0.5071  0.1956  0.0961
  121MOL0     C16622  10.558   7.849   4.976  0.7713 -0.1322  0.4686
  121MOL0     C16623  10.578   7.930   5.105 -1.5999 -0.6553 -0.2751
  121MOL0     C16624  10.477   8.033   5.137 -0.5243 -0.1260 -0.6262
  121MOL0     C16625  10.384   8.103   5.183  0.0478 -0.0575 -0.4617
  121MOL0     C16626  10.298   7.331   4.842  0.4285  0.1982 -0.5525
  121MOL0     C16627  10.344   7.201   4.817 -0.2774  0.0704  0.2955
  121MOL0     C16628  10.231   7.097   4.810 -0.2939 -0.5378  0.1520
  121MOL0     H16629  10.532   6.787   4.900 -3.1449  3.5327 -0.6122
  121MOL0     H16630  10.532   6.549   4.873  0.2484 -1.2021 -0.9185
  121MOL0     H16631  10.415   6.240   4.615 -0.0917  0.6031  1.4293
  121MOL0     H16632  10.407   6.359   4.496  0.4843  2.3433  0.7228
  121MOL0     H16633  10.170   6.259   4.654 -1.0810  1.6040  0.8539
  121MOL0     H16634  10.160   6.416   4.597 -0.0870 -1.6581 -0.0603
  121MOL0     H16635  10.070   6.266   4.420 -0.2785  3.1076 -1.5956
  121MOL0     H16636  10.225   6.356   4.366  1.1572  2.7118  3.1989
  121MOL0     H16637  10.240   6.125   4.279  0.1905  2.8705 -0.6677
  121MOL0     H16638  10.359   6.156   4.397  0.2520  1.5568  0.8375
  121MOL0     H16639  10.103   5.999   4.444 -1.3542  1.3215  1.6585
  121MOL0     H16640  10.220   6.048   4.577 -0.2743 -1.8309 -0.5723
  121MOL0     H16641  10.255   5.867   4.334  2.7050  2.0670 -2.1673
  121MOL0     H16642  10.394   5.921   4.435 -0.0541 -0.4370  1.0819
  121MOL0     H16643  10.238   5.692   4.489  0.2612  0.9071 -1.3429
  121MOL0     H16644  10.183   5.819   4.602  2.6257  1.8130  3.8990
  121MOL0     H16645  10.474   5.746   4.562 -1.1917 -3.5671 -0.7466
  121MOL0     H16646  10.413   5.859   4.669 -2.3522  1.9807 -1.5284
  121MOL0     H16647  10.235   5.766   4.882  1.4517 -0.0497  4.1172
  121MOL0     H16648  10.273   5.393   5.059 -1.3504 -0.0162  3.0381
  121MOL0     H16649  10.137   5.492   5.033  0.0287 -0.3273 -1.1762
  121MOL0     H16650  10.290   5.686   5.113 -0.9409  0.3840 -0.0194
  121MOL0     H16651  10.209   5.572   5.220  0.7930  3.2358  0.0167
  121MOL0     H16652  10.452   5.599   5.297  2.2391  1.7080 -2.5520
  121MOL0     H16653  10.415   5.428   5.235 -0.1523 -0.3815 -1.0057
  121MOL0     H16654  10.629   5.533   5.171  0.3737  1.7162 -1.5094
  121MOL0     H16655  10.535   5.480   5.031  2.8199 -1.9076  1.3390
  121MOL0     H16656  10.623   5.932   5.071 -1.8933 -0.8688 -0.4467
  121MOL0     H16657  10.916   6.053   5.098  1.3881  3.6707 -0.3747
  121MOL0     H16658  10.745   6.112   5.029 -0.4538 -0.5792 -1.7205
  121MOL0     H16659  10.897   6.108   4.939 -2.7529 -2.3500 -3.7148
  121MOL0     H16660  11.295   5.979   4.786  0.1848  0.0505  0.9070
  121MOL0     H16661  11.529   5.981   4.796  0.1299  0.1427  3.0503
  121MOL0     H16662  11.702   5.638   4.982 -0.0532  0.1252 -0.5913
  121MOL0     H16663  11.821   5.614   4.853  2.5647 -0.3955  3.7922
  121MOL0     H16664  11.903   5.693   5.076 -0.1314 -0.9937 -1.1221
  121MOL0     H16665  11.965   5.776   4.935  0.6924  1.1806  1.4239
  121MOL0     H16666  11.738   5.914   5.046 -1.1406 -0.5731 -0.9189
  121MOL0     H16667  11.891   5.964   4.967  0.5869 -3.6395 -2.6148
  121MOL0     H16668  12.021   5.941   5.144  0.1924  1.7878  1.3026
  121MOL0     H16669  11.907   5.852   5.246  0.5498 -0.0120 -0.1127
  121MOL0     H16670  11.943   6.126   5.264  1.6513 -1.5529 -1.4890
  121MOL0     H16671  11.822   6.118   5.136 -2.1782 -0.5129  0.4961
  121MOL0     H16672  11.680   5.959   5.265  2.3889 -4.2696  1.5974
  121MOL0     H16673  11.682   6.120   5.323 -0.8394  0.1158 -0.6632
  121MOL0     H16674  11.822   5.889   5.446 -1.3306 -0.4044 -3.3560
  121MOL0     H16675  11.671   5.970   5.497 -0.1258 -0.1188  2.6524
  121MOL0     H16676  11.929   6.137   5.478  0.4283  0.8992  1.0875
  121MOL0     H16677  11.895   6.038   5.626  0.5769  0.1995 -1.1288
  121MOL0     H16678  11.550   5.563   4.880 -0.6411 -0.1487  1.5282
  121MOL0     H16679  11.293   5.572   4.918 -0.2750  0.7591  0.9028
  121MOL0     H16680  10.962   5.619   4.898 -1.6690 -1.0177 -1.0748
  121MOL0     H16681  10.766   5.534   4.961  0.4777  0.1647 -1.1117
  121MOL0     H16682  10.321   6.595   4.487  1.0999  1.4326 -0.2652
  121MOL0     H16683  10.345   6.830   4.516  0.6196  1.2810  0.7915
  121MOL0     H16684  10.676   7.256   4.790 -0.0443 -3.1201  1.8840
  121MOL0     H16685  10.605   7.477   4.849 -0.3560  1.1522  1.2795
  121MOL0     H16686  10.491   7.670   4.781  0.8246 -2.0579  0.0074
  121MOL0     H16687  10.345   7.766   4.810  2.3578  1.9792  0.9915
  121MOL0     H16688  10.456   7.671   5.058  1.1532 -2.2314 -2.4221
  121MOL0     H16689  10.348   7.801   5.007 -1.2176 -2.8218  0.3531
  121MOL0     H16690  10.649   7.794   4.954 -0.0862 -0.7303 -1.8261
  121MOL0     H16691  10.534   7.927   4.904 -0.1434 -0.2218  0.6639
  121MOL0     H16692  10.676   7.978   5.098 -1.6646 -0.2441  1.2525
  121MOL0     H16693  10.583   7.858   5.188  2.6491 -1.6428 -1.1664
  121MOL0     H16694  10.297   8.156   5.217  0.8779  0.8632  0.2953
  121MOL0     H16695  10.195   7.364   4.856  1.2463  1.7862  2.9012
  121MOL0     H16696  10.217   7.065   4.706  1.9864  0.1185 -0.4263
  121MOL0     H16697  10.259   7.010   4.870  0.6050  0.5190  1.3282
  121MOL0     H16698  10.147   7.154   4.851 -0.4620  1.4656 -2.6110
  122MOL0     O16699  10.926   6.430   6.836 -0.4450 -0.8804  0.2958
  122MOL0     C16700  11.012   6.502   6.785  0.1509 -1.6744 -0.6389
  122MOL0     O16701  10.993   6.597   6.687 -0.6206  0.3315 -0.4764
  122MOL0     C16702  10.869   6.646   6.662  0.7802 -0.1362 -0.3861
  122MOL0     C16703  10.802   6.599   6.542 -0.9271 -0.3925  0.7948
  122MOL0     C16704  10.675   6.663   6.512  0.5468  0.5059  0.1848
  122MOL0     C16705  10.633   6.778   6.577 -0.4265  0.4474  0.3395
  122MOL0     O16706  10.523   6.864   6.535 -0.3093 -0.1080 -0.0871
  122MOL0     C16707  10.433   6.829   6.422 -0.2089  0.7731  0.1311
  122MOL0     C16708  10.282   6.872   6.432  0.0047 -0.1302 -0.7555
  122MOL0     C16709  10.231   6.944   6.309 -0.3389  0.4993 -0.5420
  122MOL0     C16710  10.309   7.065   6.260  0.2656  0.1228  0.4404
  122MOL0     C16711  10.266   7.104   6.113  0.5062  0.0133 -0.9802
  122MOL0     C16712  10.248   6.981   6.010  0.3024 -1.0875 -0.4349
  122MOL0     C16713  10.387   6.926   6.003 -0.3487  0.3793 -0.2054
  122MOL0     C16714  10.404   6.818   5.897  1.0614  0.4151  0.3532
  122MOL0     N16715  10.288   6.731   5.895  0.3894  0.1149  0.0979
  122MOL0     C16716  10.195   6.719   5.793  0.3992 -0.2487  0.1585
  122MOL0     C16717  10.117   6.612   5.830  0.1481 -1.0697  0.4642
  122MOL0     C16718   9.984   6.588   5.751  0.3213 -0.2646 -0.6846
  122MOL0     C16719   9.877   6.528   5.838 -1.0310 -0.4314 -0.6805
  122MOL0     C16720   9.747   6.596   5.818  0.3306 -0.6575 -1.0371
  122MOL0     C16721   9.656   6.588   5.933 -0.0149  0.9856 -0.8182
  122MOL0     O16722   9.554   6.687   5.937 -0.4610 -0.6919  0.4493
  122MOL0     C16723   9.582   6.799   6.003  0.1645 -0.4079 -0.6713
  122MOL0     C16724   9.707   6.884   6.002  0.4324  1.0544 -0.2085
  122MOL0     C16725   9.716   7.013   6.062  0.6319  0.4801  0.1258
  122MOL0     C16726   9.847   7.087   6.046 -0.7653  1.2275 -0.5237
  122MOL0     C16727   9.605   7.053   6.141  0.0387 -0.1756  0.2152
  122MOL0     C16728   9.604   7.186   6.211 -0.8528 -0.1983 -0.5984
  122MOL0     O16729   9.489   7.224   6.267 -0.1827  1.0389  0.0943
  122MOL0     C16730   9.489   7.298   6.383 -0.1420 -0.1530  0.3857
  122MOL0     C16731   9.420   7.257   6.492  0.2474  0.6821 -1.3738
  122MOL0     C16732   9.408   7.341   6.607 -0.8066 -0.1562 -0.1243
  122MOL0     C16733   9.457   7.477   6.600  0.1170  0.1642 -0.5347
  122MOL0     O16734   9.442   7.551   6.712  0.7240  0.2065 -0.5250
  122MOL0     C16735   9.458   7.697   6.708 -0.6690 -0.7394  0.2866
  122MOL0     C16736   9.413   7.760   6.850 -0.2346  0.0939  0.3161
  122MOL0     C16737   9.477   7.901   6.882  0.8516  0.5187  0.2220
  122MOL0     C16738   9.425   8.004   6.781 -0.5223  0.2655  0.2900
  122MOL0     C16739   9.477   8.147   6.815 -0.2168  0.6927  0.2746
  122MOL0     C16740   9.411   8.204   6.941  0.0404  0.5306  1.1795
  122MOL0     C16741   9.279   8.268   6.914  0.7493 -0.7812  0.2928
  122MOL0     C16742   9.183   8.287   7.038 -0.2649 -0.1866  0.0310
  122MOL0    Cl16743   9.088   8.141   7.079 -0.1172  0.6236 -0.5302
  122MOL0     C16744   9.519   7.521   6.488  0.1390  0.4710  0.4350
  122MOL0     C16745   9.541   7.427   6.380 -0.4172  0.6429  0.2141
  122MOL0     O16746   9.712   7.240   6.232  0.1258  0.2996  0.5290
  122MOL0     C16747   9.488   6.967   6.159 -0.3228  0.0249  0.5247
  122MOL0     C16748   9.481   6.851   6.084 -0.7105  1.0759  0.0412
  122MOL0     N16749  10.166   6.560   5.950  0.8928 -0.6313  0.3245
  122MOL0     N16750  10.266   6.627   5.985  0.1707 -0.2390  0.0931
  122MOL0     C16751  10.704   6.812   6.695 -0.1391 -0.1576 -1.0254
  122MOL0     C16752  10.814   6.744   6.736 -0.1039  0.6412 -1.0469
  122MOL0     C16753  11.148   6.507   6.843  0.0676 -0.6849 -0.0354
  122MOL0     C16754  11.252   6.581   6.776  0.5380 -0.2914 -1.0512
  122MOL0     C16755  11.382   6.575   6.824  0.7378  0.1014 -0.3563
  122MOL0     C16756  11.419   6.499   6.935 -0.3171  0.0628 -0.1316
  122MOL0     O16757  11.551   6.498   6.957 -0.1966 -0.1350 -0.4575
  122MOL0     C16758  11.599   6.443   7.083  0.5274  0.0040 -0.1000
  122MOL0     C16759  11.751   6.450   7.093  0.8427 -0.5023 -0.6996
  122MOL0     C16760  11.833   6.341   7.029  0.6893  0.8334  0.8086
  122MOL0     C16761  11.824   6.203   7.098  0.2839 -0.0823  0.4114
  122MOL0     C16762  11.908   6.099   7.059 -0.5217 -0.0873  0.4306
  122MOL0     C16763  11.995   6.020   7.028  0.0153 -0.5592 -0.0624
  122MOL0     C16764  11.320   6.439   7.018 -0.4807 -0.9775  0.3206
  122MOL0     C16765  11.189   6.444   6.966 -0.7086  0.4038  0.0667
  122MOL0     C16766  11.080   6.393   7.062  0.2872 -0.5745  0.0171
  122MOL0     H16767  10.824   6.512   6.481 -1.8496 -0.3403  0.3749
  122MOL0     H16768  10.617   6.634   6.425  1.9883 -1.6327 -0.1348
  122MOL0     H16769  10.423   6.720   6.417 -1.3534  0.8881 -0.9347
  122MOL0     H16770  10.481   6.862   6.330 -0.3260 -0.5546 -0.4358
  122MOL0     H16771  10.227   6.780   6.454  2.0787 -0.8726  1.9185
  122MOL0     H16772  10.265   6.931   6.523 -1.0024 -1.4298 -0.0652
  122MOL0     H16773  10.241   6.870   6.228  0.1798  0.4666 -0.4528
  122MOL0     H16774  10.130   6.984   6.318 -1.6541 -2.1672 -2.0179
  122MOL0     H16775  10.281   7.156   6.313  2.1736  0.5901  0.7042
  122MOL0     H16776  10.417   7.049   6.265  0.2294  0.4196  3.4030
  122MOL0     H16777  10.325   7.183   6.065  1.0423  1.8757  2.4203
  122MOL0     H16778  10.165   7.145   6.125 -0.8834 -3.7193  2.3023
  122MOL0     H16779  10.170   6.909   6.036  0.5698 -1.5923 -1.0036
  122MOL0     H16780  10.222   7.021   5.912 -0.2831 -0.5273 -0.0549
  122MOL0     H16781  10.425   6.882   6.096  1.3280  2.0246 -0.0374
  122MOL0     H16782  10.453   7.007   5.972 -0.8066  0.6558 -0.4708
  122MOL0     H16783  10.404   6.862   5.797  2.0490  0.4009  0.3374
  122MOL0     H16784  10.499   6.768   5.921  0.5045 -0.5059  0.6923
  122MOL0     H16785  10.175   6.796   5.719  1.3282  0.1660  0.3242
  122MOL0     H16786   9.993   6.514   5.671 -2.7195 -2.3108  0.6558
  122MOL0     H16787   9.952   6.678   5.697  1.6815  1.6518  1.5100
  122MOL0     H16788   9.878   6.419   5.826 -0.3173 -0.5376  0.2545
  122MOL0     H16789   9.903   6.557   5.940  0.0496  4.1527 -2.0226
  122MOL0     H16790   9.746   6.701   5.788 -2.4678  0.2047  1.6557
  122MOL0     H16791   9.696   6.546   5.735 -1.6790 -1.9530  0.8914
  122MOL0     H16792   9.624   6.484   5.933  1.5744  0.4447 -2.8244
  122MOL0     H16793   9.716   6.601   6.024 -1.3167 -1.4105  0.4741
  122MOL0     H16794   9.793   6.847   5.947 -0.7730 -2.7307  0.2152
  122MOL0     H16795   9.847   7.195   6.025 -1.1012  1.7710  2.0239
  122MOL0     H16796   9.907   7.035   5.970 -1.9087 -2.2936  0.7883
  122MOL0     H16797   9.909   7.076   6.136 -1.6981  0.0551 -0.0054
  122MOL0     H16798   9.371   7.160   6.490 -2.2508  1.8771 -2.7199
  122MOL0     H16799   9.364   7.307   6.700 -0.2009  2.5449  1.2697
  122MOL0     H16800   9.563   7.722   6.691 -0.3396 -0.4467  2.4386
  122MOL0     H16801   9.399   7.746   6.630  1.8727 -0.9259 -1.8742
  122MOL0     H16802   9.304   7.761   6.841 -0.1916  0.6512 -0.1924
  122MOL0     H16803   9.448   7.685   6.921 -1.2031  0.2262  0.9544
  122MOL0     H16804   9.585   7.886   6.883  0.6708 -0.8801  1.5458
  122MOL0     H16805   9.449   7.937   6.981 -0.9844  2.4505 -0.9149
  122MOL0     H16806   9.316   8.008   6.772 -0.4311 -1.2604 -3.1033
  122MOL0     H16807   9.461   7.964   6.685  1.5443  0.1485  1.0653
  122MOL0     H16808   9.586   8.149   6.830 -0.2141  1.0570  0.2229
  122MOL0     H16809   9.451   8.223   6.741  0.8074 -0.6594 -1.5351
  122MOL0     H16810   9.478   8.285   6.972 -2.3066  2.7006  0.8556
  122MOL0     H16811   9.394   8.135   7.025  1.3843 -1.9546 -0.4591
  122MOL0     H16812   9.222   8.207   6.844  1.7319 -2.2338  0.7236
  122MOL0     H16813   9.301   8.359   6.858 -3.8832  0.4875  0.0946
  122MOL0     H16814   9.122   8.373   7.010 -0.8346 -0.3014  0.8867
  122MOL0     H16815   9.239   8.332   7.121 -0.0471 -1.4197  0.5814
  122MOL0     H16816   9.544   7.626   6.475  0.6589  0.9866  4.4362
  122MOL0     H16817   9.605   7.463   6.300 -2.1073 -0.3253 -1.6424
  122MOL0     H16818   9.399   6.987   6.219 -1.3359 -1.5453 -0.3700
  122MOL0     H16819   9.384   6.803   6.078 -0.8350  1.2205  0.7400
  122MOL0     H16820  10.675   6.897   6.757 -0.0476 -2.3907  2.3130
  122MOL0     H16821  10.870   6.774   6.824  1.2455  3.0898 -2.6475
  122MOL0     H16822  11.233   6.637   6.685 -1.4646  1.0249  0.0843
  122MOL0     H16823  11.445   6.646   6.770  0.9075  3.6264  3.9261
  122MOL0     H16824  11.562   6.507   7.164 -0.0720 -1.7042  1.0338
  122MOL0     H16825  11.561   6.341   7.097 -1.4543  0.8007  0.6312
  122MOL0     H16826  11.778   6.429   7.196 -0.8126  0.0299 -0.1166
  122MOL0     H16827  11.781   6.551   7.064 -2.4364  0.6847 -0.4357
  122MOL0     H16828  11.791   6.323   6.929  0.6692 -1.8940  1.2084
  122MOL0     H16829  11.935   6.376   7.014  0.1881  1.3841 -1.8046
  122MOL0     H16830  11.727   6.157   7.074  0.5077 -1.2776  1.6510
  122MOL0     H16831  11.833   6.206   7.207  2.2177 -1.7701  0.3628
  122MOL0     H16832  12.083   5.962   7.008  1.9611  1.6788  1.5123
  122MOL0     H16833  11.338   6.405   7.119  2.3300 -3.1068 -0.7925
  122MOL0     H16834  11.026   6.304   7.028 -1.1615  0.6507 -1.0429
  122MOL0     H16835  11.131   6.368   7.156  0.3126 -0.9113 -0.0878
  122MOL0     H16836  11.000   6.467   7.077  0.0120 -0.7117 -0.7379
  123MOL0     O16837   6.274  10.119   1.444  0.2425 -0.6364  0.0269
  123MOL0     C16838   6.378  10.141   1.385  0.1254 -0.7653 -0.2797
  123MOL0     O16839   6.418  10.267   1.342  0.5956  0.1141 -0.4498
  123MOL0     C16840   6.313  10.347   1.325  0.3043 -0.0496  0.3103
  123MOL0     C16841   6.269  10.365   1.194  0.5103 -0.8335  0.0430
  123MOL0     C16842   6.171  10.458   1.160  1.2288  0.0509 -0.0507
  123MOL0     C16843   6.113  10.545   1.260 -1.0965 -0.3082  0.1476
  123MOL0     O16844   5.998  10.606   1.222  0.9967 -0.3787 -0.4714
  123MOL0     C16845   5.898  10.630   1.321  0.4424  0.4134  0.1957
  123MOL0     C16846   5.762  10.646   1.265 -0.5782  0.4844  0.3813
  123MOL0     C16847   5.727  10.504   1.215 -0.6109  0.5651 -0.3102
  123MOL0     C16848   5.575  10.475   1.230  0.9312 -0.3591 -0.4690
  123MOL0     C16849   5.503  10.489   1.097 -0.2722 -0.4896 -0.1067
  123MOL0     C16850   5.360  10.448   1.112 -0.1724  0.1616  0.4383
  123MOL0     C16851   5.287  10.469   0.979 -0.4211  0.1647  0.8502
  123MOL0     C16852   5.258  10.615   0.954 -0.5009  0.6762  0.5918
  123MOL0     N16853   5.195  10.627   0.813 -0.9530 -1.3805  0.3127
  123MOL0     C16854   5.249  10.587   0.697 -0.8321 -0.3932  0.4984
  123MOL0     C16855   5.171  10.627   0.590  0.1599  0.8001  0.3374
  123MOL0     C16856   5.207  10.625   0.443  0.9206 -0.4523 -0.9436
  123MOL0     C16857   5.094  10.688   0.356  0.5713  0.0910 -0.4621
  123MOL0     C16858   5.116  10.658   0.202  0.4755  0.5386 -0.0576
  123MOL0     C16859   5.119  10.502   0.177 -0.7335  0.6540 -0.3382
  123MOL0     O16860   5.056  10.453   0.055  0.2495 -0.0329 -0.0696
  123MOL0     C16861   4.919  10.469   0.040  0.7975  0.3987 -0.2556
  123MOL0     C16862   4.876  10.489  -0.089  0.7688  0.4827 -0.6510
  123MOL0     C16863   4.739  10.502  -0.120 -0.2741  0.2862  0.1576
  123MOL0     C16864   4.683  10.504  -0.259  0.7285  0.2026  0.6376
  123MOL0     C16865   4.647  10.513  -0.012  0.1895 -0.9794  0.5621
  123MOL0     C16866   4.506  10.553  -0.027  0.6423 -0.5137 -0.2811
  123MOL0     O16867   4.445  10.566   0.095  0.6232 -0.4875  0.8756
  123MOL0     C16868   4.317  10.611   0.103  0.9429  0.4854  1.2118
  123MOL0     C16869   4.218  10.513   0.131  0.2638 -0.9258  0.0278
  123MOL0     C16870   4.088  10.551   0.151  1.6021 -0.0387  0.7392
  123MOL0     C16871   4.054  10.686   0.165 -0.1972  0.0475  1.0309
  123MOL0     O16872   3.924  10.717   0.201  0.2490  0.0263 -0.1120
  123MOL0     C16873   3.899  10.853   0.201 -0.3166 -0.1926  0.8660
  123MOL0     C16874   3.754  10.875   0.222  0.0827 -0.3834 -0.9420
  123MOL0     C16875   3.653  10.866   0.108 -0.3029 -0.2168  0.0367
  123MOL0     C16876   3.648  10.734   0.026 -0.0221  0.5037 -0.3480
  123MOL0     C16877   3.546  10.734  -0.086  0.6640  0.5897  0.3688
  123MOL0     C16878   3.583  10.827  -0.201  0.6478  0.0879  1.4170
  123MOL0     C16879   3.517  10.781  -0.330 -0.2825  0.0841  0.1572
  123MOL0     C16880   3.513  10.876  -0.448  0.5090  0.6039 -0.2254
  123MOL0    Cl16881   3.431  11.040  -0.421  0.1687 -0.6236 -0.0816
  123MOL0     C16882   4.146  10.785   0.121 -0.1584 -0.0697 -0.0843
  123MOL0     C16883   4.279  10.742   0.091  0.1614  0.4814  0.7620
  123MOL0     O16884   4.453  10.586  -0.135  0.2507 -0.2641 -0.1954
  123MOL0     C16885   4.698  10.489   0.123 -0.2421 -0.3018 -0.0028
  123MOL0     C16886   4.828  10.481   0.147 -0.5167 -0.5993  1.4543
  123MOL0     N16887   5.064  10.682   0.647  0.1079 -0.1660 -0.8297
  123MOL0     N16888   5.075  10.676   0.781 -0.6341  0.4517  0.1116
  123MOL0     C16889   6.175  10.544   1.386 -0.2746  0.6774 -0.5338
  123MOL0     C16890   6.271  10.442   1.417  1.0005 -0.1302  0.5845
  123MOL0     C16891   6.459  10.024   1.330  0.3393 -0.7011 -0.5058
  123MOL0     C16892   6.595  10.051   1.278  0.8180  0.2746 -1.2956
  123MOL0     C16893   6.676   9.952   1.231 -0.5707 -0.6886 -0.2818
  123MOL0     C16894   6.630   9.826   1.203 -0.6589 -0.3594  0.2677
  123MOL0     O16895   6.707   9.733   1.139  0.4755 -0.1955  0.3523
  123MOL0     C16896   6.697   9.725   0.986  0.3981  0.1446 -0.2762
  123MOL0     C16897   6.580   9.638   0.950  0.8413  0.4561 -0.4343
  123MOL0     C16898   6.580   9.486   1.002 -0.3121  0.4501  0.2278
  123MOL0     C16899   6.572   9.388   0.879  0.1501 -0.0695  0.3567
  123MOL0     C16900   6.438   9.368   0.821 -0.2450 -1.1652 -1.0241
  123MOL0     C16901   6.347   9.354   0.745  0.1518  0.0402  0.5132
  123MOL0     C16902   6.502   9.795   1.242  0.3884 -0.6980  0.2605
  123MOL0     C16903   6.422   9.892   1.317 -0.1005 -0.0563  0.0490
  123MOL0     C16904   6.288   9.847   1.358 -0.0827  0.7246 -0.0330
  123MOL0     H16905   6.299  10.297   1.115  2.3756  1.6828 -1.5670
  123MOL0     H16906   6.123  10.451   1.063  0.7347  1.3849  0.0741
  123MOL0     H16907   5.922  10.724   1.371  3.2124  1.1565 -2.3046
  123MOL0     H16908   5.893  10.550   1.396  3.4548 -0.1361 -0.0952
  123MOL0     H16909   5.696  10.697   1.336  0.0776  2.3815 -0.3103
  123MOL0     H16910   5.758  10.713   1.178 -0.8717 -1.5697 -1.2764
  123MOL0     H16911   5.750  10.492   1.109 -0.1265 -1.7018  0.0085
  123MOL0     H16912   5.779  10.422   1.264 -1.3739  0.4955  0.4102
  123MOL0     H16913   5.558  10.383   1.285  0.2770 -0.7162 -1.2490
  123MOL0     H16914   5.531  10.559   1.285  2.0958 -0.8583  1.2799
  123MOL0     H16915   5.550  10.425   1.021 -1.1308  0.9997 -1.9656
  123MOL0     H16916   5.517  10.591   1.061 -3.0629  0.2234  0.5536
  123MOL0     H16917   5.349  10.345   1.148 -0.5953 -0.2936 -0.9406
  123MOL0     H16918   5.312  10.516   1.183  1.7450  1.5103  0.5296
  123MOL0     H16919   5.196  10.409   0.976  1.5741 -3.0826 -1.4054
  123MOL0     H16920   5.358  10.442   0.900 -0.7492  0.1198  0.5738
  123MOL0     H16921   5.189  10.662   1.025 -0.9001  0.0048  0.6549
  123MOL0     H16922   5.351  10.671   0.947 -0.5136  0.5025 -2.0434
  123MOL0     H16923   5.337  10.527   0.676 -0.0947 -0.9113  4.4084
  123MOL0     H16924   5.246  10.525   0.418  2.1336 -0.6184  1.3645
  123MOL0     H16925   5.282  10.703   0.430  0.2983  0.1239 -1.1070
  123MOL0     H16926   4.996  10.652   0.389 -0.7838  3.2756 -0.6596
  123MOL0     H16927   5.086  10.796   0.370  0.3166  0.0946 -0.6278
  123MOL0     H16928   5.027  10.700   0.155 -0.2842 -0.4262  0.4944
  123MOL0     H16929   5.206  10.709   0.167  0.6807  1.2149  1.3901
  123MOL0     H16930   5.225  10.477   0.170 -0.1102  3.3685 -2.5745
  123MOL0     H16931   5.076  10.453   0.265  2.2895 -1.0323  0.3357
  123MOL0     H16932   4.954  10.469  -0.162  1.5609  0.7112  0.1185
  123MOL0     H16933   4.624  10.592  -0.289  0.3807 -0.4735 -0.7296
  123MOL0     H16934   4.619  10.417  -0.272 -2.1648  1.7285  3.2457
  123MOL0     H16935   4.758  10.492  -0.338  0.6578 -0.5436  0.6802
  123MOL0     H16936   4.244  10.407   0.130  2.6779 -0.3929 -0.7790
  123MOL0     H16937   4.009  10.477   0.156  0.0187  1.2604 -2.3682
  123MOL0     H16938   3.950  10.898   0.287  1.7426 -5.4065  2.7233
  123MOL0     H16939   3.920  10.914   0.113  0.1044  1.7454  2.2319
  123MOL0     H16940   3.714  10.806   0.297  0.3695  1.2533  0.7878
  123MOL0     H16941   3.754  10.978   0.259  0.6752  0.3340 -2.8246
  123MOL0     H16942   3.655  10.959   0.049 -1.7483 -0.3369 -0.2388
  123MOL0     H16943   3.553  10.880   0.150 -0.3353  2.9414 -0.8369
  123MOL0     H16944   3.637  10.651   0.097  0.6983  1.8954  1.4818
  123MOL0     H16945   3.745  10.737  -0.024  0.5748  0.4251  0.7667
  123MOL0     H16946   3.543  10.634  -0.130  3.9973  0.9162 -0.9748
  123MOL0     H16947   3.454  10.765  -0.036 -1.3700 -1.2987 -1.9628
  123MOL0     H16948   3.688  10.816  -0.227  0.8087 -1.4306  2.6206
  123MOL0     H16949   3.566  10.935  -0.192  1.1916  0.1078  2.2529
  123MOL0     H16950   3.414  10.749  -0.313  0.1230 -1.6893 -0.4501
  123MOL0     H16951   3.570  10.692  -0.364 -1.0664  0.4971 -2.3280
  123MOL0     H16952   3.457  10.833  -0.532 -2.4518  1.2281  1.2784
  123MOL0     H16953   3.616  10.893  -0.482  1.6214 -3.4095  0.6261
  123MOL0     H16954   4.134  10.893   0.113  3.6078  0.7722  2.4661
  123MOL0     H16955   4.348  10.816   0.053  0.2071  0.0999  0.0912
  123MOL0     H16956   4.631  10.484   0.208  0.2690 -1.0442  0.3683
  123MOL0     H16957   4.852  10.490   0.253  2.2075 -3.7259  1.2915
  123MOL0     H16958   6.151  10.623   1.455  1.8740  0.9042  0.0448
  123MOL0     H16959   6.319  10.450   1.514  1.6025 -1.6741  0.4387
  123MOL0     H16960   6.635  10.151   1.297  1.2864  0.0851 -1.2806
  123MOL0     H16961   6.774   9.992   1.208 -1.7169  1.6766 -1.3863
  123MOL0     H16962   6.673   9.822   0.941 -0.5132  0.4987  0.9244
  123MOL0     H16963   6.790   9.687   0.942 -2.0002 -3.9848 -2.4095
  123MOL0     H16964   6.588   9.628   0.842  0.6612 -0.8445 -0.3449
  123MOL0     H16965   6.483   9.677   0.981 -0.6430 -3.2639  0.1683
  123MOL0     H16966   6.672   9.470   1.059 -1.5954 -2.9566  1.6072
  123MOL0     H16967   6.493   9.472   1.066 -3.1464  1.8662 -2.9642
  123MOL0     H16968   6.599   9.291   0.921  1.7864  0.2373  0.0812
  123MOL0     H16969   6.642   9.409   0.798 -1.2257 -2.0068 -1.4432
  123MOL0     H16970   6.274   9.333   0.670  0.7626 -4.1215  0.8056
  123MOL0     H16971   6.473   9.695   1.209 -0.5894  0.3182 -2.2259
  123MOL0     H16972   6.212   9.896   1.297 -1.4827  1.8553  2.4720
  123MOL0     H16973   6.283   9.739   1.342  4.6158  0.4317 -1.1453
  123MOL0     H16974   6.268   9.872   1.462 -2.9023  3.1675 -1.0292
  124MOL0     O16975   4.883   0.043   9.034  0.0174  0.1469 -0.4681
  124MOL0     C16976   4.811   0.098   8.951  0.2181 -1.3557 -1.3653
  124MOL0     O16977   4.789   0.229   8.947 -0.9783  0.0939 -0.3389
  124MOL0     C16978   4.894   0.314   8.983  0.5015 -0.4668  0.0147
  124MOL0     C16979   5.008   0.325   8.899  0.0782 -0.8800 -0.7726
  124MOL0     C16980   5.106   0.421   8.926 -0.5689  0.2655  0.3750
  124MOL0     C16981   5.100   0.501   9.040  0.9071 -0.3383 -0.3524
  124MOL0     O16982   5.179   0.608   9.055  0.1391  0.2531  0.6159
  124MOL0     C16983   5.273   0.659   8.951 -0.6098  0.6398 -1.1207
  124MOL0     C16984   5.354   0.775   9.027  0.5428 -0.8947 -0.0829
  124MOL0     C16985   5.277   0.848   9.136 -0.4675 -0.1865  0.5819
  124MOL0     C16986   5.341   0.980   9.188  0.0763 -0.0661 -0.1217
  124MOL0     C16987   5.249   1.071   9.272  1.0799 -0.4310 -0.1676
  124MOL0     C16988   5.321   1.155   9.388  1.1205  0.8040  0.0421
  124MOL0     C16989   5.441   1.227   9.339 -0.2169  0.1865  0.5364
  124MOL0     C16990   5.500   1.302   9.454  0.5260 -0.0536  0.0540
  124MOL0     N16991   5.418   1.414   9.504 -0.2723 -0.2781  0.0744
  124MOL0     C16992   5.346   1.510   9.429  0.0502 -0.0644 -0.8308
  124MOL0     C16993   5.276   1.580   9.522 -0.0036  0.2601  0.4138
  124MOL0     C16994   5.170   1.678   9.496 -0.7026 -0.1030 -0.2461
  124MOL0     C16995   5.217   1.820   9.473 -0.8109 -0.3034 -0.4952
  124MOL0     C16996   5.103   1.901   9.427 -0.6257 -0.3745  0.3557
  124MOL0     C16997   5.145   2.052   9.452 -1.3760 -0.4857 -0.7301
  124MOL0     O16998   5.179   2.089   9.586  0.2426 -0.1838  0.2780
  124MOL0     C16999   5.085   2.071   9.679 -0.0292  1.4677 -1.2457
  124MOL0     C17000   5.149   2.044   9.800  0.0598 -0.0338 -0.3722
  124MOL0     C17001   5.080   2.042   9.920  0.2251  0.3683 -0.8648
  124MOL0     C17002   5.170   2.032  10.039 -0.2770  1.1069  0.3565
  124MOL0     C17003   4.936   2.049   9.920 -0.4403 -0.2979 -0.0694
  124MOL0     C17004   4.856   2.035  10.040 -0.2030 -1.0653 -0.4178
  124MOL0     O17005   4.723   2.078  10.038 -0.0683 -0.1661  0.2098
  124MOL0     C17006   4.629   2.022  10.118  0.6537 -1.0794 -0.0476
  124MOL0     C17007   4.572   2.107  10.213  0.0972 -0.4782 -0.1812
  124MOL0     C17008   4.482   2.047  10.305 -0.1525 -0.4831 -0.0805
  124MOL0     C17009   4.456   1.903  10.312  0.2197 -0.7279 -0.1822
  124MOL0     O17010   4.379   1.850  10.415 -0.2437  0.5156  0.2226
  124MOL0     C17011   4.424   1.904  10.540 -0.1195 -0.6815  0.9957
  124MOL0     C17012   4.358   1.810  10.640  0.4238 -0.3353  0.4072
  124MOL0     C17013   4.431   1.679  10.641 -0.4109  0.0535 -0.4661
  124MOL0     C17014   4.364   1.594  10.750  0.1528 -0.1034  0.1582
  124MOL0     C17015   4.448   1.473  10.771 -0.0397  0.1286  0.2971
  124MOL0     C17016   4.401   1.372  10.874 -0.8322 -0.4913 -0.5273
  124MOL0     C17017   4.436   1.416  11.011  0.0786 -0.3294 -0.2478
  124MOL0     C17018   4.336   1.488  11.097  0.2811  0.2209  0.3239
  124MOL0    Cl17019   4.417   1.502  11.265 -0.1937 -0.0094  0.2251
  124MOL0     C17020   4.517   1.827  10.218 -0.0737 -0.4805  0.4890
  124MOL0     C17021   4.605   1.884  10.124 -0.6182  0.3149 -0.3309
  124MOL0     O17022   4.912   1.991  10.142  0.8525 -0.8234  0.4592
  124MOL0     C17023   4.874   2.052   9.800  0.6648 -0.7622 -0.9243
  124MOL0     C17024   4.942   2.073   9.679 -0.2730  0.1340  0.1033
  124MOL0     N17025   5.311   1.521   9.653 -0.3429 -0.1357  0.0384
  124MOL0     N17026   5.402   1.428   9.639  0.3676 -0.8284 -0.3888
  124MOL0     C17027   4.990   0.494   9.125 -0.0190  0.0116 -0.4624
  124MOL0     C17028   4.892   0.411   9.092  0.6370  0.6405  0.9702
  124MOL0     C17029   4.720   0.021   8.861 -0.8837  0.9912  0.4271
  124MOL0     C17030   4.582   0.058   8.843 -0.1374 -0.2954  0.2996
  124MOL0     C17031   4.500  -0.019   8.761 -0.2977  0.1219 -0.0059
  124MOL0     C17032   4.546  -0.132   8.692 -0.2722  0.6149 -0.6315
  124MOL0     O17033   4.474  -0.199   8.589  0.0615  0.6765 -0.2228
  124MOL0     C17034   4.338  -0.164   8.568  0.4170  0.9622  0.3504
  124MOL0     C17035   4.287  -0.208   8.425  0.7028  0.2399 -0.8009
  124MOL0     C17036   4.160  -0.129   8.372 -0.1299 -0.5088 -0.2940
  124MOL0     C17037   4.192   0.012   8.334 -0.5385 -1.1689  0.2852
  124MOL0     C17038   4.185   0.113   8.442 -0.8561  0.4484 -0.2159
  124MOL0     C17039   4.186   0.195   8.530  0.0368 -0.0976  0.5753
  124MOL0     C17040   4.677  -0.168   8.709  0.5489  0.0620 -0.6408
  124MOL0     C17041   4.768  -0.089   8.792 -0.2449 -0.5560  0.2510
  124MOL0     C17042   4.907  -0.144   8.807 -1.3027  0.7319 -0.0520
  124MOL0     H17043   5.015   0.275   8.803  1.2001 -2.0112 -0.1346
  124MOL0     H17044   5.185   0.425   8.852 -0.4953 -4.5802 -0.0931
  124MOL0     H17045   5.205   0.711   8.882 -2.3599  2.9622  2.0821
  124MOL0     H17046   5.344   0.593   8.901 -0.1148 -0.8089  1.3310
  124MOL0     H17047   5.446   0.739   9.074  1.3456  3.8130  2.6168
  124MOL0     H17048   5.388   0.849   8.953 -0.3755 -1.9532 -1.6129
  124MOL0     H17049   5.177   0.879   9.103 -0.4412 -0.8395 -0.1482
  124MOL0     H17050   5.266   0.785   9.225 -2.7473  0.9188  1.1695
  124MOL0     H17051   5.430   0.953   9.246 -0.7276 -0.5663  0.8994
  124MOL0     H17052   5.389   1.032   9.104 -0.7255  0.2376 -0.4004
  124MOL0     H17053   5.171   1.010   9.319  0.2495  0.6465 -0.0971
  124MOL0     H17054   5.201   1.144   9.206 -0.5924  0.1308  1.5691
  124MOL0     H17055   5.246   1.231   9.410  0.1906 -0.2504  0.6166
  124MOL0     H17056   5.339   1.094   9.477  0.2344  2.3156  1.3170
  124MOL0     H17057   5.414   1.285   9.250  2.0375 -2.5537 -2.1590
  124MOL0     H17058   5.519   1.156   9.309 -0.2810  1.1363 -2.1320
  124MOL0     H17059   5.516   1.233   9.537 -1.1833  1.6160  1.8832
  124MOL0     H17060   5.591   1.348   9.415 -1.9776  2.4447 -3.5282
  124MOL0     H17061   5.344   1.521   9.322 -0.0823  1.5298 -0.6823
  124MOL0     H17062   5.107   1.680   9.586 -1.6220  1.5803 -0.8713
  124MOL0     H17063   5.108   1.649   9.411 -0.1126  0.4871 -0.8917
  124MOL0     H17064   5.253   1.863   9.567  0.3526 -0.4295 -0.8662
  124MOL0     H17065   5.296   1.814   9.398 -0.2692 -0.1038  0.0506
  124MOL0     H17066   5.086   1.891   9.319  3.2972  0.5983 -0.5165
  124MOL0     H17067   5.016   1.869   9.485 -0.9063 -0.5910 -0.1734
  124MOL0     H17068   5.220   2.069   9.374 -2.0250  0.3018 -1.1951
  124MOL0     H17069   5.067   2.123   9.423  0.6275  2.4758  0.7487
  124MOL0     H17070   5.257   2.047   9.808 -0.0442  0.4326  1.0932
  124MOL0     H17071   5.176   1.924  10.056  3.3199  1.3904  1.6760
  124MOL0     H17072   5.139   2.076  10.134  0.6715  1.6249  0.4408
  124MOL0     H17073   5.272   2.069  10.027 -0.5051  1.0666 -2.6260
  124MOL0     H17074   4.601   2.211  10.225  1.0581 -0.7665  0.0620
  124MOL0     H17075   4.431   2.120  10.367  2.4517 -0.2807  1.9920
  124MOL0     H17076   4.532   1.909  10.558 -0.2650  3.3596  1.5530
  124MOL0     H17077   4.403   2.005  10.574  1.9909 -0.8108  2.8977
  124MOL0     H17078   4.376   1.855  10.738  0.3123  2.7560 -0.8671
  124MOL0     H17079   4.250   1.799  10.627  0.3463 -2.8385  2.5458
  124MOL0     H17080   4.525   1.714  10.683 -1.1468  0.1236  1.2092
  124MOL0     H17081   4.437   1.617  10.551 -1.6183 -3.8693  1.8635
  124MOL0     H17082   4.260   1.572  10.727  0.3947 -0.3933 -0.7148
  124MOL0     H17083   4.365   1.651  10.844  1.4000 -1.8059  1.2301
  124MOL0     H17084   4.445   1.422  10.674  0.1537  1.3177 -0.3528
  124MOL0     H17085   4.553   1.501  10.787  0.6371 -1.2368 -1.3048
  124MOL0     H17086   4.460   1.280  10.863  0.5212  0.5985 -3.0347
  124MOL0     H17087   4.294   1.354  10.860 -1.0654  0.7162 -0.3465
  124MOL0     H17088   4.532   1.466  11.017 -0.5479  1.0103 -1.0063
  124MOL0     H17089   4.453   1.320  11.061  1.5540 -1.0570 -2.0566
  124MOL0     H17090   4.239   1.438  11.099  0.7769 -0.8335 -0.7864
  124MOL0     H17091   4.318   1.583  11.046  4.4404 -0.0653 -2.1375
  124MOL0     H17092   4.511   1.719  10.228 -0.6148 -0.5558 -0.6066
  124MOL0     H17093   4.650   1.830  10.041 -3.8516 -0.1103 -1.9604
  124MOL0     H17094   4.766   2.045   9.806  0.6958  0.1701  2.8450
  124MOL0     H17095   4.892   2.060   9.583  2.8240 -2.6889 -1.3268
  124MOL0     H17096   4.969   0.555   9.212  1.4063  0.2208 -0.2387
  124MOL0     H17097   4.798   0.414   9.145  1.4032  2.4856  2.3092
  124MOL0     H17098   4.540   0.140   8.901 -0.5837 -1.1430  1.2085
  124MOL0     H17099   4.397   0.016   8.754 -0.6166 -0.9135 -0.5660
  124MOL0     H17100   4.272  -0.219   8.635 -2.7356  2.2039 -1.4972
  124MOL0     H17101   4.323  -0.056   8.559 -0.5664  0.7250 -1.3046
  124MOL0     H17102   4.251  -0.311   8.430  0.3466  0.3911 -0.1554
  124MOL0     H17103   4.373  -0.184   8.362  2.4250 -0.5464  1.1498
  124MOL0     H17104   4.125  -0.181   8.282  3.5053 -0.4158 -1.9190
  124MOL0     H17105   4.076  -0.136   8.442  2.8280 -0.4767  3.5866
  124MOL0     H17106   4.123   0.053   8.259 -1.5402 -2.1185  0.6652
  124MOL0     H17107   4.284   0.017   8.275 -0.6834  0.8500  0.1558
  124MOL0     H17108   4.181   0.276   8.600  2.2424  0.6435 -0.0426
  124MOL0     H17109   4.722  -0.245   8.648  0.0300 -1.4955  0.8669
  124MOL0     H17110   4.993  -0.077   8.814 -0.2875 -0.5775  0.5194
  124MOL0     H17111   4.907  -0.207   8.897 -1.7146 -2.1908 -1.9539
  124MOL0     H17112   4.939  -0.216   8.731  0.0177  0.9148  0.3206
  125MOL0     O17113   2.184  11.390   0.329 -1.0762  0.1370 -0.6377
  125MOL0     C17114   2.176  11.296   0.409 -0.0531  0.2512 -0.1390
  125MOL0     O17115   2.057  11.248   0.460  0.2620  0.2771  0.2309
  125MOL0     C17116   1.935  11.308   0.456  0.6799 -0.8957 -0.4319
  125MOL0     C17117   1.829  11.240   0.526 -0.3765 -0.0878  0.8188
  125MOL0     C17118   1.700  11.300   0.533 -0.1129 -0.2704  0.8870
  125MOL0     C17119   1.667  11.423   0.465 -0.7315 -0.0379 -0.9660
  125MOL0     O17120   1.537  11.474   0.466 -0.3904  0.7428 -0.0135
  125MOL0     C17121   1.528  11.561   0.574  0.6444  0.0062 -0.0163
  125MOL0     C17122   1.398  11.642   0.587 -0.1797 -0.2667  0.3497
  125MOL0     C17123   1.351  11.702   0.451 -0.4840  0.1184 -0.1961
  125MOL0     C17124   1.458  11.794   0.383 -0.2695  0.0291  0.5037
  125MOL0     C17125   1.406  11.825   0.246 -0.1088 -0.2493 -0.1543
  125MOL0     C17126   1.443  11.724   0.138  0.2377 -0.0476  0.7061
  125MOL0     C17127   1.591  11.719   0.104 -0.0832 -0.8666 -0.9629
  125MOL0     C17128   1.613  11.622  -0.013 -0.8565 -0.0915 -0.2540
  125MOL0     N17129   1.762  11.609  -0.042 -0.5055  0.0740 -0.9156
  125MOL0     C17130   1.848  11.547   0.032 -0.1515 -1.0568 -0.3703
  125MOL0     C17131   1.962  11.538  -0.046  0.3167 -0.6305 -0.2786
  125MOL0     C17132   2.085  11.463  -0.021 -0.1372  0.5613 -0.4877
  125MOL0     C17133   2.219  11.529  -0.035  0.2759  0.1354 -0.6725
  125MOL0     C17134   2.329  11.445   0.010 -0.7706 -0.0232  0.2027
  125MOL0     C17135   2.466  11.498  -0.026  0.1698 -0.5720 -0.2105
  125MOL0     O17136   2.486  11.624   0.039  0.5161  0.1030  0.2928
  125MOL0     C17137   2.610  11.655   0.098  0.1392  0.8472  1.1665
  125MOL0     C17138   2.731  11.595   0.067  0.4529  0.5396 -0.4170
  125MOL0     C17139   2.853  11.622   0.132  0.2555 -0.4133  0.0470
  125MOL0     C17140   2.970  11.532   0.095  0.8521  0.0283  1.1545
  125MOL0     C17141   2.847  11.736   0.216 -0.2862 -0.1771  0.6924
  125MOL0     C17142   2.960  11.781   0.305  0.0346  0.7681  0.6246
  125MOL0     O17143   2.974  11.915   0.327  0.0570 -0.5736 -0.8809
  125MOL0     C17144   3.079  11.958   0.407  0.6700 -0.0800  0.0138
  125MOL0     C17145   3.067  11.994   0.539  0.3540  0.0388 -0.5431
  125MOL0     C17146   3.165  12.022   0.627  0.0643 -0.5823  0.5309
  125MOL0     C17147   3.299  12.031   0.579  1.0027 -0.2700 -0.1888
  125MOL0     O17148   3.394  12.065   0.663  0.3059 -0.3530 -0.7622
  125MOL0     C17149   3.536  12.038   0.628 -0.4118  0.3066 -0.4992
  125MOL0     C17150   3.610  12.171   0.610 -1.4151 -0.7887 -0.0752
  125MOL0     C17151   3.765  12.156   0.598  0.4864 -0.6670 -1.1412
  125MOL0     C17152   3.837  12.180   0.735 -0.2948 -0.7849 -0.3374
  125MOL0     C17153   3.983  12.162   0.717 -0.2457  0.4032 -0.4287
  125MOL0     C17154   4.080  12.204   0.835 -1.3382 -0.3978 -0.8234
  125MOL0     C17155   4.223  12.202   0.793  0.4125  0.4027  0.0190
  125MOL0     C17156   4.295  12.067   0.804 -0.2107  0.5320  0.3242
  125MOL0    Cl17157   4.471  12.077   0.764 -0.5048 -0.2927 -0.0670
  125MOL0     C17158   3.315  12.001   0.438 -1.1661 -0.4295 -0.2787
  125MOL0     C17159   3.206  11.963   0.359 -0.4148  0.3272  0.3646
  125MOL0     O17160   3.036  11.697   0.342 -0.2673 -0.1909  0.7010
  125MOL0     C17161   2.726  11.807   0.239  0.0137 -0.1893  0.1906
  125MOL0     C17162   2.605  11.765   0.181 -0.3143  0.7310  0.5340
  125MOL0     N17163   1.941  11.596  -0.162  0.0157  0.4484 -0.6283
  125MOL0     N17164   1.821  11.646  -0.155  0.8475 -0.3685  0.0768
  125MOL0     C17165   1.775  11.481   0.398 -0.4609  0.2461 -0.1832
  125MOL0     C17166   1.899  11.428   0.392  0.5897 -0.0890  0.4892
  125MOL0     C17167   2.304  11.220   0.466  0.0767  0.1908  1.1622
  125MOL0     C17168   2.282  11.095   0.524 -0.4468 -0.6619 -0.5231
  125MOL0     C17169   2.383  11.030   0.588  1.0534 -0.6422  0.1562
  125MOL0     C17170   2.516  11.081   0.593  0.7553 -0.7059 -0.2470
  125MOL0     O17171   2.608  11.021   0.676 -0.9213  0.5098 -0.3702
  125MOL0     C17172   2.580  11.026   0.821 -0.7730  0.0981 -0.2500
  125MOL0     C17173   2.626  11.163   0.867 -0.0950  0.4890  0.0088
  125MOL0     C17174   2.782  11.198   0.834 -0.3591  0.4568 -0.0424
  125MOL0     C17175   2.875  11.096   0.911  0.3854  0.3596 -0.8299
  125MOL0     C17176   3.006  11.145   0.866 -0.2670  0.1124 -0.2082
  125MOL0     C17177   3.111  11.204   0.851 -0.7203 -0.2580 -0.9937
  125MOL0     C17178   2.541  11.202   0.532  0.1639 -0.9845 -1.1483
  125MOL0     C17179   2.434  11.275   0.471  0.6493  0.5765 -0.0700
  125MOL0     C17180   2.469  11.410   0.418 -0.2481 -0.7148 -0.0707
  125MOL0     H17181   1.853  11.150   0.582 -1.6150  0.5787  2.5029
  125MOL0     H17182   1.624  11.240   0.581  0.3720 -1.4072  0.2585
  125MOL0     H17183   1.606  11.637   0.564  0.5663  0.0193 -0.5996
  125MOL0     H17184   1.542  11.499   0.663  0.5644  1.0732  0.7562
  125MOL0     H17185   1.316  11.585   0.632  1.3437 -2.3462  0.6417
  125MOL0     H17186   1.436  11.726   0.647  1.0551 -0.6708  0.1746
  125MOL0     H17187   1.329  11.619   0.382  0.8892 -1.5712  1.2910
  125MOL0     H17188   1.274  11.772   0.484  1.4012  2.0676  0.2934
  125MOL0     H17189   1.474  11.876   0.453 -0.5267 -1.2644  2.1233
  125MOL0     H17190   1.553  11.746   0.357  0.3193  0.9814  0.8328
  125MOL0     H17191   1.457  11.919   0.222  2.3753 -1.7057 -0.9265
  125MOL0     H17192   1.298  11.836   0.258  0.2870  1.1743  3.1821
  125MOL0     H17193   1.414  11.623   0.169 -0.4847 -0.8303 -2.2124
  125MOL0     H17194   1.395  11.756   0.045  0.8478  0.0761  0.4254
  125MOL0     H17195   1.654  11.692   0.189  0.0152  1.6733 -0.1587
  125MOL0     H17196   1.626  11.814   0.062 -3.0641  0.7827  0.0379
  125MOL0     H17197   1.559  11.529   0.006 -5.3644  2.3606  0.4537
  125MOL0     H17198   1.577  11.663  -0.108  2.3387  2.6546 -0.4329
  125MOL0     H17199   1.819  11.512   0.130 -1.7386 -0.3536 -0.5546
  125MOL0     H17200   2.091  11.375  -0.086  0.3048  1.1940 -1.3235
  125MOL0     H17201   2.070  11.421   0.079  0.2329 -0.3276 -0.7951
  125MOL0     H17202   2.249  11.548  -0.139  2.1636 -2.1701 -0.6506
  125MOL0     H17203   2.227  11.621   0.023  3.9649  0.1294 -0.8914
  125MOL0     H17204   2.331  11.427   0.118 -1.0659 -1.2608  0.0124
  125MOL0     H17205   2.304  11.347  -0.033 -0.2808  0.1655 -0.5450
  125MOL0     H17206   2.538  11.423   0.010  0.7947  0.8654  1.7063
  125MOL0     H17207   2.477  11.485  -0.134  1.6474 -0.4509 -0.0995
  125MOL0     H17208   2.731  11.518  -0.009  3.2540 -2.0226  1.9431
  125MOL0     H17209   2.946  11.491  -0.003 -2.1813  1.4702  1.1818
  125MOL0     H17210   2.983  11.445   0.159  0.9283 -1.9342 -1.4002
  125MOL0     H17211   3.061  11.590   0.075  0.1107  0.1807 -2.4845
  125MOL0     H17212   2.964  12.002   0.572  0.7332  0.4897  0.5499
  125MOL0     H17213   3.139  12.047   0.730  0.0117 -1.5815  0.7654
  125MOL0     H17214   3.586  11.998   0.717 -0.2181 -0.7485 -1.0573
  125MOL0     H17215   3.541  11.955   0.556  1.8455  0.5367 -0.6987
  125MOL0     H17216   3.576  12.221   0.520  0.9336  0.2194 -0.4845
  125MOL0     H17217   3.588  12.232   0.698  2.9911  1.1812 -0.0679
  125MOL0     H17218   3.813  12.217   0.521  0.9868  0.0028 -0.3236
  125MOL0     H17219   3.776  12.054   0.559 -2.0237 -2.3013  1.9623
  125MOL0     H17220   3.795  12.111   0.808 -1.7674  0.9174  0.5027
  125MOL0     H17221   3.817  12.285   0.757  1.2686  0.1776 -3.0239
  125MOL0     H17222   4.002  12.055   0.703  1.6573  0.6675 -0.1838
  125MOL0     H17223   4.019  12.206   0.624 -0.3201 -2.2027 -1.7745
  125MOL0     H17224   4.067  12.147   0.928  2.2097 -0.4064 -0.1855
  125MOL0     H17225   4.058  12.306   0.867  2.1067  0.0742  0.4618
  125MOL0     H17226   4.288  12.264   0.855  0.3176  0.8943 -0.3672
  125MOL0     H17227   4.221  12.237   0.689 -0.6369  0.3163  0.0014
  125MOL0     H17228   4.253  11.987   0.743  0.2051  1.1397 -0.8046
  125MOL0     H17229   4.285  12.039   0.909  2.0350  2.1403  1.0323
  125MOL0     H17230   3.413  12.003   0.392 -0.2187 -2.4788  1.5532
  125MOL0     H17231   3.233  11.930   0.259 -1.4067  1.9617 -0.4861
  125MOL0     H17232   2.718  11.897   0.300 -0.3151 -0.9382  1.2804
  125MOL0     H17233   2.516  11.825   0.189  0.8062  2.7599 -1.2815
  125MOL0     H17234   1.755  11.576   0.349 -0.4291  0.0431 -0.5833
  125MOL0     H17235   1.974  11.489   0.342  0.4933 -1.2258 -1.1197
  125MOL0     H17236   2.185  11.047   0.529  0.0192 -1.7686 -1.5062
  125MOL0     H17237   2.359  10.938   0.639  1.1725 -1.1183 -0.6266
  125MOL0     H17238   2.475  11.017   0.849 -0.0080 -2.5215  2.2567
  125MOL0     H17239   2.630  10.958   0.891 -3.4941  1.7945  3.6772
  125MOL0     H17240   2.604  11.179   0.973  0.0098  3.0022 -0.2826
  125MOL0     H17241   2.564  11.239   0.817 -1.6984 -1.7793 -1.6633
  125MOL0     H17242   2.805  11.175   0.730  0.3759 -1.3034  0.4786
  125MOL0     H17243   2.809  11.300   0.861  0.7112  0.1973 -0.0855
  125MOL0     H17244   2.866  10.993   0.876  2.5505  0.1229 -0.8765
  125MOL0     H17245   2.877  11.106   1.020 -0.0284 -2.2050 -0.5456
  125MOL0     H17246   3.202  11.258   0.832  0.4819 -0.9387  2.0641
  125MOL0     H17247   2.640  11.240   0.552 -0.4912 -1.1420  3.5215
  125MOL0     H17248   2.441  11.412   0.313  0.6400  1.9994 -0.3501
  125MOL0     H17249   2.427  11.494   0.475  0.9265 -0.5463  0.5856
  125MOL0     H17250   2.578  11.416   0.426 -0.2559 -2.4231  2.2268
  126MOL0     O17251   3.724   5.658   5.302  0.5929  0.4874 -0.4363
  126MOL0     C17252   3.697   5.769   5.257 -0.0698 -0.7580  0.2935
  126MOL0     O17253   3.584   5.809   5.181  0.3098  0.4862  0.1923
  126MOL0     C17254   3.488   5.711   5.160 -0.2647  0.3690  0.1078
  126MOL0     C17255   3.398   5.681   5.261  0.3025 -0.8573 -0.5075
  126MOL0     C17256   3.299   5.584   5.237 -0.0622 -0.9138 -1.1233
  126MOL0     C17257   3.284   5.527   5.106  0.7804 -0.1701 -1.0476
  126MOL0     O17258   3.196   5.429   5.077  0.2944  0.4072 -0.4938
  126MOL0     C17259   3.148   5.348   5.194  0.1013 -0.6986  0.2564
  126MOL0     C17260   3.024   5.266   5.150  0.1817  0.3655  0.4876
  126MOL0     C17261   3.064   5.129   5.099  0.1785 -0.3588 -0.6854
  126MOL0     C17262   2.964   5.050   5.020 -0.0678  0.5417  1.0308
  126MOL0     C17263   3.000   4.897   4.990 -0.0088  0.2395  0.9057
  126MOL0     C17264   3.011   4.821   5.122 -1.2369  0.1137 -0.4099
  126MOL0     C17265   3.049   4.675   5.114 -0.6649 -0.5124 -1.1333
  126MOL0     C17266   3.087   4.609   5.249  0.5459 -0.8823 -0.3429
  126MOL0     N17267   3.162   4.491   5.233 -0.7029 -0.3052  0.3952
  126MOL0     C17268   3.124   4.363   5.194  0.0986 -0.9647 -0.5790
  126MOL0     C17269   3.243   4.297   5.188 -0.7416  0.7457  0.0234
  126MOL0     C17270   3.261   4.155   5.142 -0.8790  0.1417 -0.4075
  126MOL0     C17271   3.288   4.052   5.247 -0.0753  0.5934 -0.0839
  126MOL0     C17272   3.399   4.093   5.343  0.0816 -0.6263  0.1898
  126MOL0     C17273   3.408   3.980   5.444 -0.3669 -0.2335 -0.9306
  126MOL0     O17274   3.555   3.971   5.477  0.0399  0.3198  0.1595
  126MOL0     C17275   3.610   3.853   5.540 -0.0125  0.4083 -0.3728
  126MOL0     C17276   3.740   3.854   5.589  0.2724 -0.1662  1.0137
  126MOL0     C17277   3.811   3.746   5.644  0.5219 -0.4033  0.2557
  126MOL0     C17278   3.955   3.772   5.686 -0.0760  0.3325 -0.6441
  126MOL0     C17279   3.741   3.619   5.663 -0.2705 -0.6723  0.1191
  126MOL0     C17280   3.805   3.501   5.717  0.7346  0.7607  0.3402
  126MOL0     O17281   3.726   3.390   5.734 -1.0188  0.6562  0.5546
  126MOL0     C17282   3.780   3.266   5.770  0.5363  0.2332 -0.9125
  126MOL0     C17283   3.871   3.202   5.686  0.8257  0.0855 -0.1259
  126MOL0     C17284   3.906   3.071   5.711  0.0216 -0.4539  0.4145
  126MOL0     C17285   3.847   2.996   5.814  0.3575 -1.1775  1.1081
  126MOL0     O17286   3.871   2.864   5.839  0.2226  0.5319 -0.7282
  126MOL0     C17287   3.949   2.798   5.737  1.1378  0.6149  0.2968
  126MOL0     C17288   3.990   2.648   5.770  0.4613  0.0780  0.8083
  126MOL0     C17289   4.102   2.627   5.871 -0.1595  0.1394  0.6349
  126MOL0     C17290   4.251   2.682   5.841  0.1218 -0.1188 -1.1232
  126MOL0     C17291   4.305   2.662   5.699  1.0596 -0.4187 -0.1898
  126MOL0     C17292   4.305   2.517   5.650  0.1411 -0.4740  0.1184
  126MOL0     C17293   4.423   2.444   5.692  0.4476  0.1023 -0.4328
  126MOL0     C17294   4.440   2.296   5.634 -0.4783 -0.7589 -0.6682
  126MOL0    Cl17295   4.614   2.283   5.576  0.3492 -0.4114  0.1271
  126MOL0     C17296   3.746   3.055   5.898 -0.0404 -0.3139 -0.5718
  126MOL0     C17297   3.713   3.189   5.868  0.3364  0.3463  0.0058
  126MOL0     O17298   3.915   3.506   5.762  0.0390 -0.2811  0.2965
  126MOL0     C17299   3.606   3.622   5.616  0.2075  0.3236  0.3893
  126MOL0     C17300   3.542   3.731   5.556  0.2652 -0.5008 -0.2007
  126MOL0     N17301   3.343   4.382   5.214  0.5069  0.1097 -0.8960
  126MOL0     N17302   3.299   4.501   5.234 -0.1524 -0.3213 -0.5207
  126MOL0     C17303   3.372   5.560   5.009  0.4620 -0.7398  0.0008
  126MOL0     C17304   3.462   5.657   5.034  0.3170 -0.3647 -0.7482
  126MOL0     C17305   3.782   5.888   5.314  0.2576 -0.4622 -0.2382
  126MOL0     C17306   3.751   6.012   5.252 -0.4178 -0.3139 -0.0034
  126MOL0     C17307   3.801   6.130   5.295 -0.6345  0.2653  0.5528
  126MOL0     C17308   3.893   6.135   5.388  0.6606  0.0784  0.8727
  126MOL0     O17309   3.952   6.257   5.411 -0.0886 -0.6388  0.7967
  126MOL0     C17310   4.035   6.287   5.526 -1.1961  0.0037  0.7732
  126MOL0     C17311   4.106   6.422   5.507  0.5350 -0.2965 -0.1982
  126MOL0     C17312   4.184   6.441   5.374  0.4123 -0.3400 -0.0058
  126MOL0     C17313   4.276   6.327   5.316  0.1925  0.2377  0.0867
  126MOL0     C17314   4.387   6.306   5.415  0.5791 -0.6534 -0.6888
  126MOL0     C17315   4.475   6.294   5.496  0.3386  0.0313 -0.2443
  126MOL0     C17316   3.921   6.015   5.457  0.2744 -0.4793  0.4333
  126MOL0     C17317   3.863   5.893   5.423  0.6668 -1.0086 -0.2743
  126MOL0     C17318   3.899   5.777   5.511  0.3712 -1.4620 -0.9300
  126MOL0     H17319   3.420   5.713   5.362 -2.2789  0.8232 -0.3847
  126MOL0     H17320   3.232   5.560   5.319 -1.9714 -0.0762 -2.3707
  126MOL0     H17321   3.115   5.418   5.271  3.2466  1.3508 -0.0654
  126MOL0     H17322   3.222   5.284   5.243 -1.2535 -0.8278  2.2453
  126MOL0     H17323   2.965   5.252   5.240 -0.9925  4.5078  0.6053
  126MOL0     H17324   2.973   5.328   5.075  1.1040  1.0104  0.3706
  126MOL0     H17325   3.156   5.123   5.040  0.7236 -3.0774  0.2997
  126MOL0     H17326   3.090   5.070   5.187  0.2220  2.4548  1.3143
  126MOL0     H17327   2.865   5.056   5.067 -0.9654  2.5822 -0.9457
  126MOL0     H17328   2.953   5.096   4.922  2.5787 -1.9060 -0.5614
  126MOL0     H17329   3.099   4.896   4.942  1.8280 -3.4091  4.1083
  126MOL0     H17330   2.927   4.850   4.923 -1.6902  2.4835  1.0744
  126MOL0     H17331   3.082   4.858   5.196  0.0138 -4.1317  0.7616
  126MOL0     H17332   2.910   4.813   5.164  0.3880 -3.1681  3.5542
  126MOL0     H17333   3.126   4.658   5.038  1.7914 -2.3880  1.5815
  126MOL0     H17334   2.961   4.618   5.082  0.0170 -3.4010  1.6866
  126MOL0     H17335   3.126   4.676   5.326 -0.6658 -0.5038 -0.0360
  126MOL0     H17336   2.991   4.594   5.299 -1.5748  1.0935 -3.5038
  126MOL0     H17337   3.025   4.323   5.173 -0.8429 -2.5007  5.1036
  126MOL0     H17338   3.346   4.142   5.075 -2.2020 -4.9110 -1.5431
  126MOL0     H17339   3.171   4.113   5.097 -2.3294 -0.6585  2.9405
  126MOL0     H17340   3.194   4.029   5.298  1.3753 -2.3965  1.4885
  126MOL0     H17341   3.305   3.958   5.193  1.9378  0.1534  1.2012
  126MOL0     H17342   3.489   4.093   5.282  1.3197  2.4169  1.7753
  126MOL0     H17343   3.379   4.185   5.400 -1.4659 -0.1914 -0.9867
  126MOL0     H17344   3.351   4.020   5.528  2.9757 -1.2660  2.0717
  126MOL0     H17345   3.371   3.884   5.407 -0.2320 -1.5591  2.0954
  126MOL0     H17346   3.784   3.953   5.595  1.9308 -0.8207  0.3013
  126MOL0     H17347   3.958   3.774   5.795 -0.8814  0.0949 -0.6132
  126MOL0     H17348   3.983   3.872   5.649 -0.2989  0.4808 -0.4147
  126MOL0     H17349   4.033   3.709   5.643  0.0502 -2.6293  3.3569
  126MOL0     H17350   3.913   3.261   5.606  3.1245 -0.3470  0.6817
  126MOL0     H17351   3.971   3.037   5.631 -1.4123  0.4700 -1.2221
  126MOL0     H17352   3.889   2.809   5.647  1.2089  0.7589  0.2654
  126MOL0     H17353   4.041   2.855   5.716  1.5958 -0.5942 -1.1147
  126MOL0     H17354   3.901   2.602   5.813  0.4700  0.1476  0.9000
  126MOL0     H17355   4.011   2.591   5.679  1.8187  2.2579 -0.3460
  126MOL0     H17356   4.114   2.524   5.906  1.4232 -0.2848 -0.9738
  126MOL0     H17357   4.067   2.682   5.958 -0.9677  0.8468 -0.1163
  126MOL0     H17358   4.321   2.637   5.912  0.4528  0.8122 -0.8363
  126MOL0     H17359   4.252   2.787   5.873 -1.3096 -0.7376  1.2393
  126MOL0     H17360   4.232   2.724   5.646  1.9455 -0.0261 -0.9798
  126MOL0     H17361   4.404   2.706   5.683  1.8890 -3.4622 -8.7043
  126MOL0     H17362   4.314   2.524   5.541  1.0206 -0.3837  0.1895
  126MOL0     H17363   4.216   2.461   5.679 -0.5356 -0.5338 -1.9380
  126MOL0     H17364   4.402   2.450   5.799  0.3735  4.3893 -0.5026
  126MOL0     H17365   4.515   2.503   5.683  0.8109 -0.3058  0.4198
  126MOL0     H17366   4.381   2.281   5.543  0.8676 -0.9298 -1.5533
  126MOL0     H17367   4.427   2.227   5.718  3.2512  0.3256  1.0447
  126MOL0     H17368   3.691   3.012   5.980 -0.2851 -0.0646 -0.6022
  126MOL0     H17369   3.657   3.252   5.936  1.8338  0.7979  0.8732
  126MOL0     H17370   3.546   3.532   5.622  3.1725 -1.7440  0.9188
  126MOL0     H17371   3.437   3.724   5.532  0.2275  1.0866 -0.5595
  126MOL0     H17372   3.355   5.534   4.905 -1.4253  3.6977 -1.0369
  126MOL0     H17373   3.514   5.702   4.950  1.1628 -0.9943 -0.5755
  126MOL0     H17374   3.692   6.027   5.162  0.2886  3.0794 -0.0133
  126MOL0     H17375   3.760   6.218   5.247 -3.0800  0.0387  2.0794
  126MOL0     H17376   3.968   6.298   5.612  1.7994  2.0666  3.0236
  126MOL0     H17377   4.107   6.205   5.537  2.3395  3.0561  2.3693
  126MOL0     H17378   4.171   6.440   5.593 -0.6981 -1.0275  0.9227
  126MOL0     H17379   4.030   6.499   5.522  3.2441  1.9763  3.4580
  126MOL0     H17380   4.105   6.455   5.299  2.3497 -0.7256 -2.2437
  126MOL0     H17381   4.244   6.532   5.379  0.4541 -0.2236 -1.9040
  126MOL0     H17382   4.318   6.362   5.221 -1.7836  2.7189  0.0322
  126MOL0     H17383   4.217   6.236   5.306 -0.5472  0.1774  3.6673
  126MOL0     H17384   4.549   6.282   5.573 -0.6753  1.0489  0.9355
  126MOL0     H17385   3.988   6.033   5.541  0.5260  1.7432 -0.1713
  126MOL0     H17386   3.937   5.821   5.605 -1.3602  0.6630 -1.1461
  126MOL0     H17387   3.816   5.715   5.544 -0.5316  0.5119  0.7617
  126MOL0     H17388   3.965   5.702   5.467  0.4819 -1.4449 -0.7983
  127MOL0     O17389   8.025   4.804   7.401 -0.0874  0.1630  0.6776
  127MOL0     C17390   7.987   4.689   7.431  0.6803  0.3429 -0.0889
  127MOL0     O17391   8.035   4.574   7.380 -0.6381  0.0146  0.9961
  127MOL0     C17392   8.092   4.585   7.257  0.8352  0.2908  0.2343
  127MOL0     C17393   8.012   4.604   7.141 -1.0429 -0.0038  0.4345
  127MOL0     C17394   8.076   4.587   7.019  0.4435 -0.6676 -0.2208
  127MOL0     C17395   8.214   4.565   7.006 -0.2888  0.8789  0.0174
  127MOL0     O17396   8.278   4.544   6.887  0.1591 -0.1268 -0.5207
  127MOL0     C17397   8.326   4.677   6.844  0.1194 -1.2480 -0.2237
  127MOL0     C17398   8.468   4.720   6.902  0.4082  0.0909  0.1919
  127MOL0     C17399   8.536   4.821   6.808 -0.8816  0.2251 -0.3637
  127MOL0     C17400   8.483   4.960   6.830  0.0579 -0.6232 -0.1064
  127MOL0     C17401   8.557   5.076   6.771 -0.0951  0.0161 -0.2159
  127MOL0     C17402   8.664   5.139   6.867 -0.2930 -0.5002 -0.2417
  127MOL0     C17403   8.786   5.193   6.792  0.2462 -0.8764  0.0387
  127MOL0     C17404   8.764   5.328   6.723 -0.3137 -0.0393 -0.2537
  127MOL0     N17405   8.681   5.303   6.604 -1.3640 -0.4700  0.6430
  127MOL0     C17406   8.719   5.235   6.489  0.9592  0.1343 -0.3220
  127MOL0     C17407   8.607   5.255   6.406  0.0553  1.1195  0.1284
  127MOL0     C17408   8.602   5.188   6.271  0.0883  0.7807 -0.3061
  127MOL0     C17409   8.592   5.294   6.167  0.8187 -1.6007  0.1606
  127MOL0     C17410   8.573   5.228   6.030  0.4828 -1.1790  0.3090
  127MOL0     C17411   8.538   5.339   5.920  0.1001 -1.1969  0.0776
  127MOL0     O17412   8.549   5.297   5.779  0.1357 -0.9118  0.0279
  127MOL0     C17413   8.559   5.387   5.677 -1.1064  0.2296 -0.1220
  127MOL0     C17414   8.604   5.329   5.564 -0.4159 -0.0807 -0.2877
  127MOL0     C17415   8.614   5.397   5.439 -0.0152  0.7168 -0.6597
  127MOL0     C17416   8.649   5.323   5.317 -0.3469 -0.0336 -0.2208
  127MOL0     C17417   8.590   5.541   5.443 -0.5845  0.0818  0.1120
  127MOL0     C17418   8.605   5.634   5.318 -0.0876 -0.1461 -0.5026
  127MOL0     O17419   8.601   5.761   5.343 -0.3647 -0.5642 -0.5537
  127MOL0     C17420   8.602   5.859   5.250 -0.6088  0.1251  0.9482
  127MOL0     C17421   8.558   5.982   5.297  0.2610  0.0872  0.5951
  127MOL0     C17422   8.572   6.104   5.223 -0.2334  0.1175 -0.2794
  127MOL0     C17423   8.608   6.102   5.086 -0.6999  1.1128 -0.2941
  127MOL0     O17424   8.601   6.209   5.010  0.2331 -0.2242  0.5735
  127MOL0     C17425   8.473   6.254   4.959 -0.2383  0.5423 -0.4388
  127MOL0     C17426   8.484   6.390   4.888 -0.1587  0.6221  0.7324
  127MOL0     C17427   8.496   6.511   4.986  0.0707 -0.4301 -0.7914
  127MOL0     C17428   8.370   6.522   5.072  0.4029 -1.1027 -0.3480
  127MOL0     C17429   8.360   6.665   5.117  0.5700 -0.0147 -0.5409
  127MOL0     C17430   8.475   6.707   5.209 -0.4605 -0.3250 -0.1130
  127MOL0     C17431   8.455   6.860   5.243 -0.2517 -0.8818  0.5177
  127MOL0     C17432   8.513   6.910   5.379 -0.3538  0.6881 -0.6959
  127MOL0    Cl17433   8.499   7.070   5.392 -0.3442  0.3009  0.0546
  127MOL0     C17434   8.637   5.975   5.025  0.1120 -0.7537  0.0830
  127MOL0     C17435   8.638   5.852   5.111  0.7057 -0.4737  0.5267
  127MOL0     O17436   8.606   5.578   5.212  0.2855 -0.3403  0.7606
  127MOL0     C17437   8.551   5.598   5.565  0.0481  0.0722 -0.5866
  127MOL0     C17438   8.536   5.525   5.684 -0.0700  0.2233 -0.0462
  127MOL0     N17439   8.516   5.328   6.472  0.0406 -0.5428  0.0970
  127MOL0     N17440   8.565   5.364   6.588 -0.3699 -0.5899 -1.4647
  127MOL0     C17441   8.288   4.568   7.120 -0.6780 -0.0001 -0.9372
  127MOL0     C17442   8.229   4.573   7.249  0.1027  0.1603  0.6291
  127MOL0     C17443   7.905   4.683   7.549  0.4846  0.6151 -0.4576
  127MOL0     C17444   7.955   4.616   7.665  1.6798 -0.2703 -0.2172
  127MOL0     C17445   7.869   4.622   7.781 -0.1124  0.2092  0.4034
  127MOL0     C17446   7.737   4.686   7.780  0.2321 -0.2865  0.2559
  127MOL0     O17447   7.669   4.719   7.900 -0.5763 -1.3011  0.2420
  127MOL0     C17448   7.743   4.814   7.980 -0.3515 -0.4781 -0.5038
  127MOL0     C17449   7.772   4.755   8.118  0.0657 -0.1246  0.0305
  127MOL0     C17450   7.735   4.850   8.239 -0.0719  0.0245  0.5639
  127MOL0     C17451   7.591   4.827   8.294  0.6158 -0.0878 -0.2602
  127MOL0     C17452   7.497   4.832   8.185  0.6458  0.2952  0.5650
  127MOL0     C17453   7.416   4.849   8.093  0.9624  0.4764 -1.2747
  127MOL0     C17454   7.693   4.741   7.657  0.0894 -0.3204  0.3049
  127MOL0     C17455   7.772   4.727   7.544  0.0606 -0.8492 -0.4416
  127MOL0     C17456   7.721   4.789   7.414 -0.4194  0.6521 -0.0486
  127MOL0     H17457   7.904   4.609   7.143 -1.0591  0.6486 -0.7441
  127MOL0     H17458   8.011   4.589   6.932 -1.0174  1.3156  0.8150
  127MOL0     H17459   8.255   4.761   6.848 -1.1045 -2.0621 -2.7100
  127MOL0     H17460   8.336   4.674   6.735  5.4993  1.9709 -0.2047
  127MOL0     H17461   8.463   4.765   7.001 -0.6642  3.0633 -1.1189
  127MOL0     H17462   8.532   4.631   6.907  0.7207  0.0991 -2.1883
  127MOL0     H17463   8.644   4.824   6.829 -0.8569 -2.8414  0.4568
  127MOL0     H17464   8.520   4.792   6.704 -0.7617 -1.4371  0.0551
  127MOL0     H17465   8.377   4.953   6.803 -0.5567 -0.5864  2.0646
  127MOL0     H17466   8.470   4.980   6.937  0.0983 -1.3682  0.0419
  127MOL0     H17467   8.506   5.164   6.732  1.1430  1.3149  0.9787
  127MOL0     H17468   8.586   5.033   6.674 -0.1868  0.4980 -0.4594
  127MOL0     H17469   8.615   5.213   6.930 -2.2022 -0.4003 -1.7609
  127MOL0     H17470   8.692   5.069   6.946 -1.9316  0.0083  0.8392
  127MOL0     H17471   8.823   5.124   6.716  0.4447 -0.3322 -0.3683
  127MOL0     H17472   8.861   5.194   6.872 -1.1578 -1.7949  1.4112
  127MOL0     H17473   8.714   5.398   6.792 -0.3769 -1.5423  1.2825
  127MOL0     H17474   8.862   5.368   6.696 -0.4666 -0.6396 -1.7592
  127MOL0     H17475   8.815   5.184   6.481  0.3802 -0.7928 -1.8691
  127MOL0     H17476   8.516   5.122   6.254  0.8686  0.2926 -2.8938
  127MOL0     H17477   8.697   5.140   6.243 -0.1435  1.6141 -2.8461
  127MOL0     H17478   8.510   5.362   6.193 -0.3252 -2.6597 -0.5889
  127MOL0     H17479   8.683   5.355   6.160 -0.8713  0.9598 -1.0058
  127MOL0     H17480   8.664   5.176   5.998 -0.0249 -0.0427 -3.3531
  127MOL0     H17481   8.495   5.151   6.032  1.7732 -2.5259  0.8297
  127MOL0     H17482   8.439   5.375   5.948  1.1475  1.3679  0.7154
  127MOL0     H17483   8.601   5.426   5.940 -0.3397 -1.0732  1.0140
  127MOL0     H17484   8.626   5.223   5.573  0.3297  0.1573  0.7928
  127MOL0     H17485   8.554   5.320   5.264  0.8887 -1.2115 -2.5225
  127MOL0     H17486   8.684   5.226   5.353 -2.2269  0.4698  3.4031
  127MOL0     H17487   8.733   5.368   5.262  1.5183 -0.6939  1.9168
  127MOL0     H17488   8.538   5.988   5.404  1.9298 -2.0896  1.0864
  127MOL0     H17489   8.548   6.198   5.272 -1.0452  0.1569 -0.7338
  127MOL0     H17490   8.436   6.186   4.882  0.4479  0.9259 -1.1246
  127MOL0     H17491   8.395   6.257   5.035 -1.1026  2.0096 -1.3277
  127MOL0     H17492   8.557   6.385   4.806 -2.3825 -1.5185 -1.2909
  127MOL0     H17493   8.395   6.419   4.831  0.8361 -1.7624 -2.3365
  127MOL0     H17494   8.505   6.604   4.929 -3.2271 -0.5262 -1.7092
  127MOL0     H17495   8.577   6.499   5.058  0.0111 -0.6422 -0.7585
  127MOL0     H17496   8.363   6.453   5.157 -0.6692 -0.5471  0.0415
  127MOL0     H17497   8.289   6.494   5.003  1.7329 -4.9839 -0.5910
  127MOL0     H17498   8.353   6.738   5.035  3.7213 -0.8422 -1.7135
  127MOL0     H17499   8.275   6.669   5.185  1.4724 -3.4129  1.0169
  127MOL0     H17500   8.564   6.692   5.147 -1.8679 -0.8098 -2.1398
  127MOL0     H17501   8.470   6.632   5.288  1.1661  0.4387  0.7489
  127MOL0     H17502   8.347   6.872   5.240 -0.1784 -0.2304  0.1743
  127MOL0     H17503   8.518   6.916   5.172  0.5110 -1.0475  1.0505
  127MOL0     H17504   8.622   6.909   5.382 -0.2926  3.0957  1.8558
  127MOL0     H17505   8.469   6.844   5.455  0.3725 -0.0564 -0.9092
  127MOL0     H17506   8.656   5.977   4.919 -2.4109 -0.3940 -0.4209
  127MOL0     H17507   8.664   5.762   5.056 -1.1467 -0.4541 -0.4796
  127MOL0     H17508   8.548   5.706   5.563  2.0446  0.1539 -2.0007
  127MOL0     H17509   8.498   5.579   5.770  0.6899  2.2051 -0.9106
  127MOL0     H17510   8.396   4.566   7.117 -0.4141  4.5205 -2.2050
  127MOL0     H17511   8.298   4.591   7.331  0.2001  1.4001  0.2934
  127MOL0     H17512   8.048   4.561   7.668  1.4279 -0.6889  2.4958
  127MOL0     H17513   7.901   4.577   7.874 -0.0928  0.2879  0.4349
  127MOL0     H17514   7.832   4.841   7.923 -0.6773  3.0133  0.4427
  127MOL0     H17515   7.683   4.904   7.994 -1.4142 -1.5419  2.4757
  127MOL0     H17516   7.876   4.721   8.125  0.7518  1.9719  0.5803
  127MOL0     H17517   7.709   4.666   8.128 -2.0324  1.4507  1.5207
  127MOL0     H17518   7.807   4.816   8.313  3.1752 -1.7918 -3.0741
  127MOL0     H17519   7.765   4.951   8.210 -4.1870  1.3993  0.3794
  127MOL0     H17520   7.563   4.897   8.374 -1.6495 -1.1423 -0.0443
  127MOL0     H17521   7.575   4.731   8.343  2.6843 -0.9931 -1.2249
  127MOL0     H17522   7.332   4.854   8.027 -2.4954 -3.1681  2.3027
  127MOL0     H17523   7.602   4.798   7.641  0.9805  0.7639 -1.0975
  127MOL0     H17524   7.781   4.870   7.370 -0.8522  2.1688  2.0260
  127MOL0     H17525   7.721   4.701   7.349 -1.4314  0.3919  0.2894
  127MOL0     H17526   7.616   4.816   7.422 -0.0919  1.4700  1.9944
  128MOL0     O17527   1.096  10.890   1.636  0.2938  0.1613 -0.5077
  128MOL0     C17528   1.067  10.898   1.755 -0.3003 -0.4864  1.3088
  128MOL0     O17529   1.051  10.783   1.830 -0.2676 -0.1587  0.4455
  128MOL0     C17530   1.111  10.663   1.780  0.4165 -0.5813 -1.0630
  128MOL0     C17531   1.231  10.652   1.707  0.0414  0.4644  0.4713
  128MOL0     C17532   1.279  10.529   1.663  1.1163  0.6638 -0.2491
  128MOL0     C17533   1.204  10.417   1.688 -0.3457  0.1177  0.0256
  128MOL0     O17534   1.246  10.291   1.643 -0.1675  0.5035 -0.3215
  128MOL0     C17535   1.144  10.195   1.620 -0.6761  0.3150 -0.0717
  128MOL0     C17536   1.193  10.087   1.535  0.3767  0.0944  0.4805
  128MOL0     C17537   1.063  10.004   1.480  0.1324 -0.1112  0.2950
  128MOL0     C17538   1.120   9.873   1.438  0.5597 -0.1282  0.1605
  128MOL0     C17539   1.012   9.781   1.383  0.3086 -0.5670 -0.0345
  128MOL0     C17540   0.987   9.831   1.241  1.2151  0.7884 -0.0877
  128MOL0     C17541   0.864   9.750   1.192  0.1020  0.7670 -0.2663
  128MOL0     C17542   0.791   9.813   1.065  0.1466  0.1491  0.1027
  128MOL0     N17543   0.689   9.712   1.007 -0.6476 -0.6745 -0.3904
  128MOL0     C17544   0.715   9.617   0.906 -0.1190  0.0450  0.7900
  128MOL0     C17545   0.600   9.546   0.907  0.0703 -0.6030  0.4163
  128MOL0     C17546   0.577   9.461   0.789 -0.4313  0.0205  0.8525
  128MOL0     C17547   0.526   9.538   0.667 -1.1726 -0.7310  0.3296
  128MOL0     C17548   0.431   9.472   0.571  0.4150 -0.7089 -0.4245
  128MOL0     C17549   0.419   9.556   0.439  0.3551  0.2071  0.0918
  128MOL0     O17550   0.542   9.609   0.380  0.3866  0.1412  0.1188
  128MOL0     C17551   0.633   9.529   0.322  1.3030  0.1213 -0.2945
  128MOL0     C17552   0.602   9.410   0.258 -0.1107  1.0844  0.2351
  128MOL0     C17553   0.695   9.330   0.198 -0.3029  0.2740  0.2767
  128MOL0     C17554   0.651   9.204   0.121  0.9588  0.1649 -0.1832
  128MOL0     C17555   0.829   9.371   0.194  0.5451 -0.6051  0.3587
  128MOL0     C17556   0.944   9.301   0.133 -0.9198  0.6561  0.4114
  128MOL0     O17557   1.084   9.346   0.164  0.4019 -0.0810  0.0173
  128MOL0     C17558   1.198   9.289   0.105  0.0452 -0.3154  0.8024
  128MOL0     C17559   1.210   9.152   0.054  0.6023 -0.1520  0.2846
  128MOL0     C17560   1.322   9.100  -0.003 -0.5522 -0.0873 -1.0654
  128MOL0     C17561   1.438   9.179  -0.004  0.5368  0.1451  0.5479
  128MOL0     O17562   1.561   9.113  -0.048  0.4065 -0.3764 -0.7793
  128MOL0     C17563   1.635   9.196  -0.134 -0.4926  0.6988 -0.2733
  128MOL0     C17564   1.741   9.108  -0.214 -0.1402 -0.2474  0.1685
  128MOL0     C17565   1.857   9.075  -0.120  0.7894 -0.3270 -0.1165
  128MOL0     C17566   1.844   8.933  -0.058  0.2872  0.4272  1.0833
  128MOL0     C17567   1.972   8.902   0.037  0.4079  0.1213 -0.0187
  128MOL0     C17568   1.937   8.795   0.137  0.9786 -0.8601  0.0875
  128MOL0     C17569   2.036   8.779   0.251 -0.0488  0.5469  0.1718
  128MOL0     C17570   2.022   8.644   0.325 -0.5663 -0.7792 -0.1909
  128MOL0    Cl17571   1.883   8.658   0.427  0.2128 -0.6935 -0.0030
  128MOL0     C17572   1.437   9.306   0.046  0.0634 -0.9831  1.0451
  128MOL0     C17573   1.323   9.357   0.112  0.4331 -0.5396  0.1313
  128MOL0     O17574   0.921   9.207   0.052 -0.0950 -0.4626 -0.5114
  128MOL0     C17575   0.863   9.488   0.267 -0.0041 -0.4353 -0.5969
  128MOL0     C17576   0.762   9.569   0.326  0.3471 -0.2127  0.0069
  128MOL0     N17577   0.515   9.582   1.000  2.1325  0.5856 -0.3465
  128MOL0     N17578   0.565   9.685   1.055 -0.5947  0.2794 -0.7326
  128MOL0     C17579   1.080  10.425   1.764 -0.4364 -0.4467  0.3773
  128MOL0     C17580   1.038  10.545   1.810 -0.5692 -0.0376  0.5587
  128MOL0     C17581   1.061  11.038   1.814  0.6805 -0.2048  0.0784
  128MOL0     C17582   1.122  11.152   1.745  0.5930  0.6708 -0.3071
  128MOL0     C17583   1.116  11.277   1.801 -1.0461  0.2539  0.3886
  128MOL0     C17584   1.038  11.302   1.917  1.2803  1.1497  0.0567
  128MOL0     O17585   1.046  11.422   1.976  0.2094 -0.3971 -0.5182
  128MOL0     C17586   0.965  11.455   2.095  0.5449 -0.2510 -0.3293
  128MOL0     C17587   0.948  11.608   2.123  0.5354  0.9065  0.3391
  128MOL0     C17588   1.084  11.671   2.106 -0.8042 -0.5498  0.5141
  128MOL0     C17589   1.111  11.717   1.956 -1.3924 -0.2736  0.0852
  128MOL0     C17590   1.250  11.758   1.946  0.2702 -0.1981 -0.1550
  128MOL0     C17591   1.360  11.795   1.926  0.5249  0.1879 -0.9836
  128MOL0     C17592   0.983  11.198   1.988 -0.5861 -0.2641 -0.1449
  128MOL0     C17593   0.991  11.070   1.933  0.4492  0.0457 -0.3321
  128MOL0     C17594   0.914  10.964   2.010  0.4093 -0.1712 -0.2074
  128MOL0     H17595   1.290  10.743   1.704 -0.2324  0.7551  2.4656
  128MOL0     H17596   1.368  10.520   1.602  0.3642 -1.9617 -1.0617
  128MOL0     H17597   1.062  10.243   1.565 -1.9677 -2.9572 -1.2792
  128MOL0     H17598   1.112  10.137   1.707 -0.5421 -0.1589 -0.3317
  128MOL0     H17599   1.246  10.114   1.443  2.2179 -4.9121 -0.2419
  128MOL0     H17600   1.258  10.023   1.596 -0.1424 -0.3672  0.5542
  128MOL0     H17601   0.991   9.985   1.561 -0.0930 -2.8068 -0.4345
  128MOL0     H17602   1.031  10.066   1.396  3.1091 -1.6813 -2.1997
  128MOL0     H17603   1.209   9.876   1.374  1.9911  0.6052  2.0989
  128MOL0     H17604   1.161   9.830   1.530  1.6518  2.7126  1.1262
  128MOL0     H17605   0.924   9.780   1.448  0.7677 -1.2159  0.5992
  128MOL0     H17606   1.056   9.681   1.369  1.4492 -0.1520  0.4078
  128MOL0     H17607   0.977   9.940   1.240  0.4038  0.7183 -0.0138
  128MOL0     H17608   1.074   9.805   1.181 -0.2663 -0.8592 -1.6416
  128MOL0     H17609   0.789   9.720   1.266 -1.6052 -2.9965 -3.1775
  128MOL0     H17610   0.907   9.654   1.162  0.1165  0.1032  1.7302
  128MOL0     H17611   0.750   9.908   1.102  0.7965  0.7386 -0.6388
  128MOL0     H17612   0.861   9.831   0.983  1.0778 -0.4571  0.7420
  128MOL0     H17613   0.796   9.609   0.834  0.4814 -2.2743  1.6301
  128MOL0     H17614   0.494   9.394   0.813  0.7099 -0.2041  4.9724
  128MOL0     H17615   0.665   9.402   0.760  2.0010  3.6707  0.1948
  128MOL0     H17616   0.482   9.630   0.706 -3.5200 -2.5562  2.3141
  128MOL0     H17617   0.610   9.568   0.604 -2.8656  1.7541 -0.9411
  128MOL0     H17618   0.475   9.376   0.540  0.9908 -0.6798  0.2656
  128MOL0     H17619   0.334   9.456   0.620 -0.7785  0.7442 -2.1702
  128MOL0     H17620   0.367   9.495   0.365  3.7665  0.6319 -2.9814
  128MOL0     H17621   0.364   9.648   0.460 -0.2084 -0.4125  1.4418
  128MOL0     H17622   0.505   9.362   0.273  0.9289 -1.2574 -0.0787
  128MOL0     H17623   0.642   9.121   0.192 -1.8140 -0.6896 -1.3626
  128MOL0     H17624   0.705   9.166   0.034 -1.3306 -2.0058 -0.7630
  128MOL0     H17625   0.552   9.215   0.075 -2.3774 -4.0439  4.7611
  128MOL0     H17626   1.123   9.088   0.069 -0.3386 -0.0136 -3.4003
  128MOL0     H17627   1.321   8.992  -0.016 -0.5432 -0.2210 -0.0362
  128MOL0     H17628   1.570   9.238  -0.212  1.9131  0.1977 -2.7088
  128MOL0     H17629   1.687   9.270  -0.074 -1.9300  3.5727 -2.3402
  128MOL0     H17630   1.695   9.019  -0.259 -2.1887 -0.1009  1.8353
  128MOL0     H17631   1.784   9.165  -0.297 -1.0372  0.4856  0.1843
  128MOL0     H17632   1.853   9.147  -0.038 -2.8213  2.7250 -2.6628
  128MOL0     H17633   1.951   9.082  -0.176  2.5430  1.8922  2.8001
  128MOL0     H17634   1.835   8.854  -0.133  0.4706  1.7965 -0.4568
  128MOL0     H17635   1.751   8.930  -0.001 -0.3711  3.1234  0.3097
  128MOL0     H17636   2.063   8.886  -0.022  0.3096  1.1555 -0.4644
  128MOL0     H17637   1.992   8.993   0.094  0.1141  0.4334 -0.4143
  128MOL0     H17638   1.930   8.703   0.079  2.3103 -1.6692  1.1543
  128MOL0     H17639   1.833   8.810   0.168  0.4188 -0.7144 -1.7516
  128MOL0     H17640   2.031   8.865   0.318 -2.5702 -2.6270  4.6648
  128MOL0     H17641   2.132   8.773   0.199 -0.8981  0.4546 -1.4788
  128MOL0     H17642   2.102   8.633   0.398 -3.3534  0.2165  3.3178
  128MOL0     H17643   2.035   8.549   0.273 -2.1420 -0.3702 -1.4231
  128MOL0     H17644   1.528   9.364   0.043  0.1248 -1.1113  0.3811
  128MOL0     H17645   1.322   9.453   0.163 -0.7451 -1.3381  1.6918
  128MOL0     H17646   0.964   9.526   0.277 -0.5344  0.6293  1.0524
  128MOL0     H17647   0.802   9.647   0.389 -0.1280  0.4897 -0.5561
  128MOL0     H17648   1.025  10.335   1.791  1.0971 -1.5236  0.0807
  128MOL0     H17649   0.949  10.541   1.872 -1.4143 -0.4900 -0.6325
  128MOL0     H17650   1.166  11.117   1.652 -0.3235 -1.6351  0.0545
  128MOL0     H17651   1.179  11.358   1.764 -0.6595 -0.0042  0.4807
  128MOL0     H17652   0.865  11.412   2.083  0.9827 -0.7402 -2.7768
  128MOL0     H17653   1.008  11.416   2.188  0.7675 -2.4869 -1.2944
  128MOL0     H17654   0.904  11.641   2.218  0.5829  2.2184 -0.0697
  128MOL0     H17655   0.876  11.648   2.051  0.7091  3.3382  1.4292
  128MOL0     H17656   1.095  11.761   2.167  2.0418 -0.5207  0.1045
  128MOL0     H17657   1.162  11.603   2.141 -0.4550 -0.2250  0.3731
  128MOL0     H17658   1.049  11.798   1.918  1.3953  1.3420 -1.3559
  128MOL0     H17659   1.084  11.639   1.883 -2.0884  0.3078 -0.2893
  128MOL0     H17660   1.465  11.812   1.907  1.4283 -2.1730  1.2783
  128MOL0     H17661   0.936  11.211   2.085 -3.9903  0.2364 -1.7121
  128MOL0     H17662   0.858  11.001   2.096 -0.8873 -2.6341  0.0920
  128MOL0     H17663   0.840  10.921   1.943 -0.8961 -0.1542  1.1840
  128MOL0     H17664   0.987  10.888   2.042 -0.5726 -0.3162  1.8549
  129MOL0     O17665   3.904  11.368   9.029 -0.0495  0.3073  0.5714
  129MOL0     C17666   3.857  11.370   9.143 -0.2260 -0.7358 -0.7060
  129MOL0     O17667   3.763  11.464   9.183  0.3558 -0.5468  0.1993
  129MOL0     C17668   3.700  11.556   9.099  0.7757  0.2918  0.0006
  129MOL0     C17669   3.635  11.521   8.982  0.3503  0.4058 -0.0733
  129MOL0     C17670   3.568  11.621   8.901  0.7998 -0.8349  0.0037
  129MOL0     C17671   3.540  11.751   8.950 -0.3786 -0.1786 -0.7816
  129MOL0     O17672   3.465  11.834   8.867 -0.0741 -0.4563 -0.2287
  129MOL0     C17673   3.404  11.945   8.940 -0.2287  0.1163  1.1835
  129MOL0     C17674   3.318  12.035   8.854 -0.0139 -0.0922 -0.0701
  129MOL0     C17675   3.207  11.950   8.790  0.1587 -0.7244  0.1943
  129MOL0     C17676   3.133  12.046   8.684 -0.1756 -0.0373 -0.1483
  129MOL0     C17677   3.001  11.977   8.647  0.3238 -0.7049  1.2005
  129MOL0     C17678   2.939  12.041   8.518 -0.0631 -0.8534  0.1099
  129MOL0     C17679   3.029  12.023   8.391  0.7701 -0.3405 -0.2901
  129MOL0     C17680   3.055  11.877   8.356  0.3703  1.0625  0.1579
  129MOL0     N17681   2.933  11.793   8.352  0.5907 -0.4103 -0.5982
  129MOL0     C17682   2.817  11.820   8.276  0.0170 -1.0020 -0.2888
  129MOL0     C17683   2.753  11.705   8.287  0.2077 -0.9244 -1.5015
  129MOL0     C17684   2.618  11.682   8.230 -1.0046  0.8261 -0.3905
  129MOL0     C17685   2.619  11.586   8.093 -0.1790  0.3491 -1.4658
  129MOL0     C17686   2.479  11.590   8.030  0.0540 -0.3258 -0.5147
  129MOL0     C17687   2.482  11.515   7.895 -0.0006 -0.0245  0.0000
  129MOL0     O17688   2.492  11.367   7.906  0.1921 -0.4515  0.3235
  129MOL0     C17689   2.383  11.292   7.947 -0.4880 -0.4413 -1.1468
  129MOL0     C17690   2.252  11.327   7.936  0.0442  0.4913  0.9043
  129MOL0     C17691   2.144  11.247   7.985  0.9326 -0.3485 -0.7810
  129MOL0     C17692   2.003  11.298   7.947 -1.0115  0.4532  0.1429
  129MOL0     C17693   2.174  11.120   8.032  0.2199 -0.2350  0.8003
  129MOL0     C17694   2.064  11.022   8.053  0.0445  0.2867  0.6324
  129MOL0     O17695   2.086  10.887   8.044  0.2365 -0.6690 -0.4065
  129MOL0     C17696   1.991  10.788   8.051  0.4042  0.9077 -0.5599
  129MOL0     C17697   2.031  10.663   8.098  0.4132 -0.4888  0.5463
  129MOL0     C17698   1.949  10.557   8.115 -0.2980  0.6280  0.1659
  129MOL0     C17699   1.817  10.566   8.068 -0.1224  0.0116  0.8221
  129MOL0     O17700   1.729  10.466   8.055 -0.3039 -0.0820 -0.5921
  129MOL0     C17701   1.786  10.336   8.078  0.5243 -1.2104 -0.0249
  129MOL0     C17702   1.695  10.223   8.051  0.9518 -0.0832 -0.3278
  129MOL0     C17703   1.623  10.231   7.920  0.0274  0.5582 -0.4216
  129MOL0     C17704   1.564  10.100   7.879 -0.4289 -0.1074 -0.5335
  129MOL0     C17705   1.518  10.094   7.734  0.1652  0.0757  0.5136
  129MOL0     C17706   1.399  10.197   7.711  0.1131  0.6243  0.4568
  129MOL0     C17707   1.377  10.200   7.559 -0.5307  0.3304 -0.0753
  129MOL0     C17708   1.320  10.328   7.499  0.7994  0.4824 -0.5475
  129MOL0    Cl17709   1.445  10.455   7.495 -0.1581  0.1421 -0.3218
  129MOL0     C17710   1.766  10.692   8.004  0.5968 -0.1424  0.4026
  129MOL0     C17711   1.853  10.802   8.003  0.4503  0.1941  0.0220
  129MOL0     O17712   1.955  11.070   8.097 -0.1841 -0.7963  0.6557
  129MOL0     C17713   2.308  11.074   8.042 -0.4157  0.8691 -0.2970
  129MOL0     C17714   2.413  11.165   8.018  0.2751 -0.8197  0.5625
  129MOL0     N17715   2.820  11.615   8.365 -0.5549 -0.3666 -0.2955
  129MOL0     N17716   2.935  11.662   8.393 -0.2132 -0.6131  0.1361
  129MOL0     C17717   3.605  11.786   9.071  0.4779 -0.2650  0.4685
  129MOL0     C17718   3.680  11.687   9.144 -1.0755  0.8127 -0.9575
  129MOL0     C17719   3.885  11.259   9.233  0.9449 -0.5511 -0.6855
  129MOL0     C17720   3.855  11.129   9.193 -0.3052 -0.4922  0.3229
  129MOL0     C17721   3.877  11.018   9.275  0.4613  0.4192  0.6908
  129MOL0     C17722   3.951  11.040   9.395 -0.4803 -0.4569  0.2352
  129MOL0     O17723   3.998  10.956   9.482  0.4573  0.1717  0.2493
  129MOL0     C17724   3.978  10.815   9.468 -0.0307  0.4075 -0.3965
  129MOL0     C17725   4.084  10.744   9.381 -0.2812  0.1491 -0.0123
  129MOL0     C17726   4.228  10.784   9.399 -0.0393  0.0393  0.3870
  129MOL0     C17727   4.261  10.937   9.374 -0.4861  0.7947 -0.5898
  129MOL0     C17728   4.217  10.988   9.254  0.4895 -0.5030  1.0598
  129MOL0     C17729   4.185  11.041   9.151 -0.5096  0.0621 -0.8801
  129MOL0     C17730   3.993  11.166   9.427  0.3018  0.2974 -0.2347
  129MOL0     C17731   3.944  11.282   9.355 -0.7812  0.0244 -0.7014
  129MOL0     C17732   4.003  11.417   9.384  0.0180  0.4308 -0.6959
  129MOL0     H17733   3.621  11.417   8.957  0.2349  0.5324 -0.5570
  129MOL0     H17734   3.525  11.604   8.803  0.5522  0.9778 -0.2188
  129MOL0     H17735   3.490  12.005   8.971  1.0015  0.0903 -1.8267
  129MOL0     H17736   3.352  11.916   9.032 -1.9419  1.4172  0.6804
  129MOL0     H17737   3.270  12.117   8.910  1.8974  0.1763  1.2634
  129MOL0     H17738   3.384  12.086   8.784  3.0505 -1.2508  1.7707
  129MOL0     H17739   3.251  11.870   8.730 -1.4465 -2.5509  1.3278
  129MOL0     H17740   3.137  11.909   8.864  1.2928 -1.1422  1.0708
  129MOL0     H17741   3.122  12.142   8.735  3.4935  0.0386  0.7643
  129MOL0     H17742   3.197  12.068   8.599 -0.0734 -0.1972 -0.1151
  129MOL0     H17743   2.922  11.976   8.722  0.7074 -0.9343  1.6022
  129MOL0     H17744   3.028  11.875   8.617 -1.0396 -0.4389 -1.1772
  129MOL0     H17745   2.834  12.011   8.513 -1.8384  4.0827  1.5705
  129MOL0     H17746   2.934  12.146   8.548 -0.3512 -0.5961 -0.8064
  129MOL0     H17747   3.120  12.084   8.397 -0.2483  1.0930  2.3526
  129MOL0     H17748   2.987  12.065   8.299 -0.0239 -1.4021 -0.4297
  129MOL0     H17749   3.113  11.892   8.265 -1.2750  2.0804 -0.7787
  129MOL0     H17750   3.128  11.829   8.422  0.2584 -3.9247 -2.8398
  129MOL0     H17751   2.793  11.910   8.219 -1.2289 -0.4938  0.9898
  129MOL0     H17752   2.575  11.780   8.207  1.3623  1.8842 -0.5641
  129MOL0     H17753   2.563  11.639   8.315  1.3720 -2.1873 -0.1878
  129MOL0     H17754   2.698  11.619   8.024 -0.9705  3.0375 -1.2234
  129MOL0     H17755   2.636  11.484   8.128  2.4412  0.7822 -1.2566
  129MOL0     H17756   2.399  11.552   8.095 -0.2776  2.1203  0.6029
  129MOL0     H17757   2.471  11.693   7.996  2.5061 -0.3802 -1.4777
  129MOL0     H17758   2.399  11.541   7.829  0.8160  1.3141 -0.5452
  129MOL0     H17759   2.574  11.550   7.847  1.9537 -3.1629  1.1093
  129MOL0     H17760   2.235  11.415   7.874  0.6066  0.5931  0.8874
  129MOL0     H17761   1.960  11.220   7.884 -0.1755 -0.0537  0.1817
  129MOL0     H17762   2.034  11.377   7.878  0.4975  0.2155  0.5165
  129MOL0     H17763   1.935  11.336   8.024 -0.6998  0.7266  0.2852
  129MOL0     H17764   2.137  10.663   8.117  0.2326  1.2613  1.7881
  129MOL0     H17765   1.996  10.465   8.145 -2.0204 -0.4197 -0.2235
  129MOL0     H17766   1.870  10.325   8.010  0.3992  3.9092 -1.3975
  129MOL0     H17767   1.815  10.338   8.184 -1.4891 -1.1943  0.5760
  129MOL0     H17768   1.759  10.135   8.052  2.7545  1.1196 -2.1490
  129MOL0     H17769   1.626  10.210   8.136  1.9376  1.5764  0.7957
  129MOL0     H17770   1.697  10.237   7.840  2.5211  1.6867  1.8538
  129MOL0     H17771   1.551  10.314   7.923  0.0732  0.6015  2.1783
  129MOL0     H17772   1.473  10.081   7.937  0.0809  0.4815  0.4767
  129MOL0     H17773   1.638  10.020   7.891 -1.1915 -0.7800 -0.2263
  129MOL0     H17774   1.602  10.124   7.671 -0.5553 -0.3288 -0.6556
  129MOL0     H17775   1.475   9.997   7.709 -2.9367  0.5388  3.2070
  129MOL0     H17776   1.429  10.294   7.753  0.3670  1.0669 -0.7142
  129MOL0     H17777   1.312  10.164   7.769  0.0323 -0.0898 -0.0626
  129MOL0     H17778   1.316  10.111   7.541 -0.5630  0.3104  0.1336
  129MOL0     H17779   1.479  10.193   7.522 -1.7136 -0.0284 -3.6774
  129MOL0     H17780   1.238  10.363   7.563  1.4940  0.6966  0.2417
  129MOL0     H17781   1.286  10.296   7.400  4.1040 -3.3371 -0.6777
  129MOL0     H17782   1.666  10.690   7.962  1.5048 -2.5803 -1.9224
  129MOL0     H17783   1.803  10.895   7.977  0.7464  0.2180 -0.4718
  129MOL0     H17784   2.319  10.970   8.071  1.8217  0.9782 -0.6111
  129MOL0     H17785   2.515  11.133   8.038  1.0497  0.6213 -0.9024
  129MOL0     H17786   3.592  11.887   9.109  2.8459 -1.0441  3.8666
  129MOL0     H17787   3.717  11.705   9.244 -0.1489 -1.0519 -0.9048
  129MOL0     H17788   3.794  11.132   9.103 -0.5717  0.5895  0.5262
  129MOL0     H17789   3.845  10.922   9.236 -0.4145  1.4075 -1.1658
  129MOL0     H17790   3.981  10.783   9.573 -1.5672 -4.5198 -1.5333
  129MOL0     H17791   3.881  10.781   9.428  0.7079 -3.1328  0.4107
  129MOL0     H17792   4.069  10.770   9.275  0.7125 -0.9262 -0.4420
  129MOL0     H17793   4.073  10.635   9.384  2.1207 -0.1785 -0.8491
  129MOL0     H17794   4.283  10.748   9.486  0.0393 -0.6528  0.0540
  129MOL0     H17795   4.282  10.726   9.324 -1.1560  2.4472 -2.4909
  129MOL0     H17796   4.369  10.942   9.390 -0.7349  3.6501  0.7027
  129MOL0     H17797   4.229  10.991   9.463 -2.1578 -0.8301 -0.1539
  129MOL0     H17798   4.143  11.078   9.059 -1.4339  2.3794  0.4003
  129MOL0     H17799   4.054  11.194   9.512  1.8421  0.8966 -1.4834
  129MOL0     H17800   4.035  11.418   9.489  3.4750 -2.3809 -1.5175
  129MOL0     H17801   4.089  11.439   9.319 -0.2344  1.0984 -0.8066
  129MOL0     H17802   3.932  11.500   9.381  0.7032  1.0132 -2.1485
  130MOL0     O17803   1.138   5.854   4.010  0.6580  0.8436  0.0794
  130MOL0     C17804   1.058   5.896   4.095  0.2439 -0.2390  0.1855
  130MOL0     O17805   1.091   5.924   4.228 -0.0085  0.2791  0.0323
  130MOL0     C17806   1.210   5.877   4.275  0.1866  1.0054 -0.1712
  130MOL0     C17807   1.200   5.781   4.376  0.4703 -0.0919 -0.1190
  130MOL0     C17808   1.322   5.740   4.438 -0.4936 -0.2677  0.7264
  130MOL0     C17809   1.438   5.781   4.387 -0.4184 -0.4701 -0.3359
  130MOL0     O17810   1.556   5.729   4.423  0.2839  0.7214 -1.0898
  130MOL0     C17811   1.663   5.703   4.334 -1.0054 -0.3878  0.9785
  130MOL0     C17812   1.782   5.626   4.406 -0.1767 -0.2123 -0.3164
  130MOL0     C17813   1.725   5.489   4.463 -0.2370 -0.0804 -0.6534
  130MOL0     C17814   1.831   5.374   4.465  0.3174 -0.1120 -0.5484
  130MOL0     C17815   1.942   5.395   4.584 -0.2277  0.3868  0.6233
  130MOL0     C17816   1.882   5.414   4.715  0.4606 -0.0937 -0.4210
  130MOL0     C17817   1.991   5.405   4.823  0.9505 -0.3144 -0.4216
  130MOL0     C17818   2.103   5.510   4.813 -0.3322  0.2946 -0.2494
  130MOL0     N17819   2.065   5.653   4.810 -0.5600  0.7620  0.1273
  130MOL0     C17820   1.957   5.712   4.862 -0.0105 -0.4216 -0.0729
  130MOL0     C17821   1.954   5.844   4.817  0.4387 -0.2567  0.1568
  130MOL0     C17822   1.846   5.944   4.832  0.8516  0.1470  0.1980
  130MOL0     C17823   1.757   5.957   4.710  0.5951  0.1703  0.0959
  130MOL0     C17824   1.831   6.032   4.599 -0.2749  0.5187  0.4638
  130MOL0     C17825   1.747   6.056   4.479  0.4856 -0.1398 -0.9270
  130MOL0     O17826   1.823   6.054   4.357 -0.1801  0.8777 -0.2500
  130MOL0     C17827   1.904   6.167   4.347  0.4577  0.0145  1.0941
  130MOL0     C17828   1.851   6.282   4.283 -0.2170  0.4134  0.1101
  130MOL0     C17829   1.936   6.396   4.271  0.4121  0.3973 -1.2071
  130MOL0     C17830   1.873   6.509   4.189 -0.0779  0.1728  0.1159
  130MOL0     C17831   2.068   6.398   4.326 -0.9338 -0.9118 -0.8302
  130MOL0     C17832   2.161   6.522   4.317  0.3675 -0.0070 -0.5526
  130MOL0     O17833   2.281   6.517   4.393 -0.1739 -0.1209  0.0071
  130MOL0     C17834   2.336   6.636   4.417  0.0960  0.1978  0.5365
  130MOL0     C17835   2.481   6.621   4.433 -0.7135 -0.9287  0.0948
  130MOL0     C17836   2.558   6.725   4.479  0.4081  0.4731  0.2747
  130MOL0     C17837   2.482   6.843   4.533 -0.4777 -0.2093  0.3188
  130MOL0     O17838   2.561   6.941   4.591 -0.4380 -0.8788 -0.1351
  130MOL0     C17839   2.552   7.080   4.547 -0.7744 -0.1390  1.0372
  130MOL0     C17840   2.664   7.097   4.447  0.7150 -0.2791  0.0750
  130MOL0     C17841   2.801   7.082   4.503  0.2708 -0.0341 -0.5197
  130MOL0     C17842   2.899   7.136   4.396  0.2596  0.2195 -0.1825
  130MOL0     C17843   3.040   7.146   4.465  0.2391 -0.0984  0.0756
  130MOL0     C17844   3.045   7.252   4.567  0.9371 -1.5313 -0.0170
  130MOL0     C17845   3.181   7.302   4.597  0.5111 -0.9989 -0.8973
  130MOL0     C17846   3.266   7.194   4.666 -0.1850 -0.0011 -0.5222
  130MOL0    Cl17847   3.366   7.110   4.538  0.2177  0.3666 -0.4758
  130MOL0     C17848   2.347   6.852   4.519 -0.4795  1.0652  0.7316
  130MOL0     C17849   2.270   6.747   4.465 -0.0348  0.7528 -0.0481
  130MOL0     O17850   2.129   6.609   4.241  0.3695 -0.1911 -0.4356
  130MOL0     C17851   2.109   6.286   4.397  0.0389 -0.3017  0.3234
  130MOL0     C17852   2.038   6.169   4.397 -0.0727 -0.5494  0.1161
  130MOL0     N17853   2.068   5.866   4.746 -1.3422 -0.6632  0.0310
  130MOL0     N17854   2.135   5.754   4.753 -0.1668  0.6922 -0.0441
  130MOL0     C17855   1.450   5.884   4.284 -0.0036  0.2736 -0.2842
  130MOL0     C17856   1.335   5.936   4.236  0.6687  0.3662  0.1091
  130MOL0     C17857   0.925   5.939   4.063 -0.4931  0.2603 -0.4543
  130MOL0     C17858   0.858   6.047   4.145 -0.2148  0.5614  0.4664
  130MOL0     C17859   0.742   6.107   4.106 -0.0237 -0.0378 -0.8099
  130MOL0     C17860   0.670   6.071   3.993 -0.7514 -0.1937  0.1537
  130MOL0     O17861   0.552   6.144   3.965  0.4514 -0.8503  0.5653
  130MOL0     C17862   0.463   6.099   3.864  0.4459 -0.2059  1.0038
  130MOL0     C17863   0.386   5.972   3.904 -0.5561  0.7436  0.1526
  130MOL0     C17864   0.347   5.978   4.053  0.4755 -0.4081 -0.1666
  130MOL0     C17865   0.311   5.843   4.103 -0.0514 -0.5382  0.5416
  130MOL0     C17866   0.261   5.849   4.244 -0.4722 -0.8322 -0.1861
  130MOL0     C17867   0.227   5.852   4.356 -0.2298 -0.6761  0.3270
  130MOL0     C17868   0.732   5.970   3.907 -0.0850  0.6724  0.9007
  130MOL0     C17869   0.854   5.915   3.936 -0.7456 -0.1109  0.0851
  130MOL0     C17870   0.920   5.828   3.828  0.5345 -0.6590 -0.1063
  130MOL0     H17871   1.100   5.742   4.395  0.0344  0.6413 -0.8602
  130MOL0     H17872   1.328   5.666   4.517 -2.2676  0.4515  1.5797
  130MOL0     H17873   1.718   5.781   4.281 -1.6644 -0.3857  0.2785
  130MOL0     H17874   1.633   5.641   4.250 -4.2788  0.3572  1.4694
  130MOL0     H17875   1.860   5.604   4.333  0.8800 -1.0581  1.0337
  130MOL0     H17876   1.826   5.684   4.487 -0.2962 -0.9303  0.2757
  130MOL0     H17877   1.685   5.497   4.564 -1.6455 -0.0744 -1.1848
  130MOL0     H17878   1.654   5.456   4.386  2.1739  2.0754 -4.1088
  130MOL0     H17879   1.783   5.277   4.482  1.9416 -0.8004  0.3177
  130MOL0     H17880   1.875   5.362   4.365  4.0241  1.7138  0.6948
  130MOL0     H17881   2.006   5.482   4.572  1.0162 -0.0032  3.4924
  130MOL0     H17882   2.001   5.303   4.588 -1.0413 -0.1678  0.1544
  130MOL0     H17883   1.831   5.511   4.721 -2.8028 -1.7458  1.1703
  130MOL0     H17884   1.813   5.337   4.749  0.3601 -0.0465 -0.5182
  130MOL0     H17885   2.029   5.303   4.821 -0.8025 -1.0098 -2.5937
  130MOL0     H17886   1.944   5.418   4.921  1.3679 -0.8606 -0.1469
  130MOL0     H17887   2.164   5.492   4.902 -0.8013  0.8144  0.1832
  130MOL0     H17888   2.175   5.484   4.735  1.1413  2.0826  0.4553
  130MOL0     H17889   1.887   5.668   4.933 -0.2769 -0.8286 -0.5847
  130MOL0     H17890   1.884   6.041   4.866  1.2107 -0.4060  1.3938
  130MOL0     H17891   1.786   5.903   4.913  2.6894 -1.9030  0.6244
  130MOL0     H17892   1.726   5.857   4.680 -0.0484  0.8900 -1.8056
  130MOL0     H17893   1.661   6.006   4.730 -1.4250 -2.2376 -2.8427
  130MOL0     H17894   1.872   6.131   4.625  3.2226  0.0027 -2.1903
  130MOL0     H17895   1.926   5.982   4.576  0.0037  0.3634  1.8560
  130MOL0     H17896   1.670   5.978   4.477 -0.8628  1.1649 -0.9096
  130MOL0     H17897   1.702   6.155   4.481 -0.4845 -0.5905 -0.0475
  130MOL0     H17898   1.751   6.292   4.242  0.6993  1.2914 -2.0272
  130MOL0     H17899   1.935   6.535   4.103 -1.5711 -1.5325 -1.5721
  130MOL0     H17900   1.871   6.604   4.244 -0.5811 -1.0514  2.3300
  130MOL0     H17901   1.774   6.487   4.150 -0.1508 -0.1781  0.4942
  130MOL0     H17902   2.533   6.530   4.405 -0.2403 -1.2495  1.9454
  130MOL0     H17903   2.666   6.734   4.487  0.3697  2.1979 -0.7472
  130MOL0     H17904   2.454   7.090   4.499 -0.0096 -0.8527 -0.7800
  130MOL0     H17905   2.572   7.135   4.639 -0.2483 -1.0602  1.4893
  130MOL0     H17906   2.656   7.028   4.362  0.5315 -0.1401 -0.0248
  130MOL0     H17907   2.659   7.199   4.406  2.5046  0.4728  1.6029
  130MOL0     H17908   2.807   6.973   4.509  0.1028  0.0023  0.7052
  130MOL0     H17909   2.818   7.126   4.602  0.3796 -0.5422 -0.3050
  130MOL0     H17910   2.869   7.229   4.347 -0.5296 -0.5980 -1.3082
  130MOL0     H17911   2.906   7.049   4.329 -1.0907 -0.9087  1.0794
  130MOL0     H17912   3.069   7.049   4.505  0.9893  0.1204  0.0799
  130MOL0     H17913   3.110   7.183   4.390 -1.5990  1.6949 -0.8788
  130MOL0     H17914   2.994   7.225   4.660 -0.4785  1.4200  0.1860
  130MOL0     H17915   2.977   7.332   4.538 -0.8331 -3.3947 -1.2948
  130MOL0     H17916   3.173   7.385   4.668  0.8929 -0.2805 -1.6784
  130MOL0     H17917   3.224   7.340   4.504 -0.2959 -0.4483 -1.0536
  130MOL0     H17918   3.203   7.125   4.723 -2.0049  1.3854 -0.7643
  130MOL0     H17919   3.334   7.233   4.743  2.7743 -3.3560 -1.1646
  130MOL0     H17920   2.301   6.937   4.568  0.5387  1.6846  0.6423
  130MOL0     H17921   2.162   6.752   4.451  0.0082 -2.1930 -2.4489
  130MOL0     H17922   2.213   6.284   4.426  0.0692 -1.6306  0.1703
  130MOL0     H17923   2.087   6.084   4.443  1.8776 -0.5139 -1.7459
  130MOL0     H17924   1.541   5.940   4.265 -0.9208  1.1616 -2.4739
  130MOL0     H17925   1.331   6.020   4.167  1.7526  0.3103 -0.0361
  130MOL0     H17926   0.909   6.086   4.232  1.7559 -3.0566  1.1190
  130MOL0     H17927   0.712   6.194   4.163  2.5048 -0.4514  1.3640
  130MOL0     H17928   0.386   6.173   3.842  1.3990  0.1185 -1.5947
  130MOL0     H17929   0.528   6.093   3.776  1.0814 -0.5474  1.4842
  130MOL0     H17930   0.452   5.890   3.874 -1.5439  0.7319 -2.1551
  130MOL0     H17931   0.300   5.958   3.839 -0.7650 -0.1889  0.6047
  130MOL0     H17932   0.430   6.017   4.112  1.4604  0.1200 -1.8505
  130MOL0     H17933   0.262   6.044   4.075  0.4664 -0.4533 -0.0619
  130MOL0     H17934   0.390   5.768   4.100 -1.6949 -2.4485  2.2301
  130MOL0     H17935   0.229   5.802   4.043 -2.3784  2.0893  1.6925
  130MOL0     H17936   0.198   5.861   4.459 -0.7404 -0.6047  0.1819
  130MOL0     H17937   0.689   5.928   3.817 -0.3227  2.3926  0.1850
  130MOL0     H17938   0.845   5.806   3.751  1.2459  0.2420 -1.0893
  130MOL0     H17939   1.002   5.889   3.790 -0.8337  1.7175  0.5695
  130MOL0     H17940   0.949   5.735   3.878 -2.6073 -1.0394  1.2489
  131MOL0     O17941   6.411   0.487   7.006  0.4219 -1.0673  0.4676
  131MOL0     C17942   6.386   0.557   7.106  0.0309  0.0586  0.9137
  131MOL0     O17943   6.429   0.684   7.118  0.4369  0.4529 -0.1334
  131MOL0     C17944   6.539   0.725   7.055 -0.4726 -0.2047  0.1270
  131MOL0     C17945   6.535   0.857   7.018 -0.2799  0.3082  0.7480
  131MOL0     C17946   6.657   0.913   6.959 -0.0958  0.2735 -1.3458
  131MOL0     C17947   6.768   0.837   6.931  0.0796 -0.1263  0.3878
  131MOL0     O17948   6.865   0.891   6.853 -1.0264 -0.6233 -0.5257
  131MOL0     C17949   6.954   0.975   6.929 -0.2804 -0.0960 -0.7488
  131MOL0     C17950   7.069   1.016   6.844  0.2880  0.1353  0.2037
  131MOL0     C17951   7.023   1.101   6.723  0.2274  0.2491 -0.1272
  131MOL0     C17952   7.103   1.232   6.708  0.3191 -0.0020  0.2405
  131MOL0     C17953   7.227   1.238   6.612  0.2169  0.6922  0.0603
  131MOL0     C17954   7.241   1.370   6.549 -0.0420 -2.3538 -0.3672
  131MOL0     C17955   7.354   1.361   6.441 -0.0260 -0.6374  1.1144
  131MOL0     C17956   7.398   1.501   6.378 -0.0502  0.0465 -0.9218
  131MOL0     N17957   7.287   1.545   6.300  0.2684  0.0190  1.2438
  131MOL0     C17958   7.283   1.517   6.166  0.6311 -0.0694  0.0356
  131MOL0     C17959   7.187   1.598   6.110 -0.1135 -0.0131 -0.5111
  131MOL0     C17960   7.149   1.608   5.964 -0.2646  0.0241 -0.2202
  131MOL0     C17961   7.018   1.689   5.957  0.1780  0.4119  0.4282
  131MOL0     C17962   6.994   1.739   5.812  0.8772 -0.4055  0.4671
  131MOL0     C17963   6.901   1.649   5.730 -0.0172  0.1858 -0.7145
  131MOL0     O17964   6.910   1.506   5.770 -0.1283  0.4039  0.1103
  131MOL0     C17965   6.850   1.425   5.679 -0.1725 -0.5136 -0.1655
  131MOL0     C17966   6.713   1.427   5.681 -0.6540  0.0651 -1.0517
  131MOL0     C17967   6.638   1.351   5.590  0.0005  0.0693 -0.3487
  131MOL0     C17968   6.484   1.355   5.605  0.2404  0.8280 -0.8451
  131MOL0     C17969   6.704   1.279   5.486 -0.4100  0.4282 -0.5524
  131MOL0     C17970   6.635   1.194   5.391  0.0375  0.0397 -0.2091
  131MOL0     O17971   6.700   1.076   5.362 -1.1242  0.0785  0.5737
  131MOL0     C17972   6.642   0.967   5.310 -0.1826  0.7919  0.2150
  131MOL0     C17973   6.697   0.835   5.345  0.0748  1.0801 -0.3799
  131MOL0     C17974   6.645   0.720   5.289  0.0041  0.4620  0.5309
  131MOL0     C17975   6.535   0.720   5.196 -0.4176 -0.4437  1.2102
  131MOL0     O17976   6.478   0.609   5.137  0.2403  0.3219  1.1480
  131MOL0     C17977   6.441   0.505   5.225 -1.6661 -0.1614 -0.3932
  131MOL0     C17978   6.337   0.416   5.153 -0.2432  0.4191 -0.1769
  131MOL0     C17979   6.325   0.274   5.221 -1.1593  0.8239  0.0989
  131MOL0     C17980   6.191   0.201   5.184 -0.9682 -0.2768 -0.2025
  131MOL0     C17981   6.185   0.058   5.232 -0.4411  0.2785 -0.8578
  131MOL0     C17982   6.061  -0.023   5.178 -0.4990  1.8779  0.2375
  131MOL0     C17983   6.048  -0.150   5.271  0.3859  1.0899  0.5728
  131MOL0     C17984   5.947  -0.249   5.227  1.3876 -0.4136  0.3569
  131MOL0    Cl17985   5.964  -0.404   5.323 -0.1245  0.0347  0.1589
  131MOL0     C17986   6.485   0.849   5.164  1.1996 -1.2176  0.5183
  131MOL0     C17987   6.532   0.972   5.216  0.4660  0.0464 -1.2121
  131MOL0     O17988   6.525   1.223   5.348  0.5730  0.2796 -0.7242
  131MOL0     C17989   6.839   1.281   5.488  0.3139  0.6174 -0.0544
  131MOL0     C17990   6.909   1.341   5.593  0.0577  0.1202  1.4037
  131MOL0     N17991   7.127   1.665   6.218 -1.5364  0.1995 -0.7026
  131MOL0     N17992   7.194   1.640   6.321 -0.2987  1.1416  0.6973
  131MOL0     C17993   6.769   0.710   6.973 -0.3009  0.4405 -0.4714
  131MOL0     C17994   6.657   0.656   7.036 -0.4946 -0.3595  0.6055
  131MOL0     C17995   6.309   0.498   7.220 -0.3949 -0.0129  0.4889
  131MOL0     C17996   6.267   0.577   7.332 -0.2893 -0.0625 -0.3321
  131MOL0     C17997   6.195   0.538   7.451 -0.1405  0.6321 -0.1813
  131MOL0     C17998   6.172   0.411   7.460 -0.4899  1.3251 -0.9075
  131MOL0     O17999   6.131   0.364   7.585  0.0988 -0.6895  0.9677
  131MOL0     C18000   6.110   0.220   7.621  0.8838 -0.7818 -0.0443
  131MOL0     C18001   6.178   0.194   7.748 -0.3688 -0.7879  0.0859
  131MOL0     C18002   6.133   0.297   7.860 -0.3469  0.5852  0.2554
  131MOL0     C18003   6.235   0.283   7.975  0.3018  0.1333  0.3748
  131MOL0     C18004   6.199   0.168   8.054  0.8474 -0.2797  0.3434
  131MOL0     C18005   6.186   0.059   8.111  0.1526 -0.0276  0.0638
  131MOL0     C18006   6.215   0.315   7.362 -1.9150 -1.2455  0.7227
  131MOL0     C18007   6.280   0.360   7.237  0.1855  1.0010  0.2829
  131MOL0     C18008   6.307   0.242   7.147  0.0902 -0.0875 -0.8017
  131MOL0     H18009   6.449   0.920   7.035  1.4962  3.8818 -2.1395
  131MOL0     H18010   6.667   1.018   6.931 -3.4847  0.9564 -0.4858
  131MOL0     H18011   6.990   0.927   7.020 -0.7113 -0.8975 -0.9875
  131MOL0     H18012   6.891   1.060   6.956  1.4074  0.7657  0.6744
  131MOL0     H18013   7.131   1.085   6.901 -1.8608  0.8965  1.7490
  131MOL0     H18014   7.133   0.932   6.816  1.0250  0.6255  0.3980
  131MOL0     H18015   7.036   1.037   6.635 -5.3722 -2.7667  0.8094
  131MOL0     H18016   6.917   1.124   6.733 -0.7894 -3.8279  0.5760
  131MOL0     H18017   7.043   1.311   6.664 -0.1187  0.7873  2.1347
  131MOL0     H18018   7.145   1.271   6.801 -3.5817 -0.7973  2.5838
  131MOL0     H18019   7.210   1.174   6.524 -0.6989  2.1588 -0.8735
  131MOL0     H18020   7.314   1.191   6.657 -0.7396  0.0313  1.2711
  131MOL0     H18021   7.155   1.405   6.491  2.6740  1.5342 -2.5095
  131MOL0     H18022   7.266   1.432   6.636 -0.1986 -0.8608 -1.3323
  131MOL0     H18023   7.332   1.293   6.359  0.9314  0.4395 -0.0756
  131MOL0     H18024   7.442   1.322   6.493  1.7527 -0.1587 -1.3687
  131MOL0     H18025   7.437   1.572   6.451 -1.5626  0.2215 -0.2443
  131MOL0     H18026   7.480   1.482   6.309  1.2455 -1.8247  1.0114
  131MOL0     H18027   7.345   1.449   6.108 -2.2910 -2.7270 -0.2148
  131MOL0     H18028   7.137   1.513   5.912  0.6737 -0.3119  0.1360
  131MOL0     H18029   7.233   1.653   5.910 -1.4528  1.2840 -1.0961
  131MOL0     H18030   6.926   1.642   5.993  1.6838 -1.0516  2.5664
  131MOL0     H18031   7.028   1.772   6.028  2.0975 -0.3394  1.0994
  131MOL0     H18032   6.947   1.838   5.817  0.9224 -0.1974 -1.9356
  131MOL0     H18033   7.085   1.747   5.752  0.0083  2.1725 -0.6694
  131MOL0     H18034   6.796   1.677   5.747 -0.9313 -2.5486 -1.2689
  131MOL0     H18035   6.932   1.670   5.627  3.5034 -0.1179  0.1584
  131MOL0     H18036   6.654   1.491   5.745 -1.7127 -0.1775 -1.7611
  131MOL0     H18037   6.449   1.402   5.698 -0.3735 -1.4165  0.1384
  131MOL0     H18038   6.438   1.256   5.605  0.4220  0.2682  5.8685
  131MOL0     H18039   6.444   1.405   5.517 -3.1141  0.5705  0.3979
  131MOL0     H18040   6.780   0.817   5.413 -0.0594 -3.4670 -1.0794
  131MOL0     H18041   6.685   0.623   5.317 -1.3553 -0.7786 -1.4776
  131MOL0     H18042   6.533   0.446   5.229 -2.4588 -1.6454 -2.3858
  131MOL0     H18043   6.422   0.530   5.330  2.6356 -4.4234  1.7967
  131MOL0     H18044   6.238   0.461   5.164 -1.3450 -2.1139  1.0291
  131MOL0     H18045   6.360   0.405   5.046 -1.7843 -2.8819 -0.2913
  131MOL0     H18046   6.342   0.280   5.329 -1.7823 -1.4924  0.3701
  131MOL0     H18047   6.402   0.225   5.162 -0.9121  1.7487 -0.3734
  131MOL0     H18048   6.175   0.194   5.076  0.8843 -1.2036 -0.4536
  131MOL0     H18049   6.111   0.260   5.232 -1.1547 -1.1661  0.6023
  131MOL0     H18050   6.283   0.012   5.217  0.6412  1.3937  2.0468
  131MOL0     H18051   6.177   0.045   5.340  0.6775 -2.9750 -1.0746
  131MOL0     H18052   6.063  -0.055   5.073 -1.9701  0.3234  0.6500
  131MOL0     H18053   5.962   0.024   5.175  0.2371  3.6277 -3.2448
  131MOL0     H18054   6.026  -0.127   5.375  3.3126 -0.1705  1.5709
  131MOL0     H18055   6.151  -0.185   5.283  0.2243  0.3228 -0.1807
  131MOL0     H18056   5.955  -0.262   5.119  3.2231  1.1089  0.2666
  131MOL0     H18057   5.855  -0.194   5.250  0.1088 -2.2331 -0.1603
  131MOL0     H18058   6.392   0.852   5.108  1.1061  3.2991  0.5410
  131MOL0     H18059   6.489   1.064   5.178  2.2687  0.7045 -1.7243
  131MOL0     H18060   6.900   1.218   5.423  1.4296  0.2643  1.2929
  131MOL0     H18061   7.017   1.333   5.593 -0.0154 -1.1932  0.5150
  131MOL0     H18062   6.857   0.647   6.961 -1.2979 -1.3124  0.9330
  131MOL0     H18063   6.665   0.548   7.032  0.4906 -0.2601 -0.3142
  131MOL0     H18064   6.288   0.683   7.321 -0.5223  0.3053  2.2916
  131MOL0     H18065   6.183   0.611   7.530 -0.5991  2.0483 -1.5022
  131MOL0     H18066   6.004   0.195   7.627  0.9420 -1.4219 -1.2529
  131MOL0     H18067   6.149   0.154   7.543  1.9388  0.6344 -0.7608
  131MOL0     H18068   6.286   0.207   7.735 -0.6369 -0.9007 -2.8387
  131MOL0     H18069   6.161   0.089   7.773 -2.0802 -1.2245 -2.5687
  131MOL0     H18070   6.149   0.398   7.822  1.1081 -0.3279 -1.7439
  131MOL0     H18071   6.030   0.283   7.892  0.2060  0.2643  2.0594
  131MOL0     H18072   6.241   0.378   8.028  1.3884  0.7305 -0.7746
  131MOL0     H18073   6.342   0.278   7.952 -0.0582  1.0776 -1.6894
  131MOL0     H18074   6.175  -0.020   8.183  2.6356 -2.4350 -1.9719
  131MOL0     H18075   6.186   0.210   7.362 -4.1410 -0.6831  0.0206
  131MOL0     H18076   6.215   0.208   7.099 -2.3513  2.2796  1.8206
  131MOL0     H18077   6.372   0.261   7.061 -1.5505 -0.6455 -2.2186
  131MOL0     H18078   6.342   0.154   7.202  0.1262  0.2101 -0.3399
  132MOL0     O18079   9.702  10.054   1.240 -0.4272  0.0279 -0.4837
  132MOL0     C18080   9.738  10.174   1.229  0.3313  0.7565 -0.7777
  132MOL0     O18081   9.656  10.280   1.245 -0.1527  0.4283 -0.8274
  132MOL0     C18082   9.520  10.293   1.228  0.0729 -0.0214  0.4969
  132MOL0     C18083   9.429  10.196   1.172 -0.5153  1.5592  0.6861
  132MOL0     C18084   9.300  10.215   1.141  0.2650 -0.5972  0.2741
  132MOL0     C18085   9.249  10.341   1.163 -0.0323 -1.1601  0.4576
  132MOL0     O18086   9.123  10.375   1.152 -0.0149  0.0013  0.1555
  132MOL0     C18087   9.080  10.375   1.018 -0.0370  0.0257 -0.1346
  132MOL0     C18088   8.955  10.461   1.001  0.2290  0.7218  0.4868
  132MOL0     C18089   8.970  10.607   1.066  0.6653 -0.7196  0.0099
  132MOL0     C18090   8.905  10.706   0.963  0.0394 -0.1230  0.6762
  132MOL0     C18091   8.887  10.849   1.030  0.1578 -0.5697  0.4833
  132MOL0     C18092   9.027  10.918   1.031  0.7982  0.8952  0.5515
  132MOL0     C18093   9.030  11.067   1.057  0.9403  0.4844 -1.1209
  132MOL0     C18094   9.170  11.117   1.032 -0.0094 -1.0646 -0.5153
  132MOL0     N18095   9.214  11.207   1.136  0.0492  0.1802 -0.0819
  132MOL0     C18096   9.171  11.331   1.169  0.5825 -0.0715  0.5481
  132MOL0     C18097   9.260  11.375   1.264  0.4321 -0.1277 -0.7202
  132MOL0     C18098   9.245  11.513   1.330  0.9627 -0.1019  0.0780
  132MOL0     C18099   9.308  11.511   1.470 -0.0804  0.1601  0.1239
  132MOL0     C18100   9.292  11.640   1.548  1.1827  0.4074 -0.0998
  132MOL0     C18101   9.333  11.762   1.454 -0.0735  0.1933 -0.2625
  132MOL0     O18102   9.470  11.748   1.423 -0.7025 -0.0068  0.3962
  132MOL0     C18103   9.552  11.860   1.447 -0.0154  0.8795 -0.3550
  132MOL0     C18104   9.647  11.836   1.553 -0.0044  0.5815 -0.5559
  132MOL0     C18105   9.758  11.922   1.569 -0.0811  0.1242  0.2209
  132MOL0     C18106   9.854  11.884   1.674  0.4523 -0.5139 -0.5689
  132MOL0     C18107   9.766  12.034   1.497  0.5571 -0.1786  0.3055
  132MOL0     C18108   9.870  12.133   1.524 -0.1066 -0.2013 -0.7381
  132MOL0     O18109   9.992  12.091   1.577  0.7169 -0.1624  0.8077
  132MOL0     C18110  10.110  12.162   1.586  0.0997 -0.8723  0.2375
  132MOL0     C18111  10.119  12.305   1.570  0.2481  0.2195 -1.1520
  132MOL0     C18112  10.251  12.363   1.565  0.5271 -0.0253 -0.2413
  132MOL0     C18113  10.369  12.291   1.593  0.4224 -0.0852 -0.7275
  132MOL0     O18114  10.490  12.341   1.595 -0.3608  0.0758  0.2016
  132MOL0     C18115  10.504  12.469   1.537 -0.2418 -0.0409  0.2398
  132MOL0     C18116  10.652  12.478   1.515  0.3154  0.1992  0.9145
  132MOL0     C18117  10.717  12.483   1.652 -0.0371  0.3547 -0.8689
  132MOL0     C18118  10.858  12.548   1.631  0.2303 -0.3093  0.3610
  132MOL0     C18119  10.917  12.564   1.772 -0.5132 -0.5092  0.9306
  132MOL0     C18120  11.052  12.635   1.742 -0.2902  0.4572 -0.9044
  132MOL0     C18121  11.159  12.584   1.848 -0.3318 -0.0143 -0.4077
  132MOL0     C18122  11.300  12.576   1.787 -0.1193  0.4731  0.5389
  132MOL0    Cl18123  11.334  12.742   1.723  0.0930 -0.0015 -0.0608
  132MOL0     C18124  10.357  12.152   1.614  0.1525 -0.0005 -0.2655
  132MOL0     C18125  10.235  12.088   1.610 -0.1207 -0.3836  0.1252
  132MOL0     O18126   9.834  12.250   1.534  0.1775  0.4484 -0.2126
  132MOL0     C18127   9.653  12.063   1.413  0.0606 -0.7968 -1.6764
  132MOL0     C18128   9.546  11.979   1.383 -0.4649 -0.1237  1.4320
  132MOL0     N18129   9.349  11.273   1.293 -0.0970 -0.3700  0.6044
  132MOL0     N18130   9.318  11.169   1.218  0.7406  0.0607  0.4181
  132MOL0     C18131   9.333  10.441   1.223 -0.2159  0.3232  0.6342
  132MOL0     C18132   9.466  10.412   1.257 -0.0717 -0.2002  0.2977
  132MOL0     C18133   9.884  10.207   1.206  0.8639  0.1452 -0.1685
  132MOL0     C18134   9.987  10.128   1.265  0.7398 -0.1562 -0.0196
  132MOL0     C18135  10.121  10.172   1.264  0.6097  0.0030 -0.9717
  132MOL0     C18136  10.156  10.292   1.201  0.3462 -0.3986 -0.0659
  132MOL0     O18137  10.280  10.347   1.205 -0.6240 -0.3547  0.0698
  132MOL0     C18138  10.367  10.323   1.311 -0.3329 -0.2475 -0.0664
  132MOL0     C18139  10.479  10.427   1.310  0.8947  0.1318  0.5625
  132MOL0     C18140  10.438  10.568   1.338  0.4642 -0.8127 -1.5951
  132MOL0     C18141  10.531  10.685   1.298  1.0804  0.2255  0.4328
  132MOL0     C18142  10.623  10.729   1.401 -0.3037  0.6733 -0.6916
  132MOL0     C18143  10.688  10.770   1.493  1.0153  0.9919  0.0558
  132MOL0     C18144  10.057  10.363   1.134  0.0891 -0.3268  0.0905
  132MOL0     C18145   9.923  10.317   1.134 -0.1111 -0.9046 -1.0415
  132MOL0     C18146   9.824  10.407   1.058 -0.0021 -0.1500 -0.0283
  132MOL0     H18147   9.486  10.105   1.163 -0.0263  1.9209  0.0821
  132MOL0     H18148   9.248  10.135   1.090 -1.8593  2.1368 -2.1745
  132MOL0     H18149   9.047  10.277   0.981  0.2835  0.3970 -1.4763
  132MOL0     H18150   9.157  10.410   0.948 -0.1284 -0.0531 -0.2760
  132MOL0     H18151   8.931  10.467   0.894  0.9213 -0.2131  0.2637
  132MOL0     H18152   8.862  10.417   1.038  0.1491  1.6277  1.3875
  132MOL0     H18153   8.933  10.622   1.168 -1.2473  1.8099 -0.9509
  132MOL0     H18154   9.076  10.634   1.060  0.3658  0.3553 -0.8014
  132MOL0     H18155   8.955  10.696   0.866 -1.2032 -0.4859  0.0405
  132MOL0     H18156   8.800  10.675   0.955  0.4875 -1.8002  0.8667
  132MOL0     H18157   8.835  10.844   1.126  0.5755 -4.4820  0.6701
  132MOL0     H18158   8.820  10.906   0.966  1.1166  0.0490 -0.0037
  132MOL0     H18159   9.079  10.863   1.109  0.1589 -2.6672 -1.3304
  132MOL0     H18160   9.067  10.903   0.931 -1.3132 -0.8117 -0.1338
  132MOL0     H18161   9.004  11.085   1.161  1.0764  0.3387 -1.0613
  132MOL0     H18162   8.961  11.117   0.988  0.5045 -1.4314 -2.1435
  132MOL0     H18163   9.236  11.030   1.024 -0.2070 -1.1241 -1.8094
  132MOL0     H18164   9.165  11.172   0.938  0.9730  3.1710  1.6812
  132MOL0     H18165   9.078  11.373   1.130 -1.0887 -3.5726  0.4390
  132MOL0     H18166   9.139  11.542   1.329  0.5260 -1.5673  1.0276
  132MOL0     H18167   9.303  11.583   1.269  2.6926  1.5425  3.3882
  132MOL0     H18168   9.284  11.422   1.528 -2.7595 -2.7148 -4.6916
  132MOL0     H18169   9.415  11.493   1.453 -0.0795 -1.2125  1.3958
  132MOL0     H18170   9.191  11.651   1.588  1.8652  1.1061  1.5172
  132MOL0     H18171   9.349  11.622   1.640  4.0733  0.6704 -1.7070
  132MOL0     H18172   9.270  11.767   1.364  2.3484 -0.3373 -2.0823
  132MOL0     H18173   9.302  11.853   1.506 -0.8899 -0.9041  1.2182
  132MOL0     H18174   9.642  11.746   1.612  0.6097  0.8967 -0.0103
  132MOL0     H18175   9.946  11.860   1.619  0.5659  0.9016 -1.0364
  132MOL0     H18176   9.828  11.795   1.733 -0.1837  0.9386  1.4581
  132MOL0     H18177   9.870  11.965   1.746 -1.8447 -0.3959 -0.1064
  132MOL0     H18178  10.039  12.371   1.539  2.1763  0.8482 -5.6089
  132MOL0     H18179  10.254  12.470   1.549 -4.1708  0.1066 -1.8634
  132MOL0     H18180  10.452  12.481   1.441  0.5874 -0.1055 -0.2321
  132MOL0     H18181  10.475  12.553   1.601 -0.8847 -0.2374  0.2154
  132MOL0     H18182  10.695  12.392   1.463 -0.8363 -1.2244  2.2314
  132MOL0     H18183  10.670  12.568   1.455  3.8251 -0.0164  1.4336
  132MOL0     H18184  10.740  12.385   1.694  1.6016 -0.4938 -3.5133
  132MOL0     H18185  10.659  12.544   1.722  0.9061  0.2478  0.0377
  132MOL0     H18186  10.846  12.645   1.583 -0.7785 -1.3065 -1.5174
  132MOL0     H18187  10.922  12.492   1.563  1.3412 -1.6618  2.3889
  132MOL0     H18188  10.855  12.616   1.846 -1.5996 -1.9650  1.1036
  132MOL0     H18189  10.938  12.461   1.803 -3.4059 -1.3747  0.3272
  132MOL0     H18190  11.034  12.743   1.738 -1.9550  0.1811 -1.6776
  132MOL0     H18191  11.086  12.619   1.639 -2.7802  0.0856 -1.7326
  132MOL0     H18192  11.132  12.483   1.880  2.2870 -1.2041 -1.6667
  132MOL0     H18193  11.171  12.649   1.935 -1.4504  0.4960 -0.6060
  132MOL0     H18194  11.314  12.500   1.709 -0.3416 -0.7337  1.6251
  132MOL0     H18195  11.375  12.557   1.865  1.8977 -0.1730 -1.4571
  132MOL0     H18196  10.449  12.097   1.626  1.4106  1.6352 -1.8097
  132MOL0     H18197  10.249  11.980   1.617  3.2644  0.0322  1.7800
  132MOL0     H18198   9.657  12.146   1.343  3.0643 -1.9872 -3.1145
  132MOL0     H18199   9.477  12.008   1.305 -0.0471 -1.1172  0.6706
  132MOL0     H18200   9.294  10.540   1.246  0.3248  0.8879 -0.7624
  132MOL0     H18201   9.515  10.488   1.317  1.4291 -0.4955 -0.4885
  132MOL0     H18202   9.950  10.035   1.305 -1.8370  0.3075 -1.1768
  132MOL0     H18203  10.195  10.104   1.307  1.9884  2.1352  0.2379
  132MOL0     H18204  10.308  10.330   1.403 -0.8595  6.2783 -0.4304
  132MOL0     H18205  10.419  10.227   1.312 -1.5873 -0.9861  2.0915
  132MOL0     H18206  10.508  10.426   1.204  0.0386 -0.4913  0.3266
  132MOL0     H18207  10.563  10.399   1.373 -1.0457 -1.1254  2.7198
  132MOL0     H18208  10.347  10.596   1.284  1.3197  1.3043 -2.0305
  132MOL0     H18209  10.428  10.582   1.446  0.9684  0.9425 -1.7370
  132MOL0     H18210  10.468  10.769   1.267  1.7240  0.0411 -1.5402
  132MOL0     H18211  10.588  10.646   1.212  0.7882  0.7155  0.0138
  132MOL0     H18212  10.734  10.807   1.583  1.8866  3.0377 -1.1701
  132MOL0     H18213  10.088  10.445   1.069  1.6772  3.0430  4.5749
  132MOL0     H18214   9.773  10.474   1.127 -3.0979 -1.2809 -1.0657
  132MOL0     H18215   9.877  10.463   0.980 -0.1681 -1.3964 -1.0645
  132MOL0     H18216   9.748  10.346   1.009 -0.0953 -1.7664  1.9904
  133MOL0     O18217   2.345   9.882   3.656 -0.2844 -0.1790 -0.9102
  133MOL0     C18218   2.324   9.998   3.621 -0.6598  0.3997  0.0603
  133MOL0     O18219   2.212  10.046   3.558 -0.3726 -0.5256  0.6194
  133MOL0     C18220   2.119   9.954   3.528  0.4928  0.8370 -0.6818
  133MOL0     C18221   2.146   9.855   3.429  0.3619  0.4280  0.2930
  133MOL0     C18222   2.052   9.764   3.389 -0.2305  0.0486 -0.1872
  133MOL0     C18223   1.922   9.770   3.449 -1.0898 -0.6218 -0.2972
  133MOL0     O18224   1.824   9.691   3.383 -0.8845 -0.3492 -0.1867
  133MOL0     C18225   1.694   9.729   3.416  0.0760  0.2058 -0.2700
  133MOL0     C18226   1.605   9.659   3.314  0.1656 -0.4427  0.2483
  133MOL0     C18227   1.640   9.697   3.171  0.3997  0.2768  0.1397
  133MOL0     C18228   1.535   9.642   3.072  0.1161 -0.4549 -0.2553
  133MOL0     C18229   1.540   9.707   2.937 -0.2685 -0.2885  0.4218
  133MOL0     C18230   1.451   9.645   2.820  0.6178  0.0299 -0.6784
  133MOL0     C18231   1.490   9.708   2.687  0.0278 -0.2011  0.1799
  133MOL0     C18232   1.479   9.855   2.679  0.0779  0.9008  0.2599
  133MOL0     N18233   1.468   9.896   2.544  1.6153 -0.0662  0.4889
  133MOL0     C18234   1.562   9.950   2.464 -0.3486 -0.0486  0.2910
  133MOL0     C18235   1.514   9.935   2.339  0.0495 -0.0477  0.1325
  133MOL0     C18236   1.595   9.958   2.217 -0.2158 -0.6918 -0.9098
  133MOL0     C18237   1.699   9.841   2.204  0.2695  0.4973 -0.0904
  133MOL0     C18238   1.848   9.897   2.209  0.9903  0.1364 -0.0952
  133MOL0     C18239   1.901   9.930   2.352  0.5536 -0.3737  0.1691
  133MOL0     O18240   1.873   9.817   2.444 -0.0128 -0.2413  0.6488
  133MOL0     C18241   1.963   9.712   2.442 -0.7055  0.0484 -0.8922
  133MOL0     C18242   2.062   9.698   2.349 -0.3325  0.3605  0.4467
  133MOL0     C18243   2.136   9.578   2.343 -0.0455 -0.1204  0.0118
  133MOL0     C18244   2.219   9.559   2.223  0.7790 -0.1608  0.4383
  133MOL0     C18245   2.131   9.490   2.448  0.4277  0.1623  0.0680
  133MOL0     C18246   2.206   9.357   2.453  1.1724 -0.2688 -0.7197
  133MOL0     O18247   2.181   9.280   2.569  0.4733  0.0435  0.9470
  133MOL0     C18248   2.238   9.158   2.580 -1.0471 -0.5323 -0.5077
  133MOL0     C18249   2.287   9.115   2.713  2.3291 -0.2658 -0.3728
  133MOL0     C18250   2.319   8.983   2.739 -0.2080 -0.3610 -0.4256
  133MOL0     C18251   2.324   8.896   2.632  0.0029  1.0828  0.8658
  133MOL0     O18252   2.338   8.759   2.651  0.0120 -0.3137 -0.0294
  133MOL0     C18253   2.311   8.708   2.779  0.3454  0.0367 -0.3148
  133MOL0     C18254   2.279   8.552   2.752 -0.4029  0.8063 -0.7896
  133MOL0     C18255   2.256   8.480   2.888 -0.6202  0.5786  0.0083
  133MOL0     C18256   2.379   8.481   2.986  0.2413  0.3407  0.5998
  133MOL0     C18257   2.485   8.377   2.943 -0.3126  0.0194  0.1536
  133MOL0     C18258   2.443   8.231   2.929 -0.2796 -1.0108 -0.2917
  133MOL0     C18259   2.570   8.144   2.914 -1.4125  0.4980  0.3142
  133MOL0     C18260   2.548   8.003   2.947  1.1929 -0.0897  0.1339
  133MOL0    Cl18261   2.615   7.942   3.101 -0.0335 -0.2923  0.1634
  133MOL0     C18262   2.297   8.929   2.503  0.9468 -0.2600 -0.0998
  133MOL0     C18263   2.247   9.060   2.478 -0.1396  0.1020 -0.3131
  133MOL0     O18264   2.278   9.324   2.364  0.2239 -0.7256  0.6748
  133MOL0     C18265   2.027   9.502   2.548  0.0424 -0.4660 -0.3435
  133MOL0     C18266   1.942   9.609   2.537  0.5142  0.0790  0.0447
  133MOL0     N18267   1.381   9.883   2.349  0.0945 -0.7182  0.0693
  133MOL0     N18268   1.359   9.864   2.472  0.6520  0.5462  0.1850
  133MOL0     C18269   1.902   9.857   3.560 -0.7796 -0.2144 -0.6533
  133MOL0     C18270   1.998   9.950   3.595 -0.3879  0.3713 -0.9105
  133MOL0     C18271   2.421  10.106   3.673 -0.0593  0.5104  0.0721
  133MOL0     C18272   2.374  10.237   3.694 -0.2298 -0.5448  0.6825
  133MOL0     C18273   2.462  10.321   3.756 -0.5062 -0.7852 -0.5129
  133MOL0     C18274   2.590  10.296   3.791  1.5478  0.3625  0.0464
  133MOL0     O18275   2.654  10.415   3.830 -0.1730 -0.1882  0.0775
  133MOL0     C18276   2.788  10.424   3.820  0.6538  0.0862 -0.7744
  133MOL0     C18277   2.835  10.572   3.838  0.4203  0.7237  0.0046
  133MOL0     C18278   2.782  10.675   3.744  0.4580 -0.5490  0.7677
  133MOL0     C18279   2.826  10.815   3.778 -0.4772 -0.8121  1.0891
  133MOL0     C18280   2.960  10.854   3.722 -0.3869 -0.9415 -0.6786
  133MOL0     C18281   3.074  10.882   3.683  0.4573  0.2626  0.2134
  133MOL0     C18282   2.632  10.169   3.775 -0.1959 -0.0029  0.1960
  133MOL0     C18283   2.553  10.068   3.717 -0.8563  0.1678  0.0060
  133MOL0     C18284   2.623   9.936   3.705 -0.3263  0.0565  0.5874
  133MOL0     H18285   2.239   9.860   3.375 -1.0449  1.4535 -2.2124
  133MOL0     H18286   2.078   9.701   3.305  1.1450  1.1610 -0.6366
  133MOL0     H18287   1.689   9.838   3.401 -3.6980  0.1010 -0.5347
  133MOL0     H18288   1.674   9.720   3.523 -2.1261  3.0399 -0.3285
  133MOL0     H18289   1.613   9.550   3.318 -2.9872 -0.7387  1.8499
  133MOL0     H18290   1.504   9.695   3.334  1.2327  2.1499  1.4179
  133MOL0     H18291   1.651   9.804   3.156  1.3574  0.2998  0.9064
  133MOL0     H18292   1.735   9.647   3.151 -0.6603 -3.4377  3.1059
  133MOL0     H18293   1.532   9.533   3.061  0.5457 -0.6814  1.5417
  133MOL0     H18294   1.442   9.672   3.120  0.7568  1.5637 -0.1793
  133MOL0     H18295   1.645   9.707   2.905  0.7073 -0.6899  3.3289
  133MOL0     H18296   1.515   9.813   2.948 -1.8669 -0.6545  0.5076
  133MOL0     H18297   1.459   9.536   2.811 -0.4827 -0.1037 -0.1299
  133MOL0     H18298   1.346   9.674   2.831 -0.0681 -1.2538 -3.0351
  133MOL0     H18299   1.431   9.657   2.610  1.1232  2.5250 -2.6966
  133MOL0     H18300   1.595   9.685   2.667  0.2078  3.3083 -4.6648
  133MOL0     H18301   1.400   9.893   2.744 -0.6002 -0.5919  0.3471
  133MOL0     H18302   1.575   9.895   2.712  0.8365  1.4764 -2.3879
  133MOL0     H18303   1.665   9.964   2.495 -0.2725 -0.1261  0.0780
  133MOL0     H18304   1.639  10.058   2.224 -1.6784 -0.0873  0.2019
  133MOL0     H18305   1.529   9.951   2.130 -2.6332  2.5028  0.4246
  133MOL0     H18306   1.678   9.762   2.277 -1.6476  1.4596  0.4514
  133MOL0     H18307   1.678   9.793   2.108  0.2922 -1.5241  0.8640
  133MOL0     H18308   1.908   9.829   2.147 -2.1685 -1.3795 -1.7477
  133MOL0     H18309   1.848   9.990   2.151  1.0915 -0.2480 -0.7216
  133MOL0     H18310   2.008   9.948   2.365  0.6777 -3.0355  4.5851
  133MOL0     H18311   1.857  10.026   2.382  1.1247  0.3691 -1.2576
  133MOL0     H18312   2.084   9.770   2.272  2.9982 -0.9917 -0.0470
  133MOL0     H18313   2.320   9.534   2.256  1.1912  0.4777 -0.3154
  133MOL0     H18314   2.217   9.652   2.166 -0.0571  1.3164  2.7502
  133MOL0     H18315   2.174   9.475   2.168 -1.5633  0.1702  1.7061
  133MOL0     H18316   2.275   9.198   2.782 -1.7430 -0.6617 -0.3936
  133MOL0     H18317   2.344   8.954   2.840  0.8849  1.1696 -0.2185
  133MOL0     H18318   2.398   8.709   2.845 -0.5509  1.6339  0.9291
  133MOL0     H18319   2.222   8.754   2.823 -0.5833 -3.2746  1.6263
  133MOL0     H18320   2.189   8.544   2.691 -0.8418 -2.4931  0.0694
  133MOL0     H18321   2.362   8.513   2.693 -1.0943 -1.3581 -0.4253
  133MOL0     H18322   2.236   8.375   2.865 -0.8302  0.3878  0.9968
  133MOL0     H18323   2.173   8.526   2.942  0.6782 -0.5525  3.2154
  133MOL0     H18324   2.344   8.454   3.086  0.5697  1.4510  1.0336
  133MOL0     H18325   2.432   8.577   2.990 -2.3597  1.8914  0.3509
  133MOL0     H18326   2.522   8.410   2.846  2.1171  1.2339  1.3924
  133MOL0     H18327   2.578   8.389   3.000  0.4312 -1.3167 -0.7222
  133MOL0     H18328   2.386   8.210   2.838  0.3585 -1.5521 -0.5810
  133MOL0     H18329   2.415   8.210   3.033  2.1328  0.4859  0.7573
  133MOL0     H18330   2.656   8.176   2.974 -3.1394  0.5096  2.9619
  133MOL0     H18331   2.591   8.139   2.807  0.5257  2.0795  0.5629
  133MOL0     H18332   2.582   7.944   2.861 -1.1999  0.4009 -1.2366
  133MOL0     H18333   2.441   7.980   2.954  0.8995  1.7034  3.5758
  133MOL0     H18334   2.294   8.851   2.428 -1.4941  2.7923 -3.5566
  133MOL0     H18335   2.206   9.085   2.380 -0.5736  1.0504  0.0942
  133MOL0     H18336   2.015   9.436   2.633  0.6418  0.4374  0.4616
  133MOL0     H18337   1.850   9.628   2.591 -0.4241  1.6691 -1.9884
  133MOL0     H18338   1.799   9.871   3.590 -1.4372  0.2765 -2.9916
  133MOL0     H18339   1.964  10.022   3.668  2.8734 -0.3441  1.5356
  133MOL0     H18340   2.273  10.278   3.686  0.1619  0.2628 -0.6253
  133MOL0     H18341   2.425  10.422   3.776  1.2290 -0.5686  2.1700
  133MOL0     H18342   2.830  10.358   3.897 -4.8034  0.1850  2.8014
  133MOL0     H18343   2.823  10.385   3.724  0.5344 -3.8404  0.5966
  133MOL0     H18344   2.943  10.556   3.829  0.1190 -0.1772 -3.8162
  133MOL0     H18345   2.801  10.610   3.935 -1.0192 -3.7802  1.5371
  133MOL0     H18346   2.811  10.656   3.641  1.1115 -0.6875  0.9705
  133MOL0     H18347   2.673  10.669   3.755  0.1947 -3.1017 -2.0163
  133MOL0     H18348   2.805  10.842   3.882 -4.0826 -0.7838  0.4828
  133MOL0     H18349   2.757  10.871   3.715 -0.1368 -1.6512 -0.0657
  133MOL0     H18350   3.158  10.929   3.636  1.1656 -0.8800  0.3107
  133MOL0     H18351   2.729  10.147   3.817 -0.1987 -0.3137  0.0476
  133MOL0     H18352   2.722   9.920   3.748 -1.8365 -1.1740  4.0462
  133MOL0     H18353   2.558   9.863   3.755 -2.2449  1.8765  0.9099
  133MOL0     H18354   2.621   9.896   3.603 -1.6605 -3.5576  1.8546
  134MOL0     O18355   5.067   2.750   7.781 -0.8932  0.1065  0.8846
  134MOL0     C18356   4.952   2.727   7.758  0.2542  0.6805  0.7930
  134MOL0     O18357   4.855   2.702   7.840 -0.4966 -0.3785  0.0639
  134MOL0     C18358   4.893   2.680   7.971 -0.2778  0.9811  0.6272
  134MOL0     C18359   4.990   2.592   8.007  0.1009 -0.7153 -0.2989
  134MOL0     C18360   5.005   2.559   8.143 -0.0371 -0.8039  0.8336
  134MOL0     C18361   4.928   2.626   8.238 -0.4266 -0.2975 -0.7624
  134MOL0     O18362   4.953   2.596   8.371 -0.3069  0.5456  0.6711
  134MOL0     C18363   4.849   2.567   8.471  0.8682 -0.8736 -0.4664
  134MOL0     C18364   4.783   2.439   8.427 -1.2776  0.5442  0.2412
  134MOL0     C18365   4.640   2.438   8.476 -0.6527  0.3590 -0.0313
  134MOL0     C18366   4.554   2.323   8.423 -0.1404 -0.8125 -0.4613
  134MOL0     C18367   4.429   2.278   8.502  0.6882  0.0295  0.2346
  134MOL0     C18368   4.305   2.366   8.491  0.1564  0.4641  0.9577
  134MOL0     C18369   4.271   2.394   8.344 -0.3593 -0.0058 -0.7856
  134MOL0     C18370   4.220   2.269   8.272 -0.0737  0.2833 -0.0593
  134MOL0     N18371   4.176   2.294   8.135  0.0346  0.6617  1.1198
  134MOL0     C18372   4.224   2.209   8.028 -0.5813 -0.6128  0.2289
  134MOL0     C18373   4.125   2.217   7.931  0.0480  0.2787 -0.3008
  134MOL0     C18374   4.132   2.156   7.792  0.0368  0.3867  0.3421
  134MOL0     C18375   4.164   2.264   7.682 -0.2342 -0.4326  0.1495
  134MOL0     C18376   4.136   2.205   7.546 -0.0882 -0.0980  0.5301
  134MOL0     C18377   4.243   2.115   7.495 -0.5902 -1.1340 -0.3589
  134MOL0     O18378   4.261   1.995   7.573  0.1755  0.8256 -0.2984
  134MOL0     C18379   4.257   1.868   7.518 -0.1825  0.0628 -0.0418
  134MOL0     C18380   4.364   1.806   7.442 -0.4346  0.3060  0.3028
  134MOL0     C18381   4.347   1.673   7.394 -0.1743 -0.4147  0.6448
  134MOL0     C18382   4.470   1.625   7.318  0.2278  0.7196  0.0621
  134MOL0     C18383   4.222   1.602   7.413 -0.3750  1.0823  0.5167
  134MOL0     C18384   4.186   1.467   7.354  0.3310 -0.1495 -0.5125
  134MOL0     O18385   4.073   1.405   7.391  0.2985 -0.4960  0.2276
  134MOL0     C18386   4.032   1.286   7.340  0.9266 -0.3302  0.2254
  134MOL0     C18387   4.105   1.209   7.254 -0.7767  0.3302  1.1591
  134MOL0     C18388   4.061   1.088   7.206  0.7338 -0.4804 -0.5414
  134MOL0     C18389   3.952   1.027   7.255 -0.1028  0.5774 -0.2498
  134MOL0     O18390   3.898   0.917   7.204 -0.5244  0.0395  0.4931
  134MOL0     C18391   3.937   0.868   7.075  0.0567 -1.3794 -0.0492
  134MOL0     C18392   3.867   0.743   7.041  0.2243 -0.0234  0.6684
  134MOL0     C18393   3.722   0.770   7.010 -0.6464  0.0556 -0.4337
  134MOL0     C18394   3.653   0.644   6.981  0.3868  0.3112  0.0921
  134MOL0     C18395   3.544   0.630   6.876 -0.7055 -1.3148  0.4759
  134MOL0     C18396   3.584   0.643   6.725  0.5121  0.1283 -0.3389
  134MOL0     C18397   3.673   0.528   6.671 -0.3408  0.1893 -0.1552
  134MOL0     C18398   3.718   0.556   6.530  0.6463  0.0927  0.4737
  134MOL0    Cl18399   3.596   0.551   6.401 -0.3200  0.2609  0.4979
  134MOL0     C18400   3.875   1.099   7.344  0.0821  0.4424 -0.6979
  134MOL0     C18401   3.916   1.231   7.390 -0.0016  0.8030 -0.1082
  134MOL0     O18402   4.271   1.425   7.283  0.3643  0.1378 -0.5162
  134MOL0     C18403   4.128   1.666   7.497 -0.2341 -0.2060 -0.2184
  134MOL0     C18404   4.140   1.801   7.540  0.4586  0.5112  0.0598
  134MOL0     N18405   4.030   2.317   7.982  0.4204  0.0875 -0.4102
  134MOL0     N18406   4.061   2.354   8.099  0.1723 -0.0907  0.2137
  134MOL0     C18407   4.817   2.700   8.204 -0.1541 -0.3755 -0.5208
  134MOL0     C18408   4.810   2.736   8.070 -0.8783  0.3468 -0.2485
  134MOL0     C18409   4.915   2.743   7.621 -0.6984  0.4612  0.1261
  134MOL0     C18410   4.863   2.630   7.551  0.0127 -0.0320  0.3645
  134MOL0     C18411   4.807   2.651   7.424  0.0333  0.7896 -0.5325
  134MOL0     C18412   4.823   2.764   7.359  0.9108  0.4450  0.6378
  134MOL0     O18413   4.766   2.767   7.232  0.0719 -0.0459 -0.1742
  134MOL0     C18414   4.781   2.878   7.142 -0.4802 -0.5116  0.3932
  134MOL0     C18415   4.682   2.992   7.159  0.1024  0.7303 -0.4995
  134MOL0     C18416   4.741   3.131   7.118  0.2418 -0.0089  0.3165
  134MOL0     C18417   4.656   3.253   7.141  0.9023 -0.9371  0.1889
  134MOL0     C18418   4.564   3.272   7.027 -1.1082  0.1157  0.1703
  134MOL0     C18419   4.482   3.265   6.938  0.8233  0.5383  0.6354
  134MOL0     C18420   4.873   2.875   7.424  0.5368 -0.0094 -0.2158
  134MOL0     C18421   4.926   2.865   7.556 -0.0734 -0.0310 -0.0477
  134MOL0     C18422   4.980   2.992   7.622 -0.7958  0.5993  0.2719
  134MOL0     H18423   5.039   2.534   7.930 -1.5557 -3.6216  0.6636
  134MOL0     H18424   5.074   2.485   8.182 -1.7491 -2.1846  1.3638
  134MOL0     H18425   4.770   2.642   8.479  1.5822 -0.0876 -0.6404
  134MOL0     H18426   4.904   2.549   8.564  1.0782  0.1323 -0.3848
  134MOL0     H18427   4.782   2.441   8.317  0.4916  0.5369  0.1987
  134MOL0     H18428   4.837   2.349   8.457 -5.3305 -3.1901 -2.3461
  134MOL0     H18429   4.646   2.438   8.585 -1.6153  2.2542  0.0499
  134MOL0     H18430   4.578   2.524   8.449 -0.6637  1.6487  3.5878
  134MOL0     H18431   4.527   2.342   8.318 -0.1610  1.7305 -0.0653
  134MOL0     H18432   4.613   2.232   8.411 -0.5625 -1.1294 -0.1599
  134MOL0     H18433   4.445   2.265   8.610 -0.6688  0.8264  0.5508
  134MOL0     H18434   4.410   2.176   8.468 -3.3322  0.3744  0.9829
  134MOL0     H18435   4.217   2.320   8.538  0.6087 -1.6884 -0.1667
  134MOL0     H18436   4.324   2.456   8.550 -1.1821  0.2714  1.7340
  134MOL0     H18437   4.355   2.438   8.289 -0.7141  1.3504 -0.2677
  134MOL0     H18438   4.194   2.471   8.351 -1.7328 -1.4042  0.0340
  134MOL0     H18439   4.295   2.190   8.269 -0.0364  0.3072 -3.8709
  134MOL0     H18440   4.133   2.228   8.325 -0.7691  0.4754 -1.0283
  134MOL0     H18441   4.323   2.165   8.038  2.2962  4.2804 -2.6527
  134MOL0     H18442   4.038   2.106   7.767  0.9758 -1.2890  0.0521
  134MOL0     H18443   4.212   2.082   7.780 -2.3686 -2.1000 -1.7794
  134MOL0     H18444   4.095   2.349   7.683  0.7968  0.4507 -0.7910
  134MOL0     H18445   4.266   2.304   7.685  0.2586 -1.7064  1.7113
  134MOL0     H18446   4.038   2.156   7.549 -1.6085  2.4480 -2.0857
  134MOL0     H18447   4.131   2.282   7.468  1.6058  1.6929  2.0922
  134MOL0     H18448   4.240   2.105   7.386  0.3746  0.9394 -0.6243
  134MOL0     H18449   4.338   2.164   7.514 -0.2765 -0.5972 -2.9004
  134MOL0     H18450   4.447   1.876   7.431  0.2007 -0.4243  0.3736
  134MOL0     H18451   4.559   1.686   7.335  1.1069 -0.4044 -0.3365
  134MOL0     H18452   4.445   1.653   7.216  0.4489  5.2135  1.0387
  134MOL0     H18453   4.492   1.518   7.330 -0.0997  0.7180  0.7296
  134MOL0     H18454   4.206   1.232   7.220 -1.3233 -0.0214 -0.8389
  134MOL0     H18455   4.111   1.038   7.124  1.9251  1.4819 -1.0767
  134MOL0     H18456   3.916   0.946   7.002  1.9931  1.0383  1.7732
  134MOL0     H18457   4.044   0.848   7.066  0.1103 -2.2617  2.0271
  134MOL0     H18458   3.914   0.709   6.948  0.0505  0.8156  0.2669
  134MOL0     H18459   3.885   0.666   7.116  2.9692  0.5272  0.6794
  134MOL0     H18460   3.717   0.839   6.925 -1.8840 -0.2396 -0.6158
  134MOL0     H18461   3.665   0.822   7.087 -2.1894  0.2168 -1.6181
  134MOL0     H18462   3.611   0.616   7.078 -2.1415  1.1454 -0.6846
  134MOL0     H18463   3.726   0.566   6.960  0.4295 -0.0087  1.3447
  134MOL0     H18464   3.496   0.532   6.881 -0.0442 -1.7662 -1.4381
  134MOL0     H18465   3.469   0.710   6.887  1.6610  1.8912 -3.6371
  134MOL0     H18466   3.644   0.734   6.727  0.9885 -0.1805  2.4447
  134MOL0     H18467   3.496   0.651   6.661  0.2906 -0.4092 -0.1048
  134MOL0     H18468   3.602   0.444   6.676  1.1747 -1.0754  1.3913
  134MOL0     H18469   3.757   0.525   6.741  0.7890 -1.2055 -1.5150
  134MOL0     H18470   3.782   0.470   6.509 -0.9439 -0.3457 -3.4190
  134MOL0     H18471   3.784   0.643   6.521  0.7137 -0.1619 -2.1415
  134MOL0     H18472   3.770   1.074   7.360  0.0758 -1.7792 -3.4629
  134MOL0     H18473   3.837   1.290   7.436 -1.1273  0.4401 -1.4956
  134MOL0     H18474   4.036   1.619   7.530 -0.1786  0.9926  1.8276
  134MOL0     H18475   4.063   1.850   7.599  0.0940 -0.4912  0.4370
  134MOL0     H18476   4.753   2.730   8.286  2.0677  1.7101  0.5884
  134MOL0     H18477   4.725   2.801   8.054  0.3569  2.1589  0.2393
  134MOL0     H18478   4.873   2.535   7.602  1.7460  0.3331  0.7569
  134MOL0     H18479   4.741   2.575   7.383  0.2132  0.0552  0.5249
  134MOL0     H18480   4.877   2.922   7.168 -0.7910 -0.9379  2.3968
  134MOL0     H18481   4.779   2.842   7.038 -1.9649 -1.6587  0.7788
  134MOL0     H18482   4.643   2.996   7.261  1.8274 -0.8128  0.2729
  134MOL0     H18483   4.595   2.977   7.095  0.3506 -3.0637 -0.1694
  134MOL0     H18484   4.834   3.142   7.174  0.7983  0.8461 -0.7642
  134MOL0     H18485   4.757   3.121   7.011 -4.2667 -1.9218 -0.4419
  134MOL0     H18486   4.717   3.344   7.151 -1.7379  0.8898  0.4960
  134MOL0     H18487   4.587   3.246   7.225  0.0680  1.2525 -0.2560
  134MOL0     H18488   4.408   3.238   6.865  0.7676 -2.8424  1.7995
  134MOL0     H18489   4.869   2.974   7.378  2.0744  2.0661  3.6112
  134MOL0     H18490   4.927   3.003   7.718 -1.9517 -0.1138 -0.2573
  134MOL0     H18491   5.085   2.978   7.646 -0.4262 -2.7404 -2.5750
  134MOL0     H18492   4.961   3.086   7.569 -0.6637  0.9061  0.7656
  135MOL0     O18493  11.234   5.864   6.141  1.1550  0.3614 -0.7900
  135MOL0     C18494  11.298   5.895   6.046 -0.7487 -0.0137  0.4816
  135MOL0     O18495  11.323   5.819   5.933  0.1088  0.5051 -0.7137
  135MOL0     C18496  11.268   5.691   5.915  0.4775  0.3796 -0.2865
  135MOL0     C18497  11.140   5.666   5.854  1.0476 -0.4362  0.3071
  135MOL0     C18498  11.095   5.540   5.809  0.0315 -0.5403  0.3503
  135MOL0     C18499  11.177   5.426   5.827 -1.7206  0.0713 -0.1933
  135MOL0     O18500  11.148   5.299   5.789 -0.3540  0.4518  0.6302
  135MOL0     C18501  11.007   5.255   5.786 -0.6560 -0.5183 -1.1197
  135MOL0     C18502  10.989   5.115   5.832 -0.5377  0.9166  1.4527
  135MOL0     C18503  11.075   5.016   5.754 -0.6648  0.1727  0.1392
  135MOL0     C18504  11.045   4.860   5.748 -0.3256  0.3745  0.2082
  135MOL0     C18505  11.170   4.777   5.719  1.0850  0.1215  0.2694
  135MOL0     C18506  11.221   4.803   5.585 -0.9415  0.7351 -0.2880
  135MOL0     C18507  11.370   4.772   5.581 -0.1502  0.7975  0.6343
  135MOL0     C18508  11.410   4.775   5.439  0.3252  1.0541 -0.0227
  135MOL0     N18509  11.560   4.774   5.421 -0.6191 -0.5351 -0.0057
  135MOL0     C18510  11.651   4.685   5.481 -0.0693 -0.4585 -0.1408
  135MOL0     C18511  11.765   4.691   5.410 -0.0109  0.1035 -0.2950
  135MOL0     C18512  11.871   4.589   5.438 -0.0149 -0.2860  0.8702
  135MOL0     C18513  11.913   4.595   5.596  0.6357 -0.2489  0.0827
  135MOL0     C18514  12.014   4.483   5.613 -0.0527 -0.2211  0.5076
  135MOL0     C18515  12.054   4.431   5.762  0.5216 -0.5717  0.2015
  135MOL0     O18516  11.940   4.364   5.823 -0.5038 -0.2225 -0.4710
  135MOL0     C18517  11.908   4.399   5.950  0.1384 -0.1630 -0.5948
  135MOL0     C18518  11.953   4.320   6.049 -0.4312 -0.2299  0.0429
  135MOL0     C18519  11.931   4.346   6.188 -0.8332 -0.4864  1.0879
  135MOL0     C18520  12.002   4.249   6.279 -0.1129 -0.1459  0.0016
  135MOL0     C18521  11.855   4.456   6.219  0.8346 -0.9422 -0.5213
  135MOL0     C18522  11.818   4.499   6.353  1.2348 -0.5256 -0.1005
  135MOL0     O18523  11.703   4.566   6.372  0.0774  0.1668 -0.3119
  135MOL0     C18524  11.683   4.630   6.493  0.1724  0.4398 -0.3614
  135MOL0     C18525  11.682   4.556   6.613 -0.8575  0.2252  0.8339
  135MOL0     C18526  11.639   4.619   6.726 -0.8801  0.3509  1.2701
  135MOL0     C18527  11.597   4.758   6.729 -0.0019  0.7161  0.6062
  135MOL0     O18528  11.549   4.813   6.837  0.1728 -0.6371 -0.5054
  135MOL0     C18529  11.467   4.743   6.935  0.5284 -0.5730  1.5269
  135MOL0     C18530  11.363   4.638   6.873 -0.3924 -0.0826  0.0158
  135MOL0     C18531  11.266   4.677   6.765  1.2383 -0.1497  0.0439
  135MOL0     C18532  11.188   4.811   6.793  1.0145  0.8450 -0.0458
  135MOL0     C18533  11.089   4.836   6.680  0.1492 -0.7321 -0.5733
  135MOL0     C18534  11.009   4.964   6.694 -0.1828 -0.6684 -0.9064
  135MOL0     C18535  11.097   5.091   6.686  0.0820  0.2081 -0.1429
  135MOL0     C18536  11.022   5.202   6.632 -0.1925  0.0117  0.0446
  135MOL0    Cl18537  10.885   5.274   6.722 -0.0817  0.4577 -0.3882
  135MOL0     C18538  11.608   4.833   6.610 -0.7387  0.7355 -0.1063
  135MOL0     C18539  11.653   4.768   6.496  0.7473 -0.2829  0.4997
  135MOL0     O18540  11.903   4.483   6.444  0.1964  0.1121 -0.6834
  135MOL0     C18541  11.813   4.550   6.119 -0.4650  1.6640 -0.1239
  135MOL0     C18542  11.830   4.506   5.983  0.3771 -0.2897 -0.9478
  135MOL0     N18543  11.749   4.787   5.305 -0.2493  0.3266 -0.8567
  135MOL0     N18544  11.634   4.842   5.322 -0.4153 -0.1379  0.3625
  135MOL0     C18545  11.301   5.450   5.888 -0.2558 -0.9129  0.4603
  135MOL0     C18546  11.343   5.585   5.937  0.7323 -0.4658  0.2845
  135MOL0     C18547  11.372   6.019   6.076  0.4973 -0.1982  0.3329
  135MOL0     C18548  11.322   6.102   6.183 -0.1133  0.6459 -0.5185
  135MOL0     C18549  11.375   6.220   6.218 -0.0933 -0.9291  0.3348
  135MOL0     C18550  11.490   6.264   6.153  0.1124 -0.3276  0.7608
  135MOL0     O18551  11.545   6.381   6.205 -0.1436  0.6170 -0.5620
  135MOL0     C18552  11.616   6.469   6.118 -0.0943  0.0449  0.6646
  135MOL0     C18553  11.533   6.529   6.005  0.6523  0.2621  0.3903
  135MOL0     C18554  11.407   6.592   6.066 -0.2707 -0.4345  0.0096
  135MOL0     C18555  11.315   6.666   5.956 -0.3319 -0.2763 -0.1154
  135MOL0     C18556  11.363   6.679   5.817  0.2193 -0.2873 -0.0049
  135MOL0     C18557  11.408   6.689   5.703  0.1471  1.2507 -0.6866
  135MOL0     C18558  11.548   6.188   6.058  0.5652 -0.4444  0.7779
  135MOL0     C18559  11.493   6.067   6.013 -1.0147 -0.1579  1.0641
  135MOL0     C18560  11.574   5.998   5.907  0.1256  0.3161  0.4289
  135MOL0     H18561  11.081   5.756   5.841  0.6124 -0.6472  0.8105
  135MOL0     H18562  11.001   5.525   5.758  0.5403 -1.5499 -0.3081
  135MOL0     H18563  10.976   5.262   5.682  2.9422  1.6352 -2.2058
  135MOL0     H18564  10.945   5.320   5.849 -0.1993  0.0137 -1.2155
  135MOL0     H18565  11.019   5.109   5.937 -0.4974  1.0722  1.4493
  135MOL0     H18566  10.886   5.079   5.820 -0.9633  2.8930 -1.7497
  135MOL0     H18567  11.088   5.044   5.649  0.8243 -3.6436 -0.8699
  135MOL0     H18568  11.180   5.034   5.781  0.5414  2.8231 -4.9751
  135MOL0     H18569  10.999   4.842   5.845  1.8401 -1.1102  1.0087
  135MOL0     H18570  10.963   4.850   5.675 -1.4022  4.7265  0.5429
  135MOL0     H18571  11.130   4.676   5.711  3.4128 -0.6659 -3.7387
  135MOL0     H18572  11.247   4.794   5.795 -0.0184  3.8337  0.7529
  135MOL0     H18573  11.158   4.747   5.514 -2.0258 -1.1167  1.9973
  135MOL0     H18574  11.213   4.909   5.561 -2.0839  1.3922  2.6469
  135MOL0     H18575  11.383   4.670   5.618  1.8200  0.7980  0.0874
  135MOL0     H18576  11.428   4.848   5.635  0.7241  1.0633 -0.6270
  135MOL0     H18577  11.379   4.685   5.386  2.1706  0.6457 -0.4876
  135MOL0     H18578  11.369   4.867   5.398  0.7709  1.1353 -0.2883
  135MOL0     H18579  11.625   4.619   5.563  0.2081 -2.3922 -1.5135
  135MOL0     H18580  11.957   4.616   5.376 -1.3381 -1.8591 -1.8302
  135MOL0     H18581  11.838   4.489   5.406  1.0291 -0.4781  0.3317
  135MOL0     H18582  11.960   4.690   5.622 -2.2182  1.8555 -1.8644
  135MOL0     H18583  11.830   4.571   5.663  1.8416 -1.4633  1.2280
  135MOL0     H18584  11.976   4.404   5.548  1.4485 -0.2712 -0.3486
  135MOL0     H18585  12.110   4.516   5.572  0.2045 -0.4299  0.9354
  135MOL0     H18586  12.135   4.357   5.756 -1.1538 -2.4490 -0.5477
  135MOL0     H18587  12.078   4.521   5.819 -3.1215  0.5957  0.1162
  135MOL0     H18588  12.023   4.243   6.018  3.1057  3.4942 -2.2668
  135MOL0     H18589  12.094   4.285   6.325 -1.1441 -0.6871  2.7172
  135MOL0     H18590  12.032   4.160   6.224  0.5188 -0.5161  0.9209
  135MOL0     H18591  11.921   4.230   6.351 -0.2123  2.0931  0.5537
  135MOL0     H18592  11.704   4.450   6.611  0.5726  0.4964  1.3849
  135MOL0     H18593  11.658   4.561   6.816 -2.4851  2.0468  2.7883
  135MOL0     H18594  11.536   4.697   7.006  1.6023 -0.1645  0.7637
  135MOL0     H18595  11.407   4.814   6.993 -0.4658  0.4807 -0.6696
  135MOL0     H18596  11.419   4.548   6.848  1.2866  1.4112 -1.9364
  135MOL0     H18597  11.294   4.615   6.955  0.3097 -3.8484 -0.2889
  135MOL0     H18598  11.199   4.593   6.747  1.0461  0.3842 -1.9472
  135MOL0     H18599  11.311   4.679   6.666 -3.2601 -2.5022 -2.3572
  135MOL0     H18600  11.261   4.891   6.804  1.4950  0.2036  1.7687
  135MOL0     H18601  11.122   4.797   6.879  0.3474  0.7411 -0.5635
  135MOL0     H18602  11.150   4.854   6.591 -0.1797  0.4713 -0.5649
  135MOL0     H18603  11.022   4.753   6.656 -4.6181  2.5922 -0.0439
  135MOL0     H18604  10.956   4.965   6.789 -2.0068  2.3956 -1.7929
  135MOL0     H18605  10.929   4.979   6.620 -0.2278  0.3043 -0.6788
  135MOL0     H18606  11.181   5.077   6.617  1.6390  0.1290  1.6687
  135MOL0     H18607  11.138   5.133   6.778  1.9959 -0.4096 -0.6562
  135MOL0     H18608  10.983   5.171   6.535  0.6262 -0.6490 -0.0885
  135MOL0     H18609  11.095   5.280   6.609 -0.3952  0.1284 -0.2085
  135MOL0     H18610  11.573   4.935   6.616 -0.5967  0.7944 -0.2685
  135MOL0     H18611  11.671   4.819   6.402  1.9792  0.8491  1.3192
  135MOL0     H18612  11.752   4.640   6.129 -1.0454  1.4554 -1.6124
  135MOL0     H18613  11.782   4.559   5.901 -1.2958  1.4797  1.0378
  135MOL0     H18614  11.378   5.378   5.910  1.6725  0.0766 -2.4549
  135MOL0     H18615  11.443   5.605   5.975  1.0710 -1.2054 -0.1903
  135MOL0     H18616  11.226   6.074   6.225 -1.1914  5.2723  0.6115
  135MOL0     H18617  11.327   6.277   6.297  3.6903  1.9622  0.7915
  135MOL0     H18618  11.650   6.546   6.188  0.1824  0.0799  0.4966
  135MOL0     H18619  11.708   6.422   6.082 -1.1445 -3.8470  2.4766
  135MOL0     H18620  11.521   6.449   5.932  3.3101 -1.5995  1.8037
  135MOL0     H18621  11.574   6.606   5.939 -0.5776 -0.7723 -1.7003
  135MOL0     H18622  11.356   6.512   6.120  1.4844 -0.4532  1.7375
  135MOL0     H18623  11.445   6.672   6.130  2.5732  0.1159 -2.1671
  135MOL0     H18624  11.284   6.756   6.011  0.2541 -1.7193  2.8048
  135MOL0     H18625  11.215   6.623   5.944 -1.7728  2.6319  0.5670
  135MOL0     H18626  11.438   6.689   5.600  3.2412 -0.4893  0.0612
  135MOL0     H18627  11.630   6.227   5.999 -2.0306 -1.1221 -3.6593
  135MOL0     H18628  11.680   6.021   5.902 -0.0760  1.0100 -1.4095
  135MOL0     H18629  11.553   5.892   5.924 -5.6862  1.3679  2.2672
  135MOL0     H18630  11.542   6.039   5.810  4.1441 -0.3047 -1.3811
  136MOL0     O18631  11.185  10.249   8.174 -0.1561 -0.2277 -0.0415
  136MOL0     C18632  11.178  10.238   8.051 -0.6628 -0.6337 -0.7541
  136MOL0     O18633  11.056  10.220   7.982 -0.8533 -0.6966 -0.1216
  136MOL0     C18634  10.942  10.214   8.056 -0.0895  0.2888  0.1177
  136MOL0     C18635  10.912  10.112   8.151 -0.1424 -0.1525 -0.7476
  136MOL0     C18636  10.787  10.116   8.210 -0.0919  0.4253  0.3302
  136MOL0     C18637  10.697  10.222   8.179  0.8940  0.0825 -0.4403
  136MOL0     O18638  10.583  10.240   8.273  0.3128  1.2412 -0.4239
  136MOL0     C18639  10.477  10.333   8.234  0.1908 -0.3425 -1.1662
  136MOL0     C18640  10.356  10.302   8.319  0.6497  0.2298  0.3377
  136MOL0     C18641  10.388  10.318   8.474  0.8748  1.2960 -0.6789
  136MOL0     C18642  10.265  10.325   8.562 -0.7733 -0.3580 -0.3481
  136MOL0     C18643  10.283  10.433   8.678  0.2242  0.4141 -0.2458
  136MOL0     C18644  10.262  10.581   8.634  0.0080 -0.9882  0.1306
  136MOL0     C18645  10.251  10.688   8.742 -0.2735  0.2178  1.6296
  136MOL0     C18646  10.281  10.829   8.693 -0.3036 -0.5962  0.6607
  136MOL0     N18647  10.187  10.870   8.594  0.0001 -0.1633  0.0542
  136MOL0     C18648  10.060  10.905   8.623 -0.6229  0.0855 -0.7548
  136MOL0     C18649   9.997  10.920   8.507  0.0212 -0.2383 -0.7694
  136MOL0     C18650   9.859  10.974   8.478 -0.5398 -0.4459  0.0046
  136MOL0     C18651   9.777  10.871   8.419 -0.5167  0.7953  1.1764
  136MOL0     C18652   9.688  10.915   8.304  0.4216  0.2684 -0.1512
  136MOL0     C18653   9.766  10.936   8.174 -0.0826  0.1708  0.0476
  136MOL0     O18654   9.665  10.977   8.087  0.1582 -0.9977  0.2326
  136MOL0     C18655   9.709  11.001   7.958  0.4991 -0.2142  0.2569
  136MOL0     C18656   9.842  10.995   7.914 -0.1547 -0.6804 -0.1449
  136MOL0     C18657   9.865  11.006   7.775  0.0228 -0.1127  0.1322
  136MOL0     C18658  10.005  11.022   7.717  0.6617 -0.2461  0.2753
  136MOL0     C18659   9.756  11.018   7.686 -0.3016  0.1325 -0.9351
  136MOL0     C18660   9.769  11.011   7.536 -0.4701 -1.2785  0.4906
  136MOL0     O18661   9.688  11.100   7.458 -0.3365 -0.2308 -0.4328
  136MOL0     C18662   9.657  11.069   7.332  0.3408  0.7418  0.0592
  136MOL0     C18663   9.576  10.954   7.300 -0.2878  0.4198  0.2685
  136MOL0     C18664   9.552  10.922   7.168 -0.3275  0.6432  0.8116
  136MOL0     C18665   9.599  11.003   7.062  0.0958 -0.2982  0.8615
  136MOL0     O18666   9.581  10.988   6.922 -0.1708  0.8041 -0.7778
  136MOL0     C18667   9.599  10.859   6.866  0.6899  0.6764 -0.6587
  136MOL0     C18668   9.476  10.833   6.777  0.5649 -0.3738  0.1053
  136MOL0     C18669   9.449  10.927   6.654 -1.1715  0.9537  0.1231
  136MOL0     C18670   9.317  10.883   6.578  0.2445  0.0141 -0.4772
  136MOL0     C18671   9.192  10.948   6.654  0.1244 -0.1425  0.1414
  136MOL0     C18672   9.059  10.890   6.601 -1.0537  0.0202 -0.7403
  136MOL0     C18673   9.038  10.745   6.645  0.5181  0.9784 -0.4498
  136MOL0     C18674   8.896  10.693   6.643 -0.0461  0.0043  0.4360
  136MOL0    Cl18675   8.820  10.710   6.481 -0.0303 -0.1842  0.2339
  136MOL0     C18676   9.674  11.116   7.104  0.4788 -0.4457 -0.2801
  136MOL0     C18677   9.714  11.145   7.229 -0.2699 -0.3161 -0.5809
  136MOL0     O18678   9.846  10.926   7.496 -0.0237  0.0376 -0.5491
  136MOL0     C18679   9.627  11.041   7.736  0.0279 -1.8334  0.3083
  136MOL0     C18680   9.605  11.046   7.872 -0.2323 -0.4813 -0.8012
  136MOL0     N18681  10.093  10.893   8.412  0.9824  0.5478  0.5498
  136MOL0     N18682  10.203  10.856   8.462  0.1904  0.4109 -0.7681
  136MOL0     C18683  10.710  10.298   8.071 -0.4069  0.7858  0.2579
  136MOL0     C18684  10.842  10.298   8.017 -0.5721  0.3483  0.3519
  136MOL0     C18685  11.291  10.259   7.963  0.4816  0.4029 -1.2020
  136MOL0     C18686  11.281  10.215   7.830  0.2791 -0.6962 -0.5947
  136MOL0     C18687  11.392  10.225   7.743 -0.2741  0.2235  0.5885
  136MOL0     C18688  11.514  10.282   7.783  0.0614 -0.7827  0.2853
  136MOL0     O18689  11.625  10.295   7.702 -0.3284  0.2890  0.4622
  136MOL0     C18690  11.650  10.209   7.579  1.5123  0.3621 -0.7297
  136MOL0     C18691  11.770  10.105   7.604 -0.6767  0.1411 -0.0278
  136MOL0     C18692  11.747  10.018   7.734  0.8854 -0.2816  0.7013
  136MOL0     C18693  11.830   9.894   7.740 -0.1482 -1.0480  0.5799
  136MOL0     C18694  11.978   9.919   7.765 -1.0315 -0.1282 -0.8211
  136MOL0     C18695  12.089   9.936   7.811  0.5492 -0.9847  0.0377
  136MOL0     C18696  11.514  10.335   7.912 -0.5433  0.2439 -0.1783
  136MOL0     C18697  11.414  10.310   8.009  0.1814 -0.2130 -0.3205
  136MOL0     C18698  11.433  10.375   8.149  0.0021  0.9310 -0.2869
  136MOL0     H18699  10.990  10.039   8.166  0.1654  0.2421 -0.4019
  136MOL0     H18700  10.761  10.054   8.295 -0.3499  0.6034  0.3828
  136MOL0     H18701  10.447  10.316   8.130  0.2352 -1.6630 -0.9782
  136MOL0     H18702  10.519  10.433   8.248 -0.7639 -0.2269  1.6030
  136MOL0     H18703  10.279  10.376   8.295 -1.6162 -2.0650  0.1514
  136MOL0     H18704  10.321  10.200   8.300  0.9865  0.1875 -0.0470
  136MOL0     H18705  10.439  10.224   8.499 -3.8931 -3.1210 -5.2926
  136MOL0     H18706  10.459  10.402   8.478  3.2224 -0.6116  1.6879
  136MOL0     H18707  10.171  10.346   8.509 -1.7904  0.1864  1.5886
  136MOL0     H18708  10.252  10.226   8.606  1.3339 -1.1866 -1.4476
  136MOL0     H18709  10.374  10.423   8.737 -0.6818 -5.3258  0.7740
  136MOL0     H18710  10.207  10.405   8.750 -1.4330  2.8307 -0.9030
  136MOL0     H18711  10.342  10.610   8.565 -1.9702  1.4982 -1.2991
  136MOL0     H18712  10.174  10.584   8.569  0.3251  0.3625 -0.2777
  136MOL0     H18713  10.313  10.668   8.830  1.3659  0.9199  0.6781
  136MOL0     H18714  10.153  10.679   8.789 -0.5227 -1.2274  0.8805
  136MOL0     H18715  10.273  10.897   8.778 -0.5730 -1.0062  0.9690
  136MOL0     H18716  10.374  10.843   8.637 -2.7989  0.4349 -3.7064
  136MOL0     H18717  10.026  10.924   8.724  1.1710 -0.6818  0.0379
  136MOL0     H18718   9.865  11.051   8.400 -0.4450 -0.4789 -0.0201
  136MOL0     H18719   9.831  11.005   8.579  1.8323  0.9615  0.2750
  136MOL0     H18720   9.839  10.787   8.385 -0.6228  1.3861 -0.5799
  136MOL0     H18721   9.712  10.838   8.501  0.8131  1.3408  2.4816
  136MOL0     H18722   9.613  10.840   8.278  0.2941 -0.4004  1.9968
  136MOL0     H18723   9.625  10.999   8.335 -0.3662 -0.5517  0.5041
  136MOL0     H18724   9.841  11.016   8.179 -3.5371  3.9850 -2.3358
  136MOL0     H18725   9.814  10.842   8.143  0.1428  0.7217 -1.3386
  136MOL0     H18726   9.925  10.978   7.982 -0.3837  4.7338  2.0139
  136MOL0     H18727  10.073  11.027   7.802 -0.1265 -2.9871  1.1895
  136MOL0     H18728  10.016  11.110   7.653  0.8116 -1.8203 -2.0115
  136MOL0     H18729  10.041  10.942   7.652 -1.1585 -1.2413  0.4316
  136MOL0     H18730   9.558  10.882   7.379 -1.8787 -1.6448 -1.7918
  136MOL0     H18731   9.502  10.826   7.155  3.8911 -1.7671  0.8074
  136MOL0     H18732   9.691  10.854   6.807  0.3710 -0.5986 -1.0783
  136MOL0     H18733   9.605  10.783   6.944 -0.3438 -1.1782 -2.2939
  136MOL0     H18734   9.480  10.731   6.738 -1.8458 -0.8906  1.0118
  136MOL0     H18735   9.390  10.831   6.845 -0.1374  0.6300 -0.7129
  136MOL0     H18736   9.533  10.917   6.585  0.9644  0.6977  2.5862
  136MOL0     H18737   9.441  11.032   6.683  0.6165  0.8300  1.2187
  136MOL0     H18738   9.321  10.774   6.586 -0.9161  0.0953  4.6407
  136MOL0     H18739   9.322  10.913   6.473  2.4526 -1.6848 -0.9180
  136MOL0     H18740   9.205  10.932   6.761 -0.8992  0.6911  0.4026
  136MOL0     H18741   9.195  11.057   6.642  0.5813  0.0967  2.1583
  136MOL0     H18742   9.063  10.899   6.492  0.3267 -2.6539 -0.9787
  136MOL0     H18743   8.975  10.945   6.646  1.3117  3.5651 -0.2243
  136MOL0     H18744   9.088  10.725   6.740 -0.4278  0.1743 -0.1040
  136MOL0     H18745   9.098  10.686   6.575  2.0536  1.1202  0.6979
  136MOL0     H18746   8.835  10.741   6.720  0.5699 -2.5883  2.7244
  136MOL0     H18747   8.894  10.587   6.670 -0.4266 -0.3127 -0.7964
  136MOL0     H18748   9.711  11.180   7.025  0.3561  0.0338  0.0448
  136MOL0     H18749   9.799  11.210   7.245  2.1079 -3.5084  0.6156
  136MOL0     H18750   9.548  11.066   7.667  0.5503  0.8461  0.5820
  136MOL0     H18751   9.514  11.076   7.922  0.9548 -1.0208  1.8413
  136MOL0     H18752  10.641  10.375   8.036 -2.2979  0.1565  2.3919
  136MOL0     H18753  10.875  10.363   7.937  0.4699  0.0988  0.5659
  136MOL0     H18754  11.192  10.167   7.791 -1.1975 -0.0017  1.7377
  136MOL0     H18755  11.374  10.207   7.637  0.0652  2.8627  0.0221
  136MOL0     H18756  11.558  10.155   7.556  0.7101  1.1642  0.4888
  136MOL0     H18757  11.678  10.265   7.490 -0.1081 -0.8665 -2.0594
  136MOL0     H18758  11.865  10.160   7.611  0.1704 -1.3591  1.0802
  136MOL0     H18759  11.775  10.041   7.515 -1.8135  1.4056 -1.0450
  136MOL0     H18760  11.766  10.084   7.819  0.2043  2.3334 -1.0447
  136MOL0     H18761  11.639  10.004   7.720  0.5755  1.8842  0.5272
  136MOL0     H18762  11.822   9.841   7.645  0.8916 -1.0244  0.4739
  136MOL0     H18763  11.777   9.826   7.809 -0.1735 -0.6962  0.9097
  136MOL0     H18764  12.187   9.945   7.853  1.2009 -2.6466 -1.0232
  136MOL0     H18765  11.602  10.385   7.950 -2.1649  2.0434  1.4326
  136MOL0     H18766  11.510  10.453   8.153  1.8208 -0.6684 -1.7611
  136MOL0     H18767  11.342  10.426   8.180  0.2339  1.9220 -1.1850
  136MOL0     H18768  11.451  10.291   8.217  1.6790  1.2252 -0.3263
  137MOL0     O18769   2.812   9.995  11.273 -0.3859 -0.0060 -1.0663
  137MOL0     C18770   2.899   9.914  11.247  0.2630  0.6385  0.8241
  137MOL0     O18771   2.916   9.790  11.308 -0.2775 -0.8147  0.0366
  137MOL0     C18772   2.835   9.775  11.415  0.3708  1.3083 -0.1344
  137MOL0     C18773   2.872   9.772  11.546  0.1619 -0.4240 -0.2785
  137MOL0     C18774   2.786   9.778  11.650  0.3045 -0.4179  0.2167
  137MOL0     C18775   2.646   9.762  11.639 -0.3672  0.3294  0.3781
  137MOL0     O18776   2.556   9.780  11.740 -0.0436 -0.2659 -0.1864
  137MOL0     C18777   2.596   9.835  11.870 -0.3394  0.1201  0.5143
  137MOL0     C18778   2.600   9.990  11.872  0.4310  0.4771 -0.0274
  137MOL0     C18779   2.468  10.037  11.832  1.1447 -1.2328  1.1529
  137MOL0     C18780   2.466  10.167  11.765 -0.0485 -0.1834 -0.3039
  137MOL0     C18781   2.326  10.238  11.754 -0.4758  0.1679  0.0514
  137MOL0     C18782   2.316  10.383  11.699 -0.6853  0.4302 -0.6427
  137MOL0     C18783   2.400  10.491  11.781  0.7092  0.1452  0.7449
  137MOL0     C18784   2.352  10.487  11.930  0.7489  0.2493 -0.5960
  137MOL0     N18785   2.212  10.500  11.970 -0.0046 -0.1130 -0.8741
  137MOL0     C18786   2.145  10.619  11.978  0.4326 -0.4149 -0.5421
  137MOL0     C18787   2.051  10.606  12.073  0.3027  0.1558  0.8268
  137MOL0     C18788   1.933  10.689  12.112 -0.0298  0.0111 -0.7167
  137MOL0     C18789   1.963  10.797  12.220  0.2093  0.7663  1.0608
  137MOL0     C18790   2.028  10.743  12.345  0.4004  0.5650  0.4270
  137MOL0     C18791   2.036  10.831  12.466 -0.0090 -0.6341  0.7963
  137MOL0     O18792   2.175  10.893  12.462  0.2942  0.5427  0.6515
  137MOL0     C18793   2.201  10.995  12.543 -0.0336  0.0110  0.6978
  137MOL0     C18794   2.214  10.972  12.673  0.4660  0.0853 -0.0576
  137MOL0     C18795   2.252  11.067  12.764 -0.9882 -0.3284 -0.1166
  137MOL0     C18796   2.258  11.020  12.912  0.4999 -0.1445 -1.1453
  137MOL0     C18797   2.288  11.195  12.719  0.2374 -0.1987 -0.1286
  137MOL0     C18798   2.343  11.301  12.802  0.6728 -0.3309 -0.9091
  137MOL0     O18799   2.408  11.398  12.735 -0.8174  0.0420  0.3176
  137MOL0     C18800   2.484  11.494  12.796  0.2650 -0.6193 -0.3874
  137MOL0     C18801   2.602  11.533  12.729  0.1624  1.7172 -0.3980
  137MOL0     C18802   2.684  11.634  12.780  1.3637 -0.6930  0.1670
  137MOL0     C18803   2.653  11.678  12.909  0.1618 -0.2107  0.8391
  137MOL0     O18804   2.737  11.761  12.981  0.3485 -0.5955 -0.2782
  137MOL0     C18805   2.870  11.722  12.956  1.5434  0.0929 -0.8323
  137MOL0     C18806   2.957  11.759  13.074  0.3361 -0.6880  0.5147
  137MOL0     C18807   3.054  11.877  13.054  0.3357  0.1090  0.2983
  137MOL0     C18808   2.984  11.988  12.955  0.4352  0.3598 -0.5118
  137MOL0     C18809   3.068  12.119  12.942 -0.1503 -0.3318  0.6043
  137MOL0     C18810   3.071  12.213  13.062  0.2121  0.9262  0.8091
  137MOL0     C18811   3.175  12.319  13.024 -0.4065  0.6949  0.1984
  137MOL0     C18812   3.203  12.416  13.135 -0.4476 -0.1836 -0.2825
  137MOL0    Cl18813   3.061  12.514  13.175  0.0821  0.1332  0.3378
  137MOL0     C18814   2.533  11.636  12.979  0.4963 -0.4937 -0.1315
  137MOL0     C18815   2.447  11.551  12.916  0.1094  1.2085 -0.8525
  137MOL0     O18816   2.314  11.308  12.923  0.4690  0.4752  0.3630
  137MOL0     C18817   2.252  11.225  12.582 -1.3077 -0.6612  0.7174
  137MOL0     C18818   2.221  11.124  12.497  0.3853 -0.2309  0.5618
  137MOL0     N18819   2.064  10.474  12.118  0.5426  0.1075 -0.3346
  137MOL0     N18820   2.160  10.412  12.059  0.2915  0.4843 -0.4830
  137MOL0     C18821   2.605   9.769  11.507  0.4739 -0.6797 -0.2264
  137MOL0     C18822   2.701   9.768  11.396  0.6310  0.0930 -0.0172
  137MOL0     C18823   2.979   9.944  11.130 -0.5473 -0.6943  0.7675
  137MOL0     C18824   2.945  10.049  11.043 -0.3401  0.2752  0.8287
  137MOL0     C18825   2.995  10.053  10.916 -0.9399 -0.9093  0.4383
  137MOL0     C18826   3.096   9.967  10.876 -0.2643  0.8788  1.4075
  137MOL0     O18827   3.146   9.950  10.744  0.3327  0.2104  0.0681
  137MOL0     C18828   3.111  10.061  10.654 -0.5573 -0.7177 -0.3235
  137MOL0     C18829   3.164  10.025  10.520  1.4951  0.3603  0.6503
  137MOL0     C18830   3.114  10.111  10.404 -0.4792 -0.0958  0.4630
  137MOL0     C18831   3.188  10.082  10.265 -0.2679 -0.7003 -0.3866
  137MOL0     C18832   3.324  10.135  10.280  0.0164 -0.2138 -0.8997
  137MOL0     C18833   3.436  10.178  10.291  0.8048  0.4252  0.4699
  137MOL0     C18834   3.143   9.877  10.965 -0.4175 -0.3803 -0.3774
  137MOL0     C18835   3.086   9.857  11.091 -0.3211 -1.3888  0.2398
  137MOL0     C18836   3.150   9.764  11.186  0.1665  0.2228  0.1816
  137MOL0     H18837   2.977   9.772  11.576 -0.0386 -4.0671  0.9128
  137MOL0     H18838   2.826   9.787  11.750 -0.3092  2.9282  0.2703
  137MOL0     H18839   2.693   9.787  11.890 -1.2991 -1.3317  1.9323
  137MOL0     H18840   2.522   9.797  11.941  1.5592 -0.2586  2.4097
  137MOL0     H18841   2.630  10.001  11.977  1.4367  0.9156 -0.3479
  137MOL0     H18842   2.679  10.036  11.812 -0.6105  0.0153 -1.8171
  137MOL0     H18843   2.429   9.973  11.752  0.3264  2.1499 -1.4139
  137MOL0     H18844   2.403  10.048  11.920 -1.2610  2.4929 -0.8254
  137MOL0     H18845   2.527  10.234  11.826 -0.5880  1.4007 -1.4562
  137MOL0     H18846   2.516  10.158  11.668  0.0717  2.2012 -0.5223
  137MOL0     H18847   2.289  10.239  11.857  2.3612 -0.0082  1.1863
  137MOL0     H18848   2.256  10.170  11.705  1.1631  0.5250 -3.0222
  137MOL0     H18849   2.345  10.386  11.593  0.0514  1.3198 -0.4297
  137MOL0     H18850   2.210  10.406  11.706 -1.6668 -2.6227 -3.1674
  137MOL0     H18851   2.365  10.587  11.743  1.4627  0.5170  0.9617
  137MOL0     H18852   2.508  10.490  11.763  0.5185  1.1020 -0.6087
  137MOL0     H18853   2.396  10.401  11.980  3.6501  1.0546 -1.5732
  137MOL0     H18854   2.395  10.582  11.963 -0.7876  0.0940  2.1168
  137MOL0     H18855   2.159  10.705  11.913  0.7958 -1.5831 -2.0519
  137MOL0     H18856   1.846  10.630  12.141 -0.3681  0.9528  0.2562
  137MOL0     H18857   1.902  10.741  12.020 -0.4588 -2.2192 -1.8898
  137MOL0     H18858   2.021  10.877  12.174  0.2631 -0.7618 -1.7690
  137MOL0     H18859   1.870  10.848  12.246 -2.0595 -3.1482  1.3680
  137MOL0     H18860   1.955  10.664  12.363 -0.6197  1.9688  2.8475
  137MOL0     H18861   2.129  10.717  12.311  1.0568  3.3460 -0.0068
  137MOL0     H18862   1.957  10.906  12.458 -0.6678 -1.4845 -1.3183
  137MOL0     H18863   2.031  10.770  12.557  4.2948 -1.4701  0.6620
  137MOL0     H18864   2.185  10.874  12.708  0.1104  0.7141  1.4916
  137MOL0     H18865   2.328  11.074  12.975  1.1879 -0.2434 -1.8080
  137MOL0     H18866   2.289  10.915  12.915  0.6768 -0.0939  1.9805
  137MOL0     H18867   2.156  11.026  12.950  0.7327 -0.9480 -0.3464
  137MOL0     H18868   2.638  11.485  12.638 -2.1132 -2.2642  0.5612
  137MOL0     H18869   2.763  11.667  12.714 -1.1152 -2.0300 -3.8085
  137MOL0     H18870   2.875  11.614  12.937 -1.4890 -0.1318 -0.7794
  137MOL0     H18871   2.906  11.764  12.862  2.1379  0.5427 -0.4155
  137MOL0     H18872   2.902  11.777  13.166  0.7237 -3.0189  1.2572
  137MOL0     H18873   3.011  11.669  13.106  2.5485  0.6530  0.7566
  137MOL0     H18874   3.153  11.844  13.021  0.2690  0.2797 -0.0780
  137MOL0     H18875   3.077  11.914  13.154  1.2846 -1.2235  0.6036
  137MOL0     H18876   2.878  11.998  12.979  0.4485  2.8286 -1.2520
  137MOL0     H18877   2.983  11.939  12.857 -4.9036  0.9618 -1.0753
  137MOL0     H18878   3.169  12.086  12.916 -0.6572  0.3100 -2.6039
  137MOL0     H18879   3.034  12.173  12.853  0.5338 -0.3751  0.3092
  137MOL0     H18880   3.091  12.164  13.157 -1.0505  2.2543  1.8103
  137MOL0     H18881   2.976  12.267  13.073 -0.2169 -0.1373  2.7812
  137MOL0     H18882   3.142  12.376  12.937 -0.3920  3.3681  1.8253
  137MOL0     H18883   3.271  12.275  12.993  0.5031  3.8177 -1.8563
  137MOL0     H18884   3.284  12.482  13.105  1.3163 -1.7627  0.7590
  137MOL0     H18885   3.227  12.357  13.224 -5.5731  0.5016  1.9163
  137MOL0     H18886   2.510  11.687  13.072  1.5847  2.7785 -1.5087
  137MOL0     H18887   2.355  11.534  12.971 -1.8112  2.8930 -3.3299
  137MOL0     H18888   2.283  11.321  12.542 -0.7016 -1.1505 -0.0063
  137MOL0     H18889   2.206  11.146  12.391  2.0115  0.3235  0.4169
  137MOL0     H18890   2.499   9.785  11.489  0.6965  0.2758 -0.7840
  137MOL0     H18891   2.658   9.791  11.299 -0.7956  0.0251  0.5735
  137MOL0     H18892   2.860  10.117  11.051 -2.0141 -1.2537 -1.9981
  137MOL0     H18893   2.960  10.130  10.848  1.7667 -1.4760 -1.8149
  137MOL0     H18894   3.002  10.063  10.642 -0.5940 -1.3121 -0.0850
  137MOL0     H18895   3.139  10.161  10.690  0.3599 -1.2451  0.4681
  137MOL0     H18896   3.137   9.922  10.496 -1.3978  0.4504  2.9871
  137MOL0     H18897   3.271  10.015  10.539  1.4249  0.1586  0.9455
  137MOL0     H18898   3.011  10.080  10.386 -1.0552  2.9260 -2.3629
  137MOL0     H18899   3.113  10.218  10.428 -0.8990  0.1403 -0.5725
  137MOL0     H18900   3.143  10.123  10.174 -0.7095 -0.1832  0.0564
  137MOL0     H18901   3.202   9.973  10.257 -1.1414 -0.8774  0.3018
  137MOL0     H18902   3.535  10.217  10.295  1.1444 -0.0394 -2.2186
  137MOL0     H18903   3.227   9.813  10.940  1.8317 -0.1950  5.2675
  137MOL0     H18904   3.250   9.741  11.149 -1.7395 -3.5488 -3.5192
  137MOL0     H18905   3.157   9.788  11.292 -2.5612 -0.0471  0.5137
  137MOL0     H18906   3.096   9.669  11.180 -1.5494  0.9889  2.3164
  138MOL0     O18907   4.890  10.498   2.888  0.3344 -0.4640  0.3167
  138MOL0     C18908   4.864  10.507   2.768 -0.0428 -0.0798  0.3250
  138MOL0     O18909   4.750  10.555   2.710 -0.7394  0.3347 -0.3053
  138MOL0     C18910   4.652  10.610   2.785 -0.3835  0.7751 -0.1564
  138MOL0     C18911   4.583  10.724   2.755  0.0686  0.2968  0.3597
  138MOL0     C18912   4.473  10.773   2.824  0.1946  1.1340 -0.0191
  138MOL0     C18913   4.425  10.701   2.941 -0.2169 -0.7125 -0.4831
  138MOL0     O18914   4.317  10.724   3.016 -0.1866 -0.7603  0.1109
  138MOL0     C18915   4.250  10.845   2.978  0.1784  0.2048 -0.6125
  138MOL0     C18916   4.310  10.965   3.043  0.2816 -0.1543  0.4371
  138MOL0     C18917   4.208  11.094   3.062 -0.2840 -0.0491 -0.6011
  138MOL0     C18918   4.248  11.196   3.173  0.3550 -0.6571  0.0050
  138MOL0     C18919   4.155  11.328   3.189 -0.2152 -0.3264 -1.0017
  138MOL0     C18920   4.002  11.294   3.212 -0.1269  1.2022 -0.0728
  138MOL0     C18921   3.919  11.387   3.305 -0.8092 -0.5282 -0.8099
  138MOL0     C18922   3.965  11.388   3.458 -0.6884  0.1041  0.3499
  138MOL0     N18923   3.867  11.457   3.544 -0.2327 -0.1344 -0.0248
  138MOL0     C18924   3.875  11.557   3.646 -0.4146 -0.8540 -0.3719
  138MOL0     C18925   3.758  11.583   3.703 -0.2322  0.1068  0.5678
  138MOL0     C18926   3.726  11.666   3.832  0.1238 -0.3704 -0.2834
  138MOL0     C18927   3.736  11.819   3.815 -0.9996 -0.2629 -0.3843
  138MOL0     C18928   3.876  11.868   3.858  0.3374 -1.0426 -0.5553
  138MOL0     C18929   3.876  11.906   4.017 -0.2500 -0.2551  0.0171
  138MOL0     O18930   4.005  11.886   4.081 -0.4394 -0.0278 -0.3306
  138MOL0     C18931   4.013  11.932   4.210 -0.5495  0.4318  0.0554
  138MOL0     C18932   3.930  12.025   4.270 -0.3778  0.3431 -0.3926
  138MOL0     C18933   3.958  12.080   4.398  0.1592  0.4067 -0.1098
  138MOL0     C18934   3.856  12.186   4.444  1.2292 -0.2044  0.3460
  138MOL0     C18935   4.078  12.052   4.468  0.1217  1.0536 -0.4288
  138MOL0     C18936   4.100  12.092   4.613  0.5074 -0.3348 -0.5116
  138MOL0     O18937   3.995  12.129   4.689  0.2520  0.3172 -0.4051
  138MOL0     C18938   4.018  12.131   4.825  0.5330 -0.0851  0.4158
  138MOL0     C18939   4.105  12.229   4.873 -0.3972 -0.9089  0.1568
  138MOL0     C18940   4.126  12.256   5.007  0.0401  0.0400 -0.3023
  138MOL0     C18941   4.063  12.183   5.105  0.6825  1.1978  0.0860
  138MOL0     O18942   4.057  12.214   5.236 -0.2698  0.1927 -0.1918
  138MOL0     C18943   4.181  12.248   5.295 -0.0382 -0.3633 -0.4915
  138MOL0     C18944   4.210  12.162   5.431 -0.5329  0.3094  0.9427
  138MOL0     C18945   4.140  12.227   5.551  0.2542  0.2644 -1.4084
  138MOL0     C18946   4.129  12.114   5.654  0.9741  0.4441 -0.1512
  138MOL0     C18947   4.094  12.167   5.801 -0.1034  0.8376 -0.3091
  138MOL0     C18948   4.161  12.293   5.850  0.3075 -0.1855 -0.7107
  138MOL0     C18949   4.314  12.292   5.841  0.3528  0.7611  0.6227
  138MOL0     C18950   4.361  12.398   5.938 -0.2919 -0.1136 -0.7392
  138MOL0    Cl18951   4.313  12.567   5.897  0.1231 -0.3081 -0.5421
  138MOL0     C18952   3.977  12.077   5.064 -1.0092 -0.8355 -1.0028
  138MOL0     C18953   3.959  12.054   4.924  0.4493  0.6462  0.4183
  138MOL0     O18954   4.215  12.066   4.656  0.8666 -0.5847  0.3193
  138MOL0     C18955   4.166  11.965   4.401  0.1527  0.2308  0.4933
  138MOL0     C18956   4.135  11.898   4.280  0.0632 -0.7675  0.8471
  138MOL0     N18957   3.671  11.511   3.631  0.2048 -0.9151 -0.2859
  138MOL0     N18958   3.728  11.433   3.548  0.7206 -0.0057  0.2772
  138MOL0     C18959   4.490  10.577   2.972  0.1358  0.1386 -0.0756
  138MOL0     C18960   4.600  10.529   2.893  0.1323  0.0520  0.4573
  138MOL0     C18961   4.963  10.437   2.685 -0.8546  0.5074 -0.2190
  138MOL0     C18962   4.981  10.299   2.722 -0.4153 -0.3440 -0.1962
  138MOL0     C18963   5.065  10.214   2.652  0.1429 -0.9438  0.3125
  138MOL0     C18964   5.119  10.262   2.536 -0.2150 -0.3121  0.8001
  138MOL0     O18965   5.198  10.179   2.467  0.5127  0.1621 -0.0403
  138MOL0     C18966   5.332  10.210   2.455  0.1097 -0.8378 -0.2820
  138MOL0     C18967   5.419  10.154   2.570  0.4933  0.1578 -0.4037
  138MOL0     C18968   5.469  10.009   2.544 -0.8589 -0.2663  0.1742
  138MOL0     C18969   5.525   9.967   2.675  1.3423  0.5212 -0.3092
  138MOL0     C18970   5.612   9.846   2.653  0.6281  0.5325 -0.4475
  138MOL0     C18971   5.676   9.742   2.624 -0.5790  1.3057 -0.0584
  138MOL0     C18972   5.090  10.391   2.491 -0.3524 -0.8228  0.5466
  138MOL0     C18973   5.016  10.483   2.570  0.4948  0.0662 -0.1567
  138MOL0     C18974   4.990  10.618   2.513 -0.4928 -0.3356 -1.3616
  138MOL0     H18975   4.626  10.773   2.669  3.1545 -0.5517  1.2849
  138MOL0     H18976   4.437  10.870   2.793 -2.4478  0.8771  1.8441
  138MOL0     H18977   4.150  10.827   3.018  1.6777 -0.8465  3.1154
  138MOL0     H18978   4.239  10.861   2.871 -2.9633  1.0577 -0.2798
  138MOL0     H18979   4.350  10.946   3.144 -0.1393  0.8534  0.8126
  138MOL0     H18980   4.404  10.996   2.996  0.3064  0.3264  0.7929
  138MOL0     H18981   4.210  11.160   2.974 -0.7024  0.4229 -0.2627
  138MOL0     H18982   4.103  11.067   3.072 -1.0729  3.1182  1.0918
  138MOL0     H18983   4.251  11.152   3.273 -3.4058  1.6933  1.3842
  138MOL0     H18984   4.344  11.244   3.150 -1.7261  5.6083  2.2364
  138MOL0     H18985   4.159  11.388   3.097 -4.3397  0.4904 -0.8476
  138MOL0     H18986   4.203  11.386   3.269  1.6183  0.7586 -2.7921
  138MOL0     H18987   3.952  11.305   3.115  0.4853  0.7513 -0.4425
  138MOL0     H18988   3.994  11.198   3.263  3.0621  2.3536  3.0120
  138MOL0     H18989   3.823  11.334   3.303 -1.9816  1.5261 -2.1068
  138MOL0     H18990   3.896  11.487   3.268  0.7287 -0.3777 -1.4292
  138MOL0     H18991   3.981  11.286   3.494  2.9123 -0.0565 -1.2506
  138MOL0     H18992   4.059  11.442   3.472  0.5005 -1.3960 -1.3932
  138MOL0     H18993   3.968  11.609   3.670 -0.4788  0.5965 -2.8591
  138MOL0     H18994   3.788  11.631   3.914 -0.9229 -0.7036  0.3825
  138MOL0     H18995   3.622  11.644   3.859  0.4365  2.2725  4.0191
  138MOL0     H18996   3.705  11.834   3.711  0.4565 -5.1468 -1.7996
  138MOL0     H18997   3.669  11.869   3.885 -0.4922  1.4129 -1.0602
  138MOL0     H18998   3.955  11.792   3.848  0.5594 -0.8292 -0.4203
  138MOL0     H18999   3.903  11.952   3.793  0.5722 -0.7362 -0.0670
  138MOL0     H19000   3.822  12.000   4.033  1.5262  0.7416  0.4279
  138MOL0     H19001   3.816  11.830   4.069  0.2648 -0.4062  0.4047
  138MOL0     H19002   3.849  12.070   4.215 -1.2278 -3.4699 -2.5963
  138MOL0     H19003   3.778  12.139   4.505  0.4972 -2.3952 -2.0865
  138MOL0     H19004   3.783  12.225   4.372  1.6713  1.6841  0.8516
  138MOL0     H19005   3.915  12.267   4.488  1.7546 -1.5982  2.2952
  138MOL0     H19006   4.158  12.279   4.793  0.7906 -3.4887 -0.7776
  138MOL0     H19007   4.186  12.343   5.031 -0.4279  0.7104 -1.5047
  138MOL0     H19008   4.268  12.226   5.232 -0.2214  1.1468 -1.3291
  138MOL0     H19009   4.186  12.355   5.316 -0.6750 -1.0718  4.2857
  138MOL0     H19010   4.182  12.056   5.428 -2.1542  0.6776  1.9524
  138MOL0     H19011   4.318  12.151   5.450 -0.3736 -2.0619 -0.8483
  138MOL0     H19012   4.040  12.250   5.514 -0.0460  0.7766 -0.3198
  138MOL0     H19013   4.187  12.313   5.599  0.3576 -0.2607 -0.5578
  138MOL0     H19014   4.216  12.050   5.668 -0.1833 -0.6439  2.7067
  138MOL0     H19015   4.051  12.045   5.620 -1.1602  2.8407 -0.4171
  138MOL0     H19016   3.985  12.178   5.796 -0.4646 -2.1043 -1.2347
  138MOL0     H19017   4.095  12.096   5.884 -0.8922  1.7273  0.4761
  138MOL0     H19018   4.143  12.292   5.957 -3.2397  1.2510 -1.1475
  138MOL0     H19019   4.121  12.379   5.794 -3.5305 -2.0614 -1.1749
  138MOL0     H19020   4.370  12.306   5.748 -1.9912 -1.6966 -1.3322
  138MOL0     H19021   4.336  12.190   5.872  2.4408  0.9109 -0.2096
  138MOL0     H19022   4.470  12.400   5.929 -0.0119  3.2154  1.4959
  138MOL0     H19023   4.328  12.385   6.041  2.0588  2.6466  0.4990
  138MOL0     H19024   3.916  12.027   5.137 -1.4510  3.3530  1.8685
  138MOL0     H19025   3.883  11.977   4.913  1.0707 -0.4565  3.0833
  138MOL0     H19026   4.257  11.949   4.458 -0.7566 -1.3541  1.5711
  138MOL0     H19027   4.201  11.823   4.237 -2.2279 -1.0525 -2.5556
  138MOL0     H19028   4.457  10.511   3.052 -0.9247  0.6619 -0.0638
  138MOL0     H19029   4.636  10.431   2.921 -4.4489 -1.0768  3.7184
  138MOL0     H19030   4.927  10.270   2.812 -1.6084 -0.9171 -1.0660
  138MOL0     H19031   5.063  10.109   2.678  1.3545 -1.4074 -1.2510
  138MOL0     H19032   5.366  10.176   2.357 -0.4378 -0.7598 -0.5031
  138MOL0     H19033   5.339  10.319   2.456 -1.1871 -0.7415  0.1655
  138MOL0     H19034   5.359  10.131   2.659  1.8562 -1.9311  0.0430
  138MOL0     H19035   5.501  10.224   2.588  1.6528 -1.2913  0.1279
  138MOL0     H19036   5.376   9.956   2.519 -1.9346  1.3194  0.6571
  138MOL0     H19037   5.542   9.999   2.463 -0.9259  1.5746 -0.1469
  138MOL0     H19038   5.443   9.941   2.743  2.3394  2.5442  1.8135
  138MOL0     H19039   5.587  10.041   2.727  3.3570 -2.0497  1.1996
  138MOL0     H19040   5.730   9.657   2.589  1.9865  2.5052  0.7472
  138MOL0     H19041   5.131  10.422   2.395  1.5589 -3.4422  0.3872
  138MOL0     H19042   4.948  10.694   2.580  1.2604 -0.1442 -0.4161
  138MOL0     H19043   5.090  10.654   2.488 -1.1595  1.1350 -2.0456
  138MOL0     H19044   4.923  10.604   2.428 -1.5365  0.0567 -0.6389
  139MOL0     O19045  10.725   0.302   1.878 -0.4343 -0.3357  0.0504
  139MOL0     C19046  10.752   0.323   2.003  0.3679  0.6439 -0.3428
  139MOL0     O19047  10.738   0.224   2.100 -0.0268 -0.4514 -0.2532
  139MOL0     C19048  10.699   0.095   2.065 -0.7193 -0.2976  0.2412
  139MOL0     C19049  10.608   0.057   1.955 -0.3062 -0.5778  0.2642
  139MOL0     C19050  10.580  -0.075   1.927  0.8139 -0.1791  0.5183
  139MOL0     C19051  10.633  -0.177   2.006  0.7819 -0.1822  0.4156
  139MOL0     O19052  10.601  -0.308   1.979 -0.6773 -0.1073  0.4000
  139MOL0     C19053  10.546  -0.370   2.093  0.4858 -2.3635 -1.0734
  139MOL0     C19054  10.575  -0.523   2.119 -0.0241  0.2950 -0.3224
  139MOL0     C19055  10.507  -0.606   2.006 -0.2982 -0.3419  0.3300
  139MOL0     C19056  10.479  -0.751   2.063 -0.5130  0.3054  0.1169
  139MOL0     C19057  10.442  -0.841   1.937 -0.1890  0.0582 -0.6452
  139MOL0     C19058  10.510  -0.976   1.931  0.5998 -0.2885  0.1332
  139MOL0     C19059  10.474  -1.036   1.796 -0.5419 -0.1044  0.5929
  139MOL0     C19060  10.516  -1.181   1.800  0.4783 -0.4709 -0.1528
  139MOL0     N19061  10.659  -1.191   1.822 -0.0502  0.0307  0.1566
  139MOL0     C19062  10.764  -1.146   1.740  0.6410 -0.4639 -0.7294
  139MOL0     C19063  10.878  -1.183   1.786  0.0293 -0.2959 -0.4057
  139MOL0     C19064  11.001  -1.127   1.728  0.2785 -0.1284 -0.7938
  139MOL0     C19065  11.122  -1.177   1.800 -0.3137 -1.1667  0.8550
  139MOL0     C19066  11.138  -1.114   1.936  0.6105 -0.8830 -1.3022
  139MOL0     C19067  11.277  -1.157   1.996 -0.0606  0.3456  0.1126
  139MOL0     O19068  11.392  -1.114   1.921 -0.7966  0.2599  0.2998
  139MOL0     C19069  11.441  -0.987   1.929 -0.4791  0.2739  0.6112
  139MOL0     C19070  11.391  -0.886   2.014 -0.3379  0.0970 -0.6228
  139MOL0     C19071  11.435  -0.754   2.014 -0.3249 -0.1457 -0.5994
  139MOL0     C19072  11.373  -0.659   2.115  0.2235  0.9923 -0.2038
  139MOL0     C19073  11.537  -0.714   1.915  0.3541  0.1410  0.4976
  139MOL0     C19074  11.579  -0.574   1.897 -0.7330 -0.1537  0.1742
  139MOL0     O19075  11.695  -0.550   1.838 -0.4463  0.5342  0.0763
  139MOL0     C19076  11.778  -0.437   1.854  0.2934  0.9458  0.0363
  139MOL0     C19077  11.873  -0.461   1.947  0.3322 -0.2595 -0.1078
  139MOL0     C19078  11.966  -0.363   1.985  0.5015  0.0576 -0.2609
  139MOL0     C19079  11.971  -0.242   1.924 -0.1411  0.1611 -1.3087
  139MOL0     O19080  12.060  -0.147   1.971  0.1770 -0.4728  0.3236
  139MOL0     C19081  12.045  -0.005   1.953  0.1640  0.5282 -0.9274
  139MOL0     C19082  12.185   0.052   1.973 -0.8470  0.1711 -0.1649
  139MOL0     C19083  12.196   0.203   1.979  0.2569 -0.3560  0.2466
  139MOL0     C19084  12.238   0.253   1.840  0.0886 -0.4176 -0.0388
  139MOL0     C19085  12.226   0.403   1.836 -0.3889  0.2645  0.1276
  139MOL0     C19086  12.316   0.477   1.929  0.3645 -0.0853 -0.4818
  139MOL0     C19087  12.280   0.624   1.948 -0.0001 -0.4171 -0.0701
  139MOL0     C19088  12.224   0.647   2.085 -0.1309  0.6762 -1.1159
  139MOL0    Cl19089  12.076   0.555   2.118 -0.1058 -0.1623 -0.3898
  139MOL0     C19090  11.889  -0.225   1.810 -0.8397 -0.5012 -0.3586
  139MOL0     C19091  11.786  -0.314   1.778  0.6307 -0.0362  0.3694
  139MOL0     O19092  11.500  -0.484   1.917  0.4676 -0.4795  0.3165
  139MOL0     C19093  11.600  -0.812   1.836 -0.0256 -0.3317 -0.6623
  139MOL0     C19094  11.554  -0.950   1.845  1.0920 -0.0123 -0.0571
  139MOL0     N19095  10.849  -1.266   1.896 -0.4175 -1.0602 -0.1034
  139MOL0     N19096  10.719  -1.262   1.929 -0.6658  0.0216 -0.1825
  139MOL0     C19097  10.712  -0.138   2.120  0.9268 -0.2180  0.1972
  139MOL0     C19098  10.742  -0.008   2.150 -0.4775 -1.0318 -0.8806
  139MOL0     C19099  10.783   0.466   2.054 -0.0740 -0.5895 -0.7712
  139MOL0     C19100  10.862   0.485   2.167 -0.2355  0.8222 -0.3326
  139MOL0     C19101  10.902   0.619   2.214 -0.9934  1.5441  1.1171
  139MOL0     C19102  10.858   0.729   2.138 -0.3129  0.0586 -0.2340
  139MOL0     O19103  10.879   0.861   2.162  0.6991 -0.2345  0.2529
  139MOL0     C19104  10.997   0.905   2.235  0.1682 -0.1958 -0.4597
  139MOL0     C19105  10.954   0.908   2.392 -0.1436  0.0852  0.0257
  139MOL0     C19106  11.064   0.985   2.470  0.0258  0.0138  0.1238
  139MOL0     C19107  11.032   0.986   2.619 -0.4366  0.2038  0.3180
  139MOL0     C19108  11.147   1.065   2.678 -0.6600 -0.1206 -0.0679
  139MOL0     C19109  11.238   1.112   2.733 -1.3115 -0.4006  0.2945
  139MOL0     C19110  10.763   0.707   2.034 -1.3194  0.0174 -0.3144
  139MOL0     C19111  10.720   0.580   1.994  0.2868  0.2183 -1.6956
  139MOL0     C19112  10.593   0.571   1.906  0.3124  0.4555 -0.2974
  139MOL0     H19113  10.564   0.134   1.892  0.6631  0.4971  0.8561
  139MOL0     H19114  10.524  -0.123   1.847 -0.9224 -1.0162  2.1584
  139MOL0     H19115  10.442  -0.356   2.063  0.8115  1.9653 -0.8390
  139MOL0     H19116  10.563  -0.319   2.188  1.4623  1.0961 -2.9107
  139MOL0     H19117  10.682  -0.540   2.101 -0.0267  0.9220 -0.9598
  139MOL0     H19118  10.532  -0.557   2.213  0.2553  2.6927  0.7377
  139MOL0     H19119  10.420  -0.559   1.960  0.0482 -3.4105 -4.0046
  139MOL0     H19120  10.575  -0.617   1.921  2.2899  1.3477  2.0066
  139MOL0     H19121  10.561  -0.794   2.121 -0.9651  1.6757  1.8374
  139MOL0     H19122  10.387  -0.736   2.120  0.3153  1.7756  1.1201
  139MOL0     H19123  10.471  -0.795   1.842 -1.0435 -0.7979 -1.3422
  139MOL0     H19124  10.333  -0.842   1.932 -0.1530  1.4979 -3.4519
  139MOL0     H19125  10.616  -0.968   1.955  0.0527  0.3726  2.6471
  139MOL0     H19126  10.466  -1.048   2.002  2.0930 -2.0034 -0.6095
  139MOL0     H19127  10.526  -0.986   1.713  0.0970  1.8508  2.0883
  139MOL0     H19128  10.368  -1.021   1.773  0.0278  1.3087 -1.4496
  139MOL0     H19129  10.468  -1.236   1.882  1.3044 -1.6000 -0.4069
  139MOL0     H19130  10.490  -1.222   1.703  2.3966 -0.7953 -0.5672
  139MOL0     H19131  10.749  -1.075   1.659  0.0910 -0.3723 -0.5581
  139MOL0     H19132  10.985  -1.019   1.724 -0.3242 -0.2344 -3.5990
  139MOL0     H19133  10.990  -1.153   1.622  0.8803  0.9986 -1.1518
  139MOL0     H19134  11.145  -1.284   1.805  3.2089 -0.9118 -3.5060
  139MOL0     H19135  11.211  -1.145   1.744  0.2372  0.3631  2.5202
  139MOL0     H19136  11.137  -1.005   1.931  1.3987 -0.7457  0.5955
  139MOL0     H19137  11.074  -1.162   2.011 -1.2770  0.3734 -2.0423
  139MOL0     H19138  11.273  -1.127   2.101  0.7037  1.2885 -0.1138
  139MOL0     H19139  11.268  -1.266   2.001 -1.4860  0.4170 -0.3823
  139MOL0     H19140  11.323  -0.898   2.098  1.3244  1.9760  1.1013
  139MOL0     H19141  11.320  -0.587   2.053  0.7001  0.2067 -1.5636
  139MOL0     H19142  11.456  -0.613   2.170 -0.0472 -0.8734  1.8961
  139MOL0     H19143  11.310  -0.714   2.186  0.2519  0.0672 -0.8711
  139MOL0     H19144  11.873  -0.546   2.015 -0.8220  0.0072  0.2544
  139MOL0     H19145  12.020  -0.374   2.079 -1.8174 -1.4290  0.9705
  139MOL0     H19146  12.011   0.014   1.851  3.7131  2.2686 -1.9560
  139MOL0     H19147  11.984   0.045   2.029  3.2857 -0.8460  2.8083
  139MOL0     H19148  12.217   0.009   2.068 -2.1787  0.2192  0.3332
  139MOL0     H19149  12.235   0.017   1.882 -0.2179  0.5074  0.0462
  139MOL0     H19150  12.269   0.233   2.055 -0.6928  0.4451  0.8600
  139MOL0     H19151  12.105   0.256   2.009  0.2362  2.6926 -4.2140
  139MOL0     H19152  12.176   0.211   1.761 -0.2542  1.1602 -0.6599
  139MOL0     H19153  12.342   0.225   1.821 -0.4704 -1.2101 -2.2060
  139MOL0     H19154  12.259   0.429   1.735  2.9502  0.2425  1.0926
  139MOL0     H19155  12.123   0.434   1.852 -0.6539 -0.4321 -0.1624
  139MOL0     H19156  12.419   0.469   1.891  0.5824 -0.8601  0.2243
  139MOL0     H19157  12.323   0.427   2.027 -0.4486 -0.7028 -0.7236
  139MOL0     H19158  12.201   0.643   1.875 -0.5119  0.2194  0.6255
  139MOL0     H19159  12.366   0.690   1.933 -0.8653  0.4446 -1.4427
  139MOL0     H19160  12.190   0.751   2.077 -0.0393  0.6190 -2.6577
  139MOL0     H19161  12.305   0.639   2.157 -0.6390  0.6256 -0.5461
  139MOL0     H19162  11.903  -0.141   1.743  0.7861 -0.5967 -0.1743
  139MOL0     H19163  11.712  -0.307   1.699  0.0087 -1.9078  0.7505
  139MOL0     H19164  11.686  -0.800   1.770  0.2974  0.4800 -0.1087
  139MOL0     H19165  11.594  -1.032   1.786 -1.9778 -2.7669  1.3650
  139MOL0     H19166  10.750  -0.216   2.184 -0.0651 -0.4434  0.5254
  139MOL0     H19167  10.816   0.023   2.223 -2.6146 -0.4262  1.1291
  139MOL0     H19168  10.894   0.398   2.222  0.9748  0.4955 -1.5003
  139MOL0     H19169  10.966   0.615   2.302  1.7063  0.5208 -0.7701
  139MOL0     H19170  11.084   0.839   2.235  2.5016  2.6262  1.4430
  139MOL0     H19171  11.022   1.004   2.196 -1.1036  0.4902  0.3924
  139MOL0     H19172  10.959   0.808   2.437  1.4617  0.4012  0.6145
  139MOL0     H19173  10.857   0.956   2.406  0.3092  0.9632  0.1993
  139MOL0     H19174  11.154   0.926   2.453  1.2358  2.2948 -2.0440
  139MOL0     H19175  11.076   1.085   2.428 -1.4829 -0.3556 -1.3239
  139MOL0     H19176  11.019   0.886   2.661 -0.1764 -0.8158 -1.9229
  139MOL0     H19177  10.935   1.032   2.639 -0.2581  0.9078 -0.3737
  139MOL0     H19178  11.329   1.155   2.770 -1.5159 -1.5418  2.2788
  139MOL0     H19179  10.721   0.794   1.983  1.9772  1.6006 -0.5865
  139MOL0     H19180  10.551   0.672   1.903 -1.2091  0.1429  3.7433
  139MOL0     H19181  10.625   0.524   1.813  0.6121 -1.9469  0.9359
  139MOL0     H19182  10.504   0.516   1.937  0.3153 -0.6220 -2.1159
  140MOL0     O19183   5.912   2.180   9.158 -0.1083 -0.2500  0.3666
  140MOL0     C19184   6.019   2.180   9.096 -0.0334  0.3970 -0.6736
  140MOL0     O19185   6.069   2.073   9.026 -0.0541 -0.5770  0.0816
  140MOL0     C19186   5.992   1.963   8.991 -0.1565 -0.3369 -0.4730
  140MOL0     C19187   5.856   1.969   8.953 -0.2761 -0.8162 -0.3840
  140MOL0     C19188   5.788   1.871   8.889 -0.9636 -0.5052  1.6746
  140MOL0     C19189   5.847   1.746   8.872 -0.9892  0.9869  0.0432
  140MOL0     O19190   5.768   1.656   8.818 -0.4527 -0.6870 -0.3784
  140MOL0     C19191   5.818   1.521   8.828  0.5990 -1.2705 -0.4021
  140MOL0     C19192   5.730   1.425   8.747 -0.2417 -1.1825 -1.0445
  140MOL0     C19193   5.798   1.288   8.753  0.1155  0.4942 -0.3230
  140MOL0     C19194   5.699   1.172   8.771  0.2682 -0.2285  1.6016
  140MOL0     C19195   5.633   1.141   8.912  0.0050 -0.6709 -1.2176
  140MOL0     C19196   5.746   1.101   9.015 -0.0033 -0.3183  0.2184
  140MOL0     C19197   5.826   0.970   8.984  0.0508  0.4970 -0.0110
  140MOL0     C19198   5.752   0.845   9.027  0.1662  0.7093 -0.8081
  140MOL0     N19199   5.834   0.721   9.016  0.1404  0.4936 -0.4534
  140MOL0     C19200   5.850   0.620   9.108  0.0697 -0.1978 -0.1782
  140MOL0     C19201   5.920   0.522   9.051  0.7390  0.8923  0.0326
  140MOL0     C19202   5.966   0.395   9.116  0.1566  0.3399 -0.0832
  140MOL0     C19203   5.858   0.282   9.104 -0.9761  0.0578  0.4646
  140MOL0     C19204   5.921   0.151   9.142  0.3652  0.2295  0.2380
  140MOL0     C19205   5.935   0.133   9.297 -0.0301  0.9672  0.3689
  140MOL0     O19206   5.800   0.121   9.337  0.4223  0.3088 -0.3596
  140MOL0     C19207   5.760   0.209   9.445 -0.3819  0.3203 -0.5849
  140MOL0     C19208   5.815   0.329   9.490  1.1545  0.3660 -0.1137
  140MOL0     C19209   5.766   0.404   9.603 -0.5258 -0.3501 -0.3869
  140MOL0     C19210   5.841   0.531   9.633 -0.0834  0.4184  0.7886
  140MOL0     C19211   5.660   0.345   9.689 -0.1526 -0.5574  0.2918
  140MOL0     C19212   5.589   0.405   9.797  0.2520  0.7809  0.9237
  140MOL0     O19213   5.476   0.340   9.847 -0.0740  0.4637 -0.3916
  140MOL0     C19214   5.421   0.398   9.955  0.7733 -0.6378 -0.4701
  140MOL0     C19215   5.473   0.366  10.081 -0.8061  0.2308  0.4828
  140MOL0     C19216   5.410   0.414  10.198  0.7942 -0.2649 -0.0057
  140MOL0     C19217   5.298   0.492  10.192  0.0957  0.2436  0.3560
  140MOL0     O19218   5.258   0.544  10.313 -0.3714  0.0532 -1.8186
  140MOL0     C19219   5.155   0.639  10.312  0.1126  0.2467 -0.2162
  140MOL0     C19220   5.179   0.726  10.440  1.2767  0.0982 -0.2454
  140MOL0     C19221   5.047   0.738  10.523  0.2098 -0.8588  0.2964
  140MOL0     C19222   5.088   0.810  10.652 -0.2033 -0.4295  0.0240
  140MOL0     C19223   4.961   0.848  10.741 -0.2503  0.5221  0.1671
  140MOL0     C19224   4.896   0.719  10.794 -0.2256 -0.1995  0.6999
  140MOL0     C19225   4.794   0.752  10.902  0.2392  0.8559  0.2835
  140MOL0     C19226   4.755   0.638  10.992 -0.6065 -0.6914  0.5975
  140MOL0    Cl19227   4.704   0.501  10.895  0.3349  0.3408  0.1626
  140MOL0     C19228   5.234   0.511  10.064 -0.0150  0.7158  0.3145
  140MOL0     C19229   5.297   0.460   9.942  1.3716 -0.5901 -0.2157
  140MOL0     O19230   5.635   0.509   9.843 -0.1635  0.3116  0.2812
  140MOL0     C19231   5.599   0.228   9.639 -0.4409  0.0510  0.6070
  140MOL0     C19232   5.646   0.160   9.521 -0.0927  0.0845 -0.6629
  140MOL0     N19233   5.928   0.546   8.911  0.5812  0.1485  0.1100
  140MOL0     N19234   5.883   0.670   8.899  0.1138 -0.7960  0.1305
  140MOL0     C19235   5.980   1.736   8.922 -0.5699  0.7156  0.2036
  140MOL0     C19236   6.050   1.838   8.973  0.2037  0.2123 -0.0295
  140MOL0     C19237   6.114   2.301   9.123  1.2490  0.2269  0.2782
  140MOL0     C19238   6.235   2.300   9.062 -0.0143  0.3568 -0.4539
  140MOL0     C19239   6.324   2.394   9.091  0.5340 -0.1970  0.0266
  140MOL0     C19240   6.294   2.503   9.175  0.1437 -0.5580 -0.2007
  140MOL0     O19241   6.396   2.592   9.196 -0.1447  0.6555 -0.5895
  140MOL0     C19242   6.379   2.709   9.275  0.0556 -0.5609  0.7044
  140MOL0     C19243   6.494   2.699   9.368 -0.6137 -0.9120  0.2855
  140MOL0     C19244   6.466   2.799   9.480 -0.4459 -0.5534  0.5207
  140MOL0     C19245   6.455   2.944   9.436 -0.7279 -0.5229 -0.3104
  140MOL0     C19246   6.561   3.012   9.360 -0.6579  0.3330  0.4082
  140MOL0     C19247   6.669   3.049   9.305  0.6837 -0.8426  0.4466
  140MOL0     C19248   6.172   2.496   9.244  0.5573 -0.1926 -0.5219
  140MOL0     C19249   6.080   2.398   9.214 -0.2284 -0.8082 -0.0305
  140MOL0     C19250   5.943   2.426   9.276 -0.6815  0.7579  0.0431
  140MOL0     H19251   5.807   2.066   8.951  1.9964  0.4198  0.2503
  140MOL0     H19252   5.690   1.903   8.854  0.6606  3.0999 -0.0934
  140MOL0     H19253   5.822   1.483   8.930 -2.2108 -0.6748  0.0141
  140MOL0     H19254   5.920   1.505   8.791 -0.4595 -2.6000 -3.0223
  140MOL0     H19255   5.635   1.414   8.800  0.4011  0.5486  0.5541
  140MOL0     H19256   5.739   1.463   8.645  4.0895 -1.6176 -1.0389
  140MOL0     H19257   5.851   1.267   8.659  1.8915 -0.3022  0.8194
  140MOL0     H19258   5.874   1.287   8.832  1.0347 -2.6759 -1.1137
  140MOL0     H19259   5.611   1.208   8.716 -0.0056 -1.5201  1.1609
  140MOL0     H19260   5.745   1.085   8.722  0.4571  0.5999  0.2548
  140MOL0     H19261   5.555   1.066   8.894 -3.1545  2.0245  0.2067
  140MOL0     H19262   5.584   1.233   8.944 -0.7687 -0.4847 -2.8231
  140MOL0     H19263   5.823   1.177   9.001  2.9836 -3.5968 -3.9110
  140MOL0     H19264   5.717   1.097   9.120  0.4272  0.0147  0.3487
  140MOL0     H19265   5.925   0.967   9.031 -0.0325  2.7738  0.4071
  140MOL0     H19266   5.846   0.958   8.877  0.9514  3.8547 -0.3310
  140MOL0     H19267   5.707   0.842   9.126  1.3314 -2.7985 -0.2686
  140MOL0     H19268   5.665   0.834   8.960  1.1105  1.6430 -2.2475
  140MOL0     H19269   5.826   0.621   9.214 -1.8168  1.7188 -0.5369
  140MOL0     H19270   5.987   0.414   9.222 -0.7274 -1.5817  0.4861
  140MOL0     H19271   6.065   0.368   9.079  0.9644 -2.0946  3.3332
  140MOL0     H19272   5.780   0.312   9.174 -1.2508 -1.9111  1.0719
  140MOL0     H19273   5.819   0.278   9.002  2.1228  0.1794 -0.8298
  140MOL0     H19274   5.860   0.068   9.104  2.3868 -1.4850  0.5791
  140MOL0     H19275   6.021   0.147   9.099  0.2674 -3.8291  0.0718
  140MOL0     H19276   5.998   0.045   9.311  0.6416  1.2915 -0.4543
  140MOL0     H19277   5.993   0.219   9.332 -0.1338  0.6746  1.2827
  140MOL0     H19278   5.896   0.368   9.429  4.2180 -1.9246  2.1480
  140MOL0     H19279   5.908   0.556   9.551 -1.2778 -0.5838 -0.5461
  140MOL0     H19280   5.899   0.515   9.725  2.8129 -0.2024 -1.0393
  140MOL0     H19281   5.781   0.620   9.652  0.8289  1.4990 -1.1386
  140MOL0     H19282   5.572   0.321  10.084 -0.2118  1.3960 -0.7301
  140MOL0     H19283   5.460   0.404  10.294  0.5738  1.9778  0.3939
  140MOL0     H19284   5.148   0.697  10.220 -1.8645 -0.8279 -0.8209
  140MOL0     H19285   5.058   0.588  10.321  1.9580 -3.6451 -0.4102
  140MOL0     H19286   5.259   0.687  10.504 -1.1637  1.5577  4.1498
  140MOL0     H19287   5.205   0.825  10.401  0.4578 -0.3331 -1.9777
  140MOL0     H19288   4.995   0.642  10.530 -2.9863  0.6138 -0.9973
  140MOL0     H19289   4.970   0.796  10.471 -0.0442 -1.3559  0.1085
  140MOL0     H19290   5.142   0.904  10.631  1.2765 -1.0976  0.6856
  140MOL0     H19291   5.157   0.744  10.705  0.4959  0.6412  0.4871
  140MOL0     H19292   5.000   0.900  10.829 -1.6608  0.9087  0.5985
  140MOL0     H19293   4.885   0.913  10.697  0.4790  2.1152  1.1463
  140MOL0     H19294   4.970   0.648  10.834 -2.6225 -3.4122 -0.0910
  140MOL0     H19295   4.854   0.672  10.704 -1.0789 -0.3419  1.1695
  140MOL0     H19296   4.700   0.765  10.849 -0.3968 -4.2391 -0.3303
  140MOL0     H19297   4.813   0.839  10.966 -4.3874  0.3737  2.7482
  140MOL0     H19298   4.670   0.669  11.053  0.9992 -1.6702  3.5510
  140MOL0     H19299   4.835   0.607  11.060  0.8288  1.8192  0.1905
  140MOL0     H19300   5.132   0.549  10.059 -0.2683  0.1689  1.0316
  140MOL0     H19301   5.258   0.469   9.841  0.5566  0.7880  0.1826
  140MOL0     H19302   5.518   0.168   9.677  0.4275 -1.0011  0.8464
  140MOL0     H19303   5.587   0.079   9.479 -1.1784 -0.4148  1.6596
  140MOL0     H19304   6.038   1.648   8.897 -0.4619  1.2300 -1.4338
  140MOL0     H19305   6.152   1.825   9.006  2.4385  1.1011 -5.4559
  140MOL0     H19306   6.277   2.227   8.995  0.1643 -2.7211  2.7194
  140MOL0     H19307   6.418   2.405   9.038  2.2586  0.1375  2.9404
  140MOL0     H19308   6.401   2.793   9.208  0.8024 -0.5790  0.9199
  140MOL0     H19309   6.279   2.714   9.318  0.2961 -3.7409  1.9335
  140MOL0     H19310   6.580   2.743   9.316 -2.0882  1.8536 -0.0352
  140MOL0     H19311   6.518   2.601   9.410  1.5028 -0.4693  0.2154
  140MOL0     H19312   6.376   2.770   9.536 -1.5914 -0.5703 -1.2501
  140MOL0     H19313   6.554   2.788   9.544  0.5565  0.9997 -0.5057
  140MOL0     H19314   6.421   3.003   9.521 -1.7220 -0.7725 -0.5176
  140MOL0     H19315   6.367   2.950   9.371 -1.0591  1.1350  0.2467
  140MOL0     H19316   6.771   3.063   9.274  2.4369 -1.2409  5.1249
  140MOL0     H19317   6.132   2.563   9.320  1.0979  0.7203 -1.0292
  140MOL0     H19318   5.940   2.364   9.366  3.2466 -0.7979 -0.6923
  140MOL0     H19319   5.939   2.533   9.301  2.6133  0.8340  0.7003
  140MOL0     H19320   5.867   2.397   9.203  0.1845  3.4628 -2.1209
  141MOL0     O19321   8.103   5.469   6.478 -0.7173 -0.9185  0.5769
  141MOL0     C19322   8.119   5.358   6.435  0.3155 -0.7252  0.1991
  141MOL0     O19323   8.161   5.324   6.311  0.2278 -0.1630  0.0943
  141MOL0     C19324   8.209   5.419   6.225  0.1631 -0.3794  0.1925
  141MOL0     C19325   8.145   5.423   6.107 -0.0553 -0.0919 -0.1668
  141MOL0     C19326   8.179   5.518   6.005 -0.3281  0.1706 -0.1919
  141MOL0     C19327   8.279   5.609   6.027 -0.9122 -0.4330 -0.3337
  141MOL0     O19328   8.317   5.691   5.923 -0.5207 -0.1484 -0.1654
  141MOL0     C19329   8.349   5.827   5.947  0.3886  0.7513 -0.2842
  141MOL0     C19330   8.393   5.899   5.820 -0.1035  0.5515 -0.2213
  141MOL0     C19331   8.279   5.913   5.716 -0.2659  0.4838 -0.3215
  141MOL0     C19332   8.325   5.968   5.578  0.5549  0.2325 -0.5023
  141MOL0     C19333   8.203   5.996   5.484 -0.5960  0.1707  0.2569
  141MOL0     C19334   8.134   5.868   5.435  0.1913  0.3882 -0.4966
  141MOL0     C19335   8.204   5.786   5.330  0.3642  0.8623  0.6297
  141MOL0     C19336   8.113   5.662   5.287 -0.5393  0.0395  1.2217
  141MOL0     N19337   8.088   5.564   5.397  0.1680 -0.8115  0.1700
  141MOL0     C19338   8.176   5.484   5.457  0.8886 -0.1482 -0.0114
  141MOL0     C19339   8.102   5.426   5.550  0.1057  0.1160 -0.8082
  141MOL0     C19340   8.149   5.319   5.643  0.2058 -0.2476  0.9760
  141MOL0     C19341   8.088   5.186   5.615 -0.4481 -1.2848 -0.1337
  141MOL0     C19342   8.129   5.122   5.477 -0.1040 -0.2360  0.5308
  141MOL0     C19343   8.078   4.980   5.445  0.3822  0.2954  0.4081
  141MOL0     O19344   7.957   4.958   5.525  0.2260  0.4119 -1.2573
  141MOL0     C19345   7.904   4.828   5.554 -1.0798 -0.4201  0.8990
  141MOL0     C19346   7.794   4.829   5.638 -1.2222  0.0756  0.5738
  141MOL0     C19347   7.746   4.705   5.668 -0.0134 -0.3978 -0.6728
  141MOL0     C19348   7.610   4.705   5.739 -0.6647 -0.3575 -0.1341
  141MOL0     C19349   7.806   4.581   5.614  0.8894 -0.0375  0.0278
  141MOL0     C19350   7.748   4.440   5.642  0.4897 -0.1230  0.7929
  141MOL0     O19351   7.848   4.344   5.644 -0.6741 -0.4049  0.2055
  141MOL0     C19352   7.801   4.221   5.626 -0.1295  0.2545  0.4250
  141MOL0     C19353   7.785   4.131   5.734 -0.3924  0.1951 -0.0519
  141MOL0     C19354   7.743   3.999   5.708  0.1473  0.7607  0.4846
  141MOL0     C19355   7.715   3.949   5.576  0.0603  0.2980  0.5451
  141MOL0     O19356   7.657   3.822   5.558 -0.4958  0.7746  0.1360
  141MOL0     C19357   7.738   3.729   5.485 -2.0449  0.7966  1.1212
  141MOL0     C19358   7.660   3.606   5.463  0.6255 -0.0788  0.1895
  141MOL0     C19359   7.722   3.516   5.355  0.0984  0.0583  0.5802
  141MOL0     C19360   7.648   3.379   5.360  0.2799 -0.0640  0.5978
  141MOL0     C19361   7.696   3.279   5.254 -1.5472 -0.3081 -0.7939
  141MOL0     C19362   7.593   3.179   5.218  0.2122  0.2237  0.8197
  141MOL0     C19363   7.531   3.205   5.084  0.1101  0.4915  0.4195
  141MOL0     C19364   7.422   3.311   5.070  0.0792  0.0315 -0.2128
  141MOL0    Cl19365   7.359   3.291   4.909 -0.0364  0.2748  0.0523
  141MOL0     C19366   7.748   4.034   5.471 -0.4786  0.5865 -0.1376
  141MOL0     C19367   7.792   4.164   5.498  0.2122 -0.6452 -0.3786
  141MOL0     O19368   7.624   4.419   5.639  0.6243  0.7806 -0.0608
  141MOL0     C19369   7.907   4.594   5.524  0.3697 -0.7339  0.0526
  141MOL0     C19370   7.951   4.719   5.480 -0.7215 -0.4242  0.1419
  141MOL0     N19371   7.976   5.478   5.557  0.0225  0.3507  0.5147
  141MOL0     N19372   7.969   5.560   5.457 -0.3270  0.1890 -0.0847
  141MOL0     C19373   8.353   5.603   6.149  0.2056 -0.0548  0.1048
  141MOL0     C19374   8.312   5.520   6.249  0.2355 -0.2026 -0.4684
  141MOL0     C19375   8.109   5.251   6.529 -0.1370  0.3183  0.6756
  141MOL0     C19376   8.191   5.137   6.515  1.1894  1.1731 -1.5074
  141MOL0     C19377   8.158   5.027   6.609 -0.4231 -0.3239 -0.3153
  141MOL0     C19378   8.052   5.023   6.704 -0.7513 -0.4999  0.5946
  141MOL0     O19379   8.055   4.932   6.799 -0.2223  0.2136 -0.2239
  141MOL0     C19380   7.962   4.937   6.909 -0.7372 -0.8043 -0.1978
  141MOL0     C19381   7.992   5.049   7.006  0.4835 -0.8430 -0.2541
  141MOL0     C19382   7.882   5.095   7.102 -0.0097  0.5551  0.4500
  141MOL0     C19383   7.779   5.192   7.040  0.9579  0.0198 -0.7492
  141MOL0     C19384   7.659   5.184   7.126 -0.6859  0.6706 -1.1225
  141MOL0     C19385   7.563   5.182   7.198  0.4504  0.6913 -0.3696
  141MOL0     C19386   7.964   5.130   6.701 -0.0746  0.9034  0.6481
  141MOL0     C19387   7.990   5.239   6.612  0.4183  1.2351  0.6622
  141MOL0     C19388   7.869   5.332   6.605 -0.4658 -0.0187  0.3002
  141MOL0     H19389   8.054   5.369   6.083 -2.6501  2.9580  2.0419
  141MOL0     H19390   8.125   5.497   5.913 -0.7533  0.5577 -0.0320
  141MOL0     H19391   8.426   5.839   6.024 -0.0969 -0.9837  0.5244
  141MOL0     H19392   8.261   5.875   5.990 -0.4916 -1.5258  0.5990
  141MOL0     H19393   8.424   5.996   5.859  2.8884 -1.2241  2.2370
  141MOL0     H19394   8.481   5.851   5.776  1.1480  2.4035  0.1323
  141MOL0     H19395   8.238   5.812   5.714  0.3290  0.0561  3.0812
  141MOL0     H19396   8.202   5.982   5.752 -2.0843 -0.0327 -2.9581
  141MOL0     H19397   8.377   6.063   5.595  2.3241 -0.8940  0.8184
  141MOL0     H19398   8.392   5.894   5.532 -0.2196  0.0271 -1.3275
  141MOL0     H19399   8.234   6.051   5.394  0.5999  0.5180  0.8611
  141MOL0     H19400   8.131   6.059   5.537 -2.4925  0.9875 -3.0272
  141MOL0     H19401   8.097   5.802   5.515  0.8959  0.1817 -0.3359
  141MOL0     H19402   8.036   5.897   5.397 -1.6110 -0.6437  2.9225
  141MOL0     H19403   8.300   5.758   5.373 -0.3000 -1.4057  0.7835
  141MOL0     H19404   8.226   5.845   5.241 -0.4040 -0.7914 -0.7321
  141MOL0     H19405   8.017   5.702   5.254 -0.3360  1.4841  2.2736
  141MOL0     H19406   8.144   5.603   5.201 -1.0473 -2.4047  2.6047
  141MOL0     H19407   8.266   5.443   5.412  0.7091 -0.7694  0.1907
  141MOL0     H19408   8.139   5.357   5.745  0.6354 -1.4503  1.4801
  141MOL0     H19409   8.258   5.312   5.637  0.4962  3.6294 -2.7218
  141MOL0     H19410   8.118   5.119   5.697 -3.6275 -1.5073  0.9985
  141MOL0     H19411   7.979   5.187   5.611 -0.7065 -0.1586  3.3592
  141MOL0     H19412   8.088   5.183   5.395  3.5582 -0.6957 -1.9028
  141MOL0     H19413   8.237   5.138   5.477 -0.0589 -0.5498  0.9018
  141MOL0     H19414   8.063   4.958   5.339 -1.4557 -0.1742  0.7242
  141MOL0     H19415   8.168   4.922   5.467  1.1438  1.7597  1.3596
  141MOL0     H19416   7.748   4.916   5.684 -1.7918  0.4128 -0.5959
  141MOL0     H19417   7.615   4.650   5.834 -0.8202  1.4116  0.9488
  141MOL0     H19418   7.528   4.676   5.673  0.1717  1.0606 -1.8550
  141MOL0     H19419   7.585   4.808   5.766  0.0405  0.6043 -2.8808
  141MOL0     H19420   7.797   4.167   5.836  1.3565  1.0718 -0.5402
  141MOL0     H19421   7.713   3.937   5.792 -1.1437  1.3344  0.4698
  141MOL0     H19422   7.764   3.771   5.388  3.0233 -0.0427  1.8087
  141MOL0     H19423   7.835   3.707   5.532 -1.2596 -1.0336 -1.1907
  141MOL0     H19424   7.657   3.555   5.559 -1.3067 -1.0234 -0.3145
  141MOL0     H19425   7.557   3.631   5.435  0.3326 -2.1853 -0.7967
  141MOL0     H19426   7.827   3.491   5.365  0.5193  1.4942  0.0370
  141MOL0     H19427   7.704   3.560   5.257  0.1858 -1.9446 -0.3731
  141MOL0     H19428   7.541   3.393   5.342  0.6565  0.4893 -1.4390
  141MOL0     H19429   7.673   3.338   5.459 -2.4968 -1.3929  0.8326
  141MOL0     H19430   7.731   3.337   5.169 -1.1794  1.9229  0.7836
  141MOL0     H19431   7.783   3.227   5.297 -2.4749 -0.4320  1.0536
  141MOL0     H19432   7.518   3.190   5.298  2.3291  2.2523  2.6854
  141MOL0     H19433   7.645   3.083   5.215  1.2337  0.7740  0.4517
  141MOL0     H19434   7.497   3.110   5.040 -2.6296  1.3375  0.5006
  141MOL0     H19435   7.612   3.227   5.014  1.2056 -0.7159  1.2705
  141MOL0     H19436   7.467   3.411   5.075  1.2347 -0.5385  2.4606
  141MOL0     H19437   7.350   3.296   5.151  0.0921 -1.0149 -0.3874
  141MOL0     H19438   7.735   4.011   5.366 -0.7610  2.8567 -0.6573
  141MOL0     H19439   7.824   4.230   5.419  0.3517  0.4456  0.5632
  141MOL0     H19440   7.945   4.502   5.481  1.4798 -0.4527  0.3845
  141MOL0     H19441   8.032   4.729   5.409 -0.4092  0.1236  0.5608
  141MOL0     H19442   8.446   5.660   6.157 -0.6384  1.3283  0.3575
  141MOL0     H19443   8.355   5.523   6.348 -0.5693 -2.4493  0.0076
  141MOL0     H19444   8.286   5.110   6.470  1.0649 -2.6479  0.1430
  141MOL0     H19445   8.210   4.931   6.617  0.1757  0.1490  3.1944
  141MOL0     H19446   7.864   4.924   6.864  0.2946 -1.8534 -2.2832
  141MOL0     H19447   7.983   4.845   6.965 -0.9540  1.0207  3.1643
  141MOL0     H19448   8.016   5.137   6.945 -2.0399 -0.3055 -0.5648
  141MOL0     H19449   8.079   5.017   7.065  0.0943 -0.4264  0.5637
  141MOL0     H19450   7.839   5.009   7.153  0.6182  1.5528  2.7998
  141MOL0     H19451   7.934   5.145   7.184  2.4548 -3.2923  1.5006
  141MOL0     H19452   7.753   5.168   6.936  2.7880  3.3597 -2.1163
  141MOL0     H19453   7.812   5.292   7.009  0.3056  0.1555 -1.0263
  141MOL0     H19454   7.472   5.179   7.255 -2.1374 -0.6917 -4.1905
  141MOL0     H19455   7.869   5.132   6.753 -0.0305  2.8576  0.7152
  141MOL0     H19456   7.794   5.325   6.685 -1.7660  1.6727 -0.6973
  141MOL0     H19457   7.911   5.432   6.608  1.4230 -0.7980  2.2744
  141MOL0     H19458   7.810   5.300   6.518  3.3063 -1.3833 -2.0067
  142MOL0     O19459   7.109   6.556  10.455  0.1363  0.5636 -0.0490
  142MOL0     C19460   7.122   6.450  10.521  0.6653 -0.7671 -0.0272
  142MOL0     O19461   7.141   6.324  10.468 -0.0321 -0.8209  0.4820
  142MOL0     C19462   7.214   6.307  10.354  0.1557  0.9671 -0.4655
  142MOL0     C19463   7.208   6.174  10.304 -0.3857  0.4476  0.2647
  142MOL0     C19464   7.277   6.129  10.185  1.1080 -0.7210 -0.2511
  142MOL0     C19465   7.357   6.221  10.120  0.4836  0.2438 -0.0696
  142MOL0     O19466   7.422   6.163  10.011  1.2714 -0.0541 -0.1400
  142MOL0     C19467   7.533   6.231   9.956 -0.0286  0.0800 -0.0913
  142MOL0     C19468   7.659   6.193  10.049  0.0130 -0.3150 -0.0906
  142MOL0     C19469   7.678   6.044  10.080 -0.1349 -0.6124 -0.3516
  142MOL0     C19470   7.820   6.033  10.133  0.1299 -0.3317  0.1282
  142MOL0     C19471   7.860   5.882  10.146  0.2381 -0.6664  0.2321
  142MOL0     C19472   7.960   5.837  10.259  0.4150 -0.5397  0.4976
  142MOL0     C19473   8.107   5.858  10.233 -0.0587 -0.2346  0.1210
  142MOL0     C19474   8.137   6.008  10.200 -0.7607  0.0524 -0.9966
  142MOL0     N19475   8.286   6.017  10.182 -0.1722 -0.0851 -0.6422
  142MOL0     C19476   8.358   5.965  10.082  0.5097  0.2693  0.7643
  142MOL0     C19477   8.487   5.998  10.098  0.0892  0.3722 -0.4280
  142MOL0     C19478   8.621   5.984  10.022  0.3173 -0.4127 -0.5096
  142MOL0     C19479   8.696   5.850  10.052 -0.6801 -0.8273  0.2146
  142MOL0     C19480   8.600   5.728  10.038  0.8180  0.0983 -0.6856
  142MOL0     C19481   8.548   5.706   9.902  0.9532  0.4841  0.3174
  142MOL0     O19482   8.507   5.565   9.895 -0.7579  0.2036 -0.2011
  142MOL0     C19483   8.448   5.510   9.788 -0.2248 -0.2018  0.5056
  142MOL0     C19484   8.369   5.393   9.801 -0.0508 -0.2990 -0.3110
  142MOL0     C19485   8.269   5.359   9.703 -0.5919  1.2516 -0.7082
  142MOL0     C19486   8.192   5.231   9.725  0.5210 -0.3911 -0.6638
  142MOL0     C19487   8.262   5.434   9.587  0.9091  0.6986  0.2809
  142MOL0     C19488   8.137   5.442   9.502 -0.4040  0.7261  0.4906
  142MOL0     O19489   8.131   5.540   9.414 -0.8397 -0.6725  0.3495
  142MOL0     C19490   8.020   5.575   9.337  0.3119  0.4339 -1.1006
  142MOL0     C19491   7.928   5.484   9.291  0.0477 -0.1007 -0.5494
  142MOL0     C19492   7.819   5.518   9.213 -0.3042  0.0360  0.1592
  142MOL0     C19493   7.800   5.647   9.162 -0.5137  0.3772  0.4102
  142MOL0     O19494   7.696   5.694   9.088 -0.1903 -0.3012  0.5657
  142MOL0     C19495   7.609   5.770   9.166 -0.5040 -0.1622 -0.0148
  142MOL0     C19496   7.532   5.683   9.269 -0.3553  0.2310  0.0294
  142MOL0     C19497   7.412   5.625   9.203  0.1528 -0.2014  0.8031
  142MOL0     C19498   7.314   5.576   9.306 -0.5482 -0.3844 -0.0185
  142MOL0     C19499   7.225   5.465   9.268 -0.7233 -0.7329 -0.3795
  142MOL0     C19500   7.123   5.427   9.374  0.4117  0.0875  0.1560
  142MOL0     C19501   6.984   5.418   9.315  0.4286 -0.0013 -0.4866
  142MOL0     C19502   6.952   5.292   9.233  0.0407  0.6852  0.7837
  142MOL0    Cl19503   6.896   5.149   9.318  0.1775 -0.3483  0.3533
  142MOL0     C19504   7.899   5.742   9.196  0.4097  0.2597 -0.1043
  142MOL0     C19505   8.011   5.705   9.282  0.6589 -0.0661 -0.3499
  142MOL0     O19506   8.047   5.360   9.522  0.3130 -0.7053 -0.1188
  142MOL0     C19507   8.349   5.538   9.565 -0.2435  0.1145 -0.0958
  142MOL0     C19508   8.436   5.581   9.667 -0.1924  0.0074 -0.9878
  142MOL0     N19509   8.485   6.093  10.205 -0.6985 -0.7068 -0.3430
  142MOL0     N19510   8.367   6.101  10.248 -0.0977  0.0312  0.2135
  142MOL0     C19511   7.360   6.357  10.167 -0.3316 -0.5851  0.1671
  142MOL0     C19512   7.292   6.396  10.281 -0.6001  0.5756  0.8300
  142MOL0     C19513   7.104   6.458  10.666  0.7959 -0.2923  0.1456
  142MOL0     C19514   7.085   6.333  10.739 -0.5672  0.0118 -0.9938
  142MOL0     C19515   7.059   6.338  10.875 -0.3347  0.2453  0.2063
  142MOL0     C19516   7.062   6.464  10.940  0.3638  0.0981  0.0586
  142MOL0     O19517   7.046   6.484  11.071  0.0528 -0.9299 -0.2255
  142MOL0     C19518   7.091   6.384  11.166  0.4905  0.1763  0.4043
  142MOL0     C19519   7.064   6.405  11.306 -0.1411  0.4638 -0.1368
  142MOL0     C19520   6.914   6.409  11.332  0.1360  0.0016  1.1128
  142MOL0     C19521   6.873   6.436  11.479 -0.3757  0.3017  0.4859
  142MOL0     C19522   6.955   6.540  11.551  0.3033 -0.0303  0.2088
  142MOL0     C19523   7.019   6.631  11.602  0.3070  0.1369  0.0859
  142MOL0     C19524   7.059   6.582  10.874 -1.0379 -0.7443 -0.4875
  142MOL0     C19525   7.080   6.585  10.735 -0.5522  0.4481 -0.1587
  142MOL0     C19526   7.060   6.727  10.677  0.1327  1.0679  0.6763
  142MOL0     H19527   7.162   6.089  10.354  0.0433  0.5650  0.8809
  142MOL0     H19528   7.259   6.033  10.138 -3.0901  0.3701 -1.3339
  142MOL0     H19529   7.523   6.340   9.964  3.3306  0.3563  1.9226
  142MOL0     H19530   7.557   6.193   9.856 -1.5023 -2.5976  0.4732
  142MOL0     H19531   7.744   6.229   9.989  0.2552 -1.0659 -0.2004
  142MOL0     H19532   7.666   6.253  10.141  2.4957  1.9323 -1.5699
  142MOL0     H19533   7.597   6.012  10.148 -0.0812 -0.4110 -0.1937
  142MOL0     H19534   7.663   5.985   9.989 -0.9098 -2.8805  1.1495
  142MOL0     H19535   7.889   6.083  10.065  3.0869 -2.3410  1.4619
  142MOL0     H19536   7.823   6.082  10.231  0.4733  2.6522 -1.2561
  142MOL0     H19537   7.898   5.861  10.046 -3.7534  0.9248 -1.8738
  142MOL0     H19538   7.764   5.832  10.163  0.0113 -0.5059 -0.5599
  142MOL0     H19539   7.918   5.875  10.352 -1.3739 -0.4231 -0.3108
  142MOL0     H19540   7.947   5.729  10.270  0.5392 -0.3626  2.8947
  142MOL0     H19541   8.136   5.790  10.153  1.6054  2.8510 -2.0853
  142MOL0     H19542   8.161   5.824  10.322  4.6561  2.0943 -1.5425
  142MOL0     H19543   8.084   6.049  10.114 -1.4392  2.3159  0.4297
  142MOL0     H19544   8.103   6.065  10.286 -0.7212 -0.2172 -0.7990
  142MOL0     H19545   8.315   5.909   9.999  2.3309 -0.1403  0.0461
  142MOL0     H19546   8.684   6.073  10.028  0.5896 -0.4953 -1.7344
  142MOL0     H19547   8.595   5.979   9.915 -2.1503  1.8547 -0.1142
  142MOL0     H19548   8.775   5.841   9.976  0.2205  2.1018  0.6864
  142MOL0     H19549   8.744   5.836  10.149 -2.1302 -1.5537  0.8583
  142MOL0     H19550   8.649   5.639  10.077  1.4162  0.6920 -0.0431
  142MOL0     H19551   8.518   5.746  10.108  2.2196  2.3412  0.5037
  142MOL0     H19552   8.450   5.749   9.883  0.3054 -1.1209 -0.1804
  142MOL0     H19553   8.616   5.740   9.823 -0.0946  1.3155 -0.2571
  142MOL0     H19554   8.378   5.345   9.898  1.9862 -1.0446 -0.8097
  142MOL0     H19555   8.167   5.180   9.632 -0.3599  2.7203 -2.2557
  142MOL0     H19556   8.097   5.247   9.778 -0.2299 -4.0348 -0.6321
  142MOL0     H19557   8.256   5.172   9.791  1.0941 -1.1459 -1.8579
  142MOL0     H19558   7.916   5.385   9.333 -0.3666  1.1463  2.5480
  142MOL0     H19559   7.753   5.435   9.189 -1.0128 -0.1601  2.5390
  142MOL0     H19560   7.655   5.843   9.234 -2.0016 -0.0587  0.9253
  142MOL0     H19561   7.533   5.825   9.110 -0.5378  0.9134  1.0290
  142MOL0     H19562   7.598   5.602   9.304  1.3226  0.6777 -1.8703
  142MOL0     H19563   7.508   5.744   9.355 -1.4376 -1.8217  1.2685
  142MOL0     H19564   7.439   5.547   9.131  0.6867 -0.2385  1.0404
  142MOL0     H19565   7.363   5.706   9.148 -1.3222 -1.4440  0.2125
  142MOL0     H19566   7.256   5.666   9.327 -0.0747 -0.1938  0.5103
  142MOL0     H19567   7.366   5.561   9.402  0.3274 -2.2325 -0.7283
  142MOL0     H19568   7.177   5.502   9.177  1.1676  0.0348 -1.1028
  142MOL0     H19569   7.290   5.380   9.251 -0.3038 -1.0160  2.1675
  142MOL0     H19570   7.119   5.508   9.448  0.5561 -0.8711  1.2361
  142MOL0     H19571   7.139   5.333   9.427 -0.4717  0.0719  0.4043
  142MOL0     H19572   6.970   5.507   9.253  1.7326 -0.8758 -2.1013
  142MOL0     H19573   6.917   5.419   9.402 -0.4720  2.5387 -1.1131
  142MOL0     H19574   7.034   5.262   9.167 -0.9780  2.4957 -1.4409
  142MOL0     H19575   6.875   5.314   9.158  1.5142  0.3949 -0.8659
  142MOL0     H19576   7.881   5.848   9.184  2.3824  0.6090 -0.2842
  142MOL0     H19577   8.079   5.787   9.302 -0.1947  0.0499  2.5136
  142MOL0     H19578   8.335   5.615   9.489 -0.0795  0.7714  0.5207
  142MOL0     H19579   8.490   5.674   9.653 -1.0562  1.3828  3.3416
  142MOL0     H19580   7.430   6.424  10.119  0.8991  1.7627  4.7105
  142MOL0     H19581   7.307   6.498  10.316  2.5111  1.4312 -2.4231
  142MOL0     H19582   7.095   6.235  10.693 -0.6604 -0.4193 -0.1148
  142MOL0     H19583   7.057   6.239  10.918 -1.3922 -0.1950 -0.7847
  142MOL0     H19584   7.044   6.286  11.151 -1.2324  1.1893 -1.3833
  142MOL0     H19585   7.199   6.382  11.149  0.6827  1.5384  1.3234
  142MOL0     H19586   7.121   6.489  11.345  2.5846 -2.6191  3.2489
  142MOL0     H19587   7.097   6.318  11.363  2.0338  0.0716 -1.8508
  142MOL0     H19588   6.865   6.488  11.274  0.5270 -0.6042 -0.0960
  142MOL0     H19589   6.870   6.315  11.297  1.0216 -0.2410  0.6094
  142MOL0     H19590   6.877   6.348  11.544 -0.0136  0.9994  1.4200
  142MOL0     H19591   6.767   6.462  11.475 -1.1980 -2.5799  1.3717
  142MOL0     H19592   7.089   6.700  11.646 -0.5030  2.1837 -1.6973
  142MOL0     H19593   7.048   6.668  10.939  0.2300 -0.5721 -0.4733
  142MOL0     H19594   7.153   6.748  10.624 -0.9851  2.2736 -0.9245
  142MOL0     H19595   6.983   6.720  10.599  2.4305 -1.5493 -1.5881
  142MOL0     H19596   7.040   6.802  10.754  2.2527  2.3873  0.0154
  143MOL0     O19597   5.337   4.453  11.108  0.2427 -0.4206  0.6842
  143MOL0     C19598   5.279   4.356  11.062 -0.1542  0.3834 -0.0479
  143MOL0     O19599   5.323   4.227  11.059 -1.2257 -0.1368  0.0586
  143MOL0     C19600   5.459   4.208  11.093  0.2574 -0.0473 -0.6286
  143MOL0     C19601   5.482   4.098  11.169  1.3433  0.1244 -1.0829
  143MOL0     C19602   5.610   4.067  11.215  0.2053 -0.2610 -0.0397
  143MOL0     C19603   5.718   4.153  11.172  0.4283  0.2624  0.5449
  143MOL0     O19604   5.844   4.111  11.208 -0.2147  0.3047 -0.8589
  143MOL0     C19605   5.979   4.165  11.190  0.8731  0.1827  0.3394
  143MOL0     C19606   6.088   4.067  11.258 -0.0331 -0.2589 -0.4748
  143MOL0     C19607   6.236   4.137  11.230 -0.6519  0.9426  0.1924
  143MOL0     C19608   6.280   4.069  11.093  0.0261  0.1927  0.0146
  143MOL0     C19609   6.424   4.119  11.054  0.5228  0.9934 -0.3546
  143MOL0     C19610   6.441   4.263  11.043 -0.6740  0.1608  0.1617
  143MOL0     C19611   6.569   4.304  10.980  0.1066 -0.3070  0.2568
  143MOL0     C19612   6.674   4.353  11.075 -0.2186  0.5458 -0.6575
  143MOL0     N19613   6.719   4.248  11.161 -0.0633  0.8814  0.4257
  143MOL0     C19614   6.780   4.128  11.121 -0.3263 -0.2529 -0.0664
  143MOL0     C19615   6.802   4.056  11.232 -0.8150 -0.3591 -0.5948
  143MOL0     C19616   6.889   3.932  11.233 -0.2973 -0.4829 -0.9617
  143MOL0     C19617   7.045   3.970  11.263 -0.2580 -0.3415 -0.5917
  143MOL0     C19618   7.138   3.848  11.229  0.1931 -0.1585  0.5816
  143MOL0     C19619   7.286   3.900  11.240 -0.2180  0.2163  0.4565
  143MOL0     O19620   7.319   3.971  11.122  0.1872  0.5789  0.0438
  143MOL0     C19621   7.431   4.048  11.111 -0.4709  0.2576 -0.1831
  143MOL0     C19622   7.513   4.096  11.211  0.1106  0.5289 -0.0112
  143MOL0     C19623   7.618   4.194  11.183  1.1420  0.1748 -0.1505
  143MOL0     C19624   7.704   4.225  11.295  1.1089  0.1645  0.7751
  143MOL0     C19625   7.649   4.237  11.053 -0.0684  0.6794 -0.0987
  143MOL0     C19626   7.743   4.336  11.010 -0.2005 -1.4454 -0.1990
  143MOL0     O19627   7.729   4.383  10.884  0.4911 -0.2040 -0.1856
  143MOL0     C19628   7.837   4.434  10.820  0.5310  0.2299  0.4692
  143MOL0     C19629   7.969   4.388  10.843  0.3471  0.0854  0.5812
  143MOL0     C19630   8.070   4.467  10.798  0.2934 -1.0148 -0.2190
  143MOL0     C19631   8.046   4.585  10.721 -0.6179 -0.1579  0.3853
  143MOL0     O19632   8.154   4.643  10.673  0.5211 -0.1789  0.3953
  143MOL0     C19633   8.134   4.708  10.553  0.0074  0.3827  0.5148
  143MOL0     C19634   8.271   4.741  10.501 -0.0398 -0.3473  0.5547
  143MOL0     C19635   8.258   4.834  10.376 -0.1683 -0.1367 -0.1760
  143MOL0     C19636   8.384   4.899  10.348  1.3479 -0.5990  0.1880
  143MOL0     C19637   8.383   4.962  10.207  0.0766 -0.6023 -0.5817
  143MOL0     C19638   8.522   5.029  10.191 -0.1735  0.4220 -1.0218
  143MOL0     C19639   8.536   5.094  10.044 -0.6588 -0.1342  0.1866
  143MOL0     C19640   8.506   5.000   9.920 -0.2804  1.6429 -0.5441
  143MOL0    Cl19641   8.632   4.861   9.925  0.5564 -0.1512  0.0562
  143MOL0     C19642   7.917   4.613  10.688 -0.0202 -0.3607 -0.3939
  143MOL0     C19643   7.817   4.539  10.732  0.1463 -0.9215 -0.1799
  143MOL0     O19644   7.813   4.394  11.098  0.0246  0.1351  0.1488
  143MOL0     C19645   7.571   4.179  10.951  0.5130  0.1789  0.3640
  143MOL0     C19646   7.461   4.088  10.984 -0.8054  0.6363  0.3484
  143MOL0     N19647   6.739   4.130  11.342 -0.8241  0.1176  0.2751
  143MOL0     N19648   6.691   4.243  11.295  0.5408  0.9790 -0.5868
  143MOL0     C19649   5.697   4.269  11.097  1.2771 -1.1863 -0.6803
  143MOL0     C19650   5.570   4.291  11.055 -0.0431 -0.2828 -0.3234
  143MOL0     C19651   5.145   4.370  11.010 -0.0253 -0.4068  0.3448
  143MOL0     C19652   5.149   4.439  10.885  0.5983  0.4224 -1.0812
  143MOL0     C19653   5.036   4.451  10.807  0.6637  0.0143  0.3101
  143MOL0     C19654   4.913   4.386  10.848  0.1998  0.3747 -0.7661
  143MOL0     O19655   4.793   4.381  10.785  0.3395 -0.0560  0.4244
  143MOL0     C19656   4.769   4.490  10.692  0.0512  0.3653  0.8571
  143MOL0     C19657   4.774   4.623  10.755 -0.0628 -0.4405  0.2857
  143MOL0     C19658   4.692   4.639  10.882  0.0959  0.6696 -0.4717
  143MOL0     C19659   4.621   4.776  10.895  0.2987 -0.2065  0.0252
  143MOL0     C19660   4.508   4.784  10.991  1.2102 -0.0343  0.1694
  143MOL0     C19661   4.412   4.788  11.073  0.0352 -0.6706  0.0533
  143MOL0     C19662   4.911   4.310  10.968 -0.8964  0.6549  0.8448
  143MOL0     C19663   5.027   4.297  11.050  0.6953 -0.3436  0.1413
  143MOL0     C19664   5.013   4.205  11.173  0.4061 -0.0039 -0.0095
  143MOL0     H19665   5.410   4.020  11.195  2.1140 -0.7242 -1.4462
  143MOL0     H19666   5.623   3.972  11.266 -0.2466  0.3772  1.3031
  143MOL0     H19667   5.995   4.256  11.247  0.3672  0.5035 -0.0229
  143MOL0     H19668   5.990   4.181  11.082  1.6833  2.4123  0.7048
  143MOL0     H19669   6.063   4.079  11.364  1.0078 -1.3056 -0.0873
  143MOL0     H19670   6.077   3.959  11.240  1.0397 -0.4921  0.1584
  143MOL0     H19671   6.220   4.245  11.223 -0.8999  0.8339 -1.3183
  143MOL0     H19672   6.319   4.119  11.299 -0.5376 -0.3799 -0.2552
  143MOL0     H19673   6.288   3.961  11.103  0.4632  0.0408 -1.6886
  143MOL0     H19674   6.211   4.094  11.012 -0.3908 -0.1702  0.2508
  143MOL0     H19675   6.450   4.069  10.960 -0.5870  0.4177 -0.3738
  143MOL0     H19676   6.494   4.075  11.126 -1.2317 -2.0656 -0.3659
  143MOL0     H19677   6.358   4.305  10.984 -0.8066  0.1817  0.3588
  143MOL0     H19678   6.440   4.295  11.148  0.7095 -3.6330  1.4970
  143MOL0     H19679   6.543   4.393  10.921 -1.6147  0.4052  1.9654
  143MOL0     H19680   6.614   4.231  10.913 -1.5694 -0.9009 -0.2876
  143MOL0     H19681   6.758   4.391  11.016 -1.5502  4.1658 -0.4517
  143MOL0     H19682   6.644   4.437  11.137  0.8769  1.1050 -0.8657
  143MOL0     H19683   6.821   4.088  11.028  3.0445 -0.0328  1.1858
  143MOL0     H19684   6.884   3.883  11.135  1.9103 -2.3367 -0.2398
  143MOL0     H19685   6.850   3.859  11.306 -1.2301  0.9814  0.0616
  143MOL0     H19686   7.070   4.064  11.212 -1.5174  0.1756 -0.2938
  143MOL0     H19687   7.052   3.998  11.369 -0.7189  0.9424 -0.8734
  143MOL0     H19688   7.112   3.769  11.299 -0.1993  1.0580  1.8499
  143MOL0     H19689   7.120   3.828  11.122 -3.3980  1.1934  0.7901
  143MOL0     H19690   7.289   3.963  11.329  1.3603 -1.3157  1.5904
  143MOL0     H19691   7.366   3.826  11.255 -1.7187 -2.2121 -2.4659
  143MOL0     H19692   7.496   4.070  11.315 -1.9386 -0.4960 -0.5526
  143MOL0     H19693   7.805   4.210  11.255  1.2510  1.2765  0.6820
  143MOL0     H19694   7.665   4.165  11.378 -1.4843 -0.8799 -1.0867
  143MOL0     H19695   7.709   4.331  11.325  0.3085  0.3297  0.3488
  143MOL0     H19696   7.978   4.296  10.901  1.4029  0.1968  0.6213
  143MOL0     H19697   8.175   4.440  10.803  0.7179  0.3166 -1.1571
  143MOL0     H19698   8.083   4.648  10.478 -2.2441  2.1616  0.5014
  143MOL0     H19699   8.074   4.797  10.574  0.4192  0.7207  0.2854
  143MOL0     H19700   8.325   4.802  10.574 -1.8948  3.4253 -0.9262
  143MOL0     H19701   8.337   4.656  10.481  1.1787  0.0074  2.7621
  143MOL0     H19702   8.184   4.913  10.392  0.8243  0.9120 -0.5637
  143MOL0     H19703   8.229   4.773  10.290  1.2146  0.3977 -1.0536
  143MOL0     H19704   8.455   4.817  10.364 -1.0284 -2.7519  0.2771
  143MOL0     H19705   8.394   4.975  10.427 -1.7018 -0.1545  0.2503
  143MOL0     H19706   8.368   4.890  10.127  0.8691  0.2526 -1.5265
  143MOL0     H19707   8.305   5.037  10.196 -1.8457 -1.7980  3.0594
  143MOL0     H19708   8.601   4.953  10.202 -0.2594  0.2006 -1.8762
  143MOL0     H19709   8.542   5.103  10.269  2.4292  1.6349 -2.6997
  143MOL0     H19710   8.636   5.129  10.018 -2.5289  3.4742 -3.2728
  143MOL0     H19711   8.481   5.188  10.035 -0.9573 -0.4172 -1.1551
  143MOL0     H19712   8.506   5.062   9.829  1.2423 -0.2373 -1.9045
  143MOL0     H19713   8.407   4.955   9.918  0.8081 -0.9299 -1.3641
  143MOL0     H19714   7.885   4.695  10.624 -0.5124  0.2245  0.5953
  143MOL0     H19715   7.716   4.577  10.724  1.2885  2.3399 -0.6469
  143MOL0     H19716   7.571   4.210  10.847  0.7022  1.9430  0.8596
  143MOL0     H19717   7.406   4.058  10.895 -1.2985  1.4067  0.3822
  143MOL0     H19718   5.779   4.331  11.062  0.1970  0.7908  0.1709
  143MOL0     H19719   5.569   4.378  10.991 -1.1992  0.8544  1.1538
  143MOL0     H19720   5.239   4.494  10.858  0.6312  0.2080 -1.4157
  143MOL0     H19721   5.025   4.512  10.718  0.0965 -1.4214 -0.6503
  143MOL0     H19722   4.837   4.491  10.606  2.2893  0.1152  2.5227
  143MOL0     H19723   4.669   4.478  10.651 -0.9196  0.9250  2.9193
  143MOL0     H19724   4.723   4.688  10.684  2.7605  0.9082 -0.6428
  143MOL0     H19725   4.877   4.658  10.759  0.2895 -1.5351  1.6288
  143MOL0     H19726   4.614   4.564  10.873  0.0019  1.0013 -2.8550
  143MOL0     H19727   4.757   4.610  10.965 -0.9249 -2.4579 -0.6340
  143MOL0     H19728   4.575   4.797  10.797 -1.8085 -1.1965  0.7332
  143MOL0     H19729   4.692   4.857  10.913  1.3169 -0.7093 -1.5826
  143MOL0     H19730   4.323   4.779  11.131  0.3678  0.7043  0.8294
  143MOL0     H19731   4.827   4.244  10.988  0.4385 -0.4610  3.1590
  143MOL0     H19732   4.952   4.237  11.258  1.6413 -2.4553  1.9566
  143MOL0     H19733   4.976   4.109  11.135 -0.7466 -0.4872  2.1414
  143MOL0     H19734   5.103   4.177  11.229 -0.9598 -2.2023  1.2584
  144MOL0     O19735  10.847   6.505   2.481 -0.0968 -0.2888 -0.3947
  144MOL0     C19736  10.891   6.623   2.490  0.4231 -0.2863  0.1975
  144MOL0     O19737  11.017   6.655   2.539  0.3975 -0.0982  0.5183
  144MOL0     C19738  11.069   6.557   2.626  0.1409 -0.2884  0.2049
  144MOL0     C19739  11.120   6.444   2.577 -0.0349  0.6076 -0.0186
  144MOL0     C19740  11.131   6.337   2.665  0.0556  0.0895 -0.6881
  144MOL0     C19741  11.103   6.348   2.802  0.1866  0.3538 -0.0772
  144MOL0     O19742  11.133   6.243   2.875 -0.3104  0.4163 -0.4246
  144MOL0     C19743  11.085   6.222   3.009  0.5063  0.7238  0.8269
  144MOL0     C19744  11.099   6.082   3.054  0.1264  0.0314 -0.3651
  144MOL0     C19745  11.242   6.037   3.040  0.3173  0.4574 -0.3950
  144MOL0     C19746  11.340   6.079   3.150  0.2865  0.9280  0.9925
  144MOL0     C19747  11.500   6.074   3.118 -0.1303  0.4344 -0.3720
  144MOL0     C19748  11.568   5.946   3.175 -0.4684  0.1843  0.6593
  144MOL0     C19749  11.536   5.821   3.107 -0.1157 -0.0673  0.0383
  144MOL0     C19750  11.580   5.799   2.959  0.2602  0.3289 -0.7650
  144MOL0     N19751  11.614   5.661   2.919  0.6309 -0.2177  0.2230
  144MOL0     C19752  11.720   5.615   2.839 -0.3346 -0.0288 -0.6346
  144MOL0     C19753  11.713   5.479   2.822  1.0004 -0.4753  0.5654
  144MOL0     C19754  11.793   5.402   2.711 -0.9283 -0.3014  0.2934
  144MOL0     C19755  11.795   5.254   2.722  0.4195  0.1456  0.5339
  144MOL0     C19756  11.903   5.223   2.815  0.3436  0.4536 -0.2972
  144MOL0     C19757  11.883   5.078   2.859 -0.5736  0.1261  0.2046
  144MOL0     O19758  11.975   5.067   2.970 -0.6558  0.4343  0.0656
  144MOL0     C19759  11.982   4.947   3.035 -0.4074 -0.1949 -0.2129
  144MOL0     C19760  12.003   4.827   2.970  0.5906  0.2025  0.1899
  144MOL0     C19761  12.020   4.701   3.025  0.3708 -0.2749  0.1697
  144MOL0     C19762  12.028   4.582   2.936 -0.0097  0.6412  0.1749
  144MOL0     C19763  12.015   4.696   3.159 -1.2116  1.0105 -0.1452
  144MOL0     C19764  12.019   4.568   3.226 -0.1074 -0.1542  0.0171
  144MOL0     O19765  12.105   4.549   3.334 -0.1875  0.4272  0.0127
  144MOL0     C19766  12.119   4.421   3.388  0.3218  0.6627  0.4114
  144MOL0     C19767  12.244   4.380   3.423  0.3891 -0.0057 -1.1012
  144MOL0     C19768  12.268   4.260   3.502  0.4246  0.0649  0.6045
  144MOL0     C19769  12.157   4.184   3.550 -0.7818  0.3957 -0.0012
  144MOL0     O19770  12.201   4.067   3.597  0.5992 -0.1474 -0.6269
  144MOL0     C19771  12.123   3.951   3.581  0.8608 -0.4040  0.0261
  144MOL0     C19772  12.127   3.894   3.430  0.1165  0.0664  1.1973
  144MOL0     C19773  12.243   3.954   3.333 -0.4904  0.9192 -0.0012
  144MOL0     C19774  12.277   3.859   3.211 -0.6125 -0.3968 -0.2434
  144MOL0     C19775  12.220   3.912   3.080  0.1456  0.0482 -0.0923
  144MOL0     C19776  12.254   3.827   2.950  0.5685 -0.8176 -0.0888
  144MOL0     C19777  12.227   3.675   2.981  0.6676 -0.3469 -0.6034
  144MOL0     C19778  12.247   3.604   2.848  0.0267 -0.0620 -0.1100
  144MOL0    Cl19779  12.103   3.584   2.758 -0.0493 -0.0369  0.0658
  144MOL0     C19780  12.032   4.234   3.529 -0.1348 -0.0741 -0.6066
  144MOL0     C19781  12.014   4.339   3.444 -0.8207 -0.4984  1.1761
  144MOL0     O19782  11.929   4.496   3.199 -0.2172  0.5705  0.8903
  144MOL0     C19783  12.016   4.814   3.234 -0.8203  0.8448  0.1224
  144MOL0     C19784  12.006   4.937   3.175  0.5400 -0.6375  0.1866
  144MOL0     N19785  11.599   5.438   2.893  0.3867  0.3158  0.5250
  144MOL0     N19786  11.547   5.545   2.947  0.4263  0.1906  0.0521
  144MOL0     C19787  11.054   6.471   2.847  0.9141  0.1931 -0.4785
  144MOL0     C19788  11.046   6.581   2.763 -0.1331 -0.0407  0.3577
  144MOL0     C19789  10.809   6.737   2.437 -0.0081  0.0995 -0.5393
  144MOL0     C19790  10.838   6.794   2.318 -1.0416  0.0790  0.5973
  144MOL0     C19791  10.765   6.892   2.267  1.4709 -0.0873 -0.4347
  144MOL0     C19792  10.655   6.953   2.328  0.5224  0.0829  0.3616
  144MOL0     O19793  10.596   7.059   2.263 -0.4022 -0.8271  0.6716
  144MOL0     C19794  10.457   7.086   2.291 -1.4375  0.5200  0.2072
  144MOL0     C19795  10.377   6.995   2.201  0.2647  0.0407 -0.9542
  144MOL0     C19796  10.406   6.982   2.051  0.2796 -0.5458 -0.0773
  144MOL0     C19797  10.298   6.923   1.976  0.4258 -0.3008 -0.0889
  144MOL0     C19798  10.320   6.943   1.835  0.2523  0.6550  0.8368
  144MOL0     C19799  10.344   6.947   1.717 -0.6344  0.5363 -0.0892
  144MOL0     C19800  10.608   6.886   2.451 -1.2629  0.4634 -0.1220
  144MOL0     C19801  10.689   6.782   2.506 -0.8637  0.5856 -0.7787
  144MOL0     C19802  10.653   6.722   2.635 -0.3968 -0.2778  0.4147
  144MOL0     H19803  11.127   6.418   2.472 -1.4237 -4.4940  0.8756
  144MOL0     H19804  11.157   6.239   2.628  0.8610 -1.1064  2.6750
  144MOL0     H19805  10.980   6.248   3.022  0.3902  1.1899 -0.8592
  144MOL0     H19806  11.150   6.290   3.065  1.3005  0.6409  0.0309
  144MOL0     H19807  11.084   6.054   3.158 -0.3612 -1.8242 -0.8925
  144MOL0     H19808  11.039   6.020   2.986  3.0678 -0.7582 -2.4318
  144MOL0     H19809  11.249   5.927   3.038  1.7751  0.4902  0.8185
  144MOL0     H19810  11.279   6.078   2.945 -0.1259 -1.0005 -1.2430
  144MOL0     H19811  11.319   6.184   3.172 -0.6485  2.2314 -4.6659
  144MOL0     H19812  11.320   6.025   3.243  1.7850  0.0572  0.8391
  144MOL0     H19813  11.551   6.166   3.149  0.9902 -0.1538 -0.4294
  144MOL0     H19814  11.517   6.073   3.010  1.0323  1.8496 -0.2262
  144MOL0     H19815  11.677   5.951   3.171 -0.1516 -3.6217  0.4493
  144MOL0     H19816  11.539   5.933   3.280 -2.4124 -1.9480 -0.0550
  144MOL0     H19817  11.434   5.792   3.134  0.3368 -1.0879  0.7104
  144MOL0     H19818  11.588   5.740   3.159 -1.0120 -0.8391 -0.2374
  144MOL0     H19819  11.499   5.834   2.894  0.6119 -2.1212 -2.6488
  144MOL0     H19820  11.667   5.864   2.944 -0.0872  0.7832 -0.8395
  144MOL0     H19821  11.787   5.681   2.784  0.6733 -0.7168 -0.2539
  144MOL0     H19822  11.894   5.443   2.709 -0.6012 -0.8489  2.4482
  144MOL0     H19823  11.738   5.416   2.618  2.4052  2.3755 -1.5001
  144MOL0     H19824  11.698   5.217   2.754 -0.7838  0.5326 -2.3116
  144MOL0     H19825  11.822   5.210   2.626  1.6031  1.8548  0.0277
  144MOL0     H19826  11.997   5.235   2.760  0.1720  0.8613 -0.5053
  144MOL0     H19827  11.904   5.283   2.906 -2.5841  0.7136 -0.3354
  144MOL0     H19828  11.786   5.044   2.896 -0.0023 -1.4222  0.3741
  144MOL0     H19829  11.906   5.017   2.771  0.0829  0.2763  0.2649
  144MOL0     H19830  12.002   4.836   2.862 -1.3894 -0.2808  0.1178
  144MOL0     H19831  12.009   4.605   2.831 -0.9331 -1.0693 -0.0647
  144MOL0     H19832  11.978   4.492   2.974 -0.3812  1.1430  0.8967
  144MOL0     H19833  12.134   4.555   2.942  0.7325  3.5545  2.7580
  144MOL0     H19834  12.331   4.441   3.401  0.4602  0.1383 -0.4388
  144MOL0     H19835  12.371   4.233   3.518  0.4066  0.0763  0.7406
  144MOL0     H19836  12.169   3.882   3.652 -1.7339 -0.3964  1.8498
  144MOL0     H19837  12.019   3.970   3.610  1.2445  2.4079 -0.1148
  144MOL0     H19838  12.129   3.786   3.449  1.5200  0.2914  2.4885
  144MOL0     H19839  12.036   3.907   3.370  0.6514  2.7922  0.8673
  144MOL0     H19840  12.335   3.964   3.391 -1.3579 -1.6020  1.9653
  144MOL0     H19841  12.219   4.053   3.292  0.4235 -0.1534 -3.4518
  144MOL0     H19842  12.225   3.764   3.221 -1.8955  0.1925 -1.0742
  144MOL0     H19843  12.384   3.840   3.200 -0.4011 -0.0309  1.0113
  144MOL0     H19844  12.112   3.911   3.092  0.2233  0.0428  0.6039
  144MOL0     H19845  12.264   4.010   3.060  0.7668 -0.4063 -1.0669
  144MOL0     H19846  12.361   3.832   2.928  0.0227 -2.1763 -3.7506
  144MOL0     H19847  12.201   3.871   2.865  1.9211  0.5378 -0.2804
  144MOL0     H19848  12.136   3.643   3.032  1.3508 -0.7434  0.4090
  144MOL0     H19849  12.304   3.642   3.052 -0.0580  0.8708  0.8011
  144MOL0     H19850  12.274   3.501   2.874 -0.7328  0.0093  1.0698
  144MOL0     H19851  12.325   3.646   2.785 -1.7711  2.6945 -0.6702
  144MOL0     H19852  11.956   4.174   3.577  0.9421  0.0545  1.3463
  144MOL0     H19853  11.920   4.389   3.426  1.1956  3.5136  0.5211
  144MOL0     H19854  12.032   4.811   3.342  1.7573 -2.9041 -0.1422
  144MOL0     H19855  12.020   5.021   3.242  3.9029  0.0562 -1.1853
  144MOL0     H19856  11.035   6.479   2.953  2.5199 -0.3430 -0.1151
  144MOL0     H19857  11.015   6.678   2.800 -1.1285 -0.1896 -0.0463
  144MOL0     H19858  10.920   6.759   2.257 -2.5981 -2.5904 -0.0847
  144MOL0     H19859  10.792   6.931   2.169  0.0088 -0.6299 -1.0852
  144MOL0     H19860  10.430   7.067   2.396 -1.4574 -2.1995 -0.2244
  144MOL0     H19861  10.429   7.190   2.270  2.2313  1.6981  0.4474
  144MOL0     H19862  10.273   7.027   2.203  0.3776  0.4220 -1.2013
  144MOL0     H19863  10.386   6.898   2.251 -1.1437  0.7253  0.7342
  144MOL0     H19864  10.441   7.079   2.014  0.9893 -1.3645 -1.6628
  144MOL0     H19865  10.497   6.922   2.045  1.8874  0.8707  4.8606
  144MOL0     H19866  10.203   6.972   1.999 -0.1757 -1.7781  0.6584
  144MOL0     H19867  10.286   6.815   1.990  1.1251 -0.7820 -2.6438
  144MOL0     H19868  10.387   6.960   1.620 -1.0880  1.4554 -0.1745
  144MOL0     H19869  10.514   6.917   2.496 -1.0481  1.2327 -0.1839
  144MOL0     H19870  10.585   6.789   2.689  1.1760  2.1653 -0.4839
  144MOL0     H19871  10.589   6.637   2.608  0.0369  0.4624 -3.6685
  144MOL0     H19872  10.744   6.697   2.690 -1.1480 -0.4585  1.6097
  145MOL0     O19873   9.567  10.432   6.977 -0.5652 -0.0323 -0.3714
  145MOL0     C19874   9.684  10.461   7.007 -0.3934  0.1356 -0.8378
  145MOL0     O19875   9.778  10.502   6.920 -0.3738  0.4791 -0.4053
  145MOL0     C19876   9.905  10.510   6.960 -0.0882 -0.4327 -0.7538
  145MOL0     C19877   9.968  10.629   6.956  0.3903  0.6673  0.3116
  145MOL0     C19878  10.097  10.630   7.003 -0.4461 -0.3515 -0.1718
  145MOL0     C19879  10.172  10.512   7.041  0.3322  0.3377 -0.6660
  145MOL0     O19880  10.307  10.508   7.072 -0.0021 -1.0161  0.4345
  145MOL0     C19881  10.390  10.630   7.069 -0.1740 -0.1003 -0.1059
  145MOL0     C19882  10.420  10.697   6.930  0.6517  0.2441  0.3038
  145MOL0     C19883  10.548  10.780   6.898  0.3604 -1.1779 -0.2730
  145MOL0     C19884  10.555  10.914   6.975  0.0128 -1.0725  0.0296
  145MOL0     C19885  10.668  11.005   6.921 -1.1646  0.0134  0.2648
  145MOL0     C19886  10.814  10.960   6.955 -0.4092 -0.4891  0.0310
  145MOL0     C19887  10.833  10.953   7.110 -0.2416  0.1971  1.0577
  145MOL0     C19888  10.989  10.937   7.149  0.4476  0.5691  0.1415
  145MOL0     N19889  11.010  10.931   7.289  0.5540  0.3375  0.6528
  145MOL0     C19890  10.927  10.985   7.390 -0.0419 -0.4063  0.0563
  145MOL0     C19891  10.987  10.946   7.500 -0.0645 -0.2952 -0.5277
  145MOL0     C19892  10.923  10.994   7.633 -0.1500 -1.4808  0.1961
  145MOL0     C19893  11.033  11.031   7.737  0.1114 -0.7163  0.0890
  145MOL0     C19894  10.980  11.002   7.875  1.2459  0.2005 -0.4679
  145MOL0     C19895  10.979  10.857   7.935  0.4220  0.0041  0.6421
  145MOL0     O19896  10.866  10.787   7.882  0.0541 -0.3172 -0.2124
  145MOL0     C19897  10.747  10.778   7.956 -0.6218  0.6224  0.2994
  145MOL0     C19898  10.714  10.840   8.077 -0.3967  0.2631  0.4326
  145MOL0     C19899  10.589  10.833   8.136 -0.0531 -0.4847  0.0095
  145MOL0     C19900  10.560  10.905   8.275 -0.1020  0.2778 -0.7334
  145MOL0     C19901  10.491  10.763   8.064  0.6412  0.5202  1.5233
  145MOL0     C19902  10.366  10.707   8.119  0.5979 -0.6468 -0.8674
  145MOL0     O19903  10.263  10.694   8.032  0.4673 -0.5358  0.4256
  145MOL0     C19904  10.170  10.598   8.073  0.4750  0.0268  0.0186
  145MOL0     C19905  10.088  10.606   8.191 -0.5610 -0.8895 -0.4349
  145MOL0     C19906  10.007  10.505   8.226  0.7225  0.6586 -1.3326
  145MOL0     C19907   9.999  10.388   8.162 -0.1108 -0.8819  0.3270
  145MOL0     O19908   9.923  10.280   8.180 -0.6252  0.3690 -0.6922
  145MOL0     C19909   9.852  10.240   8.300 -0.0695 -0.1345 -0.1127
  145MOL0     C19910   9.869  10.093   8.316  0.2428  0.2480 -0.5411
  145MOL0     C19911   9.807  10.031   8.195 -0.3403 -0.5878  0.0859
  145MOL0     C19912   9.812   9.874   8.199  0.5703 -0.0231  0.1550
  145MOL0     C19913   9.752   9.818   8.080  0.3977  0.6359 -0.9282
  145MOL0     C19914   9.602   9.834   8.088  0.3403  0.1674 -0.5482
  145MOL0     C19915   9.523   9.742   7.994 -0.7799 -0.8987  0.6631
  145MOL0     C19916   9.379   9.780   8.009 -0.1820  0.3893  0.1209
  145MOL0    Cl19917   9.262   9.669   7.921  0.1485  0.0365 -0.4136
  145MOL0     C19918  10.071  10.382   8.044  0.8271 -0.0660  0.2795
  145MOL0     C19919  10.156  10.485   7.993  0.1051  0.3414 -0.9664
  145MOL0     O19920  10.369  10.674   8.240  0.0074 -0.5723  0.4080
  145MOL0     C19921  10.523  10.694   7.938  0.7838 -0.7953 -0.6178
  145MOL0     C19922  10.653  10.703   7.888 -0.1584  0.6768  0.0225
  145MOL0     N19923  11.089  10.860   7.477  0.9729 -0.0827 -0.2282
  145MOL0     N19924  11.112  10.858   7.353 -0.1597 -0.6383  1.0563
  145MOL0     C19925  10.104  10.386   7.035 -0.3263  0.4556  0.2650
  145MOL0     C19926   9.967  10.386   6.987 -0.1438  1.0819 -0.4385
  145MOL0     C19927   9.703  10.471   7.147  0.3225  0.7845 -0.7388
  145MOL0     C19928   9.716  10.599   7.207 -1.0149 -0.5148  0.8863
  145MOL0     C19929   9.713  10.616   7.340 -0.9827  0.4062  1.0966
  145MOL0     C19930   9.726  10.502   7.427  0.4257 -0.0206 -0.5370
  145MOL0     O19931   9.716  10.509   7.566 -0.1009 -0.0656  0.6419
  145MOL0     C19932   9.712  10.638   7.633  0.0574 -0.0879 -0.1914
  145MOL0     C19933   9.668  10.637   7.782 -0.1671  0.1252  0.9860
  145MOL0     C19934   9.765  10.582   7.876  0.7989 -0.0598 -0.7814
  145MOL0     C19935   9.704  10.476   7.973  0.6853 -0.9012 -0.9506
  145MOL0     C19936   9.653  10.532   8.112 -0.5980  0.7152  0.3909
  145MOL0     C19937   9.629  10.569   8.216  0.4475  0.2413 -0.5410
  145MOL0     C19938   9.728  10.371   7.368 -1.5722  0.5517  0.0277
  145MOL0     C19939   9.716  10.360   7.228 -0.2725  0.7540 -0.2296
  145MOL0     C19940   9.748  10.221   7.167 -0.7694  0.0599 -0.5434
  145MOL0     H19941   9.902  10.710   6.925  2.2103  0.8708 -3.5253
  145MOL0     H19942  10.141  10.728   7.014  2.2208 -1.2859 -1.5440
  145MOL0     H19943  10.486  10.605   7.115  0.3658 -0.0866 -1.1898
  145MOL0     H19944  10.335  10.698   7.134 -3.1266 -2.7346  0.4348
  145MOL0     H19945  10.411  10.628   6.846 -0.3572  1.3808 -0.5647
  145MOL0     H19946  10.341  10.769   6.908  0.9170  0.3121 -0.4462
  145MOL0     H19947  10.630  10.712   6.918 -0.5238 -1.9552  0.8272
  145MOL0     H19948  10.561  10.799   6.791  0.7089 -3.5080 -0.7015
  145MOL0     H19949  10.466  10.972   6.950  0.4082  0.4165  1.8438
  145MOL0     H19950  10.564  10.900   7.083  0.8983 -1.8365 -0.1330
  145MOL0     H19951  10.661  11.105   6.966  1.0550 -0.1438  1.1107
  145MOL0     H19952  10.664  11.013   6.812 -3.5510  2.8714  0.4347
  145MOL0     H19953  10.820  10.856   6.920  0.6531 -1.4703  2.8127
  145MOL0     H19954  10.882  11.031   6.907 -0.6043  0.9555  1.7651
  145MOL0     H19955  10.768  10.880   7.159 -1.8737 -1.2364 -2.8685
  145MOL0     H19956  10.801  11.055   7.134 -1.7934  0.7821 -2.7964
  145MOL0     H19957  11.043  10.858   7.096  1.0080 -0.7439  2.5481
  145MOL0     H19958  11.037  11.031   7.117 -0.5302  1.6977  1.8419
  145MOL0     H19959  10.842  11.052   7.379  1.8455  1.9999 -0.7851
  145MOL0     H19960  10.857  10.914   7.666 -1.4111  0.4034  2.4630
  145MOL0     H19961  10.847  11.070   7.614 -0.2389 -2.3864 -4.1124
  145MOL0     H19962  11.133  10.989   7.722  0.4330 -0.5160  1.5401
  145MOL0     H19963  11.043  11.140   7.725 -0.1172 -0.6228  0.7406
  145MOL0     H19964  11.041  11.061   7.943  0.0030  1.3397 -0.2851
  145MOL0     H19965  10.876  11.038   7.877  0.9434 -0.2232 -3.2925
  145MOL0     H19966  11.060  10.793   7.899 -0.8466 -3.9284  3.9792
  145MOL0     H19967  10.983  10.856   8.044  2.8474  1.1486  0.6101
  145MOL0     H19968  10.789  10.899   8.128  0.1600  1.3568 -1.5591
  145MOL0     H19969  10.453  10.916   8.294 -0.5286 -0.3610 -2.5562
  145MOL0     H19970  10.629  10.988   8.293  0.1153  0.0003 -0.2427
  145MOL0     H19971  10.601  10.831   8.345  1.7094 -2.1174 -4.0368
  145MOL0     H19972  10.088  10.689   8.261  0.1838 -1.0097 -0.2852
  145MOL0     H19973   9.953  10.527   8.318  1.3092  0.4218 -0.9298
  145MOL0     H19974   9.898  10.276   8.392  2.6283 -2.2311 -0.4940
  145MOL0     H19975   9.748  10.270   8.283 -0.6792 -3.1764 -2.6756
  145MOL0     H19976   9.972  10.057   8.331  0.5776  2.3258  3.4606
  145MOL0     H19977   9.819  10.059   8.407  2.9465 -0.3290  0.8260
  145MOL0     H19978   9.870  10.064   8.112  1.2286  0.7478  1.7323
  145MOL0     H19979   9.709  10.079   8.188 -1.0936 -2.0126  0.4142
  145MOL0     H19980   9.763   9.836   8.289 -0.0620 -1.8533 -0.9096
  145MOL0     H19981   9.913   9.833   8.201  0.6437  0.1725  1.5782
  145MOL0     H19982   9.785   9.864   7.986 -1.3018  2.2285 -0.7891
  145MOL0     H19983   9.769   9.710   8.080  0.5054  0.5041  3.4347
  145MOL0     H19984   9.581   9.940   8.075  0.7426  0.0651 -2.2106
  145MOL0     H19985   9.565   9.797   8.185 -1.0414 -1.0024 -1.4846
  145MOL0     H19986   9.560   9.641   8.016  0.1290 -1.0972 -1.5176
  145MOL0     H19987   9.551   9.778   7.894 -3.0330  3.3855  1.3757
  145MOL0     H19988   9.375   9.875   7.955 -0.2680 -1.8142 -4.2328
  145MOL0     H19989   9.366   9.790   8.117 -0.6226  0.0375  0.1032
  145MOL0     H19990  10.054  10.296   7.980 -0.5097  1.1462 -1.0535
  145MOL0     H19991  10.212  10.477   7.900 -0.4740  3.7150 -1.7442
  145MOL0     H19992  10.449  10.636   7.884 -0.3380 -0.2965  0.3285
  145MOL0     H19993  10.670  10.642   7.800  1.7107 -0.3983  1.0482
  145MOL0     H19994  10.161  10.298   7.061 -0.3754 -0.3903 -2.2120
  145MOL0     H19995   9.913  10.294   6.969 -1.9150  2.2936 -1.6708
  145MOL0     H19996   9.712  10.670   7.125  0.6210 -2.6875 -1.2413
  145MOL0     H19997   9.711  10.717   7.379 -3.0229 -0.1162  2.4785
  145MOL0     H19998   9.796  10.703   7.605 -0.9482  0.9365 -0.9115
  145MOL0     H19999   9.628  10.693   7.591 -0.3103 -2.1442 -2.3877
  145MOL0     H20000   9.576  10.578   7.786 -0.6581  0.2680 -3.3862
  145MOL0     H20001   9.640  10.735   7.822  1.9926  1.9082 -1.5571
  145MOL0     H20002   9.845  10.528   7.824  2.4821  0.2549  1.3632
  145MOL0     H20003   9.805  10.668   7.930 -2.9677  0.5879  1.3169
  145MOL0     H20004   9.780  10.400   7.993  0.7849  0.1328  3.8380
  145MOL0     H20005   9.615  10.426   7.935 -0.6979 -0.4882  1.5202
  145MOL0     H20006   9.621  10.594   8.320 -0.3760 -3.7502  0.5190
  145MOL0     H20007   9.732  10.288   7.439 -1.4412 -0.0360 -0.6559
  145MOL0     H20008   9.664  10.159   7.199 -1.1362  0.8797  0.1309
  145MOL0     H20009   9.723  10.223   7.060 -1.7519 -1.9368 -0.3885
  145MOL0     H20010   9.846  10.180   7.191 -2.2788 -2.9078  1.0986
  146MOL0     O20011  10.850   6.231   5.645  0.4663 -0.4888 -0.0790
  146MOL0     C20012  10.811   6.343   5.652  0.7918 -0.2430  0.6297
  146MOL0     O20013  10.688   6.383   5.677  0.4984  0.1432  0.4070
  146MOL0     C20014  10.609   6.333   5.780  0.5889  1.1708  0.4439
  146MOL0     C20015  10.470   6.378   5.791  0.2432  0.1917  0.4074
  146MOL0     C20016  10.391   6.327   5.897  0.1227  0.5606  0.0323
  146MOL0     C20017  10.436   6.233   5.987  0.5873 -0.1893  0.0334
  146MOL0     O20018  10.345   6.206   6.083 -0.5193 -0.6809  0.1931
  146MOL0     C20019  10.358   6.281   6.201  0.0695  0.2417  1.2104
  146MOL0     C20020  10.262   6.216   6.300 -0.2523 -0.4962  0.5372
  146MOL0     C20021  10.253   6.292   6.439  0.0887  0.8998  0.5780
  146MOL0     C20022  10.213   6.442   6.437 -0.4092  0.2024  0.0875
  146MOL0     C20023  10.063   6.465   6.417  0.1756 -0.0433 -0.1826
  146MOL0     C20024  10.015   6.611   6.419 -0.6177  0.4270  0.6277
  146MOL0     C20025   9.863   6.627   6.387  0.5495 -0.3952 -0.7589
  146MOL0     C20026   9.814   6.760   6.455  0.4736  0.3940 -0.5816
  146MOL0     N20027   9.664   6.780   6.456 -0.8027  0.0760  0.1430
  146MOL0     C20028   9.574   6.693   6.412  0.8846  0.3493  0.0445
  146MOL0     C20029   9.452   6.751   6.423  1.3409  0.7274  0.3303
  146MOL0     C20030   9.312   6.690   6.394  0.2889  0.1772  0.0832
  146MOL0     C20031   9.305   6.556   6.323 -1.0185  0.0173 -1.1178
  146MOL0     C20032   9.194   6.547   6.223 -0.2875  0.4298 -0.6362
  146MOL0     C20033   9.175   6.392   6.183  0.1257  0.2815  0.6241
  146MOL0     O20034   9.292   6.336   6.117 -0.3794  0.2447  0.6454
  146MOL0     C20035   9.301   6.193   6.092  0.2723  0.3865 -0.0618
  146MOL0     C20036   9.210   6.095   6.138 -0.1745  0.5870 -0.0822
  146MOL0     C20037   9.210   5.964   6.092  0.6365  0.1874 -0.3619
  146MOL0     C20038   9.108   5.872   6.151  0.2822 -0.6567 -0.7021
  146MOL0     C20039   9.302   5.918   5.989  0.7844  0.1339  0.7249
  146MOL0     C20040   9.310   5.787   5.925  1.0593 -0.6288 -1.2144
  146MOL0     O20041   9.366   5.786   5.804  0.8727  0.4608 -0.2746
  146MOL0     C20042   9.395   5.674   5.752 -0.2588 -0.2642 -0.0663
  146MOL0     C20043   9.491   5.593   5.809 -1.7059 -0.1824  1.0448
  146MOL0     C20044   9.522   5.470   5.745 -0.1182 -0.5587 -0.0064
  146MOL0     C20045   9.447   5.423   5.630 -0.4964 -0.5850 -0.0228
  146MOL0     O20046   9.468   5.300   5.567 -0.3605  0.0626  0.1542
  146MOL0     C20047   9.567   5.205   5.602 -0.5653 -0.5555 -0.4281
  146MOL0     C20048   9.541   5.080   5.521 -0.2293  0.6803 -0.9555
  146MOL0     C20049   9.419   5.006   5.562  0.1840  0.1155  0.5628
  146MOL0     C20050   9.339   4.935   5.448 -0.1062 -0.7856 -0.4173
  146MOL0     C20051   9.220   4.856   5.505 -1.0539  1.1151 -1.3868
  146MOL0     C20052   9.282   4.725   5.575 -0.0419 -0.0190 -0.4745
  146MOL0     C20053   9.171   4.636   5.645 -0.9602  0.7325 -0.2277
  146MOL0     C20054   9.218   4.488   5.628 -0.4884  0.6434 -0.5270
  146MOL0    Cl20055   9.375   4.464   5.711  0.1532  0.3226  0.4828
  146MOL0     C20056   9.353   5.510   5.577 -0.0340 -0.1966 -0.2962
  146MOL0     C20057   9.328   5.634   5.636  1.3366  0.9963  0.5319
  146MOL0     O20058   9.270   5.689   5.990  0.3598 -0.7017  0.8325
  146MOL0     C20059   9.395   6.022   5.946  0.7308 -0.1068 -0.5129
  146MOL0     C20060   9.393   6.152   5.995  0.0702 -0.0846 -0.1817
  146MOL0     N20061   9.476   6.881   6.472  0.4046 -0.2355 -0.3081
  146MOL0     N20062   9.610   6.893   6.492  0.5048  0.1728 -0.1488
  146MOL0     C20063  10.561   6.181   5.978  0.1911 -0.1372  0.2649
  146MOL0     C20064  10.639   6.222   5.865 -0.4375 -0.6155 -0.8310
  146MOL0     C20065  10.902   6.450   5.607  0.1927  1.3576 -0.6159
  146MOL0     C20066  10.959   6.543   5.704 -0.3805 -0.1793 -0.2330
  146MOL0     C20067  11.051   6.637   5.650  0.3514  0.3880 -1.2400
  146MOL0     C20068  11.083   6.643   5.514 -1.7220 -0.2506 -0.2938
  146MOL0     O20069  11.169   6.735   5.464 -0.2788 -0.3468  0.7712
  146MOL0     C20070  11.124   6.870   5.495  0.1114 -0.0305 -0.6203
  146MOL0     C20071  11.233   6.977   5.472 -0.2800  1.1647  0.4575
  146MOL0     C20072  11.174   7.115   5.518  0.2609  0.7358  0.5459
  146MOL0     C20073  11.112   7.198   5.410 -0.2707  0.7211 -0.3767
  146MOL0     C20074  11.005   7.135   5.327 -0.1438 -0.0205  0.2791
  146MOL0     C20075  10.903   7.090   5.278 -0.1968 -0.0161 -0.0333
  146MOL0     C20076  11.032   6.550   5.426  0.3110  0.5614  0.6141
  146MOL0     C20077  10.941   6.456   5.468 -0.0737 -0.1865 -0.8368
  146MOL0     C20078  10.896   6.364   5.363  0.0586 -0.8771 -0.6172
  146MOL0     H20079  10.420   6.453   5.730 -2.2299 -0.2920  1.7105
  146MOL0     H20080  10.292   6.368   5.914 -1.2399 -0.4373 -4.0780
  146MOL0     H20081  10.346   6.388   6.184  0.2740 -0.1212 -1.8381
  146MOL0     H20082  10.463   6.271   6.232  1.9528  5.5572 -2.0588
  146MOL0     H20083  10.162   6.220   6.256 -0.6584 -2.5200  1.1655
  146MOL0     H20084  10.283   6.110   6.321 -0.1845 -0.0647  2.9386
  146MOL0     H20085  10.189   6.243   6.514  0.6769  3.4759  2.9157
  146MOL0     H20086  10.359   6.277   6.462 -0.0739 -1.0120  0.2839
  146MOL0     H20087  10.224   6.473   6.541 -2.1402  0.3737  0.2414
  146MOL0     H20088  10.281   6.518   6.396 -1.6616  2.1506  1.4232
  146MOL0     H20089  10.014   6.426   6.507 -0.9615  2.7513  0.5247
  146MOL0     H20090  10.032   6.409   6.329  0.0856 -0.1185 -0.1035
  146MOL0     H20091  10.033   6.657   6.516 -3.2528  3.5542 -0.1952
  146MOL0     H20092  10.064   6.657   6.332 -2.5262  0.2807 -0.6024
  146MOL0     H20093   9.812   6.541   6.432  2.1274  0.3341  2.7290
  146MOL0     H20094   9.855   6.618   6.278 -1.6258 -3.5651 -0.4725
  146MOL0     H20095   9.850   6.741   6.556  1.2456  0.2962 -0.8680
  146MOL0     H20096   9.863   6.847   6.409 -1.6392  1.2420 -1.3358
  146MOL0     H20097   9.608   6.595   6.379  1.4027  0.8390 -0.9181
  146MOL0     H20098   9.256   6.769   6.344  1.8900  2.0218  1.0795
  146MOL0     H20099   9.270   6.681   6.494  0.0421  3.2980  0.3466
  146MOL0     H20100   9.398   6.531   6.270 -2.4848 -0.3610 -3.6662
  146MOL0     H20101   9.289   6.481   6.401 -1.9468  1.7240  0.4292
  146MOL0     H20102   9.104   6.594   6.264  1.6742  2.0540  2.2198
  146MOL0     H20103   9.205   6.607   6.132  0.2712  4.1032  1.6234
  146MOL0     H20104   9.158   6.347   6.281  0.0849 -1.2138 -0.0485
  146MOL0     H20105   9.088   6.376   6.117  1.1641  1.2113 -1.0450
  146MOL0     H20106   9.126   6.129   6.198 -0.0198 -0.5428  0.8043
  146MOL0     H20107   9.156   5.784   6.196  1.4077 -0.4543 -1.4759
  146MOL0     H20108   9.032   5.838   6.080  0.5544 -0.0143 -1.3086
  146MOL0     H20109   9.056   5.920   6.235  2.3171 -2.0654  1.4925
  146MOL0     H20110   9.553   5.612   5.896  2.9918 -2.6292 -1.3564
  146MOL0     H20111   9.611   5.413   5.772 -0.2022 -0.0802  1.3328
  146MOL0     H20112   9.668   5.245   5.589  0.2678 -2.7343 -1.0835
  146MOL0     H20113   9.558   5.183   5.708  2.2263 -1.8120 -0.3701
  146MOL0     H20114   9.516   5.099   5.416  2.3149 -1.7971 -2.1434
  146MOL0     H20115   9.629   5.015   5.522 -0.0425  0.9356 -0.7297
  146MOL0     H20116   9.363   5.080   5.621  2.3730  1.5524  1.0164
  146MOL0     H20117   9.453   4.935   5.639  2.9197  0.0104 -0.6090
  146MOL0     H20118   9.397   4.864   5.388 -1.5410  1.2874 -4.6165
  146MOL0     H20119   9.291   5.006   5.380 -0.9962 -1.8849 -0.9637
  146MOL0     H20120   9.157   4.918   5.569  0.7290  3.1136 -1.4513
  146MOL0     H20121   9.159   4.828   5.419 -1.4900  4.1911 -2.1720
  146MOL0     H20122   9.358   4.739   5.652 -0.8224  3.3079 -0.1393
  146MOL0     H20123   9.335   4.671   5.496  3.7547  2.7341 -0.0931
  146MOL0     H20124   9.068   4.659   5.614 -1.5972 -0.6762  0.7114
  146MOL0     H20125   9.165   4.647   5.754  2.5485 -1.6862  0.3769
  146MOL0     H20126   9.225   4.465   5.522 -2.5666 -1.5922 -0.2837
  146MOL0     H20127   9.142   4.416   5.660  0.5103 -0.5044 -0.6894
  146MOL0     H20128   9.293   5.465   5.498 -0.1542 -6.5105  2.7030
  146MOL0     H20129   9.249   5.691   5.589  2.7048  0.6917 -2.3262
  146MOL0     H20130   9.465   5.985   5.871 -2.4761 -3.0233 -2.3643
  146MOL0     H20131   9.466   6.229   5.969 -0.0741 -0.5330 -2.0517
  146MOL0     H20132  10.585   6.105   6.051  1.0545  1.8969  2.2506
  146MOL0     H20133  10.735   6.171   5.865 -0.4389 -0.6190 -0.5845
  146MOL0     H20134  10.948   6.525   5.811  0.9658  1.8733  0.3184
  146MOL0     H20135  11.110   6.687   5.726 -2.9523  2.2734  0.2956
  146MOL0     H20136  11.028   6.901   5.452  0.8901  1.4475 -1.3651
  146MOL0     H20137  11.097   6.870   5.601 -1.7754 -3.1508 -0.9563
  146MOL0     H20138  11.258   6.989   5.366 -0.3616  0.5073  0.3548
  146MOL0     H20139  11.325   6.957   5.528 -0.8274 -2.8140  0.2293
  146MOL0     H20140  11.103   7.097   5.599 -1.3181 -1.0393 -1.1439
  146MOL0     H20141  11.248   7.177   5.570 -0.7087  2.1526  0.2843
  146MOL0     H20142  11.188   7.234   5.339 -1.2373  0.8859 -1.3619
  146MOL0     H20143  11.063   7.284   5.457 -0.8465  2.0375 -3.1424
  146MOL0     H20144  10.818   7.037   5.241 -0.7983  0.7874  0.1671
  146MOL0     H20145  11.058   6.572   5.323 -2.4307  0.2300 -0.2194
  146MOL0     H20146  10.951   6.384   5.270 -0.8653  0.2057 -0.9604
  146MOL0     H20147  10.918   6.260   5.389  2.0451 -0.3144  0.1655
  146MOL0     H20148  10.793   6.394   5.339  0.3822  0.0019 -0.9668
  147MOL0     O20149   6.450   5.668   3.464  0.1758 -0.7438  0.4622
  147MOL0     C20150   6.492   5.559   3.456 -0.6868 -0.3123 -0.0321
  147MOL0     O20151   6.471   5.475   3.350  0.3236  0.7088  0.1357
  147MOL0     C20152   6.387   5.503   3.245  0.1194  0.4476  0.3164
  147MOL0     C20153   6.323   5.388   3.184 -0.8619  0.4801  1.1312
  147MOL0     C20154   6.234   5.410   3.077  0.0414 -0.3133  0.3963
  147MOL0     C20155   6.201   5.530   3.028  0.0794  0.4572 -0.4805
  147MOL0     O20156   6.104   5.539   2.936 -0.6277  0.1948  0.2616
  147MOL0     C20157   6.086   5.655   2.860 -0.0671 -0.1688 -0.1675
  147MOL0     C20158   6.002   5.614   2.738 -0.6541 -0.6451 -0.6338
  147MOL0     C20159   5.856   5.607   2.794 -0.6446  0.0251  0.4696
  147MOL0     C20160   5.761   5.609   2.670 -0.4607  0.3467 -0.0472
  147MOL0     C20161   5.613   5.616   2.708  0.7883 -0.2584  0.2729
  147MOL0     C20162   5.524   5.640   2.585  0.3941  0.1220  0.3786
  147MOL0     C20163   5.375   5.586   2.579 -0.3093 -0.4764  0.7079
  147MOL0     C20164   5.278   5.682   2.650 -0.5001  0.3450  0.2117
  147MOL0     N20165   5.255   5.804   2.572 -1.0565 -1.0001  0.8593
  147MOL0     C20166   5.175   5.806   2.460 -0.2492 -0.1897  0.3975
  147MOL0     C20167   5.195   5.934   2.413 -0.7255 -0.5414 -0.4789
  147MOL0     C20168   5.136   5.968   2.284  0.5443  0.3524 -0.3833
  147MOL0     C20169   5.127   6.124   2.279  0.0711  0.9148  0.1285
  147MOL0     C20170   5.035   6.152   2.156 -1.2134  0.1264 -0.4584
  147MOL0     C20171   4.995   6.300   2.145 -0.2529  0.0230 -1.4738
  147MOL0     O20172   4.929   6.356   2.263  0.0244  0.1549 -0.1699
  147MOL0     C20173   4.919   6.487   2.265  0.6843 -0.7786 -0.1318
  147MOL0     C20174   5.042   6.556   2.266  0.2949  0.1223  0.2024
  147MOL0     C20175   5.037   6.698   2.268  0.1049 -0.0223 -0.5696
  147MOL0     C20176   5.177   6.761   2.269 -0.9558 -0.3774 -0.9771
  147MOL0     C20177   4.914   6.766   2.264  0.7102 -0.2145 -0.0303
  147MOL0     C20178   4.909   6.911   2.266 -0.5278  0.4846 -0.4960
  147MOL0     O20179   4.820   6.965   2.353  0.1618 -0.6458  0.6642
  147MOL0     C20180   4.822   7.103   2.357 -0.1483 -0.5926 -1.4903
  147MOL0     C20181   4.899   7.170   2.452  0.0543 -0.9507 -0.6755
  147MOL0     C20182   4.906   7.313   2.453  0.7763  1.0115  0.1727
  147MOL0     C20183   4.835   7.386   2.344  0.2325  0.6831  1.0946
  147MOL0     O20184   4.843   7.523   2.340  0.6234  0.1043  0.2591
  147MOL0     C20185   4.885   7.582   2.223 -0.3430  1.2914  0.8531
  147MOL0     C20186   4.996   7.691   2.251  0.2856 -0.3257 -0.4149
  147MOL0     C20187   5.064   7.754   2.129  0.0511  0.3831 -0.0902
  147MOL0     C20188   4.968   7.828   2.039  0.9413  0.1963  0.4382
  147MOL0     C20189   5.017   7.844   1.895  0.0472  1.0715 -0.3624
  147MOL0     C20190   5.111   7.972   1.893  0.6953  0.7916  1.0971
  147MOL0     C20191   5.176   7.990   1.757 -0.3138 -0.5040 -0.8347
  147MOL0     C20192   5.276   8.106   1.764 -0.7229  0.3425  0.2174
  147MOL0    Cl20193   5.348   8.130   1.611 -0.1004 -0.4488 -0.2379
  147MOL0     C20194   4.757   7.310   2.251  0.5823  0.3990  0.9924
  147MOL0     C20195   4.731   7.174   2.271  0.1234 -0.6337  0.7850
  147MOL0     O20196   4.995   6.981   2.208  0.2247 -0.2105  0.1841
  147MOL0     C20197   4.799   6.684   2.260 -0.2426  1.1077  0.7485
  147MOL0     C20198   4.799   6.542   2.265 -0.1774 -0.0782  0.1786
  147MOL0     N20199   5.274   6.007   2.503  0.9822 -0.4680 -1.1433
  147MOL0     N20200   5.307   5.925   2.593 -0.3311 -0.5064 -0.6210
  147MOL0     C20201   6.256   5.639   3.088  0.0401 -0.0902 -0.1794
  147MOL0     C20202   6.354   5.628   3.190  0.3909 -0.3127 -0.8662
  147MOL0     C20203   6.590   5.518   3.563  0.9701  0.7409  0.6034
  147MOL0     C20204   6.717   5.480   3.527  0.1162 -0.0509 -0.5168
  147MOL0     C20205   6.803   5.426   3.625  0.3157  0.0071 -0.8933
  147MOL0     C20206   6.768   5.437   3.760 -0.2144 -0.3129  0.6560
  147MOL0     O20207   6.862   5.409   3.858  0.1903  0.2586  0.3535
  147MOL0     C20208   6.914   5.515   3.941  0.1879  0.1435  0.0665
  147MOL0     C20209   6.876   5.467   4.072  0.2374 -0.0878 -0.2019
  147MOL0     C20210   6.944   5.541   4.181 -0.0668 -0.1166 -0.2447
  147MOL0     C20211   7.060   5.457   4.239  0.6548  0.2732 -0.9228
  147MOL0     C20212   7.133   5.533   4.353 -0.3478  0.3192  0.6732
  147MOL0     C20213   7.209   5.582   4.438  0.3274 -0.1615 -0.0452
  147MOL0     C20214   6.635   5.463   3.799  0.3745 -0.8181 -0.2490
  147MOL0     C20215   6.543   5.511   3.701 -0.0688  0.2792 -0.4541
  147MOL0     C20216   6.397   5.521   3.748  0.2368  0.2269 -0.7763
  147MOL0     H20217   6.338   5.288   3.225 -2.5884 -1.4429 -2.4264
  147MOL0     H20218   6.186   5.321   3.036 -0.6945  1.4750 -2.9488
  147MOL0     H20219   6.179   5.695   2.819 -1.0676 -0.3448 -2.7532
  147MOL0     H20220   6.046   5.736   2.921 -0.6130  0.7784 -1.7606
  147MOL0     H20221   6.021   5.681   2.654  4.6966 -3.0293 -1.7823
  147MOL0     H20222   6.031   5.512   2.712 -0.6701 -0.9597  0.5382
  147MOL0     H20223   5.829   5.523   2.859  0.2002 -1.5387 -1.0777
  147MOL0     H20224   5.835   5.699   2.849 -1.1890  2.1908 -3.0540
  147MOL0     H20225   5.779   5.697   2.607 -3.8090  1.3417  0.2238
  147MOL0     H20226   5.781   5.523   2.605 -0.7912  0.0892  0.1910
  147MOL0     H20227   5.599   5.696   2.782  0.4262 -0.6263  0.6086
  147MOL0     H20228   5.583   5.521   2.754  2.9726  0.4145  3.4595
  147MOL0     H20229   5.528   5.746   2.560  0.7553  0.5533  2.1680
  147MOL0     H20230   5.572   5.581   2.506  1.2888 -0.8210  1.5874
  147MOL0     H20231   5.365   5.491   2.632 -0.6196 -0.4579  0.6875
  147MOL0     H20232   5.350   5.566   2.475  1.2872  2.6480 -0.3896
  147MOL0     H20233   5.185   5.624   2.659 -0.9873  1.1848  0.7418
  147MOL0     H20234   5.316   5.710   2.749 -1.9571  2.2792  0.2678
  147MOL0     H20235   5.127   5.730   2.400 -0.1824 -1.0632  1.4189
  147MOL0     H20236   5.038   5.918   2.284 -0.5281  2.2211  2.3701
  147MOL0     H20237   5.193   5.923   2.202  1.5639 -2.1282  1.5461
  147MOL0     H20238   5.065   6.169   2.357  1.6153 -1.5588  3.0276
  147MOL0     H20239   5.220   6.179   2.261  0.9970 -1.2676 -2.3922
  147MOL0     H20240   5.084   6.109   2.069 -1.8147 -3.2190  0.6728
  147MOL0     H20241   4.949   6.084   2.164  0.4647 -2.1477 -0.8544
  147MOL0     H20242   5.081   6.360   2.113 -2.2408  2.7593 -2.0991
  147MOL0     H20243   4.930   6.303   2.057 -2.0210  0.4461 -0.2097
  147MOL0     H20244   5.134   6.499   2.276 -1.0722 -2.3012 -0.3164
  147MOL0     H20245   5.257   6.693   2.298 -0.1515  1.7119  2.3262
  147MOL0     H20246   5.182   6.826   2.357  2.6465  1.8787 -2.6094
  147MOL0     H20247   5.202   6.823   2.183  0.6686  1.7516  0.9019
  147MOL0     H20248   4.955   7.113   2.526  0.4341  0.9184  0.5831
  147MOL0     H20249   4.933   7.367   2.543 -2.4749  1.1831  1.1893
  147MOL0     H20250   4.911   7.519   2.137 -0.5263 -2.4187  3.2948
  147MOL0     H20251   4.794   7.630   2.184 -0.4269 -0.6162 -1.5848
  147MOL0     H20252   4.959   7.772   2.315 -0.2060 -3.2052  3.2825
  147MOL0     H20253   5.080   7.647   2.304  1.1247  1.4744 -0.1842
  147MOL0     H20254   5.113   7.680   2.065 -2.3208 -0.7525 -0.7154
  147MOL0     H20255   5.141   7.822   2.167 -0.3146  0.5148  0.4138
  147MOL0     H20256   4.934   7.923   2.081  1.0076  0.7102 -0.6311
  147MOL0     H20257   4.876   7.769   2.032  1.9546 -1.4854  0.9015
  147MOL0     H20258   5.067   7.749   1.874  1.7608  1.8654 -0.0529
  147MOL0     H20259   4.926   7.860   1.838 -1.2360  2.0879  1.8396
  147MOL0     H20260   5.195   7.975   1.963  0.8160 -0.3285  1.0188
  147MOL0     H20261   5.047   8.058   1.914  1.9396  2.4363 -1.3386
  147MOL0     H20262   5.091   8.017   1.694 -3.3608 -1.3874  2.5291
  147MOL0     H20263   5.216   7.892   1.727 -2.5498 -1.9825  0.7148
  147MOL0     H20264   5.353   8.077   1.837 -0.5289 -3.1684 -1.1971
  147MOL0     H20265   5.227   8.200   1.792  1.7831  1.4178  1.2921
  147MOL0     H20266   4.721   7.364   2.164  0.6918  4.5894  3.2587
  147MOL0     H20267   4.670   7.106   2.214 -0.7779 -1.0241  2.1699
  147MOL0     H20268   4.700   6.726   2.245 -0.7948 -0.4407 -0.2309
  147MOL0     H20269   4.703   6.491   2.267 -1.6785  2.5923  1.8871
  147MOL0     H20270   6.233   5.739   3.055 -0.0618  0.7861  2.3491
  147MOL0     H20271   6.396   5.712   3.243  1.5941 -2.2740  1.5256
  147MOL0     H20272   6.740   5.471   3.421  2.2293  1.1281 -0.2105
  147MOL0     H20273   6.900   5.384   3.598  1.0349  1.9124 -1.4052
  147MOL0     H20274   7.019   5.533   3.915  0.1107 -1.0343 -1.1865
  147MOL0     H20275   6.861   5.605   3.912 -4.1837 -2.0712  0.4048
  147MOL0     H20276   6.895   5.360   4.083  2.4580  0.5049  3.8860
  147MOL0     H20277   6.772   5.483   4.101 -0.0182  0.2958 -1.3086
  147MOL0     H20278   6.982   5.638   4.149  0.1459  0.4577  1.6376
  147MOL0     H20279   6.872   5.570   4.258  0.9811  3.8167 -0.5373
  147MOL0     H20280   7.143   5.460   4.168  1.3643  0.0286 -0.1292
  147MOL0     H20281   7.040   5.355   4.276  1.6425  0.7363  1.0336
  147MOL0     H20282   7.250   5.635   4.521  1.3010 -0.5029 -0.2961
  147MOL0     H20283   6.601   5.459   3.902  2.3501 -0.5692  0.4541
  147MOL0     H20284   6.388   5.604   3.818 -1.8414  0.4334 -1.2265
  147MOL0     H20285   6.333   5.526   3.659 -0.9196  2.4848  0.0986
  147MOL0     H20286   6.367   5.436   3.809 -3.9731  2.2992  0.3987
  148MOL0     O20287  11.376   8.564   5.479  0.3710  0.2343  0.0084
  148MOL0     C20288  11.350   8.593   5.598  0.0608 -0.2409 -0.4530
  148MOL0     O20289  11.235   8.568   5.660 -1.2146  0.3777  0.2235
  148MOL0     C20290  11.115   8.627   5.623  0.6950 -0.1140 -0.2250
  148MOL0     C20291  11.001   8.588   5.704 -0.3253  0.8587 -0.0536
  148MOL0     C20292  10.872   8.642   5.674 -0.2695 -0.2360 -1.0271
  148MOL0     C20293  10.862   8.726   5.565  0.2848  0.8009 -0.2725
  148MOL0     O20294  10.735   8.763   5.529 -0.2449  0.2520  0.5203
  148MOL0     C20295  10.718   8.861   5.433 -0.5833 -0.2815 -1.1044
  148MOL0     C20296  10.572   8.898   5.400  0.1838  0.5377 -0.0976
  148MOL0     C20297  10.491   8.942   5.517  0.2993  0.1267 -0.1296
  148MOL0     C20298  10.345   8.910   5.500  0.7488  0.4763 -0.3935
  148MOL0     C20299  10.259   8.996   5.409  0.1253 -0.5624 -0.6986
  148MOL0     C20300  10.289   9.150   5.405 -0.1720  0.3243 -0.2531
  148MOL0     C20301  10.185   9.239   5.341  0.0456 -0.3140  0.4139
  148MOL0     C20302  10.069   9.272   5.427 -0.8413  0.1387 -0.4209
  148MOL0     N20303  10.104   9.392   5.517  0.4410  0.2131  0.2383
  148MOL0     C20304  10.084   9.528   5.502  0.9565 -0.4990  0.0809
  148MOL0     C20305  10.102   9.583   5.620 -0.3918  0.0863 -0.3819
  148MOL0     C20306  10.078   9.729   5.671  0.5872  0.1970 -0.9655
  148MOL0     C20307   9.966   9.793   5.593  0.8713 -0.2585 -0.3891
  148MOL0     C20308  10.030   9.871   5.483  0.5927 -0.2758 -0.0095
  148MOL0     C20309   9.919   9.941   5.398 -0.0133 -0.6928  0.1522
  148MOL0     O20310   9.844   9.834   5.338  0.2418 -0.6296 -0.2352
  148MOL0     C20311   9.764   9.864   5.234  0.8637 -0.5793  0.2466
  148MOL0     C20312   9.660   9.954   5.243 -0.3717 -0.3966  0.7478
  148MOL0     C20313   9.576   9.972   5.132  0.2294 -0.0710 -1.3206
  148MOL0     C20314   9.441  10.034   5.161 -0.0065  0.1208 -0.5204
  148MOL0     C20315   9.601   9.905   5.012  0.4876  1.2333  0.8069
  148MOL0     C20316   9.543   9.925   4.878 -0.6570  0.3973  0.3345
  148MOL0     O20317   9.517   9.806   4.805  0.1938 -0.0122 -0.1022
  148MOL0     C20318   9.509   9.797   4.665 -0.5696  0.7535 -0.0118
  148MOL0     C20319   9.546   9.888   4.569  0.0249  0.6415 -0.2561
  148MOL0     C20320   9.537   9.861   4.432 -0.5679  0.0602  1.1563
  148MOL0     C20321   9.477   9.743   4.390 -0.4007 -0.5817 -0.5304
  148MOL0     O20322   9.488   9.724   4.258 -0.0047  0.0372  0.8062
  148MOL0     C20323   9.393   9.633   4.200  0.0272  0.0757 -0.0847
  148MOL0     C20324   9.418   9.621   4.042  0.4667 -0.1473  0.6955
  148MOL0     C20325   9.323   9.515   3.974 -0.1945 -0.1308  0.0672
  148MOL0     C20326   9.392   9.372   3.982  0.5145 -0.8013 -0.4977
  148MOL0     C20327   9.325   9.272   3.883 -0.3112  0.2732 -1.2582
  148MOL0     C20328   9.430   9.172   3.848  0.7106 -0.1753  0.0847
  148MOL0     C20329   9.365   9.101   3.729 -0.1603  0.2238  0.6111
  148MOL0     C20330   9.474   9.010   3.665  0.7464 -0.5293 -0.1408
  148MOL0    Cl20331   9.526   8.888   3.789 -0.4706  0.5716 -0.3714
  148MOL0     C20332   9.438   9.647   4.491 -0.0358  1.6748 -0.2052
  148MOL0     C20333   9.449   9.678   4.622 -0.2041 -0.6723  1.2070
  148MOL0     O20334   9.521  10.037   4.832  0.2977 -0.6407 -0.2044
  148MOL0     C20335   9.703   9.816   5.006  0.5021 -0.0544 -0.8321
  148MOL0     C20336   9.788   9.804   5.116  0.3556  0.4877 -0.4485
  148MOL0     N20337  10.135   9.485   5.710  0.3033 -0.3015  0.8033
  148MOL0     N20338  10.128   9.368   5.648 -0.0763  0.1246 -0.5514
  148MOL0     C20339  10.971   8.755   5.477  0.6647  0.2879  0.9044
  148MOL0     C20340  11.095   8.696   5.503  0.4846  0.1987  0.0722
  148MOL0     C20341  11.447   8.672   5.679 -0.2698  0.1942  0.0094
  148MOL0     C20342  11.542   8.601   5.758  0.7592 -0.3655  0.5126
  148MOL0     C20343  11.630   8.672   5.833  1.0883  0.3406  0.0007
  148MOL0     C20344  11.643   8.809   5.823  0.3023 -0.7235  0.0949
  148MOL0     O20345  11.743   8.886   5.885 -0.3271  0.0489 -0.1926
  148MOL0     C20346  11.873   8.824   5.880  0.3281  0.2568 -0.3820
  148MOL0     C20347  11.987   8.917   5.891 -0.9121  0.3224 -0.0369
  148MOL0     C20348  12.001   8.996   5.757 -0.8054  0.2287  0.2714
  148MOL0     C20349  11.919   9.122   5.753  0.2433  0.6015  0.0155
  148MOL0     C20350  11.946   9.219   5.645  0.3897  0.0149 -1.0551
  148MOL0     C20351  11.975   9.309   5.575  0.3622  0.2763  0.2374
  148MOL0     C20352  11.555   8.876   5.737  0.4551 -0.6518 -0.4942
  148MOL0     C20353  11.456   8.811   5.661 -0.0762  1.0056 -0.1267
  148MOL0     C20354  11.361   8.896   5.581 -0.1315 -0.3258 -0.0348
  148MOL0     H20355  11.007   8.533   5.798  1.2258  1.2675  0.1214
  148MOL0     H20356  10.789   8.618   5.740  0.6100  3.3770  1.6768
  148MOL0     H20357  10.750   8.844   5.330 -2.1715  1.6367 -1.9822
  148MOL0     H20358  10.767   8.956   5.457  0.6621 -0.9547 -0.8818
  148MOL0     H20359  10.568   8.986   5.335 -3.4389  0.9537  0.5094
  148MOL0     H20360  10.530   8.812   5.346  0.3424  0.0619  0.5275
  148MOL0     H20361  10.533   8.895   5.607  2.2022 -0.4405 -1.2435
  148MOL0     H20362  10.504   9.048   5.540 -3.7334  0.2197  2.6283
  148MOL0     H20363  10.347   8.810   5.455  4.8797 -0.5722  1.5772
  148MOL0     H20364  10.302   8.894   5.599 -3.6035 -0.9496 -2.2762
  148MOL0     H20365  10.155   8.981   5.442  0.1061  1.4619  0.3566
  148MOL0     H20366  10.250   8.963   5.305  1.7637  1.6517 -1.6238
  148MOL0     H20367  10.316   9.188   5.504 -0.5756 -0.9112  0.3455
  148MOL0     H20368  10.372   9.160   5.335 -0.1693 -1.1463 -0.4917
  148MOL0     H20369  10.153   9.200   5.244  0.2435 -0.2132  0.3067
  148MOL0     H20370  10.242   9.329   5.316  4.0014 -1.9893  2.4258
  148MOL0     H20371   9.985   9.303   5.364 -1.0750  2.4149  0.8724
  148MOL0     H20372  10.032   9.186   5.483 -1.6017  1.7825  1.7643
  148MOL0     H20373  10.067   9.580   5.408 -0.1068  0.6696  0.8676
  148MOL0     H20374  10.167   9.787   5.646  2.1162 -2.3688 -1.9140
  148MOL0     H20375  10.062   9.739   5.779  2.3300 -1.6948 -0.4426
  148MOL0     H20376   9.878   9.732   5.567 -0.3375  0.8651  0.9100
  148MOL0     H20377   9.923   9.863   5.665  1.4317 -0.8053  0.4853
  148MOL0     H20378  10.097   9.951   5.515 -1.1046  1.4920 -0.6680
  148MOL0     H20379  10.087   9.812   5.410  1.2634  2.3548 -1.7531
  148MOL0     H20380   9.844   9.989   5.462 -1.3149 -2.8442  0.3675
  148MOL0     H20381   9.957  10.014   5.327 -0.7181  2.0849  2.4333
  148MOL0     H20382   9.643  10.009   5.335  3.1937 -0.6466  1.7305
  148MOL0     H20383   9.422  10.100   5.076 -1.7729 -0.2628 -0.4585
  148MOL0     H20384   9.444  10.105   5.245  0.0007  1.5161 -1.6545
  148MOL0     H20385   9.363   9.960   5.180 -0.0785  0.3545  0.1064
  148MOL0     H20386   9.589   9.983   4.598 -0.6471  1.3900 -1.5913
  148MOL0     H20387   9.584   9.929   4.362  1.7531  0.1555  2.6954
  148MOL0     H20388   9.406   9.539   4.255 -2.5932 -0.2789  0.0316
  148MOL0     H20389   9.289   9.658   4.219 -0.3142 -2.0499  1.2110
  148MOL0     H20390   9.401   9.719   3.997  0.1075 -0.8655 -0.7791
  148MOL0     H20391   9.522   9.590   4.028  0.0889 -0.9301 -0.5331
  148MOL0     H20392   9.331   9.533   3.867  0.4875  0.0224  0.1351
  148MOL0     H20393   9.220   9.522   4.009  0.5750 -0.0895  2.5599
  148MOL0     H20394   9.374   9.334   4.083 -2.3333  0.1570 -0.5708
  148MOL0     H20395   9.501   9.380   3.970  0.6590 -1.5330  0.1996
  148MOL0     H20396   9.233   9.229   3.926 -0.5222  0.5781 -1.3984
  148MOL0     H20397   9.303   9.332   3.795  1.0846  0.3545 -1.5712
  148MOL0     H20398   9.447   9.112   3.937  1.3692 -0.3127 -0.1278
  148MOL0     H20399   9.524   9.220   3.817  0.1825 -0.6000 -2.3588
  148MOL0     H20400   9.328   9.172   3.653  0.6073 -0.7663 -0.7351
  148MOL0     H20401   9.283   9.037   3.762  1.5938 -2.0628  0.8119
  148MOL0     H20402   9.558   9.072   3.633  0.9656 -1.2830 -1.0578
  148MOL0     H20403   9.424   8.955   3.584  0.4422  0.9833 -1.0234
  148MOL0     H20404   9.389   9.554   4.464  0.3064  1.5465 -0.3941
  148MOL0     H20405   9.402   9.621   4.702 -2.1748 -0.3373  0.3280
  148MOL0     H20406   9.743   9.778   4.913  2.8311  0.9166 -0.3171
  148MOL0     H20407   9.878   9.748   5.094  0.2486  1.4141 -3.8817
  148MOL0     H20408  10.964   8.819   5.389  0.6957 -0.0336  0.6702
  148MOL0     H20409  11.182   8.723   5.444  2.7921 -3.2192  1.6248
  148MOL0     H20410  11.520   8.495   5.761 -0.2206 -0.1511  2.5246
  148MOL0     H20411  11.689   8.617   5.905 -0.2724 -1.5034 -0.2266
  148MOL0     H20412  11.880   8.753   5.962  1.1689 -0.3523 -0.9651
  148MOL0     H20413  11.877   8.757   5.794 -2.8490 -1.1638  0.4794
  148MOL0     H20414  12.080   8.861   5.906  0.3994  2.1746 -0.7707
  148MOL0     H20415  11.965   8.984   5.975  1.6666  0.9909  0.1969
  148MOL0     H20416  12.108   9.009   5.740 -0.7980 -1.4878 -1.2119
  148MOL0     H20417  11.982   8.922   5.679  0.0926 -1.7499  1.8437
  148MOL0     H20418  11.925   9.166   5.852 -2.3588  2.3019 -0.4844
  148MOL0     H20419  11.815   9.091   5.740 -0.6447  3.4930 -0.3648
  148MOL0     H20420  11.984   9.397   5.515 -0.0500  0.2868  0.1937
  148MOL0     H20421  11.558   8.985   5.738 -1.5043 -0.5554  1.2349
  148MOL0     H20422  11.259   8.912   5.618 -0.3967  2.5386 -1.6778
  148MOL0     H20423  11.392   9.001   5.575  3.3637 -1.1377  1.7142
  148MOL0     H20424  11.351   8.853   5.481 -3.1397  0.1667 -0.0371
  149MOL0     O20425   4.912   2.608   3.587  0.0541  0.3238 -0.0148
  149MOL0     C20426   4.948   2.696   3.660 -0.6188 -0.2500  0.1280
  149MOL0     O20427   4.866   2.799   3.710  0.8890  0.2551 -0.6041
  149MOL0     C20428   4.731   2.776   3.717  0.0759 -0.7493 -0.0744
  149MOL0     C20429   4.650   2.870   3.663  0.6466 -0.1147 -0.1001
  149MOL0     C20430   4.516   2.851   3.676 -0.2646 -0.4830  0.1112
  149MOL0     C20431   4.448   2.732   3.728 -0.0482  0.3558  0.0378
  149MOL0     O20432   4.307   2.716   3.732 -0.4114 -0.4468  0.2566
  149MOL0     C20433   4.223   2.807   3.656  0.6004 -0.1327  0.0056
  149MOL0     C20434   4.079   2.734   3.650  0.1701  0.2011 -0.2497
  149MOL0     C20435   3.975   2.824   3.570  0.0879  0.8586  0.8303
  149MOL0     C20436   4.042   2.909   3.453  0.0500  0.9552 -0.0634
  149MOL0     C20437   3.931   2.967   3.377 -0.0664 -0.6804  0.4799
  149MOL0     C20438   3.982   3.075   3.277  0.1768  0.6015  0.1247
  149MOL0     C20439   3.862   3.122   3.210 -0.5193 -0.1214  0.1562
  149MOL0     C20440   3.888   3.267   3.166 -0.4732 -0.1250  0.7940
  149MOL0     N20441   4.020   3.283   3.092 -0.3695  0.4017  0.7710
  149MOL0     C20442   4.030   3.246   2.970 -1.3108 -0.3244  0.7739
  149MOL0     C20443   4.154   3.283   2.931  0.3650 -0.8753 -0.7011
  149MOL0     C20444   4.221   3.270   2.800 -0.6827  0.5371  0.8561
  149MOL0     C20445   4.356   3.194   2.817  0.2191  0.0106  0.0744
  149MOL0     C20446   4.345   3.043   2.810 -0.1331 -0.5638  0.5511
  149MOL0     C20447   4.474   2.965   2.798 -1.2451 -0.3410 -0.4584
  149MOL0     O20448   4.518   2.948   2.932  1.2012  0.4316  0.1589
  149MOL0     C20449   4.638   2.889   2.961 -0.2222  0.9637 -0.6671
  149MOL0     C20450   4.672   2.886   3.099  0.9727  0.7774 -0.7307
  149MOL0     C20451   4.799   2.856   3.144 -0.1317 -0.2345 -0.7365
  149MOL0     C20452   4.822   2.840   3.294  0.4016 -0.4415  0.3634
  149MOL0     C20453   4.899   2.826   3.049  0.0358  0.7522  0.4345
  149MOL0     C20454   5.042   2.794   3.074 -0.7299 -0.3589  0.3323
  149MOL0     O20455   5.074   2.708   3.171  1.4127 -0.5010 -0.7263
  149MOL0     C20456   5.200   2.695   3.223 -0.3728  0.6745 -0.7374
  149MOL0     C20457   5.210   2.642   3.352  0.7360  0.4447 -0.7357
  149MOL0     C20458   5.339   2.610   3.406  0.1110  0.1456 -0.7485
  149MOL0     C20459   5.447   2.647   3.328 -1.3369 -0.4894 -0.8772
  149MOL0     O20460   5.566   2.644   3.398 -0.1924 -0.5511 -0.1896
  149MOL0     C20461   5.638   2.769   3.380  0.2517  0.6756 -0.0167
  149MOL0     C20462   5.741   2.770   3.489  0.1214  0.3813 -0.5779
  149MOL0     C20463   5.846   2.876   3.467 -0.5027 -0.0971  0.2723
  149MOL0     C20464   5.780   3.023   3.460 -0.3578  0.4642  0.0835
  149MOL0     C20465   5.895   3.119   3.441  0.2743  1.0989 -0.0937
  149MOL0     C20466   5.845   3.260   3.430 -0.9472  0.3295 -0.1302
  149MOL0     C20467   5.958   3.354   3.377 -0.2677  0.5406  0.2377
  149MOL0     C20468   5.891   3.482   3.319  0.1214  0.0523 -0.9045
  149MOL0    Cl20469   5.829   3.576   3.452  0.1035 -0.0010  0.0115
  149MOL0     C20470   5.441   2.692   3.199 -0.8116 -1.1502  0.4073
  149MOL0     C20471   5.315   2.703   3.143  0.3389 -0.6124 -0.0703
  149MOL0     O20472   5.125   2.859   3.008 -0.0727  0.0249 -0.7795
  149MOL0     C20473   4.870   2.819   2.917  0.0298 -0.6545 -0.8191
  149MOL0     C20474   4.738   2.852   2.874 -0.4679 -0.3725  0.1584
  149MOL0     N20475   4.206   3.343   3.052 -0.2763  0.3931  0.2778
  149MOL0     N20476   4.125   3.329   3.147 -1.0426  0.1859 -0.0355
  149MOL0     C20477   4.540   2.638   3.788  0.1688 -0.0343  0.0860
  149MOL0     C20478   4.678   2.657   3.782 -0.0941 -0.3754  1.2319
  149MOL0     C20479   5.093   2.690   3.704  0.1127 -0.8242  0.3344
  149MOL0     C20480   5.135   2.578   3.772 -0.3706  0.1401 -0.6515
  149MOL0     C20481   5.266   2.576   3.814  0.7201  0.1457 -0.2198
  149MOL0     C20482   5.341   2.694   3.815 -0.0579  0.0519 -0.7337
  149MOL0     O20483   5.469   2.683   3.876 -0.0617 -0.3756 -0.8874
  149MOL0     C20484   5.463   2.685   4.017  0.1625 -0.0002 -0.0169
  149MOL0     C20485   5.556   2.569   4.069 -0.1647  0.1546  0.0580
  149MOL0     C20486   5.556   2.557   4.225 -0.4409  0.6273  0.6857
  149MOL0     C20487   5.638   2.436   4.271  0.3782 -0.2147 -0.4270
  149MOL0     C20488   5.591   2.305   4.213  0.6117 -0.5554 -0.0893
  149MOL0     C20489   5.551   2.207   4.162  0.3184 -0.2274  0.0043
  149MOL0     C20490   5.295   2.808   3.750 -0.3990 -0.0204 -0.3227
  149MOL0     C20491   5.170   2.806   3.689  0.3266 -0.3939  0.8400
  149MOL0     C20492   5.120   2.915   3.607  0.2029 -0.9162 -0.0962
  149MOL0     H20493   4.692   2.959   3.616 -1.1519 -0.6706 -2.9779
  149MOL0     H20494   4.442   2.912   3.624 -3.4209 -3.8359  0.2615
  149MOL0     H20495   4.273   2.825   3.560  1.9505  1.6507  0.9784
  149MOL0     H20496   4.211   2.901   3.710  1.1560  2.2545 -3.6513
  149MOL0     H20497   4.095   2.638   3.602 -1.2426  0.5930 -1.5759
  149MOL0     H20498   4.041   2.729   3.753 -2.7720  2.5496 -1.0500
  149MOL0     H20499   3.908   2.748   3.527  0.9294 -2.1583  4.3017
  149MOL0     H20500   3.897   2.879   3.624 -3.3576  1.7900 -4.3900
  149MOL0     H20501   4.100   2.990   3.497 -1.8445  2.3221  0.0473
  149MOL0     H20502   4.098   2.840   3.390 -2.6049  1.6148 -3.4734
  149MOL0     H20503   3.856   3.022   3.433 -0.9034  1.5846 -2.5726
  149MOL0     H20504   3.885   2.883   3.324  2.2900 -0.9939 -1.2679
  149MOL0     H20505   4.039   3.154   3.326 -0.4574  0.8869  0.4143
  149MOL0     H20506   4.050   3.027   3.207 -1.2921 -1.7864  0.2311
  149MOL0     H20507   3.776   3.132   3.278  0.2268  1.6317  0.8958
  149MOL0     H20508   3.848   3.059   3.121 -0.3547 -1.0188  0.7551
  149MOL0     H20509   3.807   3.292   3.098 -1.1804 -1.5610  1.0566
  149MOL0     H20510   3.898   3.337   3.249  3.0622  0.0844  0.3400
  149MOL0     H20511   3.951   3.211   2.904  0.1755 -0.2401 -1.1389
  149MOL0     H20512   4.242   3.375   2.777 -2.3602  1.1599  1.9877
  149MOL0     H20513   4.159   3.217   2.728 -1.7800  0.0755  2.0952
  149MOL0     H20514   4.425   3.227   2.739 -1.9672 -1.9006 -2.9068
  149MOL0     H20515   4.390   3.236   2.912  1.4638  2.1309 -1.2449
  149MOL0     H20516   4.305   2.999   2.902  2.9851 -3.2146  0.7932
  149MOL0     H20517   4.276   3.019   2.729 -1.6800 -2.4277  2.2899
  149MOL0     H20518   4.462   2.868   2.750 -0.7144 -0.6268 -0.0253
  149MOL0     H20519   4.547   3.024   2.741 -0.4531  0.9957  1.7683
  149MOL0     H20520   4.597   2.919   3.170 -0.7840 -2.0956 -1.0586
  149MOL0     H20521   4.732   2.863   3.351  1.8708  0.1451  2.6170
  149MOL0     H20522   4.907   2.901   3.329  1.4658  0.5939 -3.5284
  149MOL0     H20523   4.856   2.738   3.310  3.4637  0.8270  3.1956
  149MOL0     H20524   5.119   2.615   3.406 -0.3881  2.7226 -1.3433
  149MOL0     H20525   5.347   2.556   3.499 -0.3911  0.6613 -0.4007
  149MOL0     H20526   5.696   2.775   3.288  2.3000  3.2286  1.3055
  149MOL0     H20527   5.570   2.854   3.389 -0.4359  0.0741  0.5928
  149MOL0     H20528   5.692   2.793   3.584  0.4775 -2.4674  0.3929
  149MOL0     H20529   5.796   2.676   3.479 -0.8567 -0.0592 -2.2475
  149MOL0     H20530   5.893   2.852   3.371 -0.9050  1.1324 -0.2523
  149MOL0     H20531   5.923   2.870   3.545  1.2807  1.5245 -1.2734
  149MOL0     H20532   5.731   3.036   3.557  0.6952 -1.8976  0.9976
  149MOL0     H20533   5.698   3.030   3.387 -1.1797  1.0118  1.0296
  149MOL0     H20534   5.953   3.108   3.534 -0.2225 -0.6567  0.0585
  149MOL0     H20535   5.942   3.080   3.350 -1.3971  0.1207 -0.5786
  149MOL0     H20536   5.813   3.282   3.532  1.0991 -0.1152  0.6485
  149MOL0     H20537   5.754   3.265   3.369 -2.1106  1.1606  1.5878
  149MOL0     H20538   6.017   3.298   3.304  0.2407 -1.6004  2.1676
  149MOL0     H20539   6.025   3.384   3.457  0.3900 -2.1357  0.7690
  149MOL0     H20540   5.809   3.449   3.255  0.2586 -2.2644  0.0180
  149MOL0     H20541   5.964   3.547   3.270  0.5067 -0.4755 -1.0369
  149MOL0     H20542   5.525   2.726   3.140  0.3812  0.4879  2.9004
  149MOL0     H20543   5.317   2.715   3.036  0.0849 -0.3404 -0.0446
  149MOL0     H20544   4.945   2.782   2.848  0.7475 -0.5205 -0.1183
  149MOL0     H20545   4.717   2.852   2.767  1.7751 -2.0178 -0.3529
  149MOL0     H20546   4.491   2.554   3.835 -0.5916  0.6958  0.6401
  149MOL0     H20547   4.751   2.597   3.836 -0.3737  0.8969  3.1199
  149MOL0     H20548   5.075   2.488   3.787  0.8711 -0.4739  0.8816
  149MOL0     H20549   5.305   2.491   3.870 -0.7792 -0.1051  0.5030
  149MOL0     H20550   5.504   2.779   4.056  0.8560  0.4966 -1.8097
  149MOL0     H20551   5.361   2.678   4.055  0.3698 -1.0607  0.3775
  149MOL0     H20552   5.658   2.585   4.033  0.2409  1.1076  1.5364
  149MOL0     H20553   5.532   2.470   4.030 -0.8523  0.6717 -0.8504
  149MOL0     H20554   5.613   2.638   4.272  1.5066  0.2173 -0.8412
  149MOL0     H20555   5.454   2.565   4.265 -0.4719  1.7463  0.4276
  149MOL0     H20556   5.638   2.429   4.380  0.6724  2.6536 -0.1452
  149MOL0     H20557   5.743   2.443   4.242  0.1830 -0.2112 -1.1445
  149MOL0     H20558   5.512   2.118   4.117  0.3648 -0.5900  0.6636
  149MOL0     H20559   5.364   2.893   3.748 -0.9378  0.4166 -0.5576
  149MOL0     H20560   5.091   2.887   3.506 -0.7762 -1.4144  0.3125
  149MOL0     H20561   5.043   2.971   3.661  1.0098  1.1897 -1.0032
  149MOL0     H20562   5.203   2.986   3.606  1.5875 -2.4537  0.3895
  150MOL0     O20563   6.721   2.449   4.302 -0.1674  0.0532  0.6879
  150MOL0     C20564   6.666   2.476   4.407 -0.4574 -0.8086  0.0742
  150MOL0     O20565   6.714   2.423   4.519 -0.3271 -1.3519  0.4285
  150MOL0     C20566   6.821   2.341   4.508  0.5418  0.6064  0.6534
  150MOL0     C20567   6.807   2.204   4.539  0.2778  0.7451  0.0727
  150MOL0     C20568   6.920   2.118   4.529 -0.0665  0.1448  0.4451
  150MOL0     C20569   7.053   2.164   4.505 -0.5835  0.4089 -0.4956
  150MOL0     O20570   7.164   2.082   4.495  0.4644  0.0220 -0.1757
  150MOL0     C20571   7.290   2.133   4.530  0.1431  0.2904  0.4449
  150MOL0     C20572   7.378   2.012   4.556 -0.1173 -0.2724 -0.0228
  150MOL0     C20573   7.378   1.908   4.449  0.1896  1.1204 -0.4051
  150MOL0     C20574   7.522   1.835   4.438  0.0976 -0.6703 -0.3273
  150MOL0     C20575   7.538   1.763   4.308  0.2237 -0.6975  0.2534
  150MOL0     C20576   7.449   1.636   4.295  0.4021 -0.1562  0.2237
  150MOL0     C20577   7.481   1.527   4.409 -0.3210  0.0761  0.6763
  150MOL0     C20578   7.428   1.391   4.367  0.9065  0.6675 -0.1615
  150MOL0     N20579   7.278   1.373   4.366 -0.2905 -0.9382 -0.0033
  150MOL0     C20580   7.212   1.417   4.251  0.8865  0.4627  0.9160
  150MOL0     C20581   7.085   1.450   4.290  0.1354  0.6734  1.0766
  150MOL0     C20582   6.983   1.518   4.191 -0.2782 -0.8015  0.4714
  150MOL0     C20583   7.034   1.661   4.154 -1.4926  0.0100 -0.2824
  150MOL0     C20584   7.026   1.757   4.276 -0.1284  0.5444  0.4970
  150MOL0     C20585   7.038   1.903   4.233  0.0415 -0.7486 -0.1346
  150MOL0     O20586   7.162   1.930   4.173 -0.1698 -0.3997 -0.4710
  150MOL0     C20587   7.169   2.052   4.114  0.6609 -0.1581 -1.1078
  150MOL0     C20588   7.058   2.151   4.093 -0.2423  0.2915  0.3593
  150MOL0     C20589   7.076   2.277   4.022 -0.5608 -0.7245 -0.3476
  150MOL0     C20590   6.960   2.372   4.020 -0.3831  0.2309 -0.2270
  150MOL0     C20591   7.204   2.307   3.982 -1.0545 -0.2043  0.2467
  150MOL0     C20592   7.235   2.429   3.903  0.0101  0.5696  0.5788
  150MOL0     O20593   7.134   2.488   3.831 -0.2204  0.4681 -0.3651
  150MOL0     C20594   7.147   2.617   3.778 -0.5005  0.8043 -0.1636
  150MOL0     C20595   7.210   2.655   3.667 -0.6061 -0.2364  0.1936
  150MOL0     C20596   7.218   2.785   3.620  0.3540  0.1965 -0.7411
  150MOL0     C20597   7.126   2.872   3.667 -0.0999  0.2177  0.5482
  150MOL0     O20598   7.097   2.996   3.610 -0.3082 -0.1650 -0.4246
  150MOL0     C20599   7.218   3.078   3.559  0.4619 -0.2265 -0.3448
  150MOL0     C20600   7.197   3.230   3.569  0.4395 -0.2800  0.4400
  150MOL0     C20601   7.072   3.263   3.488 -0.8219 -0.9759 -0.1468
  150MOL0     C20602   6.962   3.322   3.569 -0.2291 -2.2312  0.6483
  150MOL0     C20603   6.987   3.464   3.630 -0.8258  0.3560  0.7005
  150MOL0     C20604   6.893   3.539   3.719  0.9444  0.4532  0.3881
  150MOL0     C20605   6.871   3.462   3.854 -0.1481 -0.5410  0.6320
  150MOL0     C20606   6.995   3.479   3.946  0.5542  0.0475  1.3343
  150MOL0    Cl20607   6.950   3.401   4.101 -0.4035 -0.1840 -0.1128
  150MOL0     C20608   7.052   2.841   3.783  0.7204 -1.4928  0.1294
  150MOL0     C20609   7.066   2.714   3.837 -0.4841  1.2994 -0.8182
  150MOL0     O20610   7.351   2.478   3.915  0.2593 -0.2267 -0.3939
  150MOL0     C20611   7.313   2.218   4.012 -0.4624  0.2954 -0.5155
  150MOL0     C20612   7.292   2.100   4.073  0.0460 -0.6600 -0.6492
  150MOL0     N20613   7.083   1.425   4.429 -0.1846 -0.5777 -0.2702
  150MOL0     N20614   7.203   1.393   4.467 -0.5641 -0.4444 -0.0964
  150MOL0     C20615   7.065   2.306   4.501  0.4706  0.3768  0.4612
  150MOL0     C20616   6.952   2.393   4.501  0.0098 -0.0213 -1.1802
  150MOL0     C20617   6.567   2.588   4.407  0.3739 -0.1224 -0.6620
  150MOL0     C20618   6.520   2.647   4.527 -1.0244  0.1588  0.8402
  150MOL0     C20619   6.430   2.747   4.519 -0.1914  0.2771  0.4527
  150MOL0     C20620   6.375   2.791   4.403  0.0089  0.9873 -0.2799
  150MOL0     O20621   6.274   2.885   4.386 -0.2989  1.0063  0.1957
  150MOL0     C20622   6.232   2.961   4.489  0.0812 -0.7638 -0.0515
  150MOL0     C20623   6.207   3.101   4.441  0.7224 -0.3750 -0.4819
  150MOL0     C20624   6.131   3.190   4.542  0.3883  1.4906 -0.0843
  150MOL0     C20625   6.205   3.323   4.570  0.5913 -0.6387  0.5353
  150MOL0     C20626   6.116   3.436   4.534  0.0128  0.0663 -1.2240
  150MOL0     C20627   6.053   3.532   4.510  0.5403  0.6257 -0.1328
  150MOL0     C20628   6.414   2.731   4.283 -0.5027 -0.4273 -0.9173
  150MOL0     C20629   6.507   2.633   4.278  0.6583  0.4523  0.8764
  150MOL0     C20630   6.525   2.572   4.138  0.1131  0.1059 -0.0693
  150MOL0     H20631   6.712   2.159   4.566  0.3606 -0.6750 -1.8234
  150MOL0     H20632   6.912   2.014   4.559 -2.0677  0.9051  2.9029
  150MOL0     H20633   7.291   2.196   4.619 -0.9403  4.5543 -2.2995
  150MOL0     H20634   7.333   2.187   4.445  1.1178 -0.0874  0.6796
  150MOL0     H20635   7.479   2.047   4.575  0.2607 -3.0211  4.4839
  150MOL0     H20636   7.334   1.974   4.649 -0.7144  1.7206  0.5636
  150MOL0     H20637   7.303   1.834   4.480 -0.1161  1.0890 -1.1763
  150MOL0     H20638   7.356   1.942   4.347  0.4404 -0.8760 -1.1822
  150MOL0     H20639   7.610   1.901   4.435  1.0982 -1.9880 -1.5699
  150MOL0     H20640   7.538   1.765   4.521  4.1036  1.2210  0.7390
  150MOL0     H20641   7.642   1.732   4.300  0.5394  0.1959  0.7603
  150MOL0     H20642   7.522   1.835   4.227 -0.6517 -1.4484 -0.2764
  150MOL0     H20643   7.341   1.657   4.298 -0.0043 -1.1811 -3.2317
  150MOL0     H20644   7.455   1.590   4.196 -0.3348  1.8017 -0.7952
  150MOL0     H20645   7.426   1.558   4.498 -2.3127 -1.5886  0.1099
  150MOL0     H20646   7.590   1.518   4.413 -0.3283 -0.0268  0.6357
  150MOL0     H20647   7.465   1.363   4.268  1.5993 -3.2872  1.0384
  150MOL0     H20648   7.472   1.317   4.433 -0.6860  0.8102  1.1071
  150MOL0     H20649   7.252   1.419   4.150 -2.7494 -0.5569 -0.7109
  150MOL0     H20650   6.888   1.535   4.242  0.0782  0.2468  0.8158
  150MOL0     H20651   6.966   1.467   4.096  1.0545 -2.7482  1.2160
  150MOL0     H20652   7.138   1.664   4.119 -2.3307 -2.8410 -3.5490
  150MOL0     H20653   6.984   1.698   4.063  0.7624 -1.7581 -2.3857
  150MOL0     H20654   6.930   1.741   4.326 -0.2688 -1.1027 -0.2117
  150MOL0     H20655   7.103   1.724   4.346  0.5001 -3.0766 -1.6267
  150MOL0     H20656   6.954   1.916   4.164 -1.3685 -1.9823  1.2588
  150MOL0     H20657   7.035   1.977   4.314  1.6596 -0.9808  0.1862
  150MOL0     H20658   6.957   2.131   4.127 -0.2587 -1.4062 -0.5779
  150MOL0     H20659   6.925   2.389   3.917  0.0514 -0.9837 -0.5917
  150MOL0     H20660   6.992   2.467   4.064  5.3500 -2.0201  1.2130
  150MOL0     H20661   6.879   2.329   4.079  1.1175  0.3018  1.9612
  150MOL0     H20662   7.267   2.577   3.618 -0.3730  1.4287 -2.4079
  150MOL0     H20663   7.273   2.801   3.528  1.9196 -2.8333 -0.4735
  150MOL0     H20664   7.297   3.049   3.629 -2.2883 -1.4411  2.5266
  150MOL0     H20665   7.226   3.044   3.455 -1.9321 -3.0533  0.2541
  150MOL0     H20666   7.177   3.259   3.672 -0.8784  4.0368 -0.8465
  150MOL0     H20667   7.283   3.288   3.535  1.2672  0.2396  3.2203
  150MOL0     H20668   7.008   3.182   3.450 -4.2401  0.7981  1.3534
  150MOL0     H20669   7.093   3.332   3.406 -1.3104 -1.7884 -0.9686
  150MOL0     H20670   6.930   3.254   3.648 -0.2848 -2.2530  0.6071
  150MOL0     H20671   6.876   3.328   3.501 -0.8512  3.3235  1.4446
  150MOL0     H20672   7.083   3.453   3.681  0.6780  1.7457 -1.5798
  150MOL0     H20673   6.997   3.527   3.541  0.3896 -0.8036 -0.0332
  150MOL0     H20674   6.797   3.544   3.668  0.6407  1.6582  1.0531
  150MOL0     H20675   6.931   3.642   3.728  1.1590  0.3647  0.5175
  150MOL0     H20676   6.852   3.358   3.826 -1.0114  0.0422 -1.1029
  150MOL0     H20677   6.781   3.496   3.907 -1.1024  0.7812 -1.6892
  150MOL0     H20678   7.016   3.586   3.944 -1.0462  0.5374 -3.7745
  150MOL0     H20679   7.083   3.424   3.911 -1.2603 -1.5636 -1.0206
  150MOL0     H20680   6.972   2.906   3.817  2.5396  0.3655  1.1052
  150MOL0     H20681   7.004   2.685   3.922  3.1883  0.6621  1.8964
  150MOL0     H20682   7.414   2.239   3.980 -1.0432  0.7126 -2.2051
  150MOL0     H20683   7.376   2.032   4.080  1.2104  0.8553  1.2807
  150MOL0     H20684   7.166   2.342   4.488  0.7273 -1.3588 -4.5491
  150MOL0     H20685   6.959   2.501   4.492  0.4574  0.1930  1.2044
  150MOL0     H20686   6.559   2.624   4.625 -1.2332 -0.1624  0.8512
  150MOL0     H20687   6.414   2.799   4.613  2.2068  1.4805  0.2639
  150MOL0     H20688   6.143   2.921   4.538 -0.2643  0.0147 -0.0250
  150MOL0     H20689   6.317   2.979   4.555  1.0080 -0.9331 -1.1516
  150MOL0     H20690   6.136   3.088   4.359 -1.4913 -0.1135  1.2909
  150MOL0     H20691   6.304   3.141   4.411 -0.1808  0.7075 -2.1093
  150MOL0     H20692   6.030   3.197   4.501 -0.0548 -3.6088 -0.5993
  150MOL0     H20693   6.098   3.134   4.630 -3.8711  1.9400 -1.1731
  150MOL0     H20694   6.298   3.333   4.515  0.7096  0.0732  0.8637
  150MOL0     H20695   6.234   3.327   4.675  0.9262 -3.3117  0.6164
  150MOL0     H20696   5.994   3.613   4.473  0.7792  0.1155 -1.7095
  150MOL0     H20697   6.353   2.764   4.200 -1.3059  0.1097 -0.1337
  150MOL0     H20698   6.450   2.614   4.070  0.2784  0.8879  0.2313
  150MOL0     H20699   6.617   2.574   4.079  1.4729 -0.5373  1.9493
  150MOL0     H20700   6.496   2.466   4.141 -1.5941  0.4627 -1.7050
  151MOL0     O20701   3.909   8.367   2.759 -0.5946 -0.3344  0.0937
  151MOL0     C20702   3.994   8.352   2.672 -0.1538 -0.0731  0.6438
  151MOL0     O20703   4.045   8.229   2.640  0.3965 -0.2655  0.0229
  151MOL0     C20704   4.025   8.114   2.715 -0.5210 -1.1716  0.7603
  151MOL0     C20705   3.903   8.076   2.774 -0.9970  0.2487  1.0232
  151MOL0     C20706   3.886   7.970   2.860 -0.4262 -0.4468  0.7801
  151MOL0     C20707   3.997   7.880   2.877  0.6009  0.1188 -0.1062
  151MOL0     O20708   3.980   7.761   2.947 -0.7247 -0.7630  0.1303
  151MOL0     C20709   3.844   7.721   2.948 -0.4402  0.7499  0.6528
  151MOL0     C20710   3.849   7.577   2.995  0.0028 -0.1849  0.2739
  151MOL0     C20711   3.907   7.474   2.896  0.1182 -1.7013  0.1418
  151MOL0     C20712   3.820   7.459   2.774  0.6477 -1.4282  0.1305
  151MOL0     C20713   3.902   7.430   2.648  0.3591 -0.0515  0.4872
  151MOL0     C20714   3.805   7.404   2.535  1.2100  0.4708 -0.0359
  151MOL0     C20715   3.761   7.524   2.460 -0.0217  0.0696  0.8711
  151MOL0     C20716   3.857   7.558   2.341  0.8756  1.0279 -0.5066
  151MOL0     N20717   3.832   7.496   2.203 -0.2115  0.6966 -0.0690
  151MOL0     C20718   3.840   7.363   2.172 -0.2827  0.7099  0.5528
  151MOL0     C20719   3.808   7.357   2.040  0.0645  0.2568 -0.8997
  151MOL0     C20720   3.799   7.233   1.956  0.5842 -0.2981 -0.2522
  151MOL0     C20721   3.867   7.246   1.820 -0.7011 -0.0623 -0.3789
  151MOL0     C20722   4.025   7.266   1.841 -0.4237  0.3995  0.7351
  151MOL0     C20723   4.070   7.341   1.710  0.2536 -0.8566  0.2503
  151MOL0     O20724   4.218   7.365   1.716 -0.0911 -0.0562 -0.2176
  151MOL0     C20725   4.303   7.259   1.681  1.0462 -0.7856  0.9590
  151MOL0     C20726   4.251   7.147   1.614 -1.4514 -0.7302  0.0385
  151MOL0     C20727   4.347   7.046   1.569 -0.0242  0.5968  0.7253
  151MOL0     C20728   4.303   6.930   1.481  0.9932  0.0435 -1.3259
  151MOL0     C20729   4.481   7.056   1.617  0.0993 -0.0676  0.8190
  151MOL0     C20730   4.582   6.968   1.578  1.7050 -0.3860  0.1818
  151MOL0     O20731   4.546   6.834   1.566  0.0317  0.7138 -0.2012
  151MOL0     C20732   4.620   6.743   1.492  0.5648 -0.7794 -0.5381
  151MOL0     C20733   4.548   6.677   1.394 -0.0178 -0.4539 -0.5005
  151MOL0     C20734   4.601   6.568   1.321  0.5233  0.3037 -0.8644
  151MOL0     C20735   4.726   6.526   1.354 -0.6559  0.2077 -0.4242
  151MOL0     O20736   4.792   6.424   1.284 -0.1163 -0.3937  0.2784
  151MOL0     C20737   4.723   6.359   1.174  0.9199  0.9255 -0.1785
  151MOL0     C20738   4.818   6.289   1.082  0.6063  0.2564  1.0614
  151MOL0     C20739   4.897   6.394   1.001  1.5681 -0.6875  0.4697
  151MOL0     C20740   4.997   6.321   0.913 -0.2396 -0.4078  0.0690
  151MOL0     C20741   5.096   6.419   0.851 -0.3232  0.0139  0.1208
  151MOL0     C20742   5.204   6.456   0.954  0.6568  0.9924  0.0899
  151MOL0     C20743   5.315   6.541   0.896 -0.7784  0.5069  0.2107
  151MOL0     C20744   5.444   6.563   0.969 -0.3244 -0.5120 -0.1151
  151MOL0    Cl20745   5.400   6.613   1.133 -0.5248  0.2398 -0.3828
  151MOL0     C20746   4.813   6.602   1.437  0.3153  0.1392 -0.2208
  151MOL0     C20747   4.755   6.707   1.516  0.0341  0.1741  0.3254
  151MOL0     O20748   4.696   7.009   1.567  0.0880  0.5314 -0.2314
  151MOL0     C20749   4.520   7.176   1.693  0.3113 -0.8456 -0.5227
  151MOL0     C20750   4.430   7.266   1.719 -0.4023 -0.6460 -0.7716
  151MOL0     N20751   3.791   7.479   1.992 -0.0699 -0.7113 -0.0741
  151MOL0     N20752   3.807   7.564   2.092  0.4066  0.0222  0.3136
  151MOL0     C20753   4.125   7.918   2.824  0.7398 -1.3093 -0.5059
  151MOL0     C20754   4.138   8.040   2.755  0.9621 -0.7404  0.8100
  151MOL0     C20755   4.059   8.457   2.591 -0.7205 -0.9057 -0.1719
  151MOL0     C20756   4.120   8.421   2.464 -0.1873  0.5798  0.1189
  151MOL0     C20757   4.207   8.499   2.394 -0.6586 -1.1763  0.7378
  151MOL0     C20758   4.249   8.619   2.450  0.9025 -0.9985 -0.3794
  151MOL0     O20759   4.351   8.682   2.381 -0.0332 -0.1339  0.3733
  151MOL0     C20760   4.429   8.776   2.458  0.5672 -0.9945  0.6889
  151MOL0     C20761   4.553   8.797   2.378 -0.1090  0.5811 -0.1915
  151MOL0     C20762   4.650   8.901   2.436 -0.9071 -0.0031  0.0269
  151MOL0     C20763   4.717   8.865   2.569  0.0239 -1.0124  0.2854
  151MOL0     C20764   4.777   8.736   2.587 -1.1441 -0.2478  0.7285
  151MOL0     C20765   4.822   8.625   2.616 -0.7318  0.9146 -0.4055
  151MOL0     C20766   4.193   8.661   2.571  1.1736  0.1352 -0.3101
  151MOL0     C20767   4.088   8.590   2.629 -0.3241 -0.6835  0.0618
  151MOL0     C20768   4.024   8.637   2.766 -0.1440  0.4814 -0.7665
  151MOL0     H20769   3.818   8.136   2.741 -0.1502  0.8181 -0.2050
  151MOL0     H20770   3.787   7.974   2.904 -1.0297  0.2407 -0.5640
  151MOL0     H20771   3.795   7.735   2.851 -0.9000  1.4066  0.9764
  151MOL0     H20772   3.792   7.783   3.021 -0.9650 -2.9356  3.7228
  151MOL0     H20773   3.910   7.567   3.085 -0.3509 -1.6793  0.3855
  151MOL0     H20774   3.743   7.555   3.015 -0.5698  1.1987 -1.0461
  151MOL0     H20775   4.011   7.501   2.876  0.3771 -0.4676  2.7417
  151MOL0     H20776   3.920   7.373   2.936 -0.5053 -1.3338  1.3053
  151MOL0     H20777   3.737   7.390   2.794 -0.2959 -0.1528  0.7723
  151MOL0     H20778   3.771   7.555   2.755  0.6908 -1.4133  0.0958
  151MOL0     H20779   3.982   7.356   2.655  1.6189  1.3584  1.8038
  151MOL0     H20780   3.957   7.522   2.627  1.5831 -0.7791  0.4317
  151MOL0     H20781   3.847   7.324   2.473  0.1787  0.0314 -0.1865
  151MOL0     H20782   3.717   7.354   2.576  1.5088  2.2042  2.9758
  151MOL0     H20783   3.740   7.611   2.522  0.8571 -0.4836  1.9718
  151MOL0     H20784   3.669   7.510   2.401  0.4756  3.8557 -1.0851
  151MOL0     H20785   3.856   7.666   2.323 -0.7071  1.2520  0.6961
  151MOL0     H20786   3.958   7.540   2.380  0.4427  3.8111  2.2304
  151MOL0     H20787   3.857   7.275   2.234  0.7304  0.1920 -0.4176
  151MOL0     H20788   3.695   7.198   1.947  0.8020 -2.8992  4.2064
  151MOL0     H20789   3.843   7.146   2.007 -0.0145 -1.3691 -1.4927
  151MOL0     H20790   3.840   7.159   1.761  2.6946 -1.3115 -0.2835
  151MOL0     H20791   3.819   7.330   1.769 -1.5654 -1.0196 -1.1627
  151MOL0     H20792   4.038   7.318   1.936 -1.1038 -1.8818  2.1616
  151MOL0     H20793   4.081   7.172   1.850  0.3130  0.5205 -1.7916
  151MOL0     H20794   4.028   7.279   1.630 -4.6484  1.8356  0.3559
  151MOL0     H20795   4.016   7.435   1.701 -1.1591 -1.6168  0.4814
  151MOL0     H20796   4.148   7.133   1.585 -1.4180  0.8869 -0.9853
  151MOL0     H20797   4.384   6.886   1.423  1.0234 -0.9441 -0.5447
  151MOL0     H20798   4.229   6.972   1.412  1.5664  3.2394 -0.1933
  151MOL0     H20799   4.267   6.841   1.533  3.6316 -0.2001  0.2361
  151MOL0     H20800   4.442   6.682   1.374 -0.0792  2.4552  0.1636
  151MOL0     H20801   4.543   6.521   1.242  0.6544 -0.7935 -0.3268
  151MOL0     H20802   4.651   6.285   1.211 -1.6480  2.3811 -1.9961
  151MOL0     H20803   4.654   6.416   1.112  0.3317 -1.7920 -2.2617
  151MOL0     H20804   4.896   6.235   1.136  0.9622 -0.1107  0.2082
  151MOL0     H20805   4.760   6.231   1.010  0.8443  2.2957 -0.8915
  151MOL0     H20806   4.950   6.465   1.065 -2.2663  2.8047  0.1752
  151MOL0     H20807   4.837   6.458   0.936  0.3616 -1.6330  0.6182
  151MOL0     H20808   4.933   6.280   0.834 -1.2255  3.0681 -1.1279
  151MOL0     H20809   5.048   6.245   0.973 -1.7231 -1.9578 -0.5407
  151MOL0     H20810   5.157   6.368   0.776  0.3418 -1.4364  1.5832
  151MOL0     H20811   5.044   6.508   0.814  0.7644  0.4995 -0.2969
  151MOL0     H20812   5.259   6.367   0.988  2.6217  1.0192 -2.7336
  151MOL0     H20813   5.152   6.498   1.040 -2.0189 -0.1455 -0.8682
  151MOL0     H20814   5.264   6.636   0.877 -1.1060  0.1247 -0.9505
  151MOL0     H20815   5.345   6.493   0.802 -0.0527 -1.2701  1.3004
  151MOL0     H20816   5.498   6.629   0.900 -3.6746 -1.7679 -4.4174
  151MOL0     H20817   5.508   6.474   0.976 -0.3802 -0.9510 -3.4959
  151MOL0     H20818   4.906   6.557   1.470 -0.2845  0.0818  1.4964
  151MOL0     H20819   4.812   6.759   1.592 -2.2827  1.7947  1.0624
  151MOL0     H20820   4.621   7.195   1.727 -0.7598 -0.8818  3.1087
  151MOL0     H20821   4.470   7.347   1.780 -0.8740  0.3178 -1.7037
  151MOL0     H20822   4.209   7.852   2.846  1.2007 -0.9395 -1.1107
  151MOL0     H20823   4.237   8.072   2.724  0.1460  0.4639 -0.6336
  151MOL0     H20824   4.094   8.328   2.415  1.0088  0.0485  0.4680
  151MOL0     H20825   4.256   8.467   2.302 -1.3206 -0.7426  0.2286
  151MOL0     H20826   4.371   8.867   2.476  3.6617  1.2307  0.2398
  151MOL0     H20827   4.454   8.745   2.560  2.1097  3.2306  1.7806
  151MOL0     H20828   4.536   8.826   2.274  2.2970 -0.1375 -0.8549
  151MOL0     H20829   4.595   8.698   2.354 -2.3770 -0.9835  1.8260
  151MOL0     H20830   4.729   8.893   2.361  0.6374  2.2455  1.2794
  151MOL0     H20831   4.605   9.001   2.434  0.8169  0.8186  0.5186
  151MOL0     H20832   4.645   8.874   2.651  0.3215 -1.8450  0.6464
  151MOL0     H20833   4.791   8.945   2.582 -0.6630 -0.5532  1.4809
  151MOL0     H20834   4.871   8.533   2.642 -0.2266  1.0928 -0.7225
  151MOL0     H20835   4.208   8.758   2.617 -1.6398  0.1499  0.7641
  151MOL0     H20836   3.925   8.678   2.744 -0.2550  0.7895  0.2851
  151MOL0     H20837   4.008   8.559   2.840  3.4946  1.4459  1.2518
  151MOL0     H20838   4.086   8.706   2.825  2.4685  0.0046 -2.7574
  152MOL0     O20839   5.109   3.382   9.185 -0.1712 -0.6342  0.1429
  152MOL0     C20840   5.228   3.354   9.182  0.0124  0.7107  0.7774
  152MOL0     O20841   5.325   3.411   9.256  0.5757 -0.0874 -0.1475
  152MOL0     C20842   5.299   3.471   9.377  0.7346 -0.0572 -0.0780
  152MOL0     C20843   5.399   3.552   9.431 -0.8664 -1.0201 -1.1117
  152MOL0     C20844   5.408   3.589   9.566 -0.5889  0.6319 -0.2565
  152MOL0     C20845   5.293   3.567   9.650 -0.1870  0.8161 -0.2750
  152MOL0     O20846   5.297   3.597   9.786 -0.1263  0.4110  0.1139
  152MOL0     C20847   5.190   3.559   9.858  1.0509  0.6947 -0.7329
  152MOL0     C20848   5.176   3.607  10.002 -0.5811  0.8699 -0.2062
  152MOL0     C20849   5.279   3.563  10.098 -0.0810  0.0412  0.0204
  152MOL0     C20850   5.269   3.410  10.137 -0.1714  0.4487 -0.9890
  152MOL0     C20851   5.373   3.365  10.241  0.1578 -0.4681 -0.2140
  152MOL0     C20852   5.359   3.217  10.278  0.7350  0.0732  0.4909
  152MOL0     C20853   5.444   3.131  10.184  1.0712 -0.3888  0.3629
  152MOL0     C20854   5.426   3.137  10.024 -0.1140 -0.1378  0.8918
  152MOL0     N20855   5.548   3.197   9.971 -0.0453  0.5099  0.5967
  152MOL0     C20856   5.549   3.324   9.913 -0.5160  0.4662  0.1540
  152MOL0     C20857   5.671   3.328   9.843  0.4762  0.0113 -0.2344
  152MOL0     C20858   5.710   3.443   9.761  0.1515  0.3793 -0.5805
  152MOL0     C20859   5.826   3.417   9.663 -1.0714 -0.4033 -0.6153
  152MOL0     C20860   5.855   3.546   9.583  1.0559  0.4639 -0.5513
  152MOL0     C20861   5.882   3.504   9.434 -0.5547 -0.9487 -0.2406
  152MOL0     O20862   5.765   3.512   9.353  0.1737 -0.1117 -0.3113
  152MOL0     C20863   5.771   3.521   9.218  0.5739  0.2000 -0.2190
  152MOL0     C20864   5.886   3.488   9.149 -0.0887  0.0404  0.6866
  152MOL0     C20865   5.899   3.481   9.016 -0.4023 -0.0854  0.1222
  152MOL0     C20866   6.034   3.431   8.965  0.2857  0.2123  0.4490
  152MOL0     C20867   5.788   3.535   8.933  0.3135  0.3023 -0.4042
  152MOL0     C20868   5.780   3.527   8.787  0.1707  0.1556 -0.0118
  152MOL0     O20869   5.719   3.632   8.731  0.0929 -0.0999  0.4067
  152MOL0     C20870   5.664   3.627   8.605  0.3913 -0.5104 -0.0234
  152MOL0     C20871   5.568   3.526   8.590  0.6607 -0.0762 -0.4269
  152MOL0     C20872   5.530   3.488   8.466 -0.5926  0.2100 -0.6659
  152MOL0     C20873   5.591   3.543   8.356  0.0545  0.5638 -0.0509
  152MOL0     O20874   5.560   3.499   8.230  0.3516  0.5190 -0.6098
  152MOL0     C20875   5.419   3.496   8.184 -0.1159 -0.0799 -0.4151
  152MOL0     C20876   5.418   3.413   8.042  0.7298 -0.7974  0.0945
  152MOL0     C20877   5.516   3.479   7.936 -0.1364  0.0705 -0.0215
  152MOL0     C20878   5.528   3.397   7.797  0.1313  0.9057 -0.7280
  152MOL0     C20879   5.630   3.479   7.724 -0.6962 -0.4964  0.3688
  152MOL0     C20880   5.578   3.609   7.668  1.5312 -0.1902 -0.6419
  152MOL0     C20881   5.637   3.649   7.536  0.0478  0.3761  0.7810
  152MOL0     C20882   5.539   3.632   7.417 -0.0715  0.9303  0.1448
  152MOL0    Cl20883   5.410   3.771   7.426  0.6930 -0.0341  0.4850
  152MOL0     C20884   5.668   3.659   8.371 -0.3367 -0.4149  0.8275
  152MOL0     C20885   5.713   3.695   8.492 -0.7451  0.2919  0.1104
  152MOL0     O20886   5.836   3.435   8.729  0.6423  0.0923 -0.4012
  152MOL0     C20887   5.673   3.580   8.997  0.1965  0.9139 -0.4992
  152MOL0     C20888   5.671   3.575   9.144 -0.0376 -0.8677  0.1727
  152MOL0     N20889   5.726   3.202   9.850  0.4464  0.1023 -0.5472
  152MOL0     N20890   5.662   3.126   9.937 -0.3640 -0.9295  0.0248
  152MOL0     C20891   5.183   3.502   9.589  0.5789 -0.5046 -0.0318
  152MOL0     C20892   5.185   3.450   9.455 -0.3604 -0.2936 -0.4476
  152MOL0     C20893   5.277   3.281   9.068 -0.0322 -0.3307 -0.6441
  152MOL0     C20894   5.400   3.312   9.008  0.2836  0.1715  0.3284
  152MOL0     C20895   5.434   3.257   8.881  0.0790  0.2518  0.7689
  152MOL0     C20896   5.355   3.142   8.831 -0.1773 -0.8075 -1.2181
  152MOL0     O20897   5.397   3.071   8.719 -0.2735  0.0865 -1.1957
  152MOL0     C20898   5.512   3.112   8.658 -0.5067  0.4708  0.1318
  152MOL0     C20899   5.551   3.049   8.527 -0.0808 -0.0027  1.3346
  152MOL0     C20900   5.593   2.904   8.516 -0.2824 -0.2010  0.2213
  152MOL0     C20901   5.501   2.813   8.602 -0.5569 -0.5387 -0.6682
  152MOL0     C20902   5.359   2.816   8.551 -0.2591  0.2943 -0.2624
  152MOL0     C20903   5.249   2.798   8.522 -0.7637  0.3832 -0.6635
  152MOL0     C20904   5.240   3.113   8.896 -0.3148  0.2904  0.2412
  152MOL0     C20905   5.199   3.169   9.018 -0.1095 -0.4207  0.1442
  152MOL0     C20906   5.080   3.113   9.097 -0.0416 -0.5622 -0.2841
  152MOL0     H20907   5.490   3.573   9.376  0.8465  1.4072  2.3235
  152MOL0     H20908   5.498   3.631   9.609 -1.0129 -1.1690  2.7078
  152MOL0     H20909   5.179   3.450   9.858  0.5610  0.6723  1.9206
  152MOL0     H20910   5.099   3.611   9.824  1.2257 -0.7141 -3.6842
  152MOL0     H20911   5.176   3.716  10.001  0.9288  0.8848 -0.6284
  152MOL0     H20912   5.080   3.567  10.038  0.8570 -3.2635 -0.3474
  152MOL0     H20913   5.371   3.589  10.044 -0.6559 -3.1566 -2.8160
  152MOL0     H20914   5.262   3.621  10.189 -3.4123 -1.2370  0.3745
  152MOL0     H20915   5.169   3.378  10.169  0.0785 -1.7815 -2.1851
  152MOL0     H20916   5.281   3.360  10.040 -2.6148 -3.7337  0.5709
  152MOL0     H20917   5.360   3.426  10.331  2.3501 -1.0973  0.5870
  152MOL0     H20918   5.474   3.378  10.200  1.7914 -0.1866  3.5354
  152MOL0     H20919   5.403   3.198  10.376 -1.6043 -2.5446  1.1610
  152MOL0     H20920   5.256   3.182  10.274 -0.0754  2.4209 -1.4609
  152MOL0     H20921   5.425   3.030  10.220  0.6987 -0.9637 -1.3245
  152MOL0     H20922   5.552   3.141  10.193  1.8038 -4.5802 -1.3300
  152MOL0     H20923   5.406   3.032   9.999 -3.7908  0.7082 -0.4331
  152MOL0     H20924   5.331   3.177   9.987  1.5184  0.7898 -2.7344
  152MOL0     H20925   5.472   3.400   9.920  0.6527  1.7668 -0.7148
  152MOL0     H20926   5.728   3.524   9.833 -3.4478 -3.2731  5.2557
  152MOL0     H20927   5.622   3.476   9.705 -1.4988 -1.1998  0.9536
  152MOL0     H20928   5.912   3.383   9.721  1.0006  2.1659 -1.9553
  152MOL0     H20929   5.782   3.336   9.603 -2.4800  0.4732 -0.8153
  152MOL0     H20930   5.765   3.608   9.595 -0.7349 -2.0787 -0.1080
  152MOL0     H20931   5.947   3.588   9.625  1.5142 -1.2464  0.2331
  152MOL0     H20932   5.965   3.568   9.405 -2.0556  0.6584 -1.2389
  152MOL0     H20933   5.932   3.407   9.439 -2.2229 -1.7881  1.0917
  152MOL0     H20934   5.970   3.451   9.206 -0.0653 -1.3781 -0.2442
  152MOL0     H20935   6.092   3.510   8.916  0.9778  0.0239  0.9572
  152MOL0     H20936   6.017   3.348   8.896 -1.1605 -0.4387  1.5472
  152MOL0     H20937   6.101   3.393   9.042  0.6775 -0.2551 -0.1063
  152MOL0     H20938   5.527   3.473   8.676 -2.0115  2.9949  0.3741
  152MOL0     H20939   5.462   3.403   8.465 -1.4004  0.8416 -0.3420
  152MOL0     H20940   5.359   3.444   8.259  0.3534  0.9107  0.6710
  152MOL0     H20941   5.367   3.593   8.185  1.7878  0.9905 -0.5263
  152MOL0     H20942   5.455   3.310   8.052 -0.9714 -1.7987 -2.6149
  152MOL0     H20943   5.315   3.408   8.007  0.3533 -1.3186  1.2371
  152MOL0     H20944   5.617   3.476   7.978 -1.3329  2.1091  3.3588
  152MOL0     H20945   5.486   3.583   7.922 -0.8587  0.1309  1.7773
  152MOL0     H20946   5.427   3.393   7.757 -0.6313 -0.7053  1.1439
  152MOL0     H20947   5.569   3.297   7.819  0.8519  1.4637  0.6323
  152MOL0     H20948   5.727   3.492   7.774  0.1557 -0.0811 -1.3022
  152MOL0     H20949   5.653   3.420   7.635 -1.4527  1.4691 -1.1846
  152MOL0     H20950   5.595   3.692   7.737  1.4602 -0.4385 -0.3233
  152MOL0     H20951   5.469   3.601   7.663  1.3650  0.0993  1.5034
  152MOL0     H20952   5.720   3.580   7.521 -1.4958 -1.1068 -1.7215
  152MOL0     H20953   5.685   3.747   7.529  2.0842 -0.5585  0.9423
  152MOL0     H20954   5.487   3.536   7.415  0.4053  0.6622 -2.3391
  152MOL0     H20955   5.590   3.630   7.321 -1.9448 -4.3199 -1.0749
  152MOL0     H20956   5.716   3.719   8.293  1.5742  1.4672  3.2896
  152MOL0     H20957   5.778   3.778   8.513  0.9329 -1.5170  2.6134
  152MOL0     H20958   5.580   3.596   8.945  0.5984  2.8842 -0.7235
  152MOL0     H20959   5.586   3.626   9.189  1.6474  1.2085  1.1832
  152MOL0     H20960   5.099   3.471   9.650 -0.4056 -1.3936 -1.7801
  152MOL0     H20961   5.099   3.396   9.415  0.4834 -1.5353 -0.6330
  152MOL0     H20962   5.466   3.384   9.055 -0.1462  1.7985 -1.4358
  152MOL0     H20963   5.518   3.303   8.830  1.0145  0.7072  2.6176
  152MOL0     H20964   5.518   3.218   8.630  1.2941  0.2872 -0.3077
  152MOL0     H20965   5.597   3.098   8.725 -1.2191 -1.9391  0.6252
  152MOL0     H20966   5.629   3.102   8.470 -1.0555 -1.3129 -1.4156
  152MOL0     H20967   5.464   3.054   8.461 -0.6272 -1.9420  1.8357
  152MOL0     H20968   5.585   2.861   8.416 -0.2819  0.1703  0.0618
  152MOL0     H20969   5.695   2.892   8.553 -1.8104 -5.8158  4.0586
  152MOL0     H20970   5.505   2.842   8.707  2.2505  2.5686 -1.4510
  152MOL0     H20971   5.543   2.712   8.607  0.3046 -0.1284  1.5310
  152MOL0     H20972   5.149   2.780   8.487 -0.5966  0.7452 -1.3404
  152MOL0     H20973   5.175   3.043   8.844  2.7397 -0.7492 -2.4874
  152MOL0     H20974   4.979   3.132   9.059 -0.8226 -0.0605  1.8649
  152MOL0     H20975   5.071   3.005   9.102 -1.0013 -0.4253  2.3076
  152MOL0     H20976   5.088   3.137   9.203 -1.4442 -3.0457  0.4613
  153MOL0     O20977   3.319   5.473   8.859  0.1927 -0.1012 -0.0045
  153MOL0     C20978   3.339   5.361   8.899 -0.2560 -0.5714  0.7336
  153MOL0     O20979   3.454   5.294   8.871 -0.6442  0.4082 -0.7582
  153MOL0     C20980   3.541   5.331   8.779  0.1910 -0.0643  0.6585
  153MOL0     C20981   3.612   5.450   8.788 -0.3516 -0.0895 -0.0781
  153MOL0     C20982   3.720   5.490   8.710 -0.1557 -0.9546 -0.9076
  153MOL0     C20983   3.749   5.403   8.602 -0.3308  0.1578 -0.1312
  153MOL0     O20984   3.842   5.432   8.507  0.4889  0.0781  0.8025
  153MOL0     C20985   3.839   5.570   8.459  0.2552  0.2504  1.1347
  153MOL0     C20986   3.884   5.583   8.311  0.4793 -0.4022 -0.9201
  153MOL0     C20987   3.924   5.722   8.266  0.3508 -0.8405 -0.3139
  153MOL0     C20988   3.897   5.741   8.111 -0.1431  0.3987  0.3583
  153MOL0     C20989   3.953   5.876   8.071 -0.3962 -0.1347  0.1520
  153MOL0     C20990   3.970   5.880   7.920 -0.7248  0.1277 -0.3841
  153MOL0     C20991   3.842   5.898   7.848  0.5739 -0.4718  0.6431
  153MOL0     C20992   3.858   5.933   7.698 -1.8321 -1.2711 -1.5701
  153MOL0     N20993   3.956   6.042   7.661 -0.2968  0.6640 -0.2292
  153MOL0     C20994   3.926   6.170   7.700  1.5478  0.2221 -0.1198
  153MOL0     C20995   4.044   6.224   7.709 -0.0391 -0.3534 -0.9270
  153MOL0     C20996   4.078   6.348   7.789 -0.3127 -0.0501 -0.1423
  153MOL0     C20997   3.985   6.468   7.764  0.6341  0.6503  0.0487
  153MOL0     C20998   4.023   6.590   7.845 -0.9098  0.6075  0.8277
  153MOL0     C20999   4.113   6.699   7.771 -0.2832  0.2871  0.7938
  153MOL0     O21000   4.056   6.722   7.639 -0.8394  0.3275  0.1162
  153MOL0     C21001   4.094   6.841   7.580 -0.6344  0.1568  0.1755
  153MOL0     C21002   4.212   6.900   7.602 -0.6239  0.0531  0.7325
  153MOL0     C21003   4.268   7.008   7.522  0.2134 -0.5937 -1.0893
  153MOL0     C21004   4.407   7.049   7.552 -0.4797  0.1115 -1.9258
  153MOL0     C21005   4.189   7.062   7.420 -0.0250 -0.1703 -0.5528
  153MOL0     C21006   4.234   7.167   7.324 -0.1022 -0.8606  0.8656
  153MOL0     O21007   4.154   7.186   7.215 -0.7969 -0.6651  0.3824
  153MOL0     C21008   4.185   7.265   7.102 -0.7448  1.0993 -0.3784
  153MOL0     C21009   4.071   7.304   7.036  0.9325  1.0556  0.4853
  153MOL0     C21010   4.083   7.373   6.911  0.4154  0.1165 -0.2445
  153MOL0     C21011   4.210   7.381   6.846 -0.3519  0.0305  0.9816
  153MOL0     O21012   4.225   7.442   6.728 -0.1589 -0.3870  0.5616
  153MOL0     C21013   4.144   7.564   6.698 -0.7114  0.2333 -1.0362
  153MOL0     C21014   4.200   7.633   6.575  0.0419  0.4136  0.6849
  153MOL0     C21015   4.146   7.568   6.444  0.3468 -1.0005  0.2962
  153MOL0     C21016   4.222   7.459   6.407 -0.6904 -0.6312 -0.2637
  153MOL0     C21017   4.182   7.407   6.279 -0.7208  0.3022  0.2233
  153MOL0     C21018   4.213   7.254   6.257 -0.0962  0.4291 -0.2797
  153MOL0     C21019   4.198   7.211   6.112 -0.4302  1.2343  0.0906
  153MOL0     C21020   4.053   7.201   6.066  0.6213 -0.0165 -0.2021
  153MOL0    Cl21021   4.051   7.123   5.899 -0.3072  0.1083 -0.4858
  153MOL0     C21022   4.319   7.318   6.910  0.2443 -0.4967 -0.4450
  153MOL0     C21023   4.310   7.280   7.045 -0.3024  0.1130  0.5583
  153MOL0     O21024   4.337   7.219   7.342 -0.4643  0.5216  1.3181
  153MOL0     C21025   4.059   6.999   7.404 -0.5192  0.2863  0.2268
  153MOL0     C21026   4.017   6.886   7.477  0.3796 -0.7214 -0.8903
  153MOL0     N21027   4.145   6.137   7.665  0.2879  0.8205 -0.3831
  153MOL0     N21028   4.090   6.025   7.641 -0.7798  0.1325 -0.5904
  153MOL0     C21029   3.687   5.271   8.599 -0.0669 -0.1103  1.3360
  153MOL0     C21030   3.580   5.238   8.675  0.4879  0.2437  0.6404
  153MOL0     C21031   3.246   5.302   9.006  0.4110  0.1514  0.2544
  153MOL0     C21032   3.183   5.389   9.099  0.1299  0.1802 -1.0155
  153MOL0     C21033   3.101   5.344   9.198 -0.6295 -0.1191  0.8378
  153MOL0     C21034   3.063   5.210   9.210 -0.2122  0.4965 -1.6541
  153MOL0     O21035   2.982   5.153   9.306  0.0726 -0.3572 -0.2384
  153MOL0     C21036   2.901   5.240   9.383 -0.2126  0.2399  0.3319
  153MOL0     C21037   2.807   5.164   9.474  0.6085  0.8958 -0.1486
  153MOL0     C21038   2.867   5.055   9.581  0.0203 -1.0991  0.9980
  153MOL0     C21039   2.921   4.923   9.530 -0.0492 -0.1395 -0.7091
  153MOL0     C21040   2.825   4.845   9.456  0.0167 -0.0588  1.1482
  153MOL0     C21041   2.760   4.781   9.375 -0.7219  0.2174 -0.2654
  153MOL0     C21042   3.112   5.124   9.109  0.0496 -0.3811  0.5564
  153MOL0     C21043   3.211   5.165   9.018  0.1753 -0.6202  0.0497
  153MOL0     C21044   3.262   5.062   8.928 -0.7581 -0.3514  0.1130
  153MOL0     H21045   3.576   5.498   8.878 -1.7558 -0.1473 -0.5770
  153MOL0     H21046   3.773   5.585   8.712 -2.2175  0.3742 -3.4275
  153MOL0     H21047   3.903   5.628   8.526 -1.6543  1.2733  2.1311
  153MOL0     H21048   3.742   5.620   8.454  0.0455 -0.1429  1.1708
  153MOL0     H21049   3.969   5.514   8.303  2.2695  1.2124  2.1471
  153MOL0     H21050   3.810   5.553   8.236  2.4915 -1.6940 -2.5188
  153MOL0     H21051   3.867   5.796   8.323 -1.7409 -2.5642 -0.0306
  153MOL0     H21052   4.026   5.747   8.293 -0.1515  0.5449  0.4167
  153MOL0     H21053   3.944   5.658   8.057  1.5088  0.9576  0.8636
  153MOL0     H21054   3.794   5.743   8.075  0.7604  1.8099 -2.3672
  153MOL0     H21055   4.046   5.895   8.125 -1.4593  0.0684  1.9904
  153MOL0     H21056   3.882   5.953   8.099  1.4202  1.4264  0.6738
  153MOL0     H21057   4.033   5.967   7.898  0.9735  0.3246  4.0729
  153MOL0     H21058   4.027   5.794   7.886 -0.4737  0.4935 -0.8926
  153MOL0     H21059   3.782   5.983   7.882 -0.3650  1.8640 -5.5337
  153MOL0     H21060   3.793   5.801   7.862  0.4379 -0.8270 -1.8745
  153MOL0     H21061   3.887   5.845   7.639  4.0589 -0.9944  0.2669
  153MOL0     H21062   3.763   5.978   7.665 -0.6542  1.2832 -1.7109
  153MOL0     H21063   3.829   6.208   7.729 -0.3885 -3.8649 -0.5639
  153MOL0     H21064   4.184   6.366   7.773 -0.6014  1.3526 -0.5998
  153MOL0     H21065   4.074   6.307   7.890 -0.3193 -0.5439 -0.3398
  153MOL0     H21066   3.972   6.492   7.658  0.5564 -4.6590 -1.4153
  153MOL0     H21067   3.884   6.441   7.795  0.6477 -0.7711 -1.0506
  153MOL0     H21068   3.930   6.646   7.860 -0.7087  1.2546 -0.2083
  153MOL0     H21069   4.068   6.567   7.942  1.6360  1.6400 -0.0173
  153MOL0     H21070   4.122   6.796   7.821 -1.2145  1.9179 -1.9659
  153MOL0     H21071   4.214   6.660   7.752 -1.4158 -1.4036 -2.5187
  153MOL0     H21072   4.283   6.856   7.672  2.2090  1.8449 -0.8022
  153MOL0     H21073   4.422   7.153   7.583  0.0441 -0.9066  1.6874
  153MOL0     H21074   4.464   7.013   7.466  2.8387  0.2857  0.0161
  153MOL0     H21075   4.442   6.999   7.643 -2.9636  1.1093 -0.3035
  153MOL0     H21076   3.977   7.288   7.087  0.2437 -0.4700 -1.1246
  153MOL0     H21077   3.991   7.406   6.864 -0.3888  1.5041  2.1404
  153MOL0     H21078   4.044   7.528   6.674  0.3841 -3.2903 -0.8557
  153MOL0     H21079   4.149   7.620   6.792  1.5323 -0.0146 -0.9636
  153MOL0     H21080   4.162   7.735   6.587  1.6716  0.8444  2.6383
  153MOL0     H21081   4.309   7.643   6.576  0.3178 -1.7106 -0.6743
  153MOL0     H21082   4.155   7.644   6.366  0.0507  0.1394  1.3451
  153MOL0     H21083   4.038   7.550   6.447 -0.2218  0.4854 -4.2690
  153MOL0     H21084   4.236   7.386   6.487 -0.0421  1.9653  2.1352
  153MOL0     H21085   4.318   7.505   6.381 -1.2033  0.0204 -1.0476
  153MOL0     H21086   4.077   7.428   6.257  0.0947  2.5865 -2.0230
  153MOL0     H21087   4.231   7.467   6.201  0.3343 -0.8526 -0.0508
  153MOL0     H21088   4.135   7.199   6.311 -2.6081  1.4397 -2.6155
  153MOL0     H21089   4.313   7.237   6.298  0.5375  2.9151 -0.6169
  153MOL0     H21090   4.257   7.120   6.109  0.1119  1.5196  1.4286
  153MOL0     H21091   4.236   7.294   6.051 -0.7920  1.3223 -0.0185
  153MOL0     H21092   4.006   7.300   6.070  3.2233  1.3050  0.4510
  153MOL0     H21093   4.000   7.138   6.137  1.6274 -0.7249 -0.0659
  153MOL0     H21094   4.408   7.325   6.849 -0.4842  0.1911 -1.4640
  153MOL0     H21095   4.394   7.229   7.090 -1.1300  0.0427  2.0907
  153MOL0     H21096   3.992   7.046   7.334  0.3644  1.1426 -0.0690
  153MOL0     H21097   3.917   6.851   7.455  1.5746 -4.2000 -1.4749
  153MOL0     H21098   3.731   5.200   8.530 -0.3561 -0.6269  1.6720
  153MOL0     H21099   3.531   5.146   8.645 -0.8611  1.2858 -0.5449
  153MOL0     H21100   3.206   5.493   9.078 -2.9239  0.8644 -1.4612
  153MOL0     H21101   3.056   5.421   9.259 -2.4089  0.0579 -0.6120
  153MOL0     H21102   2.964   5.300   9.449  3.5417 -3.1662  0.2264
  153MOL0     H21103   2.843   5.310   9.323  2.3411  1.2320 -1.1266
  153MOL0     H21104   2.731   5.116   9.412  0.1790  0.1808  0.8950
  153MOL0     H21105   2.758   5.236   9.539  1.5120 -2.7717  5.2781
  153MOL0     H21106   2.953   5.105   9.626 -1.0575  3.2293 -1.2619
  153MOL0     H21107   2.796   5.036   9.661  0.2368  0.4566  1.5817
  153MOL0     H21108   2.941   4.860   9.617 -0.2224  2.9911  1.7880
  153MOL0     H21109   3.012   4.930   9.470  0.2923  0.5725 -0.1147
  153MOL0     H21110   2.705   4.701   9.329 -2.3511  0.5973  0.9409
  153MOL0     H21111   3.078   5.022   9.118 -0.5995 -0.3192 -0.8404
  153MOL0     H21112   3.308   5.108   8.840 -0.7051  1.3767  1.0002
  153MOL0     H21113   3.341   5.014   8.987  0.5534 -1.2347 -2.1997
  153MOL0     H21114   3.194   4.981   8.900 -0.3457 -1.1138  1.2315
  154MOL0     O21115   3.951  10.717   2.655  0.8269 -0.6498 -0.1123
  154MOL0     C21116   4.012  10.644   2.733  0.5159 -0.3496 -1.0127
  154MOL0     O21117   4.000  10.657   2.871 -0.3600  0.7578  0.6166
  154MOL0     C21118   3.919  10.756   2.928 -0.2146 -1.0156 -1.6318
  154MOL0     C21119   3.831  10.721   3.043  0.3240 -0.7787  0.3238
  154MOL0     C21120   3.771  10.816   3.118  0.3776 -0.5632 -0.2685
  154MOL0     C21121   3.768  10.951   3.078 -1.1328 -0.6465  0.2852
  154MOL0     O21122   3.710  11.045   3.151 -0.1138  0.2536  0.6296
  154MOL0     C21123   3.572  11.052   3.097  0.3198 -0.1299 -0.3311
  154MOL0     C21124   3.489  11.164   3.160 -0.6120  0.1140  0.5961
  154MOL0     C21125   3.544  11.303   3.142 -0.2418  0.6994 -0.3714
  154MOL0     C21126   3.498  11.396   3.268  0.0105  0.0360 -0.3771
  154MOL0     C21127   3.509  11.548   3.241  0.3324 -0.2308 -0.2838
  154MOL0     C21128   3.457  11.627   3.356 -0.6493 -0.1171  0.2881
  154MOL0     C21129   3.445  11.783   3.324 -1.0896 -0.1053  0.9052
  154MOL0     C21130   3.304  11.805   3.257  0.3775 -0.8185  0.0380
  154MOL0     N21131   3.271  11.952   3.248  0.0885 -0.0584 -0.3821
  154MOL0     C21132   3.137  11.996   3.275 -0.2025  0.7217 -1.0251
  154MOL0     C21133   3.141  12.124   3.245  0.2572 -0.4587  0.7007
  154MOL0     C21134   3.033  12.228   3.274 -0.2896 -0.1943 -0.3984
  154MOL0     C21135   2.906  12.182   3.204 -1.0585  0.3191 -0.6749
  154MOL0     C21136   2.791  12.272   3.237 -0.5276  0.1045 -0.3433
  154MOL0     C21137   2.681  12.253   3.128 -0.0009 -0.7384  0.1788
  154MOL0     O21138   2.650  12.109   3.119 -0.1088 -0.3034  0.1045
  154MOL0     C21139   2.553  12.070   3.216 -0.7587 -0.3227  0.8042
  154MOL0     C21140   2.424  12.113   3.216  0.3659  0.0146 -0.1435
  154MOL0     C21141   2.333  12.065   3.311 -0.2107 -0.2201  0.5282
  154MOL0     C21142   2.195  12.113   3.301  0.0819 -0.7222 -0.3782
  154MOL0     C21143   2.370  11.970   3.410  1.3663  0.0619 -0.0163
  154MOL0     C21144   2.278  11.914   3.525  0.1517 -0.8892  0.9422
  154MOL0     O21145   2.291  11.781   3.559  0.5777  0.2721  0.7870
  154MOL0     C21146   2.215  11.714   3.645  0.2698  1.0807  0.2271
  154MOL0     C21147   2.189  11.580   3.618  0.7282 -0.5272 -0.5294
  154MOL0     C21148   2.113  11.489   3.698  0.7922 -0.1274  0.5078
  154MOL0     C21149   2.053  11.549   3.811 -0.7393  0.2922  0.1757
  154MOL0     O21150   1.988  11.472   3.906  1.0846  0.2559 -0.7941
  154MOL0     C21151   2.072  11.444   4.025 -0.4513 -0.3399 -0.5349
  154MOL0     C21152   2.140  11.302   4.007  0.7792  0.5093  0.2489
  154MOL0     C21153   2.038  11.198   3.986  0.3706 -0.7936 -0.2656
  154MOL0     C21154   2.109  11.065   4.021  0.1243 -0.4402 -0.0707
  154MOL0     C21155   2.009  10.952   4.036 -0.9329 -0.2704  0.0277
  154MOL0     C21156   2.095  10.837   4.085  0.1132  1.1633 -0.2295
  154MOL0     C21157   1.997  10.723   4.131  0.8561  0.0310  0.1152
  154MOL0     C21158   2.075  10.604   4.176  0.4433 -0.0983 -0.2560
  154MOL0    Cl21159   1.969  10.453   4.174 -0.1424  0.4226  0.0144
  154MOL0     C21160   2.080  11.680   3.848 -0.0662  0.0495  0.6611
  154MOL0     C21161   2.164  11.763   3.773  0.0060  0.6352  0.3058
  154MOL0     O21162   2.185  11.987   3.564  0.4034  0.1133  0.3680
  154MOL0     C21163   2.496  11.916   3.395  0.8260 -0.7003 -0.1153
  154MOL0     C21164   2.584  11.969   3.301  0.0427 -0.3189  0.6529
  154MOL0     N21165   3.265  12.153   3.192  0.1255 -0.3570  0.5570
  154MOL0     N21166   3.339  12.052   3.184 -0.5210  0.2898 -1.0816
  154MOL0     C21167   3.854  10.987   2.969  0.0562 -0.5666 -0.5811
  154MOL0     C21168   3.920  10.895   2.891  0.2856  0.6083 -0.0718
  154MOL0     C21169   4.120  10.562   2.681 -0.4919 -0.2813 -0.4420
  154MOL0     C21170   4.200  10.502   2.777 -0.6020  0.2893 -0.3625
  154MOL0     C21171   4.297  10.404   2.732 -1.1839 -0.7614 -0.1010
  154MOL0     C21172   4.319  10.382   2.599  0.6837 -0.5398 -0.6173
  154MOL0     O21173   4.427  10.294   2.557  0.3672  0.6335 -0.2236
  154MOL0     C21174   4.540  10.375   2.540  0.1907 -0.2392  0.5332
  154MOL0     C21175   4.590  10.344   2.391  0.5210  0.0215  0.0133
  154MOL0     C21176   4.483  10.369   2.286  0.6937 -0.5797  1.2423
  154MOL0     C21177   4.530  10.345   2.139 -0.5420 -0.0119 -0.1652
  154MOL0     C21178   4.651  10.415   2.100 -0.5058 -0.6651  0.1455
  154MOL0     C21179   4.749  10.478   2.094 -0.7650  0.0622 -0.4626
  154MOL0     C21180   4.244  10.457   2.500 -0.4053  0.4711 -0.1501
  154MOL0     C21181   4.139  10.536   2.539  0.3061 -0.0340 -1.2092
  154MOL0     C21182   4.047  10.587   2.430 -0.6766  0.2551  0.1361
  154MOL0     H21183   3.825  10.619   3.078 -1.5883 -0.7442  0.1941
  154MOL0     H21184   3.720  10.793   3.211  1.9591  0.7141  0.9681
  154MOL0     H21185   3.524  10.956   3.116 -1.0014  0.9042  1.9752
  154MOL0     H21186   3.568  11.075   2.990  1.0820  1.1896 -0.1006
  154MOL0     H21187   3.390  11.156   3.115  0.6638 -0.2499 -2.3249
  154MOL0     H21188   3.484  11.141   3.267 -5.7159  0.6753  0.7089
  154MOL0     H21189   3.653  11.295   3.150  0.1089 -0.7043 -4.1702
  154MOL0     H21190   3.505  11.341   3.047 -1.5782 -0.5245 -0.3384
  154MOL0     H21191   3.392  11.373   3.284 -0.1069 -0.3008 -1.5316
  154MOL0     H21192   3.550  11.363   3.358  2.0914 -1.2182 -1.9570
  154MOL0     H21193   3.448  11.566   3.152 -1.7176 -1.4460  0.7873
  154MOL0     H21194   3.613  11.579   3.229  0.8677 -0.3953  3.1445
  154MOL0     H21195   3.368  11.587   3.405 -1.9977  1.6726 -0.5933
  154MOL0     H21196   3.536  11.623   3.432  1.8260  0.4556 -2.0706
  154MOL0     H21197   3.519  11.818   3.251 -3.4078  2.4391 -0.3839
  154MOL0     H21198   3.444  11.840   3.417 -1.5483  0.7386  0.3971
  154MOL0     H21199   3.306  11.764   3.155  2.5320  1.5721 -0.9861
  154MOL0     H21200   3.229  11.749   3.314  1.4340 -1.6415  0.6626
  154MOL0     H21201   3.056  11.945   3.327  0.7683  1.1645  1.0106
  154MOL0     H21202   3.051  12.330   3.236  0.9292 -1.7418 -4.6318
  154MOL0     H21203   3.014  12.218   3.381 -0.4681 -4.4834 -0.6526
  154MOL0     H21204   2.932  12.174   3.098  2.4578 -3.3132  0.2228
  154MOL0     H21205   2.874  12.083   3.237  3.2361 -1.0546 -0.0391
  154MOL0     H21206   2.755  12.249   3.338 -0.3191 -1.4340 -0.5879
  154MOL0     H21207   2.831  12.374   3.233  2.2226 -0.9097 -2.4895
  154MOL0     H21208   2.597  12.319   3.150 -0.5642 -0.3912 -2.6836
  154MOL0     H21209   2.720  12.290   3.033  1.8524  1.7970  1.8130
  154MOL0     H21210   2.394  12.180   3.136 -1.1446 -1.3893 -0.7986
  154MOL0     H21211   2.172  12.179   3.217 -3.5487 -0.6876  0.4897
  154MOL0     H21212   2.179  12.160   3.398 -2.1327 -1.5326 -0.3021
  154MOL0     H21213   2.131  12.026   3.285 -1.0076  0.0505 -0.3728
  154MOL0     H21214   2.236  11.545   3.527  3.2357 -2.5792  1.3927
  154MOL0     H21215   2.112  11.386   3.665  1.1095 -0.4293  1.3973
  154MOL0     H21216   2.155  11.515   4.026  0.6061 -1.4305 -3.0120
  154MOL0     H21217   2.009  11.447   4.114  2.2002  1.5791  1.4394
  154MOL0     H21218   2.204  11.315   3.919  0.4044 -1.7299 -0.4142
  154MOL0     H21219   2.211  11.285   4.088  0.4176  3.8210  1.4207
  154MOL0     H21220   2.003  11.185   3.883 -0.5767 -0.5423  0.0205
  154MOL0     H21221   1.943  11.205   4.039 -1.4464  1.3994 -3.4672
  154MOL0     H21222   2.153  11.080   4.120  2.3903 -1.1564 -0.9266
  154MOL0     H21223   2.188  11.036   3.951  3.2605  0.8600  2.6835
  154MOL0     H21224   1.926  10.977   4.102 -0.6270 -0.8215  0.6338
  154MOL0     H21225   1.964  10.912   3.945  0.1164 -3.8055  0.9078
  154MOL0     H21226   2.162  10.877   4.161 -0.6643 -1.6301  2.0686
  154MOL0     H21227   2.150  10.795   4.000  1.8724  2.3037  0.2845
  154MOL0     H21228   1.928  10.694   4.051 -1.6425  0.4601  1.9676
  154MOL0     H21229   1.934  10.770   4.208  1.5041  2.2849 -0.6361
  154MOL0     H21230   2.113  10.631   4.275 -0.0409  2.7917 -0.7732
  154MOL0     H21231   2.168  10.575   4.125 -0.8473 -5.1383 -0.2593
  154MOL0     H21232   2.033  11.724   3.936 -1.6894 -0.5642  0.1433
  154MOL0     H21233   2.184  11.869   3.790  1.0116  0.6015 -0.5222
  154MOL0     H21234   2.524  11.840   3.467 -2.0406 -2.9138 -1.1256
  154MOL0     H21235   2.678  11.915   3.290  0.0754 -0.2559  0.6188
  154MOL0     H21236   3.866  11.094   2.954 -1.8542 -0.5307 -2.1899
  154MOL0     H21237   3.983  10.931   2.811 -0.3099  1.9896  0.0557
  154MOL0     H21238   4.174  10.507   2.882  0.8331 -1.1440  0.1122
  154MOL0     H21239   4.371  10.362   2.799  0.1987  2.0130  0.2615
  154MOL0     H21240   4.530  10.484   2.537  1.6025 -0.0987 -1.9504
  154MOL0     H21241   4.619  10.346   2.611 -0.9352 -0.0094  1.9193
  154MOL0     H21242   4.596  10.235   2.401 -1.3765 -0.1627 -0.4754
  154MOL0     H21243   4.681  10.403   2.380  0.9492  0.0138  2.7658
  154MOL0     H21244   4.393  10.307   2.291  0.0932 -0.4838 -3.3861
  154MOL0     H21245   4.448  10.473   2.283 -1.2978 -1.2098  1.2021
  154MOL0     H21246   4.447  10.365   2.071  0.0449 -1.2060 -1.2789
  154MOL0     H21247   4.558  10.241   2.118  1.9601 -0.1224  3.0356
  154MOL0     H21248   4.838  10.537   2.093 -1.0660  0.5517  0.3507
  154MOL0     H21249   4.258  10.435   2.395 -3.7185  1.8724 -1.0344
  154MOL0     H21250   4.069  10.540   2.334 -5.1493 -0.3503 -0.7948
  154MOL0     H21251   3.944  10.561   2.457 -1.2276 -1.1304 -2.9560
  154MOL0     H21252   4.050  10.696   2.419 -1.3195  0.1471 -1.1666
  155MOL0     O21253   2.759   3.188   9.147  0.5143 -0.3085 -0.1522
  155MOL0     C21254   2.800   3.182   9.028 -0.4305 -0.3009 -0.0445
  155MOL0     O21255   2.779   3.277   8.934  0.2731  0.3201 -0.2000
  155MOL0     C21256   2.667   3.361   8.933  0.1621  1.0777  0.5847
  155MOL0     C21257   2.542   3.338   8.985 -0.2202  0.5539  0.1107
  155MOL0     C21258   2.441   3.440   8.971 -0.5760 -0.2525 -0.4326
  155MOL0     C21259   2.461   3.567   8.925 -0.4540 -0.2489 -1.7321
  155MOL0     O21260   2.349   3.653   8.917 -0.4005  0.1195  0.8276
  155MOL0     C21261   2.377   3.790   8.890 -1.6144 -0.6370  0.2261
  155MOL0     C21262   2.249   3.867   8.862  0.7164  0.6509 -0.3437
  155MOL0     C21263   2.151   3.849   8.990 -0.1426  0.3891  0.1860
  155MOL0     C21264   2.207   3.926   9.111  0.4090 -0.4502  0.0115
  155MOL0     C21265   2.127   3.883   9.232 -0.7368 -0.3686 -0.2184
  155MOL0     C21266   2.188   3.915   9.370 -0.1283 -0.0754 -0.2469
  155MOL0     C21267   2.205   4.068   9.398 -0.5008 -0.4786 -0.4051
  155MOL0     C21268   2.248   4.107   9.541 -0.2153  0.7844 -0.6688
  155MOL0     N21269   2.251   4.248   9.591 -0.6370  0.7652  0.8720
  155MOL0     C21270   2.262   4.270   9.719  0.2931 -0.0552 -0.3654
  155MOL0     C21271   2.255   4.401   9.734 -0.6208  0.4003 -0.6449
  155MOL0     C21272   2.269   4.470   9.864 -0.3843 -0.0438 -0.2594
  155MOL0     C21273   2.180   4.601   9.873 -0.0613  0.8586 -0.8522
  155MOL0     C21274   2.165   4.678  10.001 -0.1456 -0.1478  0.3086
  155MOL0     C21275   2.043   4.644  10.080 -0.1467 -0.0748 -0.3839
  155MOL0     O21276   2.055   4.521  10.155 -0.0269  0.4941 -0.0310
  155MOL0     C21277   1.980   4.499  10.264  0.4765  0.7227  1.0519
  155MOL0     C21278   1.882   4.584  10.315 -0.0960  0.3727  0.1073
  155MOL0     C21279   1.808   4.548  10.421  0.6574  1.2855 -0.1777
  155MOL0     C21280   1.702   4.645  10.459  0.9999 -1.0845  0.8457
  155MOL0     C21281   1.823   4.427  10.494 -0.2344 -0.9400 -0.1198
  155MOL0     C21282   1.751   4.391  10.618  0.2175 -0.6800 -0.0062
  155MOL0     O21283   1.786   4.269  10.669  0.3128  0.1793 -0.2715
  155MOL0     C21284   1.697   4.223  10.756  0.3752 -1.5682 -0.4330
  155MOL0     C21285   1.587   4.147  10.704  0.2276 -0.6840  0.2956
  155MOL0     C21286   1.501   4.092  10.802  0.3389  0.0724  0.4147
  155MOL0     C21287   1.532   4.107  10.940  0.5149 -0.3671 -0.6935
  155MOL0     O21288   1.435   4.052  11.031 -0.0402  0.2178  0.1557
  155MOL0     C21289   1.502   3.981  11.139  1.2073  0.6313 -0.0729
  155MOL0     C21290   1.417   3.871  11.193 -0.7376 -0.5692 -0.0828
  155MOL0     C21291   1.493   3.753  11.248 -0.5192  0.0020 -0.2132
  155MOL0     C21292   1.415   3.662  11.336 -0.1396 -0.3695  0.7821
  155MOL0     C21293   1.504   3.560  11.393 -0.3876 -0.0888  0.4466
  155MOL0     C21294   1.448   3.504  11.528 -0.2701 -1.2074 -0.0060
  155MOL0     C21295   1.317   3.432  11.535 -0.2537  0.3442  0.3853
  155MOL0     C21296   1.302   3.338  11.652  0.1575  0.4381 -1.1947
  155MOL0    Cl21297   1.417   3.204  11.637 -0.0879 -0.2701  0.2443
  155MOL0     C21298   1.638   4.190  10.983  0.5788 -0.6265 -0.0936
  155MOL0     C21299   1.723   4.252  10.891  0.9330 -0.5036  0.9637
  155MOL0     O21300   1.674   4.474  10.672  0.0331 -0.0451  0.3116
  155MOL0     C21301   1.931   4.351  10.451  0.8729  0.0375  0.6974
  155MOL0     C21302   2.005   4.389  10.338 -0.3962 -0.0116  0.1771
  155MOL0     N21303   2.239   4.466   9.615  0.2380 -0.6954  0.3636
  155MOL0     N21304   2.247   4.370   9.529 -0.2087  0.1661 -0.3578
  155MOL0     C21305   2.595   3.593   8.883 -0.2181 -0.4397 -0.2619
  155MOL0     C21306   2.683   3.491   8.882 -0.4374 -0.3745 -0.5806
  155MOL0     C21307   2.869   3.051   8.983 -0.0623  0.6092 -0.9508
  155MOL0     C21308   2.930   2.965   9.078 -0.0879 -0.9138 -0.2884
  155MOL0     C21309   2.980   2.845   9.051  0.0673  0.1405 -0.2288
  155MOL0     C21310   2.970   2.794   8.924 -0.4797  0.5033 -0.0679
  155MOL0     O21311   3.010   2.667   8.902 -0.0358  0.2056  0.5334
  155MOL0     C21312   3.130   2.621   8.956  0.5084  0.4396 -0.5530
  155MOL0     C21313   3.172   2.493   8.892 -0.2983 -0.1540  0.6481
  155MOL0     C21314   3.187   2.518   8.739  0.1549 -0.4176  0.1735
  155MOL0     C21315   3.232   2.392   8.666  0.5138  0.4177 -0.4617
  155MOL0     C21316   3.289   2.414   8.538  0.3450  0.2383  0.9245
  155MOL0     C21317   3.358   2.428   8.429 -0.2713  0.6559  0.5377
  155MOL0     C21318   2.916   2.877   8.823 -0.8719 -0.3822  0.3444
  155MOL0     C21319   2.876   3.011   8.847 -0.9842  0.4668  0.3121
  155MOL0     C21320   2.830   3.089   8.728  0.8487  1.1097 -0.1960
  155MOL0     H21321   2.514   3.238   9.015 -1.9285  1.5134  2.0452
  155MOL0     H21322   2.337   3.415   8.992 -0.7984 -0.5241 -1.7723
  155MOL0     H21323   2.446   3.812   8.808  1.6396  0.8901  3.1263
  155MOL0     H21324   2.436   3.836   8.969  1.9057 -2.3035 -1.2116
  155MOL0     H21325   2.277   3.971   8.844 -0.2373  1.4179  2.2130
  155MOL0     H21326   2.196   3.820   8.779 -0.6152  1.3811  0.0656
  155MOL0     H21327   2.048   3.880   8.970 -0.1320  0.1419 -0.2801
  155MOL0     H21328   2.133   3.742   9.008  0.2004  0.0577 -1.2315
  155MOL0     H21329   2.316   3.929   9.121  0.5265  0.5632 -1.3194
  155MOL0     H21330   2.191   4.031   9.085 -1.7392 -1.1152 -1.6154
  155MOL0     H21331   2.128   3.774   9.234  4.3211 -0.5727 -0.1751
  155MOL0     H21332   2.024   3.920   9.225 -1.2123 -1.7225 -0.7774
  155MOL0     H21333   2.120   3.883   9.449 -1.6878  2.8421 -0.2887
  155MOL0     H21334   2.285   3.866   9.387  0.0632  0.8073  1.3294
  155MOL0     H21335   2.109   4.119   9.379 -0.7811  0.0307  2.0795
  155MOL0     H21336   2.277   4.113   9.329 -2.6816 -1.6000 -3.6653
  155MOL0     H21337   2.188   4.042   9.605  2.4456 -2.1739 -0.9139
  155MOL0     H21338   2.349   4.072   9.564 -1.2819 -1.3388  1.1961
  155MOL0     H21339   2.283   4.198   9.797  3.6499  1.1388 -0.0313
  155MOL0     H21340   2.373   4.501   9.875 -0.8063  1.2695  0.2733
  155MOL0     H21341   2.248   4.394   9.939 -0.2200 -2.5347 -2.6124
  155MOL0     H21342   2.219   4.666   9.795  1.9310 -1.0435 -1.5500
  155MOL0     H21343   2.083   4.565   9.836  0.9805 -4.0096  0.4342
  155MOL0     H21344   2.257   4.651  10.056 -1.0146  0.7852  2.3383
  155MOL0     H21345   2.151   4.784   9.981 -3.4393 -0.0323  2.5505
  155MOL0     H21346   2.035   4.727  10.151  1.3630 -0.0008 -0.2631
  155MOL0     H21347   1.957   4.641  10.012  0.5080  0.6574 -1.2814
  155MOL0     H21348   1.854   4.676  10.265 -1.0053 -0.6162 -1.3005
  155MOL0     H21349   1.697   4.739  10.403 -0.7470 -0.3670  2.1234
  155MOL0     H21350   1.732   4.686  10.556  1.8379  3.7491 -1.1518
  155MOL0     H21351   1.605   4.596  10.456 -0.1128  1.0342 -0.8785
  155MOL0     H21352   1.564   4.120  10.601  0.9945  2.9375 -0.9823
  155MOL0     H21353   1.426   4.020  10.769 -1.3530  0.2899  3.4444
  155MOL0     H21354   1.593   3.937  11.096 -0.6977 -3.3257 -0.4904
  155MOL0     H21355   1.531   4.051  11.218 -1.3843  0.0063  1.5636
  155MOL0     H21356   1.343   3.911  11.264 -0.4142  0.0246 -0.0777
  155MOL0     H21357   1.364   3.831  11.106 -0.5666  0.1136 -0.4995
  155MOL0     H21358   1.569   3.800  11.310  0.7247  0.0639 -1.7119
  155MOL0     H21359   1.546   3.702  11.167 -0.5719 -0.5335  0.0836
  155MOL0     H21360   1.340   3.618  11.270  0.1876 -1.1269  0.9027
  155MOL0     H21361   1.364   3.726  11.409  0.0275 -0.4782  0.9965
  155MOL0     H21362   1.524   3.476  11.325 -0.1040  1.7183 -1.8160
  155MOL0     H21363   1.601   3.599  11.424  0.7726 -3.2269  1.1720
  155MOL0     H21364   1.447   3.589  11.597  4.2946 -1.2185  0.3915
  155MOL0     H21365   1.527   3.438  11.565 -0.3979 -1.4854 -0.2285
  155MOL0     H21366   1.307   3.370  11.445 -0.5207  0.2390  0.4883
  155MOL0     H21367   1.242   3.511  11.536 -0.8768 -0.1545 -1.9948
  155MOL0     H21368   1.199   3.301  11.648  0.4262 -1.0865  2.4406
  155MOL0     H21369   1.320   3.390  11.746 -0.4835 -1.4982  0.0502
  155MOL0     H21370   1.671   4.209  11.084  0.7291 -0.7398 -0.1218
  155MOL0     H21371   1.806   4.319  10.911 -0.0331  0.9396  0.2760
  155MOL0     H21372   1.973   4.264  10.501 -0.6995 -0.1461  1.7723
  155MOL0     H21373   2.079   4.322  10.294 -0.9533 -0.3389 -0.2633
  155MOL0     H21374   2.631   3.691   8.853  1.1367 -0.2911  1.6608
  155MOL0     H21375   2.779   3.518   8.839  0.7382  0.6174  2.3723
  155MOL0     H21376   2.917   2.981   9.184 -2.7545 -2.7045 -0.2349
  155MOL0     H21377   3.023   2.786   9.132  1.1803  0.8685 -0.2588
  155MOL0     H21378   3.209   2.695   8.945 -0.2892  1.8388  2.1882
  155MOL0     H21379   3.103   2.615   9.062  1.9762 -0.2105 -0.1977
  155MOL0     H21380   3.105   2.411   8.919 -0.2732 -0.9788 -1.5773
  155MOL0     H21381   3.273   2.474   8.931  0.9765  0.6423 -2.0021
  155MOL0     H21382   3.086   2.548   8.708  0.2704 -0.7656 -0.5669
  155MOL0     H21383   3.263   2.594   8.724 -0.6037  0.2354 -0.4588
  155MOL0     H21384   3.150   2.319   8.660 -0.7821  1.7179  0.6012
  155MOL0     H21385   3.311   2.349   8.728 -0.0548 -0.4847 -0.3429
  155MOL0     H21386   3.418   2.441   8.341 -1.2743 -2.1945 -0.6730
  155MOL0     H21387   2.922   2.824   8.728 -0.0789 -0.0042  0.1732
  155MOL0     H21388   2.848   3.034   8.634  3.1171 -1.0473  1.3627
  155MOL0     H21389   2.725   3.119   8.727  1.5743  4.3645 -3.5822
  155MOL0     H21390   2.890   3.180   8.718 -0.3374  2.0415  0.9829
  156MOL0     O21391   8.250   8.394   4.748 -0.2557  0.6488  0.0537
  156MOL0     C21392   8.316   8.288   4.751  1.0864  0.3697 -0.3890
  156MOL0     O21393   8.452   8.274   4.739  0.1683 -0.7921 -0.4083
  156MOL0     C21394   8.520   8.395   4.718 -1.2250  0.3736 -0.4573
  156MOL0     C21395   8.521   8.454   4.594 -0.0158  1.6453  0.8671
  156MOL0     C21396   8.572   8.582   4.581  0.2507  0.0024 -0.1666
  156MOL0     C21397   8.651   8.647   4.684 -0.8035  0.0399  0.2250
  156MOL0     O21398   8.717   8.762   4.653 -0.0867  0.1477  0.2222
  156MOL0     C21399   8.744   8.847   4.762  0.4348 -0.3229  0.4152
  156MOL0     C21400   8.777   8.986   4.701 -0.8551  0.3848 -0.2228
  156MOL0     C21401   8.818   9.082   4.812  1.0622 -0.0253  0.3727
  156MOL0     C21402   8.973   9.080   4.824 -0.4480  0.7259  0.2770
  156MOL0     C21403   9.026   9.157   4.946 -0.3402  0.0740 -0.3592
  156MOL0     C21404   9.181   9.151   4.966  0.5440  0.9762  0.0145
  156MOL0     C21405   9.223   9.223   5.096 -0.8948  0.0125  0.5703
  156MOL0     C21406   9.375   9.214   5.128  0.4531  0.1141  0.1315
  156MOL0     N21407   9.435   9.076   5.113  0.6113 -0.0610 -0.0820
  156MOL0     C21408   9.404   8.973   5.202  0.0731  0.9415  0.3177
  156MOL0     C21409   9.504   8.885   5.191  0.0130 -0.1705  0.8304
  156MOL0     C21410   9.511   8.763   5.270 -0.4312 -0.8095 -0.7612
  156MOL0     C21411   9.596   8.786   5.400  0.4188 -0.7107  0.7445
  156MOL0     C21412   9.742   8.820   5.379 -0.3446 -0.0485  0.6011
  156MOL0     C21413   9.807   8.805   5.511  0.0814 -0.1252 -0.0115
  156MOL0     O21414   9.801   8.672   5.550  0.3434  1.5312  0.2399
  156MOL0     C21415   9.911   8.598   5.543  0.0256 -0.4783 -0.2053
  156MOL0     C21416   9.905   8.468   5.478 -0.5839  0.3050  0.5403
  156MOL0     C21417  10.016   8.391   5.458 -0.2460  0.6665  0.1778
  156MOL0     C21418   9.994   8.269   5.369  0.0300  0.0770 -0.2107
  156MOL0     C21419  10.133   8.429   5.516 -0.5313  0.2492 -0.2225
  156MOL0     C21420  10.261   8.341   5.502 -0.3098 -0.5375  0.4732
  156MOL0     O21421  10.380   8.407   5.513  0.5696  0.3098  0.2568
  156MOL0     C21422  10.514   8.368   5.509  0.2557  1.1253  0.4486
  156MOL0     C21423  10.618   8.455   5.496 -0.1011 -0.4855 -0.3810
  156MOL0     C21424  10.748   8.400   5.472 -0.2960 -0.0533  0.5361
  156MOL0     C21425  10.776   8.263   5.457 -0.2071  0.2035 -0.8445
  156MOL0     O21426  10.899   8.202   5.433 -0.4349 -0.6943 -0.2389
  156MOL0     C21427  10.993   8.285   5.360  0.3595  1.0241 -0.1215
  156MOL0     C21428  11.139   8.232   5.361  0.3410  0.6640 -0.1259
  156MOL0     C21429  11.213   8.247   5.497  0.6260 -0.7749 -0.4865
  156MOL0     C21430  11.363   8.212   5.502  2.0034  0.3936  0.2676
  156MOL0     C21431  11.420   8.210   5.646  0.1673  0.0240 -1.1110
  156MOL0     C21432  11.576   8.204   5.654 -0.3350  0.8701  0.3273
  156MOL0     C21433  11.611   8.056   5.628 -0.0327 -0.6673 -0.4789
  156MOL0     C21434  11.752   8.009   5.683 -0.8380 -0.6321 -0.4347
  156MOL0    Cl21435  11.881   8.114   5.618 -0.3369  0.3314 -0.1960
  156MOL0     C21436  10.672   8.180   5.484  0.7316  0.3927 -0.0218
  156MOL0     C21437  10.549   8.230   5.508  1.0164 -0.2259 -0.2790
  156MOL0     O21438  10.253   8.221   5.476  0.3266  0.3123  0.1900
  156MOL0     C21439  10.141   8.546   5.593  0.5631  0.8153  0.2810
  156MOL0     C21440  10.027   8.631   5.604 -0.4076  0.6809 -0.4957
  156MOL0     N21441   9.585   8.929   5.089 -0.1648  0.7213  1.3101
  156MOL0     N21442   9.534   9.041   5.026  0.1186 -0.4577 -0.6918
  156MOL0     C21443   8.654   8.579   4.814  0.9902 -0.6064  0.0791
  156MOL0     C21444   8.584   8.453   4.828 -0.3987  0.1463 -0.1521
  156MOL0     C21445   8.240   8.158   4.769 -0.1997  0.5447 -0.6901
  156MOL0     C21446   8.315   8.038   4.765 -0.5771 -0.1807 -0.3098
  156MOL0     C21447   8.250   7.916   4.778  0.0268 -0.9672  0.4720
  156MOL0     C21448   8.114   7.908   4.780 -0.5478  0.4895 -0.0904
  156MOL0     O21449   8.053   7.784   4.803 -1.2870  0.6658 -0.1422
  156MOL0     C21450   8.079   7.691   4.698  0.3831  1.3681 -0.5159
  156MOL0     C21451   8.130   7.555   4.763 -0.0815 -0.1734 -0.3533
  156MOL0     C21452   8.083   7.446   4.677  0.0707 -0.2450  0.0583
  156MOL0     C21453   8.105   7.318   4.736 -0.6043  0.5980 -0.5049
  156MOL0     C21454   8.061   7.202   4.658 -0.6316  0.3031  0.4290
  156MOL0     C21455   8.028   7.102   4.602 -0.3096  0.7742 -0.3195
  156MOL0     C21456   8.043   8.020   4.774 -0.5824  0.3567 -0.1622
  156MOL0     C21457   8.104   8.151   4.773 -0.4841  0.1103 -0.3750
  156MOL0     C21458   8.000   8.264   4.783 -0.0113  0.2365  0.6924
  156MOL0     H21459   8.473   8.410   4.508  1.1868  0.6248  0.6783
  156MOL0     H21460   8.547   8.630   4.487 -2.5396 -0.1363  0.4403
  156MOL0     H21461   8.836   8.820   4.814 -0.7655 -1.2703  2.1605
  156MOL0     H21462   8.656   8.848   4.827  0.2652 -1.0572  0.2075
  156MOL0     H21463   8.867   8.973   4.640 -0.6096  1.1862 -0.0424
  156MOL0     H21464   8.688   9.020   4.647 -1.9836 -2.0807 -0.0611
  156MOL0     H21465   8.794   9.183   4.778  1.6172 -0.0531 -0.1237
  156MOL0     H21466   8.770   9.060   4.907  0.4189 -1.7768 -0.3154
  156MOL0     H21467   9.009   8.977   4.828 -0.7219  0.6502  0.7772
  156MOL0     H21468   9.015   9.122   4.732 -0.2616 -0.5601 -0.2419
  156MOL0     H21469   8.985   9.100   5.030  2.4847 -2.0485 -0.2425
  156MOL0     H21470   8.993   9.261   4.938 -1.8521 -0.3932 -0.5114
  156MOL0     H21471   9.220   9.049   4.976 -1.9257  0.1497  2.2561
  156MOL0     H21472   9.240   9.195   4.885  1.1121  0.7205  0.2839
  156MOL0     H21473   9.161   9.173   5.172 -0.6993  0.2063  0.8620
  156MOL0     H21474   9.198   9.329   5.085  0.3325  0.4085  1.4156
  156MOL0     H21475   9.418   9.274   5.048  0.6106 -0.3954 -0.1708
  156MOL0     H21476   9.406   9.255   5.225 -2.5876 -0.3853  1.4327
  156MOL0     H21477   9.322   8.973   5.273  1.1695 -1.4261  1.6607
  156MOL0     H21478   9.564   8.694   5.204  1.3283 -3.1880  2.7848
  156MOL0     H21479   9.412   8.738   5.309 -0.1196  1.9120  2.2475
  156MOL0     H21480   9.550   8.866   5.460  0.2355 -0.3458  0.1374
  156MOL0     H21481   9.583   8.696   5.460 -1.1454 -0.9535  0.0938
  156MOL0     H21482   9.794   8.764   5.301  1.5692 -2.5222  3.4362
  156MOL0     H21483   9.727   8.923   5.347 -3.6208 -0.6217 -0.0683
  156MOL0     H21484   9.909   8.834   5.485 -0.4102  0.1719 -1.7339
  156MOL0     H21485   9.757   8.866   5.588 -0.8443  1.5310 -1.8304
  156MOL0     H21486   9.803   8.437   5.454 -0.8423 -0.7050  2.7175
  156MOL0     H21487   9.896   8.272   5.322 -1.0422  0.2461  1.8958
  156MOL0     H21488  10.012   8.184   5.437  1.4861 -0.1385 -0.8183
  156MOL0     H21489  10.067   8.262   5.288  0.2168 -0.5663  0.0028
  156MOL0     H21490  10.597   8.557   5.529 -0.3842 -0.0345 -1.8596
  156MOL0     H21491  10.823   8.479   5.467 -3.1599  2.7993 -3.5466
  156MOL0     H21492  10.962   8.288   5.255 -0.3767 -2.0075 -0.0808
  156MOL0     H21493  11.004   8.382   5.409 -0.3522  1.6813 -1.2161
  156MOL0     H21494  11.148   8.131   5.319 -0.2969  0.5138  0.0860
  156MOL0     H21495  11.200   8.295   5.296  0.6216 -0.7270 -1.2603
  156MOL0     H21496  11.169   8.182   5.573  1.5454 -2.5603 -1.4056
  156MOL0     H21497  11.200   8.351   5.525 -0.2687 -0.5294 -1.7194
  156MOL0     H21498  11.409   8.281   5.432 -0.8822 -1.8964 -4.3634
  156MOL0     H21499  11.377   8.117   5.449 -2.3833  0.2796 -1.1008
  156MOL0     H21500  11.394   8.298   5.706  1.1692 -0.8956  0.7355
  156MOL0     H21501  11.364   8.128   5.692  0.3378  0.4566 -0.1119
  156MOL0     H21502  11.612   8.244   5.749 -0.2020  0.1653  0.5826
  156MOL0     H21503  11.621   8.270   5.579 -2.2702 -0.1693 -1.8731
  156MOL0     H21504  11.596   8.030   5.523 -0.2495  0.7291 -0.8161
  156MOL0     H21505  11.545   7.995   5.691  1.8479 -3.9308 -1.4140
  156MOL0     H21506  11.778   7.905   5.660 -0.2564 -1.3654  2.8766
  156MOL0     H21507  11.740   8.002   5.792  1.8476 -1.5812 -0.1289
  156MOL0     H21508  10.690   8.073   5.481  0.3438  0.3392 -1.6073
  156MOL0     H21509  10.477   8.150   5.520 -1.5711  1.3438 -3.6765
  156MOL0     H21510  10.223   8.570   5.661 -0.7060  2.0153  1.4506
  156MOL0     H21511  10.031   8.702   5.686 -1.2163 -3.7846  3.9000
  156MOL0     H21512   8.702   8.631   4.897 -0.9346  1.6609 -0.1260
  156MOL0     H21513   8.584   8.398   4.922  1.0742 -2.9111 -1.8248
  156MOL0     H21514   8.423   8.043   4.762 -0.5744 -0.3011 -0.4466
  156MOL0     H21515   8.308   7.825   4.793  0.8621 -0.7630 -1.2145
  156MOL0     H21516   7.991   7.674   4.636  2.1771 -0.1992 -2.8587
  156MOL0     H21517   8.149   7.739   4.628 -1.5025  3.9265 -0.7529
  156MOL0     H21518   8.096   7.539   4.866  2.3078 -1.0754  0.3476
  156MOL0     H21519   8.239   7.566   4.758 -0.2911  1.5242 -2.6662
  156MOL0     H21520   7.980   7.470   4.649  1.3176  5.8391 -0.8331
  156MOL0     H21521   8.135   7.456   4.581 -0.8978 -1.8946 -0.6873
  156MOL0     H21522   8.056   7.317   4.833 -0.4519 -1.9344 -0.3887
  156MOL0     H21523   8.210   7.312   4.766 -1.7189 -1.0860  3.6615
  156MOL0     H21524   8.005   7.011   4.551  1.3046  1.0506 -1.6434
  156MOL0     H21525   7.937   7.996   4.765 -0.6998  1.1257 -1.0257
  156MOL0     H21526   7.970   8.305   4.686  2.0374  2.4936  0.9097
  156MOL0     H21527   7.920   8.222   4.844  2.6366 -1.8892  2.9887
  156MOL0     H21528   8.034   8.352   4.839 -3.0281  2.1683 -0.2888
  157MOL0     O21529   9.572   6.648   5.406 -0.2609  0.1826 -0.5002
  157MOL0     C21530   9.480   6.577   5.360 -0.0920 -0.8177  0.0568
  157MOL0     O21531   9.342   6.607   5.346 -0.6397  0.3659  0.1069
  157MOL0     C21532   9.304   6.728   5.360  0.6787  0.0213 -0.1969
  157MOL0     C21533   9.371   6.845   5.323 -0.0976  1.3436  0.1671
  157MOL0     C21534   9.309   6.969   5.342 -0.4269 -0.0396 -0.0865
  157MOL0     C21535   9.186   6.983   5.407  0.0298 -0.2861 -0.3464
  157MOL0     O21536   9.124   7.095   5.441  0.7482  0.1084  0.3800
  157MOL0     C21537   9.186   7.215   5.405 -0.4819  0.4934  0.5199
  157MOL0     C21538   9.096   7.338   5.423 -0.5315  0.4984 -0.1792
  157MOL0     C21539   9.103   7.394   5.568  0.2209  0.3193  1.2115
  157MOL0     C21540   9.012   7.512   5.582  0.2991 -0.0357  0.2202
  157MOL0     C21541   9.018   7.586   5.715 -0.2261  0.2049 -0.1756
  157MOL0     C21542   8.985   7.496   5.840  0.0319 -0.0500  0.3576
  157MOL0     C21543   8.828   7.483   5.850 -0.1632  0.4666  1.0032
  157MOL0     C21544   8.764   7.593   5.937  0.3728 -0.1955  0.0150
  157MOL0     N21545   8.782   7.730   5.894 -0.1820  0.1436 -1.1372
  157MOL0     C21546   8.689   7.807   5.816 -0.4366  0.8577  0.6064
  157MOL0     C21547   8.747   7.930   5.811 -0.2262  0.2924  1.2243
  157MOL0     C21548   8.696   8.046   5.745  0.5199  0.3030  0.7702
  157MOL0     C21549   8.763   8.070   5.608  0.4749  0.3109 -0.5468
  157MOL0     C21550   8.914   8.111   5.602 -0.2026  0.1892  0.4868
  157MOL0     C21551   8.965   8.122   5.463  0.3312  0.1811  0.9043
  157MOL0     O21552   8.988   7.996   5.403  0.3639  0.2692 -0.0090
  157MOL0     C21553   9.102   7.922   5.397 -1.0601  0.6457 -0.0521
  157MOL0     C21554   9.201   7.944   5.489 -0.9913 -0.1057  0.6906
  157MOL0     C21555   9.311   7.856   5.501  0.7733 -0.1743 -0.2001
  157MOL0     C21556   9.417   7.897   5.596  0.4963  0.4287  0.5074
  157MOL0     C21557   9.324   7.741   5.415  0.2848  0.3500 -0.0659
  157MOL0     C21558   9.432   7.648   5.408  0.1555 -0.3971  0.1947
  157MOL0     O21559   9.409   7.510   5.420 -0.1363  1.1433  0.6321
  157MOL0     C21560   9.489   7.422   5.356  0.0942  0.1864  0.0367
  157MOL0     C21561   9.515   7.301   5.415 -0.7930 -0.7870 -1.3676
  157MOL0     C21562   9.601   7.202   5.358  0.2170 -0.1109 -0.0733
  157MOL0     C21563   9.645   7.222   5.231  0.4016 -0.4282 -0.0913
  157MOL0     O21564   9.733   7.137   5.189  0.5028 -0.1492 -0.2132
  157MOL0     C21565   9.759   7.143   5.050 -0.2349  0.6475 -1.1630
  157MOL0     C21566   9.858   7.032   5.003  0.1672 -0.1416  0.4440
  157MOL0     C21567   9.864   7.022   4.852 -1.0734  0.5284  0.2169
  157MOL0     C21568   9.947   6.894   4.808  0.0271 -0.3211 -0.7305
  157MOL0     C21569   9.960   6.895   4.652 -0.4388  0.5279 -0.9809
  157MOL0     C21570   9.983   6.748   4.611 -0.1651 -0.0307  0.8856
  157MOL0     C21571   9.852   6.662   4.612  0.4698  0.1580  0.3005
  157MOL0     C21572   9.880   6.510   4.565 -0.4078 -0.4902  0.1463
  157MOL0    Cl21573   9.737   6.402   4.539  0.0487 -0.0543  0.0375
  157MOL0     C21574   9.593   7.337   5.160 -0.5729  1.0145  0.2968
  157MOL0     C21575   9.522   7.437   5.222  0.1813 -0.3672  0.1013
  157MOL0     O21576   9.534   7.706   5.381 -0.5471  0.1771  1.2278
  157MOL0     C21577   9.212   7.718   5.331 -0.1179  0.2305  0.0563
  157MOL0     C21578   9.109   7.809   5.316 -1.1664  0.5852  0.0399
  157MOL0     N21579   8.871   7.932   5.871 -0.8409 -0.6619  0.3072
  157MOL0     N21580   8.886   7.818   5.933 -0.4194  0.0717 -0.6099
  157MOL0     C21581   9.114   6.871   5.437  0.0893 -0.6227 -0.6176
  157MOL0     C21582   9.176   6.749   5.414 -0.4191  1.1144  0.3189
  157MOL0     C21583   9.495   6.432   5.360  0.5334 -0.0921  0.1953
  157MOL0     C21584   9.577   6.379   5.452 -1.1387 -0.9947 -0.2195
  157MOL0     C21585   9.606   6.243   5.456 -0.4634  0.0310  0.4491
  157MOL0     C21586   9.553   6.153   5.352  1.4453  0.5151  0.3334
  157MOL0     O21587   9.595   6.021   5.342  0.5467 -0.5129  0.0241
  157MOL0     C21588   9.512   5.936   5.415  0.3768  0.7421 -0.4747
  157MOL0     C21589   9.585   5.793   5.421  1.0093  0.5228  0.4391
  157MOL0     C21590   9.686   5.768   5.536  0.8679  0.2204 -0.3348
  157MOL0     C21591   9.776   5.653   5.511 -1.0095  0.1899  0.2526
  157MOL0     C21592   9.903   5.664   5.595  0.3966  0.3976  0.0066
  157MOL0     C21593   9.989   5.675   5.686 -0.6828 -0.1506  0.4086
  157MOL0     C21594   9.466   6.208   5.259 -0.2275 -0.7977  0.5635
  157MOL0     C21595   9.436   6.348   5.256  0.0813  0.6183 -0.6361
  157MOL0     C21596   9.364   6.403   5.142 -0.1089  0.4257  0.2981
  157MOL0     H21597   9.473   6.843   5.285 -0.3692  1.2086 -0.5733
  157MOL0     H21598   9.362   7.054   5.302  1.0589 -0.6842  0.4302
  157MOL0     H21599   9.193   7.211   5.296  0.1561 -1.0174  0.5954
  157MOL0     H21600   9.279   7.217   5.463  1.2655 -1.1860 -2.0183
  157MOL0     H21601   9.119   7.420   5.355 -4.1103  1.6300 -0.2011
  157MOL0     H21602   8.992   7.311   5.403 -0.6171  2.0473 -2.0372
  157MOL0     H21603   9.086   7.311   5.637 -2.4443  0.8905  1.3331
  157MOL0     H21604   9.206   7.432   5.567  0.1219  0.6759 -1.3704
  157MOL0     H21605   9.026   7.577   5.495  0.8214 -0.3375  0.0767
  157MOL0     H21606   8.912   7.466   5.574 -0.7100  2.1241 -0.2345
  157MOL0     H21607   8.962   7.680   5.704  0.9967  0.9019 -0.5800
  157MOL0     H21608   9.122   7.618   5.724 -0.3858  1.4639 -2.0807
  157MOL0     H21609   9.022   7.395   5.823 -0.0882  0.0578 -0.5917
  157MOL0     H21610   9.019   7.537   5.935  0.0751 -0.6667  0.6146
  157MOL0     H21611   8.819   7.380   5.886  1.2605 -1.0302 -2.4601
  157MOL0     H21612   8.793   7.488   5.746  1.0737 -1.0285  0.4772
  157MOL0     H21613   8.656   7.577   5.940 -0.0529  2.3103  0.9021
  157MOL0     H21614   8.803   7.576   6.038  0.5467  0.4848  0.0649
  157MOL0     H21615   8.596   7.777   5.769  0.5233 -0.0730 -0.7804
  157MOL0     H21616   8.704   8.137   5.805 -0.4484  1.7105 -1.0959
  157MOL0     H21617   8.590   8.024   5.731  0.5960  0.8966 -1.0498
  157MOL0     H21618   8.755   7.969   5.567 -0.0423 -1.5504  3.6329
  157MOL0     H21619   8.692   8.133   5.553  0.3080  0.3035 -0.3444
  157MOL0     H21620   8.927   8.210   5.646  1.9366  0.4740 -0.6910
  157MOL0     H21621   8.978   8.035   5.648 -0.0390  0.4231  0.6489
  157MOL0     H21622   8.879   8.171   5.417 -0.6281 -1.0744  1.3055
  157MOL0     H21623   9.058   8.179   5.455  0.9074 -0.7078  1.1348
  157MOL0     H21624   9.186   8.023   5.562 -0.0282  1.2583 -0.5343
  157MOL0     H21625   9.519   7.888   5.555  0.4238  1.3442  0.1076
  157MOL0     H21626   9.406   7.834   5.684  0.4699 -1.0740 -0.5341
  157MOL0     H21627   9.404   7.999   5.632  2.2336 -0.3272  3.6746
  157MOL0     H21628   9.466   7.274   5.508 -0.9807  1.6083 -0.7051
  157MOL0     H21629   9.626   7.112   5.412 -0.6839 -1.6523 -2.0950
  157MOL0     H21630   9.659   7.125   5.009 -2.3067 -0.7008  3.7829
  157MOL0     H21631   9.788   7.244   5.018 -1.4988  1.3951 -0.0930
  157MOL0     H21632   9.955   7.052   5.051 -0.6782  0.3330  2.0178
  157MOL0     H21633   9.828   6.937   5.049  0.1747 -0.1334  0.4669
  157MOL0     H21634   9.914   7.111   4.814 -1.4105  1.0306  0.9362
  157MOL0     H21635   9.764   7.017   4.808 -1.7429 -0.0007  1.7338
  157MOL0     H21636   9.896   6.806   4.849  0.8177  0.3042  1.7430
  157MOL0     H21637  10.044   6.892   4.857  0.1907 -0.5050 -1.0546
  157MOL0     H21638   9.867   6.929   4.607 -0.3432 -0.8585 -2.2957
  157MOL0     H21639  10.038   6.965   4.621 -0.8508  0.0628 -3.2570
  157MOL0     H21640  10.062   6.702   4.670 -1.2276 -0.9710  1.6165
  157MOL0     H21641  10.022   6.753   4.508 -0.6190  0.6783  0.7421
  157MOL0     H21642   9.776   6.705   4.545 -1.3510 -0.2479  2.0139
  157MOL0     H21643   9.805   6.657   4.710 -1.1681  3.5008 -0.1532
  157MOL0     H21644   9.943   6.464   4.641  1.2971 -0.1884 -1.0099
  157MOL0     H21645   9.928   6.528   4.468 -1.0451  0.5932  0.0216
  157MOL0     H21646   9.609   7.344   5.053  3.7090 -0.2949  0.6694
  157MOL0     H21647   9.481   7.521   5.167 -1.9953 -0.7816  0.9781
  157MOL0     H21648   9.201   7.624   5.278  2.5318  0.7445 -1.5830
  157MOL0     H21649   9.028   7.777   5.251 -2.9432 -1.2576  2.9169
  157MOL0     H21650   9.016   6.878   5.484  0.9317  0.3772  1.0872
  157MOL0     H21651   9.127   6.653   5.432  0.6840  0.4231 -0.2593
  157MOL0     H21652   9.632   6.449   5.514 -2.6012  0.2104 -0.2271
  157MOL0     H21653   9.680   6.210   5.528  1.1081 -0.3269 -1.2555
  157MOL0     H21654   9.483   5.973   5.513 -0.6696 -2.6601  0.6479
  157MOL0     H21655   9.414   5.922   5.367  0.7668 -0.7751 -0.8924
  157MOL0     H21656   9.628   5.767   5.324  1.1282  2.6209 -0.1179
  157MOL0     H21657   9.509   5.718   5.445 -0.0273  1.7315  1.1016
  157MOL0     H21658   9.744   5.860   5.548  0.0394  1.0916 -2.4727
  157MOL0     H21659   9.641   5.756   5.634  3.0102  3.3223  1.1888
  157MOL0     H21660   9.815   5.659   5.409 -0.2445 -0.0010  0.5216
  157MOL0     H21661   9.730   5.561   5.548 -1.1567  0.2334  0.1763
  157MOL0     H21662  10.059   5.654   5.764 -1.4496 -0.1461  1.1164
  157MOL0     H21663   9.436   6.146   5.175 -1.8184 -0.5143  0.8882
  157MOL0     H21664   9.442   6.456   5.087  0.3321  0.0655  0.5747
  157MOL0     H21665   9.343   6.322   5.073  4.4738 -0.6771 -0.1097
  157MOL0     H21666   9.271   6.460   5.152 -1.1048 -0.4791 -2.7597
  158MOL0     O21667   1.722   1.676   5.489 -0.7344 -0.3564  0.2513
  158MOL0     C21668   1.654   1.694   5.593  0.5883  0.4401 -0.3461
  158MOL0     O21669   1.707   1.759   5.703 -0.4874  0.1365  0.0906
  158MOL0     C21670   1.810   1.843   5.679 -0.7574 -0.1380 -0.1762
  158MOL0     C21671   1.788   1.965   5.613  0.1619 -0.6124  0.1670
  158MOL0     C21672   1.880   2.061   5.632  0.2619  0.0938 -0.4500
  158MOL0     C21673   2.003   2.037   5.686 -0.0930 -0.3684 -0.6062
  158MOL0     O21674   2.113   2.127   5.666  0.1866  0.1271 -0.1455
  158MOL0     C21675   2.245   2.085   5.690  0.9478 -0.0895  0.0168
  158MOL0     C21676   2.350   2.165   5.604 -0.5620 -0.5204  0.9710
  158MOL0     C21677   2.291   2.274   5.505  0.6656 -0.1470 -1.0903
  158MOL0     C21678   2.308   2.408   5.571  0.5742 -0.4041  0.2937
  158MOL0     C21679   2.261   2.512   5.481  0.0311 -0.4174  0.9826
  158MOL0     C21680   2.235   2.631   5.572 -1.3538  0.9260  0.3633
  158MOL0     C21681   2.244   2.755   5.479  0.7353  0.3408 -1.3556
  158MOL0     C21682   2.167   2.875   5.536  0.5672 -0.5161  0.4118
  158MOL0     N21683   2.173   2.999   5.456  0.1605  0.3736  0.4514
  158MOL0     C21684   2.075   3.098   5.466 -1.2701 -0.8372  0.4058
  158MOL0     C21685   2.111   3.183   5.367  0.0148  0.6166 -0.2000
  158MOL0     C21686   2.026   3.299   5.332 -0.4215  0.0414  0.7742
  158MOL0     C21687   2.013   3.384   5.469 -0.3651  0.6480 -0.8547
  158MOL0     C21688   1.929   3.501   5.434  0.3049  0.2971 -0.1022
  158MOL0     C21689   1.794   3.472   5.382  0.4599 -1.2781  0.0071
  158MOL0     O21690   1.729   3.410   5.491  0.6255 -0.2545 -0.0719
  158MOL0     C21691   1.657   3.306   5.434 -0.2024  0.0140 -0.4289
  158MOL0     C21692   1.672   3.189   5.504 -0.1947 -0.2249  0.4955
  158MOL0     C21693   1.594   3.070   5.465  0.1953 -0.1105  0.4242
  158MOL0     C21694   1.638   2.943   5.539  0.3369 -0.1323  0.3611
  158MOL0     C21695   1.498   3.085   5.370  0.0661 -0.6790 -0.0560
  158MOL0     C21696   1.433   2.965   5.321 -0.6684  0.4595  0.6371
  158MOL0     O21697   1.508   2.846   5.321  0.0495  0.3338  0.3884
  158MOL0     C21698   1.428   2.730   5.307  0.6283  0.5336 -0.9462
  158MOL0     C21699   1.318   2.703   5.394  0.1677 -0.3915 -0.5318
  158MOL0     C21700   1.251   2.577   5.387  0.0912 -0.1537  0.7219
  158MOL0     C21701   1.295   2.485   5.296  0.0954  0.4814  0.3516
  158MOL0     O21702   1.225   2.367   5.282  0.9828  0.2470 -0.5184
  158MOL0     C21703   1.274   2.257   5.209 -0.1201  0.1394 -0.7340
  158MOL0     C21704   1.161   2.150   5.206  0.0099  0.2946  0.5549
  158MOL0     C21705   1.144   2.084   5.340 -0.0101 -0.2762 -0.1546
  158MOL0     C21706   1.038   1.979   5.331 -0.4443 -1.0082 -0.9964
  158MOL0     C21707   1.049   1.878   5.453  0.2165  0.6291  0.1058
  158MOL0     C21708   0.959   1.755   5.444  0.1221  0.4201 -0.4224
  158MOL0     C21709   0.797   1.790   5.460  0.3395 -0.4133  0.0790
  158MOL0     C21710   0.772   1.815   5.616 -0.6287  0.7364 -0.2056
  158MOL0    Cl21711   0.598   1.812   5.636  0.4604  0.5542 -0.4205
  158MOL0     C21712   1.407   2.511   5.213 -0.3051 -0.6931  0.2344
  158MOL0     C21713   1.469   2.638   5.219 -0.2639 -0.1379 -0.1286
  158MOL0     O21714   1.327   2.987   5.259 -0.1699 -0.2853  0.0367
  158MOL0     C21715   1.479   3.210   5.309 -0.7352  0.8296  0.6458
  158MOL0     C21716   1.560   3.317   5.338 -0.6264 -0.4283  0.5632
  158MOL0     N21717   2.235   3.139   5.317 -0.7170  0.1890 -0.0730
  158MOL0     N21718   2.275   3.042   5.375 -0.6201  1.2026  0.9773
  158MOL0     C21719   2.026   1.913   5.752  0.7988  1.0005  0.7329
  158MOL0     C21720   1.928   1.815   5.756  0.0317 -0.4816 -0.0762
  158MOL0     C21721   1.516   1.641   5.593 -0.1661 -0.8594  1.7325
  158MOL0     C21722   1.474   1.550   5.686 -0.2666  0.6396  0.8788
  158MOL0     C21723   1.352   1.497   5.671 -0.1522 -0.6537  0.4723
  158MOL0     C21724   1.266   1.532   5.569  0.2326  0.2627 -0.0053
  158MOL0     O21725   1.139   1.485   5.531 -0.8387  0.7384  0.1781
  158MOL0     C21726   1.063   1.396   5.622  0.2954  0.2041 -0.3423
  158MOL0     C21727   0.949   1.332   5.554 -0.5662  0.4325  1.0562
  158MOL0     C21728   0.860   1.438   5.482  0.2244  0.3988 -1.0564
  158MOL0     C21729   0.713   1.391   5.459 -0.1483  0.5674 -0.1859
  158MOL0     C21730   0.641   1.377   5.587  1.9570 -0.5497 -0.3328
  158MOL0     C21731   0.556   1.349   5.677 -0.3457 -0.9652 -0.0830
  158MOL0     C21732   1.300   1.627   5.477 -0.1749 -0.1016  0.6788
  158MOL0     C21733   1.424   1.687   5.497 -0.7983 -0.0037  1.2505
  158MOL0     C21734   1.460   1.795   5.398 -0.7819  0.2364  0.1966
  158MOL0     H21735   1.699   1.975   5.552 -1.3973  3.3225  2.7124
  158MOL0     H21736   1.865   2.146   5.565 -5.4327 -0.6007 -0.5093
  158MOL0     H21737   2.253   1.981   5.658 -3.9921 -0.2131 -1.5965
  158MOL0     H21738   2.266   2.096   5.796 -1.3750 -2.3315  0.7990
  158MOL0     H21739   2.429   2.208   5.665 -0.0765 -1.0735  0.7373
  158MOL0     H21740   2.393   2.084   5.544 -1.0050 -2.5491  3.2231
  158MOL0     H21741   2.354   2.272   5.416  1.3148  2.7515 -0.7947
  158MOL0     H21742   2.187   2.255   5.476 -1.3804  4.8510  1.6330
  158MOL0     H21743   2.248   2.404   5.662  1.6787  2.8401  1.2884
  158MOL0     H21744   2.409   2.430   5.608 -0.0013  0.4541  1.3753
  158MOL0     H21745   2.165   2.495   5.430  0.5958 -0.1726 -0.1948
  158MOL0     H21746   2.339   2.534   5.408 -1.6073 -4.7020 -2.5168
  158MOL0     H21747   2.142   2.617   5.627 -2.3271  1.3798 -1.1068
  158MOL0     H21748   2.311   2.640   5.650  0.2999  0.4635 -1.1213
  158MOL0     H21749   2.208   2.738   5.377  1.2989 -1.1903 -1.3311
  158MOL0     H21750   2.350   2.779   5.480  1.0407  0.4138  4.7660
  158MOL0     H21751   2.060   2.858   5.557  0.9662 -1.3150  1.9471
  158MOL0     H21752   2.208   2.896   5.635 -4.8994  0.5095  2.8729
  158MOL0     H21753   1.987   3.104   5.530 -3.7800  1.3466 -2.9024
  158MOL0     H21754   1.932   3.266   5.286 -0.2945  0.3370  0.2938
  158MOL0     H21755   2.076   3.351   5.250  3.3744 -2.1403  1.4844
  158MOL0     H21756   1.971   3.331   5.555 -2.0301 -1.4160 -2.7948
  158MOL0     H21757   2.114   3.416   5.494  0.0729 -1.8261  0.9152
  158MOL0     H21758   1.923   3.572   5.517  1.3254  2.4663 -1.7702
  158MOL0     H21759   1.988   3.558   5.362 -2.6446  1.6309 -1.6268
  158MOL0     H21760   1.749   3.571   5.376 -0.0666 -1.3768  1.7184
  158MOL0     H21761   1.786   3.424   5.284 -1.0799 -2.3731  0.6254
  158MOL0     H21762   1.748   3.170   5.579  0.3547 -5.1122 -0.9684
  158MOL0     H21763   1.715   2.960   5.615  2.2508 -3.5599 -0.5901
  158MOL0     H21764   1.701   2.888   5.468  0.1149 -1.3151  1.0593
  158MOL0     H21765   1.554   2.885   5.577 -0.3561  0.0767 -0.8137
  158MOL0     H21766   1.272   2.782   5.452 -2.8159  1.0210 -4.3701
  158MOL0     H21767   1.159   2.546   5.436 -1.2315  2.0357 -0.2340
  158MOL0     H21768   1.286   2.281   5.103  2.3500  2.6619  0.0094
  158MOL0     H21769   1.372   2.218   5.239 -0.7282  0.8734  2.6790
  158MOL0     H21770   1.060   2.179   5.176 -1.2516 -4.4063 -0.5537
  158MOL0     H21771   1.187   2.079   5.127  1.0828  4.8351 -3.6185
  158MOL0     H21772   1.127   2.160   5.417  1.4134 -0.5915  0.5180
  158MOL0     H21773   1.232   2.022   5.358 -1.5431 -2.8209 -0.7957
  158MOL0     H21774   1.053   1.930   5.234  2.0727 -1.1537 -0.5940
  158MOL0     H21775   0.939   2.026   5.332  0.8339  1.9392 -0.3359
  158MOL0     H21776   1.147   1.831   5.461 -0.7317 -1.4353  0.2955
  158MOL0     H21777   1.018   1.929   5.545 -2.7168  1.4403 -1.2050
  158MOL0     H21778   0.967   1.684   5.527 -1.5337 -1.5598 -1.8579
  158MOL0     H21779   0.980   1.693   5.357 -1.7004 -1.1437  0.1876
  158MOL0     H21780   0.741   1.698   5.449  2.1766 -1.6645  0.6936
  158MOL0     H21781   0.770   1.875   5.397 -0.9193 -1.8353 -1.3792
  158MOL0     H21782   0.809   1.915   5.641 -1.6150  1.4339 -1.4441
  158MOL0     H21783   0.827   1.751   5.686 -1.6360 -0.0730 -0.1429
  158MOL0     H21784   1.450   2.440   5.142  4.0427  2.6781 -0.9340
  158MOL0     H21785   1.534   2.663   5.136  0.8309  0.8637  0.9982
  158MOL0     H21786   1.402   3.205   5.233  1.1426  0.4683 -1.3376
  158MOL0     H21787   1.541   3.421   5.316 -1.0451 -0.5746  0.2122
  158MOL0     H21788   2.121   1.887   5.797 -0.1596  0.1425  2.3360
  158MOL0     H21789   1.926   1.717   5.800 -1.2677 -0.3134  0.2901
  158MOL0     H21790   1.528   1.510   5.770  0.5388 -0.4236 -0.1175
  158MOL0     H21791   1.322   1.412   5.732  1.7957 -2.3107 -0.7288
  158MOL0     H21792   1.137   1.326   5.662 -0.1501 -1.0173 -1.5620
  158MOL0     H21793   1.023   1.466   5.695  1.7702  2.6289 -1.7138
  158MOL0     H21794   0.896   1.287   5.639 -3.2183 -2.5377 -1.9079
  158MOL0     H21795   0.988   1.251   5.493  1.1887 -1.0895  3.9442
  158MOL0     H21796   0.851   1.529   5.542 -1.0330 -1.3322  1.5681
  158MOL0     H21797   0.914   1.458   5.389  2.3376  0.3876  0.1122
  158MOL0     H21798   0.712   1.301   5.397 -2.3351  0.8021 -0.5703
  158MOL0     H21799   0.670   1.462   5.387 -0.3344 -0.7693 -1.4228
  158MOL0     H21800   0.494   1.308   5.753 -2.4820 -0.7250 -1.6163
  158MOL0     H21801   1.242   1.668   5.395  0.6954  1.1725  0.6555
  158MOL0     H21802   1.562   1.794   5.358 -0.1345 -0.0417  1.7501
  158MOL0     H21803   1.396   1.779   5.311 -2.1029  1.2905  0.9299
  158MOL0     H21804   1.419   1.887   5.440 -2.7322 -0.4127 -0.2112
  159MOL0     O21805   2.084  10.193   9.406 -0.6382 -0.0464 -0.3731
  159MOL0     C21806   2.118  10.080   9.375 -0.0871  0.8665  0.8363
  159MOL0     O21807   2.096   9.962   9.440  0.0823  0.6270 -0.7022
  159MOL0     C21808   1.990   9.963   9.525 -0.1699 -0.0688 -0.7624
  159MOL0     C21809   2.022   9.986   9.661  0.1228  0.6779 -0.4854
  159MOL0     C21810   1.906   9.987   9.752 -0.1937 -1.0291 -0.7417
  159MOL0     C21811   1.775   9.959   9.709  0.3432  1.0935  0.3431
  159MOL0     O21812   1.681   9.949   9.804 -0.0476  0.1110 -0.1460
  159MOL0     C21813   1.556  10.020   9.789 -0.1174 -0.2842  0.0068
  159MOL0     C21814   1.439   9.956   9.861 -1.2215  0.6011  1.1684
  159MOL0     C21815   1.470   9.907  10.005  0.1194 -0.1804 -0.2157
  159MOL0     C21816   1.487  10.042  10.089  0.2085 -0.1660 -0.5436
  159MOL0     C21817   1.470  10.010  10.236  0.1262  0.6259 -0.2010
  159MOL0     C21818   1.579   9.909  10.294 -0.3210 -0.1302  0.6087
  159MOL0     C21819   1.570   9.898  10.443  0.0029 -0.1575 -0.4447
  159MOL0     C21820   1.684   9.802  10.482  1.6611  0.5010  0.3330
  159MOL0     N21821   1.711   9.803  10.627 -0.0557  0.3423 -0.0596
  159MOL0     C21822   1.807   9.891  10.683 -1.0944  0.5674  0.1023
  159MOL0     C21823   1.836   9.833  10.804  0.0166  1.3459  0.1511
  159MOL0     C21824   1.941   9.873  10.907 -0.5458 -0.6791 -0.0424
  159MOL0     C21825   1.889  10.012  10.956 -0.5414  0.0664  0.1354
  159MOL0     C21826   1.953  10.032  11.088  0.3682 -0.3236  0.4596
  159MOL0     C21827   1.933  10.172  11.130 -0.5384  0.1867 -0.0374
  159MOL0     O21828   1.800  10.201  11.168 -0.4267  0.4417  1.3016
  159MOL0     C21829   1.760  10.197  11.299 -0.3373 -0.5744  0.4535
  159MOL0     C21830   1.854  10.210  11.402  0.9919 -0.9561  0.6492
  159MOL0     C21831   1.812  10.205  11.537 -0.1529 -0.5768 -1.0938
  159MOL0     C21832   1.921  10.235  11.643  0.0512 -0.7637  0.1226
  159MOL0     C21833   1.677  10.171  11.568 -0.0198  0.7885  0.8286
  159MOL0     C21834   1.615  10.179  11.698  0.1011 -0.2253  0.0780
  159MOL0     O21835   1.669  10.262  11.795 -0.2491  0.3545  0.0526
  159MOL0     C21836   1.636  10.264  11.925  0.1580 -1.6130  0.6956
  159MOL0     C21837   1.540  10.191  11.991  0.1884 -0.5975 -0.2964
  159MOL0     C21838   1.524  10.202  12.130 -0.2050  0.2257  0.1769
  159MOL0     C21839   1.599  10.285  12.206  0.2756  0.1645  0.1502
  159MOL0     O21840   1.574  10.285  12.341  0.0862  0.7567  0.9205
  159MOL0     C21841   1.568  10.161  12.411  0.7189  0.6080  0.6002
  159MOL0     C21842   1.565  10.179  12.564  0.7962 -0.5114 -0.4277
  159MOL0     C21843   1.664  10.283  12.625 -0.6825 -0.3809 -0.2480
  159MOL0     C21844   1.618  10.355  12.758 -0.0222 -0.1080  0.1028
  159MOL0     C21845   1.735  10.444  12.803 -0.2654  0.0735 -0.2287
  159MOL0     C21846   1.711  10.511  12.930 -0.3861  0.0599 -0.3874
  159MOL0     C21847   1.739  10.409  13.041  0.0510 -0.0600  0.1193
  159MOL0     C21848   1.681  10.451  13.181  0.1427  0.4326  0.4891
  159MOL0    Cl21849   1.720  10.624  13.235  0.0711  0.5760 -0.3103
  159MOL0     C21850   1.700  10.358  12.143 -0.0386 -0.1021 -0.6380
  159MOL0     C21851   1.722  10.345  12.002 -0.9642 -0.6090  0.5953
  159MOL0     O21852   1.511  10.118  11.711  0.9036 -0.6623 -0.7957
  159MOL0     C21853   1.591  10.151  11.453 -0.0540 -0.9250 -0.5517
  159MOL0     C21854   1.627  10.176  11.326  0.4142 -0.3053 -0.1706
  159MOL0     N21855   1.760   9.728  10.826 -0.3274  0.3765 -1.6736
  159MOL0     N21856   1.695   9.705  10.721  0.6335  0.5895  0.2753
  159MOL0     C21857   1.749   9.934   9.573  0.2329  0.0680  0.4279
  159MOL0     C21858   1.862   9.930   9.486  0.2997 -0.6505 -0.6489
  159MOL0     C21859   2.215  10.078   9.265  0.2059 -0.5161  0.4549
  159MOL0     C21860   2.296  10.194   9.251  0.7901  0.5338 -0.5457
  159MOL0     C21861   2.399  10.191   9.159 -0.7088  0.4803 -0.8125
  159MOL0     C21862   2.412  10.082   9.073 -0.6333  0.7591  0.7003
  159MOL0     O21863   2.517  10.090   8.987 -1.1834  0.2242  0.0231
  159MOL0     C21864   2.539   9.994   8.880  1.3168 -0.3881 -0.1278
  159MOL0     C21865   2.680  10.024   8.824  0.4238 -0.0598  0.1416
  159MOL0     C21866   2.713   9.919   8.705 -0.5712 -0.4804  0.0418
  159MOL0     C21867   2.859   9.906   8.660  0.1306 -0.8175  1.0522
  159MOL0     C21868   2.896  10.040   8.622 -0.1896  0.8890 -0.5544
  159MOL0     C21869   2.936  10.152   8.595  0.2190  0.4952  0.0683
  159MOL0     C21870   2.321   9.979   9.074 -0.0100 -0.6208  0.1288
  159MOL0     C21871   2.228   9.965   9.176 -0.6679  0.6194 -0.2545
  159MOL0     C21872   2.134   9.846   9.187  0.8730  0.9321  0.3834
  159MOL0     H21873   2.123   9.992   9.698  0.1682  0.7716 -0.6261
  159MOL0     H21874   1.937  10.004   9.855 -1.5140  0.6000 -0.5696
  159MOL0     H21875   1.528  10.045   9.686  2.4897 -1.5122 -1.1133
  159MOL0     H21876   1.563  10.119   9.835 -0.1798  0.9101 -2.3873
  159MOL0     H21877   1.345  10.008   9.840  0.0569  1.8441 -2.1502
  159MOL0     H21878   1.410   9.866   9.806 -0.2316  0.9457  0.0365
  159MOL0     H21879   1.381   9.847  10.027  2.0631 -3.5809 -0.8663
  159MOL0     H21880   1.559   9.845  10.018  0.5507  0.8333  1.9634
  159MOL0     H21881   1.581  10.092  10.067 -0.1215 -0.0790 -1.8365
  159MOL0     H21882   1.413  10.118  10.063  0.6018  1.0346  1.5920
  159MOL0     H21883   1.368   9.972  10.240 -0.7420  2.8625  2.4115
  159MOL0     H21884   1.470  10.107  10.287 -1.1939  0.3039  0.4258
  159MOL0     H21885   1.585   9.820  10.231  3.3845  0.4130 -0.0261
  159MOL0     H21886   1.675   9.960  10.287 -0.8578  0.7077 -1.1477
  159MOL0     H21887   1.474   9.859  10.478  1.0019 -2.2982  0.0775
  159MOL0     H21888   1.582   9.993  10.495 -2.8065 -0.2744  0.5737
  159MOL0     H21889   1.651   9.701  10.454 -1.3034  0.6478  2.8244
  159MOL0     H21890   1.786   9.818  10.447  2.0614  0.2665  1.3742
  159MOL0     H21891   1.851   9.980  10.640 -1.4052  0.4198 -0.5377
  159MOL0     H21892   2.039   9.873  10.859  0.0389 -0.4452  1.1085
  159MOL0     H21893   1.937   9.813  10.998 -0.2533 -0.1184  0.3458
  159MOL0     H21894   1.904  10.087  10.877 -0.9058  2.5937  2.3128
  159MOL0     H21895   1.781  10.005  10.966 -0.3649 -2.5461  0.8159
  159MOL0     H21896   1.917   9.951  11.152 -2.1397 -1.3844 -2.0615
  159MOL0     H21897   2.062  10.021  11.085  0.2836 -1.6114  1.0506
  159MOL0     H21898   1.996  10.195  11.216 -0.8584  0.2841  0.1724
  159MOL0     H21899   1.965  10.241  11.051  0.7974  1.1930  1.3167
  159MOL0     H21900   1.959  10.238  11.398  1.2522 -1.0470  3.8611
  159MOL0     H21901   1.959  10.337  11.628  1.2307 -1.1607  0.2591
  159MOL0     H21902   2.007  10.173  11.615 -1.4273 -1.6076 -3.0636
  159MOL0     H21903   1.893  10.215  11.746  0.2086  0.2210  0.3644
  159MOL0     H21904   1.475  10.123  11.936 -1.6113  2.5247 -2.3727
  159MOL0     H21905   1.441  10.144  12.169 -1.3474 -0.6998 -3.3411
  159MOL0     H21906   1.483  10.102  12.377  1.6735  0.6563 -2.0782
  159MOL0     H21907   1.657  10.108  12.374  2.6614  3.1822  1.2508
  159MOL0     H21908   1.461  10.206  12.588  1.1709 -0.8993  1.7820
  159MOL0     H21909   1.567  10.082  12.615  1.0011 -1.0141 -1.3617
  159MOL0     H21910   1.692  10.364  12.557  1.4031  0.0170  1.0048
  159MOL0     H21911   1.750  10.218  12.648 -1.1942 -1.2153 -0.6504
  159MOL0     H21912   1.593  10.282  12.835 -0.0997 -1.5161 -1.2189
  159MOL0     H21913   1.530  10.418  12.741  0.5057  0.3629 -0.9522
  159MOL0     H21914   1.826  10.384  12.807  0.2425  0.7905 -0.8464
  159MOL0     H21915   1.746  10.515  12.720  3.1330 -0.3242 -0.2217
  159MOL0     H21916   1.608  10.549  12.930  0.2281  1.8755  0.0701
  159MOL0     H21917   1.779  10.597  12.938 -0.5234  0.0885  0.7399
  159MOL0     H21918   1.847  10.397  13.054  0.2188  1.6657  0.6084
  159MOL0     H21919   1.703  10.307  13.021 -1.3010  0.4572 -0.2199
  159MOL0     H21920   1.720  10.387  13.261 -1.5325 -0.2429  0.8085
  159MOL0     H21921   1.572  10.443  13.178  0.2429 -2.2041  1.0118
  159MOL0     H21922   1.769  10.417  12.202 -1.0209  2.2609 -1.7447
  159MOL0     H21923   1.808  10.392  11.955  1.8018 -3.8509  2.0319
  159MOL0     H21924   1.484  10.136  11.466 -0.9105  3.1482 -1.7214
  159MOL0     H21925   1.556  10.167  11.245 -0.2212 -2.0659  0.5361
  159MOL0     H21926   1.654   9.895   9.539  0.6580 -1.5198  0.9748
  159MOL0     H21927   1.842   9.894   9.385  2.3149  0.2246 -1.3977
  159MOL0     H21928   2.284  10.278   9.318 -1.9617 -1.6666  1.9985
  159MOL0     H21929   2.477  10.262   9.135 -0.1087  0.3093  0.4977
  159MOL0     H21930   2.540   9.892   8.920 -0.2458  0.3661  2.0443
  159MOL0     H21931   2.466  10.012   8.800  1.7713  0.8021 -0.3013
  159MOL0     H21932   2.747  10.006   8.909 -2.4008 -1.5578  2.2259
  159MOL0     H21933   2.678  10.127   8.788 -0.5660  0.8180  2.5424
  159MOL0     H21934   2.678   9.819   8.734 -0.8685 -0.4944 -0.3614
  159MOL0     H21935   2.671   9.950   8.609  2.0886 -3.0999 -2.1942
  159MOL0     H21936   2.865   9.833   8.579  1.5061  1.2484 -0.8276
  159MOL0     H21937   2.923   9.862   8.737 -0.4611 -1.3519  1.2528
  159MOL0     H21938   2.965  10.249   8.559 -1.2587 -0.0359 -2.8789
  159MOL0     H21939   2.319   9.915   8.986 -0.0473 -1.9818  1.0815
  159MOL0     H21940   2.155   9.779   9.271  0.1667  0.2476  0.0319
  159MOL0     H21941   2.030   9.880   9.189  0.6539  0.5518 -1.8452
  159MOL0     H21942   2.146   9.772   9.108 -0.6879 -1.6539  2.3989
  160MOL0     O21943   4.749   4.852   6.988 -0.2865 -0.5219  0.7124
  160MOL0     C21944   4.662   4.767   6.993  0.0645 -0.2332  0.6780
  160MOL0     O21945   4.640   4.663   6.901  0.6331  0.4236 -0.6770
  160MOL0     C21946   4.724   4.665   6.789  0.6936  1.1843  0.2919
  160MOL0     C21947   4.788   4.545   6.749  0.2424 -0.3033 -0.8621
  160MOL0     C21948   4.866   4.545   6.625 -0.4272  0.7645  0.0146
  160MOL0     C21949   4.876   4.652   6.537 -0.1368 -0.4006 -0.3262
  160MOL0     O21950   4.957   4.658   6.433 -0.6447 -0.2960 -0.2059
  160MOL0     C21951   4.992   4.775   6.377 -0.3813 -0.8185  0.0734
  160MOL0     C21952   5.115   4.760   6.289 -0.0622  0.9034  0.1685
  160MOL0     C21953   5.226   4.678   6.357 -0.0957  0.7769 -0.0347
  160MOL0     C21954   5.306   4.743   6.471  0.2377  0.4243  0.8123
  160MOL0     C21955   5.241   4.707   6.606 -0.2037 -0.6457 -0.8495
  160MOL0     C21956   5.325   4.736   6.734  0.4205 -0.1716  0.2306
  160MOL0     C21957   5.263   4.662   6.860 -0.2247  0.6771  0.8477
  160MOL0     C21958   5.115   4.684   6.871 -0.7494 -0.7095 -0.3100
  160MOL0     N21959   5.073   4.641   7.000  0.2613  0.5576  0.4910
  160MOL0     C21960   5.048   4.516   7.046 -0.8358 -0.3909  0.6087
  160MOL0     C21961   5.030   4.530   7.174 -0.5838  0.0882 -0.3121
  160MOL0     C21962   5.005   4.412   7.263  0.1106  0.3561 -0.7316
  160MOL0     C21963   5.138   4.340   7.309 -0.3713 -0.0259  0.3187
  160MOL0     C21964   5.250   4.422   7.359  0.6741  0.2045 -0.4349
  160MOL0     C21965   5.339   4.326   7.443 -0.9901  0.8438 -0.6600
  160MOL0     O21966   5.367   4.202   7.366 -0.3600 -0.4604  0.1482
  160MOL0     C21967   5.468   4.186   7.269  0.1518 -0.2226  0.2738
  160MOL0     C21968   5.462   4.071   7.187 -0.0146  0.2706 -0.0921
  160MOL0     C21969   5.558   4.044   7.089  0.4584 -0.8179 -0.2698
  160MOL0     C21970   5.533   3.920   6.993  0.7357 -0.6328  0.1097
  160MOL0     C21971   5.660   4.141   7.068  0.6694 -0.4733 -0.8143
  160MOL0     C21972   5.773   4.139   6.982  1.0374 -0.2038 -0.1310
  160MOL0     O21973   5.828   4.257   6.942 -1.0396  0.5094  0.1464
  160MOL0     C21974   5.965   4.253   6.891  1.1779 -0.0079 -0.1940
  160MOL0     C21975   5.985   4.292   6.757 -0.4421  0.9675  0.8760
  160MOL0     C21976   6.108   4.297   6.697 -0.9174  0.2524  0.4420
  160MOL0     C21977   6.224   4.272   6.773  0.2929  0.4917 -0.3566
  160MOL0     O21978   6.341   4.283   6.707  0.0107  0.6528 -0.6148
  160MOL0     C21979   6.458   4.211   6.764  0.4005 -0.2019  0.1749
  160MOL0     C21980   6.593   4.210   6.679  0.2524  0.6107 -0.5586
  160MOL0     C21981   6.656   4.348   6.671  0.7041 -0.2053 -0.0768
  160MOL0     C21982   6.787   4.361   6.591 -0.5405 -1.0159  0.6274
  160MOL0     C21983   6.910   4.304   6.669  0.6088 -0.4290  0.2995
  160MOL0     C21984   6.949   4.169   6.624 -0.5602  0.1066  0.1061
  160MOL0     C21985   7.078   4.127   6.708  1.0541  0.0261  1.3576
  160MOL0     C21986   7.097   3.972   6.712  0.4975  0.0535 -0.3816
  160MOL0    Cl21987   7.099   3.899   6.537  0.3652 -0.1437  0.2570
  160MOL0     C21988   6.207   4.238   6.911 -1.0429  1.0764  0.9249
  160MOL0     C21989   6.076   4.226   6.965  0.0138 -0.4788  0.8615
  160MOL0     O21990   5.814   4.030   6.946 -0.5695 -0.2723  0.7526
  160MOL0     C21991   5.666   4.256   7.157  0.7026 -0.8175  0.2935
  160MOL0     C21992   5.564   4.278   7.250 -0.0788  0.0101  0.0641
  160MOL0     N21993   5.067   4.654   7.207  0.4852 -0.1475  0.4562
  160MOL0     N21994   5.086   4.727   7.100  0.6070  0.0987 -0.6581
  160MOL0     C21995   4.797   4.762   6.576  0.1068  0.4994  0.4452
  160MOL0     C21996   4.734   4.776   6.697 -0.4800 -0.5419  0.7298
  160MOL0     C21997   4.565   4.783   7.101  0.7110 -0.2433 -0.8940
  160MOL0     C21998   4.427   4.773   7.062 -0.5805 -0.9343  0.0796
  160MOL0     C21999   4.326   4.778   7.146 -0.1634  1.0291 -0.6336
  160MOL0     C22000   4.357   4.800   7.281 -0.3148 -0.5398 -0.1182
  160MOL0     O22001   4.258   4.808   7.373  0.3627  0.3792  0.2920
  160MOL0     C22002   4.127   4.865   7.331 -0.6452  0.5382 -0.0667
  160MOL0     C22003   4.077   4.959   7.440 -0.3372 -0.6602  0.1926
  160MOL0     C22004   4.161   5.097   7.456 -0.7447 -0.2588 -0.1423
  160MOL0     C22005   4.100   5.180   7.560 -0.5533  0.7904 -0.0157
  160MOL0     C22006   3.991   5.268   7.516 -0.6516 -0.1638 -0.4667
  160MOL0     C22007   3.927   5.370   7.504  0.7812  0.3292  0.1141
  160MOL0     C22008   4.482   4.805   7.329 -0.7163 -0.5616  0.5225
  160MOL0     C22009   4.592   4.792   7.243 -0.0552 -0.0868  0.7028
  160MOL0     C22010   4.735   4.800   7.286  0.1796 -0.1143 -0.9538
  160MOL0     H22011   4.799   4.452   6.804 -1.1198  0.1980  0.3255
  160MOL0     H22012   4.923   4.456   6.603  1.6551  1.7236  1.2338
  160MOL0     H22013   5.012   4.851   6.453  1.8595  0.6392 -1.8606
  160MOL0     H22014   4.904   4.808   6.320 -0.1047 -1.1959 -0.5787
  160MOL0     H22015   5.088   4.711   6.195  3.6794  0.1567 -0.6852
  160MOL0     H22016   5.151   4.862   6.272  2.3459  0.3643  1.6130
  160MOL0     H22017   5.193   4.575   6.375  1.7890 -0.3132 -2.2617
  160MOL0     H22018   5.298   4.663   6.276 -1.0029 -1.8755 -0.4529
  160MOL0     H22019   5.409   4.708   6.455  0.1442  0.9962 -1.5457
  160MOL0     H22020   5.296   4.851   6.455 -3.2719  0.2892  1.4074
  160MOL0     H22021   5.216   4.601   6.595 -3.4463 -0.0829 -0.1177
  160MOL0     H22022   5.147   4.762   6.616 -0.1577 -0.7304  0.2060
  160MOL0     H22023   5.419   4.683   6.714  0.2955 -0.1766 -0.3545
  160MOL0     H22024   5.336   4.844   6.740  0.6777  0.2333 -4.0587
  160MOL0     H22025   5.321   4.701   6.944  0.0549  2.1455  0.0085
  160MOL0     H22026   5.279   4.554   6.854  3.1864  0.9775  2.1158
  160MOL0     H22027   5.088   4.790   6.870 -0.4803 -0.5410  2.4102
  160MOL0     H22028   5.057   4.634   6.792  0.0467 -1.7286 -0.2676
  160MOL0     H22029   5.033   4.430   6.982 -2.1433  2.0487 -2.6270
  160MOL0     H22030   4.950   4.339   7.203  2.0607  0.3564 -2.6180
  160MOL0     H22031   4.955   4.436   7.357  0.2650 -1.0566 -0.2713
  160MOL0     H22032   5.099   4.275   7.388 -1.5298  4.4456  3.8308
  160MOL0     H22033   5.158   4.276   7.223 -2.6352  0.0551 -0.3441
  160MOL0     H22034   5.303   4.473   7.278 -4.0054  2.7650 -2.3031
  160MOL0     H22035   5.210   4.490   7.434 -0.3267 -1.5932  0.7265
  160MOL0     H22036   5.427   4.376   7.484  0.9443  1.5951 -5.1387
  160MOL0     H22037   5.266   4.300   7.519 -2.2220  1.1506 -1.7096
  160MOL0     H22038   5.391   3.993   7.212  1.0082  0.2193  3.1627
  160MOL0     H22039   5.593   3.922   6.902  2.3345  1.9083  1.1088
  160MOL0     H22040   5.426   3.926   6.974  0.3888  3.2247  2.1613
  160MOL0     H22041   5.546   3.825   7.047 -1.7548 -0.7175  0.6691
  160MOL0     H22042   5.901   4.308   6.690 -0.3670 -1.3536  0.1105
  160MOL0     H22043   6.121   4.323   6.593 -0.3239  2.3974  1.0056
  160MOL0     H22044   6.488   4.254   6.860  0.6859 -0.0540  0.0188
  160MOL0     H22045   6.428   4.109   6.791  1.3036  0.0281  2.2264
  160MOL0     H22046   6.660   4.145   6.736 -1.9596  0.2080  1.7683
  160MOL0     H22047   6.571   4.187   6.574 -1.7120  0.4488 -0.1385
  160MOL0     H22048   6.678   4.381   6.773  1.5871  0.1340 -0.3682
  160MOL0     H22049   6.579   4.409   6.623 -0.5959 -1.2720  0.5897
  160MOL0     H22050   6.814   4.467   6.590  3.8399 -1.9007  1.7061
  160MOL0     H22051   6.771   4.316   6.492  2.3138 -0.8778  0.0018
  160MOL0     H22052   6.981   4.388   6.672  0.8680 -0.5522 -1.3625
  160MOL0     H22053   6.868   4.292   6.769 -1.6476 -1.3472 -0.7053
  160MOL0     H22054   6.979   4.162   6.519 -0.2011 -2.0031  0.3032
  160MOL0     H22055   6.877   4.091   6.652  0.7060 -1.0757  0.1897
  160MOL0     H22056   7.065   4.165   6.809 -0.5606  0.4521  1.0182
  160MOL0     H22057   7.164   4.184   6.673  0.4092 -0.0727 -0.5029
  160MOL0     H22058   7.018   3.928   6.774 -1.7899  1.5082 -2.0759
  160MOL0     H22059   7.198   3.953   6.748  0.2597 -2.4920 -0.8726
  160MOL0     H22060   6.287   4.223   6.983 -3.2425  0.1814  3.3343
  160MOL0     H22061   6.076   4.215   7.073 -1.5819 -0.9839  0.8436
  160MOL0     H22062   5.751   4.324   7.157 -0.4705  0.7483 -1.5025
  160MOL0     H22063   5.560   4.366   7.314  2.7381  0.3341 -0.0543
  160MOL0     H22064   4.795   4.854   6.519 -0.0773  1.8936  2.5736
  160MOL0     H22065   4.690   4.873   6.719 -0.2772  0.0561 -1.3119
  160MOL0     H22066   4.419   4.731   6.962  0.4943 -1.7122  0.2993
  160MOL0     H22067   4.229   4.764   7.100 -0.7996  1.1794  0.5953
  160MOL0     H22068   4.134   4.912   7.232  1.5482 -1.1321 -0.7858
  160MOL0     H22069   4.052   4.785   7.326  1.4329 -1.8466  2.9523
  160MOL0     H22070   4.084   4.886   7.521  0.5844 -1.4382 -0.5674
  160MOL0     H22071   3.981   5.002   7.408  0.9817  3.1974  0.8720
  160MOL0     H22072   4.261   5.061   7.484  1.5550  4.2955 -1.4658
  160MOL0     H22073   4.177   5.159   7.368 -0.4570 -1.1997 -0.7600
  160MOL0     H22074   4.176   5.244   7.604 -1.8722  0.6691  2.5965
  160MOL0     H22075   4.076   5.119   7.647  0.8912  3.2509  2.2708
  160MOL0     H22076   3.858   5.452   7.512  0.1650 -0.3439  2.3168
  160MOL0     H22077   4.500   4.837   7.431 -0.2102  2.9187 -0.5240
  160MOL0     H22078   4.782   4.897   7.266  4.9757 -2.4080 -2.5196
  160MOL0     H22079   4.739   4.768   7.391 -2.8051 -3.8097 -1.7696
  160MOL0     H22080   4.795   4.724   7.235  0.3985  0.3386 -1.3747
  161MOL0     O22081   7.484   6.203   2.649 -0.6857  0.2554  0.1606
  161MOL0     C22082   7.594   6.140   2.627  0.0121  0.1577 -0.2251
  161MOL0     O22083   7.600   6.013   2.592  1.0586 -0.1900  0.0270
  161MOL0     C22084   7.490   5.937   2.582  0.3665  0.9990 -1.4914
  161MOL0     C22085   7.505   5.827   2.494  0.5927  0.2557  0.6482
  161MOL0     C22086   7.417   5.717   2.494 -0.4836  0.2739 -0.1023
  161MOL0     C22087   7.313   5.707   2.583 -0.2151 -0.2587  0.2820
  161MOL0     O22088   7.215   5.620   2.549  0.0055  0.5490  0.2056
  161MOL0     C22089   7.071   5.648   2.576 -1.3072  0.2192  0.1409
  161MOL0     C22090   6.984   5.528   2.534 -0.1998  0.5564  0.0839
  161MOL0     C22091   7.004   5.503   2.383  0.1472 -0.6139 -0.2665
  161MOL0     C22092   6.907   5.393   2.341  0.1333 -0.5970 -0.6705
  161MOL0     C22093   6.943   5.261   2.418 -0.5026 -0.6211 -0.2652
  161MOL0     C22094   6.829   5.198   2.485 -0.0495 -0.4776  0.5848
  161MOL0     C22095   6.839   5.040   2.512 -0.0078  0.1562 -0.5856
  161MOL0     C22096   6.960   4.997   2.607  0.7658  0.2914 -0.1888
  161MOL0     N22097   6.937   4.861   2.666 -0.4993  0.1053  0.4823
  161MOL0     C22098   6.870   4.826   2.776  0.6094  0.6846 -0.8351
  161MOL0     C22099   6.891   4.690   2.796  0.1308  0.4676 -0.2098
  161MOL0     C22100   6.841   4.597   2.918 -1.1274 -0.3574  0.0069
  161MOL0     C22101   6.701   4.553   2.897  0.5444 -0.5614  0.7905
  161MOL0     C22102   6.681   4.473   2.764  0.0566  0.0629  0.5773
  161MOL0     C22103   6.539   4.413   2.788 -0.2388 -0.2676  0.7722
  161MOL0     O22104   6.442   4.481   2.703  1.2465  0.3204  0.6288
  161MOL0     C22105   6.314   4.420   2.697  0.1563 -0.8999  0.2932
  161MOL0     C22106   6.200   4.496   2.733 -0.8630 -0.2629  0.8330
  161MOL0     C22107   6.076   4.433   2.741 -0.7466  0.1838  0.1925
  161MOL0     C22108   5.963   4.525   2.792  0.6122  0.8003  0.5303
  161MOL0     C22109   6.059   4.294   2.714 -1.6692 -1.1197  0.1482
  161MOL0     C22110   5.930   4.227   2.725 -0.0171  1.0454 -0.4792
  161MOL0     O22111   5.811   4.279   2.680 -0.6183 -0.3594 -0.4690
  161MOL0     C22112   5.700   4.224   2.717  0.8614 -0.8082  0.7033
  161MOL0     C22113   5.636   4.124   2.646 -0.8378 -0.5059  0.1857
  161MOL0     C22114   5.518   4.063   2.688 -0.0089 -0.7368  0.2492
  161MOL0     C22115   5.449   4.110   2.801 -0.8698  0.4839 -0.1099
  161MOL0     O22116   5.328   4.061   2.849 -0.8746  0.2631  0.2140
  161MOL0     C22117   5.265   3.964   2.770 -0.2916  0.1617  0.4021
  161MOL0     C22118   5.149   3.915   2.860  0.3095 -0.6153  0.0199
  161MOL0     C22119   5.075   3.789   2.811 -0.1546 -0.1875 -0.4940
  161MOL0     C22120   4.967   3.831   2.708  0.2917  0.5561  0.4898
  161MOL0     C22121   4.921   3.706   2.630 -0.4765 -0.5665  0.2274
  161MOL0     C22122   4.847   3.753   2.508 -0.1992 -0.0638  0.2683
  161MOL0     C22123   4.763   3.631   2.451 -0.1636  0.7006 -1.0775
  161MOL0     C22124   4.849   3.515   2.396  0.3434  0.7369  0.6244
  161MOL0    Cl22125   4.980   3.562   2.274 -0.2414  0.3998 -0.6376
  161MOL0     C22126   5.506   4.222   2.870  0.8151 -0.8073 -0.3810
  161MOL0     C22127   5.630   4.275   2.826  0.4211 -0.2018  0.1860
  161MOL0     O22128   5.932   4.116   2.780  0.0490  1.0430  0.0567
  161MOL0     C22129   6.182   4.226   2.698 -0.3928  0.3083  0.3965
  161MOL0     C22130   6.297   4.292   2.679 -0.6432  0.0009  0.0587
  161MOL0     N22131   6.971   4.641   2.695 -0.4419  0.0386 -0.0701
  161MOL0     N22132   6.998   4.741   2.613  0.4707 -0.3380  0.5834
  161MOL0     C22133   7.291   5.819   2.663 -0.5831 -0.2470  0.6258
  161MOL0     C22134   7.378   5.931   2.672  1.3629  0.9977  0.5763
  161MOL0     C22135   7.721   6.203   2.656 -1.0503 -0.3391  0.8704
  161MOL0     C22136   7.845   6.127   2.646 -0.2377 -0.6091  0.7003
  161MOL0     C22137   7.969   6.179   2.676 -0.2901 -0.2893 -1.4443
  161MOL0     C22138   7.982   6.314   2.709  0.1631 -0.9016 -0.4840
  161MOL0     O22139   8.113   6.363   2.726  0.3264 -0.5820 -0.0905
  161MOL0     C22140   8.125   6.506   2.733  0.9244  0.4125 -0.1672
  161MOL0     C22141   8.271   6.547   2.701  0.3262 -0.0209 -0.8254
  161MOL0     C22142   8.386   6.456   2.774 -0.1454  0.0329  0.7515
  161MOL0     C22143   8.517   6.536   2.776  0.9296 -0.5047  0.6949
  161MOL0     C22144   8.614   6.445   2.836  0.1519 -0.8048  0.0509
  161MOL0     C22145   8.709   6.380   2.876 -0.1539  0.3146  0.1911
  161MOL0     C22146   7.863   6.394   2.714  0.4107  0.4295 -1.2465
  161MOL0     C22147   7.739   6.339   2.679  1.6972  0.4375 -0.3909
  161MOL0     C22148   7.627   6.437   2.675  0.2630  0.5250  0.9849
  161MOL0     H22149   7.584   5.849   2.423  1.9767 -2.1510  1.3165
  161MOL0     H22150   7.426   5.636   2.422  0.1149  0.3317 -0.1044
  161MOL0     H22151   7.039   5.730   2.510 -1.7096  0.8099  1.0404
  161MOL0     H22152   7.037   5.673   2.677 -3.5237  1.7053 -0.8811
  161MOL0     H22153   7.020   5.442   2.591  0.4661  0.5458 -0.3406
  161MOL0     H22154   6.880   5.556   2.554 -0.4458  0.7892 -1.3749
  161MOL0     H22155   6.970   5.577   2.311 -2.7791 -1.2060  0.3685
  161MOL0     H22156   7.108   5.475   2.363  1.1483  1.1027  2.0344
  161MOL0     H22157   6.807   5.430   2.365 -0.3196 -0.3682 -2.7144
  161MOL0     H22158   6.907   5.380   2.232 -2.5584 -2.6211 -0.5216
  161MOL0     H22159   7.016   5.278   2.497 -0.5824 -1.2564 -0.0538
  161MOL0     H22160   6.982   5.196   2.339 -1.2940 -0.1893 -1.0412
  161MOL0     H22161   6.820   5.253   2.579 -2.3269 -1.1345  0.8142
  161MOL0     H22162   6.731   5.200   2.438 -1.1032 -2.6498  2.4726
  161MOL0     H22163   6.849   4.974   2.425  3.7430 -4.6834  2.8806
  161MOL0     H22164   6.737   5.019   2.546 -1.6706  1.6870 -4.1222
  161MOL0     H22165   7.046   5.006   2.539  0.1412  3.0464 -0.7503
  161MOL0     H22166   6.964   5.071   2.687 -1.7324 -1.0330  1.2724
  161MOL0     H22167   6.827   4.902   2.841  2.9162  1.8101 -0.5075
  161MOL0     H22168   6.844   4.643   3.017  0.2043 -3.0896  1.3635
  161MOL0     H22169   6.899   4.505   2.906 -1.7655 -0.5855 -1.5580
  161MOL0     H22170   6.660   4.484   2.972 -0.5448 -2.9177 -1.7948
  161MOL0     H22171   6.641   4.643   2.883  4.2353  1.8230 -1.3995
  161MOL0     H22172   6.667   4.545   2.683 -1.5942 -0.7446  0.0994
  161MOL0     H22173   6.751   4.390   2.752 -0.1344 -0.0542  0.2596
  161MOL0     H22174   6.540   4.308   2.758 -2.5411 -0.6436  1.7910
  161MOL0     H22175   6.498   4.419   2.890 -0.8184 -1.4795  0.6344
  161MOL0     H22176   6.217   4.601   2.756 -0.2555  0.2701 -1.7980
  161MOL0     H22177   5.890   4.556   2.717 -0.3601 -1.1185  0.6113
  161MOL0     H22178   6.007   4.607   2.849 -1.1470  2.1317  0.0375
  161MOL0     H22179   5.904   4.461   2.858  0.1017  0.9517  0.2289
  161MOL0     H22180   5.682   4.090   2.553 -0.4784  2.7049 -0.9341
  161MOL0     H22181   5.484   3.979   2.627  1.1384 -2.4588  1.8696
  161MOL0     H22182   5.238   4.015   2.677  2.4072  0.2922 -0.3830
  161MOL0     H22183   5.323   3.878   2.734 -0.4891  0.7998 -1.5715
  161MOL0     H22184   5.190   3.881   2.956  2.1278 -2.7197 -1.4077
  161MOL0     H22185   5.069   3.990   2.862 -2.6399 -3.5105  0.8858
  161MOL0     H22186   5.023   3.738   2.891 -0.4157  2.2903  1.0221
  161MOL0     H22187   5.138   3.721   2.752 -0.4305 -1.3742  0.5385
  161MOL0     H22188   5.009   3.905   2.640  2.5324 -0.6550  0.4905
  161MOL0     H22189   4.882   3.877   2.761  0.3088  2.7446 -1.2419
  161MOL0     H22190   5.010   3.650   2.597  0.3135  0.6015  0.3217
  161MOL0     H22191   4.857   3.638   2.687  0.4894 -0.9361  0.9054
  161MOL0     H22192   4.919   3.792   2.435 -3.2890  1.9132 -2.0011
  161MOL0     H22193   4.775   3.833   2.528 -0.3514 -0.6030  2.0334
  161MOL0     H22194   4.709   3.666   2.363 -1.4502  1.2013 -0.1334
  161MOL0     H22195   4.688   3.597   2.523  2.6630  1.9485  2.8242
  161MOL0     H22196   4.791   3.429   2.361  4.3022 -2.4552  1.2236
  161MOL0     H22197   4.895   3.479   2.488 -1.3060 -0.9168  0.8585
  161MOL0     H22198   5.446   4.271   2.947 -0.5606 -0.6984 -1.4705
  161MOL0     H22199   5.678   4.360   2.873 -0.2951 -0.4355  1.3877
  161MOL0     H22200   6.172   4.118   2.697 -0.8569  0.2961  2.4367
  161MOL0     H22201   6.384   4.237   2.647  1.3440  2.8877  0.0930
  161MOL0     H22202   7.202   5.830   2.724  0.3017 -2.6961  2.5453
  161MOL0     H22203   7.352   6.019   2.730  0.5068 -1.7654  4.8741
  161MOL0     H22204   7.832   6.025   2.609 -0.1550 -0.4172  0.1387
  161MOL0     H22205   8.053   6.111   2.665 -0.2605 -0.4577 -0.2846
  161MOL0     H22206   8.057   6.546   2.658 -1.0721 -1.1629  0.6989
  161MOL0     H22207   8.087   6.543   2.829  1.6585 -0.2111  0.3873
  161MOL0     H22208   8.285   6.649   2.739  2.9702  0.7624 -3.4998
  161MOL0     H22209   8.285   6.545   2.592  0.8535  1.1530 -0.7974
  161MOL0     H22210   8.354   6.428   2.875  2.8150  0.6069  1.9502
  161MOL0     H22211   8.396   6.367   2.712 -0.5311 -0.4993  1.4327
  161MOL0     H22212   8.496   6.621   2.841 -0.1090  2.2512 -2.8815
  161MOL0     H22213   8.547   6.556   2.673  0.9285 -0.4127  0.7128
  161MOL0     H22214   8.787   6.313   2.905 -2.2970 -1.4124  2.2751
  161MOL0     H22215   7.859   6.500   2.738 -1.5179  0.5340 -1.8440
  161MOL0     H22216   7.561   6.412   2.759  0.2940 -1.5424  0.4467
  161MOL0     H22217   7.653   6.543   2.689 -1.3294  1.7652 -3.6790
  161MOL0     H22218   7.579   6.417   2.579  1.8213 -2.9726  0.7758
  162MOL0     O22219   1.191   0.036   5.137 -0.2055 -0.2082  0.2984
  162MOL0     C22220   1.210   0.041   5.257  0.0062 -0.2780 -0.5481
  162MOL0     O22221   1.336   0.047   5.317  1.2576 -0.7791  0.1393
  162MOL0     C22222   1.444   0.077   5.234  0.4783 -0.1185  0.3010
  162MOL0     C22223   1.544  -0.017   5.212  0.2343 -0.4336  0.7511
  162MOL0     C22224   1.654   0.017   5.140  0.4022 -0.5832 -0.0466
  162MOL0     C22225   1.663   0.146   5.081  0.0781  0.1876  0.5432
  162MOL0     O22226   1.766   0.171   4.995 -0.2620 -0.0831 -0.0294
  162MOL0     C22227   1.804   0.307   4.984  0.5394 -0.8889 -0.0210
  162MOL0     C22228   1.940   0.327   4.925  0.3768 -0.3310  0.7882
  162MOL0     C22229   2.003   0.461   4.978  0.8396 -0.4359 -0.4272
  162MOL0     C22230   1.946   0.589   4.905 -0.2881  0.1503 -0.1451
  162MOL0     C22231   2.047   0.700   4.943  0.8326  0.3715  0.2940
  162MOL0     C22232   2.001   0.849   4.897 -0.0723  1.0077 -0.6402
  162MOL0     C22233   2.034   0.861   4.739 -0.3439 -0.3110 -1.0270
  162MOL0     C22234   1.895   0.857   4.657 -0.2269  1.1193  0.0963
  162MOL0     N22235   1.922   0.884   4.515 -0.0019 -0.2652 -0.3545
  162MOL0     C22236   1.902   1.013   4.464 -0.3560 -0.6776 -0.5436
  162MOL0     C22237   1.934   0.985   4.340  0.3997  0.1197  0.1246
  162MOL0     C22238   1.909   1.083   4.231 -1.1650 -0.4069  0.2745
  162MOL0     C22239   2.029   1.072   4.131 -0.0237  0.8283 -0.6204
  162MOL0     C22240   2.028   1.167   4.012 -0.9360 -0.5606 -0.9400
  162MOL0     C22241   2.073   1.302   4.062 -0.9012 -0.0095 -0.3534
  162MOL0     O22242   2.037   1.409   3.969 -0.6648 -0.1856 -0.9066
  162MOL0     C22243   2.130   1.443   3.869 -0.3392 -0.0073  0.5046
  162MOL0     C22244   2.231   1.364   3.823 -0.1432 -0.7844  0.4333
  162MOL0     C22245   2.331   1.414   3.731 -0.1091  0.1236 -0.1507
  162MOL0     C22246   2.453   1.322   3.703 -0.5359 -0.4990 -0.2701
  162MOL0     C22247   2.308   1.532   3.669 -0.0147 -1.3110  0.1107
  162MOL0     C22248   2.382   1.581   3.549  0.3358 -0.8507  0.5198
  162MOL0     O22249   2.311   1.670   3.468  0.5995  0.8846  0.0005
  162MOL0     C22250   2.364   1.717   3.351 -0.8670  0.5702 -0.4131
  162MOL0     C22251   2.467   1.816   3.346  0.5087  0.1393  0.1556
  162MOL0     C22252   2.501   1.872   3.226  0.0501 -1.1426  0.2184
  162MOL0     C22253   2.451   1.829   3.106 -0.5324 -0.2233 -0.5295
  162MOL0     O22254   2.519   1.878   3.001  0.2538 -0.1617  0.4491
  162MOL0     C22255   2.505   1.807   2.880  0.0041  0.1703  0.4168
  162MOL0     C22256   2.593   1.871   2.782 -0.0853 -0.0627 -0.3605
  162MOL0     C22257   2.747   1.864   2.821  0.1708  0.1316  0.9276
  162MOL0     C22258   2.804   1.721   2.830  0.9148 -1.1554  0.5118
  162MOL0     C22259   2.956   1.721   2.827 -0.5964  0.4370 -0.6183
  162MOL0     C22260   3.034   1.748   2.949 -0.8276  0.7770 -0.6798
  162MOL0     C22261   3.174   1.798   2.914 -0.8830  0.0121  0.3651
  162MOL0     C22262   3.258   1.836   3.043  0.2598  0.0584  0.2791
  162MOL0    Cl22263   3.245   2.013   3.088 -0.0489 -0.1574  0.1162
  162MOL0     C22264   2.349   1.726   3.101 -0.7844  0.4599 -0.2591
  162MOL0     C22265   2.300   1.684   3.229 -0.0054  0.1762  0.7700
  162MOL0     O22266   2.499   1.552   3.525  0.5774 -0.1530 -0.1895
  162MOL0     C22267   2.211   1.616   3.717  0.0309 -0.8194 -0.2505
  162MOL0     C22268   2.122   1.576   3.813 -1.2697  1.2126 -0.7187
  162MOL0     N22269   1.986   0.861   4.324 -0.7788  0.3375  0.5015
  162MOL0     N22270   1.959   0.799   4.427 -0.2426 -0.0162  0.6964
  162MOL0     C22271   1.557   0.238   5.103  0.1766 -0.8584  0.0856
  162MOL0     C22272   1.445   0.200   5.169 -1.2360 -0.6468  0.8672
  162MOL0     C22273   1.092   0.047   5.340  0.4563  0.2857  0.2808
  162MOL0     C22274   1.114   0.097   5.472 -0.0732  0.9575 -0.3756
  162MOL0     C22275   0.994   0.112   5.549 -0.5893 -0.4806 -0.2129
  162MOL0     C22276   0.870   0.067   5.513 -0.6750 -0.2274 -0.1475
  162MOL0     O22277   0.758   0.071   5.594 -0.0933 -0.1278  0.4243
  162MOL0     C22278   0.764  -0.037   5.680  0.0624  0.0385 -0.5826
  162MOL0     C22279   0.650  -0.029   5.776  0.1933 -0.0298  0.4658
  162MOL0     C22280   0.688  -0.078   5.916  0.3199  1.2962 -0.2662
  162MOL0     C22281   0.587  -0.066   6.033  0.0056 -0.1458  0.4547
  162MOL0     C22282   0.603  -0.163   6.142  0.4614  0.3204  0.1696
  162MOL0     C22283   0.609  -0.260   6.220  0.2219 -0.2993  0.7282
  162MOL0     C22284   0.855   0.017   5.378 -1.0742 -0.7135 -0.4253
  162MOL0     C22285   0.961   0.004   5.293 -0.9313  0.2167  0.1532
  162MOL0     C22286   0.929  -0.062   5.156  0.7539 -0.4525 -0.5239
  162MOL0     H22287   1.539  -0.107   5.274  1.3380 -1.4296 -0.5394
  162MOL0     H22288   1.745  -0.041   5.128  1.2546  0.7212 -0.1484
  162MOL0     H22289   1.809   0.354   5.082 -0.2800  2.6869 -1.5162
  162MOL0     H22290   1.724   0.348   4.921 -0.8673 -1.2218  1.4797
  162MOL0     H22291   2.005   0.253   4.971  3.2060 -0.1798 -2.5593
  162MOL0     H22292   1.947   0.320   4.816  0.3406 -3.2211  0.8966
  162MOL0     H22293   1.991   0.474   5.086  0.3668 -0.0887 -0.5186
  162MOL0     H22294   2.109   0.449   4.955  0.9339  1.0529 -0.8673
  162MOL0     H22295   1.945   0.573   4.797  0.7325  0.4280 -0.2093
  162MOL0     H22296   1.844   0.607   4.939 -0.4261 -1.1680  0.1804
  162MOL0     H22297   2.156   0.699   4.939  0.8571  1.1453  0.7165
  162MOL0     H22298   2.044   0.694   5.052 -1.2837 -0.2156  0.2522
  162MOL0     H22299   1.894   0.868   4.911 -0.7518 -1.2774 -2.0826
  162MOL0     H22300   2.055   0.925   4.954  1.8669 -0.1578 -0.8259
  162MOL0     H22301   2.109   0.784   4.719 -0.3959 -0.5449 -0.3514
  162MOL0     H22302   2.086   0.952   4.710  0.2989 -0.4446 -0.3038
  162MOL0     H22303   1.851   0.758   4.665  1.0697  0.5006 -0.2320
  162MOL0     H22304   1.834   0.935   4.704 -0.2284  2.1372 -1.5126
  162MOL0     H22305   1.869   1.103   4.514  0.3009 -1.8956  2.2779
  162MOL0     H22306   1.901   1.184   4.271  0.5083 -0.6246  1.2588
  162MOL0     H22307   1.816   1.059   4.178  0.5101 -1.1848 -2.5009
  162MOL0     H22308   2.129   1.075   4.176  0.1741  1.8847 -1.0917
  162MOL0     H22309   2.021   0.969   4.095  0.2172  0.6391 -0.1476
  162MOL0     H22310   2.091   1.127   3.932 -2.1105 -0.8156 -1.7583
  162MOL0     H22311   1.932   1.175   3.961  0.0595  0.3284 -2.7651
  162MOL0     H22312   2.029   1.324   4.159  3.6516 -0.9726  2.2053
  162MOL0     H22313   2.181   1.302   4.075 -0.7402  2.2861 -1.1807
  162MOL0     H22314   2.256   1.263   3.853 -0.4251 -1.5243 -1.6350
  162MOL0     H22315   2.430   1.225   3.749  0.8000 -2.1901 -2.8949
  162MOL0     H22316   2.545   1.359   3.749 -1.3807 -1.4741  2.3863
  162MOL0     H22317   2.465   1.317   3.594  0.0413 -0.6709 -0.2026
  162MOL0     H22318   2.538   1.830   3.426 -0.0243  2.6459  0.2782
  162MOL0     H22319   2.577   1.949   3.222 -1.7067  0.6774 -3.7863
  162MOL0     H22320   2.535   1.703   2.897  1.5845  0.7726  1.5596
  162MOL0     H22321   2.400   1.811   2.849 -0.4104 -1.8219  1.4335
  162MOL0     H22322   2.576   1.813   2.691 -2.6362 -0.3195  0.2094
  162MOL0     H22323   2.560   1.973   2.760  0.4986  0.9590  2.9942
  162MOL0     H22324   2.769   1.929   2.906 -1.2283  3.0518 -0.7874
  162MOL0     H22325   2.795   1.926   2.745 -0.6961 -0.4338 -0.1221
  162MOL0     H22326   2.765   1.654   2.753  1.1901 -1.2160  0.4234
  162MOL0     H22327   2.763   1.679   2.922 -1.0717 -0.7900 -0.1397
  162MOL0     H22328   2.995   1.623   2.798  2.3270  1.6742 -1.2195
  162MOL0     H22329   2.996   1.776   2.741  4.0867 -0.3263  0.7798
  162MOL0     H22330   3.045   1.652   3.001  2.9654  0.9929 -0.7845
  162MOL0     H22331   2.985   1.826   3.007 -0.5899 -0.3067  1.0631
  162MOL0     H22332   3.175   1.884   2.847  0.8436 -0.6455 -0.5021
  162MOL0     H22333   3.223   1.713   2.865 -1.7367 -0.6935  0.7000
  162MOL0     H22334   3.358   1.800   3.018 -0.4601 -1.1738 -0.9549
  162MOL0     H22335   3.218   1.778   3.127 -1.0329 -0.2053 -0.4881
  162MOL0     H22336   2.307   1.694   3.006 -0.9647  2.0066 -0.7151
  162MOL0     H22337   2.214   1.618   3.230 -2.5942  3.3458  0.2074
  162MOL0     H22338   2.192   1.714   3.676  3.5058  0.5171  0.9044
  162MOL0     H22339   2.054   1.644   3.864 -1.7438 -1.2128  2.1843
  162MOL0     H22340   1.551   0.331   5.046 -0.9587 -0.2880  1.0966
  162MOL0     H22341   1.362   0.270   5.170  0.1408  1.1769 -0.9872
  162MOL0     H22342   1.209   0.133   5.510 -0.9023  2.7667  0.1099
  162MOL0     H22343   1.004   0.161   5.645 -3.1265 -0.8465  0.2802
  162MOL0     H22344   0.769  -0.133   5.629 -0.4319 -0.2702 -0.0609
  162MOL0     H22345   0.859  -0.022   5.731  2.3303  0.9419 -4.6291
  162MOL0     H22346   0.566  -0.081   5.729  0.3180  0.4128 -0.2607
  162MOL0     H22347   0.625   0.077   5.785 -2.8325 -0.4397 -1.5865
  162MOL0     H22348   0.697  -0.187   5.910  2.3683  1.4878 -2.0489
  162MOL0     H22349   0.789  -0.044   5.941  0.4369  0.7653  0.0050
  162MOL0     H22350   0.481  -0.058   6.004  0.4332  3.2340 -0.7004
  162MOL0     H22351   0.608   0.034   6.072 -0.9113 -0.1465  0.9950
  162MOL0     H22352   0.622  -0.346   6.283  2.3356  0.6036  1.6259
  162MOL0     H22353   0.762  -0.027   5.343 -0.1432 -3.0175 -0.2056
  162MOL0     H22354   0.972  -0.007   5.072  0.1983  0.2500 -0.3530
  162MOL0     H22355   0.971  -0.163   5.146  1.4143 -0.2063 -0.2851
  162MOL0     H22356   0.822  -0.063   5.135  0.1549  1.1987  2.0705
  163MOL0     O22357   5.930   0.398   7.137 -0.2366  0.1418  0.9048
  163MOL0     C22358   5.922   0.518   7.161 -0.4952  0.1682 -0.6586
  163MOL0     O22359   5.844   0.572   7.260  0.3145  0.1076  0.4434
  163MOL0     C22360   5.759   0.501   7.341 -0.0219  0.1652 -0.1226
  163MOL0     C22361   5.637   0.560   7.377  0.5040 -0.4231  0.3502
  163MOL0     C22362   5.552   0.505   7.478  1.1097 -0.7294  0.5677
  163MOL0     C22363   5.584   0.381   7.528 -0.2648  0.1318  0.5374
  163MOL0     O22364   5.502   0.328   7.610  0.7794 -0.0315 -0.2403
  163MOL0     C22365   5.487   0.394   7.738 -0.0146 -0.7411  0.6599
  163MOL0     C22366   5.444   0.293   7.853  0.4011  0.8329  0.8120
  163MOL0     C22367   5.524   0.165   7.859 -0.3583 -0.9039 -0.3591
  163MOL0     C22368   5.602   0.154   7.996  0.5107  0.7625  1.2046
  163MOL0     C22369   5.717   0.048   8.004 -0.1005  1.0954 -0.5332
  163MOL0     C22370   5.821   0.061   8.123 -0.0195  0.1617 -1.1577
  163MOL0     C22371   5.746   0.053   8.256  0.1298  1.0367  0.8438
  163MOL0     C22372   5.813   0.134   8.370  0.1674  0.1718  0.1442
  163MOL0     N22373   5.796   0.278   8.354 -0.1165 -0.8371  1.1080
  163MOL0     C22374   5.677   0.340   8.329  0.1876 -0.7635  0.1191
  163MOL0     C22375   5.698   0.469   8.323 -0.3100  0.7958  0.2648
  163MOL0     C22376   5.598   0.571   8.274  1.1822  0.5481 -1.0137
  163MOL0     C22377   5.667   0.696   8.212  0.0012  0.2715  0.6767
  163MOL0     C22378   5.575   0.818   8.179 -0.1920  0.1101  0.2093
  163MOL0     C22379   5.427   0.803   8.181 -0.6409  1.3293 -0.4975
  163MOL0     O22380   5.367   0.879   8.073  0.1818 -0.3495  0.4572
  163MOL0     C22381   5.232   0.886   8.067 -0.4276 -0.5911  0.5594
  163MOL0     C22382   5.183   0.884   7.937  0.0921  0.1700  0.0195
  163MOL0     C22383   5.048   0.901   7.904  0.0682 -0.3206 -0.0621
  163MOL0     C22384   5.009   0.911   7.750  0.4541  0.0222  0.3043
  163MOL0     C22385   4.957   0.898   8.014  0.5509 -0.2518 -0.4482
  163MOL0     C22386   4.806   0.887   7.993 -0.3848 -0.4656 -0.4295
  163MOL0     O22387   4.753   0.962   7.878 -0.6604  0.6356 -0.3525
  163MOL0     C22388   4.618   0.946   7.828 -0.2379  1.1601  0.5192
  163MOL0     C22389   4.536   0.833   7.850  0.5704  0.0898  1.1251
  163MOL0     C22390   4.404   0.837   7.800 -0.6721  0.7132 -0.5970
  163MOL0     C22391   4.357   0.940   7.719 -0.6968 -0.0037  0.1753
  163MOL0     O22392   4.233   0.921   7.670  0.7645  0.5523 -0.1774
  163MOL0     C22393   4.177   1.038   7.599  0.5442  0.6994 -0.9935
  163MOL0     C22394   4.130   1.135   7.706 -0.6666  1.0124  0.4442
  163MOL0     C22395   4.001   1.068   7.754  1.1258 -0.6533 -0.0306
  163MOL0     C22396   3.936   1.155   7.861  0.1950 -0.4496  0.4999
  163MOL0     C22397   3.825   1.074   7.928  0.7845 -0.6939  0.4989
  163MOL0     C22398   3.698   1.036   7.853 -0.2783  0.3097 -0.8203
  163MOL0     C22399   3.625   1.158   7.798 -0.6810  0.4777 -0.0674
  163MOL0     C22400   3.592   1.257   7.908 -0.1546 -0.2094  0.0776
  163MOL0    Cl22401   3.475   1.379   7.856  0.2214  0.4636  0.2763
  163MOL0     C22402   4.443   1.043   7.690 -0.5200 -0.3571 -0.6939
  163MOL0     C22403   4.577   1.046   7.735 -0.2740  0.2485  0.0653
  163MOL0     O22404   4.741   0.809   8.068 -0.1217  0.3664 -0.0506
  163MOL0     C22405   5.011   0.912   8.147 -1.8498 -0.2055 -0.3550
  163MOL0     C22406   5.144   0.913   8.170 -0.8678  0.4473 -0.7341
  163MOL0     N22407   5.831   0.487   8.360  0.5897 -0.4824  0.2266
  163MOL0     N22408   5.886   0.373   8.383  0.1473  0.5102 -0.0994
  163MOL0     C22409   5.695   0.309   7.475  0.7019  0.1911  0.7910
  163MOL0     C22410   5.781   0.363   7.387  0.0389 -1.1343 -0.1223
  163MOL0     C22411   6.013   0.610   7.074 -0.0187  0.2286  0.4669
  163MOL0     C22412   6.091   0.553   6.970 -0.0528 -0.9614 -0.8520
  163MOL0     C22413   6.179   0.630   6.886 -0.2621 -0.5010  0.7160
  163MOL0     C22414   6.190   0.762   6.916 -0.4760 -0.0562  0.8185
  163MOL0     O22415   6.268   0.846   6.841 -0.4383 -0.2801 -0.0906
  163MOL0     C22416   6.372   0.803   6.763 -0.0845  0.1452 -0.0116
  163MOL0     C22417   6.337   0.803   6.606 -0.0177 -1.0661 -0.2310
  163MOL0     C22418   6.323   0.957   6.570 -0.9570  0.8573  0.4422
  163MOL0     C22419   6.278   0.981   6.440 -0.3708 -0.9055  0.2999
  163MOL0     C22420   6.348   0.914   6.326 -0.2654  0.4206 -0.1158
  163MOL0     C22421   6.425   0.847   6.259 -0.4648  0.0352  0.1591
  163MOL0     C22422   6.111   0.827   7.014 -0.0013 -0.4873 -0.2796
  163MOL0     C22423   6.022   0.753   7.087 -0.9031  0.0200 -0.2344
  163MOL0     C22424   5.932   0.822   7.187  1.3714 -0.9516 -0.0815
  163MOL0     H22425   5.616   0.659   7.339  1.2067 -0.4276 -0.0643
  163MOL0     H22426   5.466   0.564   7.508  1.3110 -1.2288  2.2565
  163MOL0     H22427   5.416   0.477   7.727  1.3615  0.1338 -2.9894
  163MOL0     H22428   5.581   0.439   7.769 -0.9428  0.3193  2.0550
  163MOL0     H22429   5.448   0.343   7.950  1.2996 -1.0686  1.8295
  163MOL0     H22430   5.349   0.250   7.822  0.6078 -0.8259  2.2720
  163MOL0     H22431   5.457   0.079   7.856 -1.0649 -0.4352  1.0576
  163MOL0     H22432   5.595   0.142   7.779 -1.4958 -1.4418 -1.2398
  163MOL0     H22433   5.656   0.247   8.016  2.5076  0.2297 -1.1070
  163MOL0     H22434   5.527   0.120   8.068 -1.1694 -1.3666 -1.3526
  163MOL0     H22435   5.789   0.047   7.922 -0.5524 -1.1781 -0.9592
  163MOL0     H22436   5.686  -0.057   8.001 -0.6470  1.2654 -2.7980
  163MOL0     H22437   5.894  -0.020   8.128  1.1925  1.2068 -1.5963
  163MOL0     H22438   5.881   0.152   8.123 -1.1866  1.0422  1.3044
  163MOL0     H22439   5.738  -0.055   8.272  0.2170  0.2963 -2.9860
  163MOL0     H22440   5.648   0.100   8.243 -1.4833 -2.1786  0.2976
  163MOL0     H22441   5.755   0.107   8.459 -0.0526  0.9947  0.2589
  163MOL0     H22442   5.920   0.113   8.376 -0.0642 -2.7602 -2.8384
  163MOL0     H22443   5.583   0.289   8.308  0.3377 -0.5970 -1.0392
  163MOL0     H22444   5.538   0.610   8.357  0.4584 -1.3387 -0.5988
  163MOL0     H22445   5.532   0.516   8.206  0.4709  0.2263 -0.0946
  163MOL0     H22446   5.756   0.724   8.268  0.2604 -1.1327  1.0258
  163MOL0     H22447   5.712   0.663   8.118 -0.1403 -0.7615  0.9492
  163MOL0     H22448   5.600   0.906   8.239 -0.5451  0.5896 -0.3421
  163MOL0     H22449   5.607   0.835   8.076  3.7839 -1.7293  0.9145
  163MOL0     H22450   5.408   0.696   8.166  0.2008  0.8203  1.6670
  163MOL0     H22451   5.385   0.840   8.275 -1.2146  3.0082 -1.3865
  163MOL0     H22452   5.257   0.871   7.858  1.2338 -1.7165  1.2959
  163MOL0     H22453   5.094   0.874   7.690  1.4987  0.7602  1.2863
  163MOL0     H22454   4.978   1.014   7.733  0.5383  0.0688  0.4310
  163MOL0     H22455   4.933   0.843   7.711  1.9185  0.6054 -4.0818
  163MOL0     H22456   4.578   0.749   7.905  1.5851  1.3258  2.3111
  163MOL0     H22457   4.334   0.758   7.821 -1.0278  1.6292  2.0436
  163MOL0     H22458   4.248   1.076   7.525  2.1889 -1.3305 -0.5544
  163MOL0     H22459   4.096   1.006   7.533 -1.9606  2.8380  0.8119
  163MOL0     H22460   4.203   1.150   7.786  1.3073  4.1613 -1.7278
  163MOL0     H22461   4.106   1.234   7.667  1.5985  1.0327 -1.0855
  163MOL0     H22462   4.016   0.962   7.775  0.6673 -0.0857  3.8847
  163MOL0     H22463   3.939   1.068   7.664  0.2529 -1.1605  0.5612
  163MOL0     H22464   3.895   1.245   7.813 -1.0231 -0.8321  0.7760
  163MOL0     H22465   4.010   1.185   7.935  1.7964  0.4749 -1.3859
  163MOL0     H22466   3.875   0.980   7.955 -0.5784 -0.7755  2.9939
  163MOL0     H22467   3.797   1.133   8.015 -1.8856 -0.7729 -0.2163
  163MOL0     H22468   3.623   0.991   7.919 -0.8288  3.1097  0.6129
  163MOL0     H22469   3.705   0.980   7.760  0.5051 -1.4835  0.2732
  163MOL0     H22470   3.531   1.120   7.756 -0.8742  0.1669  0.6370
  163MOL0     H22471   3.682   1.218   7.726  0.8503  2.0436  2.2784
  163MOL0     H22472   3.686   1.310   7.929 -0.1258  0.5789 -1.8407
  163MOL0     H22473   3.557   1.206   7.998 -1.6904 -1.8213 -1.3615
  163MOL0     H22474   4.402   1.122   7.628 -1.0530  2.0750  2.4859
  163MOL0     H22475   4.645   1.127   7.712 -1.3983  1.2158  0.0797
  163MOL0     H22476   4.951   0.942   8.233  1.1679  3.8097  0.6422
  163MOL0     H22477   5.162   0.932   8.276 -3.0667  2.4773 -0.6428
  163MOL0     H22478   5.725   0.209   7.502  0.2738 -0.5948 -1.3998
  163MOL0     H22479   5.870   0.312   7.351  1.0065  0.0045  0.5584
  163MOL0     H22480   6.090   0.445   6.960  0.2432 -0.9504 -0.9896
  163MOL0     H22481   6.238   0.581   6.809 -1.0844  0.0114 -0.2670
  163MOL0     H22482   6.454   0.873   6.783 -1.4030  0.6473  4.9021
  163MOL0     H22483   6.419   0.709   6.793  0.7229  0.9964  1.4848
  163MOL0     H22484   6.240   0.763   6.577 -1.6492  2.9671 -0.9298
  163MOL0     H22485   6.408   0.745   6.546 -0.1695 -0.9830 -0.4931
  163MOL0     H22486   6.249   1.008   6.633 -0.2941  3.1540 -0.5471
  163MOL0     H22487   6.424   0.996   6.586  0.5401 -1.7244 -1.7810
  163MOL0     H22488   6.291   1.087   6.418  3.6939 -1.2920 -0.0342
  163MOL0     H22489   6.170   0.969   6.453 -0.6126  0.6011 -0.1835
  163MOL0     H22490   6.502   0.791   6.210 -0.2349  0.2247  0.2993
  163MOL0     H22491   6.116   0.935   7.026 -3.4000 -0.3665  1.2652
  163MOL0     H22492   5.938   0.783   7.289 -0.1832 -0.4812  0.2179
  163MOL0     H22493   5.949   0.930   7.189 -2.3503  0.0123 -4.3546
  163MOL0     H22494   5.831   0.808   7.147  1.1660 -0.6574  0.3226
  164MOL0     O22495   2.893   9.689   5.957 -0.3825 -0.6540 -0.3752
  164MOL0     C22496   2.779   9.697   5.912 -0.5060  0.5764 -0.1859
  164MOL0     O22497   2.752   9.769   5.798  0.5761 -0.6268 -0.5333
  164MOL0     C22498   2.853   9.837   5.734 -0.4961 -0.1694  0.2574
  164MOL0     C22499   2.971   9.900   5.790  0.6043 -0.3244 -0.0852
  164MOL0     C22500   3.063   9.975   5.717 -0.6267 -0.8677  0.0542
  164MOL0     C22501   3.037   9.999   5.580 -0.1872 -0.1653 -0.6852
  164MOL0     O22502   3.123  10.084   5.516  0.4728 -0.2795 -0.0236
  164MOL0     C22503   3.162  10.081   5.374 -0.1549  0.6235  0.0340
  164MOL0     C22504   3.080  10.162   5.275  0.4104 -0.0250 -0.4906
  164MOL0     C22505   3.032  10.289   5.342 -0.0198 -0.7142  0.6939
  164MOL0     C22506   2.922  10.359   5.252  0.6848 -0.1077 -0.5591
  164MOL0     C22507   2.894  10.490   5.322  0.1905  0.5686  0.5052
  164MOL0     C22508   2.766  10.555   5.262 -0.3672  0.2109 -0.2818
  164MOL0     C22509   2.761  10.694   5.311 -0.0852  0.2761  0.5181
  164MOL0     C22510   2.627  10.759   5.275 -0.2076 -0.9455  0.0948
  164MOL0     N22511   2.625  10.901   5.319  0.1239 -0.6556 -0.0058
  164MOL0     C22512   2.618  10.998   5.233 -0.2102 -0.0060  0.8541
  164MOL0     C22513   2.615  11.110   5.305  0.7171  0.5066 -0.0357
  164MOL0     C22514   2.618  11.249   5.242 -0.2145  0.3200 -0.4411
  164MOL0     C22515   2.515  11.349   5.286 -0.5860  0.1920  0.2380
  164MOL0     C22516   2.571  11.412   5.412  0.2872  0.5209 -0.3523
  164MOL0     C22517   2.487  11.532   5.462 -0.8565 -0.2654 -0.1254
  164MOL0     O22518   2.515  11.648   5.374 -0.3643 -0.6419  0.1528
  164MOL0     C22519   2.627  11.725   5.399 -0.0023 -0.3460  0.6191
  164MOL0     C22520   2.715  11.720   5.503  0.1695 -0.4818 -0.0302
  164MOL0     C22521   2.818  11.802   5.521 -0.6486  0.0958  0.6737
  164MOL0     C22522   2.890  11.792   5.659  0.1977 -0.8370 -0.6468
  164MOL0     C22523   2.856  11.890   5.421  0.1375 -0.4517  0.1971
  164MOL0     C22524   2.979  11.972   5.410 -0.2688  0.1485 -0.6130
  164MOL0     O22525   2.983  12.074   5.315 -0.2543  0.2375  0.2110
  164MOL0     C22526   3.093  12.136   5.276 -0.2153 -0.2552 -0.4925
  164MOL0     C22527   3.083  12.274   5.264 -0.3078  0.0175  0.8010
  164MOL0     C22528   3.189  12.340   5.198  0.2171 -1.0742  0.3106
  164MOL0     C22529   3.299  12.276   5.150  0.4589 -0.6670  0.2071
  164MOL0     O22530   3.396  12.363   5.102 -0.1877 -0.7446  0.2071
  164MOL0     C22531   3.528  12.337   5.149 -0.8522  0.4118 -0.5084
  164MOL0     C22532   3.601  12.462   5.109  0.4300 -0.1922  1.5013
  164MOL0     C22533   3.705  12.494   5.207 -1.1501 -0.2603 -0.0867
  164MOL0     C22534   3.796  12.617   5.178  0.4354  0.5740  0.1779
  164MOL0     C22535   3.881  12.645   5.299  0.0053  0.0580  0.5725
  164MOL0     C22536   3.965  12.769   5.283 -0.7299 -0.1175  1.2540
  164MOL0     C22537   4.047  12.806   5.411  0.2239 -0.2115 -0.3963
  164MOL0     C22538   4.160  12.702   5.453  0.8571  0.6729  0.9110
  164MOL0    Cl22539   4.108  12.607   5.601  0.4345  0.3622  0.1689
  164MOL0     C22540   3.305  12.137   5.156 -0.2030  0.4019  0.2766
  164MOL0     C22541   3.201  12.066   5.209  0.2815  0.1297  0.6875
  164MOL0     O22542   3.078  11.934   5.473  0.3757 -0.1345  0.4259
  164MOL0     C22543   2.774  11.901   5.305  0.6247  0.0006 -0.4781
  164MOL0     C22544   2.651  11.825   5.295 -0.9969 -0.1655  0.0384
  164MOL0     N22545   2.626  11.074   5.439  0.2764  0.4459 -1.3635
  164MOL0     N22546   2.625  10.947   5.445 -0.4173 -0.5275 -0.7624
  164MOL0     C22547   2.928   9.934   5.514  0.3872  0.8391  0.0671
  164MOL0     C22548   2.844   9.851   5.587 -0.1258  0.4649  0.1005
  164MOL0     C22549   2.672   9.626   5.983 -0.5005 -0.4771  0.4741
  164MOL0     C22550   2.666   9.608   6.122 -0.1991 -0.1484  0.0247
  164MOL0     C22551   2.561   9.540   6.189 -0.4075  0.7625 -0.2939
  164MOL0     C22552   2.454   9.491   6.113 -0.9338  0.1953 -0.1015
  164MOL0     O22553   2.348   9.439   6.169  0.3777 -0.2139 -0.6724
  164MOL0     C22554   2.335   9.455   6.308  0.1878 -0.6267 -1.0718
  164MOL0     C22555   2.200   9.423   6.362  0.3805  0.7173  0.7026
  164MOL0     C22556   2.214   9.338   6.491 -0.7475  0.1825  0.6765
  164MOL0     C22557   2.242   9.193   6.452  1.0205  0.4388 -0.3866
  164MOL0     C22558   2.217   9.116   6.568 -0.5049  0.6134 -0.8420
  164MOL0     C22559   2.179   9.054   6.667  0.6200  0.4105  0.7851
  164MOL0     C22560   2.454   9.507   5.976  1.3652  0.4289 -0.0884
  164MOL0     C22561   2.561   9.571   5.901  0.7194 -0.7700 -0.7451
  164MOL0     C22562   2.545   9.590   5.758  0.0732 -0.1501  0.3624
  164MOL0     H22563   2.962   9.928   5.895 -3.0667  1.0702 -0.6253
  164MOL0     H22564   3.145  10.018   5.775 -1.4222 -1.5842  1.8015
  164MOL0     H22565   3.170   9.974   5.349  2.7315  1.2596 -2.3023
  164MOL0     H22566   3.266  10.110   5.357 -0.1470  0.1147 -0.8976
  164MOL0     H22567   3.134  10.204   5.190  0.7530 -1.6189 -1.0954
  164MOL0     H22568   2.994  10.100   5.250 -0.4965  0.4466  1.2862
  164MOL0     H22569   2.983  10.264   5.437 -0.4895 -1.5757  0.2368
  164MOL0     H22570   3.106  10.365   5.368 -2.1631  2.2519 -1.1805
  164MOL0     H22571   2.959  10.365   5.149  1.7934 -0.8441 -0.2179
  164MOL0     H22572   2.839  10.289   5.236  1.0570 -0.0013 -3.6044
  164MOL0     H22573   2.981  10.552   5.304  0.5314 -0.4593 -1.6485
  164MOL0     H22574   2.884  10.478   5.431  1.1617 -0.4281  0.4943
  164MOL0     H22575   2.774  10.558   5.153  0.3668  2.4979 -0.2123
  164MOL0     H22576   2.677  10.499   5.294 -0.1747  0.5027  0.7869
  164MOL0     H22577   2.848  10.752   5.280  1.0309 -1.6753 -0.1021
  164MOL0     H22578   2.758  10.696   5.421 -3.6686 -1.3408  0.5873
  164MOL0     H22579   2.613  10.757   5.166  1.1406 -2.4573 -0.0818
  164MOL0     H22580   2.537  10.708   5.312 -0.8883 -0.7293 -1.1955
  164MOL0     H22581   2.605  10.980   5.127  2.0349 -2.7716  0.9015
  164MOL0     H22582   2.613  11.243   5.133  0.8096  1.2012 -0.5562
  164MOL0     H22583   2.716  11.294   5.261 -1.2077  1.7558  1.6983
  164MOL0     H22584   2.494  11.412   5.199 -0.0651 -2.6493 -2.1501
  164MOL0     H22585   2.425  11.296   5.319 -0.2910 -1.6831 -1.7364
  164MOL0     H22586   2.574  11.333   5.488 -1.4704  0.0463 -0.7316
  164MOL0     H22587   2.672  11.450   5.393  0.1923  1.0273  0.1239
  164MOL0     H22588   2.380  11.508   5.463 -0.7689 -1.0266 -2.4902
  164MOL0     H22589   2.517  11.553   5.565 -0.4804 -2.5719  0.2701
  164MOL0     H22590   2.697  11.651   5.585  3.9399 -1.1436  0.4262
  164MOL0     H22591   2.900  11.891   5.706  1.8454  0.0998 -2.7857
  164MOL0     H22592   2.995  11.762   5.645  1.0355  2.2685 -1.9626
  164MOL0     H22593   2.844  11.725   5.732 -0.4109 -0.1430 -0.3789
  164MOL0     H22594   2.998  12.329   5.302  0.0453 -0.5074  2.4583
  164MOL0     H22595   3.187  12.448   5.197 -1.6571 -1.0601 -1.1736
  164MOL0     H22596   3.510  12.323   5.256  1.9240 -2.9330 -0.3283
  164MOL0     H22597   3.569  12.248   5.102 -0.4823  0.4775 -0.3160
  164MOL0     H22598   3.642  12.450   5.008 -1.7398  1.0423  0.4036
  164MOL0     H22599   3.539  12.551   5.111 -4.0698 -3.0175  2.1181
  164MOL0     H22600   3.764  12.402   5.215 -3.0947 -1.4479  1.4268
  164MOL0     H22601   3.648  12.514   5.298  0.7559  0.3411  1.0285
  164MOL0     H22602   3.736  12.698   5.134 -1.3831 -0.2875  0.9656
  164MOL0     H22603   3.855  12.589   5.090 -1.5903 -1.7134 -0.5588
  164MOL0     H22604   3.810  12.675   5.377 -0.9473  1.7774 -0.8766
  164MOL0     H22605   3.951  12.569   5.335 -0.8483 -0.7611  0.5192
  164MOL0     H22606   3.909  12.859   5.257  1.0300  0.3242 -1.3153
  164MOL0     H22607   4.031  12.755   5.198 -0.5810 -1.2301  1.5351
  164MOL0     H22608   3.990  12.823   5.503 -2.1757  0.7966 -1.9827
  164MOL0     H22609   4.092  12.902   5.384  2.8912 -1.2010  0.2424
  164MOL0     H22610   4.254  12.758   5.460  1.0852  0.4806 -0.4046
  164MOL0     H22611   4.164  12.629   5.372 -2.0574 -0.4408  1.6653
  164MOL0     H22612   3.390  12.082   5.115 -2.9242 -2.4180 -2.0887
  164MOL0     H22613   3.216  11.960   5.228  0.0467 -0.3520 -1.5565
  164MOL0     H22614   2.789  11.957   5.213  0.8466  0.3350 -0.2395
  164MOL0     H22615   2.590  11.844   5.207  0.1209  3.2319 -0.1634
  164MOL0     H22616   2.897   9.963   5.414 -1.3499  1.1411  0.6502
  164MOL0     H22617   2.768   9.801   5.529 -1.0262 -0.6496  2.1166
  164MOL0     H22618   2.743   9.644   6.189  0.7210 -2.0716  0.0470
  164MOL0     H22619   2.577   9.523   6.295 -3.3623  2.4820  0.5423
  164MOL0     H22620   2.409   9.397   6.365 -1.1619  0.7817  2.4300
  164MOL0     H22621   2.341   9.563   6.327 -2.4714 -0.5555 -0.2768
  164MOL0     H22622   2.143   9.368   6.287 -2.8707  1.5297  2.3986
  164MOL0     H22623   2.147   9.517   6.382  2.8610  2.0767  1.3516
  164MOL0     H22624   2.296   9.372   6.555  1.0657  2.8238 -2.7397
  164MOL0     H22625   2.123   9.339   6.553 -0.9566  4.1022  0.5533
  164MOL0     H22626   2.347   9.176   6.427  0.4448  0.8478 -3.5444
  164MOL0     H22627   2.187   9.166   6.361 -0.1892 -0.1245  0.4886
  164MOL0     H22628   2.159   9.001   6.758 -3.0873  2.0379  1.0961
  164MOL0     H22629   2.367   9.472   5.922  1.5467 -0.7101  0.3304
  164MOL0     H22630   2.518   9.694   5.740 -0.7774  0.1912  3.2180
  164MOL0     H22631   2.641   9.561   5.713  0.2279  1.8792 -0.7267
  164MOL0     H22632   2.456   9.540   5.718 -1.5194  2.9985 -0.3090
  165MOL0     O22633   5.358   5.740   4.181 -0.3292  0.1354 -0.0103
  165MOL0     C22634   5.447   5.688   4.252  0.0062  0.5674  0.5532
  165MOL0     O22635   5.453   5.560   4.289 -0.1004 -0.7991  0.8763
  165MOL0     C22636   5.338   5.492   4.293 -0.1402  1.0010  0.6260
  165MOL0     C22637   5.351   5.364   4.232 -0.1323 -0.6573  0.7061
  165MOL0     C22638   5.238   5.285   4.213  0.4714 -0.0291 -0.6734
  165MOL0     C22639   5.111   5.332   4.242  0.9211 -0.2901  0.1332
  165MOL0     O22640   4.989   5.264   4.223 -0.4591 -0.5563 -0.1943
  165MOL0     C22641   4.990   5.126   4.189  0.6089 -0.5985 -0.3497
  165MOL0     C22642   4.860   5.053   4.174  0.3833  0.1742 -0.7901
  165MOL0     C22643   4.787   5.040   4.306  0.1428 -0.5258 -0.3884
  165MOL0     C22644   4.670   4.935   4.303 -0.3093 -0.6035  0.6030
  165MOL0     C22645   4.590   4.944   4.432  0.6456  0.4157 -0.1773
  165MOL0     C22646   4.483   4.832   4.420 -1.2882 -0.5664  0.9041
  165MOL0     C22647   4.362   4.832   4.513 -0.0242 -1.3670  0.7458
  165MOL0     C22648   4.388   4.784   4.646 -0.5955 -0.5625 -0.4512
  165MOL0     N22649   4.274   4.790   4.740 -0.2507  0.9614  0.3497
  165MOL0     C22650   4.145   4.768   4.708  0.1871  0.3218  0.4642
  165MOL0     C22651   4.074   4.821   4.816  0.5138  0.2218  0.3805
  165MOL0     C22652   3.929   4.851   4.812 -0.5794 -0.8529  0.0121
  165MOL0     C22653   3.881   4.923   4.942 -0.0308  0.1790  0.4779
  165MOL0     C22654   3.731   4.970   4.944 -0.0102  0.0800  1.0461
  165MOL0     C22655   3.702   5.098   4.871  0.4137  0.3631 -1.6189
  165MOL0     O22656   3.564   5.127   4.908 -0.2269  0.0623 -0.2028
  165MOL0     C22657   3.475   5.093   4.817  1.4163  0.2701  0.0347
  165MOL0     C22658   3.491   4.996   4.710  0.6457  0.4703 -0.0758
  165MOL0     C22659   3.386   4.974   4.618 -0.6065  0.1132 -0.3511
  165MOL0     C22660   3.420   4.876   4.504  0.0148  0.4093  0.4306
  165MOL0     C22661   3.258   5.026   4.646  0.9478  0.0398 -0.3468
  165MOL0     C22662   3.138   4.980   4.582 -0.0833  0.0219  1.1614
  165MOL0     O22663   3.010   4.996   4.647  0.4103 -0.9820 -0.1937
  165MOL0     C22664   2.896   4.954   4.584  0.1579 -0.1175 -0.1596
  165MOL0     C22665   2.794   4.902   4.663 -0.2085  0.1010 -0.1120
  165MOL0     C22666   2.677   4.861   4.602 -0.3725 -0.4671 -0.3224
  165MOL0     C22667   2.654   4.868   4.461  0.7015  0.3538  0.5394
  165MOL0     O22668   2.530   4.829   4.410  0.2433 -0.2510  0.0262
  165MOL0     C22669   2.474   4.708   4.466  0.6305  0.1227  0.9990
  165MOL0     C22670   2.354   4.661   4.374  0.4678 -0.6529 -0.2534
  165MOL0     C22671   2.292   4.527   4.416  0.2834  0.1699 -0.2276
  165MOL0     C22672   2.253   4.508   4.563  0.4457 -0.2807  0.2059
  165MOL0     C22673   2.205   4.356   4.594 -0.5892  0.7384  0.4109
  165MOL0     C22674   2.186   4.349   4.752  0.4831  1.4241  0.5436
  165MOL0     C22675   2.080   4.244   4.779 -0.3590 -0.2302  0.5964
  165MOL0     C22676   2.138   4.101   4.731  0.1499  0.6087  0.4556
  165MOL0    Cl22677   2.288   4.042   4.821  0.2636  0.3004 -0.0338
  165MOL0     C22678   2.751   4.940   4.386  0.4212 -0.7150  0.1541
  165MOL0     C22679   2.869   4.979   4.443 -0.3318  0.0546 -0.6571
  165MOL0     O22680   3.151   4.930   4.470 -0.1438 -0.0401 -0.7172
  165MOL0     C22681   3.235   5.103   4.757 -0.7232 -0.7243 -0.3265
  165MOL0     C22682   3.346   5.146   4.838  0.1930  0.3295  1.0722
  165MOL0     N22683   4.167   4.882   4.906 -0.4111 -0.0260  0.4701
  165MOL0     N22684   4.285   4.855   4.854 -0.4673  0.7160 -0.2608
  165MOL0     C22685   5.098   5.458   4.292 -0.7596 -0.7236 -0.5866
  165MOL0     C22686   5.213   5.540   4.318  0.5983 -0.5194 -0.0565
  165MOL0     C22687   5.568   5.777   4.287  0.6267  0.8459  0.1012
  165MOL0     C22688   5.636   5.742   4.410 -0.3400  0.5068  0.5433
  165MOL0     C22689   5.751   5.807   4.452  0.4302  0.7129 -0.1980
  165MOL0     C22690   5.794   5.918   4.384  0.2410  0.1615  1.2063
  165MOL0     O22691   5.888   6.012   4.424  0.8380 -0.2424 -0.3508
  165MOL0     C22692   5.903   6.037   4.559  0.0356  0.1324  0.0302
  165MOL0     C22693   5.997   6.155   4.584 -0.7222 -0.2866  0.1658
  165MOL0     C22694   5.951   6.279   4.512  0.9529 -0.0310  0.1095
  165MOL0     C22695   5.994   6.413   4.576  0.1976  0.8155 -0.9972
  165MOL0     C22696   6.144   6.414   4.576 -0.2704  0.4288 -0.3747
  165MOL0     C22697   6.261   6.442   4.564  0.3204 -0.8235 -0.6648
  165MOL0     C22698   5.723   5.958   4.266 -0.1653 -0.7517 -1.2216
  165MOL0     C22699   5.613   5.893   4.220 -0.1453 -0.8780 -0.5888
  165MOL0     C22700   5.539   5.962   4.104 -1.1933  0.0223 -0.3054
  165MOL0     H22701   5.449   5.316   4.229 -0.8996 -2.2912  0.2726
  165MOL0     H22702   5.265   5.186   4.178  1.8828  1.4680 -4.3181
  165MOL0     H22703   5.052   5.080   4.266 -0.0933  1.1540  1.3620
  165MOL0     H22704   5.047   5.106   4.098  1.1657 -0.3196 -0.0690
  165MOL0     H22705   4.792   5.096   4.100 -2.4384 -0.9006  0.9840
  165MOL0     H22706   4.898   4.956   4.142  2.3778  0.7602 -0.3155
  165MOL0     H22707   4.855   5.020   4.389 -0.1547 -2.6192 -0.6018
  165MOL0     H22708   4.738   5.132   4.339 -1.9884 -1.5151 -0.6374
  165MOL0     H22709   4.615   4.946   4.209  0.7868 -2.3982 -0.3080
  165MOL0     H22710   4.720   4.838   4.307 -1.5713 -1.2534  1.2726
  165MOL0     H22711   4.543   5.043   4.428 -0.4104 -0.0847 -0.6064
  165MOL0     H22712   4.656   4.929   4.517 -0.3679 -3.0944  0.1541
  165MOL0     H22713   4.447   4.836   4.317 -0.2088 -1.5846  0.4785
  165MOL0     H22714   4.528   4.733   4.422  2.7772  1.0882 -0.1131
  165MOL0     H22715   4.287   4.768   4.465  1.7948 -0.6304 -3.5763
  165MOL0     H22716   4.330   4.937   4.522  1.4843 -0.7565 -0.5291
  165MOL0     H22717   4.408   4.677   4.635  1.0695 -0.2080 -1.2457
  165MOL0     H22718   4.475   4.838   4.684 -2.3237  2.3335 -0.2778
  165MOL0     H22719   4.110   4.716   4.619  1.9250 -1.8207  0.9432
  165MOL0     H22720   3.873   4.758   4.793  2.3498 -2.5519 -0.9571
  165MOL0     H22721   3.907   4.909   4.722 -2.3226 -2.7758 -0.8976
  165MOL0     H22722   3.872   4.849   5.022 -0.1021 -1.9151 -1.3653
  165MOL0     H22723   3.949   5.003   4.971  0.7807 -1.0889  2.2161
  165MOL0     H22724   3.670   4.887   4.906  1.0890 -0.5223  0.5622
  165MOL0     H22725   3.712   4.976   5.052  0.4443 -0.1434  1.1422
  165MOL0     H22726   3.755   5.186   4.907 -1.4115  0.9649 -0.2816
  165MOL0     H22727   3.722   5.094   4.763  2.1925  3.2284 -1.4945
  165MOL0     H22728   3.577   4.936   4.684  0.3679 -0.6514  1.5147
  165MOL0     H22729   3.410   4.933   4.411  0.9031 -0.3470 -0.1404
  165MOL0     H22730   3.348   4.794   4.508  1.0194 -0.4902  0.5969
  165MOL0     H22731   3.518   4.829   4.494  0.7197  1.9532 -0.3729
  165MOL0     H22732   2.797   4.888   4.771 -2.5158 -0.1866 -0.0396
  165MOL0     H22733   2.596   4.816   4.658 -1.1160  1.9925  0.6834
  165MOL0     H22734   2.548   4.627   4.460  1.6975  1.0631  1.1561
  165MOL0     H22735   2.430   4.704   4.566  0.2961  1.1218  0.9016
  165MOL0     H22736   2.274   4.735   4.387 -0.1718 -1.6135  1.6660
  165MOL0     H22737   2.372   4.662   4.266 -2.2428 -1.2038 -0.7938
  165MOL0     H22738   2.365   4.451   4.388  0.5178  0.3957 -0.2380
  165MOL0     H22739   2.210   4.518   4.344 -0.6449 -0.8201  0.9153
  165MOL0     H22740   2.181   4.583   4.598  4.2200  2.8148  2.0730
  165MOL0     H22741   2.347   4.518   4.618 -0.9057  1.1685  2.4034
  165MOL0     H22742   2.114   4.326   4.542  0.1470  0.1809 -0.6182
  165MOL0     H22743   2.282   4.284   4.563 -1.9664  0.0962 -1.7793
  165MOL0     H22744   2.154   4.451   4.779 -3.8295  0.3774  0.2033
  165MOL0     H22745   2.278   4.319   4.803 -0.8185 -3.3002  0.5465
  165MOL0     H22746   1.992   4.270   4.719  2.3774  3.7764 -2.2333
  165MOL0     H22747   2.061   4.239   4.886 -2.7874  1.5450  0.3385
  165MOL0     H22748   2.166   4.110   4.625  0.8060  0.1971  0.5897
  165MOL0     H22749   2.066   4.017   4.729  1.0290 -0.1707  0.8207
  165MOL0     H22750   2.731   4.945   4.280  0.1430 -0.1788  0.2311
  165MOL0     H22751   2.938   5.033   4.378 -1.6003  0.9465 -1.3318
  165MOL0     H22752   3.145   5.141   4.804  1.0429  2.4907  0.7569
  165MOL0     H22753   3.333   5.208   4.926 -0.4232  1.4156  0.2434
  165MOL0     H22754   4.998   5.493   4.315 -0.1119 -1.5292  4.3573
  165MOL0     H22755   5.199   5.644   4.346  0.4033 -0.5857  0.0993
  165MOL0     H22756   5.592   5.667   4.476 -1.4510  0.4186 -0.2542
  165MOL0     H22757   5.796   5.782   4.547  1.7606 -0.0651 -1.0063
  165MOL0     H22758   5.802   6.061   4.593  0.1449 -1.4731  1.6343
  165MOL0     H22759   5.936   5.952   4.620 -0.4112  1.3133  2.0072
  165MOL0     H22760   6.101   6.136   4.556  0.5187  3.7900  1.2140
  165MOL0     H22761   5.995   6.173   4.692  1.4029  1.8504 -0.0612
  165MOL0     H22762   5.991   6.278   4.410 -1.0129  1.1289 -0.7286
  165MOL0     H22763   5.842   6.267   4.505  0.9704 -0.6947  0.8629
  165MOL0     H22764   5.962   6.437   4.679 -2.0840  0.9537 -1.6702
  165MOL0     H22765   5.956   6.492   4.510 -0.6263  3.6120  2.4390
  165MOL0     H22766   6.365   6.465   4.574  0.3603 -0.5457 -1.6010
  165MOL0     H22767   5.750   6.052   4.217 -0.1415 -0.4962 -0.7263
  165MOL0     H22768   5.533   5.887   4.025  1.8406  2.0676 -2.6996
  165MOL0     H22769   5.439   5.991   4.139 -0.7095 -0.1920  1.3400
  165MOL0     H22770   5.592   6.048   4.062  1.9606  0.2116  3.4394
  166MOL0     O22771   2.696   4.435   4.322 -0.5640  0.0298  0.2347
  166MOL0     C22772   2.652   4.399   4.212  0.7437 -0.3731 -0.5202
  166MOL0     O22773   2.594   4.275   4.191 -0.2828  0.2095  0.2976
  166MOL0     C22774   2.647   4.182   4.278 -0.6001  0.5522 -0.2206
  166MOL0     C22775   2.757   4.095   4.258 -0.5606 -0.2779  0.1225
  166MOL0     C22776   2.817   4.010   4.358  0.1160  0.6724  0.0976
  166MOL0     C22777   2.771   4.024   4.486 -0.0059 -0.1676 -0.5490
  166MOL0     O22778   2.829   3.937   4.574 -0.2843  0.6490  0.4227
  166MOL0     C22779   2.780   3.910   4.701 -0.5771  0.1813 -0.3100
  166MOL0     C22780   2.772   3.759   4.731 -0.0247  0.6350 -0.3667
  166MOL0     C22781   2.917   3.698   4.744  0.6673  0.4759 -0.2199
  166MOL0     C22782   2.916   3.545   4.773  0.1862 -0.6106 -0.1685
  166MOL0     C22783   2.844   3.452   4.670  0.3899  0.8536 -0.1415
  166MOL0     C22784   2.881   3.305   4.696  0.0783  0.2141 -0.1550
  166MOL0     C22785   2.814   3.210   4.581 -0.2237  0.4344  0.6514
  166MOL0     C22786   2.651   3.203   4.580 -0.4547  0.1452  0.6323
  166MOL0     N22787   2.608   3.160   4.714  0.4189  0.4128  0.2109
  166MOL0     C22788   2.640   3.051   4.790 -0.2140  1.1007  0.3857
  166MOL0     C22789   2.574   3.058   4.910  0.9269  0.4395 -0.2604
  166MOL0     C22790   2.558   2.952   5.012 -0.6178 -0.4490  0.2969
  166MOL0     C22791   2.545   3.009   5.150 -0.1799  0.4551 -0.2807
  166MOL0     C22792   2.518   2.909   5.265 -0.4163 -1.1236  0.2120
  166MOL0     C22793   2.630   2.810   5.265 -0.1205  0.0063 -0.1099
  166MOL0     O22794   2.645   2.751   5.396 -0.1534  0.3368  0.4489
  166MOL0     C22795   2.747   2.663   5.416 -0.1203  0.0609 -0.4701
  166MOL0     C22796   2.805   2.647   5.547 -0.3719  0.6112 -0.1213
  166MOL0     C22797   2.904   2.548   5.577  0.2489  0.3319 -0.1573
  166MOL0     C22798   2.944   2.563   5.722  0.8614  0.2714  0.9512
  166MOL0     C22799   2.945   2.457   5.478 -0.1825  0.2089 -0.0090
  166MOL0     C22800   3.051   2.355   5.490 -0.6055 -0.4638  0.0302
  166MOL0     O22801   3.173   2.378   5.558  0.5038  0.0713  1.7155
  166MOL0     C22802   3.237   2.493   5.546  0.2191 -0.6194  0.0704
  166MOL0     C22803   3.221   2.597   5.450  0.3963 -1.0147 -0.3685
  166MOL0     C22804   3.301   2.703   5.446 -0.2035  0.2433  0.4648
  166MOL0     C22805   3.411   2.708   5.535  0.6264  0.1270  0.7513
  166MOL0     O22806   3.488   2.816   5.521  0.0411 -0.1512  0.0144
  166MOL0     C22807   3.484   2.909   5.626  0.7279 -0.1724 -0.1671
  166MOL0     C22808   3.513   3.054   5.578  0.2816  0.8254 -0.0787
  166MOL0     C22809   3.387   3.122   5.526 -0.2533  0.5016  0.1759
  166MOL0     C22810   3.424   3.259   5.467 -0.3709 -0.1981 -0.5040
  166MOL0     C22811   3.307   3.346   5.412  0.7572  0.5006 -0.6616
  166MOL0     C22812   3.369   3.456   5.328 -0.9176 -0.5301  0.4699
  166MOL0     C22813   3.276   3.542   5.250  0.1744 -0.0534  0.3593
  166MOL0     C22814   3.208   3.471   5.133 -0.2446  0.4182 -0.8040
  166MOL0    Cl22815   3.301   3.331   5.059  0.1308  0.0547  0.5544
  166MOL0     C22816   3.439   2.602   5.619  0.8172  0.2136 -0.1955
  166MOL0     C22817   3.352   2.494   5.620  0.0044  0.2696  0.8988
  166MOL0     O22818   3.030   2.250   5.437  0.2228  0.2901  0.1099
  166MOL0     C22819   2.870   2.455   5.362  0.6645  0.1715  0.0237
  166MOL0     C22820   2.776   2.555   5.331 -1.0035 -0.5498  0.5936
  166MOL0     N22821   2.504   3.172   4.900 -0.5230  0.1047  0.1315
  166MOL0     N22822   2.520   3.234   4.793 -0.6166  0.1445  0.1074
  166MOL0     C22823   2.657   4.107   4.504  0.2117 -0.0529 -0.2765
  166MOL0     C22824   2.605   4.177   4.407  1.0263 -0.0822 -0.6655
  166MOL0     C22825   2.634   4.496   4.115 -0.2187 -0.6700 -0.0116
  166MOL0     C22826   2.658   4.628   4.153  0.0217 -1.0804 -0.9585
  166MOL0     C22827   2.624   4.732   4.063 -0.1378 -0.2417 -0.2044
  166MOL0     C22828   2.588   4.711   3.927 -0.2483 -1.6350 -1.0076
  166MOL0     O22829   2.564   4.826   3.861 -0.5687 -0.2964 -0.0447
  166MOL0     C22830   2.504   4.830   3.735  0.4102 -0.5197  0.2947
  166MOL0     C22831   2.611   4.855   3.627  0.2276  0.0066  0.9404
  166MOL0     C22832   2.549   4.887   3.492 -0.6127 -0.2983 -0.3432
  166MOL0     C22833   2.648   4.904   3.378 -0.3217  0.0009  0.0383
  166MOL0     C22834   2.759   4.996   3.408 -0.2395 -0.7451 -0.2276
  166MOL0     C22835   2.852   5.072   3.396  0.1009  0.4141  0.0605
  166MOL0     C22836   2.582   4.576   3.890  0.1932 -0.7731  0.9515
  166MOL0     C22837   2.603   4.469   3.981  0.3258  0.0553  0.8786
  166MOL0     C22838   2.579   4.331   3.928 -0.2389  0.3034 -0.6942
  166MOL0     H22839   2.800   4.091   4.158  1.8532 -0.5285  1.0963
  166MOL0     H22840   2.891   3.942   4.316 -0.5378  0.4117 -0.6469
  166MOL0     H22841   2.679   3.948   4.723 -1.9754 -1.1818 -3.6609
  166MOL0     H22842   2.845   3.954   4.777  0.2076  1.0940 -1.4865
  166MOL0     H22843   2.705   3.735   4.814 -0.5597 -0.6312 -1.1298
  166MOL0     H22844   2.723   3.721   4.641  1.3735  0.1438 -0.9513
  166MOL0     H22845   2.966   3.712   4.647  1.8234 -1.7028 -0.0002
  166MOL0     H22846   2.970   3.748   4.825  0.3145  1.5203 -0.6131
  166MOL0     H22847   3.018   3.508   4.767  0.0416 -1.0704  0.1933
  166MOL0     H22848   2.867   3.524   4.868 -1.3366  0.5438 -0.6446
  166MOL0     H22849   2.869   3.484   4.568  1.6584  1.1856  0.2522
  166MOL0     H22850   2.737   3.458   4.694  0.8999  0.6129  2.4559
  166MOL0     H22851   2.990   3.292   4.694 -0.0474 -0.8584 -1.2138
  166MOL0     H22852   2.840   3.279   4.794 -3.1013 -0.8572 -1.6584
  166MOL0     H22853   2.857   3.110   4.595 -0.2832 -0.3198 -3.4037
  166MOL0     H22854   2.855   3.244   4.486  1.1260 -1.0578  0.6528
  166MOL0     H22855   2.612   3.302   4.557  1.9790  1.1527  0.5152
  166MOL0     H22856   2.616   3.145   4.494 -2.6153  3.4529 -0.9240
  166MOL0     H22857   2.691   2.958   4.767  0.4019  0.8898  2.4266
  166MOL0     H22858   2.647   2.888   5.007 -1.3788 -1.4786 -1.5426
  166MOL0     H22859   2.464   2.899   4.988 -1.9034  0.8809  2.1625
  166MOL0     H22860   2.630   3.070   5.182 -1.7828  2.4037  0.4631
  166MOL0     H22861   2.458   3.074   5.143 -0.3158  1.2846  4.8929
  166MOL0     H22862   2.526   2.966   5.358  0.0453 -1.7455  0.5593
  166MOL0     H22863   2.422   2.858   5.253 -0.9042 -0.2548  0.3442
  166MOL0     H22864   2.617   2.728   5.193  1.6285 -0.9880  0.6314
  166MOL0     H22865   2.721   2.869   5.250 -0.6372  1.3185  1.5949
  166MOL0     H22866   2.765   2.714   5.622 -0.8667 -1.4702  1.5623
  166MOL0     H22867   3.047   2.527   5.722  0.8360 -0.6945 -4.3534
  166MOL0     H22868   2.874   2.506   5.783  1.5136 -0.5069  0.9891
  166MOL0     H22869   2.944   2.668   5.753 -1.9153  0.3404  0.9682
  166MOL0     H22870   3.139   2.593   5.379  0.6825  1.2804 -0.9070
  166MOL0     H22871   3.278   2.790   5.385 -1.5210 -1.4457 -1.5726
  166MOL0     H22872   3.388   2.900   5.677  0.6951  1.2810  0.0776
  166MOL0     H22873   3.562   2.882   5.698 -1.3751 -3.5948  1.0667
  166MOL0     H22874   3.563   3.094   5.666  0.5865 -0.5656  0.4061
  166MOL0     H22875   3.592   3.048   5.502 -1.1086  3.0492 -1.8165
  166MOL0     H22876   3.312   3.137   5.604  0.0682 -1.7308  0.9891
  166MOL0     H22877   3.335   3.061   5.452  0.0099 -1.3223  1.4408
  166MOL0     H22878   3.501   3.251   5.390  1.4514  1.1340  1.0749
  166MOL0     H22879   3.471   3.324   5.541 -0.3142 -1.1749  0.3295
  166MOL0     H22880   3.245   3.290   5.342  0.8311  0.6962 -0.8840
  166MOL0     H22881   3.240   3.389   5.487 -2.4078 -0.8260 -2.5429
  166MOL0     H22882   3.436   3.403   5.260  0.2805  0.6184  0.7087
  166MOL0     H22883   3.427   3.524   5.391 -2.0805  0.4026  0.5578
  166MOL0     H22884   3.350   3.616   5.216 -0.1639 -0.5719 -1.6114
  166MOL0     H22885   3.203   3.594   5.312  1.3488  1.3294  0.6439
  166MOL0     H22886   3.190   3.538   5.049  4.3190  1.6925 -1.0172
  166MOL0     H22887   3.117   3.422   5.169 -0.3630 -0.2205 -1.9144
  166MOL0     H22888   3.522   2.604   5.689  1.2950  1.1419 -0.7654
  166MOL0     H22889   3.383   2.417   5.691  0.0112  1.0237  1.7422
  166MOL0     H22890   2.880   2.375   5.290 -0.6349 -1.5405  1.6469
  166MOL0     H22891   2.734   2.553   5.231 -1.3738  0.2807  0.7260
  166MOL0     H22892   2.625   4.128   4.605  0.5827 -2.0315  0.2900
  166MOL0     H22893   2.522   4.240   4.438  1.6630 -0.0085  1.0181
  166MOL0     H22894   2.678   4.651   4.258  1.1089  2.1643 -1.7391
  166MOL0     H22895   2.619   4.835   4.095 -3.5567 -0.8419  1.7324
  166MOL0     H22896   2.438   4.744   3.719 -2.2919  1.5585 -0.6975
  166MOL0     H22897   2.425   4.906   3.742 -1.2649 -1.9393 -1.8703
  166MOL0     H22898   2.675   4.767   3.617  0.7622  0.1136  3.0198
  166MOL0     H22899   2.679   4.934   3.659 -0.3747  0.7209  0.4667
  166MOL0     H22900   2.477   4.807   3.473 -3.6713  2.2536 -0.3289
  166MOL0     H22901   2.501   4.985   3.501 -0.1959  0.0147 -1.4094
  166MOL0     H22902   2.593   4.939   3.289  1.1154 -1.4980 -1.5015
  166MOL0     H22903   2.678   4.804   3.347 -0.8333 -0.9532  2.4410
  166MOL0     H22904   2.927   5.148   3.398 -0.5221  1.0358  1.6417
  166MOL0     H22905   2.565   4.550   3.786  1.1631  0.9650  0.3253
  166MOL0     H22906   2.485   4.282   3.956 -0.1881 -1.5646 -3.4060
  166MOL0     H22907   2.579   4.335   3.819  0.2946  3.4876 -0.6740
  166MOL0     H22908   2.664   4.269   3.956 -0.7084  0.4098  1.1067
  167MOL0     O22909   1.839   6.988   6.319  0.0828 -0.2398  0.4411
  167MOL0     C22910   1.889   6.890   6.271 -0.5035 -1.0783 -0.2456
  167MOL0     O22911   1.883   6.766   6.319 -0.2055 -0.2972  0.1963
  167MOL0     C22912   1.835   6.768   6.447 -0.7876 -0.2916 -0.4265
  167MOL0     C22913   1.702   6.741   6.467  0.1988  0.1733 -1.1203
  167MOL0     C22914   1.659   6.695   6.588 -0.5109  0.5812 -1.0284
  167MOL0     C22915   1.735   6.682   6.697 -0.2015  0.3347 -0.5364
  167MOL0     O22916   1.695   6.620   6.816  0.4314 -1.0537 -0.5662
  167MOL0     C22917   1.619   6.695   6.912  0.3031  0.5229  0.5891
  167MOL0     C22918   1.569   6.623   7.038  0.1805 -0.0513 -0.3219
  167MOL0     C22919   1.690   6.579   7.115  0.1066 -0.6357 -1.6999
  167MOL0     C22920   1.783   6.688   7.175  0.2191 -0.6657  0.6532
  167MOL0     C22921   1.705   6.807   7.220  0.0075  0.0238 -0.5969
  167MOL0     C22922   1.797   6.930   7.247 -0.3877 -0.1670 -0.1641
  167MOL0     C22923   1.735   7.060   7.259 -0.1889 -0.9663 -0.7620
  167MOL0     C22924   1.839   7.160   7.303 -1.0345 -0.8143 -0.5088
  167MOL0     N22925   1.783   7.289   7.358  0.0163  0.2404  0.2611
  167MOL0     C22926   1.770   7.407   7.287 -0.4790 -0.3715 -0.2811
  167MOL0     C22927   1.693   7.487   7.366 -0.4039 -0.6698 -0.2177
  167MOL0     C22928   1.648   7.621   7.346  1.1319  0.1235  0.1698
  167MOL0     C22929   1.709   7.710   7.450  0.0465 -0.5436 -0.1569
  167MOL0     C22930   1.868   7.721   7.435 -0.1757 -0.3430  0.0767
  167MOL0     C22931   1.944   7.650   7.542  0.7748 -0.1640  0.0320
  167MOL0     O22932   1.921   7.729   7.669  0.0857  0.8468  0.1137
  167MOL0     C22933   2.019   7.806   7.729 -0.6066  0.0771 -0.1668
  167MOL0     C22934   2.085   7.902   7.657 -0.0342  0.6980  0.0172
  167MOL0     C22935   2.191   7.963   7.717  0.0190 -0.6445  0.4019
  167MOL0     C22936   2.264   8.067   7.630 -0.3275  0.1005  0.7488
  167MOL0     C22937   2.222   7.940   7.849 -1.0690  0.1232 -0.3731
  167MOL0     C22938   2.351   7.987   7.914 -1.2704  0.3543 -0.4651
  167MOL0     O22939   2.418   8.088   7.860 -0.3884 -0.4739 -0.2722
  167MOL0     C22940   2.545   8.126   7.907 -0.4574 -0.3546  1.2510
  167MOL0     C22941   2.568   8.170   8.037 -0.1161  0.7447  0.0599
  167MOL0     C22942   2.692   8.197   8.087  0.8146  1.2201  0.5121
  167MOL0     C22943   2.798   8.189   7.993  0.0535 -0.1158 -0.3222
  167MOL0     O22944   2.924   8.228   8.040 -0.0011 -0.2499 -0.1901
  167MOL0     C22945   2.926   8.372   8.048  0.9740 -0.9127  1.2231
  167MOL0     C22946   3.047   8.407   8.127  0.5483 -0.0678 -0.0870
  167MOL0     C22947   3.177   8.407   8.050  0.3167 -0.5942 -0.1369
  167MOL0     C22948   3.309   8.404   8.139 -0.3190 -0.1739  0.0674
  167MOL0     C22949   3.318   8.535   8.208 -0.2794  0.3588 -0.4053
  167MOL0     C22950   3.453   8.538   8.290 -0.1701  0.9592  0.4555
  167MOL0     C22951   3.481   8.675   8.350  0.1545 -0.6450  0.1374
  167MOL0     C22952   3.587   8.675   8.451 -0.6506 -0.2633 -0.6434
  167MOL0    Cl22953   3.584   8.845   8.515 -0.3564 -0.6703  0.3588
  167MOL0     C22954   2.780   8.144   7.867 -0.0829  0.2490 -0.2024
  167MOL0     C22955   2.656   8.114   7.818  0.1121 -0.1218  0.3644
  167MOL0     O22956   2.403   7.920   8.011 -1.1173  0.0160  0.2952
  167MOL0     C22957   2.152   7.845   7.928 -0.1297 -1.1362  0.0395
  167MOL0     C22958   2.047   7.783   7.865 -0.5350  1.0123 -0.0801
  167MOL0     N22959   1.705   7.432   7.495  0.6042 -0.4620 -0.2147
  167MOL0     N22960   1.748   7.308   7.486 -0.1720  0.0211 -0.5248
  167MOL0     C22961   1.870   6.721   6.684  0.3582 -0.5302 -0.2060
  167MOL0     C22962   1.919   6.764   6.557  0.6406  1.0018 -0.1813
  167MOL0     C22963   1.960   6.901   6.147 -0.0804  0.1522 -0.5276
  167MOL0     C22964   2.087   6.969   6.155  0.7110  0.4839 -0.8434
  167MOL0     C22965   2.172   6.972   6.042  1.4453  0.0250 -0.3002
  167MOL0     C22966   2.128   6.913   5.923  0.4722  0.6266  0.3456
  167MOL0     O22967   2.207   6.923   5.810  0.0651  0.3226 -0.1684
  167MOL0     C22968   2.233   7.050   5.756 -0.4794 -0.3064  0.6724
  167MOL0     C22969   2.212   7.045   5.600 -0.4196 -0.1481  0.6616
  167MOL0     C22970   2.200   7.188   5.551  0.9016  0.1956  0.7388
  167MOL0     C22971   2.266   7.195   5.414 -1.2476  0.1210 -0.1444
  167MOL0     C22972   2.226   7.320   5.348  0.5827 -0.6167  0.6547
  167MOL0     C22973   2.184   7.419   5.291  0.5775  0.2916 -0.3601
  167MOL0     C22974   2.003   6.857   5.908  0.6160 -0.3476 -0.2191
  167MOL0     C22975   1.921   6.846   6.023 -0.1365 -0.2596  0.2886
  167MOL0     C22976   1.780   6.781   5.999 -0.2593 -0.1140 -0.5355
  167MOL0     H22977   1.622   6.758   6.395 -0.1608  2.2407 -0.3074
  167MOL0     H22978   1.557   6.659   6.597 -0.0541 -0.8593 -1.3246
  167MOL0     H22979   1.532   6.740   6.864 -0.9529  0.4090  2.6635
  167MOL0     H22980   1.676   6.780   6.948  3.4955 -0.9028 -0.7386
  167MOL0     H22981   1.492   6.683   7.088 -0.6478 -1.2557 -0.1411
  167MOL0     H22982   1.520   6.528   7.017 -1.9840  1.1641 -1.0260
  167MOL0     H22983   1.642   6.506   7.182  1.3794  0.0327  0.0454
  167MOL0     H22984   1.754   6.511   7.057  0.4750 -2.5506  0.7349
  167MOL0     H22985   1.843   6.646   7.257  0.8119 -2.6334 -0.7193
  167MOL0     H22986   1.845   6.734   7.097 -1.7894 -0.2540 -0.7610
  167MOL0     H22987   1.645   6.785   7.308  1.9104  1.6028  1.1943
  167MOL0     H22988   1.635   6.843   7.144  3.2209  3.4627 -2.2612
  167MOL0     H22989   1.854   6.902   7.336 -1.3753 -1.3643  0.1320
  167MOL0     H22990   1.877   6.942   7.174  0.0474 -0.2641  0.2956
  167MOL0     H22991   1.663   7.058   7.342  1.6729 -0.1435  0.9739
  167MOL0     H22992   1.678   7.091   7.171 -0.0653  0.5907 -0.3407
  167MOL0     H22993   1.895   7.106   7.380  0.9389 -0.5167 -1.6697
  167MOL0     H22994   1.904   7.175   7.216  0.2960 -2.4399  0.1266
  167MOL0     H22995   1.804   7.411   7.184 -2.1819 -1.7264 -0.9361
  167MOL0     H22996   1.539   7.625   7.355  1.0071  0.6446 -1.3139
  167MOL0     H22997   1.670   7.660   7.246 -2.0994 -0.9538 -1.1033
  167MOL0     H22998   1.660   7.807   7.437 -1.3267 -1.0954  0.7046
  167MOL0     H22999   1.690   7.669   7.549 -0.8542  0.1823 -0.0207
  167MOL0     H23000   1.918   7.684   7.345  2.9282  1.7742  0.8186
  167MOL0     H23001   1.885   7.829   7.442 -0.8566 -0.2772  0.8431
  167MOL0     H23002   1.918   7.544   7.555 -2.6159  0.4890 -0.5199
  167MOL0     H23003   2.049   7.658   7.512  0.1283  1.8877 -2.0049
  167MOL0     H23004   2.044   7.932   7.562  0.6485  3.0712  0.4077
  167MOL0     H23005   2.228   8.063   7.527  0.4189 -0.5176  0.5043
  167MOL0     H23006   2.368   8.036   7.634 -0.9699 -2.1895  0.8976
  167MOL0     H23007   2.257   8.166   7.677 -0.4404 -0.0789  1.1147
  167MOL0     H23008   2.480   8.172   8.100  1.8270  0.1640  2.9853
  167MOL0     H23009   2.711   8.234   8.187 -1.9509  1.9866  0.8263
  167MOL0     H23010   2.924   8.413   7.947  0.4242  1.2528  2.0562
  167MOL0     H23011   2.838   8.414   8.097 -0.0475  0.7169 -1.7987
  167MOL0     H23012   3.019   8.499   8.178  2.8944 -1.4559  4.2412
  167MOL0     H23013   3.049   8.334   8.208  1.4053  0.0243 -0.0140
  167MOL0     H23014   3.186   8.493   7.982  2.6016 -2.1584 -2.0014
  167MOL0     H23015   3.174   8.317   7.988  3.8469 -1.5034  0.7866
  167MOL0     H23016   3.400   8.386   8.080  1.5570 -0.8890  2.9643
  167MOL0     H23017   3.305   8.332   8.222 -2.1244  1.4574  1.4648
  167MOL0     H23018   3.327   8.618   8.137  2.2093  0.2632 -0.2677
  167MOL0     H23019   3.232   8.563   8.271 -0.9100  0.5840 -1.3437
  167MOL0     H23020   3.532   8.505   8.222 -1.9319  3.3240 -2.9847
  167MOL0     H23021   3.446   8.452   8.358  3.6589 -0.7016 -0.9815
  167MOL0     H23022   3.394   8.729   8.387 -0.2005 -1.9347  1.2796
  167MOL0     H23023   3.524   8.733   8.268  2.5437 -1.6795  0.5494
  167MOL0     H23024   3.688   8.652   8.418 -0.5103  1.3805 -1.4402
  167MOL0     H23025   3.569   8.613   8.540 -3.2161  1.9770  0.5140
  167MOL0     H23026   2.868   8.136   7.803  1.9536  3.3391  1.8998
  167MOL0     H23027   2.634   8.079   7.717 -0.3907 -1.9082  1.0631
  167MOL0     H23028   2.183   7.813   8.027  1.1934 -0.3303 -0.0960
  167MOL0     H23029   1.993   7.706   7.919  2.7094 -0.6327  1.0619
  167MOL0     H23030   1.938   6.717   6.769  0.0394 -0.9255  0.0318
  167MOL0     H23031   2.021   6.799   6.547  1.1747 -0.4442 -0.0927
  167MOL0     H23032   2.125   7.014   6.247 -0.8113  0.5151 -0.2112
  167MOL0     H23033   2.264   7.030   6.044  1.4261  0.0372  0.7964
  167MOL0     H23034   2.160   7.114   5.806 -1.4753 -1.8975  1.3312
  167MOL0     H23035   2.341   7.068   5.763 -0.7064  2.6076 -1.6678
  167MOL0     H23036   2.125   6.986   5.568 -2.1938  2.6845 -0.1068
  167MOL0     H23037   2.305   7.006   5.557 -1.4959  2.5370 -5.1764
  167MOL0     H23038   2.094   7.213   5.542  1.0801  0.2041 -3.5268
  167MOL0     H23039   2.261   7.257   5.610 -1.0531 -0.2971  3.5109
  167MOL0     H23040   2.245   7.106   5.355 -1.7289 -1.2923  2.0502
  167MOL0     H23041   2.376   7.194   5.414 -1.0878 -1.4416  3.7628
  167MOL0     H23042   2.152   7.500   5.229  1.0485 -1.3583 -2.9444
  167MOL0     H23043   1.994   6.796   5.818  0.8037 -0.0177 -0.4606
  167MOL0     H23044   1.772   6.738   5.899 -1.1213 -3.8126  0.9461
  167MOL0     H23045   1.763   6.690   6.058 -1.0628 -0.6416 -1.5456
  167MOL0     H23046   1.704   6.856   6.023 -1.2997 -2.1085  3.3465
  168MOL0     O23047   9.872   5.226   6.814  0.7158 -0.7029 -0.6271
  168MOL0     C23048   9.810   5.233   6.711 -0.4669 -0.1472  0.8824
  168MOL0     O23049   9.683   5.284   6.699 -0.2328 -0.0860  0.7365
  168MOL0     C23050   9.628   5.360   6.806 -0.2166 -0.3288 -0.2544
  168MOL0     C23051   9.541   5.299   6.902  0.6828  0.2881  0.3237
  168MOL0     C23052   9.498   5.370   7.017 -0.3167 -0.7261  0.1921
  168MOL0     C23053   9.531   5.505   7.038  0.0367 -0.3166 -0.3430
  168MOL0     O23054   9.472   5.565   7.150  0.5695  0.1606 -0.2862
  168MOL0     C23055   9.555   5.604   7.257 -1.6483  0.7657 -0.9408
  168MOL0     C23056   9.558   5.757   7.297  0.5156  0.0028  0.4665
  168MOL0     C23057   9.414   5.818   7.299  0.7600 -1.0381  0.3343
  168MOL0     C23058   9.315   5.739   7.385 -0.5879  0.1114 -0.1262
  168MOL0     C23059   9.353   5.742   7.534 -0.3800  0.7037 -0.0652
  168MOL0     C23060   9.330   5.879   7.599  0.1906 -0.3627 -0.8190
  168MOL0     C23061   9.182   5.925   7.621 -0.9647 -0.2473  1.3739
  168MOL0     C23062   9.123   5.850   7.733 -0.1426 -0.0427 -0.6436
  168MOL0     N23063   9.172   5.848   7.872 -0.1745 -0.3041 -0.4262
  168MOL0     C23064   9.146   5.960   7.957  0.4475 -0.3523 -0.0335
  168MOL0     C23065   9.226   5.933   8.066  0.2062  0.5642  0.5615
  168MOL0     C23066   9.225   6.005   8.190  0.3067 -0.3310  0.1885
  168MOL0     C23067   9.356   6.081   8.218 -0.3586  0.4649 -0.3141
  168MOL0     C23068   9.354   6.130   8.372 -0.5347  0.4826  0.7131
  168MOL0     C23069   9.406   6.016   8.466 -0.1479  1.2896  1.0275
  168MOL0     O23070   9.424   6.070   8.598  0.0704 -0.5569  0.1997
  168MOL0     C23071   9.316   6.082   8.681  0.1991 -0.8559  0.4486
  168MOL0     C23072   9.197   6.014   8.672 -0.0945  0.2093  0.5693
  168MOL0     C23073   9.081   6.042   8.744 -0.7866 -0.4665 -0.0254
  168MOL0     C23074   8.950   5.976   8.700 -0.0901  0.7632 -0.2911
  168MOL0     C23075   9.087   6.137   8.849  0.0372  0.0119  0.7403
  168MOL0     C23076   8.964   6.174   8.934 -0.2080  0.4997  1.5180
  168MOL0     O23077   8.994   6.262   9.032  0.1527  0.0714  0.2194
  168MOL0     C23078   8.893   6.308   9.114  0.4116  0.2520 -0.7210
  168MOL0     C23079   8.902   6.321   9.250 -0.1606  0.2259 -0.7382
  168MOL0     C23080   8.801   6.378   9.321 -0.2160  0.1976  0.8966
  168MOL0     C23081   8.697   6.452   9.254 -0.7812  0.3900 -1.0076
  168MOL0     O23082   8.602   6.524   9.322  0.9904 -0.2721  0.2808
  168MOL0     C23083   8.553   6.488   9.444 -0.0298  0.1511 -0.0237
  168MOL0     C23084   8.406   6.500   9.462  0.2963 -0.4967  0.1495
  168MOL0     C23085   8.312   6.417   9.376 -0.6342 -0.4780 -0.0088
  168MOL0     C23086   8.197   6.364   9.453 -0.9002 -0.8498  0.2920
  168MOL0     C23087   8.125   6.260   9.369 -0.2631 -0.6430  0.3959
  168MOL0     C23088   8.013   6.212   9.449 -0.6500 -0.1703 -0.5329
  168MOL0     C23089   7.921   6.117   9.376  0.0427  1.0169  0.3166
  168MOL0     C23090   7.817   6.181   9.279  0.9708 -1.0266 -0.0136
  168MOL0    Cl23091   7.886   6.176   9.118 -0.0030  0.1078 -0.0071
  168MOL0     C23092   8.691   6.451   9.115 -0.0124 -0.2015 -0.0300
  168MOL0     C23093   8.787   6.384   9.038 -0.1116  0.3136 -0.0813
  168MOL0     O23094   8.854   6.127   8.915  0.3135 -0.6219  0.0871
  168MOL0     C23095   9.212   6.201   8.875  0.1960  0.3880  0.4340
  168MOL0     C23096   9.311   6.173   8.787 -0.6278 -1.4072  0.6600
  168MOL0     N23097   9.282   5.811   8.045  0.2619 -0.1830 -0.1439
  168MOL0     N23098   9.260   5.769   7.927  1.1042 -0.0515  0.2527
  168MOL0     C23099   9.610   5.570   6.942 -1.1201  0.0491  0.2242
  168MOL0     C23100   9.658   5.496   6.830  0.5117 -0.5128  0.6684
  168MOL0     C23101   9.857   5.182   6.586  0.5641  1.0227  0.4400
  168MOL0     C23102   9.783   5.195   6.467  0.1614 -0.1942 -0.0740
  168MOL0     C23103   9.839   5.167   6.347  0.8118  0.4008  0.3046
  168MOL0     C23104   9.955   5.093   6.329 -1.1751  0.0809  0.2850
  168MOL0     O23105   9.986   5.073   6.197 -1.1563  0.6161 -0.2441
  168MOL0     C23106  10.085   4.969   6.164  0.6272  0.0781  0.0154
  168MOL0     C23107  10.042   4.934   6.021  0.5936 -0.8028 -0.8162
  168MOL0     C23108  10.151   4.852   5.954 -0.8827 -0.8893 -0.3416
  168MOL0     C23109  10.160   4.707   6.015 -0.0147  0.3475  0.0381
  168MOL0     C23110  10.217   4.621   5.914 -0.4292 -0.8757 -0.3124
  168MOL0     C23111  10.252   4.550   5.831  1.2387  0.1185 -0.5046
  168MOL0     C23112  10.027   5.065   6.445 -0.6730 -0.5893  0.7561
  168MOL0     C23113   9.981   5.108   6.568  0.1998 -0.4904 -0.3754
  168MOL0     C23114  10.058   5.074   6.687  0.2330  0.3758  0.3003
  168MOL0     H23115   9.521   5.197   6.871 -4.4154  0.9267  0.7129
  168MOL0     H23116   9.423   5.320   7.078 -0.2562 -0.4083  0.5322
  168MOL0     H23117   9.656   5.568   7.236 -1.8936 -0.2280 -0.4949
  168MOL0     H23118   9.523   5.542   7.342  3.0383 -0.2930  0.3546
  168MOL0     H23119   9.612   5.765   7.391  1.2513  1.4900 -0.0437
  168MOL0     H23120   9.614   5.816   7.224  0.9713 -0.2019  0.6504
  168MOL0     H23121   9.417   5.924   7.324 -1.1906 -1.1229  1.0884
  168MOL0     H23122   9.377   5.813   7.196 -2.8323  0.4712  1.3742
  168MOL0     H23123   9.218   5.790   7.381  0.1427  1.5983  0.1490
  168MOL0     H23124   9.314   5.633   7.358  3.1729  0.4816 -2.4273
  168MOL0     H23125   9.456   5.708   7.551  0.4593  3.6705  1.5931
  168MOL0     H23126   9.289   5.671   7.587 -1.3137  1.2435 -0.4612
  168MOL0     H23127   9.389   5.877   7.691  0.3244 -0.7431 -0.9090
  168MOL0     H23128   9.382   5.957   7.542 -1.9519  3.1183  1.5841
  168MOL0     H23129   9.117   5.918   7.534 -0.6986 -3.7861  1.3085
  168MOL0     H23130   9.180   6.030   7.652 -4.7176  1.2594 -2.8882
  168MOL0     H23131   9.018   5.878   7.745 -0.5338 -2.2730  1.9509
  168MOL0     H23132   9.101   5.746   7.709  0.7126 -0.8454  1.8314
  168MOL0     H23133   9.077   6.041   7.934  1.7595  0.2837 -1.9847
  168MOL0     H23134   9.215   5.921   8.260 -0.0426 -0.3561  0.1083
  168MOL0     H23135   9.135   6.063   8.211  1.8994  2.0304  0.8466
  168MOL0     H23136   9.441   6.016   8.196 -0.8121 -1.8457  3.6506
  168MOL0     H23137   9.362   6.174   8.161  5.6234  2.0453  2.1276
  168MOL0     H23138   9.429   6.207   8.389  0.9324 -0.8023  0.3435
  168MOL0     H23139   9.250   6.156   8.392 -1.6443 -2.6779 -0.3640
  168MOL0     H23140   9.348   5.923   8.460  1.5326  0.2910 -2.3076
  168MOL0     H23141   9.498   5.973   8.426 -2.6354 -3.0978 -0.7731
  168MOL0     H23142   9.191   5.940   8.593  1.1506 -0.9252  1.4852
  168MOL0     H23143   8.921   5.896   8.769  1.7625  1.5167  1.4777
  168MOL0     H23144   8.968   5.934   8.601 -3.3193  1.4565 -1.2908
  168MOL0     H23145   8.875   6.055   8.686 -1.8305 -0.7544  0.0471
  168MOL0     H23146   8.983   6.269   9.301  0.9735  3.1850  0.7045
  168MOL0     H23147   8.821   6.378   9.427  0.5398 -3.0990  0.8410
  168MOL0     H23148   8.568   6.380   9.457 -0.8151 -0.2242 -1.8895
  168MOL0     H23149   8.602   6.550   9.520  0.6815  0.2166 -0.5246
  168MOL0     H23150   8.375   6.486   9.566  1.1906  1.8696  0.8026
  168MOL0     H23151   8.381   6.604   9.437  0.7218 -0.3964  0.1353
  168MOL0     H23152   8.378   6.349   9.322 -1.0204 -0.0278 -1.0767
  168MOL0     H23153   8.266   6.488   9.307 -1.3091 -0.8821  0.0221
  168MOL0     H23154   8.134   6.447   9.485 -3.2043 -2.3527 -0.1731
  168MOL0     H23155   8.238   6.324   9.546  1.0401 -0.2646 -0.2546
  168MOL0     H23156   8.094   6.315   9.280  2.1042  2.9636  1.5391
  168MOL0     H23157   8.191   6.178   9.338  0.9233  0.2071  0.6148
  168MOL0     H23158   7.960   6.295   9.496 -0.2303  0.6039 -1.4023
  168MOL0     H23159   8.065   6.163   9.532  1.8617  0.4058 -1.6537
  168MOL0     H23160   7.872   6.057   9.454  1.2923 -0.8642 -0.2873
  168MOL0     H23161   7.978   6.041   9.322  0.1765  1.8115 -0.6920
  168MOL0     H23162   7.793   6.282   9.313  0.6298 -0.5521 -1.5696
  168MOL0     H23163   7.716   6.140   9.280  0.1839  0.6164 -2.2852
  168MOL0     H23164   8.617   6.503   9.056  1.2050 -1.1696 -2.5819
  168MOL0     H23165   8.771   6.366   8.932  1.7685 -4.1656  0.1736
  168MOL0     H23166   9.238   6.270   8.954  1.7171  0.1071  0.1991
  168MOL0     H23167   9.388   6.250   8.781 -2.1103  0.3759  2.9606
  168MOL0     H23168   9.639   5.674   6.951 -2.2178  0.7229 -2.8100
  168MOL0     H23169   9.732   5.548   6.770 -1.0928  1.0698 -0.0375
  168MOL0     H23170   9.693   5.256   6.462  1.0388  1.2166  0.7483
  168MOL0     H23171   9.781   5.194   6.258  0.2559 -1.9612 -0.1150
  168MOL0     H23172  10.186   5.010   6.157 -0.2932  2.5079 -0.0824
  168MOL0     H23173  10.069   4.882   6.229 -0.4279 -1.0150 -1.6151
  168MOL0     H23174  10.037   5.024   5.959 -0.7784 -0.5158 -0.3200
  168MOL0     H23175   9.948   4.878   6.014 -1.1777  1.8122  0.5757
  168MOL0     H23176  10.121   4.849   5.849 -0.1837 -1.9768 -0.5286
  168MOL0     H23177  10.251   4.895   5.953 -0.2300 -2.3312 -1.6131
  168MOL0     H23178  10.059   4.685   6.048  0.3954 -0.8409  0.5347
  168MOL0     H23179  10.209   4.705   6.113 -1.6169 -2.6491  0.8686
  168MOL0     H23180  10.286   4.487   5.751  0.8875  0.9243 -1.3083
  168MOL0     H23181  10.121   5.012   6.453 -0.2489  0.2416  1.4089
  168MOL0     H23182   9.989   5.030   6.760  1.5479 -0.3821  1.1412
  168MOL0     H23183  10.141   5.002   6.681  1.6331  1.6947  2.2977
  168MOL0     H23184  10.092   5.168   6.731 -0.6611 -0.2540  2.4976
  169MOL0     O23185   3.782   1.143  11.083 -0.2462 -0.1461 -0.6885
  169MOL0     C23186   3.825   1.160  10.968  0.6969 -0.6492  1.0387
  169MOL0     O23187   3.855   1.293  10.915 -0.9080 -0.0565  0.4701
  169MOL0     C23188   3.791   1.399  10.964 -0.6766 -0.0365 -0.2501
  169MOL0     C23189   3.872   1.521  10.974 -0.9331 -0.4155  0.3995
  169MOL0     C23190   3.813   1.638  11.031  0.3638  0.4342  0.7647
  169MOL0     C23191   3.673   1.637  11.067 -1.5565  0.7311 -0.8076
  169MOL0     O23192   3.607   1.738  11.101  0.3319 -1.3208 -0.0163
  169MOL0     C23193   3.636   1.861  11.046 -0.1452  0.2319  0.1126
  169MOL0     C23194   3.534   1.961  11.102 -0.9848 -0.6208  0.4183
  169MOL0     C23195   3.406   1.954  11.012  0.4524  0.0389 -0.7751
  169MOL0     C23196   3.292   2.039  11.066 -1.5047 -0.0788  0.9201
  169MOL0     C23197   3.233   2.109  10.949 -0.7794 -1.5973 -0.9477
  169MOL0     C23198   3.316   2.191  10.843 -0.0772 -0.1028  0.5730
  169MOL0     C23199   3.219   2.277  10.756  0.1266  0.1776  0.0910
  169MOL0     C23200   3.140   2.186  10.673  0.4738 -0.3805 -0.7909
  169MOL0     N23201   3.064   2.254  10.569 -0.1535 -0.4653  0.1304
  169MOL0     C23202   3.041   2.215  10.447  1.3935 -0.6185  0.2653
  169MOL0     C23203   2.969   2.319  10.396  1.0719  0.2685  0.6853
  169MOL0     C23204   2.927   2.337  10.247 -1.3074  0.9188 -0.4728
  169MOL0     C23205   2.857   2.205  10.186  0.0967 -0.8736 -0.5184
  169MOL0     C23206   2.712   2.211  10.205 -0.1848  0.6928  0.7686
  169MOL0     C23207   2.666   2.071  10.246  0.0784 -0.1680  0.6622
  169MOL0     O23208   2.708   1.979  10.145 -0.6461 -0.0361  0.0377
  169MOL0     C23209   2.685   1.843  10.158  0.6429 -0.8330  0.7028
  169MOL0     C23210   2.613   1.777  10.254  0.8417 -0.5026  1.0395
  169MOL0     C23211   2.609   1.638  10.252  0.2251  0.0899  0.6269
  169MOL0     C23212   2.541   1.568  10.363 -0.4897 -0.0180 -0.5068
  169MOL0     C23213   2.672   1.566  10.151  0.2980  0.2081 -0.5168
  169MOL0     C23214   2.685   1.416  10.145 -0.3766  0.0810  0.8667
  169MOL0     O23215   2.729   1.369  10.019  0.0606  0.0606 -0.4444
  169MOL0     C23216   2.710   1.230   9.996  0.0576 -0.0220 -0.0903
  169MOL0     C23217   2.782   1.139  10.070 -0.0007  0.3437 -0.4084
  169MOL0     C23218   2.787   0.999  10.029 -0.1154  0.1629 -0.4892
  169MOL0     C23219   2.716   0.960   9.917 -0.1923 -0.9148 -0.7327
  169MOL0     O23220   2.705   0.827   9.872  0.5592  0.4252  0.2336
  169MOL0     C23221   2.792   0.728   9.943  1.5066 -0.4799  0.1149
  169MOL0     C23222   2.791   0.597   9.857  0.5047 -0.8232  0.4685
  169MOL0     C23223   2.858   0.593   9.719 -0.4731  0.1710  0.4188
  169MOL0     C23224   2.846   0.445   9.672  0.5118 -0.2599  1.0253
  169MOL0     C23225   2.706   0.393   9.654  0.6202 -0.0641 -0.8253
  169MOL0     C23226   2.641   0.310   9.775  0.5166  0.6841  0.7292
  169MOL0     C23227   2.522   0.227   9.739 -0.5019 -0.6574  1.1286
  169MOL0     C23228   2.537   0.076   9.765 -1.1391  0.2990 -0.6695
  169MOL0    Cl23229   2.384  -0.001   9.727 -0.2078 -1.0303 -0.3580
  169MOL0     C23230   2.645   1.052   9.837 -0.3525 -0.2402  0.3523
  169MOL0     C23231   2.649   1.190   9.870 -0.6389 -0.1665  0.1103
  169MOL0     O23232   2.663   1.352  10.242 -0.0565 -0.4848 -0.4250
  169MOL0     C23233   2.743   1.637  10.042  0.6002  0.5089  0.3263
  169MOL0     C23234   2.753   1.780  10.050 -0.1786  0.6551  0.6108
  169MOL0     N23235   2.959   2.422  10.489 -0.4465  0.3136 -0.2711
  169MOL0     N23236   3.002   2.368  10.592 -0.2964 -0.3540  0.5731
  169MOL0     C23237   3.596   1.523  11.052  0.8103 -0.2789  0.1534
  169MOL0     C23238   3.654   1.404  11.008 -0.2487  0.1952 -0.8972
  169MOL0     C23239   3.873   1.030  10.901  0.8085 -1.4755 -0.3768
  169MOL0     C23240   3.815   0.908  10.932  0.0660  0.1970 -0.4762
  169MOL0     C23241   3.843   0.799  10.860 -0.7774  1.1855  1.5766
  169MOL0     C23242   3.919   0.807  10.742 -0.8137 -0.5490 -1.2904
  169MOL0     O23243   3.912   0.713  10.644 -0.4533  0.6128  0.1094
  169MOL0     C23244   3.991   0.732  10.529  0.2903  0.0076 -0.2279
  169MOL0     C23245   3.939   0.622  10.428  0.4679 -0.4022 -0.4811
  169MOL0     C23246   4.029   0.649  10.303  0.3009  0.6121  0.4147
  169MOL0     C23247   4.149   0.559  10.297  0.6590  0.1476 -0.7130
  169MOL0     C23248   4.117   0.425  10.251  0.5251 -0.3012  0.9648
  169MOL0     C23249   4.075   0.321  10.200 -0.5772  0.0399 -0.0635
  169MOL0     C23250   3.991   0.916  10.726  0.1245 -0.0045 -0.2696
  169MOL0     C23251   3.978   1.026  10.803 -1.0137  0.0726 -0.4749
  169MOL0     C23252   4.080   1.137  10.793  0.2039  0.3400 -1.2907
  169MOL0     H23253   3.966   1.527  10.919 -2.5023  0.3945 -2.3554
  169MOL0     H23254   3.863   1.734  11.038 -0.8906  1.1340  0.5944
  169MOL0     H23255   3.630   1.872  10.937  1.2704  4.6175  0.2781
  169MOL0     H23256   3.732   1.907  11.073  0.6136  0.1391 -2.2065
  169MOL0     H23257   3.506   1.936  11.205 -1.4642 -1.3716  0.1167
  169MOL0     H23258   3.578   2.061  11.095  0.3667 -1.3021 -1.7534
  169MOL0     H23259   3.431   1.977  10.907  0.0205 -0.6285 -1.0309
  169MOL0     H23260   3.373   1.850  11.005 -0.1081  0.2908 -2.4495
  169MOL0     H23261   3.213   1.983  11.117 -0.9073 -3.7331 -1.7762
  169MOL0     H23262   3.350   2.111  11.125  1.0676  0.9584 -2.4960
  169MOL0     H23263   3.160   2.168  11.004  2.5041  1.1035  0.9400
  169MOL0     H23264   3.175   2.045  10.883 -0.1702  0.2550 -3.4461
  169MOL0     H23265   3.398   2.247  10.889  2.7008 -4.1507  0.9978
  169MOL0     H23266   3.369   2.127  10.772 -2.8219 -0.2619 -1.5107
  169MOL0     H23267   3.281   2.327  10.681  4.3945  0.3823  3.3422
  169MOL0     H23268   3.154   2.347  10.808 -1.4796 -0.4398 -0.9928
  169MOL0     H23269   3.198   2.111  10.618  0.5717  0.6678 -2.1799
  169MOL0     H23270   3.066   2.128  10.728 -0.7081 -0.7969 -2.7227
  169MOL0     H23271   3.080   2.130  10.391  3.5783  0.9881 -0.8447
  169MOL0     H23272   3.020   2.344  10.190 -0.9924 -2.5621 -0.6395
  169MOL0     H23273   2.858   2.421  10.238  0.4818  2.2255 -3.5920
  169MOL0     H23274   2.887   2.215  10.081  0.8475 -0.7109 -0.2919
  169MOL0     H23275   2.906   2.123  10.239  0.2467 -1.7616 -1.9663
  169MOL0     H23276   2.678   2.290  10.273 -2.2207  1.1122 -0.6224
  169MOL0     H23277   2.673   2.218  10.103  2.6788 -1.3211 -0.6147
  169MOL0     H23278   2.721   2.039  10.335  0.7286 -1.2952 -0.1234
  169MOL0     H23279   2.557   2.070  10.257  0.1366  0.7203  1.4597
  169MOL0     H23280   2.578   1.827  10.344 -0.3503  2.0459 -0.7238
  169MOL0     H23281   2.469   1.497  10.321  0.1664  0.6384 -2.8351
  169MOL0     H23282   2.482   1.640  10.421  0.0733  0.4465 -0.5001
  169MOL0     H23283   2.610   1.523  10.435  0.9276 -0.8521 -2.3171
  169MOL0     H23284   2.843   1.166  10.155  0.5342 -1.9068 -0.0187
  169MOL0     H23285   2.853   0.946  10.095  0.1257  3.4661  2.2035
  169MOL0     H23286   2.894   0.765   9.954  0.8844  2.3014 -2.2253
  169MOL0     H23287   2.749   0.717  10.043 -1.9620 -3.3744 -1.4521
  169MOL0     H23288   2.843   0.518   9.912  1.6843  1.3172  2.6426
  169MOL0     H23289   2.685   0.569   9.860 -0.4200  2.2438  3.4631
  169MOL0     H23290   2.964   0.621   9.718  0.6015 -3.0734 -3.5136
  169MOL0     H23291   2.806   0.661   9.651 -0.5791 -0.2141  0.1117
  169MOL0     H23292   2.911   0.381   9.733  2.5012 -1.0425 -1.7525
  169MOL0     H23293   2.892   0.448   9.573  0.0969  0.8821  0.8548
  169MOL0     H23294   2.642   0.482   9.646  0.3509 -0.2596 -0.8778
  169MOL0     H23295   2.707   0.336   9.561 -0.9999  0.1212 -0.9918
  169MOL0     H23296   2.603   0.380   9.850 -3.7848  2.1007 -2.3921
  169MOL0     H23297   2.716   0.239   9.812 -0.9420 -0.6920  1.1742
  169MOL0     H23298   2.505   0.252   9.634  1.6568 -0.8760  0.6780
  169MOL0     H23299   2.436   0.267   9.794 -0.2760 -0.3464  1.2602
  169MOL0     H23300   2.574   0.037   9.861  2.1674 -0.4793 -2.1229
  169MOL0     H23301   2.610   0.040   9.692 -0.5480  0.1306 -0.0114
  169MOL0     H23302   2.597   1.019   9.746 -1.8098  0.9374  0.6671
  169MOL0     H23303   2.625   1.262   9.792 -2.1995 -0.0949  0.6258
  169MOL0     H23304   2.803   1.577   9.974  0.4164 -1.0866  1.5048
  169MOL0     H23305   2.808   1.846   9.983 -1.4030  3.5788  2.2994
  169MOL0     H23306   3.490   1.515  11.072  1.0152 -0.2991  1.2977
  169MOL0     H23307   3.586   1.320  10.994 -0.7716  0.2052  1.2303
  169MOL0     H23308   3.752   0.897  11.019  1.0319 -0.2026  0.1978
  169MOL0     H23309   3.792   0.707  10.887  3.6198 -2.7905 -1.9172
  169MOL0     H23310   3.976   0.829  10.481 -2.2345 -0.5488 -0.6980
  169MOL0     H23311   4.099   0.727  10.542  0.1810 -0.7158  0.5295
  169MOL0     H23312   3.833   0.632  10.404  0.1620 -2.4616 -0.1496
  169MOL0     H23313   3.949   0.519  10.463 -0.2391 -0.1468  0.4811
  169MOL0     H23314   3.970   0.634  10.212 -2.0272 -1.6525  2.1576
  169MOL0     H23315   4.064   0.752  10.297 -2.3057  1.4826 -1.7137
  169MOL0     H23316   4.202   0.564  10.392  0.4139 -1.1150 -0.4963
  169MOL0     H23317   4.216   0.597  10.219 -3.0682  1.5469 -3.5220
  169MOL0     H23318   4.045   0.226  10.161  3.0500 -0.9310 -0.8115
  169MOL0     H23319   4.079   0.915  10.663  3.2251  2.1498  3.5383
  169MOL0     H23320   4.035   1.226  10.747  0.1716 -0.2101 -2.3550
  169MOL0     H23321   4.130   1.151  10.889  0.7659  0.1856 -1.5521
  169MOL0     H23322   4.151   1.102  10.717  0.1615 -0.5912 -0.9011
  170MOL0     O23323   2.614   4.589   1.486  0.4371 -0.0037 -0.8532
  170MOL0     C23324   2.527   4.512   1.526  0.2234  0.8814 -0.0298
  170MOL0     O23325   2.491   4.394   1.471  0.1339  0.5394 -0.0107
  170MOL0     C23326   2.518   4.346   1.345  0.1839  0.7887  0.1464
  170MOL0     C23327   2.501   4.211   1.317 -0.1714  0.2416 -0.4582
  170MOL0     C23328   2.539   4.157   1.193  0.4962 -0.0721 -0.0199
  170MOL0     C23329   2.609   4.229   1.096  0.3604  0.5747  0.4836
  170MOL0     O23330   2.649   4.179   0.969  0.5891  0.6347 -0.0782
  170MOL0     C23331   2.576   4.063   0.922 -0.1463 -0.2052  0.7258
  170MOL0     C23332   2.435   4.095   0.880 -0.3202 -0.1399  0.1870
  170MOL0     C23333   2.403   4.085   0.726  0.8547  0.9929  0.0330
  170MOL0     C23334   2.499   4.167   0.637  0.9470  0.1313  0.3047
  170MOL0     C23335   2.475   4.128   0.493 -0.5416  0.5798 -0.2375
  170MOL0     C23336   2.599   4.157   0.416  0.6088  0.5409 -0.2256
  170MOL0     C23337   2.658   4.301   0.429 -0.1673 -0.0039 -0.9106
  170MOL0     C23338   2.556   4.414   0.397 -0.1618  0.3740  0.6091
  170MOL0     N23339   2.484   4.384   0.266 -1.1854 -0.2497  0.2733
  170MOL0     C23340   2.551   4.367   0.155 -1.1232 -0.7135  0.0680
  170MOL0     C23341   2.455   4.346   0.060 -0.3386 -0.6203 -0.8458
  170MOL0     C23342   2.481   4.311  -0.079 -0.6431  0.6849 -0.7112
  170MOL0     C23343   2.465   4.416  -0.183 -0.1290 -0.1528  0.1350
  170MOL0     C23344   2.553   4.543  -0.152 -0.4451 -0.0186  0.2203
  170MOL0     C23345   2.597   4.608  -0.291 -0.8106 -1.4624 -0.1061
  170MOL0     O23346   2.692   4.714  -0.257  0.6040 -0.3221  0.8475
  170MOL0     C23347   2.779   4.750  -0.355 -0.4649  0.4802 -0.4726
  170MOL0     C23348   2.774   4.700  -0.490  0.0106 -0.3112  0.6035
  170MOL0     C23349   2.869   4.739  -0.590 -0.5100  0.2912  0.1450
  170MOL0     C23350   2.861   4.675  -0.728  0.3331  0.2284 -0.1064
  170MOL0     C23351   2.978   4.829  -0.547 -0.0314  0.3565 -0.5583
  170MOL0     C23352   3.068   4.893  -0.635  0.3370 -0.1812  0.7219
  170MOL0     O23353   3.139   4.991  -0.592  0.3243  0.4401 -0.0212
  170MOL0     C23354   3.252   5.019  -0.667 -0.1868  0.1909 -0.3880
  170MOL0     C23355   3.352   4.923  -0.684  0.1844  0.4770 -0.8598
  170MOL0     C23356   3.472   4.962  -0.748 -1.4446  0.4403 -0.3469
  170MOL0     C23357   3.489   5.093  -0.797 -0.2415  0.2076 -0.2990
  170MOL0     O23358   3.604   5.136  -0.856  0.4684 -0.0199 -0.5154
  170MOL0     C23359   3.609   5.074  -0.996  0.3177 -0.4243  0.1002
  170MOL0     C23360   3.614   5.190  -1.102  0.2901  0.9433 -0.7111
  170MOL0     C23361   3.618   5.117  -1.238  0.7616 -0.5621 -1.1989
  170MOL0     C23362   3.764   5.098  -1.292  0.2538 -0.7620 -1.0432
  170MOL0     C23363   3.773   5.005  -1.417  0.8211 -0.6005 -1.1053
  170MOL0     C23364   3.706   5.075  -1.531  0.7931  0.3302 -0.5179
  170MOL0     C23365   3.728   4.992  -1.656  0.5140  0.5778 -0.8960
  170MOL0     C23366   3.677   5.061  -1.787  0.5166  0.1912  0.7020
  170MOL0    Cl23367   3.500   5.119  -1.778  0.0492 -0.4074 -0.1374
  170MOL0     C23368   3.391   5.186  -0.778  0.0020 -0.4337  0.0098
  170MOL0     C23369   3.273   5.152  -0.715  0.0663  0.2165 -0.1025
  170MOL0     O23370   3.055   4.861  -0.750 -0.4153  0.0376 -0.5338
  170MOL0     C23371   2.981   4.869  -0.412 -0.0050 -1.1654 -1.8361
  170MOL0     C23372   2.883   4.837  -0.323  0.0208 -0.6044  0.4724
  170MOL0     N23373   2.334   4.337   0.121  0.0025 -0.2897  0.2606
  170MOL0     N23374   2.353   4.369   0.245  0.7128  0.0169 -0.6823
  170MOL0     C23375   2.620   4.359   1.115 -0.4805 -0.4945 -0.8403
  170MOL0     C23376   2.579   4.414   1.242  0.0622  0.1350  0.3999
  170MOL0     C23377   2.445   4.552   1.648  0.4546  1.6953  0.1586
  170MOL0     C23378   2.322   4.488   1.670  0.5582 -1.0490 -0.0114
  170MOL0     C23379   2.237   4.524   1.781 -0.0607 -0.3197  0.1489
  170MOL0     C23380   2.268   4.620   1.873 -1.0498 -0.5347  0.6787
  170MOL0     O23381   2.182   4.663   1.973 -0.7298  0.2576  0.2458
  170MOL0     C23382   2.233   4.726   2.089  0.2977  0.1441 -1.0655
  170MOL0     C23383   2.113   4.747   2.191 -0.6016  0.7143 -0.5938
  170MOL0     C23384   1.996   4.849   2.154  0.0113  0.4887 -0.5143
  170MOL0     C23385   2.029   5.002   2.174  0.1228  0.9412 -0.0564
  170MOL0     C23386   1.911   5.084   2.217  0.2517 -0.3076 -0.6012
  170MOL0     C23387   1.815   5.146   2.256  0.3563  0.3537  0.4657
  170MOL0     C23388   2.394   4.684   1.850 -0.1393  0.5099  0.1106
  170MOL0     C23389   2.486   4.649   1.741  0.0617 -0.0467  0.5971
  170MOL0     C23390   2.621   4.717   1.742 -0.2262  0.6990 -0.0571
  170MOL0     H23391   2.448   4.161   1.397  1.0604  1.5890  1.2822
  170MOL0     H23392   2.518   4.052   1.174 -0.4406 -0.1858  1.4828
  170MOL0     H23393   2.570   3.977   0.988 -0.7671  1.2426  2.6631
  170MOL0     H23394   2.627   4.036   0.829  0.2864  1.6741  0.3598
  170MOL0     H23395   2.357   4.042   0.935  0.7392 -0.1127  1.7635
  170MOL0     H23396   2.427   4.198   0.914  1.1965 -0.1327  0.6205
  170MOL0     H23397   2.414   3.980   0.696  0.6804  1.4801 -1.8848
  170MOL0     H23398   2.295   4.101   0.717  0.7068 -0.4241 -1.1806
  170MOL0     H23399   2.480   4.274   0.647 -0.0848  0.5960 -4.2010
  170MOL0     H23400   2.602   4.139   0.662 -0.1743 -4.0953  0.9047
  170MOL0     H23401   2.393   4.190   0.455  0.6244  3.5629  1.7304
  170MOL0     H23402   2.455   4.020   0.496  0.1825  0.4297 -0.6670
  170MOL0     H23403   2.676   4.099   0.468 -1.3228 -0.0676  2.1273
  170MOL0     H23404   2.594   4.125   0.312 -0.3886  0.9040 -0.2957
  170MOL0     H23405   2.741   4.298   0.358  1.1748 -2.0770  0.6130
  170MOL0     H23406   2.689   4.332   0.530  1.4059  0.4502 -1.4928
  170MOL0     H23407   2.481   4.431   0.474  0.8960  2.4838  1.2452
  170MOL0     H23408   2.604   4.512   0.381  4.8354 -1.6508  1.4027
  170MOL0     H23409   2.654   4.386   0.126 -0.5067  0.2992  2.6062
  170MOL0     H23410   2.414   4.229  -0.108  0.1667  0.7668 -3.0110
  170MOL0     H23411   2.583   4.273  -0.090 -0.9322 -1.0133  1.7223
  170MOL0     H23412   2.513   4.364  -0.266 -1.1132 -1.5220  0.3775
  170MOL0     H23413   2.365   4.439  -0.219  0.9671  2.0676 -1.7512
  170MOL0     H23414   2.512   4.622  -0.088  0.6945  1.4980 -0.8469
  170MOL0     H23415   2.637   4.511  -0.088 -0.4489 -0.3662  0.0527
  170MOL0     H23416   2.652   4.528  -0.341  0.2071 -0.8736  0.0306
  170MOL0     H23417   2.513   4.646  -0.349 -0.6936 -0.2891  0.4584
  170MOL0     H23418   2.700   4.623  -0.512  2.2245 -2.5669  0.5557
  170MOL0     H23419   2.961   4.635  -0.747 -0.4994 -0.6854 -3.0819
  170MOL0     H23420   2.845   4.762  -0.792 -0.5288 -0.1678 -0.4476
  170MOL0     H23421   2.778   4.605  -0.739  0.1489  0.2520  1.0114
  170MOL0     H23422   3.324   4.821  -0.663 -1.8694  0.5192 -3.0501
  170MOL0     H23423   3.523   4.868  -0.767  0.3662  0.9715  1.5187
  170MOL0     H23424   3.695   5.011  -1.020  0.3072  0.5758 -3.0883
  170MOL0     H23425   3.517   5.019  -1.020  0.7990  0.3604 -4.5947
  170MOL0     H23426   3.524   5.252  -1.095 -1.4481 -1.3494 -1.7178
  170MOL0     H23427   3.704   5.251  -1.086  0.3133  0.2943  2.1758
  170MOL0     H23428   3.574   5.181  -1.315  1.4463  0.1894 -0.9800
  170MOL0     H23429   3.567   5.021  -1.225 -1.3343  0.6869  0.3431
  170MOL0     H23430   3.835   5.069  -1.214  1.6347  1.8084 -1.2371
  170MOL0     H23431   3.792   5.200  -1.320 -5.1456  2.6565  3.7831
  170MOL0     H23432   3.877   4.983  -1.440  1.4020 -0.9003  1.5202
  170MOL0     H23433   3.728   4.909  -1.392  3.6045 -1.9138 -0.8283
  170MOL0     H23434   3.744   5.178  -1.536  0.1807  0.7660  2.1800
  170MOL0     H23435   3.596   5.079  -1.528  0.6660 -1.4865 -1.5888
  170MOL0     H23436   3.678   4.896  -1.648 -0.4106  0.9962 -1.5482
  170MOL0     H23437   3.832   4.961  -1.671  1.3449  2.7470 -0.1549
  170MOL0     H23438   3.695   5.001  -1.876 -3.0103 -2.2824  1.4592
  170MOL0     H23439   3.748   5.144  -1.796 -1.0987  2.0317  3.4961
  170MOL0     H23440   3.405   5.289  -0.810 -1.8938 -0.1364  0.0502
  170MOL0     H23441   3.193   5.217  -0.683  0.1281 -0.0393  0.5976
  170MOL0     H23442   3.046   4.951  -0.381 -0.7805 -0.6683 -1.5036
  170MOL0     H23443   2.882   4.876  -0.221 -0.4348 -0.3518  0.3755
  170MOL0     H23444   2.662   4.424   1.038 -2.6725  1.0898 -0.7700
  170MOL0     H23445   2.587   4.522   1.247  1.0095  0.0286  2.5675
  170MOL0     H23446   2.288   4.410   1.603  0.4502  0.4885 -1.8148
  170MOL0     H23447   2.136   4.489   1.795 -1.0796  2.8908  1.7760
  170MOL0     H23448   2.311   4.662   2.131 -0.6274 -0.4010 -0.1568
  170MOL0     H23449   2.276   4.823   2.062 -2.4923  2.6373  2.4943
  170MOL0     H23450   2.153   4.797   2.279 -1.0738 -1.8564  1.2208
  170MOL0     H23451   2.072   4.647   2.210  2.2933 -0.9145 -2.1791
  170MOL0     H23452   1.966   4.834   2.049 -2.1982 -0.1214  0.1475
  170MOL0     H23453   1.919   4.818   2.225 -1.0410 -0.8938 -2.1459
  170MOL0     H23454   2.061   5.053   2.084  3.4750 -0.3171  0.2993
  170MOL0     H23455   2.115   5.023   2.239  1.4689 -0.9743 -1.1182
  170MOL0     H23456   1.728   5.207   2.272 -0.7470 -1.5896  2.4383
  170MOL0     H23457   2.422   4.774   1.905 -0.5768  2.0471 -2.0321
  170MOL0     H23458   2.631   4.796   1.667  0.8838  3.3575  2.6761
  170MOL0     H23459   2.634   4.769   1.837  0.9419  2.1707 -0.9787
  170MOL0     H23460   2.697   4.638   1.736 -0.5950  0.2917  0.4447
  171MOL0     O23461   8.723   5.381   2.164 -0.6050  1.1649  0.3569
  171MOL0     C23462   8.828   5.441   2.173  0.2667 -0.2975  0.5203
  171MOL0     O23463   8.915   5.424   2.274 -0.2866  0.1953 -0.3567
  171MOL0     C23464   8.919   5.297   2.338  0.8972 -0.1291  0.8755
  171MOL0     C23465   8.903   5.298   2.478  0.2501  0.1215 -0.3337
  171MOL0     C23466   8.906   5.175   2.551  0.7364  1.3192 -0.4667
  171MOL0     C23467   8.954   5.054   2.493  0.2983  0.2857  0.3688
  171MOL0     O23468   8.991   4.939   2.564 -0.1776  1.3295 -1.0016
  171MOL0     C23469   8.894   4.886   2.657  0.5501  0.2771 -0.1739
  171MOL0     C23470   8.781   4.796   2.603  0.0921  0.3101  0.7216
  171MOL0     C23471   8.751   4.683   2.699  0.6076  0.0764 -0.5198
  171MOL0     C23472   8.651   4.578   2.638 -0.2235 -0.2858 -0.4175
  171MOL0     C23473   8.651   4.443   2.721  0.7615 -0.3030 -1.6495
  171MOL0     C23474   8.576   4.322   2.676  0.1635  0.0080  0.4275
  171MOL0     C23475   8.422   4.332   2.647 -0.3578 -0.1715  0.4191
  171MOL0     C23476   8.345   4.382   2.771 -0.3664 -0.0327  0.3550
  171MOL0     N23477   8.212   4.443   2.743  0.3100  0.9456  0.0697
  171MOL0     C23478   8.100   4.379   2.685  0.3454 -0.0640  0.5049
  171MOL0     C23479   8.008   4.480   2.683  0.7436 -0.1479  0.4204
  171MOL0     C23480   7.861   4.456   2.658 -0.5670 -0.0888 -0.0515
  171MOL0     C23481   7.791   4.323   2.696  0.1871 -0.0201 -0.3439
  171MOL0     C23482   7.657   4.316   2.622 -0.5750  0.4035 -0.2444
  171MOL0     C23483   7.561   4.418   2.662 -0.3333  0.1084  0.7793
  171MOL0     O23484   7.545   4.411   2.806 -0.2845  0.6497 -0.5848
  171MOL0     C23485   7.482   4.520   2.860 -0.7537  0.6676 -0.2399
  171MOL0     C23486   7.547   4.589   2.968  0.1834  0.3775 -0.0148
  171MOL0     C23487   7.489   4.700   3.031  0.3872  0.7258  0.4683
  171MOL0     C23488   7.568   4.763   3.142  0.0644  0.0609  0.7527
  171MOL0     C23489   7.357   4.735   2.997 -0.9865 -0.6590  0.5613
  171MOL0     C23490   7.275   4.825   3.082 -0.0348 -1.3853 -0.4686
  171MOL0     O23491   7.339   4.903   3.182 -1.0414 -0.1990  0.0966
  171MOL0     C23492   7.258   4.951   3.281  0.0886  0.0991 -0.2505
  171MOL0     C23493   7.181   5.054   3.253  0.4936  0.1014 -0.2676
  171MOL0     C23494   7.120   5.129   3.356  0.0313 -0.6543 -0.5115
  171MOL0     C23495   7.124   5.084   3.484  0.2192 -0.1351 -0.6172
  171MOL0     O23496   7.050   5.150   3.579  1.2478 -0.1177 -0.2551
  171MOL0     C23497   7.078   5.135   3.721  1.0533 -0.6497 -0.4106
  171MOL0     C23498   6.998   5.014   3.776  0.5255 -0.0217 -0.6210
  171MOL0     C23499   7.015   4.999   3.929  0.0201 -0.6825  0.2235
  171MOL0     C23500   6.938   4.884   3.984 -0.5870 -0.8611 -0.2211
  171MOL0     C23501   6.812   4.920   4.061  0.0947 -0.3198  0.2770
  171MOL0     C23502   6.703   4.993   3.981  0.5526 -0.0800  0.3032
  171MOL0     C23503   6.567   4.993   4.053  0.3623  0.4206  1.1209
  171MOL0     C23504   6.445   5.039   3.972  0.4665  0.1333  0.0347
  171MOL0    Cl23505   6.482   5.203   3.922 -0.2293  0.2670  0.4711
  171MOL0     C23506   7.196   4.967   3.517  0.5815 -0.5702  0.4423
  171MOL0     C23507   7.264   4.900   3.416 -0.0193 -1.0215  0.0662
  171MOL0     O23508   7.159   4.833   3.057 -0.5140 -0.4151 -0.6641
  171MOL0     C23509   7.303   4.663   2.892 -0.3878 -0.1845  0.3156
  171MOL0     C23510   7.363   4.571   2.818 -0.1811 -0.0563 -0.0614
  171MOL0     N23511   8.069   4.591   2.717 -0.2624 -0.4510  0.4591
  171MOL0     N23512   8.192   4.574   2.754  0.4264 -0.1499 -0.0388
  171MOL0     C23513   8.979   5.059   2.352 -0.7298 -0.2389  0.2045
  171MOL0     C23514   8.948   5.174   2.272 -0.9494 -0.3415 -0.3159
  171MOL0     C23515   8.838   5.564   2.076 -1.4443 -0.0082 -0.4428
  171MOL0     C23516   8.927   5.563   1.964  1.3925 -0.0677  0.6544
  171MOL0     C23517   8.925   5.664   1.869 -0.4145 -0.1507  0.1882
  171MOL0     C23518   8.858   5.785   1.886  0.4256 -0.0449  0.4567
  171MOL0     O23519   8.852   5.894   1.801 -0.1371  0.2665  0.6157
  171MOL0     C23520   8.927   5.881   1.676 -1.3339 -0.2437 -0.8403
  171MOL0     C23521   8.846   5.901   1.548  0.4016  0.1738  0.3197
  171MOL0     C23522   8.724   5.812   1.535  0.2950  0.0761  0.3010
  171MOL0     C23523   8.749   5.661   1.524  0.4531 -0.0696 -0.3550
  171MOL0     C23524   8.811   5.628   1.390  0.2967 -0.7366 -0.5522
  171MOL0     C23525   8.837   5.605   1.284 -0.4958 -0.0320  0.4890
  171MOL0     C23526   8.797   5.800   2.017  0.1098  0.1318  0.2234
  171MOL0     C23527   8.778   5.692   2.109  0.1564  0.1737 -0.5105
  171MOL0     C23528   8.699   5.714   2.237  0.5145 -0.7978 -1.1098
  171MOL0     H23529   8.907   5.397   2.523 -3.0498  0.0840  0.3113
  171MOL0     H23530   8.894   5.189   2.658 -1.9621  1.0862 -0.6603
  171MOL0     H23531   8.860   4.973   2.714  1.2381 -0.2155  1.0184
  171MOL0     H23532   8.961   4.839   2.730  2.5935 -1.0253 -2.6860
  171MOL0     H23533   8.697   4.860   2.576  0.9003  1.4733  0.8531
  171MOL0     H23534   8.826   4.758   2.511  0.8971 -0.5266  1.4422
  171MOL0     H23535   8.845   4.635   2.726  0.5771  0.5501  0.4820
  171MOL0     H23536   8.712   4.736   2.787  0.5296  0.2935 -0.6853
  171MOL0     H23537   8.551   4.621   2.633  1.4112  3.9261 -0.2012
  171MOL0     H23538   8.691   4.554   2.539 -2.5581  1.4792 -1.8996
  171MOL0     H23539   8.625   4.455   2.827  0.2012 -3.5042 -1.3218
  171MOL0     H23540   8.756   4.414   2.718  1.0532  0.5387 -0.4788
  171MOL0     H23541   8.622   4.301   2.579 -0.0575 -0.6106  0.4488
  171MOL0     H23542   8.584   4.235   2.742 -1.1601 -0.3632  0.1201
  171MOL0     H23543   8.382   4.232   2.627 -1.3123 -0.1362  1.9811
  171MOL0     H23544   8.401   4.404   2.567  0.3838  0.3017  0.6358
  171MOL0     H23545   8.320   4.300   2.840 -1.6713  3.2772  4.2834
  171MOL0     H23546   8.403   4.458   2.823 -0.5585  0.5691 -0.3037
  171MOL0     H23547   8.072   4.275   2.670 -0.4652 -0.0910  1.9797
  171MOL0     H23548   7.853   4.457   2.549 -2.3342  0.1076  0.0472
  171MOL0     H23549   7.812   4.543   2.701  3.1439  1.3624  1.6290
  171MOL0     H23550   7.863   4.242   2.687  1.5335  1.1128 -0.2134
  171MOL0     H23551   7.769   4.327   2.803 -0.1934  0.8081 -0.4428
  171MOL0     H23552   7.675   4.311   2.515  0.5943 -1.3481 -0.0093
  171MOL0     H23553   7.611   4.218   2.635 -0.4747  0.2278 -1.1571
  171MOL0     H23554   7.605   4.517   2.647 -2.5424  1.6501  3.4765
  171MOL0     H23555   7.465   4.418   2.610 -0.4305  3.8566  0.7582
  171MOL0     H23556   7.647   4.558   2.998  0.4501 -0.6753 -1.8382
  171MOL0     H23557   7.586   4.866   3.111 -0.4014  0.0537  0.4553
  171MOL0     H23558   7.660   4.706   3.134 -1.7192 -2.7506 -1.6115
  171MOL0     H23559   7.529   4.754   3.244  0.7623 -1.0518  0.9369
  171MOL0     H23560   7.180   5.106   3.157 -1.6065 -1.2143 -1.0277
  171MOL0     H23561   7.058   5.216   3.336 -0.9523 -0.3484  3.0975
  171MOL0     H23562   7.185   5.127   3.742  1.8836  2.8028 -2.4964
  171MOL0     H23563   7.045   5.229   3.767  0.8405  0.4130 -2.5943
  171MOL0     H23564   6.892   5.023   3.748  0.5082 -0.5591 -0.7389
  171MOL0     H23565   7.037   4.919   3.739  2.6527  0.3924  0.3825
  171MOL0     H23566   6.991   5.099   3.966 -3.2426 -0.1097 -2.9073
  171MOL0     H23567   7.124   4.990   3.939  0.2554 -1.2876 -2.1631
  171MOL0     H23568   7.000   4.832   4.057 -0.2255  1.4475  1.2169
  171MOL0     H23569   6.922   4.813   3.902  2.5606 -0.7826 -1.0436
  171MOL0     H23570   6.770   4.827   4.098 -0.3338 -0.8093 -1.3688
  171MOL0     H23571   6.833   4.985   4.147  0.7901 -0.7475  0.4422
  171MOL0     H23572   6.688   4.939   3.887  0.6793  0.4220 -0.0077
  171MOL0     H23573   6.736   5.095   3.959  3.0762 -0.9406 -0.1692
  171MOL0     H23574   6.574   5.061   4.139  0.5760 -0.2629  1.6494
  171MOL0     H23575   6.552   4.892   4.091  0.4142 -0.1766 -0.3920
  171MOL0     H23576   6.346   5.023   4.014  1.7918 -1.4196  2.8333
  171MOL0     H23577   6.454   4.982   3.879  0.3791  4.3659 -2.8683
  171MOL0     H23578   7.182   4.923   3.616 -0.9855 -0.0216  0.4972
  171MOL0     H23579   7.305   4.803   3.443  1.0689 -0.3165  1.0476
  171MOL0     H23580   7.204   4.694   2.859 -0.0243  0.5516 -0.1137
  171MOL0     H23581   7.327   4.516   2.732 -0.1495  0.2342 -0.2590
  171MOL0     H23582   9.003   4.961   2.310  0.1452  0.3921 -0.7973
  171MOL0     H23583   8.947   5.172   2.164 -2.9786 -1.0817 -0.3302
  171MOL0     H23584   8.987   5.476   1.937 -1.2296 -2.8650  3.0663
  171MOL0     H23585   9.014   5.659   1.806  0.6819  1.1008  1.5550
  171MOL0     H23586   9.008   5.954   1.689 -4.1128  3.0658 -0.7005
  171MOL0     H23587   8.975   5.786   1.650  1.2255 -0.5646  3.9845
  171MOL0     H23588   8.911   5.888   1.461 -1.3040  0.9479 -1.1134
  171MOL0     H23589   8.807   6.003   1.552  0.1291  0.0346  2.2725
  171MOL0     H23590   8.658   5.830   1.621  0.6242  0.2534  0.5207
  171MOL0     H23591   8.665   5.832   1.445 -1.9940  1.1483  1.9261
  171MOL0     H23592   8.653   5.610   1.537 -0.8547  2.2863 -0.1054
  171MOL0     H23593   8.813   5.629   1.607  0.0528  1.1147  0.4377
  171MOL0     H23594   8.849   5.587   1.179 -0.4670  2.8197 -0.0785
  171MOL0     H23595   8.753   5.894   2.047  0.4328 -0.5279  3.0571
  171MOL0     H23596   8.603   5.662   2.244  2.0890 -3.6604  2.7050
  171MOL0     H23597   8.756   5.671   2.320 -2.6374 -2.7032  0.2392
  171MOL0     H23598   8.694   5.822   2.256  3.9121 -0.5370 -1.0414
  172MOL0     O23599   6.691  10.422   2.482  0.0729 -1.1321  0.0739
  172MOL0     C23600   6.778  10.351   2.534  0.6385  0.1809  0.7233
  172MOL0     O23601   6.812  10.226   2.475 -0.6505  0.0672 -0.8513
  172MOL0     C23602   6.738  10.172   2.383 -0.3257  0.8921  0.1438
  172MOL0     C23603   6.689  10.052   2.419  0.5042 -0.2405 -0.7640
  172MOL0     C23604   6.617   9.976   2.334  0.7431 -0.6222  0.3587
  172MOL0     C23605   6.585  10.029   2.207 -0.2376  0.4638  0.0662
  172MOL0     O23606   6.490   9.971   2.119 -0.5144 -0.2410  0.8806
  172MOL0     C23607   6.365  10.034   2.127 -1.2244  0.0966 -0.2460
  172MOL0     C23608   6.249   9.922   2.139  0.0479  0.6055  0.0926
  172MOL0     C23609   6.256   9.857   2.275 -0.2250 -0.6205 -0.7304
  172MOL0     C23610   6.141   9.762   2.294  0.0642 -0.3960  0.5844
  172MOL0     C23611   6.153   9.710   2.434  0.1406  0.0620  0.0951
  172MOL0     C23612   6.040   9.610   2.463  0.3463 -0.9568  0.0578
  172MOL0     C23613   6.067   9.545   2.597 -0.0439 -0.2801  0.1562
  172MOL0     C23614   5.963   9.445   2.636  0.4233  0.1010  0.5237
  172MOL0     N23615   6.006   9.340   2.737 -0.1566 -0.3357  0.2944
  172MOL0     C23616   6.096   9.239   2.722  0.7749  0.9073 -1.1495
  172MOL0     C23617   6.081   9.167   2.842 -0.4970  0.3847 -0.3789
  172MOL0     C23618   6.168   9.043   2.875  0.3096  0.4809  0.5582
  172MOL0     C23619   6.076   8.918   2.899 -0.1510  0.5537  0.6005
  172MOL0     C23620   6.021   8.843   2.775  0.5451 -0.7719  0.0141
  172MOL0     C23621   5.880   8.790   2.800 -0.5361 -0.5021 -0.6139
  172MOL0     O23622   5.859   8.684   2.892 -0.0157 -0.1639 -0.5509
  172MOL0     C23623   5.882   8.560   2.853  0.1270 -0.5911  0.8430
  172MOL0     C23624   5.919   8.508   2.724  0.8236  0.3692 -0.9451
  172MOL0     C23625   5.938   8.364   2.704  0.0619 -0.1108 -0.6920
  172MOL0     C23626   5.977   8.318   2.567  0.4596 -0.7257  0.4599
  172MOL0     C23627   5.931   8.281   2.820 -0.3177  0.0107  0.3033
  172MOL0     C23628   5.951   8.130   2.814 -0.5445  0.5894 -0.6598
  172MOL0     O23629   5.994   8.070   2.935 -0.1151 -0.2508  0.3263
  172MOL0     C23630   6.039   7.937   2.933 -0.2080 -0.0492  0.0030
  172MOL0     C23631   5.971   7.854   3.020  0.1294 -0.3474  0.4068
  172MOL0     C23632   6.009   7.720   3.040  1.1276 -0.0497 -1.3014
  172MOL0     C23633   6.093   7.664   2.955 -0.4092  0.6781 -0.3622
  172MOL0     O23634   6.137   7.534   2.944 -0.1366 -0.6897 -0.1124
  172MOL0     C23635   6.092   7.440   3.044 -0.6922 -0.5695  0.1004
  172MOL0     C23636   6.163   7.307   3.015  0.1528  0.0291 -0.8410
  172MOL0     C23637   6.320   7.333   3.021 -0.7824  0.7207 -0.3234
  172MOL0     C23638   6.396   7.197   3.002 -0.6697 -0.7611  0.1190
  172MOL0     C23639   6.547   7.213   3.022  0.0471 -0.7133  0.2236
  172MOL0     C23640   6.639   7.126   2.936 -0.0370 -0.6223  0.0217
  172MOL0     C23641   6.621   6.975   2.953 -0.4496 -0.2882 -0.3413
  172MOL0     C23642   6.502   6.907   2.885 -0.3963 -0.0526  0.6153
  172MOL0    Cl23643   6.471   6.955   2.710 -0.5533  0.0849  0.0723
  172MOL0     C23644   6.157   7.739   2.856 -0.3837  0.6733  0.0592
  172MOL0     C23645   6.139   7.883   2.854  0.0019  0.2278 -0.0085
  172MOL0     O23646   5.935   8.074   2.706  0.3127  0.4031  0.2401
  172MOL0     C23647   5.899   8.339   2.945  0.0671 -0.0176  0.2066
  172MOL0     C23648   5.888   8.477   2.959 -0.7971 -0.3074  0.4965
  172MOL0     N23649   5.994   9.232   2.919  0.0095 -0.2644 -0.0038
  172MOL0     N23650   5.956   9.341   2.859  0.2738 -0.2448 -0.2484
  172MOL0     C23651   6.633  10.143   2.168  0.7658 -0.6859  0.2672
  172MOL0     C23652   6.727  10.207   2.245 -0.5855 -0.0944  0.3871
  172MOL0     C23653   6.851  10.411   2.648  0.2816 -0.1998  0.0014
  172MOL0     C23654   6.933  10.329   2.729 -0.0582 -0.1948  0.0942
  172MOL0     C23655   7.002  10.376   2.843  0.3217 -0.1189 -0.1428
  172MOL0     C23656   6.997  10.508   2.878 -0.1263 -0.9372 -1.4320
  172MOL0     O23657   7.058  10.547   3.000  0.3649  0.5323  0.0014
  172MOL0     C23658   7.194  10.515   3.007  0.1235 -0.1461  0.1445
  172MOL0     C23659   7.271  10.604   3.107 -0.4012  0.1947  0.3979
  172MOL0     C23660   7.344  10.723   3.034 -0.0824  0.5354 -0.4960
  172MOL0     C23661   7.419  10.824   3.119  0.8255  0.3199 -0.2544
  172MOL0     C23662   7.337  10.934   3.153  0.2740  0.1102 -0.1418
  172MOL0     C23663   7.272  11.040   3.167  0.5569 -0.8976 -0.0589
  172MOL0     C23664   6.925  10.592   2.799 -0.8553  0.5583  0.7440
  172MOL0     C23665   6.851  10.548   2.679  0.6954 -0.1012 -0.4910
  172MOL0     C23666   6.796  10.662   2.597 -0.8699  0.4500 -0.4965
  172MOL0     H23667   6.708  10.008   2.516 -0.0515  3.8209  1.3655
  172MOL0     H23668   6.569   9.884   2.366  1.7081 -0.6331  1.8521
  172MOL0     H23669   6.361  10.078   2.027  0.5535  0.7126 -0.0767
  172MOL0     H23670   6.353  10.105   2.209 -3.1551 -0.8895  0.4033
  172MOL0     H23671   6.149   9.964   2.126  0.8629  1.9047 -2.7585
  172MOL0     H23672   6.267   9.852   2.057 -0.2195 -0.1885  0.6924
  172MOL0     H23673   6.342   9.790   2.268 -0.2539 -0.8417  0.6636
  172MOL0     H23674   6.267   9.929   2.356  0.0329 -2.9912  1.4740
  172MOL0     H23675   6.045   9.814   2.283  1.2384  1.7248 -0.2366
  172MOL0     H23676   6.153   9.680   2.223  2.2655 -0.6770  1.2078
  172MOL0     H23677   6.150   9.794   2.504  1.0175  1.8565 -1.9121
  172MOL0     H23678   6.247   9.655   2.447 -0.0300 -0.2509  0.0144
  172MOL0     H23679   5.943   9.661   2.472  1.0538  1.0410 -2.5105
  172MOL0     H23680   6.033   9.525   2.395 -3.1428 -0.5712 -0.2762
  172MOL0     H23681   6.068   9.616   2.680  2.6162  1.0648 -0.9126
  172MOL0     H23682   6.162   9.492   2.596 -0.0840 -0.4608  2.4647
  172MOL0     H23683   5.879   9.500   2.679  1.5341 -0.6591  4.0103
  172MOL0     H23684   5.935   9.383   2.550  1.7042  0.4313 -0.1658
  172MOL0     H23685   6.166   9.220   2.642 -0.3691  1.0904 -2.2295
  172MOL0     H23686   6.223   9.063   2.967 -0.8478  3.5807  0.6979
  172MOL0     H23687   6.237   9.007   2.799  2.9040 -0.6173  3.2199
  172MOL0     H23688   6.121   8.840   2.961 -0.3314  0.0710  0.1287
  172MOL0     H23689   5.993   8.964   2.954 -2.4528  0.3472 -2.4460
  172MOL0     H23690   6.011   8.917   2.695  2.4361 -1.8491 -1.2848
  172MOL0     H23691   6.095   8.764   2.757  1.4745 -0.3886  1.8800
  172MOL0     H23692   5.835   8.881   2.842  0.4976 -1.3070  2.5657
  172MOL0     H23693   5.838   8.769   2.702  1.0381 -1.6226 -1.0806
  172MOL0     H23694   5.945   8.575   2.643 -0.3336 -2.0161 -3.4246
  172MOL0     H23695   5.894   8.293   2.501  0.1743 -3.1603  1.6013
  172MOL0     H23696   6.052   8.238   2.567 -0.0387 -1.2028  0.8145
  172MOL0     H23697   6.032   8.398   2.516  0.4060 -2.1692 -1.9998
  172MOL0     H23698   5.888   7.889   3.080  1.4658  2.3211  0.8501
  172MOL0     H23699   5.989   7.659   3.128  1.9496 -2.7490 -2.8721
  172MOL0     H23700   6.125   7.479   3.141  0.3563 -3.6482  1.0907
  172MOL0     H23701   5.983   7.430   3.046 -0.8594  1.0233  1.5611
  172MOL0     H23702   6.143   7.240   3.098  2.6995  0.3185  0.0664
  172MOL0     H23703   6.135   7.258   2.921  1.1554 -0.3431 -0.9557
  172MOL0     H23704   6.347   7.365   3.122  2.5599 -1.5824 -0.3059
  172MOL0     H23705   6.359   7.396   2.941 -1.4160 -0.2122 -1.3886
  172MOL0     H23706   6.377   7.169   2.898  1.9084  0.9914 -0.9054
  172MOL0     H23707   6.357   7.124   3.074 -3.0862  1.2800  0.9778
  172MOL0     H23708   6.583   7.316   3.013  1.0798 -0.6673  3.5305
  172MOL0     H23709   6.567   7.189   3.127  0.7424  0.2208  0.3254
  172MOL0     H23710   6.732   7.170   2.972 -1.7475  2.0805  1.5496
  172MOL0     H23711   6.623   7.147   2.830 -0.2435  0.8657  0.3247
  172MOL0     H23712   6.613   6.933   3.054 -0.4769  3.4571  1.3609
  172MOL0     H23713   6.713   6.934   2.910 -0.0126 -0.6290  0.8569
  172MOL0     H23714   6.417   6.916   2.953 -1.3693 -3.4431  0.0726
  172MOL0     H23715   6.522   6.799   2.888  2.8652  0.3147 -1.9987
  172MOL0     H23716   6.228   7.689   2.791  0.1688  1.0656  0.3486
  172MOL0     H23717   6.209   7.943   2.798 -1.1427  1.1464 -0.4916
  172MOL0     H23718   5.888   8.262   3.020 -2.2548 -1.2134 -1.2251
  172MOL0     H23719   5.865   8.502   3.062  1.0799 -4.2212  2.0690
  172MOL0     H23720   6.612  10.196   2.075 -2.6140  1.8535  2.2834
  172MOL0     H23721   6.783  10.294   2.212 -2.4675  0.5505 -1.3825
  172MOL0     H23722   6.935  10.223   2.708 -1.1326 -0.2670  0.3069
  172MOL0     H23723   7.059  10.313   2.910 -0.0338  0.8871  1.1372
  172MOL0     H23724   7.204  10.416   3.053 -1.7341 -0.1558  0.6086
  172MOL0     H23725   7.252  10.509   2.915 -1.6381 -2.8505 -0.9053
  172MOL0     H23726   7.351  10.550   3.158 -0.6279  0.9861  1.6452
  172MOL0     H23727   7.197  10.640   3.179 -1.9580  0.5491 -1.2879
  172MOL0     H23728   7.409  10.654   2.980 -3.7058 -4.4281  0.7973
  172MOL0     H23729   7.274  10.766   2.962 -1.4611 -0.9500 -0.0964
  172MOL0     H23730   7.508  10.868   3.073  1.1920 -0.5228 -0.3650
  172MOL0     H23731   7.448  10.787   3.218 -0.0374 -1.4269 -0.6104
  172MOL0     H23732   7.206  11.122   3.189  1.4090 -1.0020  3.5355
  172MOL0     H23733   6.936  10.695   2.829 -1.7146  1.8455 -2.8203
  172MOL0     H23734   6.688  10.657   2.579 -0.7583 -1.2387 -0.8745
  172MOL0     H23735   6.817  10.762   2.636 -1.7217  0.0165  1.1748
  172MOL0     H23736   6.827  10.655   2.492 -3.0157  1.5617 -1.2654
  173MOL0     O23737   9.541   5.831  10.942  0.1706 -1.0312  0.8126
  173MOL0     C23738   9.422   5.815  10.959 -0.0135  1.1712  1.3437
  173MOL0     O23739   9.330   5.811  10.859  0.1841  0.2755 -0.3710
  173MOL0     C23740   9.355   5.871  10.738  0.5052 -0.0311 -0.0647
  173MOL0     C23741   9.290   5.991  10.706  0.3475  0.5309 -0.9943
  173MOL0     C23742   9.317   6.059  10.593 -0.6441 -0.0791  0.6849
  173MOL0     C23743   9.421   6.010  10.504 -0.0638  0.0165  1.0196
  173MOL0     O23744   9.467   6.077  10.394  0.8721 -0.0762  0.1673
  173MOL0     C23745   9.389   6.062  10.275 -0.3804  0.8042 -0.7031
  173MOL0     C23746   9.439   6.153  10.163 -0.4043 -0.2199 -0.1320
  173MOL0     C23747   9.490   6.294  10.204 -1.2108 -1.0494  0.4444
  173MOL0     C23748   9.367   6.388  10.228 -0.0370  0.0541  0.9161
  173MOL0     C23749   9.424   6.517  10.285  0.3497  0.3121  1.2457
  173MOL0     C23750   9.325   6.630  10.325 -0.4358  0.5881  0.4800
  173MOL0     C23751   9.227   6.572  10.426 -0.4954  0.3196 -1.0965
  173MOL0     C23752   9.288   6.485  10.544 -0.2700  0.7579 -1.5814
  173MOL0     N23753   9.337   6.595  10.640  0.4781  0.6672  0.9771
  173MOL0     C23754   9.269   6.641  10.746  1.5367  0.4454 -0.5539
  173MOL0     C23755   9.353   6.736  10.798  1.0692  0.2345  0.8397
  173MOL0     C23756   9.322   6.818  10.922  0.3500 -0.1409 -0.2048
  173MOL0     C23757   9.440   6.841  11.020  0.8295 -0.3692  0.5290
  173MOL0     C23758   9.381   6.941  11.126 -0.0646 -0.4577 -0.6507
  173MOL0     C23759   9.276   6.889  11.220  0.1406 -0.6400 -0.9431
  173MOL0     O23760   9.250   6.971  11.328  0.1276 -0.0305  0.3630
  173MOL0     C23761   9.166   7.083  11.302  1.1178  0.1457 -0.0138
  173MOL0     C23762   9.089   7.104  11.182 -0.9326  0.0142 -0.7953
  173MOL0     C23763   9.014   7.216  11.155  0.5279 -0.0232 -0.2967
  173MOL0     C23764   8.942   7.212  11.022  0.8277 -0.5056  0.6364
  173MOL0     C23765   8.997   7.309  11.255  0.6358  0.2905 -0.9926
  173MOL0     C23766   8.888   7.409  11.247  0.2761 -0.4008  0.2835
  173MOL0     O23767   8.881   7.485  11.360 -0.4083  0.2602  0.2159
  173MOL0     C23768   8.791   7.579  11.395 -1.0119 -0.2399  0.3800
  173MOL0     C23769   8.833   7.665  11.496 -0.7661  0.1652  0.4327
  173MOL0     C23770   8.750   7.777  11.530 -0.4358  0.0406  0.2008
  173MOL0     C23771   8.629   7.798  11.468  0.9461  0.9872 -0.1857
  173MOL0     O23772   8.539   7.901  11.500  0.5562  0.6669  0.6569
  173MOL0     C23773   8.526   7.939  11.634 -0.4376 -0.1269  0.1807
  173MOL0     C23774   8.488   8.086  11.649 -1.1412 -1.4230 -0.7832
  173MOL0     C23775   8.587   8.185  11.592 -0.4628  0.5494  0.0681
  173MOL0     C23776   8.518   8.319  11.581  0.1165 -0.9353  0.6619
  173MOL0     C23777   8.599   8.420  11.492  0.3367 -0.5731  0.0194
  173MOL0     C23778   8.748   8.460  11.522 -0.5672 -0.7926 -0.1543
  173MOL0     C23779   8.761   8.499  11.671 -0.1196 -0.5639 -0.7444
  173MOL0     C23780   8.912   8.507  11.712 -1.0878  0.1908 -0.5898
  173MOL0    Cl23781   8.986   8.335  11.710 -0.2527 -0.4367 -0.0166
  173MOL0     C23782   8.584   7.715  11.363 -0.0439  0.7925 -0.0896
  173MOL0     C23783   8.670   7.605  11.329  0.6956 -0.3553 -0.2267
  173MOL0     O23784   8.802   7.401  11.167 -0.0020  0.2179 -0.1342
  173MOL0     C23785   9.068   7.288  11.385  0.4980 -0.1754 -0.8159
  173MOL0     C23786   9.143   7.174  11.403 -0.5864  0.2898 -0.6412
  173MOL0     N23787   9.475   6.730  10.725 -0.0269 -0.2765 -0.8864
  173MOL0     N23788   9.459   6.651  10.629  0.6336  0.4662  0.2910
  173MOL0     C23789   9.486   5.892  10.530 -0.4101  0.5549 -0.0142
  173MOL0     C23790   9.435   5.814  10.642  0.3107 -0.6687  0.3234
  173MOL0     C23791   9.384   5.776  11.094 -0.7411  0.5983  0.4262
  173MOL0     C23792   9.487   5.718  11.183 -0.9909 -0.8078  0.2780
  173MOL0     C23793   9.460   5.690  11.313 -0.6055 -0.0992 -0.0597
  173MOL0     C23794   9.323   5.702  11.361 -0.7860  0.5026  0.6933
  173MOL0     O23795   9.279   5.658  11.485  0.3391 -0.5183 -0.2019
  173MOL0     C23796   9.374   5.633  11.593  0.7929 -0.7068  0.5340
  173MOL0     C23797   9.297   5.544  11.691 -0.9188 -0.6790  0.5443
  173MOL0     C23798   9.170   5.616  11.745 -0.8162 -0.3294 -0.2536
  173MOL0     C23799   9.078   5.525  11.809  0.6911 -1.2118  1.0075
  173MOL0     C23800   8.961   5.590  11.887  0.5783 -0.1078  0.5950
  173MOL0     C23801   8.864   5.652  11.934 -0.4296  0.1195 -0.5642
  173MOL0     C23802   9.222   5.749  11.280  0.3659  0.5611  0.9414
  173MOL0     C23803   9.244   5.789  11.143  1.1411 -0.1512 -0.3698
  173MOL0     C23804   9.128   5.837  11.059 -0.7061  0.2458 -0.6029
  173MOL0     H23805   9.220   6.031  10.778  0.2353  0.0342 -0.8251
  173MOL0     H23806   9.266   6.150  10.563 -1.2766 -1.0171 -1.2263
  173MOL0     H23807   9.288   6.094  10.303 -1.1474 -0.9059 -1.3559
  173MOL0     H23808   9.391   5.955  10.252  1.5498  0.1473  1.9567
  173MOL0     H23809   9.517   6.099  10.109  2.5875  3.8088 -0.3182
  173MOL0     H23810   9.365   6.173  10.085  0.7017  2.1983 -0.6813
  173MOL0     H23811   9.560   6.296  10.288 -1.5470  2.0521  0.7656
  173MOL0     H23812   9.544   6.341  10.121 -2.0964 -0.8864 -0.0561
  173MOL0     H23813   9.326   6.408  10.128 -1.2877 -2.5498  0.8181
  173MOL0     H23814   9.291   6.346  10.294 -0.1794 -1.4577 -0.1417
  173MOL0     H23815   9.491   6.557  10.207  0.0315 -1.5436 -0.0474
  173MOL0     H23816   9.489   6.492  10.369  2.4615  4.1768  1.0186
  173MOL0     H23817   9.382   6.712  10.371 -0.4836 -0.0690  1.7619
  173MOL0     H23818   9.266   6.674  10.244 -0.2494  1.0518  0.5903
  173MOL0     H23819   9.163   6.503  10.369 -1.5342  0.8959 -0.6453
  173MOL0     H23820   9.169   6.654  10.467  0.6728  2.7376 -3.8854
  173MOL0     H23821   9.214   6.435  10.608  0.9032  0.1254 -0.6725
  173MOL0     H23822   9.361   6.411  10.508 -3.6091 -2.4781 -2.3000
  173MOL0     H23823   9.175   6.606  10.787  1.2805  2.9213  1.1546
  173MOL0     H23824   9.258   6.752  10.981  1.3502  0.4193  1.6105
  173MOL0     H23825   9.268   6.908  10.893 -1.3769 -0.9493  0.4031
  173MOL0     H23826   9.466   6.745  11.065  1.7534  0.6496  2.2793
  173MOL0     H23827   9.530   6.881  10.971 -0.1806 -0.7707 -1.7534
  173MOL0     H23828   9.472   6.973  11.178  0.1610  5.6055 -3.8520
  173MOL0     H23829   9.338   7.026  11.073 -3.7523 -0.1004  2.4557
  173MOL0     H23830   9.188   6.856  11.163 -0.9395 -0.6713  0.6724
  173MOL0     H23831   9.306   6.796  11.269 -0.6606  0.2005  1.3149
  173MOL0     H23832   9.097   7.037  11.096  0.1696  0.4162 -1.0100
  173MOL0     H23833   8.839   7.177  11.034 -0.1855  2.2705  0.7885
  173MOL0     H23834   8.994   7.156  10.944 -0.3700  0.2500 -0.7635
  173MOL0     H23835   8.931   7.312  10.979  1.5722 -1.0417 -0.8673
  173MOL0     H23836   8.931   7.662  11.543 -1.7742  3.4535  3.1841
  173MOL0     H23837   8.800   7.850  11.592  2.6119 -2.0396  0.3664
  173MOL0     H23838   8.451   7.871  11.677 -1.7936  0.0252 -1.7929
  173MOL0     H23839   8.616   7.916  11.692  0.3616 -1.4817 -1.4992
  173MOL0     H23840   8.382   8.098  11.626 -1.5682  0.5514  1.7725
  173MOL0     H23841   8.484   8.103  11.757  0.1166 -0.2765 -0.8779
  173MOL0     H23842   8.626   8.154  11.495  1.2689 -0.6119  1.0918
  173MOL0     H23843   8.673   8.193  11.658 -0.6599  2.1009  0.1781
  173MOL0     H23844   8.506   8.367  11.679 -0.6673 -0.5971  0.4088
  173MOL0     H23845   8.416   8.300  11.546  0.1103 -0.1883  0.2610
  173MOL0     H23846   8.609   8.384  11.389 -1.7287  0.9100 -0.7640
  173MOL0     H23847   8.525   8.501  11.497 -2.6098 -3.0719 -0.3499
  173MOL0     H23848   8.777   8.544  11.458 -2.1684  1.5052  1.9298
  173MOL0     H23849   8.813   8.376  11.494  2.0157  0.7881  0.7317
  173MOL0     H23850   8.711   8.432  11.742 -3.1913 -0.3559 -2.5169
  173MOL0     H23851   8.707   8.593  11.681 -0.8942 -0.7258 -2.8756
  173MOL0     H23852   8.922   8.555  11.810 -0.4300  1.7273 -1.3668
  173MOL0     H23853   8.962   8.584  11.652 -0.0705  0.2907  0.3304
  173MOL0     H23854   8.491   7.729  11.310 -1.1038 -2.0320  0.8081
  173MOL0     H23855   8.640   7.542  11.246 -1.5160 -2.8971  2.3006
  173MOL0     H23856   9.046   7.350  11.471 -0.9690 -2.6953  0.7376
  173MOL0     H23857   9.195   7.174  11.498 -0.4352  1.6871 -0.7041
  173MOL0     H23858   9.571   5.854  10.474  2.1904  1.2472  3.1690
  173MOL0     H23859   9.463   5.712  10.668 -3.2107 -2.0391 -0.6740
  173MOL0     H23860   9.576   5.680  11.133 -0.7871 -0.8863  0.6959
  173MOL0     H23861   9.538   5.636  11.366  0.5027  0.0961 -1.4266
  173MOL0     H23862   9.469   5.583  11.572  0.2612 -1.5192 -0.0467
  173MOL0     H23863   9.390   5.730  11.640 -0.7560 -0.4997  0.7046
  173MOL0     H23864   9.354   5.508  11.778  1.3416 -0.0396 -0.5824
  173MOL0     H23865   9.272   5.455  11.634 -0.6382  0.5896 -1.6613
  173MOL0     H23866   9.210   5.692  11.813 -0.0403  0.3390 -1.4275
  173MOL0     H23867   9.110   5.668  11.670  0.7451  3.0735  0.6557
  173MOL0     H23868   9.139   5.459  11.872  1.7221 -2.1021 -0.8647
  173MOL0     H23869   9.039   5.465  11.727  1.4767 -2.6928  1.6845
  173MOL0     H23870   8.778   5.691  11.984 -0.3073  0.0223 -0.2818
  173MOL0     H23871   9.122   5.754  11.323 -0.7967  1.3441 -1.6581
  173MOL0     H23872   9.105   5.764  10.981  0.6779 -0.9142  0.0229
  173MOL0     H23873   9.038   5.850  11.120  0.6097 -0.9998  1.7580
  173MOL0     H23874   9.142   5.939  11.022  0.4320 -0.9976 -3.9650
  174MOL0     O23875   9.389   8.553   9.609  1.1078 -0.2159 -0.3569
  174MOL0     C23876   9.301   8.580   9.526 -0.7744  0.9676  0.3649
  174MOL0     O23877   9.167   8.605   9.550 -0.6293  0.2105 -0.5520
  174MOL0     C23878   9.126   8.620   9.683  0.3297 -0.0310  0.7891
  174MOL0     C23879   9.197   8.693   9.785  0.1512  0.8014 -0.0978
  174MOL0     C23880   9.149   8.688   9.919 -0.8256 -0.3996 -0.5786
  174MOL0     C23881   9.023   8.631   9.943 -0.4139  0.1608  0.0530
  174MOL0     O23882   8.979   8.642  10.071  0.2352  0.3484  0.7813
  174MOL0     C23883   8.832   8.624  10.084  0.5182  0.6775 -0.6890
  174MOL0     C23884   8.784   8.692  10.203  1.8923  0.2697  0.1362
  174MOL0     C23885   8.834   8.609  10.331  0.9629 -1.1316  0.0527
  174MOL0     C23886   8.781   8.676  10.458  0.1419 -0.1772  0.2710
  174MOL0     C23887   8.844   8.620  10.577 -0.8893  0.3055  0.3001
  174MOL0     C23888   8.813   8.715  10.707  0.1142 -0.3455 -0.2507
  174MOL0     C23889   8.875   8.655  10.835  0.5667 -0.5355  0.4222
  174MOL0     C23890   8.839   8.736  10.949 -0.1262  0.3458 -0.6580
  174MOL0     N23891   8.916   8.689  11.076  0.3635 -1.5826 -0.2758
  174MOL0     C23892   9.053   8.674  11.082  0.0867 -0.2811 -0.6880
  174MOL0     C23893   9.077   8.596  11.186 -0.4803  0.7292  0.5178
  174MOL0     C23894   9.203   8.543  11.239 -0.4669  0.6059 -1.2447
  174MOL0     C23895   9.213   8.523  11.394 -1.1559  0.8714  0.0982
  174MOL0     C23896   9.354   8.549  11.445 -0.2396 -0.2833 -1.1450
  174MOL0     C23897   9.355   8.533  11.604 -0.1547  0.9001  0.4300
  174MOL0     O23898   9.284   8.628  11.676 -0.4983  0.0590 -0.4944
  174MOL0     C23899   9.249   8.604  11.807  0.2869 -0.0774  0.4653
  174MOL0     C23900   9.198   8.715  11.880  0.0473  0.5154  0.2774
  174MOL0     C23901   9.145   8.707  12.003  0.5775  0.1764  0.3732
  174MOL0     C23902   9.091   8.837  12.053 -0.0836  0.2297  0.0911
  174MOL0     C23903   9.138   8.575  12.065  0.0774  0.9735  0.2141
  174MOL0     C23904   9.092   8.556  12.208  0.0240 -0.0565  0.6875
  174MOL0     O23905   9.030   8.653  12.277  0.1255  0.0378 -0.2823
  174MOL0     C23906   8.941   8.612  12.369 -0.2113 -0.5835  0.9023
  174MOL0     C23907   8.808   8.635  12.319 -0.1046  0.3481  0.8593
  174MOL0     C23908   8.707   8.589  12.409  0.7016  0.0081  0.3918
  174MOL0     C23909   8.737   8.532  12.540 -0.4128 -0.7514 -0.6260
  174MOL0     O23910   8.631   8.519  12.625 -0.2614  0.1217  0.1378
  174MOL0     C23911   8.571   8.397  12.635 -0.8468 -0.5047  0.2620
  174MOL0     C23912   8.494   8.375  12.516  0.7148  1.0370  0.6877
  174MOL0     C23913   8.395   8.252  12.520 -0.1947 -1.2405 -0.3633
  174MOL0     C23914   8.461   8.117  12.454 -0.0462 -0.6862  0.2570
  174MOL0     C23915   8.594   8.072  12.510 -0.4136 -0.3686  1.0912
  174MOL0     C23916   8.591   8.056  12.662 -0.3927  0.3760  0.0037
  174MOL0     C23917   8.481   7.960  12.717  0.1420  0.8954 -0.1511
  174MOL0     C23918   8.505   7.910  12.862 -0.1517 -0.0150  1.1248
  174MOL0    Cl23919   8.500   8.029  12.979  0.4053 -0.0470  0.3662
  174MOL0     C23920   8.870   8.517  12.579  0.1192  1.2527 -0.6374
  174MOL0     C23921   8.976   8.552  12.490  0.7800 -0.4940  0.0507
  174MOL0     O23922   9.117   8.446  12.256  0.0833  0.1021  0.2631
  174MOL0     C23923   9.196   8.464  11.996  0.3114 -0.0971  0.7034
  174MOL0     C23924   9.250   8.477  11.862 -0.0414  0.7115 -1.1656
  174MOL0     N23925   8.953   8.566  11.238  1.2132  0.1136 -0.4388
  174MOL0     N23926   8.857   8.636  11.181 -1.2254  0.4547 -0.7062
  174MOL0     C23927   8.947   8.586   9.831  0.6523 -0.1752  1.2107
  174MOL0     C23928   8.997   8.582   9.704  0.1025  0.0323  0.3273
  174MOL0     C23929   9.358   8.597   9.386 -0.0942 -0.0672  0.6072
  174MOL0     C23930   9.325   8.720   9.329 -0.6827 -0.4301 -1.2412
  174MOL0     C23931   9.384   8.750   9.209  0.1199  0.4629 -0.2513
  174MOL0     C23932   9.470   8.659   9.138 -0.2198 -1.0008 -0.3314
  174MOL0     O23933   9.531   8.688   9.020 -0.2771  0.5541  0.4951
  174MOL0     C23934   9.495   8.810   8.952 -0.6218  1.2418  0.3281
  174MOL0     C23935   9.591   8.834   8.841 -0.3013 -0.0211 -0.3085
  174MOL0     C23936   9.539   8.955   8.755  0.3297 -0.2065  0.2520
  174MOL0     C23937   9.579   9.096   8.808  0.1209 -0.8172  0.0700
  174MOL0     C23938   9.470   9.167   8.884 -0.3255  0.4024 -0.7476
  174MOL0     C23939   9.380   9.229   8.931 -0.3228 -1.3092  0.7078
  174MOL0     C23940   9.486   8.533   9.190  0.1786 -0.5008 -0.8033
  174MOL0     C23941   9.423   8.501   9.318  0.2528  0.3939  0.4242
  174MOL0     C23942   9.457   8.355   9.365 -0.3164  0.0172 -0.8860
  174MOL0     H23943   9.295   8.734   9.761  0.5688  1.7703  2.8239
  174MOL0     H23944   9.221   8.718   9.995 -0.5875  1.5022 -1.5114
  174MOL0     H23945   8.802   8.519  10.087 -0.8835  1.0361  2.6025
  174MOL0     H23946   8.785   8.682  10.004  0.8692 -0.4923 -1.7868
  174MOL0     H23947   8.812   8.797  10.211 -0.6486  0.8627  3.2357
  174MOL0     H23948   8.675   8.684  10.199  1.9980 -1.6685  0.0421
  174MOL0     H23949   8.805   8.504  10.333 -1.0720 -0.6816 -1.8689
  174MOL0     H23950   8.943   8.610  10.324  0.9270 -0.1121 -0.5540
  174MOL0     H23951   8.812   8.781  10.456  1.5741 -0.5640  0.7143
  174MOL0     H23952   8.673   8.679  10.441  0.3190 -1.2909 -1.2409
  174MOL0     H23953   8.950   8.624  10.548 -1.2194 -1.9994 -1.5460
  174MOL0     H23954   8.820   8.515  10.594 -3.5360  0.7862 -0.0873
  174MOL0     H23955   8.856   8.815  10.700 -0.6663 -0.0827 -1.7202
  174MOL0     H23956   8.704   8.717  10.712  0.0887  0.8393 -0.8994
  174MOL0     H23957   8.983   8.645  10.816  0.7382  2.2818 -0.5501
  174MOL0     H23958   8.834   8.555  10.852  3.0899 -1.5888  0.7618
  174MOL0     H23959   8.866   8.840  10.927 -2.6331  0.8666 -1.6090
  174MOL0     H23960   8.732   8.727  10.967  0.3089 -1.0971  1.6840
  174MOL0     H23961   9.136   8.722  11.031 -2.4969  4.4027 -1.0584
  174MOL0     H23962   9.282   8.615  11.219  1.9339 -1.8817 -1.2173
  174MOL0     H23963   9.229   8.448  11.193  0.9631 -0.3533  1.3539
  174MOL0     H23964   9.148   8.600  11.438 -1.2315  0.5995  0.4747
  174MOL0     H23965   9.184   8.422  11.424  0.3836  0.4329  0.1939
  174MOL0     H23966   9.426   8.477  11.405  3.5117  2.0659  0.7892
  174MOL0     H23967   9.384   8.647  11.407 -1.0499  0.1983 -0.5840
  174MOL0     H23968   9.315   8.431  11.597  1.1280  0.4844 -2.9479
  174MOL0     H23969   9.453   8.528  11.653  1.6539  3.5469 -2.5488
  174MOL0     H23970   9.214   8.806  11.823 -0.1360 -0.4685 -1.4290
  174MOL0     H23971   9.177   8.890  12.096  1.2181  2.6723 -4.8629
  174MOL0     H23972   9.013   8.819  12.129  0.4198  3.7981  1.6777
  174MOL0     H23973   9.052   8.904  11.976  0.9815  2.7192  1.5898
  174MOL0     H23974   8.791   8.680  12.222 -1.4714  0.2701  1.0492
  174MOL0     H23975   8.603   8.613  12.389  0.6482  1.1316  1.8397
  174MOL0     H23976   8.655   8.326  12.636  2.7620  3.3275 -0.3351
  174MOL0     H23977   8.509   8.387  12.724 -0.4368 -0.8566  0.5149
  174MOL0     H23978   8.434   8.464  12.494  0.4331 -0.0028 -3.4502
  174MOL0     H23979   8.566   8.352  12.437  0.8886 -0.5532  1.2654
  174MOL0     H23980   8.307   8.274  12.460  1.0605  0.2727 -1.7404
  174MOL0     H23981   8.373   8.239  12.627 -2.2825  2.6568 -0.1288
  174MOL0     H23982   8.473   8.119  12.345  0.3471 -0.9850  0.2955
  174MOL0     H23983   8.386   8.042  12.482  0.3840 -1.4232 -0.5203
  174MOL0     H23984   8.620   7.976  12.465  0.2673  0.9005 -1.4087
  174MOL0     H23985   8.661   8.153  12.480 -0.0807 -0.4169  1.6814
  174MOL0     H23986   8.577   8.150  12.716  0.3961 -0.0341  0.9521
  174MOL0     H23987   8.684   8.005  12.689  0.0722  1.8281  1.2583
  174MOL0     H23988   8.452   7.879  12.649 -0.5409  0.7520  0.3057
  174MOL0     H23989   8.398   8.030  12.706  0.9867  2.2529  1.7564
  174MOL0     H23990   8.597   7.850  12.863  0.8315  1.3197 -1.4708
  174MOL0     H23991   8.426   7.835  12.877  1.8891 -2.3201  1.0206
  174MOL0     H23992   8.889   8.491  12.682  0.3374 -2.6336 -1.4922
  174MOL0     H23993   9.079   8.529  12.514  0.4266 -0.9765  1.1870
  174MOL0     H23994   9.187   8.363  12.034 -1.8790  1.2768  4.3090
  174MOL0     H23995   9.291   8.389  11.814 -2.6030 -0.8060 -0.7450
  174MOL0     H23996   8.850   8.541   9.854 -0.1892  1.3765  0.8850
  174MOL0     H23997   8.933   8.546   9.624 -1.0214  2.5428  0.0225
  174MOL0     H23998   9.256   8.793   9.371 -2.6150 -3.0813  0.5261
  174MOL0     H23999   9.350   8.845   9.169 -1.3853 -1.1411 -3.0386
  174MOL0     H24000   9.390   8.794   8.923 -0.3039 -0.0086 -0.2055
  174MOL0     H24001   9.501   8.890   9.026 -0.9809  2.4575 -0.9121
  174MOL0     H24002   9.598   8.744   8.779  1.3322  0.8288 -1.4088
  174MOL0     H24003   9.695   8.838   8.872 -0.2131 -1.7022 -0.2971
  174MOL0     H24004   9.567   8.949   8.649 -1.1610  1.0492 -0.2552
  174MOL0     H24005   9.430   8.951   8.757  0.3513 -0.8029  0.3672
  174MOL0     H24006   9.590   9.164   8.722 -0.1442  1.8528  2.0232
  174MOL0     H24007   9.672   9.098   8.866 -1.6158  1.1649  2.9968
  174MOL0     H24008   9.291   9.282   8.958 -0.4865 -0.7463 -0.7956
  174MOL0     H24009   9.526   8.454   9.127  5.2136 -0.0731  1.3531
  174MOL0     H24010   9.372   8.333   9.431 -0.1203 -2.0197 -1.2564
  174MOL0     H24011   9.471   8.278   9.289  1.1976 -0.9825  0.3453
  174MOL0     H24012   9.543   8.357   9.432 -2.5447 -0.0184  2.1664
  175MOL0     O24013   1.380   7.585   1.529 -0.2808  0.8693 -0.2594
  175MOL0     C24014   1.327   7.626   1.633 -0.9656 -0.1150  0.0367
  175MOL0     O24015   1.331   7.564   1.757 -0.3123  0.0011  0.9756
  175MOL0     C24016   1.436   7.475   1.768 -0.9168  0.1349  0.0278
  175MOL0     C24017   1.451   7.364   1.684  0.2160 -0.1901  0.0215
  175MOL0     C24018   1.552   7.272   1.702 -0.2840 -0.3696  0.6333
  175MOL0     C24019   1.649   7.288   1.808  0.3192  1.6921  0.3346
  175MOL0     O24020   1.743   7.192   1.840 -0.2645 -0.1744 -0.1416
  175MOL0     C24021   1.725   7.064   1.782 -0.0327  0.3688 -0.1394
  175MOL0     C24022   1.848   6.961   1.810  0.6237 -0.1243 -0.3229
  175MOL0     C24023   1.815   6.812   1.779  0.0930 -0.6213  0.3398
  175MOL0     C24024   1.945   6.729   1.758 -0.3580  0.5061 -0.7323
  175MOL0     C24025   2.015   6.767   1.625  0.4277 -1.3737 -0.8936
  175MOL0     C24026   2.161   6.710   1.620 -0.1893 -0.3809  0.2418
  175MOL0     C24027   2.216   6.723   1.470  0.4021  0.9132  1.0883
  175MOL0     C24028   2.244   6.862   1.435  0.1984 -0.6465 -1.1600
  175MOL0     N24029   2.295   6.876   1.299 -0.7423 -0.2402 -1.0157
  175MOL0     C24030   2.316   6.992   1.241  0.1095  1.2876 -0.1260
  175MOL0     C24031   2.358   6.968   1.120 -0.2008 -0.1966  0.1287
  175MOL0     C24032   2.388   7.064   1.003  0.5149  0.2645 -0.1576
  175MOL0     C24033   2.316   7.029   0.867  0.1884 -0.5833  0.0808
  175MOL0     C24034   2.417   7.063   0.755  0.2367 -0.3175  0.1803
  175MOL0     C24035   2.345   7.056   0.615  0.5532 -0.5526 -0.9133
  175MOL0     O24036   2.429   7.123   0.515 -0.6280 -0.7873  0.4487
  175MOL0     C24037   2.366   7.136   0.388 -0.2513  0.6128  0.4334
  175MOL0     C24038   2.427   7.205   0.290  0.6351 -0.6007  0.1567
  175MOL0     C24039   2.383   7.207   0.154  0.0735  0.6502 -0.6221
  175MOL0     C24040   2.457   7.301   0.059  0.3026  0.1784  0.2455
  175MOL0     C24041   2.263   7.140   0.113 -0.0095 -0.6142 -0.0387
  175MOL0     C24042   2.212   7.140  -0.019 -0.0143  1.1625 -0.1458
  175MOL0     O24043   2.305   7.132  -0.118 -0.5982  0.1699  0.7655
  175MOL0     C24044   2.253   7.125  -0.251  0.0109 -0.5721  0.8346
  175MOL0     C24045   2.241   7.005  -0.321 -0.0672 -0.9254  0.6299
  175MOL0     C24046   2.201   6.999  -0.457  0.1772 -0.5662 -0.5816
  175MOL0     C24047   2.170   7.119  -0.518 -0.3298 -0.4827 -0.1612
  175MOL0     O24048   2.136   7.106  -0.651  0.0158  0.1813  0.5748
  175MOL0     C24049   2.121   7.230  -0.729 -0.3094  0.5592 -0.7599
  175MOL0     C24050   2.130   7.211  -0.879  1.0125  0.7045  0.3800
  175MOL0     C24051   1.991   7.177  -0.947  1.2624  0.6502  0.5898
  175MOL0     C24052   1.878   7.282  -0.923  0.5251 -0.4968 -0.2714
  175MOL0     C24053   1.730   7.225  -0.945 -0.3463  0.4893  0.8086
  175MOL0     C24054   1.627   7.327  -0.927 -0.3138 -0.1368  0.0859
  175MOL0     C24055   1.608   7.370  -0.781 -0.3356 -0.5813 -0.5559
  175MOL0     C24056   1.511   7.484  -0.763  1.2435  0.0253 -0.6798
  175MOL0    Cl24057   1.575   7.569  -0.623  0.9737 -0.3016 -0.0995
  175MOL0     C24058   2.162   7.236  -0.442  0.5350  0.0764  0.4149
  175MOL0     C24059   2.215   7.246  -0.316 -0.0867  0.2149 -0.2914
  175MOL0     O24060   2.089   7.129  -0.033  0.0309  0.6146  0.2395
  175MOL0     C24061   2.194   7.079   0.222 -0.5374 -0.5881  0.1240
  175MOL0     C24062   2.245   7.074   0.348 -1.0761 -0.1968 -0.5165
  175MOL0     N24063   2.360   6.829   1.103  0.5124  0.2139 -0.7177
  175MOL0     N24064   2.333   6.780   1.210 -0.0019  0.2784 -0.3960
  175MOL0     C24065   1.640   7.398   1.890  1.2600 -1.2611 -0.2398
  175MOL0     C24066   1.529   7.490   1.876  0.5805  1.4532 -0.1341
  175MOL0     C24067   1.228   7.738   1.636 -0.3894  0.4151  0.3232
  175MOL0     C24068   1.174   7.781   1.752 -0.3745  0.5199  0.0274
  175MOL0     C24069   1.083   7.879   1.762  0.2711  0.0002  1.0683
  175MOL0     C24070   1.033   7.938   1.644  1.7616 -0.5612  0.4503
  175MOL0     O24071   0.928   8.034   1.636 -0.7100  0.4418  0.7035
  175MOL0     C24072   0.868   8.087   1.755  0.2858 -0.4806 -0.1626
  175MOL0     C24073   0.727   8.129   1.683 -0.0510  0.5818  0.1383
  175MOL0     C24074   0.637   8.009   1.660  0.0995 -0.0011  0.5693
  175MOL0     C24075   0.505   8.055   1.589 -0.1186 -0.5300 -0.2824
  175MOL0     C24076   0.408   7.945   1.587 -0.0297  0.7407 -0.3252
  175MOL0     C24077   0.318   7.866   1.595  0.6961 -0.0076  0.8040
  175MOL0     C24078   1.073   7.900   1.519  0.0799  0.3462  0.2753
  175MOL0     C24079   1.171   7.800   1.518  0.0346  0.2863 -0.1175
  175MOL0     C24080   1.228   7.779   1.382 -0.2735  0.4842  0.8099
  175MOL0     H24081   1.373   7.336   1.613 -0.1508 -3.5550  1.5417
  175MOL0     H24082   1.552   7.178   1.649 -0.0619  0.0781 -0.1662
  175MOL0     H24083   1.719   7.062   1.672 -1.0586  2.6468 -0.1989
  175MOL0     H24084   1.631   7.024   1.821  0.7665  0.0744  1.5260
  175MOL0     H24085   1.925   7.008   1.747 -1.8857  1.8207 -2.1602
  175MOL0     H24086   1.882   6.974   1.913  2.2096  3.0291 -1.1020
  175MOL0     H24087   1.749   6.764   1.852 -0.2304 -0.7641 -0.0383
  175MOL0     H24088   1.782   6.801   1.675  1.8417  0.2722 -0.3467
  175MOL0     H24089   2.012   6.752   1.842  0.5476  2.9203 -2.0313
  175MOL0     H24090   1.924   6.622   1.752 -0.0955  0.4696 -1.0658
  175MOL0     H24091   2.024   6.876   1.619 -2.5385 -1.0224 -0.7158
  175MOL0     H24092   1.953   6.737   1.540 -0.8764 -0.8781 -0.1589
  175MOL0     H24093   2.230   6.763   1.686 -0.4011 -0.4762  0.5427
  175MOL0     H24094   2.153   6.602   1.639 -0.8496 -0.2038  1.0283
  175MOL0     H24095   2.127   6.692   1.414  0.6312  0.7694  0.8032
  175MOL0     H24096   2.288   6.646   1.441 -1.6822 -0.5187 -0.6012
  175MOL0     H24097   2.153   6.924   1.442  0.7327  0.2521 -1.9191
  175MOL0     H24098   2.319   6.891   1.509 -1.3616 -0.9363  0.6180
  175MOL0     H24099   2.304   7.085   1.295 -1.4271  2.4966 -2.3824
  175MOL0     H24100   2.497   7.075   0.994  0.4582 -0.6499 -3.3065
  175MOL0     H24101   2.343   7.157   1.039 -1.3628 -1.5184  2.3912
  175MOL0     H24102   2.275   6.928   0.857 -0.1064 -0.7025  1.9550
  175MOL0     H24103   2.233   7.100   0.869  1.3836  0.8230  1.0580
  175MOL0     H24104   2.475   7.154   0.773  2.8072 -1.4067 -1.8919
  175MOL0     H24105   2.502   6.994   0.748  3.2018  2.8672  1.6941
  175MOL0     H24106   2.332   6.952   0.584  0.4495 -1.0719  0.7422
  175MOL0     H24107   2.246   7.101   0.630 -0.0829 -2.0843 -0.1175
  175MOL0     H24108   2.513   7.264   0.320 -0.4834  1.9893 -1.4309
  175MOL0     H24109   2.525   7.374   0.104  0.0754  0.7036 -0.2433
  175MOL0     H24110   2.381   7.359   0.005 -0.8450 -1.1206  0.4130
  175MOL0     H24111   2.515   7.234  -0.004  1.6095  0.6899  0.8774
  175MOL0     H24112   2.262   6.909  -0.274  1.3626 -1.6479 -1.3354
  175MOL0     H24113   2.199   6.905  -0.513  1.2138  0.5669 -2.6434
  175MOL0     H24114   2.024   7.276  -0.707 -1.2758  0.5298 -4.3105
  175MOL0     H24115   2.203   7.291  -0.691  1.8279 -2.6965  0.2273
  175MOL0     H24116   2.156   7.303  -0.933 -1.6937  1.5413  0.3615
  175MOL0     H24117   2.216   7.144  -0.893  2.6705  3.0889 -2.2422
  175MOL0     H24118   1.949   7.091  -0.894  0.9569 -0.0767 -0.7970
  175MOL0     H24119   1.989   7.143  -1.051 -0.7505 -0.3880  0.9078
  175MOL0     H24120   1.904   7.374  -0.976 -1.2420  2.2118  3.1253
  175MOL0     H24121   1.882   7.324  -0.822 -1.1272  0.0526 -0.4090
  175MOL0     H24122   1.714   7.186  -1.046 -1.8419 -0.1830  1.2804
  175MOL0     H24123   1.704   7.140  -0.881  0.6896 -0.1448  0.4008
  175MOL0     H24124   1.529   7.286  -0.951  0.7946 -4.0195  1.5656
  175MOL0     H24125   1.651   7.410  -0.995  3.1947 -0.9046  0.1948
  175MOL0     H24126   1.705   7.381  -0.734 -1.0912 -1.1949  1.2114
  175MOL0     H24127   1.559   7.284  -0.735 -2.7963  0.8817 -0.2443
  175MOL0     H24128   1.408   7.448  -0.751  2.0460 -1.5679  2.7956
  175MOL0     H24129   1.491   7.542  -0.854 -0.9338 -0.2663 -0.4484
  175MOL0     H24130   2.129   7.326  -0.492  1.6028  2.0271  3.0175
  175MOL0     H24131   2.237   7.337  -0.260 -1.6136 -1.3249  3.0893
  175MOL0     H24132   2.101   7.024   0.212  0.1691 -1.5233 -1.7976
  175MOL0     H24133   2.176   7.027   0.417  0.1570 -0.6619  0.4393
  175MOL0     H24134   1.710   7.411   1.972  2.8032 -3.4667 -1.1184
  175MOL0     H24135   1.497   7.562   1.950  2.8386  1.4720  0.9254
  175MOL0     H24136   1.202   7.750   1.852 -3.4538 -0.1444  0.7952
  175MOL0     H24137   1.046   7.912   1.859 -2.3722  0.1065  0.1151
  175MOL0     H24138   0.842   8.008   1.825  1.4705  1.0161  2.0927
  175MOL0     H24139   0.921   8.171   1.801  2.9878 -0.4865 -2.9850
  175MOL0     H24140   0.753   8.179   1.589 -1.6375  2.5342  0.6675
  175MOL0     H24141   0.672   8.203   1.743 -1.6712  1.1976 -1.9522
  175MOL0     H24142   0.684   7.933   1.597  0.0342  0.0426  0.4662
  175MOL0     H24143   0.602   7.961   1.751 -2.3007  2.4828  1.0918
  175MOL0     H24144   0.521   8.077   1.482  2.7708 -4.4366 -0.8503
  175MOL0     H24145   0.463   8.144   1.637 -0.0818  0.4520 -1.9784
  175MOL0     H24146   0.228   7.808   1.593 -0.3961  1.6234 -0.4944
  175MOL0     H24147   1.036   7.952   1.431 -1.1814  2.2742  1.8306
  175MOL0     H24148   1.187   7.851   1.311  1.3296  0.8689  0.2220
  175MOL0     H24149   1.336   7.798   1.382 -0.1011 -0.3822 -0.1831
  175MOL0     H24150   1.195   7.677   1.359 -0.3462  1.2114 -2.9434
  176MOL0     O24151   8.215   0.409   5.606 -0.0211  1.1855  0.2717
  176MOL0     C24152   8.176   0.286   5.583 -0.3144  0.0461 -0.0833
  176MOL0     O24153   8.236   0.197   5.504 -0.0200  0.3878  0.3254
  176MOL0     C24154   8.367   0.227   5.474 -0.0236  0.6957  0.8999
  176MOL0     C24155   8.403   0.288   5.355  0.8156 -0.1655  0.6286
  176MOL0     C24156   8.537   0.302   5.323 -0.6770 -0.8160 -0.1358
  176MOL0     C24157   8.635   0.243   5.404 -0.8604  0.1796 -0.0063
  176MOL0     O24158   8.772   0.236   5.366  0.4578  0.1568 -0.0007
  176MOL0     C24159   8.802   0.107   5.331 -1.3735 -0.1366  0.6033
  176MOL0     C24160   8.889   0.121   5.205  0.5641 -0.5892 -0.8603
  176MOL0     C24161   8.877  -0.009   5.131 -0.8514  0.2286 -0.3567
  176MOL0     C24162   9.007  -0.026   5.053 -0.6656 -0.2321 -0.3915
  176MOL0     C24163   8.992  -0.151   4.962  0.0668  0.9698  0.3606
  176MOL0     C24164   8.909  -0.123   4.832 -0.7905  0.2402  0.1205
  176MOL0     C24165   8.876  -0.251   4.746 -1.0383 -0.4106 -0.7461
  176MOL0     C24166   8.998  -0.329   4.672 -1.0243  0.0416  0.0914
  176MOL0     N24167   9.030  -0.271   4.539 -0.2725  0.1643 -0.6946
  176MOL0     C24168   9.092  -0.335   4.434  0.4538  0.3825  0.0788
  176MOL0     C24169   9.051  -0.270   4.319 -0.1965 -0.7744  0.3157
  176MOL0     C24170   9.098  -0.316   4.186  0.6218  0.8460  0.2078
  176MOL0     C24171   9.235  -0.255   4.157  0.1443  0.4141 -0.1120
  176MOL0     C24172   9.296  -0.320   4.032  0.1122  0.1796  0.7967
  176MOL0     C24173   9.239  -0.275   3.896 -0.3881  0.9628 -0.0166
  176MOL0     O24174   9.299  -0.148   3.873  0.2425  0.4208 -0.2315
  176MOL0     C24175   9.340  -0.121   3.741  0.6121 -0.0737  0.0988
  176MOL0     C24176   9.238  -0.079   3.661  0.3168 -0.6207 -0.3787
  176MOL0     C24177   9.273  -0.014   3.543  0.2440  0.0093  0.1067
  176MOL0     C24178   9.146   0.033   3.467 -0.3925 -1.0173 -0.1923
  176MOL0     C24179   9.408  -0.005   3.502  0.0238 -0.3346 -0.7002
  176MOL0     C24180   9.448   0.071   3.379 -0.4181  0.0788 -0.4160
  176MOL0     O24181   9.384   0.045   3.267  0.4306 -0.1978  0.3376
  176MOL0     C24182   9.408   0.121   3.150  1.0720  0.6886  0.3137
  176MOL0     C24183   9.426   0.258   3.164 -1.1188  0.0061 -0.3018
  176MOL0     C24184   9.456   0.341   3.056  0.4215  0.4179 -0.4583
  176MOL0     C24185   9.460   0.283   2.928 -0.4933 -0.1130  1.0662
  176MOL0     O24186   9.484   0.344   2.809  0.4825 -0.4928  0.3871
  176MOL0     C24187   9.523   0.477   2.819  0.2908 -0.2972 -0.4703
  176MOL0     C24188   9.557   0.540   2.672 -0.2650  0.9926 -0.5313
  176MOL0     C24189   9.530   0.688   2.669  0.5479  0.0605  0.4405
  176MOL0     C24190   9.645   0.746   2.750  0.7345 -0.2152 -0.6440
  176MOL0     C24191   9.643   0.902   2.779  0.7326 -0.6576  0.2980
  176MOL0     C24192   9.510   0.950   2.834  0.5229 -0.6202 -0.2887
  176MOL0     C24193   9.482   0.936   2.988  0.3816  0.0734  0.8843
  176MOL0     C24194   9.341   0.877   3.011 -0.0591 -0.2760 -0.2250
  176MOL0    Cl24195   9.223   1.004   2.981 -0.1619 -0.2056  0.4135
  176MOL0     C24196   9.433   0.148   2.912 -0.0772  1.0261 -0.2781
  176MOL0     C24197   9.422   0.059   3.023 -0.4910  0.8547  0.0247
  176MOL0     O24198   9.554   0.131   3.392 -0.0246 -0.0608 -0.7335
  176MOL0     C24199   9.509  -0.048   3.583 -1.0306 -0.1043  0.2570
  176MOL0     C24200   9.469  -0.106   3.702  0.3835  0.8715 -0.2232
  176MOL0     N24201   8.976  -0.165   4.361 -0.0805  0.2110  0.8677
  176MOL0     N24202   8.960  -0.170   4.483 -0.1990 -0.3752  0.4650
  176MOL0     C24203   8.594   0.182   5.515 -0.9010 -0.4528  0.3739
  176MOL0     C24204   8.469   0.172   5.557  1.0152 -0.1888 -0.3364
  176MOL0     C24205   8.056   0.239   5.657  0.3693 -0.5297  0.3523
  176MOL0     C24206   7.968   0.157   5.587  0.7384 -0.8015  1.5869
  176MOL0     C24207   7.861   0.089   5.636  0.1227  0.5225 -0.3707
  176MOL0     C24208   7.845   0.103   5.772 -0.0230 -0.4590  0.6807
  176MOL0     O24209   7.750   0.034   5.845  0.2203  0.1759  0.4135
  176MOL0     C24210   7.670  -0.075   5.791 -0.2091 -1.1773 -0.7643
  176MOL0     C24211   7.567  -0.107   5.900 -0.4128  0.1090 -0.9207
  176MOL0     C24212   7.620  -0.202   6.010 -0.2082 -0.4326 -0.7350
  176MOL0     C24213   7.509  -0.228   6.108  0.7004  0.0515  0.2920
  176MOL0     C24214   7.551  -0.330   6.210 -0.1151  0.5733  0.0673
  176MOL0     C24215   7.598  -0.402   6.294 -0.9266 -0.6326 -0.0933
  176MOL0     C24216   7.925   0.195   5.843  0.4466  0.8996 -0.1156
  176MOL0     C24217   8.032   0.263   5.799 -0.2070  0.4986  0.0300
  176MOL0     C24218   8.127   0.343   5.877  0.1684  0.2511 -0.5035
  176MOL0     H24219   8.320   0.327   5.297  1.8493  1.3791  0.1257
  176MOL0     H24220   8.569   0.342   5.227  1.7994  3.3224  2.0767
  176MOL0     H24221   8.718   0.039   5.310 -0.8219 -1.4760  2.5202
  176MOL0     H24222   8.856   0.047   5.404 -0.8247 -0.2850  0.0784
  176MOL0     H24223   8.861   0.210   5.148 -1.9305 -0.0541  1.0170
  176MOL0     H24224   8.989   0.122   5.249  0.6000 -0.3519 -0.9477
  176MOL0     H24225   8.873  -0.096   5.196  1.3812  0.4243  0.1203
  176MOL0     H24226   8.786  -0.003   5.069 -0.5461  0.6501 -0.7752
  176MOL0     H24227   9.037   0.068   5.006  1.7248 -0.8708 -0.2853
  176MOL0     H24228   9.086  -0.046   5.126 -0.7681 -1.6858 -0.6442
  176MOL0     H24229   8.967  -0.239   5.022  2.6828 -1.3836 -1.7260
  176MOL0     H24230   9.092  -0.186   4.935 -1.0860 -2.4248  0.0826
  176MOL0     H24231   8.814  -0.075   4.858 -1.4215 -1.2442  0.6381
  176MOL0     H24232   8.962  -0.052   4.767 -2.7025 -1.3961 -3.5706
  176MOL0     H24233   8.794  -0.229   4.677 -0.7224  2.6895 -0.2658
  176MOL0     H24234   8.836  -0.321   4.820  0.9208  2.1066  2.9605
  176MOL0     H24235   9.089  -0.320   4.732  0.8289  2.4483 -2.7910
  176MOL0     H24236   8.972  -0.433   4.650  0.1142 -0.2409  0.0255
  176MOL0     H24237   9.151  -0.426   4.431 -0.0150  0.1051 -1.2497
  176MOL0     H24238   9.018  -0.279   4.121  1.6221  4.5112  0.8428
  176MOL0     H24239   9.097  -0.426   4.180  0.5060  0.7639  1.4905
  176MOL0     H24240   9.238  -0.146   4.151  3.7608  0.3814 -2.4867
  176MOL0     H24241   9.290  -0.280   4.248  2.7067  2.8976 -0.8523
  176MOL0     H24242   9.404  -0.310   4.031  0.1126  0.2808  1.5256
  176MOL0     H24243   9.278  -0.427   4.046 -0.6792  0.1621 -0.1681
  176MOL0     H24244   9.269  -0.354   3.826  1.2332  0.0865  1.5937
  176MOL0     H24245   9.130  -0.282   3.898 -0.3010 -2.4598 -0.5671
  176MOL0     H24246   9.133  -0.085   3.686 -0.3899 -3.2920 -3.3823
  176MOL0     H24247   9.183   0.126   3.421  2.8742 -1.7814  0.6112
  176MOL0     H24248   9.055   0.047   3.526 -2.9641 -0.8385 -3.8735
  176MOL0     H24249   9.122  -0.048   3.398 -0.6182 -1.5019  0.4590
  176MOL0     H24250   9.414   0.306   3.260 -0.8747  1.4511 -0.9646
  176MOL0     H24251   9.480   0.447   3.065 -5.5619  2.2957 -2.1905
  176MOL0     H24252   9.444   0.539   2.861  0.6074  1.5003 -2.3673
  176MOL0     H24253   9.604   0.485   2.892  1.5141  1.2125 -1.9070
  176MOL0     H24254   9.659   0.515   2.640 -0.5764 -0.5779 -0.3469
  176MOL0     H24255   9.482   0.497   2.605  0.2390  0.7534 -0.9480
  176MOL0     H24256   9.431   0.717   2.705  1.3753  0.0757  2.8850
  176MOL0     H24257   9.530   0.728   2.567 -4.0195 -0.0313  0.2148
  176MOL0     H24258   9.734   0.718   2.692  0.3163 -2.1943 -0.4176
  176MOL0     H24259   9.660   0.687   2.840  0.3364 -0.1307 -0.5212
  176MOL0     H24260   9.729   0.923   2.842  0.7865 -4.3995  1.7553
  176MOL0     H24261   9.671   0.955   2.688  1.1901 -1.4616 -0.0446
  176MOL0     H24262   9.433   0.908   2.770  2.1606 -0.2761 -2.6075
  176MOL0     H24263   9.510   1.055   2.804  2.9946 -1.0608 -2.1596
  176MOL0     H24264   9.495   1.035   3.031 -1.6439  0.5084  0.6113
  176MOL0     H24265   9.548   0.872   3.048 -3.8857 -0.7403  5.3258
  176MOL0     H24266   9.347   0.839   3.113  2.7269  0.5656 -0.0029
  176MOL0     H24267   9.330   0.791   2.945  0.2929 -1.0011  0.6436
  176MOL0     H24268   9.432   0.103   2.813  0.2481 -1.3973  0.7497
  176MOL0     H24269   9.414  -0.050   3.023 -2.0138  0.9489  0.1542
  176MOL0     H24270   9.607  -0.046   3.538 -2.2700  1.1816 -2.6247
  176MOL0     H24271   9.535  -0.144   3.780  1.2397  0.0457 -1.3290
  176MOL0     H24272   8.681   0.143   5.568  0.4674  1.0647 -0.6297
  176MOL0     H24273   8.439   0.115   5.644  2.0508 -2.0062 -1.1068
  176MOL0     H24274   7.994   0.137   5.484  3.1928  2.3759  1.4218
  176MOL0     H24275   7.797   0.021   5.581 -0.2370 -1.0543  1.8821
  176MOL0     H24276   7.624  -0.055   5.694 -0.4374  2.0522 -0.0879
  176MOL0     H24277   7.738  -0.158   5.771  1.7670  0.2140 -0.1429
  176MOL0     H24278   7.475  -0.147   5.856 -0.6471 -0.5382  0.1167
  176MOL0     H24279   7.534  -0.014   5.948 -2.2271 -0.5636 -0.7588
  176MOL0     H24280   7.649  -0.296   5.964  0.4582 -0.1599 -0.8881
  176MOL0     H24281   7.698  -0.147   6.063 -0.8736  2.4560 -2.5021
  176MOL0     H24282   7.427  -0.263   6.046  1.4487  0.4963 -0.9970
  176MOL0     H24283   7.483  -0.137   6.163 -1.5023 -0.8287  0.7812
  176MOL0     H24284   7.656  -0.454   6.367  0.7201  0.7231 -0.3602
  176MOL0     H24285   7.906   0.199   5.950 -3.8490  2.8267 -0.7482
  176MOL0     H24286   8.228   0.302   5.889  0.7713  1.8960  0.4611
  176MOL0     H24287   8.150   0.445   5.844  2.5418 -1.2361 -4.1148
  176MOL0     H24288   8.085   0.342   5.978  0.3395  0.2851 -0.4300
  177MOL0     O24289   7.593   8.211   1.496  0.6013 -0.2523  0.5924
  177MOL0     C24290   7.697   8.210   1.573  0.0186 -0.1145 -0.3022
  177MOL0     O24291   7.800   8.119   1.570  0.5737 -0.1783 -0.4061
  177MOL0     C24292   7.782   8.013   1.485  0.5142  0.3884 -0.4296
  177MOL0     C24293   7.802   8.034   1.347  1.3081  0.6186 -0.4737
  177MOL0     C24294   7.779   7.928   1.261  0.3040 -0.2660 -0.9738
  177MOL0     C24295   7.713   7.805   1.301 -0.0677  0.9831  0.3176
  177MOL0     O24296   7.674   7.700   1.213  0.2134 -0.9999  0.5305
  177MOL0     C24297   7.756   7.664   1.099 -0.5141  0.3583 -0.4496
  177MOL0     C24298   7.685   7.557   1.023  0.3071  0.5483 -1.3239
  177MOL0     C24299   7.691   7.428   1.096  0.1277  1.2694 -0.6530
  177MOL0     C24300   7.830   7.370   1.113 -0.5862 -0.5585 -1.5211
  177MOL0     C24301   7.831   7.217   1.141 -0.9063 -0.0589  0.0178
  177MOL0     C24302   7.961   7.143   1.117 -0.3958 -0.1248  0.5965
  177MOL0     C24303   8.031   7.141   0.984  0.4628  0.5566 -0.4443
  177MOL0     C24304   8.155   7.052   0.972  0.2176 -0.3742  0.3247
  177MOL0     N24305   8.136   6.907   1.007  0.8833 -0.2205  0.1404
  177MOL0     C24306   8.142   6.851   1.134 -0.5151  0.9507 -0.7216
  177MOL0     C24307   8.118   6.720   1.118 -0.4445  0.8259 -0.0021
  177MOL0     C24308   8.107   6.628   1.234  0.7758 -0.0154  0.2773
  177MOL0     C24309   8.181   6.493   1.196 -0.3320  0.5956  0.0081
  177MOL0     C24310   8.213   6.393   1.306  0.8381 -0.3586 -0.6431
  177MOL0     C24311   8.280   6.263   1.263  0.0887 -0.1095  0.5795
  177MOL0     O24312   8.422   6.272   1.241  0.4247  0.0111  0.6322
  177MOL0     C24313   8.502   6.302   1.351 -0.4374  0.1563  0.1982
  177MOL0     C24314   8.597   6.404   1.337  0.3260  0.4464  0.0943
  177MOL0     C24315   8.673   6.449   1.445 -0.1141  0.3584 -0.6592
  177MOL0     C24316   8.777   6.550   1.409 -1.1370 -0.2973 -0.8786
  177MOL0     C24317   8.648   6.392   1.578 -0.1825 -0.0192  0.4631
  177MOL0     C24318   8.718   6.426   1.705 -0.3319 -0.7218  0.4968
  177MOL0     O24319   8.854   6.400   1.711  0.2310  0.3371 -0.2253
  177MOL0     C24320   8.901   6.370   1.835  0.9821 -0.0744 -0.1808
  177MOL0     C24321   8.908   6.242   1.870 -0.0861 -0.5037 -0.9507
  177MOL0     C24322   8.959   6.212   1.994  0.7770  0.1223  0.0864
  177MOL0     C24323   8.986   6.310   2.097  0.3681 -0.9884  0.1133
  177MOL0     O24324   8.998   6.297   2.234 -0.3144  1.0146  0.5100
  177MOL0     C24325   8.967   6.167   2.289 -0.7044  0.5831  0.6783
  177MOL0     C24326   8.948   6.202   2.437 -0.4768  0.6756 -0.4104
  177MOL0     C24327   8.906   6.084   2.517 -0.1721 -0.1160 -0.5452
  177MOL0     C24328   8.880   6.119   2.660 -0.7288  0.5088 -0.5806
  177MOL0     C24329   8.773   6.028   2.725  0.5568  0.2108  1.3652
  177MOL0     C24330   8.820   5.880   2.736 -0.3820 -0.3006 -0.4402
  177MOL0     C24331   8.705   5.804   2.803  0.2783  0.0102 -0.3355
  177MOL0     C24332   8.725   5.652   2.795  0.6560 -0.6185  0.3262
  177MOL0    Cl24333   8.748   5.609   2.624 -0.0387 -0.5943  0.4075
  177MOL0     C24334   8.960   6.440   2.060 -0.3906  1.3536 -0.3956
  177MOL0     C24335   8.925   6.467   1.928 -0.4248 -0.2537  1.2902
  177MOL0     O24336   8.658   6.461   1.808 -0.7367  0.3640  0.4940
  177MOL0     C24337   8.551   6.299   1.590  1.1060 -0.3079 -0.5050
  177MOL0     C24338   8.480   6.249   1.480 -0.2925  0.0457  0.4010
  177MOL0     N24339   8.108   6.692   0.982 -0.2924 -1.2023 -0.4187
  177MOL0     N24340   8.116   6.809   0.919  0.5365  0.5940  0.4677
  177MOL0     C24341   7.681   7.795   1.439 -0.1834  0.6500 -0.7054
  177MOL0     C24342   7.719   7.891   1.533 -0.4034  0.0447  0.5097
  177MOL0     C24343   7.687   8.301   1.688  0.1644  0.3191 -1.3459
  177MOL0     C24344   7.563   8.342   1.734 -0.1451 -0.2883  0.5023
  177MOL0     C24345   7.556   8.416   1.851 -0.3131 -0.0970 -0.4944
  177MOL0     C24346   7.670   8.447   1.930 -0.8399  0.6813 -1.0339
  177MOL0     O24347   7.664   8.487   2.070  0.5489  0.1219  0.3861
  177MOL0     C24348   7.586   8.406   2.156 -0.3032 -0.7578 -0.0389
  177MOL0     C24349   7.622   8.259   2.141  0.6818 -0.9596  0.6926
  177MOL0     C24350   7.763   8.246   2.207 -0.5754  0.5320 -0.4955
  177MOL0     C24351   7.831   8.112   2.191 -0.2218 -0.5136 -0.7826
  177MOL0     C24352   7.874   8.088   2.054 -0.5006 -0.6012 -0.3796
  177MOL0     C24353   7.934   8.069   1.945  1.5379  0.4815 -0.3084
  177MOL0     C24354   7.800   8.415   1.875 -0.3753 -0.4601  0.6805
  177MOL0     C24355   7.802   8.354   1.748  0.0480  0.8531 -0.4362
  177MOL0     C24356   7.929   8.355   1.679 -0.2001 -0.7241  0.4767
  177MOL0     H24357   7.845   8.130   1.319 -0.5214  1.9427  1.0429
  177MOL0     H24358   7.807   7.924   1.156  1.8471 -3.8767 -0.5762
  177MOL0     H24359   7.853   7.627   1.133 -0.8931 -0.7079 -0.4971
  177MOL0     H24360   7.785   7.749   1.037  0.7742  1.0783  1.0501
  177MOL0     H24361   7.582   7.590   1.004 -0.0989 -0.8331 -1.6516
  177MOL0     H24362   7.729   7.553   0.923  0.0043  2.3243 -1.5630
  177MOL0     H24363   7.654   7.434   1.199  0.3453  0.0958 -0.4984
  177MOL0     H24364   7.623   7.372   1.030  0.3218  1.9008 -1.4000
  177MOL0     H24365   7.883   7.384   1.019  0.5631  2.1386 -0.5519
  177MOL0     H24366   7.875   7.423   1.197 -0.3890 -2.2783 -0.4893
  177MOL0     H24367   7.754   7.161   1.087  0.2383 -1.2993 -0.4133
  177MOL0     H24368   7.799   7.202   1.245 -2.5427 -1.8143 -0.6764
  177MOL0     H24369   8.032   7.175   1.195 -0.9630  2.7663  0.0332
  177MOL0     H24370   7.948   7.037   1.142  0.1876  0.2612  2.7884
  177MOL0     H24371   8.055   7.243   0.951  4.2754  0.4675  1.4982
  177MOL0     H24372   7.964   7.100   0.908  1.1701  1.3275 -1.5244
  177MOL0     H24373   8.195   7.058   0.871  2.1184  0.6957  1.1046
  177MOL0     H24374   8.225   7.098   1.042 -1.7255  1.5168  1.1592
  177MOL0     H24375   8.162   6.913   1.221  1.3010  1.3724 -1.4146
  177MOL0     H24376   8.006   6.613   1.274  0.5514 -3.9074 -1.2731
  177MOL0     H24377   8.171   6.664   1.315 -2.6139 -2.8283  4.7670
  177MOL0     H24378   8.121   6.443   1.120  0.3160 -0.4325  0.1471
  177MOL0     H24379   8.274   6.527   1.150  1.8444  0.2242  3.6777
  177MOL0     H24380   8.256   6.456   1.385  0.4633 -0.5970 -0.2461
  177MOL0     H24381   8.123   6.347   1.347 -0.7289 -0.9381 -4.4124
  177MOL0     H24382   8.263   6.186   1.339 -0.5365 -1.5971 -0.9935
  177MOL0     H24383   8.224   6.230   1.175  0.8809 -0.5970  0.2423
  177MOL0     H24384   8.609   6.441   1.236  3.8225  0.1642  0.2724
  177MOL0     H24385   8.861   6.548   1.479  1.0560  4.4915 -2.9379
  177MOL0     H24386   8.743   6.651   1.435  0.7470  1.5673 -4.8201
  177MOL0     H24387   8.801   6.545   1.303  1.0758  0.2151 -0.4445
  177MOL0     H24388   8.876   6.162   1.803  0.0166 -1.8598  0.5455
  177MOL0     H24389   8.974   6.109   2.024 -0.9541  0.0402  0.7289
  177MOL0     H24390   8.866   6.140   2.258 -0.7485  1.6057 -0.1464
  177MOL0     H24391   9.048   6.096   2.269 -0.2401  1.3146 -0.1150
  177MOL0     H24392   9.044   6.244   2.470  0.1456 -1.0188  0.0129
  177MOL0     H24393   8.871   6.280   2.431  2.4213  3.6571 -2.8614
  177MOL0     H24394   8.996   6.022   2.511 -0.0330  0.1513 -1.2803
  177MOL0     H24395   8.814   6.037   2.480 -1.6381  2.6567 -0.6883
  177MOL0     H24396   8.854   6.225   2.664  1.5244  1.1266 -1.2231
  177MOL0     H24397   8.976   6.114   2.711 -1.4055 -0.8447  0.6204
  177MOL0     H24398   8.758   6.052   2.831  0.4459 -1.2923  1.7193
  177MOL0     H24399   8.681   6.048   2.669  1.5527  2.9885  0.5546
  177MOL0     H24400   8.905   5.871   2.804  1.5713  0.3257 -2.6915
  177MOL0     H24401   8.839   5.833   2.639  1.7285  1.4130 -0.9234
  177MOL0     H24402   8.609   5.831   2.757  0.0251  0.9866  0.7064
  177MOL0     H24403   8.697   5.827   2.909 -1.2839  0.1406 -0.4609
  177MOL0     H24404   8.639   5.596   2.832 -0.0093  0.1399 -0.0534
  177MOL0     H24405   8.818   5.625   2.847  0.6624  0.7971  1.0797
  177MOL0     H24406   8.954   6.526   2.126 -3.1636  1.5139 -0.7300
  177MOL0     H24407   8.901   6.566   1.892 -2.5629 -1.7471 -1.8225
  177MOL0     H24408   8.526   6.253   1.685 -2.6270 -1.6872 -1.9797
  177MOL0     H24409   8.433   6.152   1.491  2.4314 -1.3110  0.8243
  177MOL0     H24410   7.635   7.704   1.477  0.8972  1.1930  2.1500
  177MOL0     H24411   7.695   7.879   1.638  0.9147  2.4592  1.1721
  177MOL0     H24412   7.475   8.302   1.686 -0.0830 -0.1077  0.2360
  177MOL0     H24413   7.464   8.462   1.883  0.7049  1.1030  0.8656
  177MOL0     H24414   7.584   8.445   2.258 -2.0584 -2.1810  0.5189
  177MOL0     H24415   7.482   8.413   2.124 -1.2841 -1.4729  2.7447
  177MOL0     H24416   7.619   8.232   2.035 -1.3219  4.6446 -1.0592
  177MOL0     H24417   7.546   8.201   2.195  1.1139 -2.2071 -0.0250
  177MOL0     H24418   7.835   8.320   2.173 -0.3816  0.2842 -0.6266
  177MOL0     H24419   7.745   8.253   2.315 -0.7355  1.7957 -0.5903
  177MOL0     H24420   7.769   8.029   2.226  1.3001 -2.1348 -1.7638
  177MOL0     H24421   7.923   8.117   2.250 -0.6241 -0.5272 -0.1501
  177MOL0     H24422   7.995   8.049   1.860  2.4734  0.2661  0.3997
  177MOL0     H24423   7.895   8.450   1.913 -0.0368 -0.1987 -0.3645
  177MOL0     H24424   7.916   8.396   1.578 -2.7927  0.6326  1.2750
  177MOL0     H24425   8.009   8.411   1.728 -0.2372 -0.2265 -0.0161
  177MOL0     H24426   7.961   8.251   1.675 -3.1569 -1.9509  3.8178
  178MOL0     O24427  10.390   7.314  11.211  0.6165  0.3765 -0.9819
  178MOL0     C24428  10.358   7.355  11.330 -0.0484  0.5927  0.2780
  178MOL0     O24429  10.335   7.485  11.376  0.4880 -0.1326 -0.5904
  178MOL0     C24430  10.346   7.581  11.284  0.0111  0.1516  0.3879
  178MOL0     C24431  10.228   7.633  11.225  0.4747 -0.5167 -0.1764
  178MOL0     C24432  10.242   7.741  11.129  0.0349  0.5462 -0.6210
  178MOL0     C24433  10.368   7.778  11.068  0.5814 -0.9066 -1.1692
  178MOL0     O24434  10.380   7.858  10.958  0.0519 -0.5137  0.7086
  178MOL0     C24435  10.361   7.779  10.842  0.8308 -0.5092 -0.6820
  178MOL0     C24436  10.387   7.879  10.725 -0.5155  1.1391  1.1667
  178MOL0     C24437  10.281   7.987  10.710  0.5464 -0.7663 -0.0446
  178MOL0     C24438  10.213   7.943  10.579  0.3237  0.3063 -0.8683
  178MOL0     C24439  10.121   8.060  10.533  0.1805  0.3002 -0.6882
  178MOL0     C24440   9.998   8.001  10.464  0.1566  0.2592  0.2562
  178MOL0     C24441  10.023   7.904  10.342 -0.2010 -0.7675 -0.6472
  178MOL0     C24442   9.904   7.811  10.314  0.5938 -0.1559 -0.3578
  178MOL0     N24443   9.955   7.686  10.244 -1.5318 -0.0907  0.3238
  178MOL0     C24444  10.009   7.675  10.123  0.8809 -0.3424 -0.4848
  178MOL0     C24445  10.053   7.554  10.119  0.1693 -0.1686 -0.3449
  178MOL0     C24446  10.118   7.502   9.995  0.2270 -0.3451  0.2578
  178MOL0     C24447  10.096   7.355   9.966 -0.7769  0.3701  0.2224
  178MOL0     C24448   9.954   7.332   9.938 -1.0822 -0.0181 -0.2044
  178MOL0     C24449   9.906   7.347   9.799 -0.0101  0.5947 -0.3448
  178MOL0     O24450   9.973   7.464   9.732  0.2620 -0.2481 -0.3769
  178MOL0     C24451   9.919   7.496   9.617  0.5068  0.1611  0.1186
  178MOL0     C24452  10.000   7.488   9.504  1.0391 -0.7054  0.6240
  178MOL0     C24453   9.945   7.520   9.377  0.5661 -0.7667 -0.0779
  178MOL0     C24454  10.034   7.534   9.258 -0.3920 -0.3143 -0.8696
  178MOL0     C24455   9.805   7.543   9.364  0.3401 -0.4490  0.0899
  178MOL0     C24456   9.725   7.559   9.229 -0.0828  0.4439  0.5317
  178MOL0     O24457   9.785   7.520   9.112 -0.3601  0.3856  0.1806
  178MOL0     C24458   9.707   7.521   8.999  0.0129  0.3156  0.1297
  178MOL0     C24459   9.729   7.622   8.907 -0.4925 -0.1354  0.1536
  178MOL0     C24460   9.671   7.620   8.778  0.6340 -0.4349 -0.2038
  178MOL0     C24461   9.588   7.509   8.751 -0.6868  0.4255 -0.1979
  178MOL0     O24462   9.532   7.495   8.626 -0.2969  0.7403 -0.5640
  178MOL0     C24463   9.449   7.595   8.573  0.2258  0.1354 -0.5958
  178MOL0     C24464   9.325   7.626   8.656 -0.4099  0.3703 -0.1445
  178MOL0     C24465   9.227   7.700   8.574 -0.2179 -0.0039 -0.7909
  178MOL0     C24466   9.105   7.756   8.640 -0.4230  0.9154  0.4516
  178MOL0     C24467   9.050   7.869   8.553  0.4382  0.2436 -0.2556
  178MOL0     C24468   8.921   7.839   8.496  0.0864  0.1934  0.1050
  178MOL0     C24469   8.922   7.743   8.374 -0.0477  1.4393  0.1165
  178MOL0     C24470   8.787   7.703   8.318 -0.5716  0.1781 -0.3401
  178MOL0    Cl24471   8.721   7.857   8.265  0.3953 -0.6955  0.2496
  178MOL0     C24472   9.562   7.418   8.853 -0.1061  0.6504  0.3541
  178MOL0     C24473   9.614   7.423   8.979  0.3252 -0.1274 -0.7838
  178MOL0     O24474   9.608   7.576   9.251  0.8891  0.2199  0.2330
  178MOL0     C24475   9.729   7.565   9.485 -0.0582  0.1860  0.1988
  178MOL0     C24476   9.793   7.552   9.607  0.9235 -0.5580  0.0414
  178MOL0     N24477  10.028   7.489  10.231 -0.1321  0.3021 -0.2470
  178MOL0     N24478   9.969   7.567  10.315  0.5875  0.0142  1.0902
  178MOL0     C24479  10.482   7.720  11.131  0.3187 -0.6529 -0.4315
  178MOL0     C24480  10.470   7.614  11.226 -0.1686 -0.2899  1.3242
  178MOL0     C24481  10.316   7.249  11.425  0.5303  0.5000  0.7592
  178MOL0     C24482  10.203   7.282  11.503  0.8419 -0.3513 -0.8371
  178MOL0     C24483  10.142   7.184  11.582 -0.9207  0.1618  0.6908
  178MOL0     C24484  10.202   7.058  11.590 -0.9945  0.5647 -0.1330
  178MOL0     O24485  10.136   6.975  11.680  0.3005  0.1421  0.2920
  178MOL0     C24486  10.227   6.898  11.765 -0.4311  1.1748 -0.6245
  178MOL0     C24487  10.311   6.982  11.867 -0.5500  0.0163  0.2336
  178MOL0     C24488  10.380   6.882  11.965  0.3201 -1.1075 -0.7442
  178MOL0     C24489  10.408   6.956  12.100  0.8677  0.3371  0.5609
  178MOL0     C24490  10.304   7.040  12.159  0.1287 -0.7682  0.8007
  178MOL0     C24491  10.218   7.107  12.213  1.5405 -0.7839  0.3112
  178MOL0     C24492  10.309   7.018  11.503  0.3915  0.0451 -0.5094
  178MOL0     C24493  10.372   7.114  11.423 -1.0010  0.7897  0.0499
  178MOL0     C24494  10.497   7.075  11.349 -0.4947  0.2558 -0.0527
  178MOL0     H24495  10.134   7.602  11.268  0.5608  1.1585  1.3334
  178MOL0     H24496  10.150   7.791  11.097 -1.0251 -0.2998  0.9619
  178MOL0     H24497  10.264   7.730  10.831  1.5676 -2.1259 -0.3784
  178MOL0     H24498  10.442   7.705  10.845  1.8992  0.6447  0.7418
  178MOL0     H24499  10.486   7.925  10.735  2.3190 -3.9525  0.1084
  178MOL0     H24500  10.419   7.823  10.636  0.3424  3.7132 -0.2581
  178MOL0     H24501  10.208   7.967  10.789  1.3572 -2.5686  0.3130
  178MOL0     H24502  10.323   8.087  10.721 -2.4586  0.3174  3.8266
  178MOL0     H24503  10.292   7.946  10.503 -0.8133  0.2076 -2.0882
  178MOL0     H24504  10.171   7.842  10.586 -1.2353  1.0095  0.8142
  178MOL0     H24505  10.167   8.129  10.462  0.3203  1.5647  0.5787
  178MOL0     H24506  10.100   8.124  10.620 -0.4258 -3.7981  2.4640
  178MOL0     H24507   9.925   7.959  10.534 -1.6283  3.5721  0.5735
  178MOL0     H24508   9.955   8.097  10.435  0.7221  0.1894 -0.8854
  178MOL0     H24509  10.102   7.835  10.377  1.1902  1.0721  0.0131
  178MOL0     H24510  10.060   7.959  10.256  1.4411 -2.5734 -1.1803
  178MOL0     H24511   9.850   7.788  10.406  1.8669 -3.0568 -0.2488
  178MOL0     H24512   9.820   7.853  10.258 -0.2259 -0.7569  0.3949
  178MOL0     H24513  10.030   7.758  10.057  1.6550  0.1855  0.3867
  178MOL0     H24514  10.227   7.506  10.003  0.2048  2.0802  0.0763
  178MOL0     H24515  10.099   7.562   9.906  3.4034  1.1192  0.4278
  178MOL0     H24516  10.150   7.317   9.880 -1.5362  1.4531 -0.7616
  178MOL0     H24517  10.139   7.309  10.056  1.0738 -0.5908 -1.0844
  178MOL0     H24518   9.949   7.226   9.965  3.6788 -0.2107  0.8407
  178MOL0     H24519   9.890   7.387  10.007 -2.8472  0.8851 -2.4355
  178MOL0     H24520   9.931   7.251   9.752  1.0366  0.2752  0.7926
  178MOL0     H24521   9.797   7.349   9.800 -0.1333  1.6377 -3.5862
  178MOL0     H24522  10.101   7.450   9.518  1.8507  1.0678 -0.1357
  178MOL0     H24523  10.134   7.556   9.297 -0.0993 -1.0919 -1.1781
  178MOL0     H24524   9.998   7.625   9.209  0.1413  1.9975  2.6368
  178MOL0     H24525  10.028   7.451   9.187 -3.9579 -0.8605 -0.1314
  178MOL0     H24526   9.807   7.692   8.936 -1.2116  1.1179 -0.8251
  178MOL0     H24527   9.689   7.683   8.692  2.7974 -1.6880 -0.7287
  178MOL0     H24528   9.509   7.686   8.562  0.4415  0.0940  0.1948
  178MOL0     H24529   9.411   7.550   8.481 -3.4216 -0.0061  0.7771
  178MOL0     H24530   9.286   7.531   8.693  1.9954 -0.6547 -0.0235
  178MOL0     H24531   9.346   7.664   8.756  1.9202 -2.8109  0.7341
  178MOL0     H24532   9.194   7.626   8.500 -2.3671 -1.8868  1.8427
  178MOL0     H24533   9.293   7.779   8.536  0.6413 -0.4639 -0.2799
  178MOL0     H24534   9.139   7.783   8.741  0.6765 -0.6801  0.5472
  178MOL0     H24535   9.035   7.676   8.667 -3.3433  3.2151  0.1364
  178MOL0     H24536   9.040   7.956   8.618  2.1095  0.4851 -0.2705
  178MOL0     H24537   9.121   7.894   8.474  0.4303  2.3768  0.3596
  178MOL0     H24538   8.885   7.938   8.466  1.6151  1.2424  1.5621
  178MOL0     H24539   8.847   7.789   8.559  1.6940  1.4719  3.2002
  178MOL0     H24540   8.974   7.648   8.394 -1.5238  0.6361  0.2532
  178MOL0     H24541   8.986   7.795   8.302 -0.6164  1.1803 -0.5837
  178MOL0     H24542   8.717   7.656   8.388  1.0237 -2.5267 -0.4198
  178MOL0     H24543   8.795   7.632   8.234 -3.4203 -0.4540 -0.1829
  178MOL0     H24544   9.498   7.333   8.832 -1.2154  0.9550  2.2978
  178MOL0     H24545   9.598   7.358   9.065 -0.5033  0.7050 -0.2929
  178MOL0     H24546   9.628   7.604   9.486  0.7354  2.6787 -2.5896
  178MOL0     H24547   9.744   7.588   9.697  0.2467 -0.7654 -0.2362
  178MOL0     H24548  10.579   7.748  11.093  0.3876  0.9302  0.8113
  178MOL0     H24549  10.560   7.565  11.262  0.8274  3.5056  4.8081
  178MOL0     H24550  10.160   7.381  11.504  0.1153 -0.6602  0.9605
  178MOL0     H24551  10.050   7.211  11.631 -0.8779  2.2677 -0.2639
  178MOL0     H24552  10.169   6.819  11.814 -1.0224  1.1937 -1.2869
  178MOL0     H24553  10.296   6.840  11.702 -3.3560 -1.3935 -1.7152
  178MOL0     H24554  10.246   7.052  11.921  0.1745 -1.3911  3.1130
  178MOL0     H24555  10.393   7.028  11.810 -1.1365  1.1348  0.2725
  178MOL0     H24556  10.304   6.812  12.003  0.0217 -0.0390  0.7139
  178MOL0     H24557  10.466   6.828  11.923  0.2091 -1.6414 -0.2977
  178MOL0     H24558  10.503   7.008  12.107  0.8616  0.1114  4.0185
  178MOL0     H24559  10.442   6.873  12.163  0.2640 -0.5055 -0.1993
  178MOL0     H24560  10.141   7.173  12.246 -0.1300 -1.7490 -1.4473
  178MOL0     H24561  10.355   6.920  11.500 -2.0221 -1.1502 -1.2293
  178MOL0     H24562  10.498   6.981  11.293 -1.5458 -0.0488  0.4122
  178MOL0     H24563  10.527   7.152  11.277  0.5708  0.8414  1.0010
  178MOL0     H24564  10.583   7.066  11.416  1.1792 -1.5752 -2.2723
  179MOL0     O24565   9.338   9.587   6.956 -1.0998 -0.0026  0.2439
  179MOL0     C24566   9.221   9.555   6.938  0.4265  0.5002 -0.1130
  179MOL0     O24567   9.161   9.538   6.814 -0.1454  0.6230  0.1761
  179MOL0     C24568   9.256   9.560   6.717 -0.0839 -0.2926  0.4043
  179MOL0     C24569   9.267   9.684   6.645  0.5288  0.5690  0.3693
  179MOL0     C24570   9.354   9.704   6.534  0.5461 -0.0406 -0.0176
  179MOL0     C24571   9.452   9.601   6.507 -0.0438  0.3793 -0.7999
  179MOL0     O24572   9.535   9.611   6.391  0.9952  0.4582 -0.2308
  179MOL0     C24573   9.579   9.501   6.316  0.8115 -0.2254  0.8739
  179MOL0     C24574   9.493   9.475   6.187  0.0324  0.8911 -0.5463
  179MOL0     C24575   9.500   9.567   6.066 -0.2705 -0.9871  0.6686
  179MOL0     C24576   9.485   9.497   5.934  0.0108 -0.2359 -0.0801
  179MOL0     C24577   9.486   9.610   5.823 -0.3110 -0.5816  0.0431
  179MOL0     C24578   9.619   9.680   5.806 -0.2853  0.6580 -1.2902
  179MOL0     C24579   9.632   9.769   5.672 -0.6600 -0.1577  0.2874
  179MOL0     C24580   9.498   9.827   5.603 -0.8094 -0.5018  0.3261
  179MOL0     N24581   9.481   9.962   5.653  0.0150 -0.3392  0.7387
  179MOL0     C24582   9.416  10.004   5.765  0.1396 -0.1151 -1.5644
  179MOL0     C24583   9.430  10.140   5.765 -0.4521 -0.0293 -0.0215
  179MOL0     C24584   9.368  10.242   5.854  0.0762  0.0743  0.3791
  179MOL0     C24585   9.250  10.197   5.949  0.6728  0.3900  0.8803
  179MOL0     C24586   9.135  10.162   5.851 -0.2913  0.6444  0.6665
  179MOL0     C24587   9.023  10.072   5.899  0.5567 -0.1223  0.7988
  179MOL0     O24588   9.086   9.952   5.961  0.2269 -0.8664 -0.5587
  179MOL0     C24589   9.002   9.849   6.000 -1.3919 -0.7926  0.3180
  179MOL0     C24590   9.075   9.738   6.044  0.7351  0.0262 -0.3586
  179MOL0     C24591   9.007   9.628   6.100 -0.0687  0.3932  0.6666
  179MOL0     C24592   9.087   9.506   6.147 -0.1721 -0.4340 -0.3636
  179MOL0     C24593   8.870   9.613   6.097 -0.5266  0.6317  0.3468
  179MOL0     C24594   8.801   9.499   6.147  0.0032 -0.6030  0.1468
  179MOL0     O24595   8.864   9.408   6.238 -0.3074 -0.2121  0.2427
  179MOL0     C24596   8.780   9.293   6.263 -0.7595  0.4811 -0.9186
  179MOL0     C24597   8.813   9.191   6.173 -0.1235  0.0919  0.3701
  179MOL0     C24598   8.738   9.070   6.173 -0.8481 -0.5755 -0.4465
  179MOL0     C24599   8.630   9.062   6.273 -0.4765  1.3806  0.5317
  179MOL0     O24600   8.545   8.952   6.275 -0.3864 -0.0443  0.6509
  179MOL0     C24601   8.602   8.820   6.268  0.7004 -0.3569  0.1428
  179MOL0     C24602   8.492   8.725   6.236  0.4215  0.4842  0.1472
  179MOL0     C24603   8.552   8.582   6.233  0.4863 -0.2743  0.0752
  179MOL0     C24604   8.611   8.549   6.088 -0.1829 -0.3270  0.6370
  179MOL0     C24605   8.663   8.407   6.082  0.5375 -0.5190 -0.0759
  179MOL0     C24606   8.753   8.356   6.188  0.6227  0.5615 -0.0016
  179MOL0     C24607   8.784   8.214   6.153  0.3459  1.4735 -0.5115
  179MOL0     C24608   8.883   8.149   6.248  0.5185 -0.0552 -1.1264
  179MOL0    Cl24609   8.797   8.106   6.407  0.1999  0.7763 -0.1372
  179MOL0     C24610   8.585   9.163   6.350  0.3834  1.2907  1.5688
  179MOL0     C24611   8.666   9.284   6.343  1.1409 -0.2675 -1.2352
  179MOL0     O24612   8.687   9.483   6.091 -0.5107 -0.2859  0.5052
  179MOL0     C24613   8.804   9.725   6.039 -0.6743 -0.0085 -1.3021
  179MOL0     C24614   8.870   9.841   6.007  0.7435 -1.1697  1.1028
  179MOL0     N24615   9.510  10.171   5.658  0.0470 -1.3079 -0.0617
  179MOL0     N24616   9.533  10.074   5.580 -0.5393  0.0050 -0.7655
  179MOL0     C24617   9.443   9.482   6.584 -0.9047  0.6245  0.0161
  179MOL0     C24618   9.341   9.461   6.673 -0.4236  0.4104 -0.0328
  179MOL0     C24619   9.151   9.506   7.054  0.2031  0.3220 -1.1335
  179MOL0     C24620   9.087   9.607   7.121 -0.5847 -0.6556 -0.2718
  179MOL0     C24621   9.031   9.594   7.248 -0.3063 -0.0163  0.7013
  179MOL0     C24622   9.050   9.467   7.305 -0.4739  1.1787 -0.2179
  179MOL0     O24623   9.004   9.438   7.434  0.5307  1.2421 -0.2334
  179MOL0     C24624   9.041   9.523   7.541 -0.9678 -0.6012 -0.5566
  179MOL0     C24625   8.921   9.562   7.621 -0.3516  1.1073 -0.8894
  179MOL0     C24626   8.869   9.452   7.717  0.7576  0.3278 -0.3390
  179MOL0     C24627   8.714   9.443   7.743  0.4280  0.0771  0.4925
  179MOL0     C24628   8.645   9.427   7.617 -0.3761  0.2505  0.2948
  179MOL0     C24629   8.606   9.425   7.504 -0.0701  0.2054  0.0958
  179MOL0     C24630   9.112   9.360   7.238  0.2441  0.3333 -0.5302
  179MOL0     C24631   9.152   9.373   7.109 -0.3318  0.2034  0.4282
  179MOL0     C24632   9.231   9.265   7.042 -0.4994 -0.0110  0.4191
  179MOL0     H24633   9.200   9.762   6.678 -1.2668 -0.4528 -0.7391
  179MOL0     H24634   9.350   9.795   6.475  0.7253  0.9245  1.4084
  179MOL0     H24635   9.591   9.405   6.368  2.9225 -1.2068 -1.2005
  179MOL0     H24636   9.681   9.533   6.291  0.7141 -1.1390 -0.8605
  179MOL0     H24637   9.530   9.381   6.145  1.0040  0.9010  0.2483
  179MOL0     H24638   9.396   9.460   6.233  0.3907 -2.5916 -0.6931
  179MOL0     H24639   9.426   9.647   6.072  3.1153  2.5073  0.5214
  179MOL0     H24640   9.598   9.615   6.057 -0.5978 -0.6637 -2.0133
  179MOL0     H24641   9.563   9.425   5.909 -0.0958  0.5114 -3.0072
  179MOL0     H24642   9.386   9.451   5.934 -1.3943  2.5097 -1.1189
  179MOL0     H24643   9.400   9.676   5.841  0.8523  1.2633 -0.8000
  179MOL0     H24644   9.472   9.558   5.728 -2.0905  1.0235 -0.6378
  179MOL0     H24645   9.650   9.755   5.879  0.6360 -1.1646  0.2692
  179MOL0     H24646   9.688   9.596   5.790  1.1442  1.3820  0.6744
  179MOL0     H24647   9.668   9.693   5.601 -1.2294 -1.6801  1.5551
  179MOL0     H24648   9.709   9.846   5.681 -2.1718  1.4596 -0.0841
  179MOL0     H24649   9.524   9.822   5.497 -1.5475 -0.5990  0.1411
  179MOL0     H24650   9.405   9.769   5.597 -1.5265  0.6335  0.1009
  179MOL0     H24651   9.356   9.946   5.834  0.8073 -2.1051 -2.5595
  179MOL0     H24652   9.328  10.320   5.789 -2.4787  0.5022  2.3213
  179MOL0     H24653   9.445  10.289   5.916  0.8274 -0.9167  0.2319
  179MOL0     H24654   9.286  10.110   6.004  1.3225 -0.7098 -1.1623
  179MOL0     H24655   9.233  10.281   6.016  0.2591  2.7192 -1.9249
  179MOL0     H24656   9.091  10.260   5.831  1.5473  1.6890  1.4927
  179MOL0     H24657   9.172  10.115   5.759 -0.7004  1.6890 -0.0436
  179MOL0     H24658   8.967  10.126   5.976  1.1346 -0.2086  1.2809
  179MOL0     H24659   8.961  10.044   5.813 -1.8167  5.3470  0.2944
  179MOL0     H24660   9.183   9.748   6.050  0.4606  3.4791  1.4492
  179MOL0     H24661   9.062   9.419   6.087 -1.1608 -0.2168 -0.2761
  179MOL0     H24662   9.087   9.473   6.252 -0.7354 -0.3802 -0.3458
  179MOL0     H24663   9.194   9.529   6.144 -0.0626  0.4320  3.6296
  179MOL0     H24664   8.896   9.214   6.108  0.5992  0.6848  1.4692
  179MOL0     H24665   8.765   8.984   6.113  0.4272 -0.0376 -0.6719
  179MOL0     H24666   8.683   8.802   6.197 -1.2698  0.4595 -2.4797
  179MOL0     H24667   8.632   8.799   6.371 -0.1136  1.5322  0.8084
  179MOL0     H24668   8.414   8.741   6.311  2.6034  0.5257  2.5373
  179MOL0     H24669   8.464   8.753   6.134  5.5284  2.4859 -0.9890
  179MOL0     H24670   8.478   8.506   6.258 -0.1355  0.5313  0.7606
  179MOL0     H24671   8.635   8.579   6.305  0.2546  0.2450  0.3742
  179MOL0     H24672   8.685   8.622   6.054  0.7265 -1.5784 -0.1686
  179MOL0     H24673   8.528   8.556   6.017 -0.8744 -0.6482  1.4085
  179MOL0     H24674   8.576   8.340   6.082 -0.5855  0.8864 -0.9276
  179MOL0     H24675   8.711   8.399   5.984 -0.3841  2.7795 -0.8975
  179MOL0     H24676   8.707   8.370   6.287  2.3348  0.5054  0.8383
  179MOL0     H24677   8.841   8.421   6.185  3.7276 -3.2480  0.1159
  179MOL0     H24678   8.814   8.211   6.048 -1.8129 -1.0044 -1.1916
  179MOL0     H24679   8.696   8.148   6.158  0.3196  1.5876  1.3034
  179MOL0     H24680   8.968   8.216   6.261  1.1197 -1.2132  1.5719
  179MOL0     H24681   8.926   8.058   6.204  0.6829 -0.4369 -0.1891
  179MOL0     H24682   8.493   9.157   6.408 -1.9752 -0.6055 -1.9623
  179MOL0     H24683   8.623   9.368   6.397 -2.8483 -0.4246 -3.7051
  179MOL0     H24684   8.695   9.728   6.039 -0.7631  4.4646 -3.9105
  179MOL0     H24685   8.816   9.929   5.975  1.2208 -0.9393  0.9153
  179MOL0     H24686   9.502   9.397   6.549  2.8585  2.9126  0.2275
  179MOL0     H24687   9.338   9.359   6.710  0.4124  0.3748 -0.0494
  179MOL0     H24688   9.077   9.714   7.102  1.3853 -0.5603 -1.0234
  179MOL0     H24689   8.968   9.671   7.290  1.5265  2.5213 -0.9243
  179MOL0     H24690   9.111   9.467   7.604 -2.5868 -0.9937  0.9476
  179MOL0     H24691   9.078   9.619   7.504 -1.1695  2.7533  6.3815
  179MOL0     H24692   8.834   9.589   7.560 -3.6962 -5.3403  0.0763
  179MOL0     H24693   8.952   9.634   7.697  1.3696  1.5076 -1.9191
  179MOL0     H24694   8.899   9.359   7.668 -5.1271 -0.3181 -3.7998
  179MOL0     H24695   8.908   9.465   7.818 -2.5212  0.3631  1.0382
  179MOL0     H24696   8.677   9.537   7.785  1.0992  1.2860 -1.4708
  179MOL0     H24697   8.687   9.371   7.820  4.0655 -0.1548  1.7536
  179MOL0     H24698   8.565   9.417   7.406  1.4831  2.9696 -0.9038
  179MOL0     H24699   9.109   9.265   7.290  2.5526 -1.2980 -3.0275
  179MOL0     H24700   9.241   9.171   7.097 -1.4827 -2.6827 -3.5436
  179MOL0     H24701   9.200   9.238   6.941  2.4540 -0.1081 -0.5546
  179MOL0     H24702   9.327   9.317   7.043 -0.9908  1.2177 -3.0330
  180MOL0     O24703   7.175   1.291  11.410  0.0184 -0.4269 -0.4448
  180MOL0     C24704   7.070   1.235  11.451  0.3071 -0.3999 -0.2820
  180MOL0     O24705   6.988   1.153  11.376 -0.5286  0.3420  0.0401
  180MOL0     C24706   7.015   1.124  11.245  0.1219 -0.4474  0.4656
  180MOL0     C24707   7.133   1.083  11.188  0.2666  0.7721  0.1555
  180MOL0     C24708   7.133   1.061  11.049  0.6121  0.6062 -0.3374
  180MOL0     C24709   7.021   1.105  10.972 -0.1038  0.1518  0.0434
  180MOL0     O24710   7.028   1.085  10.840 -1.1393  0.7193 -0.3758
  180MOL0     C24711   7.024   1.200  10.755 -0.0226 -0.3680 -1.3010
  180MOL0     C24712   7.152   1.220  10.663  0.6664 -0.4481 -0.5325
  180MOL0     C24713   7.197   1.097  10.592 -0.1687  0.1635 -0.7935
  180MOL0     C24714   7.326   1.140  10.513  0.0284  1.3234 -0.3843
  180MOL0     C24715   7.412   1.254  10.572  0.8194 -0.2141  0.3391
  180MOL0     C24716   7.549   1.262  10.504  0.6694 -1.0610  0.1163
  180MOL0     C24717   7.558   1.307  10.355  0.4173 -0.3877  0.4423
  180MOL0     C24718   7.700   1.301  10.287 -0.1773 -0.1153 -0.4555
  180MOL0     N24719   7.686   1.383  10.159 -0.3783 -0.3618 -0.8423
  180MOL0     C24720   7.684   1.516  10.145  0.2333  0.6080 -0.8157
  180MOL0     C24721   7.637   1.529  10.013 -1.6228 -0.2008 -1.1775
  180MOL0     C24722   7.641   1.655   9.922 -0.1465  0.2291  0.0491
  180MOL0     C24723   7.520   1.660   9.814 -0.8400  0.3934  0.2434
  180MOL0     C24724   7.556   1.576   9.699  0.6584 -0.6112  0.5032
  180MOL0     C24725   7.557   1.638   9.558  0.1325  0.4610  0.3125
  180MOL0     O24726   7.443   1.698   9.523  0.7145  0.4120  0.3027
  180MOL0     C24727   7.325   1.632   9.524 -0.1870  0.4052  0.4450
  180MOL0     C24728   7.211   1.695   9.559  0.2010 -0.4233 -0.6687
  180MOL0     C24729   7.085   1.639   9.557 -0.4410  0.8246  0.4039
  180MOL0     C24730   6.964   1.707   9.603 -0.3277  0.2004 -0.4669
  180MOL0     C24731   7.079   1.503   9.515 -0.2624 -0.2697 -0.2310
  180MOL0     C24732   6.951   1.429   9.498 -0.4964  0.1947 -0.8446
  180MOL0     O24733   6.946   1.307   9.566 -0.2238 -0.2498 -1.1341
  180MOL0     C24734   6.826   1.243   9.557 -0.0952 -0.5222  0.3525
  180MOL0     C24735   6.734   1.278   9.658 -0.0500 -0.5975  0.1975
  180MOL0     C24736   6.610   1.224   9.664  0.4336  0.0871  0.2142
  180MOL0     C24737   6.583   1.132   9.563 -0.4607  0.0921  1.1436
  180MOL0     O24738   6.465   1.064   9.537  0.2639  0.4495 -0.3539
  180MOL0     C24739   6.367   1.043   9.640  0.0502 -0.1927 -0.2566
  180MOL0     C24740   6.250   1.145   9.632  0.0788  0.5572 -0.4504
  180MOL0     C24741   6.213   1.212   9.767 -0.0541 -0.9438  0.0130
  180MOL0     C24742   6.149   1.128   9.873 -0.4377  0.4528  0.3039
  180MOL0     C24743   6.053   1.215   9.964 -0.2156  0.1063 -0.1295
  180MOL0     C24744   6.007   1.142  10.084  0.5382 -0.6944 -0.7564
  180MOL0     C24745   6.110   1.075  10.169 -0.4281  0.9580  0.4174
  180MOL0     C24746   6.217   1.168  10.222  0.1324  0.4670  0.2267
  180MOL0    Cl24747   6.318   1.066  10.323  0.7138  0.1389 -0.1417
  180MOL0     C24748   6.672   1.096   9.463  0.7888  0.0012  0.4049
  180MOL0     C24749   6.798   1.151   9.453 -0.7694  0.4677  0.0327
  180MOL0     O24750   6.856   1.469   9.428 -0.8410  0.1432 -0.3415
  180MOL0     C24751   7.197   1.436   9.475 -0.8365 -1.1364 -0.7155
  180MOL0     C24752   7.323   1.498   9.479 -0.1316  0.0335  1.0669
  180MOL0     N24753   7.618   1.401   9.965 -0.1056  0.5168  0.6402
  180MOL0     N24754   7.639   1.314  10.053 -0.3181  0.7080 -1.0163
  180MOL0     C24755   6.906   1.152  11.031  0.7075  0.2501 -0.7200
  180MOL0     C24756   6.903   1.155  11.169 -0.0059 -0.1445  0.0966
  180MOL0     C24757   7.042   1.263  11.595  0.3731  0.1951 -0.7971
  180MOL0     C24758   7.080   1.184  11.709  0.6303 -0.4902  0.7240
  180MOL0     C24759   7.060   1.210  11.843  0.5108  0.1521 -0.1293
  180MOL0     C24760   6.993   1.330  11.876  0.4752 -0.0461 -0.0361
  180MOL0     O24761   6.967   1.353  12.009  0.0268 -0.2165 -1.0026
  180MOL0     C24762   7.018   1.478  12.069 -0.8834  0.1525 -0.2332
  180MOL0     C24763   7.106   1.463  12.196  0.3882  0.2603  0.0079
  180MOL0     C24764   7.034   1.415  12.314  0.3077 -0.3384 -0.7979
  180MOL0     C24765   6.905   1.483  12.362  0.1769 -1.5827  0.6268
  180MOL0     C24766   6.933   1.624  12.411 -0.3492  0.7222  0.8288
  180MOL0     C24767   6.955   1.740  12.450  0.0194 -0.0863 -0.0034
  180MOL0     C24768   6.955   1.421  11.770 -0.4881  0.1582 -0.1399
  180MOL0     C24769   6.976   1.375  11.637  0.5273 -0.6705 -0.5940
  180MOL0     C24770   6.889   1.456  11.531 -0.2453  0.0020 -0.6471
  180MOL0     H24771   7.223   1.048  11.237 -0.1526 -2.0758 -0.8995
  180MOL0     H24772   7.226   1.033  10.999  2.0242  1.2552  1.8236
  180MOL0     H24773   7.005   1.295  10.806  0.8795 -1.2534  0.8193
  180MOL0     H24774   6.948   1.172  10.682 -1.2176 -0.5480 -0.0296
  180MOL0     H24775   7.127   1.302  10.594 -0.4640  1.8885  2.4473
  180MOL0     H24776   7.225   1.251  10.738  0.7772  1.8885 -1.5068
  180MOL0     H24777   7.218   1.022  10.668  1.4211  1.9620  0.6590
  180MOL0     H24778   7.118   1.061  10.526 -1.6767  0.5614  0.7035
  180MOL0     H24779   7.389   1.051  10.515 -0.6901  0.7897 -0.9382
  180MOL0     H24780   7.286   1.155  10.413 -0.0314 -2.1056 -0.9734
  180MOL0     H24781   7.431   1.224  10.676 -0.7208  0.3457  0.8071
  180MOL0     H24782   7.354   1.346  10.570 -0.8937 -1.2699 -0.0837
  180MOL0     H24783   7.612   1.325  10.568 -1.1916 -1.6252  2.6542
  180MOL0     H24784   7.587   1.159  10.500 -1.5220 -2.1034  2.7262
  180MOL0     H24785   7.528   1.412  10.359  1.0207 -0.1828 -0.1568
  180MOL0     H24786   7.484   1.257  10.292 -0.8410  0.0158  1.5713
  180MOL0     H24787   7.772   1.354  10.351 -0.8087  1.8716 -1.3054
  180MOL0     H24788   7.724   1.195  10.273 -1.1072 -0.5004  0.6663
  180MOL0     H24789   7.725   1.591  10.211  0.2510  1.2186 -1.5060
  180MOL0     H24790   7.737   1.657   9.871  1.7624 -3.7864  2.9572
  180MOL0     H24791   7.622   1.743   9.984 -1.5569  0.8477 -1.1733
  180MOL0     H24792   7.437   1.609   9.864 -1.5546 -1.2874 -2.4334
  180MOL0     H24793   7.479   1.757   9.784  0.2074 -0.1601 -3.5215
  180MOL0     H24794   7.654   1.532   9.720 -0.6199 -2.9593  2.0886
  180MOL0     H24795   7.497   1.483   9.699  3.4669 -2.5274  0.8942
  180MOL0     H24796   7.649   1.697   9.559 -1.3679  2.9305  1.6255
  180MOL0     H24797   7.578   1.553   9.492  1.2035  1.6259 -0.8987
  180MOL0     H24798   7.207   1.801   9.586 -0.0180 -1.2770  3.3586
  180MOL0     H24799   6.986   1.796   9.661 -0.2557 -0.5171  0.6245
  180MOL0     H24800   6.898   1.654   9.673  0.3217  0.9428  0.7333
  180MOL0     H24801   6.912   1.735   9.510 -0.5954 -1.4407 -0.8483
  180MOL0     H24802   6.768   1.345   9.737 -2.9940  2.6601 -1.0608
  180MOL0     H24803   6.547   1.259   9.746 -0.6346  2.4950 -1.5265
  180MOL0     H24804   6.331   0.941   9.629  0.5924 -0.3231 -0.8382
  180MOL0     H24805   6.397   1.034   9.745 -0.3449 -0.2937 -0.1494
  180MOL0     H24806   6.263   1.233   9.569 -0.5863 -0.5200 -2.1456
  180MOL0     H24807   6.165   1.087   9.595 -0.3310  1.4877 -0.9897
  180MOL0     H24808   6.146   1.296   9.752 -0.0400 -0.7204  1.1290
  180MOL0     H24809   6.297   1.260   9.818  1.0338 -1.1958 -1.4442
  180MOL0     H24810   6.228   1.071   9.923 -0.9121 -0.5879 -0.1123
  180MOL0     H24811   6.090   1.052   9.820  0.5974  0.5544 -1.0337
  180MOL0     H24812   6.082   1.315  10.000  0.4369 -0.1573  0.0867
  180MOL0     H24813   5.962   1.248   9.913  0.4837  2.0999 -0.2037
  180MOL0     H24814   5.936   1.068  10.046  0.2789 -1.4829  1.1318
  180MOL0     H24815   5.964   1.218  10.150 -1.3566 -0.1086 -2.5394
  180MOL0     H24816   6.164   1.000  10.109 -1.7854 -0.8069  1.3025
  180MOL0     H24817   6.068   1.015  10.250  0.0659 -1.1456 -0.7932
  180MOL0     H24818   6.167   1.244  10.283  1.5889 -1.2949  3.9090
  180MOL0     H24819   6.271   1.220  10.143  0.6865 -2.2358 -1.2987
  180MOL0     H24820   6.629   1.029   9.389  1.6671  0.2702 -0.3752
  180MOL0     H24821   6.876   1.128   9.381  1.9274  0.4054  2.7413
  180MOL0     H24822   7.192   1.333   9.439 -0.0173 -1.3980 -0.1098
  180MOL0     H24823   7.418   1.450   9.457  2.1331  3.1857  3.0189
  180MOL0     H24824   6.825   1.173  10.963  0.4809 -3.3574 -1.7760
  180MOL0     H24825   6.807   1.186  11.209  0.8658  1.4088  1.0680
  180MOL0     H24826   7.126   1.095  11.667 -1.6561 -1.1988 -0.4922
  180MOL0     H24827   7.109   1.151  11.920 -0.5734 -0.6465 -0.0326
  180MOL0     H24828   7.082   1.538  12.003  3.1721 -1.2233  2.0907
  180MOL0     H24829   6.940   1.550  12.095 -0.3278  0.2424  1.3032
  180MOL0     H24830   7.145   1.562  12.224 -1.5053  1.1987 -0.4849
  180MOL0     H24831   7.190   1.401  12.165  1.7015  1.9718  0.0127
  180MOL0     H24832   7.004   1.310  12.304 -0.2939 -0.5677  2.2645
  180MOL0     H24833   7.111   1.410  12.392  1.3873  2.0386 -1.6080
  180MOL0     H24834   6.859   1.426  12.443 -2.3917 -0.8374 -0.2098
  180MOL0     H24835   6.832   1.490  12.282 -1.2539 -0.4813  1.9568
  180MOL0     H24836   6.974   1.843  12.471  1.1320 -0.4492  0.9016
  180MOL0     H24837   6.900   1.508  11.807 -1.1952 -0.2904 -0.1262
  180MOL0     H24838   6.820   1.522  11.585 -0.5856 -0.2516 -0.7705
  180MOL0     H24839   6.948   1.526  11.472 -1.4054  0.3394 -1.4376
  180MOL0     H24840   6.829   1.391  11.467 -1.9723  1.2337 -0.3519
  181MOL0     O24841   1.311  10.183   9.495  0.6809 -0.5204  0.2417
  181MOL0     C24842   1.398  10.215   9.415  0.4337 -0.0810 -0.2750
  181MOL0     O24843   1.417  10.155   9.300  0.9907 -0.0371 -0.5427
  181MOL0     C24844   1.329  10.061   9.242  0.8327  0.0900 -0.7716
  181MOL0     C24845   1.253  10.080   9.122  0.4701 -0.1793 -0.3973
  181MOL0     C24846   1.168   9.995   9.073  0.4456 -0.0652  0.2217
  181MOL0     C24847   1.147   9.874   9.131 -0.0063  0.6431 -0.1596
  181MOL0     O24848   1.051   9.793   9.079  0.2943  0.2102  0.3021
  181MOL0     C24849   0.921   9.792   9.141 -0.0632  0.0979  0.4370
  181MOL0     C24850   0.860   9.654   9.102  0.4550  0.9014 -0.5323
  181MOL0     C24851   0.902   9.525   9.182 -0.2327 -0.7719 -0.5896
  181MOL0     C24852   0.836   9.392   9.138 -0.7305 -0.7883 -0.1739
  181MOL0     C24853   0.922   9.279   9.190 -0.4465 -0.0683  1.3150
  181MOL0     C24854   0.850   9.150   9.157  0.3233  0.3469  0.5519
  181MOL0     C24855   0.925   9.018   9.190 -0.3201  0.3271  0.5792
  181MOL0     C24856   1.048   9.019   9.101  1.0066  0.9569 -0.7951
  181MOL0     N24857   1.107   8.888   9.129 -0.1999 -0.1153  0.2347
  181MOL0     C24858   1.140   8.833   9.256 -0.9491 -0.3164 -0.0364
  181MOL0     C24859   1.181   8.707   9.230  0.2741 -0.6347  0.1270
  181MOL0     C24860   1.221   8.603   9.333  0.4444 -0.5725  0.1172
  181MOL0     C24861   1.104   8.551   9.416 -1.2231  0.7871  1.1323
  181MOL0     C24862   1.063   8.637   9.529  0.5929  0.5865  0.3209
  181MOL0     C24863   0.924   8.592   9.594  0.4217  0.3097 -0.7025
  181MOL0     O24864   0.809   8.622   9.516 -0.1811 -0.4895 -0.6587
  181MOL0     C24865   0.762   8.748   9.500 -0.1336 -0.3878  0.2805
  181MOL0     C24866   0.664   8.764   9.401 -0.1338 -0.4397  0.5847
  181MOL0     C24867   0.594   8.881   9.377  0.4120 -0.3612  0.0221
  181MOL0     C24868   0.487   8.869   9.276 -0.5691 -0.6085 -0.2983
  181MOL0     C24869   0.612   8.991   9.461  0.0322 -0.8935  0.4749
  181MOL0     C24870   0.532   9.117   9.454 -0.9869 -0.4785 -0.7255
  181MOL0     O24871   0.541   9.201   9.561 -0.3464  0.0562 -0.2256
  181MOL0     C24872   0.490   9.331   9.543  0.3230  0.1563 -0.5799
  181MOL0     C24873   0.396   9.375   9.646 -0.2100 -0.3477  0.3429
  181MOL0     C24874   0.353   9.506   9.642  0.6903  0.5857 -0.3407
  181MOL0     C24875   0.392   9.599   9.546  0.6541  0.4900  0.8917
  181MOL0     O24876   0.352   9.729   9.533 -0.3567 -0.9401 -1.2570
  181MOL0     C24877   0.319   9.799   9.659 -0.3002 -0.2502  0.9468
  181MOL0     C24878   0.285   9.945   9.640  0.1013 -0.3057 -0.2366
  181MOL0     C24879   0.157   9.959   9.551 -0.8235 -0.6817  0.0605
  181MOL0     C24880   0.185  10.011   9.415  0.2428 -0.0110 -0.4248
  181MOL0     C24881   0.055  10.042   9.348  0.1136  0.5633 -0.2090
  181MOL0     C24882   0.071  10.049   9.193  1.0198 -0.5760 -0.1470
  181MOL0     C24883   0.104  10.203   9.166 -0.0313  0.1817  0.3669
  181MOL0     C24884   0.130  10.234   9.014  0.0529 -0.2186  0.3042
  181MOL0    Cl24885   0.299  10.202   8.970  0.0692  0.5954  0.1723
  181MOL0     C24886   0.482   9.558   9.449 -0.3797  0.3032 -0.0001
  181MOL0     C24887   0.526   9.425   9.447 -0.4670  0.5197 -0.5338
  181MOL0     O24888   0.470   9.138   9.352  0.4681 -1.2974  0.1816
  181MOL0     C24889   0.732   8.979   9.544  0.1185 -0.2328  0.5626
  181MOL0     C24890   0.805   8.868   9.570 -0.5619 -0.1728 -0.4601
  181MOL0     N24891   1.178   8.680   9.095  0.2107 -0.3733 -0.1481
  181MOL0     N24892   1.128   8.792   9.040  0.4699 -0.5581 -1.1601
  181MOL0     C24893   1.216   9.847   9.251  0.3507 -0.5542  0.2050
  181MOL0     C24894   1.310   9.939   9.300  0.0722 -0.0903  0.1879
  181MOL0     C24895   1.512  10.292   9.468 -0.2175 -0.4394 -0.4846
  181MOL0     C24896   1.639  10.270   9.405 -0.2525  1.1511  0.1214
  181MOL0     C24897   1.757  10.316   9.461 -0.3077  0.4531  0.0590
  181MOL0     C24898   1.749  10.405   9.567 -0.2634  0.1847 -0.3125
  181MOL0     O24899   1.847  10.453   9.652 -0.2150 -0.0591 -0.5901
  181MOL0     C24900   1.982  10.405   9.629  1.0347 -0.6392 -0.6822
  181MOL0     C24901   2.077  10.440   9.742 -0.5258 -0.0971 -0.4438
  181MOL0     C24902   2.035  10.547   9.840  0.5486  0.3900 -0.1350
  181MOL0     C24903   2.136  10.587   9.944 -0.9670  0.1176  0.0994
  181MOL0     C24904   2.174  10.466  10.026 -1.3364 -0.5379  0.9946
  181MOL0     C24905   2.199  10.371  10.094 -0.1616 -0.2105 -0.5832
  181MOL0     C24906   1.624  10.461   9.608  0.6729  0.6445 -0.6096
  181MOL0     C24907   1.503  10.402   9.565  0.1858 -0.5942  0.0703
  181MOL0     C24908   1.379  10.457   9.618  0.5617 -0.1386  0.6002
  181MOL0     H24909   1.261  10.176   9.072 -3.0457  1.6880  2.1622
  181MOL0     H24910   1.114  10.021   8.982 -1.8919 -0.7184  1.3453
  181MOL0     H24911   0.857   9.864   9.089 -1.0799 -0.8475  0.3500
  181MOL0     H24912   0.926   9.818   9.247  0.4607 -0.3566  0.5292
  181MOL0     H24913   0.755   9.663   9.130  0.5179  0.3456 -0.1092
  181MOL0     H24914   0.863   9.631   8.995 -0.0583 -1.6775 -0.0459
  181MOL0     H24915   1.008   9.508   9.161  0.3220  1.1371  0.4591
  181MOL0     H24916   0.896   9.539   9.290  1.7865 -3.4021 -0.0259
  181MOL0     H24917   0.736   9.380   9.181 -1.2268 -0.4597 -1.1953
  181MOL0     H24918   0.839   9.389   9.028 -1.5069  0.9182 -0.2702
  181MOL0     H24919   0.935   9.288   9.299 -1.8307  1.2644  1.3958
  181MOL0     H24920   1.020   9.286   9.141  1.1751  0.4475  4.3471
  181MOL0     H24921   0.757   9.139   9.213  0.2206 -1.4432  0.0672
  181MOL0     H24922   0.825   9.149   9.051  0.4815  0.5940  0.5107
  181MOL0     H24923   0.877   8.925   9.158 -1.8360  1.2902 -0.0343
  181MOL0     H24924   0.950   9.019   9.297  2.1013 -3.2785  0.2582
  181MOL0     H24925   1.026   9.025   8.994 -1.4007 -1.3013 -0.5364
  181MOL0     H24926   1.119   9.099   9.126 -1.5582  3.4234 -0.8057
  181MOL0     H24927   1.129   8.880   9.354  0.3262  1.1442 -0.5508
  181MOL0     H24928   1.292   8.640   9.408 -0.9348 -2.0010  2.2270
  181MOL0     H24929   1.272   8.530   9.270 -1.2820 -1.5663 -0.2035
  181MOL0     H24930   1.019   8.545   9.348  1.6121 -1.3628 -2.5625
  181MOL0     H24931   1.116   8.445   9.438 -1.1397  0.9912  2.1314
  181MOL0     H24932   1.133   8.636   9.613 -2.5701  2.2467  3.2450
  181MOL0     H24933   1.048   8.741   9.498 -2.1067  1.0429  2.7435
  181MOL0     H24934   0.930   8.488   9.629  2.0388  0.3252 -0.8855
  181MOL0     H24935   0.910   8.652   9.684 -1.5201 -0.7850 -0.2085
  181MOL0     H24936   0.638   8.677   9.341 -0.5709 -0.9609  1.5031
  181MOL0     H24937   0.391   8.904   9.314 -0.1442  3.7618 -2.6298
  181MOL0     H24938   0.469   8.765   9.248  0.8113 -0.7121 -0.8849
  181MOL0     H24939   0.520   8.929   9.191 -0.5233 -0.2152 -0.0042
  181MOL0     H24940   0.381   9.305   9.727  1.7603 -2.3327 -0.8838
  181MOL0     H24941   0.294   9.536   9.728 -2.8114 -1.2654 -1.8829
  181MOL0     H24942   0.242   9.757   9.725 -1.3001 -2.1401 -1.2776
  181MOL0     H24943   0.399   9.786   9.732 -0.0418 -2.1809  0.3738
  181MOL0     H24944   0.267   9.998   9.734 -1.5048 -3.9182  1.6903
  181MOL0     H24945   0.368   9.992   9.586  0.6663 -0.1594  0.7144
  181MOL0     H24946   0.088  10.024   9.606  2.1668  0.0218  3.3871
  181MOL0     H24947   0.103   9.866   9.535 -0.5712 -0.9789  0.8786
  181MOL0     H24948   0.239   9.929   9.367  0.1957 -3.9543  5.2378
  181MOL0     H24949   0.232  10.109   9.408  0.7881 -0.2577 -0.2163
  181MOL0     H24950  -0.019   9.965   9.373  0.7786 -0.4661 -1.2935
  181MOL0     H24951   0.029  10.136   9.397  3.8009  0.7736  1.6277
  181MOL0     H24952  -0.027  10.026   9.149 -1.0965  3.1116  2.1030
  181MOL0     H24953   0.159  10.003   9.148  1.2114  0.4037 -0.7784
  181MOL0     H24954   0.194  10.229   9.223  1.7732 -2.2018 -1.2047
  181MOL0     H24955   0.008  10.255   9.175 -1.1390 -1.1654 -2.3849
  181MOL0     H24956   0.104  10.338   8.992  1.7304  0.0624 -0.5052
  181MOL0     H24957   0.060  10.175   8.955 -1.9262  3.5622 -1.4797
  181MOL0     H24958   0.510   9.629   9.371  0.7444 -1.0514 -0.8651
  181MOL0     H24959   0.589   9.390   9.366  2.0062  0.2898  1.3512
  181MOL0     H24960   0.753   9.053   9.621  0.2752 -2.3617  2.7056
  181MOL0     H24961   0.886   8.876   9.642 -1.4368  3.2594  0.3463
  181MOL0     H24962   1.202   9.750   9.297 -0.3594 -0.7240 -0.3458
  181MOL0     H24963   1.352   9.909   9.396 -0.9367 -0.6031  0.4815
  181MOL0     H24964   1.646  10.200   9.322 -5.5685 -0.3067  0.5183
  181MOL0     H24965   1.849  10.262   9.440 -1.6130 -1.4193 -1.1595
  181MOL0     H24966   1.986  10.296   9.619 -2.3633 -0.8771 -0.7399
  181MOL0     H24967   2.021  10.439   9.533  1.4974 -0.2442 -0.3583
  181MOL0     H24968   2.167  10.477   9.692 -0.2151  0.4241  0.4577
  181MOL0     H24969   2.104  10.345   9.789  4.1837  0.7591 -0.9541
  181MOL0     H24970   2.015  10.637   9.780  0.2376 -0.5592 -1.5018
  181MOL0     H24971   1.939  10.521   9.886 -1.6717  5.4934 -1.2190
  181MOL0     H24972   2.099  10.662  10.015  4.2027  3.5508 -0.3521
  181MOL0     H24973   2.225  10.635   9.904 -1.0353 -1.5749 -2.3053
  181MOL0     H24974   2.229  10.279  10.140 -0.8975  1.6206  4.1026
  181MOL0     H24975   1.624  10.540   9.683 -0.3992 -1.6153  1.9547
  181MOL0     H24976   1.305  10.463   9.539  1.5217 -2.0156 -0.5079
  181MOL0     H24977   1.344  10.402   9.706  0.8906  0.1180  0.8995
  181MOL0     H24978   1.393  10.562   9.646 -0.4878 -0.0012  0.6256
  182MOL0     O24979   8.790   1.023   7.648 -0.7793 -0.1926  0.0070
  182MOL0     C24980   8.705   0.942   7.631  0.3525  0.3977 -0.2005
  182MOL0     O24981   8.635   0.909   7.516 -0.7371 -0.1665  0.1059
  182MOL0     C24982   8.671   0.953   7.394  0.0095 -1.2006  0.2979
  182MOL0     C24983   8.578   0.924   7.295 -0.1194 -1.0041  0.3703
  182MOL0     C24984   8.597   0.940   7.154 -0.3348  0.8431  0.1977
  182MOL0     C24985   8.720   0.983   7.099  0.1373  0.0477 -0.5114
  182MOL0     O24986   8.759   0.992   6.969 -0.3711 -0.2844 -0.1634
  182MOL0     C24987   8.678   0.925   6.869 -0.9783 -0.6761 -0.4679
  182MOL0     C24988   8.717   0.957   6.729 -0.4749 -0.7850  0.9167
  182MOL0     C24989   8.849   0.877   6.682  0.2060  0.5355  0.7731
  182MOL0     C24990   8.897   0.939   6.557  0.1541  1.4529  0.5729
  182MOL0     C24991   8.853   0.854   6.434 -0.0842  0.8548  0.0579
  182MOL0     C24992   8.722   0.900   6.377  0.3682  0.6593  0.0239
  182MOL0     C24993   8.687   0.814   6.258  0.7800  1.1194 -0.2655
  182MOL0     C24994   8.537   0.849   6.216 -0.2034 -0.4971 -0.3122
  182MOL0     N24995   8.559   0.935   6.096  0.6777 -0.3136 -1.3658
  182MOL0     C24996   8.601   0.900   5.974  1.0244  0.1742  0.7154
  182MOL0     C24997   8.622   1.010   5.897 -1.2526  0.2062  0.3340
  182MOL0     C24998   8.655   1.027   5.752  0.1721  0.8766  0.1900
  182MOL0     C24999   8.559   0.945   5.673  0.3955 -0.1735 -0.8608
  182MOL0     C25000   8.420   1.010   5.663  0.1248  0.4635  0.4973
  182MOL0     C25001   8.346   0.985   5.537 -1.4808  0.5942  0.5365
  182MOL0     O25002   8.318   0.838   5.512 -0.0160  0.1270 -0.3859
  182MOL0     C25003   8.362   0.769   5.398  0.9151 -0.9443 -0.6291
  182MOL0     C25004   8.495   0.752   5.364  0.7176 -0.2787 -0.2530
  182MOL0     C25005   8.523   0.681   5.250 -0.4808  0.0618  0.0301
  182MOL0     C25006   8.668   0.660   5.242 -0.1211  0.2746 -0.8359
  182MOL0     C25007   8.426   0.626   5.167 -0.8778  1.1654  0.7448
  182MOL0     C25008   8.460   0.548   5.043 -0.1083 -0.4064 -0.4628
  182MOL0     O25009   8.391   0.419   5.033  0.1131  0.0769 -0.7020
  182MOL0     C25010   8.435   0.337   4.934  0.2697 -0.5954 -0.9143
  182MOL0     C25011   8.343   0.289   4.843  0.1606 -0.5723  0.0975
  182MOL0     C25012   8.381   0.198   4.745  0.0376 -0.6614  1.3702
  182MOL0     C25013   8.514   0.156   4.745 -0.3669  0.1925  0.2723
  182MOL0     O25014   8.556   0.068   4.650  0.5304 -0.1415 -0.0863
  182MOL0     C25015   8.622   0.124   4.540 -0.0530 -0.6472 -0.2274
  182MOL0     C25016   8.663   0.010   4.441  1.1654 -0.8052 -0.9138
  182MOL0     C25017   8.532  -0.027   4.370 -0.2222 -0.3046  0.3845
  182MOL0     C25018   8.534  -0.129   4.256 -0.6606 -0.3251  0.3223
  182MOL0     C25019   8.405  -0.139   4.192 -0.6991  0.3395  0.4285
  182MOL0     C25020   8.280  -0.187   4.268 -0.5743  0.6033  0.4587
  182MOL0     C25021   8.171  -0.190   4.164  0.7249 -0.3656  0.2355
  182MOL0     C25022   8.044  -0.226   4.238 -0.3970 -0.0491 -0.2086
  182MOL0    Cl25023   7.912  -0.260   4.120  0.4184 -0.2061 -0.2633
  182MOL0     C25024   8.609   0.201   4.836 -0.6476  2.4300  0.0175
  182MOL0     C25025   8.571   0.293   4.932 -0.1882  0.0791 -0.7008
  182MOL0     O25026   8.550   0.592   4.971 -0.3000  0.4131 -0.1499
  182MOL0     C25027   8.292   0.640   5.197  0.3768  0.1719  0.1342
  182MOL0     C25028   8.259   0.714   5.315  0.7041 -0.2493  0.1849
  182MOL0     N25029   8.606   1.116   5.980 -0.0494  0.2633 -0.8591
  182MOL0     N25030   8.565   1.070   6.095  0.6347 -0.7232 -0.1785
  182MOL0     C25031   8.811   1.024   7.198  0.2688 -0.2340 -1.4208
  182MOL0     C25032   8.792   1.003   7.343  0.6242 -0.2920  0.0610
  182MOL0     C25033   8.649   0.880   7.752  0.1703 -0.2228 -0.7694
  182MOL0     C25034   8.513   0.821   7.743  0.2972  0.7542  0.5464
  182MOL0     C25035   8.465   0.764   7.852  0.4836  0.6209 -0.0163
  182MOL0     C25036   8.527   0.759   7.976 -0.6382 -0.1917 -1.3343
  182MOL0     O25037   8.464   0.700   8.086 -0.6038  0.4536  0.0741
  182MOL0     C25038   8.345   0.759   8.140 -0.0638  0.5940  0.4993
  182MOL0     C25039   8.351   0.719   8.290  0.8325  0.3940  0.3625
  182MOL0     C25040   8.218   0.760   8.352 -0.7249 -0.0741 -1.3872
  182MOL0     C25041   8.209   0.708   8.506  0.4065  0.5319  0.0761
  182MOL0     C25042   8.286   0.783   8.605  0.4626  0.5478  0.3924
  182MOL0     C25043   8.345   0.867   8.669 -0.0107  0.6140 -0.8502
  182MOL0     C25044   8.657   0.817   7.987  0.2256 -0.0989 -0.1497
  182MOL0     C25045   8.718   0.875   7.875  0.8736 -0.9428  0.9237
  182MOL0     C25046   8.846   0.940   7.905 -0.3848  0.1932 -0.5146
  182MOL0     H25047   8.484   0.885   7.332 -1.0316  3.8378  4.2850
  182MOL0     H25048   8.505   0.920   7.101 -1.3243  3.3603  0.8334
  182MOL0     H25049   8.571   0.942   6.887 -1.5106 -2.4776 -1.6188
  182MOL0     H25050   8.707   0.821   6.888  1.9370 -0.5713 -3.4309
  182MOL0     H25051   8.630   0.923   6.674 -1.5788  0.6799  1.6712
  182MOL0     H25052   8.732   1.066   6.733 -1.1136 -0.7157  2.8312
  182MOL0     H25053   8.921   0.881   6.765  0.2551 -1.7847  0.9188
  182MOL0     H25054   8.820   0.772   6.670  3.3028 -0.4869  1.3235
  182MOL0     H25055   8.867   1.043   6.540  1.1848  1.2617 -3.7485
  182MOL0     H25056   9.006   0.930   6.564 -0.0378 -1.1614  1.5023
  182MOL0     H25057   8.831   0.751   6.464 -2.7462  2.0795  2.8003
  182MOL0     H25058   8.916   0.861   6.345 -2.9314  1.0479 -2.0602
  182MOL0     H25059   8.642   0.899   6.451  1.4370  1.4909  1.2443
  182MOL0     H25060   8.726   1.005   6.346 -2.9696  0.9724  0.2953
  182MOL0     H25061   8.701   0.706   6.272 -0.6362  0.2804 -4.0067
  182MOL0     H25062   8.752   0.840   6.174  0.2822  2.4131 -0.2741
  182MOL0     H25063   8.488   0.756   6.185  1.6079 -1.6799  0.2143
  182MOL0     H25064   8.482   0.902   6.294 -1.4756 -0.7725 -0.9776
  182MOL0     H25065   8.603   0.795   5.946  0.3367 -0.2811  2.3017
  182MOL0     H25066   8.755   0.997   5.719 -0.0740  1.7684 -1.4791
  182MOL0     H25067   8.656   1.133   5.727 -1.6740  1.2006  1.3084
  182MOL0     H25068   8.592   0.934   5.569 -0.1284  0.5253 -1.1087
  182MOL0     H25069   8.538   0.845   5.714 -0.4002  0.1709 -0.4068
  182MOL0     H25070   8.360   0.964   5.743 -0.2663 -2.6002 -1.4041
  182MOL0     H25071   8.433   1.117   5.683 -1.1325  0.9121 -0.9651
  182MOL0     H25072   8.252   1.038   5.556  0.1873  3.2303  2.0829
  182MOL0     H25073   8.395   1.030   5.451  1.4858 -2.6788  0.3068
  182MOL0     H25074   8.561   0.782   5.445  0.1361  0.2524  0.0257
  182MOL0     H25075   8.703   0.617   5.147 -1.2327 -0.4254 -0.9444
  182MOL0     H25076   8.696   0.586   5.316 -0.0709 -0.0190 -1.1470
  182MOL0     H25077   8.720   0.753   5.269 -0.1874 -0.3852  1.7784
  182MOL0     H25078   8.246   0.338   4.837  0.6820  0.4283 -0.2900
  182MOL0     H25079   8.311   0.169   4.668  0.2812  0.4220  0.7179
  182MOL0     H25080   8.571   0.212   4.499  2.9011  1.5168  0.4104
  182MOL0     H25081   8.715   0.167   4.577 -1.3478  1.7927  0.4674
  182MOL0     H25082   8.727   0.056   4.365 -0.5665  1.0894 -1.3109
  182MOL0     H25083   8.697  -0.074   4.503  1.5021 -2.1448 -2.8425
  182MOL0     H25084   8.483   0.064   4.334 -0.3456  0.1326  1.5901
  182MOL0     H25085   8.467  -0.075   4.445 -1.0662 -0.7674 -0.6091
  182MOL0     H25086   8.571  -0.225   4.291 -1.2401 -0.5651  0.2878
  182MOL0     H25087   8.603  -0.091   4.179 -2.0426 -1.0623 -1.3391
  182MOL0     H25088   8.381  -0.044   4.143 -3.1257  0.8721  2.4457
  182MOL0     H25089   8.416  -0.211   4.110  1.9144  0.1486  0.8518
  182MOL0     H25090   8.246  -0.114   4.341 -0.1485  0.8625  0.3995
  182MOL0     H25091   8.303  -0.287   4.307  0.5818  0.7602  0.2153
  182MOL0     H25092   8.193  -0.255   4.079 -2.3216  1.8181 -2.5016
  182MOL0     H25093   8.162  -0.091   4.118  0.9150 -0.7651 -0.6971
  182MOL0     H25094   8.015  -0.134   4.291  1.1956  1.2868 -1.5354
  182MOL0     H25095   8.058  -0.315   4.300 -0.2937  1.1591  1.5779
  182MOL0     H25096   8.708   0.156   4.832 -1.7861 -0.5825  2.1123
  182MOL0     H25097   8.644   0.315   5.009 -0.9384 -2.3092  0.8167
  182MOL0     H25098   8.215   0.586   5.143  0.5433 -2.7861  2.5520
  182MOL0     H25099   8.160   0.749   5.343  1.4760  1.9618  0.3332
  182MOL0     H25100   8.904   1.067   7.163  1.5464  0.4183  2.2998
  182MOL0     H25101   8.880   1.033   7.398 -0.4160  0.2538  1.4874
  182MOL0     H25102   8.459   0.797   7.652 -1.9601 -1.9718  2.4380
  182MOL0     H25103   8.371   0.713   7.832  0.5013  0.6673 -0.2223
  182MOL0     H25104   8.351   0.867   8.121  1.5502  0.2478 -1.2248
  182MOL0     H25105   8.256   0.711   8.098  0.4843 -0.6905  0.7696
  182MOL0     H25106   8.435   0.782   8.322  2.1026 -0.6929 -0.6977
  182MOL0     H25107   8.380   0.614   8.298 -4.6071 -1.7891 -2.9124
  182MOL0     H25108   8.187   0.865   8.348  2.0383  0.9726  0.9002
  182MOL0     H25109   8.132   0.706   8.311 -0.6642  0.4019 -2.1525
  182MOL0     H25110   8.245   0.605   8.516 -0.9303  0.1289  0.8938
  182MOL0     H25111   8.104   0.711   8.537  1.1268  1.3565  2.6480
  182MOL0     H25112   8.398   0.949   8.713  0.8117 -0.3883  0.1038
  182MOL0     H25113   8.712   0.811   8.080 -1.7353 -1.6553  0.9901
  182MOL0     H25114   8.840   1.048   7.887  0.9064  1.0983  3.5148
  182MOL0     H25115   8.867   0.933   8.012  1.2654  0.0468 -0.8189
  182MOL0     H25116   8.934   0.904   7.852  0.0733  0.7437 -0.1355
  183MOL0     O25117   5.759   2.700   2.981  0.0571 -0.3434 -0.4886
  183MOL0     C25118   5.852   2.777   3.002 -0.3430 -0.1031 -0.2038
  183MOL0     O25119   5.848   2.912   3.036  0.5021  0.9410  0.0142
  183MOL0     C25120   5.730   2.987   3.012 -0.7227 -0.5729  0.1886
  183MOL0     C25121   5.631   2.958   2.919 -0.4114  0.6319  0.8378
  183MOL0     C25122   5.533   3.044   2.881  0.2592  0.0915 -0.1399
  183MOL0     C25123   5.530   3.173   2.932  0.6481 -0.6963 -0.3291
  183MOL0     O25124   5.435   3.268   2.884 -0.0663  0.7830 -0.1355
  183MOL0     C25125   5.300   3.234   2.907  0.8251  0.3707  0.0496
  183MOL0     C25126   5.227   3.336   2.988 -0.6241  0.2208  0.1921
  183MOL0     C25127   5.077   3.298   2.987 -0.0325 -0.5266  0.3097
  183MOL0     C25128   4.994   3.427   3.035 -0.2332  1.6561 -0.8278
  183MOL0     C25129   4.978   3.423   3.187  0.9701 -0.3241  0.1872
  183MOL0     C25130   4.869   3.508   3.245  1.6026  0.1502  0.5398
  183MOL0     C25131   4.878   3.650   3.199 -0.0127 -0.6428  0.0916
  183MOL0     C25132   4.997   3.731   3.244 -0.0997  0.1425 -0.9220
  183MOL0     N25133   4.971   3.880   3.261 -0.7886  0.3430  0.2108
  183MOL0     C25134   4.894   3.950   3.178  0.2762 -0.0916  0.4709
  183MOL0     C25135   4.875   4.075   3.241 -0.4451 -0.2093  0.5415
  183MOL0     C25136   4.794   4.197   3.191 -0.0288  0.0332  0.5055
  183MOL0     C25137   4.878   4.308   3.124 -0.3384  0.5737 -0.2013
  183MOL0     C25138   4.957   4.256   3.010  0.1377  0.2144 -1.1442
  183MOL0     C25139   5.027   4.378   2.952  0.1405  0.2336  0.4987
  183MOL0     O25140   5.062   4.358   2.820 -0.7502  0.5081  0.0338
  183MOL0     C25141   4.971   4.377   2.729  0.1900 -1.0836 -0.3502
  183MOL0     C25142   4.897   4.268   2.677  0.5626 -0.3116 -0.1323
  183MOL0     C25143   4.826   4.275   2.560 -0.7285 -0.9904  0.7614
  183MOL0     C25144   4.771   4.139   2.509 -0.1068 -0.2373  0.1534
  183MOL0     C25145   4.798   4.402   2.499  0.0827  0.0485 -0.0923
  183MOL0     C25146   4.716   4.416   2.375 -0.1684  0.3424 -1.1242
  183MOL0     O25147   4.668   4.537   2.356 -0.3070  0.3335 -0.3397
  183MOL0     C25148   4.653   4.586   2.232 -0.9082  0.5914  0.0261
  183MOL0     C25149   4.708   4.529   2.116  0.5397  0.0934  0.1503
  183MOL0     C25150   4.668   4.586   1.990 -0.5370 -0.2993 -0.3044
  183MOL0     C25151   4.587   4.696   1.979 -0.3011  0.4191 -0.1896
  183MOL0     O25152   4.553   4.764   1.863 -0.1165 -0.0499  0.1961
  183MOL0     C25153   4.531   4.689   1.736 -0.3846  0.1243  0.0680
  183MOL0     C25154   4.451   4.771   1.641 -0.2111  0.2705 -0.3048
  183MOL0     C25155   4.539   4.886   1.569  0.4724  0.2175 -0.2330
  183MOL0     C25156   4.443   4.996   1.531  0.8154  0.2564  0.4964
  183MOL0     C25157   4.360   4.959   1.415  0.7379  0.3431  0.2686
  183MOL0     C25158   4.424   4.981   1.279  0.1658 -0.1439 -0.1004
  183MOL0     C25159   4.340   4.911   1.179 -0.6935  0.1683  0.2139
  183MOL0     C25160   4.392   4.933   1.038 -0.2881 -0.0174 -0.7940
  183MOL0    Cl25161   4.361   5.111   0.997 -0.6690 -0.3866  0.5076
  183MOL0     C25162   4.535   4.744   2.094 -0.2686 -0.2290 -0.4666
  183MOL0     C25163   4.567   4.694   2.222  0.0586  0.5945  0.4834
  183MOL0     O25164   4.686   4.313   2.307 -0.7890 -0.2799  0.0699
  183MOL0     C25165   4.849   4.513   2.562  0.4618  0.3134  0.4092
  183MOL0     C25166   4.940   4.496   2.667  0.4686  0.3949  0.8836
  183MOL0     N25167   4.949   4.072   3.356  0.2390 -0.7178  0.6903
  183MOL0     N25168   5.004   3.953   3.370 -0.3964 -0.6937 -0.4283
  183MOL0     C25169   5.635   3.211   3.013 -0.3936 -0.0500 -0.6469
  183MOL0     C25170   5.729   3.121   3.059 -0.7662 -0.2121 -0.3951
  183MOL0     C25171   5.986   2.716   3.000 -0.1325  0.1787 -0.0509
  183MOL0     C25172   6.097   2.793   2.979 -0.2658  0.1636 -0.0277
  183MOL0     C25173   6.226   2.742   2.965  0.7322  0.1760  0.1534
  183MOL0     C25174   6.250   2.613   2.977 -0.5463  0.1196  0.0073
  183MOL0     O25175   6.377   2.571   2.965 -0.8704 -0.1929 -0.4912
  183MOL0     C25176   6.414   2.439   3.020 -0.3556 -0.0740 -0.1482
  183MOL0     C25177   6.563   2.416   2.975 -0.8619  0.1133 -1.0946
  183MOL0     C25178   6.665   2.427   3.092  0.6542 -0.5076  0.3898
  183MOL0     C25179   6.811   2.380   3.068  0.5514  0.0748 -0.3342
  183MOL0     C25180   6.898   2.356   3.193  0.5161  0.1561  0.7442
  183MOL0     C25181   6.955   2.332   3.295  0.4004 -0.1720 -0.1239
  183MOL0     C25182   6.142   2.529   3.004  0.4256 -0.4000 -0.5517
  183MOL0     C25183   6.009   2.577   3.007 -0.6891 -0.1783  0.3234
  183MOL0     C25184   5.910   2.481   3.054  1.1306 -0.2751 -0.0143
  183MOL0     H25185   5.633   2.869   2.858  0.5397  1.2424 -0.0589
  183MOL0     H25186   5.463   3.028   2.800 -1.6566  2.0552  1.0239
  183MOL0     H25187   5.291   3.133   2.950  1.9900  1.3272  2.7426
  183MOL0     H25188   5.250   3.216   2.811  0.4266 -0.2930  0.3693
  183MOL0     H25189   5.269   3.343   3.088  0.3892 -1.3989 -0.0763
  183MOL0     H25190   5.259   3.430   2.942  0.1620 -1.0482 -2.0318
  183MOL0     H25191   5.052   3.272   2.884 -1.6767 -2.0120  1.0388
  183MOL0     H25192   5.052   3.208   3.045 -1.0351 -0.1357  0.5048
  183MOL0     H25193   5.047   3.517   3.005  1.7436  3.0044  5.2952
  183MOL0     H25194   4.896   3.425   2.986 -0.1257 -3.5880 -1.3932
  183MOL0     H25195   5.076   3.450   3.229  1.1927 -2.4708  1.1514
  183MOL0     H25196   4.947   3.321   3.211 -2.1671 -0.5871 -3.9089
  183MOL0     H25197   4.772   3.471   3.212  1.9583  0.5586 -1.0224
  183MOL0     H25198   4.870   3.508   3.355 -2.8198 -2.8919  0.8313
  183MOL0     H25199   4.791   3.708   3.234  0.8706  0.4387  0.5427
  183MOL0     H25200   4.873   3.670   3.092 -2.7288  2.1991  0.5695
  183MOL0     H25201   5.025   3.706   3.347 -2.3154  1.3936  0.0571
  183MOL0     H25202   5.082   3.707   3.180  0.7479  2.0648 -0.5665
  183MOL0     H25203   4.858   3.914   3.082 -1.6993 -2.1415  1.8962
  183MOL0     H25204   4.724   4.237   3.266 -0.1321  1.1105 -0.1383
  183MOL0     H25205   4.722   4.164   3.116 -0.3476 -1.3147  1.3757
  183MOL0     H25206   4.810   4.387   3.091 -2.6630 -0.9633  0.6697
  183MOL0     H25207   4.937   4.348   3.206 -2.2957 -1.3410  2.2966
  183MOL0     H25208   5.033   4.183   3.039 -2.0525 -1.0004  2.1853
  183MOL0     H25209   4.891   4.201   2.944  1.6517 -2.0816 -0.8600
  183MOL0     H25210   4.959   4.463   2.944  1.3445  1.2341  0.5882
  183MOL0     H25211   5.114   4.397   3.015  2.8200 -2.1640 -2.1514
  183MOL0     H25212   4.911   4.174   2.730  4.5252  0.3205  0.2712
  183MOL0     H25213   4.662   4.148   2.507 -0.0050  1.2291 -0.0207
  183MOL0     H25214   4.803   4.061   2.579  0.4618 -1.0125 -0.9331
  183MOL0     H25215   4.805   4.104   2.411 -0.9658 -0.7477  0.0321
  183MOL0     H25216   4.781   4.449   2.126 -0.4957 -0.5695  3.8153
  183MOL0     H25217   4.711   4.543   1.901  0.5874 -0.9923  0.5473
  183MOL0     H25218   4.625   4.649   1.698 -0.6737  0.8617 -1.5006
  183MOL0     H25219   4.461   4.609   1.763 -0.8512  0.6195  0.3354
  183MOL0     H25220   4.401   4.710   1.566 -1.6445  1.9372 -0.7522
  183MOL0     H25221   4.369   4.817   1.696 -1.4727 -0.4411 -1.5361
  183MOL0     H25222   4.574   4.835   1.478 -2.0479 -0.9085 -0.6586
  183MOL0     H25223   4.611   4.931   1.637 -1.0619  1.8005  0.3849
  183MOL0     H25224   4.503   5.087   1.521 -1.7477  2.1024  0.8374
  183MOL0     H25225   4.375   5.019   1.614 -0.6592 -1.8453 -0.0516
  183MOL0     H25226   4.316   4.859   1.423 -2.9610  1.6229 -1.6266
  183MOL0     H25227   4.273   5.024   1.428 -0.9426 -1.7055 -0.0246
  183MOL0     H25228   4.524   4.937   1.282  0.0119 -0.5643 -0.9602
  183MOL0     H25229   4.438   5.087   1.253  1.8834  0.2393  2.0541
  183MOL0     H25230   4.245   4.964   1.192 -0.6274  0.5935 -0.9266
  183MOL0     H25231   4.336   4.806   1.211 -0.6367  0.6189  1.7653
  183MOL0     H25232   4.348   4.867   0.962  2.1655 -1.0695 -1.3926
  183MOL0     H25233   4.498   4.909   1.032 -1.0091 -3.3765 -3.1875
  183MOL0     H25234   4.468   4.830   2.098  3.3822  2.8310  2.0779
  183MOL0     H25235   4.516   4.732   2.310  0.0059 -0.0184  0.7231
  183MOL0     H25236   4.826   4.611   2.521 -0.7614  0.4065  1.2681
  183MOL0     H25237   5.000   4.582   2.695  1.6010  0.3478 -1.2202
  183MOL0     H25238   5.645   3.314   3.045 -0.3761  0.8365 -3.2427
  183MOL0     H25239   5.803   3.152   3.132 -0.7523  4.2069 -1.9558
  183MOL0     H25240   6.078   2.898   2.956  1.0083  0.2083 -1.0167
  183MOL0     H25241   6.316   2.797   2.936  2.5166 -2.2502  0.8027
  183MOL0     H25242   6.409   2.427   3.129  2.1487 -3.4402 -0.2422
  183MOL0     H25243   6.344   2.365   2.981 -2.8324  0.1839  3.3686
  183MOL0     H25244   6.581   2.471   2.882 -2.6629  1.7604 -0.5370
  183MOL0     H25245   6.555   2.312   2.940 -1.1971 -0.5388  0.7618
  183MOL0     H25246   6.682   2.531   3.120  0.1732 -0.4012  0.2908
  183MOL0     H25247   6.621   2.370   3.175 -0.9464 -2.5434 -1.7172
  183MOL0     H25248   6.873   2.445   3.006 -1.1031  3.4716  1.3074
  183MOL0     H25249   6.812   2.283   3.017 -3.1763  0.0301 -0.5492
  183MOL0     H25250   7.011   2.299   3.380  0.5065  1.0068  0.2963
  183MOL0     H25251   6.152   2.421   3.001 -1.1311 -0.6485  1.2777
  183MOL0     H25252   5.944   2.380   3.078  1.5973 -0.1212 -0.0172
  183MOL0     H25253   5.855   2.521   3.140  0.1409 -1.2165 -0.1857
  183MOL0     H25254   5.841   2.464   2.972  1.8617 -0.3088 -0.6328
  184MOL0     O25255   5.765  11.559   5.580  0.2621  1.0564 -0.1436
  184MOL0     C25256   5.686  11.620   5.514  0.2786  0.4240 -0.2798
  184MOL0     O25257   5.688  11.754   5.500  0.9562 -0.4348  1.0020
  184MOL0     C25258   5.789  11.829   5.538  0.1937  0.6742  0.9272
  184MOL0     C25259   5.793  11.897   5.659 -0.1153 -0.3838 -0.5170
  184MOL0     C25260   5.907  11.969   5.690 -0.9812 -0.3161 -0.2918
  184MOL0     C25261   6.020  11.960   5.608  0.3619 -0.3715  0.4154
  184MOL0     O25262   6.135  12.023   5.653 -0.1828 -0.5139  0.0201
  184MOL0     C25263   6.185  12.133   5.569  0.3765 -0.7808  0.3220
  184MOL0     C25264   6.193  12.252   5.667  0.2995  1.1177  0.7660
  184MOL0     C25265   6.050  12.319   5.696  0.2487  0.2435  0.3077
  184MOL0     C25266   6.075  12.462   5.747  0.0924 -0.1006 -0.0634
  184MOL0     C25267   6.159  12.544   5.650 -0.3989  0.1073 -0.0262
  184MOL0     C25268   6.142  12.690   5.657  1.1197 -1.0313  0.3376
  184MOL0     C25269   6.165  12.755   5.523  0.3764  0.4111 -0.5869
  184MOL0     C25270   6.115  12.901   5.522 -0.5113 -0.4601  0.3151
  184MOL0     N25271   6.136  12.960   5.389  0.3156  0.1238  0.0281
  184MOL0     C25272   6.141  12.891   5.274  0.9696 -0.1921 -0.4888
  184MOL0     C25273   6.150  12.983   5.183  1.2394  0.4521 -0.3500
  184MOL0     C25274   6.151  12.969   5.041  0.0222  0.4737  1.4270
  184MOL0     C25275   6.294  12.968   4.999  0.5989  0.6719 -0.7374
  184MOL0     C25276   6.354  13.107   5.001  0.7803 -0.0640 -0.0178
  184MOL0     C25277   6.489  13.136   4.931  0.0961 -0.7857  1.1120
  184MOL0     O25278   6.598  13.046   4.972  0.0310  0.1410  0.4345
  184MOL0     C25279   6.686  13.089   5.071 -0.4162 -0.3679 -0.3770
  184MOL0     C25280   6.671  13.200   5.158  1.3921 -0.5949  0.4772
  184MOL0     C25281   6.768  13.232   5.253 -0.0896 -0.8511  0.8060
  184MOL0     C25282   6.723  13.326   5.355 -0.5616 -0.2729  0.0305
  184MOL0     C25283   6.898  13.166   5.250  0.3983 -0.8740 -0.0152
  184MOL0     C25284   7.002  13.220   5.342 -0.0616  0.7513  0.3878
  184MOL0     O25285   7.009  13.357   5.371  0.2786 -0.7615 -0.4349
  184MOL0     C25286   7.109  13.412   5.444  0.7440  0.2510 -1.0893
  184MOL0     C25287   7.223  13.355   5.500  0.2195  0.7262 -0.1227
  184MOL0     C25288   7.307  13.420   5.599 -0.5063 -0.3062 -0.5172
  184MOL0     C25289   7.272  13.552   5.623 -1.0779 -0.3482  0.4342
  184MOL0     O25290   7.340  13.629   5.707 -0.0529  0.0354  0.1369
  184MOL0     C25291   7.476  13.648   5.683  0.6092 -0.1814  0.7631
  184MOL0     C25292   7.516  13.737   5.558 -0.4514 -0.0772 -0.5664
  184MOL0     C25293   7.435  13.871   5.558  0.1492 -0.9389  0.6323
  184MOL0     C25294   7.530  14.000   5.531  0.4420 -0.4052  0.2829
  184MOL0     C25295   7.588  14.030   5.670  0.2136 -0.8751  0.4632
  184MOL0     C25296   7.686  14.137   5.651  0.6468 -0.8560  0.3716
  184MOL0     C25297   7.771  14.188   5.774  0.0843 -0.1962  0.5047
  184MOL0     C25298   7.799  14.345   5.746 -0.0100 -0.5015 -0.4373
  184MOL0    Cl25299   7.930  14.384   5.618  0.4389 -0.0334 -0.0722
  184MOL0     C25300   7.171  13.618   5.558 -0.2774 -0.6966 -0.2256
  184MOL0     C25301   7.090  13.545   5.470 -1.0323  0.1182 -0.2670
  184MOL0     O25302   7.098  13.140   5.369 -0.1003 -0.8681 -0.5331
  184MOL0     C25303   6.922  13.065   5.156  0.1435  0.2602 -0.7351
  184MOL0     C25304   6.815  13.032   5.072  0.1604 -0.1888 -0.2233
  184MOL0     N25305   6.155  13.110   5.236  0.0097 -0.7321  0.4598
  184MOL0     N25306   6.134  13.094   5.360 -0.1706  0.0412  0.4292
  184MOL0     C25307   6.018  11.883   5.496  0.8036 -0.3427  0.0813
  184MOL0     C25308   5.902  11.819   5.458 -1.0231  0.0982 -0.1890
  184MOL0     C25309   5.569  11.558   5.451 -0.0534 -0.3189 -0.1897
  184MOL0     C25310   5.483  11.649   5.378  0.4447  0.3247  0.0440
  184MOL0     C25311   5.362  11.601   5.316 -0.0930 -0.5857  0.1288
  184MOL0     C25312   5.335  11.468   5.311 -0.7952  0.6206 -0.2781
  184MOL0     O25313   5.234  11.427   5.236  0.5954  0.1733 -0.1946
  184MOL0     C25314   5.205  11.284   5.235  0.9836 -0.6271 -0.2344
  184MOL0     C25315   5.095  11.281   5.139  0.0736 -0.0034  0.3446
  184MOL0     C25316   5.040  11.146   5.117  0.4415 -0.9466 -0.0735
  184MOL0     C25317   5.000  11.086   5.249  0.5304  0.4082 -0.5545
  184MOL0     C25318   4.937  10.951   5.231  0.0197 -0.9019 -0.0491
  184MOL0     C25319   4.902  10.837   5.225  0.5508 -0.0275 -0.1382
  184MOL0     C25320   5.419  11.386   5.387 -0.6211  0.2132  0.0247
  184MOL0     C25321   5.540  11.423   5.450 -0.2654  0.7824  0.1382
  184MOL0     C25322   5.631  11.309   5.503 -0.5131  0.0318  0.6310
  184MOL0     H25323   5.704  11.896   5.721  0.6689 -2.6803  0.7019
  184MOL0     H25324   5.911  12.037   5.775 -2.2610  1.4086 -1.5342
  184MOL0     H25325   6.128  12.141   5.476 -0.8718  2.7308  1.2151
  184MOL0     H25326   6.284  12.110   5.530 -0.6181 -1.9404 -1.6936
  184MOL0     H25327   6.244  12.239   5.763  1.4112  1.2263  0.2090
  184MOL0     H25328   6.251  12.322   5.606 -0.3900  1.9722  1.0633
  184MOL0     H25329   5.990  12.335   5.607  0.4516 -4.1424 -0.8731
  184MOL0     H25330   5.986  12.247   5.748 -2.1829  0.8785 -1.6347
  184MOL0     H25331   5.976  12.503   5.767 -0.8929 -0.7739 -3.0676
  184MOL0     H25332   6.142  12.458   5.834  1.3101  0.3059 -0.9491
  184MOL0     H25333   6.127  12.512   5.550  1.3604 -0.7361 -0.3666
  184MOL0     H25334   6.266  12.525   5.665 -0.1195  1.7604  0.2211
  184MOL0     H25335   6.040  12.717   5.687  0.4594 -1.3075 -1.5639
  184MOL0     H25336   6.212  12.743   5.722 -2.7106  0.3341  3.7804
  184MOL0     H25337   6.104  12.703   5.450  0.2936 -0.3701  0.0269
  184MOL0     H25338   6.270  12.737   5.501  0.2238 -0.1862 -0.8397
  184MOL0     H25339   6.011  12.907   5.554 -0.1308  3.6733  1.2970
  184MOL0     H25340   6.179  12.944   5.600 -2.9504 -0.4391  2.4316
  184MOL0     H25341   6.148  12.784   5.256  2.4927 -1.1757  4.4262
  184MOL0     H25342   6.089  13.047   4.998 -4.1376 -2.9495  0.5402
  184MOL0     H25343   6.091  12.880   5.019 -0.8358  1.5737 -1.0740
  184MOL0     H25344   6.351  12.902   5.065  3.3773  0.6676 -2.9590
  184MOL0     H25345   6.312  12.923   4.901  1.5894 -2.0429  0.6037
  184MOL0     H25346   6.273  13.173   4.966  0.2400  0.1571  1.5614
  184MOL0     H25347   6.373  13.132   5.106  0.5349 -0.2198  0.0659
  184MOL0     H25348   6.488  13.117   4.824  0.9671 -0.1710  0.9855
  184MOL0     H25349   6.503  13.243   4.949  0.0397 -0.5477 -0.1879
  184MOL0     H25350   6.582  13.261   5.146  0.4561 -1.9414  0.4198
  184MOL0     H25351   6.645  13.274   5.410 -0.9268  1.1207  0.8757
  184MOL0     H25352   6.695  13.424   5.313  3.1201  0.4491 -1.1190
  184MOL0     H25353   6.793  13.353   5.434 -1.0074  0.4518  0.1932
  184MOL0     H25354   7.267  13.260   5.471 -1.8088 -1.1806  2.6218
  184MOL0     H25355   7.395  13.381   5.649  1.3752  1.5410 -2.2370
  184MOL0     H25356   7.522  13.695   5.770  0.9403  0.6791  0.1360
  184MOL0     H25357   7.530  13.553   5.677 -0.0121 -0.5435  0.8162
  184MOL0     H25358   7.623  13.757   5.567 -0.1401 -2.4381  2.6671
  184MOL0     H25359   7.483  13.690   5.464 -2.6511  1.0303 -0.4118
  184MOL0     H25360   7.384  13.871   5.654  1.9085 -0.7728  1.6243
  184MOL0     H25361   7.358  13.856   5.482  1.0991 -1.4619 -0.2519
  184MOL0     H25362   7.476  14.084   5.487  0.9399  1.7328  3.4304
  184MOL0     H25363   7.603  13.971   5.455  0.8349  0.6499  0.2414
  184MOL0     H25364   7.510  14.061   5.741 -1.3351  1.8876 -2.2372
  184MOL0     H25365   7.640  13.942   5.709  0.5452 -1.5951 -1.4932
  184MOL0     H25366   7.617  14.221   5.642 -1.0260 -2.1798  0.2584
  184MOL0     H25367   7.752  14.131   5.564  3.2277 -0.5221  2.1688
  184MOL0     H25368   7.866  14.135   5.784 -0.1269 -0.5223  0.8093
  184MOL0     H25369   7.702  14.191   5.859 -3.0694 -1.9975 -1.7747
  184MOL0     H25370   7.814  14.400   5.839 -1.3894 -1.9724  0.7153
  184MOL0     H25371   7.710  14.396   5.708 -0.5255 -0.7313  0.4430
  184MOL0     H25372   7.143  13.722   5.566 -0.4650 -0.8645  1.8526
  184MOL0     H25373   6.997  13.578   5.424 -1.3546  1.1339  1.0408
  184MOL0     H25374   7.019  13.018   5.146  1.3106  1.9624  1.6420
  184MOL0     H25375   6.839  12.957   4.997 -1.1123  0.9304 -1.8352
  184MOL0     H25376   6.112  11.856   5.449  1.4336  0.4281  0.8601
  184MOL0     H25377   5.899  11.761   5.366 -1.5863  2.6601 -1.9083
  184MOL0     H25378   5.506  11.755   5.371  1.7186  0.1080  0.6676
  184MOL0     H25379   5.306  11.682   5.270  2.2767  0.6873 -0.7101
  184MOL0     H25380   5.285  11.225   5.190 -0.9041 -1.7485 -2.2974
  184MOL0     H25381   5.172  11.255   5.335  1.9574  1.5547  0.8025
  184MOL0     H25382   5.128  11.319   5.042 -0.0175  1.4560  0.8625
  184MOL0     H25383   5.022  11.356   5.170  1.2188  1.2824  0.0242
  184MOL0     H25384   4.957  11.170   5.050  1.8375 -1.7723 -2.1985
  184MOL0     H25385   5.103  11.081   5.056  0.1503 -2.7580  1.4417
  184MOL0     H25386   4.951  11.154   5.320  3.9263  1.2484  1.2470
  184MOL0     H25387   5.081  11.056   5.316  0.5437 -1.1319 -1.2173
  184MOL0     H25388   4.889  10.730   5.226 -0.4725  0.0702  2.0885
  184MOL0     H25389   5.407  11.278   5.382 -1.0774  0.3164 -3.7069
  184MOL0     H25390   5.593  11.207   5.513  3.1399 -1.4648  0.9469
  184MOL0     H25391   5.715  11.289   5.436 -0.4480  1.6387  0.1940
  184MOL0     H25392   5.667  11.329   5.605 -2.4957  1.2060  1.1497
  185MOL0     O25393   8.901   5.552   3.330 -1.0342  0.5738  0.8766
  185MOL0     C25394   9.005   5.577   3.265 -0.1635  1.4445 -0.9433
  185MOL0     O25395   9.105   5.649   3.313 -0.0504 -0.4051 -0.3617
  185MOL0     C25396   9.095   5.736   3.423  0.2502  0.1905  0.5763
  185MOL0     C25397   9.058   5.863   3.395 -0.0494 -0.5832 -1.0530
  185MOL0     C25398   9.041   5.959   3.503  0.6979 -0.3735 -0.3269
  185MOL0     C25399   9.055   5.913   3.632 -0.6612  0.2439 -0.8021
  185MOL0     O25400   9.044   5.991   3.749 -0.2543  0.1818  0.0667
  185MOL0     C25401   9.110   6.110   3.736  0.1548  1.0283 -0.1680
  185MOL0     C25402   9.109   6.184   3.869  0.5248  0.2303  0.8907
  185MOL0     C25403   8.974   6.216   3.925 -0.1845  0.4347 -0.2052
  185MOL0     C25404   8.924   6.339   3.845  0.5615  0.0573 -0.5798
  185MOL0     C25405   8.771   6.338   3.837  0.5914 -0.0185  0.3861
  185MOL0     C25406   8.712   6.471   3.781  0.5561  0.8593 -0.4580
  185MOL0     C25407   8.731   6.587   3.877  0.1605 -0.0352  0.0855
  185MOL0     C25408   8.595   6.629   3.916 -0.3315 -0.5088  0.2267
  185MOL0     N25409   8.596   6.740   4.011  0.9882  0.1597  0.4062
  185MOL0     C25410   8.617   6.873   3.978  0.7623 -0.2174 -0.3529
  185MOL0     C25411   8.595   6.940   4.093 -0.0560  0.2531 -0.9150
  185MOL0     C25412   8.609   7.093   4.124 -0.0846 -0.1693 -0.2504
  185MOL0     C25413   8.753   7.151   4.157  0.1550 -0.7322 -0.7000
  185MOL0     C25414   8.834   7.188   4.038 -0.4087 -0.0392  0.4834
  185MOL0     C25415   8.891   7.086   3.947 -0.1956  0.6045 -0.5108
  185MOL0     O25416   9.019   7.132   3.886  1.3173  0.5969  0.4727
  185MOL0     C25417   9.074   7.031   3.813 -0.9248 -0.1123  1.0713
  185MOL0     C25418   9.041   6.898   3.801 -0.5598 -0.3462  0.4865
  185MOL0     C25419   9.129   6.801   3.747 -0.1638 -0.0386  0.4984
  185MOL0     C25420   9.086   6.662   3.774  0.2288 -0.5150 -0.1825
  185MOL0     C25421   9.252   6.844   3.705  0.3683 -0.0175 -0.4215
  185MOL0     C25422   9.364   6.757   3.688  0.2467  0.1681 -0.6525
  185MOL0     O25423   9.476   6.822   3.636 -0.5862  0.2059  0.0353
  185MOL0     C25424   9.606   6.776   3.648  0.0206  1.2680  0.6474
  185MOL0     C25425   9.686   6.821   3.542  0.0258  0.0685 -0.3623
  185MOL0     C25426   9.819   6.792   3.546 -0.0316  0.0049 -0.3344
  185MOL0     C25427   9.875   6.701   3.639 -0.2422  0.0817 -0.1840
  185MOL0     O25428   9.997   6.645   3.625  0.8628  0.0927  0.0762
  185MOL0     C25429  10.032   6.594   3.489 -0.2122 -0.1682 -0.3154
  185MOL0     C25430  10.119   6.470   3.504 -0.3156  0.0817  0.4587
  185MOL0     C25431  10.144   6.404   3.372  0.9816  0.6028  0.3229
  185MOL0     C25432  10.231   6.272   3.375  0.0362 -0.8831  0.6769
  185MOL0     C25433  10.231   6.201   3.237  0.1786  0.2317 -1.3348
  185MOL0     C25434  10.344   6.106   3.213 -0.3356  0.4314 -0.7047
  185MOL0     C25435  10.287   5.975   3.150  0.9219 -0.0891 -0.6423
  185MOL0     C25436  10.400   5.917   3.072  0.3190  0.4551 -0.3121
  185MOL0    Cl25437  10.484   5.787   3.172 -0.4823 -0.2283  0.2249
  185MOL0     C25438   9.790   6.658   3.748  0.2439 -0.1598 -0.3726
  185MOL0     C25439   9.657   6.697   3.755  0.2347  0.3708  0.9580
  185MOL0     O25440   9.364   6.642   3.738  0.1727 -0.3907  0.4210
  185MOL0     C25441   9.277   6.986   3.691  0.1600  0.7764 -0.2507
  185MOL0     C25442   9.187   7.079   3.733  1.1394  0.3671 -0.3382
  185MOL0     N25443   8.554   6.852   4.191 -0.4070 -0.5198  0.3873
  185MOL0     N25444   8.562   6.734   4.145  0.3719  0.0270 -0.5102
  185MOL0     C25445   9.110   5.787   3.653 -0.4677  1.4500 -0.2073
  185MOL0     C25446   9.135   5.697   3.546 -0.1150  0.3696 -0.4539
  185MOL0     C25447   9.025   5.513   3.128  0.8816  0.6351 -0.4631
  185MOL0     C25448   9.138   5.551   3.053  0.9235  0.0405  0.5089
  185MOL0     C25449   9.173   5.482   2.928 -0.2863  0.5694  0.1319
  185MOL0     C25450   9.094   5.385   2.867  0.4990  0.5920  0.1180
  185MOL0     O25451   9.114   5.327   2.745 -0.0837  0.5169 -0.0617
  185MOL0     C25452   9.217   5.373   2.654  0.5580  0.3097 -0.4363
  185MOL0     C25453   9.246   5.261   2.559 -0.7076  0.1235  0.5323
  185MOL0     C25454   9.323   5.131   2.618  0.5056 -0.6605 -1.1444
  185MOL0     C25455   9.376   5.024   2.515  0.1657 -0.5971  0.1550
  185MOL0     C25456   9.491   5.077   2.448 -0.2004 -0.3456 -0.0028
  185MOL0     C25457   9.584   5.136   2.386 -0.6674  0.1998  0.6340
  185MOL0     C25458   8.981   5.351   2.943 -0.0646 -0.6190  0.7952
  185MOL0     C25459   8.946   5.410   3.069  0.6818 -0.5288 -0.0893
  185MOL0     C25460   8.832   5.347   3.140  1.4280  0.1121  0.4228
  185MOL0     H25461   9.037   5.887   3.291 -1.0845  3.3666 -0.0814
  185MOL0     H25462   8.989   6.054   3.495  0.6641 -0.0671  2.5351
  185MOL0     H25463   9.063   6.164   3.654 -1.9898 -1.5700 -0.7816
  185MOL0     H25464   9.217   6.092   3.722  0.0177 -1.7198  1.5943
  185MOL0     H25465   9.165   6.133   3.948  4.8212  2.2253 -0.5522
  185MOL0     H25466   9.166   6.277   3.857 -0.7653  0.9082 -0.2581
  185MOL0     H25467   8.913   6.126   3.916  0.0009  0.3837 -1.0236
  185MOL0     H25468   8.994   6.249   4.028  1.0403  2.0277 -0.9009
  185MOL0     H25469   8.962   6.430   3.894 -1.2519 -0.2579  1.5373
  185MOL0     H25470   8.961   6.344   3.742 -1.4215  0.3716 -1.3066
  185MOL0     H25471   8.732   6.309   3.935 -1.7445 -2.9377 -1.2335
  185MOL0     H25472   8.742   6.259   3.767 -0.9537  0.8221  0.0231
  185MOL0     H25473   8.762   6.474   3.684  0.0796 -5.5172 -1.3396
  185MOL0     H25474   8.605   6.465   3.761  0.6626  1.1993 -1.1555
  185MOL0     H25475   8.780   6.674   3.831  1.8749  0.4884  2.6812
  185MOL0     H25476   8.793   6.557   3.963 -0.6492  4.0599  2.4156
  185MOL0     H25477   8.535   6.657   3.829  0.1990 -1.5857 -0.5120
  185MOL0     H25478   8.553   6.539   3.963 -0.7607 -0.0926  0.6561
  185MOL0     H25479   8.646   6.929   3.890 -0.7581  2.3367  0.6529
  185MOL0     H25480   8.545   7.125   4.207 -0.0709  0.4924 -0.4889
  185MOL0     H25481   8.556   7.140   4.041 -2.1630 -0.4682  0.8302
  185MOL0     H25482   8.724   7.245   4.206  1.5355 -0.2177 -0.8173
  185MOL0     H25483   8.802   7.103   4.241  0.5949 -0.0366 -0.5467
  185MOL0     H25484   8.770   7.255   3.980 -1.5644 -1.7038 -0.2447
  185MOL0     H25485   8.921   7.237   4.083  0.6446 -1.3243 -0.0750
  185MOL0     H25486   8.906   6.994   4.004 -1.8169 -0.6069 -1.9173
  185MOL0     H25487   8.819   7.057   3.870 -2.6226 -0.9592  2.1366
  185MOL0     H25488   8.950   6.862   3.848 -0.3089 -1.7235 -0.0272
  185MOL0     H25489   9.145   6.620   3.855  1.5643  0.8257 -0.4196
  185MOL0     H25490   9.125   6.604   3.690  0.0734 -0.8762 -0.0082
  185MOL0     H25491   8.979   6.659   3.798  0.9327 -2.0633  3.4025
  185MOL0     H25492   9.637   6.879   3.464 -1.0304 -1.0486 -0.5617
  185MOL0     H25493   9.882   6.816   3.461  1.4680 -3.8490 -0.5362
  185MOL0     H25494   9.938   6.575   3.435 -0.5089 -1.3971  0.5928
  185MOL0     H25495  10.087   6.672   3.436 -1.4263  0.8200 -0.1600
  185MOL0     H25496  10.219   6.511   3.520 -1.2070  3.7202 -2.0190
  185MOL0     H25497  10.074   6.411   3.584 -1.6056  1.9519  1.1871
  185MOL0     H25498  10.186   6.478   3.304  4.1712  0.9289  2.4575
  185MOL0     H25499  10.051   6.363   3.330  1.6920 -2.0190  1.1037
  185MOL0     H25500  10.205   6.191   3.443  0.7673 -1.9675 -0.2987
  185MOL0     H25501  10.336   6.296   3.394  0.4973 -2.7190  0.6653
  185MOL0     H25502  10.134   6.149   3.236 -0.1199  0.2079  3.6075
  185MOL0     H25503  10.213   6.274   3.158 -1.6418 -2.6976 -3.8641
  185MOL0     H25504  10.372   6.080   3.316 -0.3862 -0.2143 -0.8505
  185MOL0     H25505  10.424   6.157   3.158 -0.7856  2.7735  0.6689
  185MOL0     H25506  10.214   6.005   3.075 -0.0852 -1.1674 -0.1110
  185MOL0     H25507  10.237   5.909   3.221 -1.0112  1.2671 -0.6618
  185MOL0     H25508  10.475   5.989   3.038  0.4477 -0.1494 -1.3406
  185MOL0     H25509  10.368   5.866   2.981 -1.9583 -2.5995  1.9849
  185MOL0     H25510   9.808   6.580   3.821 -2.7632 -1.1821 -0.5939
  185MOL0     H25511   9.593   6.661   3.835  0.2908 -1.2404  0.3334
  185MOL0     H25512   9.371   7.030   3.661  0.6351  0.1359  0.2897
  185MOL0     H25513   9.215   7.182   3.752 -0.7544  0.2408  4.3991
  185MOL0     H25514   9.130   5.753   3.754 -2.4073  1.7237  0.3175
  185MOL0     H25515   9.172   5.599   3.572 -0.4106 -0.0382 -1.5011
  185MOL0     H25516   9.214   5.620   3.089  2.5200 -2.0562  1.3424
  185MOL0     H25517   9.270   5.501   2.882 -0.2124 -0.8739 -0.3411
  185MOL0     H25518   9.184   5.468   2.611 -2.1602  1.5791  3.9224
  185MOL0     H25519   9.307   5.402   2.708  1.3593 -2.5085 -0.1051
  185MOL0     H25520   9.324   5.308   2.498  0.3243  0.0312  1.7366
  185MOL0     H25521   9.162   5.230   2.497 -3.0587  2.4653  2.3214
  185MOL0     H25522   9.395   5.171   2.690 -2.7230  0.5752  1.6138
  185MOL0     H25523   9.252   5.078   2.682  1.7217 -0.6936  0.2299
  185MOL0     H25524   9.302   5.013   2.435  1.1615 -4.0985 -0.4124
  185MOL0     H25525   9.387   4.929   2.568 -4.1869 -1.2096  0.3499
  185MOL0     H25526   9.656   5.187   2.326 -0.2529 -1.7265 -0.5889
  185MOL0     H25527   8.913   5.284   2.891 -0.2950  1.0028 -1.0975
  185MOL0     H25528   8.768   5.284   3.078 -0.1174 -0.9002  2.8734
  185MOL0     H25529   8.865   5.277   3.217  1.8972 -2.0160 -1.6152
  185MOL0     H25530   8.762   5.424   3.177 -0.1531  0.8651 -3.6559
  186MOL0     O25531   3.208   7.671   7.601  0.4968  0.2229 -0.4068
  186MOL0     C25532   3.187   7.794   7.601  0.7083 -0.4691  0.0976
  186MOL0     O25533   3.084   7.854   7.667  0.1989 -0.6269 -0.3680
  186MOL0     C25534   3.002   7.772   7.738  0.5072  0.3227 -0.2328
  186MOL0     C25535   2.965   7.820   7.869  0.8460  0.3958  0.0947
  186MOL0     C25536   2.862   7.756   7.945 -0.3280  0.4024 -0.0736
  186MOL0     C25537   2.795   7.640   7.894 -0.9145  0.1341 -0.7746
  186MOL0     O25538   2.705   7.552   7.961  0.3617 -0.5243 -1.1148
  186MOL0     C25539   2.631   7.629   8.065  0.8576  0.2596 -0.2244
  186MOL0     C25540   2.522   7.531   8.114  0.1196 -0.3029 -0.5159
  186MOL0     C25541   2.418   7.517   8.013  0.2399  0.2906  0.0937
  186MOL0     C25542   2.294   7.443   8.065 -0.5839  0.0659 -0.2870
  186MOL0     C25543   2.296   7.285   8.018  0.2962 -0.2927 -0.4097
  186MOL0     C25544   2.160   7.212   8.038  0.8853 -0.8468  0.5539
  186MOL0     C25545   2.185   7.060   8.026  0.2756 -0.6605 -0.0575
  186MOL0     C25546   2.039   6.988   8.023 -0.4304  0.0354 -1.1884
  186MOL0     N25547   2.007   6.932   8.156  0.7625  1.0150 -0.1134
  186MOL0     C25548   1.950   6.810   8.181  0.0274  0.1926 -0.3677
  186MOL0     C25549   1.903   6.810   8.310 -0.4670  0.4298 -0.2495
  186MOL0     C25550   1.864   6.688   8.388  0.0140 -0.0012 -1.1187
  186MOL0     C25551   1.827   6.737   8.545  1.3286  0.7659  0.7307
  186MOL0     C25552   1.803   6.634   8.655 -0.3944  0.4719  0.2409
  186MOL0     C25553   1.735   6.677   8.778 -0.8413 -0.1863  0.6445
  186MOL0     O25554   1.611   6.747   8.757  0.4721 -0.3907 -0.2243
  186MOL0     C25555   1.496   6.673   8.773  0.3460 -0.1423  0.1526
  186MOL0     C25556   1.499   6.527   8.760  0.3743  0.5115 -0.4369
  186MOL0     C25557   1.374   6.451   8.780 -0.0230  0.5989  0.3800
  186MOL0     C25558   1.395   6.300   8.776  0.3734  0.3648  0.5432
  186MOL0     C25559   1.247   6.511   8.800 -0.7541 -0.2375  0.2253
  186MOL0     C25560   1.114   6.447   8.814 -0.2040  0.9628  0.5774
  186MOL0     O25561   1.105   6.316   8.769  0.7968 -0.5946 -0.3029
  186MOL0     C25562   0.994   6.247   8.808  0.2746 -0.1603  0.3467
  186MOL0     C25563   0.912   6.217   8.697  0.3544 -0.9249 -0.4710
  186MOL0     C25564   0.808   6.130   8.703  0.0958 -0.0296 -0.1039
  186MOL0     C25565   0.776   6.081   8.835  0.3396  0.1108  0.3660
  186MOL0     O25566   0.657   6.005   8.849 -0.5251 -0.3711 -1.1363
  186MOL0     C25567   0.536   6.050   8.787  0.3792 -0.5557 -0.4222
  186MOL0     C25568   0.478   6.185   8.830 -0.0250  0.3784  0.0563
  186MOL0     C25569   0.331   6.191   8.867 -0.2374  0.4141  0.0705
  186MOL0     C25570   0.285   6.324   8.931  0.5310 -0.2824  0.0082
  186MOL0     C25571   0.133   6.331   8.958 -0.0054 -0.0789  0.0368
  186MOL0     C25572   0.107   6.230   9.072 -0.1584  0.5274 -0.1109
  186MOL0     C25573  -0.031   6.255   9.134 -0.0399  0.9600 -0.3280
  186MOL0     C25574  -0.152   6.191   9.085  0.0829 -0.6933 -1.6045
  186MOL0    Cl25575  -0.114   6.021   9.029  0.1147  0.1540  0.0711
  186MOL0     C25576   0.855   6.102   8.946 -0.0804 -1.0653 -1.0885
  186MOL0     C25577   0.972   6.189   8.935  0.1190 -0.5139  0.5046
  186MOL0     O25578   1.024   6.528   8.845  0.4247  1.2076 -0.1301
  186MOL0     C25579   1.252   6.660   8.808 -0.1359  0.4237  0.2067
  186MOL0     C25580   1.371   6.733   8.807 -0.9645  0.4570 -0.9532
  186MOL0     N25581   1.942   6.937   8.360  0.0441 -0.0142 -0.5328
  186MOL0     N25582   2.003   7.006   8.268 -0.1696 -0.5438  0.0469
  186MOL0     C25583   2.835   7.604   7.765  0.0293  0.0930 -0.0039
  186MOL0     C25584   2.930   7.667   7.687  0.8266 -0.2869 -0.6834
  186MOL0     C25585   3.294   7.887   7.564 -0.0793 -0.5340 -0.8229
  186MOL0     C25586   3.350   7.970   7.661  0.3696 -0.4350  0.1134
  186MOL0     C25587   3.455   8.058   7.630  0.1867  0.5966 -0.0765
  186MOL0     C25588   3.518   8.058   7.507 -0.7856  0.7911  0.0997
  186MOL0     O25589   3.632   8.140   7.494 -0.4241 -0.2879  0.1099
  186MOL0     C25590   3.698   8.146   7.366  0.0078 -0.6740  0.8548
  186MOL0     C25591   3.796   8.268   7.355  0.3497  0.4022  0.5063
  186MOL0     C25592   3.733   8.406   7.401  0.8746  0.1482 -0.7188
  186MOL0     C25593   3.703   8.509   7.296  0.0942  0.2486 -0.8455
  186MOL0     C25594   3.592   8.458   7.213 -0.7227  0.1425  0.3007
  186MOL0     C25595   3.522   8.404   7.128 -0.3380  0.1025 -0.4397
  186MOL0     C25596   3.476   7.960   7.409  0.4698  0.5224 -0.7246
  186MOL0     C25597   3.368   7.876   7.437  0.7363 -1.5253 -0.1439
  186MOL0     C25598   3.325   7.801   7.320 -0.7741  0.5227  0.2458
  186MOL0     H25599   3.027   7.899   7.909  0.4492  1.0120 -0.4857
  186MOL0     H25600   2.844   7.793   8.046  4.2352 -0.6681  1.3354
  186MOL0     H25601   2.593   7.725   8.027  3.5787  1.4072 -0.2957
  186MOL0     H25602   2.695   7.644   8.152 -0.2057  2.1618  0.2894
  186MOL0     H25603   2.560   7.432   8.142  0.2187  0.2144  1.3414
  186MOL0     H25604   2.477   7.593   8.192 -0.2377  3.9377 -3.7535
  186MOL0     H25605   2.386   7.617   7.983  2.9107  1.2956  0.2568
  186MOL0     H25606   2.461   7.469   7.924  0.9000  0.2533  0.4272
  186MOL0     H25607   2.271   7.459   8.170 -2.0295 -0.8072 -0.4342
  186MOL0     H25608   2.208   7.490   8.016 -0.4263 -0.9957 -1.6581
  186MOL0     H25609   2.372   7.237   8.081 -0.0012  0.0909  0.2548
  186MOL0     H25610   2.313   7.272   7.911 -0.9857  0.6335 -0.7472
  186MOL0     H25611   2.102   7.240   8.126  2.1834 -3.6170  2.4241
  186MOL0     H25612   2.106   7.238   7.947  0.2183 -1.4357  0.7756
  186MOL0     H25613   2.236   7.030   8.118  0.9284  1.3800  0.2767
  186MOL0     H25614   2.242   7.025   7.939  1.8790 -0.0783  0.7258
  186MOL0     H25615   1.957   7.055   7.996  0.7822  1.1520 -2.2062
  186MOL0     H25616   2.035   6.909   7.947  1.5064  0.1170 -1.4304
  186MOL0     H25617   1.977   6.724   8.120  3.9035 -0.0829  1.4045
  186MOL0     H25618   1.952   6.625   8.399  0.5948  0.7670 -1.3075
  186MOL0     H25619   1.778   6.639   8.341 -0.9341  0.8383 -0.3192
  186MOL0     H25620   1.915   6.793   8.578  2.1083  0.5413 -0.8421
  186MOL0     H25621   1.745   6.809   8.537  1.2357  0.5175 -1.2755
  186MOL0     H25622   1.741   6.555   8.612  1.6513 -1.0890 -0.0015
  186MOL0     H25623   1.895   6.578   8.678 -0.5759 -0.4410 -1.1678
  186MOL0     H25624   1.745   6.593   8.847  2.0136  0.5597  1.2633
  186MOL0     H25625   1.801   6.755   8.816 -2.0026  1.3074 -0.3186
  186MOL0     H25626   1.589   6.467   8.753  0.2733  0.4046 -0.8896
  186MOL0     H25627   1.377   6.238   8.687  3.2429 -1.8936  1.3943
  186MOL0     H25628   1.353   6.255   8.866  2.2955  0.5184  1.5608
  186MOL0     H25629   1.498   6.277   8.802 -0.5793 -0.1297  4.5070
  186MOL0     H25630   0.928   6.267   8.602 -0.3170 -0.7356 -0.4909
  186MOL0     H25631   0.759   6.090   8.614  0.4824  0.1759 -0.4093
  186MOL0     H25632   0.559   6.057   8.680 -3.4596 -0.6987 -1.3955
  186MOL0     H25633   0.454   5.977   8.790 -0.2525  0.0412 -2.0527
  186MOL0     H25634   0.538   6.208   8.918  2.4572 -0.9195 -1.2010
  186MOL0     H25635   0.507   6.266   8.762 -2.8792  2.7657  1.4442
  186MOL0     H25636   0.323   6.130   8.958  2.0201  5.3451  4.1172
  186MOL0     H25637   0.271   6.157   8.783  1.7860  0.2173 -1.3516
  186MOL0     H25638   0.315   6.419   8.885 -4.2044  1.7296  0.4087
  186MOL0     H25639   0.344   6.336   9.022  0.1890  0.5761  0.1313
  186MOL0     H25640   0.109   6.433   8.992 -1.1395 -0.2633 -0.1577
  186MOL0     H25641   0.068   6.311   8.873 -0.4811  2.2219 -0.2104
  186MOL0     H25642   0.185   6.237   9.148 -1.1015 -1.7004  1.1449
  186MOL0     H25643   0.111   6.131   9.026 -4.5241 -0.6281  1.4803
  186MOL0     H25644  -0.031   6.364   9.141  0.8474  1.0756 -1.8396
  186MOL0     H25645  -0.018   6.218   9.237  1.6855 -0.2260 -0.9337
  186MOL0     H25646  -0.186   6.256   9.004 -3.1664 -0.0992  0.0789
  186MOL0     H25647  -0.231   6.191   9.161  1.5913  2.8220  0.1963
  186MOL0     H25648   0.812   6.062   9.037  0.1519 -1.0457 -0.9696
  186MOL0     H25649   1.033   6.225   9.016  1.9343 -0.3468 -0.8800
  186MOL0     H25650   1.166   6.719   8.836  0.4244  0.4579  2.0233
  186MOL0     H25651   1.362   6.841   8.808 -0.2077  0.5230 -0.7529
  186MOL0     H25652   2.789   7.513   7.728 -2.7144  0.6239  1.8451
  186MOL0     H25653   2.941   7.637   7.583  0.0695 -0.8146 -0.6251
  186MOL0     H25654   3.296   7.972   7.756  1.3239 -1.4119  0.6909
  186MOL0     H25655   3.492   8.133   7.699 -1.9715  3.1942 -1.5434
  186MOL0     H25656   3.741   8.054   7.327  4.0245  1.9065 -1.4423
  186MOL0     H25657   3.627   8.157   7.283  1.1930 -1.2141 -0.2626
  186MOL0     H25658   3.825   8.269   7.249  1.3727 -2.6626  0.6484
  186MOL0     H25659   3.886   8.244   7.413  0.9387 -0.7647 -0.8384
  186MOL0     H25660   3.647   8.385   7.465  2.5579 -0.7982  1.3202
  186MOL0     H25661   3.802   8.453   7.471  0.7043  0.3277 -0.6696
  186MOL0     H25662   3.798   8.516   7.242  1.3397  3.0824  1.4364
  186MOL0     H25663   3.669   8.600   7.347 -1.3790 -1.7955  2.0782
  186MOL0     H25664   3.463   8.375   7.044  2.1425 -3.9405 -1.0598
  186MOL0     H25665   3.516   7.946   7.309  0.3549 -0.6363 -0.6180
  186MOL0     H25666   3.402   7.745   7.266 -2.0124 -1.3690  0.3770
  186MOL0     H25667   3.245   7.731   7.344 -1.2385  0.2467 -1.8528
  186MOL0     H25668   3.290   7.873   7.245 -0.1180 -0.0450 -0.6225
  187MOL0     O25669   1.415   7.868   9.625 -0.2779  0.0058  0.0130
  187MOL0     C25670   1.485   7.959   9.673  0.3990 -0.6500 -0.1853
  187MOL0     O25671   1.440   8.083   9.710 -0.3147  1.1771  0.4599
  187MOL0     C25672   1.306   8.090   9.750 -0.1236  0.5725  0.0943
  187MOL0     C25673   1.212   8.142   9.655 -0.9644  0.4770 -0.3117
  187MOL0     C25674   1.083   8.153   9.693  0.2285  0.2082  0.9539
  187MOL0     C25675   1.036   8.091   9.817 -0.4315 -0.1704  0.5096
  187MOL0     O25676   0.902   8.092   9.849 -0.1200 -0.3617 -0.8833
  187MOL0     C25677   0.823   7.994   9.784 -1.2827  0.6030  0.6581
  187MOL0     C25678   0.675   8.024   9.794 -0.2736  1.5373  0.3715
  187MOL0     C25679   0.616   7.984   9.925 -0.4524 -0.0456 -0.4899
  187MOL0     C25680   0.610   7.842   9.945  0.0486  0.5081 -0.0969
  187MOL0     C25681   0.499   7.815  10.044  0.2256 -0.2167 -0.7211
  187MOL0     C25682   0.480   7.661  10.054  0.0389  0.1446 -0.2003
  187MOL0     C25683   0.343   7.607  10.092  0.1887  1.0665 -0.1368
  187MOL0     C25684   0.231   7.676  10.011 -0.4642 -0.1857  0.4405
  187MOL0     N25685   0.116   7.582  10.003  0.9505 -0.7359  0.3443
  187MOL0     C25686   0.069   7.520   9.889  0.3148  0.0125  0.2582
  187MOL0     C25687  -0.044   7.462   9.934 -0.1287 -0.4350 -0.4897
  187MOL0     C25688  -0.127   7.360   9.863  0.5768 -0.3261  0.7361
  187MOL0     C25689  -0.217   7.279   9.961  0.0773 -0.1479 -0.0043
  187MOL0     C25690  -0.350   7.345   9.990 -0.3148 -0.0732 -0.7219
  187MOL0     C25691  -0.439   7.247  10.059  0.1473  0.1896 -0.2386
  187MOL0     O25692  -0.567   7.300  10.096  0.3438 -0.2871 -0.5897
  187MOL0     C25693  -0.635   7.268  10.207 -0.0168 -0.1422 -0.3507
  187MOL0     C25694  -0.688   7.365  10.282  0.9674 -0.1677 -0.1442
  187MOL0     C25695  -0.759   7.335  10.398  0.1790 -0.1414  0.7751
  187MOL0     C25696  -0.822   7.444  10.479  0.3535 -0.3712 -0.8908
  187MOL0     C25697  -0.786   7.201  10.441  0.0455 -0.1381  0.1080
  187MOL0     C25698  -0.871   7.154  10.559 -1.0303  0.4242  0.6500
  187MOL0     O25699  -0.959   7.051  10.533  0.3461 -0.9884  0.4803
  187MOL0     C25700  -1.051   7.017  10.630 -0.0397  0.3029  1.5561
  187MOL0     C25701  -1.088   6.890  10.645 -0.1227 -0.9759  0.2658
  187MOL0     C25702  -1.189   6.861  10.738 -0.0041  0.7480  0.6898
  187MOL0     C25703  -1.252   6.951  10.823  0.2145  0.1084  0.5346
  187MOL0     O25704  -1.337   6.914  10.917  0.0025  0.1470 -0.2391
  187MOL0     C25705  -1.381   7.002  11.020  0.0614 -0.0989 -0.3372
  187MOL0     C25706  -1.448   6.928  11.136 -0.0570 -0.0891 -0.2230
  187MOL0     C25707  -1.593   6.890  11.107 -0.6015 -0.2392  0.2930
  187MOL0     C25708  -1.640   6.802  11.218  0.4705  0.8440 -0.2497
  187MOL0     C25709  -1.792   6.776  11.216  0.7232 -1.0891 -0.7411
  187MOL0     C25710  -1.830   6.657  11.315  0.5052 -0.6533  0.0126
  187MOL0     C25711  -1.983   6.667  11.343  0.3315  0.2286  0.9097
  187MOL0     C25712  -2.009   6.754  11.463  0.8611 -1.0261  1.0141
  187MOL0    Cl25713  -1.980   6.650  11.609  0.7474  0.1278 -0.0331
  187MOL0     C25714  -1.209   7.081  10.800  0.4972  0.3021  0.0560
  187MOL0     C25715  -1.114   7.114  10.704  0.0027 -0.4920  0.0446
  187MOL0     O25716  -0.841   7.195  10.670  0.0346  0.6625  0.0516
  187MOL0     C25717  -0.731   7.108  10.360 -1.7607  0.7929 -0.5510
  187MOL0     C25718  -0.663   7.136  10.237  0.8530  0.2211 -0.5105
  187MOL0     N25719  -0.086   7.518  10.055 -0.1865  0.1784 -0.5592
  187MOL0     N25720   0.020   7.583  10.094 -0.0846 -0.9181 -0.0092
  187MOL0     C25721   1.130   8.040   9.902  0.2657 -0.3470 -0.3270
  187MOL0     C25722   1.260   8.038   9.868  0.5000 -0.0402  0.2003
  187MOL0     C25723   1.627   7.941   9.660 -0.6002 -0.1654 -0.2954
  187MOL0     C25724   1.698   8.051   9.635  0.6536  0.1875  2.0703
  187MOL0     C25725   1.841   8.060   9.629 -0.1609  1.1975 -1.2239
  187MOL0     C25726   1.908   7.935   9.653  0.2086 -0.0633  0.3089
  187MOL0     O25727   2.051   7.921   9.647  0.0602  0.3897  0.2233
  187MOL0     C25728   2.134   8.044   9.645  0.9283  0.4738 -0.0365
  187MOL0     C25729   2.283   8.014   9.638  1.6398  0.7378  0.4724
  187MOL0     C25730   2.307   7.954   9.492  0.5051  0.7560 -0.3878
  187MOL0     C25731   2.398   7.834   9.502  0.0791 -0.5030  0.8443
  187MOL0     C25732   2.528   7.878   9.544  0.2030  0.8304  0.1631
  187MOL0     C25733   2.639   7.924   9.547  0.4579  0.6016 -0.8283
  187MOL0     C25734   1.840   7.813   9.675  0.8302  0.1611  0.5196
  187MOL0     C25735   1.695   7.817   9.681  0.2178  0.3744  1.3760
  187MOL0     C25736   1.620   7.685   9.682  0.4522  0.3112 -0.5237
  187MOL0     H25737   1.248   8.180   9.560  0.6294  1.9315  0.8178
  187MOL0     H25738   1.001   8.202   9.640 -0.6321 -1.7797  0.3489
  187MOL0     H25739   0.851   7.897   9.826  0.8687  0.8858  0.0127
  187MOL0     H25740   0.859   7.984   9.681  2.8291  1.7743  1.7819
  187MOL0     H25741   0.672   8.132   9.776 -2.9838  1.0260 -3.7420
  187MOL0     H25742   0.627   7.984   9.704  1.2553  2.4502 -0.8978
  187MOL0     H25743   0.660   8.026  10.016  0.5954 -2.6186  0.2933
  187MOL0     H25744   0.512   8.018   9.914  0.0365  1.6665 -0.1048
  187MOL0     H25745   0.595   7.786   9.852  0.2695 -3.2303  1.8840
  187MOL0     H25746   0.706   7.801   9.979 -0.3617 -3.4142 -2.9459
  187MOL0     H25747   0.408   7.861  10.003 -0.1750 -1.3115 -1.0990
  187MOL0     H25748   0.508   7.861  10.143 -0.5744  0.6400 -1.0266
  187MOL0     H25749   0.505   7.613   9.959  0.4470  0.1301 -0.0871
  187MOL0     H25750   0.560   7.615  10.112  0.3668 -0.5017 -1.1373
  187MOL0     H25751   0.324   7.631  10.197  0.2759  1.5870 -0.2333
  187MOL0     H25752   0.342   7.499  10.080 -0.4732  0.7067  2.4747
  187MOL0     H25753   0.199   7.765  10.067  0.0432 -1.6480  3.2258
  187MOL0     H25754   0.265   7.700   9.910 -0.7118 -1.3833  0.0638
  187MOL0     H25755   0.138   7.482   9.814  0.9100  0.7099  0.4318
  187MOL0     H25756  -0.074   7.283   9.805 -0.0372  1.8410 -2.9969
  187MOL0     H25757  -0.189   7.412   9.790  1.3682  0.9658  0.9550
  187MOL0     H25758  -0.236   7.178   9.925  0.2905  0.3653 -1.6246
  187MOL0     H25759  -0.166   7.272  10.058  2.4180  2.2383 -0.9480
  187MOL0     H25760  -0.343   7.429  10.060 -4.0290  0.8345 -1.2108
  187MOL0     H25761  -0.390   7.383   9.896  0.6666  0.7312 -0.8363
  187MOL0     H25762  -0.444   7.165   9.987  0.0373  2.2295 -2.7074
  187MOL0     H25763  -0.389   7.220  10.153 -2.4614 -1.0628  0.8758
  187MOL0     H25764  -0.683   7.464  10.239 -1.1690 -0.0679 -0.2750
  187MOL0     H25765  -0.743   7.477  10.547 -1.6827 -1.8526  2.4307
  187MOL0     H25766  -0.913   7.407  10.528  0.9631  1.7318  2.1093
  187MOL0     H25767  -0.843   7.533  10.418  0.3749 -1.6446 -2.8564
  187MOL0     H25768  -1.030   6.815  10.593  2.9681  0.7707  0.8980
  187MOL0     H25769  -1.222   6.758  10.738 -1.6905  1.1978  3.0952
  187MOL0     H25770  -1.304   7.064  11.067 -1.4928  1.4409  0.3061
  187MOL0     H25771  -1.454   7.076  10.985 -0.2101 -0.3791 -0.3634
  187MOL0     H25772  -1.390   6.839  11.159  1.2165  0.1081 -2.3870
  187MOL0     H25773  -1.436   6.986  11.228 -1.5809 -3.1040  2.0349
  187MOL0     H25774  -1.600   6.846  11.007 -0.2083 -0.2034  0.2492
  187MOL0     H25775  -1.665   6.972  11.112  0.7701  1.0087  0.2400
  187MOL0     H25776  -1.615   6.844  11.316 -3.3909  0.6327  0.9856
  187MOL0     H25777  -1.593   6.704  11.201 -0.2529 -0.3321  3.5739
  187MOL0     H25778  -1.832   6.867  11.261  1.6770 -1.6741  1.3953
  187MOL0     H25779  -1.824   6.757  11.113 -2.1127 -3.7074  0.4805
  187MOL0     H25780  -1.769   6.656  11.406  2.7659 -1.4014 -1.4182
  187MOL0     H25781  -1.807   6.567  11.257 -0.0016 -1.0983  0.4940
  187MOL0     H25782  -2.026   6.569  11.367 -2.3719  1.0153 -0.2226
  187MOL0     H25783  -2.035   6.709  11.256  0.6460  0.4487  0.8285
  187MOL0     H25784  -2.108   6.799  11.476  1.2316 -0.3840  1.6673
  187MOL0     H25785  -1.928   6.827  11.452  0.8274 -0.7413  2.4663
  187MOL0     H25786  -1.258   7.161  10.853 -0.8472 -1.6885  1.9751
  187MOL0     H25787  -1.075   7.216  10.709  0.5324 -0.6279 -0.9679
  187MOL0     H25788  -0.745   7.002  10.379 -0.8372  0.4122 -1.8849
  187MOL0     H25789  -0.624   7.057  10.174  3.3943 -0.1760  1.3871
  187MOL0     H25790   1.097   7.999   9.997 -1.4982 -2.6412 -1.7890
  187MOL0     H25791   1.334   8.001   9.938 -1.6735  0.1953  2.7684
  187MOL0     H25792   1.649   8.142   9.602  1.8679 -0.3450 -1.6857
  187MOL0     H25793   1.891   8.151   9.601  1.0476 -0.0073 -3.1887
  187MOL0     H25794   2.099   8.099   9.557 -3.1711 -1.4880  0.1107
  187MOL0     H25795   2.112   8.106   9.732  1.1229  2.8011 -1.5686
  187MOL0     H25796   2.308   7.952   9.724 -0.2356 -0.2956  0.3171
  187MOL0     H25797   2.335   8.111   9.636 -0.8579  2.1491 -1.2043
  187MOL0     H25798   2.211   7.924   9.448  0.9624 -3.6130  1.1666
  187MOL0     H25799   2.356   8.019   9.419  1.2737 -0.8869 -1.4023
  187MOL0     H25800   2.407   7.783   9.406  1.2110 -1.5087  1.4523
  187MOL0     H25801   2.362   7.766   9.580 -1.2213 -1.8015 -0.8144
  187MOL0     H25802   2.743   7.941   9.568  0.7917 -2.0566 -0.0480
  187MOL0     H25803   1.900   7.722   9.682 -2.7458 -2.4346 -0.0321
  187MOL0     H25804   1.544   7.684   9.761 -0.5765  0.6427 -1.4801
  187MOL0     H25805   1.563   7.665   9.591 -1.7592  0.7560  0.6710
  187MOL0     H25806   1.668   7.588   9.698  0.7856  0.1157 -2.4703
  188MOL0     O25807  11.333   6.963  10.147  0.4563  0.4674 -0.1127
  188MOL0     C25808  11.345   6.854  10.098 -0.0293  0.4129  0.3269
  188MOL0     O25809  11.260   6.751  10.120  0.0687  0.3620 -0.3663
  188MOL0     C25810  11.162   6.750  10.219 -0.2136 -0.4630  0.4447
  188MOL0     C25811  11.173   6.813  10.342 -0.6420 -0.2867 -0.5965
  188MOL0     C25812  11.082   6.813  10.443 -0.3475 -0.6659  0.1150
  188MOL0     C25813  10.973   6.728  10.418  0.4476  0.2510 -0.4621
  188MOL0     O25814  10.870   6.716  10.512 -0.3276 -0.6174 -0.6611
  188MOL0     C25815  10.903   6.751  10.650 -0.8900  0.8662 -0.6444
  188MOL0     C25816  10.820   6.648  10.731 -0.8035 -0.2251 -0.8109
  188MOL0     C25817  10.768   6.694  10.872  0.3707  1.1697  0.4838
  188MOL0     C25818  10.899   6.718  10.947  0.4188  0.2983  1.0475
  188MOL0     C25819  10.859   6.736  11.090  0.0304 -0.2177 -0.2461
  188MOL0     C25820  10.973   6.761  11.186  0.1806  0.3166  0.0362
  188MOL0     C25821  11.076   6.644  11.187 -0.5786  0.1995  0.3240
  188MOL0     C25822  11.191   6.686  11.272  0.3090 -0.4960  0.6224
  188MOL0     N25823  11.260   6.560  11.296  0.2375 -0.9559  0.0784
  188MOL0     C25824  11.367   6.511  11.229  0.1441  0.7568  0.7719
  188MOL0     C25825  11.419   6.414  11.305  0.1748  0.7775  0.1660
  188MOL0     C25826  11.533   6.308  11.299  1.5555  0.4171  0.6749
  188MOL0     C25827  11.513   6.159  11.252  1.2008  0.2079 -1.3284
  188MOL0     C25828  11.455   6.067  11.359  0.5577  0.5482  0.5608
  188MOL0     C25829  11.411   5.923  11.300  0.8174 -0.1374 -0.0319
  188MOL0     O25830  11.519   5.862  11.226 -0.5314 -0.3556 -0.8049
  188MOL0     C25831  11.504   5.735  11.178 -0.0298  0.5202  0.9126
  188MOL0     C25832  11.600   5.686  11.082 -1.0564 -0.1241 -0.5789
  188MOL0     C25833  11.601   5.554  11.032 -0.6890 -0.1716  0.5125
  188MOL0     C25834  11.716   5.527  10.940 -0.4728 -0.1588  0.0712
  188MOL0     C25835  11.498   5.470  11.081  0.1899  0.4962  0.2754
  188MOL0     C25836  11.472   5.337  11.020 -0.0947  0.2185  0.6214
  188MOL0     O25837  11.448   5.330  10.883  0.2594 -0.8909  0.6398
  188MOL0     C25838  11.460   5.205  10.823 -0.2154 -0.1487  0.6328
  188MOL0     C25839  11.576   5.168  10.753 -0.3173 -1.0501 -0.4016
  188MOL0     C25840  11.589   5.039  10.698 -1.1428  0.5046  0.2407
  188MOL0     C25841  11.497   4.941  10.720 -0.8261  0.6828 -0.9323
  188MOL0     O25842  11.498   4.803  10.671 -0.4844  0.0040 -0.2673
  188MOL0     C25843  11.591   4.767  10.577  0.6663 -1.0020 -0.2941
  188MOL0     C25844  11.552   4.836  10.443 -0.0999  0.7431 -0.7233
  188MOL0     C25845  11.399   4.808  10.395  0.1850  0.5357 -0.2906
  188MOL0     C25846  11.357   4.657  10.383 -0.4714 -0.3445 -0.6271
  188MOL0     C25847  11.226   4.652  10.305  0.1271  0.1905 -0.1620
  188MOL0     C25848  11.193   4.500  10.282 -0.1057  0.1869  0.8748
  188MOL0     C25849  11.046   4.482  10.233 -0.1347 -0.3939 -0.4252
  188MOL0     C25850  11.014   4.333  10.230  0.3511 -0.8516 -0.5026
  188MOL0    Cl25851  11.131   4.233  10.121  0.1441 -0.2015  0.0498
  188MOL0     C25852  11.383   4.979  10.793 -0.2355 -0.4806 -0.1110
  188MOL0     C25853  11.360   5.109  10.842  0.1357  1.0707 -0.9706
  188MOL0     O25854  11.467   5.240  11.097  0.1939 -0.1805 -0.9512
  188MOL0     C25855  11.393   5.509  11.170 -1.5458 -0.0467  0.1321
  188MOL0     C25856  11.398   5.644  11.213 -0.4179 -0.3765  0.3972
  188MOL0     N25857  11.341   6.408  11.419  0.4987  0.3566 -0.6879
  188MOL0     N25858  11.240   6.488  11.414  0.3842 -1.0322  0.1526
  188MOL0     C25859  10.962   6.654  10.298  0.1669 -1.2886 -0.4455
  188MOL0     C25860  11.054   6.669  10.193 -0.0466 -0.2857 -0.2221
  188MOL0     C25861  11.463   6.827  10.015  1.0384 -0.8761  0.2220
  188MOL0     C25862  11.450   6.756   9.899 -0.7710 -0.7768 -0.0239
  188MOL0     C25863  11.556   6.743   9.808  0.8466 -0.2414  0.3430
  188MOL0     C25864  11.673   6.818   9.829 -0.2402 -0.4743 -0.0319
  188MOL0     O25865  11.767   6.818   9.729  0.7515  0.6256 -0.7807
  188MOL0     C25866  11.889   6.770   9.777 -0.2565 -0.1783  0.1997
  188MOL0     C25867  11.968   6.668   9.680  1.1180  0.0765 -0.9689
  188MOL0     C25868  11.890   6.542   9.652  0.6859  0.3905 -0.2468
  188MOL0     C25869  11.778   6.559   9.533 -0.3351 -0.7342 -0.2858
  188MOL0     C25870  11.837   6.572   9.396 -0.1521  0.0237  0.4537
  188MOL0     C25871  11.906   6.578   9.300 -0.4247 -0.0042  0.0477
  188MOL0     C25872  11.688   6.899   9.950  0.8377  0.5993 -0.7372
  188MOL0     C25873  11.588   6.894  10.048  0.3869  0.1923 -0.5459
  188MOL0     C25874  11.621   6.941  10.186 -0.4580  0.1415  1.2801
  188MOL0     H25875  11.262   6.872  10.365 -0.3208 -1.1569  0.5116
  188MOL0     H25876  11.092   6.866  10.537  1.9706 -1.5359  0.4162
  188MOL0     H25877  10.879   6.854  10.678 -1.4523  0.1250  1.9560
  188MOL0     H25878  11.007   6.731  10.675 -0.2442  0.7740 -3.2155
  188MOL0     H25879  10.735   6.615  10.672  0.1544 -1.4031 -1.5917
  188MOL0     H25880  10.882   6.559  10.747 -3.0344 -1.4451  1.7557
  188MOL0     H25881  10.711   6.786  10.855 -1.4908  0.3540  1.9074
  188MOL0     H25882  10.692   6.623  10.903 -2.0171  2.0821 -2.6897
  188MOL0     H25883  10.967   6.633  10.938  0.6165  0.2035  2.9749
  188MOL0     H25884  10.945   6.814  10.920 -1.1904  0.1550 -2.8676
  188MOL0     H25885  10.806   6.644  11.118  0.5732 -1.7448 -3.7571
  188MOL0     H25886  10.791   6.821  11.097  0.2828  0.1831 -2.1525
  188MOL0     H25887  11.023   6.858  11.177  3.6481 -1.4761 -2.4754
  188MOL0     H25888  10.930   6.762  11.287 -0.8967  0.8940 -0.4122
  188MOL0     H25889  11.114   6.627  11.086 -2.1558 -0.5526 -0.1772
  188MOL0     H25890  11.024   6.556  11.227 -2.1810  0.6785 -0.6466
  188MOL0     H25891  11.244   6.775  11.236 -2.2270  1.4989  1.4634
  188MOL0     H25892  11.153   6.716  11.370 -2.6193  0.8679 -0.8225
  188MOL0     H25893  11.393   6.531  11.126 -0.8302  2.6946  0.8676
  188MOL0     H25894  11.582   6.320  11.396 -1.5969  0.2695  2.4199
  188MOL0     H25895  11.597   6.357  11.225 -1.3821 -0.6944 -2.9152
  188MOL0     H25896  11.439   6.161  11.172 -2.2048 -1.2639  1.5066
  188MOL0     H25897  11.606   6.106  11.230  2.0336  0.5760  1.0703
  188MOL0     H25898  11.532   6.049  11.435  1.2907  1.9872  0.1873
  188MOL0     H25899  11.369   6.115  11.407  1.4723  1.8485  0.9371
  188MOL0     H25900  11.371   5.853  11.373 -1.0122 -2.9883 -3.4682
  188MOL0     H25901  11.326   5.940  11.234 -0.3080  0.8828  1.6207
  188MOL0     H25902  11.692   5.738  11.055  2.0683 -5.0151 -0.5636
  188MOL0     H25903  11.783   5.464  11.000  1.4079  3.3901  2.0074
  188MOL0     H25904  11.779   5.611  10.912 -0.1794 -0.5792 -0.5531
  188MOL0     H25905  11.675   5.482  10.849 -1.1191  1.2466 -0.3670
  188MOL0     H25906  11.660   5.235  10.741  0.9323 -2.9708 -3.5242
  188MOL0     H25907  11.674   5.006  10.639 -2.2026  0.5267 -1.3645
  188MOL0     H25908  11.695   4.771  10.612  1.1118  1.2977 -1.6435
  188MOL0     H25909  11.579   4.662  10.551 -0.7619 -0.3415 -2.6609
  188MOL0     H25910  11.570   4.944  10.444  1.1927  0.5400 -0.6329
  188MOL0     H25911  11.620   4.788  10.373 -0.4319  0.4537 -0.8515
  188MOL0     H25912  11.400   4.850  10.294  0.7989 -0.1995 -0.5966
  188MOL0     H25913  11.322   4.853  10.460  0.5128  1.0217 -0.2316
  188MOL0     H25914  11.357   4.603  10.478 -2.8577  1.6654  0.6420
  188MOL0     H25915  11.437   4.613  10.323  0.8700  4.9532 -3.3151
  188MOL0     H25916  11.154   4.706  10.367  0.8944  2.6422 -1.2949
  188MOL0     H25917  11.233   4.711  10.213  0.9477  0.3350 -0.0129
  188MOL0     H25918  11.210   4.440  10.372  2.6611 -3.0284 -1.5330
  188MOL0     H25919  11.262   4.453  10.212  1.5635  0.4305  2.2638
  188MOL0     H25920  11.024   4.538  10.141 -0.6999  2.1564  1.1616
  188MOL0     H25921  10.973   4.540  10.291  2.3361  1.6109  0.8976
  188MOL0     H25922  10.916   4.326  10.181  0.4119  0.1637 -0.7851
  188MOL0     H25923  11.022   4.281  10.325  0.8421 -2.5436 -1.4217
  188MOL0     H25924  11.316   4.904  10.832  0.9378 -0.5667  1.8920
  188MOL0     H25925  11.277   5.133  10.908  1.9558  1.4590  1.3105
  188MOL0     H25926  11.321   5.438  11.208  1.7255 -2.3350  2.6050
  188MOL0     H25927  11.309   5.685  11.259  0.2321  1.4530  0.0892
  188MOL0     H25928  10.868   6.601  10.290 -1.0114  0.7966 -1.3600
  188MOL0     H25929  11.049   6.617  10.098 -0.6560 -0.7696  0.0697
  188MOL0     H25930  11.364   6.692   9.878  0.4718 -2.2490 -0.7961
  188MOL0     H25931  11.554   6.700   9.708  2.7460  0.3372  0.0107
  188MOL0     H25932  11.960   6.851   9.792  0.5576 -1.1571  1.9823
  188MOL0     H25933  11.878   6.733   9.879 -0.9789  0.8405  0.5040
  188MOL0     H25934  12.068   6.647   9.718  1.7483  0.0752 -2.5360
  188MOL0     H25935  11.988   6.726   9.589 -0.1105  3.3155  0.6689
  188MOL0     H25936  11.960   6.467   9.616 -0.3153 -0.2772 -0.8426
  188MOL0     H25937  11.841   6.499   9.740  1.7479 -0.8597 -0.2328
  188MOL0     H25938  11.705   6.636   9.557  0.8889  0.2478  0.4432
  188MOL0     H25939  11.713   6.472   9.526  1.1424 -1.9278  0.2039
  188MOL0     H25940  11.962   6.594   9.210  1.7225  2.4897  1.6668
  188MOL0     H25941  11.778   6.960   9.959 -0.1829  2.2682 -1.4636
  188MOL0     H25942  11.729   6.936  10.198  0.1214  0.0722 -2.5928
  188MOL0     H25943  11.598   7.048  10.190 -1.5891 -0.0315 -0.0256
  188MOL0     H25944  11.571   6.883  10.264  0.7191 -0.2597  1.7504
  189MOL0     O25945   0.230   6.282   6.583  1.3724 -0.0737  0.8383
  189MOL0     C25946   0.233   6.172   6.630 -0.7820  0.8026 -0.5861
  189MOL0     O25947   0.320   6.078   6.598  0.3953  0.2563 -0.1187
  189MOL0     C25948   0.434   6.121   6.530 -0.3637  0.6147  0.0210
  189MOL0     C25949   0.542   6.136   6.618 -0.6441  0.3282 -0.1926
  189MOL0     C25950   0.674   6.170   6.565  0.5831 -0.1698  0.9232
  189MOL0     C25951   0.686   6.174   6.420  1.1471 -1.3954  0.7343
  189MOL0     O25952   0.808   6.207   6.357 -0.6050  0.1150 -0.1972
  189MOL0     C25953   0.913   6.253   6.442  0.2008  0.0014 -0.5474
  189MOL0     C25954   1.052   6.243   6.383  0.5308 -0.4280  0.8656
  189MOL0     C25955   1.084   6.094   6.363 -0.5348  0.5236  0.3088
  189MOL0     C25956   1.220   6.082   6.300 -0.4379 -0.8838 -0.7189
  189MOL0     C25957   1.236   5.949   6.232 -1.0361  0.3246  0.7632
  189MOL0     C25958   1.371   5.959   6.153  0.3706  0.0484 -0.0439
  189MOL0     C25959   1.366   5.966   6.001 -0.1296  0.6847 -0.0311
  189MOL0     C25960   1.332   6.102   5.948 -0.3661  0.5966  0.1573
  189MOL0     N25961   1.387   6.113   5.813 -0.5784  1.0218  0.5542
  189MOL0     C25962   1.512   6.152   5.778 -0.4689 -0.1820 -0.2263
  189MOL0     C25963   1.547   6.110   5.658 -0.6708  0.0243 -1.4487
  189MOL0     C25964   1.683   6.114   5.595  0.1542 -0.8453  0.0735
  189MOL0     C25965   1.779   6.014   5.661 -0.6401  0.0092 -0.7535
  189MOL0     C25966   1.720   5.873   5.643 -0.3624  1.2201 -0.4948
  189MOL0     C25967   1.816   5.762   5.700 -0.1390 -0.0443 -0.6136
  189MOL0     O25968   1.881   5.791   5.831  0.2667 -0.1393  1.0035
  189MOL0     C25969   1.818   5.783   5.945  0.6593 -0.1822 -0.2783
  189MOL0     C25970   1.864   5.830   6.073  0.2876  0.2235 -0.6883
  189MOL0     C25971   1.802   5.803   6.196  0.1647  0.0812 -0.4748
  189MOL0     C25972   1.882   5.838   6.328  0.0593 -0.1466  1.0366
  189MOL0     C25973   1.684   5.723   6.189  0.7554  0.7993  0.0013
  189MOL0     C25974   1.609   5.682   6.301 -0.8272 -0.5101  1.1939
  189MOL0     O25975   1.657   5.568   6.364 -0.5095  0.1207 -0.0544
  189MOL0     C25976   1.595   5.512   6.476 -0.1447  0.8173  0.5209
  189MOL0     C25977   1.682   5.434   6.557 -0.4050  0.0303 -0.7227
  189MOL0     C25978   1.621   5.371   6.675  0.4616  0.1149  0.9377
  189MOL0     C25979   1.484   5.374   6.704 -0.1010 -0.0234 -0.0626
  189MOL0     O25980   1.446   5.318   6.824  0.2731  0.3439  0.7827
  189MOL0     C25981   1.368   5.402   6.901  0.3720 -0.1889  0.8256
  189MOL0     C25982   1.232   5.319   6.939 -0.8953 -0.2619  0.7260
  189MOL0     C25983   1.271   5.200   7.028  0.0410 -0.5777 -0.6464
  189MOL0     C25984   1.313   5.067   6.960 -0.7124 -0.1929 -1.0877
  189MOL0     C25985   1.209   4.947   6.965  0.2213  0.0208 -0.3446
  189MOL0     C25986   1.191   4.900   7.110  0.0410  1.2232  0.0829
  189MOL0     C25987   1.153   4.755   7.138  0.7297 -0.4952 -0.6030
  189MOL0     C25988   1.145   4.725   7.283 -0.8986  0.6115 -0.7440
  189MOL0    Cl25989   1.001   4.802   7.359  0.1275 -0.1214 -0.0815
  189MOL0     C25990   1.407   5.438   6.608 -0.6051  0.1616  0.3631
  189MOL0     C25991   1.457   5.509   6.499  0.0653 -0.9009 -0.3122
  189MOL0     O25992   1.535   5.759   6.352 -0.5996  0.6786  0.5473
  189MOL0     C25993   1.627   5.687   6.066 -0.1522 -0.2172 -0.6370
  189MOL0     C25994   1.689   5.717   5.944  0.0011 -1.2250 -0.6215
  189MOL0     N25995   1.431   6.042   5.612  0.5486 -0.8076 -0.0013
  189MOL0     N25996   1.341   6.047   5.705 -0.2316  0.0645  0.8131
  189MOL0     C25997   0.577   6.136   6.338 -0.5918 -0.3489 -1.2510
  189MOL0     C25998   0.448   6.120   6.392  0.2860  0.1097 -1.1886
  189MOL0     C25999   0.116   6.129   6.705 -0.3186 -0.3492 -0.1688
  189MOL0     C26000   0.116   5.999   6.779 -0.2719 -0.6695  0.8707
  189MOL0     C26001   0.003   5.939   6.833 -0.0891  0.2405 -1.0096
  189MOL0     C26002  -0.116   6.016   6.844  0.1839 -1.0547  1.1199
  189MOL0     O26003  -0.231   5.954   6.890  0.2701 -0.4305 -0.8856
  189MOL0     C26004  -0.347   6.035   6.891 -0.9526  0.1673  0.5859
  189MOL0     C26005  -0.463   5.951   6.945 -0.3448 -0.6731  0.9777
  189MOL0     C26006  -0.555   5.868   6.845 -1.3390 -0.2548 -0.8226
  189MOL0     C26007  -0.474   5.798   6.729  0.2934  0.0910 -0.0811
  189MOL0     C26008  -0.577   5.725   6.652  0.3313 -0.0339  0.0196
  189MOL0     C26009  -0.666   5.668   6.594 -1.5687  0.4479 -0.2054
  189MOL0     C26010  -0.116   6.149   6.791 -0.2901  0.6339  0.5038
  189MOL0     C26011  -0.002   6.201   6.717  0.9526  0.5934  0.6068
  189MOL0     C26012  -0.046   6.329   6.637 -1.8961  0.1453  0.0499
  189MOL0     H26013   0.533   6.136   6.726 -4.3351  1.8165 -0.3697
  189MOL0     H26014   0.747   6.196   6.641  2.8294 -1.6042 -0.6210
  189MOL0     H26015   0.919   6.202   6.538  1.5135 -0.1275 -0.6793
  189MOL0     H26016   0.897   6.360   6.458 -6.0732 -0.8279  1.2966
  189MOL0     H26017   1.069   6.294   6.287  0.8423  1.0815  1.6784
  189MOL0     H26018   1.118   6.289   6.458  0.8617  1.4103 -0.4765
  189MOL0     H26019   1.074   6.049   6.462 -0.5417 -0.0719  0.0399
  189MOL0     H26020   1.017   6.041   6.295 -0.8478  0.4671  0.6610
  189MOL0     H26021   1.235   6.166   6.231 -3.0045  0.1762 -0.1080
  189MOL0     H26022   1.290   6.082   6.385  1.5937 -0.2685 -2.3057
  189MOL0     H26023   1.158   5.919   6.162  0.8074 -2.1867 -0.4006
  189MOL0     H26024   1.236   5.875   6.312 -0.7528  1.0844  1.4792
  189MOL0     H26025   1.433   6.044   6.183  0.3904 -0.3188  0.9893
  189MOL0     H26026   1.427   5.867   6.175 -0.8721 -1.4027 -2.5714
  189MOL0     H26027   1.292   5.897   5.959  0.6342  1.1453 -2.2288
  189MOL0     H26028   1.458   5.929   5.957 -1.2942 -0.4118 -1.6646
  189MOL0     H26029   1.226   6.124   5.968 -0.2699 -0.2424  1.7396
  189MOL0     H26030   1.390   6.168   6.013 -2.8898  2.6466  0.5409
  189MOL0     H26031   1.573   6.202   5.852  0.4276 -2.0956  0.4065
  189MOL0     H26032   1.714   6.217   5.612 -3.6736  0.3441  0.9266
  189MOL0     H26033   1.684   6.086   5.489  0.2046 -1.9349  0.3416
  189MOL0     H26034   1.877   6.031   5.614 -0.2014  0.4546  0.3014
  189MOL0     H26035   1.781   6.046   5.765  3.2063  0.5184 -0.8314
  189MOL0     H26036   1.635   5.868   5.712  1.0940 -4.1238  1.4020
  189MOL0     H26037   1.702   5.852   5.537  3.4676 -1.5397 -0.8072
  189MOL0     H26038   1.774   5.661   5.691 -0.2727  0.1129 -1.9849
  189MOL0     H26039   1.899   5.754   5.630  0.8565 -1.3324  0.6532
  189MOL0     H26040   1.961   5.877   6.066 -1.3862  4.4747  1.2130
  189MOL0     H26041   1.855   5.777   6.415 -0.1005 -2.8249 -0.7564
  189MOL0     H26042   1.873   5.944   6.353  4.2418  0.2581  1.4752
  189MOL0     H26043   1.984   5.827   6.291 -0.4914  4.5289 -2.9572
  189MOL0     H26044   1.790   5.426   6.546 -0.0241 -0.1651  2.2691
  189MOL0     H26045   1.683   5.302   6.731  0.2511  2.8464  4.9257
  189MOL0     H26046   1.430   5.413   6.991  2.0381  0.4611 -0.3533
  189MOL0     H26047   1.343   5.499   6.857 -3.1178 -1.2674  0.1932
  189MOL0     H26048   1.157   5.386   6.982 -0.9109 -1.5067  2.8024
  189MOL0     H26049   1.189   5.266   6.854  0.2467  1.2131 -0.8366
  189MOL0     H26050   1.179   5.184   7.086 -1.0031  1.6644 -1.5404
  189MOL0     H26051   1.338   5.235   7.107 -3.7341 -0.2593  2.7169
  189MOL0     H26052   1.408   5.034   7.004 -0.8058  2.6458  1.5799
  189MOL0     H26053   1.342   5.090   6.857 -3.7222 -0.6610 -2.1458
  189MOL0     H26054   1.111   4.982   6.933  0.7085  1.9912  0.2001
  189MOL0     H26055   1.241   4.860   6.906  0.5690 -1.9680  2.5570
  189MOL0     H26056   1.134   4.978   7.162  2.0694  1.8120  1.5347
  189MOL0     H26057   1.286   4.916   7.162  1.2535 -0.5493 -1.4730
  189MOL0     H26058   1.218   4.692   7.076  2.7575  2.0998 -1.3162
  189MOL0     H26059   1.053   4.736   7.099  1.6672 -0.7290 -3.1029
  189MOL0     H26060   1.238   4.750   7.336 -1.7516 -0.2383  1.2489
  189MOL0     H26061   1.144   4.618   7.305  2.5458  0.5376 -0.3708
  189MOL0     H26062   1.301   5.441   6.632 -0.3488  2.8907  1.4559
  189MOL0     H26063   1.399   5.567   6.427 -1.0327 -2.2243 -0.5310
  189MOL0     H26064   1.537   5.629   6.086  2.5549 -3.9499  2.1547
  189MOL0     H26065   1.638   5.679   5.856  1.0947  0.7614 -2.1945
  189MOL0     H26066   0.602   6.130   6.233 -0.9848  0.4563 -1.3966
  189MOL0     H26067   0.368   6.092   6.325  1.5320  0.1278 -2.7470
  189MOL0     H26068   0.205   5.937   6.771 -1.6261 -2.4138 -3.4323
  189MOL0     H26069   0.008   5.836   6.866  0.6258  1.2420  2.4426
  189MOL0     H26070  -0.334   6.127   6.949  2.1898 -0.1219  0.5260
  189MOL0     H26071  -0.359   6.058   6.784 -0.6759 -1.2018  0.2401
  189MOL0     H26072  -0.528   6.016   7.004  1.1729  2.3473 -0.4398
  189MOL0     H26073  -0.422   5.885   7.022  1.1614  1.3277  1.9831
  189MOL0     H26074  -0.597   5.794   6.913  2.5966  0.4245  2.7491
  189MOL0     H26075  -0.629   5.938   6.803  0.4683  1.2406 -1.6335
  189MOL0     H26076  -0.403   5.720   6.758 -1.6531 -3.3099 -3.4308
  189MOL0     H26077  -0.423   5.878   6.675  3.5370 -1.9910 -0.4189
  189MOL0     H26078  -0.733   5.607   6.535  0.9982 -0.1195 -2.7697
  189MOL0     H26079  -0.203   6.213   6.804 -1.3964  0.0032 -2.9546
  189MOL0     H26080  -0.005   6.414   6.692 -1.1778  1.9020 -2.9513
  189MOL0     H26081   0.005   6.336   6.540 -2.3950  0.2272 -0.2109
  189MOL0     H26082  -0.155   6.336   6.633 -1.8927  0.9798  1.1067
  190MOL0     O26083  11.443   4.815   0.432 -0.0159  0.2709  0.1725
  190MOL0     C26084  11.345   4.829   0.366  1.5163 -1.0960 -0.6388
  190MOL0     O26085  11.262   4.942   0.365 -0.6203  0.3560  0.0902
  190MOL0     C26086  11.276   5.039   0.461  0.7537  0.1145  0.6807
  190MOL0     C26087  11.249   5.171   0.425 -0.5428 -0.6812  0.7471
  190MOL0     C26088  11.271   5.271   0.517 -0.0149  0.0052 -0.6069
  190MOL0     C26089  11.315   5.254   0.650 -0.0208 -0.1438  0.4266
  190MOL0     O26090  11.343   5.355   0.736 -0.2449 -0.3512  0.8515
  190MOL0     C26091  11.391   5.478   0.672  0.3178  0.2104 -0.6944
  190MOL0     C26092  11.461   5.565   0.784 -0.4211  0.1037 -0.2398
  190MOL0     C26093  11.365   5.646   0.875 -0.2077  0.4640  0.0505
  190MOL0     C26094  11.341   5.786   0.838 -0.5221 -0.1337  0.1545
  190MOL0     C26095  11.260   5.792   0.709 -0.1584 -0.1949 -0.4951
  190MOL0     C26096  11.210   5.931   0.684 -0.2402  0.4741  0.4615
  190MOL0     C26097  11.091   5.968   0.775  0.8535  0.2002 -0.3264
  190MOL0     C26098  10.993   6.064   0.705 -0.8766  0.4300 -0.6785
  190MOL0     N26099  11.060   6.191   0.674  0.5229  0.5923 -0.2657
  190MOL0     C26100  11.121   6.224   0.554 -0.2108 -0.3328 -1.1115
  190MOL0     C26101  11.152   6.353   0.580  0.5761  0.0384 -0.3968
  190MOL0     C26102  11.233   6.443   0.494 -0.7808  0.0743 -0.5078
  190MOL0     C26103  11.345   6.523   0.574 -0.2698  0.0993 -0.0248
  190MOL0     C26104  11.293   6.644   0.657 -0.5731 -0.5799 -0.2203
  190MOL0     C26105  11.390   6.718   0.734  0.0805 -0.7726 -0.0885
  190MOL0     O26106  11.383   6.676   0.868  0.8789  0.0655 -0.0271
  190MOL0     C26107  11.281   6.718   0.949 -0.6458  0.4803  0.0066
  190MOL0     C26108  11.242   6.855   0.963  0.9601  0.7591 -0.1809
  190MOL0     C26109  11.134   6.896   1.038 -0.4924 -0.0775  0.7641
  190MOL0     C26110  11.107   7.041   1.036 -0.1721  1.1447 -0.0708
  190MOL0     C26111  11.072   6.801   1.130  0.2252 -0.4855 -0.0019
  190MOL0     C26112  10.951   6.839   1.206  0.3278  0.1659 -0.7503
  190MOL0     O26113  10.866   6.744   1.196  0.1291 -0.4350 -0.0506
  190MOL0     C26114  10.745   6.729   1.262  0.0701 -1.2207  0.3701
  190MOL0     C26115  10.713   6.778   1.393 -0.1909  0.5982  1.3714
  190MOL0     C26116  10.582   6.769   1.433  0.2730  0.2787 -0.2677
  190MOL0     C26117  10.485   6.701   1.372  0.6314  0.4742 -0.1618
  190MOL0     O26118  10.360   6.686   1.445 -0.6643 -0.6533 -0.0480
  190MOL0     C26119  10.271   6.577   1.395  0.8451  1.1706  0.0460
  190MOL0     C26120  10.149   6.583   1.481 -0.4753  0.0575 -0.0150
  190MOL0     C26121  10.199   6.594   1.630  0.7461  0.5895  0.3676
  190MOL0     C26122  10.078   6.559   1.716  0.3923 -0.1682 -0.1512
  190MOL0     C26123  10.103   6.626   1.857 -0.7871  0.2323  0.5120
  190MOL0     C26124   9.995   6.600   1.962 -0.5667  0.3829 -0.0780
  190MOL0     C26125  10.021   6.633   2.113  0.8796  0.1396  0.0016
  190MOL0     C26126   9.881   6.612   2.172  0.2089 -0.3556  0.5023
  190MOL0    Cl26127   9.839   6.439   2.222 -0.0373  0.5373  0.2162
  190MOL0     C26128  10.515   6.653   1.242 -0.9078 -0.7971 -0.1800
  190MOL0     C26129  10.645   6.660   1.191  0.9090  0.1117 -0.7594
  190MOL0     O26130  10.945   6.929   1.288  0.1082 -0.1652 -0.4124
  190MOL0     C26131  11.123   6.665   1.123 -0.1774 -0.2416  0.9182
  190MOL0     C26132  11.230   6.625   1.035 -0.1500 -0.8744 -0.3075
  190MOL0     N26133  11.103   6.395   0.699 -0.1663 -0.4616 -0.4861
  190MOL0     N26134  11.045   6.297   0.756 -0.4019  0.0427 -0.0767
  190MOL0     C26135  11.327   5.127   0.685 -0.8477  0.8016 -0.1737
  190MOL0     C26136  11.317   5.020   0.599  0.5412  0.0857  0.4578
  190MOL0     C26137  11.311   4.722   0.273 -0.6300  0.6193 -0.1681
  190MOL0     C26138  11.412   4.639   0.219  0.1984 -0.2341  0.7161
  190MOL0     C26139  11.385   4.553   0.112 -0.7019  0.2375 -0.9082
  190MOL0     C26140  11.266   4.530   0.057  0.6762 -0.4657  0.5565
  190MOL0     O26141  11.244   4.427  -0.042 -0.5717 -0.1459 -0.6155
  190MOL0     C26142  11.126   4.440  -0.121  0.5136  0.1213 -0.2011
  190MOL0     C26143  11.167   4.361  -0.248  0.0373  0.7337 -0.5560
  190MOL0     C26144  11.099   4.219  -0.232 -0.2072 -0.3997  0.4065
  190MOL0     C26145  11.170   4.138  -0.121  0.7026  0.7639  0.2542
  190MOL0     C26146  11.123   3.999  -0.103 -0.1041  0.8061 -0.1220
  190MOL0     C26147  11.111   3.880  -0.108 -0.1747  0.2449  0.8923
  190MOL0     C26148  11.158   4.604   0.113  0.1055  0.9910 -0.7174
  190MOL0     C26149  11.178   4.698   0.220 -0.1013 -0.2122  0.0423
  190MOL0     C26150  11.056   4.776   0.262 -0.3794 -0.1196 -0.8896
  190MOL0     H26151  11.216   5.210   0.329  2.8241 -1.9019 -1.0729
  190MOL0     H26152  11.251   5.375   0.490 -2.0377  1.2784  4.6388
  190MOL0     H26153  11.306   5.526   0.623 -0.9633 -2.2181 -1.0393
  190MOL0     H26154  11.470   5.451   0.601  2.7691 -0.9961  2.2883
  190MOL0     H26155  11.506   5.490   0.850 -1.5898  0.8031  1.3984
  190MOL0     H26156  11.531   5.639   0.743 -0.6304  0.6551  0.3899
  190MOL0     H26157  11.276   5.586   0.895  1.9812 -3.3157 -0.6127
  190MOL0     H26158  11.417   5.652   0.970  0.1886 -2.8010  0.1320
  190MOL0     H26159  11.290   5.835   0.921 -0.5908 -0.3463  0.2380
  190MOL0     H26160  11.435   5.842   0.830 -0.3539 -0.5270 -0.6400
  190MOL0     H26161  11.177   5.721   0.717 -0.2533  0.1525  2.3649
  190MOL0     H26162  11.316   5.762   0.619 -0.8552  0.0898 -1.0344
  190MOL0     H26163  11.299   5.994   0.697  2.7289 -2.9989 -1.1185
  190MOL0     H26164  11.177   5.940   0.580 -0.9300 -1.6926  0.4548
  190MOL0     H26165  11.133   6.000   0.871 -1.0306 -1.0749  0.9810
  190MOL0     H26166  11.031   5.879   0.791  0.4462  0.7724  1.5848
  190MOL0     H26167  10.957   6.021   0.611 -1.6344  1.6034 -0.9352
  190MOL0     H26168  10.901   6.072   0.765 -0.7405 -1.5214 -0.1407
  190MOL0     H26169  11.167   6.165   0.476 -0.5802  0.9417 -2.3499
  190MOL0     H26170  11.168   6.520   0.452 -0.0177  2.7784  2.8403
  190MOL0     H26171  11.280   6.383   0.415 -1.0946 -0.1684 -0.5141
  190MOL0     H26172  11.402   6.449   0.630  1.6745 -0.0354 -2.0243
  190MOL0     H26173  11.413   6.563   0.498  1.5556 -2.4045  0.1527
  190MOL0     H26174  11.242   6.717   0.593  1.0859  3.6948  2.8014
  190MOL0     H26175  11.217   6.609   0.727 -0.1896 -1.8476 -0.4069
  190MOL0     H26176  11.491   6.696   0.700  0.9242 -0.8809  2.2457
  190MOL0     H26177  11.383   6.827   0.732  2.9395 -0.5421 -1.1930
  190MOL0     H26178  11.291   6.928   0.900 -0.7405  2.6339  0.5810
  190MOL0     H26179  11.156   7.086   1.123  2.1882 -2.7998  0.8957
  190MOL0     H26180  11.000   7.055   1.050 -0.3916  0.7929 -1.3077
  190MOL0     H26181  11.130   7.097   0.946  4.8774  0.1057  0.2891
  190MOL0     H26182  10.788   6.834   1.448  2.6622 -1.1449 -0.4604
  190MOL0     H26183  10.550   6.836   1.513 -0.0234 -0.9782  0.6973
  190MOL0     H26184  10.226   6.587   1.296 -4.3547  1.1406  2.1192
  190MOL0     H26185  10.319   6.481   1.416  0.7457  1.1746  0.3018
  190MOL0     H26186  10.094   6.676   1.464  0.5191  0.5515 -0.6717
  190MOL0     H26187  10.081   6.502   1.453 -0.0689 -1.4782  3.0387
  190MOL0     H26188  10.238   6.693   1.654 -0.2545  1.2230 -0.5126
  190MOL0     H26189  10.272   6.514   1.644  1.3542  0.6842 -1.7929
  190MOL0     H26190  10.074   6.450   1.731  1.1933 -0.1509  0.2071
  190MOL0     H26191   9.985   6.597   1.672  0.8744 -1.5628 -2.5822
  190MOL0     H26192  10.196   6.583   1.896 -1.8889 -2.5397  0.2778
  190MOL0     H26193  10.123   6.733   1.847  0.4589  0.0900  1.2906
  190MOL0     H26194   9.975   6.492   1.960  1.0212 -0.0854  2.8327
  190MOL0     H26195   9.906   6.653   1.928 -2.0052 -1.5498  0.4761
  190MOL0     H26196  10.055   6.736   2.118  2.0081 -0.0170 -2.6778
  190MOL0     H26197  10.084   6.560   2.164 -1.6053 -0.0538  3.1388
  190MOL0     H26198   9.798   6.644   2.109 -2.5858 -1.2235  3.4973
  190MOL0     H26199   9.892   6.677   2.260 -1.5682  0.4591  0.1707
  190MOL0     H26200  10.429   6.606   1.196 -1.8548  0.1284  0.6100
  190MOL0     H26201  10.666   6.624   1.090  3.1508 -2.4072  0.4697
  190MOL0     H26202  11.080   6.586   1.184 -0.7321 -2.0497 -1.6691
  190MOL0     H26203  11.257   6.522   1.015  1.2808 -0.6632  0.4405
  190MOL0     H26204  11.351   5.103   0.788 -0.4273 -3.0272 -1.0266
  190MOL0     H26205  11.323   4.917   0.633 -3.1834 -1.5230 -2.8811
  190MOL0     H26206  11.514   4.644   0.256  0.6738  4.6069 -0.6050
  190MOL0     H26207  11.475   4.510   0.069 -1.3378  0.3741 -2.4152
  190MOL0     H26208  11.028   4.422  -0.076  0.1719 -0.6465 -1.2061
  190MOL0     H26209  11.109   4.547  -0.135 -2.7336  0.5297  4.5652
  190MOL0     H26210  11.276   4.364  -0.258 -0.1096 -0.1259 -2.9887
  190MOL0     H26211  11.117   4.400  -0.337 -3.9726 -1.0398  0.6680
  190MOL0     H26212  10.993   4.216  -0.206 -0.4572 -1.5978 -0.6595
  190MOL0     H26213  11.110   4.162  -0.324  0.7275 -0.4955  0.5647
  190MOL0     H26214  11.172   4.179  -0.020 -1.0481  0.5001  0.4249
  190MOL0     H26215  11.269   4.127  -0.166  0.4260 -0.9343 -0.0082
  190MOL0     H26216  11.104   3.774  -0.108 -0.9139  0.2435  3.3547
  190MOL0     H26217  11.058   4.579   0.081  1.1504 -4.8736 -0.4693
  190MOL0     H26218  10.960   4.744   0.221 -1.6677  2.6138 -0.3051
  190MOL0     H26219  11.045   4.767   0.371 -3.4352  2.5266 -0.8223
  190MOL0     H26220  11.067   4.879   0.226 -1.4545 -0.5457 -2.5659
  191MOL0     O26221   8.515   9.915  11.146  0.8654 -0.2961  0.0404
  191MOL0     C26222   8.638   9.936  11.154 -0.1699  0.9595 -0.9942
  191MOL0     O26223   8.711  10.021  11.084 -1.0392  0.1552 -0.6688
  191MOL0     C26224   8.668  10.101  10.982 -0.7586  0.5113 -0.4058
  191MOL0     C26225   8.768  10.140  10.889 -0.6406 -0.9854 -0.1673
  191MOL0     C26226   8.737  10.239  10.792 -0.4511  0.5927  0.0943
  191MOL0     C26227   8.608  10.289  10.776 -1.4477 -0.3001  0.3697
  191MOL0     O26228   8.578  10.375  10.670  0.0122 -0.5623  0.3863
  191MOL0     C26229   8.444  10.400  10.640  0.0121  0.2702  0.1338
  191MOL0     C26230   8.439  10.443  10.499  0.1855 -0.2137  0.6665
  191MOL0     C26231   8.472  10.323  10.415 -0.2095  0.1557  0.3234
  191MOL0     C26232   8.526  10.374  10.281 -0.6001 -0.9011 -0.2608
  191MOL0     C26233   8.673  10.437  10.288 -0.1889  0.0011 -0.4047
  191MOL0     C26234   8.776  10.338  10.259  0.1530 -0.4441  0.3042
  191MOL0     C26235   8.920  10.385  10.276 -0.6721  0.0754 -0.8098
  191MOL0     C26236   9.021  10.270  10.304  0.2125  0.5356 -0.1497
  191MOL0     N26237   9.164  10.328  10.322  0.1800 -0.4166  0.1101
  191MOL0     C26238   9.257  10.356  10.229 -0.8819  0.0048  0.1980
  191MOL0     C26239   9.366  10.406  10.298  0.3222  1.1166 -0.3848
  191MOL0     C26240   9.498  10.439  10.245  0.5325  0.1515  0.7085
  191MOL0     C26241   9.600  10.504  10.343  0.1296  0.4266 -0.3610
  191MOL0     C26242   9.735  10.534  10.280  0.9759 -0.7172  0.1889
  191MOL0     C26243   9.828  10.576  10.394  0.6775  1.0138 -0.1035
  191MOL0     O26244   9.952  10.623  10.344 -0.3014  0.1227 -0.1409
  191MOL0     C26245  10.040  10.536  10.286  0.5373 -0.5232 -1.2432
  191MOL0     C26246  10.026  10.395  10.293  0.1351  0.3015  0.0935
  191MOL0     C26247  10.127  10.306  10.250 -0.2400 -0.4810 -0.5007
  191MOL0     C26248  10.107  10.162  10.262  0.7544 -0.0641  1.0562
  191MOL0     C26249  10.251  10.359  10.212  0.1157 -1.0361  0.7583
  191MOL0     C26250  10.371  10.276  10.192  0.0243  0.8025 -0.0885
  191MOL0     O26251  10.351  10.169  10.113  0.0148  0.2606  0.0473
  191MOL0     C26252  10.446  10.070  10.114  0.1014 -0.1441  0.1803
  191MOL0     C26253  10.471   9.994  10.230 -0.0175  0.6405 -0.9223
  191MOL0     C26254  10.578   9.897  10.226 -0.0550 -0.4547 -0.1579
  191MOL0     C26255  10.660   9.889  10.112 -1.0063  0.4492 -0.5534
  191MOL0     O26256  10.785   9.821  10.127  0.0307  0.2118 -0.9725
  191MOL0     C26257  10.896   9.856  10.048  0.8537 -0.3912 -0.4505
  191MOL0     C26258  11.016   9.879  10.149  0.3759 -0.4362  0.3698
  191MOL0     C26259  11.043   9.744  10.214  0.0801 -0.6310 -0.3896
  191MOL0     C26260  11.180   9.759  10.287 -0.5034  0.5318 -0.0384
  191MOL0     C26261  11.210   9.625  10.366  0.2673  1.2862 -0.0542
  191MOL0     C26262  11.103   9.577  10.468 -0.8985 -0.4866 -0.0343
  191MOL0     C26263  11.152   9.450  10.545 -0.2917  0.2656 -0.1910
  191MOL0     C26264  11.032   9.397  10.627 -0.0873 -0.3226  0.3014
  191MOL0    Cl26265  11.076   9.246  10.706  0.1162 -0.3102 -0.0814
  191MOL0     C26266  10.621   9.957   9.998 -0.1034  0.4887  0.4845
  191MOL0     C26267  10.516  10.049   9.996  1.1484 -0.4201  0.3389
  191MOL0     O26268  10.479  10.315  10.237 -0.2669  1.4022  0.1566
  191MOL0     C26269  10.266  10.509  10.220  0.6001 -0.4427 -0.0414
  191MOL0     C26270  10.164  10.592  10.260  0.2816  0.8492  0.1042
  191MOL0     N26271   9.323  10.420  10.429  0.1065 -0.7221 -0.6888
  191MOL0     N26272   9.203  10.371  10.442  0.1556  0.9789 -0.3090
  191MOL0     C26273   8.510  10.243  10.865 -0.4514  0.2099  0.3279
  191MOL0     C26274   8.537  10.153  10.967  0.3977 -0.5261 -0.6725
  191MOL0     C26275   8.708   9.855  11.262 -0.2671  0.3100 -0.9653
  191MOL0     C26276   8.636   9.755  11.336  0.1361 -0.1234 -0.8070
  191MOL0     C26277   8.707   9.663  11.418 -0.6029  0.1630 -0.7945
  191MOL0     C26278   8.845   9.674  11.436 -0.6087 -0.1667  0.1480
  191MOL0     O26279   8.936   9.609  11.513 -0.3064  0.6379 -0.5068
  191MOL0     C26280   8.894   9.508  11.607  0.4319  0.6103  0.7349
  191MOL0     C26281   8.909   9.555  11.751 -0.4271  0.3942 -0.0203
  191MOL0     C26282   8.818   9.657  11.803  0.4357 -0.4491 -0.0565
  191MOL0     C26283   8.834   9.672  11.955 -0.8962 -0.1218  0.9484
  191MOL0     C26284   8.970   9.722  11.980  0.1702  0.0813  0.5264
  191MOL0     C26285   9.090   9.748  11.977  0.2959  0.6235 -0.0975
  191MOL0     C26286   8.915   9.778  11.374 -0.0043 -0.3812  0.1597
  191MOL0     C26287   8.844   9.871  11.293 -0.7995  0.3303  0.4116
  191MOL0     C26288   8.934   9.978  11.233 -0.0232 -0.5487 -0.8925
  191MOL0     H26289   8.862  10.086  10.886 -0.1443 -0.1008 -1.3898
  191MOL0     H26290   8.806  10.283  10.721 -1.5689  0.4531 -1.1223
  191MOL0     H26291   8.422  10.486  10.704  2.2906 -1.7960  4.0799
  191MOL0     H26292   8.378  10.314  10.649  1.8269 -1.3941 -1.5200
  191MOL0     H26293   8.342  10.476  10.461  0.8144  1.9843  0.7893
  191MOL0     H26294   8.510  10.523  10.475  0.5447 -1.0711 -1.2298
  191MOL0     H26295   8.536  10.250  10.464  1.4826  1.6487  0.4302
  191MOL0     H26296   8.381  10.264  10.399 -1.0907  1.9737 -2.3729
  191MOL0     H26297   8.515  10.299  10.203  1.1103 -0.8544 -0.6054
  191MOL0     H26298   8.464  10.455  10.241 -1.2316 -1.4783 -0.4662
  191MOL0     H26299   8.696  10.469  10.390  0.6733 -1.7638 -0.0103
  191MOL0     H26300   8.681  10.530  10.231 -0.5110  0.4872  0.3227
  191MOL0     H26301   8.746  10.256  10.325 -4.2703  0.2021 -0.6325
  191MOL0     H26302   8.768  10.308  10.154 -1.4376  2.4244 -0.5212
  191MOL0     H26303   8.932  10.454  10.360 -1.2734 -0.5119 -0.2224
  191MOL0     H26304   8.949  10.438  10.185  0.6171 -1.5736 -1.4137
  191MOL0     H26305   8.988  10.203  10.384  1.7982  0.1705  0.2425
  191MOL0     H26306   9.029  10.209  10.214  3.3348  0.1506  0.2663
  191MOL0     H26307   9.252  10.330  10.124 -2.3093 -2.4611  0.7774
  191MOL0     H26308   9.480  10.511  10.164  1.7236  1.2049  1.3375
  191MOL0     H26309   9.530  10.342  10.205  1.4319  0.8277 -0.2800
  191MOL0     H26310   9.564  10.596  10.389  1.0352  0.5479  0.1173
  191MOL0     H26311   9.599  10.441  10.432  0.7633 -2.4378 -2.2400
  191MOL0     H26312   9.774  10.452  10.220 -0.9723 -0.0350 -2.1709
  191MOL0     H26313   9.728  10.621  10.215  3.7918  2.5229  3.7551
  191MOL0     H26314   9.779  10.664  10.438  2.6179  2.1086 -0.0357
  191MOL0     H26315   9.843  10.506  10.477  3.0366  3.5417  1.7968
  191MOL0     H26316   9.930  10.354  10.322 -0.8181  2.3557 -0.0348
  191MOL0     H26317  10.082  10.118  10.164 -1.3687  0.4258  1.3369
  191MOL0     H26318  10.022  10.135  10.324 -2.2456  0.3264 -2.5363
  191MOL0     H26319  10.197  10.114  10.301  0.7360 -0.7351  0.2927
  191MOL0     H26320  10.419   9.991  10.325  4.7039 -2.1740  1.9862
  191MOL0     H26321  10.615   9.839  10.310  0.6736  1.0060  0.5687
  191MOL0     H26322  10.909   9.767   9.987  0.2414  0.1322 -1.3708
  191MOL0     H26323  10.881   9.936   9.975 -1.1399 -3.1959 -3.3956
  191MOL0     H26324  11.104   9.898  10.086  0.9114 -1.1954  0.8707
  191MOL0     H26325  11.013   9.965  10.217 -1.2077  0.3689 -0.6646
  191MOL0     H26326  11.030   9.656  10.151 -1.4003  0.3480 -1.5182
  191MOL0     H26327  10.971   9.756  10.296 -0.0119  2.0202 -0.7660
  191MOL0     H26328  11.185   9.847  10.352  2.7332  1.8108 -1.7801
  191MOL0     H26329  11.252   9.782  10.208 -0.7827 -0.1744 -0.5121
  191MOL0     H26330  11.221   9.544  10.294 -0.5261  0.0483  1.1769
  191MOL0     H26331  11.304   9.643  10.420  2.4264 -2.6505 -2.0744
  191MOL0     H26332  11.007   9.558  10.419  1.6070 -2.4781 -4.8258
  191MOL0     H26333  11.090   9.657  10.542 -3.6025  0.6903 -1.6164
  191MOL0     H26334  11.236   9.493  10.600 -2.7678  3.2453  1.5519
  191MOL0     H26335  11.182   9.373  10.473 -0.7978 -0.0677 -0.0521
  191MOL0     H26336  10.951   9.390  10.554 -0.7188  0.2289  0.9320
  191MOL0     H26337  10.998   9.468  10.704 -1.9359  0.5032 -1.1919
  191MOL0     H26338  10.680   9.967   9.908 -0.3807 -1.9939 -0.0250
  191MOL0     H26339  10.495  10.111   9.909  0.5776 -1.3632 -0.2004
  191MOL0     H26340  10.359  10.563  10.200 -1.1803  1.7085 -3.5127
  191MOL0     H26341  10.173  10.699  10.272 -1.7058  1.1381 -0.6561
  191MOL0     H26342   8.410  10.283  10.852 -0.6788 -0.1747  0.8585
  191MOL0     H26343   8.453  10.115  11.025  1.2185 -1.9422 -0.3596
  191MOL0     H26344   8.535   9.723  11.313  0.2534 -2.0813  1.0951
  191MOL0     H26345   8.643   9.593  11.469  0.3397 -1.8902 -2.2795
  191MOL0     H26346   8.790   9.490  11.579 -0.1278  3.3203  0.7797
  191MOL0     H26347   8.951   9.417  11.590  0.5162  1.0480 -1.6454
  191MOL0     H26348   9.013   9.588  11.761 -0.4231  0.9922 -1.7397
  191MOL0     H26349   8.898   9.469  11.818  0.2396  1.6622  1.8182
  191MOL0     H26350   8.838   9.752  11.754  0.5533 -0.5702 -0.2449
  191MOL0     H26351   8.712   9.645  11.780  0.0997 -1.2306  1.7280
  191MOL0     H26352   8.822   9.575  12.003  2.3927 -1.8488 -1.3066
  191MOL0     H26353   8.754   9.742  11.980 -3.0241  0.4830 -5.5882
  191MOL0     H26354   9.192   9.781  11.975  0.9218 -0.9088  2.2458
  191MOL0     H26355   9.020   9.778  11.400 -0.1376  2.1274  0.9970
  191MOL0     H26356   9.033   9.983  11.280 -0.6007 -0.1979  0.3004
  191MOL0     H26357   8.961   9.963  11.128 -0.1895  2.0325 -1.3682
  191MOL0     H26358   8.882  10.074  11.234  2.6792  1.0427 -1.4405
  192MOL0     O26359   9.283   2.762  11.322 -0.5704  0.3152  0.1462
  192MOL0     C26360   9.289   2.848  11.412 -0.4821 -0.1850  0.1817
  192MOL0     O26361   9.191   2.880  11.504  0.8111  0.0856 -0.0213
  192MOL0     C26362   9.067   2.869  11.439  0.2351  0.7237 -1.0715
  192MOL0     C26363   8.989   2.765  11.486 -0.0644 -0.1042 -0.1225
  192MOL0     C26364   8.858   2.745  11.439 -0.1176 -0.7190 -0.4608
  192MOL0     C26365   8.805   2.839  11.348  0.3303  1.0994  0.2760
  192MOL0     O26366   8.669   2.855  11.322 -0.7593  0.2239 -0.4441
  192MOL0     C26367   8.564   2.789  11.395 -0.3067 -1.0074  0.3845
  192MOL0     C26368   8.431   2.859  11.365 -0.1759  0.4251  0.0384
  192MOL0     C26369   8.434   3.003  11.417 -0.3910 -0.4117 -0.3912
  192MOL0     C26370   8.331   3.085  11.354 -0.3152 -0.6108  0.4962
  192MOL0     C26371   8.313   3.220  11.435 -0.5517 -1.5033 -0.7805
  192MOL0     C26372   8.254   3.331  11.348  0.0026  0.4698 -0.9162
  192MOL0     C26373   8.210   3.457  11.430  0.2218 -0.2236  0.0571
  192MOL0     C26374   8.154   3.571  11.361 -0.7165 -0.0123 -0.2837
  192MOL0     N26375   8.251   3.639  11.272 -0.4322 -0.5694  0.7670
  192MOL0     C26376   8.345   3.731  11.314  0.3644  0.7388 -0.8693
  192MOL0     C26377   8.422   3.752  11.208  0.2956  0.0773 -0.1190
  192MOL0     C26378   8.543   3.840  11.210 -0.2162 -0.6341  0.2011
  192MOL0     C26379   8.527   3.962  11.125 -0.6801 -0.2173 -0.2313
  192MOL0     C26380   8.661   4.029  11.103  0.5297  0.0730 -1.2695
  192MOL0     C26381   8.642   4.154  11.009  0.3557 -0.5255  0.6673
  192MOL0     O26382   8.758   4.231  10.975 -0.2566 -0.0647 -0.1828
  192MOL0     C26383   8.750   4.349  10.907  0.6459  0.3908  0.0533
  192MOL0     C26384   8.627   4.413  10.886 -0.6975 -0.8147 -0.4045
  192MOL0     C26385   8.623   4.537  10.814  0.4165 -0.0650  0.4940
  192MOL0     C26386   8.483   4.587  10.779 -0.7690 -0.6492  0.2216
  192MOL0     C26387   8.732   4.588  10.758 -0.9742  0.3636  1.2113
  192MOL0     C26388   8.730   4.715  10.666 -0.0698 -0.1379  0.9538
  192MOL0     O26389   8.843   4.730  10.605 -0.0967 -1.0757 -1.0013
  192MOL0     C26390   8.869   4.852  10.543  0.6563  0.1277  0.7302
  192MOL0     C26391   8.880   4.970  10.613  0.1464  0.4782 -0.2080
  192MOL0     C26392   8.918   5.083  10.549 -0.4750  0.4848 -0.7078
  192MOL0     C26393   8.934   5.095  10.413 -0.1568  0.7468 -0.3959
  192MOL0     O26394   8.968   5.214  10.363 -0.0050 -0.7560  0.1077
  192MOL0     C26395   9.102   5.224  10.305 -0.0702  0.0457  0.0037
  192MOL0     C26396   9.168   5.354  10.296  0.3299 -0.2851 -0.3165
  192MOL0     C26397   9.317   5.343  10.286  0.8608 -0.3100  0.4818
  192MOL0     C26398   9.377   5.472  10.247 -0.2411 -0.6179  0.1446
  192MOL0     C26399   9.533   5.482  10.230 -0.6699 -0.7323  0.6224
  192MOL0     C26400   9.588   5.630  10.209 -1.1270 -0.6130 -0.2533
  192MOL0     C26401   9.730   5.630  10.146  0.4311 -0.6600 -0.1171
  192MOL0     C26402   9.774   5.776  10.132 -0.1821 -0.1331 -1.2849
  192MOL0    Cl26403   9.774   5.854  10.292 -0.2269 -0.0594 -0.1696
  192MOL0     C26404   8.923   4.981  10.337  0.2612  0.1453 -0.1554
  192MOL0     C26405   8.885   4.861  10.401 -0.2509  0.7784  0.9385
  192MOL0     O26406   8.636   4.789  10.663  0.0940 -0.7646 -0.3937
  192MOL0     C26407   8.859   4.517  10.771 -0.3021  0.9844  0.0633
  192MOL0     C26408   8.865   4.407  10.852 -0.4454  1.1779 -0.2068
  192MOL0     N26409   8.379   3.673  11.107  0.2907  0.2822  0.0442
  192MOL0     N26410   8.273   3.606  11.145  0.0459  1.0713 -0.1708
  192MOL0     C26411   8.878   2.950  11.305 -0.6179 -0.6881  0.6432
  192MOL0     C26412   9.012   2.959  11.351  0.0600 -0.0682  0.0806
  192MOL0     C26413   9.415   2.903  11.438  0.0857 -0.9454 -0.6144
  192MOL0     C26414   9.422   2.976  11.560  0.1496 -0.0013 -1.3025
  192MOL0     C26415   9.532   3.042  11.603 -0.2148 -0.2718 -0.6617
  192MOL0     C26416   9.647   3.033  11.529 -0.5886  0.8891  0.1868
  192MOL0     O26417   9.757   3.090  11.585  0.5008 -0.5185  0.5791
  192MOL0     C26418   9.834   3.014  11.677 -0.5687 -0.8091  0.2324
  192MOL0     C26419   9.977   3.060  11.653 -0.3893  0.3609  1.2041
  192MOL0     C26420  10.068   3.005  11.761 -0.5067 -0.1218  0.1030
  192MOL0     C26421  10.110   2.866  11.723  0.8769  0.1612  0.6591
  192MOL0     C26422  10.184   2.854  11.600 -0.8330 -0.0872 -0.3491
  192MOL0     C26423  10.245   2.825  11.504 -0.1808 -0.9891 -1.3085
  192MOL0     C26424   9.655   2.948  11.418  1.2238  0.4389 -0.5378
  192MOL0     C26425   9.540   2.887  11.360  0.4323 -0.2590 -0.4220
  192MOL0     C26426   9.555   2.828  11.221  0.2005  0.7324  0.3566
  192MOL0     H26427   9.030   2.722  11.577  1.0177  1.6005  0.2439
  192MOL0     H26428   8.802   2.658  11.475  2.2161 -2.8148 -1.6094
  192MOL0     H26429   8.585   2.791  11.503 -1.2522  2.1950  0.6249
  192MOL0     H26430   8.558   2.684  11.367 -1.2018 -1.2721  1.4654
  192MOL0     H26431   8.412   2.851  11.257 -1.4896 -0.2188  0.2815
  192MOL0     H26432   8.351   2.801  11.413 -1.7736  1.4202 -1.3097
  192MOL0     H26433   8.420   3.007  11.525 -3.8672 -1.1892 -0.6823
  192MOL0     H26434   8.533   3.045  11.396 -0.0986 -1.5133 -1.3601
  192MOL0     H26435   8.368   3.104  11.253  2.4036  0.1176  1.5240
  192MOL0     H26436   8.238   3.028  11.350 -1.0086  0.4878  0.8064
  192MOL0     H26437   8.406   3.260  11.475 -0.7065 -2.2814  0.4084
  192MOL0     H26438   8.249   3.199  11.521  3.4771  1.5072  3.4984
  192MOL0     H26439   8.333   3.357  11.277  1.5696 -1.6207 -0.0378
  192MOL0     H26440   8.167   3.285  11.300 -1.2357  2.4986 -0.7128
  192MOL0     H26441   8.303   3.496  11.475 -2.3936  3.5652  2.8236
  192MOL0     H26442   8.147   3.426  11.514  0.2953 -0.2452  0.1058
  192MOL0     H26443   8.064   3.540  11.307  0.0629  0.7866 -2.1443
  192MOL0     H26444   8.112   3.638  11.436 -1.7036 -0.3528 -0.5114
  192MOL0     H26445   8.355   3.777  11.412  0.8429  0.1538 -0.6367
  192MOL0     H26446   8.621   3.776  11.168  1.2215  0.5194  1.0472
  192MOL0     H26447   8.579   3.865  11.311  4.4298  0.1616 -1.4235
  192MOL0     H26448   8.470   3.944  11.033 -1.5058  0.0890  0.2150
  192MOL0     H26449   8.470   4.035  11.183 -0.0294 -0.1927  0.3963
  192MOL0     H26450   8.711   4.059  11.195 -0.0304 -0.3851 -0.8088
  192MOL0     H26451   8.737   3.964  11.058  2.3873  2.6532 -2.1308
  192MOL0     H26452   8.591   4.121  10.918  2.9566  0.0431 -1.1002
  192MOL0     H26453   8.565   4.217  11.054 -0.3166  1.1048 -2.4381
  192MOL0     H26454   8.537   4.368  10.925 -0.6127 -2.3617 -1.8567
  192MOL0     H26455   8.480   4.692  10.809  0.5333 -0.3720 -0.5311
  192MOL0     H26456   8.407   4.527  10.831  2.1714 -0.7091  5.1333
  192MOL0     H26457   8.457   4.573  10.674  0.2880 -3.2290  0.2303
  192MOL0     H26458   8.878   4.981  10.721  1.5071 -2.7924  0.2849
  192MOL0     H26459   8.928   5.183  10.591  1.8977 -0.4728  1.2134
  192MOL0     H26460   9.162   5.152  10.362  1.8370  3.2866  2.4960
  192MOL0     H26461   9.087   5.178  10.207  0.6889 -2.2352  0.8959
  192MOL0     H26462   9.134   5.393  10.199  1.0552 -0.8927 -0.8269
  192MOL0     H26463   9.132   5.412  10.381 -2.3289 -0.8505 -0.9641
  192MOL0     H26464   9.349   5.254  10.231  2.1483 -1.4355  2.8749
  192MOL0     H26465   9.361   5.329  10.386  0.2358  2.0397  1.1442
  192MOL0     H26466   9.346   5.547  10.321  1.9038 -0.6808  1.1807
  192MOL0     H26467   9.338   5.495  10.147 -2.3102  1.0354  1.2527
  192MOL0     H26468   9.583   5.441  10.319  1.0292 -1.5367 -0.6402
  192MOL0     H26469   9.567   5.423  10.144  2.9285  0.3900  1.0920
  192MOL0     H26470   9.589   5.671  10.311 -3.9555  1.2339 -0.8557
  192MOL0     H26471   9.517   5.689  10.151 -0.3941 -0.5505 -1.0906
  192MOL0     H26472   9.732   5.588  10.046 -2.4434  0.7590 -0.8721
  192MOL0     H26473   9.791   5.581  10.223  1.2896  0.4081 -0.0926
  192MOL0     H26474   9.715   5.833  10.060 -1.1515 -0.1516 -0.5208
  192MOL0     H26475   9.874   5.779  10.087  0.9723 -1.7309  0.9739
  192MOL0     H26476   8.920   4.993  10.229 -2.3263  0.8083 -0.0671
  192MOL0     H26477   8.855   4.777  10.340 -0.2684 -0.2853  2.3438
  192MOL0     H26478   8.954   4.543  10.725  0.9413 -1.0439  1.3320
  192MOL0     H26479   8.950   4.345  10.878 -0.2729  0.3699 -2.4142
  192MOL0     H26480   8.831   3.029  11.248  0.4036  0.2974  1.1144
  192MOL0     H26481   9.078   3.035  11.311 -0.5652  0.4921  0.1009
  192MOL0     H26482   9.348   2.980  11.639  0.9238  2.0453 -0.6231
  192MOL0     H26483   9.542   3.098  11.696 -1.4918 -1.8311  0.4678
  192MOL0     H26484   9.809   3.027  11.783 -1.0920 -2.0674  0.2699
  192MOL0     H26485   9.822   2.910  11.647  0.7242 -0.4492 -1.7589
  192MOL0     H26486   9.984   3.169  11.648 -0.5540  0.3055 -0.6159
  192MOL0     H26487  10.010   3.030  11.553  0.4983  1.3455  1.1896
  192MOL0     H26488  10.166   3.054  11.771  1.3912 -3.5470 -0.1132
  192MOL0     H26489  10.013   3.020  11.854 -1.9496 -0.5289 -0.6556
  192MOL0     H26490  10.024   2.800  11.738  0.7315 -0.0144 -0.8182
  192MOL0     H26491  10.177   2.825  11.800  1.7185 -0.8630 -0.5635
  192MOL0     H26492  10.294   2.815  11.409  2.3888 -1.1048 -0.0520
  192MOL0     H26493   9.758   2.951  11.383  2.6320  0.4342  3.1423
  192MOL0     H26494   9.644   2.868  11.171 -1.2314  0.8815 -2.2751
  192MOL0     H26495   9.559   2.719  11.231 -0.2392  0.9053  3.2269
  192MOL0     H26496   9.464   2.863  11.172 -0.7226  0.8939  2.1070
  193MOL0     O26497   9.356   5.541   0.706  0.2894 -0.1202 -0.3324
  193MOL0     C26498   9.244   5.539   0.655  0.3118  0.4947 -0.3413
  193MOL0     O26499   9.224   5.545   0.522 -0.2987  0.2296  0.6840
  193MOL0     C26500   9.329   5.584   0.444 -0.5956  0.4187  0.0569
  193MOL0     C26501   9.348   5.720   0.426  0.0062  0.3968  0.2566
  193MOL0     C26502   9.473   5.750   0.365 -0.3550 -0.3893  0.1756
  193MOL0     C26503   9.571   5.660   0.321  0.2985 -0.0912  0.4370
  193MOL0     O26504   9.690   5.708   0.268 -0.5245  0.0112 -0.2967
  193MOL0     C26505   9.783   5.600   0.232  0.5151 -0.2763 -1.2406
  193MOL0     C26506   9.907   5.678   0.182 -0.4153 -0.4765  0.0457
  193MOL0     C26507   9.883   5.735   0.038  0.0594  0.5912 -0.2233
  193MOL0     C26508  10.012   5.753  -0.043  0.3428  0.2743  1.2000
  193MOL0     C26509   9.983   5.782  -0.191  0.2444  0.6492  0.4584
  193MOL0     C26510  10.111   5.797  -0.277 -0.5180 -0.1493 -0.1808
  193MOL0     C26511  10.076   5.821  -0.425 -0.1145  0.0787 -0.4613
  193MOL0     C26512  10.209   5.864  -0.492 -0.0993 -0.7273 -0.9203
  193MOL0     N26513  10.300   5.751  -0.528 -0.1391 -0.6866  0.3166
  193MOL0     C26514  10.280   5.616  -0.516 -0.2630  0.1931  0.6690
  193MOL0     C26515  10.371   5.558  -0.595 -0.1887 -0.1642 -0.0075
  193MOL0     C26516  10.377   5.409  -0.632 -0.0310 -0.4616 -0.1999
  193MOL0     C26517  10.529   5.374  -0.655  0.1430  0.3210  0.0144
  193MOL0     C26518  10.551   5.219  -0.659 -0.2753  0.6015  0.2944
  193MOL0     C26519  10.463   5.154  -0.773 -0.6899 -0.0163  1.1557
  193MOL0     O26520  10.523   5.198  -0.893  0.8974 -0.2765 -0.5492
  193MOL0     C26521  10.453   5.157  -1.007  0.3311  0.1458  1.2136
  193MOL0     C26522  10.498   5.218  -1.128  0.0954 -0.5658 -0.0690
  193MOL0     C26523  10.424   5.211  -1.248  0.2371  0.0726  0.0213
  193MOL0     C26524  10.495   5.266  -1.371 -0.2685  0.2236  0.8777
  193MOL0     C26525  10.295   5.147  -1.250  1.0840 -0.2475  0.1532
  193MOL0     C26526  10.199   5.162  -1.367 -1.8289  0.0764  0.2090
  193MOL0     O26527  10.215   5.274  -1.441 -0.7076  0.1944 -0.0347
  193MOL0     C26528  10.134   5.294  -1.541 -0.1994  0.4503  0.5352
  193MOL0     C26529  10.182   5.321  -1.671 -0.4483  0.0060 -0.3543
  193MOL0     C26530  10.101   5.325  -1.784  0.8738  1.1054 -0.5125
  193MOL0     C26531   9.959   5.309  -1.763  0.1049  1.0661  0.9953
  193MOL0     O26532   9.872   5.314  -1.876 -0.0174 -0.5156  0.2224
  193MOL0     C26533   9.926   5.278  -2.005 -0.5521 -0.2712 -0.7191
  193MOL0     C26534   9.841   5.335  -2.114 -0.8822  0.6070  0.4537
  193MOL0     C26535   9.700   5.270  -2.137  0.0253  0.1819  0.2470
  193MOL0     C26536   9.714   5.128  -2.186 -0.6449 -0.4213 -0.2271
  193MOL0     C26537   9.577   5.067  -2.220 -0.6754 -0.2797 -0.5806
  193MOL0     C26538   9.524   5.098  -2.363  0.7441  0.0613 -0.1909
  193MOL0     C26539   9.585   5.013  -2.470 -0.1962 -0.5743 -0.0806
  193MOL0     C26540   9.534   5.052  -2.608 -0.2881  0.4557 -0.5585
  193MOL0    Cl26541   9.361   5.065  -2.613 -0.8643  0.1705  0.2385
  193MOL0     C26542   9.908   5.293  -1.643  0.1635  0.7378  0.0288
  193MOL0     C26543   9.994   5.290  -1.524  0.4365 -0.0071  0.5843
  193MOL0     O26544  10.113   5.080  -1.381  0.0522  0.7393 -0.2476
  193MOL0     C26545  10.251   5.095  -1.132 -0.8822  0.0862  0.1765
  193MOL0     C26546  10.324   5.093  -1.015  0.4614  0.2494 -0.0858
  193MOL0     N26547  10.458   5.657  -0.638  0.3351  0.3286 -0.1347
  193MOL0     N26548  10.416   5.768  -0.593 -0.3344  0.0496  0.3906
  193MOL0     C26549   9.533   5.528   0.332 -0.1819 -0.2158 -0.5120
  193MOL0     C26550   9.415   5.485   0.393  0.5070 -0.5119  0.4846
  193MOL0     C26551   9.140   5.487   0.750  0.5282  0.0756 -0.3578
  193MOL0     C26552   9.162   5.384   0.847 -0.2223  0.0373  0.5646
  193MOL0     C26553   9.063   5.332   0.932  0.9059 -0.5255 -1.1831
  193MOL0     C26554   8.941   5.390   0.949  0.6350 -0.6071 -0.4227
  193MOL0     O26555   8.845   5.354   1.045 -0.1570  0.2128 -0.2366
  193MOL0     C26556   8.879   5.248   1.134 -0.1189  0.0455  0.5157
  193MOL0     C26557   8.755   5.225   1.212  0.2305  0.6845 -0.7348
  193MOL0     C26558   8.772   5.096   1.300 -0.0583  0.4477  0.0576
  193MOL0     C26559   8.649   5.092   1.391  0.4559  0.9795  0.4646
  193MOL0     C26560   8.598   4.958   1.381 -0.7244 -0.1351 -0.5727
  193MOL0     C26561   8.570   4.839   1.375  0.6815  0.0880 -0.7300
  193MOL0     C26562   8.913   5.497   0.860  0.2215 -0.5826 -0.3399
  193MOL0     C26563   9.006   5.540   0.756 -0.1892  0.1189 -0.5243
  193MOL0     C26564   8.966   5.635   0.652 -0.3051 -0.3591 -0.6946
  193MOL0     H26565   9.271   5.792   0.452  0.1948 -0.4841  3.7517
  193MOL0     H26566   9.490   5.854   0.340 -1.0173 -0.7975 -2.1513
  193MOL0     H26567   9.756   5.546   0.141  1.6299 -2.5517 -0.2961
  193MOL0     H26568   9.793   5.532   0.317 -4.5822  0.1370 -0.0297
  193MOL0     H26569   9.937   5.752   0.257  0.8070  0.8726 -1.6878
  193MOL0     H26570   9.997   5.616   0.174  1.8328  2.6567 -0.6501
  193MOL0     H26571   9.825   5.669  -0.028  2.2260 -0.4270 -1.1850
  193MOL0     H26572   9.831   5.829   0.057 -0.7061  0.0751  0.2958
  193MOL0     H26573  10.072   5.840  -0.012  2.6812 -0.2795 -1.4034
  193MOL0     H26574  10.072   5.662  -0.045  0.5489  0.4094  1.1652
  193MOL0     H26575   9.922   5.873  -0.198 -1.7635 -0.6668  0.1518
  193MOL0     H26576   9.928   5.693  -0.222 -1.4007  2.1456 -1.1257
  193MOL0     H26577  10.165   5.879  -0.230  0.3678 -1.7978  1.8869
  193MOL0     H26578  10.184   5.716  -0.273  0.8438  1.0963  1.7500
  193MOL0     H26579  10.008   5.906  -0.428 -0.9727 -0.5993 -2.3079
  193MOL0     H26580  10.031   5.735  -0.477  1.3872 -0.7361 -0.4640
  193MOL0     H26581  10.196   5.928  -0.580  0.0494 -2.9519 -2.6157
  193MOL0     H26582  10.258   5.926  -0.416  0.2220 -1.9763 -0.0770
  193MOL0     H26583  10.202   5.555  -0.471  2.7800 -3.0856  2.1008
  193MOL0     H26584  10.337   5.403  -0.734 -0.0237  1.1872 -0.3350
  193MOL0     H26585  10.329   5.334  -0.569 -2.6687 -0.1618 -1.7073
  193MOL0     H26586  10.573   5.432  -0.738  2.6362 -0.0480  0.9924
  193MOL0     H26587  10.593   5.406  -0.572  0.8894 -1.5353  0.1910
  193MOL0     H26588  10.654   5.190  -0.681 -0.9275 -1.0970 -0.6634
  193MOL0     H26589  10.524   5.171  -0.564 -3.2059  1.5497  0.0376
  193MOL0     H26590  10.476   5.045  -0.776  1.0299  0.1147  2.1215
  193MOL0     H26591  10.356   5.162  -0.753 -1.7138 -0.2507 -3.2059
  193MOL0     H26592  10.576   5.294  -1.126 -2.0118  1.7324  1.4193
  193MOL0     H26593  10.446   5.358  -1.406  1.8801  0.7191 -1.0738
  193MOL0     H26594  10.486   5.181  -1.438  1.9660 -1.6593  2.7862
  193MOL0     H26595  10.602   5.289  -1.364 -0.6729  2.6973  0.0558
  193MOL0     H26596  10.288   5.333  -1.691 -0.7017  0.7560 -1.3504
  193MOL0     H26597  10.159   5.339  -1.874  1.3321 -1.6157 -0.7076
  193MOL0     H26598  10.021   5.328  -2.024 -1.5745  1.4743 -1.4704
  193MOL0     H26599   9.934   5.169  -2.014 -2.8038 -0.5485 -0.0294
  193MOL0     H26600   9.828   5.444  -2.108  0.7396  0.9006 -0.5480
  193MOL0     H26601   9.898   5.313  -2.205 -0.1811  2.6043  0.3579
  193MOL0     H26602   9.641   5.318  -2.216  0.2938 -0.4941 -0.3668
  193MOL0     H26603   9.651   5.273  -2.039 -3.5249 -1.3196 -1.2978
  193MOL0     H26604   9.777   5.074  -2.115  1.3413  1.4417 -0.4414
  193MOL0     H26605   9.779   5.132  -2.274  0.1468 -2.7169  0.1868
  193MOL0     H26606   9.593   4.959  -2.208  0.0402 -0.0194  1.0323
  193MOL0     H26607   9.509   5.094  -2.139 -0.6935 -0.4233 -0.5480
  193MOL0     H26608   9.531   5.205  -2.385 -4.3245  0.2013 -2.5184
  193MOL0     H26609   9.417   5.078  -2.368  0.6702  0.5278 -0.5069
  193MOL0     H26610   9.559   4.912  -2.440  2.6330 -2.1692 -2.5063
  193MOL0     H26611   9.694   5.023  -2.474  0.0181  0.0164  3.4843
  193MOL0     H26612   9.559   4.967  -2.673  0.4292 -0.5879  1.0328
  193MOL0     H26613   9.603   5.130  -2.642 -2.4705  2.3892 -0.8100
  193MOL0     H26614   9.800   5.299  -1.638  0.2310  2.1169  0.4689
  193MOL0     H26615   9.948   5.296  -1.426  3.0156  1.1612  1.8099
  193MOL0     H26616  10.171   5.022  -1.133  0.6325 -1.6902  1.3439
  193MOL0     H26617  10.291   5.032  -0.932  3.1204 -0.4950  0.5342
  193MOL0     H26618   9.605   5.454   0.299 -0.2681 -0.4074 -0.2724
  193MOL0     H26619   9.388   5.382   0.416 -2.3456 -0.0865 -0.4938
  193MOL0     H26620   9.265   5.352   0.852 -1.0340 -2.6815  2.3645
  193MOL0     H26621   9.093   5.252   0.999  1.3404  2.7406  2.9127
  193MOL0     H26622   8.902   5.154   1.083 -2.2225  0.4962 -1.4183
  193MOL0     H26623   8.956   5.281   1.205  0.3546 -1.5109  0.7666
  193MOL0     H26624   8.664   5.216   1.152 -4.1608  0.8546  5.0989
  193MOL0     H26625   8.734   5.312   1.275  0.0856  0.7785 -0.9116
  193MOL0     H26626   8.769   5.013   1.229  0.1942  0.3339  0.1824
  193MOL0     H26627   8.871   5.102   1.346  0.7989 -0.9344 -1.4851
  193MOL0     H26628   8.571   5.158   1.350  1.7292  1.6628 -0.9609
  193MOL0     H26629   8.677   5.127   1.490  0.4845  1.6401  0.2298
  193MOL0     H26630   8.528   4.740   1.367 -0.6057  0.6157 -0.7121
  193MOL0     H26631   8.823   5.553   0.881  0.8490  1.5608 -2.8341
  193MOL0     H26632   8.912   5.578   0.575 -2.7800  1.1675 -0.2005
  193MOL0     H26633   8.885   5.698   0.689 -0.3881 -0.6210 -0.4358
  193MOL0     H26634   9.042   5.702   0.609 -0.2479 -1.7784 -2.9974
  194MOL0     O26635   5.199  10.523   3.290  1.0421 -0.7523 -0.8095
  194MOL0     C26636   5.218  10.404   3.310  0.6007  0.8686 -1.1456
  194MOL0     O26637   5.350  10.343   3.302  0.3423 -0.3061 -1.2256
  194MOL0     C26638   5.462  10.419   3.315  0.5241  0.1834  0.2111
  194MOL0     C26639   5.486  10.515   3.215  0.0807  0.1999 -0.4528
  194MOL0     C26640   5.601  10.594   3.218  1.0054 -0.1520 -1.1245
  194MOL0     C26641   5.686  10.597   3.332 -0.3609  0.7416  0.5320
  194MOL0     O26642   5.779  10.689   3.363 -0.1939 -0.3339 -0.4812
  194MOL0     C26643   5.775  10.825   3.298  0.4115  0.1403 -0.1385
  194MOL0     C26644   5.756  10.935   3.400 -0.0450  0.7225 -1.0209
  194MOL0     C26645   5.863  10.928   3.509  0.6134 -0.6315 -0.9045
  194MOL0     C26646   5.996  10.988   3.456  0.6282  0.4682  1.2224
  194MOL0     C26647   6.124  11.017   3.536  0.0413  1.2065 -0.2742
  194MOL0     C26648   6.096  11.110   3.654 -0.0404  0.2393 -0.4799
  194MOL0     C26649   6.227  11.123   3.746  0.6537 -0.4441  0.7738
  194MOL0     C26650   6.208  11.241   3.839 -0.2958  0.6296 -0.8975
  194MOL0     N26651   6.323  11.235   3.941 -0.1862  0.2573  0.7073
  194MOL0     C26652   6.308  11.215   4.077  0.7639  0.7119 -0.2482
  194MOL0     C26653   6.431  11.219   4.133  0.5851  0.0121  0.5583
  194MOL0     C26654   6.453  11.225   4.282 -0.9780 -0.5600  1.3837
  194MOL0     C26655   6.501  11.368   4.302 -0.4465  0.3156 -0.4936
  194MOL0     C26656   6.385  11.480   4.318 -0.2266  0.1968  0.2188
  194MOL0     C26657   6.443  11.613   4.350  0.0100  0.3848 -0.7342
  194MOL0     O26658   6.545  11.643   4.256 -0.5986  0.2074  0.2861
  194MOL0     C26659   6.490  11.689   4.140 -0.0944  0.8478 -0.5956
  194MOL0     C26660   6.495  11.611   4.020  0.2047 -0.3976 -0.2537
  194MOL0     C26661   6.468  11.661   3.895 -0.4397  0.5875  0.5517
  194MOL0     C26662   6.514  11.575   3.772  0.0802 -0.1487 -0.4655
  194MOL0     C26663   6.422  11.796   3.881 -0.0861 -0.0379  0.3499
  194MOL0     C26664   6.399  11.875   3.754  0.6968 -0.3211 -0.3064
  194MOL0     O26665   6.467  11.832   3.647 -0.2965 -0.2716 -0.4175
  194MOL0     C26666   6.460  11.917   3.536 -0.7540  0.0697 -0.5145
  194MOL0     C26667   6.346  11.929   3.456 -0.5097  0.5855  0.1551
  194MOL0     C26668   6.344  12.027   3.351  0.2706  0.1984 -0.3800
  194MOL0     C26669   6.462  12.096   3.321 -0.6681  0.0711  1.0852
  194MOL0     O26670   6.476  12.193   3.220 -0.0464  0.1747  1.3246
  194MOL0     C26671   6.363  12.252   3.164 -0.4157 -0.9797 -0.0086
  194MOL0     C26672   6.380  12.398   3.197 -1.4751  0.3525  0.2921
  194MOL0     C26673   6.267  12.477   3.134  0.3513 -0.6091  0.5554
  194MOL0     C26674   6.261  12.618   3.180  0.5372  0.3820 -0.1740
  194MOL0     C26675   6.118  12.668   3.169  0.5769 -0.0131 -0.0612
  194MOL0     C26676   6.113  12.818   3.197 -0.0590  0.8293  0.2102
  194MOL0     C26677   5.963  12.855   3.186 -0.0314  0.5597  0.2839
  194MOL0     C26678   5.915  12.902   3.320 -0.0650  0.8486  0.0182
  194MOL0    Cl26679   5.916  12.789   3.449  0.3027  0.0658 -0.1827
  194MOL0     C26680   6.571  12.076   3.403 -0.2736 -0.7971 -0.4252
  194MOL0     C26681   6.568  11.996   3.520 -0.0635 -0.3297 -0.1200
  194MOL0     O26682   6.334  11.982   3.762 -0.0014  0.6224  0.3448
  194MOL0     C26683   6.402  11.867   4.005  0.0467  0.6839  0.2394
  194MOL0     C26684   6.440  11.814   4.127 -0.3942  0.2265  0.6036
  194MOL0     N26685   6.516  11.231   4.030 -1.1423  0.8690  0.4072
  194MOL0     N26686   6.459  11.223   3.913 -0.4565 -0.1166  0.8474
  194MOL0     C26687   5.661  10.496   3.434 -0.2045 -0.5472  0.1014
  194MOL0     C26688   5.553  10.408   3.427 -0.2478 -1.1382 -0.4329
  194MOL0     C26689   5.115  10.308   3.339  0.8971 -0.4096 -0.2804
  194MOL0     C26690   5.160  10.170   3.344 -1.2636 -1.0119  0.3442
  194MOL0     C26691   5.078  10.063   3.336  0.4548  0.3619  1.2402
  194MOL0     C26692   4.938  10.088   3.326 -1.4024 -0.7912 -0.6053
  194MOL0     O26693   4.866   9.976   3.323 -0.0825 -0.5736  0.1976
  194MOL0     C26694   4.781   9.969   3.204 -0.2565  0.1952  1.0961
  194MOL0     C26695   4.640   9.928   3.244 -0.2691  0.0314  0.2253
  194MOL0     C26696   4.613   9.781   3.262 -0.8634  0.5770  0.7861
  194MOL0     C26697   4.624   9.694   3.128  0.5493 -0.9576 -0.8227
  194MOL0     C26698   4.595   9.559   3.168 -0.5317 -0.5296 -0.3991
  194MOL0     C26699   4.553   9.454   3.206 -0.0174 -0.3000 -0.0612
  194MOL0     C26700   4.890  10.219   3.328  0.2442 -0.0591 -0.5593
  194MOL0     C26701   4.976  10.330   3.332  0.2272 -0.2121 -0.5395
  194MOL0     C26702   4.914  10.470   3.325  0.6039  0.2337 -0.1449
  194MOL0     H26703   5.422  10.515   3.127 -0.5164  2.1097 -0.0622
  194MOL0     H26704   5.601  10.673   3.142  1.8064  0.3029 -0.6639
  194MOL0     H26705   5.690  10.844   3.233  0.7556 -0.2321 -0.7058
  194MOL0     H26706   5.856  10.851   3.230 -2.3874  3.2682 -2.6388
  194MOL0     H26707   5.763  11.035   3.356 -0.6715  0.9328 -0.6574
  194MOL0     H26708   5.657  10.936   3.447 -0.9051  2.8423 -2.7088
  194MOL0     H26709   5.810  10.988   3.583  1.4901 -1.1827  0.1933
  194MOL0     H26710   5.889  10.831   3.552 -0.8437 -0.4914  0.3333
  194MOL0     H26711   6.017  10.911   3.381  0.9116  2.2754 -0.6517
  194MOL0     H26712   5.981  11.084   3.405  1.0468  0.7325  1.5928
  194MOL0     H26713   6.201  11.068   3.477 -0.1602  2.8998  0.8478
  194MOL0     H26714   6.176  10.924   3.559 -0.6004  1.5232  2.7809
  194MOL0     H26715   6.086  11.209   3.609  0.7501  0.0732 -1.0344
  194MOL0     H26716   6.009  11.088   3.716 -0.0309  2.7584  0.5614
  194MOL0     H26717   6.321  11.138   3.694 -0.3835  0.6755 -0.8726
  194MOL0     H26718   6.232  11.028   3.802 -0.5440 -1.1768 -0.2936
  194MOL0     H26719   6.206  11.334   3.782  2.2646 -0.8263 -3.5887
  194MOL0     H26720   6.118  11.234   3.902  0.6727 -2.0763  0.3335
  194MOL0     H26721   6.218  11.205   4.137  0.8537  1.4914  0.0369
  194MOL0     H26722   6.532  11.153   4.305  0.9433  1.2282  0.7469
  194MOL0     H26723   6.372  11.205   4.352 -0.8117 -1.7284  1.2611
  194MOL0     H26724   6.565  11.359   4.390 -0.9060  0.3145 -0.1523
  194MOL0     H26725   6.576  11.402   4.230  0.4457  3.1053  1.5424
  194MOL0     H26726   6.327  11.492   4.227  1.2612  0.6740 -0.7010
  194MOL0     H26727   6.311  11.456   4.395  0.6214  0.5517  1.1755
  194MOL0     H26728   6.362  11.687   4.360  1.7765  2.5153 -1.3381
  194MOL0     H26729   6.485  11.605   4.451 -0.2629 -0.9015 -0.7114
  194MOL0     H26730   6.525  11.508   4.036 -2.5151 -0.8778  2.9946
  194MOL0     H26731   6.609  11.609   3.729 -0.6349 -2.3277 -4.1830
  194MOL0     H26732   6.430  11.584   3.703 -1.3526 -0.0407  1.2124
  194MOL0     H26733   6.527  11.473   3.810  0.5991 -0.6819 -1.9892
  194MOL0     H26734   6.256  11.878   3.489 -0.8047  1.8302  1.3496
  194MOL0     H26735   6.257  12.047   3.290 -1.3374 -2.1739  0.9628
  194MOL0     H26736   6.356  12.236   3.056 -1.1221 -1.8778  0.1608
  194MOL0     H26737   6.267  12.216   3.203 -2.2611  2.7233 -0.6963
  194MOL0     H26738   6.386  12.407   3.306  1.4269 -2.0312  0.4412
  194MOL0     H26739   6.473  12.438   3.156  0.3740 -2.9705  0.9047
  194MOL0     H26740   6.181  12.419   3.167 -0.9756  1.3052  0.6533
  194MOL0     H26741   6.267  12.488   3.025 -1.1312  1.4507  0.7095
  194MOL0     H26742   6.331  12.678   3.121 -1.2482  0.6371 -2.1229
  194MOL0     H26743   6.300  12.638   3.281  2.7935  3.2894 -1.4501
  194MOL0     H26744   6.087  12.632   3.070  2.9005 -0.4283 -0.6868
  194MOL0     H26745   6.059  12.609   3.241 -0.6562  0.0142 -1.0043
  194MOL0     H26746   6.171  12.874   3.123 -1.2619 -2.3047 -3.4569
  194MOL0     H26747   6.148  12.833   3.299 -1.2354  2.3418  0.4263
  194MOL0     H26748   5.911  12.766   3.150 -2.1227  1.5775  0.6286
  194MOL0     H26749   5.948  12.927   3.106 -2.1599  1.2927  1.2806
  194MOL0     H26750   5.810  12.927   3.305 -0.4011 -0.6786 -0.2890
  194MOL0     H26751   5.965  12.987   3.366 -0.5859 -0.3628  3.0466
  194MOL0     H26752   6.658  12.130   3.367 -1.1155 -0.0170 -1.3895
  194MOL0     H26753   6.654  11.973   3.582  0.0867 -1.3250 -0.6756
  194MOL0     H26754   6.367  11.970   4.000  1.2015  1.0650 -0.4003
  194MOL0     H26755   6.451  11.865   4.222  0.3972 -0.4443  0.8889
  194MOL0     H26756   5.742  10.500   3.506  1.4702  5.1141 -1.5549
  194MOL0     H26757   5.548  10.326   3.498  2.8804 -1.2171 -0.1437
  194MOL0     H26758   5.267  10.151   3.355 -0.6581  2.3129  1.4671
  194MOL0     H26759   5.119   9.964   3.318 -0.5619  0.3208 -1.4258
  194MOL0     H26760   4.786  10.058   3.142  1.8947  0.2287  1.2558
  194MOL0     H26761   4.814   9.887   3.140  0.2501  0.4401  1.0369
  194MOL0     H26762   4.571   9.965   3.167  2.5651  3.6993 -0.8120
  194MOL0     H26763   4.606   9.981   3.333  2.6844 -1.0122  2.0989
  194MOL0     H26764   4.691   9.739   3.327  2.0114 -0.5514 -2.9951
  194MOL0     H26765   4.514   9.772   3.307 -1.5812  1.7974 -0.5083
  194MOL0     H26766   4.730   9.703   3.101  0.7320 -0.0865  0.1156
  194MOL0     H26767   4.548   9.731   3.058 -0.2804  0.3445  0.6991
  194MOL0     H26768   4.521   9.363   3.251  3.1780 -0.3180  2.5592
  194MOL0     H26769   4.782  10.230   3.327  0.4581  3.0916 -0.1732
  194MOL0     H26770   4.805  10.469   3.335  0.5878  1.2397 -0.1619
  194MOL0     H26771   4.948  10.533   3.406 -3.5551  1.7401  0.7000
  194MOL0     H26772   4.945  10.526   3.236  1.1154  2.1504  1.1968
  195MOL0     O26773   5.528   1.516   0.210  0.4629  0.8441 -0.8975
  195MOL0     C26774   5.417   1.560   0.188 -0.4688  0.1400 -0.9312
  195MOL0     O26775   5.384   1.622   0.070  0.0313 -0.5290  0.5057
  195MOL0     C26776   5.474   1.630  -0.028  0.1327  0.0678  0.0729
  195MOL0     C26777   5.450   1.556  -0.142 -0.6161 -0.3681  0.2420
  195MOL0     C26778   5.549   1.561  -0.236 -0.1970  0.8792  0.5135
  195MOL0     C26779   5.671   1.617  -0.225 -0.6568  0.2441 -0.5927
  195MOL0     O26780   5.754   1.605  -0.333  0.1288  0.8181  0.3474
  195MOL0     C26781   5.897   1.609  -0.306 -0.2399 -0.4536  0.1598
  195MOL0     C26782   5.952   1.467  -0.312 -0.1346 -1.0877  0.5255
  195MOL0     C26783   6.072   1.449  -0.403 -0.4451  1.3715 -0.0188
  195MOL0     C26784   6.105   1.294  -0.393  0.8987 -0.9109 -0.2071
  195MOL0     C26785   6.246   1.243  -0.450 -0.7154 -0.6085 -0.4280
  195MOL0     C26786   6.260   1.255  -0.601 -0.8449  0.5768  0.3032
  195MOL0     C26787   6.390   1.186  -0.651 -0.3955 -0.3450  0.9799
  195MOL0     C26788   6.406   1.203  -0.813 -0.3966 -1.4643 -0.5122
  195MOL0     N26789   6.507   1.115  -0.870  0.7041  0.6084  1.0473
  195MOL0     C26790   6.513   1.093  -1.003  0.0065 -0.3563  0.6080
  195MOL0     C26791   6.624   1.024  -1.033 -0.6047  0.1437 -0.0140
  195MOL0     C26792   6.670   0.966  -1.167  0.0070 -0.6522  0.7407
  195MOL0     C26793   6.769   0.849  -1.156  0.7017  0.7387 -0.0473
  195MOL0     C26794   6.807   0.799  -1.288 -0.1916 -0.0130 -0.0240
  195MOL0     C26795   6.714   0.710  -1.357 -0.4960  0.0884  0.0845
  195MOL0     O26796   6.783   0.692  -1.483 -0.0838 -0.0242  0.2868
  195MOL0     C26797   6.861   0.584  -1.516 -0.7012 -0.4187  0.3378
  195MOL0     C26798   6.895   0.477  -1.436  0.0137 -0.9607  0.8633
  195MOL0     C26799   6.953   0.367  -1.484  0.3371  0.8545  0.0106
  195MOL0     C26800   6.982   0.257  -1.387 -0.2706  0.5840 -0.2558
  195MOL0     C26801   6.997   0.366  -1.623 -0.6790 -0.0624  0.2456
  195MOL0     C26802   7.062   0.245  -1.685 -0.2872  0.1086 -0.0218
  195MOL0     O26803   7.192   0.228  -1.673 -0.0462  0.1983 -0.5876
  195MOL0     C26804   7.254   0.114  -1.733 -0.6018 -1.0518 -1.3732
  195MOL0     C26805   7.390   0.121  -1.758 -0.4842 -0.2588  0.3156
  195MOL0     C26806   7.460   0.009  -1.794 -0.2117  1.0931  0.2799
  195MOL0     C26807   7.398  -0.120  -1.819 -0.3766 -0.2178 -1.1606
  195MOL0     O26808   7.491  -0.222  -1.848  0.0160 -0.8111 -0.4071
  195MOL0     C26809   7.507  -0.332  -1.757  0.5819 -0.0649 -0.7625
  195MOL0     C26810   7.648  -0.398  -1.780 -0.8365 -0.5012 -0.4640
  195MOL0     C26811   7.649  -0.457  -1.925 -0.1223 -0.0155  0.2888
  195MOL0     C26812   7.628  -0.608  -1.919 -0.0436  0.3131  0.7351
  195MOL0     C26813   7.672  -0.665  -2.057  0.3405  0.3931  0.0200
  195MOL0     C26814   7.627  -0.815  -2.078  0.3878 -1.5492 -0.0666
  195MOL0     C26815   7.641  -0.867  -2.222 -1.5124 -1.2402 -0.3379
  195MOL0     C26816   7.602  -0.766  -2.338 -0.7013 -0.1412  0.0123
  195MOL0    Cl26817   7.724  -0.646  -2.355  0.2279  0.1048  0.2686
  195MOL0     C26818   7.265  -0.131  -1.784  0.4333 -0.0200 -1.2304
  195MOL0     C26819   7.194  -0.013  -1.746  1.2755  0.6226 -0.3947
  195MOL0     O26820   6.977   0.173  -1.737  0.4464  0.4174 -0.5394
  195MOL0     C26821   6.970   0.482  -1.708  0.6642 -0.4392 -0.3917
  195MOL0     C26822   6.892   0.584  -1.651  0.0844 -0.3350 -0.4266
  195MOL0     N26823   6.683   1.005  -0.908 -0.4969 -0.0022  0.4117
  195MOL0     N26824   6.614   1.053  -0.808 -0.1469  1.0776  0.4071
  195MOL0     C26825   5.684   1.702  -0.111 -0.8218 -0.2873  0.4465
  195MOL0     C26826   5.587   1.703  -0.009  0.0720  0.3969  0.3571
  195MOL0     C26827   5.311   1.547   0.290 -0.7716  1.1714  0.0587
  195MOL0     C26828   5.191   1.603   0.264  0.0277  0.3253  0.7267
  195MOL0     C26829   5.091   1.603   0.359  0.8163 -1.3062  0.2446
  195MOL0     C26830   5.102   1.542   0.487  0.2378 -0.0137  0.3107
  195MOL0     O26831   5.006   1.531   0.588 -0.5727  1.1578 -0.5903
  195MOL0     C26832   4.915   1.639   0.598 -0.0276  0.4713 -0.4635
  195MOL0     C26833   4.888   1.682   0.745  0.7305 -0.1355  0.1326
  195MOL0     C26834   4.832   1.569   0.830 -0.6459  0.4993  0.1791
  195MOL0     C26835   4.838   1.610   0.977  0.0088  0.9108 -0.0742
  195MOL0     C26836   4.736   1.706   1.029 -0.2798  0.5817  0.0146
  195MOL0     C26837   4.651   1.777   1.074 -0.0277 -0.6260 -0.2314
  195MOL0     C26838   5.224   1.480   0.513  0.4053 -0.0086  0.6258
  195MOL0     C26839   5.324   1.478   0.420  0.2475  0.6971  0.5793
  195MOL0     C26840   5.452   1.406   0.463  0.1230  0.4852 -0.4712
  195MOL0     H26841   5.355   1.506  -0.151 -0.0424 -1.0266 -3.6976
  195MOL0     H26842   5.539   1.496  -0.323  0.2456 -2.0428  2.5117
  195MOL0     H26843   5.907   1.655  -0.207 -1.3662 -0.9069  0.5066
  195MOL0     H26844   5.948   1.671  -0.380 -0.1016 -0.5871  0.1440
  195MOL0     H26845   5.971   1.429  -0.211  0.8009 -0.1205  0.7315
  195MOL0     H26846   5.872   1.409  -0.359 -0.0909 -0.5276 -0.2726
  195MOL0     H26847   6.053   1.483  -0.505  1.1779  2.1244 -0.1072
  195MOL0     H26848   6.160   1.507  -0.373 -1.4153  2.3109  1.1333
  195MOL0     H26849   6.075   1.242  -0.301 -3.5601 -3.0618 -2.5544
  195MOL0     H26850   6.043   1.256  -0.474  0.8200 -1.2407  0.0047
  195MOL0     H26851   6.274   1.146  -0.407  2.3753  0.6459  0.6945
  195MOL0     H26852   6.317   1.314  -0.407 -0.3952 -1.7541  1.0018
  195MOL0     H26853   6.180   1.218  -0.667  0.4007 -0.3931 -0.7290
  195MOL0     H26854   6.284   1.358  -0.628  5.2534 -0.4948  0.3128
  195MOL0     H26855   6.386   1.082  -0.616 -2.1566  0.4892  3.5538
  195MOL0     H26856   6.480   1.228  -0.605 -0.9165  0.4313  1.3142
  195MOL0     H26857   6.312   1.186  -0.865 -0.6468 -1.3540 -0.0919
  195MOL0     H26858   6.440   1.305  -0.834  1.7257 -2.2319 -1.1310
  195MOL0     H26859   6.432   1.119  -1.071 -1.9576  0.0086  2.9350
  195MOL0     H26860   6.719   1.043  -1.227  1.2540 -0.8325  1.4980
  195MOL0     H26861   6.580   0.956  -1.228 -0.4140  2.9065  0.5502
  195MOL0     H26862   6.853   0.869  -1.089  1.2787  1.0796 -0.8587
  195MOL0     H26863   6.701   0.775  -1.113 -0.0717  0.9919 -0.8015
  195MOL0     H26864   6.838   0.885  -1.347 -2.7443 -0.9474 -3.0143
  195MOL0     H26865   6.906   0.753  -1.276  0.3126  1.2016  0.6174
  195MOL0     H26866   6.698   0.620  -1.297  0.3570  1.6396  2.7905
  195MOL0     H26867   6.618   0.755  -1.383 -1.5283 -1.7940  0.4207
  195MOL0     H26868   6.856   0.475  -1.334  1.4192 -1.9334  1.4123
  195MOL0     H26869   7.077   0.294  -1.348  0.0503  1.5998 -1.9002
  195MOL0     H26870   6.994   0.155  -1.423  1.6903  0.7794 -0.2642
  195MOL0     H26871   6.913   0.256  -1.302  1.7377 -1.7625  1.4874
  195MOL0     H26872   7.452   0.209  -1.756  0.3149 -0.7461  3.6798
  195MOL0     H26873   7.564   0.006  -1.824 -0.6259 -0.9794 -1.2139
  195MOL0     H26874   7.517  -0.308  -1.650 -1.2863 -0.5254 -0.4574
  195MOL0     H26875   7.424  -0.403  -1.766  0.2667  0.5643 -3.6039
  195MOL0     H26876   7.729  -0.328  -1.756 -0.9080 -0.4748 -0.2998
  195MOL0     H26877   7.659  -0.480  -1.709  1.5904 -0.4451 -0.6714
  195MOL0     H26878   7.742  -0.438  -1.979 -0.6098 -1.4613 -1.1300
  195MOL0     H26879   7.567  -0.417  -1.985  0.8257  3.3938  1.0589
  195MOL0     H26880   7.528  -0.641  -1.890 -0.4261  1.9349  1.3577
  195MOL0     H26881   7.705  -0.638  -1.847  1.6257 -0.0793 -1.1305
  195MOL0     H26882   7.622  -0.606  -2.135  1.7298  0.1404 -1.0878
  195MOL0     H26883   7.781  -0.669  -2.061  0.3519 -1.3163  1.0297
  195MOL0     H26884   7.521  -0.818  -2.050 -0.2439 -2.7988 -2.3094
  195MOL0     H26885   7.689  -0.883  -2.019  0.2132 -0.3532  1.5492
  195MOL0     H26886   7.576  -0.954  -2.237  1.2643 -3.7604  1.1493
  195MOL0     H26887   7.748  -0.891  -2.230  0.2190  4.2815  1.5320
  195MOL0     H26888   7.503  -0.723  -2.322 -0.2668  0.8398  0.0764
  195MOL0     H26889   7.607  -0.818  -2.435  2.9063  2.0964 -1.2081
  195MOL0     H26890   7.202  -0.219  -1.788  0.7857 -0.2402 -2.3884
  195MOL0     H26891   7.092  -0.027  -1.712  1.1904  3.4099  0.7963
  195MOL0     H26892   7.011   0.494  -1.808  2.4881  4.2940  0.6876
  195MOL0     H26893   6.840   0.662  -1.706  1.4026 -0.2309 -1.5860
  195MOL0     H26894   5.775   1.760  -0.098  1.3056 -2.9164 -1.4446
  195MOL0     H26895   5.600   1.757   0.085  1.2352 -3.4943  2.6748
  195MOL0     H26896   5.173   1.637   0.162 -1.5394 -1.3171  0.4005
  195MOL0     H26897   4.993   1.641   0.330  0.4309 -2.8964 -0.6315
  195MOL0     H26898   4.960   1.723   0.544 -1.9475  0.5188 -2.0936
  195MOL0     H26899   4.822   1.609   0.549 -0.0068  2.4217 -1.7819
  195MOL0     H26900   4.806   1.754   0.747 -0.0380 -0.9235 -1.2886
  195MOL0     H26901   4.988   1.715   0.773  0.9886 -0.0091 -0.8906
  195MOL0     H26902   4.731   1.536   0.803 -0.0135  0.2812 -2.1169
  195MOL0     H26903   4.900   1.484   0.834  0.1079  1.1414  1.9564
  195MOL0     H26904   4.937   1.655   0.990  0.0657  1.8089 -2.8698
  195MOL0     H26905   4.823   1.517   1.032 -1.2485  0.7684 -0.6093
  195MOL0     H26906   4.601   1.861   1.118  2.5278  0.2286  1.3078
  195MOL0     H26907   5.238   1.436   0.611  0.4221  0.8996  1.0470
  195MOL0     H26908   5.533   1.478   0.478  0.4799  1.3447 -5.1084
  195MOL0     H26909   5.442   1.346   0.555  1.4092  0.7497 -0.1399
  195MOL0     H26910   5.491   1.337   0.387 -0.7851 -0.2253 -0.3123
  196MOL0     O26911   3.574   3.117   9.142 -0.5046 -0.2127  0.9294
  196MOL0     C26912   3.681   3.170   9.162  0.9389  0.0862  0.4558
  196MOL0     O26913   3.708   3.300   9.134 -0.5457 -0.8505 -0.5057
  196MOL0     C26914   3.616   3.405   9.114 -0.2378 -0.2845  0.1140
  196MOL0     C26915   3.471   3.397   9.102 -0.2723 -0.0637 -0.7552
  196MOL0     C26916   3.409   3.512   9.060  0.1905  0.1978  0.2265
  196MOL0     C26917   3.462   3.624   9.017  0.1463  0.3855 -0.7260
  196MOL0     O26918   3.386   3.727   8.973  0.2251 -0.0706  0.4915
  196MOL0     C26919   3.406   3.724   8.834  0.3188  0.1562  0.0786
  196MOL0     C26920   3.300   3.809   8.755 -0.4423 -0.0369  0.6846
  196MOL0     C26921   3.315   3.778   8.604 -1.0035  0.2394 -0.1414
  196MOL0     C26922   3.225   3.860   8.509 -0.1933 -0.3100  0.4225
  196MOL0     C26923   3.284   3.839   8.368 -0.1241  0.1490 -0.7464
  196MOL0     C26924   3.203   3.896   8.253 -0.1804 -0.3600  0.4009
  196MOL0     C26925   3.257   3.834   8.127  0.7261 -0.9701  0.3995
  196MOL0     C26926   3.159   3.881   8.005 -0.4467  0.2802  0.6141
  196MOL0     N26927   3.216   3.844   7.875 -1.3635  0.5256 -0.0835
  196MOL0     C26928   3.273   3.719   7.846  1.0339 -0.9651 -0.1030
  196MOL0     C26929   3.354   3.746   7.738  0.1973 -0.0043  0.1543
  196MOL0     C26930   3.413   3.629   7.660  0.0921  0.6348 -0.2526
  196MOL0     C26931   3.497   3.529   7.741 -0.6421 -0.0631  0.7393
  196MOL0     C26932   3.629   3.599   7.779  0.4215  0.1170  0.3436
  196MOL0     C26933   3.734   3.491   7.772  0.8311 -1.3903 -0.4744
  196MOL0     O26934   3.855   3.535   7.823 -0.2333 -0.3442  0.2731
  196MOL0     C26935   3.954   3.442   7.861  0.0379  0.3974  0.0691
  196MOL0     C26936   3.945   3.298   7.846 -0.7074  0.6959  0.0544
  196MOL0     C26937   4.052   3.215   7.891  0.3920 -0.0250 -0.1419
  196MOL0     C26938   4.056   3.064   7.877  0.3505 -0.5458  0.6136
  196MOL0     C26939   4.161   3.273   7.953 -0.9052 -0.1510 -0.5221
  196MOL0     C26940   4.270   3.205   8.006  0.0697  0.1609 -0.4049
  196MOL0     O26941   4.286   3.204   8.145 -0.0747 -0.2527  0.1523
  196MOL0     C26942   4.404   3.163   8.201  0.3346  0.4933 -0.8899
  196MOL0     C26943   4.533   3.154   8.146  0.8712  0.6128  0.7977
  196MOL0     C26944   4.646   3.110   8.215 -0.0388 -0.1098  0.2028
  196MOL0     C26945   4.630   3.075   8.350 -0.6667  0.1575  0.3559
  196MOL0     O26946   4.735   3.027   8.425  0.3337  0.0982 -0.5884
  196MOL0     C26947   4.720   2.939   8.534  0.3795  0.6998  0.1424
  196MOL0     C26948   4.846   2.898   8.591 -0.7981  0.3484 -0.4819
  196MOL0     C26949   4.829   2.815   8.709  1.1650  0.2074 -0.3525
  196MOL0     C26950   4.959   2.755   8.774 -0.4083 -0.2654  0.5559
  196MOL0     C26951   4.938   2.634   8.862  0.1838  0.9141  0.6279
  196MOL0     C26952   5.067   2.575   8.903  0.0962 -0.4457  0.6722
  196MOL0     C26953   5.039   2.448   8.979 -0.2643  0.7885  0.4644
  196MOL0     C26954   5.150   2.360   9.029 -0.3992 -0.0592 -0.2408
  196MOL0    Cl26955   5.116   2.257   9.157  0.1182 -0.1646 -0.0803
  196MOL0     C26956   4.502   3.082   8.407 -0.8416 -0.3975  0.1007
  196MOL0     C26957   4.395   3.129   8.329  0.5713  0.2836  0.4621
  196MOL0     O26958   4.344   3.139   7.932  0.3714 -0.6670  0.4043
  196MOL0     C26959   4.177   3.417   7.953  0.6609 -1.1113 -0.2746
  196MOL0     C26960   4.075   3.498   7.909  0.2702  0.7009  0.4425
  196MOL0     N26961   3.351   3.884   7.711 -0.0154 -0.0141  0.2522
  196MOL0     N26962   3.288   3.938   7.804 -1.0803  0.1241  0.3485
  196MOL0     C26963   3.601   3.640   9.030 -0.6408  0.7204 -0.0984
  196MOL0     C26964   3.676   3.531   9.078  0.2181 -0.6882 -0.5141
  196MOL0     C26965   3.784   3.077   9.198  0.3571  1.2095 -0.4532
  196MOL0     C26966   3.907   3.102   9.142 -0.8489  0.5793 -0.5402
  196MOL0     C26967   4.015   3.014   9.155 -0.7271 -0.2309  0.2611
  196MOL0     C26968   4.002   2.902   9.226  0.2626  0.1968  0.5247
  196MOL0     O26969   4.106   2.815   9.249 -0.8725 -0.2138  0.0178
  196MOL0     C26970   4.235   2.838   9.189  0.2561  0.1796 -0.1132
  196MOL0     C26971   4.334   2.739   9.263  0.6446 -0.1607  0.1373
  196MOL0     C26972   4.377   2.772   9.413  0.8009 -0.1114  0.4037
  196MOL0     C26973   4.476   2.679   9.471  0.1887  0.4249 -0.3013
  196MOL0     C26974   4.464   2.696   9.620  0.6991 -0.0846  0.7244
  196MOL0     C26975   4.446   2.718   9.736 -0.0707  0.1919 -0.0755
  196MOL0     C26976   3.881   2.874   9.293  0.5439 -0.0480  0.3521
  196MOL0     C26977   3.767   2.956   9.268  1.1588  0.7753  0.6990
  196MOL0     C26978   3.641   2.910   9.336  1.0768  0.3740 -0.4197
  196MOL0     H26979   3.411   3.307   9.111 -1.9368  1.1100  0.4349
  196MOL0     H26980   3.300   3.503   9.054 -0.0336  2.3194  0.3917
  196MOL0     H26981   3.421   3.619   8.808  0.2062 -0.1452  1.2163
  196MOL0     H26982   3.500   3.776   8.815 -0.2163  0.9497 -0.4897
  196MOL0     H26983   3.197   3.791   8.788  0.5642  0.1449  4.4086
  196MOL0     H26984   3.309   3.916   8.775 -1.2039 -0.2408  2.3254
  196MOL0     H26985   3.419   3.787   8.571 -0.2248 -0.7217  1.8928
  196MOL0     H26986   3.283   3.674   8.592 -0.5304 -0.0107  0.6907
  196MOL0     H26987   3.125   3.816   8.515 -0.6812  0.8584  1.0361
  196MOL0     H26988   3.219   3.966   8.535 -2.7366 -0.4370  0.5726
  196MOL0     H26989   3.282   3.731   8.350  1.0012 -0.2611  1.2620
  196MOL0     H26990   3.388   3.872   8.356  0.5251 -1.1425  0.9557
  196MOL0     H26991   3.098   3.868   8.263 -1.3826  2.8549 -1.6013
  196MOL0     H26992   3.214   4.005   8.253 -0.9048 -0.0586 -4.5583
  196MOL0     H26993   3.268   3.725   8.127  1.2745 -0.9273 -0.7098
  196MOL0     H26994   3.359   3.865   8.106  0.3439 -0.8606 -1.4490
  196MOL0     H26995   3.060   3.838   8.025 -0.1843 -0.8858 -0.4841
  196MOL0     H26996   3.142   3.989   8.017 -0.2521  0.4191 -0.2888
  196MOL0     H26997   3.257   3.628   7.903  0.0869  1.3478  3.6401
  196MOL0     H26998   3.480   3.671   7.585 -0.0362  3.4616  1.0875
  196MOL0     H26999   3.324   3.580   7.619 -0.0211 -0.4443  1.2152
  196MOL0     H27000   3.441   3.482   7.823  0.6177 -0.2836  1.5027
  196MOL0     H27001   3.509   3.445   7.672 -0.8043  0.3905  0.1476
  196MOL0     H27002   3.662   3.671   7.704 -1.3310 -2.5263 -3.2307
  196MOL0     H27003   3.627   3.654   7.874  2.4584  3.1607 -1.2146
  196MOL0     H27004   3.696   3.413   7.838  0.7465 -2.0184 -1.2574
  196MOL0     H27005   3.745   3.447   7.673 -0.6349 -1.4577 -0.6344
  196MOL0     H27006   3.862   3.246   7.800  1.2993 -1.2311 -1.5743
  196MOL0     H27007   4.148   3.035   7.827 -0.5398 -2.9758  0.2430
  196MOL0     H27008   3.976   3.031   7.810  0.3204  0.4310  0.1589
  196MOL0     H27009   4.055   3.021   7.978  2.3676 -0.8585  0.5292
  196MOL0     H27010   4.536   3.174   8.039 -1.1840 -4.2214 -0.3941
  196MOL0     H27011   4.745   3.105   8.172 -0.0237 -0.6303  0.2962
  196MOL0     H27012   4.650   2.973   8.611  2.2337  3.3802  0.7804
  196MOL0     H27013   4.677   2.850   8.486  0.8813 -0.0200  0.9883
  196MOL0     H27014   4.892   2.842   8.509 -1.1210 -0.3649 -0.1890
  196MOL0     H27015   4.903   2.987   8.617  1.4508 -1.0764 -0.3148
  196MOL0     H27016   4.767   2.728   8.689  0.5511  0.0004  2.1734
  196MOL0     H27017   4.786   2.877   8.788  1.8570  3.0031 -2.0357
  196MOL0     H27018   5.001   2.831   8.840 -0.4549 -0.5597  0.9243
  196MOL0     H27019   5.036   2.733   8.699  0.2492 -1.3390  1.5060
  196MOL0     H27020   4.870   2.648   8.947 -0.7062  2.6409 -0.3038
  196MOL0     H27021   4.888   2.563   8.796  1.0936  1.6420 -0.9155
  196MOL0     H27022   5.124   2.643   8.967  2.6654 -0.9495 -0.9673
  196MOL0     H27023   5.123   2.555   8.812  0.3426  1.0235  0.4822
  196MOL0     H27024   4.974   2.376   8.928  1.2703 -0.1985 -0.1645
  196MOL0     H27025   4.992   2.484   9.072 -1.8247  0.7397 -0.2698
  196MOL0     H27026   5.226   2.429   9.067  0.7669  0.0445 -2.5832
  196MOL0     H27027   5.191   2.314   8.939 -3.0835 -0.5697 -1.3042
  196MOL0     H27028   4.491   3.063   8.513 -0.8004  0.3752  0.2497
  196MOL0     H27029   4.299   3.132   8.379 -0.1517 -0.9655 -0.7903
  196MOL0     H27030   4.260   3.461   8.007 -0.7693  0.5873  0.6393
  196MOL0     H27031   4.081   3.606   7.905 -2.2578  1.0049  2.3697
  196MOL0     H27032   3.649   3.730   8.994 -0.2069  0.7310  0.4984
  196MOL0     H27033   3.784   3.528   9.092  0.1882 -0.9234 -0.3225
  196MOL0     H27034   3.925   3.197   9.093  1.1486 -0.8270 -2.7958
  196MOL0     H27035   4.109   3.035   9.104  2.3245 -3.6017  3.7843
  196MOL0     H27036   4.247   2.815   9.083  0.3930 -0.6031  0.0720
  196MOL0     H27037   4.269   2.941   9.207  1.3864 -0.4025  1.2943
  196MOL0     H27038   4.426   2.730   9.204 -1.0711  0.9726 -2.9360
  196MOL0     H27039   4.279   2.644   9.261  2.8612 -1.5706 -2.6136
  196MOL0     H27040   4.421   2.872   9.424  3.4229 -1.3898  3.2523
  196MOL0     H27041   4.287   2.779   9.474 -0.3210  1.0290 -1.3104
  196MOL0     H27042   4.572   2.710   9.429  1.9358 -1.6039  1.9450
  196MOL0     H27043   4.436   2.582   9.438 -1.9114  0.8488  0.8208
  196MOL0     H27044   4.431   2.745   9.839  0.6566  1.2729 -0.2418
  196MOL0     H27045   3.880   2.774   9.336 -0.2352  0.2897  1.1657
  196MOL0     H27046   3.559   2.906   9.264 -0.5702 -0.9688  1.4352
  196MOL0     H27047   3.647   2.812   9.384  2.0539  1.6570  2.3127
  196MOL0     H27048   3.624   2.980   9.418 -1.4017 -0.6948  0.0583
  197MOL0     O27049   8.965   3.783   2.959  0.5328 -0.2289 -0.4553
  197MOL0     C27050   9.000   3.698   2.883  0.4092 -0.1358  0.0805
  197MOL0     O27051   9.119   3.633   2.883 -0.4589  1.0115 -0.8569
  197MOL0     C27052   9.214   3.668   2.973 -0.2803 -0.6736  0.5459
  197MOL0     C27053   9.290   3.552   3.002 -0.5635 -0.7746  0.4598
  197MOL0     C27054   9.394   3.559   3.102 -0.4216 -0.1069 -0.4250
  197MOL0     C27055   9.436   3.678   3.149  0.2374 -1.0601  1.2163
  197MOL0     O27056   9.549   3.683   3.215  0.1753 -0.2887 -0.5848
  197MOL0     C27057   9.673   3.632   3.154  0.2316 -0.7414  0.1041
  197MOL0     C27058   9.767   3.739   3.103  0.5111 -0.3004  0.3027
  197MOL0     C27059   9.913   3.706   3.114 -0.7327  0.1738 -0.1111
  197MOL0     C27060  10.001   3.772   3.010 -0.1800 -0.1544 -1.1989
  197MOL0     C27061  10.157   3.733   3.024  0.1858 -0.9773  0.7630
  197MOL0     C27062  10.211   3.771   3.166 -0.4732 -0.3867  0.0662
  197MOL0     C27063  10.363   3.737   3.164 -1.4074 -1.3464  0.7813
  197MOL0     C27064  10.443   3.832   3.264  0.4604  0.4160  0.0964
  197MOL0     N27065  10.448   3.803   3.405  0.4914  0.6280  0.3020
  197MOL0     C27066  10.494   3.886   3.503  0.0573 -0.3065 -0.3296
  197MOL0     C27067  10.474   3.812   3.617 -0.1509  0.7313 -0.2905
  197MOL0     C27068  10.487   3.873   3.763 -0.3410  0.3886 -0.4464
  197MOL0     C27069  10.358   3.895   3.843 -0.0943 -0.2132  0.3593
  197MOL0     C27070  10.375   3.977   3.974 -1.3257  0.6011  0.1434
  197MOL0     C27071  10.257   3.969   4.070  0.0190 -0.5082  1.2523
  197MOL0     O27072  10.145   4.041   4.005 -0.1036 -0.2031 -0.3855
  197MOL0     C27073  10.025   3.976   3.979  0.3773 -0.4324  0.9925
  197MOL0     C27074   9.898   4.042   3.958  0.4850 -0.2581  0.4333
  197MOL0     C27075   9.783   3.970   3.918 -1.0209 -0.3609 -0.9644
  197MOL0     C27076   9.661   4.059   3.912  0.5087  0.2190 -0.5385
  197MOL0     C27077   9.798   3.835   3.887 -0.1366  0.3656 -0.2701
  197MOL0     C27078   9.685   3.755   3.823  0.6368 -0.1617 -0.0852
  197MOL0     O27079   9.688   3.621   3.834  0.1906 -0.1992  0.3128
  197MOL0     C27080   9.617   3.546   3.758  0.4820  0.7279  0.2601
  197MOL0     C27081   9.586   3.417   3.801  0.0788  0.2358 -0.3249
  197MOL0     C27082   9.524   3.326   3.708  0.2546  0.8473  0.0606
  197MOL0     C27083   9.480   3.358   3.579 -0.8573  0.6176 -0.3753
  197MOL0     O27084   9.423   3.271   3.490  0.6080 -0.4017 -0.1635
  197MOL0     C27085   9.375   3.145   3.529  0.2123 -0.0435 -0.9244
  197MOL0     C27086   9.391   3.050   3.413 -0.4794  0.2030  0.5201
  197MOL0     C27087   9.306   2.927   3.419  0.5112 -0.2214 -0.0069
  197MOL0     C27088   9.158   2.961   3.403  0.6005 -0.4797 -1.1012
  197MOL0     C27089   9.073   2.836   3.393 -0.3623 -1.0057  1.1296
  197MOL0     C27090   8.927   2.856   3.348  0.0082  0.9847  0.4907
  197MOL0     C27091   8.866   2.711   3.311 -0.2433  0.0831 -0.0256
  197MOL0     C27092   8.719   2.699   3.336  0.9082  0.0806  0.1138
  197MOL0    Cl27093   8.628   2.564   3.261 -0.7079 -0.3636 -0.0342
  197MOL0     C27094   9.505   3.493   3.537  0.0301  0.2332  1.1967
  197MOL0     C27095   9.574   3.584   3.626  0.2308  0.1256 -0.2680
  197MOL0     O27096   9.592   3.819   3.781  0.1134  0.0083  0.0546
  197MOL0     C27097   9.923   3.773   3.895  0.3064  0.0071  0.7649
  197MOL0     C27098  10.026   3.843   3.944 -0.2724 -0.2884  0.1470
  197MOL0     N27099  10.425   3.684   3.580  0.1387 -0.2023 -0.7675
  197MOL0     N27100  10.403   3.683   3.454  0.0084  0.0824 -0.1258
  197MOL0     C27101   9.356   3.796   3.123  0.3743  0.0381 -0.1078
  197MOL0     C27102   9.244   3.796   3.035 -0.1600  0.0530  0.6261
  197MOL0     C27103   8.903   3.669   2.776  0.2318 -0.6810 -0.2248
  197MOL0     C27104   8.780   3.747   2.760  0.8084  0.1059  0.4993
  197MOL0     C27105   8.688   3.729   2.651 -0.3927  0.5099 -0.4708
  197MOL0     C27106   8.725   3.650   2.546  0.6618  0.1798  0.4870
  197MOL0     O27107   8.628   3.640   2.448  0.0366  0.3270 -0.7109
  197MOL0     C27108   8.533   3.542   2.482  0.7874  0.0616 -0.4716
  197MOL0     C27109   8.468   3.473   2.363 -0.2253 -0.4660 -0.3517
  197MOL0     C27110   8.388   3.351   2.400 -0.4584  0.3063  0.1365
  197MOL0     C27111   8.320   3.293   2.277 -0.1697  1.0150 -0.5667
  197MOL0     C27112   8.413   3.226   2.190  0.3815  0.1065  0.3510
  197MOL0     C27113   8.474   3.140   2.129 -0.2129  0.1238 -0.2256
  197MOL0     C27114   8.833   3.567   2.567  0.0795  0.0145  0.1161
  197MOL0     C27115   8.917   3.570   2.676 -0.5676  0.0198 -0.3302
  197MOL0     C27116   9.028   3.457   2.672  0.1372  0.2192 -0.0488
  197MOL0     H27117   9.262   3.459   2.954 -3.2059  0.6918 -1.1275
  197MOL0     H27118   9.438   3.465   3.133  0.9676  1.7413  4.1408
  197MOL0     H27119   9.658   3.557   3.076 -5.3872  0.7096 -0.6631
  197MOL0     H27120   9.735   3.572   3.221  2.1982 -3.5249 -3.7844
  197MOL0     H27121   9.749   3.760   2.997  1.2736  0.9458  0.4106
  197MOL0     H27122   9.741   3.825   3.164 -2.7486 -1.7478  1.1833
  197MOL0     H27123   9.931   3.715   3.222  0.7792 -1.1154 -0.2308
  197MOL0     H27124   9.931   3.600   3.098 -2.9699 -0.5952  1.7889
  197MOL0     H27125   9.965   3.736   2.913 -1.0764  1.6622 -1.5842
  197MOL0     H27126   9.990   3.881   3.010  0.1177 -0.0265  1.8880
  197MOL0     H27127  10.202   3.796   2.947 -1.4613 -0.0919  0.4625
  197MOL0     H27128  10.186   3.629   3.009 -0.4937 -1.2973  1.6051
  197MOL0     H27129  10.188   3.878   3.170 -1.4144 -0.4725 -1.8368
  197MOL0     H27130  10.165   3.722   3.252  0.4827  1.0688  1.4557
  197MOL0     H27131  10.409   3.768   3.070 -2.3414  2.4956  1.4287
  197MOL0     H27132  10.380   3.632   3.188 -0.2840 -1.0583  1.3178
  197MOL0     H27133  10.546   3.832   3.228 -0.0268 -2.5821 -1.6850
  197MOL0     H27134  10.402   3.933   3.261  0.0116  0.3914  3.1400
  197MOL0     H27135  10.528   3.987   3.482  1.9461 -0.6645  0.8227
  197MOL0     H27136  10.542   3.968   3.761 -2.7294  1.8545 -0.3471
  197MOL0     H27137  10.548   3.803   3.821 -0.6971 -0.2407 -0.8290
  197MOL0     H27138  10.276   3.943   3.789  0.0826  1.4441  1.5048
  197MOL0     H27139  10.332   3.790   3.857  5.5601 -2.0139 -0.0586
  197MOL0     H27140  10.466   3.942   4.024  1.0265  1.5446 -3.1554
  197MOL0     H27141  10.398   4.081   3.953  2.1683  0.1925  1.2117
  197MOL0     H27142  10.233   3.867   4.102 -2.6305 -0.1295  0.7322
  197MOL0     H27143  10.292   4.027   4.156  3.4303  0.9490 -0.9266
  197MOL0     H27144   9.882   4.149   3.968 -1.2589 -0.6076  1.9984
  197MOL0     H27145   9.628   4.086   3.811 -2.4463 -0.3490  0.1929
  197MOL0     H27146   9.676   4.145   3.978 -2.2133  1.0378 -0.8544
  197MOL0     H27147   9.581   4.007   3.965  0.7531  0.2095 -0.1810
  197MOL0     H27148   9.623   3.392   3.900 -2.4233 -1.5205  0.2539
  197MOL0     H27149   9.506   3.227   3.748 -1.7779  0.7022 -1.1178
  197MOL0     H27150   9.427   3.089   3.608  2.5767  0.2928 -2.1654
  197MOL0     H27151   9.267   3.146   3.544 -0.0753 -1.8037 -2.5447
  197MOL0     H27152   9.369   3.098   3.317 -0.8606  0.7252  0.8604
  197MOL0     H27153   9.499   3.031   3.409  0.4918  2.6652  5.9650
  197MOL0     H27154   9.331   2.873   3.510 -0.6089  2.2238  1.8412
  197MOL0     H27155   9.331   2.859   3.336 -1.9591  1.9768 -2.7622
  197MOL0     H27156   9.144   3.031   3.320 -1.4472 -0.7376 -1.0088
  197MOL0     H27157   9.117   3.015   3.489  2.1922  1.1351 -1.2847
  197MOL0     H27158   9.135   2.771   3.329  1.0304 -0.1068  1.5290
  197MOL0     H27159   9.070   2.780   3.487 -0.7546 -3.1279 -0.0810
  197MOL0     H27160   8.904   2.927   3.268 -2.4473 -1.2093 -0.8889
  197MOL0     H27161   8.880   2.894   3.439 -2.3397 -3.0326  1.1762
  197MOL0     H27162   8.925   2.635   3.363  0.9446  1.5090  0.8134
  197MOL0     H27163   8.896   2.703   3.206  0.4070  0.3799  0.1281
  197MOL0     H27164   8.676   2.791   3.296 -1.6644 -1.7403 -1.6045
  197MOL0     H27165   8.705   2.693   3.444  3.4016 -3.1826  0.4118
  197MOL0     H27166   9.472   3.510   3.435  2.3595 -2.0280 -0.0460
  197MOL0     H27167   9.602   3.679   3.582  1.8079  0.1092  0.6153
  197MOL0     H27168   9.939   3.666   3.886 -2.2332 -0.3060 -1.1862
  197MOL0     H27169  10.119   3.790   3.932 -1.1549 -2.1957  1.2888
  197MOL0     H27170   9.382   3.875   3.194  0.8049 -1.0205  0.9486
  197MOL0     H27171   9.200   3.890   3.005  0.8794 -0.6794 -3.9947
  197MOL0     H27172   8.748   3.807   2.845 -0.4433  1.4579 -0.8711
  197MOL0     H27173   8.594   3.782   2.653 -0.6755  0.0495 -1.2174
  197MOL0     H27174   8.585   3.465   2.540  0.5814 -0.2348 -0.6774
  197MOL0     H27175   8.452   3.575   2.548 -0.8467 -1.2731 -1.7222
  197MOL0     H27176   8.545   3.451   2.289  0.5759  0.6895  0.1027
  197MOL0     H27177   8.409   3.553   2.316 -0.9509 -0.1588  1.0250
  197MOL0     H27178   8.447   3.267   2.439 -2.7933 -0.9954  1.1175
  197MOL0     H27179   8.315   3.367   2.480 -1.9294 -4.1390 -0.0307
  197MOL0     H27180   8.255   3.370   2.235 -1.2680  0.1994 -0.4067
  197MOL0     H27181   8.249   3.220   2.316 -0.0761  0.9451 -0.5256
  197MOL0     H27182   8.527   3.059   2.082  0.6528 -0.8793  2.2910
  197MOL0     H27183   8.831   3.500   2.482  0.2720  0.9692 -0.6626
  197MOL0     H27184   9.007   3.380   2.747 -0.8701 -0.5617 -1.0924
  197MOL0     H27185   9.034   3.413   2.571 -1.1478 -2.1836  0.8297
  197MOL0     H27186   9.127   3.499   2.693  0.3773  0.0244 -0.7671
  198MOL0     O27187   7.648   2.991   5.552 -0.6086 -0.0205 -0.3912
  198MOL0     C27188   7.589   3.040   5.649  0.7623 -0.0313 -0.0432
  198MOL0     O27189   7.479   2.988   5.705  0.2869  0.6055  0.3802
  198MOL0     C27190   7.411   2.891   5.643 -0.4786  0.8578 -0.6793
  198MOL0     C27191   7.362   2.899   5.516  0.0318 -0.1421 -0.0809
  198MOL0     C27192   7.288   2.798   5.445 -0.0350 -0.3536 -0.7337
  198MOL0     C27193   7.255   2.677   5.527  0.3397  0.2598  0.5841
  198MOL0     O27194   7.166   2.584   5.491 -0.0931 -0.3427 -0.1832
  198MOL0     C27195   7.141   2.579   5.346  0.3152  0.0351  0.1928
  198MOL0     C27196   7.010   2.509   5.314  0.2405  0.5031  1.1725
  198MOL0     C27197   7.035   2.355   5.304  0.3163  0.1837  0.3968
  198MOL0     C27198   6.908   2.300   5.234  0.0621  0.1484  0.0577
  198MOL0     C27199   6.934   2.160   5.167 -0.1279  0.5212 -0.4094
  198MOL0     C27200   6.807   2.086   5.141  0.5112 -0.2392  0.3909
  198MOL0     C27201   6.839   1.979   5.037  0.2417  0.2112 -0.3154
  198MOL0     C27202   6.699   1.927   4.991 -0.1101  0.4148 -0.2427
  198MOL0     N27203   6.700   1.821   4.886 -0.6301 -0.2482  0.7781
  198MOL0     C27204   6.807   1.733   4.857 -0.1855  1.0771  0.4012
  198MOL0     C27205   6.774   1.678   4.741 -0.2199 -0.0387  0.0701
  198MOL0     C27206   6.839   1.558   4.666  0.0909  0.2710  0.0053
  198MOL0     C27207   6.769   1.513   4.542 -0.1126  1.2512  0.8031
  198MOL0     C27208   6.639   1.431   4.578  0.1490 -0.7143 -0.2387
  198MOL0     C27209   6.530   1.442   4.467 -0.0492 -0.5786  0.0843
  198MOL0     O27210   6.415   1.362   4.515 -0.2282 -0.0631 -0.1565
  198MOL0     C27211   6.307   1.418   4.583  0.4484 -0.1451  0.1652
  198MOL0     C27212   6.294   1.562   4.605 -0.3093  0.6668  1.6026
  198MOL0     C27213   6.199   1.628   4.672  0.0625 -0.9803  0.0744
  198MOL0     C27214   6.175   1.772   4.646  0.7171 -0.6794 -0.3723
  198MOL0     C27215   6.093   1.558   4.736  0.2166  0.2274  0.1927
  198MOL0     C27216   5.980   1.620   4.795  0.5057 -0.5213  0.4193
  198MOL0     O27217   5.977   1.631   4.934 -0.8795  0.1617  0.0550
  198MOL0     C27218   5.860   1.656   4.997  0.7500 -0.0048 -0.1969
  198MOL0     C27219   5.820   1.569   5.100 -0.0234 -0.4245  0.0885
  198MOL0     C27220   5.688   1.583   5.155 -0.5176 -0.2376 -1.0875
  198MOL0     C27221   5.604   1.692   5.110  0.2231  1.1029  0.0801
  198MOL0     O27222   5.488   1.724   5.165  0.7687 -1.1908 -1.2075
  198MOL0     C27223   5.438   1.669   5.291  0.1524  0.2273 -0.6414
  198MOL0     C27224   5.297   1.711   5.311 -0.5336  0.3187 -0.4032
  198MOL0     C27225   5.294   1.864   5.309  0.1471 -1.1285 -0.0190
  198MOL0     C27226   5.158   1.906   5.283  0.0891 -0.1034  0.2276
  198MOL0     C27227   5.147   2.052   5.336 -0.6126  0.8779 -0.2317
  198MOL0     C27228   5.032   2.129   5.286  1.0424  0.1803  0.7741
  198MOL0     C27229   4.999   2.255   5.366  0.6852  0.4623  0.2065
  198MOL0     C27230   4.933   2.364   5.289  0.2714  0.4850  0.4786
  198MOL0    Cl27231   4.766   2.310   5.268  0.0735 -0.3617 -0.0384
  198MOL0     C27232   5.650   1.779   5.011 -0.5364 -0.5297  0.8180
  198MOL0     C27233   5.782   1.762   4.957 -0.6904 -0.0182  0.1110
  198MOL0     O27234   5.884   1.648   4.721 -0.2023 -0.8492 -0.0175
  198MOL0     C27235   6.089   1.411   4.719 -0.5370  0.0399 -0.3862
  198MOL0     C27236   6.198   1.353   4.642 -0.2830  0.6671  0.1520
  198MOL0     N27237   6.660   1.734   4.695  0.4075  0.3749  0.1888
  198MOL0     N27238   6.617   1.820   4.779 -0.7681  0.0602  0.1368
  198MOL0     C27239   7.301   2.669   5.657  0.6526  0.2289  0.6626
  198MOL0     C27240   7.378   2.773   5.711  0.0438  0.9375  0.1062
  198MOL0     C27241   7.630   3.176   5.705  0.0033  0.2850  0.4164
  198MOL0     C27242   7.543   3.227   5.805 -0.5196  0.4182  0.8220
  198MOL0     C27243   7.578   3.343   5.875  0.4176  0.5160  0.2275
  198MOL0     C27244   7.698   3.405   5.855 -0.5844 -0.5782 -0.5894
  198MOL0     O27245   7.720   3.514   5.942  0.4372 -0.1162  0.1768
  198MOL0     C27246   7.841   3.590   5.935  0.0825 -0.2935 -0.1612
  198MOL0     C27247   7.936   3.525   6.037  0.6563  0.4606  1.1684
  198MOL0     C27248   7.881   3.552   6.174  0.7200 -0.5074  0.3115
  198MOL0     C27249   7.992   3.514   6.281 -0.5476 -0.0974  0.3858
  198MOL0     C27250   8.062   3.644   6.309  0.7668 -0.1064  0.2147
  198MOL0     C27251   8.115   3.757   6.310 -1.1013 -0.3504 -0.0441
  198MOL0     C27252   7.790   3.353   5.762 -0.2819  0.5562 -0.2213
  198MOL0     C27253   7.752   3.242   5.681  0.4659 -0.5402 -1.3708
  198MOL0     C27254   7.866   3.187   5.598  0.1774 -0.5310 -0.1075
  198MOL0     H27255   7.373   2.994   5.466  0.2906 -1.0781 -1.8737
  198MOL0     H27256   7.248   2.821   5.347 -0.4805 -0.3152 -0.5487
  198MOL0     H27257   7.221   2.522   5.299 -0.6706 -0.5190 -0.8592
  198MOL0     H27258   7.136   2.675   5.293  2.3208 -0.2092 -0.5332
  198MOL0     H27259   6.947   2.533   5.401  0.6856  2.7075  0.9235
  198MOL0     H27260   6.963   2.556   5.227 -2.9947 -1.4410  1.7002
  198MOL0     H27261   7.118   2.325   5.240 -0.1464  0.8251 -0.5157
  198MOL0     H27262   7.047   2.305   5.401  1.0293 -1.2725 -0.4151
  198MOL0     H27263   6.831   2.288   5.311  0.3640 -0.5254  0.2608
  198MOL0     H27264   6.868   2.353   5.147 -2.3405 -0.9038  0.4203
  198MOL0     H27265   6.997   2.099   5.232 -0.6392  0.8854  0.4520
  198MOL0     H27266   6.986   2.173   5.072  0.8651 -4.0873 -0.7360
  198MOL0     H27267   6.765   2.045   5.233  1.4196 -2.6073 -0.1646
  198MOL0     H27268   6.736   2.152   5.090  0.3417 -1.2383 -0.7226
  198MOL0     H27269   6.894   1.895   5.080  1.5935  1.0968 -0.2662
  198MOL0     H27270   6.898   2.015   4.952 -2.7087 -1.2353 -3.1925
  198MOL0     H27271   6.656   1.880   5.080  4.6646 -0.6614  1.8067
  198MOL0     H27272   6.635   2.013   4.971  0.7506  1.1124 -0.0608
  198MOL0     H27273   6.894   1.710   4.918 -1.1975  0.9173  1.8257
  198MOL0     H27274   6.851   1.468   4.726 -1.7635 -0.7182 -1.0161
  198MOL0     H27275   6.942   1.589   4.649 -0.1680  0.9577 -0.3701
  198MOL0     H27276   6.745   1.596   4.474  2.0675  1.6929  0.5075
  198MOL0     H27277   6.831   1.443   4.485 -1.7011 -1.1624  1.8658
  198MOL0     H27278   6.672   1.327   4.580 -0.6047 -0.9899 -1.3496
  198MOL0     H27279   6.604   1.450   4.680  0.1068 -0.2497 -0.3375
  198MOL0     H27280   6.511   1.545   4.435  0.9547 -0.2306  0.5609
  198MOL0     H27281   6.580   1.401   4.379  1.7354  0.2536  0.6630
  198MOL0     H27282   6.371   1.620   4.554 -0.5984 -1.0318 -0.9317
  198MOL0     H27283   6.083   1.785   4.588 -0.5849  1.3550  1.9572
  198MOL0     H27284   6.267   1.813   4.603  0.6745 -1.1204 -0.8919
  198MOL0     H27285   6.165   1.824   4.742 -1.1514  1.6878 -1.7532
  198MOL0     H27286   5.892   1.499   5.141 -0.3748 -0.9747 -0.2349
  198MOL0     H27287   5.653   1.526   5.240 -0.9109  1.7264  0.1516
  198MOL0     H27288   5.453   1.561   5.300 -1.7908 -0.0685 -0.4883
  198MOL0     H27289   5.490   1.722   5.372 -0.6326  1.1496 -0.7268
  198MOL0     H27290   5.232   1.686   5.226 -2.0561  0.4019  0.6952
  198MOL0     H27291   5.257   1.658   5.398  1.5480 -1.2100 -0.3085
  198MOL0     H27292   5.362   1.914   5.240  0.1121 -0.8141  0.1705
  198MOL0     H27293   5.327   1.909   5.403  2.1016 -0.9392 -0.7616
  198MOL0     H27294   5.101   1.844   5.352  3.8244 -0.4588  3.3309
  198MOL0     H27295   5.133   1.900   5.176 -2.9267  3.1428  0.5812
  198MOL0     H27296   5.137   2.036   5.444 -0.8406  1.4792 -0.1606
  198MOL0     H27297   5.237   2.112   5.322 -0.9568  1.4398 -0.0801
  198MOL0     H27298   4.946   2.066   5.309  1.9914 -0.5595  2.4223
  198MOL0     H27299   5.035   2.146   5.178  1.6760  1.7644  1.0209
  198MOL0     H27300   5.089   2.289   5.419  2.3672  0.2654 -2.3276
  198MOL0     H27301   4.932   2.229   5.449  0.9823  0.5232  0.4677
  198MOL0     H27302   4.992   2.382   5.199  1.1287  1.3780  1.1890
  198MOL0     H27303   4.938   2.443   5.365 -4.2218 -0.6109  2.2764
  198MOL0     H27304   5.581   1.849   4.965 -1.3873 -1.4468  0.6572
  198MOL0     H27305   5.820   1.818   4.872 -0.1312 -1.5136 -0.6605
  198MOL0     H27306   5.998   1.357   4.746 -1.6891 -0.2825 -4.2960
  198MOL0     H27307   6.182   1.251   4.609  0.7239  0.9238 -1.2411
  198MOL0     H27308   7.287   2.568   5.696 -2.3577 -1.3348 -3.6926
  198MOL0     H27309   7.411   2.756   5.813 -1.3764 -1.2582  0.2800
  198MOL0     H27310   7.441   3.192   5.812 -0.6137  0.4151 -0.3954
  198MOL0     H27311   7.513   3.390   5.948  1.4768 -4.2390  4.7885
  198MOL0     H27312   7.888   3.597   5.836 -1.2425  2.2710 -0.6996
  198MOL0     H27313   7.815   3.689   5.973 -0.4830 -1.6336  3.2557
  198MOL0     H27314   8.032   3.573   6.015 -2.2191  5.3780 -2.8938
  198MOL0     H27315   7.940   3.418   6.012 -0.3150  0.8616 -0.9364
  198MOL0     H27316   7.862   3.660   6.170  2.7454 -0.1413 -1.2087
  198MOL0     H27317   7.783   3.505   6.177 -0.6116  1.9022 -1.7476
  198MOL0     H27318   8.056   3.439   6.233  0.3968  0.2959  1.0204
  198MOL0     H27319   7.954   3.478   6.377  1.4082 -1.4756  0.7126
  198MOL0     H27320   8.166   3.850   6.321 -0.3292 -1.0022  2.6701
  198MOL0     H27321   7.887   3.399   5.747 -0.1879  0.0656 -1.1989
  198MOL0     H27322   7.921   3.105   5.644 -1.6289 -1.1781  1.0080
  198MOL0     H27323   7.824   3.162   5.500 -0.0469 -4.2683  0.7734
  198MOL0     H27324   7.942   3.264   5.588 -0.0928 -0.3104 -0.4681
  199MOL0     O27325   6.627   8.100  10.353  0.5117  0.2820 -0.8974
  199MOL0     C27326   6.722   8.066  10.427 -0.5319 -0.1886  0.5771
  199MOL0     O27327   6.818   7.977  10.382 -0.7313 -0.2882  0.0131
  199MOL0     C27328   6.803   7.930  10.254  0.1210 -0.3113 -0.3080
  199MOL0     C27329   6.839   8.013  10.141 -0.2580  0.1367  0.0149
  199MOL0     C27330   6.817   7.962  10.014 -0.7340 -0.2938  0.0191
  199MOL0     C27331   6.763   7.837   9.986 -0.7437  0.5503 -0.3413
  199MOL0     O27332   6.763   7.805   9.850  0.2584  0.0186  0.1323
  199MOL0     C27333   6.689   7.693   9.804 -0.3534  0.0451 -0.7890
  199MOL0     C27334   6.728   7.654   9.668 -0.6407  0.1181 -0.3261
  199MOL0     C27335   6.877   7.634   9.656  0.2566 -0.7914 -0.3917
  199MOL0     C27336   6.927   7.651   9.508 -0.7292 -0.0554 -0.7650
  199MOL0     C27337   6.937   7.790   9.469  0.0919  0.0505 -0.5137
  199MOL0     C27338   6.978   7.815   9.320  0.0867  0.4254 -0.7192
  199MOL0     C27339   7.128   7.810   9.291  0.2611 -0.7671 -0.2988
  199MOL0     C27340   7.151   7.769   9.143  0.2749 -0.7679 -0.0369
  199MOL0     N27341   7.178   7.631   9.124 -0.0608 -0.5106  0.0882
  199MOL0     C27342   7.106   7.523   9.173 -0.2395  0.1065 -0.6442
  199MOL0     C27343   7.187   7.419   9.150  0.3756  0.1789 -0.2053
  199MOL0     C27344   7.155   7.274   9.178  0.1470  0.2976  0.3177
  199MOL0     C27345   7.051   7.224   9.077 -0.6990  1.2744  0.0344
  199MOL0     C27346   7.014   7.085   9.095  1.2282  0.8040 -0.3794
  199MOL0     C27347   6.924   7.064   9.215  0.0421 -0.5441  0.0814
  199MOL0     O27348   6.827   7.167   9.242  0.0058 -0.7913  0.0017
  199MOL0     C27349   6.707   7.160   9.160 -0.0118 -0.2497  0.0603
  199MOL0     C27350   6.646   7.054   9.092  0.6454  0.3546  0.1246
  199MOL0     C27351   6.529   7.072   9.010  0.6936 -0.7826  0.2129
  199MOL0     C27352   6.485   6.942   8.943  0.3664  0.0433 -0.0611
  199MOL0     C27353   6.462   7.195   9.009  0.9558 -0.4617 -0.5191
  199MOL0     C27354   6.332   7.237   8.939 -0.1857 -0.3505  0.0607
  199MOL0     O27355   6.300   7.369   8.938  0.1601 -1.1985 -0.3912
  199MOL0     C27356   6.250   7.413   8.819  0.3043  0.0282 -0.4119
  199MOL0     C27357   6.109   7.455   8.819 -0.3748 -0.7067  0.8418
  199MOL0     C27358   6.051   7.521   8.700  0.1110  0.1370 -1.5228
  199MOL0     C27359   6.126   7.547   8.596 -0.0361 -0.0099  0.4709
  199MOL0     O27360   6.089   7.607   8.475  0.3681 -0.1744 -0.1803
  199MOL0     C27361   5.947   7.613   8.448 -0.3127  0.2520  0.2398
  199MOL0     C27362   5.923   7.767   8.462  0.1458 -0.3308  0.8111
  199MOL0     C27363   5.856   7.799   8.603  0.9541  0.4184 -0.0946
  199MOL0     C27364   5.826   7.945   8.627  0.7528  0.2783 -0.1744
  199MOL0     C27365   5.756   7.973   8.763  0.3131 -0.1581  0.2602
  199MOL0     C27366   5.621   7.911   8.776 -0.2696  0.1259 -0.2013
  199MOL0     C27367   5.570   7.914   8.923  1.2451 -0.8210 -0.2182
  199MOL0     C27368   5.423   7.859   8.933  0.2603  0.1780 -0.2001
  199MOL0    Cl27369   5.413   7.695   8.860  0.0200  0.4624 -0.4092
  199MOL0     C27370   6.260   7.508   8.597  0.2448  0.6114 -1.0830
  199MOL0     C27371   6.325   7.439   8.699 -0.3062  0.0792 -0.2147
  199MOL0     O27372   6.277   7.145   8.876 -0.5311  0.1058 -1.0665
  199MOL0     C27373   6.521   7.299   9.088 -0.2139  0.7280  0.2804
  199MOL0     C27374   6.634   7.280   9.156 -0.3552  0.1338  0.2001
  199MOL0     N27375   7.301   7.463   9.089 -0.8760  1.0756 -1.0650
  199MOL0     N27376   7.299   7.593   9.079  0.6165  0.4404 -0.1990
  199MOL0     C27377   6.747   7.748  10.091  0.2293 -0.0714  0.0783
  199MOL0     C27378   6.765   7.797  10.227 -0.2593 -0.4945 -0.1039
  199MOL0     C27379   6.726   8.113  10.565  0.3115  0.2252  0.0798
  199MOL0     C27380   6.769   8.025  10.670  0.1785 -0.5090  0.6936
  199MOL0     C27381   6.756   8.051  10.805  1.4104 -0.6089 -0.2166
  199MOL0     C27382   6.734   8.188  10.838  0.5895  0.3614  0.5641
  199MOL0     O27383   6.735   8.237  10.965  0.1506  0.4313 -0.1450
  199MOL0     C27384   6.751   8.151  11.081  0.0007 -0.1431  0.1917
  199MOL0     C27385   6.749   8.240  11.210 -0.0182 -0.6943 -0.1801
  199MOL0     C27386   6.819   8.372  11.202  0.8298 -0.0505  0.2242
  199MOL0     C27387   6.965   8.355  11.188 -0.5099 -1.0551  0.7744
  199MOL0     C27388   7.021   8.276  11.308 -0.2649  0.1738 -0.6445
  199MOL0     C27389   7.061   8.201  11.391  1.0894 -0.4206  0.1670
  199MOL0     C27390   6.714   8.280  10.734 -0.6411 -1.1985 -0.2003
  199MOL0     C27391   6.711   8.245  10.603 -0.5644 -0.8457  0.6526
  199MOL0     C27392   6.720   8.361  10.508  0.2859  0.5009 -0.5147
  199MOL0     H27393   6.872   8.115  10.160 -2.5046  0.8830  0.1055
  199MOL0     H27394   6.852   8.023   9.931 -1.2412 -0.7752 -0.5523
  199MOL0     H27395   6.583   7.717   9.805  0.2883  3.5930 -2.9475
  199MOL0     H27396   6.726   7.606   9.860  0.8030  1.0850  0.1193
  199MOL0     H27397   6.703   7.559   9.620  2.3749 -1.0509  0.1858
  199MOL0     H27398   6.705   7.739   9.603  5.2330  3.4482  1.2369
  199MOL0     H27399   6.936   7.703   9.717 -2.0626 -0.3782  1.4979
  199MOL0     H27400   6.895   7.535   9.699  0.4213 -0.5444  0.1163
  199MOL0     H27401   7.015   7.587   9.507 -2.4512 -2.6733  1.1155
  199MOL0     H27402   6.852   7.604   9.443 -3.1651  0.8152  1.2451
  199MOL0     H27403   7.006   7.837   9.541 -1.2451 -1.1858  1.6996
  199MOL0     H27404   6.839   7.837   9.480 -0.0274 -0.0332 -1.2155
  199MOL0     H27405   6.933   7.738   9.257 -0.3584  0.8547 -0.9294
  199MOL0     H27406   6.953   7.917   9.288  0.9785  0.7539 -0.4124
  199MOL0     H27407   7.157   7.734   9.364  1.0722 -1.6487 -1.4953
  199MOL0     H27408   7.172   7.906   9.320  2.5960 -0.7584 -3.3421
  199MOL0     H27409   7.069   7.808   9.082 -2.2884  0.9529  4.0448
  199MOL0     H27410   7.242   7.821   9.111 -1.7220  1.5544 -2.4982
  199MOL0     H27411   7.004   7.525   9.210  0.3955 -0.9495  1.2648
  199MOL0     H27412   7.123   7.268   9.282 -2.4297 -0.4382 -0.4297
  199MOL0     H27413   7.246   7.217   9.161 -1.4404 -2.8162  1.5456
  199MOL0     H27414   6.955   7.277   9.077 -0.7641  1.2393  2.3433
  199MOL0     H27415   7.095   7.237   8.977  0.4604  2.5514  0.6752
  199MOL0     H27416   6.948   7.061   9.011 -0.5956  0.1601  1.1894
  199MOL0     H27417   7.101   7.018   9.098  0.6981  0.1275  1.2556
  199MOL0     H27418   6.879   6.965   9.216  0.9480 -0.9710 -0.0959
  199MOL0     H27419   6.982   7.068   9.307 -1.1232  0.0536  0.8157
  199MOL0     H27420   6.706   6.964   9.088  0.2407 -0.1283  2.9179
  199MOL0     H27421   6.501   6.935   8.835 -4.1790 -1.5465 -0.8687
  199MOL0     H27422   6.377   6.923   8.949  0.6730 -1.5819  0.9650
  199MOL0     H27423   6.529   6.859   8.999 -0.9890 -0.7336 -0.1035
  199MOL0     H27424   6.056   7.434   8.911 -0.5426 -1.5525  0.5557
  199MOL0     H27425   5.947   7.545   8.719 -0.4094 -3.9865  2.5628
  199MOL0     H27426   5.938   7.574   8.346  0.5449  2.3815 -0.7040
  199MOL0     H27427   5.876   7.559   8.512 -2.5891  2.3075 -0.3801
  199MOL0     H27428   6.014   7.825   8.446  0.2203 -0.6599 -0.0057
  199MOL0     H27429   5.852   7.806   8.389 -1.5624 -1.8099  1.6102
  199MOL0     H27430   5.928   7.771   8.681  2.2883 -0.6792 -1.6501
  199MOL0     H27431   5.767   7.735   8.607 -0.1660  1.9046 -0.4809
  199MOL0     H27432   5.775   7.997   8.546  3.3822 -0.6793 -2.6275
  199MOL0     H27433   5.925   7.992   8.637  0.6039  0.3230  1.3196
  199MOL0     H27434   5.817   7.928   8.842  0.0590 -2.6876 -0.8950
  199MOL0     H27435   5.739   8.080   8.778  3.0218  1.0113 -3.3895
  199MOL0     H27436   5.626   7.804   8.755  3.5726 -0.1724  1.3062
  199MOL0     H27437   5.546   7.952   8.708 -2.1210 -0.9762  1.0982
  199MOL0     H27438   5.565   8.019   8.952 -0.2742 -1.2651  1.2559
  199MOL0     H27439   5.626   7.866   9.003 -0.7692 -0.2601  1.6156
  199MOL0     H27440   5.346   7.930   8.901  0.2821  0.1171 -0.3901
  199MOL0     H27441   5.407   7.833   9.039  0.9690 -0.8719 -0.3409
  199MOL0     H27442   6.314   7.522   8.504 -0.1729 -1.3337 -1.6649
  199MOL0     H27443   6.429   7.408   8.690 -0.3369 -1.6505  3.5489
  199MOL0     H27444   6.480   7.400   9.089 -1.2352  0.4320 -2.7399
  199MOL0     H27445   6.679   7.366   9.206  2.6963 -0.5763 -1.0607
  199MOL0     H27446   6.716   7.644  10.080  1.9170 -0.9390  2.6338
  199MOL0     H27447   6.760   7.725  10.308  4.2474 -0.3444  0.5340
  199MOL0     H27448   6.801   7.925  10.643 -0.6080 -1.1219  1.9012
  199MOL0     H27449   6.772   7.973  10.879 -0.5039  2.3783  3.7674
  199MOL0     H27450   6.678   8.069  11.086  2.6787 -2.6721  0.6251
  199MOL0     H27451   6.849   8.106  11.060 -0.0976  0.3062 -1.3555
  199MOL0     H27452   6.775   8.179  11.298 -1.1663  1.0947  1.4933
  199MOL0     H27453   6.645   8.266  11.228  0.5908  0.2937  2.3576
  199MOL0     H27454   6.781   8.433  11.119  0.7380  1.8750  1.6100
  199MOL0     H27455   6.792   8.433  11.289  1.4437  0.5173  0.0280
  199MOL0     H27456   7.010   8.454  11.181 -0.5667 -1.1538 -2.1095
  199MOL0     H27457   6.991   8.304  11.095  0.0678  1.0789 -0.3024
  199MOL0     H27458   7.070   8.119  11.459 -3.0474 -4.4779 -3.4379
  199MOL0     H27459   6.697   8.383  10.765  1.2498 -1.2077  1.0819
  199MOL0     H27460   6.631   8.369  10.446 -0.3098  2.9148  0.5385
  199MOL0     H27461   6.747   8.459  10.550 -1.9377  2.3397 -3.0438
  199MOL0     H27462   6.803   8.331  10.443  2.7872  3.8396  0.8261
  200MOL0     O27463   7.042   6.066   6.479 -0.1760  0.1747 -0.1436
  200MOL0     C27464   7.154   6.113   6.456 -0.1413 -1.0234  0.7717
  200MOL0     O27465   7.179   6.248   6.431 -0.3648 -0.2905 -0.3954
  200MOL0     C27466   7.081   6.350   6.464  0.5143  0.2016 -0.2486
  200MOL0     C27467   7.013   6.363   6.591 -0.3663 -0.1472  0.0999
  200MOL0     C27468   6.918   6.460   6.609 -0.0750 -0.5591  0.2896
  200MOL0     C27469   6.881   6.535   6.513 -0.1926  0.6784 -0.2676
  200MOL0     O27470   6.777   6.630   6.547 -0.4246  0.5550 -0.3375
  200MOL0     C27471   6.700   6.687   6.447 -0.6231 -0.4169 -0.0211
  200MOL0     C27472   6.561   6.615   6.420 -0.1970  0.6720 -0.1826
  200MOL0     C27473   6.584   6.458   6.403  0.1037 -0.1310  0.7444
  200MOL0     C27474   6.440   6.394   6.366  0.6300  0.0773  0.6020
  200MOL0     C27475   6.330   6.397   6.475 -0.2325 -0.2284  0.1061
  200MOL0     C27476   6.222   6.291   6.466 -0.2525  0.3523 -0.4237
  200MOL0     C27477   6.136   6.304   6.594 -0.8477  0.5376  0.1866
  200MOL0     C27478   6.002   6.380   6.566 -0.3102 -0.5042 -0.5833
  200MOL0     N27479   6.019   6.520   6.556 -0.3715 -1.1447  0.3277
  200MOL0     C27480   6.060   6.610   6.654  1.1487 -0.2036 -0.1764
  200MOL0     C27481   6.010   6.730   6.604 -0.6509 -0.7513  0.7567
  200MOL0     C27482   6.048   6.864   6.672  0.7880  0.3698  0.0584
  200MOL0     C27483   6.202   6.879   6.677 -0.7253 -0.4581 -0.2968
  200MOL0     C27484   6.262   6.945   6.559  0.0533 -0.2935 -0.3805
  200MOL0     C27485   6.242   6.876   6.426  0.9879  0.5604 -0.6063
  200MOL0     O27486   6.327   6.941   6.334  0.7474  0.5326 -0.2892
  200MOL0     C27487   6.361   6.881   6.216 -0.1648  1.0512  0.6388
  200MOL0     C27488   6.474   6.910   6.141 -0.6162  0.9032  0.9350
  200MOL0     C27489   6.520   6.830   6.036 -0.7961  0.7089  0.7131
  200MOL0     C27490   6.646   6.859   5.964 -1.3148  0.0992  0.4021
  200MOL0     C27491   6.431   6.728   5.993  0.4250 -0.6692  0.0994
  200MOL0     C27492   6.468   6.612   5.911  0.1362 -0.2666  0.1173
  200MOL0     O27493   6.407   6.492   5.942 -0.0268 -0.7509  0.1242
  200MOL0     C27494   6.446   6.381   5.887 -0.8243  0.3825  1.0091
  200MOL0     C27495   6.386   6.345   5.766 -0.2431 -0.7461  0.5968
  200MOL0     C27496   6.413   6.213   5.713  0.2929 -0.1263  0.5618
  200MOL0     C27497   6.503   6.129   5.773 -0.7822  0.2448  0.0412
  200MOL0     O27498   6.541   6.000   5.725 -0.3446  0.4791  0.3660
  200MOL0     C27499   6.465   5.943   5.619 -0.0745  0.0751  0.2722
  200MOL0     C27500   6.540   5.807   5.599  0.1874 -0.5248  0.1222
  200MOL0     C27501   6.466   5.699   5.672 -0.3544 -0.0036 -0.3732
  200MOL0     C27502   6.328   5.655   5.612 -0.2692 -0.2257 -0.0320
  200MOL0     C27503   6.281   5.521   5.668 -0.6747  0.2209  0.2835
  200MOL0     C27504   6.157   5.466   5.610  0.6630 -0.5333  0.5697
  200MOL0     C27505   6.169   5.344   5.514  0.9373 -1.1421 -0.7980
  200MOL0     C27506   6.025   5.280   5.497  0.3185 -0.6613  0.1449
  200MOL0    Cl27507   6.058   5.150   5.385 -0.0439  0.1755 -0.2504
  200MOL0     C27508   6.555   6.165   5.899  0.3160 -0.3016 -0.0595
  200MOL0     C27509   6.528   6.290   5.950  0.7473 -0.5340 -0.6572
  200MOL0     O27510   6.541   6.631   5.810  0.9652 -0.3286 -0.0751
  200MOL0     C27511   6.302   6.710   6.055  0.1791 -0.5541 -0.1236
  200MOL0     C27512   6.274   6.785   6.164 -0.4133 -0.0861  0.0378
  200MOL0     N27513   5.960   6.722   6.472  0.0754  0.5654 -0.3653
  200MOL0     N27514   5.970   6.591   6.450  0.0244 -0.2895  0.3288
  200MOL0     C27515   6.955   6.528   6.394  0.5736  0.0440  0.4476
  200MOL0     C27516   7.050   6.436   6.363 -1.2620 -1.4043  0.4717
  200MOL0     C27517   7.259   6.016   6.439  0.2876  0.9951  0.0016
  200MOL0     C27518   7.226   5.886   6.388 -0.1414 -0.2127 -0.4181
  200MOL0     C27519   7.326   5.792   6.383 -0.6944  0.1025  0.5439
  200MOL0     C27520   7.468   5.815   6.404 -0.4509  0.8318  0.7451
  200MOL0     O27521   7.574   5.721   6.386 -0.3753 -0.3967 -0.7173
  200MOL0     C27522   7.556   5.591   6.334  0.0300 -0.1856  0.6679
  200MOL0     C27523   7.699   5.543   6.299 -0.0863  0.0297 -0.6516
  200MOL0     C27524   7.772   5.621   6.191  0.0064  0.6783 -1.1242
  200MOL0     C27525   7.728   5.609   6.049  0.3052  0.3054 -0.5224
  200MOL0     C27526   7.808   5.683   5.953 -0.6686 -0.6413  0.9607
  200MOL0     C27527   7.892   5.732   5.875  0.5922  0.1129 -0.4390
  200MOL0     C27528   7.492   5.949   6.425 -0.7239 -0.1743 -0.3141
  200MOL0     C27529   7.398   6.055   6.452  0.6791 -0.0167 -0.2638
  200MOL0     C27530   7.443   6.190   6.494 -0.0621 -0.2149 -0.1517
  200MOL0     H27531   7.042   6.298   6.674 -0.8707 -0.8389 -0.2599
  200MOL0     H27532   6.860   6.468   6.701  0.7824 -1.5091  0.9218
  200MOL0     H27533   6.762   6.716   6.361 -0.5690  3.4761  1.1381
  200MOL0     H27534   6.666   6.780   6.493 -0.6947  0.9502 -2.6244
  200MOL0     H27535   6.491   6.649   6.497 -0.5262  0.0271 -0.1930
  200MOL0     H27536   6.521   6.653   6.325  1.4618  2.3439 -0.2852
  200MOL0     H27537   6.652   6.449   6.318  0.8402  3.2396  0.8269
  200MOL0     H27538   6.623   6.405   6.490  2.4848 -0.3859 -0.3893
  200MOL0     H27539   6.396   6.443   6.279 -0.5615 -0.6010  0.8026
  200MOL0     H27540   6.467   6.298   6.320  1.1754  1.4859 -2.1805
  200MOL0     H27541   6.279   6.494   6.469 -0.0386  0.1456  3.1591
  200MOL0     H27542   6.371   6.415   6.574 -1.3384 -0.7149  0.6774
  200MOL0     H27543   6.151   6.290   6.382 -4.4510 -4.7021  2.5316
  200MOL0     H27544   6.267   6.192   6.453 -0.7664  0.3085 -2.0825
  200MOL0     H27545   6.190   6.357   6.673 -1.7506 -1.2153  2.0808
  200MOL0     H27546   6.109   6.202   6.625  1.4044  0.0089  0.5647
  200MOL0     H27547   5.962   6.335   6.475 -3.2835 -0.3144  0.5309
  200MOL0     H27548   5.945   6.350   6.654 -0.6007 -1.1480 -0.9786
  200MOL0     H27549   6.084   6.595   6.758 -3.3141  0.1505  1.1104
  200MOL0     H27550   6.007   6.858   6.774 -3.7485  0.8861 -1.4967
  200MOL0     H27551   5.993   6.950   6.633  1.0770  0.6725  0.3120
  200MOL0     H27552   6.213   6.938   6.768  1.3061 -1.1319 -0.0463
  200MOL0     H27553   6.252   6.783   6.697  1.6770  1.1310  2.0676
  200MOL0     H27554   6.217   7.044   6.545  0.3668 -0.1704 -0.5032
  200MOL0     H27555   6.370   6.939   6.574  0.5105  4.7565 -0.1551
  200MOL0     H27556   6.268   6.770   6.438  2.1719  0.9452  0.5833
  200MOL0     H27557   6.139   6.885   6.392 -0.0698  2.3813  2.6076
  200MOL0     H27558   6.538   6.995   6.161 -1.2946  1.6720 -0.0465
  200MOL0     H27559   6.715   6.774   5.957  0.1169  1.3242 -2.3821
  200MOL0     H27560   6.706   6.938   6.010  0.6736 -1.1821  0.1571
  200MOL0     H27561   6.638   6.900   5.863  0.8062  0.8105  0.4722
  200MOL0     H27562   6.315   6.417   5.725  0.7952 -0.8851 -1.6189
  200MOL0     H27563   6.368   6.178   5.620  0.1009  0.6084  0.3733
  200MOL0     H27564   6.364   5.928   5.658  1.0288  0.2227  3.5731
  200MOL0     H27565   6.466   6.007   5.530  0.1403 -1.9332 -1.2264
  200MOL0     H27566   6.555   5.783   5.493  1.1203  1.3397 -0.2129
  200MOL0     H27567   6.645   5.806   5.630  0.0154 -0.1524  0.7255
  200MOL0     H27568   6.440   5.737   5.771  0.8874 -1.0657  0.3947
  200MOL0     H27569   6.531   5.611   5.684 -2.0507 -1.2489  0.0978
  200MOL0     H27570   6.337   5.649   5.503 -0.9530 -4.3341 -0.0146
  200MOL0     H27571   6.248   5.728   5.628  1.0734  0.9025  1.9149
  200MOL0     H27572   6.365   5.451   5.656  0.3697  1.2762  1.2144
  200MOL0     H27573   6.265   5.532   5.775 -1.1497 -0.2568  0.2645
  200MOL0     H27574   6.093   5.532   5.551 -2.7984 -3.6832  0.3967
  200MOL0     H27575   6.100   5.426   5.695 -0.5126 -1.1771 -0.4938
  200MOL0     H27576   6.233   5.263   5.551  3.4994 -0.4205 -3.2371
  200MOL0     H27577   6.199   5.387   5.418  0.2593  0.1382 -0.4636
  200MOL0     H27578   5.950   5.350   5.459  1.2897 -1.4782 -3.7384
  200MOL0     H27579   6.001   5.241   5.596 -0.7717 -0.4639 -0.0335
  200MOL0     H27580   6.605   6.097   5.967 -0.0460  0.7981  1.3457
  200MOL0     H27581   6.560   6.305   6.053 -0.5809 -1.9111  0.0008
  200MOL0     H27582   6.234   6.628   6.034  1.1805 -2.1102  2.2385
  200MOL0     H27583   6.180   6.774   6.218 -0.5210  2.4950  0.4822
  200MOL0     H27584   6.929   6.584   6.305  0.7079  0.9190  0.9423
  200MOL0     H27585   7.110   6.441   6.273 -1.3020 -0.1463  0.4927
  200MOL0     H27586   7.126   5.850   6.364 -0.3391  1.4219 -2.2756
  200MOL0     H27587   7.308   5.694   6.342 -0.8589  0.8415 -1.2446
  200MOL0     H27588   7.518   5.512   6.399  0.3394  0.1870  1.3088
  200MOL0     H27589   7.507   5.591   6.236  1.0546 -0.2905  0.1409
  200MOL0     H27590   7.679   5.436   6.286  1.9908 -0.7815  2.0731
  200MOL0     H27591   7.764   5.542   6.386 -1.6692  4.8209  0.9308
  200MOL0     H27592   7.779   5.724   6.225 -2.7919  1.2689 -2.0271
  200MOL0     H27593   7.867   5.568   6.205  0.3668  1.7888  1.0100
  200MOL0     H27594   7.626   5.649   6.041 -1.1679 -2.7816  1.1770
  200MOL0     H27595   7.728   5.503   6.024  0.5335  0.6904 -2.2702
  200MOL0     H27596   7.969   5.748   5.803  1.8575 -1.7476  0.4089
  200MOL0     H27597   7.600   5.958   6.436  0.4979 -4.5406 -4.9537
  200MOL0     H27598   7.438   6.263   6.413  1.2182 -2.2339 -2.1800
  200MOL0     H27599   7.379   6.222   6.576 -1.4723  2.4843 -2.1395
  200MOL0     H27600   7.547   6.195   6.527  1.2569 -2.8846 -3.3753
  201MOL0     O27601   2.602  10.878   7.723 -0.2015  0.3729  0.6045
  201MOL0     C27602   2.482  10.859   7.706  0.1699 -0.4910 -0.7167
  201MOL0     O27603   2.417  10.745   7.719  0.7531 -0.1363 -0.1779
  201MOL0     C27604   2.473  10.626   7.772 -0.8303  0.3560 -0.5813
  201MOL0     C27605   2.568  10.620   7.882  1.2903  0.3996  0.7179
  201MOL0     C27606   2.605  10.495   7.918 -0.1735  0.3075 -0.1307
  201MOL0     C27607   2.564  10.376   7.861  0.6581 -0.6964 -0.5681
  201MOL0     O27608   2.616  10.257   7.910  0.4079  0.5646 -0.1509
  201MOL0     C27609   2.607  10.146   7.816  0.3207  0.3402 -0.5962
  201MOL0     C27610   2.482  10.055   7.847 -0.0011  0.4544  0.4110
  201MOL0     C27611   2.511   9.962   7.972 -0.1682 -0.1983 -0.4801
  201MOL0     C27612   2.405   9.863   7.988 -0.0514 -0.2524 -1.0270
  201MOL0     C27613   2.428   9.738   8.069  0.2750  0.4323  0.2290
  201MOL0     C27614   2.491   9.741   8.210 -0.8873  0.0047 -0.5310
  201MOL0     C27615   2.382   9.767   8.308 -0.2189 -1.0684 -1.2179
  201MOL0     C27616   2.443   9.801   8.455  0.6061  0.4052  0.8521
  201MOL0     N27617   2.328   9.839   8.554 -0.8828  0.2157  0.0863
  201MOL0     C27618   2.252   9.951   8.554  0.7980  0.4472  0.9116
  201MOL0     C27619   2.176   9.937   8.664 -0.3453  0.5801  1.0727
  201MOL0     C27620   2.067  10.039   8.697 -0.4517  0.1055 -0.7122
  201MOL0     C27621   2.105  10.105   8.822 -0.6670  0.8319  0.3238
  201MOL0     C27622   2.015  10.227   8.844 -0.6627 -0.2537 -0.4254
  201MOL0     C27623   2.008  10.247   8.998 -0.1226  0.3658 -0.2065
  201MOL0     O27624   1.946  10.377   9.026 -0.1320  0.8530 -0.0611
  201MOL0     C27625   2.007  10.463   9.113 -0.9091 -1.8575  0.2032
  201MOL0     C27626   1.929  10.561   9.173 -1.0863 -0.2718 -1.0453
  201MOL0     C27627   1.978  10.673   9.246 -1.1801  0.2848 -0.5805
  201MOL0     C27628   1.877  10.761   9.320 -0.6664  0.3478  0.6125
  201MOL0     C27629   2.119  10.677   9.279  0.1096 -0.1336 -0.2330
  201MOL0     C27630   2.193  10.783   9.364  0.4302  0.3897  0.0725
  201MOL0     O27631   2.316  10.748   9.419  0.7606 -0.3461  0.5092
  201MOL0     C27632   2.367  10.842   9.501 -0.4022  0.5355  0.3866
  201MOL0     C27633   2.339  10.825   9.632  0.0887 -0.6470 -0.5779
  201MOL0     C27634   2.405  10.903   9.731 -0.6725  0.5422 -0.1190
  201MOL0     C27635   2.497  10.996   9.695  0.8848 -1.0031  0.1015
  201MOL0     O27636   2.545  11.084   9.796  0.1645  0.3270  0.0270
  201MOL0     C27637   2.574  11.050   9.928 -0.1241 -0.9290 -0.4026
  201MOL0     C27638   2.584  11.174  10.014  0.5821 -0.3064 -0.4478
  201MOL0     C27639   2.688  11.270   9.961  0.7431  0.3718  0.2297
  201MOL0     C27640   2.691  11.388  10.055 -0.5038 -0.4529  0.0180
  201MOL0     C27641   2.811  11.487  10.022  0.0959  0.0614  0.0832
  201MOL0     C27642   2.799  11.608  10.123 -0.2183 -0.0718  0.4139
  201MOL0     C27643   2.917  11.702  10.104  0.4167  0.7041 -0.5184
  201MOL0     C27644   2.923  11.825  10.202 -0.5886 -0.6360  0.6474
  201MOL0    Cl27645   2.856  11.960  10.112 -0.1432 -0.5479 -0.0257
  201MOL0     C27646   2.528  11.015   9.557  0.5453  0.0429 -0.4116
  201MOL0     C27647   2.463  10.936   9.461 -0.2968 -0.4554  0.0425
  201MOL0     O27648   2.139  10.895   9.376 -0.2293 -0.6317 -0.2514
  201MOL0     C27649   2.192  10.566   9.217 -0.5789 -0.1870 -0.2235
  201MOL0     C27650   2.145  10.482   9.129  0.1610  0.9377 -0.4028
  201MOL0     N27651   2.212   9.816   8.719 -0.2890  0.3287  0.7955
  201MOL0     N27652   2.301   9.752   8.651 -0.1635 -0.4185 -0.9461
  201MOL0     C27653   2.457  10.392   7.768  0.5741  0.6122  0.2231
  201MOL0     C27654   2.412  10.511   7.724 -0.7210 -0.2563 -0.0078
  201MOL0     C27655   2.394  10.975   7.680  0.8829 -0.0580  0.3891
  201MOL0     C27656   2.251  10.947   7.667 -0.6159 -0.3672  0.7544
  201MOL0     C27657   2.168  11.050   7.629  0.5989 -1.1228  0.1513
  201MOL0     C27658   2.211  11.182   7.611 -0.1272 -0.6496 -0.9995
  201MOL0     O27659   2.122  11.281   7.577  0.4756  0.6644 -0.1251
  201MOL0     C27660   2.173  11.361   7.469  0.7997 -0.0423 -0.4265
  201MOL0     C27661   2.063  11.423   7.392  1.1401 -0.0147 -0.2838
  201MOL0     C27662   2.003  11.332   7.286 -0.1944  1.0159  0.1055
  201MOL0     C27663   1.914  11.232   7.363 -0.8634 -1.5752  0.5160
  201MOL0     C27664   1.825  11.160   7.266 -0.5401 -0.2359  0.1519
  201MOL0     C27665   1.750  11.126   7.184 -0.5489 -0.2652 -0.3740
  201MOL0     C27666   2.349  11.215   7.622  0.3699  0.0978  0.4143
  201MOL0     C27667   2.434  11.109   7.657 -0.0630  0.2365 -0.0767
  201MOL0     C27668   2.578  11.142   7.644  0.0855 -0.3696  0.2547
  201MOL0     H27669   2.623  10.704   7.925  2.6694  0.9181 -1.8642
  201MOL0     H27670   2.683  10.474   7.991  2.0768 -0.2357 -2.5580
  201MOL0     H27671   2.696  10.082   7.808  0.6675  0.9553 -1.9251
  201MOL0     H27672   2.600  10.190   7.716 -2.8031  0.8327 -0.2590
  201MOL0     H27673   2.392  10.115   7.862 -0.5115 -0.0568 -0.5174
  201MOL0     H27674   2.464   9.987   7.763  0.0251  1.4686 -0.4391
  201MOL0     H27675   2.605   9.907   7.962  0.1177  0.1397  0.2821
  201MOL0     H27676   2.526  10.007   8.070  2.0641 -1.2031 -0.2939
  201MOL0     H27677   2.316   9.912   8.029 -0.5494 -3.4095  2.2302
  201MOL0     H27678   2.384   9.815   7.892 -1.7861  1.5483 -1.6211
  201MOL0     H27679   2.475   9.662   8.005  1.2493  0.1255  1.2799
  201MOL0     H27680   2.326   9.699   8.076 -0.2558  1.3614 -1.7322
  201MOL0     H27681   2.524   9.638   8.229  0.2835 -0.1128 -2.8883
  201MOL0     H27682   2.580   9.804   8.208 -1.3206  0.6309 -2.2253
  201MOL0     H27683   2.315   9.681   8.312  0.6236 -1.7268 -0.8663
  201MOL0     H27684   2.328   9.855   8.273 -0.7179  0.3537  2.6619
  201MOL0     H27685   2.475   9.708   8.503 -1.0602  0.2614  1.7783
  201MOL0     H27686   2.525   9.874   8.451  2.3519 -1.4647  0.8619
  201MOL0     H27687   2.240  10.032   8.483 -0.5064  0.1615  0.7813
  201MOL0     H27688   1.977   9.978   8.703 -0.5245  0.1359 -1.3826
  201MOL0     H27689   2.077  10.111   8.614 -0.8658 -0.9423 -1.6968
  201MOL0     H27690   2.098  10.030   8.900  2.1364 -0.4385 -0.5135
  201MOL0     H27691   2.212  10.129   8.829 -0.6015  0.4524  0.6295
  201MOL0     H27692   2.052  10.312   8.786 -1.8558  0.5745 -0.0007
  201MOL0     H27693   1.913  10.201   8.814  0.1508 -1.9652 -1.9679
  201MOL0     H27694   1.950  10.173   9.054 -2.4212  3.0686  1.2815
  201MOL0     H27695   2.108  10.254   9.042  1.0626  3.9863 -2.9346
  201MOL0     H27696   1.820  10.561   9.175 -1.2937  3.6043 -3.2454
  201MOL0     H27697   1.776  10.719   9.314 -0.4341 -1.3898  5.0229
  201MOL0     H27698   1.878  10.860   9.272  3.5196  1.4988  2.5686
  201MOL0     H27699   1.905  10.773   9.426  0.0390 -2.7821  0.8588
  201MOL0     H27700   2.268  10.746   9.653 -1.8969  1.1634  0.0141
  201MOL0     H27701   2.364  10.888   9.830  2.2389 -1.6666  0.8817
  201MOL0     H27702   2.505  10.976   9.973 -0.6951  0.4182  1.0452
  201MOL0     H27703   2.674  11.006   9.921  0.9721  1.4817 -0.8119
  201MOL0     H27704   2.488  11.225  10.006  1.0578  0.4869 -1.3543
  201MOL0     H27705   2.611  11.142  10.115  2.9653  0.3108 -0.8348
  201MOL0     H27706   2.656  11.304   9.862 -2.8142 -2.5847  0.1432
  201MOL0     H27707   2.781  11.211   9.961 -0.8162 -2.2458  0.8806
  201MOL0     H27708   2.692  11.360  10.160  0.5329  2.6012  0.9220
  201MOL0     H27709   2.601  11.447  10.039 -0.4235 -0.3119  0.0927
  201MOL0     H27710   2.911  11.443  10.025 -0.2089 -2.0393 -6.0885
  201MOL0     H27711   2.799  11.531   9.922 -3.0013  0.9329  0.7171
  201MOL0     H27712   2.803  11.549  10.215  1.9352 -0.7292 -0.0483
  201MOL0     H27713   2.701  11.653  10.105 -2.3131 -3.5061  2.1427
  201MOL0     H27714   2.933  11.722   9.998  0.0098 -1.7028 -1.0956
  201MOL0     H27715   3.009  11.650  10.133 -0.0070 -1.2776 -2.4894
  201MOL0     H27716   3.025  11.854  10.229 -0.1803 -2.0226  0.6765
  201MOL0     H27717   2.873  11.792  10.294  0.2622  1.6691  2.0155
  201MOL0     H27718   2.608  11.085   9.535  2.4399 -1.8968 -0.0590
  201MOL0     H27719   2.507  10.949   9.362  0.2521  0.7728  0.4277
  201MOL0     H27720   2.296  10.549   9.243 -0.8489 -1.7470 -0.0857
  201MOL0     H27721   2.214  10.408   9.089  0.3197  0.8841 -0.0290
  201MOL0     H27722   2.408  10.306   7.723 -1.0711  1.7976 -0.3395
  201MOL0     H27723   2.331  10.509   7.652 -3.0132  1.3597  2.3088
  201MOL0     H27724   2.211  10.850   7.695  0.9707 -0.6757  2.1311
  201MOL0     H27725   2.061  11.034   7.638  0.3305  0.8733  1.2749
  201MOL0     H27726   2.235  11.442   7.509  1.4452 -0.3016 -0.8735
  201MOL0     H27727   2.238  11.297   7.408  3.1386  0.5175  1.3390
  201MOL0     H27728   2.107  11.514   7.350  1.0237  1.4938  2.5984
  201MOL0     H27729   1.994  11.466   7.466  2.2801 -0.2863  0.9802
  201MOL0     H27730   1.949  11.388   7.209  0.6224  0.5038 -0.8653
  201MOL0     H27731   2.075  11.271   7.230 -3.5013 -2.5225 -0.7641
  201MOL0     H27732   1.853  11.295   7.428  1.2466  0.2828  0.8003
  201MOL0     H27733   1.979  11.167   7.422  1.9452 -0.1517 -0.8098
  201MOL0     H27734   1.684  11.097   7.105 -0.5792 -0.9061 -0.1136
  201MOL0     H27735   2.383  11.314   7.591  4.1552 -1.0135  0.4878
  201MOL0     H27736   2.593  11.236   7.591 -3.3323  0.2872  0.2571
  201MOL0     H27737   2.622  11.163   7.743  2.8828  0.8228 -1.1220
  201MOL0     H27738   2.643  11.068   7.596  1.3751  0.1783  1.0828
  202MOL0     O27739   5.197   0.982   5.888  0.6507 -0.5021 -0.0050
  202MOL0     C27740   5.192   0.972   5.768 -0.0405  1.0904 -0.2875
  202MOL0     O27741   5.278   0.888   5.695  0.7662 -0.1816  0.1763
  202MOL0     C27742   5.348   0.801   5.771  1.1021  0.5275  0.4457
  202MOL0     C27743   5.460   0.835   5.842  0.0441 -0.5324 -0.3895
  202MOL0     C27744   5.549   0.731   5.900  0.2100 -0.2794  0.1110
  202MOL0     C27745   5.493   0.595   5.904 -0.4034  0.2913 -0.5012
  202MOL0     O27746   5.572   0.495   5.970  0.0602 -0.1653  0.5480
  202MOL0     C27747   5.493   0.377   5.989 -0.8618  0.3749 -0.2133
  202MOL0     C27748   5.584   0.273   6.049 -0.3544  0.0969  1.0204
  202MOL0     C27749   5.520   0.134   6.079 -0.2844 -1.0133  0.5220
  202MOL0     C27750   5.519   0.054   5.948 -0.3532 -0.1725 -0.2130
  202MOL0     C27751   5.429  -0.065   5.963 -0.4333  0.6462 -0.2297
  202MOL0     C27752   5.450  -0.156   5.848  0.2357  0.2739 -0.3878
  202MOL0     C27753   5.383  -0.287   5.879  1.3672  0.4510 -0.3144
  202MOL0     C27754   5.374  -0.372   5.759 -0.6454  1.1276  0.0135
  202MOL0     N27755   5.242  -0.429   5.727  0.5034  0.1999 -0.0928
  202MOL0     C27756   5.183  -0.539   5.789  0.1859 -1.3494  0.2927
  202MOL0     C27757   5.070  -0.564   5.725 -0.7343 -0.5030 -0.0598
  202MOL0     C27758   4.985  -0.682   5.764 -0.1817 -0.2925 -0.4702
  202MOL0     C27759   4.892  -0.637   5.871  0.5562 -0.3241 -0.7141
  202MOL0     C27760   4.769  -0.733   5.891  0.6158 -0.1322  0.2317
  202MOL0     C27761   4.668  -0.687   5.982  0.5303 -0.0393 -0.3897
  202MOL0     O27762   4.702  -0.727   6.116 -0.8671  0.7835  0.2100
  202MOL0     C27763   4.632  -0.690   6.225  0.1060  0.1999  0.3956
  202MOL0     C27764   4.597  -0.795   6.303 -1.7305 -0.3189  0.4317
  202MOL0     C27765   4.518  -0.778   6.426  0.1079  0.9331  0.1303
  202MOL0     C27766   4.503  -0.892   6.514 -0.5711  0.1588  0.9673
  202MOL0     C27767   4.474  -0.644   6.461  0.2034 -1.0424 -0.9118
  202MOL0     C27768   4.422  -0.600   6.595 -0.7437 -0.8377 -0.0634
  202MOL0     O27769   4.447  -0.473   6.643  0.0427  0.4464 -0.7997
  202MOL0     C27770   4.386  -0.434   6.761 -0.6186  0.5685 -0.3244
  202MOL0     C27771   4.291  -0.331   6.755 -0.5547 -0.0887  0.5924
  202MOL0     C27772   4.235  -0.291   6.875 -0.8007 -1.4101  0.8174
  202MOL0     C27773   4.269  -0.345   7.002  0.2965 -0.5006 -0.0569
  202MOL0     O27774   4.188  -0.319   7.115 -0.0345 -0.1768 -0.6010
  202MOL0     C27775   4.189  -0.414   7.226  1.7159 -0.1185  0.5351
  202MOL0     C27776   4.066  -0.383   7.322 -0.1070  0.2631 -0.0898
  202MOL0     C27777   3.983  -0.496   7.349  0.6888 -0.0137 -0.4345
  202MOL0     C27778   3.858  -0.459   7.424 -0.3562 -0.3507 -0.3956
  202MOL0     C27779   3.775  -0.580   7.451  0.1608  0.7472 -0.2331
  202MOL0     C27780   3.679  -0.629   7.334  0.2349  0.1715  0.4654
  202MOL0     C27781   3.590  -0.515   7.277 -0.7505 -0.7962 -0.1974
  202MOL0     C27782   3.467  -0.552   7.197 -0.1965 -0.6739 -0.5329
  202MOL0    Cl27783   3.509  -0.671   7.080  0.4345  0.3131 -0.2493
  202MOL0     C27784   4.374  -0.442   7.010 -0.1055  0.0464  0.7529
  202MOL0     C27785   4.435  -0.489   6.883  0.7276  0.3251  0.5049
  202MOL0     O27786   4.361  -0.687   6.659 -0.2491  0.1329 -0.3036
  202MOL0     C27787   4.506  -0.543   6.370  0.7361  0.9925  0.1035
  202MOL0     C27788   4.580  -0.567   6.258 -0.0253  0.1426 -1.1758
  202MOL0     N27789   5.045  -0.468   5.628  0.5405 -1.0277 -0.4058
  202MOL0     N27790   5.160  -0.402   5.620  1.4788  0.5163 -0.1329
  202MOL0     C27791   5.370   0.566   5.842 -0.6041  0.2668  0.0452
  202MOL0     C27792   5.296   0.668   5.779 -0.8526  1.5836 -0.9283
  202MOL0     C27793   5.095   1.063   5.693 -0.4047  0.8122  0.6904
  202MOL0     C27794   5.064   1.038   5.554  0.9815 -0.6080 -0.1079
  202MOL0     C27795   4.980   1.126   5.486 -1.3894  0.1516 -0.5082
  202MOL0     C27796   4.907   1.225   5.555  0.2626  0.0736  0.2410
  202MOL0     O27797   4.797   1.302   5.500 -0.9026  0.9570  0.5492
  202MOL0     C27798   4.772   1.305   5.358 -0.1136  0.4676 -0.5021
  202MOL0     C27799   4.678   1.192   5.311  0.6131 -0.3040  0.2177
  202MOL0     C27800   4.552   1.180   5.399 -0.2573 -0.3169 -0.1695
  202MOL0     C27801   4.556   1.058   5.492  1.2727 -0.3271  0.2594
  202MOL0     C27802   4.534   0.931   5.422  0.3174 -0.7627  0.2769
  202MOL0     C27803   4.527   0.836   5.348  0.5005  0.1187  0.0283
  202MOL0     C27804   4.939   1.243   5.691 -0.0090 -0.4840 -0.5555
  202MOL0     C27805   5.032   1.168   5.760 -0.7073  0.2353  0.5080
  202MOL0     C27806   5.046   1.208   5.902 -0.1392  0.1052 -0.3833
  202MOL0     H27807   5.500   0.935   5.849  3.6741 -1.8644 -0.3595
  202MOL0     H27808   5.644   0.758   5.945  0.6222 -0.0171 -0.8878
  202MOL0     H27809   5.450   0.330   5.901  1.0933 -1.6287 -0.1739
  202MOL0     H27810   5.417   0.403   6.063 -2.3668 -1.4026 -1.0593
  202MOL0     H27811   5.681   0.261   6.000 -0.5051 -2.4629  1.2224
  202MOL0     H27812   5.611   0.320   6.144 -3.2442 -0.4106  2.1844
  202MOL0     H27813   5.589   0.082   6.146 -1.0484 -1.0239  1.3230
  202MOL0     H27814   5.421   0.138   6.125 -0.0432  1.2763  0.9820
  202MOL0     H27815   5.490   0.121   5.867  2.0690  1.8664  0.4805
  202MOL0     H27816   5.621   0.024   5.925 -0.5833 -2.3606  1.2937
  202MOL0     H27817   5.323  -0.039   5.950 -0.8572 -0.2539  1.1969
  202MOL0     H27818   5.449  -0.122   6.054 -1.4918 -2.2966 -1.7011
  202MOL0     H27819   5.409  -0.106   5.760 -0.6701 -0.7475 -0.5758
  202MOL0     H27820   5.556  -0.180   5.850 -0.4776 -3.8285  2.8251
  202MOL0     H27821   5.286  -0.286   5.930  0.9926 -1.2069 -0.9179
  202MOL0     H27822   5.453  -0.336   5.947 -0.0582 -0.6076  0.4468
  202MOL0     H27823   5.393  -0.314   5.669 -0.8734  1.8619  0.4311
  202MOL0     H27824   5.444  -0.456   5.760 -1.0105  0.8214  0.0762
  202MOL0     H27825   5.220  -0.592   5.876  2.3859  0.5222  0.5964
  202MOL0     H27826   5.054  -0.759   5.801  0.0053 -0.9792 -2.1464
  202MOL0     H27827   4.926  -0.717   5.679 -0.1241 -0.9712 -0.2348
  202MOL0     H27828   4.945  -0.623   5.965 -1.8043 -0.9023  0.7903
  202MOL0     H27829   4.851  -0.539   5.845  1.6686  0.4945  0.4950
  202MOL0     H27830   4.719  -0.749   5.795 -2.4460 -1.9960  1.9725
  202MOL0     H27831   4.798  -0.833   5.923 -0.6499 -0.5736  0.0385
  202MOL0     H27832   4.650  -0.579   5.976 -1.1667 -0.3657 -2.0272
  202MOL0     H27833   4.574  -0.730   5.947 -0.4245  1.6299 -0.0016
  202MOL0     H27834   4.650  -0.888   6.286 -1.7627 -0.7926  2.5948
  202MOL0     H27835   4.399  -0.926   6.506 -0.1768 -0.5858 -2.3310
  202MOL0     H27836   4.523  -0.872   6.620 -1.0382 -1.4543  1.3848
  202MOL0     H27837   4.552  -0.984   6.480 -3.2134 -0.2443 -2.1774
  202MOL0     H27838   4.275  -0.277   6.662  1.5066  0.9804  0.8054
  202MOL0     H27839   4.149  -0.226   6.886 -2.2677 -2.7013 -1.9095
  202MOL0     H27840   4.163  -0.509   7.179 -0.9354 -0.5015  2.5089
  202MOL0     H27841   4.283  -0.407   7.280  1.5480  0.4675  0.7611
  202MOL0     H27842   4.099  -0.323   7.407 -0.6819  1.9876 -1.0429
  202MOL0     H27843   4.011  -0.303   7.272  1.3101  0.2665 -1.7580
  202MOL0     H27844   4.045  -0.566   7.407 -0.2076  0.1593  0.7717
  202MOL0     H27845   3.948  -0.542   7.256 -2.3965 -0.6773  0.9372
  202MOL0     H27846   3.803  -0.385   7.365  0.2042 -0.6587 -1.3321
  202MOL0     H27847   3.884  -0.416   7.521 -1.2034  0.4357 -0.5063
  202MOL0     H27848   3.838  -0.664   7.484  0.8872  1.1015 -0.7005
  202MOL0     H27849   3.705  -0.563   7.533 -1.2047 -0.9312 -0.9830
  202MOL0     H27850   3.616  -0.716   7.353  0.5583  0.1550  1.5736
  202MOL0     H27851   3.752  -0.658   7.257  0.1412  0.9713  0.0616
  202MOL0     H27852   3.647  -0.447   7.213 -1.5290  0.0819  0.0141
  202MOL0     H27853   3.556  -0.463   7.367 -1.2258 -1.4196 -0.0148
  202MOL0     H27854   3.418  -0.463   7.156  0.2804  0.3255  0.9646
  202MOL0     H27855   3.403  -0.604   7.268  0.2840  0.8659  1.0922
  202MOL0     H27856   4.418  -0.489   7.097 -0.7361 -1.2846  0.3708
  202MOL0     H27857   4.512  -0.565   6.889  0.1630 -0.4910 -1.7794
  202MOL0     H27858   4.475  -0.442   6.392  1.8692  0.9224  2.2560
  202MOL0     H27859   4.589  -0.485   6.188 -1.6385  1.4276  0.0645
  202MOL0     H27860   5.333   0.465   5.833 -0.6509  0.2918 -0.0488
  202MOL0     H27861   5.207   0.637   5.726 -1.7865  0.4119  1.2166
  202MOL0     H27862   5.112   0.958   5.499  3.1167  3.2053 -4.5583
  202MOL0     H27863   4.965   1.110   5.379  0.9051 -2.6028 -0.5434
  202MOL0     H27864   4.720   1.401   5.345 -0.9748  0.0272 -0.3546
  202MOL0     H27865   4.866   1.296   5.303  0.6822 -1.5634  1.0678
  202MOL0     H27866   4.740   1.103   5.297 -1.2781 -1.6177 -0.3127
  202MOL0     H27867   4.644   1.215   5.210 -3.2719 -0.0766  1.4074
  202MOL0     H27868   4.531   1.276   5.448 -1.2648  0.6132 -2.2817
  202MOL0     H27869   4.466   1.176   5.331  0.7082  4.8926 -2.1768
  202MOL0     H27870   4.474   1.078   5.561 -0.7982  1.9609 -2.5825
  202MOL0     H27871   4.648   1.048   5.550 -0.5737 -2.5735  3.0521
  202MOL0     H27872   4.515   0.755   5.280  2.4054 -4.3817  4.4013
  202MOL0     H27873   4.864   1.306   5.737  0.8235  1.6514 -1.9981
  202MOL0     H27874   4.971   1.282   5.933 -0.4730  0.4984 -2.0552
  202MOL0     H27875   5.023   1.133   5.978 -1.7990  1.2826  0.3485
  202MOL0     H27876   5.137   1.261   5.931 -2.8284  4.0200  2.0014
  203MOL0     O27877   5.007   9.772   2.859 -0.2726 -0.5640 -0.1740
  203MOL0     C27878   5.038   9.655   2.849 -0.5116  0.7047 -0.2119
  203MOL0     O27879   5.050   9.589   2.723  0.2829  0.0926 -0.2051
  203MOL0     C27880   5.092   9.646   2.601  0.0673 -0.6311 -0.3863
  203MOL0     C27881   5.086   9.573   2.481  0.2436  0.0600  0.1009
  203MOL0     C27882   5.136   9.623   2.356 -0.4794  0.1876  0.1216
  203MOL0     C27883   5.170   9.757   2.345 -0.0334  0.3048  0.1970
  203MOL0     O27884   5.180   9.822   2.228  0.0513  0.4665  0.0405
  203MOL0     C27885   5.232   9.755   2.114 -1.1088  0.0630  0.4428
  203MOL0     C27886   5.186   9.839   1.985 -0.2550 -0.2861 -0.7335
  203MOL0     C27887   5.246   9.777   1.854 -0.0078 -0.8011 -0.2921
  203MOL0     C27888   5.389   9.832   1.826  0.7662  0.2804  0.0050
  203MOL0     C27889   5.445   9.805   1.688  0.4041  0.8349  0.0411
  203MOL0     C27890   5.577   9.877   1.667 -0.5176  0.3963 -0.8002
  203MOL0     C27891   5.620   9.890   1.515 -0.2817 -0.1880  0.7427
  203MOL0     C27892   5.743   9.981   1.497  0.4099 -0.1662 -0.7099
  203MOL0     N27893   5.790   9.992   1.362  0.9433  0.3947  1.1212
  203MOL0     C27894   5.876   9.907   1.300  0.2880 -0.0868  1.4673
  203MOL0     C27895   5.851   9.922   1.167 -0.8754 -0.0771  0.4585
  203MOL0     C27896   5.912   9.852   1.049 -0.2556  0.2086 -0.6407
  203MOL0     C27897   5.817   9.744   0.985 -0.2661 -0.8591  0.0820
  203MOL0     C27898   5.755   9.796   0.853 -0.7322  0.2896 -0.3328
  203MOL0     C27899   5.686   9.683   0.783 -1.0861 -0.4105 -0.2793
  203MOL0     O27900   5.634   9.745   0.669  0.5679 -0.3513  0.2254
  203MOL0     C27901   5.563   9.664   0.587 -0.2933 -0.0159 -0.2860
  203MOL0     C27902   5.570   9.687   0.447  0.7179 -0.4669 -0.7872
  203MOL0     C27903   5.484   9.629   0.355  0.1891 -0.2936 -0.3246
  203MOL0     C27904   5.486   9.669   0.213 -0.6802 -0.0258  1.1097
  203MOL0     C27905   5.390   9.531   0.392 -0.2648 -0.4004  0.7725
  203MOL0     C27906   5.324   9.445   0.297  0.2680  0.2742  1.2808
  203MOL0     O27907   5.262   9.501   0.189 -0.8917  0.1364 -0.2067
  203MOL0     C27908   5.241   9.424   0.084  0.3051 -0.4192  0.9414
  203MOL0     C27909   5.325   9.422  -0.025  0.5478  0.2447 -0.1405
  203MOL0     C27910   5.296   9.335  -0.134  0.4946 -0.0017 -0.5896
  203MOL0     C27911   5.188   9.244  -0.141  0.1933  0.7260 -1.1331
  203MOL0     O27912   5.139   9.177  -0.248  0.2095  0.3957  0.7682
  203MOL0     C27913   5.204   9.184  -0.376 -0.8688  0.1928 -0.0148
  203MOL0     C27914   5.130   9.113  -0.487  0.1824 -0.2827  1.1208
  203MOL0     C27915   5.006   9.196  -0.536 -0.2202  0.1253  0.5670
  203MOL0     C27916   4.940   9.126  -0.658  0.1737 -0.0100  0.4480
  203MOL0     C27917   4.838   9.216  -0.730  0.7111 -0.5092  0.3466
  203MOL0     C27918   4.895   9.296  -0.853  0.1851 -0.4222  0.0201
  203MOL0     C27919   4.827   9.436  -0.869  0.2562  0.0237  0.6297
  203MOL0     C27920   4.836   9.477  -1.011  0.5320  0.4579 -0.0390
  203MOL0    Cl27921   4.996   9.466  -1.078  0.2093 -0.7699  0.4768
  203MOL0     C27922   5.114   9.250  -0.029  0.2973  0.4085 -0.8431
  203MOL0     C27923   5.139   9.343   0.086  0.9194  0.6150  0.5185
  203MOL0     O27924   5.328   9.322   0.323 -0.4923  0.0847  0.2824
  203MOL0     C27925   5.381   9.510   0.531 -0.3042  0.2026 -0.5171
  203MOL0     C27926   5.459   9.575   0.629  0.2802  0.4840  0.3782
  203MOL0     N27927   5.759  10.022   1.150 -0.8552 -0.0955  0.3587
  203MOL0     N27928   5.720  10.063   1.269 -0.0973  0.8029  0.5932
  203MOL0     C27929   5.169   9.833   2.454  0.5689 -0.0471  0.0919
  203MOL0     C27930   5.125   9.781   2.579 -0.0975  0.5076 -0.3976
  203MOL0     C27931   5.015   9.569   2.971 -0.0374 -0.7013  0.6715
  203MOL0     C27932   4.971   9.438   2.954  0.2293 -0.4969 -0.2607
  203MOL0     C27933   4.942   9.362   3.071 -0.5483 -0.1084  0.3356
  203MOL0     C27934   4.940   9.414   3.201  0.0726 -0.4574  0.5119
  203MOL0     O27935   4.902   9.321   3.292 -0.2194  0.0451 -0.3447
  203MOL0     C27936   4.858   9.360   3.422 -0.1394 -0.7874  0.2710
  203MOL0     C27937   4.744   9.267   3.468  0.4874  0.3197  0.6991
  203MOL0     C27938   4.691   9.298   3.601  0.6568 -0.0903  0.1342
  203MOL0     C27939   4.560   9.241   3.632  0.1060  0.1240  0.6488
  203MOL0     C27940   4.528   9.274   3.767  1.6232 -0.4509 -0.4666
  203MOL0     C27941   4.506   9.314   3.885 -0.3158  0.2035  0.1063
  203MOL0     C27942   4.985   9.545   3.218 -0.0144  0.0244  0.5021
  203MOL0     C27943   5.028   9.619   3.109  0.8151  0.9488  0.0072
  203MOL0     C27944   5.088   9.752   3.134 -0.1891  0.1327  0.1081
  203MOL0     H27945   5.040   9.475   2.481  1.4079 -0.5719  2.8982
  203MOL0     H27946   5.119   9.575   2.261 -1.5323 -0.0277  0.4048
  203MOL0     H27947   5.214   9.647   2.106  3.2758 -0.7569 -2.3460
  203MOL0     H27948   5.342   9.761   2.114 -0.8966 -1.6981 -2.5001
  203MOL0     H27949   5.077   9.834   1.985 -0.4542  0.7019  3.4491
  203MOL0     H27950   5.219   9.942   1.999  1.4502 -0.9092  0.2407
  203MOL0     H27951   5.238   9.668   1.853  0.6704 -0.8576 -0.3411
  203MOL0     H27952   5.184   9.814   1.771 -0.2755 -0.8909 -0.1287
  203MOL0     H27953   5.396   9.939   1.846  0.4402  0.8529 -2.5504
  203MOL0     H27954   5.462   9.787   1.894  0.8117 -3.4294 -2.2325
  203MOL0     H27955   5.377   9.865   1.626  1.5281  3.4790  1.2638
  203MOL0     H27956   5.445   9.701   1.652 -3.7404  1.3168 -2.0873
  203MOL0     H27957   5.563   9.983   1.688  0.7933  1.1035 -3.1333
  203MOL0     H27958   5.657   9.837   1.730  0.0588 -2.2418 -2.9791
  203MOL0     H27959   5.543   9.953   1.470  1.7311 -0.2524 -3.2797
  203MOL0     H27960   5.620   9.793   1.464 -2.1115  0.4530 -0.5781
  203MOL0     H27961   5.724  10.082   1.535 -0.2583 -1.1505  1.7893
  203MOL0     H27962   5.827   9.946   1.558 -0.5374  1.2791  1.5677
  203MOL0     H27963   5.946   9.829   1.327  0.6605 -1.6879 -3.1588
  203MOL0     H27964   6.012   9.824   1.085  0.6582  3.3979 -0.4395
  203MOL0     H27965   5.918   9.925   0.968  1.0514  0.0533 -0.6990
  203MOL0     H27966   5.883   9.660   0.960 -2.9907 -2.5718 -1.8078
  203MOL0     H27967   5.741   9.718   1.059 -2.0983  2.4522 -0.4473
  203MOL0     H27968   5.675   9.866   0.881  0.7217  1.9620 -0.1562
  203MOL0     H27969   5.830   9.848   0.792  2.7249 -1.3213  2.1847
  203MOL0     H27970   5.763   9.610   0.759 -1.4698 -0.3684 -1.8007
  203MOL0     H27971   5.615   9.641   0.855 -0.1631 -0.0625  0.8587
  203MOL0     H27972   5.636   9.768   0.418  1.1017 -0.4501  0.1103
  203MOL0     H27973   5.385   9.682   0.173 -0.5421  0.1518  0.8136
  203MOL0     H27974   5.549   9.592   0.168  0.5828  1.9900 -0.7204
  203MOL0     H27975   5.540   9.763   0.199  1.5924 -1.4182 -0.0197
  203MOL0     H27976   5.414   9.483  -0.011 -0.1264  1.1390  0.3510
  203MOL0     H27977   5.371   9.345  -0.212  0.2165 -0.0660 -0.8695
  203MOL0     H27978   5.227   9.287  -0.404 -0.6366  0.6838  1.8122
  203MOL0     H27979   5.303   9.137  -0.368  0.4744  2.9265  0.4827
  203MOL0     H27980   5.186   9.114  -0.581  2.0124  2.4757  2.0971
  203MOL0     H27981   5.106   9.013  -0.451  0.4380 -0.9763 -0.5710
  203MOL0     H27982   5.046   9.294  -0.565  0.9009 -1.0266 -2.0996
  203MOL0     H27983   4.936   9.211  -0.453 -0.1065  1.7497  0.4136
  203MOL0     H27984   4.911   9.028  -0.618 -3.2827  0.9486  0.6101
  203MOL0     H27985   5.011   9.102  -0.738  3.1099  2.7147  2.0028
  203MOL0     H27986   4.770   9.140  -0.770 -0.8584 -0.9821  3.5337
  203MOL0     H27987   4.789   9.274  -0.651  1.7264  1.2467 -0.2560
  203MOL0     H27988   4.881   9.239  -0.945  0.9573 -1.0442  0.2745
  203MOL0     H27989   5.003   9.311  -0.839  0.6544 -1.5825 -1.9818
  203MOL0     H27990   4.877   9.515  -0.811  1.5156 -0.2916  0.0239
  203MOL0     H27991   4.725   9.423  -0.832  0.9483 -0.1743  2.6245
  203MOL0     H27992   4.792   9.576  -1.027  0.3699  0.7541  1.9348
  203MOL0     H27993   4.789   9.405  -1.080  0.8850 -0.3548  0.5468
  203MOL0     H27994   5.032   9.180  -0.019  1.5558 -0.9345  0.8209
  203MOL0     H27995   5.060   9.337   0.160  1.2946  0.7093  0.9290
  203MOL0     H27996   5.311   9.433   0.561  0.5523 -1.3118 -2.1557
  203MOL0     H27997   5.440   9.556   0.735  0.2493  0.3701  0.3521
  203MOL0     H27998   5.174   9.941   2.444 -2.5060  0.4535  2.3325
  203MOL0     H27999   5.122   9.850   2.663  3.1405 -0.1397  0.3741
  203MOL0     H28000   4.948   9.390   2.860  0.3305 -0.9400 -0.0616
  203MOL0     H28001   4.920   9.258   3.048 -0.6578 -0.7623  3.0696
  203MOL0     H28002   4.948   9.339   3.481  0.5386  0.3048 -0.3436
  203MOL0     H28003   4.827   9.464   3.420  2.7146  0.1459 -1.0388
  203MOL0     H28004   4.786   9.166   3.457 -0.6517 -0.4161  2.7127
  203MOL0     H28005   4.672   9.271   3.385  5.0194  1.3964 -3.7373
  203MOL0     H28006   4.759   9.250   3.672  2.5564  2.4442  0.1692
  203MOL0     H28007   4.693   9.407   3.607 -1.7474  0.0208 -0.1734
  203MOL0     H28008   4.570   9.132   3.628  2.3667  0.2281  1.8925
  203MOL0     H28009   4.476   9.270   3.569 -2.5169 -3.9355  1.8338
  203MOL0     H28010   4.499   9.368   3.977  1.5687  3.0040 -1.2356
  203MOL0     H28011   5.007   9.571   3.321 -0.0546 -1.2359  0.8501
  203MOL0     H28012   5.023   9.834   3.104 -2.0545 -1.8932 -1.7443
  203MOL0     H28013   5.141   9.767   3.229  0.9596  1.5872 -0.7207
  203MOL0     H28014   5.175   9.763   3.068  0.8169  1.1520  1.5451
  204MOL0     O28015   4.770   3.217   8.774  1.4532  0.0709  0.0236
  204MOL0     C28016   4.769   3.338   8.804  0.4966 -0.1847  0.6399
  204MOL0     O28017   4.654   3.410   8.823 -0.9613  0.1397 -0.6238
  204MOL0     C28018   4.534   3.354   8.830  0.7313  0.4273 -0.2839
  204MOL0     C28019   4.478   3.295   8.712 -0.3165  0.7127 -1.0919
  204MOL0     C28020   4.362   3.213   8.719 -0.2982 -0.2121  0.2801
  204MOL0     C28021   4.287   3.214   8.836  0.4410  0.0653  0.6735
  204MOL0     O28022   4.166   3.150   8.852 -0.1609 -0.1917  0.5397
  204MOL0     C28023   4.107   3.076   8.748 -0.1281  0.5629 -0.0004
  204MOL0     C28024   3.950   3.061   8.786  0.1784 -0.1416  0.5688
  204MOL0     C28025   3.928   2.914   8.816  0.4769 -0.0091  0.0894
  204MOL0     C28026   3.788   2.879   8.878  0.5635 -0.6195  0.4161
  204MOL0     C28027   3.802   2.753   8.965  0.5374 -0.5308  0.2430
  204MOL0     C28028   3.674   2.702   9.040  0.1976  0.5878  0.6040
  204MOL0     C28029   3.541   2.686   8.965 -0.5474 -0.2626 -0.1474
  204MOL0     C28030   3.558   2.563   8.872  0.5198  0.2245 -0.0967
  204MOL0     N28031   3.541   2.435   8.936  0.4275 -0.9082  0.1653
  204MOL0     C28032   3.510   2.411   9.064  0.6462 -0.5634  0.0474
  204MOL0     C28033   3.498   2.272   9.067  0.0875  0.3069 -0.4396
  204MOL0     C28034   3.483   2.173   9.178 -0.5183 -0.4113  0.0474
  204MOL0     C28035   3.400   2.226   9.288 -0.7728  0.2159  1.1261
  204MOL0     C28036   3.252   2.239   9.249  0.5232 -0.5795  0.0552
  204MOL0     C28037   3.186   2.361   9.317  0.0267  0.0650 -0.5715
  204MOL0     O28038   3.232   2.494   9.285  0.1065 -0.1697 -0.0139
  204MOL0     C28039   3.182   2.602   9.363 -0.9412 -0.5865  0.3481
  204MOL0     C28040   3.244   2.725   9.345  0.4228 -0.5905  0.5739
  204MOL0     C28041   3.194   2.844   9.412 -0.8838  0.4192 -0.2380
  204MOL0     C28042   3.271   2.971   9.382 -0.3913 -0.0768  0.2389
  204MOL0     C28043   3.079   2.839   9.492  0.4119 -0.2064  0.9894
  204MOL0     C28044   3.028   2.959   9.567  0.5036 -0.9413 -0.7062
  204MOL0     O28045   2.893   2.982   9.591 -0.0540 -0.5631  0.7011
  204MOL0     C28046   2.870   3.104   9.655 -0.2896 -0.2008  0.0003
  204MOL0     C28047   2.869   3.219   9.568 -0.1983  0.6665  0.0534
  204MOL0     C28048   2.823   3.336   9.634 -0.9144 -0.3093  0.1108
  204MOL0     C28049   2.788   3.342   9.768  0.5818 -0.1401 -0.5462
  204MOL0     O28050   2.744   3.453   9.839 -0.0867  0.7770  0.1786
  204MOL0     C28051   2.609   3.489   9.802  0.3724 -0.3596  0.4836
  204MOL0     C28052   2.593   3.631   9.848 -0.8207 -0.4496 -1.1417
  204MOL0     C28053   2.480   3.708   9.769  0.1555 -0.1887 -1.3520
  204MOL0     C28054   2.334   3.645   9.807  0.0236  0.0195  1.0980
  204MOL0     C28055   2.232   3.746   9.737 -0.4410  0.4412  1.1131
  204MOL0     C28056   2.090   3.695   9.726 -0.2809 -0.9666  0.0541
  204MOL0     C28057   2.082   3.549   9.671  0.5469 -1.1879 -0.0821
  204MOL0     C28058   1.950   3.530   9.604  0.3526  0.3432 -0.9142
  204MOL0    Cl28059   1.901   3.659   9.477  0.2474  0.0118  0.0577
  204MOL0     C28060   2.787   3.228   9.840  0.5990 -0.4668 -0.3617
  204MOL0     C28061   2.837   3.112   9.794 -0.4945  0.2190 -0.5316
  204MOL0     O28062   3.121   3.036   9.611  0.2032 -0.0197 -0.2439
  204MOL0     C28063   3.013   2.711   9.508 -0.8998  0.3153  0.5715
  204MOL0     C28064   3.067   2.601   9.447  1.0881 -0.0658 -0.1811
  204MOL0     N28065   3.505   2.233   8.942 -0.0785  0.4645 -0.5964
  204MOL0     N28066   3.534   2.322   8.861 -0.3071 -0.0187 -0.0716
  204MOL0     C28067   4.334   3.288   8.950  0.2916 -0.0812 -0.0459
  204MOL0     C28068   4.447   3.354   8.939 -0.2338  0.0476  1.0714
  204MOL0     C28069   4.895   3.413   8.818  0.9590  0.9536 -0.1295
  204MOL0     C28070   4.901   3.527   8.905 -0.0681 -0.4199 -0.5635
  204MOL0     C28071   5.023   3.590   8.930  0.1941  0.0004 -1.3119
  204MOL0     C28072   5.136   3.547   8.875 -0.7485  1.1763  0.2992
  204MOL0     O28073   5.257   3.608   8.883  0.6367  0.0698  0.1636
  204MOL0     C28074   5.260   3.737   8.937  0.4381 -0.5515  0.0120
  204MOL0     C28075   5.397   3.794   8.923 -0.2375  0.4499 -0.1235
  204MOL0     C28076   5.407   3.937   8.962 -0.8050 -0.0943  1.1117
  204MOL0     C28077   5.555   3.970   8.994 -0.3839  0.0475  0.0015
  204MOL0     C28078   5.607   3.930   9.131  0.8862  0.5656  0.2809
  204MOL0     C28079   5.654   3.914   9.241 -0.0190  0.8177 -0.0922
  204MOL0     C28080   5.135   3.443   8.784 -0.1884  0.0106  0.2387
  204MOL0     C28081   5.016   3.376   8.749 -0.1714 -0.4347 -0.6123
  204MOL0     C28082   5.020   3.263   8.643 -0.1497  0.7899  0.1051
  204MOL0     H28083   4.522   3.303   8.613 -3.3032 -0.1837 -2.6001
  204MOL0     H28084   4.340   3.157   8.629  1.2038 -0.5027  0.0667
  204MOL0     H28085   4.156   2.979   8.754  1.9630  1.5963  0.3560
  204MOL0     H28086   4.120   3.124   8.651  2.5611  2.2220  1.0784
  204MOL0     H28087   3.935   3.120   8.876  1.4199  0.1844  0.5813
  204MOL0     H28088   3.894   3.097   8.699  2.8564  2.2033 -0.3374
  204MOL0     H28089   3.932   2.862   8.719  0.3047 -0.2874  0.2294
  204MOL0     H28090   4.010   2.876   8.878 -2.4458 -3.9658  1.9749
  204MOL0     H28091   3.746   2.961   8.937  0.3702 -0.4227  0.0108
  204MOL0     H28092   3.712   2.865   8.800 -1.6082 -3.7781  2.8375
  204MOL0     H28093   3.878   2.765   9.043 -1.2699  0.2594  1.9502
  204MOL0     H28094   3.834   2.671   8.899  0.0343 -1.4632  1.1266
  204MOL0     H28095   3.694   2.607   9.090 -0.9949 -1.3068 -2.2659
  204MOL0     H28096   3.645   2.766   9.124 -0.8123 -0.9723  1.5040
  204MOL0     H28097   3.528   2.785   8.922 -1.6652  0.0599  0.8638
  204MOL0     H28098   3.454   2.686   9.031  0.4084 -2.3116  1.2411
  204MOL0     H28099   3.480   2.565   8.795 -1.1821  1.8240  1.5668
  204MOL0     H28100   3.653   2.564   8.819 -0.0042  0.0198 -1.0708
  204MOL0     H28101   3.513   2.479   9.148  5.5594 -0.8416  0.3920
  204MOL0     H28102   3.576   2.128   9.215 -0.0929 -0.2952 -0.8646
  204MOL0     H28103   3.434   2.085   9.134 -0.1173  0.1579 -1.6159
  204MOL0     H28104   3.421   2.164   9.376  1.1345 -1.4924 -0.4436
  204MOL0     H28105   3.449   2.320   9.315  1.7912  0.1615 -2.6454
  204MOL0     H28106   3.237   2.252   9.142 -3.3676 -0.5984  0.4708
  204MOL0     H28107   3.204   2.148   9.285 -0.2884 -0.4224 -0.6217
  204MOL0     H28108   3.078   2.357   9.301 -0.0963 -1.0296  0.4833
  204MOL0     H28109   3.214   2.348   9.422  3.6997  2.0191 -1.1252
  204MOL0     H28110   3.328   2.732   9.276  0.0216 -0.3526  0.1080
  204MOL0     H28111   3.212   3.062   9.369  2.4376  1.8460 -0.1236
  204MOL0     H28112   3.299   2.960   9.277  2.6899  1.2106  0.7978
  204MOL0     H28113   3.369   2.966   9.431  1.2994 -0.4221 -2.9321
  204MOL0     H28114   2.895   3.212   9.463 -0.9537 -0.9717 -0.0490
  204MOL0     H28115   2.827   3.430   9.581  1.3615  0.1446  0.9420
  204MOL0     H28116   2.591   3.486   9.695 -1.0206  2.9677  0.5083
  204MOL0     H28117   2.532   3.430   9.851  1.0934 -1.0159  0.8572
  204MOL0     H28118   2.581   3.646   9.955 -0.2071  3.6575 -1.5124
  204MOL0     H28119   2.686   3.685   9.831 -0.7805  0.5695  1.8121
  204MOL0     H28120   2.496   3.724   9.662 -0.1003 -0.6349 -1.4586
  204MOL0     H28121   2.487   3.806   9.817 -1.8247 -1.9350  3.0896
  204MOL0     H28122   2.319   3.645   9.915 -3.2746 -2.8927  0.8469
  204MOL0     H28123   2.330   3.537   9.785  0.7855  0.2670 -0.3858
  204MOL0     H28124   2.238   3.844   9.784 -0.7485  1.3974 -0.7403
  204MOL0     H28125   2.259   3.765   9.633 -1.0107  0.7443  1.0216
  204MOL0     H28126   2.046   3.779   9.671  2.1806  2.6865  3.1378
  204MOL0     H28127   2.033   3.694   9.819 -1.4097 -0.8481 -0.6175
  204MOL0     H28128   2.077   3.473   9.749 -2.8476 -3.8242 -2.5324
  204MOL0     H28129   2.159   3.524   9.598 -0.5386 -1.0434 -1.3215
  204MOL0     H28130   1.880   3.495   9.680  0.9224  3.2424  1.0742
  204MOL0     H28131   1.967   3.439   9.546 -0.1496  1.7707 -3.4218
  204MOL0     H28132   2.761   3.247   9.943  2.5914  0.7976 -0.0325
  204MOL0     H28133   2.838   3.022   9.855 -4.7615 -1.2233 -2.1769
  204MOL0     H28134   2.924   2.704   9.569 -0.8889  0.4934  0.6092
  204MOL0     H28135   3.013   2.508   9.462 -2.1500  1.2394 -2.5920
  204MOL0     H28136   4.273   3.307   9.038 -1.6397  1.5123 -1.6226
  204MOL0     H28137   4.491   3.418   9.015  1.7342  2.0839 -1.5373
  204MOL0     H28138   4.819   3.557   8.969  0.7247 -0.7772  0.6623
  204MOL0     H28139   5.023   3.677   8.995 -3.5902 -1.4141  0.9264
  204MOL0     H28140   5.182   3.796   8.888 -0.0983 -1.6989 -0.5557
  204MOL0     H28141   5.232   3.731   9.042  0.5665  0.9320  0.1434
  204MOL0     H28142   5.435   3.768   8.823  2.0063  1.7433  0.3185
  204MOL0     H28143   5.462   3.740   8.993  0.4923  1.1235 -0.2644
  204MOL0     H28144   5.369   3.998   8.880 -0.6651 -1.8258 -0.3126
  204MOL0     H28145   5.336   3.948   9.045 -2.2599  0.0964 -0.1043
  204MOL0     H28146   5.564   4.079   8.990 -1.7332  0.1496 -0.4792
  204MOL0     H28147   5.620   3.927   8.917 -0.5843  0.1169 -0.2047
  204MOL0     H28148   5.681   3.897   9.343 -0.1894  1.5784  0.0832
  204MOL0     H28149   5.232   3.423   8.740  0.4734  1.6460  0.8692
  204MOL0     H28150   4.943   3.276   8.567 -1.3726  3.5269  1.6532
  204MOL0     H28151   5.121   3.265   8.601  0.3989 -1.8500  1.0982
  204MOL0     H28152   4.997   3.174   8.703 -2.2019  0.4847 -1.0425
  205MOL0     O28153   9.177   9.169   0.233 -0.3086 -0.6233 -0.0388
  205MOL0     C28154   9.147   9.283   0.279  0.5065  0.1339  0.3624
  205MOL0     O28155   9.030   9.309   0.339  0.2243 -0.3640  0.4622
  205MOL0     C28156   8.960   9.207   0.400  0.2506  0.9572 -0.4516
  205MOL0     C28157   8.946   9.181   0.534 -0.8839 -0.2634  0.3918
  205MOL0     C28158   8.855   9.084   0.572  0.5053 -0.0023 -0.5071
  205MOL0     C28159   8.772   9.013   0.475 -0.5500 -0.0814 -0.2466
  205MOL0     O28160   8.672   8.920   0.512 -0.0535 -0.2199 -0.2011
  205MOL0     C28161   8.619   8.919   0.644 -0.5428 -0.5118 -0.1834
  205MOL0     C28162   8.494   8.849   0.621  0.7536 -1.0314  0.0597
  205MOL0     C28163   8.423   8.858   0.752 -0.6316  0.5192 -0.9034
  205MOL0     C28164   8.306   8.755   0.767  0.0197 -0.5632  0.7087
  205MOL0     C28165   8.205   8.803   0.872 -0.5095  0.0613 -0.0409
  205MOL0     C28166   8.102   8.902   0.820 -0.0024  0.2322  0.3410
  205MOL0     C28167   7.994   8.949   0.916 -0.0350 -0.1308  0.1128
  205MOL0     C28168   8.043   9.055   1.014  0.2555  0.3798 -0.0306
  205MOL0     N28169   7.928   9.109   1.088  0.0158  0.8325  1.1460
  205MOL0     C28170   7.877   9.048   1.200  0.3880  0.3153  0.6246
  205MOL0     C28171   7.746   9.068   1.191 -0.1731 -0.9533  0.9657
  205MOL0     C28172   7.651   9.042   1.297 -0.2489  0.7040  1.1441
  205MOL0     C28173   7.607   9.172   1.361  0.4277  0.3163  0.1485
  205MOL0     C28174   7.716   9.251   1.438 -1.0690  0.6688  0.0007
  205MOL0     C28175   7.658   9.391   1.462  0.5665 -0.2551 -0.1403
  205MOL0     O28176   7.757   9.455   1.537  0.3008  0.3151  1.0386
  205MOL0     C28177   7.758   9.465   1.673 -0.2640  0.7737 -1.3088
  205MOL0     C28178   7.875   9.527   1.725  0.1617  0.7295  0.7171
  205MOL0     C28179   7.878   9.564   1.853 -0.5625  0.0534 -0.7505
  205MOL0     C28180   8.010   9.640   1.893  0.1310 -0.3570 -0.3908
  205MOL0     C28181   7.779   9.510   1.941 -0.4380  0.0477 -1.1879
  205MOL0     C28182   7.801   9.509   2.096 -0.1176 -0.4720 -0.3914
  205MOL0     O28183   7.910   9.569   2.150 -0.3622 -0.7188 -0.2576
  205MOL0     C28184   7.929   9.590   2.282 -1.0378  0.5128  0.9847
  205MOL0     C28185   7.837   9.651   2.371  0.3301  0.2086 -0.5674
  205MOL0     C28186   7.868   9.687   2.501 -0.5938  0.1961  0.1620
  205MOL0     C28187   7.989   9.626   2.549 -0.1029  0.3286  0.8324
  205MOL0     O28188   8.014   9.646   2.676  0.3417  0.5173  0.5384
  205MOL0     C28189   8.126   9.580   2.743 -0.8989  1.0620 -0.3188
  205MOL0     C28190   8.095   9.572   2.895 -0.4101  0.4977  0.5105
  205MOL0     C28191   8.207   9.525   2.978  0.8975 -0.3654  0.0973
  205MOL0     C28192   8.256   9.387   2.948 -0.1350  0.4363  0.1948
  205MOL0     C28193   8.379   9.362   3.045 -0.7636 -0.2272  0.3710
  205MOL0     C28194   8.426   9.211   3.041 -0.5517  0.0626  0.5130
  205MOL0     C28195   8.504   9.188   2.914  0.6516 -0.4916  0.3364
  205MOL0     C28196   8.546   9.036   2.920  0.4680 -0.5255 -0.5380
  205MOL0    Cl28197   8.647   8.989   3.056 -0.3004 -0.0623 -0.3666
  205MOL0     C28198   8.088   9.567   2.464  0.5566  0.8993  0.5918
  205MOL0     C28199   8.057   9.565   2.325 -0.5567 -0.2231  0.1849
  205MOL0     O28200   7.711   9.466   2.164  0.1709 -0.3841 -0.6650
  205MOL0     C28201   7.667   9.444   1.891  0.4316 -0.4390 -0.2922
  205MOL0     C28202   7.654   9.418   1.759 -0.2517 -0.1020 -0.2543
  205MOL0     N28203   7.710   9.126   1.073  1.0056 -0.0207  0.4311
  205MOL0     N28204   7.822   9.155   1.006  0.6155  0.7349  0.8021
  205MOL0     C28205   8.800   9.033   0.343 -0.0525 -0.7364 -0.5900
  205MOL0     C28206   8.888   9.134   0.309  0.9292  0.3390  0.0708
  205MOL0     C28207   9.248   9.396   0.285  0.0230  0.0556  0.7427
  205MOL0     C28208   9.279   9.450   0.406 -0.3397 -1.0823  0.4520
  205MOL0     C28209   9.355   9.571   0.408 -0.4875  0.0194 -0.2712
  205MOL0     C28210   9.420   9.627   0.297 -0.0019 -0.8676 -0.1065
  205MOL0     O28211   9.504   9.737   0.324  0.6951  0.8704  0.0944
  205MOL0     C28212   9.560   9.813   0.209  0.0153  0.2581 -0.3229
  205MOL0     C28213   9.456   9.916   0.167 -0.1118  0.4054  0.4664
  205MOL0     C28214   9.516  10.018   0.063  0.1016  0.5288 -0.2848
  205MOL0     C28215   9.629  10.111   0.106  0.0329 -0.2052 -0.0493
  205MOL0     C28216   9.684  10.175  -0.013 -0.0612  0.5334 -0.3635
  205MOL0     C28217   9.725  10.220  -0.114 -0.2173 -0.4532 -0.2391
  205MOL0     C28218   9.398   9.563   0.176  0.3714  0.0956  0.0503
  205MOL0     C28219   9.317   9.448   0.170  0.4917 -0.3610 -0.8307
  205MOL0     C28220   9.302   9.397   0.033 -0.2323 -0.4124 -0.9453
  205MOL0     H28221   8.995   9.247   0.605 -1.6337  0.1620  0.5218
  205MOL0     H28222   8.842   9.048   0.674  0.1783 -2.9458 -1.4917
  205MOL0     H28223   8.600   9.023   0.673 -0.2403 -0.1212 -1.3259
  205MOL0     H28224   8.684   8.879   0.723 -2.4380  0.9673  2.2858
  205MOL0     H28225   8.450   8.908   0.540  3.2194  1.3532  0.3269
  205MOL0     H28226   8.512   8.748   0.583  0.8963  0.4240 -4.2820
  205MOL0     H28227   8.495   8.852   0.834  1.3626  3.8990 -2.2014
  205MOL0     H28228   8.392   8.962   0.768 -0.6764  0.4556 -0.5769
  205MOL0     H28229   8.255   8.741   0.672  1.9723  0.9906 -0.6476
  205MOL0     H28230   8.349   8.658   0.792 -0.8618 -1.9642 -2.6724
  205MOL0     H28231   8.262   8.845   0.955  1.5904 -1.1026 -0.8280
  205MOL0     H28232   8.155   8.722   0.925 -0.5428 -0.6231 -1.0773
  205MOL0     H28233   8.156   8.991   0.787 -0.2633  0.6982  1.1346
  205MOL0     H28234   8.055   8.879   0.724  3.6726  1.8212 -2.0754
  205MOL0     H28235   7.954   8.869   0.980 -0.7545  1.6385  2.0180
  205MOL0     H28236   7.901   8.974   0.864 -1.6163 -4.8739  0.1785
  205MOL0     H28237   8.113   9.014   1.087 -0.0423  2.5463  1.5711
  205MOL0     H28238   8.094   9.127   0.950  2.5899 -1.9563 -0.9776
  205MOL0     H28239   7.931   9.013   1.288 -1.2818 -1.3254  1.0753
  205MOL0     H28240   7.701   8.982   1.373  1.1994  0.1132 -0.2329
  205MOL0     H28241   7.565   8.987   1.257 -0.1381  1.4215 -0.1319
  205MOL0     H28242   7.584   9.221   1.266  0.8075 -4.2373 -2.5635
  205MOL0     H28243   7.515   9.162   1.421  0.4743  3.3014  0.8789
  205MOL0     H28244   7.750   9.200   1.528  2.0150 -1.0380 -1.9569
  205MOL0     H28245   7.804   9.256   1.373 -2.3698 -0.2937 -1.9297
  205MOL0     H28246   7.638   9.445   1.369  0.2654  2.3178  1.3235
  205MOL0     H28247   7.562   9.404   1.512  1.2773  0.8624  1.0267
  205MOL0     H28248   7.959   9.543   1.658  1.8076 -4.5265  1.0536
  205MOL0     H28249   8.075   9.556   1.919 -0.0200 -0.1447  0.7140
  205MOL0     H28250   8.003   9.710   1.977  2.1743  1.6965 -1.8097
  205MOL0     H28251   8.048   9.703   1.812 -3.5859  2.1297 -0.4083
  205MOL0     H28252   7.738   9.680   2.338 -0.4442 -0.9376  0.6060
  205MOL0     H28253   7.806   9.755   2.558  1.6294  0.4647  2.4251
  205MOL0     H28254   8.134   9.479   2.703  3.0596  2.1762 -2.8947
  205MOL0     H28255   8.228   9.612   2.719 -0.5395 -0.1219 -0.4487
  205MOL0     H28256   8.066   9.675   2.917 -4.1123  0.2878 -2.2698
  205MOL0     H28257   8.010   9.505   2.912 -0.4306  0.6099  0.8489
  205MOL0     H28258   8.175   9.535   3.083  2.9461  0.0458  0.7241
  205MOL0     H28259   8.289   9.595   2.963  1.8140 -1.8313 -2.2294
  205MOL0     H28260   8.293   9.381   2.845 -0.2425  1.8072  0.0551
  205MOL0     H28261   8.181   9.308   2.961  2.3065 -1.8871  0.9001
  205MOL0     H28262   8.463   9.428   3.024  0.3243 -1.7992 -0.3753
  205MOL0     H28263   8.348   9.369   3.149 -2.6734  0.3308 -0.1815
  205MOL0     H28264   8.355   9.132   3.065  0.2737 -0.4066  1.4718
  205MOL0     H28265   8.490   9.195   3.129 -0.6103 -2.4515  0.1792
  205MOL0     H28266   8.594   9.247   2.895 -0.1218  0.8850  0.7842
  205MOL0     H28267   8.454   9.187   2.816 -1.6347 -0.0944  1.4360
  205MOL0     H28268   8.612   9.013   2.836  1.3983  0.1595 -0.0151
  205MOL0     H28269   8.461   8.970   2.903 -1.2734  1.7314 -0.9683
  205MOL0     H28270   8.182   9.524   2.496 -0.2790 -0.8077  0.8533
  205MOL0     H28271   8.128   9.532   2.249  0.5080  1.8668  0.1994
  205MOL0     H28272   7.578   9.436   1.953  0.4110  0.9704 -0.1037
  205MOL0     H28273   7.559   9.385   1.719  0.4730  0.8369 -2.9249
  205MOL0     H28274   8.752   8.974   0.265  1.8562 -1.0381 -1.5887
  205MOL0     H28275   8.904   9.150   0.203  2.1562 -1.4830 -0.0801
  205MOL0     H28276   9.237   9.416   0.500  0.3759  0.2371  1.2715
  205MOL0     H28277   9.371   9.614   0.507  0.3190  0.2937 -0.5185
  205MOL0     H28278   9.648   9.858   0.256  0.3549 -0.9985  0.2933
  205MOL0     H28279   9.587   9.747   0.127  1.3238  1.1182 -0.6146
  205MOL0     H28280   9.422   9.972   0.255  0.2374 -1.9811  2.2339
  205MOL0     H28281   9.362   9.877   0.127 -0.0718  1.1588 -0.3888
  205MOL0     H28282   9.547   9.956  -0.022  1.3224  0.4424  0.2085
  205MOL0     H28283   9.435  10.082   0.027 -0.2459  2.2484  3.1563
  205MOL0     H28284   9.707  10.056   0.160  0.5071  0.9261  0.4650
  205MOL0     H28285   9.591  10.185   0.177  1.5294  2.0028 -1.3979
  205MOL0     H28286   9.754  10.268  -0.205  3.3465 -0.0100  0.9846
  205MOL0     H28287   9.458   9.588   0.089 -0.6246  1.0390 -0.3874
  205MOL0     H28288   9.303   9.288   0.042  4.1508 -0.3590  2.1495
  205MOL0     H28289   9.198   9.416   0.005 -0.7480 -2.3090 -0.4710
  205MOL0     H28290   9.371   9.430  -0.046  0.1180 -0.9280 -0.8616
  206MOL0     O28291   7.401   9.571   5.617 -0.4570 -0.1072 -0.6307
  206MOL0     C28292   7.406   9.576   5.738  0.4056 -0.1264 -0.0708
  206MOL0     O28293   7.294   9.596   5.818  0.2679  0.2263 -0.6077
  206MOL0     C28294   7.174   9.592   5.760  0.1799  0.2171  0.7539
  206MOL0     C28295   7.103   9.715   5.730  0.0743 -0.3015 -0.2669
  206MOL0     C28296   6.983   9.708   5.649 -0.8595  0.0235  0.3310
  206MOL0     C28297   6.935   9.588   5.602 -0.4145 -0.3900  0.1573
  206MOL0     O28298   6.818   9.572   5.530  0.4576 -0.5531 -0.2007
  206MOL0     C28299   6.747   9.690   5.490 -0.2275  1.4218  0.4511
  206MOL0     C28300   6.614   9.658   5.415  0.3267 -0.2162 -0.9649
  206MOL0     C28301   6.507   9.775   5.433 -0.7297 -0.4410 -0.2758
  206MOL0     C28302   6.431   9.765   5.565 -0.1813 -0.1990  0.4752
  206MOL0     C28303   6.299   9.831   5.577 -0.4070  0.8443  0.0265
  206MOL0     C28304   6.308   9.987   5.551 -0.2230  0.6842  0.7766
  206MOL0     C28305   6.176  10.057   5.577  0.2718 -0.8293  0.1771
  206MOL0     C28306   6.177  10.205   5.533 -0.4221  0.9815  0.0725
  206MOL0     N28307   6.046  10.266   5.541 -1.0038  0.1603 -0.2626
  206MOL0     C28308   5.979  10.268   5.664 -0.3938  0.3356  0.6457
  206MOL0     C28309   5.866  10.338   5.640  1.4136 -0.2778  0.5018
  206MOL0     C28310   5.766  10.382   5.747 -0.6029  0.5915  0.3386
  206MOL0     C28311   5.642  10.446   5.695  1.2867  1.0036 -0.0275
  206MOL0     C28312   5.535  10.327   5.643  0.1876  0.1673  0.1677
  206MOL0     C28313   5.416  10.374   5.553 -0.1111 -0.3940 -0.6826
  206MOL0     O28314   5.337  10.478   5.619  0.4156 -0.2149 -0.7104
  206MOL0     C28315   5.220  10.440   5.678  0.1175 -0.6826  0.0302
  206MOL0     C28316   5.148  10.316   5.694 -0.5933 -1.0582 -0.0644
  206MOL0     C28317   5.020  10.309   5.737  0.2159 -0.3258  0.1470
  206MOL0     C28318   4.952  10.174   5.731 -0.5440 -0.1547  0.7058
  206MOL0     C28319   4.957  10.426   5.780  0.7010 -0.2650  0.5996
  206MOL0     C28320   4.819  10.423   5.846 -0.0524  0.3735  0.0986
  206MOL0     O28321   4.742  10.542   5.823 -0.5017 -0.3743 -0.0150
  206MOL0     C28322   4.623  10.571   5.884 -0.0560 -0.2096  0.4684
  206MOL0     C28323   4.516  10.604   5.814  0.7279  0.2054  0.5612
  206MOL0     C28324   4.387  10.640   5.862  0.8025 -0.4612  1.1595
  206MOL0     C28325   4.371  10.615   6.002 -0.5168 -0.2230 -0.6537
  206MOL0     O28326   4.243  10.631   6.056  0.6569 -1.2989  0.0625
  206MOL0     C28327   4.227  10.664   6.197  0.2078 -0.6395  0.3661
  206MOL0     C28328   4.077  10.717   6.222  0.2007 -0.1010  0.4591
  206MOL0     C28329   4.049  10.753   6.370 -0.1243  0.3259  0.5997
  206MOL0     C28330   3.973  10.889   6.384  0.7141  0.3424 -0.3214
  206MOL0     C28331   4.067  11.020   6.369  0.5461  0.4901 -0.9298
  206MOL0     C28332   3.983  11.131   6.315 -1.0797  0.8528  0.3224
  206MOL0     C28333   3.840  11.151   6.380 -0.2141 -1.3584  0.6432
  206MOL0     C28334   3.803  11.298   6.332  0.1985  0.8552 -0.1526
  206MOL0    Cl28335   3.624  11.297   6.353  0.0916  0.3226 -0.3391
  206MOL0     C28336   4.471  10.557   6.073 -0.6456 -1.0121 -0.8371
  206MOL0     C28337   4.602  10.543   6.016  0.6851 -0.9002  0.2929
  206MOL0     O28338   4.787  10.321   5.902  0.2300  0.0506  0.7072
  206MOL0     C28339   5.023  10.546   5.759 -0.3227 -0.8254 -0.6787
  206MOL0     C28340   5.153  10.555   5.719  0.2105 -0.3944  0.7791
  206MOL0     N28341   5.865  10.373   5.503  0.2748  0.8698  0.7158
  206MOL0     N28342   5.965  10.318   5.447 -0.4824  0.4334  0.2087
  206MOL0     C28343   7.007   9.472   5.631  0.5722  0.4595  0.3119
  206MOL0     C28344   7.126   9.471   5.704 -1.1424  0.8993 -0.0335
  206MOL0     C28345   7.526   9.527   5.800  0.7564  0.3186 -0.3719
  206MOL0     C28346   7.594   9.419   5.743  0.0284 -0.0437 -1.0187
  206MOL0     C28347   7.704   9.371   5.805 -1.0617  0.6873  0.3669
  206MOL0     C28348   7.756   9.420   5.927  0.7168  0.7333  0.2479
  206MOL0     O28349   7.862   9.375   6.009  0.6455 -0.5397  0.0068
  206MOL0     C28350   7.966   9.286   5.967  0.3809  0.5652 -0.7188
  206MOL0     C28351   8.054   9.257   6.083 -1.0473 -0.2785 -0.3666
  206MOL0     C28352   8.158   9.145   6.059  0.5621 -0.8858  0.4518
  206MOL0     C28353   8.263   9.193   5.960  0.0431 -0.7266  0.6458
  206MOL0     C28354   8.352   9.089   5.903 -0.5355 -0.4391  0.3752
  206MOL0     C28355   8.421   8.999   5.864 -0.2967  0.4500  0.0559
  206MOL0     C28356   7.684   9.531   5.986 -0.3177  1.2422  0.3821
  206MOL0     C28357   7.572   9.575   5.933 -1.1966 -0.8331  0.6387
  206MOL0     C28358   7.530   9.712   5.985  0.1311 -0.1051  0.6116
  206MOL0     H28359   7.131   9.807   5.782 -3.1736 -0.5221  2.1874
  206MOL0     H28360   6.934   9.804   5.636 -1.3731 -0.1513  0.9066
  206MOL0     H28361   6.813   9.746   5.423  2.0795 -0.2740  1.1526
  206MOL0     H28362   6.718   9.758   5.570 -1.7428  4.1615 -2.2340
  206MOL0     H28363   6.627   9.640   5.308  0.4960  1.8458 -1.3331
  206MOL0     H28364   6.569   9.570   5.462 -1.9144  1.7750  0.8583
  206MOL0     H28365   6.558   9.870   5.418  2.9866 -2.3544 -0.8322
  206MOL0     H28366   6.431   9.771   5.354 -0.8546  2.1147 -0.3587
  206MOL0     H28367   6.419   9.659   5.589  2.4840 -1.0169 -1.2812
  206MOL0     H28368   6.505   9.784   5.643  2.8228 -1.2844 -1.8865
  206MOL0     H28369   6.260   9.818   5.679 -0.5703  1.2606  0.0173
  206MOL0     H28370   6.224   9.794   5.507 -1.0758  0.0939  1.1137
  206MOL0     H28371   6.387  10.034   5.610  1.9345  1.5713 -2.5800
  206MOL0     H28372   6.341   9.997   5.448  1.2099 -0.7591  1.0572
  206MOL0     H28373   6.161  10.055   5.685  0.4149  1.0080  0.2552
  206MOL0     H28374   6.090  10.010   5.528  0.4338  1.5864 -2.7034
  206MOL0     H28375   6.249  10.255   5.599 -1.3717  0.9953  1.1238
  206MOL0     H28376   6.217  10.205   5.431  2.9282  2.5212  1.2217
  206MOL0     H28377   6.020  10.226   5.755  1.9542 -0.1632 -0.5498
  206MOL0     H28378   5.814  10.463   5.803 -1.3223 -0.6586  2.9010
  206MOL0     H28379   5.751  10.304   5.822  1.4283  1.8528  2.2130
  206MOL0     H28380   5.594  10.510   5.771 -1.2244  1.7660 -2.0996
  206MOL0     H28381   5.655  10.505   5.604 -0.1043  0.0425 -0.8837
  206MOL0     H28382   5.575  10.247   5.581 -1.6811 -2.2619  1.8785
  206MOL0     H28383   5.487  10.277   5.728 -3.1333 -0.0089 -1.6392
  206MOL0     H28384   5.449  10.407   5.454  0.3818  0.7199 -0.1652
  206MOL0     H28385   5.361  10.282   5.531 -0.0228 -1.2620  2.2350
  206MOL0     H28386   5.197  10.225   5.661  0.7836 -0.3558 -0.0193
  206MOL0     H28387   5.015  10.107   5.670 -2.7205 -2.2168  0.5782
  206MOL0     H28388   4.848  10.176   5.696 -0.5566  0.0141  0.7549
  206MOL0     H28389   4.948  10.122   5.827  0.5692 -1.4748  0.0836
  206MOL0     H28390   4.521  10.632   5.709 -1.1711 -0.6305  0.2007
  206MOL0     H28391   4.309  10.683   5.800  1.1105  1.1393  1.8186
  206MOL0     H28392   4.247  10.576   6.258 -0.1825 -2.7561 -2.3392
  206MOL0     H28393   4.297  10.740   6.232  0.9568 -1.2344  0.1711
  206MOL0     H28394   4.068  10.804   6.157 -0.8674 -0.1443  0.5237
  206MOL0     H28395   4.007  10.638   6.192 -2.7767  1.8884  1.6444
  206MOL0     H28396   4.139  10.767   6.431 -0.1224  1.0156  0.4466
  206MOL0     H28397   3.982  10.680   6.417 -0.3272  1.5054  2.2121
  206MOL0     H28398   3.931  10.882   6.484  0.2419 -1.1573 -0.6036
  206MOL0     H28399   3.890  10.878   6.313  0.0871 -2.4113  0.7301
  206MOL0     H28400   4.120  11.044   6.461  1.8956 -0.9040 -1.3056
  206MOL0     H28401   4.144  10.986   6.300 -0.1886 -0.3377 -1.3720
  206MOL0     H28402   3.982  11.134   6.205 -2.5287  1.7229  0.3428
  206MOL0     H28403   4.042  11.222   6.332 -0.9063  0.3574  2.6565
  206MOL0     H28404   3.857  11.160   6.487 -2.7215  1.0208  0.9299
  206MOL0     H28405   3.772  11.069   6.355 -0.7010 -0.9489  0.6314
  206MOL0     H28406   3.824  11.311   6.225 -3.2945  2.8700 -0.7353
  206MOL0     H28407   3.863  11.371   6.386  3.5504 -1.5608 -0.2912
  206MOL0     H28408   4.457  10.538   6.179  0.1161  6.3542  1.1383
  206MOL0     H28409   4.681  10.500   6.078  2.7439 -0.5956 -1.9647
  206MOL0     H28410   4.971  10.639   5.783  0.5065  0.5807 -3.7720
  206MOL0     H28411   5.196  10.652   5.698 -2.1101  0.4728 -0.3998
  206MOL0     H28412   6.963   9.378   5.600  1.3099  0.5739 -1.1440
  206MOL0     H28413   7.185   9.380   5.716 -0.8533  1.1736  0.6260
  206MOL0     H28414   7.556   9.363   5.658  1.6343 -2.3260 -0.3400
  206MOL0     H28415   7.766   9.294   5.762 -0.4094  1.9017 -0.9611
  206MOL0     H28416   7.915   9.194   5.935  1.5431  0.0785 -1.2258
  206MOL0     H28417   8.018   9.301   5.872 -3.4978 -0.0706 -3.1540
  206MOL0     H28418   7.995   9.214   6.165 -2.7938 -1.4269 -2.1387
  206MOL0     H28419   8.098   9.349   6.123 -3.3395  0.1935  1.2836
  206MOL0     H28420   8.208   9.131   6.155 -0.3911 -1.8894  0.8258
  206MOL0     H28421   8.102   9.056   6.026 -1.2194  1.3551 -3.1673
  206MOL0     H28422   8.324   9.265   6.016  0.6180 -0.6188 -0.1066
  206MOL0     H28423   8.224   9.249   5.874 -3.5431 -2.9970  0.5940
  206MOL0     H28424   8.471   8.917   5.815 -0.3444  1.4253 -1.7063
  206MOL0     H28425   7.715   9.577   6.079  4.4192 -1.4250  0.4619
  206MOL0     H28426   7.463   9.755   5.910  0.6248 -1.0502 -0.4085
  206MOL0     H28427   7.469   9.693   6.074 -1.0792 -2.3372 -0.5984
  206MOL0     H28428   7.617   9.777   5.997  0.8994 -0.7699 -1.0863
  207MOL0     O28429  10.166   8.868   3.169  0.2103 -0.3196 -0.1032
  207MOL0     C28430  10.080   8.777   3.187 -0.2672 -0.9695 -0.0806
  207MOL0     O28431  10.115   8.641   3.210  0.5415 -0.4211  0.6088
  207MOL0     C28432  10.228   8.598   3.144 -0.4716  0.0793 -0.2354
  207MOL0     C28433  10.208   8.474   3.087 -0.7335 -0.1526  0.2057
  207MOL0     C28434  10.319   8.401   3.057  0.0702  0.4849  0.3396
  207MOL0     C28435  10.457   8.450   3.050  0.5145 -0.8279 -0.2441
  207MOL0     O28436  10.551   8.364   3.007  0.0654 -0.0364 -0.4203
  207MOL0     C28437  10.688   8.403   3.002 -0.2970 -0.2935  0.6892
  207MOL0     C28438  10.774   8.276   2.980  0.0928 -0.0606 -0.2677
  207MOL0     C28439  10.915   8.309   2.923  0.1925 -0.0195 -0.6105
  207MOL0     C28440  10.955   8.180   2.848 -0.5281 -0.2365  0.1905
  207MOL0     C28441  11.103   8.192   2.797  0.6958 -0.1012  0.2346
  207MOL0     C28442  11.163   8.049   2.755  0.3850  0.9432  0.5466
  207MOL0     C28443  11.290   8.060   2.668 -0.1969  0.1765 -0.5368
  207MOL0     C28444  11.345   7.919   2.638 -1.5813  0.4248 -0.3411
  207MOL0     N28445  11.476   7.942   2.577 -0.4004 -0.8539 -0.0783
  207MOL0     C28446  11.576   8.019   2.631 -0.7603  0.5430  0.3119
  207MOL0     C28447  11.671   8.017   2.533 -0.1466 -0.6294  0.0910
  207MOL0     C28448  11.804   8.079   2.540 -0.0592 -0.6789 -0.3524
  207MOL0     C28449  11.798   8.208   2.463  1.0178  0.1435  1.3197
  207MOL0     C28450  11.945   8.255   2.437 -0.3342 -0.2030 -1.0857
  207MOL0     C28451  12.046   8.261   2.565 -0.2558 -0.3431  0.3933
  207MOL0     O28452  11.990   8.363   2.652  0.1982 -0.9829 -0.0908
  207MOL0     C28453  12.062   8.409   2.763 -1.1814  0.4061  0.3670
  207MOL0     C28454  12.169   8.320   2.809  0.0225  0.0998 -0.6420
  207MOL0     C28455  12.231   8.349   2.933 -0.1452  0.1392 -0.5623
  207MOL0     C28456  12.320   8.244   2.983 -0.1875 -0.8782  0.3722
  207MOL0     C28457  12.197   8.464   3.004  0.4485  0.4996  0.0522
  207MOL0     C28458  12.245   8.494   3.143 -0.3319  0.6721 -0.2299
  207MOL0     O28459  12.291   8.623   3.157 -0.5978  0.2070  0.3551
  207MOL0     C28460  12.321   8.684   3.275  0.9655  0.7178 -0.3474
  207MOL0     C28461  12.236   8.669   3.388 -0.4668  0.5798  0.5624
  207MOL0     C28462  12.267   8.731   3.519  0.0223 -0.2600  0.1331
  207MOL0     C28463  12.396   8.792   3.533  0.6009 -0.5973  1.0365
  207MOL0     O28464  12.441   8.837   3.658 -0.0569 -0.2490  0.1334
  207MOL0     C28465  12.394   8.968   3.690 -0.3886 -0.8109  0.2017
  207MOL0     C28466  12.362   8.983   3.834  0.4727  0.0889 -0.3907
  207MOL0     C28467  12.232   8.910   3.874  0.0722 -0.2238  0.3235
  207MOL0     C28468  12.227   8.907   4.025 -0.3428  2.2932 -0.6593
  207MOL0     C28469  12.077   8.886   4.071  0.8662 -0.4595  0.0839
  207MOL0     C28470  12.076   8.909   4.221  0.0968  0.9113 -0.0182
  207MOL0     C28471  11.940   8.869   4.282  0.3020 -0.6404 -0.0476
  207MOL0     C28472  11.921   8.922   4.424 -1.0766 -0.0604  0.1699
  207MOL0    Cl28473  11.793   8.837   4.507 -0.1227  0.5520  0.2022
  207MOL0     C28474  12.480   8.803   3.412  1.0573  1.1330  0.6876
  207MOL0     C28475  12.438   8.748   3.293 -0.2513 -0.0638 -0.4711
  207MOL0     O28476  12.236   8.403   3.236  0.8987 -0.3412  0.2365
  207MOL0     C28477  12.106   8.553   2.949 -1.1727 -0.2043 -0.6496
  207MOL0     C28478  12.034   8.520   2.831  0.0553 -0.4194 -0.8038
  207MOL0     N28479  11.636   7.943   2.421  0.0477 -0.5905 -0.0028
  207MOL0     N28480  11.519   7.901   2.455  0.3280  0.1342  0.0184
  207MOL0     C28481  10.475   8.579   3.110  0.7227 -0.1111  0.5601
  207MOL0     C28482  10.358   8.652   3.157  0.1945  0.0362  0.2790
  207MOL0     C28483   9.935   8.797   3.179 -0.1527 -0.5730  0.0142
  207MOL0     C28484   9.847   8.699   3.126 -0.4742  0.4212  0.4044
  207MOL0     C28485   9.708   8.714   3.110  0.6066  0.0090  0.0069
  207MOL0     C28486   9.641   8.821   3.168 -0.6818  0.0530  1.4692
  207MOL0     O28487   9.505   8.840   3.147  0.5303  0.2322 -0.0461
  207MOL0     C28488   9.436   8.912   3.249  0.2266 -1.4316 -0.5683
  207MOL0     C28489   9.293   8.890   3.214 -0.2955  0.0863  0.2161
  207MOL0     C28490   9.226   8.753   3.264  0.7110 -0.2366 -0.1544
  207MOL0     C28491   9.281   8.619   3.212  1.2108 -1.1552  0.2982
  207MOL0     C28492   9.307   8.625   3.062 -0.5515 -0.9046 -0.4344
  207MOL0     C28493   9.319   8.622   2.940 -0.5819  0.0833  0.7631
  207MOL0     C28494   9.721   8.917   3.223  0.4523  0.5690  0.0804
  207MOL0     C28495   9.862   8.902   3.243 -0.1834 -0.8870  0.0622
  207MOL0     C28496   9.935   9.016   3.317  0.3134 -0.7668 -0.5322
  207MOL0     H28497  10.116   8.418   3.103 -0.3079 -1.1705 -0.7124
  207MOL0     H28498  10.300   8.298   3.031  2.5674 -0.5816  2.2745
  207MOL0     H28499  10.726   8.455   3.090  1.2583 -1.2713  0.6476
  207MOL0     H28500  10.698   8.458   2.908 -0.9648 -3.7385 -1.5750
  207MOL0     H28501  10.786   8.223   3.076  0.3310 -2.2800 -1.4553
  207MOL0     H28502  10.716   8.206   2.920 -0.0057 -0.5440  0.3824
  207MOL0     H28503  10.916   8.389   2.848 -1.8537 -1.0878 -1.8617
  207MOL0     H28504  10.975   8.328   3.012 -0.2350 -0.9858 -0.0909
  207MOL0     H28505  10.950   8.102   2.925 -1.0428 -2.8302 -2.2983
  207MOL0     H28506  10.886   8.152   2.768 -1.9163 -2.3098  2.0034
  207MOL0     H28507  11.162   8.237   2.878 -1.1394 -0.1084  1.6549
  207MOL0     H28508  11.109   8.257   2.710  0.2477 -0.8715 -0.3863
  207MOL0     H28509  11.182   7.988   2.844  0.0735  2.7036  1.8783
  207MOL0     H28510  11.085   7.999   2.697 -0.2217  0.7471  1.5085
  207MOL0     H28511  11.366   8.126   2.709  0.9054 -1.7934  0.7893
  207MOL0     H28512  11.256   8.110   2.577 -0.2689  0.9294 -0.1022
  207MOL0     H28513  11.362   7.869   2.734  0.5509 -1.4712 -1.6381
  207MOL0     H28514  11.284   7.861   2.569  0.0872 -1.4682 -0.2958
  207MOL0     H28515  11.587   8.069   2.726  1.6467  1.0600 -0.1671
  207MOL0     H28516  11.876   8.007   2.500  0.6506  0.1691 -0.6466
  207MOL0     H28517  11.827   8.096   2.646 -0.5587  0.6288 -0.4315
  207MOL0     H28518  11.759   8.193   2.362 -0.1437  1.1858  1.5904
  207MOL0     H28519  11.733   8.283   2.510  1.0125 -0.3201  2.0739
  207MOL0     H28520  11.996   8.183   2.372  1.0998 -0.9526  0.7810
  207MOL0     H28521  11.946   8.353   2.389  2.5695  1.1378  1.3649
  207MOL0     H28522  12.056   8.172   2.628  3.5764 -0.5668 -0.3149
  207MOL0     H28523  12.146   8.272   2.523 -1.1265 -0.3208 -1.7691
  207MOL0     H28524  12.195   8.230   2.755 -0.1722  0.9115 -2.1534
  207MOL0     H28525  12.357   8.267   3.083 -1.5237  3.6580  0.0460
  207MOL0     H28526  12.401   8.216   2.915 -1.6485 -2.2752 -0.9073
  207MOL0     H28527  12.272   8.146   2.989 -1.2649 -0.4088 -0.2431
  207MOL0     H28528  12.140   8.617   3.380 -1.8001  2.4680  3.0237
  207MOL0     H28529  12.205   8.723   3.608  0.1414 -0.0142  0.2380
  207MOL0     H28530  12.468   9.039   3.652 -0.1657 -1.4682 -0.6232
  207MOL0     H28531  12.300   8.985   3.635 -0.0849 -0.0381 -0.0938
  207MOL0     H28532  12.437   8.930   3.893 -0.4136 -0.0769  0.6346
  207MOL0     H28533  12.366   9.087   3.868 -0.9914 -0.2171  0.8435
  207MOL0     H28534  12.227   8.809   3.832 -0.5440 -1.0307  2.2240
  207MOL0     H28535  12.146   8.972   3.847  0.0033 -0.1245  0.7647
  207MOL0     H28536  12.273   8.982   4.090  0.9176 -1.4652  3.3046
  207MOL0     H28537  12.279   8.815   4.052 -0.5930  2.1323 -0.7236
  207MOL0     H28538  12.014   8.957   4.018 -0.5331 -2.1469 -0.6105
  207MOL0     H28539  12.035   8.787   4.051  0.5048 -0.8322  2.3563
  207MOL0     H28540  12.087   9.014   4.252 -4.7503  2.0673 -1.3886
  207MOL0     H28541  12.158   8.843   4.250 -2.7702 -2.3920  1.1244
  207MOL0     H28542  11.918   8.762   4.289 -2.5437 -0.2789 -1.8746
  207MOL0     H28543  11.858   8.914   4.225  0.3310 -0.5024  0.0199
  207MOL0     H28544  11.889   9.027   4.425  0.9942  0.6215 -0.6379
  207MOL0     H28545  12.017   8.928   4.476 -0.1583  0.5216 -1.5121
  207MOL0     H28546  12.579   8.843   3.432  2.5340 -1.8716 -0.1075
  207MOL0     H28547  12.499   8.752   3.203 -2.2125 -2.8579 -2.1014
  207MOL0     H28548  12.086   8.644   3.005  3.5614 -0.0610  1.3017
  207MOL0     H28549  11.955   8.587   2.796  0.4993  1.3729  1.3822
  207MOL0     H28550  10.576   8.617   3.126  0.1767  1.4550  0.4902
  207MOL0     H28551  10.365   8.732   3.230  4.1565  1.8959 -1.8092
  207MOL0     H28552   9.882   8.609   3.078 -0.4993  1.4430 -1.6483
  207MOL0     H28553   9.646   8.638   3.063 -2.1171  1.4438  1.0634
  207MOL0     H28554   9.458   8.879   3.351  0.3339 -0.5953 -0.3079
  207MOL0     H28555   9.451   9.021   3.252 -1.7696 -1.1168 -0.6267
  207MOL0     H28556   9.281   8.903   3.106  0.0164 -0.3625  0.1263
  207MOL0     H28557   9.247   8.982   3.252 -2.0127  0.1152 -1.7578
  207MOL0     H28558   9.237   8.758   3.373  2.8556  0.1421 -0.3571
  207MOL0     H28559   9.121   8.773   3.238  0.5968  3.5586  2.4812
  207MOL0     H28560   9.216   8.540   3.248  0.6905 -0.7525  0.2455
  207MOL0     H28561   9.383   8.600   3.248  1.7963  0.9348 -0.1158
  207MOL0     H28562   9.318   8.604   2.834 -2.8584  1.7138  0.4269
  207MOL0     H28563   9.675   9.012   3.247 -2.7634 -0.2288 -2.2916
  207MOL0     H28564   9.986   9.070   3.237  2.2044  0.6338  1.5124
  207MOL0     H28565   9.854   9.069   3.368 -1.2167 -1.3866 -2.1838
  207MOL0     H28566  10.006   8.975   3.389  4.0549  1.0183 -2.9042
  208MOL0     O28567   8.778  10.668   7.504  0.2127 -0.8275  0.1857
  208MOL0     C28568   8.724  10.778   7.517 -0.1038 -0.3661  0.8787
  208MOL0     O28569   8.660  10.841   7.408  0.0600 -0.2060 -0.5383
  208MOL0     C28570   8.639  10.776   7.293  1.3599  0.3035 -0.5823
  208MOL0     C28571   8.599  10.643   7.290  0.3164 -1.0276  0.9503
  208MOL0     C28572   8.563  10.576   7.166 -0.6421  0.3452  0.2369
  208MOL0     C28573   8.566  10.655   7.045  0.0514  0.5114  0.0885
  208MOL0     O28574   8.532  10.596   6.924  0.3042  0.4055  0.3841
  208MOL0     C28575   8.445  10.484   6.930  0.0051 -0.7220  0.7271
  208MOL0     C28576   8.374  10.468   6.791  0.4608 -0.9753 -1.1258
  208MOL0     C28577   8.470  10.425   6.683  0.3539 -1.0855 -0.1061
  208MOL0     C28578   8.407  10.440   6.551  0.2416 -0.3452 -0.7418
  208MOL0     C28579   8.488  10.498   6.433  0.1922 -0.5593  0.5123
  208MOL0     C28580   8.428  10.633   6.380  1.6227  0.0785  0.1767
  208MOL0     C28581   8.311  10.608   6.279  0.0938  0.6857  0.5446
  208MOL0     C28582   8.257  10.734   6.230  1.2883 -0.3783  0.1707
  208MOL0     N28583   8.206  10.823   6.333  0.1935  0.9555  0.3928
  208MOL0     C28584   8.193  10.956   6.300 -0.1212  0.5487  0.2942
  208MOL0     C28585   8.134  11.016   6.395  0.0308 -0.3268  0.3111
  208MOL0     C28586   8.114  11.162   6.392 -0.1251 -0.8306  0.4293
  208MOL0     C28587   8.100  11.243   6.516  0.6600  0.1984 -0.5149
  208MOL0     C28588   7.969  11.202   6.590 -0.2386  0.2112 -0.4218
  208MOL0     C28589   7.982  11.251   6.735  0.9604 -0.1123  0.0733
  208MOL0     O28590   7.851  11.271   6.781  0.6140  0.0557 -0.1652
  208MOL0     C28591   7.837  11.356   6.885  0.1103  0.7898 -0.7295
  208MOL0     C28592   7.715  11.392   6.929  0.2453  0.2801  0.0493
  208MOL0     C28593   7.682  11.451   7.053  0.6073  0.7340  0.0585
  208MOL0     C28594   7.532  11.455   7.091  0.8926 -0.6685 -0.1555
  208MOL0     C28595   7.788  11.488   7.135  0.0791 -0.4166  0.3075
  208MOL0     C28596   7.775  11.549   7.277 -0.7352 -0.7731 -0.9377
  208MOL0     O28597   7.890  11.564   7.352  0.3774  0.7254  0.2123
  208MOL0     C28598   7.865  11.631   7.466  0.4984  0.4242 -0.5570
  208MOL0     C28599   7.887  11.771   7.464  0.1810 -0.8092  0.2639
  208MOL0     C28600   7.886  11.845   7.576 -0.9175 -0.1332 -0.0586
  208MOL0     C28601   7.868  11.787   7.702  0.1381 -0.0794  0.1575
  208MOL0     O28602   7.879  11.856   7.817  0.3617  0.4005 -0.0032
  208MOL0     C28603   8.007  11.907   7.840 -0.7570  0.3384  0.0694
  208MOL0     C28604   8.024  11.944   7.978  0.2428 -0.4621  0.2091
  208MOL0     C28605   7.919  12.047   8.045 -0.2849 -0.1765 -0.8569
  208MOL0     C28606   7.821  11.982   8.145  0.2559  0.6332 -0.0113
  208MOL0     C28607   7.702  12.076   8.172  0.0752  0.0062 -1.9447
  208MOL0     C28608   7.634  12.058   8.300 -0.2723 -0.9283  0.6226
  208MOL0     C28609   7.706  12.117   8.424 -0.2082 -0.0086  0.0581
  208MOL0     C28610   7.696  12.034   8.560  0.3039  0.0307  0.1250
  208MOL0    Cl28611   7.536  12.031   8.633 -0.1404  0.3046 -0.0701
  208MOL0     C28612   7.843  11.654   7.713 -0.4172  0.3908  0.2049
  208MOL0     C28613   7.836  11.569   7.594  0.0356 -1.0063 -0.5846
  208MOL0     O28614   7.664  11.567   7.320  0.4724  0.2488 -0.2577
  208MOL0     C28615   7.922  11.463   7.093  0.4496  0.3880 -0.6400
  208MOL0     C28616   7.940  11.400   6.971 -0.3174  0.3933 -0.3483
  208MOL0     N28617   8.128  10.914   6.498  0.8607 -0.3124 -0.2907
  208MOL0     N28618   8.166  10.801   6.458 -0.3236  0.2876  0.0476
  208MOL0     C28619   8.605  10.791   7.051  0.3255 -0.5680 -0.3411
  208MOL0     C28620   8.626  10.857   7.176 -0.1566  0.4159 -0.5712
  208MOL0     C28621   8.709  10.822   7.663 -0.0233 -0.7970  0.2831
  208MOL0     C28622   8.761  10.744   7.767  0.0353  0.9879  0.1936
  208MOL0     C28623   8.743  10.790   7.899  0.1850  0.0523  0.0635
  208MOL0     C28624   8.668  10.903   7.937 -0.3617 -0.1660  0.0986
  208MOL0     O28625   8.659  10.947   8.062 -0.3254 -0.0794  0.8436
  208MOL0     C28626   8.594  10.873   8.155  0.5570 -0.1344 -0.2297
  208MOL0     C28627   8.490  10.954   8.235  0.0559  0.7023 -0.3483
  208MOL0     C28628   8.540  11.071   8.315 -0.5019  1.2673  0.4611
  208MOL0     C28629   8.434  11.102   8.418 -0.3782 -1.0196 -1.1561
  208MOL0     C28630   8.485  11.201   8.506 -0.2626  0.8675 -0.5757
  208MOL0     C28631   8.513  11.289   8.581 -0.0954 -0.7682 -0.3184
  208MOL0     C28632   8.613  10.970   7.837 -0.7849 -0.0157 -0.2089
  208MOL0     C28633   8.640  10.944   7.700  0.6832  0.3878 -0.7022
  208MOL0     C28634   8.568  11.028   7.594  0.1500 -0.7625 -1.0288
  208MOL0     H28635   8.575  10.599   7.386  2.0595  2.3756  3.1725
  208MOL0     H28636   8.518  10.477   7.167  0.1986 -0.0500 -0.0878
  208MOL0     H28637   8.366  10.495   7.005 -0.2708 -0.9646  0.4735
  208MOL0     H28638   8.502  10.394   6.953  0.3225 -0.2098  2.0542
  208MOL0     H28639   8.297  10.391   6.805 -1.8233  1.5954  1.5826
  208MOL0     H28640   8.319  10.559   6.767  1.4779  0.0921  0.4274
  208MOL0     H28641   8.557  10.492   6.693  0.3776 -1.4910  4.0984
  208MOL0     H28642   8.496  10.320   6.696  1.2179 -0.7943  0.7023
  208MOL0     H28643   8.388  10.338   6.517 -0.9018 -0.1481 -0.7520
  208MOL0     H28644   8.312  10.494   6.564  0.5914  0.5247 -1.6798
  208MOL0     H28645   8.502  10.430   6.348  2.3791  2.8423 -2.1329
  208MOL0     H28646   8.590  10.520   6.467 -0.2291 -0.5602  1.8295
  208MOL0     H28647   8.392  10.677   6.473  2.9237 -2.0618  1.7853
  208MOL0     H28648   8.506  10.692   6.330  1.6899 -0.2374 -0.0951
  208MOL0     H28649   8.242  10.527   6.305 -0.7174  0.6946 -1.3583
  208MOL0     H28650   8.361  10.557   6.196  0.7149  0.3558  1.1147
  208MOL0     H28651   8.341  10.773   6.173  0.1805  2.2226  0.1857
  208MOL0     H28652   8.179  10.717   6.155 -0.3263 -0.1501  1.7185
  208MOL0     H28653   8.214  10.995   6.201 -0.2189 -5.3959 -2.5389
  208MOL0     H28654   8.020  11.179   6.339  0.4287 -3.8303 -1.7269
  208MOL0     H28655   8.185  11.224   6.336 -0.6544  0.1299  0.7808
  208MOL0     H28656   8.184  11.233   6.585 -0.3127  1.2892  0.9020
  208MOL0     H28657   8.093  11.351   6.499 -0.2046  0.3518  0.6836
  208MOL0     H28658   7.886  11.252   6.540  0.4629  1.2114 -0.6245
  208MOL0     H28659   7.959  11.094   6.598 -0.0802  0.1758 -0.6750
  208MOL0     H28660   8.026  11.184   6.809 -1.2997  0.4256  2.0332
  208MOL0     H28661   8.043  11.342   6.734 -1.1281  1.4314  1.7616
  208MOL0     H28662   7.643  11.350   6.859  0.1413 -0.3889  0.5401
  208MOL0     H28663   7.520  11.386   7.175 -1.7931  0.9079  0.8754
  208MOL0     H28664   7.475  11.418   7.005  1.9534  0.6942 -1.4979
  208MOL0     H28665   7.497  11.557   7.110 -1.0566 -1.4873  0.8516
  208MOL0     H28666   7.889  11.814   7.364  0.2207  0.3207  0.7331
  208MOL0     H28667   7.878  11.951   7.555 -1.3766 -0.1423  0.0552
  208MOL0     H28668   8.096  11.851   7.809 -0.5463  1.4107 -1.3744
  208MOL0     H28669   8.028  12.001   7.788  0.4874 -0.2018 -0.4637
  208MOL0     H28670   8.030  11.848   8.029  0.1206 -0.9541 -0.6947
  208MOL0     H28671   8.121  11.994   7.982  0.7939 -1.5203  0.3758
  208MOL0     H28672   7.866  12.101   7.966  0.2861  0.8145 -0.5807
  208MOL0     H28673   7.980  12.128   8.086 -0.6111  1.4322 -3.3251
  208MOL0     H28674   7.873  11.959   8.238 -2.7781 -1.5068  1.3457
  208MOL0     H28675   7.792  11.880   8.117  1.8786 -0.0657  0.7569
  208MOL0     H28676   7.744  12.177   8.180 -0.5336  0.0965  2.4012
  208MOL0     H28677   7.631  12.069   8.089  0.0257 -2.4782 -1.7597
  208MOL0     H28678   7.611  11.953   8.317 -1.3969 -0.7602  0.2117
  208MOL0     H28679   7.536  12.108   8.294 -0.9387 -2.2778 -4.8629
  208MOL0     H28680   7.666  12.218   8.436 -3.6132 -1.2487  0.2968
  208MOL0     H28681   7.813  12.116   8.400 -1.0858 -1.6815 -5.1045
  208MOL0     H28682   7.768  12.078   8.629  0.4239 -1.4078  0.9482
  208MOL0     H28683   7.722  11.929   8.548 -1.1019 -0.6887  2.6797
  208MOL0     H28684   7.819  11.637   7.817 -1.1550  3.5312  0.6559
  208MOL0     H28685   7.814  11.463   7.600 -1.8201 -0.5795  1.5604
  208MOL0     H28686   7.996  11.512   7.155 -3.7946  4.4978  1.9187
  208MOL0     H28687   8.038  11.376   6.930  0.4291  2.6929 -0.0666
  208MOL0     H28688   8.620  10.847   6.960 -1.3506 -1.2676 -1.0955
  208MOL0     H28689   8.644  10.964   7.173 -1.2676  0.7694  2.1108
  208MOL0     H28690   8.818  10.654   7.747  1.8162  2.2419 -0.5142
  208MOL0     H28691   8.802  10.748   7.980 -0.4807  1.6994  1.4527
  208MOL0     H28692   8.521  10.809   8.105 -1.3690  1.3349  0.5382
  208MOL0     H28693   8.670  10.834   8.223  0.7875  0.5496 -0.0804
  208MOL0     H28694   8.441  10.878   8.298 -2.1328  1.8835 -0.5124
  208MOL0     H28695   8.416  10.997   8.166 -0.9096 -1.4585 -0.7451
  208MOL0     H28696   8.625  11.023   8.364 -1.4187 -1.3585 -0.3235
  208MOL0     H28697   8.571  11.158   8.257  2.4738  0.8694  1.2834
  208MOL0     H28698   8.400  11.012   8.470 -0.2749 -0.6499 -0.4382
  208MOL0     H28699   8.348  11.146   8.368 -1.8885 -1.8344  0.5907
  208MOL0     H28700   8.532  11.372   8.646 -1.2701 -0.0900 -0.7970
  208MOL0     H28701   8.560  11.060   7.867 -1.7292 -0.4209 -0.6262
  208MOL0     H28702   8.529  11.116   7.647  1.4005 -1.6318  1.5175
  208MOL0     H28703   8.642  11.059   7.521  0.5715 -2.6721 -1.4385
  208MOL0     H28704   8.482  10.984   7.543 -1.9399  0.5686  1.1172
  209MOL0     O28705   2.754   6.151   1.116  0.0433 -0.3491 -0.1083
  209MOL0     C28706   2.670   6.192   1.194 -0.2285  1.0373  0.5118
  209MOL0     O28707   2.633   6.131   1.313  0.5806  0.0379 -0.1357
  209MOL0     C28708   2.721   6.058   1.395 -0.3947 -0.3363 -1.0506
  209MOL0     C28709   2.843   6.114   1.444  0.1053  1.0166 -0.4985
  209MOL0     C28710   2.916   6.045   1.542  1.4705 -0.0207 -0.0587
  209MOL0     C28711   2.878   5.922   1.596  0.0638  0.7824  1.0780
  209MOL0     O28712   2.967   5.855   1.681  0.7508  0.2884 -0.5103
  209MOL0     C28713   2.913   5.740   1.746 -0.4322 -0.6921  0.0556
  209MOL0     C28714   2.980   5.704   1.872  0.5162 -0.3460  0.6526
  209MOL0     C28715   2.944   5.568   1.924 -0.8177 -0.3949 -0.1429
  209MOL0     C28716   3.011   5.460   1.833 -0.7472 -0.4127 -0.6604
  209MOL0     C28717   3.020   5.309   1.896 -0.2410 -0.3795  0.2103
  209MOL0     C28718   2.950   5.193   1.829 -0.3218  0.1854  0.0528
  209MOL0     C28719   2.813   5.208   1.764  0.0477  0.7946  0.4627
  209MOL0     C28720   2.746   5.072   1.753  0.3279  0.1977 -0.9491
  209MOL0     N28721   2.617   5.073   1.816 -0.4420 -0.3496  0.3051
  209MOL0     C28722   2.488   5.090   1.764 -0.1407 -0.4895 -0.4679
  209MOL0     C28723   2.398   5.080   1.867 -0.3747  0.6023  0.8958
  209MOL0     C28724   2.259   5.123   1.865  0.1125 -0.5925 -0.4361
  209MOL0     C28725   2.156   5.040   1.792 -0.1223  0.4242  0.0547
  209MOL0     C28726   2.174   5.048   1.638  0.0283  0.4036  1.1516
  209MOL0     C28727   2.077   4.952   1.572  0.9931 -0.5836  0.5628
  209MOL0     O28728   2.122   4.944   1.435  0.6603  0.7905  0.3970
  209MOL0     C28729   2.038   4.918   1.327 -0.3710 -0.3401  0.4776
  209MOL0     C28730   1.909   4.879   1.330 -0.2816  0.7453 -0.2358
  209MOL0     C28731   1.839   4.845   1.219  0.5334  0.0308  1.8034
  209MOL0     C28732   1.705   4.787   1.241  0.5704 -0.3242  0.2912
  209MOL0     C28733   1.909   4.846   1.088  1.2234  0.7479  0.2356
  209MOL0     C28734   1.838   4.816   0.959  0.5421  0.5400  0.0811
  209MOL0     O28735   1.915   4.791   0.855 -0.5098 -0.2870  0.7572
  209MOL0     C28736   1.838   4.784   0.737 -0.1544  0.0953 -1.6508
  209MOL0     C28737   1.803   4.899   0.667  0.6784 -0.8992  0.8325
  209MOL0     C28738   1.714   4.883   0.553 -0.1195  0.3812 -0.9458
  209MOL0     C28739   1.660   4.761   0.519 -0.7654 -0.0742  0.0670
  209MOL0     O28740   1.573   4.756   0.417  0.1025  0.0518  0.3710
  209MOL0     C28741   1.560   4.630   0.348 -1.5672  0.1060 -0.8729
  209MOL0     C28742   1.501   4.641   0.207 -0.0618 -0.2552  0.0250
  209MOL0     C28743   1.510   4.506   0.129 -0.1612  0.1231 -0.6122
  209MOL0     C28744   1.477   4.511  -0.023 -0.8694  0.2906 -0.0087
  209MOL0     C28745   1.494   4.369  -0.092  0.5079 -0.5332 -0.8281
  209MOL0     C28746   1.396   4.345  -0.200  0.8506  0.2810  0.3749
  209MOL0     C28747   1.415   4.424  -0.337 -0.3792  0.3373  1.1449
  209MOL0     C28748   1.307   4.386  -0.440 -0.4547  0.2536  0.5604
  209MOL0    Cl28749   1.144   4.446  -0.387  0.1708  0.3093 -0.1891
  209MOL0     C28750   1.707   4.644   0.586  0.2625 -0.2787  0.1936
  209MOL0     C28751   1.786   4.657   0.697 -0.0424  0.3327 -1.9915
  209MOL0     O28752   1.712   4.833   0.962  1.0183  0.2846  1.0613
  209MOL0     C28753   2.035   4.882   1.081 -0.1157 -0.5931 -0.2860
  209MOL0     C28754   2.099   4.920   1.200  0.1084 -0.4784  0.2744
  209MOL0     N28755   2.469   5.027   1.970 -0.3989 -0.4221  0.3606
  209MOL0     N28756   2.601   5.028   1.938 -0.2813  0.0870 -0.0478
  209MOL0     C28757   2.766   5.861   1.533 -0.7655  0.0741 -0.7317
  209MOL0     C28758   2.676   5.937   1.444  0.3964 -0.1780  0.0413
  209MOL0     C28759   2.576   6.286   1.131 -0.3941  0.9593  0.2715
  209MOL0     C28760   2.518   6.233   1.018 -0.3260 -0.0858 -1.1567
  209MOL0     C28761   2.420   6.306   0.960 -0.0251  0.1986 -0.4617
  209MOL0     C28762   2.377   6.425   1.016  0.0156  0.3088 -0.2852
  209MOL0     O28763   2.277   6.500   0.958 -0.9083 -1.1060 -0.0699
  209MOL0     C28764   2.153   6.444   0.926 -0.5414 -0.1191  0.2461
  209MOL0     C28765   2.036   6.480   1.025  1.4391  0.2516 -0.4717
  209MOL0     C28766   2.053   6.621   1.077 -0.4429  0.0852  0.0790
  209MOL0     C28767   1.920   6.691   1.086 -0.4866  1.1498  0.3356
  209MOL0     C28768   1.930   6.817   1.154 -0.4196 -0.6668  0.8711
  209MOL0     C28769   1.950   6.926   1.203  1.5845 -0.8058 -0.5167
  209MOL0     C28770   2.447   6.483   1.136  0.9072  2.0218  0.3544
  209MOL0     C28771   2.550   6.411   1.196 -0.9737  0.8002  0.7467
  209MOL0     C28772   2.610   6.455   1.333 -0.7794 -0.0062  1.7609
  209MOL0     H28773   2.887   6.207   1.410 -0.8467  1.6156 -0.1429
  209MOL0     H28774   2.999   6.087   1.598  1.7730 -2.5015  1.4813
  209MOL0     H28775   2.913   5.659   1.673 -2.1385 -0.1497 -0.5664
  209MOL0     H28776   2.809   5.764   1.768  0.2332  1.3465  1.2414
  209MOL0     H28777   3.087   5.703   1.852  0.7475 -2.7766  1.6343
  209MOL0     H28778   2.955   5.785   1.941  1.1554  1.2319 -0.8992
  209MOL0     H28779   2.966   5.548   2.030 -0.1654  2.9532  0.4662
  209MOL0     H28780   2.839   5.551   1.901 -0.3157 -1.3041 -1.9417
  209MOL0     H28781   2.952   5.464   1.741 -1.6604  0.3826 -0.0738
  209MOL0     H28782   3.112   5.489   1.804 -1.0803 -0.5326 -2.0069
  209MOL0     H28783   2.954   5.314   1.984 -1.4135  0.5981 -0.6944
  209MOL0     H28784   3.126   5.284   1.901 -0.6001 -1.8255  1.0508
  209MOL0     H28785   3.016   5.179   1.743 -1.0237  2.1422 -0.8642
  209MOL0     H28786   2.958   5.111   1.902  1.6774  0.5879  0.3528
  209MOL0     H28787   2.828   5.238   1.660 -2.7245 -0.8332 -0.5016
  209MOL0     H28788   2.738   5.265   1.820 -1.7374 -0.1841 -0.8083
  209MOL0     H28789   2.746   5.048   1.646  3.0930 -3.1820 -0.3965
  209MOL0     H28790   2.818   5.001   1.795  2.0901  2.0458 -0.6935
  209MOL0     H28791   2.474   5.141   1.669  3.3459  1.1176 -0.2653
  209MOL0     H28792   2.269   5.225   1.826  1.2559 -2.1112 -4.6891
  209MOL0     H28793   2.229   5.128   1.970  1.3427 -4.9085  0.3139
  209MOL0     H28794   2.163   4.936   1.828 -0.7089  0.9452  1.7702
  209MOL0     H28795   2.054   5.068   1.820 -0.9324 -2.2956  0.1143
  209MOL0     H28796   2.165   5.152   1.604  2.5681 -0.5433 -3.1470
  209MOL0     H28797   2.274   5.012   1.614 -1.3895 -3.5239  0.4846
  209MOL0     H28798   2.060   4.855   1.619  0.9339 -0.8217  0.0560
  209MOL0     H28799   1.977   4.997   1.582  0.9807 -0.9953  3.0080
  209MOL0     H28800   1.861   4.881   1.427  1.6106  2.5094  0.7334
  209MOL0     H28801   1.623   4.859   1.236 -3.2270 -4.0582  2.1715
  209MOL0     H28802   1.691   4.739   1.338 -2.9539 -1.8063 -0.7805
  209MOL0     H28803   1.678   4.713   1.164 -1.0292  0.6992 -0.1736
  209MOL0     H28804   1.852   4.995   0.679 -0.8542 -0.2101  1.7627
  209MOL0     H28805   1.662   4.969   0.513  0.3804  0.9874 -0.3135
  209MOL0     H28806   1.653   4.575   0.331 -2.6531 -0.8069 -4.9113
  209MOL0     H28807   1.484   4.572   0.401 -0.5775  0.9111  1.5503
  209MOL0     H28808   1.398   4.677   0.213  0.4267  1.5460 -1.4034
  209MOL0     H28809   1.559   4.725   0.167 -0.6354  1.5591  2.7034
  209MOL0     H28810   1.460   4.427   0.186  1.6218  0.1337  1.0533
  209MOL0     H28811   1.616   4.480   0.137  0.0389  1.3077  1.1247
  209MOL0     H28812   1.534   4.592  -0.069 -2.5585  2.1398  0.9743
  209MOL0     H28813   1.370   4.537  -0.026 -0.8081  1.9911  4.4062
  209MOL0     H28814   1.597   4.350  -0.121  1.0822  0.5414  0.4027
  209MOL0     H28815   1.462   4.297  -0.016 -1.5218  0.9543 -0.1601
  209MOL0     H28816   1.300   4.375  -0.157  2.0370  1.8995  2.0532
  209MOL0     H28817   1.410   4.237  -0.213  1.7819  0.2726  1.2728
  209MOL0     H28818   1.508   4.388  -0.382 -1.6582 -2.3035  0.3909
  209MOL0     H28819   1.417   4.532  -0.324  3.1471  0.4384  0.6064
  209MOL0     H28820   1.309   4.282  -0.474 -0.4709  0.9114 -1.6162
  209MOL0     H28821   1.333   4.433  -0.535  3.3551 -1.0308  0.7825
  209MOL0     H28822   1.680   4.539   0.573  0.0824 -0.2292  0.1692
  209MOL0     H28823   1.814   4.573   0.760 -1.6404  2.4721  1.8950
  209MOL0     H28824   2.095   4.886   0.990 -0.0854  0.7597 -0.2235
  209MOL0     H28825   2.195   4.966   1.183 -1.3985  1.8640 -3.1031
  209MOL0     H28826   2.732   5.761   1.558 -0.6004  0.7860  2.7322
  209MOL0     H28827   2.583   5.895   1.408  0.9347 -1.1043 -0.3119
  209MOL0     H28828   2.531   6.133   0.980  3.1862  0.8687 -2.8220
  209MOL0     H28829   2.375   6.272   0.867 -2.2266  0.1707  0.5630
  209MOL0     H28830   2.118   6.477   0.827  0.5322 -1.3749 -0.5902
  209MOL0     H28831   2.149   6.336   0.909  2.6801  0.0399 -2.5005
  209MOL0     H28832   2.038   6.407   1.107 -0.1558 -1.0338 -1.5134
  209MOL0     H28833   1.942   6.470   0.971  0.7518 -0.5374  0.8149
  209MOL0     H28834   2.088   6.613   1.181 -1.6897 -0.0187  0.5016
  209MOL0     H28835   2.128   6.673   1.017  0.5802 -3.4091 -1.9609
  209MOL0     H28836   1.839   6.639   1.138 -0.5084  3.9657  3.4923
  209MOL0     H28837   1.875   6.713   0.989 -0.9868 -1.1131 -0.0052
  209MOL0     H28838   1.960   7.014   1.262 -0.4367  0.0549 -1.3487
  209MOL0     H28839   2.402   6.576   1.171 -0.3183  1.2545  0.8892
  209MOL0     H28840   2.549   6.403   1.408  0.5368 -4.6118 -0.0204
  209MOL0     H28841   2.716   6.438   1.355 -0.1202  0.2124 -0.9669
  209MOL0     H28842   2.591   6.563   1.340 -1.1350  0.1671 -1.0362
  210MOL0     O28843   7.518   9.679   3.020 -0.5869  0.3096 -0.6308
  210MOL0     C28844   7.576   9.652   2.915  0.4396 -0.0857 -0.2967
  210MOL0     O28845   7.592   9.524   2.866  0.5748 -0.1342 -0.3358
  210MOL0     C28846   7.560   9.419   2.940  0.0597 -0.1187  0.1038
  210MOL0     C28847   7.440   9.344   2.939 -0.0873 -0.2384 -1.0529
  210MOL0     C28848   7.411   9.262   3.043 -0.0983  1.3129 -0.0616
  210MOL0     C28849   7.504   9.223   3.141 -0.1535 -0.1861 -0.8003
  210MOL0     O28850   7.489   9.131   3.245 -0.1654 -0.1201 -0.5290
  210MOL0     C28851   7.370   9.168   3.314  0.0785  0.0964 -0.7111
  210MOL0     C28852   7.337   9.072   3.426  0.4458 -0.1532  0.1615
  210MOL0     C28853   7.221   9.131   3.512 -0.0221 -0.5580  0.1769
  210MOL0     C28854   7.166   9.036   3.618  0.7305  0.2956 -0.3333
  210MOL0     C28855   7.170   9.091   3.767 -0.6817 -0.5062 -0.2710
  210MOL0     C28856   7.069   9.203   3.785  0.6046  0.0061  0.2396
  210MOL0     C28857   7.108   9.286   3.902 -0.4021 -0.3983 -0.8201
  210MOL0     C28858   7.078   9.210   4.038  0.1694 -1.4280  0.4126
  210MOL0     N28859   7.104   9.301   4.152  0.1831 -0.2533  0.7397
  210MOL0     C28860   7.034   9.286   4.267 -0.3734 -0.2555 -0.7179
  210MOL0     C28861   7.108   9.366   4.349 -0.4978 -0.6507 -0.7325
  210MOL0     C28862   7.082   9.401   4.495  0.3607 -0.5421 -0.2200
  210MOL0     C28863   7.124   9.275   4.575 -0.2382 -0.7767 -0.3285
  210MOL0     C28864   7.140   9.302   4.726  0.0063  0.4863  0.8229
  210MOL0     C28865   7.279   9.369   4.759  0.2171 -0.8006 -1.2158
  210MOL0     O28866   7.260   9.514   4.757  0.3582 -0.1346  0.0785
  210MOL0     C28867   7.375   9.585   4.787 -0.4384 -0.9929 -0.1622
  210MOL0     C28868   7.362   9.722   4.782  0.0662 -0.2132  0.2005
  210MOL0     C28869   7.472   9.802   4.811  0.2816  0.5827 -1.2418
  210MOL0     C28870   7.444   9.954   4.787 -0.4235 -0.0149 -0.1163
  210MOL0     C28871   7.589   9.751   4.876 -0.8734 -1.2469  0.1162
  210MOL0     C28872   7.710   9.834   4.906  0.1063 -0.8363 -0.3221
  210MOL0     O28873   7.751   9.946   4.824  0.0110 -0.3480 -0.9352
  210MOL0     C28874   7.868  10.003   4.849  0.4939 -0.3122 -0.4603
  210MOL0     C28875   7.966   9.967   4.773  0.6665  0.4175 -0.1192
  210MOL0     C28876   8.098  10.025   4.795 -0.4661  0.0898  0.0647
  210MOL0     C28877   8.118  10.130   4.872  0.1096 -0.2617 -0.1257
  210MOL0     O28878   8.245  10.185   4.894 -0.6161  0.2471  0.8279
  210MOL0     C28879   8.286  10.228   5.026  0.0157  0.2668 -0.3244
  210MOL0     C28880   8.272  10.118   5.131  0.2896  0.1760 -0.1587
  210MOL0     C28881   8.320  10.176   5.266  0.3191 -0.4093  1.0597
  210MOL0     C28882   8.339  10.070   5.375  0.0852 -0.5493 -0.4918
  210MOL0     C28883   8.376  10.139   5.507 -0.1914 -0.8262 -1.1312
  210MOL0     C28884   8.509  10.111   5.577 -0.6761 -0.0175 -0.3673
  210MOL0     C28885   8.626  10.201   5.538 -0.1150  0.5825  0.0712
  210MOL0     C28886   8.756  10.174   5.607 -0.2828 -0.1090 -0.2945
  210MOL0    Cl28887   8.797  10.271   5.751  0.2490  0.5045  0.0256
  210MOL0     C28888   8.008  10.169   4.959 -0.7809 -0.3868 -0.2479
  210MOL0     C28889   7.886  10.109   4.943  0.4017  0.4007 -0.0959
  210MOL0     O28890   7.769   9.796   5.000 -0.4466  0.1930 -0.8997
  210MOL0     C28891   7.587   9.613   4.890  0.5267  0.6129 -0.2573
  210MOL0     C28892   7.491   9.523   4.840  0.3401 -0.0115 -0.0837
  210MOL0     N28893   7.227   9.414   4.285 -0.4301 -0.1554 -0.3895
  210MOL0     N28894   7.215   9.375   4.170  0.2448 -0.1011  0.5438
  210MOL0     C28895   7.638   9.273   3.121  0.6301  0.6804  0.4381
  210MOL0     C28896   7.665   9.368   3.022  0.0390 -0.2810  0.5399
  210MOL0     C28897   7.610   9.774   2.826  0.1152  0.5669 -0.9085
  210MOL0     C28898   7.569   9.772   2.692 -0.2630  0.6805 -0.6154
  210MOL0     C28899   7.601   9.875   2.602 -0.1370  0.2882  0.6200
  210MOL0     C28900   7.680   9.978   2.647 -0.9155 -0.3332  0.0741
  210MOL0     O28901   7.726  10.076   2.561 -0.5384 -0.4376 -0.6940
  210MOL0     C28902   7.857  10.038   2.501 -0.2262  0.2060  0.3013
  210MOL0     C28903   7.854  10.000   2.349  0.1548 -0.4526  1.1212
  210MOL0     C28904   7.774  10.100   2.280  0.1252 -0.1202 -0.8650
  210MOL0     C28905   7.776  10.107   2.125  0.2719  0.2407 -0.3937
  210MOL0     C28906   7.711   9.990   2.059  0.0952 -1.0675 -0.9214
  210MOL0     C28907   7.646   9.900   2.014  0.8758 -0.4483  0.9048
  210MOL0     C28908   7.715   9.986   2.784  0.1419 -0.6369  0.5657
  210MOL0     C28909   7.678   9.887   2.877  0.6546  0.1071  0.2359
  210MOL0     C28910   7.728   9.908   3.024 -0.5129 -0.3403  1.4806
  210MOL0     H28911   7.360   9.382   2.876 -1.1639 -1.0659 -0.2181
  210MOL0     H28912   7.309   9.224   3.042 -0.1609  1.4774 -1.2936
  210MOL0     H28913   7.280   9.174   3.253 -0.9621 -1.9035  0.5545
  210MOL0     H28914   7.384   9.267   3.360  3.2243  0.4082 -2.0328
  210MOL0     H28915   7.302   8.979   3.381  0.1467 -1.2141  2.4328
  210MOL0     H28916   7.414   9.046   3.499 -0.5864 -1.5549  0.7887
  210MOL0     H28917   7.252   9.226   3.556 -0.7388 -0.8392  1.3216
  210MOL0     H28918   7.144   9.159   3.440 -1.6169 -3.2307  0.7009
  210MOL0     H28919   7.064   9.013   3.588  0.0983 -1.1998  2.5922
  210MOL0     H28920   7.225   8.944   3.604  0.5849  0.5971 -3.8690
  210MOL0     H28921   7.269   9.133   3.783 -1.3600  1.6659 -1.3392
  210MOL0     H28922   7.157   9.007   3.836  1.5852  0.9101  2.0553
  210MOL0     H28923   7.069   9.256   3.690 -0.6140 -1.0893 -0.4007
  210MOL0     H28924   6.967   9.170   3.807  0.3827 -0.5261 -1.4778
  210MOL0     H28925   7.032   9.364   3.895 -1.1929 -0.4618  3.8769
  210MOL0     H28926   7.211   9.321   3.897 -0.3007 -0.3946  0.6540
  210MOL0     H28927   6.976   9.171   4.043 -0.2023 -0.6986 -0.8992
  210MOL0     H28928   7.144   9.129   4.069 -0.2634 -0.3709  4.6578
  210MOL0     H28929   6.944   9.239   4.305  0.9629  0.7597  4.4677
  210MOL0     H28930   6.978   9.435   4.506  1.4443  3.1310 -0.0757
  210MOL0     H28931   7.129   9.495   4.525 -0.9089 -0.1340  0.5809
  210MOL0     H28932   7.048   9.196   4.569 -0.4728 -0.5800  0.0527
  210MOL0     H28933   7.222   9.243   4.537  1.7521  3.4272  0.7353
  210MOL0     H28934   7.053   9.353   4.768 -1.2145  0.1024 -1.1219
  210MOL0     H28935   7.143   9.207   4.780 -1.2508 -0.2969 -0.4402
  210MOL0     H28936   7.311   9.352   4.863  2.1652  0.4234 -1.5513
  210MOL0     H28937   7.362   9.330   4.699 -0.5203 -1.1245 -2.0434
  210MOL0     H28938   7.281   9.764   4.723  0.0812  0.0437  0.3629
  210MOL0     H28939   7.336   9.969   4.793 -0.3579  0.5253 -0.1883
  210MOL0     H28940   7.478   9.986   4.688 -1.4600  2.9733  0.3963
  210MOL0     H28941   7.499  10.017   4.858  0.4649  0.3093 -1.0535
  210MOL0     H28942   7.939   9.883   4.710 -4.5786  2.8408 -1.6048
  210MOL0     H28943   8.179   9.992   4.731  0.7118  4.1027 -0.7502
  210MOL0     H28944   8.393  10.236   5.004  0.0167 -0.8683 -0.8408
  210MOL0     H28945   8.241  10.321   5.062  0.5127 -0.3219  2.0473
  210MOL0     H28946   8.167  10.090   5.137 -0.2549  2.1025 -0.1323
  210MOL0     H28947   8.323  10.024   5.107 -1.6443 -0.8343 -0.5408
  210MOL0     H28948   8.253  10.255   5.299  0.6854  0.7419 -0.7730
  210MOL0     H28949   8.424  10.212   5.259  0.8521 -2.0662 -0.3627
  210MOL0     H28950   8.412   9.995   5.345 -1.4375 -2.2097 -0.2640
  210MOL0     H28951   8.244  10.015   5.385 -0.8054  0.7286 -1.5418
  210MOL0     H28952   8.375  10.248   5.501 -1.9223  0.0571  5.7679
  210MOL0     H28953   8.295  10.118   5.578  2.1181 -1.5623  1.4855
  210MOL0     H28954   8.547  10.009   5.576 -0.7041 -0.0266 -1.0572
  210MOL0     H28955   8.510  10.133   5.684 -1.7933 -0.0715 -0.3410
  210MOL0     H28956   8.587  10.301   5.557 -1.8299 -0.1213  0.4374
  210MOL0     H28957   8.635  10.182   5.431  0.2256 -2.5560  0.5464
  210MOL0     H28958   8.836  10.181   5.532  1.8864 -1.4167  1.7598
  210MOL0     H28959   8.767  10.066   5.620 -1.0824 -0.3846 -1.6993
  210MOL0     H28960   8.030  10.242   5.036  0.3008  1.5062 -2.2270
  210MOL0     H28961   7.808  10.136   5.013  1.4179  1.5646  0.6349
  210MOL0     H28962   7.676   9.570   4.933  2.1314  5.6403  2.2283
  210MOL0     H28963   7.507   9.416   4.848 -0.0946 -0.3460 -2.6878
  210MOL0     H28964   7.717   9.254   3.193  0.8821  4.0618  1.2017
  210MOL0     H28965   7.762   9.414   3.009 -1.0795  1.7553 -1.3372
  210MOL0     H28966   7.499   9.692   2.672  1.1919 -0.6505 -0.5384
  210MOL0     H28967   7.556   9.869   2.503 -0.2377 -1.7985  0.7447
  210MOL0     H28968   7.924  10.123   2.512 -0.1032 -0.0011  1.2759
  210MOL0     H28969   7.898   9.955   2.559  0.6980 -0.8194 -1.7139
  210MOL0     H28970   7.797   9.907   2.342 -0.8183  0.1847  0.2415
  210MOL0     H28971   7.953  10.011   2.304  0.3065  2.0921  1.9341
  210MOL0     H28972   7.671  10.095   2.316  0.1884 -0.3007 -0.7084
  210MOL0     H28973   7.812  10.199   2.305 -2.2005  0.8423 -0.8560
  210MOL0     H28974   7.879  10.108   2.088  0.7955 -0.1549  0.9826
  210MOL0     H28975   7.724  10.194   2.085  0.1777  0.3785  0.0308
  210MOL0     H28976   7.594   9.814   1.978 -1.9767  0.6860  1.9565
  210MOL0     H28977   7.774  10.068   2.824  1.7706 -2.0934  1.2767
  210MOL0     H28978   7.808   9.981   3.040 -1.0499  0.5483  0.2743
  210MOL0     H28979   7.643   9.920   3.091 -2.1252 -0.6393 -0.4369
  210MOL0     H28980   7.767   9.807   3.043 -2.1627 -2.4090 -4.1933
  211MOL0     O28981   1.864   7.384   5.438  0.5447  0.4244  0.2203
  211MOL0     C28982   1.803   7.362   5.547  0.4467 -0.3899 -0.2336
  211MOL0     O28983   1.669   7.335   5.559 -0.0187  0.4691 -0.3164
  211MOL0     C28984   1.575   7.405   5.474  0.8808 -0.2933  0.5912
  211MOL0     C28985   1.589   7.506   5.376 -0.3682  0.0923  0.1656
  211MOL0     C28986   1.495   7.587   5.328  0.0634  0.3374  0.4258
  211MOL0     C28987   1.353   7.566   5.365 -0.6344 -0.0164  1.0257
  211MOL0     O28988   1.248   7.644   5.320  0.3193 -0.4457 -0.2472
  211MOL0     C28989   1.253   7.774   5.385  0.1241  0.8358 -0.3007
  211MOL0     C28990   1.111   7.797   5.448  0.5683 -0.0522  0.1786
  211MOL0     C28991   1.083   7.942   5.484 -0.4705  0.2943  0.3032
  211MOL0     C28992   0.937   7.968   5.526  0.2038 -0.5808 -0.2926
  211MOL0     C28993   0.918   8.105   5.595  0.3267 -0.5382 -0.0751
  211MOL0     C28994   0.990   8.126   5.731 -0.6648 -0.2162 -0.1349
  211MOL0     C28995   0.955   8.020   5.835 -0.6753  0.5073 -0.0876
  211MOL0     C28996   1.010   8.066   5.968 -0.1193  0.5613 -0.7924
  211MOL0     N28997   1.027   7.954   6.064 -0.8639 -0.6905  0.3735
  211MOL0     C28998   1.147   7.939   6.135  1.0522 -0.3532 -0.0802
  211MOL0     C28999   1.134   7.829   6.208 -0.1958  0.9128  1.4052
  211MOL0     C29000   1.237   7.748   6.278  0.1183 -0.1674 -0.4109
  211MOL0     C29001   1.383   7.791   6.266 -0.0223 -0.4632 -0.1730
  211MOL0     C29002   1.444   7.782   6.122  0.8168 -1.1214  0.1414
  211MOL0     C29003   1.589   7.822   6.109 -0.3338 -0.0570 -0.7160
  211MOL0     O29004   1.618   7.960   6.139 -0.4040 -0.4395  0.3648
  211MOL0     C29005   1.566   8.075   6.086 -0.3183 -0.0738  0.6052
  211MOL0     C29006   1.479   8.092   5.981 -0.0776  0.2300  0.3092
  211MOL0     C29007   1.420   8.216   5.947  0.8473 -0.4833 -0.8909
  211MOL0     C29008   1.355   8.233   5.815  0.4976  0.4350 -0.0912
  211MOL0     C29009   1.449   8.330   6.025  0.0248  0.6273 -0.1630
  211MOL0     C29010   1.391   8.460   6.000 -0.4034 -0.2579 -0.0675
  211MOL0     O29011   1.468   8.564   6.036  0.5215 -0.1764  0.2427
  211MOL0     C29012   1.404   8.687   6.055  0.2506  0.7880  0.4867
  211MOL0     C29013   1.353   8.736   6.179 -0.7353  0.9770  0.5460
  211MOL0     C29014   1.298   8.865   6.190 -0.4875  0.4341  0.1007
  211MOL0     C29015   1.311   8.957   6.077  0.3295  0.2914  0.3181
  211MOL0     O29016   1.232   9.074   6.069 -1.1096 -0.1997 -0.3098
  211MOL0     C29017   1.276   9.188   6.148 -0.9439 -0.0725 -0.5285
  211MOL0     C29018   1.417   9.249   6.119 -0.2497  0.3327  0.5170
  211MOL0     C29019   1.528   9.151   6.154  1.9453 -0.3786 -0.0159
  211MOL0     C29020   1.652   9.213   6.214 -0.1188  0.0232 -0.4914
  211MOL0     C29021   1.764   9.114   6.257  0.2287 -0.4897 -0.5935
  211MOL0     C29022   1.807   9.022   6.150  0.1329 -0.9051 -0.4907
  211MOL0     C29023   1.727   8.883   6.180  0.2963  0.3414 -0.2816
  211MOL0     C29024   1.769   8.772   6.077  0.2714 -0.3144  0.2526
  211MOL0    Cl29025   1.777   8.606   6.141  0.5387 -0.3708  0.4660
  211MOL0     C29026   1.366   8.908   5.960 -0.0032 -0.1292  0.1819
  211MOL0     C29027   1.410   8.774   5.952  0.1297  0.0268  0.7345
  211MOL0     O29028   1.278   8.469   5.983  0.4966 -0.3936  0.0545
  211MOL0     C29029   1.532   8.315   6.135 -0.6018  0.4918 -0.1174
  211MOL0     C29030   1.583   8.188   6.169  0.5022  0.3040  0.0924
  211MOL0     N29031   1.010   7.773   6.174 -1.2257 -0.1003 -0.1769
  211MOL0     N29032   0.946   7.856   6.091  0.2720  1.0011  0.6579
  211MOL0     C29033   1.335   7.444   5.436 -0.1297 -0.3057  0.4957
  211MOL0     C29034   1.445   7.372   5.492 -0.0435 -0.5942  0.3322
  211MOL0     C29035   1.894   7.362   5.668  0.3208 -0.0808 -0.2128
  211MOL0     C29036   1.867   7.270   5.772  0.2439  0.4018  0.8528
  211MOL0     C29037   1.952   7.251   5.879 -1.2090  0.4855 -0.6896
  211MOL0     C29038   2.063   7.333   5.886  0.7841  0.5685  0.9547
  211MOL0     O29039   2.150   7.310   5.990 -0.4157 -0.0367 -0.2879
  211MOL0     C29040   2.229   7.417   6.037 -0.0131  0.3221  0.5722
  211MOL0     C29041   2.372   7.429   5.986  0.5958 -0.3589 -0.0916
  211MOL0     C29042   2.452   7.297   6.025 -0.1981 -0.7706  0.1215
  211MOL0     C29043   2.535   7.315   6.158  0.4005 -0.2164 -0.0636
  211MOL0     C29044   2.438   7.275   6.266 -0.3521  1.0350 -0.3278
  211MOL0     C29045   2.362   7.235   6.352  0.2710  0.3840 -0.4162
  211MOL0     C29046   2.085   7.428   5.788 -0.8087 -0.7178  0.6434
  211MOL0     C29047   2.009   7.441   5.676  0.0982 -0.3633 -0.7700
  211MOL0     C29048   2.034   7.558   5.596 -0.3240  0.4816 -0.4868
  211MOL0     H29049   1.693   7.536   5.366 -0.2627  0.1478  1.3319
  211MOL0     H29050   1.528   7.657   5.252 -0.1169 -0.4032 -0.3415
  211MOL0     H29051   1.279   7.844   5.304 -0.5143 -0.1657 -1.3955
  211MOL0     H29052   1.324   7.774   5.468 -1.5489 -3.7657  1.4011
  211MOL0     H29053   1.035   7.762   5.377 -0.4931 -3.0652  2.5696
  211MOL0     H29054   1.108   7.733   5.537  2.6594  0.6595  0.7956
  211MOL0     H29055   1.148   7.974   5.566 -0.9925 -0.5483  1.0669
  211MOL0     H29056   1.103   8.010   5.401  0.8970 -0.6547 -0.1829
  211MOL0     H29057   0.865   7.966   5.443  1.1968  3.5454 -1.4729
  211MOL0     H29058   0.907   7.887   5.593 -1.7962 -0.4924 -1.0012
  211MOL0     H29059   0.810   8.122   5.605  0.5879  1.1490  0.1722
  211MOL0     H29060   0.953   8.182   5.525  2.1863 -0.5708  0.7445
  211MOL0     H29061   1.099   8.128   5.732 -0.6085 -1.6735  1.2108
  211MOL0     H29062   0.961   8.227   5.758  0.5813  1.0012 -2.9101
  211MOL0     H29063   1.008   7.929   5.807  0.5824  1.8585 -2.3205
  211MOL0     H29064   0.848   7.995   5.840 -0.6802  0.6010  4.2239
  211MOL0     H29065   1.110   8.110   5.960  0.5885  0.3364  3.8964
  211MOL0     H29066   0.934   8.133   6.007 -0.8229 -1.1687  0.9499
  211MOL0     H29067   1.238   7.994   6.113 -0.6356  1.6309 -2.8429
  211MOL0     H29068   1.236   7.644   6.243  0.7618 -1.2372  2.4855
  211MOL0     H29069   1.197   7.748   6.380 -1.0529 -2.6086 -0.7932
  211MOL0     H29070   1.380   7.896   6.296  0.1109 -0.4290 -0.2813
  211MOL0     H29071   1.445   7.734   6.335 -1.4845 -2.7856 -0.6689
  211MOL0     H29072   1.437   7.681   6.083  0.8705 -0.6633 -1.0881
  211MOL0     H29073   1.381   7.845   6.059  1.8328 -2.2255 -2.0816
  211MOL0     H29074   1.637   7.765   6.188 -1.7117 -2.5431 -1.5417
  211MOL0     H29075   1.625   7.791   6.010 -0.0967  0.7391 -0.8900
  211MOL0     H29076   1.439   8.002   5.935  0.7542 -0.0729  0.1719
  211MOL0     H29077   1.334   8.132   5.779  2.3521 -0.7933  2.0470
  211MOL0     H29078   1.429   8.280   5.750  0.3103 -0.9098 -1.3379
  211MOL0     H29079   1.263   8.292   5.820 -0.5257 -1.1998  2.8205
  211MOL0     H29080   1.365   8.666   6.262 -3.6565 -2.4187 -1.5738
  211MOL0     H29081   1.261   8.912   6.280  0.5141 -2.8786  2.4285
  211MOL0     H29082   1.210   9.275   6.150  1.7602  2.2996  4.6485
  211MOL0     H29083   1.281   9.158   6.253  1.3733  1.1309 -0.2218
  211MOL0     H29084   1.428   9.279   6.014  2.6951  0.9295  0.9177
  211MOL0     H29085   1.428   9.338   6.181  0.3372  1.5053 -1.1960
  211MOL0     H29086   1.538   9.100   6.058 -3.0883 -3.1382  0.5911
  211MOL0     H29087   1.481   9.074   6.215 -1.0262 -2.2712 -4.2331
  211MOL0     H29088   1.623   9.269   6.303  1.0953  1.0321 -0.7128
  211MOL0     H29089   1.690   9.288   6.145 -0.8209  0.1318 -0.7654
  211MOL0     H29090   1.842   9.185   6.284  1.1484 -1.3341 -0.9914
  211MOL0     H29091   1.727   9.061   6.345  0.8639  2.4496  1.5942
  211MOL0     H29092   1.914   9.008   6.167  0.4377  1.2155 -0.4553
  211MOL0     H29093   1.778   9.054   6.049  2.3287  0.7814 -0.6490
  211MOL0     H29094   1.618   8.891   6.178  0.3390  2.3502  1.7833
  211MOL0     H29095   1.746   8.854   6.284  0.6032  0.8847 -0.1837
  211MOL0     H29096   1.868   8.788   6.035  0.9943  1.4880  2.4140
  211MOL0     H29097   1.701   8.793   5.994 -1.0753  1.3193  1.6708
  211MOL0     H29098   1.369   8.965   5.868  1.4874 -0.4826 -0.0129
  211MOL0     H29099   1.453   8.733   5.861  0.8825 -0.3979  1.2639
  211MOL0     H29100   1.556   8.391   6.208 -2.6003 -0.3138  1.4861
  211MOL0     H29101   1.621   8.169   6.269  0.9165  1.9996  0.2944
  211MOL0     H29102   1.236   7.418   5.471  0.3154 -1.0085  1.2534
  211MOL0     H29103   1.410   7.307   5.571 -1.2708 -1.2516 -0.7133
  211MOL0     H29104   1.786   7.200   5.755 -1.1985  0.7869  5.0423
  211MOL0     H29105   1.929   7.172   5.950 -2.1069  2.6518  1.5735
  211MOL0     H29106   2.176   7.511   6.024  1.2435  1.2904  2.0259
  211MOL0     H29107   2.240   7.405   6.146  1.7389 -4.5585  0.1328
  211MOL0     H29108   2.417   7.520   6.026 -1.8677  1.3094 -0.9051
  211MOL0     H29109   2.373   7.430   5.877 -0.1595 -0.0753 -0.1021
  211MOL0     H29110   2.397   7.204   6.040 -0.5068 -0.5597  0.3290
  211MOL0     H29111   2.519   7.286   5.939  0.0958 -0.2816  0.2829
  211MOL0     H29112   2.571   7.415   6.184  3.4734 -1.0560 -0.6468
  211MOL0     H29113   2.615   7.240   6.157 -1.8322 -2.7723 -1.0124
  211MOL0     H29114   2.294   7.207   6.431  1.6691  0.1398  0.7577
  211MOL0     H29115   2.158   7.507   5.799 -1.0853 -0.3717  0.0087
  211MOL0     H29116   2.113   7.518   5.531 -0.6343  0.0777 -0.6201
  211MOL0     H29117   1.943   7.598   5.550  0.4789  3.3936  0.2441
  211MOL0     H29118   2.087   7.639   5.647 -0.0526  0.1043 -0.1721
  212MOL0     O29119   8.564   7.949   4.380  1.3507  0.0087 -0.0065
  212MOL0     C29120   8.569   7.981   4.265  0.7182 -0.0047 -0.3466
  212MOL0     O29121   8.652   7.924   4.169 -0.0052  0.7472 -0.6359
  212MOL0     C29122   8.719   7.804   4.198  0.5615  0.3088 -0.8113
  212MOL0     C29123   8.659   7.697   4.263 -0.0567  0.4912  0.7087
  212MOL0     C29124   8.728   7.581   4.283  0.3810  1.0931 -1.0936
  212MOL0     C29125   8.847   7.559   4.236 -0.5739 -0.3154  0.2388
  212MOL0     O29126   8.920   7.447   4.277 -0.2011  0.2963  0.2393
  212MOL0     C29127   9.058   7.444   4.262 -1.0526  0.4078 -0.1585
  212MOL0     C29128   9.116   7.304   4.279  0.1076 -0.6157  0.0480
  212MOL0     C29129   9.179   7.290   4.415  0.0405 -0.0097 -0.1476
  212MOL0     C29130   9.072   7.285   4.526  1.1234  0.1642 -0.0272
  212MOL0     C29131   9.133   7.223   4.654 -0.7284 -0.0333  0.1696
  212MOL0     C29132   9.206   7.330   4.727 -0.2120  0.0481  0.1514
  212MOL0     C29133   9.262   7.262   4.853  0.2616 -0.1472  0.8077
  212MOL0     C29134   9.338   7.371   4.940 -0.1675 -0.4441 -0.1374
  212MOL0     N29135   9.244   7.470   4.993 -0.2799  0.4162  0.4051
  212MOL0     C29136   9.204   7.577   4.917 -0.3239  0.8175  0.9292
  212MOL0     C29137   9.092   7.624   4.977  0.1965 -0.2455  0.1880
  212MOL0     C29138   9.020   7.752   4.952  0.7516  0.3032 -0.0310
  212MOL0     C29139   9.114   7.872   4.914 -0.1757  0.1882 -1.0204
  212MOL0     C29140   9.159   7.958   5.032 -0.5440  0.7591  0.0920
  212MOL0     C29141   9.246   8.067   4.984  0.6013  0.4538 -0.4603
  212MOL0     O29142   9.248   8.159   5.097 -0.3605  0.5603  0.5893
  212MOL0     C29143   9.348   8.152   5.197 -0.8298 -0.3146  0.1524
  212MOL0     C29144   9.470   8.076   5.189 -0.0424 -1.5035  0.1257
  212MOL0     C29145   9.563   8.083   5.295 -0.5438 -0.0573  0.0355
  212MOL0     C29146   9.687   7.983   5.287  0.7468  0.4962 -0.0822
  212MOL0     C29147   9.543   8.171   5.399  0.6365 -0.3664 -0.2791
  212MOL0     C29148   9.627   8.181   5.519  1.0107  0.1870 -0.1052
  212MOL0     O29149   9.559   8.209   5.640 -0.2117  0.0427 -0.5511
  212MOL0     C29150   9.636   8.229   5.756  0.4801  0.0834  0.7493
  212MOL0     C29151   9.703   8.350   5.767  1.3164  1.2120 -0.0416
  212MOL0     C29152   9.783   8.364   5.882  0.2374 -0.3483 -0.1337
  212MOL0     C29153   9.803   8.274   5.979  0.0762  0.6098  0.6496
  212MOL0     O29154   9.898   8.298   6.070 -0.4554 -0.3055 -0.6961
  212MOL0     C29155   9.860   8.255   6.200  0.2363 -0.7576 -0.4682
  212MOL0     C29156   9.914   8.364   6.299 -0.0603  0.3907  0.1636
  212MOL0     C29157  10.061   8.381   6.280 -0.6654 -0.1987 -0.3963
  212MOL0     C29158  10.149   8.309   6.371 -0.4497  0.1207  0.0140
  212MOL0     C29159  10.134   8.144   6.358 -0.0521 -0.3948  0.0486
  212MOL0     C29160  10.271   8.076   6.375  0.4485  0.0805  0.3873
  212MOL0     C29161  10.289   7.939   6.302 -0.4817  0.0354  0.3593
  212MOL0     C29162  10.341   7.932   6.161 -0.1804 -1.2160 -0.2690
  212MOL0    Cl29163  10.519   7.920   6.159 -0.2615  0.2724  0.4787
  212MOL0     C29164   9.748   8.151   5.958  0.0694 -0.2344 -0.5050
  212MOL0     C29165   9.656   8.133   5.849 -0.0198  0.4601 -0.7398
  212MOL0     O29166   9.747   8.189   5.502  0.4277 -0.1075 -0.4389
  212MOL0     C29167   9.428   8.258   5.405  0.3022  0.2079  0.5850
  212MOL0     C29168   9.329   8.229   5.308 -0.4707 -1.5286  0.7770
  212MOL0     N29169   9.069   7.542   5.086 -0.0552  0.6403 -0.5519
  212MOL0     N29170   9.159   7.453   5.096  0.1266 -0.6342  0.7917
  212MOL0     C29171   8.902   7.652   4.152 -1.4656  0.2663 -0.4376
  212MOL0     C29172   8.837   7.778   4.128 -0.6567 -0.8331 -0.3473
  212MOL0     C29173   8.482   8.096   4.203 -0.5098 -0.5852  0.0266
  212MOL0     C29174   8.518   8.137   4.070  0.7826 -0.1860 -0.8919
  212MOL0     C29175   8.457   8.245   4.011  0.1172 -0.1220 -0.2366
  212MOL0     C29176   8.353   8.309   4.080 -0.2362 -0.1520 -0.4981
  212MOL0     O29177   8.277   8.404   4.020 -0.8816  0.3495  0.3803
  212MOL0     C29178   8.260   8.394   3.872  0.2008  0.6069  0.6365
  212MOL0     C29179   8.222   8.255   3.814 -0.1190 -0.5881  0.3430
  212MOL0     C29180   8.166   8.264   3.670 -0.4626 -0.2825 -0.1147
  212MOL0     C29181   8.271   8.307   3.570 -1.0200  0.2564  0.1410
  212MOL0     C29182   8.393   8.237   3.586 -1.2254 -0.4737 -0.3929
  212MOL0     C29183   8.498   8.184   3.629  1.4034  0.8999  0.3001
  212MOL0     C29184   8.322   8.283   4.220  0.9282 -0.2919 -0.0123
  212MOL0     C29185   8.396   8.181   4.286  0.0648 -0.6203  0.1402
  212MOL0     C29186   8.359   8.140   4.419  0.5945 -0.3400  0.0029
  212MOL0     H29187   8.557   7.696   4.301 -0.2172 -0.1906  0.2836
  212MOL0     H29188   8.701   7.507   4.357 -2.4780  1.0532 -2.0222
  212MOL0     H29189   9.117   7.521   4.313 -1.9626  2.3654 -1.9201
  212MOL0     H29190   9.084   7.450   4.156 -1.9606  1.2004 -0.3374
  212MOL0     H29191   9.045   7.222   4.264  1.1104 -1.7422  1.2433
  212MOL0     H29192   9.205   7.300   4.216 -0.0268  2.5716 -0.5074
  212MOL0     H29193   9.242   7.202   4.406 -1.7208 -1.2210 -1.1414
  212MOL0     H29194   9.240   7.377   4.443  0.6073 -0.5011  0.1691
  212MOL0     H29195   9.033   7.387   4.536 -2.5578 -1.1388  0.0795
  212MOL0     H29196   8.985   7.225   4.500  0.2204  1.8853 -1.1822
  212MOL0     H29197   9.202   7.145   4.620  0.2009  0.5784  0.6017
  212MOL0     H29198   9.066   7.166   4.718 -1.0251  0.0989 -0.0196
  212MOL0     H29199   9.284   7.374   4.665  0.6884  0.0019  1.2254
  212MOL0     H29200   9.137   7.413   4.746 -0.4008 -0.5474  2.3016
  212MOL0     H29201   9.342   7.194   4.820 -0.1980  0.6351 -2.1337
  212MOL0     H29202   9.178   7.216   4.906 -2.4494  2.0325 -1.3494
  212MOL0     H29203   9.383   7.315   5.023  0.4794  0.4687  0.1528
  212MOL0     H29204   9.420   7.415   4.882 -1.2652  0.7040 -0.8475
  212MOL0     H29205   9.263   7.618   4.836  3.6696 -0.4009  2.9999
  212MOL0     H29206   8.948   7.774   5.030  0.5299 -1.6453  0.3565
  212MOL0     H29207   8.958   7.732   4.864  0.7053 -0.4472  0.1695
  212MOL0     H29208   9.205   7.833   4.867  0.7930 -1.2372  1.7620
  212MOL0     H29209   9.055   7.934   4.846  2.5504  0.5870 -3.2202
  212MOL0     H29210   9.084   8.006   5.095 -1.0570  2.4401 -1.7080
  212MOL0     H29211   9.223   7.882   5.079 -4.6897 -0.2467  5.1108
  212MOL0     H29212   9.345   8.044   4.943 -0.1943  1.2909 -3.0183
  212MOL0     H29213   9.195   8.120   4.903 -0.6437  1.1501  0.7385
  212MOL0     H29214   9.493   8.018   5.100 -1.8340 -0.3082 -1.2012
  212MOL0     H29215   9.679   7.900   5.215 -1.3945 -1.0850  1.8343
  212MOL0     H29216   9.710   7.938   5.383  1.8766 -0.1985 -0.6626
  212MOL0     H29217   9.780   8.028   5.251  1.1887 -0.0827  0.3393
  212MOL0     H29218   9.688   8.426   5.691 -0.6422 -0.1336 -1.0798
  212MOL0     H29219   9.832   8.460   5.889  1.8258 -1.2159  1.6749
  212MOL0     H29220   9.752   8.266   6.212 -0.3155 -2.6793 -2.9453
  212MOL0     H29221   9.891   8.153   6.224 -1.6899 -0.8521  2.0657
  212MOL0     H29222   9.863   8.460   6.306 -2.1672 -0.6141 -0.4434
  212MOL0     H29223   9.909   8.322   6.400  4.0052 -0.2340  0.2740
  212MOL0     H29224  10.082   8.488   6.278 -1.7608  0.0080 -1.5544
  212MOL0     H29225  10.091   8.358   6.177 -2.2113 -2.3526 -0.4464
  212MOL0     H29226  10.125   8.337   6.474  1.0111  3.0369 -0.3361
  212MOL0     H29227  10.248   8.349   6.348 -0.7808  2.4920  2.2557
  212MOL0     H29228  10.061   8.092   6.420 -0.3624 -0.8518 -0.6937
  212MOL0     H29229  10.114   8.119   6.254 -0.1624  1.4368 -0.4001
  212MOL0     H29230  10.285   8.058   6.482  2.1207 -1.9977 -0.1144
  212MOL0     H29231  10.347   8.149   6.347 -0.4857  1.8091  2.0589
  212MOL0     H29232  10.192   7.888   6.309 -0.4282 -0.6181 -2.5036
  212MOL0     H29233  10.361   7.882   6.360  2.3570  0.3072 -2.6106
  212MOL0     H29234  10.306   8.016   6.101 -1.3747 -2.2471 -1.0844
  212MOL0     H29235  10.295   7.844   6.114 -1.3502 -0.3873 -0.7166
  212MOL0     H29236   9.762   8.069   6.029 -2.6327  1.6607  2.5085
  212MOL0     H29237   9.602   8.040   5.837  0.2432  0.3619 -1.1700
  212MOL0     H29238   9.414   8.331   5.484 -1.3529  1.2313 -0.5809
  212MOL0     H29239   9.240   8.288   5.323  1.2484  0.3826  5.3536
  212MOL0     H29240   8.995   7.637   4.097 -1.4946  0.7085 -0.6084
  212MOL0     H29241   8.882   7.844   4.055  2.5845 -3.0572 -0.5521
  212MOL0     H29242   8.593   8.085   4.012  1.7338 -0.2842  0.3672
  212MOL0     H29243   8.501   8.273   3.916 -1.5730  0.4545 -0.8832
  212MOL0     H29244   8.173   8.459   3.862 -1.0549 -0.1286  4.6854
  212MOL0     H29245   8.339   8.446   3.816 -0.5672  2.1629  0.9413
  212MOL0     H29246   8.144   8.211   3.877 -0.2795  1.8109  1.9614
  212MOL0     H29247   8.303   8.183   3.818  0.6344  0.1601 -0.7180
  212MOL0     H29248   8.120   8.167   3.654  1.2341 -1.4247  1.5073
  212MOL0     H29249   8.088   8.338   3.651  0.7260  0.9133 -0.5267
  212MOL0     H29250   8.285   8.415   3.575  3.9571 -0.1755  0.4929
  212MOL0     H29251   8.219   8.283   3.477  0.0101 -0.4433 -0.2689
  212MOL0     H29252   8.588   8.145   3.672  0.3444 -2.2607 -0.1005
  212MOL0     H29253   8.243   8.332   4.276 -1.7989 -2.5391 -1.5743
  212MOL0     H29254   8.448   8.126   4.482  0.3753 -4.2068 -0.3071
  212MOL0     H29255   8.309   8.219   4.476 -1.3722 -2.0788  0.8078
  212MOL0     H29256   8.301   8.048   4.423 -0.5555  0.4089  1.6727
  213MOL0     O29257   7.794   6.950   4.865 -0.4517 -0.5624  0.6852
  213MOL0     C29258   7.785   7.073   4.843 -0.6542 -0.6717  0.1256
  213MOL0     O29259   7.818   7.176   4.917  0.1633 -0.4491  0.8377
  213MOL0     C29260   7.894   7.141   5.025  0.5284  0.0459  0.1393
  213MOL0     C29261   7.855   7.175   5.153 -0.3443 -0.9631 -0.5680
  213MOL0     C29262   7.937   7.138   5.259  0.4690 -0.0860 -0.1478
  213MOL0     C29263   8.055   7.070   5.248 -0.6015 -0.4400  0.7805
  213MOL0     O29264   8.134   7.031   5.352  0.2722 -0.3357  0.4312
  213MOL0     C29265   8.083   7.059   5.482  0.8086  0.1072 -0.1344
  213MOL0     C29266   8.178   7.014   5.596 -0.8044  0.4957 -0.5005
  213MOL0     C29267   8.120   7.055   5.721 -0.7566 -0.3945 -0.0060
  213MOL0     C29268   8.139   7.207   5.752  0.0540  1.6524  0.5799
  213MOL0     C29269   8.100   7.257   5.884 -0.1192 -0.0638 -0.2928
  213MOL0     C29270   8.122   7.401   5.896 -0.3190 -0.5945 -1.2318
  213MOL0     C29271   8.141   7.452   6.042  0.3323  0.7831 -0.5807
  213MOL0     C29272   8.136   7.606   6.048 -0.1092  0.9118 -0.0891
  213MOL0     N29273   8.253   7.667   6.110  0.3200 -0.0228 -0.7745
  213MOL0     C29274   8.293   7.643   6.245  0.1816 -0.1430  0.7247
  213MOL0     C29275   8.414   7.712   6.247  0.4496 -0.2670  0.6163
  213MOL0     C29276   8.493   7.729   6.369 -0.2136  0.1063  0.3078
  213MOL0     C29277   8.626   7.646   6.351 -0.5221  0.0539 -0.1159
  213MOL0     C29278   8.713   7.630   6.477 -0.3601 -0.6197 -0.4196
  213MOL0     C29279   8.686   7.741   6.590 -0.6943 -0.9894 -0.3433
  213MOL0     O29280   8.577   7.712   6.679  0.0399 -0.2430  0.4377
  213MOL0     C29281   8.523   7.812   6.750  0.7009 -0.1072 -0.0633
  213MOL0     C29282   8.574   7.939   6.770  0.1525 -0.4928 -0.1361
  213MOL0     C29283   8.486   8.039   6.827 -0.3403  0.2583 -0.7587
  213MOL0     C29284   8.550   8.180   6.846 -0.5006  0.7722 -0.8906
  213MOL0     C29285   8.357   8.009   6.874 -0.1389  0.0506 -0.0916
  213MOL0     C29286   8.259   8.114   6.924 -0.2089  0.1216 -0.3221
  213MOL0     O29287   8.239   8.221   6.834  0.1521  0.7091  0.5394
  213MOL0     C29288   8.150   8.309   6.884  0.6840 -0.2294  0.9897
  213MOL0     C29289   8.003   8.286   6.881 -0.5765  0.1020  1.1243
  213MOL0     C29290   7.918   8.384   6.924 -0.5617 -0.0877  0.3098
  213MOL0     C29291   7.970   8.502   6.973 -0.0132  0.2978  0.6730
  213MOL0     O29292   7.894   8.605   7.025 -0.2185  0.9402 -0.3025
  213MOL0     C29293   7.756   8.584   7.070 -0.5794  0.2840 -0.6802
  213MOL0     C29294   7.660   8.677   6.998  0.9127 -0.6679  0.6658
  213MOL0     C29295   7.662   8.658   6.842 -0.3009 -0.2205  0.0189
  213MOL0     C29296   7.536   8.594   6.779 -0.9842  0.1570  0.7408
  213MOL0     C29297   7.523   8.628   6.631  0.6718  0.3245  0.2992
  213MOL0     C29298   7.619   8.555   6.535 -0.2721 -0.2001  1.4539
  213MOL0     C29299   7.585   8.571   6.384 -0.1642 -0.3595 -0.8046
  213MOL0     C29300   7.654   8.466   6.297 -1.0189  0.0827 -0.2596
  213MOL0    Cl29301   7.580   8.304   6.323 -0.5390  0.6452  0.0528
  213MOL0     C29302   8.105   8.526   6.959  0.3930  0.2270  0.3016
  213MOL0     C29303   8.195   8.432   6.921  0.3361  0.0988  0.0102
  213MOL0     O29304   8.213   8.094   7.035  0.3117  0.9931  0.1648
  213MOL0     C29305   8.327   7.870   6.877  0.7761  0.7852  0.4696
  213MOL0     C29306   8.412   7.780   6.819  0.3870  0.2667 -0.3921
  213MOL0     N29307   8.419   7.782   6.134 -0.7231 -0.0301 -0.3106
  213MOL0     N29308   8.325   7.763   6.055  0.4228  0.8031 -1.1264
  213MOL0     C29309   8.088   7.028   5.117 -0.2813 -0.3163 -0.3876
  213MOL0     C29310   8.014   7.073   5.004  0.1874  0.2100 -0.5765
  213MOL0     C29311   7.723   7.110   4.717  0.3847 -0.0140 -0.6077
  213MOL0     C29312   7.687   7.244   4.699  1.0713  0.1033  0.2994
  213MOL0     C29313   7.650   7.284   4.572  0.6049 -0.6647  0.0156
  213MOL0     C29314   7.663   7.204   4.458 -0.2236 -0.0686 -0.2617
  213MOL0     O29315   7.628   7.231   4.329 -0.3772 -0.1621  0.6087
  213MOL0     C29316   7.621   7.370   4.287 -0.5452  0.0785 -0.2218
  213MOL0     C29317   7.756   7.440   4.296  0.1461 -0.1144 -0.5288
  213MOL0     C29318   7.761   7.586   4.248  0.6098  0.2372 -1.7368
  213MOL0     C29319   7.802   7.597   4.097 -1.1757  0.0902 -0.6533
  213MOL0     C29320   7.945   7.551   4.078  1.4236  0.2707  0.3174
  213MOL0     C29321   8.062   7.531   4.059  0.5255 -0.3499 -0.1701
  213MOL0     C29322   7.691   7.074   4.482  0.3960 -0.3928 -0.8372
  213MOL0     C29323   7.724   7.027   4.608 -0.4396 -0.6099  0.3840
  213MOL0     C29324   7.743   6.866   4.604  0.8073 -0.2828  0.7410
  213MOL0     H29325   7.765   7.219   5.196  1.2291  0.8872  0.9963
  213MOL0     H29326   7.893   7.167   5.354 -0.8737  0.1108 -0.8108
  213MOL0     H29327   7.986   7.012   5.502  1.1830 -0.8329 -0.4591
  213MOL0     H29328   8.075   7.167   5.496 -0.9118 -0.2367  2.0461
  213MOL0     H29329   8.195   6.906   5.590  1.5537  0.8086 -0.7213
  213MOL0     H29330   8.280   7.052   5.578  0.2006 -2.0960 -0.6936
  213MOL0     H29331   8.017   7.024   5.739 -0.8109  0.8516  2.1609
  213MOL0     H29332   8.164   6.995   5.801  1.9678  1.0228 -0.3335
  213MOL0     H29333   8.244   7.232   5.732 -0.5340  2.5137 -1.6900
  213MOL0     H29334   8.085   7.271   5.682 -2.9773  0.1918  1.4340
  213MOL0     H29335   8.163   7.205   5.956  2.6880  4.2896  0.7864
  213MOL0     H29336   7.995   7.232   5.904  0.1333 -0.7457  0.2137
  213MOL0     H29337   8.221   7.425   5.857  1.9188  0.6256  4.2582
  213MOL0     H29338   8.042   7.460   5.853 -0.8149  1.3261  1.9903
  213MOL0     H29339   8.237   7.413   6.076 -0.1565 -0.3399 -0.4190
  213MOL0     H29340   8.063   7.402   6.101  1.2067 -0.6079 -0.5467
  213MOL0     H29341   8.146   7.650   5.949  4.0403  0.0326 -0.2162
  213MOL0     H29342   8.033   7.623   6.083 -0.1419 -4.5765  3.7461
  213MOL0     H29343   8.234   7.586   6.316 -0.6871  0.7684  0.7616
  213MOL0     H29344   8.438   7.675   6.446 -2.5986 -2.2819 -2.8288
  213MOL0     H29345   8.518   7.834   6.388  1.8143 -0.3440  0.3418
  213MOL0     H29346   8.591   7.548   6.316  1.9476 -1.3939  1.2241
  213MOL0     H29347   8.687   7.696   6.274 -1.7060 -1.6460 -2.2847
  213MOL0     H29348   8.678   7.540   6.528 -2.5239  1.7387  2.6511
  213MOL0     H29349   8.821   7.630   6.458  0.2647  2.0696  2.4101
  213MOL0     H29350   8.777   7.743   6.650 -1.1069  1.3604  0.2776
  213MOL0     H29351   8.685   7.845   6.557  3.7072 -0.6169  0.1168
  213MOL0     H29352   8.667   7.981   6.732  1.6381 -0.4700  3.1688
  213MOL0     H29353   8.554   8.215   6.949  0.9327 -2.3538  0.2234
  213MOL0     H29354   8.504   8.254   6.780 -3.1408  0.2829  0.2761
  213MOL0     H29355   8.655   8.181   6.814 -0.1128  1.9544  0.3233
  213MOL0     H29356   7.966   8.191   6.843  1.1677  0.0383 -0.5803
  213MOL0     H29357   7.811   8.363   6.923 -1.3227  3.2619 -0.3015
  213MOL0     H29358   7.727   8.479   7.066  1.3798 -0.3610  0.6426
  213MOL0     H29359   7.762   8.607   7.177  1.9700 -0.0711 -0.6844
  213MOL0     H29360   7.564   8.654   7.044  0.0080  1.9965  0.2702
  213MOL0     H29361   7.673   8.782   7.025 -0.7571 -0.7993  2.1385
  213MOL0     H29362   7.752   8.600   6.819 -0.3585 -0.9584  1.5329
  213MOL0     H29363   7.674   8.750   6.784  0.4214  0.4893  1.2409
  213MOL0     H29364   7.443   8.624   6.829 -1.8578 -2.9663  1.1811
  213MOL0     H29365   7.549   8.488   6.799  0.7819  0.2153  0.1024
  213MOL0     H29366   7.420   8.603   6.606  0.8161  0.4479 -0.4504
  213MOL0     H29367   7.548   8.733   6.610 -0.3525 -0.0359 -3.2630
  213MOL0     H29368   7.606   8.451   6.568 -2.6832 -0.0911  0.9799
  213MOL0     H29369   7.723   8.586   6.549  0.5420 -1.4495 -1.1535
  213MOL0     H29370   7.622   8.669   6.352 -4.3093  1.6795  0.0015
  213MOL0     H29371   7.479   8.564   6.359 -0.5287 -0.6266  0.7409
  213MOL0     H29372   7.760   8.462   6.326 -1.0220 -0.4332 -0.3172
  213MOL0     H29373   7.638   8.495   6.193 -4.0788  0.7598  0.3144
  213MOL0     H29374   8.134   8.626   6.989 -1.2884  1.1477 -0.9360
  213MOL0     H29375   8.302   8.450   6.915  0.0952  2.7311  1.8240
  213MOL0     H29376   8.234   7.838   6.924  0.2245  1.6000 -0.0417
  213MOL0     H29377   8.378   7.677   6.811  2.2588 -0.4543  0.3328
  213MOL0     H29378   8.174   6.966   5.096  0.9225  0.2671  2.3792
  213MOL0     H29379   8.036   7.036   4.905  0.1889 -0.8805 -0.1805
  213MOL0     H29380   7.668   7.319   4.776  0.3238 -1.1793  1.4070
  213MOL0     H29381   7.615   7.387   4.567  0.5131 -0.7213 -0.7146
  213MOL0     H29382   7.587   7.374   4.183  2.2346 -2.1165 -1.3793
  213MOL0     H29383   7.547   7.427   4.344  1.6840  2.1510  0.7711
  213MOL0     H29384   7.835   7.374   4.260 -1.4370 -2.2385 -0.2826
  213MOL0     H29385   7.773   7.469   4.400  0.6397  5.6490 -1.8774
  213MOL0     H29386   7.659   7.625   4.252 -1.2966 -3.8522 -3.4997
  213MOL0     H29387   7.830   7.646   4.306  0.1484 -1.2830  0.5227
  213MOL0     H29388   7.791   7.701   4.067  2.3009  0.8622  0.2797
  213MOL0     H29389   7.741   7.528   4.038 -0.7832 -1.2564  0.4435
  213MOL0     H29390   8.161   7.518   4.021  0.1045 -3.5367 -0.4779
  213MOL0     H29391   7.696   7.014   4.392  2.5919 -0.6488 -0.6042
  213MOL0     H29392   7.710   6.812   4.514  0.3694 -1.2933  1.4911
  213MOL0     H29393   7.845   6.835   4.625  1.2319 -0.2474 -1.1202
  213MOL0     H29394   7.677   6.828   4.683 -0.9611  0.5735 -0.2499
  214MOL0     O29395   5.330  11.585   6.420 -0.1837 -0.6423  0.3489
  214MOL0     C29396   5.354  11.583   6.539 -1.4156  0.1020  0.2719
  214MOL0     O29397   5.382  11.692   6.619  0.0129 -0.5022 -0.3454
  214MOL0     C29398   5.406  11.813   6.555 -0.0089  0.3988  0.7492
  214MOL0     C29399   5.532  11.854   6.500 -0.0246 -0.5557 -0.4788
  214MOL0     C29400   5.543  11.974   6.429 -0.0455 -0.7540 -0.7854
  214MOL0     C29401   5.433  12.065   6.420 -0.5520 -0.4559 -0.6090
  214MOL0     O29402   5.440  12.177   6.345  0.9650 -0.1858 -0.0842
  214MOL0     C29403   5.544  12.279   6.361 -0.5597 -0.1260  0.1499
  214MOL0     C29404   5.514  12.390   6.278  0.4575  1.1008 -0.6912
  214MOL0     C29405   5.396  12.481   6.335  0.5185 -0.5698  0.3868
  214MOL0     C29406   5.355  12.578   6.227  1.8359 -0.2148 -0.0716
  214MOL0     C29407   5.468  12.675   6.196  0.0751  0.2708 -0.6175
  214MOL0     C29408   5.428  12.780   6.089 -0.6733  0.1153  0.5072
  214MOL0     C29409   5.503  12.903   6.096  0.1185  0.2552  0.2001
  214MOL0     C29410   5.484  12.989   5.973 -1.0868 -0.5211  0.5589
  214MOL0     N29411   5.582  13.097   5.985 -0.1637  1.2685 -0.6286
  214MOL0     C29412   5.717  13.087   6.009 -0.0028  0.2058 -0.1203
  214MOL0     C29413   5.761  13.209   6.044  0.6302  0.3375 -0.6703
  214MOL0     C29414   5.908  13.238   6.099 -0.6549  0.7895 -0.1721
  214MOL0     C29415   6.019  13.275   5.997  0.0960 -0.2683 -0.4380
  214MOL0     C29416   6.141  13.309   6.081  0.1229 -0.7263 -0.4073
  214MOL0     C29417   6.188  13.201   6.184  0.1644 -0.5731  0.0844
  214MOL0     O29418   6.327  13.229   6.220  0.9207 -0.7138 -0.2216
  214MOL0     C29419   6.406  13.126   6.252 -0.4627  1.1508 -0.0702
  214MOL0     C29420   6.532  13.134   6.199  0.1195  0.5832 -0.0978
  214MOL0     C29421   6.630  13.035   6.230 -0.1135 -0.2605 -0.1552
  214MOL0     C29422   6.762  13.044   6.170  0.2462 -1.0267 -1.1305
  214MOL0     C29423   6.593  12.929   6.317 -0.2684 -0.1502 -0.6105
  214MOL0     C29424   6.680  12.821   6.352  0.2095 -0.3111 -0.1033
  214MOL0     O29425   6.624  12.711   6.411  0.6137  0.5963 -0.0358
  214MOL0     C29426   6.693  12.598   6.441 -0.1860  0.2829  1.1517
  214MOL0     C29427   6.751  12.530   6.335  0.3457 -1.0911 -0.3156
  214MOL0     C29428   6.806  12.403   6.346  0.7080 -0.0707  0.1613
  214MOL0     C29429   6.797  12.343   6.476  0.3584  0.1366  0.8062
  214MOL0     O29430   6.843  12.219   6.495  0.5187  0.0797  0.9664
  214MOL0     C29431   6.797  12.113   6.422 -0.4133 -0.0629 -0.1117
  214MOL0     C29432   6.733  12.015   6.519  0.7616 -0.2639 -0.5605
  214MOL0     C29433   6.834  11.936   6.602  0.8723 -0.3461  0.1559
  214MOL0     C29434   6.883  11.998   6.737 -0.4225 -0.6014 -0.1302
  214MOL0     C29435   6.925  11.881   6.823 -0.2226  0.6044  0.1763
  214MOL0     C29436   7.016  11.918   6.937 -0.5746  0.4474  0.0675
  214MOL0     C29437   6.998  11.805   7.049 -0.8874 -0.8573 -0.0028
  214MOL0     C29438   7.122  11.815   7.146  0.3979 -0.4928  0.4796
  214MOL0    Cl29439   7.260  11.787   7.055 -0.3820 -0.1503  0.7423
  214MOL0     C29440   6.736  12.409   6.577 -0.3155 -0.1260 -0.2593
  214MOL0     C29441   6.674  12.534   6.560 -0.1044 -0.1427 -0.1649
  214MOL0     O29442   6.801  12.842   6.355 -0.2624 -0.3741 -0.3338
  214MOL0     C29443   6.468  12.929   6.369  0.5043  0.2958 -0.1694
  214MOL0     C29444   6.374  13.032   6.348 -0.1610  0.4557  0.1351
  214MOL0     N29445   5.663  13.298   6.025  0.1707 -0.4527 -0.5851
  214MOL0     N29446   5.558  13.228   5.987  0.0067  0.3600  0.7785
  214MOL0     C29447   5.309  12.031   6.480  0.1657  0.7065  0.4224
  214MOL0     C29448   5.295  11.907   6.545 -0.5132 -0.7581  0.7174
  214MOL0     C29449   5.327  11.471   6.622 -0.3101 -0.6758  1.0068
  214MOL0     C29450   5.409  11.460   6.736  0.4246 -0.0009 -0.5399
  214MOL0     C29451   5.391  11.352   6.818 -0.2357 -0.4926  0.1629
  214MOL0     C29452   5.295  11.258   6.802  0.6448  0.6701 -0.2313
  214MOL0     O29453   5.285  11.168   6.901 -0.1600  0.4326  0.0286
  214MOL0     C29454   5.147  11.152   6.941 -0.5296 -0.3713 -0.4682
  214MOL0     C29455   5.172  11.082   7.079  0.3457  0.1079  0.5140
  214MOL0     C29456   5.047  11.021   7.144  0.1954 -0.5124  0.2679
  214MOL0     C29457   4.928  11.114   7.164 -0.8039 -0.0264 -0.1004
  214MOL0     C29458   4.953  11.187   7.290  0.3910 -0.1586  0.0373
  214MOL0     C29459   4.974  11.229   7.402  0.1543 -0.3390  0.5896
  214MOL0     C29460   5.219  11.262   6.684  0.2316 -1.2454 -0.1345
  214MOL0     C29461   5.224  11.375   6.598  0.4295 -0.2564  0.2588
  214MOL0     C29462   5.144  11.375   6.460 -0.0584  0.0691 -0.5316
  214MOL0     H29463   5.624  11.798   6.507  2.5118  2.7211 -3.8792
  214MOL0     H29464   5.637  11.994   6.378 -1.3004  1.0215 -2.5419
  214MOL0     H29465   5.641  12.235   6.333 -0.6620 -0.8684  0.9215
  214MOL0     H29466   5.550  12.320   6.462 -0.2171  0.5557 -0.1383
  214MOL0     H29467   5.610  12.442   6.276  1.2034 -0.1166  1.1120
  214MOL0     H29468   5.486  12.365   6.176 -0.0310  2.5202 -0.9252
  214MOL0     H29469   5.310  12.417   6.359  0.4392  0.8585  4.7793
  214MOL0     H29470   5.429  12.526   6.429 -1.6226  0.0024  0.9073
  214MOL0     H29471   5.309  12.526   6.142  0.4989  1.6027 -0.5076
  214MOL0     H29472   5.275  12.639   6.269  1.3712 -1.2054  0.5241
  214MOL0     H29473   5.557  12.619   6.167  1.7085  2.7127 -0.5699
  214MOL0     H29474   5.500  12.724   6.289  3.2792 -3.0770  0.3002
  214MOL0     H29475   5.439  12.735   5.990  2.4455 -3.8238  2.3508
  214MOL0     H29476   5.320  12.794   6.101 -0.4931  0.7465  1.4295
  214MOL0     H29477   5.607  12.868   6.099 -0.8660 -3.3507 -1.6056
  214MOL0     H29478   5.475  12.948   6.191 -1.4064 -0.1829 -0.0160
  214MOL0     H29479   5.498  12.929   5.883 -2.0944  0.6328 -0.3890
  214MOL0     H29480   5.386  13.036   5.960 -0.7618 -0.1188 -0.5268
  214MOL0     H29481   5.761  12.988   6.018  1.8036  1.1695  4.6191
  214MOL0     H29482   5.935  13.156   6.166 -0.4966  1.6126  0.8034
  214MOL0     H29483   5.891  13.321   6.168 -1.8121 -3.5052  5.4685
  214MOL0     H29484   6.043  13.197   5.924 -0.9813 -2.8340  1.7394
  214MOL0     H29485   5.982  13.360   5.940  0.6152  1.2265  1.3564
  214MOL0     H29486   6.231  13.315   6.018  0.9023  1.5188  0.8031
  214MOL0     H29487   6.141  13.415   6.110  0.4315 -1.4632  2.5061
  214MOL0     H29488   6.123  13.205   6.272 -2.7771 -1.5729 -1.8975
  214MOL0     H29489   6.175  13.101   6.142 -0.1865 -0.5043  0.0273
  214MOL0     H29490   6.560  13.215   6.132 -1.9568  0.9216 -0.6438
  214MOL0     H29491   6.784  12.941   6.138 -0.0177 -1.3057 -0.4425
  214MOL0     H29492   6.836  13.101   6.227  0.5675 -2.6230  0.1532
  214MOL0     H29493   6.754  13.107   6.081  3.0015 -2.5464 -2.5923
  214MOL0     H29494   6.779  12.593   6.251 -0.7242  2.8723  2.0463
  214MOL0     H29495   6.840  12.342   6.263  1.1943 -2.0055  1.7079
  214MOL0     H29496   6.730  12.143   6.340 -0.9087 -0.3355  0.1927
  214MOL0     H29497   6.878  12.063   6.368 -2.8082 -3.9981 -0.4674
  214MOL0     H29498   6.658  12.062   6.584  0.8185  0.7396 -1.1995
  214MOL0     H29499   6.677  11.948   6.453  1.3256  0.7547 -2.1284
  214MOL0     H29500   6.923  11.906   6.546  1.5125  0.5484  0.6731
  214MOL0     H29501   6.791  11.838   6.628  2.0296 -0.1196  3.3714
  214MOL0     H29502   6.812  12.059   6.793  1.9635  2.7712 -0.4529
  214MOL0     H29503   6.966  12.066   6.714 -0.9622 -0.2743 -1.1666
  214MOL0     H29504   6.829  11.842   6.857  0.4515 -0.6577  0.7191
  214MOL0     H29505   6.972  11.800   6.767 -2.5447 -0.1504 -0.7973
  214MOL0     H29506   6.987  12.013   6.982 -1.1135 -1.1196  3.3228
  214MOL0     H29507   7.118  11.920   6.896 -0.9033 -2.3516 -1.1188
  214MOL0     H29508   6.988  11.709   6.998 -5.4230  0.2043 -1.5265
  214MOL0     H29509   6.903  11.826   7.098 -0.7058  0.8340 -0.3048
  214MOL0     H29510   7.117  11.725   7.209  1.5185 -1.5821 -0.9322
  214MOL0     H29511   7.132  11.910   7.201  1.3662  0.3624 -1.1093
  214MOL0     H29512   6.734  12.371   6.679  3.7952  3.6989  1.6146
  214MOL0     H29513   6.619  12.579   6.642  2.2602  3.1470 -0.1732
  214MOL0     H29514   6.443  12.849   6.438 -3.0927  1.9290  0.6522
  214MOL0     H29515   6.272  13.028   6.385 -0.7701  0.2939 -1.4798
  214MOL0     H29516   5.224  12.096   6.466 -1.9409 -2.2827 -1.9315
  214MOL0     H29517   5.199  11.876   6.585 -0.0127 -3.1737  0.2161
  214MOL0     H29518   5.482  11.536   6.761  0.8507 -1.6494  4.0779
  214MOL0     H29519   5.455  11.347   6.906  2.2705  0.6095 -1.4928
  214MOL0     H29520   5.096  11.248   6.956 -1.3267 -0.9400  0.5437
  214MOL0     H29521   5.088  11.080   6.883  0.2616 -1.9414  0.6332
  214MOL0     H29522   5.227  11.148   7.147  1.5201  0.9117 -1.1462
  214MOL0     H29523   5.242  11.001   7.056  0.5515  0.2290  0.7119
  214MOL0     H29524   5.012  10.948   7.070  0.8902  1.4098 -2.0616
  214MOL0     H29525   5.074  10.980   7.242 -2.0788  1.5509  1.8665
  214MOL0     H29526   4.840  11.054   7.190 -1.2123  1.4690  2.2844
  214MOL0     H29527   4.913  11.178   7.077  1.2224  1.9517  0.9116
  214MOL0     H29528   5.007  11.245   7.502  1.7311 -3.1474  0.6129
  214MOL0     H29529   5.137  11.191   6.681 -1.6380  0.5936  2.7812
  214MOL0     H29530   5.195  11.388   6.364 -0.3480 -0.9556 -0.8326
  214MOL0     H29531   5.087  11.283   6.450  0.4722 -0.5022  1.2761
  214MOL0     H29532   5.086  11.468   6.459 -0.0801  0.0603 -0.1945
  215MOL0     O29533   8.224   8.569   0.209 -0.4434  0.0101  0.4530
  215MOL0     C29534   8.344   8.580   0.202 -0.4895 -0.5494  0.5261
  215MOL0     O29535   8.411   8.650   0.099 -0.4983  0.5509 -0.3736
  215MOL0     C29536   8.344   8.667  -0.022 -0.7094 -0.6699  0.4612
  215MOL0     C29537   8.229   8.613  -0.075  0.1197 -0.4217  0.2021
  215MOL0     C29538   8.179   8.649  -0.204  0.3895  0.4895  0.5157
  215MOL0     C29539   8.248   8.747  -0.281 -0.9412  0.0565 -0.1906
  215MOL0     O29540   8.177   8.784  -0.391 -0.1051  0.5395  0.0779
  215MOL0     C29541   8.171   8.925  -0.412  0.1936 -0.7911 -0.5098
  215MOL0     C29542   8.091   9.023  -0.330 -0.6109  0.0218 -0.0917
  215MOL0     C29543   7.951   8.984  -0.312 -0.5892 -0.2940  0.5320
  215MOL0     C29544   7.877   9.078  -0.225 -0.1435  0.4482 -0.2713
  215MOL0     C29545   7.781   9.004  -0.121 -0.1793  0.6136  0.2397
  215MOL0     C29546   7.859   8.918  -0.016  0.7671 -0.5231 -0.1363
  215MOL0     C29547   7.967   9.000   0.049 -0.3095 -0.3413  0.5852
  215MOL0     C29548   7.998   8.942   0.193 -0.3585  0.5733 -0.0019
  215MOL0     N29549   8.082   9.019   0.269  0.0821  0.2261  0.0121
  215MOL0     C29550   8.220   9.041   0.264  0.0245 -1.2547  0.7420
  215MOL0     C29551   8.251   9.143   0.349 -0.3188  1.0825  0.0758
  215MOL0     C29552   8.402   9.153   0.392  0.7501 -0.8946  0.0253
  215MOL0     C29553   8.474   9.257   0.314 -1.0925  0.2012  1.2309
  215MOL0     C29554   8.464   9.412   0.339  0.5822  0.4033 -0.2697
  215MOL0     C29555   8.569   9.449   0.449  0.1870  0.4457  0.0001
  215MOL0     O29556   8.506   9.414   0.576  0.2530 -0.5535 -0.0283
  215MOL0     C29557   8.591   9.381   0.679 -0.4294 -1.2378 -0.4274
  215MOL0     C29558   8.532   9.320   0.789 -0.5124 -0.3385  0.7220
  215MOL0     C29559   8.603   9.312   0.910 -0.3141 -0.0451  0.2668
  215MOL0     C29560   8.516   9.262   1.017 -0.2223 -0.4553 -0.0360
  215MOL0     C29561   8.741   9.350   0.911  0.2481 -0.0892 -0.4279
  215MOL0     C29562   8.833   9.339   1.031 -0.1594 -0.1748 -0.3270
  215MOL0     O29563   8.948   9.410   1.025 -0.7576 -0.9686  0.1006
  215MOL0     C29564   9.021   9.435   1.139 -0.0318 -0.5778 -0.4707
  215MOL0     C29565   8.976   9.456   1.267  0.3937  0.4841 -0.2654
  215MOL0     C29566   9.055   9.504   1.370  0.1961  0.2328  0.0093
  215MOL0     C29567   9.194   9.529   1.363 -0.1420  1.4561  1.3568
  215MOL0     O29568   9.257   9.575   1.471  0.9736  0.4508  0.2277
  215MOL0     C29569   9.385   9.641   1.451 -0.6638  0.2103 -0.6007
  215MOL0     C29570   9.440   9.704   1.580  0.3376  0.5746  1.3908
  215MOL0     C29571   9.466   9.592   1.695  0.6850  0.4381  0.2920
  215MOL0     C29572   9.565   9.474   1.664 -0.1978 -0.0250 -1.2584
  215MOL0     C29573   9.598   9.404   1.802 -0.4484  0.4587  1.0440
  215MOL0     C29574   9.638   9.265   1.759 -0.5548  0.3605  0.5079
  215MOL0     C29575   9.731   9.203   1.866  0.1037 -0.8153 -0.3003
  215MOL0     C29576   9.783   9.063   1.828 -0.9070 -0.0964 -0.5283
  215MOL0    Cl29577   9.931   9.072   1.723 -0.7809  0.0941 -0.2671
  215MOL0     C29578   9.244   9.508   1.230  0.1074 -0.4489 -0.8842
  215MOL0     C29579   9.157   9.473   1.128 -0.1806  0.4688  0.2781
  215MOL0     O29580   8.802   9.259   1.122  0.0011  0.4793 -0.0156
  215MOL0     C29581   8.800   9.417   0.804 -0.1103 -0.6053  0.3453
  215MOL0     C29582   8.724   9.429   0.688  0.5947  0.0341 -0.1123
  215MOL0     N29583   8.129   9.174   0.411  0.3810  1.0505 -0.7331
  215MOL0     N29584   8.038   9.092   0.379  0.0591 -0.2403  0.3378
  215MOL0     C29585   8.363   8.804  -0.229 -0.2764  0.3037  0.0588
  215MOL0     C29586   8.405   8.766  -0.098  1.1114 -0.9055  0.2013
  215MOL0     C29587   8.426   8.513   0.301 -1.1099 -0.5594  0.7595
  215MOL0     C29588   8.372   8.405   0.379 -0.0645 -0.3011  0.3766
  215MOL0     C29589   8.450   8.333   0.470 -0.4560  0.1177  0.1129
  215MOL0     C29590   8.585   8.356   0.507 -0.1346 -1.2622  0.6050
  215MOL0     O29591   8.647   8.260   0.576  0.0377  0.6405 -0.3187
  215MOL0     C29592   8.793   8.248   0.563 -0.6874 -0.4442 -0.8152
  215MOL0     C29593   8.840   8.209   0.421  0.4848 -0.1698  0.2290
  215MOL0     C29594   8.789   8.082   0.362  0.1450 -0.2326 -0.8127
  215MOL0     C29595   8.792   7.971   0.465  0.5118  0.6145 -0.2374
  215MOL0     C29596   8.795   7.844   0.403  0.6884 -0.9867 -0.4405
  215MOL0     C29597   8.798   7.736   0.346  1.0302  0.7195 -0.4876
  215MOL0     C29598   8.636   8.473   0.441  0.6215  0.3965 -0.4577
  215MOL0     C29599   8.562   8.551   0.342 -0.0182 -0.3991 -0.4178
  215MOL0     C29600   8.613   8.697   0.317 -0.1641 -0.7744  0.6557
  215MOL0     H29601   8.180   8.537  -0.014  2.1850 -0.8297  1.4687
  215MOL0     H29602   8.094   8.600  -0.250 -0.0270 -0.1860  1.9576
  215MOL0     H29603   8.127   8.932  -0.512 -0.9133  5.1405  0.0112
  215MOL0     H29604   8.273   8.961  -0.423  0.2304 -0.6365  0.2989
  215MOL0     H29605   8.139   9.042  -0.233  1.2541 -2.2548 -0.4740
  215MOL0     H29606   8.094   9.119  -0.383  0.1418 -1.5514 -3.1309
  215MOL0     H29607   7.912   8.987  -0.414  0.3404  0.9535  0.1834
  215MOL0     H29608   7.959   8.884  -0.269 -1.9973  0.4103  2.5768
  215MOL0     H29609   7.949   9.144  -0.177  0.2549 -0.8864  1.0474
  215MOL0     H29610   7.803   9.139  -0.278 -0.9175 -1.4176 -1.4335
  215MOL0     H29611   7.708   8.947  -0.179 -2.6137  1.8846  1.8519
  215MOL0     H29612   7.711   9.069  -0.068 -0.5474  1.5825 -1.3547
  215MOL0     H29613   7.786   8.884   0.059  0.9235  3.3596  2.0310
  215MOL0     H29614   7.899   8.830  -0.066 -0.2260  1.0817 -4.0922
  215MOL0     H29615   7.921   9.098   0.068 -2.4588 -1.5153  1.9222
  215MOL0     H29616   8.059   9.022  -0.006  0.2895  1.4097  2.1853
  215MOL0     H29617   7.900   8.925   0.239  0.1509  2.3527  1.8615
  215MOL0     H29618   8.050   8.846   0.181 -1.5449  0.1174 -1.9836
  215MOL0     H29619   8.297   8.989   0.207 -0.8483 -0.2823 -1.4226
  215MOL0     H29620   8.448   9.054   0.391  2.5701 -0.1934  2.5578
  215MOL0     H29621   8.413   9.167   0.500 -0.6435 -0.9920  0.2059
  215MOL0     H29622   8.581   9.245   0.294 -1.5621 -0.2247 -1.4951
  215MOL0     H29623   8.432   9.238   0.215  2.5478  2.0237 -0.8623
  215MOL0     H29624   8.486   9.477   0.254 -0.6208  0.9606 -0.1772
  215MOL0     H29625   8.365   9.437   0.379  0.4938  0.4784 -0.5344
  215MOL0     H29626   8.654   9.382   0.439 -0.6512 -0.5690 -0.4898
  215MOL0     H29627   8.594   9.556   0.446  1.6038  0.2436  2.0184
  215MOL0     H29628   8.431   9.281   0.784 -0.2359 -0.9980  0.0020
  215MOL0     H29629   8.516   9.152   1.013 -0.8224 -0.4818  0.5820
  215MOL0     H29630   8.417   9.306   1.006  0.7196  3.9552  4.9396
  215MOL0     H29631   8.554   9.292   1.115  1.0027  1.2494 -0.9782
  215MOL0     H29632   8.873   9.440   1.298  1.4536 -0.5897  3.0931
  215MOL0     H29633   9.014   9.521   1.469  4.1107  0.6389  1.7400
  215MOL0     H29634   9.462   9.573   1.413 -0.4170  0.4708 -0.5751
  215MOL0     H29635   9.362   9.725   1.384 -2.1132 -0.8779 -1.5146
  215MOL0     H29636   9.534   9.759   1.568  0.3192  0.5024  0.8867
  215MOL0     H29637   9.369   9.784   1.603  0.9403  1.7729 -0.6829
  215MOL0     H29638   9.365   9.554   1.716 -0.8982  4.4012  0.6811
  215MOL0     H29639   9.502   9.643   1.785 -3.1783 -0.8551  2.8552
  215MOL0     H29640   9.653   9.505   1.607  0.3109  1.5056  0.2830
  215MOL0     H29641   9.519   9.398   1.599  0.1181 -0.4603 -0.9834
  215MOL0     H29642   9.672   9.457   1.863 -0.8389  1.1995  0.8850
  215MOL0     H29643   9.508   9.404   1.864 -0.1877  1.1592  1.4269
  215MOL0     H29644   9.695   9.254   1.667 -0.1445 -0.9386  0.8996
  215MOL0     H29645   9.550   9.202   1.742 -0.1973 -0.2206  0.7667
  215MOL0     H29646   9.675   9.202   1.960 -1.9772 -1.2745 -1.4862
  215MOL0     H29647   9.821   9.264   1.874 -0.3432 -0.3411  1.5112
  215MOL0     H29648   9.709   9.007   1.771 -2.6686 -0.8349  2.2507
  215MOL0     H29649   9.813   9.005   1.916  1.8968  0.0722 -1.2522
  215MOL0     H29650   9.346   9.539   1.211  1.1345 -2.8780  0.2623
  215MOL0     H29651   9.198   9.480   1.028  1.7374  2.0401  1.1156
  215MOL0     H29652   8.904   9.448   0.805  0.8567 -3.5479  0.6105
  215MOL0     H29653   8.761   9.475   0.597 -0.1854 -1.0357 -1.0086
  215MOL0     H29654   8.423   8.869  -0.292  1.0466 -1.8989 -1.0753
  215MOL0     H29655   8.495   8.818  -0.064  2.0707  1.1910 -4.7154
  215MOL0     H29656   8.272   8.371   0.355 -0.0121 -0.6973  0.7128
  215MOL0     H29657   8.395   8.249   0.510 -3.2163  0.6831 -2.1772
  215MOL0     H29658   8.844   8.341   0.590 -1.2128  0.4197 -2.6620
  215MOL0     H29659   8.837   8.181   0.638  0.7667 -0.8450 -1.9839
  215MOL0     H29660   8.949   8.204   0.415  0.7510 -0.7823  3.3499
  215MOL0     H29661   8.819   8.287   0.348  2.8360 -1.2767 -1.7819
  215MOL0     H29662   8.689   8.096   0.322 -0.2078 -1.2587 -0.3274
  215MOL0     H29663   8.846   8.050   0.274 -1.7059  2.0203 -3.0087
  215MOL0     H29664   8.704   7.967   0.530  0.4643 -0.4539 -0.3510
  215MOL0     H29665   8.878   7.978   0.532 -0.1203 -0.6594  0.7540
  215MOL0     H29666   8.783   7.633   0.319  2.4587  0.7700 -1.6001
  215MOL0     H29667   8.739   8.499   0.462  1.1970 -0.3032 -2.2216
  215MOL0     H29668   8.707   8.726   0.364 -1.7426  0.8819  3.0347
  215MOL0     H29669   8.628   8.720   0.211 -0.3905  3.1201  1.3215
  215MOL0     H29670   8.530   8.757   0.356 -0.3841 -1.2644  0.9505
  216MOL0     O29671   5.855   7.041  10.388  0.1123 -0.2725  0.6305
  216MOL0     C29672   5.770   7.117  10.348  0.2412 -0.2306  0.1482
  216MOL0     O29673   5.771   7.252  10.382 -0.0769 -0.5096  1.3317
  216MOL0     C29674   5.847   7.294  10.483  0.6479 -0.2589  0.0498
  216MOL0     C29675   5.912   7.421  10.470 -0.0983  0.3762 -0.6301
  216MOL0     C29676   5.994   7.459  10.580 -0.6793  0.1093  0.3747
  216MOL0     C29677   6.012   7.384  10.698  0.2020 -0.3937  0.3010
  216MOL0     O29678   6.102   7.448  10.786  1.3876  0.2328  0.1318
  216MOL0     C29679   6.163   7.378  10.898  0.0527  0.1658  0.4311
  216MOL0     C29680   6.208   7.480  11.000  0.2820  0.0031  0.1811
  216MOL0     C29681   6.092   7.516  11.091 -0.3583 -1.2036  0.2331
  216MOL0     C29682   6.133   7.589  11.217 -0.5923  0.3586  0.2263
  216MOL0     C29683   6.016   7.644  11.297  0.8291  0.4249 -0.3603
  216MOL0     C29684   6.072   7.684  11.429 -0.5776 -1.2441 -0.4004
  216MOL0     C29685   5.986   7.630  11.549  0.0548 -0.6271  0.1023
  216MOL0     C29686   6.058   7.640  11.681  0.1146  0.1744  0.0940
  216MOL0     N29687   5.980   7.614  11.806  0.8518  0.3721  0.0356
  216MOL0     C29688   6.000   7.655  11.936 -0.2744  0.3244  0.9029
  216MOL0     C29689   5.900   7.620  12.011 -0.3730  0.2794 -0.2161
  216MOL0     C29690   5.867   7.655  12.154  0.0646 -0.1974  0.0118
  216MOL0     C29691   5.727   7.737  12.154  0.4345 -0.4006 -0.6567
  216MOL0     C29692   5.728   7.845  12.262 -0.4746  0.7578 -0.4014
  216MOL0     C29693   5.731   7.785  12.403 -0.1630  0.1395 -0.6352
  216MOL0     O29694   5.625   7.692  12.433  0.1311  0.0188  0.1586
  216MOL0     C29695   5.658   7.561  12.459 -0.7598  1.0658  0.7043
  216MOL0     C29696   5.717   7.523  12.573  0.3358  0.3529  0.1864
  216MOL0     C29697   5.736   7.385  12.595 -1.0006 -0.0639 -0.7840
  216MOL0     C29698   5.796   7.349  12.728  0.2637 -0.2599  1.0745
  216MOL0     C29699   5.696   7.285  12.506  0.3078 -0.0948 -0.5763
  216MOL0     C29700   5.722   7.136  12.533 -0.5704  0.4696  0.8750
  216MOL0     O29701   5.860   7.116  12.561  0.0210  0.7757  0.2102
  216MOL0     C29702   5.910   6.989  12.615 -0.0939 -0.5852  0.5339
  216MOL0     C29703   5.847   6.909  12.701  0.3226 -0.2304  0.8731
  216MOL0     C29704   5.909   6.798  12.759 -0.7615  0.7241 -0.1295
  216MOL0     C29705   6.048   6.769  12.744  0.5503  1.1077  0.9386
  216MOL0     O29706   6.109   6.663  12.798  0.5686  0.3270  0.5206
  216MOL0     C29707   6.195   6.687  12.908  0.0760 -0.2330 -1.3633
  216MOL0     C29708   6.250   6.556  12.940  0.3787  0.4506 -0.5655
  216MOL0     C29709   6.339   6.579  13.065 -0.1174 -0.0848  0.1099
  216MOL0     C29710   6.431   6.449  13.102 -0.5393 -0.1418  0.1818
  216MOL0     C29711   6.473   6.441  13.245  0.2153  1.4823 -0.1805
  216MOL0     C29712   6.553   6.317  13.280 -0.1637 -0.3344  0.1319
  216MOL0     C29713   6.618   6.319  13.417  1.1716 -0.3531 -1.0892
  216MOL0     C29714   6.510   6.331  13.526  0.4024 -0.4998  0.0850
  216MOL0    Cl29715   6.570   6.352  13.693  0.0774 -0.1180  0.5230
  216MOL0     C29716   6.121   6.857  12.663  0.6112 -1.0006  0.4650
  216MOL0     C29717   6.053   6.965  12.601 -0.6051 -0.3088  0.1180
  216MOL0     O29718   5.642   7.050  12.504  1.3890  0.5603  0.2668
  216MOL0     C29719   5.642   7.326  12.379  1.2251 -0.0600 -0.7958
  216MOL0     C29720   5.623   7.459  12.359  0.0114  0.6420 -0.4054
  216MOL0     N29721   5.824   7.544  11.932  0.4432  1.0443 -0.2200
  216MOL0     N29722   5.869   7.535  11.816 -0.0322  0.0772 -0.5280
  216MOL0     C29723   5.951   7.263  10.702 -0.2513  0.4301  0.5545
  216MOL0     C29724   5.856   7.230  10.607 -0.3287  0.1070 -0.2417
  216MOL0     C29725   5.661   7.057  10.258 -0.2084  0.1926 -0.1644
  216MOL0     C29726   5.536   7.049  10.312  0.0787 -0.4811 -0.4055
  216MOL0     C29727   5.429   6.985  10.242 -0.8217  0.3101 -0.6097
  216MOL0     C29728   5.451   6.944  10.109  0.4193 -0.3714 -0.2514
  216MOL0     O29729   5.337   6.919  10.043 -0.2062 -0.0492 -0.2045
  216MOL0     C29730   5.309   6.782  10.031  0.3805 -0.2397 -0.2886
  216MOL0     C29731   5.168   6.741   9.986 -1.1267  0.4246  0.7929
  216MOL0     C29732   5.053   6.807  10.077  0.4123 -0.0014 -0.4285
  216MOL0     C29733   4.917   6.745  10.021 -1.0808  0.5549  0.2657
  216MOL0     C29734   4.882   6.610  10.075 -1.4823 -0.5971  0.4320
  216MOL0     C29735   4.840   6.499  10.107 -0.0653 -0.0996  0.0150
  216MOL0     C29736   5.576   6.967  10.049  0.2561  0.6337  0.1413
  216MOL0     C29737   5.682   7.022  10.122 -0.0694 -0.4164  0.2669
  216MOL0     C29738   5.811   7.021  10.054  0.2643  0.2814 -0.0155
  216MOL0     H29739   5.888   7.481  10.383 -0.5472  0.1562 -0.6650
  216MOL0     H29740   6.045   7.555  10.579  2.7089 -1.5439 -0.5527
  216MOL0     H29741   6.238   7.318  10.845 -0.4793 -0.2969  0.1933
  216MOL0     H29742   6.100   7.300  10.942  0.4838 -0.2389  0.3554
  216MOL0     H29743   6.282   7.420  11.055  0.2918  1.4498  1.8374
  216MOL0     H29744   6.253   7.573  10.965 -1.6322  0.9275  0.0595
  216MOL0     H29745   6.020   7.575  11.035 -0.5564 -0.9013  0.7907
  216MOL0     H29746   6.034   7.430  11.125  1.5799 -2.8414 -0.4112
  216MOL0     H29747   6.189   7.514  11.274 -0.4510 -1.0380 -1.6767
  216MOL0     H29748   6.205   7.667  11.190 -1.0065  0.9487  0.7988
  216MOL0     H29749   5.943   7.567  11.325  1.2160  1.0980  2.8011
  216MOL0     H29750   5.953   7.722  11.252 -1.2157 -1.4253 -0.8871
  216MOL0     H29751   6.177   7.663  11.450 -0.7052 -0.9937  0.5880
  216MOL0     H29752   6.054   7.791  11.448 -0.1229 -1.2126 -0.1308
  216MOL0     H29753   5.955   7.528  11.523  0.7496 -0.3704 -1.8799
  216MOL0     H29754   5.895   7.687  11.567  0.6071  0.0659  0.8148
  216MOL0     H29755   6.132   7.560  11.676 -1.0187 -0.8606 -0.8340
  216MOL0     H29756   6.107   7.737  11.695  0.7478 -0.2379  0.8177
  216MOL0     H29757   6.089   7.696  11.984 -1.6961  1.4115  2.7464
  216MOL0     H29758   5.954   7.699  12.204 -0.4006 -0.4521  1.0790
  216MOL0     H29759   5.845   7.559  12.202 -1.7465 -0.2159 -0.7793
  216MOL0     H29760   5.708   7.789  12.060 -4.3549 -0.6439 -0.0857
  216MOL0     H29761   5.639   7.674  12.169 -0.9489  0.6961 -3.4576
  216MOL0     H29762   5.810   7.916  12.249  0.5948 -0.4548 -0.4736
  216MOL0     H29763   5.648   7.918  12.244  0.1497  1.1759 -1.5728
  216MOL0     H29764   5.836   7.756  12.412 -0.8274 -2.2788  0.2933
  216MOL0     H29765   5.718   7.870  12.470  1.0891 -0.9861  1.1167
  216MOL0     H29766   5.755   7.598  12.641 -1.4764 -0.2850  1.9961
  216MOL0     H29767   5.795   7.420  12.811  1.4696 -0.4026  1.2244
  216MOL0     H29768   5.900   7.321  12.709  0.3177  1.4195 -1.6485
  216MOL0     H29769   5.735   7.270  12.772 -3.5153  2.7854  1.9354
  216MOL0     H29770   5.744   6.928  12.730 -0.0996 -0.8740 -0.1743
  216MOL0     H29771   5.855   6.733  12.827 -0.3560  0.3044 -0.2063
  216MOL0     H29772   6.269   6.761  12.876  2.5087 -2.3112 -0.8392
  216MOL0     H29773   6.144   6.731  12.993 -1.9770  1.7843 -3.4866
  216MOL0     H29774   6.172   6.486  12.971 -1.7177  3.5806  1.7555
  216MOL0     H29775   6.304   6.506  12.859  0.5630 -1.3134  0.5843
  216MOL0     H29776   6.276   6.601  13.152  2.1530 -4.5758  3.2710
  216MOL0     H29777   6.402   6.664  13.038 -1.6450  0.6280 -1.3751
  216MOL0     H29778   6.517   6.454  13.036  0.1766  0.8067  1.1539
  216MOL0     H29779   6.365   6.363  13.088 -1.0024  0.4156 -1.3457
  216MOL0     H29780   6.526   6.532  13.274 -0.7450  1.5290  1.5699
  216MOL0     H29781   6.373   6.427  13.289 -0.2233 -0.8679 -1.7255
  216MOL0     H29782   6.638   6.312  13.210  1.3989  0.6691  1.8690
  216MOL0     H29783   6.497   6.225  13.259  1.4193 -1.0919 -0.9980
  216MOL0     H29784   6.691   6.400  13.429  0.6217  0.0937 -0.6809
  216MOL0     H29785   6.675   6.226  13.428  2.5127  0.3794 -1.7235
  216MOL0     H29786   6.433   6.255  13.510 -0.2719  0.1562  0.1810
  216MOL0     H29787   6.459   6.427  13.511 -2.2304 -1.5082  1.9092
  216MOL0     H29788   6.226   6.829  12.655  1.0036 -0.8725  3.9552
  216MOL0     H29789   6.106   7.036  12.539  0.6108 -1.3737 -0.1060
  216MOL0     H29790   5.626   7.250  12.303  3.2745 -0.1749 -1.1725
  216MOL0     H29791   5.589   7.482  12.258  1.9612 -1.0297 -1.5238
  216MOL0     H29792   5.968   7.195  10.785  2.0584  0.0355 -0.1750
  216MOL0     H29793   5.794   7.149  10.644  1.4296 -0.2577  2.1376
  216MOL0     H29794   5.509   7.080  10.413 -0.2414 -0.2444 -0.5616
  216MOL0     H29795   5.324   6.980  10.270 -0.3905  1.8878  1.5409
  216MOL0     H29796   5.383   6.735   9.966  0.8634 -0.2010  0.2234
  216MOL0     H29797   5.329   6.740  10.130  0.2160  5.8312  2.8321
  216MOL0     H29798   5.170   6.633  10.000 -0.6146  0.2108 -0.7787
  216MOL0     H29799   5.141   6.775   9.885 -3.2679  0.5311  1.3530
  216MOL0     H29800   5.073   6.781  10.182 -0.2981 -0.6874 -0.4543
  216MOL0     H29801   5.049   6.916  10.079 -0.3945  0.0717 -2.9106
  216MOL0     H29802   4.917   6.724   9.914 -1.3047 -2.4047  0.7777
  216MOL0     H29803   4.836   6.816  10.040 -0.0084  2.9229 -2.9979
  216MOL0     H29804   4.811   6.404  10.147  1.1262  0.6666  3.0127
  216MOL0     H29805   5.577   6.917   9.953  0.7976  0.1886  0.3726
  216MOL0     H29806   5.889   7.002  10.128 -2.7201 -0.5658  3.1442
  216MOL0     H29807   5.818   6.936   9.986  1.6544  1.5498 -1.5644
  216MOL0     H29808   5.818   7.114   9.996 -2.8021  1.8185  1.7843
  217MOL0     O29809   0.631   1.856  11.277 -0.4593  0.2688  0.6236
  217MOL0     C29810   0.617   1.852  11.157 -0.6634 -0.6715 -0.4883
  217MOL0     O29811   0.511   1.780  11.103 -0.0686 -0.7155 -0.9928
  217MOL0     C29812   0.502   1.645  11.144  0.8519 -0.4179 -0.1717
  217MOL0     C29813   0.379   1.579  11.141  0.4798 -0.0811 -0.7976
  217MOL0     C29814   0.369   1.446  11.182  0.2988 -1.4237  0.3805
  217MOL0     C29815   0.477   1.364  11.236  0.2278  0.2437  0.5148
  217MOL0     O29816   0.489   1.232  11.271 -0.0831  0.2789 -0.3586
  217MOL0     C29817   0.376   1.156  11.330 -0.3684  0.5552 -0.2978
  217MOL0     C29818   0.436   1.051  11.420 -0.1644  0.0781 -1.1166
  217MOL0     C29819   0.495   1.109  11.560 -0.0706 -0.6167  0.6780
  217MOL0     C29820   0.596   1.012  11.622 -1.1147  0.6705  0.2466
  217MOL0     C29821   0.683   1.066  11.740  0.1089  0.5757  0.7652
  217MOL0     C29822   0.772   1.184  11.697  1.0414  0.0074 -0.3687
  217MOL0     C29823   0.846   1.252  11.805 -0.0781 -0.0779  0.4811
  217MOL0     C29824   0.977   1.177  11.832 -0.6766  0.1806 -0.4942
  217MOL0     N29825   1.042   1.220  11.964 -0.3133  0.3811  0.1654
  217MOL0     C29826   1.135   1.146  12.029 -0.5646 -0.5498 -0.1096
  217MOL0     C29827   1.182   1.225  12.124  0.6035  0.1791 -0.0984
  217MOL0     C29828   1.285   1.192  12.231  0.2984  0.3512 -0.3976
  217MOL0     C29829   1.216   1.170  12.366  0.0571 -0.1524  0.0749
  217MOL0     C29830   1.327   1.158  12.469  0.0895  0.1251 -0.0523
  217MOL0     C29831   1.399   1.291  12.502 -0.2525  0.0716  0.8112
  217MOL0     O29832   1.322   1.408  12.482 -0.0933  0.3205 -0.1877
  217MOL0     C29833   1.225   1.428  12.580 -0.1652  0.5780  0.0876
  217MOL0     C29834   1.207   1.360  12.708  0.5504  0.3084 -0.9585
  217MOL0     C29835   1.102   1.391  12.804 -0.2271 -0.0113 -0.1675
  217MOL0     C29836   1.067   1.285  12.909  0.1486 -0.4589 -0.9881
  217MOL0     C29837   1.022   1.504  12.782 -0.6642 -0.0509 -0.9696
  217MOL0     C29838   0.913   1.541  12.875 -0.1837 -0.2190  0.1933
  217MOL0     O29839   0.942   1.635  12.973  0.0049  0.0239 -0.1697
  217MOL0     C29840   0.842   1.718  13.023 -0.2976 -0.1560 -0.0864
  217MOL0     C29841   0.747   1.776  12.938  0.0546 -0.8765 -0.7964
  217MOL0     C29842   0.645   1.856  12.989 -0.2389 -0.4406 -0.3574
  217MOL0     C29843   0.616   1.871  13.119  0.7573  0.7645 -0.8919
  217MOL0     O29844   0.505   1.942  13.178 -0.3010 -0.1427  0.4190
  217MOL0     C29845   0.394   1.993  13.104  0.2736  0.2627 -0.6261
  217MOL0     C29846   0.296   2.072  13.186 -0.3310  0.8149  1.1294
  217MOL0     C29847   0.169   2.115  13.119 -0.3301  0.0462 -0.3040
  217MOL0     C29848   0.086   1.982  13.115 -0.0187  0.3509  0.7061
  217MOL0     C29849  -0.057   2.009  13.060 -0.8495  0.3260 -0.9379
  217MOL0     C29850  -0.154   2.046  13.165  0.2245 -0.0267 -0.2042
  217MOL0     C29851  -0.291   2.107  13.125  0.0155  0.2648 -0.6255
  217MOL0     C29852  -0.395   1.997  13.099 -0.4215  0.2184  0.8469
  217MOL0    Cl29853  -0.437   1.876  13.235  0.3753 -0.3091 -0.6710
  217MOL0     C29854   0.710   1.807  13.203  0.9937 -0.5503  0.2620
  217MOL0     C29855   0.821   1.730  13.158 -0.1030  0.4916  0.4715
  217MOL0     O29856   0.803   1.486  12.852  0.2515 -0.1696  0.7470
  217MOL0     C29857   1.029   1.567  12.662  0.2473 -0.2252  1.0172
  217MOL0     C29858   1.119   1.524  12.563 -0.0421  0.4444 -0.0662
  217MOL0     N29859   1.132   1.355  12.098 -0.3155 -0.0009 -1.1997
  217MOL0     N29860   1.039   1.342  12.013 -0.3014 -0.0384 -0.1253
  217MOL0     C29861   0.601   1.429  11.234 -1.1024  0.9935  0.7139
  217MOL0     C29862   0.619   1.568  11.182 -0.3357 -0.7947  0.1552
  217MOL0     C29863   0.688   1.944  11.062  0.2343 -0.2507  0.3682
  217MOL0     C29864   0.699   1.917  10.921  0.0311 -0.9538 -0.8113
  217MOL0     C29865   0.767   2.008  10.832 -0.0654  0.2985 -0.3118
  217MOL0     C29866   0.843   2.111  10.891 -0.1200 -0.6900  0.7470
  217MOL0     O29867   0.909   2.193  10.802 -0.0174  0.4334 -0.2960
  217MOL0     C29868   0.870   2.330  10.794 -0.5149  0.8197  0.3186
  217MOL0     C29869   0.727   2.344  10.734 -0.1096 -0.3803  0.1483
  217MOL0     C29870   0.721   2.290  10.591  0.0775  0.0904  0.1598
  217MOL0     C29871   0.599   2.324  10.506 -0.5927  0.2782 -0.3344
  217MOL0     C29872   0.610   2.291  10.365 -0.2559 -0.1533 -0.2248
  217MOL0     C29873   0.637   2.260  10.258 -0.0643 -0.2959 -0.1003
  217MOL0     C29874   0.832   2.138  11.029 -0.6584 -0.4700  0.4781
  217MOL0     C29875   0.762   2.054  11.110  0.9570  0.0159 -0.1081
  217MOL0     C29876   0.770   2.088  11.258 -0.7858  0.0436 -0.3485
  217MOL0     H29877   0.289   1.634  11.116 -0.6816 -1.9862 -1.0966
  217MOL0     H29878   0.274   1.394  11.176  0.4271 -1.6602  0.3561
  217MOL0     H29879   0.307   1.109  11.259 -3.4339  0.3805  2.5664
  217MOL0     H29880   0.301   1.212  11.387 -1.1622 -2.1730  1.5225
  217MOL0     H29881   0.353   0.990  11.455  0.2879 -2.2654 -3.7745
  217MOL0     H29882   0.506   0.990  11.363  2.2157 -0.0296  1.6625
  217MOL0     H29883   0.538   1.206  11.532 -0.4464 -0.8092 -0.6477
  217MOL0     H29884   0.413   1.135  11.627 -1.2258 -3.7732  0.6420
  217MOL0     H29885   0.553   0.914  11.646  1.6106 -0.6788  0.0619
  217MOL0     H29886   0.668   0.982  11.545 -1.8064  1.2670 -0.6540
  217MOL0     H29887   0.748   0.983  11.767  0.1663  0.3990  0.0941
  217MOL0     H29888   0.612   1.084  11.822  1.8877  0.9378  2.2915
  217MOL0     H29889   0.842   1.142  11.624  2.2784 -1.9714  1.8101
  217MOL0     H29890   0.711   1.262  11.650 -0.1371  0.6862  2.0924
  217MOL0     H29891   0.796   1.253  11.902  0.8203 -0.7068  0.9730
  217MOL0     H29892   0.882   1.352  11.780 -2.0487  1.0479  1.9070
  217MOL0     H29893   0.960   1.069  11.833 -1.8272  0.3606  0.2794
  217MOL0     H29894   1.050   1.196  11.752 -0.2368  2.0852  0.2998
  217MOL0     H29895   1.159   1.040  12.025  0.2124 -0.4603  1.4445
  217MOL0     H29896   1.361   1.270  12.241  2.7565 -1.9396 -0.3117
  217MOL0     H29897   1.337   1.102  12.199 -3.1072 -1.1371 -2.2769
  217MOL0     H29898   1.153   1.255  12.390  2.0325  2.0406 -1.9879
  217MOL0     H29899   1.154   1.080  12.366 -0.0195 -0.1227  1.1537
  217MOL0     H29900   1.287   1.113  12.560 -0.0694 -2.7251 -1.4385
  217MOL0     H29901   1.401   1.093  12.422 -0.7655 -0.8041 -0.1455
  217MOL0     H29902   1.458   1.287  12.594  2.1766  1.0052 -0.6202
  217MOL0     H29903   1.477   1.293  12.426 -0.4910  0.7554  0.5774
  217MOL0     H29904   1.264   1.268  12.715 -2.9479 -2.1620 -2.0962
  217MOL0     H29905   0.958   1.282  12.918  0.0716 -2.8025 -1.8628
  217MOL0     H29906   1.118   1.301  13.004  3.6338  0.8261 -2.9240
  217MOL0     H29907   1.078   1.184  12.867 -2.6236 -2.0729  1.6985
  217MOL0     H29908   0.744   1.766  12.830 -4.4078 -0.1945 -0.9181
  217MOL0     H29909   0.578   1.900  12.915  0.1960 -2.2796 -1.9058
  217MOL0     H29910   0.430   2.080  13.049 -1.3736  1.9483  0.8425
  217MOL0     H29911   0.354   1.911  13.044  1.5860 -0.3458 -0.7088
  217MOL0     H29912   0.275   2.010  13.273  1.7921 -1.0669  0.3973
  217MOL0     H29913   0.349   2.162  13.220 -0.3808  1.4976 -0.4778
  217MOL0     H29914   0.189   2.143  13.015 -2.0944 -3.2134 -1.6462
  217MOL0     H29915   0.112   2.198  13.162 -0.4719 -0.2492  0.0789
  217MOL0     H29916   0.077   1.929  13.210  0.0216  0.6184  0.8597
  217MOL0     H29917   0.127   1.917  13.037 -0.2423  0.4642  0.4907
  217MOL0     H29918  -0.042   2.085  12.983 -1.6664 -0.1905 -1.6189
  217MOL0     H29919  -0.081   1.918  13.005 -1.3541  0.3207 -0.7116
  217MOL0     H29920  -0.108   2.113  13.238 -2.0093  1.3021  0.0930
  217MOL0     H29921  -0.177   1.956  13.222 -5.2605  1.7909  1.0362
  217MOL0     H29922  -0.289   2.166  13.033  1.6848  1.9684  0.4252
  217MOL0     H29923  -0.326   2.176  13.202  0.4548 -0.3735  0.1655
  217MOL0     H29924  -0.370   1.946  13.005  1.1011  2.9451 -0.3647
  217MOL0     H29925  -0.486   2.057  13.085 -1.1762 -0.5375  2.3438
  217MOL0     H29926   0.707   1.837  13.307  1.7322 -0.2798  0.2156
  217MOL0     H29927   0.890   1.685  13.229 -0.0775 -0.6842 -0.2655
  217MOL0     H29928   0.952   1.644  12.659  1.1800  0.8933  3.5557
  217MOL0     H29929   1.115   1.563  12.461  1.4176  0.8578  0.0102
  217MOL0     H29930   0.684   1.372  11.274 -2.5302 -1.9631 -0.2020
  217MOL0     H29931   0.717   1.614  11.183 -1.2931  1.4006  1.8458
  217MOL0     H29932   0.648   1.832  10.877 -0.3559 -0.2225 -1.8005
  217MOL0     H29933   0.758   1.980  10.728  3.6731  0.5326 -0.8521
  217MOL0     H29934   0.880   2.364  10.898  0.4591  2.8699 -0.3951
  217MOL0     H29935   0.940   2.389  10.735  1.4248 -0.8320  0.8396
  217MOL0     H29936   0.708   2.451  10.722  0.5475 -0.3165 -0.3652
  217MOL0     H29937   0.646   2.301  10.794 -0.7992 -0.2387 -0.6764
  217MOL0     H29938   0.812   2.317  10.538  1.8307 -1.4503  2.1940
  217MOL0     H29939   0.720   2.181  10.597  2.4607 -0.5917 -5.5646
  217MOL0     H29940   0.581   2.431  10.516  1.7213  0.7982 -1.0417
  217MOL0     H29941   0.512   2.271  10.546 -0.9003  1.5768  0.8121
  217MOL0     H29942   0.651   2.246  10.152 -0.9298  3.1628 -0.8255
  217MOL0     H29943   0.881   2.230  11.060 -2.4932  0.9082 -0.5192
  217MOL0     H29944   0.827   2.008  11.305 -0.7698 -0.5278 -1.2976
  217MOL0     H29945   0.819   2.181  11.288  1.6097 -1.2200 -0.0861
  217MOL0     H29946   0.670   2.097  11.299 -0.4528  1.0372  0.2842
  218MOL0     O29947   2.057   6.743   2.670 -0.2556 -0.1767 -0.4594
  218MOL0     C29948   2.051   6.633   2.611  0.0861 -0.1594  0.1920
  218MOL0     O29949   2.154   6.546   2.591  0.7854  0.4311 -0.1813
  218MOL0     C29950   2.275   6.582   2.645  0.5134  0.2067  0.2563
  218MOL0     C29951   2.393   6.580   2.559  0.9623  1.2372 -0.3863
  218MOL0     C29952   2.517   6.627   2.607 -0.2169  0.1678  0.4245
  218MOL0     C29953   2.526   6.671   2.739 -0.1831 -0.3754 -0.0728
  218MOL0     O29954   2.639   6.732   2.785  0.1502  0.4726 -0.4881
  218MOL0     C29955   2.771   6.672   2.782 -0.4316 -0.4445  0.4161
  218MOL0     C29956   2.780   6.521   2.832  0.8142 -0.1446  0.2565
  218MOL0     C29957   2.695   6.509   2.962 -0.9847 -0.8962 -0.2437
  218MOL0     C29958   2.742   6.379   3.034 -1.1182 -0.3536  0.0817
  218MOL0     C29959   2.663   6.355   3.154 -0.3050  1.1685 -0.0121
  218MOL0     C29960   2.515   6.320   3.134 -0.3328 -0.0615  0.1579
  218MOL0     C29961   2.421   6.279   3.245 -0.1073 -0.4294  0.1273
  218MOL0     C29962   2.458   6.322   3.381  0.0198 -0.6470 -0.0890
  218MOL0     N29963   2.345   6.286   3.473 -0.3889 -0.6863 -0.0176
  218MOL0     C29964   2.216   6.286   3.443  1.0134 -0.1397 -0.3927
  218MOL0     C29965   2.164   6.222   3.546 -0.1713  0.6233 -0.6188
  218MOL0     C29966   2.029   6.157   3.520 -0.6025 -0.3542  0.6583
  218MOL0     C29967   1.926   6.177   3.629 -0.2336 -0.9086 -0.0258
  218MOL0     C29968   1.819   6.070   3.611 -0.4152 -0.8382  0.0859
  218MOL0     C29969   1.724   6.051   3.487 -0.2581 -0.0185  0.4220
  218MOL0     O29970   1.782   5.957   3.402  1.0648  0.4756 -0.3390
  218MOL0     C29971   1.784   5.975   3.267  1.5312  0.1921 -0.5704
  218MOL0     C29972   1.860   5.896   3.187  0.5738  1.1933  0.4852
  218MOL0     C29973   1.851   5.895   3.050 -0.6094  0.3681 -0.6253
  218MOL0     C29974   1.936   5.786   2.982 -0.0898  0.2895 -0.8106
  218MOL0     C29975   1.782   6.000   2.984 -0.0836  1.0496  0.3103
  218MOL0     C29976   1.770   6.017   2.839 -0.2448 -0.5345  0.7062
  218MOL0     O29977   1.761   5.901   2.771 -0.5750  0.4201 -0.0324
  218MOL0     C29978   1.754   5.909   2.632  0.1364  0.4590 -0.2520
  218MOL0     C29979   1.632   5.904   2.563  0.7338  0.7256 -0.3303
  218MOL0     C29980   1.625   5.935   2.425 -0.3431  0.7089  0.5474
  218MOL0     C29981   1.734   5.975   2.355 -0.3019  0.5182  0.8517
  218MOL0     O29982   1.723   5.999   2.218 -0.1414 -0.0447  0.1208
  218MOL0     C29983   1.650   5.895   2.154 -0.0872  0.5130 -0.2826
  218MOL0     C29984   1.654   5.920   1.998  0.5076  0.4312 -0.0509
  218MOL0     C29985   1.606   5.799   1.915  0.3127 -0.0560  0.7945
  218MOL0     C29986   1.545   5.864   1.790  0.3540 -0.0003 -0.8515
  218MOL0     C29987   1.508   5.770   1.689 -0.0459  0.3346  0.8736
  218MOL0     C29988   1.408   5.663   1.723 -0.8928  0.6881  0.9297
  218MOL0     C29989   1.271   5.721   1.754 -0.0182  0.4453 -0.6038
  218MOL0     C29990   1.181   5.616   1.818  0.3056  0.3867  0.8321
  218MOL0    Cl29991   1.256   5.570   1.982  0.1436 -0.0480  0.1139
  218MOL0     C29992   1.856   5.968   2.416  0.1472 -0.9877  0.2761
  218MOL0     C29993   1.866   5.945   2.554 -0.1249  0.0690 -0.3672
  218MOL0     O29994   1.753   6.135   2.799 -0.5880  0.6578 -0.1109
  218MOL0     C29995   1.706   6.088   3.066  0.5307 -0.4557  0.8373
  218MOL0     C29996   1.706   6.068   3.204  0.2631  0.2302 -0.1847
  218MOL0     N29997   2.258   6.184   3.642 -0.1668  0.3124  0.2467
  218MOL0     N29998   2.364   6.228   3.600  0.0436 -0.4000 -0.4186
  218MOL0     C29999   2.410   6.673   2.821  0.9293 -0.6536  0.8576
  218MOL0     C30000   2.291   6.625   2.775  0.2656 -1.2293 -0.4952
  218MOL0     C30001   1.925   6.585   2.562  0.2948  0.2247 -0.4403
  218MOL0     C30002   1.910   6.446   2.550  0.2455 -0.1999  0.8221
  218MOL0     C30003   1.790   6.390   2.513 -0.8059  1.3587  0.0351
  218MOL0     C30004   1.674   6.468   2.479  0.4232  0.4227 -1.0535
  218MOL0     O30005   1.553   6.419   2.436 -0.5557 -0.2226  0.3926
  218MOL0     C30006   1.543   6.279   2.395 -0.1184 -0.2590  1.0364
  218MOL0     C30007   1.415   6.250   2.320  0.2871 -0.3346 -0.5053
  218MOL0     C30008   1.401   6.311   2.181 -0.4691 -0.8802 -0.2606
  218MOL0     C30009   1.339   6.214   2.088 -0.0270  0.2088  1.6746
  218MOL0     C30010   1.302   6.268   1.956  0.1727 -0.2584 -0.2932
  218MOL0     C30011   1.268   6.296   1.842  0.0318  0.0439  0.6321
  218MOL0     C30012   1.684   6.610   2.503 -0.2514  0.3213 -0.0107
  218MOL0     C30013   1.811   6.661   2.541 -0.5838 -0.4747  1.2169
  218MOL0     C30014   1.799   6.812   2.526 -0.0057  0.5854  0.0955
  218MOL0     H30015   2.365   6.544   2.461 -0.9717  1.8836 -0.1079
  218MOL0     H30016   2.606   6.648   2.548  1.8379  3.3366  4.1932
  218MOL0     H30017   2.841   6.739   2.833 -0.9924  0.2469  0.2881
  218MOL0     H30018   2.815   6.667   2.682  2.2680  3.9421  1.1425
  218MOL0     H30019   2.747   6.446   2.760 -1.6737 -2.1537  3.2475
  218MOL0     H30020   2.886   6.524   2.859  0.9731  1.2922 -0.4026
  218MOL0     H30021   2.719   6.589   3.032  0.4589 -0.9828 -0.6086
  218MOL0     H30022   2.588   6.507   2.944 -1.5287  0.7666  2.2667
  218MOL0     H30023   2.721   6.295   2.968 -0.5979 -2.2972  2.2885
  218MOL0     H30024   2.844   6.394   3.069 -1.8359  2.0641  1.3712
  218MOL0     H30025   2.648   6.434   3.228  0.6055  1.4779 -0.1417
  218MOL0     H30026   2.707   6.276   3.215  1.4781  3.4996  1.9242
  218MOL0     H30027   2.468   6.407   3.088 -0.3232 -0.1120  0.0526
  218MOL0     H30028   2.514   6.247   3.052  0.1770  1.6445 -1.4218
  218MOL0     H30029   2.420   6.170   3.237 -0.9573 -0.2965 -4.0019
  218MOL0     H30030   2.324   6.318   3.214  1.5551  2.3393 -1.9712
  218MOL0     H30031   2.544   6.262   3.411  0.5778 -1.0743 -2.3977
  218MOL0     H30032   2.490   6.425   3.401 -0.1343  0.1670 -3.5130
  218MOL0     H30033   2.153   6.324   3.363 -0.9892  0.7427  1.4748
  218MOL0     H30034   2.042   6.053   3.491 -0.8659  0.1150 -1.2579
  218MOL0     H30035   1.990   6.201   3.427 -0.2784  1.5911  1.3868
  218MOL0     H30036   1.972   6.167   3.728  0.1799 -1.3288 -0.2585
  218MOL0     H30037   1.885   6.278   3.615 -0.0324 -0.8257 -0.0249
  218MOL0     H30038   1.851   5.972   3.649 -1.4379 -2.1928 -2.3055
  218MOL0     H30039   1.756   6.104   3.694  2.2334  0.6641  1.6090
  218MOL0     H30040   1.623   6.026   3.517 -0.0016  0.6320  1.8986
  218MOL0     H30041   1.726   6.150   3.440 -0.7557 -0.8866 -1.5136
  218MOL0     H30042   1.926   5.834   3.247 -1.5801 -1.1495  0.5765
  218MOL0     H30043   1.895   5.685   2.975 -2.4783  1.2645 -2.2539
  218MOL0     H30044   2.025   5.781   3.046 -0.7693  0.2829  0.1553
  218MOL0     H30045   1.959   5.819   2.881  1.3202  1.7146 -0.0742
  218MOL0     H30046   1.542   5.882   2.619 -1.5298  0.3697 -3.8108
  218MOL0     H30047   1.523   5.938   2.388  0.2462  2.5558 -1.1177
  218MOL0     H30048   1.684   5.793   2.174 -2.6828 -1.2390 -3.6456
  218MOL0     H30049   1.545   5.895   2.186  0.4640  0.5136  1.5774
  218MOL0     H30050   1.600   6.013   1.981 -0.8635  0.2423  2.6237
  218MOL0     H30051   1.760   5.923   1.974  1.3506 -3.7302  2.1631
  218MOL0     H30052   1.522   5.752   1.967  0.4065 -1.3106 -0.1400
  218MOL0     H30053   1.680   5.725   1.883 -2.0065 -1.7947 -0.8050
  218MOL0     H30054   1.608   5.938   1.740 -1.7640  2.5990  0.0956
  218MOL0     H30055   1.456   5.923   1.814  1.1981  1.6103 -1.5500
  218MOL0     H30056   1.462   5.824   1.606 -1.0494  0.4282  1.4649
  218MOL0     H30057   1.594   5.708   1.661 -0.4524 -0.2282  0.8510
  218MOL0     H30058   1.452   5.609   1.807 -2.0829 -0.5409  0.7941
  218MOL0     H30059   1.404   5.587   1.644  0.5735 -2.6306  3.7590
  218MOL0     H30060   1.215   5.745   1.663 -0.5878  0.6203 -0.2137
  218MOL0     H30061   1.263   5.808   1.819 -1.7080 -1.5003  2.0373
  218MOL0     H30062   1.164   5.536   1.747 -0.3527  1.3766 -0.1584
  218MOL0     H30063   1.078   5.652   1.829 -0.7763 -2.0928 -0.4105
  218MOL0     H30064   1.941   6.002   2.358 -1.3150  1.3777 -0.6253
  218MOL0     H30065   1.953   5.964   2.617 -0.7134 -1.3247  0.9237
  218MOL0     H30066   1.643   6.165   3.021  0.7940 -0.4289  0.5137
  218MOL0     H30067   1.627   6.120   3.257  0.3805 -0.1121  0.3388
  218MOL0     H30068   2.406   6.716   2.921  1.5167  1.7513 -0.0768
  218MOL0     H30069   2.207   6.630   2.843  1.0000  1.8794  0.3843
  218MOL0     H30070   1.993   6.377   2.559  2.3013  1.6282 -2.0784
  218MOL0     H30071   1.770   6.284   2.502 -1.2615  1.6677 -2.8860
  218MOL0     H30072   1.625   6.251   2.328  0.4889  1.1747  1.1298
  218MOL0     H30073   1.540   6.219   2.486  1.6788  1.7570  2.5394
  218MOL0     H30074   1.335   6.292   2.382 -0.3870 -3.2192  0.7523
  218MOL0     H30075   1.386   6.145   2.310  0.1199 -0.2754 -0.6627
  218MOL0     H30076   1.359   6.412   2.172  1.7374 -0.0785 -3.9196
  218MOL0     H30077   1.508   6.317   2.160  0.1469 -1.5967  2.3793
  218MOL0     H30078   1.254   6.157   2.125  0.4119 -1.8612 -0.2687
  218MOL0     H30079   1.410   6.134   2.065  0.0874  0.7307  0.0646
  218MOL0     H30080   1.239   6.324   1.743  0.6951  2.4170  1.0399
  218MOL0     H30081   1.604   6.681   2.486  2.1292  3.6846  1.7002
  218MOL0     H30082   1.857   6.860   2.606  1.1694 -0.9001  0.1817
  218MOL0     H30083   1.841   6.827   2.426 -4.1632 -0.3836 -1.9971
  218MOL0     H30084   1.700   6.856   2.535  0.1424  0.4237  4.8100
  219MOL0     O30085  11.536   5.538   1.407  0.7233 -0.1276  0.0710
  219MOL0     C30086  11.460   5.635   1.394 -0.0664 -0.6311 -0.0427
  219MOL0     O30087  11.503   5.761   1.356  0.0565  0.1599  0.6239
  219MOL0     C30088  11.632   5.768   1.295 -0.3991 -1.4943  0.4586
  219MOL0     C30089  11.673   5.731   1.169  0.1299  0.5793 -0.2091
  219MOL0     C30090  11.795   5.758   1.105  0.9017  0.5918 -0.0431
  219MOL0     C30091  11.884   5.818   1.182 -1.2669 -0.4166 -0.4793
  219MOL0     O30092  11.994   5.868   1.127 -0.3834 -0.1564 -0.3838
  219MOL0     C30093  12.114   5.813   1.168  0.0679  0.7345 -0.1495
  219MOL0     C30094  12.117   5.667   1.107 -0.4008  0.1536  0.5329
  219MOL0     C30095  12.257   5.621   1.075 -0.0130 -0.0424 -0.6082
  219MOL0     C30096  12.266   5.506   0.977  0.0788  0.5824 -0.0980
  219MOL0     C30097  12.414   5.501   0.930  0.7288 -0.1833  0.0751
  219MOL0     C30098  12.442   5.395   0.828  0.1555  0.6259 -0.4670
  219MOL0     C30099  12.589   5.398   0.786 -0.6124 -0.1514  0.6291
  219MOL0     C30100  12.606   5.278   0.690  0.3370 -0.0854  0.5546
  219MOL0     N30101  12.729   5.247   0.632  0.1154  0.5632 -0.0650
  219MOL0     C30102  12.748   5.185   0.515 -0.8403 -0.6133 -0.4501
  219MOL0     C30103  12.887   5.165   0.508 -0.3807  1.0783 -0.3695
  219MOL0     C30104  12.976   5.083   0.415 -0.2957  1.3314 -0.4181
  219MOL0     C30105  12.917   4.941   0.394 -0.9935  0.1911  0.1371
  219MOL0     C30106  12.905   4.866   0.527  0.7039 -0.4619  0.3173
  219MOL0     C30107  12.819   4.747   0.503 -0.0437  0.4801 -0.7583
  219MOL0     O30108  12.691   4.777   0.464  0.2544  0.1327 -0.1656
  219MOL0     C30109  12.613   4.673   0.445 -0.3498 -0.0502  0.4703
  219MOL0     C30110  12.640   4.577   0.343  0.3962 -0.0096  0.0196
  219MOL0     C30111  12.549   4.470   0.314  0.1912 -0.2543  0.6633
  219MOL0     C30112  12.582   4.372   0.204 -0.3005  0.0474  0.4645
  219MOL0     C30113  12.423   4.457   0.387  0.6842 -0.0699 -0.5081
  219MOL0     C30114  12.307   4.362   0.351 -0.8154 -0.1925  0.6226
  219MOL0     O30115  12.191   4.424   0.336  0.9020 -0.6139  0.6730
  219MOL0     C30116  12.080   4.349   0.332 -0.1906  1.3268 -0.9256
  219MOL0     C30117  11.998   4.352   0.221  0.5724 -1.0057  0.5827
  219MOL0     C30118  11.885   4.280   0.202 -0.2953 -0.1325  0.4041
  219MOL0     C30119  11.848   4.195   0.303  0.9700 -0.2892 -0.6404
  219MOL0     O30120  11.760   4.096   0.308 -0.1874 -0.9419  0.4347
  219MOL0     C30121  11.663   4.095   0.205 -0.0593 -0.6358 -0.4420
  219MOL0     C30122  11.699   4.016   0.078 -0.2012 -0.2366  0.4034
  219MOL0     C30123  11.630   4.071  -0.032  0.7240  0.5833  0.8484
  219MOL0     C30124  11.658   4.015  -0.175 -0.9818  0.2002 -0.0354
  219MOL0     C30125  11.630   3.866  -0.195  0.7217  0.4780  0.3326
  219MOL0     C30126  11.479   3.835  -0.206 -1.0807 -0.4638  0.4713
  219MOL0     C30127  11.462   3.685  -0.240  0.3497  0.0378  0.9063
  219MOL0     C30128  11.374   3.662  -0.367 -0.3858 -0.3089 -0.6930
  219MOL0    Cl30129  11.204   3.712  -0.356 -0.2910  0.3785  0.1691
  219MOL0     C30130  11.927   4.191   0.423 -0.4397 -0.3845  1.3142
  219MOL0     C30131  12.043   4.267   0.439 -0.7417  0.8676  0.2898
  219MOL0     O30132  12.335   4.244   0.332  0.8034 -0.0694 -0.4394
  219MOL0     C30133  12.400   4.550   0.491  0.0635  0.4498 -0.8589
  219MOL0     C30134  12.488   4.657   0.517 -0.1658 -0.7493  0.9443
  219MOL0     N30135  12.941   5.255   0.602 -0.3033 -0.3029 -0.7899
  219MOL0     N30136  12.848   5.298   0.674  0.0119 -0.1893  0.3031
  219MOL0     C30137  11.865   5.851   1.320 -0.1495  0.1124  1.3331
  219MOL0     C30138  11.736   5.819   1.368 -0.1644  0.6471 -0.6258
  219MOL0     C30139  11.316   5.605   1.416  0.8814 -0.2173  0.6393
  219MOL0     C30140  11.282   5.509   1.515  0.4956  0.7536 -0.3034
  219MOL0     C30141  11.145   5.476   1.539  0.4258 -1.0544 -0.4168
  219MOL0     C30142  11.037   5.541   1.472  0.9534  0.5751  0.0798
  219MOL0     O30143  10.899   5.519   1.499  0.6468  0.1177  0.8243
  219MOL0     C30144  10.839   5.388   1.468 -0.5646 -0.0941 -0.2947
  219MOL0     C30145  10.724   5.373   1.574  1.3371 -0.4842  0.9271
  219MOL0     C30146  10.733   5.429   1.724 -0.8066 -0.6560  0.0537
  219MOL0     C30147  10.638   5.352   1.816 -0.5015 -0.3644  0.3010
  219MOL0     C30148  10.675   5.391   1.947 -0.4684 -0.2634  0.6521
  219MOL0     C30149  10.715   5.416   2.059  0.4132 -0.1167  0.5685
  219MOL0     C30150  11.073   5.625   1.364 -0.5750  0.9158 -0.2565
  219MOL0     C30151  11.207   5.663   1.334 -0.5316  0.3523 -0.1809
  219MOL0     C30152  11.233   5.748   1.220 -0.3706 -0.2450  0.1303
  219MOL0     H30153  11.609   5.669   1.107  0.0166 -0.2804  0.7511
  219MOL0     H30154  11.821   5.730   1.003  0.2065 -1.1784  0.2309
  219MOL0     H30155  12.146   5.806   1.273  2.0824 -1.3142 -0.8158
  219MOL0     H30156  12.186   5.881   1.122 -0.0650 -0.1342 -1.7051
  219MOL0     H30157  12.070   5.599   1.179 -1.4197 -1.0684 -1.2018
  219MOL0     H30158  12.057   5.667   1.015  1.4218  3.3902 -0.8185
  219MOL0     H30159  12.302   5.701   1.016 -2.3052  0.7360 -1.4020
  219MOL0     H30160  12.320   5.599   1.162  1.8214 -1.0680 -2.1143
  219MOL0     H30161  12.235   5.418   1.034 -0.5235  0.7303 -0.1892
  219MOL0     H30162  12.203   5.503   0.889 -0.9346 -0.6606  0.6445
  219MOL0     H30163  12.483   5.497   1.014  2.0185 -0.8219 -0.9827
  219MOL0     H30164  12.431   5.600   0.885 -0.1541  0.6029  1.3823
  219MOL0     H30165  12.425   5.296   0.871  1.7065 -0.7470 -2.7777
  219MOL0     H30166  12.385   5.405   0.736  0.9541  1.0355 -0.9334
  219MOL0     H30167  12.659   5.393   0.870 -0.4848 -1.2764  0.4739
  219MOL0     H30168  12.602   5.490   0.730 -1.2307  0.4321  1.4166
  219MOL0     H30169  12.562   5.194   0.744 -1.9873  1.0493  0.5760
  219MOL0     H30170  12.543   5.307   0.605  1.5621  1.0805  0.0039
  219MOL0     H30171  12.668   5.138   0.459 -0.6129  0.4073 -1.7144
  219MOL0     H30172  13.078   5.075   0.453 -0.2096 -0.5550 -0.9282
  219MOL0     H30173  12.984   5.140   0.322 -0.8522  1.2577 -0.5119
  219MOL0     H30174  12.817   4.966   0.357 -0.9031  0.8320  0.2971
  219MOL0     H30175  12.977   4.886   0.321  2.0147  0.5906  2.1140
  219MOL0     H30176  13.008   4.847   0.557  1.5806 -0.6048 -2.4472
  219MOL0     H30177  12.848   4.919   0.604 -1.0777  2.2562 -2.5787
  219MOL0     H30178  12.875   4.692   0.426 -1.4717 -2.8297  0.3517
  219MOL0     H30179  12.826   4.693   0.597  3.4900  0.3148 -0.9935
  219MOL0     H30180  12.733   4.595   0.289 -0.2913  0.4970 -1.0297
  219MOL0     H30181  12.533   4.390   0.108  0.3788  0.5506  0.2031
  219MOL0     H30182  12.573   4.270   0.242 -0.6930  0.3176  1.1198
  219MOL0     H30183  12.683   4.392   0.168 -0.2304 -2.1090 -0.6906
  219MOL0     H30184  12.021   4.420   0.139 -1.1106  2.5762  2.8623
  219MOL0     H30185  11.823   4.278   0.113  0.2676 -0.9491  0.0163
  219MOL0     H30186  11.584   4.043   0.261  1.1758 -1.1982  0.8381
  219MOL0     H30187  11.619   4.192   0.182  4.5025  1.2275 -2.3678
  219MOL0     H30188  11.804   4.023   0.049 -0.4006 -0.3128 -0.3455
  219MOL0     H30189  11.675   3.910   0.087  0.5891 -0.5407 -0.8316
  219MOL0     H30190  11.638   4.180  -0.040 -1.7398  0.8580  1.1131
  219MOL0     H30191  11.525   4.048  -0.010  0.5959 -1.9057 -1.7388
  219MOL0     H30192  11.764   4.022  -0.202 -1.7750  0.5583 -3.6502
  219MOL0     H30193  11.608   4.079  -0.249  1.7791 -1.3727 -3.6076
  219MOL0     H30194  11.674   3.829  -0.289 -1.6426 -2.4320  0.2272
  219MOL0     H30195  11.669   3.799  -0.117 -3.3839  1.0133  3.1345
  219MOL0     H30196  11.438   3.900  -0.283  0.8062 -0.7233 -0.8115
  219MOL0     H30197  11.436   3.852  -0.106 -1.7123  1.4282 -0.0931
  219MOL0     H30198  11.414   3.624  -0.163  2.6388 -0.6817  1.8605
  219MOL0     H30199  11.563   3.645  -0.256  1.4023  1.7463  2.8905
  219MOL0     H30200  11.376   3.560  -0.406 -1.1479 -0.5463 -0.1400
  219MOL0     H30201  11.415   3.730  -0.442 -1.3221  0.5277 -0.4609
  219MOL0     H30202  11.912   4.104   0.485  1.8076 -2.7066 -1.0783
  219MOL0     H30203  12.099   4.265   0.532 -1.1745  3.4557  0.6701
  219MOL0     H30204  12.317   4.533   0.558  0.5744  0.4179 -0.2166
  219MOL0     H30205  12.460   4.725   0.598  0.0704  1.6104 -0.8502
  219MOL0     H30206  11.943   5.900   1.378  0.6165 -1.2301  1.4640
  219MOL0     H30207  11.715   5.847   1.471 -0.1122 -2.4414  0.3375
  219MOL0     H30208  11.363   5.458   1.566  2.5404  1.0247 -3.0665
  219MOL0     H30209  11.100   5.420   1.620  1.0443  1.4994  1.8219
  219MOL0     H30210  10.804   5.398   1.364  3.4843  3.4741 -1.6164
  219MOL0     H30211  10.911   5.306   1.476 -0.2820 -0.1630 -2.6630
  219MOL0     H30212  10.698   5.267   1.572  0.5774 -0.3018 -0.8211
  219MOL0     H30213  10.634   5.425   1.537  1.5852  1.2963  2.6098
  219MOL0     H30214  10.836   5.433   1.762  0.2099 -0.5430 -2.4877
  219MOL0     H30215  10.705   5.535   1.730  1.6735  0.0043  1.1856
  219MOL0     H30216  10.627   5.244   1.802 -3.5696 -0.0140 -0.7963
  219MOL0     H30217  10.535   5.380   1.792 -0.2970  0.4018  0.2732
  219MOL0     H30218  10.753   5.453   2.152 -1.8060  4.3948 -0.0680
  219MOL0     H30219  10.993   5.670   1.305 -0.1343  2.1526  0.0680
  219MOL0     H30220  11.288   5.839   1.247 -0.8086  1.3801 -3.8098
  219MOL0     H30221  11.298   5.702   1.145 -1.7135  0.6971 -1.6877
  219MOL0     H30222  11.138   5.782   1.178  0.0821 -0.2862 -0.9496
  220MOL0     O30223   6.403  10.821   3.526 -0.4298  0.2505 -0.7163
  220MOL0     C30224   6.478  10.870   3.607 -0.2123  0.9626  0.0851
  220MOL0     O30225   6.510  11.005   3.612  0.0925 -1.0777  0.8333
  220MOL0     C30226   6.569  11.070   3.509  0.1722 -1.0323  0.1261
  220MOL0     C30227   6.619  11.201   3.523  0.0241 -0.3131  0.8067
  220MOL0     C30228   6.686  11.265   3.417 -0.4167  0.1196  0.7803
  220MOL0     C30229   6.701  11.205   3.287 -0.0759 -0.5185 -0.8539
  220MOL0     O30230   6.786  11.253   3.193 -0.2118  0.1196  1.3626
  220MOL0     C30231   6.903  11.330   3.234  0.3755 -0.0062  0.0989
  220MOL0     C30232   6.960  11.401   3.115 -0.6327 -0.1882  0.1694
  220MOL0     C30233   6.889  11.509   3.035  0.1680  0.3098  0.4090
  220MOL0     C30234   6.867  11.636   3.113 -0.0853 -1.0436 -1.0010
  220MOL0     C30235   6.806  11.740   3.024  0.3393 -0.4310 -0.6950
  220MOL0     C30236   6.758  11.852   3.120  0.5365  0.3608  0.2405
  220MOL0     C30237   6.704  11.964   3.033 -0.6963  0.3406  0.3685
  220MOL0     C30238   6.564  11.936   2.969 -0.0377 -0.0916 -0.2583
  220MOL0     N30239   6.538  12.010   2.842 -0.0676  0.0615  0.2764
  220MOL0     C30240   6.535  12.142   2.829 -0.3053 -0.4582  0.2950
  220MOL0     C30241   6.527  12.166   2.693 -0.2312  0.0707 -0.6754
  220MOL0     C30242   6.527  12.299   2.622  0.9818  0.1734  1.0902
  220MOL0     C30243   6.430  12.408   2.671 -0.2138  0.3527 -0.4115
  220MOL0     C30244   6.483  12.539   2.629 -0.3822  0.2591 -0.4956
  220MOL0     C30245   6.408  12.650   2.692  0.0106 -0.7524  0.4125
  220MOL0     O30246   6.412  12.627   2.832  0.2208  0.4636 -0.5955
  220MOL0     C30247   6.489  12.709   2.904  0.9184 -0.0099  0.6171
  220MOL0     C30248   6.434  12.840   2.932 -0.5807  0.5979  0.8350
  220MOL0     C30249   6.496  12.939   3.011 -0.0438 -0.5393  0.5176
  220MOL0     C30250   6.401  13.063   3.036  0.3146  0.5761 -0.5815
  220MOL0     C30251   6.623  12.906   3.062 -0.6175 -1.3239  0.3543
  220MOL0     C30252   6.707  12.999   3.147  0.0799  0.1938 -0.4858
  220MOL0     O30253   6.838  12.967   3.172 -0.1169  0.0270  0.4635
  220MOL0     C30254   6.897  13.042   3.276 -0.1826  0.1398  0.2284
  220MOL0     C30255   6.935  12.968   3.384  0.0616 -0.1851  1.0237
  220MOL0     C30256   7.006  13.027   3.488  0.0651  0.0891  0.3814
  220MOL0     C30257   7.040  13.159   3.478 -0.1669 -0.6336 -0.1031
  220MOL0     O30258   7.125  13.232   3.565 -0.3948  0.3045 -0.5990
  220MOL0     C30259   7.067  13.288   3.684  0.0419  1.1158 -0.1048
  220MOL0     C30260   7.173  13.344   3.779  0.3430 -0.8997 -0.4443
  220MOL0     C30261   7.257  13.229   3.819 -0.5070  0.3057 -1.1725
  220MOL0     C30262   7.361  13.266   3.921  0.1733 -0.6741  0.2840
  220MOL0     C30263   7.483  13.320   3.847 -0.1827  0.1258 -0.5615
  220MOL0     C30264   7.586  13.212   3.813  0.7776 -0.9967 -0.3286
  220MOL0     C30265   7.671  13.182   3.941 -1.6122  0.5296  0.2686
  220MOL0     C30266   7.779  13.080   3.898 -0.1226  0.0146  0.0223
  220MOL0    Cl30267   7.693  12.934   3.858  0.3024  0.2328  0.1469
  220MOL0     C30268   6.987  13.242   3.373 -0.0889  0.2317  0.1982
  220MOL0     C30269   6.929  13.176   3.265  0.0577  0.9958  1.1727
  220MOL0     O30270   6.652  13.097   3.198  0.3040  0.0395 -0.4455
  220MOL0     C30271   6.677  12.779   3.039 -0.3230  0.0193  0.5747
  220MOL0     C30272   6.618  12.682   2.953  0.2642  0.3539  0.5465
  220MOL0     N30273   6.514  12.046   2.626 -0.0651 -0.3201  0.5599
  220MOL0     N30274   6.519  11.958   2.721 -0.8399  0.4939 -0.9265
  220MOL0     C30275   6.645  11.074   3.269 -0.5783 -0.0615  0.2260
  220MOL0     C30276   6.577  11.018   3.375 -1.1122 -0.1301 -0.4015
  220MOL0     C30277   6.494  10.802   3.737  0.3425  0.3496 -0.3400
  220MOL0     C30278   6.488  10.873   3.854  0.4630  0.1815 -0.7297
  220MOL0     C30279   6.522  10.811   3.980 -0.0751 -0.8690 -0.3298
  220MOL0     C30280   6.554  10.677   3.985 -0.3557  0.1976 -0.0288
  220MOL0     O30281   6.592  10.609   4.096 -0.0549  0.8234 -0.2501
  220MOL0     C30282   6.624  10.664   4.224  0.3104 -0.1938 -0.0784
  220MOL0     C30283   6.495  10.721   4.291  0.1401  0.1409 -0.1343
  220MOL0     C30284   6.497  10.698   4.441  0.0415 -0.8089 -0.2795
  220MOL0     C30285   6.379  10.747   4.520  0.2963 -0.7264 -0.2656
  220MOL0     C30286   6.255  10.686   4.469  0.8913  0.8579 -0.2183
  220MOL0     C30287   6.138  10.651   4.440  0.0864 -0.7148  0.2071
  220MOL0     C30288   6.560  10.604   3.870  0.3728  0.0446 -0.3129
  220MOL0     C30289   6.518  10.660   3.743  1.0257  0.4355 -0.6398
  220MOL0     C30290   6.525  10.569   3.627 -0.7035  0.7003  1.8823
  220MOL0     H30291   6.614  11.249   3.620 -0.2065 -0.9803  1.1297
  220MOL0     H30292   6.724  11.364   3.441  3.3029 -1.0528  0.3255
  220MOL0     H30293   6.973  11.252   3.265  0.3009 -0.7790 -1.5727
  220MOL0     H30294   6.883  11.409   3.307  1.6127 -0.4260  0.9129
  220MOL0     H30295   7.055  11.449   3.141 -1.4076  0.2661  2.3951
  220MOL0     H30296   6.995  11.314   3.058 -1.4174 -0.2113 -0.2892
  220MOL0     H30297   6.946  11.529   2.944 -2.1251  1.1072 -0.9367
  220MOL0     H30298   6.791  11.473   3.003  1.8350 -3.2850 -1.2324
  220MOL0     H30299   6.793  11.604   3.187  0.5819 -2.5060 -0.9147
  220MOL0     H30300   6.953  11.683   3.161 -1.5821  0.3626  0.4060
  220MOL0     H30301   6.718  11.696   2.975 -1.1202  0.6792  0.8074
  220MOL0     H30302   6.870  11.767   2.939  1.3726  0.6795  0.3967
  220MOL0     H30303   6.669  11.820   3.174 -2.4926  1.8833 -3.4278
  220MOL0     H30304   6.842  11.885   3.182 -0.5127  3.9356 -0.0115
  220MOL0     H30305   6.767  11.989   2.948  2.0672 -0.1998  2.1134
  220MOL0     H30306   6.690  12.058   3.087 -1.6539 -0.6035  1.8392
  220MOL0     H30307   6.553  11.829   2.952  0.4895  0.0675 -1.8797
  220MOL0     H30308   6.483  11.965   3.036 -0.6897 -0.6960 -0.7683
  220MOL0     H30309   6.539  12.221   2.903  0.6311  0.8633 -1.0904
  220MOL0     H30310   6.496  12.283   2.518 -4.3106  3.0347  1.8698
  220MOL0     H30311   6.631  12.332   2.621  0.9002  0.4161  0.1763
  220MOL0     H30312   6.328  12.406   2.630  0.1317  1.7324 -1.3997
  220MOL0     H30313   6.418  12.395   2.779 -0.7611  0.8895 -0.3986
  220MOL0     H30314   6.591  12.550   2.646 -0.3736  0.8694 -0.9284
  220MOL0     H30315   6.464  12.548   2.522  1.9460  2.3349 -0.8377
  220MOL0     H30316   6.465  12.737   2.660  0.3380 -1.0287  0.2477
  220MOL0     H30317   6.306  12.661   2.654  1.5551  2.4978 -3.6017
  220MOL0     H30318   6.337  12.850   2.884 -1.3699 -0.1027  2.2204
  220MOL0     H30319   6.299  13.026   3.020  0.0424  1.3234 -0.6346
  220MOL0     H30320   6.428  13.143   2.967  0.9015 -0.9517 -2.2164
  220MOL0     H30321   6.403  13.089   3.142 -2.0770 -1.0654 -0.0444
  220MOL0     H30322   6.911  12.863   3.394  0.8165 -0.5172 -0.3542
  220MOL0     H30323   7.036  12.960   3.568  0.6790 -0.4935 -0.3231
  220MOL0     H30324   6.994  13.360   3.646 -0.6308  0.5349  0.0714
  220MOL0     H30325   7.009  13.210   3.734 -1.9710  1.3439 -1.9258
  220MOL0     H30326   7.222  13.436   3.747 -0.5752  0.4297  1.7267
  220MOL0     H30327   7.123  13.383   3.869  0.4314 -0.8577 -0.4128
  220MOL0     H30328   7.316  13.186   3.737  1.8919  0.1868  0.5263
  220MOL0     H30329   7.197  13.164   3.883  2.9065 -2.4457 -0.4911
  220MOL0     H30330   7.376  13.190   3.999  0.8987  2.1485  3.1141
  220MOL0     H30331   7.326  13.354   3.976  3.2287  1.5040 -0.9912
  220MOL0     H30332   7.460  13.367   3.751 -3.0182  0.5676  0.2533
  220MOL0     H30333   7.529  13.404   3.899  1.8086 -2.4755  2.2681
  220MOL0     H30334   7.650  13.244   3.730  1.3207 -0.5157  0.2709
  220MOL0     H30335   7.526  13.127   3.778 -0.5776 -2.4574  4.7428
  220MOL0     H30336   7.607  13.136   4.017 -1.3903 -0.1413  0.0550
  220MOL0     H30337   7.722  13.268   3.986 -3.7108  2.5285 -0.9585
  220MOL0     H30338   7.838  13.043   3.982 -0.1511 -2.5611 -1.0170
  220MOL0     H30339   7.835  13.115   3.811 -1.2587 -1.2409 -1.2508
  220MOL0     H30340   6.999  13.349   3.361 -0.8740  0.4837  1.4582
  220MOL0     H30341   6.881  13.237   3.191  0.0979  0.0158  0.3148
  220MOL0     H30342   6.774  12.757   3.084 -0.6059 -0.1782  1.0984
  220MOL0     H30343   6.668  12.587   2.944 -0.5044 -0.1126  1.0890
  220MOL0     H30344   6.650  11.024   3.173 -0.3714  2.0998 -0.9610
  220MOL0     H30345   6.525  10.929   3.343 -1.0534  0.2627 -1.6331
  220MOL0     H30346   6.457  10.977   3.849 -0.3193  0.0026  0.0620
  220MOL0     H30347   6.515  10.866   4.073 -3.3222 -3.1909  0.9794
  220MOL0     H30348   6.673  10.588   4.286 -0.3092 -1.3065 -0.9153
  220MOL0     H30349   6.690  10.752   4.221  0.4520 -0.2865  0.2657
  220MOL0     H30350   6.410  10.672   4.242 -1.6087  0.7886  2.1061
  220MOL0     H30351   6.479  10.828   4.274 -2.7729 -0.3993 -1.3661
  220MOL0     H30352   6.485  10.590   4.450  1.1829 -0.9476 -0.2734
  220MOL0     H30353   6.583  10.733   4.500 -2.0894 -0.2369  2.7490
  220MOL0     H30354   6.377  10.856   4.509 -1.4700 -0.5275  1.5194
  220MOL0     H30355   6.385  10.721   4.626 -1.4369  1.1984  0.3707
  220MOL0     H30356   6.038  10.620   4.419  0.3412 -1.1686 -0.3619
  220MOL0     H30357   6.590  10.500   3.877 -1.3640 -0.8184 -3.5523
  220MOL0     H30358   6.545  10.467   3.660 -2.2122 -0.9748 -1.8340
  220MOL0     H30359   6.438  10.583   3.562  0.4708  3.8711  0.7842
  220MOL0     H30360   6.618  10.599   3.577 -1.1359 -0.0727  0.5660
  221MOL0     O30361   5.021   4.423   2.074 -0.2265  0.5521  0.8791
  221MOL0     C30362   5.034   4.359   2.177 -0.7706 -0.4520  0.2440
  221MOL0     O30363   4.980   4.234   2.204 -1.0521  0.1062 -0.7581
  221MOL0     C30364   4.933   4.142   2.111  1.4068  0.4684 -0.0032
  221MOL0     C30365   4.912   4.169   1.971  0.1528 -0.0750 -0.5399
  221MOL0     C30366   4.885   4.058   1.885 -0.0249  0.3908 -0.4374
  221MOL0     C30367   4.862   3.934   1.937 -0.6403  0.6016  0.0385
  221MOL0     O30368   4.824   3.843   1.846 -1.0562  0.4805  0.2388
  221MOL0     C30369   4.878   3.712   1.859  1.2099  0.3952  0.4259
  221MOL0     C30370   4.782   3.612   1.923 -0.2239 -0.5087 -0.3841
  221MOL0     C30371   4.650   3.596   1.846  1.0310 -0.1515  0.4514
  221MOL0     C30372   4.676   3.542   1.701 -0.1505  0.6845  1.2373
  221MOL0     C30373   4.547   3.557   1.614 -1.1738  0.8862 -1.0021
  221MOL0     C30374   4.565   3.491   1.481 -1.4561 -0.9428  0.5137
  221MOL0     C30375   4.445   3.457   1.406  0.1528 -0.7087 -0.3875
  221MOL0     C30376   4.364   3.582   1.352 -0.2661 -0.0713  0.4599
  221MOL0     N30377   4.239   3.530   1.299  0.3818 -0.2735 -0.2490
  221MOL0     C30378   4.127   3.610   1.278 -0.4912  0.5632  0.4847
  221MOL0     C30379   4.041   3.529   1.221  0.4879 -0.2072  0.6139
  221MOL0     C30380   3.896   3.566   1.200  0.3134 -0.7778 -0.0146
  221MOL0     C30381   3.812   3.504   1.312 -0.2180 -0.0393  0.5642
  221MOL0     C30382   3.663   3.517   1.281 -0.6706  0.2743  0.4664
  221MOL0     C30383   3.562   3.451   1.387  0.2947  0.4749 -0.1897
  221MOL0     O30384   3.569   3.539   1.503  0.6298  0.0934  0.4345
  221MOL0     C30385   3.560   3.473   1.628  0.3568 -0.1453 -0.6294
  221MOL0     C30386   3.436   3.428   1.677  0.9388 -0.1888 -0.4193
  221MOL0     C30387   3.438   3.363   1.803 -0.5870  0.4498  0.0446
  221MOL0     C30388   3.309   3.318   1.856  0.5722  0.2339 -0.5694
  221MOL0     C30389   3.556   3.332   1.876 -0.1153 -0.0508  0.1187
  221MOL0     C30390   3.561   3.249   2.000 -0.5612 -0.5468  0.3943
  221MOL0     O30391   3.681   3.174   2.028  0.0548  0.1319  0.1017
  221MOL0     C30392   3.716   3.143   2.159 -1.4691 -0.2113  0.4927
  221MOL0     C30393   3.794   3.031   2.180 -0.1712  0.3559  0.3015
  221MOL0     C30394   3.825   2.988   2.307  0.2756  0.5104 -0.9507
  221MOL0     C30395   3.802   3.074   2.414  1.3914  0.4732 -0.3818
  221MOL0     O30396   3.845   3.063   2.537 -0.4545 -0.0043  0.7293
  221MOL0     C30397   3.910   2.946   2.575 -0.0266 -0.7681  0.4037
  221MOL0     C30398   3.930   2.951   2.728 -0.2081 -0.3671  0.3933
  221MOL0     C30399   3.989   2.833   2.793 -0.2748  0.3515  0.4323
  221MOL0     C30400   3.952   2.839   2.940 -0.1928  0.5858 -0.4853
  221MOL0     C30401   4.023   2.720   3.025  0.4057 -1.0563  0.6635
  221MOL0     C30402   4.162   2.757   3.060  0.0001  0.0365  0.0747
  221MOL0     C30403   4.225   2.656   3.160  1.0467 -0.3702  0.9410
  221MOL0     C30404   4.372   2.697   3.196 -0.0618 -0.4169  0.2880
  221MOL0    Cl30405   4.369   2.847   3.275 -0.4961  0.1454 -0.5944
  221MOL0     C30406   3.732   3.192   2.385 -0.9485 -0.4951  0.1601
  221MOL0     C30407   3.684   3.228   2.259 -0.6100  0.1268  0.2710
  221MOL0     O30408   3.463   3.247   2.070  0.1578 -0.1401  0.0261
  221MOL0     C30409   3.677   3.367   1.817 -0.4242  0.0780  0.0916
  221MOL0     C30410   3.673   3.427   1.693  0.1122 -0.8658  0.6561
  221MOL0     N30411   4.091   3.401   1.221  0.5540  0.5742  0.2988
  221MOL0     N30412   4.217   3.400   1.253  1.1898  0.3676 -0.1551
  221MOL0     C30413   4.880   3.915   2.074  0.1909  0.4633  0.6024
  221MOL0     C30414   4.917   4.014   2.156  2.1951 -0.2573  0.2310
  221MOL0     C30415   5.104   4.426   2.292  0.5575 -0.2110  0.3282
  221MOL0     C30416   5.148   4.349   2.407 -0.4738 -0.4105 -1.0463
  221MOL0     C30417   5.233   4.408   2.506  0.4965 -0.6560  0.9130
  221MOL0     C30418   5.266   4.547   2.497 -0.0619  0.7588 -0.0252
  221MOL0     O30419   5.326   4.621   2.596 -0.9802  0.5734  0.2254
  221MOL0     C30420   5.360   4.544   2.718  0.2632 -0.0883 -0.0371
  221MOL0     C30421   5.410   4.637   2.828 -0.1026  0.2739  0.2016
  221MOL0     C30422   5.362   4.612   2.970 -0.6964  0.7893  0.5809
  221MOL0     C30423   5.413   4.718   3.064 -0.0635 -0.7304 -0.0341
  221MOL0     C30424   5.378   4.702   3.203 -0.2136  0.0641 -0.7555
  221MOL0     C30425   5.342   4.672   3.313 -0.4838 -0.1202 -1.2103
  221MOL0     C30426   5.230   4.615   2.382  0.1336 -0.3760 -0.1021
  221MOL0     C30427   5.151   4.563   2.279 -0.5653 -0.3710 -0.0411
  221MOL0     C30428   5.107   4.665   2.173 -0.0547  0.3930 -0.1877
  221MOL0     H30429   4.924   4.268   1.928 -2.4712  0.8201  0.5716
  221MOL0     H30430   4.879   4.067   1.777  0.7414 -0.7116 -0.5901
  221MOL0     H30431   4.977   3.713   1.907  0.8640 -0.5887  1.1899
  221MOL0     H30432   4.906   3.674   1.760  1.1378  0.8954  0.2091
  221MOL0     H30433   4.828   3.514   1.933  2.3647  0.6966  0.4127
  221MOL0     H30434   4.783   3.635   2.030  2.9782 -1.5172 -0.0862
  221MOL0     H30435   4.586   3.535   1.910 -2.4855  3.1954  0.5070
  221MOL0     H30436   4.602   3.694   1.851 -0.3415 -0.5680 -2.3169
  221MOL0     H30437   4.765   3.577   1.648 -0.6234  1.9677  1.2581
  221MOL0     H30438   4.682   3.434   1.715 -0.5917 -0.0235 -2.7249
  221MOL0     H30439   4.546   3.666   1.613 -0.7073  0.9877  1.4869
  221MOL0     H30440   4.456   3.519   1.662 -0.8451 -0.2377 -1.2434
  221MOL0     H30441   4.636   3.550   1.423  0.1059 -1.7216  1.5456
  221MOL0     H30442   4.630   3.404   1.497 -0.6757 -0.3975  0.3801
  221MOL0     H30443   4.390   3.394   1.477  1.8873 -1.9281 -0.0486
  221MOL0     H30444   4.486   3.394   1.327  0.0367  1.3035 -2.1313
  221MOL0     H30445   4.340   3.655   1.430 -0.3695  0.9720 -0.5232
  221MOL0     H30446   4.422   3.632   1.274 -0.5485 -1.5433 -0.7375
  221MOL0     H30447   4.111   3.716   1.299 -1.2815  0.0988  2.4025
  221MOL0     H30448   3.860   3.534   1.102  0.7074 -1.1149 -0.0461
  221MOL0     H30449   3.879   3.674   1.201  2.2077 -0.4520 -0.3627
  221MOL0     H30450   3.842   3.399   1.316  1.7108  0.5033  1.9529
  221MOL0     H30451   3.835   3.559   1.404  2.3978 -0.1623  0.0580
  221MOL0     H30452   3.640   3.623   1.267  1.3581  0.7900  0.7399
  221MOL0     H30453   3.652   3.461   1.187  2.4610  1.0152 -0.4436
  221MOL0     H30454   3.456   3.435   1.365  0.3632  0.0517 -0.2303
  221MOL0     H30455   3.604   3.353   1.410 -0.8569 -0.2662 -1.0902
  221MOL0     H30456   3.338   3.445   1.633 -0.3668 -6.9075 -1.2086
  221MOL0     H30457   3.275   3.361   1.951 -1.7076  0.9597 -1.6451
  221MOL0     H30458   3.307   3.209   1.855 -0.2466  0.2003 -3.3204
  221MOL0     H30459   3.226   3.333   1.786  0.3936  1.3348 -0.1546
  221MOL0     H30460   3.815   2.972   2.092  1.5155  1.9789 -0.4534
  221MOL0     H30461   3.874   2.892   2.321 -1.1626 -0.4272 -2.0005
  221MOL0     H30462   3.848   2.865   2.536  0.0468  0.9723 -3.9509
  221MOL0     H30463   4.012   2.944   2.533 -0.0021  3.0492 -0.0976
  221MOL0     H30464   3.992   3.039   2.747  0.8468 -0.0079 -3.8470
  221MOL0     H30465   3.830   2.969   2.770 -0.5529 -0.3589 -0.4006
  221MOL0     H30466   4.099   2.829   2.793 -0.2373 -4.5357  1.2659
  221MOL0     H30467   3.951   2.740   2.749 -0.5123 -0.0554  1.4653
  221MOL0     H30468   3.844   2.828   2.951 -0.0443 -1.3229 -0.4975
  221MOL0     H30469   3.984   2.939   2.970 -3.9952  1.0077  3.0267
  221MOL0     H30470   3.961   2.692   3.111 -1.7430 -1.2633 -0.8704
  221MOL0     H30471   4.016   2.630   2.962 -0.0064  1.3101 -2.9403
  221MOL0     H30472   4.158   2.860   3.099  2.2677 -0.2890  1.3613
  221MOL0     H30473   4.238   2.766   2.982 -0.0141  2.6860  0.2704
  221MOL0     H30474   4.220   2.562   3.104 -0.4704  1.5690 -2.5399
  221MOL0     H30475   4.157   2.657   3.246 -3.3670  0.3102 -2.1872
  221MOL0     H30476   4.434   2.706   3.106 -0.8073 -2.6647 -0.5258
  221MOL0     H30477   4.409   2.610   3.251 -1.6403 -0.6918  0.9623
  221MOL0     H30478   3.714   3.259   2.469  2.4359  2.1877 -1.0273
  221MOL0     H30479   3.626   3.319   2.250 -3.3741 -1.6073 -1.0310
  221MOL0     H30480   3.773   3.333   1.853  0.4549  0.2021 -2.0224
  221MOL0     H30481   3.766   3.441   1.639 -0.5813  0.8794 -0.1460
  221MOL0     H30482   4.872   3.816   2.118  0.5360 -0.0863 -0.5431
  221MOL0     H30483   4.935   3.990   2.261  2.4159 -1.4657 -0.0672
  221MOL0     H30484   5.128   4.243   2.417  1.1275 -0.8474 -2.1002
  221MOL0     H30485   5.255   4.358   2.600  2.1323  1.2181  1.5987
  221MOL0     H30486   5.263   4.507   2.753 -0.4172  1.3074 -0.3834
  221MOL0     H30487   5.426   4.457   2.709 -1.3674 -1.7120  2.3580
  221MOL0     H30488   5.394   4.744   2.812 -0.1705  0.5606  1.9241
  221MOL0     H30489   5.518   4.626   2.824 -0.1583 -0.9283  1.2072
  221MOL0     H30490   5.253   4.601   2.971 -0.6222 -0.2003 -0.0510
  221MOL0     H30491   5.410   4.523   3.012  2.2844  2.5512  1.1284
  221MOL0     H30492   5.363   4.815   3.049 -3.1822 -2.2395 -0.1885
  221MOL0     H30493   5.519   4.745   3.062 -0.8810  3.2246  0.2565
  221MOL0     H30494   5.286   4.676   3.405  0.8346 -1.8800 -0.2769
  221MOL0     H30495   5.255   4.721   2.376  0.7373 -0.3427  2.1123
  221MOL0     H30496   4.997   4.661   2.172 -0.0925  1.1979 -1.6347
  221MOL0     H30497   5.128   4.769   2.197 -0.0469 -0.1059  2.3303
  221MOL0     H30498   5.148   4.645   2.074  2.5221 -0.9910  1.0605
  222MOL0     O30499   1.624   6.596   9.540  0.6567  0.0316 -0.6625
  222MOL0     C30500   1.578   6.691   9.590  0.4392 -0.3346 -0.1351
  222MOL0     O30501   1.591   6.824   9.537  0.7327 -0.2715 -0.9585
  222MOL0     C30502   1.659   6.831   9.421  0.9019 -0.5979  0.0761
  222MOL0     C30503   1.597   6.868   9.301  0.8992 -0.7134  0.3554
  222MOL0     C30504   1.660   6.871   9.174 -0.1985 -0.7386  0.2273
  222MOL0     C30505   1.805   6.861   9.175  0.1960 -0.6879 -0.3885
  222MOL0     O30506   1.875   6.912   9.073  0.3146  0.5787 -0.5105
  222MOL0     C30507   1.862   7.045   9.031  0.4551  0.1606 -0.9138
  222MOL0     C30508   1.982   7.062   8.927  0.5500 -0.4741  0.1702
  222MOL0     C30509   1.942   7.153   8.814 -0.1830 -0.8850 -0.4106
  222MOL0     C30510   1.844   7.084   8.714  0.3659 -0.0641 -0.2185
  222MOL0     C30511   1.770   7.188   8.627 -0.5241  0.7783  0.2753
  222MOL0     C30512   1.674   7.108   8.537 -0.4270 -0.1635  0.4414
  222MOL0     C30513   1.548   7.202   8.512  0.4145  0.4091  0.0273
  222MOL0     C30514   1.590   7.317   8.421  0.0065 -0.3934 -0.3680
  222MOL0     N30515   1.487   7.419   8.394  0.7948 -0.7348  0.7540
  222MOL0     C30516   1.374   7.380   8.323  0.3028  0.7831  0.0852
  222MOL0     C30517   1.286   7.480   8.346 -0.2744  0.2545 -0.9404
  222MOL0     C30518   1.150   7.513   8.293  0.0702 -0.0694  0.7751
  222MOL0     C30519   1.128   7.453   8.155 -0.3167  0.4522  1.6725
  222MOL0     C30520   0.974   7.436   8.120 -0.5905 -0.0968 -0.9030
  222MOL0     C30521   0.901   7.572   8.098 -0.9139  0.0991 -0.6919
  222MOL0     O30522   0.948   7.634   7.975 -0.3135  0.8947  0.3640
  222MOL0     C30523   0.905   7.757   7.929 -0.5479  1.1036 -0.5053
  222MOL0     C30524   1.000   7.825   7.847 -0.6308  0.2400 -0.0768
  222MOL0     C30525   0.976   7.956   7.794  0.2455  0.4001 -0.4645
  222MOL0     C30526   1.067   8.031   7.707 -0.3152 -0.4835  1.2709
  222MOL0     C30527   0.846   8.007   7.812 -0.6599 -0.4201 -0.1383
  222MOL0     C30528   0.785   8.138   7.757 -0.1308  0.4282 -0.1902
  222MOL0     O30529   0.857   8.229   7.679 -0.1097  0.5696  0.0317
  222MOL0     C30530   0.824   8.362   7.673  0.3587  0.0156 -0.0743
  222MOL0     C30531   0.720   8.432   7.737  1.2906 -0.0697 -1.0444
  222MOL0     C30532   0.699   8.574   7.724  0.4600 -0.3246 -0.0697
  222MOL0     C30533   0.781   8.647   7.650  0.2972 -0.2386 -0.0018
  222MOL0     O30534   0.779   8.781   7.622 -0.4730 -0.4878  0.0488
  222MOL0     C30535   0.705   8.875   7.707 -0.5143  1.0719  0.0622
  222MOL0     C30536   0.726   9.017   7.645 -0.3418  0.4460  0.1479
  222MOL0     C30537   0.831   9.090   7.734  0.8068 -0.7654 -0.0690
  222MOL0     C30538   0.897   9.200   7.653 -0.4259 -0.2441  0.4671
  222MOL0     C30539   1.020   9.230   7.739  0.0024 -1.5102  0.0865
  222MOL0     C30540   1.117   9.336   7.677  0.0707  0.4062 -0.9119
  222MOL0     C30541   1.251   9.337   7.745  0.2499  1.1091  1.1535
  222MOL0     C30542   1.342   9.212   7.723 -0.0887  0.6798 -1.0087
  222MOL0    Cl30543   1.444   9.227   7.587 -0.2389 -0.0302  0.1741
  222MOL0     C30544   0.891   8.584   7.604 -0.0800  0.6715 -0.0546
  222MOL0     C30545   0.918   8.447   7.614  0.1902  0.1250 -0.4547
  222MOL0     O30546   0.671   8.166   7.798  0.3233  0.2358 -0.0950
  222MOL0     C30547   0.749   7.925   7.879  0.0415  0.0774  1.1052
  222MOL0     C30548   0.780   7.813   7.950 -0.3470  0.2958  0.0067
  222MOL0     N30549   1.357   7.578   8.421  0.4887  0.3928  0.2071
  222MOL0     N30550   1.466   7.531   8.457 -0.0181  0.0099 -0.0221
  222MOL0     C30551   1.864   6.815   9.299  0.4670  0.5767  0.8124
  222MOL0     C30552   1.797   6.806   9.425  0.7734  0.0278 -0.2764
  222MOL0     C30553   1.497   6.685   9.711  0.8678  0.4662 -0.2031
  222MOL0     C30554   1.565   6.690   9.836  0.4896  0.1102 -0.1852
  222MOL0     C30555   1.490   6.711   9.952  0.3959  0.6344  1.0234
  222MOL0     C30556   1.352   6.725   9.947  0.3459  0.1997 -1.1306
  222MOL0     O30557   1.268   6.731  10.051 -0.2832  0.8116 -0.2886
  222MOL0     C30558   1.314   6.696  10.184  0.4892  0.0815 -0.3370
  222MOL0     C30559   1.209   6.688  10.297  0.4035  0.4983 -1.2010
  222MOL0     C30560   1.109   6.800  10.298  0.8163  0.0229  0.5918
  222MOL0     C30561   0.990   6.804  10.405  0.0329  0.6548 -0.1064
  222MOL0     C30562   0.923   6.936  10.403 -0.5973 -0.6055 -0.0563
  222MOL0     C30563   0.857   7.035  10.395  0.0247  0.1110 -1.0232
  222MOL0     C30564   1.291   6.709   9.822  0.3676 -0.1325  0.0458
  222MOL0     C30565   1.359   6.694   9.706  0.6006  0.1091 -0.3874
  222MOL0     C30566   1.289   6.672   9.577  0.1049 -0.4853  0.0493
  222MOL0     H30567   1.492   6.893   9.314  1.4775  3.3296 -1.0629
  222MOL0     H30568   1.613   6.903   9.081 -1.1682 -1.2355  0.5292
  222MOL0     H30569   1.872   7.102   9.124  0.1738  0.0583 -0.8194
  222MOL0     H30570   1.768   7.071   8.982 -0.0800  0.5901  0.3161
  222MOL0     H30571   2.063   7.115   8.978 -1.4107  5.7369 -2.2420
  222MOL0     H30572   2.017   6.964   8.895 -0.3916 -0.1135 -2.1448
  222MOL0     H30573   1.899   7.246   8.852  1.0669 -0.7095  0.6558
  222MOL0     H30574   2.026   7.177   8.748 -1.1024 -1.4082 -1.8097
  222MOL0     H30575   1.910   7.022   8.654  2.0170  1.7142 -0.3418
  222MOL0     H30576   1.781   7.021   8.778 -3.0742  1.6459 -1.6688
  222MOL0     H30577   1.848   7.243   8.573  2.0736 -2.7604  0.0858
  222MOL0     H30578   1.716   7.259   8.689 -0.9949  0.1672  0.5794
  222MOL0     H30579   1.718   7.068   8.446  0.5764  0.1349  0.7905
  222MOL0     H30580   1.626   7.027   8.594  0.6406 -1.9810 -1.1172
  222MOL0     H30581   1.525   7.237   8.613  3.0054  0.4412  0.6679
  222MOL0     H30582   1.460   7.143   8.484  0.6141  0.5038 -0.8177
  222MOL0     H30583   1.683   7.371   8.443 -0.1748  1.3231 -3.2134
  222MOL0     H30584   1.619   7.274   8.325 -0.9086  4.9530 -3.4970
  222MOL0     H30585   1.358   7.288   8.269  3.9804  0.5581 -0.8404
  222MOL0     H30586   1.143   7.622   8.291  0.6126 -0.0269  0.9159
  222MOL0     H30587   1.071   7.482   8.362 -0.1573 -5.4171 -1.4347
  222MOL0     H30588   1.175   7.515   8.078 -3.8571  4.0141  2.0563
  222MOL0     H30589   1.167   7.351   8.157 -0.1162  0.4501 -0.4156
  222MOL0     H30590   0.949   7.378   8.030 -4.4318 -1.2049  0.6885
  222MOL0     H30591   0.925   7.382   8.202 -0.7375  1.2698 -0.0720
  222MOL0     H30592   0.794   7.555   8.083 -0.1979 -1.9509 -5.3169
  222MOL0     H30593   0.919   7.646   8.177  2.9039  1.7993 -2.8593
  222MOL0     H30594   1.094   7.776   7.827 -1.2430 -0.7968 -0.5063
  222MOL0     H30595   1.168   7.988   7.707  0.6784  1.5891 -0.4021
  222MOL0     H30596   1.086   8.136   7.733  1.2983 -1.0681  2.5989
  222MOL0     H30597   1.029   8.041   7.605  4.2643  2.0773 -0.5387
  222MOL0     H30598   0.654   8.397   7.816 -0.4825  1.0965 -1.9270
  222MOL0     H30599   0.620   8.623   7.780 -0.0277 -1.0164 -0.1282
  222MOL0     H30600   0.603   8.837   7.700 -1.2811  3.2304 -2.8498
  222MOL0     H30601   0.728   8.872   7.814 -0.1969 -2.0466  0.0159
  222MOL0     H30602   0.759   9.006   7.541  0.3888  0.3283  0.3802
  222MOL0     H30603   0.629   9.065   7.636 -1.4667 -0.9459  3.2934
  222MOL0     H30604   0.906   9.015   7.760  2.3953  0.4576 -1.0115
  222MOL0     H30605   0.784   9.124   7.827  0.0910  2.1398 -1.4034
  222MOL0     H30606   0.836   9.289   7.635  1.0273  0.1444 -3.5455
  222MOL0     H30607   0.923   9.158   7.556 -1.5890 -0.5934  0.2923
  222MOL0     H30608   0.984   9.275   7.832  2.1558  2.5989 -0.8185
  222MOL0     H30609   1.073   9.139   7.769 -0.2110 -0.6411  3.6094
  222MOL0     H30610   1.067   9.433   7.677 -1.6006 -0.3571  1.8164
  222MOL0     H30611   1.125   9.313   7.571  3.3195  0.7662 -0.8514
  222MOL0     H30612   1.236   9.364   7.850 -0.4704  0.2353  1.2865
  222MOL0     H30613   1.301   9.423   7.700 -3.2971  1.3271 -3.0551
  222MOL0     H30614   1.291   9.115   7.720 -2.2153  1.7077 -0.5370
  222MOL0     H30615   1.407   9.212   7.811 -1.5021  1.5847  0.0926
  222MOL0     H30616   0.967   8.645   7.555 -0.5093  2.2288  1.1433
  222MOL0     H30617   1.012   8.411   7.574 -0.7760  0.6473 -3.4314
  222MOL0     H30618   0.643   7.947   7.888  0.4102  1.0873  3.9550
  222MOL0     H30619   0.702   7.769   8.010  1.6210 -1.1131  1.6930
  222MOL0     H30620   1.966   6.777   9.301  0.8304  1.3315 -0.9606
  222MOL0     H30621   1.849   6.777   9.516  0.9794 -1.1833 -0.7726
  222MOL0     H30622   1.673   6.697   9.834  0.3501  4.5580 -1.2442
  222MOL0     H30623   1.541   6.726  10.047 -0.5977  2.6412  1.2866
  222MOL0     H30624   1.375   6.605  10.178  1.4643  0.4343  2.5124
  222MOL0     H30625   1.387   6.770  10.219 -1.1453  1.1949  0.8584
  222MOL0     H30626   1.256   6.681  10.395  0.1510 -0.3465 -1.1307
  222MOL0     H30627   1.153   6.597  10.274 -1.0861  0.9110  0.5625
  222MOL0     H30628   1.166   6.893  10.308  2.0220 -0.3938 -1.7680
  222MOL0     H30629   1.065   6.806  10.198  1.2263  4.4487  0.4727
  222MOL0     H30630   1.030   6.784  10.504  0.3098 -0.3030 -0.4045
  222MOL0     H30631   0.931   6.713  10.391  1.2167 -0.0185 -0.8947
  222MOL0     H30632   0.791   7.117  10.371 -0.6058 -0.1949 -0.3642
  222MOL0     H30633   1.184   6.693   9.813  0.6560 -2.2236 -0.1388
  222MOL0     H30634   1.183   6.699   9.585  0.5378  0.8399  2.3183
  222MOL0     H30635   1.337   6.726   9.494  0.9157 -0.5589  0.4638
  222MOL0     H30636   1.284   6.567   9.549  2.2137 -1.0210  1.4711
  223MOL0     O30637   5.548   8.864   2.682 -0.7445  0.9409 -0.1817
  223MOL0     C30638   5.462   8.885   2.764  0.6161  0.1121  0.0678
  223MOL0     O30639   5.354   8.809   2.778  0.7034 -0.0226 -0.3608
  223MOL0     C30640   5.322   8.725   2.675  0.7353  0.7516 -1.6623
  223MOL0     C30641   5.225   8.749   2.579  0.2743  0.5756 -0.7064
  223MOL0     C30642   5.199   8.645   2.483 -0.1068 -0.1104 -0.6519
  223MOL0     C30643   5.278   8.533   2.473  0.3277  0.9180 -0.4151
  223MOL0     O30644   5.262   8.446   2.371 -0.1541 -0.0047  0.4964
  223MOL0     C30645   5.136   8.373   2.354  0.2440 -0.6387  0.0059
  223MOL0     C30646   5.138   8.237   2.425 -0.3033  0.0033 -0.6894
  223MOL0     C30647   5.252   8.144   2.375  0.7495 -0.3598 -0.0644
  223MOL0     C30648   5.247   8.021   2.466  0.2882 -0.7957 -0.5736
  223MOL0     C30649   5.363   7.913   2.449 -0.2725 -0.2187 -0.8715
  223MOL0     C30650   5.357   7.824   2.319 -0.4641 -0.3368  0.4211
  223MOL0     C30651   5.483   7.726   2.306 -0.0585  0.1213 -0.1189
  223MOL0     C30652   5.613   7.789   2.271  0.2003 -0.2577 -0.7265
  223MOL0     N30653   5.642   7.812   2.129  0.7956  0.1798  0.2107
  223MOL0     C30654   5.586   7.889   2.030 -0.3871 -0.5491  0.6940
  223MOL0     C30655   5.656   7.857   1.920  0.3234  0.3206  1.0982
  223MOL0     C30656   5.628   7.918   1.786 -0.6798 -1.2152  0.0186
  223MOL0     C30657   5.764   7.959   1.713  0.0955  1.3603 -0.8086
  223MOL0     C30658   5.798   8.102   1.737  0.2533 -0.5040 -0.2662
  223MOL0     C30659   5.898   8.143   1.640  0.0352  0.7728 -0.5393
  223MOL0     O30660   5.817   8.163   1.530  0.4562  0.4007  0.2440
  223MOL0     C30661   5.862   8.114   1.409 -0.7801  0.1401  0.6822
  223MOL0     C30662   5.770   8.053   1.332 -0.3609 -0.4159 -0.2499
  223MOL0     C30663   5.807   8.002   1.203 -0.5264 -0.3935  0.0841
  223MOL0     C30664   5.699   7.944   1.108 -0.1477 -0.2871 -0.2931
  223MOL0     C30665   5.945   8.005   1.169 -1.0151  0.8914 -0.0045
  223MOL0     C30666   5.998   7.952   1.041  1.1015 -0.1198  0.6881
  223MOL0     O30667   6.108   8.018   0.996  0.4462 -0.3471  0.1644
  223MOL0     C30668   6.167   7.979   0.881 -0.7001 -0.5734  0.3383
  223MOL0     C30669   6.299   7.940   0.899  1.0986  0.7089 -0.9000
  223MOL0     C30670   6.379   7.884   0.803 -0.3325  0.5973  0.3544
  223MOL0     C30671   6.337   7.889   0.674 -0.6478  1.2614 -0.5714
  223MOL0     O30672   6.428   7.858   0.579 -0.2139 -0.0656 -0.3797
  223MOL0     C30673   6.366   7.806   0.466  0.0240 -0.2693 -0.0693
  223MOL0     C30674   6.452   7.700   0.407  0.0853 -0.7847 -0.5780
  223MOL0     C30675   6.378   7.618   0.299 -1.1315 -0.2454  0.6652
  223MOL0     C30676   6.483   7.530   0.225 -0.0054 -0.0068 -0.0052
  223MOL0     C30677   6.420   7.427   0.127 -0.0408  0.1205 -0.0881
  223MOL0     C30678   6.534   7.357   0.040 -0.1046 -0.5199  0.4370
  223MOL0     C30679   6.566   7.437  -0.086 -0.4377 -0.0865 -0.6498
  223MOL0     C30680   6.459   7.405  -0.194  0.0477  0.7858  0.2802
  223MOL0    Cl30681   6.544   7.324  -0.332  0.0937  0.1996 -0.3020
  223MOL0     C30682   6.210   7.939   0.648 -0.2070 -0.9338 -0.5280
  223MOL0     C30683   6.119   7.980   0.748  0.0981 -0.8999 -0.0476
  223MOL0     O30684   5.948   7.854   0.985  0.1438 -0.5781 -0.5788
  223MOL0     C30685   6.034   8.058   1.260 -0.7860 -0.0971 -0.3204
  223MOL0     C30686   5.999   8.112   1.380  0.4067  0.4006  0.0826
  223MOL0     N30687   5.763   7.776   1.960  0.4701  0.1561 -0.3097
  223MOL0     N30688   5.751   7.756   2.084 -0.5382  0.1543 -0.2858
  223MOL0     C30689   5.371   8.509   2.568 -0.2712 -0.3404  0.2095
  223MOL0     C30690   5.386   8.597   2.670  0.4238  0.0252 -0.5718
  223MOL0     C30691   5.478   9.008   2.851  0.0868  1.6124  0.1383
  223MOL0     C30692   5.378   9.026   2.955 -0.5072  0.7563  0.0473
  223MOL0     C30693   5.377   9.132   3.040 -0.4368 -0.1344 -0.2319
  223MOL0     C30694   5.475   9.229   3.022  0.3361  0.2142 -0.9929
  223MOL0     O30695   5.469   9.337   3.110 -0.1153  0.2205 -0.7528
  223MOL0     C30696   5.536   9.456   3.080  0.4928  0.0980 -1.3258
  223MOL0     C30697   5.556   9.521   3.212 -0.3121  0.1808 -0.0926
  223MOL0     C30698   5.438   9.576   3.292  0.2700 -0.2203 -0.1062
  223MOL0     C30699   5.346   9.472   3.334 -0.3035 -0.4049 -0.1823
  223MOL0     C30700   5.262   9.529   3.444 -0.9085  0.9002  0.7456
  223MOL0     C30701   5.191   9.588   3.517  0.8755 -0.0585 -0.8261
  223MOL0     C30702   5.568   9.215   2.919 -0.1948 -1.1673 -0.2741
  223MOL0     C30703   5.565   9.113   2.818  0.0926 -0.5101 -0.2665
  223MOL0     C30704   5.660   9.120   2.699 -0.3358 -0.5637  0.2263
  223MOL0     H30705   5.159   8.834   2.592 -2.8218 -1.7887  0.4406
  223MOL0     H30706   5.127   8.658   2.403 -0.9067  1.1574  0.2584
  223MOL0     H30707   5.097   8.361   2.252  0.2425 -1.0287  0.0536
  223MOL0     H30708   5.061   8.428   2.411 -2.1768 -0.8576 -2.7312
  223MOL0     H30709   5.142   8.243   2.535 -0.3075 -3.2835 -0.4253
  223MOL0     H30710   5.042   8.189   2.404 -0.0541 -0.4225 -0.8572
  223MOL0     H30711   5.250   8.118   2.268  1.1630 -0.6544 -0.0055
  223MOL0     H30712   5.355   8.182   2.379  0.9528 -0.0088 -4.0039
  223MOL0     H30713   5.240   8.049   2.571 -1.0270  0.1847 -0.8932
  223MOL0     H30714   5.156   7.967   2.438 -0.2850 -0.2102  0.1475
  223MOL0     H30715   5.370   7.842   2.533  1.5713 -0.4816 -1.2105
  223MOL0     H30716   5.459   7.961   2.429 -0.6507 -0.0998 -2.5425
  223MOL0     H30717   5.269   7.758   2.318 -1.1262  0.4002 -3.4879
  223MOL0     H30718   5.359   7.880   2.226 -2.0029 -1.4504 -0.3365
  223MOL0     H30719   5.464   7.639   2.241  2.9541 -3.3671  3.1670
  223MOL0     H30720   5.496   7.684   2.406  0.1221 -3.8402 -1.5936
  223MOL0     H30721   5.617   7.889   2.317  1.3503  0.2998 -1.9737
  223MOL0     H30722   5.694   7.726   2.309 -1.4083 -1.1431  1.4127
  223MOL0     H30723   5.492   7.945   2.024  0.6794  1.1740 -1.1667
  223MOL0     H30724   5.570   8.010   1.795 -1.3023 -1.7422  1.9475
  223MOL0     H30725   5.585   7.839   1.723  1.1121 -0.6599 -1.9830
  223MOL0     H30726   5.841   7.900   1.763 -2.1315 -1.4590 -0.3913
  223MOL0     H30727   5.754   7.927   1.609  1.0202  1.0153 -0.7975
  223MOL0     H30728   5.711   8.169   1.728  0.5100 -0.1560 -0.2017
  223MOL0     H30729   5.830   8.112   1.841  1.0518  2.3267 -0.6922
  223MOL0     H30730   5.949   8.235   1.672 -0.2920  0.5981  0.5196
  223MOL0     H30731   5.975   8.068   1.626 -1.7367 -0.7788 -2.8757
  223MOL0     H30732   5.668   8.033   1.364 -0.2558 -1.8285 -0.7550
  223MOL0     H30733   5.696   7.835   1.097  1.7904 -0.4778  0.7018
  223MOL0     H30734   5.713   7.983   1.006 -1.5763 -3.2280 -1.7445
  223MOL0     H30735   5.597   7.968   1.139  1.0012  1.9952  2.0398
  223MOL0     H30736   6.338   7.944   1.000 -1.3489  0.6355  0.1333
  223MOL0     H30737   6.467   7.822   0.816 -0.2494  0.1003 -2.1085
  223MOL0     H30738   6.275   7.756   0.503  0.8910 -0.2122  2.2821
  223MOL0     H30739   6.337   7.887   0.398 -2.0736 -0.7060  0.2226
  223MOL0     H30740   6.548   7.739   0.373  1.2113 -1.7450  1.3621
  223MOL0     H30741   6.462   7.632   0.492 -0.0779  3.2666  3.0439
  223MOL0     H30742   6.327   7.682   0.226 -4.1032 -1.8530  1.1807
  223MOL0     H30743   6.297   7.555   0.337 -2.1516  1.6951  1.9018
  223MOL0     H30744   6.559   7.496   0.297  0.7549  1.6067 -0.0017
  223MOL0     H30745   6.538   7.605   0.167 -0.8759  2.4080  2.0726
  223MOL0     H30746   6.369   7.350   0.185 -1.3175 -0.5596 -2.0192
  223MOL0     H30747   6.352   7.474   0.055 -1.2080  1.8105  2.0256
  223MOL0     H30748   6.499   7.256   0.016  0.4022 -0.4844 -0.5326
  223MOL0     H30749   6.623   7.357   0.102 -1.3533 -1.1094  2.3019
  223MOL0     H30750   6.663   7.404  -0.124  0.0879  0.1309  0.4463
  223MOL0     H30751   6.575   7.544  -0.063 -2.3924  0.3767 -1.7765
  223MOL0     H30752   6.395   7.487  -0.227 -1.7278 -1.4390 -2.2044
  223MOL0     H30753   6.387   7.330  -0.162  1.4662  0.3807  2.7478
  223MOL0     H30754   6.190   7.960   0.543 -0.5225 -1.1621 -0.5159
  223MOL0     H30755   6.018   8.016   0.731 -0.1486 -0.8746  1.3800
  223MOL0     H30756   6.141   8.050   1.242 -0.0947  4.2961  0.7637
  223MOL0     H30757   6.075   8.168   1.434 -1.3189  2.2678  0.7144
  223MOL0     H30758   5.412   8.408   2.564 -1.6922 -0.9149 -0.6673
  223MOL0     H30759   5.447   8.582   2.758 -0.8151 -0.6662  0.1983
  223MOL0     H30760   5.310   8.944   2.977  0.9755 -1.0492 -1.7563
  223MOL0     H30761   5.301   9.130   3.118  1.4575 -1.4188  1.6892
  223MOL0     H30762   5.636   9.434   3.042  1.1743  1.0588 -0.1559
  223MOL0     H30763   5.494   9.532   3.013  3.3987  1.6020 -1.6289
  223MOL0     H30764   5.614   9.612   3.192  0.5835 -0.5353 -0.8597
  223MOL0     H30765   5.619   9.447   3.262 -0.4551 -1.1287 -1.7418
  223MOL0     H30766   5.494   9.611   3.380  0.8926 -2.7695  0.5879
  223MOL0     H30767   5.378   9.656   3.248  0.0125  0.7616  1.9381
  223MOL0     H30768   5.404   9.387   3.371 -2.4755 -2.0018 -0.1910
  223MOL0     H30769   5.286   9.436   3.250  1.5555 -3.4297 -0.3505
  223MOL0     H30770   5.111   9.623   3.579 -3.0495 -4.6958 -2.6112
  223MOL0     H30771   5.637   9.293   2.891 -2.2372 -0.5673 -4.5154
  223MOL0     H30772   5.739   9.045   2.703  1.9250  1.5687 -1.1916
  223MOL0     H30773   5.598   9.113   2.610  0.6627 -1.4767 -0.4202
  223MOL0     H30774   5.714   9.215   2.709  0.6174 -0.8558 -1.8012
  224MOL0     O30775   0.758   4.323   0.778 -0.1991 -0.8669  0.0678
  224MOL0     C30776   0.856   4.388   0.760 -1.3946 -0.3935 -0.2211
  224MOL0     O30777   0.868   4.516   0.796 -0.4218 -0.1582  0.5460
  224MOL0     C30778   0.771   4.569   0.876 -0.8442 -0.7146 -0.5534
  224MOL0     C30779   0.772   4.558   1.021 -0.0116 -0.1029 -0.3027
  224MOL0     C30780   0.678   4.614   1.106 -0.0256 -0.3555 -0.2229
  224MOL0     C30781   0.565   4.685   1.049 -0.0597  0.5816 -0.8658
  224MOL0     O30782   0.458   4.746   1.131  0.4049  0.1461 -0.4721
  224MOL0     C30783   0.497   4.829   1.239  0.0747  0.0754  0.9542
  224MOL0     C30784   0.474   4.779   1.374  0.4511  0.7614  0.1840
  224MOL0     C30785   0.554   4.855   1.476  0.4989 -0.4530 -0.4452
  224MOL0     C30786   0.524   4.841   1.628 -0.3731  0.4320  0.7700
  224MOL0     C30787   0.460   4.954   1.696 -0.0597 -0.2491 -0.0098
  224MOL0     C30788   0.441   4.928   1.848 -0.6384 -0.2907  0.4029
  224MOL0     C30789   0.388   5.046   1.922  0.1127  0.3090  0.2500
  224MOL0     C30790   0.465   5.182   1.927  0.4953 -0.4756 -0.5296
  224MOL0     N30791   0.613   5.174   1.970  0.2657  1.0149  0.8143
  224MOL0     C30792   0.721   5.230   1.891 -0.0140 -0.8302  0.0135
  224MOL0     C30793   0.826   5.225   1.967 -0.3783 -0.3301  0.4659
  224MOL0     C30794   0.953   5.276   1.921  0.7312  0.4319  0.1459
  224MOL0     C30795   1.038   5.151   1.884 -1.0801 -0.5395  0.8158
  224MOL0     C30796   1.127   5.195   1.767  0.6263  0.0084  0.3833
  224MOL0     C30797   1.194   5.078   1.703  0.3080 -0.8078 -0.4648
  224MOL0     O30798   1.091   4.995   1.645 -0.0921 -0.3686  0.3335
  224MOL0     C30799   1.141   4.900   1.547  0.7563  0.3399  0.3883
  224MOL0     C30800   1.035   4.842   1.473  0.2574  0.1487 -0.6261
  224MOL0     C30801   1.062   4.760   1.362  0.7503 -0.5779 -0.4498
  224MOL0     C30802   0.943   4.713   1.285  1.0763  0.9125  0.4106
  224MOL0     C30803   1.200   4.719   1.339  0.2813 -0.6909  0.2723
  224MOL0     C30804   1.248   4.627   1.236  0.7565 -0.3194 -0.4537
  224MOL0     O30805   1.372   4.573   1.269  0.0614  0.0770 -0.5863
  224MOL0     C30806   1.439   4.516   1.163  0.3190  0.6031 -0.4281
  224MOL0     C30807   1.458   4.376   1.169 -0.2008 -0.8437 -1.1330
  224MOL0     C30808   1.527   4.302   1.076  1.2147 -0.1855  0.9373
  224MOL0     C30809   1.587   4.375   0.968 -0.5889 -0.4095  0.6770
  224MOL0     O30810   1.646   4.306   0.865  0.0068  0.7970 -0.1159
  224MOL0     C30811   1.724   4.190   0.893  0.3342  1.2344 -1.0828
  224MOL0     C30812   1.783   4.116   0.768  0.6824  0.1363  0.0114
  224MOL0     C30813   1.889   4.004   0.801  0.2538 -0.1381  0.3582
  224MOL0     C30814   1.836   3.861   0.852 -0.0337  0.2969  0.0356
  224MOL0     C30815   1.952   3.764   0.894  0.3580 -0.6300  0.9987
  224MOL0     C30816   2.095   3.790   0.841  0.0583 -0.2814 -0.0157
  224MOL0     C30817   2.197   3.687   0.908 -0.0091  0.7267 -0.4107
  224MOL0     C30818   2.345   3.729   0.870  0.0354 -0.6754  0.7292
  224MOL0    Cl30819   2.371   3.703   0.697 -0.0220 -0.3855  0.1694
  224MOL0     C30820   1.567   4.511   0.959  0.5876 -0.2540  0.1648
  224MOL0     C30821   1.490   4.585   1.054 -0.0873  0.3978 -0.2630
  224MOL0     O30822   1.182   4.615   1.130 -0.1273  0.2012 -0.0951
  224MOL0     C30823   1.304   4.772   1.423 -0.1020 -0.2981  0.0348
  224MOL0     C30824   1.276   4.871   1.516 -0.5197  0.3348  0.6311
  224MOL0     N30825   0.796   5.168   2.092  0.3474 -0.2610 -0.1361
  224MOL0     N30826   0.671   5.138   2.092  0.1751  0.2968  0.3788
  224MOL0     C30827   0.566   4.700   0.907 -0.0005 -0.4169 -0.0633
  224MOL0     C30828   0.670   4.651   0.824 -0.7794 -0.0704 -0.0599
  224MOL0     C30829   0.979   4.303   0.717  0.0070 -0.3050 -0.7637
  224MOL0     C30830   0.945   4.192   0.649  0.2345  0.7416  0.6568
  224MOL0     C30831   1.048   4.110   0.591 -0.6089 -0.2632 -0.3878
  224MOL0     C30832   1.183   4.136   0.627  0.1861  0.9249 -0.6745
  224MOL0     O30833   1.284   4.048   0.599 -0.4159  0.1335  0.7345
  224MOL0     C30834   1.287   3.980   0.468  0.9919  0.4097 -0.6073
  224MOL0     C30835   1.405   4.014   0.385 -0.7119 -0.8272  0.0377
  224MOL0     C30836   1.544   3.984   0.454 -0.0409  0.9369 -0.2390
  224MOL0     C30837   1.556   3.838   0.510  0.7706  0.7187  0.5290
  224MOL0     C30838   1.515   3.744   0.402  0.2272 -0.9424  1.0858
  224MOL0     C30839   1.491   3.649   0.327  0.3503 -0.3299  0.1408
  224MOL0     C30840   1.217   4.249   0.705 -1.2673  0.4914  0.1602
  224MOL0     C30841   1.112   4.336   0.739  0.2927  0.1664 -0.4345
  224MOL0     C30842   1.164   4.461   0.804  0.4749  1.0949 -0.9167
  224MOL0     H30843   0.858   4.521   1.075  0.1813 -0.1164 -0.6201
  224MOL0     H30844   0.678   4.593   1.212  1.0712  3.7010  0.7778
  224MOL0     H30845   0.448   4.925   1.224  1.4801  0.6398 -0.1792
  224MOL0     H30846   0.600   4.863   1.227  0.5727 -2.1891 -2.8093
  224MOL0     H30847   0.367   4.801   1.386  0.7639  2.8590 -0.5801
  224MOL0     H30848   0.503   4.674   1.368 -0.9370  0.4390 -1.7421
  224MOL0     H30849   0.657   4.846   1.441  0.2190  0.8121 -1.7015
  224MOL0     H30850   0.538   4.959   1.447  2.1629 -0.6450 -2.2196
  224MOL0     H30851   0.456   4.756   1.639 -2.6148  2.1601  0.9581
  224MOL0     H30852   0.618   4.811   1.677 -0.0551  1.4836  0.8172
  224MOL0     H30853   0.370   4.988   1.644 -0.2598  0.3847  0.7301
  224MOL0     H30854   0.533   5.034   1.680  0.3980 -0.1861  2.0312
  224MOL0     H30855   0.377   4.841   1.862  0.1100 -1.1635 -1.2674
  224MOL0     H30856   0.540   4.903   1.887 -0.8606 -0.3897  0.8992
  224MOL0     H30857   0.378   5.009   2.024  1.1194 -0.0258  0.2385
  224MOL0     H30858   0.296   5.076   1.871  1.1340 -0.7405 -2.4063
  224MOL0     H30859   0.464   5.240   1.834  1.4822  3.1930  1.5590
  224MOL0     H30860   0.412   5.244   2.000  2.2725  2.2334 -1.3887
  224MOL0     H30861   0.728   5.272   1.791 -0.3608  3.7897  1.7051
  224MOL0     H30862   0.997   5.343   1.996  0.2839  2.5345 -1.3972
  224MOL0     H30863   0.935   5.341   1.835  0.5119  0.6476  0.3518
  224MOL0     H30864   1.095   5.122   1.972  1.1530  0.8331 -0.0971
  224MOL0     H30865   0.966   5.073   1.858 -2.4069  0.4145  1.4574
  224MOL0     H30866   1.052   5.223   1.692  0.0189 -3.4269 -0.4507
  224MOL0     H30867   1.196   5.271   1.805  0.2200  0.6746 -0.1698
  224MOL0     H30868   1.262   5.100   1.621  3.0321 -1.4956  1.4743
  224MOL0     H30869   1.248   5.036   1.789  1.3243  3.8888  1.5095
  224MOL0     H30870   0.933   4.872   1.496 -0.4468 -3.1530  1.2481
  224MOL0     H30871   0.942   4.605   1.301 -0.1662  0.6153 -1.4090
  224MOL0     H30872   0.957   4.723   1.177  1.4725 -1.4302  0.1924
  224MOL0     H30873   0.851   4.760   1.321 -0.0845 -1.4632  0.7605
  224MOL0     H30874   1.412   4.339   1.260  1.7259  0.6400  0.5347
  224MOL0     H30875   1.544   4.200   1.109  1.4430 -0.0700  1.1776
  224MOL0     H30876   1.812   4.229   0.946  1.3353 -0.9891 -0.9833
  224MOL0     H30877   1.664   4.121   0.953 -0.4057  2.8323  0.0838
  224MOL0     H30878   1.702   4.067   0.713  0.5984  0.2420  0.0404
  224MOL0     H30879   1.836   4.177   0.694 -1.2801 -0.2535 -1.8167
  224MOL0     H30880   1.952   4.038   0.884  1.2399 -1.9138  0.3869
  224MOL0     H30881   1.952   3.987   0.713 -0.7347 -3.0244  0.1274
  224MOL0     H30882   1.782   3.820   0.767 -3.3354 -0.2199  2.2324
  224MOL0     H30883   1.761   3.881   0.929  0.1107  1.7742 -0.1667
  224MOL0     H30884   1.963   3.790   0.999 -0.8604  0.2157  0.9440
  224MOL0     H30885   1.917   3.662   0.875  0.1182 -0.4448  0.4344
  224MOL0     H30886   2.121   3.893   0.867 -0.3493  0.0833 -0.9948
  224MOL0     H30887   2.085   3.782   0.732 -1.3155  1.3832 -0.0538
  224MOL0     H30888   2.179   3.587   0.868  0.5785 -0.1410  1.4012
  224MOL0     H30889   2.201   3.686   1.017 -1.2529  0.5222 -0.3548
  224MOL0     H30890   2.416   3.665   0.922 -1.0987 -3.1508 -0.5738
  224MOL0     H30891   2.374   3.832   0.894 -0.4772  0.7054 -3.7528
  224MOL0     H30892   1.601   4.562   0.869  0.7880 -0.5332  0.0830
  224MOL0     H30893   1.489   4.693   1.045 -0.5543  0.3298 -1.1419
  224MOL0     H30894   1.409   4.752   1.402  0.4128  0.3894  1.7686
  224MOL0     H30895   1.362   4.919   1.563 -1.3401  0.6249  1.8885
  224MOL0     H30896   0.495   4.771   0.865  0.4550 -0.7486 -1.4161
  224MOL0     H30897   0.656   4.677   0.720  0.7777  2.3148  0.2254
  224MOL0     H30898   0.846   4.153   0.628  0.6263 -0.9371  1.7301
  224MOL0     H30899   1.022   4.029   0.523  0.8276 -1.0555 -0.0407
  224MOL0     H30900   1.288   3.875   0.497 -5.5909  0.4761  1.4282
  224MOL0     H30901   1.193   4.004   0.417  1.7713  2.8915 -0.9910
  224MOL0     H30902   1.404   4.122   0.367  2.3460 -0.3808  1.8985
  224MOL0     H30903   1.393   3.949   0.298 -0.4888 -1.3487  0.3960
  224MOL0     H30904   1.626   4.013   0.387  0.5710  0.6874  0.3971
  224MOL0     H30905   1.569   4.051   0.536  2.7269  3.6597 -3.0457
  224MOL0     H30906   1.476   3.824   0.584  2.5508 -1.6108  2.1361
  224MOL0     H30907   1.653   3.812   0.552  0.8614  1.6401  0.9144
  224MOL0     H30908   1.504   3.572   0.253  3.4554  0.5886 -0.4100
  224MOL0     H30909   1.318   4.266   0.742 -1.9153 -0.5825  2.6320
  224MOL0     H30910   1.095   4.501   0.879  0.5691 -1.0458  0.3852
  224MOL0     H30911   1.260   4.445   0.853 -0.9806 -1.0645  1.4961
  224MOL0     H30912   1.175   4.528   0.719  3.5136 -0.2105 -1.6825
  225MOL0     O30913   2.715   6.559   6.955 -0.5443 -0.3173  0.3562
  225MOL0     C30914   2.704   6.616   6.853 -0.1681 -0.0674  0.5869
  225MOL0     O30915   2.796   6.700   6.800 -0.0582  0.2071 -0.6552
  225MOL0     C30916   2.921   6.688   6.860  0.3511 -0.8913  0.6919
  225MOL0     C30917   3.019   6.610   6.797 -0.2847  0.1524 -0.1073
  225MOL0     C30918   3.156   6.623   6.842 -0.4896 -0.3641  0.2601
  225MOL0     C30919   3.182   6.701   6.952 -1.1156  0.2054  0.6489
  225MOL0     O30920   3.308   6.712   6.976  0.1571  0.5528  0.1293
  225MOL0     C30921   3.355   6.822   7.066  0.0863 -0.0874 -0.0211
  225MOL0     C30922   3.494   6.770   7.114  0.5391 -0.8682 -0.2219
  225MOL0     C30923   3.489   6.638   7.189  0.7275 -0.1426 -0.2853
  225MOL0     C30924   3.631   6.600   7.229 -0.3336  1.0954 -0.3272
  225MOL0     C30925   3.699   6.705   7.319  0.0856 -0.9891 -0.7783
  225MOL0     C30926   3.609   6.771   7.428  0.4020 -0.2230  0.0759
  225MOL0     C30927   3.558   6.676   7.537  0.3281 -0.8646  0.9017
  225MOL0     C30928   3.670   6.654   7.644 -0.2468  0.0090  1.3994
  225MOL0     N30929   3.627   6.563   7.754  0.6674  0.4469  0.3315
  225MOL0     C30930   3.579   6.596   7.877  0.5367  1.0224 -0.6120
  225MOL0     C30931   3.578   6.478   7.950  0.2470 -0.0840 -0.3265
  225MOL0     C30932   3.577   6.483   8.105 -0.7533 -0.5433  0.0363
  225MOL0     C30933   3.724   6.505   8.155  0.5510 -0.3289  0.5962
  225MOL0     C30934   3.788   6.368   8.122  0.4722  0.2290  0.2046
  225MOL0     C30935   3.937   6.374   8.178 -0.6212  0.5045  0.1157
  225MOL0     O30936   3.952   6.386   8.322  0.1522  0.1373  0.1663
  225MOL0     C30937   3.926   6.281   8.411 -0.7675 -0.1002  0.0381
  225MOL0     C30938   3.921   6.314   8.546  0.1506  0.9998 -0.2163
  225MOL0     C30939   3.928   6.217   8.652  0.0931  0.7143  0.5863
  225MOL0     C30940   3.943   6.276   8.795  0.1401 -0.5424 -0.1801
  225MOL0     C30941   3.919   6.082   8.620  0.3895  0.6703  0.5085
  225MOL0     C30942   3.899   5.969   8.714 -0.1352 -0.0635  1.2833
  225MOL0     O30943   3.848   5.999   8.826 -0.3108  0.4820 -0.1175
  225MOL0     C30944   3.792   5.901   8.904 -0.0011  0.9632 -0.3956
  225MOL0     C30945   3.664   5.853   8.884 -0.5569  0.0789 -0.4622
  225MOL0     C30946   3.609   5.759   8.964  0.8386 -0.1301  0.8471
  225MOL0     C30947   3.688   5.708   9.068 -0.3803  0.9049 -0.3698
  225MOL0     O30948   3.644   5.609   9.155 -0.1780 -0.3125 -0.6271
  225MOL0     C30949   3.501   5.585   9.175  0.0470 -0.1030  0.7965
  225MOL0     C30950   3.425   5.703   9.237  1.0916 -0.7992 -0.6654
  225MOL0     C30951   3.475   5.745   9.385  0.8645  0.2267 -0.9684
  225MOL0     C30952   3.571   5.857   9.389 -0.5633 -0.5701  0.0779
  225MOL0     C30953   3.629   5.879   9.541 -0.6290  0.3248  0.3107
  225MOL0     C30954   3.680   5.756   9.609  0.0994  0.4523 -0.1712
  225MOL0     C30955   3.565   5.708   9.709 -0.2773 -0.5130  0.3061
  225MOL0     C30956   3.609   5.617   9.819 -0.4303  0.3727  0.0468
  225MOL0    Cl30957   3.728   5.674   9.948  0.8099 -0.1081 -0.4453
  225MOL0     C30958   3.825   5.745   9.085  0.0650  0.3980 -0.1766
  225MOL0     C30959   3.876   5.837   8.998 -0.1264 -0.1581  0.3970
  225MOL0     O30960   3.911   5.852   8.669 -0.4998 -0.5628  0.2416
  225MOL0     C30961   3.912   6.049   8.480 -0.7572 -0.4236  0.1419
  225MOL0     C30962   3.926   6.144   8.373 -0.2819 -0.6136 -0.3586
  225MOL0     N30963   3.607   6.378   7.862  1.2455 -0.6031  0.1760
  225MOL0     N30964   3.642   6.438   7.752 -0.2644  1.0772 -0.1329
  225MOL0     C30965   3.087   6.762   7.029  0.1650  1.0972  0.5601
  225MOL0     C30966   2.958   6.753   6.982  0.3326 -0.0369  0.5409
  225MOL0     C30967   2.574   6.617   6.785  0.8225  0.9595 -1.3246
  225MOL0     C30968   2.578   6.568   6.650  1.1305  0.3126 -0.8529
  225MOL0     C30969   2.468   6.558   6.572 -0.8467 -0.3631 -0.6937
  225MOL0     C30970   2.350   6.600   6.622 -1.2437 -0.1195 -0.6206
  225MOL0     O30971   2.243   6.605   6.536  0.1431 -0.0170 -0.2130
  225MOL0     C30972   2.160   6.485   6.526 -0.8395  0.4183 -0.3972
  225MOL0     C30973   2.138   6.457   6.380  0.9059  0.1809 -0.6920
  225MOL0     C30974   2.011   6.366   6.344  0.3667  0.1594  0.1400
  225MOL0     C30975   1.990   6.247   6.440 -0.1037 -0.3830 -1.1007
  225MOL0     C30976   1.905   6.264   6.562  0.4701 -0.7432 -0.4099
  225MOL0     C30977   1.840   6.292   6.661 -0.1371  1.4416  0.5156
  225MOL0     C30978   2.343   6.654   6.755 -0.0742 -0.8312 -0.0702
  225MOL0     C30979   2.455   6.662   6.843 -0.1745 -0.5057 -0.5392
  225MOL0     C30980   2.444   6.712   6.988 -0.1826  0.4150 -0.9660
  225MOL0     H30981   3.001   6.541   6.715 -0.0269  1.0556 -0.9460
  225MOL0     H30982   3.228   6.574   6.778 -1.1768 -0.7261 -0.2467
  225MOL0     H30983   3.299   6.859   7.153 -0.5651  1.3567 -1.0173
  225MOL0     H30984   3.357   6.919   7.017 -1.6190  2.0973  3.7644
  225MOL0     H30985   3.567   6.769   7.033  0.6851  2.0935 -0.2549
  225MOL0     H30986   3.526   6.850   7.182 -3.7864  0.5628  0.4040
  225MOL0     H30987   3.417   6.645   7.271 -1.5443  0.0561 -2.1838
  225MOL0     H30988   3.451   6.558   7.125  2.6877 -1.5506  0.2026
  225MOL0     H30989   3.622   6.506   7.285 -2.4311  0.4800 -1.5826
  225MOL0     H30990   3.703   6.574   7.150  1.4556  0.3131  1.4597
  225MOL0     H30991   3.734   6.783   7.251  0.5236 -2.9401 -2.8957
  225MOL0     H30992   3.787   6.663   7.369  0.1712  0.3287  0.2398
  225MOL0     H30993   3.682   6.836   7.475  1.3932 -2.6257  2.0702
  225MOL0     H30994   3.525   6.827   7.385  1.4211  1.2918  0.0014
  225MOL0     H30995   3.538   6.576   7.499  1.5646 -0.3387 -1.3139
  225MOL0     H30996   3.462   6.713   7.575 -0.5315 -0.9001 -1.1574
  225MOL0     H30997   3.762   6.619   7.595 -0.0691  2.2664  0.0031
  225MOL0     H30998   3.695   6.746   7.697 -2.2891  0.7821  1.1150
  225MOL0     H30999   3.551   6.689   7.925  1.0231 -0.1197  2.0761
  225MOL0     H31000   3.532   6.395   8.152  0.2921 -0.3396  1.4817
  225MOL0     H31001   3.510   6.568   8.125 -0.3746  0.3416 -2.1729
  225MOL0     H31002   3.784   6.591   8.126  2.0901  0.0479  4.3161
  225MOL0     H31003   3.717   6.539   8.259 -1.8859 -0.5755  0.5688
  225MOL0     H31004   3.733   6.301   8.189  0.5569  0.4275  0.4697
  225MOL0     H31005   3.774   6.330   8.020  0.0017  0.4806  0.1714
  225MOL0     H31006   3.996   6.288   8.145  0.1909 -0.5622  3.8752
  225MOL0     H31007   3.991   6.463   8.145  0.1695  0.0612  0.1956
  225MOL0     H31008   3.921   6.422   8.557  2.9467  0.9625  0.9240
  225MOL0     H31009   4.026   6.238   8.855 -0.4638 -1.1280  0.3139
  225MOL0     H31010   3.852   6.250   8.850  0.5005 -0.4818  0.4535
  225MOL0     H31011   3.950   6.385   8.796 -2.1684 -0.2869 -1.9814
  225MOL0     H31012   3.608   5.910   8.810 -1.3330  0.9850  0.7840
  225MOL0     H31013   3.509   5.722   8.942  0.4950  1.4592 -0.4659
  225MOL0     H31014   3.458   5.538   9.085 -0.0416  1.6670 -0.1334
  225MOL0     H31015   3.491   5.506   9.250 -1.6671 -0.5007  0.1984
  225MOL0     H31016   3.434   5.792   9.175 -0.9550  0.0382  0.1347
  225MOL0     H31017   3.319   5.676   9.239  1.0658 -0.6636 -0.0530
  225MOL0     H31018   3.506   5.659   9.445 -1.3881  1.6990  2.7189
  225MOL0     H31019   3.386   5.774   9.442  0.8095 -3.3855  1.0858
  225MOL0     H31020   3.523   5.949   9.354 -1.3841 -1.4609 -1.2234
  225MOL0     H31021   3.652   5.836   9.318 -1.9998  3.4683 -3.2005
  225MOL0     H31022   3.708   5.954   9.547 -0.0655 -0.3414  1.7806
  225MOL0     H31023   3.540   5.915   9.594 -2.5149 -1.4851 -1.4128
  225MOL0     H31024   3.764   5.789   9.670 -0.9519  1.0858  0.9840
  225MOL0     H31025   3.709   5.679   9.537 -1.6782 -1.2114  0.7782
  225MOL0     H31026   3.483   5.668   9.648 -0.8495  1.8364 -0.5674
  225MOL0     H31027   3.521   5.795   9.759 -0.1373 -0.8693  1.0557
  225MOL0     H31028   3.650   5.529   9.768 -1.1976  0.5398 -0.8821
  225MOL0     H31029   3.516   5.589   9.871 -1.7075 -2.3904 -3.3191
  225MOL0     H31030   3.885   5.691   9.157  1.4946  2.0273 -0.0706
  225MOL0     H31031   3.978   5.874   8.993  0.2392 -1.1725 -0.0472
  225MOL0     H31032   3.912   5.943   8.456 -0.9085  0.1531 -2.7461
  225MOL0     H31033   3.931   6.110   8.270 -0.2423 -0.6727 -0.3362
  225MOL0     H31034   3.101   6.800   7.130  0.7426 -2.8711  2.1547
  225MOL0     H31035   2.880   6.819   7.020  0.5538  1.9342 -2.1553
  225MOL0     H31036   2.666   6.519   6.610  1.4861 -0.7092  1.1120
  225MOL0     H31037   2.489   6.524   6.471  2.1080  0.3326 -0.4285
  225MOL0     H31038   2.190   6.396   6.582  0.5181  0.5707 -0.8439
  225MOL0     H31039   2.066   6.518   6.570  0.3791 -1.1211  3.7635
  225MOL0     H31040   2.229   6.406   6.350  0.8556  0.2215 -0.9149
  225MOL0     H31041   2.120   6.549   6.323  0.8661 -0.3815 -1.6073
  225MOL0     H31042   1.923   6.430   6.350  1.4935  2.1265 -2.3292
  225MOL0     H31043   2.013   6.325   6.242  0.4848 -0.0162  0.2134
  225MOL0     H31044   2.091   6.210   6.462  0.5904  1.9295 -0.0324
  225MOL0     H31045   1.940   6.164   6.390 -0.6811 -1.1156  0.6129
  225MOL0     H31046   1.768   6.330   6.732 -3.4519  0.1685 -1.9072
  225MOL0     H31047   2.247   6.691   6.790  0.5997 -1.0181  2.1830
  225MOL0     H31048   2.540   6.718   7.040  0.9377 -2.7716 -2.3768
  225MOL0     H31049   2.399   6.812   6.984 -0.6134  0.2326 -0.6165
  225MOL0     H31050   2.393   6.630   7.039 -1.5860  2.2608  0.7441
  226MOL0     O31051   8.541   4.981   4.605 -0.1047  0.0330 -0.9351
  226MOL0     C31052   8.434   5.025   4.658 -0.8394  0.2805  0.6140
  226MOL0     O31053   8.387   4.975   4.773  0.0066 -0.4988  0.0513
  226MOL0     C31054   8.412   4.837   4.799 -0.0874 -0.3868 -0.1723
  226MOL0     C31055   8.546   4.803   4.820  1.3560  0.5635  0.2768
  226MOL0     C31056   8.568   4.663   4.840  0.4322 -0.9602 -0.4767
  226MOL0     C31057   8.471   4.564   4.848  0.3776  0.4303 -0.1860
  226MOL0     O31058   8.511   4.433   4.872  0.1298 -0.5093 -0.1112
  226MOL0     C31059   8.431   4.376   4.978  0.2097  0.6551 -0.4963
  226MOL0     C31060   8.497   4.251   5.042  0.2215  1.2726 -0.0318
  226MOL0     C31061   8.580   4.297   5.159 -0.1260  0.1185 -0.0066
  226MOL0     C31062   8.662   4.182   5.218 -0.0809 -0.0457  0.5452
  226MOL0     C31063   8.760   4.244   5.324 -0.2968 -0.1011  0.5524
  226MOL0     C31064   8.700   4.313   5.447  0.4947  0.3010  0.4368
  226MOL0     C31065   8.821   4.338   5.540  0.1753  0.6839  0.6535
  226MOL0     C31066   8.758   4.378   5.670 -0.3369 -0.9811 -0.4351
  226MOL0     N31067   8.869   4.397   5.763 -0.1083  0.0879 -0.5368
  226MOL0     C31068   8.936   4.301   5.841  0.0288 -0.0968 -0.3800
  226MOL0     C31069   9.027   4.376   5.919 -0.1776  1.2304  0.2557
  226MOL0     C31070   9.140   4.321   6.021 -0.1931  0.1624  1.1589
  226MOL0     C31071   9.080   4.235   6.126  0.0731  0.2934  1.0625
  226MOL0     C31072   9.075   4.311   6.261  0.3499  1.0883  0.7527
  226MOL0     C31073   8.976   4.434   6.274  0.1275 -0.3468 -0.1642
  226MOL0     O31074   8.843   4.378   6.268 -0.5844 -0.5210 -1.0630
  226MOL0     C31075   8.741   4.473   6.272 -0.0916 -0.4220 -0.3060
  226MOL0     C31076   8.764   4.609   6.298  1.1868 -0.5069 -0.2209
  226MOL0     C31077   8.657   4.694   6.332 -0.6952  0.5435 -0.9909
  226MOL0     C31078   8.692   4.838   6.355 -0.1551  0.3134  0.0107
  226MOL0     C31079   8.528   4.645   6.348  0.9712 -0.4608 -0.6294
  226MOL0     C31080   8.410   4.725   6.375  0.2618 -0.7160 -0.7603
  226MOL0     O31081   8.296   4.680   6.331  0.6590 -0.0448 -0.4979
  226MOL0     C31082   8.196   4.704   6.421 -0.1329 -0.0835  0.2898
  226MOL0     C31083   8.106   4.807   6.392 -1.0473  0.3546 -0.5307
  226MOL0     C31084   7.989   4.815   6.476 -0.0521  0.8714 -0.8916
  226MOL0     C31085   7.958   4.719   6.573 -0.1142 -0.5583 -0.2891
  226MOL0     O31086   7.844   4.724   6.652  0.2976  0.5969 -0.2798
  226MOL0     C31087   7.732   4.807   6.608 -0.1739  0.0163  0.3209
  226MOL0     C31088   7.614   4.711   6.640 -0.7180 -0.4789 -0.1081
  226MOL0     C31089   7.594   4.675   6.786 -0.1039 -0.6578  0.4057
  226MOL0     C31090   7.539   4.799   6.872 -0.2359  0.6408  0.0938
  226MOL0     C31091   7.569   4.785   7.022  0.4655 -0.1947  0.6640
  226MOL0     C31092   7.480   4.880   7.113  0.9208  0.1379 -1.1073
  226MOL0     C31093   7.346   4.803   7.125 -0.1267  0.0391 -0.7182
  226MOL0     C31094   7.252   4.852   7.240 -0.1562  0.7726 -0.0727
  226MOL0    Cl31095   7.168   4.995   7.187 -0.4414  0.3964  0.2843
  226MOL0     C31096   8.060   4.633   6.613  0.2013  0.1604 -0.4012
  226MOL0     C31097   8.171   4.625   6.537 -0.3050  0.5713 -0.4684
  226MOL0     O31098   8.432   4.815   6.461  0.7519  0.2181  0.2209
  226MOL0     C31099   8.506   4.508   6.315 -0.5947 -0.8309 -0.8921
  226MOL0     C31100   8.612   4.424   6.282 -0.1522 -0.1204  1.0354
  226MOL0     N31101   9.002   4.504   5.883 -0.1105 -0.3529  0.7973
  226MOL0     N31102   8.913   4.520   5.795 -0.6032 -0.3771 -0.2665
  226MOL0     C31103   8.344   4.606   4.810  1.0690 -0.6809 -0.6963
  226MOL0     C31104   8.312   4.741   4.770 -0.5508  0.2358 -0.0120
  226MOL0     C31105   8.369   5.132   4.586  0.5017  0.8486  0.0217
  226MOL0     C31106   8.450   5.230   4.519 -0.7577 -0.5978  0.3143
  226MOL0     C31107   8.387   5.333   4.451 -0.0014 -0.6311 -0.6973
  226MOL0     C31108   8.251   5.342   4.453  1.6979 -0.7605  0.0067
  226MOL0     O31109   8.190   5.435   4.377 -0.0334  0.0169  0.3427
  226MOL0     C31110   8.045   5.465   4.387 -0.4318  0.8736 -1.3239
  226MOL0     C31111   8.005   5.597   4.338 -0.2234 -0.0206 -0.3342
  226MOL0     C31112   8.008   5.610   4.189 -0.0190  0.4917  0.6918
  226MOL0     C31113   7.957   5.748   4.135 -0.0685 -0.6970  0.2305
  226MOL0     C31114   8.040   5.857   4.182 -0.9392  0.0519 -0.8135
  226MOL0     C31115   8.135   5.925   4.225 -0.8358  0.3646  0.5061
  226MOL0     C31116   8.172   5.251   4.524 -0.9831  0.5389  0.3230
  226MOL0     C31117   8.226   5.144   4.591 -0.7356  1.1088 -0.0927
  226MOL0     C31118   8.131   5.048   4.655 -0.6859  0.4871  0.4068
  226MOL0     H31119   8.631   4.870   4.809  0.8986  1.3618  1.3903
  226MOL0     H31120   8.672   4.632   4.833  0.2091 -1.5374 -1.3732
  226MOL0     H31121   8.345   4.340   4.921 -0.5578  0.9632  0.4533
  226MOL0     H31122   8.403   4.455   5.047  0.4076  4.4072 -4.2742
  226MOL0     H31123   8.419   4.183   5.078  0.1135  0.4726 -1.6588
  226MOL0     H31124   8.546   4.195   4.961 -0.5924  0.8500 -0.2417
  226MOL0     H31125   8.645   4.374   5.115  1.3688 -1.6609 -1.0212
  226MOL0     H31126   8.524   4.350   5.237 -0.7066  1.2041 -1.1174
  226MOL0     H31127   8.586   4.115   5.259 -1.1831  0.2680 -0.9088
  226MOL0     H31128   8.712   4.137   5.132 -0.8061  1.9220 -0.9928
  226MOL0     H31129   8.818   4.317   5.267 -2.6645 -0.1593 -2.2168
  226MOL0     H31130   8.828   4.167   5.361 -0.7342 -0.7138  0.1219
  226MOL0     H31131   8.645   4.403   5.419  0.0804  0.1980  0.9115
  226MOL0     H31132   8.633   4.247   5.502 -0.6731  1.7231  0.7703
  226MOL0     H31133   8.890   4.412   5.497  1.6785 -2.9069 -4.0506
  226MOL0     H31134   8.888   4.252   5.546 -1.4843 -0.5512  3.0602
  226MOL0     H31135   8.714   4.476   5.647  2.6793  0.1831 -1.7531
  226MOL0     H31136   8.679   4.313   5.708  0.7281 -0.4698  3.0254
  226MOL0     H31137   8.925   4.193   5.840 -0.2846 -0.1142  1.7411
  226MOL0     H31138   9.205   4.404   6.047  0.5793  1.3106 -3.5660
  226MOL0     H31139   9.210   4.261   5.962 -2.5828 -0.3278 -1.4117
  226MOL0     H31140   8.986   4.192   6.088  1.1223 -0.0757 -1.2587
  226MOL0     H31141   9.145   4.147   6.125 -1.4216 -0.9318 -2.0613
  226MOL0     H31142   9.054   4.230   6.331  3.2738  0.8942  1.5599
  226MOL0     H31143   9.171   4.356   6.289  0.8259  0.7505 -0.2711
  226MOL0     H31144   8.993   4.477   6.373  0.2301 -0.5695 -0.0849
  226MOL0     H31145   8.990   4.504   6.191 -1.5165  1.0126  0.6319
  226MOL0     H31146   8.858   4.659   6.275 -0.4746  2.6954 -0.5935
  226MOL0     H31147   8.640   4.899   6.280  3.1376  1.7292 -1.3231
  226MOL0     H31148   8.798   4.863   6.341  0.3105 -0.7185  1.4216
  226MOL0     H31149   8.684   4.873   6.458  4.8605  0.1996  0.6917
  226MOL0     H31150   8.133   4.876   6.313  0.1202 -0.0330 -0.4779
  226MOL0     H31151   7.917   4.896   6.464 -1.1697  0.1621  0.6997
  226MOL0     H31152   7.730   4.906   6.655  2.5762 -0.7499  2.2597
  226MOL0     H31153   7.725   4.820   6.500  1.2342  1.0823  0.3364
  226MOL0     H31154   7.529   4.761   6.591 -0.9607  0.5067  1.2545
  226MOL0     H31155   7.644   4.630   6.573 -2.2403 -0.1430 -1.2601
  226MOL0     H31156   7.688   4.651   6.836 -0.6497  1.8042  2.9125
  226MOL0     H31157   7.532   4.586   6.798 -0.7164  0.0823  3.9534
  226MOL0     H31158   7.431   4.811   6.860 -0.0774  1.7177 -0.4009
  226MOL0     H31159   7.585   4.890   6.835 -1.1564  1.1616  0.1932
  226MOL0     H31160   7.565   4.677   7.038 -0.5253 -0.5082 -1.4082
  226MOL0     H31161   7.674   4.808   7.044  1.4895 -3.2608 -0.4960
  226MOL0     H31162   7.454   4.973   7.063 -1.0362 -0.5709 -1.4606
  226MOL0     H31163   7.539   4.904   7.202  2.4878  0.4690 -2.1947
  226MOL0     H31164   7.367   4.704   7.168 -3.3174  0.9265  3.6039
  226MOL0     H31165   7.290   4.793   7.032  2.0928  0.9855 -2.2503
  226MOL0     H31166   7.326   4.864   7.320  1.5542 -1.2259 -1.2571
  226MOL0     H31167   7.183   4.779   7.283  0.5211  1.5880  2.6035
  226MOL0     H31168   8.052   4.586   6.711  3.1123  4.6766  2.3886
  226MOL0     H31169   8.251   4.557   6.567  0.6821  2.4053  1.3573
  226MOL0     H31170   8.408   4.462   6.310 -0.4109 -1.2544 -0.6158
  226MOL0     H31171   8.585   4.321   6.264 -3.6519  0.9780 -0.9952
  226MOL0     H31172   8.266   4.532   4.811 -1.2686  1.6108  1.0906
  226MOL0     H31173   8.206   4.759   4.757 -0.2639  1.8973 -0.2615
  226MOL0     H31174   8.558   5.226   4.516 -0.5899  1.3577  1.5479
  226MOL0     H31175   8.447   5.397   4.386  1.6254 -1.0394  0.3387
  226MOL0     H31176   8.002   5.398   4.312  0.8124  1.0069 -2.1823
  226MOL0     H31177   8.020   5.450   4.493  1.8676 -2.1371 -1.0676
  226MOL0     H31178   8.072   5.669   4.385 -0.4880 -0.9861  1.6325
  226MOL0     H31179   7.907   5.632   4.370 -1.0994 -1.8934 -0.8570
  226MOL0     H31180   8.111   5.609   4.152 -0.1729 -1.7235  0.2063
  226MOL0     H31181   7.957   5.525   4.144  0.1537  0.4833  0.5118
  226MOL0     H31182   7.853   5.771   4.163 -0.0589 -3.1260  2.6648
  226MOL0     H31183   7.960   5.748   4.026 -0.9277  0.4732  0.1808
  226MOL0     H31184   8.221   5.976   4.264  1.0508 -1.3360 -1.2166
  226MOL0     H31185   8.064   5.250   4.530 -1.0401 -1.3048 -0.4636
  226MOL0     H31186   8.142   5.038   4.763 -0.7268  0.3768  0.4010
  226MOL0     H31187   8.028   5.076   4.635 -0.5404  1.4988  1.0194
  226MOL0     H31188   8.162   4.952   4.612 -0.0381 -0.2059  2.2939
  227MOL0     O31189   5.560   2.092   0.442  0.6463 -0.1498  0.0411
  227MOL0     C31190   5.508   2.001   0.506 -0.3985 -0.3346  1.0511
  227MOL0     O31191   5.569   1.899   0.557 -0.1776  0.6390 -0.7164
  227MOL0     C31192   5.698   1.910   0.606  0.6560 -0.8240  0.6793
  227MOL0     C31193   5.769   2.033   0.633 -0.2025  0.3421 -0.5880
  227MOL0     C31194   5.901   2.037   0.664 -0.5443  0.2487 -0.8951
  227MOL0     C31195   5.980   1.914   0.677  0.9638 -0.0850 -0.3059
  227MOL0     O31196   6.108   1.932   0.720  0.0099  0.2761  1.4814
  227MOL0     C31197   6.182   1.805   0.716  0.2186  0.4092 -0.7744
  227MOL0     C31198   6.334   1.830   0.754  0.1289  0.7043 -0.4431
  227MOL0     C31199   6.351   1.862   0.911 -0.6045  0.4352 -0.2696
  227MOL0     C31200   6.364   2.014   0.936 -0.7713 -0.6001  0.4052
  227MOL0     C31201   6.397   2.065   1.073  0.3543 -0.5283  0.6512
  227MOL0     C31202   6.263   2.086   1.146  0.4651 -0.5105  0.1472
  227MOL0     C31203   6.274   2.143   1.293 -1.0924  0.0233  0.4222
  227MOL0     C31204   6.209   2.284   1.296  0.0697 -0.6350  0.0670
  227MOL0     N31205   6.062   2.292   1.262 -0.4868 -1.2156 -0.4599
  227MOL0     C31206   6.008   2.333   1.135  0.0268 -0.9419 -0.1736
  227MOL0     C31207   5.878   2.299   1.140  0.6822  0.0372 -1.2881
  227MOL0     C31208   5.777   2.302   1.035  0.2556  0.4344 -0.1108
  227MOL0     C31209   5.632   2.286   1.078 -0.1358  0.8798 -0.0596
  227MOL0     C31210   5.546   2.339   0.961 -0.2424 -0.9337 -1.0057
  227MOL0     C31211   5.402   2.317   0.997  0.3083 -0.4638 -0.1840
  227MOL0     O31212   5.370   2.180   1.010 -0.5098 -0.1197 -0.0138
  227MOL0     C31213   5.251   2.144   1.069  0.4002  0.9361 -0.1870
  227MOL0     C31214   5.231   2.008   1.100 -0.3948 -0.4623  1.0369
  227MOL0     C31215   5.113   1.965   1.166 -0.2369 -0.5825 -0.0190
  227MOL0     C31216   5.107   1.817   1.197 -0.2632  0.0914  0.3142
  227MOL0     C31217   5.017   2.051   1.213 -0.0512 -1.3864 -0.0895
  227MOL0     C31218   4.897   2.013   1.278  0.2997 -0.0416 -0.5190
  227MOL0     O31219   4.921   1.934   1.388 -0.4302 -0.1218  0.3508
  227MOL0     C31220   4.819   1.864   1.433 -0.0706 -0.1440  1.2224
  227MOL0     C31221   4.725   1.940   1.515  0.1563  0.3577  0.5827
  227MOL0     C31222   4.610   1.883   1.572  0.5964  0.2354  0.0272
  227MOL0     C31223   4.586   1.745   1.545 -1.3580  0.6663  0.5396
  227MOL0     O31224   4.476   1.686   1.591  0.2996 -0.5218 -0.0673
  227MOL0     C31225   4.460   1.543   1.612  0.5579  0.5125 -0.8987
  227MOL0     C31226   4.312   1.505   1.642 -0.6551 -0.2021 -1.4697
  227MOL0     C31227   4.302   1.367   1.701 -0.5035  0.5492 -0.4946
  227MOL0     C31228   4.154   1.327   1.706 -0.0976 -0.1398 -0.8656
  227MOL0     C31229   4.123   1.189   1.759  0.1740 -1.3457 -0.2087
  227MOL0     C31230   4.171   1.177   1.901  0.7857 -0.0285  0.3894
  227MOL0     C31231   4.152   1.025   1.924  1.1192  0.1916 -0.8832
  227MOL0     C31232   4.212   0.982   2.057 -1.7840 -0.2363  0.5741
  227MOL0    Cl31233   4.116   0.845   2.092  0.1977  0.0421 -0.1506
  227MOL0     C31234   4.684   1.677   1.461 -0.1993 -0.1708 -0.2108
  227MOL0     C31235   4.794   1.732   1.405 -0.9158 -0.2144  0.1226
  227MOL0     O31236   4.787   2.057   1.248 -0.7899  0.2109  0.1534
  227MOL0     C31237   5.033   2.189   1.184  1.0871 -1.6594 -0.3475
  227MOL0     C31238   5.153   2.236   1.109  1.1045 -0.3288  0.7296
  227MOL0     N31239   5.848   2.263   1.275 -0.0227 -0.0588 -0.1138
  227MOL0     N31240   5.957   2.263   1.340 -0.3589 -0.7393  0.0626
  227MOL0     C31241   5.903   1.794   0.654 -0.8152 -0.7382 -0.0364
  227MOL0     C31242   5.769   1.790   0.619  0.0823  0.0626  0.3791
  227MOL0     C31243   5.359   2.002   0.548 -0.2337 -0.2032 -1.0032
  227MOL0     C31244   5.333   2.002   0.689 -0.4726 -0.1798  0.3649
  227MOL0     C31245   5.201   2.003   0.743  0.1117 -0.3725  0.0382
  227MOL0     C31246   5.095   2.034   0.654 -0.0639 -0.7986  0.1535
  227MOL0     O31247   4.960   2.058   0.694 -0.0770  0.4027  0.5015
  227MOL0     C31248   4.941   2.085   0.837  0.3528 -0.4613 -0.2036
  227MOL0     C31249   4.794   2.076   0.870  0.8904  0.4370 -0.3912
  227MOL0     C31250   4.716   2.196   0.833  0.2127 -0.0146 -0.0192
  227MOL0     C31251   4.559   2.184   0.835 -0.0846  0.2125 -0.0817
  227MOL0     C31252   4.513   2.134   0.702  0.0321  0.1376  0.3841
  227MOL0     C31253   4.453   2.095   0.601 -1.3268  0.1743 -0.4645
  227MOL0     C31254   5.119   2.035   0.517 -0.0973 -0.2662  1.2204
  227MOL0     C31255   5.250   2.012   0.459 -0.0456  0.5981 -0.0058
  227MOL0     C31256   5.270   1.998   0.310  0.1603  0.4088  0.6739
  227MOL0     H31257   5.727   2.133   0.631 -1.6031 -0.2096 -0.2610
  227MOL0     H31258   5.958   2.128   0.680 -0.6761  0.0737  0.7435
  227MOL0     H31259   6.179   1.764   0.615 -2.8567 -3.1943  0.5567
  227MOL0     H31260   6.136   1.732   0.783 -3.3956  0.0632 -3.3895
  227MOL0     H31261   6.404   1.747   0.741 -0.3795  0.2988 -0.6123
  227MOL0     H31262   6.368   1.917   0.699 -2.6577  1.0939 -1.7358
  227MOL0     H31263   6.268   1.819   0.967 -1.2751 -1.2194 -2.4269
  227MOL0     H31264   6.447   1.831   0.953 -0.5254  3.3086  2.0677
  227MOL0     H31265   6.448   2.048   0.875 -1.0572  1.2670  0.9991
  227MOL0     H31266   6.274   2.065   0.900  0.3703 -0.0301 -1.7940
  227MOL0     H31267   6.441   2.165   1.069 -2.6646  0.8734 -0.2022
  227MOL0     H31268   6.470   1.993   1.111 -2.2915 -4.9312 -1.8470
  227MOL0     H31269   6.221   2.168   1.087  0.3847  0.9028  2.0671
  227MOL0     H31270   6.190   2.005   1.137 -3.8023  3.0917 -1.5908
  227MOL0     H31271   6.371   2.156   1.342 -3.0082  2.0708  4.1332
  227MOL0     H31272   6.209   2.083   1.358 -3.5176 -0.9997 -2.6694
  227MOL0     H31273   6.222   2.329   1.394 -0.7665 -0.7098  0.2145
  227MOL0     H31274   6.264   2.346   1.223 -0.3919  0.3780  0.5654
  227MOL0     H31275   6.058   2.380   1.051 -1.5932 -0.1518 -0.7467
  227MOL0     H31276   5.802   2.246   0.945  3.4771  0.1967  0.8286
  227MOL0     H31277   5.782   2.401   0.989 -0.8418 -0.0721 -1.3582
  227MOL0     H31278   5.608   2.180   1.087 -0.9747  1.1294  0.8548
  227MOL0     H31279   5.616   2.333   1.176 -0.6227  0.9556 -0.1736
  227MOL0     H31280   5.557   2.447   0.955 -3.1867 -0.5665 -5.4242
  227MOL0     H31281   5.577   2.304   0.862 -0.5353  0.0654 -1.4635
  227MOL0     H31282   5.394   2.368   1.093 -3.2818  0.9513 -1.0901
  227MOL0     H31283   5.340   2.366   0.922  0.2580 -1.1947 -0.6334
  227MOL0     H31284   5.314   1.940   1.084  1.2899  0.6888  4.0807
  227MOL0     H31285   5.149   1.807   1.297 -2.8585 -0.7370  1.4092
  227MOL0     H31286   5.163   1.761   1.121  1.5217  0.1168  1.5647
  227MOL0     H31287   5.002   1.787   1.196 -0.3150  0.2683  0.6820
  227MOL0     H31288   4.756   2.043   1.531  2.3971 -0.3289  0.9379
  227MOL0     H31289   4.537   1.930   1.637  1.0461 -0.6826  1.2209
  227MOL0     H31290   4.487   1.486   1.522  2.2912  0.5310 -0.4256
  227MOL0     H31291   4.533   1.513   1.687  0.0877  3.1053  0.7214
  227MOL0     H31292   4.288   1.580   1.717  1.1662  1.1505 -2.1545
  227MOL0     H31293   4.251   1.510   1.551  2.7636  1.0552 -3.9310
  227MOL0     H31294   4.361   1.347   1.790  0.6867  1.0139 -1.1566
  227MOL0     H31295   4.347   1.296   1.632 -0.7489  0.2128 -0.3103
  227MOL0     H31296   4.113   1.319   1.605 -0.3374 -4.4586 -0.5964
  227MOL0     H31297   4.088   1.392   1.763  0.4349 -0.4357  0.1173
  227MOL0     H31298   4.016   1.168   1.762  0.5871 -3.5636  1.8960
  227MOL0     H31299   4.161   1.122   1.681  2.3077 -0.4009 -0.0597
  227MOL0     H31300   4.112   1.222   1.981  3.1775  0.1994  2.1458
  227MOL0     H31301   4.273   1.216   1.916  0.6486  0.4552  0.0635
  227MOL0     H31302   4.200   0.962   1.848  0.5613 -0.8398 -0.3918
  227MOL0     H31303   4.043   1.014   1.916  0.9948  1.1792 -0.6681
  227MOL0     H31304   4.199   1.056   2.136 -0.2652 -0.9266  1.5262
  227MOL0     H31305   4.318   0.958   2.043 -1.7328  0.5849 -0.5601
  227MOL0     H31306   4.666   1.578   1.421  0.0614 -1.4360  2.5379
  227MOL0     H31307   4.849   1.679   1.327 -1.1235  1.4786 -1.2385
  227MOL0     H31308   4.949   2.253   1.206  0.1569 -1.9933 -2.6605
  227MOL0     H31309   5.142   2.338   1.074 -2.0832 -0.2076  1.7790
  227MOL0     H31310   5.958   1.701   0.661  0.3180 -0.0029  1.5918
  227MOL0     H31311   5.721   1.694   0.604  1.4711 -1.1076  2.7320
  227MOL0     H31312   5.426   1.999   0.745 -0.6617 -0.1658  0.6833
  227MOL0     H31313   5.203   1.984   0.850  0.9743 -2.2411 -0.2634
  227MOL0     H31314   4.998   2.018   0.901  0.5266  1.9026  2.3010
  227MOL0     H31315   4.972   2.189   0.851 -1.0668 -0.2661  1.8652
  227MOL0     H31316   4.775   2.047   0.974 -0.9226 -1.2553 -1.1244
  227MOL0     H31317   4.751   1.997   0.808  2.3837  1.7872 -3.3546
  227MOL0     H31318   4.740   2.273   0.907 -1.0890 -1.8644  2.4743
  227MOL0     H31319   4.745   2.229   0.732  1.0885 -1.5025 -0.2900
  227MOL0     H31320   4.515   2.284   0.840 -0.7873 -0.1426  1.2649
  227MOL0     H31321   4.538   2.130   0.927  2.3797  0.3425  0.6408
  227MOL0     H31322   4.407   2.055   0.512 -1.0140 -1.0086 -0.1108
  227MOL0     H31323   5.038   2.046   0.445  0.0030 -0.0481  1.1404
  227MOL0     H31324   5.358   1.941   0.277  0.3376  1.0713 -0.0221
  227MOL0     H31325   5.182   1.954   0.262  0.5060 -0.6232  0.9620
  227MOL0     H31326   5.288   2.098   0.270  1.8929  1.5400  3.9495
  228MOL0     O31327   7.229  10.567   3.455 -0.2394  0.1062 -0.5928
  228MOL0     C31328   7.123  10.623   3.455  0.9295 -0.5190  0.3118
  228MOL0     O31329   7.006  10.554   3.465 -0.5694  0.1687  1.2815
  228MOL0     C31330   7.003  10.416   3.431  0.1979  0.0228 -1.9578
  228MOL0     C31331   6.893  10.336   3.485 -1.0170 -0.0005 -0.2057
  228MOL0     C31332   6.861  10.225   3.420  0.6583  0.9665 -0.0942
  228MOL0     C31333   6.945  10.175   3.315 -0.7002 -0.6693  0.0426
  228MOL0     O31334   6.943  10.050   3.265 -0.0084  0.6722 -0.4371
  228MOL0     C31335   6.840   9.963   3.329  0.5944 -0.2546  1.5626
  228MOL0     C31336   6.838   9.832   3.244  0.1180 -0.0957  0.3436
  228MOL0     C31337   6.822   9.849   3.096  0.1641 -0.4305 -0.1277
  228MOL0     C31338   6.790   9.724   3.016  0.2400  0.6011  0.1629
  228MOL0     C31339   6.806   9.733   2.866  0.9446 -0.1262  0.5015
  228MOL0     C31340   6.787   9.609   2.775  0.4634 -0.7437 -0.1878
  228MOL0     C31341   6.776   9.641   2.615 -0.9625 -0.0189  0.5426
  228MOL0     C31342   6.755   9.507   2.547  0.5965  0.1324 -0.9553
  228MOL0     N31343   6.655   9.520   2.443 -0.2252 -0.2181  0.4406
  228MOL0     C31344   6.664   9.572   2.314 -0.6740 -0.9233  0.1579
  228MOL0     C31345   6.536   9.577   2.268 -0.5363 -0.9304 -0.7215
  228MOL0     C31346   6.503   9.600   2.122 -0.1004 -0.5506  0.1100
  228MOL0     C31347   6.524   9.465   2.060  0.0409 -0.4140 -0.4690
  228MOL0     C31348   6.664   9.417   2.019 -0.3109 -0.6118  0.2731
  228MOL0     C31349   6.715   9.513   1.902 -0.7354  0.2450 -0.7047
  228MOL0     O31350   6.812   9.596   1.972 -0.1666  0.1111  0.6315
  228MOL0     C31351   6.869   9.702   1.909 -0.1016 -1.0310 -0.1665
  228MOL0     C31352   6.918   9.812   1.983 -0.0118  0.5839 -0.2059
  228MOL0     C31353   6.992   9.907   1.929 -0.3452  0.3928  0.3183
  228MOL0     C31354   7.045  10.014   2.024  0.1378  0.7395  0.2001
  228MOL0     C31355   7.021   9.911   1.792  0.5754 -0.6431 -0.8940
  228MOL0     C31356   7.100  10.013   1.718  0.8972 -0.4844  0.2302
  228MOL0     O31357   7.203  10.077   1.777  0.3652 -0.0438 -0.0166
  228MOL0     C31358   7.236  10.212   1.740 -0.8223 -0.3529  0.0334
  228MOL0     C31359   7.370  10.256   1.745 -0.5336 -0.7860  0.0237
  228MOL0     C31360   7.413  10.383   1.691  0.6129  0.2279 -0.7970
  228MOL0     C31361   7.319  10.467   1.626 -0.5636 -0.4775 -0.0201
  228MOL0     O31362   7.344  10.569   1.533  0.5829 -0.1352 -0.0802
  228MOL0     C31363   7.388  10.517   1.406  0.0300  0.5696  0.4484
  228MOL0     C31364   7.413  10.655   1.326 -0.3191  1.6802 -0.6896
  228MOL0     C31365   7.446  10.617   1.176  0.1902  1.1487 -0.1923
  228MOL0     C31366   7.471  10.737   1.093 -0.0525 -0.8670 -0.3125
  228MOL0     C31367   7.573  10.700   0.979  0.0345  0.4220  0.2434
  228MOL0     C31368   7.528  10.572   0.901  0.2641 -0.5623  0.7490
  228MOL0     C31369   7.634  10.541   0.799  0.7574  0.5368 -0.2698
  228MOL0     C31370   7.667  10.399   0.820 -0.0332 -0.7923  0.1363
  228MOL0    Cl31371   7.758  10.389   0.972 -0.5391 -0.1276  0.1799
  228MOL0     C31372   7.189  10.415   1.633 -0.7180 -0.3833  0.9502
  228MOL0     C31373   7.146  10.297   1.687  0.3091 -0.3124  0.6345
  228MOL0     O31374   7.075  10.021   1.593  0.3083 -0.4282  0.3173
  228MOL0     C31375   6.971   9.801   1.711 -0.3450 -0.3940  0.4141
  228MOL0     C31376   6.889   9.704   1.770 -0.7600  0.3737 -0.6254
  228MOL0     N31377   6.453   9.520   2.366  0.5839 -0.2737 -1.2001
  228MOL0     N31378   6.521   9.480   2.463 -0.3601 -0.8470  0.1564
  228MOL0     C31379   7.054  10.249   3.266  0.6823  0.1929 -0.0298
  228MOL0     C31380   7.082  10.366   3.330  0.6934  0.7865 -1.1744
  228MOL0     C31381   7.134  10.769   3.446  0.2536  0.6105 -0.4789
  228MOL0     C31382   7.251  10.840   3.488  0.4858  1.4428  0.0671
  228MOL0     C31383   7.243  10.973   3.530 -0.0628 -1.1468 -0.1859
  228MOL0     C31384   7.137  11.049   3.483 -0.5333  1.0273  0.2258
  228MOL0     O31385   7.136  11.191   3.491 -0.1514  0.5998  0.2210
  228MOL0     C31386   7.054  11.236   3.597 -0.9997  0.0530  0.6238
  228MOL0     C31387   7.119  11.202   3.736  0.8175  0.3433 -0.0433
  228MOL0     C31388   7.068  11.287   3.850  0.6102  0.2569 -0.4509
  228MOL0     C31389   6.913  11.290   3.841  0.1035 -0.0090  1.0211
  228MOL0     C31390   6.844  11.161   3.835 -0.3624  0.7010 -0.2104
  228MOL0     C31391   6.793  11.053   3.809 -0.0172  0.1822 -0.0940
  228MOL0     C31392   7.026  10.987   3.415  0.7510  0.4008 -0.5149
  228MOL0     C31393   7.021  10.846   3.409 -0.0191 -0.2005  1.1417
  228MOL0     C31394   6.893  10.794   3.346 -1.2198 -0.3455  0.1863
  228MOL0     H31395   6.828  10.377   3.562 -1.4334 -0.5705 -0.2510
  228MOL0     H31396   6.768  10.175   3.446  1.3974  0.5391  1.9211
  228MOL0     H31397   6.739  10.006   3.326  0.4685 -0.5593 -1.1326
  228MOL0     H31398   6.859   9.946   3.435 -0.1985 -1.0338  1.5918
  228MOL0     H31399   6.928   9.774   3.268  0.4921  1.1839  2.2334
  228MOL0     H31400   6.761   9.765   3.285 -0.9705  1.0311  0.2146
  228MOL0     H31401   6.739   9.914   3.066  0.9262  1.3037  1.2896
  228MOL0     H31402   6.913   9.892   3.054 -0.6416  2.5094  0.8344
  228MOL0     H31403   6.864   9.651   3.051  0.9424  1.8145  1.2907
  228MOL0     H31404   6.691   9.689   3.044 -0.4576  1.9365 -0.5514
  228MOL0     H31405   6.904   9.775   2.844  0.8016 -0.3073 -0.4973
  228MOL0     H31406   6.737   9.811   2.833 -0.0053 -0.7326  0.9978
  228MOL0     H31407   6.867   9.535   2.788  0.6674 -0.6599 -0.9505
  228MOL0     H31408   6.686   9.570   2.789 -0.0874  0.4302 -0.8005
  228MOL0     H31409   6.870   9.687   2.583  0.3550 -3.0957 -0.3615
  228MOL0     H31410   6.693   9.705   2.587  0.4785  1.4299 -0.6056
  228MOL0     H31411   6.850   9.483   2.501 -0.7280 -1.7196 -2.8928
  228MOL0     H31412   6.722   9.428   2.616 -0.3760  1.6400  0.3901
  228MOL0     H31413   6.752   9.588   2.252  0.3980 -1.4815  1.5022
  228MOL0     H31414   6.571   9.679   2.086 -1.1000  0.7345  0.9781
  228MOL0     H31415   6.405   9.644   2.106  0.2492  0.2160  0.0409
  228MOL0     H31416   6.475   9.393   2.126 -1.0702 -1.1333 -2.0414
  228MOL0     H31417   6.464   9.473   1.969 -0.7496 -3.5949 -0.3464
  228MOL0     H31418   6.728   9.429   2.107  0.0409 -0.0438 -0.0566
  228MOL0     H31419   6.652   9.309   2.001 -5.0944  0.0788 -2.6683
  228MOL0     H31420   6.781   9.452   1.840  1.3013  1.6166  0.0056
  228MOL0     H31421   6.643   9.559   1.834 -0.7968 -0.3634 -1.0577
  228MOL0     H31422   6.890   9.819   2.088 -1.7255 -1.2056 -0.4729
  228MOL0     H31423   7.149   9.990   2.047  0.4670 -1.3714 -2.9382
  228MOL0     H31424   6.985  10.006   2.115  0.6294 -0.0326  0.4659
  228MOL0     H31425   7.046  10.121   2.001 -2.2191  1.0497  1.2340
  228MOL0     H31426   7.445  10.202   1.803  2.3134  1.7523 -1.0638
  228MOL0     H31427   7.518  10.404   1.709 -0.2150  2.2498  2.5886
  228MOL0     H31428   7.484  10.469   1.429  0.7802  1.8512  0.1208
  228MOL0     H31429   7.325  10.448   1.351  0.1715  0.9685 -0.2324
  228MOL0     H31430   7.329  10.725   1.319 -0.0259  2.1278  0.1253
  228MOL0     H31431   7.496  10.710   1.372  0.6539 -0.8086  0.7200
  228MOL0     H31432   7.359  10.569   1.130  2.4844 -2.2260 -1.3185
  228MOL0     H31433   7.529  10.547   1.166 -1.6782 -1.0212 -1.6041
  228MOL0     H31434   7.526  10.808   1.156 -2.2462 -0.0034  0.7126
  228MOL0     H31435   7.378  10.781   1.057  2.2097  3.4993 -1.5504
  228MOL0     H31436   7.605  10.785   0.918 -0.8494 -0.0952 -0.9787
  228MOL0     H31437   7.664  10.673   1.032 -0.2562 -1.9318 -0.3528
  228MOL0     H31438   7.431  10.588   0.854  0.2557  1.9066  1.4854
  228MOL0     H31439   7.512  10.488   0.969  0.1656 -0.3172  1.0276
  228MOL0     H31440   7.727  10.599   0.803  2.5005 -1.9597 -1.2077
  228MOL0     H31441   7.593  10.557   0.699 -1.4346 -2.1900  0.0772
  228MOL0     H31442   7.732  10.367   0.738  0.2759  1.2254 -0.4527
  228MOL0     H31443   7.585  10.328   0.832  0.0561 -1.0413 -0.6694
  228MOL0     H31444   7.117  10.487   1.595  1.5986  0.3107 -2.6044
  228MOL0     H31445   7.041  10.270   1.680  0.3258 -0.1098 -0.6979
  228MOL0     H31446   6.991   9.790   1.605  4.9722 -0.0184  1.1265
  228MOL0     H31447   6.846   9.628   1.706 -2.4644  2.8793 -2.6763
  228MOL0     H31448   7.112  10.210   3.183 -0.1865  0.4248 -0.7670
  228MOL0     H31449   7.157  10.429   3.284 -0.0188  2.5668 -0.0091
  228MOL0     H31450   7.335  10.777   3.515 -1.4483 -1.3672  0.0196
  228MOL0     H31451   7.309  11.014   3.606 -1.0056  1.1595 -0.5120
  228MOL0     H31452   7.039  11.344   3.591  0.2505  0.1845 -1.0972
  228MOL0     H31453   6.961  11.182   3.581 -0.6390 -0.0227 -1.3889
  228MOL0     H31454   7.226  11.217   3.720  0.9364 -1.7285 -1.6116
  228MOL0     H31455   7.107  11.094   3.753 -1.9044  0.4041 -1.0323
  228MOL0     H31456   7.101  11.260   3.951 -1.9668  0.8886  0.6758
  228MOL0     H31457   7.112  11.386   3.837  1.7109 -0.4991 -2.8494
  228MOL0     H31458   6.884  11.346   3.752  3.5337 -1.7650 -1.4510
  228MOL0     H31459   6.880  11.352   3.925 -2.8036 -1.4824  1.0782
  228MOL0     H31460   6.749  10.959   3.782 -0.4770  0.5257 -0.5799
  228MOL0     H31461   6.939  11.034   3.369 -0.6244 -1.6399 -0.1519
  228MOL0     H31462   6.923  10.759   3.246 -1.8529  0.5602 -0.3363
  228MOL0     H31463   6.833  10.725   3.405  0.4085 -0.4134  1.8459
  228MOL0     H31464   6.819  10.874   3.336  0.1564  1.2350  1.9744
  229MOL0     O31465   6.909   3.060   6.450 -0.1223 -1.1392 -0.1728
  229MOL0     C31466   6.903   3.041   6.571 -0.7560  1.0576  1.2646
  229MOL0     O31467   6.804   2.967   6.632 -0.5818 -0.0401 -0.3071
  229MOL0     C31468   6.729   2.887   6.549  0.0207  0.6266  0.6241
  229MOL0     C31469   6.610   2.947   6.505  0.1134  0.5826  0.8396
  229MOL0     C31470   6.515   2.867   6.444  0.6722 -0.8121  0.9647
  229MOL0     C31471   6.545   2.732   6.416  0.3004 -0.3247  0.2697
  229MOL0     O31472   6.445   2.649   6.366  0.0300 -0.1318  0.3992
  229MOL0     C31473   6.383   2.565   6.461  0.6219  0.8415  0.1872
  229MOL0     C31474   6.235   2.522   6.406 -0.2674  0.6997  0.2668
  229MOL0     C31475   6.120   2.515   6.502 -0.2992 -0.4814 -0.1988
  229MOL0     C31476   6.136   2.387   6.589 -0.7061 -0.2552  0.2682
  229MOL0     C31477   6.029   2.380   6.699 -1.0495  0.0377  0.1039
  229MOL0     C31478   6.016   2.236   6.762  0.1694 -0.3218  0.1158
  229MOL0     C31479   5.910   2.225   6.871  0.2276  0.6314 -0.4372
  229MOL0     C31480   5.914   2.329   6.988  0.3489  0.4801 -0.4096
  229MOL0     N31481   6.032   2.318   7.073 -0.6748  0.0362 -0.0030
  229MOL0     C31482   6.062   2.374   7.191 -0.4040 -0.3369 -0.9019
  229MOL0     C31483   6.192   2.348   7.222  0.1769  0.0408 -0.8313
  229MOL0     C31484   6.260   2.385   7.354  0.5596 -0.2645 -0.6170
  229MOL0     C31485   6.375   2.493   7.338  0.5213 -0.2421 -0.2055
  229MOL0     C31486   6.316   2.634   7.302 -0.5844  1.3465  0.3473
  229MOL0     C31487   6.433   2.734   7.297 -0.6003  0.3268  0.5273
  229MOL0     O31488   6.473   2.807   7.409  0.4765  0.2373 -0.0892
  229MOL0     C31489   6.563   2.766   7.498 -0.9146  0.6357 -0.9666
  229MOL0     C31490   6.576   2.828   7.622  0.4532 -0.2830  0.7018
  229MOL0     C31491   6.647   2.776   7.721 -0.1234  0.3983  0.5733
  229MOL0     C31492   6.661   2.857   7.847  0.1348 -0.5037  0.1369
  229MOL0     C31493   6.729   2.654   7.699 -1.0296  0.6554  0.0435
  229MOL0     C31494   6.810   2.580   7.788  0.3937 -0.0387 -0.1412
  229MOL0     O31495   6.903   2.492   7.734 -0.4617  1.0181 -0.2952
  229MOL0     C31496   6.973   2.404   7.815 -0.2590  0.2008 -0.0346
  229MOL0     C31497   6.914   2.335   7.921  0.7136 -0.3183  0.1438
  229MOL0     C31498   6.997   2.277   8.023 -0.4351 -0.8256 -0.8211
  229MOL0     C31499   7.138   2.285   8.012  0.3001 -0.7574  0.8502
  229MOL0     O31500   7.184   2.210   8.112  0.1042  0.2288 -0.0993
  229MOL0     C31501   7.310   2.158   8.090 -0.4433  0.5331 -0.1205
  229MOL0     C31502   7.418   2.251   8.150  0.4453  0.3050 -0.3229
  229MOL0     C31503   7.375   2.333   8.273  1.2139  0.2507  0.7890
  229MOL0     C31504   7.492   2.402   8.346  0.4205  0.0189  1.3213
  229MOL0     C31505   7.459   2.461   8.486 -0.3132  0.6306  0.4652
  229MOL0     C31506   7.558   2.565   8.532 -1.0061 -0.3061 -0.4085
  229MOL0     C31507   7.531   2.611   8.684 -0.8202 -0.0797  0.0344
  229MOL0     C31508   7.641   2.707   8.734  0.6903  0.1937  0.9161
  229MOL0    Cl31509   7.597   2.775   8.890  0.1258 -0.3437 -0.5129
  229MOL0     C31510   7.193   2.346   7.903 -0.8019 -0.5451 -0.0322
  229MOL0     C31511   7.113   2.397   7.805 -0.4490 -0.1574  0.7763
  229MOL0     O31512   6.780   2.589   7.909 -0.2655  0.6797 -0.5171
  229MOL0     C31513   6.712   2.594   7.567  0.8315  1.0938  0.0918
  229MOL0     C31514   6.636   2.647   7.469  0.0034 -1.2953 -0.9891
  229MOL0     N31515   6.245   2.276   7.121 -0.2297 -0.5863 -0.5639
  229MOL0     N31516   6.156   2.263   7.033  0.3149 -1.0422 -0.6245
  229MOL0     C31517   6.663   2.669   6.458 -0.0110  0.0763 -0.2779
  229MOL0     C31518   6.760   2.751   6.515  0.4838  0.5718  0.6959
  229MOL0     C31519   7.007   3.115   6.656 -0.2821 -0.0330  0.8049
  229MOL0     C31520   6.991   3.100   6.794  0.5057  0.0859 -0.6576
  229MOL0     C31521   7.076   3.177   6.886 -0.2343 -0.2609  0.0145
  229MOL0     C31522   7.170   3.265   6.831  0.2300 -0.5542  0.0073
  229MOL0     O31523   7.260   3.344   6.900 -0.6553  0.3153 -0.1427
  229MOL0     C31524   7.212   3.445   6.987  0.0267 -1.0044 -0.4400
  229MOL0     C31525   7.316   3.472   7.093 -0.5301 -0.0939  0.0914
  229MOL0     C31526   7.270   3.564   7.207 -0.0335  0.4574  1.0664
  229MOL0     C31527   7.160   3.490   7.293  0.4005 -0.1189  0.3305
  229MOL0     C31528   7.211   3.402   7.404  1.1758 -0.2956 -0.4299
  229MOL0     C31529   7.237   3.324   7.493 -0.2966  0.6004  0.9849
  229MOL0     C31530   7.192   3.264   6.694 -0.4692  0.9481 -0.1167
  229MOL0     C31531   7.113   3.202   6.603  0.0528  1.3316  0.1884
  229MOL0     C31532   7.126   3.236   6.457  0.1737 -0.4883 -0.1696
  229MOL0     H31533   6.576   3.045   6.539 -4.3806 -0.6206  0.5433
  229MOL0     H31534   6.413   2.904   6.439  0.1692 -2.2983 -2.8740
  229MOL0     H31535   6.368   2.615   6.557  0.9404  1.5936 -0.1437
  229MOL0     H31536   6.435   2.476   6.497 -1.9078  1.0137  4.9506
  229MOL0     H31537   6.219   2.581   6.315 -1.3048  1.4494  0.9181
  229MOL0     H31538   6.241   2.428   6.352 -1.6827  2.1607 -2.6482
  229MOL0     H31539   6.110   2.602   6.567  0.1071 -2.7218  3.1231
  229MOL0     H31540   6.026   2.498   6.448  1.2074 -0.9886 -2.8277
  229MOL0     H31541   6.137   2.298   6.526  0.1809 -0.4616  0.5543
  229MOL0     H31542   6.232   2.389   6.640 -1.0114  1.6581  0.8421
  229MOL0     H31543   5.929   2.408   6.664 -1.1290  0.9665  1.0351
  229MOL0     H31544   6.080   2.449   6.766 -0.6456  0.2390 -0.4005
  229MOL0     H31545   5.967   2.182   6.681 -0.1493  0.8391 -0.4862
  229MOL0     H31546   6.113   2.198   6.797  0.1434  2.1891  3.4381
  229MOL0     H31547   5.902   2.121   6.907  0.3394  0.8526  0.2394
  229MOL0     H31548   5.820   2.249   6.814  0.7233 -0.5984 -1.8246
  229MOL0     H31549   5.911   2.434   6.955  1.0848  1.4043  2.2218
  229MOL0     H31550   5.824   2.314   7.047  0.8862  4.6869  1.9314
  229MOL0     H31551   5.981   2.423   7.245 -1.0147  0.7965 -2.7411
  229MOL0     H31552   6.305   2.302   7.409 -1.6298 -1.1635 -0.0694
  229MOL0     H31553   6.184   2.429   7.419  0.6999  1.2839 -1.4574
  229MOL0     H31554   6.421   2.503   7.437  3.8069 -0.3908 -1.5923
  229MOL0     H31555   6.441   2.456   7.259 -0.2533  3.6376 -2.9928
  229MOL0     H31556   6.271   2.629   7.203  1.2896 -2.1866 -0.5041
  229MOL0     H31557   6.238   2.672   7.369 -1.8411 -0.0219 -0.2842
  229MOL0     H31558   6.511   2.688   7.237 -1.9970  0.3917 -1.4305
  229MOL0     H31559   6.408   2.810   7.223  0.1858  0.5628  0.5007
  229MOL0     H31560   6.517   2.917   7.639 -2.1023 -0.8281 -3.7529
  229MOL0     H31561   6.632   2.961   7.836  1.3628 -0.4195 -3.1099
  229MOL0     H31562   6.759   2.844   7.894  1.0328  3.6023 -0.2682
  229MOL0     H31563   6.591   2.816   7.920 -0.0716 -0.5829 -0.1053
  229MOL0     H31564   6.808   2.318   7.937  1.0580 -1.8421  1.0559
  229MOL0     H31565   6.968   2.237   8.120  0.1588 -0.0568 -0.3103
  229MOL0     H31566   7.315   2.056   8.127  0.9273  0.7049  0.2005
  229MOL0     H31567   7.333   2.130   7.986 -2.6259 -4.5450  0.4721
  229MOL0     H31568   7.496   2.182   8.185 -1.5520 -1.3577  1.1451
  229MOL0     H31569   7.459   2.316   8.072  5.1151 -1.7405  0.0530
  229MOL0     H31570   7.312   2.275   8.341  3.5976  0.2054  3.1362
  229MOL0     H31571   7.301   2.411   8.253  0.5710  0.3242  3.1448
  229MOL0     H31572   7.543   2.475   8.283  1.5144 -0.4878  1.6004
  229MOL0     H31573   7.571   2.327   8.351 -1.7772 -2.9972 -2.8864
  229MOL0     H31574   7.359   2.504   8.475 -0.9177 -1.1001 -1.4412
  229MOL0     H31575   7.447   2.381   8.560  1.1462  0.7174  0.8195
  229MOL0     H31576   7.573   2.650   8.465 -0.0947 -1.2794 -1.4952
  229MOL0     H31577   7.655   2.514   8.539 -0.0612  1.6150  3.5518
  229MOL0     H31578   7.512   2.529   8.754  2.1103 -1.5285 -0.7019
  229MOL0     H31579   7.438   2.668   8.681 -0.0386  1.2252  0.1762
  229MOL0     H31580   7.655   2.790   8.664  1.7534 -0.6877  0.0369
  229MOL0     H31581   7.727   2.643   8.754  0.3098  0.2984  3.1079
  229MOL0     H31582   7.296   2.376   7.885 -0.5452 -2.1193 -1.4123
  229MOL0     H31583   7.158   2.458   7.728 -0.1121  0.2068  1.2546
  229MOL0     H31584   6.767   2.504   7.539  2.3292  1.3883  1.8835
  229MOL0     H31585   6.632   2.597   7.373  1.7944  1.2230 -2.5233
  229MOL0     H31586   6.673   2.561   6.449 -1.8725 -0.2257  0.7416
  229MOL0     H31587   6.852   2.700   6.544  0.0916 -2.5390 -2.7921
  229MOL0     H31588   6.917   3.040   6.848  1.9240  0.9204  2.4573
  229MOL0     H31589   7.078   3.165   6.994 -0.5153  2.0232  0.3165
  229MOL0     H31590   7.174   3.533   6.934 -0.3433 -2.7230 -3.2380
  229MOL0     H31591   7.116   3.406   7.023 -0.5581 -1.8415 -2.7536
  229MOL0     H31592   7.403   3.521   7.048 -0.3072 -1.1180 -0.6250
  229MOL0     H31593   7.345   3.372   7.127 -1.3757 -1.4798 -2.8928
  229MOL0     H31594   7.353   3.599   7.270 -0.3238  0.7369  1.2984
  229MOL0     H31595   7.227   3.649   7.154  0.9002 -0.6177 -1.5841
  229MOL0     H31596   7.082   3.432   7.242  0.2887 -1.0403  1.5088
  229MOL0     H31597   7.093   3.558   7.346 -3.5164 -1.9313 -1.8481
  229MOL0     H31598   7.261   3.268   7.581 -0.7855  0.9603  1.3561
  229MOL0     H31599   7.259   3.342   6.659 -1.8246  2.3553  0.3177
  229MOL0     H31600   7.071   3.325   6.424 -2.6236 -2.3565 -0.8724
  229MOL0     H31601   7.229   3.271   6.438 -0.1073  0.6659  0.3176
  229MOL0     H31602   7.108   3.143   6.403  0.4042 -0.5148 -0.2007
  230MOL0     O31603   9.724   3.121   7.339 -0.3795 -0.7285  0.0310
  230MOL0     C31604   9.663   3.227   7.373  0.8539  0.4676  0.3527
  230MOL0     O31605   9.568   3.280   7.304  0.3064  0.5972 -0.5651
  230MOL0     C31606   9.510   3.212   7.196  0.1701 -0.8922 -0.1700
  230MOL0     C31607   9.581   3.163   7.085 -0.6831  0.3076  0.2756
  230MOL0     C31608   9.515   3.129   6.967 -0.2449 -0.2002 -0.5763
  230MOL0     C31609   9.378   3.123   6.968 -0.8491  0.4677 -0.5883
  230MOL0     O31610   9.333   3.069   6.851 -0.0211 -0.1619  0.1165
  230MOL0     C31611   9.188   3.057   6.823  0.6032  0.6074  0.1960
  230MOL0     C31612   9.169   3.007   6.681  0.9449  0.2770 -0.5098
  230MOL0     C31613   9.020   2.985   6.660 -0.0903 -0.1535 -0.4366
  230MOL0     C31614   8.980   2.931   6.522 -0.0722  0.4599  1.6470
  230MOL0     C31615   8.856   2.863   6.534  0.9409  0.2741  0.3914
  230MOL0     C31616   8.784   2.796   6.404 -0.2766 -0.7930 -0.7317
  230MOL0     C31617   8.869   2.735   6.303  0.7499  0.0686 -0.5029
  230MOL0     C31618   8.937   2.598   6.350 -1.6547 -0.8502  0.6297
  230MOL0     N31619   8.837   2.500   6.324 -0.3902  0.4425  0.6865
  230MOL0     C31620   8.796   2.451   6.203  0.3016  0.7569  0.3959
  230MOL0     C31621   8.714   2.341   6.228 -0.3821 -0.2334 -0.7270
  230MOL0     C31622   8.633   2.268   6.137  0.5706  0.5052  0.4122
  230MOL0     C31623   8.705   2.176   6.040  0.0494 -0.1462  0.9355
  230MOL0     C31624   8.605   2.100   5.945  0.1978  0.6558 -0.4634
  230MOL0     C31625   8.533   2.174   5.823 -0.1407  0.1624 -0.2864
  230MOL0     O31626   8.458   2.082   5.748 -0.6474 -0.0557  0.5103
  230MOL0     C31627   8.511   2.019   5.639 -0.0281 -0.3031  0.1404
  230MOL0     C31628   8.646   2.021   5.603 -0.0763  0.7005  0.3431
  230MOL0     C31629   8.689   1.981   5.482  0.9400  0.0852 -0.2354
  230MOL0     C31630   8.840   1.993   5.457  0.3523 -0.3504  0.1528
  230MOL0     C31631   8.598   1.917   5.388  0.8272 -0.4502 -0.3225
  230MOL0     C31632   8.633   1.875   5.249 -0.2047 -0.6755 -0.5307
  230MOL0     O31633   8.732   1.941   5.188 -0.0895  0.5014 -0.3280
  230MOL0     C31634   8.756   1.914   5.055  0.4153 -0.5798  0.0157
  230MOL0     C31635   8.848   1.825   5.008  0.0752 -0.6307  0.1206
  230MOL0     C31636   8.858   1.808   4.880 -1.2784 -0.7661  0.4296
  230MOL0     C31637   8.784   1.882   4.788 -0.1892 -0.5781  0.2790
  230MOL0     O31638   8.820   1.871   4.653  0.1843  1.2327 -0.4317
  230MOL0     C31639   8.729   1.929   4.558  0.5436 -0.1974 -0.0645
  230MOL0     C31640   8.782   2.068   4.525  1.2308 -0.0911 -0.6520
  230MOL0     C31641   8.680   2.151   4.452 -0.8904 -0.5118  0.0808
  230MOL0     C31642   8.759   2.275   4.399 -0.4028  0.6959 -0.1301
  230MOL0     C31643   8.841   2.259   4.267 -0.1541  0.4815 -0.0212
  230MOL0     C31644   8.898   2.387   4.200 -0.3373 -0.0919 -0.1468
  230MOL0     C31645   9.007   2.439   4.299  0.6163 -1.7537 -0.2901
  230MOL0     C31646   9.049   2.578   4.258 -0.3855 -0.3374 -0.0672
  230MOL0    Cl31647   9.153   2.601   4.109  0.2506  0.1636 -0.5952
  230MOL0     C31648   8.693   1.973   4.831 -0.4244 -0.3970  0.2110
  230MOL0     C31649   8.678   1.986   4.964 -0.3594 -0.4118 -0.4886
  230MOL0     O31650   8.591   1.772   5.212  0.1527 -0.1584 -0.4434
  230MOL0     C31651   8.469   1.903   5.433 -0.2392 -0.3117  0.7125
  230MOL0     C31652   8.424   1.952   5.562 -0.7542 -0.4190 -1.0521
  230MOL0     N31653   8.704   2.330   6.360  0.8102 -1.0088 -0.1359
  230MOL0     N31654   8.774   2.426   6.407 -0.4179  0.1197 -0.0341
  230MOL0     C31655   9.304   3.160   7.078 -0.1576 -0.5212 -0.0981
  230MOL0     C31656   9.364   3.218   7.190  0.0019  0.3731 -0.5221
  230MOL0     C31657   9.719   3.310   7.485  0.0300  0.2255  1.3354
  230MOL0     C31658   9.630   3.388   7.552  0.0217  0.4147 -0.0228
  230MOL0     C31659   9.672   3.470   7.656 -0.3402  0.4454  0.4156
  230MOL0     C31660   9.806   3.473   7.699  0.0868 -0.1042 -0.4240
  230MOL0     O31661   9.833   3.550   7.809 -0.3804  0.3030  0.1543
  230MOL0     C31662   9.967   3.558   7.867  1.5483  0.0835 -0.3837
  230MOL0     C31663   9.945   3.631   8.002 -0.3533 -0.1431 -0.9488
  230MOL0     C31664   9.907   3.780   7.983  0.2964  0.0635 -0.0617
  230MOL0     C31665   9.936   3.878   8.105 -0.0385  0.8649 -0.6690
  230MOL0     C31666   9.903   4.018   8.077  0.1456 -0.0887  0.2028
  230MOL0     C31667   9.870   4.133   8.044 -0.6636  0.7180 -0.6461
  230MOL0     C31668   9.895   3.393   7.629 -0.7285  0.2554  0.4795
  230MOL0     C31669   9.861   3.316   7.519  0.1058 -0.0269  0.8832
  230MOL0     C31670   9.978   3.252   7.446  0.4961 -0.0415  0.5006
  230MOL0     H31671   9.689   3.174   7.080 -0.6777  1.1698  1.7231
  230MOL0     H31672   9.549   3.094   6.870  0.9859  4.0331 -1.8689
  230MOL0     H31673   9.141   3.156   6.832  3.2333  2.0683 -0.8882
  230MOL0     H31674   9.136   2.993   6.894 -2.2634  0.2149 -2.0376
  230MOL0     H31675   9.206   3.070   6.599 -0.5432  2.1382  0.1799
  230MOL0     H31676   9.206   2.904   6.677  0.4044 -0.1681  2.9144
  230MOL0     H31677   8.989   2.902   6.725 -1.4867 -2.3264 -3.5910
  230MOL0     H31678   8.968   3.081   6.664 -1.0682 -0.6741 -0.2700
  230MOL0     H31679   8.966   3.012   6.451 -1.8031  1.0070  2.5510
  230MOL0     H31680   9.048   2.856   6.481 -1.7559 -2.3531  3.5687
  230MOL0     H31681   8.782   2.928   6.582 -3.0615 -1.5474 -2.7162
  230MOL0     H31682   8.879   2.783   6.604 -3.0204 -0.7585  0.7727
  230MOL0     H31683   8.699   2.732   6.430  0.7915 -1.7215  0.5412
  230MOL0     H31684   8.733   2.884   6.363 -2.6479 -2.5611 -1.8157
  230MOL0     H31685   8.952   2.797   6.269  1.1096  2.5717  4.1648
  230MOL0     H31686   8.817   2.715   6.209  1.3646 -4.7892 -0.0718
  230MOL0     H31687   9.026   2.572   6.292 -1.9694  3.0975 -2.0203
  230MOL0     H31688   8.976   2.601   6.452  0.9404  1.9224 -0.2953
  230MOL0     H31689   8.816   2.500   6.108  1.6556  0.6580  0.6020
  230MOL0     H31690   8.568   2.342   6.089  4.4769  3.0365 -1.4847
  230MOL0     H31691   8.571   2.200   6.195 -0.2394  2.1841  1.6267
  230MOL0     H31692   8.773   2.233   5.977  0.3095  0.2914  1.5930
  230MOL0     H31693   8.762   2.111   6.107  2.7018  2.2992  1.2576
  230MOL0     H31694   8.665   2.020   5.900 -0.2857  2.4581 -4.8666
  230MOL0     H31695   8.533   2.055   6.014 -1.6608  0.4037 -2.4520
  230MOL0     H31696   8.464   2.244   5.871  1.7646  0.1286  2.7374
  230MOL0     H31697   8.595   2.227   5.750 -1.6977  0.0083 -1.7928
  230MOL0     H31698   8.734   2.054   5.656 -0.0512  1.1756  0.0144
  230MOL0     H31699   8.902   1.982   5.546  1.0842 -0.2718 -0.3431
  230MOL0     H31700   8.845   2.095   5.419 -1.9121 -0.5736 -0.9331
  230MOL0     H31701   8.875   1.924   5.379  3.1944  1.0728  0.0707
  230MOL0     H31702   8.914   1.774   5.077  0.0896  0.0709  0.6283
  230MOL0     H31703   8.943   1.750   4.845 -1.2327 -1.1307  1.1423
  230MOL0     H31704   8.711   1.866   4.470 -0.8538 -0.3364  0.2923
  230MOL0     H31705   8.622   1.936   4.579 -0.1597 -1.7494 -2.6514
  230MOL0     H31706   8.814   2.124   4.613  0.9052 -0.4324 -0.3172
  230MOL0     H31707   8.873   2.057   4.465  1.8977  0.3359  0.2658
  230MOL0     H31708   8.601   2.196   4.513 -0.4050  3.3856 -1.8674
  230MOL0     H31709   8.640   2.106   4.360  0.1571  0.1823 -0.7401
  230MOL0     H31710   8.829   2.304   4.478  0.9035  0.4642 -1.1844
  230MOL0     H31711   8.680   2.351   4.389  0.4345  2.4532  4.2607
  230MOL0     H31712   8.928   2.194   4.280  1.4208  1.8633 -2.8453
  230MOL0     H31713   8.774   2.209   4.197 -1.3723 -0.3300  1.6742
  230MOL0     H31714   8.820   2.457   4.169 -0.1825  1.1541  2.0832
  230MOL0     H31715   8.947   2.362   4.105 -0.5673  1.3516 -0.6588
  230MOL0     H31716   9.099   2.383   4.285  2.4286  1.3375 -1.9205
  230MOL0     H31717   8.966   2.446   4.401  0.6186  2.8314 -0.3635
  230MOL0     H31718   9.108   2.620   4.340  3.0025 -1.0622 -1.9436
  230MOL0     H31719   8.963   2.643   4.243 -0.1410  1.2034  3.9720
  230MOL0     H31720   8.638   2.036   4.762  2.1947  1.3553 -0.4310
  230MOL0     H31721   8.595   2.042   5.006  1.2132  1.3375  0.4842
  230MOL0     H31722   8.400   1.864   5.360  0.4595  2.3621 -1.5338
  230MOL0     H31723   8.320   1.943   5.593  0.2289 -0.6068  2.6549
  230MOL0     H31724   9.196   3.164   7.068 -0.0960  1.5498 -0.3642
  230MOL0     H31725   9.305   3.259   7.271  1.8598  2.6164 -0.1931
  230MOL0     H31726   9.528   3.381   7.514  0.4114 -0.5320 -0.9566
  230MOL0     H31727   9.604   3.545   7.696 -1.0898 -1.1256  2.2149
  230MOL0     H31728  10.006   3.456   7.881 -1.9702 -1.3421 -0.0836
  230MOL0     H31729  10.044   3.612   7.811  1.4808 -0.5023 -1.0544
  230MOL0     H31730  10.035   3.617   8.063  1.0128  2.2956 -2.2520
  230MOL0     H31731   9.860   3.583   8.050  0.8279 -0.1180  1.2969
  230MOL0     H31732   9.967   3.816   7.899  1.6988 -2.2564 -0.1241
  230MOL0     H31733   9.805   3.778   7.945  1.1415  0.5424 -2.5405
  230MOL0     H31734  10.042   3.884   8.132 -0.1572 -0.1825  0.0682
  230MOL0     H31735   9.884   3.849   8.197  1.0324  0.5195 -0.1516
  230MOL0     H31736   9.842   4.230   8.007  4.1078  2.6477  0.1301
  230MOL0     H31737  10.002   3.404   7.644 -0.0246 -1.2231 -2.5376
  230MOL0     H31738  10.055   3.324   7.417  0.6417 -0.2900  0.2622
  230MOL0     H31739  10.024   3.181   7.515  0.1572 -3.3258 -2.3414
  230MOL0     H31740   9.945   3.194   7.359 -1.2275  2.2449 -0.4839
  231MOL0     O31741   5.824   8.846   9.526 -0.2327 -0.4178 -0.0369
  231MOL0     C31742   5.899   8.818   9.626 -0.9637 -0.2083  0.4986
  231MOL0     O31743   5.929   8.906   9.726 -0.0470 -0.5314 -0.5564
  231MOL0     C31744   5.869   9.028   9.746 -0.2499 -0.2572  0.1051
  231MOL0     C31745   5.729   9.066   9.731  0.3010 -0.4094  0.7598
  231MOL0     C31746   5.702   9.196   9.754  0.6071 -0.6611  0.0208
  231MOL0     C31747   5.794   9.296   9.787 -0.9662  0.1853 -0.1981
  231MOL0     O31748   5.788   9.431   9.795 -0.1449 -0.6871  0.1291
  231MOL0     C31749   5.658   9.487   9.775  0.5390 -0.0642 -0.3404
  231MOL0     C31750   5.646   9.634   9.749 -0.3540 -0.0608  0.3466
  231MOL0     C31751   5.757   9.684   9.657 -0.3452 -0.2180  0.2199
  231MOL0     C31752   5.755   9.622   9.517 -0.0192 -0.4091 -0.1200
  231MOL0     C31753   5.838   9.695   9.410  0.1585 -1.3931 -0.2762
  231MOL0     C31754   5.885   9.620   9.291 -0.1956  0.0027  0.0139
  231MOL0     C31755   6.020   9.680   9.233  0.0577  0.2474 -0.3255
  231MOL0     C31756   6.041   9.648   9.083  0.0801  0.1168  0.2811
  231MOL0     N31757   6.118   9.759   9.019  1.0488  0.0277 -0.1839
  231MOL0     C31758   6.072   9.882   8.974  0.2764  0.2500  0.3969
  231MOL0     C31759   6.174   9.932   8.907 -0.3421 -0.2567  0.3996
  231MOL0     C31760   6.169  10.070   8.859  1.4846  0.1749 -0.3083
  231MOL0     C31761   6.308  10.120   8.810  0.1901 -0.2237  0.0919
  231MOL0     C31762   6.294  10.261   8.747  0.2398  0.2537 -0.4883
  231MOL0     C31763   6.434  10.298   8.708  0.5823  0.4086  0.5446
  231MOL0     O31764   6.476  10.204   8.608  0.1315 -0.1638  0.1830
  231MOL0     C31765   6.584  10.227   8.518 -0.5265  1.2454 -0.4429
  231MOL0     C31766   6.686  10.312   8.539  0.9507 -0.7098 -0.0357
  231MOL0     C31767   6.792  10.312   8.451 -0.2219  0.2685 -0.2638
  231MOL0     C31768   6.911  10.400   8.491  0.8017  0.4729  0.1002
  231MOL0     C31769   6.803  10.230   8.335 -0.2882 -0.0880 -1.0675
  231MOL0     C31770   6.899  10.234   8.224 -0.7189  0.0184  0.8129
  231MOL0     O31771   6.906  10.132   8.128  0.2531 -0.6007  0.3800
  231MOL0     C31772   7.010  10.142   8.033  0.7068  0.3422  0.5737
  231MOL0     C31773   7.138  10.103   8.061  0.6843 -0.4523 -0.8316
  231MOL0     C31774   7.246  10.117   7.971  0.3276  0.4081 -0.4204
  231MOL0     C31775   7.229  10.166   7.840  0.4740 -0.9192  0.3187
  231MOL0     O31776   7.333  10.183   7.757 -0.4670 -0.2043 -0.2293
  231MOL0     C31777   7.388  10.319   7.772 -0.3918  1.0002  0.7769
  231MOL0     C31778   7.519  10.329   7.857  0.8738 -1.2456  0.5508
  231MOL0     C31779   7.641  10.273   7.802 -0.1342  0.7765  0.2912
  231MOL0     C31780   7.773  10.306   7.873 -0.8187  0.8059  0.5819
  231MOL0     C31781   7.906  10.243   7.815 -0.5291 -0.1755  0.0247
  231MOL0     C31782   7.920  10.095   7.833  0.0135 -0.4125 -0.3399
  231MOL0     C31783   7.987  10.028   7.702 -0.1902 -0.6478 -0.8745
  231MOL0     C31784   8.001   9.886   7.726 -0.2141  0.8633 -0.1344
  231MOL0    Cl31785   7.851   9.802   7.703  0.3454 -0.4350 -0.0112
  231MOL0     C31786   7.096  10.187   7.802  0.4778 -0.2979  0.4170
  231MOL0     C31787   6.987  10.175   7.898 -0.3418  0.3849  0.6538
  231MOL0     O31788   6.966  10.337   8.209 -0.5042 -0.1724 -0.0642
  231MOL0     C31789   6.694  10.145   8.323 -0.0583 -0.6589  0.4832
  231MOL0     C31790   6.586  10.144   8.405 -0.0390  0.2378 -0.9001
  231MOL0     N31791   6.281   9.843   8.903  0.3087 -0.7815  0.0383
  231MOL0     N31792   6.239   9.737   8.967  0.0246  0.9120  0.0507
  231MOL0     C31793   5.930   9.252   9.797  0.2975  0.3668  0.2176
  231MOL0     C31794   5.968   9.122   9.771  1.0118 -0.3859  0.6819
  231MOL0     C31795   5.956   8.678   9.631  0.1697  0.1300  0.4205
  231MOL0     C31796   5.924   8.584   9.522 -0.4523  0.1365 -0.1035
  231MOL0     C31797   5.956   8.449   9.523  0.7394  0.6824 -0.4097
  231MOL0     C31798   6.017   8.392   9.638  0.2704 -0.1904  0.5056
  231MOL0     O31799   6.053   8.256   9.647  0.0373 -0.4411  0.3854
  231MOL0     C31800   5.940   8.166   9.647  0.7023 -0.4334 -0.1959
  231MOL0     C31801   5.957   8.083   9.517  0.1155 -0.3499 -0.8999
  231MOL0     C31802   5.833   7.996   9.488  1.0959 -1.1224 -0.8572
  231MOL0     C31803   5.784   7.999   9.342  0.0367  0.3401  0.4988
  231MOL0     C31804   5.686   7.891   9.325  0.7091  0.3349  1.4338
  231MOL0     C31805   5.605   7.801   9.305  0.1824 -0.3717  1.2070
  231MOL0     C31806   6.043   8.475   9.740  0.3616 -0.6720  0.7151
  231MOL0     C31807   6.022   8.611   9.737  0.4233 -1.3639 -0.1679
  231MOL0     C31808   6.076   8.690   9.857  0.3587  0.4094  0.3837
  231MOL0     H31809   5.650   8.999   9.698 -0.4853 -0.3134  2.3605
  231MOL0     H31810   5.606   9.230   9.716 -1.2310 -0.2624  4.4618
  231MOL0     H31811   5.592   9.471   9.861  0.2279  1.4470 -0.2729
  231MOL0     H31812   5.607   9.438   9.691 -0.2750  4.9337 -3.1461
  231MOL0     H31813   5.550   9.657   9.702 -0.0777 -0.8454 -0.6537
  231MOL0     H31814   5.649   9.684   9.846 -3.4769  0.6767  0.1529
  231MOL0     H31815   5.743   9.791   9.642 -0.8761 -0.5716 -2.2486
  231MOL0     H31816   5.855   9.676   9.706  0.4937  1.2005 -1.1125
  231MOL0     H31817   5.790   9.519   9.515  0.9227 -0.1773  1.9826
  231MOL0     H31818   5.653   9.626   9.479 -0.3671  0.5544  0.8640
  231MOL0     H31819   5.929   9.728   9.461 -0.6570  0.9924 -0.2611
  231MOL0     H31820   5.788   9.787   9.380  0.2129 -1.1859  0.2421
  231MOL0     H31821   5.907   9.518   9.324  0.4557  0.0611 -0.2127
  231MOL0     H31822   5.815   9.615   9.207  0.8686 -0.8103 -0.8508
  231MOL0     H31823   6.107   9.664   9.297 -0.8660 -1.4935  0.5388
  231MOL0     H31824   6.002   9.788   9.238 -2.5751 -0.2020  1.9420
  231MOL0     H31825   6.088   9.551   9.063 -1.6477 -1.1624  2.0738
  231MOL0     H31826   5.937   9.647   9.050 -0.2151  2.5605  0.9393
  231MOL0     H31827   5.985   9.937   9.008  0.5722  1.0882 -0.1730
  231MOL0     H31828   6.134  10.139   8.937  1.8045  0.2284 -0.2131
  231MOL0     H31829   6.096  10.081   8.777  0.6187 -5.0360 -0.5637
  231MOL0     H31830   6.376  10.133   8.895 -0.2206  0.8359  0.2637
  231MOL0     H31831   6.357  10.051   8.740  3.4841 -0.7048  2.5995
  231MOL0     H31832   6.229  10.264   8.659  1.0448 -0.7687 -1.1559
  231MOL0     H31833   6.243  10.324   8.819 -1.8194 -0.5705 -1.1551
  231MOL0     H31834   6.437  10.399   8.669  2.5039  0.8652  1.7366
  231MOL0     H31835   6.504  10.292   8.793 -0.8135 -0.8490  1.6637
  231MOL0     H31836   6.677  10.377   8.625 -1.7740 -2.6629  1.3516
  231MOL0     H31837   6.900  10.454   8.586 -2.5323  2.7870 -1.4125
  231MOL0     H31838   6.900  10.477   8.415 -4.0349  0.3098  0.3245
  231MOL0     H31839   7.004  10.344   8.481 -0.5011 -2.4325  2.5539
  231MOL0     H31840   7.162  10.068   8.161  2.2842  0.6217 -0.8083
  231MOL0     H31841   7.343  10.097   8.014  1.2548  3.2633 -0.9857
  231MOL0     H31842   7.402  10.364   7.673  0.8250 -1.9376 -0.5344
  231MOL0     H31843   7.309  10.383   7.810 -0.5048  0.6627  1.1143
  231MOL0     H31844   7.545  10.435   7.862  1.8022 -1.4705  0.7184
  231MOL0     H31845   7.506  10.292   7.959  1.2781  0.9727  1.4576
  231MOL0     H31846   7.651  10.291   7.694  1.9221  2.2677  0.6707
  231MOL0     H31847   7.627  10.165   7.814  2.5004  0.3267  0.0326
  231MOL0     H31848   7.771  10.280   7.979  0.8439 -0.9770  0.2506
  231MOL0     H31849   7.789  10.414   7.864 -0.4965  0.6076 -2.9662
  231MOL0     H31850   7.908  10.261   7.707 -0.5762  0.3247  0.1055
  231MOL0     H31851   7.998  10.285   7.856  1.9006 -2.2556 -2.8386
  231MOL0     H31852   7.817  10.063   7.848 -0.7047  1.5508 -0.8090
  231MOL0     H31853   7.978  10.075   7.923 -1.3623  2.1436  1.2295
  231MOL0     H31854   8.087  10.071   7.688  1.5064 -4.1672 -0.6530
  231MOL0     H31855   7.920  10.038   7.616 -0.9289 -3.0010 -0.6398
  231MOL0     H31856   8.045   9.852   7.820  0.0866 -3.3326 -1.5869
  231MOL0     H31857   8.074   9.848   7.654 -2.8508 -2.3310 -1.3875
  231MOL0     H31858   7.078  10.219   7.700 -2.2637 -2.2057  0.1737
  231MOL0     H31859   6.892  10.215   7.864 -0.2928 -0.8866 -1.0844
  231MOL0     H31860   6.678  10.089   8.232 -0.8335 -0.1214  0.2792
  231MOL0     H31861   6.498  10.083   8.390 -0.1718  0.4359 -0.9414
  231MOL0     H31862   6.011   9.320   9.819  0.1020 -0.0765  2.6739
  231MOL0     H31863   6.075   9.108   9.758  1.1410  1.1295 -0.2358
  231MOL0     H31864   5.875   8.615   9.431  0.3362  0.2451 -0.4989
  231MOL0     H31865   5.932   8.383   9.440  0.1061 -2.2019  1.9178
  231MOL0     H31866   5.933   8.098   9.733 -1.1542 -0.8926 -0.6587
  231MOL0     H31867   5.847   8.224   9.646  1.9179  1.7121  1.4576
  231MOL0     H31868   6.053   8.032   9.521 -0.8493 -2.1784  0.6971
  231MOL0     H31869   5.970   8.147   9.428  2.2213  1.5847  0.6890
  231MOL0     H31870   5.853   7.895   9.523 -3.1919 -0.8668  3.2638
  231MOL0     H31871   5.753   8.030   9.554  0.4042  0.1372 -2.2598
  231MOL0     H31872   5.866   7.992   9.270  0.8418  0.4320  1.4033
  231MOL0     H31873   5.738   8.096   9.322  1.7317  1.3682  1.3464
  231MOL0     H31874   5.537   7.721   9.283 -1.7758  0.8027  2.6775
  231MOL0     H31875   6.078   8.429   9.832 -2.9335 -4.3078  0.4333
  231MOL0     H31876   6.167   8.738   9.821  0.8587  0.1109  1.2367
  231MOL0     H31877   6.015   8.761   9.914  2.1057  0.6040  2.1050
  231MOL0     H31878   6.109   8.622   9.936  3.7059 -0.9965 -1.9811
  232MOL0     O31879   9.614   2.913   0.761  0.4013  0.0676  0.7560
  232MOL0     C31880   9.534   2.968   0.685 -0.6645  1.0129 -0.2776
  232MOL0     O31881   9.566   3.049   0.583  0.4550  0.4388 -0.4305
  232MOL0     C31882   9.698   3.070   0.558  0.3879 -0.4924 -0.0003
  232MOL0     C31883   9.738   3.200   0.555 -0.9108  0.3683  0.4477
  232MOL0     C31884   9.878   3.229   0.530  0.7853  0.5310  0.9586
  232MOL0     C31885   9.974   3.132   0.506  0.2536 -0.1206  0.4388
  232MOL0     O31886  10.103   3.175   0.507  0.5350 -0.4101 -0.3449
  232MOL0     C31887  10.206   3.084   0.509  0.4958  0.4248 -0.1014
  232MOL0     C31888  10.326   3.168   0.556  0.3384  0.7683  0.6515
  232MOL0     C31889  10.447   3.089   0.605 -0.1237 -0.3997 -0.2862
  232MOL0     C31890  10.430   3.014   0.738 -0.0796 -1.1315  0.6762
  232MOL0     C31891  10.519   2.888   0.749 -0.3141 -0.8911 -0.9196
  232MOL0     C31892  10.478   2.823   0.882  0.4660  0.3559  0.9257
  232MOL0     C31893  10.542   2.676   0.902  0.1344 -0.1260 -0.5571
  232MOL0     C31894  10.469   2.552   0.843 -0.5591 -1.6361 -0.7613
  232MOL0     N31895  10.437   2.559   0.697 -0.2719  0.1141 -0.3900
  232MOL0     C31896  10.329   2.629   0.650 -0.4042  0.1976 -0.1727
  232MOL0     C31897  10.319   2.597   0.517 -0.2041  0.4674 -0.4336
  232MOL0     C31898  10.199   2.642   0.433  0.4089 -0.4070 -0.3704
  232MOL0     C31899  10.111   2.526   0.377 -0.0309 -0.2385  0.3554
  232MOL0     C31900  10.054   2.441   0.485  0.0874  0.3069 -0.5216
  232MOL0     C31901   9.935   2.351   0.445  1.2028 -1.3030 -0.8298
  232MOL0     O31902   9.832   2.430   0.377  0.1047 -0.0730  0.0628
  232MOL0     C31903   9.701   2.395   0.412 -0.6599 -0.3051 -0.2348
  232MOL0     C31904   9.662   2.348   0.540  0.0626  0.6941 -0.7834
  232MOL0     C31905   9.522   2.332   0.567 -0.4841 -0.8704 -0.0049
  232MOL0     C31906   9.494   2.312   0.714 -0.1737  0.2148 -0.1150
  232MOL0     C31907   9.429   2.346   0.467 -0.6068 -0.0050  1.0025
  232MOL0     C31908   9.293   2.320   0.493  0.3705  0.1871  0.6383
  232MOL0     O31909   9.223   2.228   0.425 -1.3225  0.3951 -0.3366
  232MOL0     C31910   9.289   2.124   0.368 -0.3830  0.0256  0.4660
  232MOL0     C31911   9.314   2.113   0.231  0.1886  0.5097 -0.7253
  232MOL0     C31912   9.395   2.011   0.176  0.4018 -0.9669  0.0258
  232MOL0     C31913   9.451   1.922   0.261  0.6066  0.3785  0.6998
  232MOL0     O31914   9.521   1.821   0.206 -0.6971 -0.1892 -0.3098
  232MOL0     C31915   9.525   1.695   0.277  0.3607 -0.1474  0.1992
  232MOL0     C31916   9.632   1.602   0.223 -0.1701 -0.7190 -0.0036
  232MOL0     C31917   9.590   1.529   0.093 -0.5042 -0.4663 -0.4884
  232MOL0     C31918   9.696   1.538  -0.017 -0.7227  0.8545  0.2793
  232MOL0     C31919   9.831   1.481   0.037 -0.1662  1.5189 -0.2820
  232MOL0     C31920   9.951   1.507  -0.053  0.2752 -0.0751  0.6474
  232MOL0     C31921   9.970   1.656  -0.103  0.2210  0.0728  0.5046
  232MOL0     C31922  10.114   1.680  -0.141 -0.7271 -0.4596  0.6805
  232MOL0    Cl31923  10.173   1.641  -0.319 -0.2623  0.2241 -0.4251
  232MOL0     C31924   9.434   1.935   0.399 -0.5971 -0.4073 -1.4093
  232MOL0     C31925   9.362   2.035   0.452  0.4730  0.4087  0.3402
  232MOL0     O31926   9.236   2.386   0.579 -0.1174  0.3831  0.6128
  232MOL0     C31927   9.472   2.374   0.331 -0.0787  0.3837 -0.5353
  232MOL0     C31928   9.605   2.403   0.313  0.1244  0.7061  0.7712
  232MOL0     N31929  10.429   2.527   0.486  0.2930 -0.7515 -0.7031
  232MOL0     N31930  10.499   2.512   0.589 -0.9056  0.8421 -0.2543
  232MOL0     C31931   9.922   3.000   0.493 -0.0428 -0.5673 -0.2218
  232MOL0     C31932   9.792   2.975   0.521  0.1525 -0.4176  0.2970
  232MOL0     C31933   9.393   2.955   0.720 -0.8581 -0.2797 -0.6879
  232MOL0     C31934   9.329   3.063   0.767 -0.1622  0.8935 -0.5215
  232MOL0     C31935   9.204   3.072   0.826  0.3894  0.4068  0.2696
  232MOL0     C31936   9.126   2.963   0.811 -0.1471  0.5196 -0.1900
  232MOL0     O31937   9.002   2.948   0.869 -0.2480 -0.7054  0.3984
  232MOL0     C31938   8.969   3.020   0.990 -0.7361 -0.4638 -0.7748
  232MOL0     C31939   8.899   3.150   0.969 -0.5679 -0.2484 -0.3924
  232MOL0     C31940   8.925   3.259   1.072 -0.3273 -0.4370  0.4783
  232MOL0     C31941   8.836   3.240   1.194  0.2223  0.4699  0.0475
  232MOL0     C31942   8.859   3.341   1.301 -0.5838 -1.5423  0.0983
  232MOL0     C31943   8.881   3.409   1.398 -0.1216 -0.2964  0.6022
  232MOL0     C31944   9.176   2.844   0.760  0.3650  0.3830  0.0138
  232MOL0     C31945   9.313   2.845   0.710 -0.0946 -0.3928 -0.0599
  232MOL0     C31946   9.375   2.721   0.655 -0.7462 -0.1234 -0.6647
  232MOL0     H31947   9.685   3.293   0.567  3.2264  3.1797 -0.8294
  232MOL0     H31948   9.913   3.332   0.524  1.4937  0.2614  0.3837
  232MOL0     H31949  10.230   3.039   0.412  1.3098  3.0714 -1.2438
  232MOL0     H31950  10.182   3.011   0.586 -2.4623  1.0943 -0.2681
  232MOL0     H31951  10.359   3.216   0.464  1.9410 -0.4170  0.5702
  232MOL0     H31952  10.289   3.246   0.624 -2.9363  1.8983 -2.1476
  232MOL0     H31953  10.475   3.019   0.525  1.5486  2.4947 -2.4448
  232MOL0     H31954  10.534   3.155   0.601 -0.2079 -0.1314  1.4695
  232MOL0     H31955  10.462   3.083   0.816  3.8026  0.3618 -1.9234
  232MOL0     H31956  10.323   2.999   0.756 -0.7090  2.8284  1.1500
  232MOL0     H31957  10.624   2.915   0.765 -0.1092 -2.3807  0.4590
  232MOL0     H31958  10.500   2.828   0.659  2.0412 -0.9317 -1.4810
  232MOL0     H31959  10.502   2.887   0.967 -1.1783  0.9172  1.0172
  232MOL0     H31960  10.368   2.817   0.881  0.5401 -2.6721  0.8539
  232MOL0     H31961  10.536   2.672   1.011  2.3108  4.0382 -0.0718
  232MOL0     H31962  10.650   2.686   0.883 -0.4403  2.3534 -3.4560
  232MOL0     H31963  10.541   2.470   0.853  0.1654 -1.5923 -4.2295
  232MOL0     H31964  10.378   2.532   0.900 -2.1427  0.9353 -2.1967
  232MOL0     H31965  10.265   2.697   0.705 -1.3768  0.1134 -1.1664
  232MOL0     H31966  10.232   2.702   0.348  0.7675  0.7049  0.5312
  232MOL0     H31967  10.139   2.699   0.504 -1.9439 -2.8726 -0.1859
  232MOL0     H31968  10.028   2.558   0.313  1.1804 -3.7921 -3.4637
  232MOL0     H31969  10.176   2.463   0.315 -1.8724 -3.6554  1.6393
  232MOL0     H31970  10.131   2.384   0.538 -1.9623  0.1856  2.6028
  232MOL0     H31971  10.015   2.503   0.568  1.4900  0.0773  0.3438
  232MOL0     H31972   9.954   2.266   0.377 -3.9202 -1.4726 -2.5290
  232MOL0     H31973   9.901   2.293   0.531  0.6257  1.3143  0.8065
  232MOL0     H31974   9.728   2.320   0.622 -1.5781  2.0088  1.0772
  232MOL0     H31975   9.428   2.391   0.750  1.4025  0.8697  1.4576
  232MOL0     H31976   9.583   2.305   0.777 -0.7946 -0.3292  0.7337
  232MOL0     H31977   9.449   2.214   0.731  0.7070 -0.1093  0.3835
  232MOL0     H31978   9.262   2.179   0.162  0.7901  1.6704 -0.0809
  232MOL0     H31979   9.398   2.018   0.067 -0.1938  2.7867  0.1388
  232MOL0     H31980   9.556   1.703   0.381  1.1187 -1.3386  0.0866
  232MOL0     H31981   9.427   1.647   0.275  0.5368 -0.5072  0.1983
  232MOL0     H31982   9.719   1.664   0.204 -0.3920  0.5873  2.7972
  232MOL0     H31983   9.663   1.531   0.300 -3.0329 -1.5098  0.5607
  232MOL0     H31984   9.501   1.573   0.047 -0.5794 -1.0274 -0.8981
  232MOL0     H31985   9.558   1.429   0.125 -2.5343 -0.8552 -3.3172
  232MOL0     H31986   9.703   1.643  -0.044  0.2659  0.6127 -0.4547
  232MOL0     H31987   9.657   1.479  -0.100 -2.2147  2.0069  0.1159
  232MOL0     H31988   9.858   1.546   0.121 -1.4743  1.1986  0.4034
  232MOL0     H31989   9.827   1.380   0.077  3.7635  0.6473 -1.6387
  232MOL0     H31990   9.943   1.436  -0.136  2.4295 -1.6766  1.6945
  232MOL0     H31991  10.032   1.480   0.016 -0.7731  0.3672  2.1015
  232MOL0     H31992   9.946   1.715  -0.015  1.8295  0.9606  0.3856
  232MOL0     H31993   9.913   1.677  -0.194  1.7091  0.3181 -0.3979
  232MOL0     H31994  10.167   1.630  -0.060  2.0252  2.3330  0.8130
  232MOL0     H31995  10.113   1.790  -0.144  0.0191 -0.4615  0.0641
  232MOL0     H31996   9.482   1.863   0.465 -0.7120  1.4575  0.8385
  232MOL0     H31997   9.339   2.054   0.556 -2.5468  1.3228 -0.4060
  232MOL0     H31998   9.399   2.371   0.250 -0.1589 -1.4740 -0.4478
  232MOL0     H31999   9.639   2.445   0.218 -2.0021  1.0443  0.1000
  232MOL0     H32000   9.978   2.916   0.455  0.8013  0.1989 -0.6977
  232MOL0     H32001   9.767   2.871   0.533 -0.2023 -0.1884  1.7402
  232MOL0     H32002   9.390   3.151   0.788  0.6150 -0.2539  2.7148
  232MOL0     H32003   9.172   3.164   0.874 -1.3327 -0.4056  0.7401
  232MOL0     H32004   8.907   2.959   1.056 -1.4153  0.1369 -0.8450
  232MOL0     H32005   9.062   3.038   1.046  0.6344  0.7987 -3.2644
  232MOL0     H32006   8.792   3.129   0.965 -0.4297 -0.9380 -0.7202
  232MOL0     H32007   8.928   3.180   0.868  1.1751 -0.8838 -0.1119
  232MOL0     H32008   9.030   3.268   1.102  0.0210  4.9107 -1.1723
  232MOL0     H32009   8.910   3.361   1.035  1.6221 -0.9548 -2.0880
  232MOL0     H32010   8.851   3.147   1.250 -2.9740  0.2636  0.7369
  232MOL0     H32011   8.729   3.245   1.173 -0.6236 -0.1589  3.5658
  232MOL0     H32012   8.896   3.472   1.483 -1.1192  0.9168 -0.0983
  232MOL0     H32013   9.113   2.755   0.755  0.7670 -0.3533  4.2937
  232MOL0     H32014   9.440   2.676   0.730 -0.5968  1.4616  0.1950
  232MOL0     H32015   9.309   2.638   0.627 -0.3903 -1.9905  3.3051
  232MOL0     H32016   9.443   2.754   0.575  3.4142  2.8331  3.5882
  233MOL0     O32017  10.661   8.134   1.989  0.2391 -0.0330 -0.0971
  233MOL0     C32018  10.683   8.181   2.104  0.0385 -0.2534 -0.1505
  233MOL0     O32019  10.620   8.151   2.218  0.1554  0.2088  0.1250
  233MOL0     C32020  10.567   8.029   2.236 -0.1561  1.2841  0.5409
  233MOL0     C32021  10.457   8.011   2.328 -0.4134 -0.0274  0.0972
  233MOL0     C32022  10.405   7.881   2.354  0.4160 -0.6232  0.5028
  233MOL0     C32023  10.448   7.774   2.279 -0.0211  0.0743 -0.5963
  233MOL0     O32024  10.388   7.648   2.301  0.4401  0.1079  0.2206
  233MOL0     C32025  10.377   7.561   2.185 -0.2302  0.2896  0.4174
  233MOL0     C32026  10.242   7.494   2.194 -0.3105  0.1506 -0.9373
  233MOL0     C32027  10.116   7.583   2.204  0.0863 -0.3673 -0.3955
  233MOL0     C32028  10.115   7.702   2.112  1.0001 -0.4333  0.0975
  233MOL0     C32029   9.970   7.771   2.116 -1.0496  0.0271  0.2477
  233MOL0     C32030   9.983   7.900   2.048 -0.1871 -1.0402 -1.0231
  233MOL0     C32031   9.854   7.990   2.065  0.9029 -0.0338 -0.1712
  233MOL0     C32032   9.742   7.955   1.962  0.3525 -0.2167 -0.7250
  233MOL0     N32033   9.759   7.951   1.817  0.1952  0.0178  0.6280
  233MOL0     C32034   9.839   8.029   1.750  0.0097 -0.6821  0.1822
  233MOL0     C32035   9.830   7.973   1.630 -0.1824 -1.2261  0.6520
  233MOL0     C32036   9.904   8.022   1.507  0.5116 -0.6446  0.2271
  233MOL0     C32037  10.002   7.931   1.434 -0.0392  0.9254  0.1485
  233MOL0     C32038  10.079   8.012   1.317 -0.5686 -0.0955  0.1387
  233MOL0     C32039  10.216   7.957   1.287  1.0503 -0.2814 -0.7358
  233MOL0     O32040  10.320   8.054   1.267  0.1587  0.4046  0.1320
  233MOL0     C32041  10.324   8.127   1.155  0.2795 -0.5594  0.0870
  233MOL0     C32042  10.247   8.116   1.036 -0.3990  0.1527  0.0961
  233MOL0     C32043  10.280   8.187   0.919  0.2074  0.4815 -0.1814
  233MOL0     C32044  10.184   8.181   0.795  0.2950  0.7559 -0.1248
  233MOL0     C32045  10.389   8.274   0.917  0.6603 -0.4225 -0.2026
  233MOL0     C32046  10.442   8.363   0.801  0.6576  0.3008  0.9631
  233MOL0     O32047  10.516   8.466   0.831 -0.0802 -0.6276 -0.7643
  233MOL0     C32048  10.585   8.538   0.741  0.5414 -1.3723 -0.0227
  233MOL0     C32049  10.524   8.640   0.658 -0.2931  0.4934  0.8288
  233MOL0     C32050  10.597   8.711   0.554  0.2262 -0.0089  0.4356
  233MOL0     C32051  10.737   8.689   0.535  0.3918  0.3200 -0.0615
  233MOL0     O32052  10.803   8.755   0.439  0.0250 -0.0613 -0.3694
  233MOL0     C32053  10.940   8.794   0.489  0.2488 -0.7049 -0.4171
  233MOL0     C32054  10.978   8.924   0.432 -0.0844  0.0314  0.7623
  233MOL0     C32055  11.000   8.923   0.272  0.7823  0.2928 -0.4620
  233MOL0     C32056  11.072   9.050   0.237 -0.0520 -0.3753  0.2272
  233MOL0     C32057  11.219   9.063   0.277  0.1852  0.3514 -0.6556
  233MOL0     C32058  11.292   9.193   0.245  0.0875  0.4572  1.0553
  233MOL0     C32059  11.201   9.315   0.247 -1.0177  0.0393 -0.0236
  233MOL0     C32060  11.145   9.356   0.380 -0.5823 -0.7405 -1.1969
  233MOL0    Cl32061  11.259   9.427   0.497  0.5587 -0.5935 -0.6630
  233MOL0     C32062  10.799   8.592   0.623  0.4629  0.4438  0.0331
  233MOL0     C32063  10.723   8.531   0.731  1.2946 -1.6460 -0.3091
  233MOL0     O32064  10.424   8.325   0.683  0.8236 -1.1765 -0.5417
  233MOL0     C32065  10.470   8.284   1.040 -0.0028  0.0439  0.5298
  233MOL0     C32066  10.441   8.199   1.155 -1.7546 -0.8514 -0.2980
  233MOL0     N32067   9.735   7.871   1.630 -0.6543  0.1504  0.2210
  233MOL0     N32068   9.677   7.873   1.742 -0.1732  1.1482 -0.1862
  233MOL0     C32069  10.567   7.790   2.200 -0.7744 -0.2242 -0.6163
  233MOL0     C32070  10.614   7.910   2.168  0.0092 -0.6272 -0.0491
  233MOL0     C32071  10.791   8.289   2.122 -0.3956 -0.0087  0.2152
  233MOL0     C32072  10.752   8.393   2.212  0.0058  0.3378 -0.4815
  233MOL0     C32073  10.842   8.500   2.228 -0.8243  0.0478  0.1535
  233MOL0     C32074  10.971   8.498   2.171  0.0325 -0.1952 -0.1652
  233MOL0     O32075  11.071   8.582   2.205 -0.3359  0.7526 -0.4742
  233MOL0     C32076  11.043   8.695   2.288 -0.4520  0.5785  0.2195
  233MOL0     C32077  11.149   8.804   2.316 -0.1197 -0.9628  0.5751
  233MOL0     C32078  11.240   8.842   2.204 -0.0328 -0.3915  0.0472
  233MOL0     C32079  11.174   8.934   2.097  0.0430  0.3742 -0.0051
  233MOL0     C32080  11.068   8.858   2.011 -0.5612 -0.2200  0.3991
  233MOL0     C32081  10.994   8.787   1.948 -0.6014  0.3069  0.4563
  233MOL0     C32082  11.007   8.399   2.088  0.8782 -0.9173 -0.3712
  233MOL0     C32083  10.921   8.296   2.057 -0.0925  0.2333 -0.3915
  233MOL0     C32084  10.979   8.205   1.954  0.1425  0.9569  0.1453
  233MOL0     H32085  10.414   8.095   2.381  0.5360  0.8781 -0.5175
  233MOL0     H32086  10.325   7.878   2.428 -1.3896  0.4326 -1.3197
  233MOL0     H32087  10.461   7.492   2.188  0.1276  0.7190  0.3950
  233MOL0     H32088  10.369   7.620   2.093 -1.4387  1.8597  1.4843
  233MOL0     H32089  10.238   7.408   2.126  2.3955 -1.9862  1.3697
  233MOL0     H32090  10.234   7.447   2.293  2.4026  2.9080  0.7491
  233MOL0     H32091  10.025   7.522   2.192 -0.7857  0.0620  3.0844
  233MOL0     H32092  10.128   7.626   2.304  3.4033 -1.2553 -0.2937
  233MOL0     H32093  10.200   7.767   2.135  2.0336 -1.4374 -0.7359
  233MOL0     H32094  10.135   7.680   2.007 -1.4406  0.1885 -0.5561
  233MOL0     H32095   9.945   7.778   2.222 -2.1833  0.1368 -0.0101
  233MOL0     H32096   9.913   7.695   2.062 -0.5271 -1.8020  2.1522
  233MOL0     H32097  10.069   7.951   2.092 -0.3990 -1.2764 -0.3191
  233MOL0     H32098  10.004   7.894   1.940  1.7827  0.3304 -0.7699
  233MOL0     H32099   9.868   8.098   2.059  2.6548 -0.3160 -3.2892
  233MOL0     H32100   9.810   7.965   2.162 -0.1616 -3.2600 -1.3519
  233MOL0     H32101   9.713   7.855   1.997  0.2357  1.1298  3.6026
  233MOL0     H32102   9.654   8.015   1.986  1.2415  0.0960  2.2015
  233MOL0     H32103   9.908   8.108   1.777 -1.3864  0.2360  1.2386
  233MOL0     H32104   9.974   8.100   1.538  1.5248 -1.6843  0.6793
  233MOL0     H32105   9.843   8.068   1.429  0.0027 -2.6835 -0.6398
  233MOL0     H32106  10.077   7.890   1.502 -0.9005 -1.6065 -0.2986
  233MOL0     H32107   9.947   7.843   1.399  0.0106  1.4203 -1.2386
  233MOL0     H32108  10.014   8.007   1.229  1.6250 -0.6423 -1.5574
  233MOL0     H32109  10.102   8.116   1.341  0.4481 -0.1299 -0.6440
  233MOL0     H32110  10.243   7.891   1.370 -2.6818 -0.8005  0.2305
  233MOL0     H32111  10.222   7.883   1.206  0.3318 -1.8715  0.5944
  233MOL0     H32112  10.165   8.046   1.037  0.9749 -1.7274  4.4466
  233MOL0     H32113  10.106   8.106   0.815 -0.7517  1.3064 -1.8824
  233MOL0     H32114  10.246   8.142   0.714  1.5963 -1.9168  2.0240
  233MOL0     H32115  10.138   8.278   0.774  0.5346  0.7075 -0.8864
  233MOL0     H32116  10.419   8.665   0.671 -0.0997  1.2368  1.0343
  233MOL0     H32117  10.542   8.783   0.494 -0.7472 -0.4794  0.7335
  233MOL0     H32118  10.957   8.810   0.596  3.4009 -2.2560 -0.5765
  233MOL0     H32119  11.006   8.718   0.447  0.0066 -0.1907 -1.7844
  233MOL0     H32120  10.889   8.980   0.462  1.1534  0.4971  3.8953
  233MOL0     H32121  11.063   8.969   0.485 -1.4339  1.8031  1.5056
  233MOL0     H32122  10.898   8.924   0.232  1.2879 -0.1450 -1.8349
  233MOL0     H32123  11.052   8.833   0.239  0.0387 -1.5878  3.0053
  233MOL0     H32124  11.016   9.135   0.279  1.5693  0.9867 -0.2977
  233MOL0     H32125  11.063   9.051   0.128  1.6669 -0.4565  0.0653
  233MOL0     H32126  11.206   9.065   0.386 -0.9778  1.2492 -0.7946
  233MOL0     H32127  11.272   8.971   0.252 -3.1968 -1.8906 -0.0649
  233MOL0     H32128  11.342   9.180   0.149  1.6610  4.1325  1.2206
  233MOL0     H32129  11.376   9.202   0.315  1.8775  1.7643 -1.1463
  233MOL0     H32130  11.124   9.315   0.169 -0.2576  2.1748 -0.8473
  233MOL0     H32131  11.256   9.404   0.216 -0.6768 -0.5174 -1.1010
  233MOL0     H32132  11.077   9.281   0.424 -0.5276 -0.6820 -1.0118
  233MOL0     H32133  11.089   9.443   0.345  0.2465  0.9614  1.4828
  233MOL0     H32134  10.904   8.565   0.620  0.4580  0.1144  1.9003
  233MOL0     H32135  10.774   8.480   0.813 -0.8679  0.7733  2.7972
  233MOL0     H32136  10.563   8.339   1.027 -0.6318  1.0626  0.1559
  233MOL0     H32137  10.500   8.204   1.246 -0.4965  1.3084 -1.1611
  233MOL0     H32138  10.617   7.698   2.172 -1.3395 -1.5912  2.3914
  233MOL0     H32139  10.697   7.930   2.102 -1.4066  1.6516 -1.2773
  233MOL0     H32140  10.666   8.380   2.277  0.5109 -0.0771  0.1176
  233MOL0     H32141  10.810   8.574   2.302  0.4639  0.2713  0.5038
  233MOL0     H32142  10.956   8.749   2.252 -1.1808  0.6594  2.0152
  233MOL0     H32143  11.028   8.655   2.389  1.5556  1.1096  0.7895
  233MOL0     H32144  11.215   8.777   2.399  0.5866 -2.9751 -0.5541
  233MOL0     H32145  11.101   8.898   2.343 -0.0687 -1.0977  1.1395
  233MOL0     H32146  11.318   8.912   2.234  0.2651  0.5130 -2.5398
  233MOL0     H32147  11.295   8.760   2.156  1.8700  0.5388  0.5097
  233MOL0     H32148  11.245   8.971   2.022 -1.5119  1.4759 -0.9935
  233MOL0     H32149  11.120   9.019   2.139 -1.5217  0.9400 -2.8673
  233MOL0     H32150  10.918   8.736   1.893 -1.4779  1.5029  0.5178
  233MOL0     H32151  11.108   8.408   2.048  0.7361 -0.7647 -0.6949
  233MOL0     H32152  10.915   8.117   1.938  0.8281  0.1696  1.5343
  233MOL0     H32153  10.965   8.248   1.854  1.6893  3.1722  0.8224
  233MOL0     H32154  11.084   8.176   1.964  0.7589  2.9616  0.0018
  234MOL0     O32155   2.257  10.653   1.236  0.0094  0.3084  0.0602
  234MOL0     C32156   2.156  10.595   1.249  1.0453  0.0174 -0.7427
  234MOL0     O32157   2.058  10.631   1.339  0.4461  0.0228  0.0605
  234MOL0     C32158   2.091  10.716   1.442  0.9066  0.5452  0.6013
  234MOL0     C32159   1.992  10.805   1.479 -0.5402 -0.3489  0.8598
  234MOL0     C32160   2.003  10.890   1.583  1.0624 -1.2947 -0.4436
  234MOL0     C32161   2.125  10.893   1.658  0.3555  0.5072 -0.0344
  234MOL0     O32162   2.149  10.960   1.779  0.5885  0.2938 -0.1389
  234MOL0     C32163   2.041  11.049   1.818  0.1737  0.0566 -1.0234
  234MOL0     C32164   2.092  11.141   1.937  0.1628 -0.4528 -0.7820
  234MOL0     C32165   1.992  11.237   1.993 -0.1453 -0.7239  1.5019
  234MOL0     C32166   2.072  11.331   2.086  0.2326 -0.5801  0.3101
  234MOL0     C32167   1.973  11.440   2.136 -0.0929 -0.0591  0.7488
  234MOL0     C32168   1.930  11.543   2.029  0.6530 -0.3340 -0.5802
  234MOL0     C32169   1.873  11.672   2.091 -0.3619 -0.4220  0.1405
  234MOL0     C32170   1.727  11.638   2.142 -0.5000 -0.4666 -0.6490
  234MOL0     N32171   1.662  11.752   2.215  0.4639  1.0343  0.5556
  234MOL0     C32172   1.525  11.763   2.216 -1.1305 -0.5670 -0.4377
  234MOL0     C32173   1.515  11.875   2.296 -0.0398 -0.8388  0.3818
  234MOL0     C32174   1.404  11.963   2.338 -0.8458 -0.5616  1.1821
  234MOL0     C32175   1.360  11.969   2.487 -0.7508 -0.3592  0.4329
  234MOL0     C32176   1.252  11.872   2.521 -0.4940  0.5524 -0.3322
  234MOL0     C32177   1.300  11.733   2.530 -0.7418 -1.1232  0.5364
  234MOL0     O32178   1.213  11.653   2.602 -0.1190  0.4411 -0.5759
  234MOL0     C32179   1.106  11.594   2.536  0.2734  0.1593 -1.0303
  234MOL0     C32180   0.989  11.651   2.572 -0.4058 -0.4696 -0.4660
  234MOL0     C32181   0.865  11.593   2.532 -0.0372  0.6249  0.2798
  234MOL0     C32182   0.743  11.672   2.557  0.2326  0.8321  0.2305
  234MOL0     C32183   0.856  11.462   2.474  0.9474 -0.1551  0.0797
  234MOL0     C32184   0.723  11.389   2.444  0.3447 -0.8706  0.1382
  234MOL0     O32185   0.746  11.264   2.431  0.6834  0.4181  0.4217
  234MOL0     C32186   0.645  11.186   2.394  0.6043  0.7595  0.5847
  234MOL0     C32187   0.650  11.120   2.271 -1.0878  0.7013 -0.2887
  234MOL0     C32188   0.545  11.052   2.228 -0.4013  1.0289  0.0762
  234MOL0     C32189   0.432  11.033   2.301 -0.0712 -0.9924 -0.8492
  234MOL0     O32190   0.327  10.980   2.229 -1.1015  0.1041  0.9334
  234MOL0     C32191   0.203  10.962   2.290  0.1399  1.1638 -0.8569
  234MOL0     C32192   0.119  10.862   2.210 -0.0561  0.7332  0.1062
  234MOL0     C32193   0.153  10.719   2.269 -0.5757  0.4048 -0.4348
  234MOL0     C32194   0.115  10.604   2.172  0.7639 -0.0882 -0.0263
  234MOL0     C32195   0.140  10.474   2.241  0.0278 -1.3809 -0.1647
  234MOL0     C32196   0.109  10.365   2.142  0.6298 -0.1969 -1.1296
  234MOL0     C32197   0.160  10.229   2.198  0.6217 -0.8876  1.3984
  234MOL0     C32198   0.133  10.113   2.104 -0.7204 -0.1105  0.6326
  234MOL0    Cl32199   0.293  10.034   2.064 -0.1617  0.6132 -0.5605
  234MOL0     C32200   0.417  11.094   2.431 -0.8728  1.2570 -0.2864
  234MOL0     C32201   0.531  11.169   2.471 -0.1834  0.9993 -0.8378
  234MOL0     O32202   0.612  11.451   2.445 -1.2242 -0.2975  0.4482
  234MOL0     C32203   0.981  11.408   2.444  0.4312 -0.3352  0.6458
  234MOL0     C32204   1.106  11.470   2.471 -0.2426 -0.2638 -0.9718
  234MOL0     N32205   1.647  11.908   2.353  0.0888  0.6417  0.5881
  234MOL0     N32206   1.735  11.828   2.295  0.6216  0.5020  0.3145
  234MOL0     C32207   2.229  10.819   1.617 -0.3470  0.6540 -0.0607
  234MOL0     C32208   2.210  10.723   1.515  0.4263 -0.2123 -0.2483
  234MOL0     C32209   2.135  10.481   1.160 -0.3388 -0.0220 -0.1731
  234MOL0     C32210   2.137  10.511   1.027  0.3861 -0.3449 -0.9794
  234MOL0     C32211   2.093  10.418   0.931  0.2338  0.0758 -0.7052
  234MOL0     C32212   2.071  10.286   0.965 -0.0179  1.0332 -0.5168
  234MOL0     O32213   2.016  10.190   0.885  0.1866  0.8711  0.5188
  234MOL0     C32214   1.991  10.224   0.745 -0.0361  0.7609 -0.8786
  234MOL0     C32215   1.974  10.091   0.669  1.1028 -0.6923 -0.6427
  234MOL0     C32216   2.109  10.010   0.671 -0.3048 -0.2211  0.0867
  234MOL0     C32217   2.101   9.897   0.566  0.2098 -0.1377 -0.4151
  234MOL0     C32218   2.088   9.956   0.426  0.3858 -0.6093  0.4151
  234MOL0     C32219   2.092   9.994   0.312 -0.1432 -0.4238 -0.4769
  234MOL0     C32220   2.092  10.249   1.100 -0.5448  0.5285 -0.7104
  234MOL0     C32221   2.106  10.346   1.206 -1.0276 -0.5695 -0.4161
  234MOL0     C32222   2.138  10.310   1.353 -0.3952 -0.7151  0.6217
  234MOL0     H32223   1.904  10.794   1.417  0.1804 -0.1170 -0.2400
  234MOL0     H32224   1.914  10.938   1.621 -1.2768 -1.4278 -5.0178
  234MOL0     H32225   1.957  10.991   1.859  0.9107 -0.3514 -0.0601
  234MOL0     H32226   2.006  11.104   1.730 -1.4088 -0.8686 -1.0053
  234MOL0     H32227   2.118  11.070   2.016 -1.6579  0.6295  0.9079
  234MOL0     H32228   2.180  11.199   1.909  0.6699 -2.1454 -2.9834
  234MOL0     H32229   1.953  11.296   1.910  0.3863 -1.7715  0.4881
  234MOL0     H32230   1.912  11.184   2.047  0.4842 -0.1745  3.0226
  234MOL0     H32231   2.114  11.264   2.162  1.1392  1.4936  1.7373
  234MOL0     H32232   2.156  11.379   2.036 -2.7466  1.7650 -2.9318
  234MOL0     H32233   2.014  11.490   2.224  0.2715 -0.1451  0.6274
  234MOL0     H32234   1.882  11.384   2.161 -1.1421 -0.1165 -2.7119
  234MOL0     H32235   2.021  11.571   1.974  0.6316 -1.2642 -1.1010
  234MOL0     H32236   1.862  11.496   1.958  0.2819  0.0791 -0.5057
  234MOL0     H32237   1.875  11.752   2.017  0.8029 -1.8239 -1.4179
  234MOL0     H32238   1.931  11.710   2.176 -1.9689  2.2630  0.1485
  234MOL0     H32239   1.660  11.615   2.059  1.6176 -0.8683 -2.3120
  234MOL0     H32240   1.727  11.561   2.220  0.8755  1.5280  1.4829
  234MOL0     H32241   1.457  11.697   2.164 -1.2656  1.9840 -3.8531
  234MOL0     H32242   1.312  11.925   2.292 -1.4129  0.6470  1.2780
  234MOL0     H32243   1.430  12.064   2.304 -2.6431 -0.5205 -0.1836
  234MOL0     H32244   1.440  11.958   2.561  0.6048  3.3060 -0.2756
  234MOL0     H32245   1.332  12.073   2.501 -1.9817 -0.6313  0.0717
  234MOL0     H32246   1.219  11.891   2.624  0.1745 -0.8972  0.1893
  234MOL0     H32247   1.174  11.877   2.446  2.3656  1.2788 -3.4956
  234MOL0     H32248   1.315  11.700   2.427 -2.4158  0.3835 -0.2346
  234MOL0     H32249   1.397  11.742   2.580 -0.4688  2.5776 -0.4118
  234MOL0     H32250   0.998  11.748   2.619 -0.1925 -1.0910  0.7973
  234MOL0     H32251   0.691  11.709   2.468  2.1540 -1.9631 -2.2200
  234MOL0     H32252   0.777  11.760   2.612  1.2877  0.8841 -0.4886
  234MOL0     H32253   0.669  11.622   2.621  0.3773  1.0488  0.5740
  234MOL0     H32254   0.741  11.125   2.213  0.3764 -1.8448  1.5612
  234MOL0     H32255   0.550  11.009   2.128 -4.9509  0.3253 -0.0455
  234MOL0     H32256   0.229  10.921   2.388  1.5842  1.5487 -1.0511
  234MOL0     H32257   0.149  11.055   2.304 -2.3719  0.0350 -2.3222
  234MOL0     H32258   0.014  10.881   2.232  0.3127 -0.7941  3.8184
  234MOL0     H32259   0.126  10.864   2.101  1.8006 -1.2856  0.1240
  234MOL0     H32260   0.108  10.710   2.368  0.3619 -0.2678 -0.0607
  234MOL0     H32261   0.261  10.711   2.286 -0.8768 -1.8452  0.7920
  234MOL0     H32262   0.164  10.619   2.076 -0.9929  1.3975 -0.7526
  234MOL0     H32263   0.009  10.615   2.149  1.3935 -1.6365 -4.4679
  234MOL0     H32264   0.247  10.464   2.263  0.2160  0.2524 -0.2398
  234MOL0     H32265   0.080  10.469   2.332  1.5411 -0.2759  0.9383
  234MOL0     H32266   0.152  10.382   2.043  0.3127 -0.4604 -1.3133
  234MOL0     H32267   0.001  10.351   2.133  0.1559  1.7629  0.6675
  234MOL0     H32268   0.103  10.197   2.286  1.0134 -4.6308  0.4508
  234MOL0     H32269   0.265  10.229   2.227 -0.2733 -1.5506  5.1774
  234MOL0     H32270   0.079  10.136   2.012 -0.8618 -5.2041 -0.8466
  234MOL0     H32271   0.063  10.044   2.150 -1.0490  1.0284  1.9169
  234MOL0     H32272   0.315  11.112   2.464 -1.1466  1.3870 -1.1626
  234MOL0     H32273   0.524  11.229   2.561  2.6433 -0.3385  0.4022
  234MOL0     H32274   0.982  11.302   2.421 -0.9516 -0.1403 -0.4979
  234MOL0     H32275   1.195  11.408   2.467 -0.7709 -0.9715 -2.5015
  234MOL0     H32276   2.326  10.830   1.663  0.1366 -0.2772 -0.8355
  234MOL0     H32277   2.290  10.653   1.491 -0.2140 -0.5957 -1.3354
  234MOL0     H32278   2.164  10.610   0.991  1.2063 -0.2703 -0.2000
  234MOL0     H32279   2.068  10.455   0.832  1.8262  0.3848 -1.0165
  234MOL0     H32280   1.903  10.288   0.744 -0.4791  0.2197  0.4591
  234MOL0     H32281   2.080  10.275   0.706  0.1244 -0.1525 -1.7567
  234MOL0     H32282   1.966  10.122   0.564  0.8510  2.0116  0.0983
  234MOL0     H32283   1.893  10.031   0.711  1.0583 -2.2565 -2.8163
  234MOL0     H32284   2.202  10.064   0.650  0.3562 -0.8466  1.2961
  234MOL0     H32285   2.127   9.977   0.774  0.4911  1.7012  0.6146
  234MOL0     H32286   2.015   9.830   0.580  1.2920 -1.5712 -0.4145
  234MOL0     H32287   2.184   9.828   0.583  1.5971  2.0503  2.3600
  234MOL0     H32288   2.096  10.017   0.207 -0.7974 -1.8862 -0.8555
  234MOL0     H32289   2.090  10.143   1.125 -0.6481  0.7299  0.1715
  234MOL0     H32290   2.245  10.329   1.367  0.1364 -0.5191 -2.7844
  234MOL0     H32291   2.077  10.371   1.420  0.3104 -1.4854  1.9980
  234MOL0     H32292   2.105  10.212   1.390  1.1978 -1.4144  0.2737
  235MOL0     O32293   9.544  11.497   1.944 -0.4933 -0.3257  1.0047
  235MOL0     C32294   9.574  11.422   1.855 -0.0310  0.8605 -0.5116
  235MOL0     O32295   9.703  11.391   1.807  0.0563  0.8274 -0.4252
  235MOL0     C32296   9.812  11.459   1.855 -0.0312  0.8415  0.4232
  235MOL0     C32297   9.834  11.475   1.989 -0.7607  0.0932 -0.3467
  235MOL0     C32298   9.948  11.539   2.041  0.2127  0.3420  0.0618
  235MOL0     C32299  10.046  11.584   1.953  0.2656  0.1956 -0.2240
  235MOL0     O32300  10.163  11.645   1.990  0.6727  0.1675  0.1623
  235MOL0     C32301  10.153  11.734   2.103 -0.4033  0.5582  0.3961
  235MOL0     C32302  10.276  11.817   2.087  0.2450  0.4383 -0.3712
  235MOL0     C32303  10.286  11.906   2.212 -0.5241 -0.1564 -0.1081
  235MOL0     C32304  10.423  11.972   2.215  0.7503  0.0812  0.2323
  235MOL0     C32305  10.421  12.072   2.337 -0.1254 -0.2547  0.4880
  235MOL0     C32306  10.561  12.123   2.357  0.3823 -0.8581  0.0570
  235MOL0     C32307  10.558  12.220   2.475  0.3745  0.6129  0.6848
  235MOL0     C32308  10.549  12.147   2.609 -0.8548  0.0568  0.0666
  235MOL0     N32309  10.646  12.029   2.608 -0.1608  0.9056  0.4735
  235MOL0     C32310  10.781  12.037   2.610 -0.5691  0.5008  0.1521
  235MOL0     C32311  10.817  11.903   2.591 -0.3941  0.9760 -0.4551
  235MOL0     C32312  10.959  11.851   2.592 -0.6731 -0.6930  0.2515
  235MOL0     C32313  10.975  11.708   2.528 -0.4889  0.4880  0.5477
  235MOL0     C32314  10.916  11.594   2.628  0.0841 -0.7737  0.6844
  235MOL0     C32315  10.934  11.448   2.581 -0.6226  0.4105  0.9969
  235MOL0     O32316  10.883  11.427   2.442 -0.2927 -0.3192  0.4458
  235MOL0     C32317  10.754  11.376   2.451 -0.4400  0.3023  0.3751
  235MOL0     C32318  10.644  11.459   2.473 -0.1494 -0.0497 -0.1553
  235MOL0     C32319  10.514  11.407   2.471 -0.4982 -0.1230 -0.6166
  235MOL0     C32320  10.409  11.505   2.472 -0.0359  0.0884  0.4165
  235MOL0     C32321  10.489  11.272   2.464 -0.2201  0.4486  1.0359
  235MOL0     C32322  10.356  11.204   2.447 -0.2144  0.0413  1.0748
  235MOL0     O32323  10.264  11.270   2.372 -0.8156 -0.4699 -0.9177
  235MOL0     C32324  10.146  11.220   2.329  0.0958 -0.3649  0.9856
  235MOL0     C32325  10.018  11.239   2.390 -0.5097  0.0696 -0.3366
  235MOL0     C32326   9.894  11.190   2.343  0.0509 -0.0823 -1.0821
  235MOL0     C32327   9.901  11.125   2.219  0.6976 -0.2326 -0.2381
  235MOL0     O32328   9.798  11.072   2.146 -0.1124  0.6544 -0.2878
  235MOL0     C32329   9.671  11.074   2.213 -0.0393 -1.2765  0.6813
  235MOL0     C32330   9.562  11.036   2.114  0.1921 -0.1450 -0.2261
  235MOL0     C32331   9.592  10.898   2.047 -0.1859 -0.1434 -0.2868
  235MOL0     C32332   9.475  10.869   1.963  0.1780 -0.4539  0.0305
  235MOL0     C32333   9.516  10.770   1.861 -0.4656 -0.4801  0.1173
  235MOL0     C32334   9.412  10.737   1.755 -0.2788  0.2213  0.3801
  235MOL0     C32335   9.473  10.627   1.667 -0.8405  0.3745  0.1679
  235MOL0     C32336   9.379  10.585   1.553  1.1874 -0.6926 -0.1473
  235MOL0    Cl32337   9.376  10.707   1.433 -0.4078 -0.4668  0.0241
  235MOL0     C32338  10.023  11.109   2.148 -0.2809  0.5878 -0.4577
  235MOL0     C32339  10.150  11.148   2.212 -0.4745 -0.6491  0.4669
  235MOL0     O32340  10.341  11.089   2.499 -0.7308  0.4335 -0.3284
  235MOL0     C32341  10.604  11.192   2.468 -0.1400  0.6914 -0.6630
  235MOL0     C32342  10.732  11.238   2.458  0.4474  0.6087  1.0132
  235MOL0     N32343  10.703  11.827   2.574  0.1934 -0.1234  0.0965
  235MOL0     N32344  10.600  11.906   2.575  0.0434  0.6172  0.1264
  235MOL0     C32345  10.023  11.565   1.815 -0.7850  0.3600  0.7587
  235MOL0     C32346   9.911  11.500   1.764  0.0044 -1.3154  0.1266
  235MOL0     C32347   9.457  11.359   1.782  0.0740  0.9958  0.9167
  235MOL0     C32348   9.485  11.287   1.666  0.5419  0.5551  0.1653
  235MOL0     C32349   9.387  11.197   1.615 -0.6731  0.0883  0.5264
  235MOL0     C32350   9.268  11.176   1.674 -0.3748 -0.2913 -0.4295
  235MOL0     O32351   9.167  11.090   1.619 -0.2012 -0.2096 -0.8471
  235MOL0     C32352   9.197  11.018   1.496  0.5021 -0.0698  0.2030
  235MOL0     C32353   9.090  10.902   1.463 -0.4969  0.0707  0.0163
  235MOL0     C32354   9.074  10.811   1.588  1.2296 -1.0686 -0.6131
  235MOL0     C32355   8.974  10.694   1.554 -0.6453  0.1624  0.1417
  235MOL0     C32356   8.953  10.627   1.680 -0.1277  0.3287  0.5876
  235MOL0     C32357   8.929  10.584   1.790  0.0743  0.4198  0.1739
  235MOL0     C32358   9.225  11.262   1.775  0.2559  1.1430  0.6087
  235MOL0     C32359   9.323  11.346   1.836  0.7630 -0.3791 -0.2236
  235MOL0     C32360   9.274  11.425   1.961 -0.6070  0.4136  0.0002
  235MOL0     H32361   9.757  11.435   2.054  0.1245  1.3195  1.5576
  235MOL0     H32362   9.969  11.535   2.147  0.1686 -1.4309  0.0341
  235MOL0     H32363  10.145  11.689   2.203 -0.6094 -2.0003 -0.7129
  235MOL0     H32364  10.068  11.800   2.082  0.4882  1.7581  0.4367
  235MOL0     H32365  10.366  11.756   2.073 -0.1657  0.1340 -1.8969
  235MOL0     H32366  10.255  11.876   1.997 -0.6309  0.0222 -0.4462
  235MOL0     H32367  10.200  11.974   2.217 -1.8071 -1.8078  1.3043
  235MOL0     H32368  10.278  11.860   2.311  0.3647 -0.7090 -0.2853
  235MOL0     H32369  10.505  11.900   2.217  0.3534 -0.3924 -0.0513
  235MOL0     H32370  10.440  12.019   2.117  2.8654  0.6006  0.8001
  235MOL0     H32371  10.388  12.024   2.429  2.5946 -0.5349  1.4171
  235MOL0     H32372  10.349  12.151   2.315  0.5469 -0.4148 -2.8031
  235MOL0     H32373  10.634  12.043   2.368 -1.5150 -2.3974  2.5964
  235MOL0     H32374  10.580  12.191   2.274  1.4664  4.7473  4.2702
  235MOL0     H32375  10.466  12.279   2.464 -0.7746 -1.1710  0.2696
  235MOL0     H32376  10.638  12.294   2.466  0.4169  0.4741 -0.1045
  235MOL0     H32377  10.574  12.203   2.700 -3.2613 -0.9973  1.4979
  235MOL0     H32378  10.448  12.115   2.637 -0.7909  0.4137  0.7256
  235MOL0     H32379  10.829  12.132   2.627 -1.4284  1.0136 -0.2173
  235MOL0     H32380  10.996  11.857   2.695 -0.1337 -3.3162  0.2873
  235MOL0     H32381  11.013  11.932   2.542 -3.3470  1.8304  1.1546
  235MOL0     H32382  10.922  11.700   2.432 -0.1873  3.3526  0.0360
  235MOL0     H32383  11.081  11.687   2.510 -1.1121 -2.0185 -0.7651
  235MOL0     H32384  10.965  11.617   2.723 -1.2336  1.2908  0.9315
  235MOL0     H32385  10.808  11.615   2.626  0.1506 -0.2122  2.0539
  235MOL0     H32386  11.037  11.413   2.576 -1.0812 -0.9324  0.5338
  235MOL0     H32387  10.881  11.382   2.651 -2.4779 -0.3783 -1.0405
  235MOL0     H32388  10.643  11.567   2.478 -2.6953 -0.0793  1.5509
  235MOL0     H32389  10.446  11.596   2.521  0.9679 -0.2028  0.2245
  235MOL0     H32390  10.311  11.482   2.517 -0.9852  2.7672 -0.1191
  235MOL0     H32391  10.385  11.521   2.367 -0.2042 -1.7842  0.1308
  235MOL0     H32392  10.011  11.294   2.483 -2.9841 -0.4734 -0.1474
  235MOL0     H32393   9.799  11.205   2.392 -0.3794  3.5655 -2.7210
  235MOL0     H32394   9.668  11.014   2.304  2.5720 -0.4702  1.3844
  235MOL0     H32395   9.649  11.178   2.241  2.3936 -1.1153  2.2760
  235MOL0     H32396   9.461  11.033   2.157  0.0996 -0.2798 -0.4462
  235MOL0     H32397   9.562  11.118   2.042  2.1949 -1.2655 -1.5969
  235MOL0     H32398   9.602  10.815   2.119  3.4383  0.3042 -0.0765
  235MOL0     H32399   9.687  10.909   1.993 -1.8499 -3.1605 -4.3315
  235MOL0     H32400   9.447  10.958   1.908 -0.4099 -1.5526 -1.5169
  235MOL0     H32401   9.390  10.843   2.027  2.3336 -0.0928  3.3074
  235MOL0     H32402   9.605  10.802   1.806 -1.2281 -0.2605 -1.0294
  235MOL0     H32403   9.541  10.675   1.908  1.6986 -0.2487 -0.4464
  235MOL0     H32404   9.397  10.824   1.690  3.4594 -0.0275 -1.0617
  235MOL0     H32405   9.318  10.700   1.797 -0.1540  0.5896  0.9918
  235MOL0     H32406   9.492  10.538   1.728 -2.3173 -0.7827 -0.9857
  235MOL0     H32407   9.572  10.640   1.623 -0.9083 -1.5722 -0.6510
  235MOL0     H32408   9.277  10.573   1.590  0.5030  0.9417 -1.3642
  235MOL0     H32409   9.424  10.500   1.502  2.1966 -0.9733  1.1566
  235MOL0     H32410  10.027  11.066   2.049  1.7114  1.2811 -0.7321
  235MOL0     H32411  10.248  11.137   2.166 -0.2443 -0.2955  0.8688
  235MOL0     H32412  10.600  11.084   2.471  1.7920  0.5244 -1.9011
  235MOL0     H32413  10.819  11.175   2.446 -0.7848 -1.0727  0.5858
  235MOL0     H32414  10.094  11.611   1.747 -0.8285 -0.2131  0.3292
  235MOL0     H32415   9.906  11.487   1.657 -0.1650  0.3472 -0.0816
  235MOL0     H32416   9.582  11.299   1.618  0.9751 -0.6672  0.7024
  235MOL0     H32417   9.425  11.156   1.522 -0.7004 -0.1240  0.6094
  235MOL0     H32418   9.209  11.074   1.403 -0.1224 -0.0446  0.1319
  235MOL0     H32419   9.296  10.973   1.512  0.7131 -0.2561 -1.4485
  235MOL0     H32420   9.113  10.846   1.372 -1.5764  1.6682 -1.2976
  235MOL0     H32421   8.998  10.955   1.437 -1.6246 -0.6465  2.3380
  235MOL0     H32422   9.172  10.769   1.614  1.4529  0.2624  0.9242
  235MOL0     H32423   9.039  10.878   1.667  2.2699 -2.5351  1.1724
  235MOL0     H32424   9.013  10.624   1.480  1.7778 -0.5769  2.0006
  235MOL0     H32425   8.875  10.732   1.525  0.2897 -0.1113 -3.9899
  235MOL0     H32426   8.911  10.543   1.887 -0.6819 -2.1877 -0.9872
  235MOL0     H32427   9.126  11.246   1.816 -0.0210 -0.5427 -0.6077
  235MOL0     H32428   9.168  11.406   1.974 -0.5511  1.1478  1.7065
  235MOL0     H32429   9.324  11.373   2.043 -0.7607  0.1765 -0.0551
  235MOL0     H32430   9.305  11.529   1.948 -0.7311  0.7184  1.9170
  236MOL0     O32431   0.236   8.862   3.133  0.2877  0.0726  0.3121
  236MOL0     C32432   0.312   8.906   3.049 -0.8503  0.7907 -0.3856
  236MOL0     O32433   0.281   8.929   2.923  0.6144  0.9464  0.4403
  236MOL0     C32434   0.157   8.959   2.880  1.0181 -1.5039  0.1912
  236MOL0     C32435   0.120   8.927   2.746 -1.1433 -0.3758 -0.5662
  236MOL0     C32436  -0.012   8.957   2.703 -0.1832 -0.3237 -0.7248
  236MOL0     C32437  -0.091   9.051   2.768 -0.1252  0.5235 -0.1601
  236MOL0     O32438  -0.214   9.098   2.722 -0.2825  0.0909  0.5133
  236MOL0     C32439  -0.279   8.996   2.639  0.9970 -0.6243  0.6561
  236MOL0     C32440  -0.422   9.033   2.608  0.1642  0.2793  0.2463
  236MOL0     C32441  -0.431   9.134   2.502  0.8602  0.0020  0.3259
  236MOL0     C32442  -0.575   9.178   2.464 -0.0647 -0.3850  0.0790
  236MOL0     C32443  -0.564   9.287   2.343 -0.3480 -0.8336 -0.3516
  236MOL0     C32444  -0.693   9.365   2.339  0.8624  0.6242  0.2686
  236MOL0     C32445  -0.683   9.514   2.295  0.1519  0.1808  0.4626
  236MOL0     C32446  -0.836   9.560   2.273  0.6200  0.6710 -0.6780
  236MOL0     N32447  -0.904   9.505   2.156 -0.2363  0.0023  0.4326
  236MOL0     C32448  -0.922   9.567   2.032  0.4119  1.4346  1.2601
  236MOL0     C32449  -1.031   9.507   1.982 -0.5824  0.5971 -0.0161
  236MOL0     C32450  -1.106   9.546   1.848  0.1552 -0.3107 -0.4243
  236MOL0     C32451  -1.188   9.681   1.872 -0.0949  0.6579  0.2397
  236MOL0     C32452  -1.336   9.660   1.916 -0.0024 -0.5332 -0.8806
  236MOL0     C32453  -1.418   9.564   1.827 -0.1092 -0.0455  0.3446
  236MOL0     O32454  -1.559   9.583   1.856 -0.1374 -0.1794 -0.3847
  236MOL0     C32455  -1.622   9.515   1.954  0.8510  0.6190 -0.5251
  236MOL0     C32456  -1.749   9.560   1.983 -0.6878  0.3770  0.9049
  236MOL0     C32457  -1.831   9.503   2.084  0.4089 -0.4862  0.5676
  236MOL0     C32458  -1.966   9.563   2.121  0.0916  0.4343  0.5281
  236MOL0     C32459  -1.769   9.393   2.161  0.9521 -0.9921  0.2607
  236MOL0     C32460  -1.844   9.318   2.261  0.6468 -0.0773  0.2151
  236MOL0     O32461  -1.917   9.225   2.214 -0.1592  1.2167  0.2770
  236MOL0     C32462  -1.919   9.096   2.276  0.2862 -0.3933  1.5467
  236MOL0     C32463  -1.823   9.039   2.360  0.3171  0.2178  0.6766
  236MOL0     C32464  -1.839   8.917   2.411 -1.1264  0.5281 -0.4919
  236MOL0     C32465  -1.944   8.834   2.373 -0.0680  0.3042  0.8782
  236MOL0     O32466  -1.970   8.706   2.423 -0.8236  0.3013  1.5062
  236MOL0     C32467  -1.861   8.621   2.417  0.6629 -0.6694  0.5979
  236MOL0     C32468  -1.918   8.477   2.417 -0.5662 -0.1382  0.5072
  236MOL0     C32469  -1.805   8.370   2.421 -1.3098  0.7788  0.4721
  236MOL0     C32470  -1.777   8.331   2.569  0.2795  0.2654  0.0000
  236MOL0     C32471  -1.645   8.258   2.586 -0.7513 -0.3116  0.2708
  236MOL0     C32472  -1.616   8.198   2.725 -0.0846  0.5990 -0.5693
  236MOL0     C32473  -1.724   8.091   2.765 -0.4066 -0.3845 -0.5825
  236MOL0     C32474  -1.674   7.992   2.871 -0.1626  0.4792 -0.1879
  236MOL0    Cl32475  -1.674   8.072   3.026 -0.5053  0.0921 -0.0007
  236MOL0     C32476  -2.047   8.889   2.302  0.9705  0.6491  0.1213
  236MOL0     C32477  -2.031   9.015   2.245  0.0950 -0.2758 -0.6542
  236MOL0     O32478  -1.835   9.344   2.378 -0.3776  0.5972 -0.5401
  236MOL0     C32479  -1.635   9.358   2.144 -0.7557 -0.3428 -0.3613
  236MOL0     C32480  -1.558   9.416   2.039 -0.4203  0.6464  0.0657
  236MOL0     N32481  -1.077   9.410   2.068 -0.5468  0.3078 -0.4512
  236MOL0     N32482  -0.998   9.406   2.168  0.9256 -1.1928  0.2415
  236MOL0     C32483  -0.055   9.090   2.895  0.1016 -0.4154  0.2670
  236MOL0     C32484   0.068   9.048   2.946  0.9873 -0.5334 -0.7101
  236MOL0     C32485   0.453   8.949   3.083  0.1125  0.2243 -0.2513
  236MOL0     C32486   0.539   8.981   2.974  0.9455  0.3867 -0.1986
  236MOL0     C32487   0.655   9.052   2.984  0.3171 -0.3558 -0.8823
  236MOL0     C32488   0.695   9.093   3.118  0.0140  0.0625 -0.1150
  236MOL0     O32489   0.811   9.162   3.148  0.1426 -0.8877 -0.3368
  236MOL0     C32490   0.927   9.130   3.070  0.5046  0.9415  0.3742
  236MOL0     C32491   1.046   9.195   3.126  0.4853  0.7844 -0.0561
  236MOL0     C32492   1.059   9.346   3.080 -1.3824 -0.6355  0.1529
  236MOL0     C32493   1.203   9.413   3.091 -0.1164 -0.4516 -0.8231
  236MOL0     C32494   1.314   9.346   3.025 -1.0492  0.0196 -0.2000
  236MOL0     C32495   1.410   9.292   2.972  0.3626  0.6076  0.1311
  236MOL0     C32496   0.626   9.048   3.225 -0.0903  0.1798  0.3684
  236MOL0     C32497   0.500   8.982   3.212  0.0255 -0.0523 -0.3783
  236MOL0     C32498   0.425   8.958   3.341  0.0783 -0.1751 -0.4181
  236MOL0     H32499   0.185   8.867   2.683  1.5872  4.5644 -3.0030
  236MOL0     H32500  -0.051   8.906   2.616 -2.0953 -0.7929  0.3500
  236MOL0     H32501  -0.289   8.896   2.683  0.8294 -1.5715 -1.3731
  236MOL0     H32502  -0.221   8.999   2.546  0.5018 -2.4231  0.2488
  236MOL0     H32503  -0.476   8.951   2.561  0.1330 -0.6141  1.7505
  236MOL0     H32504  -0.480   9.049   2.700 -1.1094 -0.4341 -0.4150
  236MOL0     H32505  -0.392   9.228   2.544  1.3670 -0.2102  0.3353
  236MOL0     H32506  -0.378   9.098   2.413 -1.0094 -1.0713 -0.4064
  236MOL0     H32507  -0.643   9.103   2.422 -1.8680  2.4604 -2.5041
  236MOL0     H32508  -0.624   9.231   2.547 -2.8030  4.6972 -4.2106
  236MOL0     H32509  -0.543   9.243   2.246 -1.3823 -3.8216  0.6620
  236MOL0     H32510  -0.484   9.360   2.362 -1.2155 -0.6722  3.6282
  236MOL0     H32511  -0.750   9.314   2.261  3.4074  2.0198 -2.7096
  236MOL0     H32512  -0.748   9.357   2.434 -0.9230 -1.8782 -0.8531
  236MOL0     H32513  -0.632   9.495   2.200  1.3474  0.9587  0.9368
  236MOL0     H32514  -0.618   9.566   2.365  2.6213 -2.9042  0.6868
  236MOL0     H32515  -0.894   9.549   2.365 -0.5629  1.6125 -1.2888
  236MOL0     H32516  -0.832   9.669   2.269 -1.8049  0.9504  1.8238
  236MOL0     H32517  -0.888   9.662   1.993 -0.4812  1.1467 -0.2894
  236MOL0     H32518  -1.174   9.464   1.822  4.3113 -3.3034 -2.9187
  236MOL0     H32519  -1.035   9.561   1.767  0.4542 -0.9750 -0.2918
  236MOL0     H32520  -1.143   9.738   1.953 -0.4333  1.4725 -0.1289
  236MOL0     H32521  -1.185   9.748   1.785 -0.8370  1.8955  1.1399
  236MOL0     H32522  -1.348   9.639   2.023  0.0136  1.1018 -0.5410
  236MOL0     H32523  -1.376   9.761   1.917  1.9731  0.6446  5.7252
  236MOL0     H32524  -1.401   9.571   1.719 -0.5928 -1.7195  0.1304
  236MOL0     H32525  -1.399   9.461   1.859 -2.0668 -0.9859 -1.2972
  236MOL0     H32526  -1.786   9.645   1.926 -0.8166  1.2116  2.1837
  236MOL0     H32527  -2.041   9.487   2.145  0.4390  0.6858  2.5199
  236MOL0     H32528  -2.010   9.618   2.037 -1.1614 -1.1999  0.0495
  236MOL0     H32529  -1.959   9.634   2.204 -3.8424  0.9613  0.6111
  236MOL0     H32530  -1.739   9.097   2.398 -0.9029  0.9042  2.4736
  236MOL0     H32531  -1.782   8.871   2.491 -3.3811 -0.2609  0.7442
  236MOL0     H32532  -1.807   8.640   2.324  0.9299 -2.7889  0.2731
  236MOL0     H32533  -1.783   8.644   2.491  2.4449  0.2034 -1.4204
  236MOL0     H32534  -1.998   8.482   2.492 -2.0924  3.3503 -1.1098
  236MOL0     H32535  -1.972   8.455   2.324  1.7208 -1.5226 -0.5925
  236MOL0     H32536  -1.718   8.412   2.370 -2.5191  2.5057 -0.2980
  236MOL0     H32537  -1.830   8.279   2.365  0.7359  2.1572 -2.9832
  236MOL0     H32538  -1.851   8.258   2.603  3.6761 -3.5319 -0.0404
  236MOL0     H32539  -1.784   8.422   2.628  1.5477  1.1633 -1.1846
  236MOL0     H32540  -1.638   8.178   2.511  0.7182 -0.9372  1.0400
  236MOL0     H32541  -1.567   8.333   2.569 -1.4434  0.1776 -0.8968
  236MOL0     H32542  -1.615   8.281   2.797  2.8142  1.0283 -0.9744
  236MOL0     H32543  -1.514   8.158   2.725 -0.1697  0.1141  2.3466
  236MOL0     H32544  -1.731   8.028   2.676 -1.3443 -1.2331  0.0724
  236MOL0     H32545  -1.816   8.143   2.793  0.4977 -0.2890  2.5921
  236MOL0     H32546  -1.574   7.963   2.838 -0.0899  0.6991 -0.1697
  236MOL0     H32547  -1.733   7.900   2.873  0.3820  0.1362  1.3746
  236MOL0     H32548  -2.134   8.825   2.290 -0.9896  2.5463  2.8562
  236MOL0     H32549  -2.115   9.063   2.196  0.3171  1.4142  0.5123
  236MOL0     H32550  -1.587   9.277   2.198  1.5449 -1.1036 -3.3010
  236MOL0     H32551  -1.457   9.379   2.028 -0.4171  0.5396  0.4551
  236MOL0     H32552  -0.114   9.165   2.948 -0.1665 -0.2588 -0.2533
  236MOL0     H32553   0.109   9.100   3.033 -1.7269  1.5879 -0.5424
  236MOL0     H32554   0.515   8.948   2.873 -0.2840  0.2232  0.1336
  236MOL0     H32555   0.701   9.086   2.892 -0.7327 -3.8976 -2.8793
  236MOL0     H32556   0.945   9.023   3.087 -1.4713  0.8258  2.1668
  236MOL0     H32557   0.928   9.163   2.966 -0.6859  2.7127  0.8823
  236MOL0     H32558   1.140   9.154   3.089  0.6720  0.8119  0.3883
  236MOL0     H32559   1.058   9.200   3.234  1.6612  0.0322 -0.1406
  236MOL0     H32560   1.031   9.357   2.975 -1.7626 -0.6240  0.2533
  236MOL0     H32561   0.978   9.401   3.128 -2.1241 -0.1856 -1.5321
  236MOL0     H32562   1.216   9.406   3.200  0.8124 -0.6759 -0.9451
  236MOL0     H32563   1.201   9.520   3.068 -1.0926 -0.1221  0.5978
  236MOL0     H32564   1.498   9.252   2.926 -0.8219 -1.1755 -0.7153
  236MOL0     H32565   0.666   9.070   3.324  1.7740 -2.1654  0.2422
  236MOL0     H32566   0.330   9.013   3.347  1.2071  1.7884  0.2077
  236MOL0     H32567   0.410   8.850   3.358  1.2998 -0.2102  0.5642
  236MOL0     H32568   0.477   8.993   3.430 -0.9421 -1.8751  0.9291
  237MOL0     O32569   4.262  11.050   8.305 -0.0614 -0.4473  0.1458
  237MOL0     C32570   4.172  10.977   8.267  0.4043 -0.3817 -0.1809
  237MOL0     O32571   4.169  10.846   8.275  0.9276  0.3460  0.1765
  237MOL0     C32572   4.270  10.791   8.357  1.7844  0.9095  0.1745
  237MOL0     C32573   4.220  10.703   8.463  0.0088  0.1953  0.3466
  237MOL0     C32574   4.308  10.628   8.548 -0.4126  0.0636 -0.1148
  237MOL0     C32575   4.444  10.634   8.526  1.3142  0.7725 -0.4239
  237MOL0     O32576   4.520  10.564   8.615 -0.1098 -0.3299 -0.2526
  237MOL0     C32577   4.589  10.442   8.572  0.2979 -0.6418  0.1817
  237MOL0     C32578   4.725  10.439   8.652 -0.2789  0.4718 -0.6787
  237MOL0     C32579   4.848  10.377   8.585  0.2362  1.2823 -0.3676
  237MOL0     C32580   4.943  10.492   8.532  0.4526  0.1021 -1.0252
  237MOL0     C32581   5.052  10.442   8.428  1.1528 -0.2786 -0.0016
  237MOL0     C32582   5.127  10.555   8.345 -0.6337 -0.2022 -1.0566
  237MOL0     C32583   5.193  10.669   8.422 -0.2956  0.0415  1.0185
  237MOL0     C32584   5.294  10.612   8.519  0.0280  0.3716  0.1722
  237MOL0     N32585   5.360  10.703   8.614 -1.0269  0.6784 -0.2897
  237MOL0     C32586   5.385  10.680   8.747 -1.3019 -0.1658  0.8397
  237MOL0     C32587   5.448  10.792   8.789 -0.5368  1.1071 -0.1149
  237MOL0     C32588   5.488  10.829   8.927  0.1552  0.9611 -0.8287
  237MOL0     C32589   5.627  10.767   8.966 -0.1016  0.0150 -0.2942
  237MOL0     C32590   5.626  10.613   8.964  0.1959  1.4741  1.4380
  237MOL0     C32591   5.741  10.545   9.047  0.2158 -1.8445  0.0355
  237MOL0     O32592   5.721  10.402   9.036 -0.2276  0.2420  0.1448
  237MOL0     C32593   5.773  10.331   8.936  0.3416 -0.2491 -1.1445
  237MOL0     C32594   5.736  10.192   8.937  0.2375 -0.6772  0.0321
  237MOL0     C32595   5.764  10.111   8.832 -1.0013  0.6687  0.2926
  237MOL0     C32596   5.693   9.974   8.833 -0.6132 -0.4247 -0.4315
  237MOL0     C32597   5.862  10.142   8.737  0.6080  0.0138  0.2831
  237MOL0     C32598   5.908  10.038   8.627 -0.4926  0.6428  0.4299
  237MOL0     O32599   5.978  10.089   8.520  0.3996 -0.1048 -0.1626
  237MOL0     C32600   6.081  10.014   8.461 -0.5883 -0.7262 -0.7486
  237MOL0     C32601   6.128  10.062   8.344 -0.2806  0.3083  0.0794
  237MOL0     C32602   6.228  10.001   8.272 -0.0011  0.2200 -0.6950
  237MOL0     C32603   6.285   9.888   8.331 -0.5941  0.8789  0.4733
  237MOL0     O32604   6.398   9.834   8.267 -0.0992 -0.0948 -0.6396
  237MOL0     C32605   6.430   9.694   8.269 -0.5413 -0.7330 -0.5771
  237MOL0     C32606   6.554   9.677   8.175  0.0372 -0.6294 -0.2697
  237MOL0     C32607   6.588   9.533   8.145  0.0624 -1.0491  0.7038
  237MOL0     C32608   6.695   9.474   8.229  0.8001  0.5130  0.1840
  237MOL0     C32609   6.728   9.334   8.169 -0.0594  0.5711  0.4198
  237MOL0     C32610   6.866   9.289   8.211  0.2874  1.1037  0.4532
  237MOL0     C32611   6.900   9.148   8.166  0.4563 -0.2656 -0.1806
  237MOL0     C32612   7.005   9.092   8.248  0.1295  0.5501  0.1210
  237MOL0    Cl32613   6.931   9.033   8.401 -0.9999 -0.2670  0.3216
  237MOL0     C32614   6.232   9.834   8.451  0.1189  0.0927  0.0948
  237MOL0     C32615   6.134   9.896   8.524 -0.3032 -0.5654  0.3127
  237MOL0     O32616   5.883   9.919   8.648  0.0827 -0.0397 -0.5365
  237MOL0     C32617   5.911  10.273   8.735 -0.2891  0.5947 -1.1501
  237MOL0     C32618   5.859  10.368   8.839 -1.7143 -0.4367  0.4036
  237MOL0     N32619   5.461  10.878   8.686 -0.6671  0.3478  0.0797
  237MOL0     N32620   5.423  10.813   8.576  0.3528 -0.5123  0.0458
  237MOL0     C32621   4.495  10.719   8.431 -0.0270  0.8121 -0.2100
  237MOL0     C32622   4.414  10.793   8.344 -0.0905 -0.1406  1.9089
  237MOL0     C32623   4.061  11.053   8.200  0.7878 -0.8839  0.8266
  237MOL0     C32624   4.098  11.169   8.128  0.2945 -0.3047  0.2201
  237MOL0     C32625   4.021  11.230   8.033 -0.0768  0.7281 -0.0270
  237MOL0     C32626   3.892  11.188   8.007 -0.5981 -0.4859 -0.0275
  237MOL0     O32627   3.814  11.244   7.917 -0.3218  0.0568 -0.4108
  237MOL0     C32628   3.857  11.346   7.825  0.0099 -0.3271  0.2008
  237MOL0     C32629   3.735  11.399   7.744 -0.9035  0.0951 -0.7266
  237MOL0     C32630   3.632  11.505   7.815 -0.2199  0.8208  0.6089
  237MOL0     C32631   3.584  11.627   7.725 -0.8823  0.6942 -0.0117
  237MOL0     C32632   3.449  11.670   7.768  0.6241  0.4201  0.2903
  237MOL0     C32633   3.344  11.709   7.812  0.2234  0.8821 -0.0787
  237MOL0     C32634   3.844  11.091   8.096 -0.1939  0.8716  0.4240
  237MOL0     C32635   3.919  11.016   8.198 -1.3673  0.3390 -0.0440
  237MOL0     C32636   3.872  10.900   8.271 -0.5723 -0.3365  0.0146
  237MOL0     H32637   4.113  10.700   8.476  0.1039 -0.3634  1.0545
  237MOL0     H32638   4.261  10.559   8.618 -3.5295  2.3901  0.2543
  237MOL0     H32639   4.605  10.445   8.464  3.4906  2.7740  0.5414
  237MOL0     H32640   4.530  10.359   8.612 -0.3347  0.7257  2.2956
  237MOL0     H32641   4.759  10.539   8.682 -0.9821  1.5415 -3.2478
  237MOL0     H32642   4.706  10.379   8.742  2.0647  0.5341 -0.0694
  237MOL0     H32643   4.896  10.315   8.661 -2.2887 -0.4438 -0.0441
  237MOL0     H32644   4.807  10.314   8.505  1.3531  2.7157 -2.1314
  237MOL0     H32645   4.879  10.572   8.494 -1.2511  0.3792  2.0648
  237MOL0     H32646   4.995  10.537   8.617 -1.7425  1.1063 -0.1159
  237MOL0     H32647   4.992  10.384   8.357  1.3185 -2.3910  1.4781
  237MOL0     H32648   5.114  10.367   8.477 -1.3709 -1.7580  1.1214
  237MOL0     H32649   5.211  10.500   8.304  1.9331  1.6829  1.3149
  237MOL0     H32650   5.058  10.583   8.264 -2.7478 -0.6622  0.4949
  237MOL0     H32651   5.124  10.738   8.470  1.2467  3.5420 -1.3947
  237MOL0     H32652   5.235  10.735   8.346 -2.3687  0.1133 -0.1409
  237MOL0     H32653   5.257  10.526   8.576  0.8698 -0.2844 -0.2509
  237MOL0     H32654   5.372  10.568   8.457 -1.7779 -4.1586  0.7863
  237MOL0     H32655   5.349  10.605   8.817 -1.7300  0.3770  1.2245
  237MOL0     H32656   5.412  10.797   8.998 -2.1721  3.3940 -2.0443
  237MOL0     H32657   5.495  10.937   8.940 -1.8705  0.8729  1.8965
  237MOL0     H32658   5.690  10.809   8.887 -0.2621 -0.7329 -0.8404
  237MOL0     H32659   5.671  10.808   9.057 -0.6608 -0.5945  0.2677
  237MOL0     H32660   5.527  10.578   8.995 -0.0548 -0.8394 -1.4853
  237MOL0     H32661   5.633  10.583   8.859 -1.2739  1.9899  1.1769
  237MOL0     H32662   5.834  10.586   9.007  1.0322 -4.6830 -1.1859
  237MOL0     H32663   5.730  10.563   9.154  0.6388 -5.2829  0.7823
  237MOL0     H32664   5.672  10.149   9.013  0.9364 -3.8597 -1.0004
  237MOL0     H32665   5.663   9.935   8.735 -0.0039 -2.4269  0.1500
  237MOL0     H32666   5.595   9.992   8.877 -0.3300  1.2213 -0.4029
  237MOL0     H32667   5.741   9.906   8.904 -0.5060 -1.8116 -1.7763
  237MOL0     H32668   6.074  10.145   8.301  0.2758  0.3640 -0.5218
  237MOL0     H32669   6.269  10.035   8.177  1.6914  1.9708  0.5957
  237MOL0     H32670   6.458   9.663   8.370  1.2613 -2.5664 -1.5341
  237MOL0     H32671   6.346   9.630   8.239 -0.9161 -0.3804 -0.2695
  237MOL0     H32672   6.525   9.714   8.077  3.8062 -1.6261 -1.9615
  237MOL0     H32673   6.638   9.736   8.213  0.8798 -1.2249 -1.1665
  237MOL0     H32674   6.627   9.534   8.043  1.2949 -1.8779  1.1378
  237MOL0     H32675   6.499   9.471   8.139  1.1980 -2.6034 -1.3162
  237MOL0     H32676   6.654   9.461   8.329 -0.0822  1.4165 -0.0474
  237MOL0     H32677   6.783   9.538   8.226  0.9589  0.5745  3.2812
  237MOL0     H32678   6.661   9.255   8.202 -1.6601  0.9125 -1.7583
  237MOL0     H32679   6.739   9.339   8.060  1.0396  0.3301  0.5122
  237MOL0     H32680   6.873   9.295   8.320  1.3628  1.3040  0.3876
  237MOL0     H32681   6.935   9.357   8.161 -0.5143  0.1191 -2.1550
  237MOL0     H32682   6.938   9.164   8.065  0.6121  2.6117  0.2392
  237MOL0     H32683   6.818   9.075   8.166 -0.9352  1.1776  1.5419
  237MOL0     H32684   7.074   9.171   8.277  0.7425 -0.9760  3.2137
  237MOL0     H32685   7.056   9.008   8.200 -1.2061 -0.7870  0.9710
  237MOL0     H32686   6.271   9.746   8.501 -0.8769  0.3133  1.3294
  237MOL0     H32687   6.106   9.849   8.618 -0.4550 -1.7239 -0.3023
  237MOL0     H32688   5.996  10.302   8.674  0.4635 -1.8004 -1.3312
  237MOL0     H32689   5.904  10.466   8.834 -2.2593 -0.1043  1.5611
  237MOL0     H32690   4.603  10.722   8.431 -0.0090  1.5454  1.6913
  237MOL0     H32691   4.474  10.836   8.266 -0.1320 -1.8140  0.9096
  237MOL0     H32692   4.201  11.201   8.128  0.8480 -1.9377 -1.4408
  237MOL0     H32693   4.057  11.311   7.971  0.4634 -2.2495 -4.0536
  237MOL0     H32694   3.902  11.427   7.884  0.4398  2.2182 -3.3293
  237MOL0     H32695   3.928  11.317   7.747  1.3702  0.9963  0.8763
  237MOL0     H32696   3.681  11.309   7.711  2.7098 -2.5023 -0.1729
  237MOL0     H32697   3.784  11.449   7.660 -0.6756  0.9803 -0.0828
  237MOL0     H32698   3.545  11.441   7.834  1.2566 -0.9326  1.9617
  237MOL0     H32699   3.675  11.535   7.912 -2.3146 -1.0766  2.2473
  237MOL0     H32700   3.576  11.601   7.619 -0.0713  2.9760 -0.6944
  237MOL0     H32701   3.655  11.709   7.742 -0.1128  0.2909 -1.1633
  237MOL0     H32702   3.251  11.752   7.843 -1.0173 -2.1784  0.7525
  237MOL0     H32703   3.746  11.052   8.071  1.2525 -2.6158 -0.4819
  237MOL0     H32704   3.763  10.890   8.270 -0.7593  0.5421  2.9494
  237MOL0     H32705   3.919  10.813   8.224  1.5082  1.1407 -0.8062
  237MOL0     H32706   3.902  10.907   8.376 -0.5833 -2.1801  0.1876
  238MOL0     O32707  10.118   0.934   0.720  0.8892 -0.3991 -0.3321
  238MOL0     C32708  10.035   0.958   0.641 -0.6560 -0.6058 -0.0782
  238MOL0     O32709  10.068   0.981   0.511  0.0822  0.9293  0.2776
  238MOL0     C32710  10.198   0.957   0.473  0.9104  0.8768 -0.8225
  238MOL0     C32711  10.232   0.839   0.407  0.9956 -0.1687 -0.7453
  238MOL0     C32712  10.360   0.802   0.377 -0.4783  0.5456  0.3433
  238MOL0     C32713  10.465   0.897   0.394 -0.4283  0.0146 -0.0026
  238MOL0     O32714  10.590   0.868   0.364 -0.0872 -0.4034 -0.3723
  238MOL0     C32715  10.684   0.969   0.352 -0.1384  0.0486  0.8213
  238MOL0     C32716  10.763   0.944   0.227  1.0346  0.4621 -0.4486
  238MOL0     C32717  10.863   0.825   0.257 -0.9916  0.4010 -0.3105
  238MOL0     C32718  11.010   0.871   0.279 -0.6530 -0.0272  0.1506
  238MOL0     C32719  11.121   0.765   0.304  0.8518  0.5585 -0.0952
  238MOL0     C32720  11.135   0.686   0.176 -0.4305 -0.1990  0.1479
  238MOL0     C32721  11.248   0.587   0.192 -0.5900  1.1346 -0.8755
  238MOL0     C32722  11.272   0.526   0.048 -0.1648 -0.1850  0.4772
  238MOL0     N32723  11.379   0.616  -0.011 -0.8021 -0.6361 -0.0963
  238MOL0     C32724  11.374   0.739  -0.067  0.7755 -0.7634 -0.4070
  238MOL0     C32725  11.489   0.801  -0.041 -0.0456 -0.4439  0.3644
  238MOL0     C32726  11.520   0.948  -0.047  0.6185 -0.3727 -0.2416
  238MOL0     C32727  11.492   1.015   0.085  0.0228  0.5885  0.5600
  238MOL0     C32728  11.342   1.037   0.121  0.1213  0.0810  0.7006
  238MOL0     C32729  11.334   1.139   0.244  0.8853  0.2216 -0.4295
  238MOL0     O32730  11.196   1.141   0.292  0.3349  0.0282 -0.3009
  238MOL0     C32731  11.160   1.233   0.388 -0.8162 -0.8409 -0.0075
  238MOL0     C32732  11.261   1.311   0.454 -0.2933 -0.0549 -0.6992
  238MOL0     C32733  11.231   1.398   0.561  0.2234 -0.6981  1.3136
  238MOL0     C32734  11.360   1.454   0.626 -0.4003 -0.3103  0.2347
  238MOL0     C32735  11.097   1.425   0.592 -0.2592  0.0992  0.3080
  238MOL0     C32736  11.062   1.508   0.711 -0.2905 -0.0532  0.0840
  238MOL0     O32737  10.928   1.513   0.746  0.8130  0.8272  0.1741
  238MOL0     C32738  10.900   1.600   0.853 -0.5486  0.3403 -0.4537
  238MOL0     C32739  10.906   1.554   0.986  0.0795 -0.4637 -0.3713
  238MOL0     C32740  10.870   1.634   1.098  0.1844 -0.0447 -0.2280
  238MOL0     C32741  10.835   1.772   1.083 -0.8718 -0.4077  0.5556
  238MOL0     O32742  10.811   1.864   1.180  0.4694 -0.5328  0.4923
  238MOL0     C32743  10.815   1.810   1.313 -0.4349 -0.3302  0.1691
  238MOL0     C32744  10.789   1.917   1.415  0.4675 -0.3516  0.8332
  238MOL0     C32745  10.638   1.971   1.402 -0.2757  0.2150 -0.0557
  238MOL0     C32746  10.609   2.018   1.550  0.0072  0.2362  1.0536
  238MOL0     C32747  10.481   2.102   1.564  0.0934 -0.9036  0.1339
  238MOL0     C32748  10.476   2.152   1.711 -0.1873 -0.2636  0.5037
  238MOL0     C32749  10.560   2.273   1.716 -0.6807 -1.0300 -0.3038
  238MOL0     C32750  10.510   2.378   1.816 -0.2987 -1.0579  0.4518
  238MOL0    Cl32751  10.400   2.506   1.735 -0.0050 -0.1292 -0.2877
  238MOL0     C32752  10.827   1.820   0.944  0.5353  0.1204  0.2320
  238MOL0     C32753  10.858   1.732   0.840 -0.3677  0.1021  0.3943
  238MOL0     O32754  11.151   1.579   0.761  0.8685  0.6376 -0.5780
  238MOL0     C32755  10.995   1.359   0.515 -0.6101  0.4616  0.5919
  238MOL0     C32756  11.030   1.266   0.419 -0.2051 -0.0528  0.2025
  238MOL0     N32757  11.577   0.699  -0.003  0.0699 -0.8951  0.1199
  238MOL0     N32758  11.508   0.594   0.018  0.3712  0.8056  0.0332
  238MOL0     C32759  10.432   1.020   0.454  0.4493 -0.0062 -0.2706
  238MOL0     C32760  10.304   1.049   0.489 -0.5273  0.0225 -0.7219
  238MOL0     C32761   9.898   0.944   0.672  0.7537  0.4754 -1.3091
  238MOL0     C32762   9.795   0.945   0.574 -0.2917 -0.5285 -0.7915
  238MOL0     C32763   9.657   0.942   0.596  0.5838  0.5447  0.5526
  238MOL0     C32764   9.607   0.951   0.717  0.3133 -0.4057  0.2623
  238MOL0     O32765   9.473   0.963   0.731 -0.0345 -0.8804  0.4128
  238MOL0     C32766   9.428   1.101   0.754  0.1831 -0.4897  0.2045
  238MOL0     C32767   9.354   1.155   0.629 -0.8649  1.1914 -1.0488
  238MOL0     C32768   9.267   1.055   0.561 -0.0518  0.9230  0.6241
  238MOL0     C32769   9.150   1.002   0.650  1.0330  0.8678  0.1576
  238MOL0     C32770   9.033   1.095   0.645 -0.2694  0.3395  0.1188
  238MOL0     C32771   8.961   1.187   0.637 -0.7751  0.1259  0.1051
  238MOL0     C32772   9.698   0.938   0.821  0.8353  0.4871  0.4390
  238MOL0     C32773   9.844   0.928   0.802  0.1597  0.1108  0.1654
  238MOL0     C32774   9.924   0.908   0.929  0.2075  0.6829 -0.7846
  238MOL0     H32775  10.142   0.784   0.382  0.6947 -0.2146  0.3757
  238MOL0     H32776  10.371   0.700   0.341 -3.4449 -0.4541  1.9458
  238MOL0     H32777  10.749   0.958   0.439  0.2858 -1.6607  0.3193
  238MOL0     H32778  10.645   1.070   0.335  1.5637  0.7829  1.0855
  238MOL0     H32779  10.706   0.914   0.139 -1.7941  1.0083  1.0990
  238MOL0     H32780  10.826   1.032   0.211  0.2162  1.1949  0.2359
  238MOL0     H32781  10.833   0.758   0.339 -1.8689 -0.4763 -1.3163
  238MOL0     H32782  10.863   0.748   0.180 -0.0362 -2.7479  2.5650
  238MOL0     H32783  11.042   0.931   0.194  1.4520 -3.2041 -1.5315
  238MOL0     H32784  11.007   0.932   0.369 -1.7539 -0.6388  0.5471
  238MOL0     H32785  11.094   0.697   0.385  2.3710 -0.4921 -0.4416
  238MOL0     H32786  11.215   0.813   0.329  2.1735 -1.1138 -1.5800
  238MOL0     H32787  11.042   0.628   0.173 -0.4314 -0.5122  3.1554
  238MOL0     H32788  11.147   0.750   0.088  1.5125 -2.3752 -1.3106
  238MOL0     H32789  11.223   0.511   0.266  3.6494  0.3258 -0.0212
  238MOL0     H32790  11.345   0.628   0.222  0.0223  0.4819 -1.9379
  238MOL0     H32791  11.328   0.433   0.054  3.6194  1.8742  0.1442
  238MOL0     H32792  11.188   0.516  -0.021  2.0908 -3.0377 -2.1545
  238MOL0     H32793  11.280   0.789  -0.087  1.1970  0.5954  0.8349
  238MOL0     H32794  11.453   0.991  -0.122 -1.0007 -0.3149  1.1718
  238MOL0     H32795  11.623   0.963  -0.081  1.1662 -1.4874  0.8732
  238MOL0     H32796  11.539   0.969   0.172 -0.5216 -1.9142 -0.3978
  238MOL0     H32797  11.534   1.117   0.084  0.0337  0.5972 -1.5495
  238MOL0     H32798  11.284   1.064   0.032 -0.7941 -0.9811  0.9500
  238MOL0     H32799  11.307   0.943   0.165  3.4288  1.0313  6.3541
  238MOL0     H32800  11.407   1.121   0.324 -0.3203  1.0016  0.8930
  238MOL0     H32801  11.358   1.241   0.212  2.7013  0.9005  2.6719
  238MOL0     H32802  11.364   1.300   0.423  0.7234  0.0265  2.2821
  238MOL0     H32803  11.368   1.405   0.723 -1.0929 -0.1672  0.3669
  238MOL0     H32804  11.370   1.562   0.642 -0.2396 -0.1414 -0.8736
  238MOL0     H32805  11.447   1.442   0.560  0.2129  4.3151 -0.1234
  238MOL0     H32806  10.919   1.447   1.002 -0.7014 -0.1403  3.2598
  238MOL0     H32807  10.866   1.594   1.199 -0.4299  0.3486 -0.0910
  238MOL0     H32808  10.759   1.717   1.327 -0.9376 -0.6156 -3.0411
  238MOL0     H32809  10.919   1.779   1.325 -0.0086  1.0251  0.1476
  238MOL0     H32810  10.796   1.870   1.514 -2.9697  1.7732  2.2504
  238MOL0     H32811  10.853   2.005   1.403  0.0602 -0.1912 -0.2216
  238MOL0     H32812  10.558   1.907   1.364  0.1823 -0.3988 -0.0071
  238MOL0     H32813  10.625   2.058   1.336 -0.2305 -1.3572 -2.2344
  238MOL0     H32814  10.689   2.074   1.601 -0.3188  1.0099  0.7327
  238MOL0     H32815  10.603   1.929   1.612  5.2682 -0.0342  1.6720
  238MOL0     H32816  10.476   2.182   1.490 -1.9287 -2.4041 -1.4877
  238MOL0     H32817  10.399   2.036   1.535  1.4045 -2.5865  0.0753
  238MOL0     H32818  10.525   2.078   1.774  4.9389  2.8741  0.7604
  238MOL0     H32819  10.367   2.164   1.718 -1.0405 -4.9185 -1.3661
  238MOL0     H32820  10.567   2.327   1.621  0.3553  0.4683  0.5901
  238MOL0     H32821  10.661   2.237   1.739 -1.4688 -2.4381  1.1006
  238MOL0     H32822  10.596   2.433   1.857 -2.9951  4.3628 -0.3072
  238MOL0     H32823  10.463   2.335   1.905 -3.0394  0.0597 -0.3461
  238MOL0     H32824  10.803   1.924   0.923  3.6441  0.4759 -2.4036
  238MOL0     H32825  10.834   1.764   0.739 -0.8303 -2.3666 -0.3487
  238MOL0     H32826  10.888   1.357   0.532 -0.7560  2.5244  0.1771
  238MOL0     H32827  10.956   1.224   0.352  0.0953  1.4798 -1.1650
  238MOL0     H32828  10.507   1.098   0.466  1.3313 -0.9429  0.4502
  238MOL0     H32829  10.286   1.145   0.536  0.8936  2.8497 -5.2520
  238MOL0     H32830   9.824   0.968   0.472  0.3664  2.1290 -0.0917
  238MOL0     H32831   9.598   0.952   0.506  2.5129  0.3343 -0.8009
  238MOL0     H32832   9.351   1.100   0.831 -4.3098 -2.0011 -3.8186
  238MOL0     H32833   9.508   1.169   0.787 -0.1272 -0.2398  0.4495
  238MOL0     H32834   9.433   1.178   0.557  0.9313 -1.7288 -0.1537
  238MOL0     H32835   9.304   1.245   0.667 -0.5166  0.9232  0.0635
  238MOL0     H32836   9.215   1.090   0.471  0.2020 -0.2388 -0.0030
  238MOL0     H32837   9.327   0.966   0.538  1.7811  1.0023  4.3728
  238MOL0     H32838   9.174   1.004   0.757 -2.2736  2.6547  0.9846
  238MOL0     H32839   9.119   0.898   0.639  1.6665  0.8239 -1.4819
  238MOL0     H32840   8.904   1.277   0.630 -0.2530  0.7360  2.5677
  238MOL0     H32841   9.646   0.945   0.916 -0.9239  1.0023 -0.4981
  238MOL0     H32842   9.995   0.988   0.951 -0.3027  0.4366  2.2272
  238MOL0     H32843   9.860   0.892   1.016  0.9790 -0.7275 -0.4500
  238MOL0     H32844   9.988   0.820   0.920  0.9776  0.8504  1.9713
  239MOL0     O32845   1.425   8.034   4.668  0.7289 -0.3712  0.5988
  239MOL0     C32846   1.326   8.049   4.596  0.6518  0.1036  0.6715
  239MOL0     O32847   1.309   8.004   4.474 -0.0281  0.1638  0.3402
  239MOL0     C32848   1.417   7.952   4.410  1.0572  0.2492 -0.5506
  239MOL0     C32849   1.369   7.852   4.327 -0.7338  1.6759  0.1811
  239MOL0     C32850   1.457   7.785   4.235 -0.6785 -0.3337 -0.9892
  239MOL0     C32851   1.591   7.828   4.236 -0.4843 -0.3812 -0.6759
  239MOL0     O32852   1.675   7.759   4.145 -0.4174 -0.3113 -0.7502
  239MOL0     C32853   1.820   7.786   4.144  0.3068 -0.4745  0.1508
  239MOL0     C32854   1.890   7.692   4.047 -0.3507  0.3362 -0.6273
  239MOL0     C32855   1.868   7.546   4.090  0.0237 -0.4237 -0.1217
  239MOL0     C32856   1.903   7.522   4.240  1.1482  0.8429 -0.6187
  239MOL0     C32857   1.856   7.376   4.265 -0.6453 -0.4259 -0.7641
  239MOL0     C32858   1.713   7.381   4.329 -1.4440 -0.0277  0.0275
  239MOL0     C32859   1.657   7.237   4.359  0.3938 -0.4866 -0.7294
  239MOL0     C32860   1.515   7.228   4.429 -0.1220  0.0303 -1.4654
  239MOL0     N32861   1.418   7.271   4.323 -0.5213 -0.4518 -0.0460
  239MOL0     C32862   1.374   7.191   4.216 -0.5215 -0.6685 -0.0802
  239MOL0     C32863   1.289   7.269   4.141 -1.0166  1.0930 -0.1962
  239MOL0     C32864   1.206   7.216   4.029  0.6888  0.2302  0.1218
  239MOL0     C32865   1.052   7.212   4.057 -0.2547 -0.7273  0.3085
  239MOL0     C32866   1.007   7.104   4.163 -0.5053 -1.0692  0.0243
  239MOL0     C32867   1.055   6.961   4.135  0.0174 -0.2859 -0.3236
  239MOL0     O32868   1.068   6.935   3.999 -0.0960 -0.2361  0.1800
  239MOL0     C32869   1.112   6.817   3.954 -0.4132  0.4269  0.3072
  239MOL0     C32870   1.097   6.778   3.823  0.1642  0.0626  0.0298
  239MOL0     C32871   1.142   6.655   3.777 -0.0976  0.3781 -0.6015
  239MOL0     C32872   1.132   6.628   3.627 -0.7439 -0.3714  0.3783
  239MOL0     C32873   1.211   6.573   3.870  0.4334  1.0778 -0.2034
  239MOL0     C32874   1.290   6.454   3.835  0.2140  0.1789  1.1692
  239MOL0     O32875   1.330   6.369   3.937 -0.1875  0.2358 -0.5611
  239MOL0     C32876   1.446   6.298   3.933 -0.0641  0.2582  0.9201
  239MOL0     C32877   1.437   6.155   3.947  0.0421 -0.7982  0.6125
  239MOL0     C32878   1.556   6.082   3.968  0.2749  0.3971 -0.0442
  239MOL0     C32879   1.679   6.146   3.962 -0.3914  0.0139 -0.1770
  239MOL0     O32880   1.800   6.088   3.983  0.5038 -0.4202  0.4656
  239MOL0     C32881   1.802   5.948   4.006 -0.4253  0.0693  0.0891
  239MOL0     C32882   1.946   5.915   4.038 -0.1066 -1.1766  0.3745
  239MOL0     C32883   1.959   5.769   4.093 -0.6299 -0.6548 -1.1132
  239MOL0     C32884   2.092   5.705   4.063  0.8144 -1.0525  0.2819
  239MOL0     C32885   2.095   5.557   4.115  0.1161  0.4388  0.2698
  239MOL0     C32886   1.974   5.475   4.068  0.0811 -0.7757 -0.2601
  239MOL0     C32887   1.992   5.330   4.100 -1.5298  0.6221  0.9694
  239MOL0     C32888   2.059   5.254   3.988  0.1746  0.4784  1.3797
  239MOL0    Cl32889   2.023   5.086   3.991 -0.4062  0.7273  0.5146
  239MOL0     C32890   1.686   6.281   3.926 -0.3305  0.3269 -1.1522
  239MOL0     C32891   1.573   6.354   3.923  0.3021 -0.7356 -0.7950
  239MOL0     O32892   1.333   6.443   3.727 -0.8945 -0.2060  0.0366
  239MOL0     C32893   1.212   6.606   4.006  0.3811 -0.1750 -0.8552
  239MOL0     C32894   1.159   6.722   4.043 -0.7586 -0.4347 -0.3416
  239MOL0     N32895   1.280   7.387   4.208  1.0319 -0.0516 -0.1213
  239MOL0     N32896   1.343   7.382   4.314  0.1573 -0.3115 -0.1329
  239MOL0     C32897   1.633   7.937   4.307 -0.7797 -0.4039 -0.2690
  239MOL0     C32898   1.545   8.006   4.393  1.0559  0.5693  0.1114
  239MOL0     C32899   1.210   8.137   4.644  0.0401 -0.0032 -0.0953
  239MOL0     C32900   1.239   8.228   4.747 -0.4650  0.8741 -0.2211
  239MOL0     C32901   1.139   8.316   4.794 -0.3969 -0.0335  0.0178
  239MOL0     C32902   1.011   8.312   4.743 -0.4218  0.3028  0.3462
  239MOL0     O32903   0.914   8.401   4.786  0.0300  0.4813 -0.0103
  239MOL0     C32904   0.776   8.373   4.761  0.0582  0.1851 -0.1544
  239MOL0     C32905   0.690   8.489   4.804 -0.5965  0.0874  0.7417
  239MOL0     C32906   0.680   8.497   4.952  1.2609 -0.7582  0.4018
  239MOL0     C32907   0.608   8.625   4.986  0.2614  0.2571 -0.6471
  239MOL0     C32908   0.597   8.636   5.136  1.1065  0.8714 -0.4680
  239MOL0     C32909   0.591   8.634   5.262  0.5417 -0.0038  0.5310
  239MOL0     C32910   0.977   8.220   4.643 -0.4585 -0.6626  0.4239
  239MOL0     C32911   1.071   8.130   4.588 -0.3258 -0.7677 -1.0573
  239MOL0     C32912   1.032   8.032   4.484 -0.4858  0.2516 -0.6144
  239MOL0     H32913   1.263   7.828   4.325  0.0043 -2.1196  0.1664
  239MOL0     H32914   1.410   7.705   4.179 -3.4812  0.4884  0.0205
  239MOL0     H32915   1.856   7.774   4.246 -1.2775  0.2407  0.8227
  239MOL0     H32916   1.845   7.888   4.112 -0.7360 -0.0341  0.6965
  239MOL0     H32917   1.845   7.718   3.951  1.1890  4.3096 -0.4717
  239MOL0     H32918   1.998   7.710   4.050 -0.0660 -0.8897 -2.2813
  239MOL0     H32919   1.768   7.512   4.061  0.1589  0.2832 -1.4752
  239MOL0     H32920   1.944   7.486   4.040  1.8711 -1.3359  3.4433
  239MOL0     H32921   2.011   7.527   4.257  1.3962 -0.4889 -1.6258
  239MOL0     H32922   1.850   7.588   4.310 -1.8873 -1.7279 -0.2387
  239MOL0     H32923   1.923   7.331   4.339 -0.1044 -0.6907 -1.4011
  239MOL0     H32924   1.846   7.320   4.171 -0.7610  0.3736 -1.2332
  239MOL0     H32925   1.721   7.445   4.418 -2.0242  1.8408 -1.1970
  239MOL0     H32926   1.655   7.430   4.250 -1.5199 -3.4940 -2.2397
  239MOL0     H32927   1.715   7.175   4.427 -0.3155  0.3807  0.7014
  239MOL0     H32928   1.647   7.183   4.264 -0.0968 -0.8442 -0.4764
  239MOL0     H32929   1.496   7.124   4.457 -0.4925  0.4654  0.0302
  239MOL0     H32930   1.508   7.288   4.520  2.2917 -2.6895  0.7044
  239MOL0     H32931   1.379   7.089   4.178 -1.8287 -1.7746  2.4899
  239MOL0     H32932   1.237   7.115   4.002 -0.6918 -0.2278  0.2066
  239MOL0     H32933   1.226   7.283   3.945 -0.5315 -0.8117 -1.0439
  239MOL0     H32934   1.024   7.311   4.093  1.7384 -1.0369  2.9818
  239MOL0     H32935   1.013   7.190   3.957 -1.5049  4.3006 -0.6374
  239MOL0     H32936   1.029   7.130   4.267  4.3610  0.1020 -1.0682
  239MOL0     H32937   0.899   7.108   4.149 -0.6100  0.6689  1.1041
  239MOL0     H32938   1.148   6.945   4.190 -0.0625  0.8165  0.1615
  239MOL0     H32939   0.980   6.896   4.180 -0.3552  1.0402  1.0674
  239MOL0     H32940   1.044   6.844   3.756 -2.2563  0.1261  1.8597
  239MOL0     H32941   1.227   6.645   3.575 -2.0424 -1.2804 -2.4689
  239MOL0     H32942   1.065   6.698   3.577  2.7291  0.6029 -3.4173
  239MOL0     H32943   1.101   6.526   3.606 -2.9588 -0.0360  1.6385
  239MOL0     H32944   1.342   6.102   3.949 -0.5852  0.2813  2.6884
  239MOL0     H32945   1.534   5.976   3.975  0.7486  0.3032  0.0785
  239MOL0     H32946   1.742   5.934   4.097 -2.5575  1.5278 -1.0044
  239MOL0     H32947   1.762   5.881   3.930 -0.9730 -1.9364  2.0236
  239MOL0     H32948   2.017   5.926   3.956  2.6350 -2.2059  2.4532
  239MOL0     H32949   1.978   5.985   4.114  2.9626 -0.4372 -1.4346
  239MOL0     H32950   1.865   5.714   4.079 -2.4620  1.3642  1.9198
  239MOL0     H32951   1.967   5.793   4.200  1.0451 -1.8106 -0.9478
  239MOL0     H32952   2.160   5.776   4.113  0.2140  2.5384 -3.4743
  239MOL0     H32953   2.102   5.722   3.956 -1.8993  2.6361  0.4171
  239MOL0     H32954   2.191   5.514   4.085  1.1605  3.2745 -0.8771
  239MOL0     H32955   2.101   5.563   4.224  0.7199  1.8715  0.1829
  239MOL0     H32956   1.961   5.491   3.960 -0.7974  1.0854  0.0673
  239MOL0     H32957   1.883   5.505   4.120  0.6729  0.7918 -0.0737
  239MOL0     H32958   1.892   5.289   4.118 -1.5746  0.3828  0.2247
  239MOL0     H32959   2.045   5.319   4.195  0.7836 -1.4782 -0.4391
  239MOL0     H32960   2.167   5.271   3.990  0.2621  1.1947 -2.3744
  239MOL0     H32961   2.041   5.294   3.888  0.7955 -3.0096 -0.3007
  239MOL0     H32962   1.786   6.323   3.922  0.0609 -0.6882 -3.9740
  239MOL0     H32963   1.590   6.461   3.914 -0.6842 -0.6029 -1.1824
  239MOL0     H32964   1.243   6.538   4.085  0.6213  2.6884  1.7439
  239MOL0     H32965   1.155   6.754   4.147 -0.1844  3.7555 -1.4433
  239MOL0     H32966   1.736   7.964   4.288 -1.4742  1.5861 -1.5042
  239MOL0     H32967   1.588   8.086   4.452 -0.1192 -1.1627  3.5891
  239MOL0     H32968   1.338   8.223   4.793 -3.0747 -1.6592  6.2358
  239MOL0     H32969   1.163   8.385   4.875 -2.0035 -1.2660  1.6258
  239MOL0     H32970   0.759   8.366   4.653  0.6598 -1.5140 -0.1808
  239MOL0     H32971   0.750   8.275   4.802  1.3645 -1.2966 -2.5894
  239MOL0     H32972   0.589   8.466   4.770 -0.4256  1.6042 -0.9124
  239MOL0     H32973   0.728   8.574   4.747 -1.7458 -0.9874 -1.7457
  239MOL0     H32974   0.623   8.417   5.000 -0.3395  1.2556  2.0728
  239MOL0     H32975   0.781   8.501   4.996  2.7483  0.5851 -2.8210
  239MOL0     H32976   0.513   8.628   4.932  0.3327 -1.1799 -0.8979
  239MOL0     H32977   0.661   8.719   4.969 -0.3109  0.9273  1.0425
  239MOL0     H32978   0.590   8.624   5.368 -4.2972  0.6697  0.7531
  239MOL0     H32979   0.880   8.221   4.594 -0.9998  1.4724  1.4452
  239MOL0     H32980   0.923   8.025   4.483 -0.7442  2.8186 -2.1725
  239MOL0     H32981   1.071   8.068   4.388  1.2762  1.3700  0.4570
  239MOL0     H32982   1.065   7.934   4.520 -1.8775 -1.1473 -2.9161
  240MOL0     O32983   9.942   8.081   4.431  0.5717  0.0860  0.3481
  240MOL0     C32984   9.946   8.108   4.546  0.5520  0.0826 -0.5630
  240MOL0     O32985  10.064   8.102   4.623 -0.1660  0.2595 -0.4085
  240MOL0     C32986  10.190   8.079   4.585 -0.1627 -0.1646  0.3469
  240MOL0     C32987  10.291   8.053   4.677 -0.0231  0.3380 -0.2230
  240MOL0     C32988  10.423   8.043   4.633  0.2488  1.1634 -1.3090
  240MOL0     C32989  10.460   8.040   4.498 -0.2407  0.1398  0.5338
  240MOL0     O32990  10.587   7.993   4.476 -0.3065  0.1109 -0.3204
  240MOL0     C32991  10.682   8.087   4.528 -0.5290  0.5807  0.5736
  240MOL0     C32992  10.669   8.228   4.486  0.0277 -0.1997 -0.0467
  240MOL0     C32993  10.736   8.252   4.348 -0.2894 -0.1311  0.3743
  240MOL0     C32994  10.679   8.163   4.238  0.0207  0.8142 -0.1688
  240MOL0     C32995  10.709   8.200   4.093 -0.0105  0.0041  0.2191
  240MOL0     C32996  10.692   8.066   4.021 -0.0416  0.0516 -0.3929
  240MOL0     C32997  10.647   8.100   3.869 -0.1963 -0.5734 -0.6592
  240MOL0     C32998  10.505   8.148   3.848 -0.1815 -0.6694 -0.2294
  240MOL0     N32999  10.416   8.046   3.897  0.7082 -0.1314  0.3709
  240MOL0     C33000  10.340   8.035   4.012 -0.3847  0.6502  0.9097
  240MOL0     C33001  10.275   7.915   4.011 -0.1686  0.2642  0.0673
  240MOL0     C33002  10.183   7.850   4.118  0.3686  0.3830 -0.0279
  240MOL0     C33003  10.062   7.935   4.160 -0.2401  0.5183  0.5511
  240MOL0     C33004   9.963   7.938   4.044 -0.4386  0.0170  0.2269
  240MOL0     C33005   9.826   7.975   4.094 -0.7321  0.2850  0.0765
  240MOL0     O33006   9.733   7.900   4.017 -1.2376 -0.1281 -0.1110
  240MOL0     C33007   9.725   7.931   3.876  0.1816  0.0597 -0.7549
  240MOL0     C33008   9.726   7.828   3.784 -0.4026 -0.8383 -0.2204
  240MOL0     C33009   9.710   7.854   3.647 -0.3382  0.3466  0.1057
  240MOL0     C33010   9.693   7.725   3.564 -1.0959  1.5448  0.8020
  240MOL0     C33011   9.683   7.984   3.601 -0.3892 -0.3271 -0.5492
  240MOL0     C33012   9.643   8.012   3.458  1.2045 -0.1062 -0.0333
  240MOL0     O33013   9.645   8.148   3.425  0.3255 -0.0022  0.1703
  240MOL0     C33014   9.627   8.195   3.298  0.7148  0.1277 -0.3919
  240MOL0     C33015   9.727   8.257   3.217  0.4677 -0.2508 -0.3900
  240MOL0     C33016   9.691   8.320   3.089  0.4064  0.9548  0.0980
  240MOL0     C33017   9.552   8.319   3.047  0.9888 -0.3332 -0.7734
  240MOL0     O33018   9.519   8.380   2.927  0.4920 -0.1759 -0.0691
  240MOL0     C33019   9.452   8.288   2.841 -0.2872 -0.3027  0.0957
  240MOL0     C33020   9.443   8.353   2.699  0.1825  1.7106 -1.1441
  240MOL0     C33021   9.306   8.359   2.634 -1.0708  0.4472  0.1310
  240MOL0     C33022   9.290   8.460   2.521 -0.2429  0.3550  0.0950
  240MOL0     C33023   9.163   8.442   2.435 -0.0579 -0.1577  0.3504
  240MOL0     C33024   9.020   8.461   2.500 -0.1648 -0.6746 -1.2670
  240MOL0     C33025   8.924   8.433   2.387 -0.6410 -0.2113  0.5856
  240MOL0     C33026   8.791   8.461   2.446 -0.4462  0.6250 -0.2165
  240MOL0    Cl33027   8.654   8.399   2.347 -0.4074 -0.1294  0.0945
  240MOL0     C33028   9.459   8.237   3.133 -0.8183 -0.3385  0.3205
  240MOL0     C33029   9.497   8.181   3.255  0.6638 -0.4855  0.8280
  240MOL0     O33030   9.612   7.922   3.377  0.7443 -0.0929  0.1810
  240MOL0     C33031   9.695   8.097   3.697 -0.1421  0.2364 -0.0903
  240MOL0     C33032   9.719   8.058   3.828 -0.6044  0.5634 -0.3882
  240MOL0     N33033  10.298   7.860   3.879  1.5230  0.0832 -0.3466
  240MOL0     N33034  10.373   7.944   3.813 -0.0182  0.5846  0.2214
  240MOL0     C33035  10.361   8.071   4.400  0.3280  0.4659 -0.1152
  240MOL0     C33036  10.226   8.097   4.442  0.0400  0.0760  0.7495
  240MOL0     C33037   9.823   8.153   4.625  0.0425  0.0268 -0.3547
  240MOL0     C33038   9.836   8.189   4.760  0.7144  0.0175  0.2159
  240MOL0     C33039   9.721   8.230   4.839  0.3279 -0.0808 -0.7562
  240MOL0     C33040   9.599   8.244   4.774 -0.6309  0.0765 -0.7824
  240MOL0     O33041   9.482   8.287   4.832  0.2928 -0.3144 -0.4567
  240MOL0     C33042   9.480   8.381   4.943 -0.2639 -0.4278  0.1757
  240MOL0     C33043   9.487   8.527   4.880 -0.9271 -0.1099  0.3171
  240MOL0     C33044   9.353   8.586   4.822  1.1249  0.4839 -0.1998
  240MOL0     C33045   9.292   8.504   4.708  0.1133  0.3771  0.5633
  240MOL0     C33046   9.165   8.553   4.671  0.3301  0.4431 -0.0460
  240MOL0     C33047   9.056   8.604   4.653  0.9877 -1.1611  1.0419
  240MOL0     C33048   9.584   8.216   4.642 -0.0961 -0.8194 -1.0604
  240MOL0     C33049   9.687   8.166   4.566 -0.3688  0.5383  0.9667
  240MOL0     C33050   9.657   8.120   4.417  0.1263 -1.4925 -0.0450
  240MOL0     H33051  10.263   8.050   4.782  0.9299  0.5940  0.0464
  240MOL0     H33052  10.498   8.031   4.710  1.2957  2.1261 -2.1387
  240MOL0     H33053  10.781   8.050   4.499 -0.5369  1.8994 -1.3129
  240MOL0     H33054  10.682   8.077   4.637 -0.5641 -0.2932  0.5025
  240MOL0     H33055  10.570   8.269   4.506  0.4129  0.6458  0.2074
  240MOL0     H33056  10.723   8.285   4.563 -0.6477 -0.6654  0.7816
  240MOL0     H33057  10.723   8.358   4.325  2.2867  0.3336  0.8168
  240MOL0     H33058  10.844   8.240   4.361 -0.5262 -3.2811  0.2316
  240MOL0     H33059  10.711   8.061   4.261  3.0591  1.7186  0.1089
  240MOL0     H33060  10.571   8.168   4.249 -0.4392  0.5119 -3.4652
  240MOL0     H33061  10.814   8.231   4.089  0.2949 -0.7198  1.8467
  240MOL0     H33062  10.650   8.280   4.047 -0.2182 -1.5326 -2.4110
  240MOL0     H33063  10.781   8.004   4.011 -0.3607 -0.0450 -4.4184
  240MOL0     H33064  10.616   8.009   4.074 -1.4663  0.0004 -2.3692
  240MOL0     H33065  10.660   8.011   3.806 -3.4085  0.7768 -3.5778
  240MOL0     H33066  10.711   8.181   3.834  1.2200 -0.6672  1.5855
  240MOL0     H33067  10.492   8.237   3.910  0.4793  2.0537 -3.6452
  240MOL0     H33068  10.475   8.179   3.747  0.8022  0.7524 -0.1203
  240MOL0     H33069  10.331   8.107   4.093 -3.6640 -1.9817  3.1803
  240MOL0     H33070  10.235   7.817   4.208 -1.4095 -2.3221  0.1395
  240MOL0     H33071  10.159   7.755   4.069  2.4871 -1.7831  2.7822
  240MOL0     H33072  10.013   7.887   4.245  0.5786 -0.8714  0.2523
  240MOL0     H33073  10.100   8.034   4.186  0.4199  1.2509 -2.6972
  240MOL0     H33074   9.984   8.006   3.961 -1.7178  0.2961  0.1141
  240MOL0     H33075   9.957   7.833   4.013 -2.8787  0.5937 -1.4890
  240MOL0     H33076   9.807   7.957   4.200 -0.2592  2.7653  0.6490
  240MOL0     H33077   9.808   8.082   4.080 -2.9008  0.0564  0.7172
  240MOL0     H33078   9.730   7.727   3.824 -3.0669 -0.3230  1.6438
  240MOL0     H33079   9.743   7.723   3.466  2.4263 -0.4345  2.4422
  240MOL0     H33080   9.588   7.701   3.548 -0.2577 -0.8297 -2.3221
  240MOL0     H33081   9.739   7.631   3.598  1.1280  0.3710 -4.3973
  240MOL0     H33082   9.828   8.250   3.256  0.1547 -3.6292  0.1186
  240MOL0     H33083   9.767   8.351   3.017  1.1169 -2.4054 -0.7562
  240MOL0     H33084   9.509   8.196   2.830  0.3854 -0.0411  1.3054
  240MOL0     H33085   9.350   8.269   2.874 -0.6328 -0.2015 -0.8584
  240MOL0     H33086   9.465   8.460   2.708  1.3385  1.3470  1.1181
  240MOL0     H33087   9.530   8.313   2.645  1.5119  3.0577 -0.0755
  240MOL0     H33088   9.233   8.400   2.705 -0.5718  2.4231 -0.4256
  240MOL0     H33089   9.273   8.263   2.594  0.4833 -1.2927  2.7268
  240MOL0     H33090   9.375   8.449   2.453  0.4030  0.2433  0.9039
  240MOL0     H33091   9.292   8.562   2.559  0.6539  1.1964 -2.0049
  240MOL0     H33092   9.158   8.504   2.345  1.4578 -2.0174 -1.1147
  240MOL0     H33093   9.164   8.342   2.391 -1.0849  0.0232 -0.0898
  240MOL0     H33094   9.002   8.561   2.541  0.3180 -0.7962 -0.7283
  240MOL0     H33095   9.014   8.405   2.594 -0.5959  2.5692  0.8108
  240MOL0     H33096   8.933   8.329   2.353 -4.4974 -0.4997  0.0024
  240MOL0     H33097   8.938   8.497   2.300 -0.4568 -0.7588  0.2031
  240MOL0     H33098   8.787   8.568   2.466  0.9049  0.6659 -0.0320
  240MOL0     H33099   8.797   8.413   2.544  0.3932 -2.4321 -1.6507
  240MOL0     H33100   9.358   8.213   3.101 -0.6948 -2.5957  1.4589
  240MOL0     H33101   9.433   8.116   3.313  1.8906 -2.1629  0.3880
  240MOL0     H33102   9.689   8.200   3.664  0.0177  0.3587  0.2532
  240MOL0     H33103   9.721   8.144   3.894 -2.2781  0.7950 -0.5880
  240MOL0     H33104  10.388   8.067   4.295 -0.4994  1.9575 -0.4147
  240MOL0     H33105  10.161   8.141   4.367  0.7967 -0.0905 -0.0184
  240MOL0     H33106   9.935   8.187   4.804  1.0819  1.8885 -0.4758
  240MOL0     H33107   9.740   8.244   4.945 -0.6752 -1.1533 -0.4138
  240MOL0     H33108   9.392   8.368   5.006  0.6463 -0.7044  1.4186
  240MOL0     H33109   9.565   8.366   5.009  1.1393  3.1347 -0.5688
  240MOL0     H33110   9.569   8.519   4.809  0.8356 -0.1266  2.2421
  240MOL0     H33111   9.524   8.589   4.962 -0.9625 -0.6383  0.7411
  240MOL0     H33112   9.286   8.570   4.906  0.7984 -2.3721 -0.8791
  240MOL0     H33113   9.363   8.691   4.793 -1.3433  0.9084  0.3011
  240MOL0     H33114   9.283   8.399   4.737 -0.7089 -0.0136 -0.9798
  240MOL0     H33115   9.360   8.501   4.622  1.5993 -3.1946  1.6870
  240MOL0     H33116   8.963   8.657   4.650  2.7803  2.3204  1.6777
  240MOL0     H33117   9.495   8.260   4.597  1.2287  1.6896 -1.4185
  240MOL0     H33118   9.713   8.189   4.354  0.5747 -1.1697  0.6851
  240MOL0     H33119   9.691   8.018   4.398 -1.6408 -2.2058  0.4136
  240MOL0     H33120   9.551   8.126   4.390  0.9310  2.6107 -3.4055
  241MOL0     O33121   7.578   5.410   4.180 -0.0128  0.1774 -0.5148
  241MOL0     C33122   7.552   5.316   4.113 -0.9245 -0.1233  0.7798
  241MOL0     O33123   7.532   5.193   4.157 -0.1809  0.1286 -0.8770
  241MOL0     C33124   7.567   5.161   4.284 -0.1340  1.3103 -0.4331
  241MOL0     C33125   7.476   5.071   4.347 -0.0004 -1.0615  0.5941
  241MOL0     C33126   7.505   5.001   4.467 -0.5066 -0.4767 -0.3028
  241MOL0     C33127   7.626   5.034   4.536  0.4152  0.1962  0.5351
  241MOL0     O33128   7.649   4.973   4.660 -0.0443 -0.9112  0.1853
  241MOL0     C33129   7.710   5.060   4.763 -0.1273 -0.2827 -0.6719
  241MOL0     C33130   7.715   4.994   4.906  1.1145  0.3069  0.4193
  241MOL0     C33131   7.824   4.884   4.910 -0.7108  0.2115  0.0982
  241MOL0     C33132   7.789   4.765   4.822  0.3338  0.0495 -0.0802
  241MOL0     C33133   7.829   4.639   4.889 -1.0554  0.7650 -0.1518
  241MOL0     C33134   7.986   4.627   4.898  0.4113 -0.6000 -0.4670
  241MOL0     C33135   8.041   4.542   5.013  0.7776  0.6959  0.4824
  241MOL0     C33136   8.027   4.389   4.981 -0.1180  0.1973  0.5954
  241MOL0     N33137   8.056   4.317   5.105  1.4464  0.1573 -0.1410
  241MOL0     C33138   8.131   4.200   5.105  0.2463 -1.7774 -0.9423
  241MOL0     C33139   8.121   4.165   5.238  0.1766  0.0473 -1.2060
  241MOL0     C33140   8.186   4.044   5.299 -0.1926 -0.2677 -0.3904
  241MOL0     C33141   8.097   3.925   5.266 -0.1205 -0.7234  0.4667
  241MOL0     C33142   8.072   3.842   5.397  0.5045 -0.3624  0.5803
  241MOL0     C33143   8.180   3.744   5.417  0.6939 -0.1450  0.5729
  241MOL0     O33144   8.129   3.656   5.516  0.3890  0.0670 -0.3674
  241MOL0     C33145   8.180   3.536   5.541  0.3905  1.1625 -0.2554
  241MOL0     C33146   8.163   3.497   5.673  0.0960  0.2630 -0.1221
  241MOL0     C33147   8.218   3.376   5.719  1.2849 -0.6064  0.6057
  241MOL0     C33148   8.166   3.326   5.848  0.6679  0.1015  0.0852
  241MOL0     C33149   8.301   3.300   5.636  0.5588 -1.0141 -0.4162
  241MOL0     C33150   8.370   3.177   5.668  0.8777  0.4331  0.2731
  241MOL0     O33151   8.389   3.090   5.559 -0.1900 -0.1345  0.0638
  241MOL0     C33152   8.442   2.965   5.572  0.1510 -0.0955 -0.0356
  241MOL0     C33153   8.568   2.932   5.514 -0.4870 -0.3614  0.9746
  241MOL0     C33154   8.605   2.800   5.512  0.0361  0.2545  1.0208
  241MOL0     C33155   8.541   2.698   5.585 -0.1967 -1.1627  0.2764
  241MOL0     O33156   8.601   2.579   5.563 -0.9863 -0.4573 -1.0713
  241MOL0     C33157   8.515   2.484   5.502  0.0763 -1.0940 -0.5266
  241MOL0     C33158   8.604   2.389   5.429  0.1077 -0.3691 -0.1570
  241MOL0     C33159   8.531   2.268   5.367  0.5687 -1.2140 -0.3711
  241MOL0     C33160   8.443   2.315   5.257  0.2690 -0.3017  0.6209
  241MOL0     C33161   8.392   2.192   5.175  0.4309  0.6069 -0.3375
  241MOL0     C33162   8.263   2.210   5.089 -0.7417  0.1415 -0.1984
  241MOL0     C33163   8.292   2.322   4.987  0.2114 -1.1218  0.9302
  241MOL0     C33164   8.202   2.325   4.858  0.1589 -0.2015  0.1477
  241MOL0    Cl33165   8.232   2.165   4.765  0.2666  0.1728  0.1801
  241MOL0     C33166   8.421   2.733   5.658 -0.2549 -0.4494 -0.4261
  241MOL0     C33167   8.370   2.863   5.646  0.6506 -0.4386  1.0724
  241MOL0     O33168   8.415   3.165   5.783  0.0374 -0.1827  1.1566
  241MOL0     C33169   8.321   3.349   5.502  0.3471  0.3481  0.3136
  241MOL0     C33170   8.268   3.468   5.455 -0.3196  0.7755  0.4194
  241MOL0     N33171   8.054   4.273   5.320 -0.8478  0.1007  0.5823
  241MOL0     N33172   8.008   4.355   5.231  0.9804  0.1823  0.1989
  241MOL0     C33173   7.730   5.105   4.465  0.2125 -0.4143  0.4177
  241MOL0     C33174   7.693   5.174   4.344  0.0022  0.4579 -0.5230
  241MOL0     C33175   7.536   5.338   3.974 -0.7443  0.0837 -0.2080
  241MOL0     C33176   7.445   5.266   3.903  0.2810 -0.2170  0.5180
  241MOL0     C33177   7.428   5.292   3.761  0.1198  0.5436 -0.0248
  241MOL0     C33178   7.508   5.377   3.689  0.2468  0.4773  0.7106
  241MOL0     O33179   7.486   5.409   3.561 -0.5190  0.0033  0.2334
  241MOL0     C33180   7.366   5.372   3.492 -0.0521  0.0743  0.3962
  241MOL0     C33181   7.286   5.498   3.431  0.1022 -0.4371  0.7178
  241MOL0     C33182   7.227   5.598   3.534  0.3879  0.1624  0.1235
  241MOL0     C33183   7.269   5.596   3.682  0.0986 -0.5354  0.1022
  241MOL0     C33184   7.186   5.689   3.757 -0.4949  0.0808 -0.7968
  241MOL0     C33185   7.131   5.763   3.829  0.9632 -0.3778  0.2499
  241MOL0     C33186   7.612   5.442   3.753 -0.2061  0.7232 -0.2924
  241MOL0     C33187   7.620   5.425   3.889  0.6439 -0.5994  0.2428
  241MOL0     C33188   7.741   5.481   3.960  0.0134  0.2901  0.5598
  241MOL0     H33189   7.379   5.051   4.302  0.0171  2.9064 -1.7095
  241MOL0     H33190   7.442   4.924   4.511  0.3116  0.2391  2.2863
  241MOL0     H33191   7.644   5.146   4.777  4.1678  3.4098 -1.0802
  241MOL0     H33192   7.805   5.101   4.727 -0.7961 -0.1707 -2.4048
  241MOL0     H33193   7.746   5.066   4.982 -0.5280  1.5827 -0.0483
  241MOL0     H33194   7.615   4.956   4.933  2.1698 -2.4019  0.8732
  241MOL0     H33195   7.917   4.928   4.872 -0.7098  0.1243  0.0033
  241MOL0     H33196   7.835   4.864   5.017  2.1653  1.7721  0.1907
  241MOL0     H33197   7.679   4.762   4.827 -0.0031  3.1255 -2.3131
  241MOL0     H33198   7.824   4.772   4.718 -0.4866  0.0844 -0.3673
  241MOL0     H33199   7.793   4.553   4.832 -2.3501  1.4581 -0.4222
  241MOL0     H33200   7.784   4.637   4.989 -0.2830  0.9061  0.2017
  241MOL0     H33201   8.019   4.580   4.804  0.0429 -2.7039  0.3873
  241MOL0     H33202   8.036   4.724   4.896 -1.1132  0.2338  0.2339
  241MOL0     H33203   7.991   4.578   5.103 -2.5116 -0.6634 -0.6593
  241MOL0     H33204   8.149   4.556   5.001  0.5469  0.2131 -3.6316
  241MOL0     H33205   7.928   4.364   4.943  0.7703 -1.9007 -0.5262
  241MOL0     H33206   8.090   4.358   4.897  0.5970 -0.5002  1.3681
  241MOL0     H33207   8.188   4.158   5.023  1.4279 -1.4706 -0.3057
  241MOL0     H33208   8.200   4.061   5.406  1.2577 -2.7323 -0.1206
  241MOL0     H33209   8.285   4.032   5.256  0.2844 -3.3581  1.2729
  241MOL0     H33210   7.994   3.956   5.244 -0.5964 -0.9094  2.2755
  241MOL0     H33211   8.139   3.881   5.175 -0.7638  0.9347 -0.6856
  241MOL0     H33212   8.059   3.911   5.481 -1.6915 -0.2541  0.2230
  241MOL0     H33213   7.975   3.792   5.383  0.5411 -0.2350 -0.1761
  241MOL0     H33214   8.220   3.696   5.327 -1.7356  0.7622 -1.0901
  241MOL0     H33215   8.260   3.798   5.468  1.5140 -1.9244  1.2268
  241MOL0     H33216   8.098   3.555   5.739  0.3035 -0.7463  0.9971
  241MOL0     H33217   8.217   3.384   5.926  1.0361 -1.8507  1.3883
  241MOL0     H33218   8.169   3.218   5.868  3.1271  0.2206  0.7680
  241MOL0     H33219   8.059   3.342   5.858  0.7271  0.2068  0.5906
  241MOL0     H33220   8.626   3.008   5.463 -1.7100 -0.6060 -0.8847
  241MOL0     H33221   8.697   2.789   5.454 -0.9222  0.2262 -0.5441
  241MOL0     H33222   8.452   2.430   5.572 -1.1928  1.8690  0.8230
  241MOL0     H33223   8.441   2.530   5.435 -1.1924 -3.1391 -0.5955
  241MOL0     H33224   8.661   2.443   5.353  1.0086 -0.6418  0.3069
  241MOL0     H33225   8.685   2.360   5.496  0.1353  1.3429  0.5935
  241MOL0     H33226   8.474   2.218   5.446 -0.8458 -0.6357 -0.9928
  241MOL0     H33227   8.605   2.198   5.330  1.8437  0.2799 -0.7541
  241MOL0     H33228   8.499   2.384   5.193  2.3425 -0.7876  1.8177
  241MOL0     H33229   8.360   2.372   5.301 -0.4695  0.0864 -1.1901
  241MOL0     H33230   8.481   2.161   5.120  0.9309 -0.4669  1.0295
  241MOL0     H33231   8.365   2.114   5.246  0.7625  1.1161  0.3605
  241MOL0     H33232   8.176   2.228   5.153  1.1256  0.5574  2.4129
  241MOL0     H33233   8.245   2.115   5.039 -1.2876  0.2074 -0.1368
  241MOL0     H33234   8.395   2.324   4.951  0.0022 -0.2597  0.3461
  241MOL0     H33235   8.275   2.422   5.028 -4.5071 -1.2052 -0.2298
  241MOL0     H33236   8.230   2.413   4.799 -0.5535 -1.5152 -2.3010
  241MOL0     H33237   8.098   2.340   4.891  0.0752  0.1500 -0.2728
  241MOL0     H33238   8.359   2.660   5.709 -0.8473  1.5131  1.8573
  241MOL0     H33239   8.272   2.877   5.691  1.1651  2.1355  1.5488
  241MOL0     H33240   8.385   3.294   5.435  3.0193  1.8611  1.4638
  241MOL0     H33241   8.309   3.509   5.364 -3.0231  4.1458  0.5380
  241MOL0     H33242   7.834   5.112   4.495 -0.2280 -0.2484  1.9801
  241MOL0     H33243   7.772   5.228   4.293  1.1850 -0.1283  0.6152
  241MOL0     H33244   7.381   5.192   3.952 -1.6988 -1.4228 -3.3819
  241MOL0     H33245   7.343   5.241   3.718 -1.0767  0.0754  2.7286
  241MOL0     H33246   7.401   5.301   3.417  1.7394  0.3932  0.8814
  241MOL0     H33247   7.294   5.316   3.551  0.5890 -3.2997 -1.7601
  241MOL0     H33248   7.197   5.477   3.371  0.5337  2.6391 -1.2065
  241MOL0     H33249   7.345   5.551   3.356 -1.2710  0.6306  0.3714
  241MOL0     H33250   7.245   5.700   3.500  1.2664 -0.0875 -0.1853
  241MOL0     H33251   7.119   5.581   3.541  0.2575  1.3824  1.5362
  241MOL0     H33252   7.376   5.619   3.694  0.2523 -1.4803  0.6191
  241MOL0     H33253   7.241   5.499   3.723 -3.7078  0.5313  0.4227
  241MOL0     H33254   7.088   5.835   3.896 -0.4240  1.5461 -2.4899
  241MOL0     H33255   7.682   5.509   3.704 -1.0476  0.8587 -1.3480
  241MOL0     H33256   7.800   5.415   4.024 -0.0484 -0.3191  0.0029
  241MOL0     H33257   7.805   5.525   3.884 -0.7086 -1.4217 -1.1254
  241MOL0     H33258   7.724   5.565   4.028  2.5272  1.0741  0.3165
  242MOL0     O33259   4.212   7.107   8.531  0.0854 -0.1762  0.3758
  242MOL0     C33260   4.271   7.003   8.555 -0.3092 -0.0140 -1.4441
  242MOL0     O33261   4.309   6.976   8.686 -0.1699 -0.4178  0.6800
  242MOL0     C33262   4.276   7.074   8.780 -0.4718 -0.5103  0.2311
  242MOL0     C33263   4.160   7.064   8.860 -0.6815 -0.5168 -0.7818
  242MOL0     C33264   4.126   7.162   8.953  0.3635 -0.7801 -0.8241
  242MOL0     C33265   4.195   7.290   8.962 -1.2350  0.0184 -0.1268
  242MOL0     O33266   4.156   7.385   9.049  0.0896 -0.3081  0.3725
  242MOL0     C33267   4.025   7.441   9.038  0.2079 -0.2876  0.1691
  242MOL0     C33268   4.018   7.589   8.993  0.6176  0.4227 -0.2007
  242MOL0     C33269   4.124   7.675   9.062  0.0252  0.3258  0.3127
  242MOL0     C33270   4.118   7.820   9.013 -0.1945 -0.1349  0.5774
  242MOL0     C33271   4.237   7.889   9.081 -0.4945  0.6037 -1.0401
  242MOL0     C33272   4.259   8.023   9.019 -0.3095  0.7240  0.4309
  242MOL0     C33273   4.395   8.079   9.068  0.0054 -0.9439  0.4428
  242MOL0     C33274   4.406   8.235   9.052  0.1598 -0.9326  0.0504
  242MOL0     N33275   4.541   8.287   9.026 -0.1141 -0.0637 -0.3842
  242MOL0     C33276   4.624   8.265   8.916 -0.1604  0.2122  0.8484
  242MOL0     C33277   4.746   8.326   8.947 -0.9941  0.1441  0.8483
  242MOL0     C33278   4.870   8.317   8.856  0.6420  0.2482 -0.3415
  242MOL0     C33279   4.879   8.438   8.757  0.0821 -0.5664  0.7596
  242MOL0     C33280   4.869   8.578   8.829 -0.4861 -0.4705  0.1147
  242MOL0     C33281   4.888   8.695   8.731 -0.4791  0.0915  0.3895
  242MOL0     O33282   4.813   8.699   8.604 -0.5525 -0.1338  0.3329
  242MOL0     C33283   4.805   8.813   8.524 -0.4768  0.1385 -0.2931
  242MOL0     C33284   4.889   8.927   8.547  0.5491 -0.2903 -0.0655
  242MOL0     C33285   4.872   9.060   8.491  0.1201 -0.4819  0.3394
  242MOL0     C33286   4.961   9.174   8.550 -0.0606 -0.6011 -0.9397
  242MOL0     C33287   4.756   9.076   8.416 -0.4687  0.9882 -0.4730
  242MOL0     C33288   4.719   9.197   8.347  0.0757 -0.1246 -0.1725
  242MOL0     O33289   4.799   9.273   8.271 -0.4167 -0.1475 -0.4242
  242MOL0     C33290   4.923   9.228   8.226  0.6967  1.3867 -0.7049
  242MOL0     C33291   5.034   9.311   8.240 -0.3410  0.7521 -0.2288
  242MOL0     C33292   5.163   9.271   8.192  0.6039 -1.1844 -0.5177
  242MOL0     C33293   5.180   9.143   8.133 -1.0748 -0.8326 -0.1981
  242MOL0     O33294   5.302   9.086   8.098  0.9941  0.4706  0.3016
  242MOL0     C33295   5.423   9.113   8.175  0.5073 -0.3011 -1.1491
  242MOL0     C33296   5.537   9.059   8.103 -0.3077  0.3403  0.8355
  242MOL0     C33297   5.669   9.109   8.156 -0.1994 -0.9503 -0.5656
  242MOL0     C33298   5.778   9.016   8.105 -0.7693  0.0756  0.1341
  242MOL0     C33299   5.911   9.044   8.173 -0.7649 -0.9366 -0.6088
  242MOL0     C33300   5.944   8.969   8.307  0.4837  0.1480  0.2815
  242MOL0     C33301   6.099   8.991   8.341  0.1376 -0.6861  0.4924
  242MOL0     C33302   6.134   8.982   8.485 -0.4981  0.6618  0.1680
  242MOL0    Cl33303   6.003   9.020   8.612  0.3769 -0.2374  0.0706
  242MOL0     C33304   5.063   9.064   8.114 -0.3687  1.4640 -0.4276
  242MOL0     C33305   4.942   9.104   8.166 -0.6524  0.7522  0.4193
  242MOL0     O33306   4.604   9.235   8.374  0.1313  0.8445  0.5267
  242MOL0     C33307   4.677   8.954   8.390 -0.5384 -0.7579  0.5440
  242MOL0     C33308   4.699   8.823   8.439  0.1136  0.1861 -0.0230
  242MOL0     N33309   4.741   8.380   9.073 -0.4822 -0.9762 -0.2399
  242MOL0     N33310   4.620   8.359   9.115  0.2554  0.5306 -0.2066
  242MOL0     C33311   4.318   7.299   8.888  0.7980  0.7987  0.3592
  242MOL0     C33312   4.353   7.195   8.794  0.5998 -0.2079 -0.7266
  242MOL0     C33313   4.279   6.897   8.451 -0.2357 -0.7650  0.2795
  242MOL0     C33314   4.410   6.849   8.426  0.7586 -0.9636  0.1918
  242MOL0     C33315   4.427   6.753   8.329  0.4296 -0.5631 -1.1301
  242MOL0     C33316   4.317   6.706   8.255 -1.1541  1.1573 -0.1619
  242MOL0     O33317   4.315   6.600   8.171 -1.0006  0.3970  0.6822
  242MOL0     C33318   4.441   6.547   8.127 -0.9782  0.3148 -0.4035
  242MOL0     C33319   4.406   6.421   8.054  0.2360  0.5686  0.2759
  242MOL0     C33320   4.525   6.324   8.032 -0.1621 -0.7009 -0.0391
  242MOL0     C33321   4.507   6.217   7.920  0.1983 -0.6020  0.3178
  242MOL0     C33322   4.388   6.133   7.960 -0.1694 -0.3090 -0.3655
  242MOL0     C33323   4.302   6.052   7.995 -1.0972  0.1164 -0.4923
  242MOL0     C33324   4.192   6.756   8.278  0.1196 -0.2977 -0.5300
  242MOL0     C33325   4.164   6.837   8.388 -0.1769 -0.3859 -0.2395
  242MOL0     C33326   4.024   6.869   8.430  0.1345  0.0517 -0.7071
  242MOL0     H33327   4.091   6.980   8.865 -1.3643  0.0724  3.3373
  242MOL0     H33328   4.034   7.157   9.011  1.2189  0.0031  0.6354
  242MOL0     H33329   3.966   7.432   9.130  0.7687 -1.1444  0.4584
  242MOL0     H33330   3.971   7.383   8.963  3.7790 -1.7812 -1.4431
  242MOL0     H33331   4.029   7.589   8.885 -1.4083  4.4834 -0.6166
  242MOL0     H33332   3.915   7.622   9.014 -0.1374 -0.9803 -1.5194
  242MOL0     H33333   4.123   7.685   9.171 -0.9733  2.1018  0.1776
  242MOL0     H33334   4.211   7.627   9.016 -1.3604  2.5662 -5.4891
  242MOL0     H33335   4.128   7.818   8.904  2.9937 -0.3260  0.7693
  242MOL0     H33336   4.025   7.875   9.025 -0.1537  0.2185 -0.6645
  242MOL0     H33337   4.331   7.834   9.087 -0.5468  0.6532  1.2071
  242MOL0     H33338   4.202   7.898   9.184 -0.5662 -0.6893 -0.9417
  242MOL0     H33339   4.260   8.002   8.912  0.2626 -0.3142  0.6280
  242MOL0     H33340   4.191   8.101   9.052 -0.8612 -0.8213  3.2680
  242MOL0     H33341   4.477   8.040   9.007  0.7656  0.8705  0.2392
  242MOL0     H33342   4.416   8.050   9.171  0.0751 -2.5481 -0.0079
  242MOL0     H33343   4.351   8.282   8.970  1.3963 -0.6556 -0.6383
  242MOL0     H33344   4.362   8.282   9.141  1.8365 -0.2777  0.5717
  242MOL0     H33345   4.592   8.208   8.830 -0.1761 -2.5212  2.5478
  242MOL0     H33346   4.853   8.226   8.798  0.7609  0.7584 -1.1907
  242MOL0     H33347   4.957   8.302   8.921  2.2934  0.5857 -2.3790
  242MOL0     H33348   4.975   8.439   8.705 -0.0401  0.2392  0.5449
  242MOL0     H33349   4.802   8.437   8.679  2.4099 -1.1875 -1.6663
  242MOL0     H33350   4.771   8.590   8.877 -2.0809  4.7043 -3.5141
  242MOL0     H33351   4.942   8.572   8.910 -0.8967 -3.4258  0.3537
  242MOL0     H33352   4.876   8.792   8.780 -3.3102  2.4012 -4.1818
  242MOL0     H33353   4.994   8.684   8.706 -0.3119  2.4862 -0.1784
  242MOL0     H33354   4.977   8.907   8.607 -1.3699 -0.3358  2.9391
  242MOL0     H33355   5.008   9.145   8.644  3.9083  0.2428 -2.4552
  242MOL0     H33356   4.907   9.265   8.578  0.4655  0.3776 -2.9280
  242MOL0     H33357   5.035   9.200   8.474  0.3439 -0.5615 -0.5327
  242MOL0     H33358   5.012   9.407   8.287 -0.6082 -0.3141  1.9501
  242MOL0     H33359   5.251   9.335   8.201 -0.7813  1.2671 -2.8290
  242MOL0     H33360   5.437   9.221   8.190  2.2404 -0.7233  0.6935
  242MOL0     H33361   5.424   9.054   8.267 -0.3815 -1.8146 -2.0628
  242MOL0     H33362   5.525   8.950   8.098  0.4585  0.2765 -2.7306
  242MOL0     H33363   5.529   9.083   7.996 -3.1692  1.3406  1.2084
  242MOL0     H33364   5.669   9.099   8.265 -0.0738 -1.1580 -0.5843
  242MOL0     H33365   5.678   9.215   8.130  0.0499  1.1268  6.1019
  242MOL0     H33366   5.781   9.037   7.998  1.2010  0.2058  0.1670
  242MOL0     H33367   5.745   8.914   8.125  1.7824 -0.3474  2.8639
  242MOL0     H33368   5.980   9.021   8.090  1.2839  2.6112 -0.0829
  242MOL0     H33369   5.919   9.151   8.192 -0.2627 -0.8154 -1.4577
  242MOL0     H33370   5.924   8.862   8.295  2.2113 -0.3637  1.7409
  242MOL0     H33371   5.881   9.011   8.386  0.4099  0.2654  0.1616
  242MOL0     H33372   6.119   9.092   8.305  0.0787 -0.8676 -0.0569
  242MOL0     H33373   6.158   8.918   8.286 -2.7219 -2.9446  0.1753
  242MOL0     H33374   6.215   9.053   8.503 -0.9187  1.6399 -1.5905
  242MOL0     H33375   6.161   8.879   8.510 -0.7628  0.3799 -0.6855
  242MOL0     H33376   5.080   8.972   8.059 -2.3863 -0.2576  1.6278
  242MOL0     H33377   4.852   9.047   8.141 -0.6994 -0.3296  2.7834
  242MOL0     H33378   4.598   8.970   8.318 -2.5063  3.0293  3.1875
  242MOL0     H33379   4.632   8.742   8.414 -1.3427  1.2120  0.4029
  242MOL0     H33380   4.374   7.391   8.907 -1.7733  2.6656 -0.5348
  242MOL0     H33381   4.442   7.208   8.735  0.1436  1.2481 -1.1173
  242MOL0     H33382   4.494   6.876   8.491 -0.1743  3.3586 -0.0569
  242MOL0     H33383   4.520   6.702   8.306  1.3014  0.5846 -0.2440
  242MOL0     H33384   4.503   6.610   8.063  0.8580 -0.0999  0.8641
  242MOL0     H33385   4.503   6.515   8.211 -0.5438  0.6363 -0.5991
  242MOL0     H33386   4.354   6.436   7.959 -0.3499 -2.0536  0.1062
  242MOL0     H33387   4.337   6.358   8.112  0.5331 -0.0181 -0.0047
  242MOL0     H33388   4.615   6.384   8.018  1.5039 -3.2227 -0.7108
  242MOL0     H33389   4.532   6.284   8.133 -0.8257  3.8681  2.0968
  242MOL0     H33390   4.594   6.151   7.922  0.6147 -0.1224  3.3292
  242MOL0     H33391   4.490   6.258   7.820  2.6731  0.4632  0.2691
  242MOL0     H33392   4.248   5.975   8.045  2.4383 -0.3852  3.0698
  242MOL0     H33393   4.107   6.707   8.231 -1.2044 -1.4463  2.7173
  242MOL0     H33394   3.959   6.842   8.347  0.4045 -2.9705 -0.0424
  242MOL0     H33395   4.005   6.799   8.512 -2.7651 -0.0620 -1.3537
  242MOL0     H33396   4.004   6.971   8.465  1.5575 -0.1336  0.7639
  243MOL0     O33397   0.395   9.722   1.491 -0.2239 -0.2338  0.0059
  243MOL0     C33398   0.511   9.740   1.468 -0.1384  0.8493 -0.3647
  243MOL0     O33399   0.608   9.640   1.456 -0.7917 -0.0728  0.8118
  243MOL0     C33400   0.577   9.504   1.450  0.8592 -0.4248  0.3806
  243MOL0     C33401   0.608   9.443   1.321  1.2641  0.0936  0.8211
  243MOL0     C33402   0.537   9.319   1.295  0.0369  0.6242 -0.8855
  243MOL0     C33403   0.461   9.257   1.385 -0.0263  1.1959 -0.2908
  243MOL0     O33404   0.420   9.125   1.362  0.6390  0.4769 -0.5406
  243MOL0     C33405   0.283   9.105   1.383  0.2773 -0.2250 -0.5424
  243MOL0     C33406   0.224   9.150   1.251 -0.1993 -1.2741  0.0362
  243MOL0     C33407   0.088   9.094   1.226  0.0210  0.6750  0.0091
  243MOL0     C33408  -0.005   9.180   1.144  0.0374 -0.9183 -0.0314
  243MOL0     C33409   0.015   9.154   0.996 -0.1556  0.4329 -0.5372
  243MOL0     C33410  -0.082   9.234   0.917  0.3431 -0.5464  0.8715
  243MOL0     C33411  -0.236   9.207   0.943  0.1097  0.0241  0.0333
  243MOL0     C33412  -0.330   9.276   0.851 -0.2198  0.1508  0.4329
  243MOL0     N33413  -0.341   9.425   0.875 -1.3256  0.6879  0.3335
  243MOL0     C33414  -0.425   9.480   0.964  0.7060  0.1862 -0.1237
  243MOL0     C33415  -0.397   9.611   0.969 -0.9596 -0.3035  0.6185
  243MOL0     C33416  -0.491   9.695   1.045  0.4957 -0.0643  0.6146
  243MOL0     C33417  -0.565   9.776   0.940  0.1727  0.5844  0.0824
  243MOL0     C33418  -0.707   9.801   0.973 -0.1536  0.4187  0.4411
  243MOL0     C33419  -0.804   9.681   0.957 -0.1242  0.3743 -0.8956
  243MOL0     O33420  -0.895   9.682   1.060  0.4069 -0.6538 -0.5179
  243MOL0     C33421  -0.998   9.594   1.068 -0.3094  0.7821  0.6393
  243MOL0     C33422  -0.995   9.458   1.019  0.0405 -0.0092  0.6997
  243MOL0     C33423  -1.087   9.364   1.053  0.5045  0.0492 -0.0002
  243MOL0     C33424  -1.059   9.221   1.006 -0.0498 -0.0828  0.0804
  243MOL0     C33425  -1.198   9.413   1.140 -0.3614  0.6443 -0.2103
  243MOL0     C33426  -1.301   9.318   1.195  0.3724 -0.7665 -1.1624
  243MOL0     O33427  -1.385   9.395   1.276 -0.0635 -1.0565  0.0216
  243MOL0     C33428  -1.508   9.348   1.291  0.7954  0.0076  0.1964
  243MOL0     C33429  -1.581   9.284   1.188 -1.2542  0.5162 -0.0204
  243MOL0     C33430  -1.710   9.231   1.205 -0.8550  0.0301 -0.0581
  243MOL0     C33431  -1.774   9.264   1.322 -0.3643  0.7574 -0.2363
  243MOL0     O33432  -1.903   9.226   1.345  0.6987 -0.2819 -0.3208
  243MOL0     C33433  -1.999   9.278   1.248  0.0514 -0.1842 -0.3315
  243MOL0     C33434  -2.132   9.193   1.241 -0.0322  0.4260  0.5030
  243MOL0     C33435  -2.217   9.209   1.371  0.2783  0.2999 -0.2682
  243MOL0     C33436  -2.301   9.079   1.412  0.3741 -0.9455  0.1461
  243MOL0     C33437  -2.451   9.121   1.454  0.2254  1.0895 -0.1057
  243MOL0     C33438  -2.461   9.202   1.582 -0.3184 -0.3939 -0.3264
  243MOL0     C33439  -2.404   9.140   1.705 -1.0024 -0.6415  0.5823
  243MOL0     C33440  -2.374   9.241   1.811  0.5758  0.1608 -1.0423
  243MOL0    Cl33441  -2.269   9.182   1.944 -0.3270 -0.3463 -0.0845
  243MOL0     C33442  -1.714   9.337   1.420 -0.3673 -0.2829 -1.4021
  243MOL0     C33443  -1.578   9.375   1.406  0.7174 -0.7188 -0.1727
  243MOL0     O33444  -1.312   9.201   1.160  0.2539 -0.3142  0.4884
  243MOL0     C33445  -1.196   9.545   1.179  1.1909  0.6578 -0.1484
  243MOL0     C33446  -1.097   9.628   1.155  0.6695  0.0970  1.2803
  243MOL0     N33447  -0.293   9.639   0.880 -0.1151  0.4112  0.8896
  243MOL0     N33448  -0.256   9.521   0.827  0.2507 -0.1426  0.7771
  243MOL0     C33449   0.454   9.306   1.517  0.4041 -0.5166 -0.1000
  243MOL0     C33450   0.497   9.440   1.542 -1.2606  0.3580  0.8543
  243MOL0     C33451   0.564   9.875   1.444  0.4193  0.0229  0.0395
  243MOL0     C33452   0.517   9.947   1.333 -0.7113  0.3949 -0.1329
  243MOL0     C33453   0.573  10.070   1.293 -0.1214  0.0869 -0.6922
  243MOL0     C33454   0.663  10.139   1.382  0.0548 -0.0249  0.4767
  243MOL0     O33455   0.682  10.281   1.369 -0.6499 -0.0475  0.0599
  243MOL0     C33456   0.574  10.356   1.438  0.4641 -0.6040  0.0225
  243MOL0     C33457   0.526  10.465   1.344 -0.3216 -0.1321  0.2532
  243MOL0     C33458   0.642  10.563   1.301  2.0161 -0.4985 -0.1148
  243MOL0     C33459   0.695  10.641   1.428 -0.5043  0.8707 -0.7739
  243MOL0     C33460   0.769  10.765   1.406  0.9512 -0.2960  0.2630
  243MOL0     C33461   0.839  10.861   1.395  0.2458 -1.0852  0.7110
  243MOL0     C33462   0.701  10.071   1.488  0.0445 -0.6492  0.2406
  243MOL0     C33463   0.649   9.950   1.531 -0.3016  1.1018  0.0158
  243MOL0     C33464   0.689   9.875   1.658  0.0074  0.9034  0.0520
  243MOL0     H33465   0.661   9.482   1.234 -2.4049 -0.9455 -2.1582
  243MOL0     H33466   0.534   9.276   1.195 -1.6634 -1.8936  0.1800
  243MOL0     H33467   0.246   9.161   1.469 -0.4651  1.8499 -2.1135
  243MOL0     H33468   0.255   9.000   1.397 -0.1477  0.0767  1.0664
  243MOL0     H33469   0.225   9.259   1.258 -1.2786 -1.2282 -0.2854
  243MOL0     H33470   0.280   9.117   1.163 -2.2133 -1.9857 -1.0511
  243MOL0     H33471   0.110   8.997   1.180  4.0378  0.7161  1.3974
  243MOL0     H33472   0.048   9.065   1.323 -1.0236 -0.6236 -0.7771
  243MOL0     H33473  -0.106   9.146   1.169  0.0975 -0.6188  0.6399
  243MOL0     H33474   0.019   9.283   1.171 -0.4898 -0.5581 -0.8701
  243MOL0     H33475   0.003   9.047   0.980 -0.2045  0.5332 -1.1952
  243MOL0     H33476   0.116   9.172   0.957  0.6292  1.9271  1.9510
  243MOL0     H33477  -0.061   9.341   0.915  3.0198 -1.0234 -1.1363
  243MOL0     H33478  -0.052   9.216   0.814 -2.5689 -3.6004  0.3667
  243MOL0     H33479  -0.263   9.241   1.044  0.2064 -0.7798  0.3384
  243MOL0     H33480  -0.253   9.098   0.944 -5.0540  0.5263  2.1361
  243MOL0     H33481  -0.270   9.266   0.761 -1.0235  1.0728 -0.2209
  243MOL0     H33482  -0.430   9.233   0.847 -1.1484  2.0824  1.2421
  243MOL0     H33483  -0.505   9.426   1.013 -2.1325  4.1053  0.0671
  243MOL0     H33484  -0.443   9.773   1.105  0.9626  1.8170 -2.0361
  243MOL0     H33485  -0.565   9.647   1.109 -0.5677  2.9640  1.8310
  243MOL0     H33486  -0.508   9.869   0.937  2.4724 -0.6943  1.1961
  243MOL0     H33487  -0.560   9.720   0.846 -2.1295  0.7375 -0.1893
  243MOL0     H33488  -0.717   9.851   1.069 -0.0740  1.7013 -0.1909
  243MOL0     H33489  -0.750   9.868   0.897  1.4317  1.0056  0.0059
  243MOL0     H33490  -0.856   9.689   0.861 -0.0014  1.6668 -0.8726
  243MOL0     H33491  -0.746   9.589   0.964  0.6748  0.7865 -1.8115
  243MOL0     H33492  -0.903   9.443   0.963 -1.3541 -0.0095 -1.6865
  243MOL0     H33493  -1.068   9.154   1.092  2.3085  1.4804  1.6636
  243MOL0     H33494  -0.965   9.217   0.951 -1.2932  0.8672 -2.2328
  243MOL0     H33495  -1.139   9.197   0.936  0.0039  0.3612 -0.1371
  243MOL0     H33496  -1.562   9.250   1.087 -4.2516 -2.1468  0.1464
  243MOL0     H33497  -1.745   9.161   1.130  1.3183 -1.4214  0.1866
  243MOL0     H33498  -2.033   9.377   1.278 -0.9622 -0.2589 -1.1884
  243MOL0     H33499  -1.957   9.288   1.148  1.9893 -0.4838  0.3984
  243MOL0     H33500  -2.181   9.233   1.152  3.1692  1.5182 -0.9572
  243MOL0     H33501  -2.088   9.094   1.224  5.4784  2.7836 -1.4459
  243MOL0     H33502  -2.286   9.294   1.357  0.3007  0.4048  0.2528
  243MOL0     H33503  -2.147   9.229   1.452  0.0849  1.3412 -0.3456
  243MOL0     H33504  -2.252   9.044   1.502  1.8121  0.3927 -0.0830
  243MOL0     H33505  -2.308   9.010   1.327 -0.2842 -0.1915 -0.4306
  243MOL0     H33506  -2.502   9.173   1.372 -0.8642 -1.1477 -0.9293
  243MOL0     H33507  -2.498   9.025   1.475 -0.4338  0.8555 -2.3670
  243MOL0     H33508  -2.567   9.228   1.595 -0.3062  1.4311 -3.1121
  243MOL0     H33509  -2.407   9.297   1.572  1.1956 -1.1150  0.7000
  243MOL0     H33510  -2.311   9.085   1.689  0.1827  0.7047  2.3791
  243MOL0     H33511  -2.472   9.066   1.747 -2.7431  0.0042 -0.9744
  243MOL0     H33512  -2.464   9.277   1.862  1.0195 -1.8820  1.4091
  243MOL0     H33513  -2.318   9.324   1.767  1.5081  0.2246  0.2095
  243MOL0     H33514  -1.772   9.356   1.510  1.1796  2.0176 -0.8102
  243MOL0     H33515  -1.524   9.431   1.482  1.0645 -2.3042  0.8025
  243MOL0     H33516  -1.275   9.594   1.236  0.4387  1.0167 -1.4610
  243MOL0     H33517  -1.083   9.726   1.200 -0.1824 -0.1651  2.1655
  243MOL0     H33518   0.406   9.244   1.591 -1.2255 -0.0450 -0.7199
  243MOL0     H33519   0.459   9.484   1.634 -4.5705 -2.4433  1.0198
  243MOL0     H33520   0.441   9.892   1.278 -1.8199 -0.9264  2.5362
  243MOL0     H33521   0.526  10.116   1.206  0.1231 -1.1189 -1.4973
  243MOL0     H33522   0.492  10.290   1.468  2.6411 -2.8826  1.2594
  243MOL0     H33523   0.618  10.386   1.533 -0.9918 -3.2513  1.6367
  243MOL0     H33524   0.441  10.518   1.387 -0.9047 -0.7428 -0.1216
  243MOL0     H33525   0.485  10.401   1.264 -2.0938 -1.6484  2.2557
  243MOL0     H33526   0.723  10.503   1.258  2.7659 -0.7164  1.5247
  243MOL0     H33527   0.597  10.630   1.228 -2.0571 -2.5439  0.2370
  243MOL0     H33528   0.762  10.572   1.480 -3.8225  1.1463  4.5456
  243MOL0     H33529   0.607  10.654   1.491 -1.0520  2.6125 -1.8216
  243MOL0     H33530   0.901  10.948   1.383  1.1982 -1.6364  1.5974
  243MOL0     H33531   0.763  10.114   1.566 -1.9602 -1.5612  2.4384
  243MOL0     H33532   0.706   9.951   1.736 -1.2141  1.5412 -0.2793
  243MOL0     H33533   0.602   9.818   1.692 -1.4403  3.4811  0.9931
  243MOL0     H33534   0.777   9.816   1.633 -0.0500  0.9802 -0.3313
  244MOL0     O33535   3.139   8.960  11.603  0.5535 -0.1891 -0.1292
  244MOL0     C33536   3.258   8.963  11.620 -0.2411  0.5328 -0.1207
  244MOL0     O33537   3.336   8.852  11.639 -0.5023 -0.1418 -0.0682
  244MOL0     C33538   3.300   8.718  11.635  0.7107  0.6206 -1.0085
  244MOL0     C33539   3.385   8.621  11.704  0.1235  0.5023  1.0934
  244MOL0     C33540   3.351   8.483  11.704  0.0379  0.0626 -1.0784
  244MOL0     C33541   3.238   8.437  11.640 -0.2720 -0.5786  0.4635
  244MOL0     O33542   3.186   8.307  11.668 -0.5780 -0.1113  0.5139
  244MOL0     C33543   3.267   8.204  11.645 -0.4369 -0.0222  0.7483
  244MOL0     C33544   3.244   8.141  11.507 -0.0774  0.1398 -0.5799
  244MOL0     C33545   3.129   8.047  11.506 -0.6123  0.2385 -0.0587
  244MOL0     C33546   3.121   7.940  11.621 -0.6282  0.9837  0.2350
  244MOL0     C33547   3.059   7.806  11.572 -0.2683  0.4673  0.0226
  244MOL0     C33548   3.138   7.747  11.455  1.1364 -0.0828 -0.6997
  244MOL0     C33549   3.089   7.612  11.412  0.6980 -0.4516 -0.3447
  244MOL0     C33550   3.178   7.562  11.304 -0.0023 -0.5167 -0.3062
  244MOL0     N33551   3.148   7.423  11.270  0.4080  0.5350  0.2393
  244MOL0     C33552   3.084   7.393  11.152  0.5321 -0.5965 -0.3557
  244MOL0     C33553   3.062   7.260  11.175  0.3386  0.4886 -0.0082
  244MOL0     C33554   2.957   7.193  11.085  0.3432  0.6925  0.3934
  244MOL0     C33555   3.007   7.050  11.066 -0.1117 -0.8438 -0.6026
  244MOL0     C33556   2.938   6.955  11.165 -0.2013 -0.0597 -0.1861
  244MOL0     C33557   3.009   6.815  11.174  0.0536 -1.2195  1.2084
  244MOL0     O33558   2.983   6.722  11.287  0.0614 -0.3077  0.7623
  244MOL0     C33559   3.035   6.767  11.409  0.1856  0.2379 -0.6928
  244MOL0     C33560   3.125   6.867  11.426 -0.0766  0.0087  0.9467
  244MOL0     C33561   3.170   6.910  11.552  0.2697  0.4841 -0.1270
  244MOL0     C33562   3.264   7.034  11.562  0.6592 -0.6439 -1.0954
  244MOL0     C33563   3.135   6.828  11.667  0.0424 -0.4129  0.1517
  244MOL0     C33564   3.189   6.860  11.806  0.0115  0.0437 -0.2747
  244MOL0     O33565   3.158   6.766  11.900 -0.2429 -0.4400  1.2309
  244MOL0     C33566   3.136   6.801  12.029 -0.0110  0.3327  0.1686
  244MOL0     C33567   3.011   6.770  12.075  0.2484 -0.1880  0.2259
  244MOL0     C33568   2.984   6.800  12.209 -0.3319  1.1867 -0.4031
  244MOL0     C33569   3.071   6.869  12.292  0.1786  0.4669 -0.8602
  244MOL0     O33570   3.023   6.882  12.421  0.1487 -0.3226  0.4279
  244MOL0     C33571   3.116   6.909  12.521  0.4096 -0.3705 -0.0527
  244MOL0     C33572   3.034   6.888  12.644 -0.1442 -0.0500  0.0713
  244MOL0     C33573   2.919   6.995  12.666 -0.2551 -0.2960 -0.4578
  244MOL0     C33574   2.849   6.971  12.802 -0.1681 -0.0656  1.6319
  244MOL0     C33575   2.716   7.035  12.800  0.2248 -0.3532 -0.2447
  244MOL0     C33576   2.667   7.045  12.948 -0.1404 -0.0117  0.8236
  244MOL0     C33577   2.631   6.909  13.019 -0.2054  0.2856  1.1619
  244MOL0     C33578   2.608   6.941  13.158 -0.6890  0.0296 -0.6198
  244MOL0    Cl33579   2.777   6.992  13.229 -0.1243 -0.3539 -0.1838
  244MOL0     C33580   3.194   6.909  12.244  0.1498 -0.0219 -0.4500
  244MOL0     C33581   3.228   6.870  12.110 -0.1207  0.2763 -0.5866
  244MOL0     O33582   3.250   6.965  11.831  0.0582  0.9729 -0.6752
  244MOL0     C33583   3.041   6.724  11.654  0.5894  0.5102  0.5117
  244MOL0     C33584   2.993   6.694  11.523  0.0668  0.4082  0.1615
  244MOL0     N33585   3.115   7.212  11.293 -0.6697  0.2506 -0.5208
  244MOL0     N33586   3.167   7.309  11.350  0.3326  0.6679 -0.0942
  244MOL0     C33587   3.162   8.528  11.576 -0.1642  0.1145 -0.0015
  244MOL0     C33588   3.190   8.665  11.578 -0.0447 -0.1073  0.6731
  244MOL0     C33589   3.326   9.102  11.632 -0.1850  0.3435 -0.0010
  244MOL0     C33590   3.244   9.213  11.598  0.4983  0.2004  0.9751
  244MOL0     C33591   3.286   9.346  11.592 -0.5912  0.5041  0.3870
  244MOL0     C33592   3.422   9.375  11.605  0.0413  0.2326  0.5417
  244MOL0     O33593   3.478   9.503  11.598 -0.4790  0.0991 -0.2200
  244MOL0     C33594   3.408   9.613  11.546 -0.7577  0.9572  1.1320
  244MOL0     C33595   3.496   9.722  11.481 -0.0141 -0.1677  0.6028
  244MOL0     C33596   3.595   9.778  11.581 -0.5354  0.4707  0.0877
  244MOL0     C33597   3.681   9.888  11.523 -0.1305 -0.6845  0.3673
  244MOL0     C33598   3.617  10.024  11.533 -0.1681  0.8768  0.1903
  244MOL0     C33599   3.555  10.128  11.526 -0.3392 -0.6255 -0.2070
  244MOL0     C33600   3.513   9.275  11.628 -0.5035  0.9580  0.2775
  244MOL0     C33601   3.467   9.142  11.644 -0.0487 -0.6776  0.0571
  244MOL0     C33602   3.571   9.043  11.677  0.4891 -0.5540  0.3026
  244MOL0     H33603   3.479   8.653  11.748  0.2364  0.6462  0.7526
  244MOL0     H33604   3.407   8.415  11.768 -0.8778  0.3054  0.0259
  244MOL0     H33605   3.254   8.127  11.721  0.8878  0.4999  1.5245
  244MOL0     H33606   3.368   8.243  11.660 -0.6002  0.1600  1.4187
  244MOL0     H33607   3.234   8.222  11.434  1.7470  1.3439  0.4338
  244MOL0     H33608   3.331   8.077  11.492  0.9731  0.1698  3.8508
  244MOL0     H33609   3.038   8.105  11.527  1.3253  2.7046  2.4311
  244MOL0     H33610   3.139   8.007  11.405 -2.1656 -2.5662  0.8125
  244MOL0     H33611   3.223   7.914  11.651 -1.7916 -4.7483  0.4727
  244MOL0     H33612   3.085   7.979  11.717  0.2758 -2.1937  2.0293
  244MOL0     H33613   2.956   7.826  11.540  0.3274  1.7291 -1.2467
  244MOL0     H33614   3.071   7.729  11.648  2.4138  1.1596  0.3934
  244MOL0     H33615   3.126   7.806  11.363 -0.8815 -0.9763 -1.0655
  244MOL0     H33616   3.243   7.744  11.487  1.7628  0.8851 -2.5248
  244MOL0     H33617   2.983   7.615  11.384  0.1492  2.0098  1.6880
  244MOL0     H33618   3.109   7.543  11.495  2.9918  2.4075  1.7034
  244MOL0     H33619   3.186   7.623  11.213 -1.1561 -0.5431 -0.4432
  244MOL0     H33620   3.281   7.561  11.341  0.4342  0.8103 -1.3780
  244MOL0     H33621   3.063   7.457  11.067  0.2465 -1.0206 -0.6129
  244MOL0     H33622   2.971   7.242  10.988  2.2302 -1.4607 -0.5102
  244MOL0     H33623   2.849   7.198  11.104 -0.3265 -0.9127 -2.3461
  244MOL0     H33624   2.989   7.013  10.965  0.6706  1.5552 -1.7013
  244MOL0     H33625   3.115   7.050  11.086  0.0093 -0.9246 -1.2487
  244MOL0     H33626   2.945   7.008  11.260  2.2052 -0.1997 -0.2349
  244MOL0     H33627   2.833   6.942  11.135 -0.4138 -0.1344  0.5613
  244MOL0     H33628   2.969   6.761  11.088 -1.5055  0.0152  1.1147
  244MOL0     H33629   3.117   6.829  11.164 -0.0964 -1.3256 -0.9019
  244MOL0     H33630   3.174   6.912  11.341 -2.9501 -1.1855 -1.5054
  244MOL0     H33631   3.220   7.108  11.629  5.0717  1.8750 -0.6220
  244MOL0     H33632   3.269   7.083  11.464  2.3538 -1.1935 -1.3155
  244MOL0     H33633   3.365   7.018  11.599  0.4623 -0.7250 -0.5959
  244MOL0     H33634   2.948   6.720  12.002  1.9677  2.3283 -3.2738
  244MOL0     H33635   2.900   6.759  12.264  0.6988 -0.5750 -0.0786
  244MOL0     H33636   3.197   6.836  12.513  1.1476  0.4675 -0.5718
  244MOL0     H33637   3.167   7.006  12.513  0.2277 -0.2188  0.5991
  244MOL0     H33638   2.991   6.787  12.637 -1.0102  0.2929  0.3417
  244MOL0     H33639   3.091   6.873  12.736  1.1561  0.5072 -0.6179
  244MOL0     H33640   2.845   6.998  12.585  0.4431 -0.8281 -1.1329
  244MOL0     H33641   2.962   7.095  12.671 -0.3268 -0.2862  0.0104
  244MOL0     H33642   2.918   7.004  12.881  3.1522  0.4250 -1.2231
  244MOL0     H33643   2.840   6.862  12.807  0.4828 -0.1307  1.4425
  244MOL0     H33644   2.703   7.133  12.753 -1.7852 -0.3148  0.2995
  244MOL0     H33645   2.652   6.966  12.744 -2.3164  1.1008  0.7047
  244MOL0     H33646   2.573   7.099  12.945 -0.0729  0.0857 -2.7321
  244MOL0     H33647   2.751   7.093  12.999  0.5490 -2.8539  2.6634
  244MOL0     H33648   2.704   6.828  13.015 -1.0310 -0.4527  0.6232
  244MOL0     H33649   2.543   6.859  12.977  1.4076 -2.9634  1.3066
  244MOL0     H33650   2.555   6.861  13.212  0.6791 -0.4749  0.0184
  244MOL0     H33651   2.538   7.025  13.159  1.5241  2.0478  2.4676
  244MOL0     H33652   3.267   6.962  12.304 -0.3453 -1.2904  1.3444
  244MOL0     H33653   3.316   6.907  12.059 -1.1230  1.1362 -1.7714
  244MOL0     H33654   2.996   6.674  11.739  1.3190 -1.8889 -0.4341
  244MOL0     H33655   2.918   6.616  11.519 -1.8093  1.9026  2.5402
  244MOL0     H33656   3.069   8.488  11.538 -1.0764 -0.3255  2.5392
  244MOL0     H33657   3.120   8.741  11.544 -1.0785 -0.6143  1.6194
  244MOL0     H33658   3.141   9.190  11.577  0.7851 -2.0353  1.8093
  244MOL0     H33659   3.213   9.423  11.569 -1.6743 -0.5451  0.2137
  244MOL0     H33660   3.345   9.582  11.461  3.3342 -0.6299 -1.6183
  244MOL0     H33661   3.355   9.651  11.634 -0.7631  2.9191  0.3308
  244MOL0     H33662   3.451   9.807  11.429  1.9591 -1.0135 -2.8151
  244MOL0     H33663   3.552   9.664  11.406  1.3766 -4.1402  4.3089
  244MOL0     H33664   3.551   9.830  11.667 -0.1115 -0.7818  1.0917
  244MOL0     H33665   3.661   9.697  11.614  0.2825 -0.6280 -3.7365
  244MOL0     H33666   3.703   9.868  11.418 -1.1984  0.9343 -0.2087
  244MOL0     H33667   3.765   9.896  11.592 -2.4661 -1.6730  3.5508
  244MOL0     H33668   3.510  10.224  11.538 -0.1486 -0.7497  1.8488
  244MOL0     H33669   3.615   9.311  11.637 -0.5318  1.5108 -1.2852
  244MOL0     H33670   3.585   8.997  11.579  5.3679  3.6358 -1.3952
  244MOL0     H33671   3.666   9.089  11.704  0.2531 -0.9201  1.8515
  244MOL0     H33672   3.538   8.970  11.751  0.8897  0.8534  1.9422
  245MOL0     O33673   2.290   8.905   7.083 -0.8344 -0.1401  0.0550
  245MOL0     C33674   2.185   8.832   7.091  0.3777 -0.0722  0.5039
  245MOL0     O33675   2.093   8.820   7.194  0.3841 -0.7867 -0.0912
  245MOL0     C33676   2.110   8.875   7.323 -0.1776 -0.6109  0.2611
  245MOL0     C33677   2.033   8.807   7.416  0.6664  0.8277 -0.0131
  245MOL0     C33678   2.038   8.841   7.548 -0.6269 -0.7598  0.1895
  245MOL0     C33679   2.102   8.957   7.584 -0.3519  0.0576  0.9533
  245MOL0     O33680   2.115   9.001   7.712 -0.0777  0.2031  0.2315
  245MOL0     C33681   2.098   8.911   7.823  0.4466 -0.8427  0.8194
  245MOL0     C33682   2.242   8.854   7.849  0.7884  0.0641 -0.3716
  245MOL0     C33683   2.258   8.785   7.987 -0.8004  0.4313 -0.3734
  245MOL0     C33684   2.243   8.879   8.108  0.4733  0.1298  0.2213
  245MOL0     C33685   2.305   8.817   8.226  0.5692  0.3966  0.6082
  245MOL0     C33686   2.305   8.903   8.347 -0.2194 -0.2180 -0.0502
  245MOL0     C33687   2.374   8.832   8.468  0.1857  0.0906 -0.3190
  245MOL0     C33688   2.378   8.920   8.590 -0.6439 -0.7672 -0.5127
  245MOL0     N33689   2.440   8.854   8.704 -0.3975  1.0789  0.0757
  245MOL0     C33690   2.409   8.728   8.742 -0.5008  1.0822  0.3553
  245MOL0     C33691   2.522   8.683   8.812 -0.6349  0.8997  0.8127
  245MOL0     C33692   2.550   8.547   8.847 -0.1847 -0.3405 -0.2746
  245MOL0     C33693   2.628   8.517   8.977  0.4856  0.5234 -0.4208
  245MOL0     C33694   2.551   8.570   9.103 -0.3881 -0.7148  0.5816
  245MOL0     C33695   2.408   8.517   9.118 -0.2439 -0.1500  0.0689
  245MOL0     O33696   2.317   8.619   9.072  0.5371 -0.2353  0.3848
  245MOL0     C33697   2.218   8.670   9.152  0.4135  0.3881  0.4755
  245MOL0     C33698   2.251   8.711   9.276 -0.1091 -0.1368 -0.1567
  245MOL0     C33699   2.155   8.761   9.362 -0.2528 -0.2679  0.3354
  245MOL0     C33700   2.203   8.776   9.508 -0.0836 -0.8102  0.1268
  245MOL0     C33701   2.026   8.791   9.313 -0.6515  0.7562  0.0224
  245MOL0     C33702   1.911   8.849   9.382 -0.0259 -0.3611 -1.6928
  245MOL0     O33703   1.783   8.821   9.332  0.2852 -0.0064  0.0091
  245MOL0     C33704   1.670   8.893   9.346  0.6681 -0.1117 -0.9733
  245MOL0     C33705   1.574   8.865   9.252  0.7043  0.1488  0.5265
  245MOL0     C33706   1.449   8.928   9.261 -0.1850  0.0133  0.4053
  245MOL0     C33707   1.424   9.030   9.354 -0.6979  0.3426 -0.5912
  245MOL0     O33708   1.307   9.095   9.348  0.2209  0.8025  0.5076
  245MOL0     C33709   1.301   9.233   9.384 -0.2293 -0.2688  0.0266
  245MOL0     C33710   1.388   9.327   9.290 -1.1517  0.2346 -0.2590
  245MOL0     C33711   1.336   9.472   9.290 -0.2848 -0.1290  0.1372
  245MOL0     C33712   1.455   9.560   9.248 -0.2192  0.3104 -0.4589
  245MOL0     C33713   1.471   9.576   9.098  0.1601 -0.5769  0.0271
  245MOL0     C33714   1.599   9.652   9.053  0.2207  0.7653  0.3314
  245MOL0     C33715   1.570   9.803   9.071  0.7699  0.7112  1.1223
  245MOL0     C33716   1.687   9.874   8.998  0.7059 -0.0865  0.9508
  245MOL0    Cl33717   1.865   9.814   9.018 -0.2060 -0.0066 -0.0486
  245MOL0     C33718   1.525   9.054   9.451  0.0157  0.2556  0.1478
  245MOL0     C33719   1.651   8.996   9.436 -0.6613 -0.2127 -0.0710
  245MOL0     O33720   1.939   8.930   9.469 -0.1838  0.1875  0.1337
  245MOL0     C33721   1.997   8.749   9.175  0.4145 -0.2312  0.9181
  245MOL0     C33722   2.094   8.679   9.099  0.1238 -0.5200  0.1755
  245MOL0     N33723   2.615   8.787   8.816 -0.1665 -0.5679  0.1752
  245MOL0     N33724   2.561   8.891   8.763 -0.2259  0.3926  0.3413
  245MOL0     C33725   2.182   9.021   7.484 -0.0642  0.3661 -0.0778
  245MOL0     C33726   2.190   8.980   7.350  0.8880 -0.4080 -0.6382
  245MOL0     C33727   2.165   8.739   6.978  0.6831  0.2748 -1.1137
  245MOL0     C33728   2.043   8.665   6.974 -0.1832  0.1842  0.1332
  245MOL0     C33729   2.020   8.577   6.870  0.2830 -0.6535 -0.4827
  245MOL0     C33730   2.110   8.565   6.759  0.3344 -0.4927 -0.4510
  245MOL0     O33731   2.096   8.497   6.640  0.0536  0.0691  0.9933
  245MOL0     C33732   1.964   8.493   6.582  0.7712 -0.9172  0.9066
  245MOL0     C33733   1.945   8.608   6.480 -0.2479  0.7413 -0.5495
  245MOL0     C33734   1.947   8.752   6.537 -0.5495 -1.1449 -0.7192
  245MOL0     C33735   1.833   8.794   6.624 -0.7225 -0.5697 -0.5226
  245MOL0     C33736   1.833   8.938   6.646 -0.9792 -1.3799 -0.1173
  245MOL0     C33737   1.864   9.054   6.680  0.4053 -1.0917  0.3774
  245MOL0     C33738   2.231   8.630   6.769  0.2416 -0.6700 -0.1871
  245MOL0     C33739   2.257   8.717   6.871 -0.7196 -0.1434 -0.7624
  245MOL0     C33740   2.387   8.797   6.857 -0.5179 -1.2272 -0.3892
  245MOL0     H33741   1.979   8.719   7.385  0.3712  0.4312  1.5834
  245MOL0     H33742   1.977   8.783   7.616 -1.2868  0.2698  0.5063
  245MOL0     H33743   2.017   8.839   7.804  2.0070 -2.6316  0.6805
  245MOL0     H33744   2.058   8.978   7.900 -0.1203  0.6237 -0.6871
  245MOL0     H33745   2.264   8.771   7.780  0.8465 -0.4371  0.2375
  245MOL0     H33746   2.316   8.929   7.821 -0.5911  0.3504 -3.8319
  245MOL0     H33747   2.176   8.713   7.996  0.3113 -1.2417 -2.6634
  245MOL0     H33748   2.357   8.739   7.984  0.9156  3.7934 -0.8406
  245MOL0     H33749   2.296   8.968   8.072  1.5601 -0.9957 -1.0759
  245MOL0     H33750   2.137   8.901   8.122  0.8256  2.3621 -0.2399
  245MOL0     H33751   2.403   8.780   8.197  0.5286 -0.2121  1.2078
  245MOL0     H33752   2.245   8.729   8.253  1.2799 -1.2975 -2.7473
  245MOL0     H33753   2.366   8.991   8.323 -0.3347 -0.6302 -1.9918
  245MOL0     H33754   2.207   8.942   8.375  0.5766  2.2623 -0.4150
  245MOL0     H33755   2.469   8.786   8.438 -0.7757 -1.5704 -0.9747
  245MOL0     H33756   2.307   8.748   8.488 -0.0067  0.0827 -0.9664
  245MOL0     H33757   2.439   9.010   8.576  0.0045 -1.0697  0.2301
  245MOL0     H33758   2.276   8.949   8.617  0.7438  4.7811 -0.0201
  245MOL0     H33759   2.324   8.664   8.719  2.3110 -2.5728 -1.0578
  245MOL0     H33760   2.614   8.513   8.765  0.6735 -0.5828  0.4813
  245MOL0     H33761   2.450   8.503   8.851 -2.2125  3.8236  0.0790
  245MOL0     H33762   2.616   8.408   8.977  1.0919  0.4096 -2.3756
  245MOL0     H33763   2.735   8.539   8.966  0.4880  0.4169 -0.6255
  245MOL0     H33764   2.604   8.550   9.197  0.5579  0.2744  0.2770
  245MOL0     H33765   2.546   8.679   9.096 -2.6281 -0.8413 -0.7030
  245MOL0     H33766   2.396   8.416   9.077 -0.3573 -2.5766  5.3110
  245MOL0     H33767   2.389   8.492   9.222  0.3970 -1.9618 -0.2088
  245MOL0     H33768   2.356   8.710   9.301 -0.3468  0.9320  0.9945
  245MOL0     H33769   2.120   8.774   9.579  1.1718  4.1053  2.1178
  245MOL0     H33770   2.259   8.866   9.531 -2.7319  1.1147 -0.4859
  245MOL0     H33771   2.269   8.690   9.527  0.3448 -0.3974  0.5154
  245MOL0     H33772   1.591   8.799   9.168  1.0995  2.0571 -0.9908
  245MOL0     H33773   1.382   8.906   9.178 -1.5455  3.4138  0.4700
  245MOL0     H33774   1.197   9.266   9.370 -0.1613 -0.0634 -0.0031
  245MOL0     H33775   1.322   9.250   9.490  2.2415 -2.6654  0.0291
  245MOL0     H33776   1.493   9.315   9.318 -0.6043  2.3371 -1.2392
  245MOL0     H33777   1.390   9.292   9.186 -1.8176 -1.8276  0.3793
  245MOL0     H33778   1.291   9.499   9.386 -0.4705  0.7329 -0.1769
  245MOL0     H33779   1.262   9.497   9.213  2.6900  1.9045 -2.3315
  245MOL0     H33780   1.546   9.538   9.304 -2.3207 -1.5163  2.4912
  245MOL0     H33781   1.433   9.662   9.281 -1.6521 -0.0012 -0.3589
  245MOL0     H33782   1.488   9.475   9.061 -2.3108 -0.7760 -0.7639
  245MOL0     H33783   1.382   9.620   9.052 -0.9494 -3.2050 -0.4962
  245MOL0     H33784   1.619   9.625   8.949  2.3855 -0.2008  0.9524
  245MOL0     H33785   1.685   9.607   9.103 -0.5325 -2.1996 -0.8185
  245MOL0     H33786   1.577   9.824   9.179  0.0510 -0.1583  1.3520
  245MOL0     H33787   1.472   9.838   9.036  0.8080 -0.0565  0.1867
  245MOL0     H33788   1.683   9.983   9.010  4.1861  0.4308 -1.3236
  245MOL0     H33789   1.667   9.853   8.893  1.4463 -1.7263  1.1014
  245MOL0     H33790   1.489   9.130   9.520  1.2203  2.8275 -1.8888
  245MOL0     H33791   1.730   9.032   9.501  0.3708 -1.7128 -0.4294
  245MOL0     H33792   1.906   8.763   9.117  2.3042 -2.1754 -2.9716
  245MOL0     H33793   2.068   8.637   9.002 -1.4771 -0.4055  0.5299
  245MOL0     H33794   2.254   9.099   7.505 -2.5770  3.3219 -1.6768
  245MOL0     H33795   2.243   9.041   7.277 -0.6903  2.6288  0.5513
  245MOL0     H33796   1.965   8.670   7.050 -1.9573 -3.7044 -1.1815
  245MOL0     H33797   1.925   8.526   6.878 -0.1096  0.2354  0.7858
  245MOL0     H33798   1.951   8.396   6.534 -0.6671  0.2634 -1.2601
  245MOL0     H33799   1.880   8.502   6.652  2.1378 -2.2419  2.8119
  245MOL0     H33800   1.853   8.584   6.427 -0.9875 -0.2749  1.1148
  245MOL0     H33801   2.036   8.603   6.420  1.7190  0.9309  2.1967
  245MOL0     H33802   2.041   8.781   6.586 -2.3394  5.3319 -0.2099
  245MOL0     H33803   1.947   8.821   6.452 -1.1743 -0.8575 -0.4869
  245MOL0     H33804   1.849   8.737   6.716  1.2644  0.8072  0.0417
  245MOL0     H33805   1.733   8.785   6.579 -0.6007 -0.6017 -0.7834
  245MOL0     H33806   1.899   9.155   6.692  1.1343 -1.0861 -1.4837
  245MOL0     H33807   2.300   8.603   6.690 -0.4520  0.1602 -1.1073
  245MOL0     H33808   2.446   8.791   6.949 -0.2399  0.5710 -0.4075
  245MOL0     H33809   2.430   8.767   6.761 -0.5338 -2.7324  0.0435
  245MOL0     H33810   2.368   8.905   6.854  0.0622 -1.1142 -0.1360
  246MOL0     O33811   4.932  10.063  10.083 -0.0334 -0.0132 -0.4286
  246MOL0     C33812   5.045  10.036  10.051  0.2360 -0.2464 -0.1632
  246MOL0     O33813   5.079   9.971   9.935  0.5389 -0.7278 -0.4025
  246MOL0     C33814   4.982   9.937   9.849  0.4768  0.4483  0.9354
  246MOL0     C33815   4.854   9.883   9.874 -0.3436  0.4798 -0.6286
  246MOL0     C33816   4.777   9.847   9.764  0.4040  0.8802 -0.6908
  246MOL0     C33817   4.807   9.869   9.633 -0.9408  0.0365 -0.0496
  246MOL0     O33818   4.730   9.802   9.542  0.3647  0.3250 -0.2092
  246MOL0     C33819   4.673   9.891   9.445  0.0323  1.2244  0.8495
  246MOL0     C33820   4.570   9.982   9.518 -0.2861 -0.9582 -0.1417
  246MOL0     C33821   4.472  10.044   9.416 -0.9197  0.3282  0.4054
  246MOL0     C33822   4.369  10.123   9.493 -0.2712 -0.5182 -0.5567
  246MOL0     C33823   4.291  10.226   9.404  0.2519  0.0851  0.0296
  246MOL0     C33824   4.201  10.332   9.474  0.8802  0.9643 -0.4500
  246MOL0     C33825   4.085  10.261   9.539  0.4114  1.6863 -0.4049
  246MOL0     C33826   3.987  10.372   9.574 -0.1291  0.5378 -0.9713
  246MOL0     N33827   4.020  10.446   9.703 -0.6748  0.5996  0.3003
  246MOL0     C33828   4.054  10.375   9.812 -0.4881 -0.2803 -1.1821
  246MOL0     C33829   4.122  10.462   9.899  0.2663  0.3689  0.6065
  246MOL0     C33830   4.168  10.441  10.043 -1.0859  0.3921  0.1353
  246MOL0     C33831   4.131  10.299  10.094  0.1011  0.0273  0.8117
  246MOL0     C33832   4.220  10.256  10.206 -0.0311  1.2612 -0.0646
  246MOL0     C33833   4.161  10.119  10.273  0.2704 -0.6790  0.8914
  246MOL0     O33834   4.263  10.077  10.363 -0.0216  0.1049  0.4760
  246MOL0     C33835   4.237   9.958  10.437 -0.7169 -1.5804  0.7621
  246MOL0     C33836   4.348   9.878  10.444 -0.1546  1.1470  0.2302
  246MOL0     C33837   4.335   9.750  10.514  1.0710  0.2479  0.6302
  246MOL0     C33838   4.465   9.669  10.523  0.4469  0.6035  0.4827
  246MOL0     C33839   4.211   9.717  10.577 -0.0238 -0.3559 -0.6573
  246MOL0     C33840   4.185   9.591  10.655  1.0457 -0.8997 -0.0775
  246MOL0     O33841   4.284   9.504  10.651  0.4581  0.3515  0.5327
  246MOL0     C33842   4.294   9.392  10.734 -0.4803 -0.3485  0.0159
  246MOL0     C33843   4.411   9.367  10.796 -0.1970  0.2845  0.8720
  246MOL0     C33844   4.439   9.232  10.852 -0.4021 -0.0077  0.4905
  246MOL0     C33845   4.333   9.133  10.864  0.3636 -0.3505  0.1405
  246MOL0     O33846   4.362   9.007  10.921  0.2228 -0.4196  0.2606
  246MOL0     C33847   4.272   8.956  11.018  0.2834 -0.1010  1.1387
  246MOL0     C33848   4.336   8.847  11.090  0.1237  0.1055 -0.1848
  246MOL0     C33849   4.467   8.873  11.168  0.3632  0.3621  0.4312
  246MOL0     C33850   4.471   8.998  11.267 -0.5035  0.0743 -0.8949
  246MOL0     C33851   4.581   9.098  11.235 -0.0948 -0.1700  0.4487
  246MOL0     C33852   4.607   9.204  11.347  0.3027  0.8473 -0.1126
  246MOL0     C33853   4.706   9.135  11.452  0.3056  0.1402 -0.8075
  246MOL0     C33854   4.662   9.177  11.588  0.0855 -0.1411 -0.2419
  246MOL0    Cl33855   4.774   9.091  11.702  0.0307 -0.6465  0.1088
  246MOL0     C33856   4.212   9.172  10.812  0.8007 -0.0384 -0.2285
  246MOL0     C33857   4.193   9.294  10.755  0.3002 -0.3912  0.6985
  246MOL0     O33858   4.088   9.586  10.734 -0.4563  0.0045  0.2789
  246MOL0     C33859   4.110   9.815  10.583 -0.1016 -1.1977  0.0699
  246MOL0     C33860   4.124   9.934  10.503 -0.3090  0.6436  0.3296
  246MOL0     N33861   4.128  10.588   9.837 -0.0357  0.1487  0.4974
  246MOL0     N33862   4.069  10.570   9.723  0.1712 -0.5333 -0.0269
  246MOL0     C33863   4.931   9.932   9.604 -0.2211 -0.5997 -0.0881
  246MOL0     C33864   5.014   9.954   9.710  0.8459 -0.3080  0.0670
  246MOL0     C33865   5.156  10.068  10.147  0.3498  0.0115  0.4510
  246MOL0     C33866   5.281  10.007  10.132  0.2678 -0.4099  0.2586
  246MOL0     C33867   5.380  10.055  10.218 -0.5815  0.6208  0.7423
  246MOL0     C33868   5.359  10.145  10.315  0.3132 -0.5624 -0.4831
  246MOL0     O33869   5.452  10.202  10.401  0.9258  0.4414  0.1264
  246MOL0     C33870   5.586  10.156  10.386 -0.3723  0.1322 -0.4939
  246MOL0     C33871   5.670  10.272  10.327 -0.4056  0.6201  0.8224
  246MOL0     C33872   5.687  10.379  10.426  0.0146  1.0509  0.7321
  246MOL0     C33873   5.571  10.479  10.441 -0.3437  0.2557  0.3258
  246MOL0     C33874   5.613  10.612  10.489 -0.9243 -0.5341  0.3972
  246MOL0     C33875   5.674  10.714  10.516 -0.4405 -0.7702  0.1779
  246MOL0     C33876   5.243  10.204  10.332 -0.4774 -1.2507  0.2187
  246MOL0     C33877   5.135  10.169  10.247 -0.1509  1.0377  0.1317
  246MOL0     C33878   5.010  10.253  10.268 -0.4872  0.7312  0.2302
  246MOL0     H33879   4.821   9.853   9.973 -2.1376 -0.1826 -1.3773
  246MOL0     H33880   4.679   9.807   9.787 -0.1639  2.6527  0.1472
  246MOL0     H33881   4.632   9.822   9.371  0.2452 -0.6611  2.4412
  246MOL0     H33882   4.754   9.946   9.395  1.6245 -1.1205  0.7114
  246MOL0     H33883   4.523   9.931   9.602  1.5930  0.6086  1.9804
  246MOL0     H33884   4.621  10.058   9.578 -0.7374 -2.0421  1.6986
  246MOL0     H33885   4.518  10.108   9.340 -0.9648  1.4061  1.2716
  246MOL0     H33886   4.425   9.961   9.362 -1.2266  0.7840 -0.0345
  246MOL0     H33887   4.300  10.052   9.538  2.4097  0.4888  6.4547
  246MOL0     H33888   4.412  10.185   9.573 -2.1414  2.9202 -1.9726
  246MOL0     H33889   4.220  10.168   9.345  2.0663  1.5504 -3.9527
  246MOL0     H33890   4.356  10.283   9.337  0.4734 -1.1565 -0.8286
  246MOL0     H33891   4.256  10.381   9.554  0.7531  1.2785 -0.5558
  246MOL0     H33892   4.155  10.399   9.401  2.3013  1.6203 -0.7783
  246MOL0     H33893   4.105  10.199   9.627  2.4983  1.8254 -0.7428
  246MOL0     H33894   4.036  10.199   9.464  0.5438 -0.1314  0.9515
  246MOL0     H33895   3.988  10.452   9.500  0.7383  1.6811  0.2337
  246MOL0     H33896   3.888  10.326   9.581 -0.7456  1.9079 -0.4143
  246MOL0     H33897   4.022  10.276   9.843 -2.6672  0.6440 -0.2211
  246MOL0     H33898   4.133  10.524  10.105  2.9338  2.3262  0.1041
  246MOL0     H33899   4.276  10.452  10.040 -0.2295 -5.2707 -0.2818
  246MOL0     H33900   4.031  10.308  10.138 -0.5654 -3.8105  0.4195
  246MOL0     H33901   4.121  10.220  10.020 -2.7261  2.4083 -1.6344
  246MOL0     H33902   4.321  10.260  10.164  0.9326  1.4029  2.1275
  246MOL0     H33903   4.216  10.325  10.291  0.6608  1.0763  0.1251
  246MOL0     H33904   4.065  10.138  10.322  0.1321  2.7239 -0.4558
  246MOL0     H33905   4.154  10.046  10.192  1.4338 -0.7027  0.7937
  246MOL0     H33906   4.435   9.903  10.385  1.2756  0.4607  1.9783
  246MOL0     H33907   4.553   9.726  10.490 -0.4072  1.9639  0.4508
  246MOL0     H33908   4.447   9.580  10.461 -3.0915  2.3782 -1.3907
  246MOL0     H33909   4.481   9.635  10.625 -0.6181 -3.2614 -0.4765
  246MOL0     H33910   4.487   9.443  10.786  0.6302 -0.6367  0.0281
  246MOL0     H33911   4.533   9.211  10.903 -0.9115 -2.8326  0.4726
  246MOL0     H33912   4.254   9.046  11.078 -1.9776  1.2740 -1.3925
  246MOL0     H33913   4.182   8.909  10.977  1.0484 -2.4141  1.9700
  246MOL0     H33914   4.273   8.803  11.168  2.0077 -1.7463  0.3916
  246MOL0     H33915   4.355   8.772  11.013  0.8232  1.3459 -1.2548
  246MOL0     H33916   4.553   8.869  11.101  1.7407 -1.0828  2.1792
  246MOL0     H33917   4.476   8.780  11.225 -2.8178  0.7753  1.8609
  246MOL0     H33918   4.487   8.944  11.361  0.2819 -3.0564 -2.6805
  246MOL0     H33919   4.374   9.050  11.271 -0.0260  1.1151 -2.1177
  246MOL0     H33920   4.676   9.052  11.206  0.2667  1.4486 -1.0671
  246MOL0     H33921   4.557   9.156  11.146  0.9935  1.1644  0.9931
  246MOL0     H33922   4.518   9.244  11.396  1.6263 -0.2170  3.4851
  246MOL0     H33923   4.668   9.287  11.308  0.6501  0.3991 -0.5305
  246MOL0     H33924   4.810   9.163  11.431  0.7481  0.1879  1.2965
  246MOL0     H33925   4.700   9.026  11.444 -2.1253 -0.0761  2.3044
  246MOL0     H33926   4.562   9.136  11.603 -0.2244  0.2167 -1.2258
  246MOL0     H33927   4.666   9.285  11.604 -0.1922 -0.2984  0.9709
  246MOL0     H33928   4.138   9.096  10.834  3.2691 -2.7518 -0.6962
  246MOL0     H33929   4.088   9.321  10.741  0.1380 -1.1841  0.3588
  246MOL0     H33930   4.018   9.798  10.638 -0.5172  0.3079 -0.1227
  246MOL0     H33931   4.038  10.001  10.505 -3.4630 -3.0804  1.1056
  246MOL0     H33932   4.958   9.950   9.501  2.5595 -1.7286  0.3452
  246MOL0     H33933   5.106  10.006   9.684 -0.2224  2.3246  1.1653
  246MOL0     H33934   5.301   9.927  10.062 -2.7839 -1.6719  0.6768
  246MOL0     H33935   5.477  10.022  10.182 -0.1748  1.1140  1.3413
  246MOL0     H33936   5.618  10.113  10.481 -2.0622 -0.0801  0.0077
  246MOL0     H33937   5.600  10.071  10.318 -0.7435 -1.0510  0.8634
  246MOL0     H33938   5.614  10.302  10.238 -1.4129 -1.8690  0.5308
  246MOL0     H33939   5.769  10.234  10.301 -0.8392 -0.7218  1.0596
  246MOL0     H33940   5.697  10.339  10.528 -0.3510  0.7744  0.6612
  246MOL0     H33941   5.776  10.435  10.399 -0.2120  1.4725  0.8579
  246MOL0     H33942   5.500  10.440  10.514 -1.4505 -1.3952 -1.5165
  246MOL0     H33943   5.525  10.499  10.344  0.6047  0.0787 -0.1766
  246MOL0     H33944   5.733  10.802  10.534  1.7663 -1.5733 -2.4804
  246MOL0     H33945   5.243  10.286  10.403  1.5562 -0.7994 -0.2461
  246MOL0     H33946   5.032  10.335  10.338  0.0346 -0.0611  1.0205
  246MOL0     H33947   4.976  10.295  10.174 -1.7906  2.5329  1.4385
  246MOL0     H33948   4.937  10.188  10.316 -0.6119  0.0983 -0.7958
  247MOL0     O33949   5.927  11.059   1.128  0.6518 -0.1955  0.2744
  247MOL0     C33950   5.869  10.997   1.036  0.0626  0.3636 -0.7534
  247MOL0     O33951   5.732  10.978   1.033 -0.0327 -0.0632 -0.1353
  247MOL0     C33952   5.656  11.032   1.127  0.5758 -0.3233  0.4417
  247MOL0     C33953   5.679  10.995   1.258  1.2893 -0.9843 -1.3365
  247MOL0     C33954   5.593  11.043   1.356  0.5054 -0.5021 -1.0554
  247MOL0     C33955   5.482  11.125   1.326  0.0894 -0.4763 -0.2788
  247MOL0     O33956   5.399  11.187   1.423  0.2487  0.3744  0.7168
  247MOL0     C33957   5.371  11.116   1.546 -0.0726 -0.8733 -0.3013
  247MOL0     C33958   5.302  11.211   1.650 -0.5176 -0.2609 -0.8417
  247MOL0     C33959   5.396  11.321   1.693  0.4361  0.9639  0.7449
  247MOL0     C33960   5.342  11.405   1.811 -0.3525  0.6138 -1.0277
  247MOL0     C33961   5.452  11.510   1.864  0.0521 -0.5259  0.1635
  247MOL0     C33962   5.392  11.653   1.883  0.1286  0.0314 -0.6078
  247MOL0     C33963   5.313  11.670   2.014 -0.1766  0.1288  0.4018
  247MOL0     C33964   5.228  11.795   2.018 -0.5370  0.9553 -0.5058
  247MOL0     N33965   5.307  11.926   2.015  0.4792 -0.3234 -0.6014
  247MOL0     C33966   5.426  11.953   2.084  0.8409  0.7572  0.1072
  247MOL0     C33967   5.441  12.087   2.083 -0.6669  0.1407 -0.3231
  247MOL0     C33968   5.539  12.172   2.155  0.6062  0.5258  0.2319
  247MOL0     C33969   5.470  12.287   2.222 -0.0872 -0.1142  0.0368
  247MOL0     C33970   5.432  12.404   2.132  0.2530  0.1273  0.7431
  247MOL0     C33971   5.548  12.506   2.106 -0.1572 -0.5168  0.3409
  247MOL0     O33972   5.548  12.582   2.229  0.1201 -0.0062  0.5818
  247MOL0     C33973   5.557  12.715   2.211  0.9047 -0.3096  0.1903
  247MOL0     C33974   5.672  12.773   2.151  0.6680 -0.1536  0.3128
  247MOL0     C33975   5.677  12.914   2.126  0.0640 -0.4523  0.1537
  247MOL0     C33976   5.788  12.953   2.037 -0.7608  0.8646 -0.1863
  247MOL0     C33977   5.568  12.989   2.180  0.7211  1.3383  0.9828
  247MOL0     C33978   5.569  13.143   2.181 -0.6816  0.3096  0.5624
  247MOL0     O33979   5.452  13.208   2.196 -0.4469  0.3058  0.3775
  247MOL0     C33980   5.431  13.344   2.193  0.2985 -0.5330  0.9789
  247MOL0     C33981   5.350  13.390   2.086 -0.3022 -0.4634  0.2923
  247MOL0     C33982   5.302  13.521   2.070 -0.1985 -0.9028  0.5145
  247MOL0     C33983   5.346  13.612   2.171  0.0642 -0.0522  0.8779
  247MOL0     O33984   5.297  13.741   2.166 -0.0381 -0.9896 -0.2576
  247MOL0     C33985   5.171  13.763   2.116  0.1955 -0.7226  0.2085
  247MOL0     C33986   5.110  13.893   2.173 -0.0204 -0.3112  0.5645
  247MOL0     C33987   5.117  13.889   2.325  0.1470 -0.6081  0.0130
  247MOL0     C33988   5.057  14.014   2.383  0.5584 -0.0236 -0.3614
  247MOL0     C33989   5.047  14.006   2.537  0.4016  0.4388 -1.2848
  247MOL0     C33990   5.166  14.036   2.629  0.5658 -0.0223 -0.1394
  247MOL0     C33991   5.233  14.170   2.602  0.4087 -0.6481 -0.6928
  247MOL0     C33992   5.300  14.245   2.721  0.0903  0.1696 -1.1186
  247MOL0    Cl33993   5.450  14.331   2.672 -0.0100  0.1082  0.1714
  247MOL0     C33994   5.430  13.573   2.279  0.9055  1.2970  1.0410
  247MOL0     C33995   5.468  13.430   2.296 -0.1155  0.0174  1.1835
  247MOL0     O33996   5.682  13.191   2.188  0.3425 -0.8566 -0.0939
  247MOL0     C33997   5.452  12.928   2.235  1.0791  0.1558  0.4241
  247MOL0     C33998   5.450  12.791   2.252  0.3329 -0.0601  0.1980
  247MOL0     N33999   5.335  12.134   2.008 -0.1973 -0.1585 -0.2151
  247MOL0     N34000   5.257  12.040   1.978 -0.1952 -0.0262  0.5796
  247MOL0     C34001   5.460  11.163   1.191 -0.5029  0.2338  0.3811
  247MOL0     C34002   5.554  11.122   1.090 -0.7649 -0.0598 -0.3311
  247MOL0     C34003   5.936  10.909   0.930 -1.0010 -0.1376 -0.2205
  247MOL0     C34004   5.866  10.794   0.886  0.9296  0.4198 -0.0566
  247MOL0     C34005   5.927  10.716   0.784  0.0290  0.2829  0.4115
  247MOL0     C34006   6.048  10.742   0.727 -0.2146  0.7688  0.1878
  247MOL0     O34007   6.085  10.654   0.621  0.4022  0.4650  0.0514
  247MOL0     C34008   6.216  10.660   0.561  0.2445  0.2153 -0.7004
  247MOL0     C34009   6.233  10.557   0.447 -0.1452  0.5344 -0.7781
  247MOL0     C34010   6.212  10.415   0.500 -0.6698 -0.4802 -0.4054
  247MOL0     C34011   6.314  10.361   0.601  0.1373 -0.0782  0.0614
  247MOL0     C34012   6.452  10.385   0.564  0.5525  0.0103  0.3453
  247MOL0     C34013   6.563  10.389   0.523 -0.4361  0.8233  0.5797
  247MOL0     C34014   6.121  10.850   0.780 -0.1205 -0.8197 -0.0489
  247MOL0     C34015   6.068  10.936   0.879 -0.7697 -0.7869  0.6111
  247MOL0     C34016   6.153  11.055   0.914 -0.2611  0.1647 -0.1243
  247MOL0     H34017   5.764  10.936   1.290  2.3830  2.2125  2.4087
  247MOL0     H34018   5.631  11.037   1.457  0.9174 -2.4131 -1.2847
  247MOL0     H34019   5.457  11.074   1.599 -0.4583 -0.2185  0.8940
  247MOL0     H34020   5.309  11.031   1.517 -1.3202  0.0978 -0.6156
  247MOL0     H34021   5.211  11.253   1.607  0.6345  2.3797 -0.9117
  247MOL0     H34022   5.283  11.156   1.743 -3.1032  0.0129 -1.1593
  247MOL0     H34023   5.487  11.269   1.726  0.1681 -3.3110 -3.9477
  247MOL0     H34024   5.417  11.389   1.611 -1.9236  2.3725  1.2323
  247MOL0     H34025   5.252  11.460   1.781  1.0539  3.1383 -0.9138
  247MOL0     H34026   5.319  11.340   1.896  0.0992  2.7199  0.8135
  247MOL0     H34027   5.526  11.521   1.783 -1.3685  1.6274 -0.9362
  247MOL0     H34028   5.493  11.477   1.960 -1.7113 -1.3826  0.6499
  247MOL0     H34029   5.475  11.725   1.884  0.7168 -0.6334  0.9495
  247MOL0     H34030   5.327  11.676   1.798 -0.0086 -0.0681 -0.5279
  247MOL0     H34031   5.385  11.652   2.094 -2.1278 -0.8079  2.0316
  247MOL0     H34032   5.257  11.577   2.031 -0.8431  0.4233 -0.1418
  247MOL0     H34033   5.159  11.799   1.934  0.7841 -0.9892 -1.7827
  247MOL0     H34034   5.194  11.795   2.122  0.4136  0.1051 -0.1707
  247MOL0     H34035   5.478  11.876   2.140 -2.7631 -2.2848 -0.3988
  247MOL0     H34036   5.617  12.208   2.088  1.6053  0.2410  1.2067
  247MOL0     H34037   5.608  12.122   2.224  1.5974  0.4991 -0.7596
  247MOL0     H34038   5.382  12.253   2.278 -0.6418  0.4734 -0.4662
  247MOL0     H34039   5.538  12.330   2.297  1.5691  0.6616 -1.8334
  247MOL0     H34040   5.416  12.358   2.035  0.9989  2.1334 -0.3896
  247MOL0     H34041   5.345  12.460   2.167  1.7695  2.3836  1.1016
  247MOL0     H34042   5.639  12.446   2.101  2.0683  2.6705 -0.3451
  247MOL0     H34043   5.544  12.566   2.014  0.9378 -1.3536 -0.2838
  247MOL0     H34044   5.750  12.700   2.132  0.0698 -0.7263  0.0063
  247MOL0     H34045   5.851  13.025   2.091 -0.0038  1.8799 -2.3157
  247MOL0     H34046   5.743  12.996   1.947  1.2734 -2.4836 -3.0649
  247MOL0     H34047   5.842  12.860   2.017 -1.7173  0.3861 -0.6046
  247MOL0     H34048   5.328  13.325   2.003 -3.5711  0.6406  0.1630
  247MOL0     H34049   5.240  13.549   1.985  2.0620 -0.1200 -0.9648
  247MOL0     H34050   5.178  13.777   2.008 -0.7582  0.7081  0.2962
  247MOL0     H34051   5.103  13.679   2.134 -0.2038 -0.0420  2.2174
  247MOL0     H34052   5.173  13.977   2.143 -2.3121  0.3855 -2.8483
  247MOL0     H34053   5.015  13.918   2.124  1.1772  3.0792 -0.3225
  247MOL0     H34054   5.219  13.879   2.366  0.7823 -0.6140 -1.5140
  247MOL0     H34055   5.060  13.804   2.362 -2.1071  1.5614  1.8514
  247MOL0     H34056   4.957  14.009   2.339  0.3861 -0.2139  0.0483
  247MOL0     H34057   5.116  14.100   2.349 -2.4950  1.5584 -2.1634
  247MOL0     H34058   4.966  14.067   2.580  0.0539 -1.1790  0.4634
  247MOL0     H34059   4.997  13.919   2.580 -0.0659  0.6870 -1.3069
  247MOL0     H34060   5.241  13.959   2.613 -0.9291 -1.3465 -1.0888
  247MOL0     H34061   5.133  14.035   2.734  0.9597 -0.5020 -0.0178
  247MOL0     H34062   5.158  14.234   2.555 -0.0871 -1.9117 -1.6837
  247MOL0     H34063   5.319  14.159   2.535  0.5912  3.1357 -1.2841
  247MOL0     H34064   5.320  14.180   2.807 -2.2658  2.9808  1.8520
  247MOL0     H34065   5.236  14.317   2.773 -0.2157 -1.4493  0.8535
  247MOL0     H34066   5.460  13.652   2.347 -0.4650  3.5927 -0.8616
  247MOL0     H34067   5.526  13.390   2.379 -1.0606 -3.0498  0.4955
  247MOL0     H34068   5.368  12.985   2.274 -1.2695 -0.2342 -3.4865
  247MOL0     H34069   5.360  12.743   2.290 -0.0718  0.1275 -0.5111
  247MOL0     H34070   5.378  11.230   1.167 -0.0936  1.6270  2.6210
  247MOL0     H34071   5.515  11.155   0.994  0.2446  3.9581  0.4823
  247MOL0     H34072   5.767  10.761   0.916  1.1990 -0.7050 -0.3304
  247MOL0     H34073   5.862  10.639   0.745 -0.4124  1.3299 -0.9871
  247MOL0     H34074   6.231  10.766   0.537 -0.3762  0.3795 -0.3777
  247MOL0     H34075   6.287  10.641   0.643  1.4823 -0.7585 -1.9489
  247MOL0     H34076   6.331  10.570   0.399  1.3217  0.1929  1.9209
  247MOL0     H34077   6.156  10.572   0.371 -0.0893  1.2874 -0.6895
  247MOL0     H34078   6.110  10.404   0.539 -1.4584  0.9643 -1.9140
  247MOL0     H34079   6.229  10.348   0.415  0.7544  2.6909 -2.8392
  247MOL0     H34080   6.290  10.258   0.629 -4.7131  0.6493 -0.5234
  247MOL0     H34081   6.294  10.404   0.699 -4.5161  0.5342 -0.9136
  247MOL0     H34082   6.654  10.391   0.467 -0.8589  1.8208 -0.0980
  247MOL0     H34083   6.219  10.863   0.734  0.3244 -3.4812  0.0064
  247MOL0     H34084   6.143  11.067   1.023  3.8994  0.7857  0.3407
  247MOL0     H34085   6.254  11.029   0.881 -0.8779 -4.2464  0.7032
  247MOL0     H34086   6.114  11.143   0.864  0.9602  1.0837  0.4857
  248MOL0     O34087  10.265   1.514   0.892  1.4189  0.1095 -0.0698
  248MOL0     C34088  10.289   1.391   0.925  0.0052 -1.3503 -0.3336
  248MOL0     O34089  10.232   1.334   1.040  0.1334  0.3288 -0.4480
  248MOL0     C34090  10.124   1.396   1.094 -1.6496 -0.4586 -2.1026
  248MOL0     C34091  10.000   1.334   1.098 -0.1414  0.8055 -0.5323
  248MOL0     C34092   9.880   1.406   1.123 -0.1128 -0.0569 -0.0119
  248MOL0     C34093   9.884   1.537   1.172 -0.0094  0.3536 -0.2915
  248MOL0     O34094   9.768   1.619   1.191  0.6143  0.0528  0.2097
  248MOL0     C34095   9.653   1.560   1.246  0.0539  0.8208 -0.1599
  248MOL0     C34096   9.568   1.658   1.325 -0.5162 -0.4104 -0.8302
  248MOL0     C34097   9.626   1.694   1.463 -0.3455  0.3557  0.2934
  248MOL0     C34098   9.550   1.631   1.580 -0.3000 -0.3711 -0.1432
  248MOL0     C34099   9.563   1.685   1.720  0.4298 -1.1779 -0.1629
  248MOL0     C34100   9.707   1.713   1.761 -0.2542 -0.2036 -0.0346
  248MOL0     C34101   9.721   1.699   1.912 -0.2057  0.7786 -0.3682
  248MOL0     C34102   9.831   1.780   1.965 -0.3165 -0.3002 -0.8533
  248MOL0     N34103   9.828   1.771   2.109  0.5713  0.7816 -0.6698
  248MOL0     C34104   9.787   1.870   2.180 -0.1583 -0.8116 -0.8217
  248MOL0     C34105   9.803   1.834   2.311 -0.1582  0.4693  0.3201
  248MOL0     C34106   9.779   1.913   2.432 -0.5721  0.2458  0.5873
  248MOL0     C34107   9.625   1.905   2.469  0.5380 -0.6504  0.9876
  248MOL0     C34108   9.585   2.002   2.585 -1.0229  0.1685 -0.2686
  248MOL0     C34109   9.585   2.135   2.520 -0.4337 -0.2854 -0.6952
  248MOL0     O34110   9.555   2.237   2.619  0.3274 -0.2066  0.9064
  248MOL0     C34111   9.560   2.372   2.584  0.0730  0.1990 -0.0923
  248MOL0     C34112   9.506   2.418   2.460  0.4100  0.1530 -0.1623
  248MOL0     C34113   9.478   2.551   2.433  0.0042 -0.5058 -0.6049
  248MOL0     C34114   9.399   2.599   2.310 -0.1790  0.0409  0.3539
  248MOL0     C34115   9.508   2.655   2.540 -0.2673 -0.1192  0.4094
  248MOL0     C34116   9.484   2.805   2.523 -0.2480 -1.0333 -0.5636
  248MOL0     O34117   9.515   2.883   2.633  0.2390  0.1059 -0.7048
  248MOL0     C34118   9.479   3.018   2.636  0.0257  0.3719 -0.2364
  248MOL0     C34119   9.567   3.088   2.721 -0.4964 -0.3038 -0.4868
  248MOL0     C34120   9.547   3.225   2.755  0.3841 -0.0276 -0.0738
  248MOL0     C34121   9.442   3.298   2.701  0.8657 -0.5220  1.0445
  248MOL0     O34122   9.414   3.432   2.714  1.0255  0.1118  0.3060
  248MOL0     C34123   9.521   3.512   2.681 -0.3998  0.7418  0.8730
  248MOL0     C34124   9.494   3.649   2.618 -0.5359 -0.0539 -0.8464
  248MOL0     C34125   9.405   3.653   2.490  0.0518  1.9309  0.2717
  248MOL0     C34126   9.354   3.791   2.473 -0.4022 -0.1963 -0.5976
  248MOL0     C34127   9.278   3.815   2.345  0.2096 -0.7996 -0.5670
  248MOL0     C34128   9.151   3.724   2.344 -0.1355  0.3097  0.3276
  248MOL0     C34129   9.070   3.757   2.216 -0.2710 -0.1122 -0.0355
  248MOL0     C34130   9.005   3.894   2.217 -1.3207  0.7246  0.6408
  248MOL0    Cl34131   8.898   3.911   2.071 -0.2421 -0.0375  0.1360
  248MOL0     C34132   9.367   3.235   2.604  1.1368  0.1247  0.0914
  248MOL0     C34133   9.378   3.095   2.576 -1.0011  0.3309 -0.1575
  248MOL0     O34134   9.458   2.859   2.414  0.3910  0.1968  0.8842
  248MOL0     C34135   9.583   2.608   2.657 -0.1319  1.7280  0.7194
  248MOL0     C34136   9.599   2.465   2.670  0.6195 -0.0911  0.2539
  248MOL0     N34137   9.848   1.704   2.316  0.8704 -0.3776  0.2121
  248MOL0     N34138   9.859   1.663   2.191 -0.3002  0.0618 -0.6391
  248MOL0     C34139  10.013   1.584   1.193 -0.3409 -0.7310 -0.4766
  248MOL0     C34140  10.130   1.521   1.164  0.3094 -0.3363  0.5094
  248MOL0     C34141  10.406   1.330   0.884 -0.8481  0.8404  0.2708
  248MOL0     C34142  10.398   1.183   0.885  0.1080 -0.7609  1.0461
  248MOL0     C34143  10.501   1.106   0.832  0.1603  0.1275  0.0024
  248MOL0     C34144  10.625   1.172   0.797  0.0016  0.0529  0.0100
  248MOL0     O34145  10.736   1.113   0.750 -0.8142 -0.3268  0.0819
  248MOL0     C34146  10.784   1.015   0.834  0.1733  0.4408 -0.2282
  248MOL0     C34147  10.895   0.937   0.751  0.0141  0.3299 -0.1894
  248MOL0     C34148  11.004   1.044   0.707  0.2189  0.4628 -0.4869
  248MOL0     C34149  11.145   0.997   0.673 -0.2182 -0.3135 -0.0170
  248MOL0     C34150  11.230   0.984   0.795  0.1766 -0.5099  0.5824
  248MOL0     C34151  11.311   0.973   0.884  0.1230 -1.0844 -0.4919
  248MOL0     C34152  10.627   1.307   0.785  0.2382  0.1816  0.8887
  248MOL0     C34153  10.519   1.390   0.832 -0.8076  1.2335 -0.6443
  248MOL0     C34154  10.535   1.543   0.820  0.0373 -0.3112  0.2012
  248MOL0     H34155   9.985   1.232   1.066 -0.0407  0.5558  0.2134
  248MOL0     H34156   9.780   1.367   1.109  0.3916 -1.5135  0.2657
  248MOL0     H34157   9.676   1.478   1.314 -1.8934  1.3502  1.2160
  248MOL0     H34158   9.595   1.524   1.160  0.3312  1.1710 -0.4952
  248MOL0     H34159   9.560   1.757   1.280 -0.0162 -0.3758 -0.8469
  248MOL0     H34160   9.466   1.621   1.340 -1.2633  2.1949  1.4944
  248MOL0     H34161   9.733   1.676   1.478 -0.4490 -0.9940 -0.4454
  248MOL0     H34162   9.612   1.801   1.479 -0.5082  0.1953  1.2385
  248MOL0     H34163   9.443   1.634   1.557 -0.3866 -1.0631  0.1426
  248MOL0     H34164   9.586   1.528   1.592  2.7881  0.5937 -0.4740
  248MOL0     H34165   9.519   1.608   1.784 -2.3199 -1.2803 -2.0159
  248MOL0     H34166   9.503   1.776   1.730  2.0662  0.1394 -1.5842
  248MOL0     H34167   9.787   1.650   1.721  0.4828  1.8699 -2.0546
  248MOL0     H34168   9.725   1.815   1.724 -4.0211 -0.0100 -1.8182
  248MOL0     H34169   9.746   1.594   1.928  0.9848  1.0434 -0.4114
  248MOL0     H34170   9.624   1.718   1.959 -1.0881 -2.6876 -0.5271
  248MOL0     H34171   9.926   1.750   1.918 -1.5551  0.1647 -3.9336
  248MOL0     H34172   9.808   1.882   1.934  1.9769  0.2362 -0.9886
  248MOL0     H34173   9.756   1.968   2.144 -0.7798 -1.1995 -1.3453
  248MOL0     H34174   9.813   2.015   2.416 -0.2373  0.0104 -0.2399
  248MOL0     H34175   9.832   1.871   2.519 -1.8464  1.9923  2.2987
  248MOL0     H34176   9.554   1.909   2.387 -1.1058 -0.9474  2.3459
  248MOL0     H34177   9.598   1.805   2.503 -3.0771  0.9610  3.4860
  248MOL0     H34178   9.498   1.967   2.642  1.1240 -1.4457  2.2216
  248MOL0     H34179   9.672   2.000   2.650  0.1089  1.6472 -1.6674
  248MOL0     H34180   9.684   2.160   2.481  0.0284  0.4972  0.8704
  248MOL0     H34181   9.527   2.141   2.428  2.5369 -0.8908 -2.7458
  248MOL0     H34182   9.459   2.351   2.388 -0.2564 -0.3951  0.7570
  248MOL0     H34183   9.372   2.513   2.249  5.0228 -0.4327 -1.7580
  248MOL0     H34184   9.465   2.653   2.242 -0.4909  0.0068  0.0223
  248MOL0     H34185   9.306   2.653   2.333 -0.8482 -0.8769 -0.1210
  248MOL0     H34186   9.641   3.021   2.763  0.8321  0.5680 -1.3668
  248MOL0     H34187   9.605   3.263   2.838  1.9849  0.5014 -1.3895
  248MOL0     H34188   9.573   3.539   2.774 -0.3546 -1.5541  1.5726
  248MOL0     H34189   9.597   3.458   2.624  0.9807 -0.5889  3.7666
  248MOL0     H34190   9.444   3.717   2.688 -0.3992  0.7881 -1.5492
  248MOL0     H34191   9.594   3.685   2.591 -0.2088  0.0630  0.4451
  248MOL0     H34192   9.334   3.570   2.499 -1.0975  3.0373  1.9197
  248MOL0     H34193   9.465   3.626   2.403 -1.6692  3.4844 -1.4617
  248MOL0     H34194   9.435   3.864   2.484  0.2366 -1.2244  2.7697
  248MOL0     H34195   9.296   3.820   2.561 -2.4104  1.4145 -2.3357
  248MOL0     H34196   9.243   3.919   2.340 -0.0557 -0.9370 -2.5567
  248MOL0     H34197   9.341   3.788   2.260  1.6319  2.5991 -0.7481
  248MOL0     H34198   9.105   3.753   2.439  1.7255  0.1652  1.3192
  248MOL0     H34199   9.159   3.615   2.344 -1.9797  0.1420  0.4158
  248MOL0     H34200   8.998   3.676   2.197  2.1794 -1.7815 -3.0898
  248MOL0     H34201   9.141   3.752   2.133 -1.6611  3.9081 -1.7415
  248MOL0     H34202   9.088   3.964   2.204 -0.3787 -0.0698  2.1321
  248MOL0     H34203   8.948   3.914   2.308 -3.7713  0.6869 -0.8034
  248MOL0     H34204   9.282   3.285   2.558 -1.1034 -2.3958  1.1597
  248MOL0     H34205   9.315   3.046   2.503  2.3946 -0.7187 -2.6015
  248MOL0     H34206   9.620   2.671   2.737 -1.5284 -0.3438  3.1404
  248MOL0     H34207   9.641   2.425   2.762  2.2076  0.6584 -0.1050
  248MOL0     H34208  10.021   1.678   1.248  3.6528  0.7560 -3.1432
  248MOL0     H34209  10.223   1.567   1.196  0.1754 -0.5459  1.2265
  248MOL0     H34210  10.325   1.122   0.937  0.8428 -2.8875 -0.2530
  248MOL0     H34211  10.506   0.999   0.814 -0.8983  0.3634 -1.9397
  248MOL0     H34212  10.822   1.063   0.925 -1.6002 -1.0386  1.4008
  248MOL0     H34213  10.702   0.949   0.865 -1.7664  1.9218 -1.9508
  248MOL0     H34214  10.851   0.887   0.664 -0.1454  0.8972 -0.4388
  248MOL0     H34215  10.941   0.864   0.818  1.6594  0.3137 -1.2551
  248MOL0     H34216  10.961   1.090   0.618 -1.9952 -1.3344 -0.4310
  248MOL0     H34217  11.002   1.120   0.786  0.8992  1.7195 -1.6437
  248MOL0     H34218  11.184   1.070   0.601  2.0605 -2.9718 -1.6957
  248MOL0     H34219  11.131   0.898   0.628  0.6789 -1.2971  1.7498
  248MOL0     H34220  11.374   0.974   0.972  0.7329 -1.3391 -0.9159
  248MOL0     H34221  10.722   1.350   0.754  2.2071 -2.8919  2.1960
  248MOL0     H34222  10.475   1.582   0.737 -1.4474 -4.3748 -0.8648
  248MOL0     H34223  10.521   1.584   0.921  1.1483 -1.5164  0.8719
  248MOL0     H34224  10.641   1.546   0.793  0.1090 -0.2342  0.4839
  249MOL0     O34225   5.273   0.774   0.524 -0.3312  0.3290 -0.1965
  249MOL0     C34226   5.185   0.855   0.541 -0.6924  0.1792  0.7168
  249MOL0     O34227   5.151   0.939   0.437  0.2704 -0.1065  0.4399
  249MOL0     C34228   5.230   0.977   0.336 -0.3790  1.0645 -0.0630
  249MOL0     C34229   5.258   0.881   0.239 -0.4878  0.9327  0.2616
  249MOL0     C34230   5.333   0.909   0.125 -0.2229  0.2369  0.3113
  249MOL0     C34231   5.386   1.036   0.108  0.2693  0.3516 -0.5443
  249MOL0     O34232   5.465   1.057  -0.001  0.4272 -0.8507  0.1956
  249MOL0     C34233   5.561   1.164   0.020 -0.5794  0.5489  0.0158
  249MOL0     C34234   5.644   1.179  -0.109 -0.7709  0.5929 -0.6433
  249MOL0     C34235   5.571   1.138  -0.241 -0.7086  0.5712  0.1613
  249MOL0     C34236   5.656   1.177  -0.365  0.7447 -0.7371 -0.3679
  249MOL0     C34237   5.596   1.140  -0.503 -0.5121 -0.3256 -0.5852
  249MOL0     C34238   5.590   0.988  -0.507 -0.6052 -0.2528  0.3240
  249MOL0     C34239   5.586   0.938  -0.651 -0.6953  0.3704 -0.0643
  249MOL0     C34240   5.571   0.793  -0.639  0.4269 -1.3893  0.2283
  249MOL0     N34241   5.592   0.723  -0.767 -0.3195 -0.0224 -0.2679
  249MOL0     C34242   5.506   0.647  -0.824 -0.0903 -0.0002  0.9399
  249MOL0     C34243   5.570   0.592  -0.933  0.4532 -0.2083  0.5470
  249MOL0     C34244   5.500   0.489  -1.018  0.7143 -0.9838  1.1383
  249MOL0     C34245   5.548   0.357  -0.981  0.7575  0.1754 -0.5177
  249MOL0     C34246   5.493   0.245  -1.058  0.0910  0.6613  0.2812
  249MOL0     C34247   5.461   0.105  -0.982  0.1518 -0.4954 -0.2111
  249MOL0     O34248   5.355   0.041  -1.053  0.1068 -0.0961  0.6876
  249MOL0     C34249   5.376   0.006  -1.183 -0.3500 -0.6794  0.0211
  249MOL0     C34250   5.311   0.073  -1.290  0.3273 -0.1022 -0.5180
  249MOL0     C34251   5.333   0.037  -1.425 -0.3193  0.1922  0.2274
  249MOL0     C34252   5.245   0.116  -1.525 -0.6855  0.1723 -0.0955
  249MOL0     C34253   5.435  -0.059  -1.457  0.9999  0.3616  0.2641
  249MOL0     C34254   5.477  -0.113  -1.589  1.5239  0.1805 -0.0250
  249MOL0     O34255   5.530  -0.236  -1.599 -0.8278  0.4981 -0.6896
  249MOL0     C34256   5.577  -0.270  -1.722  0.1188 -0.2071 -0.6600
  249MOL0     C34257   5.502  -0.368  -1.796 -0.1608  0.3392 -0.2497
  249MOL0     C34258   5.560  -0.407  -1.919  0.5777 -0.3947  0.2894
  249MOL0     C34259   5.674  -0.357  -1.977 -0.1459 -0.6740 -0.4171
  249MOL0     O34260   5.697  -0.388  -2.105  0.0521  1.2429  0.3261
  249MOL0     C34261   5.800  -0.325  -2.172 -0.4154 -0.2007  0.9232
  249MOL0     C34262   5.815  -0.354  -2.324  0.0949  0.3341  0.4381
  249MOL0     C34263   5.693  -0.310  -2.405  0.3687  0.1466 -0.6441
  249MOL0     C34264   5.682  -0.365  -2.550 -0.4091  0.1102  0.1875
  249MOL0     C34265   5.554  -0.308  -2.625  0.5638  0.2390  0.3860
  249MOL0     C34266   5.424  -0.368  -2.553  1.6671  0.2249  0.2453
  249MOL0     C34267   5.297  -0.377  -2.622  0.8339 -0.1401  0.6118
  249MOL0     C34268   5.261  -0.258  -2.711 -0.4344 -0.8982 -0.3821
  249MOL0    Cl34269   5.235  -0.121  -2.594 -0.3466 -0.0011  0.4426
  249MOL0     C34270   5.758  -0.281  -1.889 -0.5083 -0.5369 -0.6699
  249MOL0     C34271   5.704  -0.242  -1.761 -0.5037  0.9030  0.7683
  249MOL0     O34272   5.463  -0.040  -1.691  0.6185 -0.1294 -0.6284
  249MOL0     C34273   5.491  -0.130  -1.349 -0.1569 -0.4418  0.1455
  249MOL0     C34274   5.459  -0.107  -1.215  0.1191  0.0673 -0.0325
  249MOL0     N34275   5.693   0.641  -0.931 -0.9383  0.6930  0.8499
  249MOL0     N34276   5.707   0.720  -0.842  0.2308 -0.1916 -0.2880
  249MOL0     C34277   5.344   1.130   0.206  0.3842 -1.0942  0.5911
  249MOL0     C34278   5.259   1.113   0.312 -0.3089  0.3994  0.3009
  249MOL0     C34279   5.112   0.869   0.667  0.3072  0.3099  0.7880
  249MOL0     C34280   5.006   0.970   0.676  0.0726  0.0899 -0.7385
  249MOL0     C34281   4.910   0.971   0.774  0.2093 -0.5786  0.1058
  249MOL0     C34282   4.929   0.887   0.889  0.3491  0.9406  0.4409
  249MOL0     O34283   4.846   0.877   0.989 -0.8123 -0.9733  0.2644
  249MOL0     C34284   4.834   0.994   1.076  0.4380  0.9856 -0.7080
  249MOL0     C34285   4.959   1.038   1.150 -0.8430  0.2977 -0.0014
  249MOL0     C34286   5.006   0.951   1.274 -0.8729 -0.6624  0.0382
  249MOL0     C34287   5.163   0.951   1.295  0.1774  0.6935  0.5252
  249MOL0     C34288   5.198   1.023   1.420  0.8816  0.8204  0.9187
  249MOL0     C34289   5.233   1.065   1.521  0.5332 -0.7693 -0.5571
  249MOL0     C34290   5.034   0.791   0.887 -0.5846  0.0701 -0.2983
  249MOL0     C34291   5.123   0.777   0.780 -0.9660  0.2716  0.5823
  249MOL0     C34292   5.216   0.669   0.783 -0.4820  0.1933 -0.7540
  249MOL0     H34293   5.231   0.777   0.254 -1.3556  1.1631  0.3737
  249MOL0     H34294   5.357   0.827   0.059 -1.8018 -0.9638  1.1662
  249MOL0     H34295   5.620   1.139   0.109 -1.9103 -2.9476  0.0710
  249MOL0     H34296   5.513   1.260   0.040 -0.8561  0.0490  1.9325
  249MOL0     H34297   5.661   1.287  -0.115  0.1332  0.4474 -0.9700
  249MOL0     H34298   5.742   1.133  -0.091 -0.3444  1.5621 -0.4198
  249MOL0     H34299   5.554   1.030  -0.239 -3.4132  0.9325  0.1379
  249MOL0     H34300   5.472   1.184  -0.249 -0.4581  0.7930 -2.0267
  249MOL0     H34301   5.670   1.285  -0.359  3.5409 -1.0600  0.3434
  249MOL0     H34302   5.760   1.145  -0.350  0.7967  0.6625  2.9310
  249MOL0     H34303   5.660   1.175  -0.585  0.4318 -0.5922  0.0270
  249MOL0     H34304   5.499   1.186  -0.524 -0.0635 -0.4262 -3.1740
  249MOL0     H34305   5.681   0.942  -0.465 -0.4848 -0.9590 -0.6697
  249MOL0     H34306   5.505   0.953  -0.449 -2.3904  3.5208  0.2319
  249MOL0     H34307   5.670   0.963  -0.716 -0.1599 -4.2800 -1.4709
  249MOL0     H34308   5.499   0.987  -0.695 -0.5473  0.5394 -0.1710
  249MOL0     H34309   5.646   0.745  -0.575 -0.4105 -1.1038  1.4662
  249MOL0     H34310   5.468   0.780  -0.606  0.1876  0.3341  0.2362
  249MOL0     H34311   5.403   0.625  -0.798 -1.3468  1.8949 -1.8877
  249MOL0     H34312   5.526   0.520  -1.120 -1.5714  2.2983  1.3796
  249MOL0     H34313   5.394   0.505  -0.997  1.8638  3.1077  5.6917
  249MOL0     H34314   5.657   0.365  -0.980  0.7666  0.2023  0.9503
  249MOL0     H34315   5.520   0.336  -0.877 -3.1932 -0.5261 -1.5711
  249MOL0     H34316   5.393   0.268  -1.097  0.8942 -0.6890 -2.8990
  249MOL0     H34317   5.554   0.234  -1.148 -2.3621 -0.4480 -1.3460
  249MOL0     H34318   5.552   0.044  -0.983 -2.3774 -4.6848 -2.1883
  249MOL0     H34319   5.422   0.119  -0.881 -0.9224 -0.7078 -0.5899
  249MOL0     H34320   5.243   0.155  -1.272 -2.2752 -1.9499 -1.3581
  249MOL0     H34321   5.162   0.051  -1.552  0.5136 -0.3503 -2.7747
  249MOL0     H34322   5.288   0.164  -1.613  0.5882  0.9938  0.9203
  249MOL0     H34323   5.202   0.206  -1.480  1.8710  0.2404  2.5865
  249MOL0     H34324   5.404  -0.404  -1.769 -0.0600  1.9519  2.7055
  249MOL0     H34325   5.500  -0.467  -1.985 -0.5661  1.4575 -0.4388
  249MOL0     H34326   5.787  -0.217  -2.161  3.0471  0.3042  1.3724
  249MOL0     H34327   5.895  -0.349  -2.124 -0.0203 -0.3827  0.0761
  249MOL0     H34328   5.917  -0.324  -2.351  1.0095 -1.6739  1.4194
  249MOL0     H34329   5.815  -0.463  -2.330  1.9346  0.2836  0.7289
  249MOL0     H34330   5.675  -0.203  -2.395 -0.7271 -0.1460  0.8413
  249MOL0     H34331   5.611  -0.354  -2.348  0.4779 -0.1910 -0.7386
  249MOL0     H34332   5.691  -0.474  -2.563  4.2154  0.1411  1.2111
  249MOL0     H34333   5.762  -0.320  -2.609  0.9199  2.3177  3.3837
  249MOL0     H34334   5.545  -0.199  -2.628  1.6540  0.3780  1.4439
  249MOL0     H34335   5.575  -0.346  -2.726  2.0667  1.4024  0.2277
  249MOL0     H34336   5.396  -0.305  -2.468  0.5499  2.0894 -1.3962
  249MOL0     H34337   5.439  -0.469  -2.515 -4.0376 -0.4809  1.5946
  249MOL0     H34338   5.216  -0.407  -2.554 -0.6101  2.6523  0.2998
  249MOL0     H34339   5.304  -0.465  -2.687  1.0900 -0.1286  0.6264
  249MOL0     H34340   5.168  -0.260  -2.770 -1.0690 -0.7337  0.5937
  249MOL0     H34341   5.345  -0.240  -2.779  2.7010 -1.1755  3.1314
  249MOL0     H34342   5.849  -0.231  -1.920  1.7432 -3.3625  0.8732
  249MOL0     H34343   5.763  -0.167  -1.710  1.8630 -1.2316  1.4018
  249MOL0     H34344   5.560  -0.212  -1.368  0.1589 -0.3630  0.9163
  249MOL0     H34345   5.515  -0.148  -1.132 -1.0033  3.0452  2.3804
  249MOL0     H34346   5.380   1.232   0.197  1.0086 -1.4314 -1.0272
  249MOL0     H34347   5.231   1.194   0.379 -1.4542  0.5059 -0.2827
  249MOL0     H34348   4.986   1.057   0.615 -0.6122  1.5615  1.4599
  249MOL0     H34349   4.844   1.057   0.779 -0.1930 -0.9339  1.2075
  249MOL0     H34350   4.799   1.079   1.017  0.0054 -0.1960 -2.2099
  249MOL0     H34351   4.758   0.973   1.152 -0.4519  1.9333 -1.3007
  249MOL0     H34352   4.942   1.138   1.193 -1.2211 -0.0739  0.7302
  249MOL0     H34353   5.046   1.044   1.084  0.8709  0.8777  2.2034
  249MOL0     H34354   4.957   0.995   1.362 -4.1205 -0.2173 -1.8325
  249MOL0     H34355   4.965   0.850   1.261  1.7901 -1.5287 -2.9953
  249MOL0     H34356   5.225   1.001   1.220 -0.3031 -2.1777 -1.9472
  249MOL0     H34357   5.193   0.846   1.297 -0.0154  0.5454 -1.7286
  249MOL0     H34358   5.266   1.093   1.619  1.6916 -1.7514 -0.6471
  249MOL0     H34359   5.030   0.723   0.972 -2.8102  1.2838  0.6299
  249MOL0     H34360   5.315   0.714   0.777  0.9053 -2.6480 -0.9193
  249MOL0     H34361   5.215   0.602   0.870 -0.1124 -2.2748 -2.5400
  249MOL0     H34362   5.208   0.599   0.700 -0.6771  0.9235 -1.3630
  250MOL0     O34363   0.160   9.608   6.686 -0.1825 -0.2362  0.3760
  250MOL0     C34364   0.243   9.572   6.602  1.0969  0.2290  0.3485
  250MOL0     O34365   0.347   9.648   6.541 -0.4958  0.2415  0.1145
  250MOL0     C34366   0.373   9.775   6.568  0.3564 -0.4303 -1.2961
  250MOL0     C34367   0.265   9.874   6.571 -0.4432  0.3761  0.4721
  250MOL0     C34368   0.299  10.008   6.585  0.1555  0.0619  0.6667
  250MOL0     C34369   0.438  10.058   6.576  0.2881  0.7536  0.4946
  250MOL0     O34370   0.473  10.191   6.562  0.0155  0.2391  0.1960
  250MOL0     C34371   0.382  10.290   6.561  0.8401  0.9713  0.0174
  250MOL0     C34372   0.339  10.313   6.705 -0.4665  0.6300  0.6152
  250MOL0     C34373   0.244  10.433   6.703  0.8138  0.2813  0.2475
  250MOL0     C34374   0.205  10.472   6.857 -0.0317 -0.0354 -0.0465
  250MOL0     C34375   0.124  10.611   6.850 -0.2933 -0.0047 -0.5550
  250MOL0     C34376  -0.008  10.595   6.781 -0.5993 -0.3262  0.5224
  250MOL0     C34377  -0.097  10.713   6.823  0.1888 -0.5049 -0.4143
  250MOL0     C34378  -0.221  10.724   6.733 -1.4027  0.9012 -1.0059
  250MOL0     N34379  -0.184  10.749   6.590  0.1450  0.5028  0.0882
  250MOL0     C34380  -0.207  10.870   6.528  0.2152  0.5244 -0.7487
  250MOL0     C34381  -0.182  10.841   6.401  0.3067 -1.1778  0.6432
  250MOL0     C34382  -0.203  10.938   6.287  0.3709  0.5627 -0.2742
  250MOL0     C34383  -0.067  10.972   6.222  0.3158 -0.1760  0.1907
  250MOL0     C34384  -0.103  11.055   6.096 -0.8468 -0.8809  0.8126
  250MOL0     C34385   0.021  11.073   6.010 -1.7199  0.1004 -0.6191
  250MOL0     O34386   0.120  11.132   6.097 -0.9901 -0.0310  0.4482
  250MOL0     C34387   0.259  11.130   6.058  0.0229 -0.4030 -0.8536
  250MOL0     C34388   0.293  11.185   5.934 -0.0192  0.0540  0.0015
  250MOL0     C34389   0.426  11.180   5.879  0.6658 -0.1817  0.7710
  250MOL0     C34390   0.447  11.243   5.740  0.0465 -0.7629  0.1874
  250MOL0     C34391   0.534  11.118   5.957  0.1396 -0.8130  0.4184
  250MOL0     C34392   0.677  11.090   5.904  0.3082 -1.0788  0.1673
  250MOL0     O34393   0.748  10.990   5.960  0.7525  0.4145  0.3338
  250MOL0     C34394   0.882  11.019   5.979 -2.0793 -0.2717  0.0199
  250MOL0     C34395   0.977  10.913   5.985  0.5058 -1.0064 -0.4308
  250MOL0     C34396   1.112  10.940   6.011  0.0589  0.0280 -0.0682
  250MOL0     C34397   1.157  11.073   6.020  0.4477 -0.6924  0.2736
  250MOL0     O34398   1.292  11.099   6.048 -0.2416 -0.6730 -0.9630
  250MOL0     C34399   1.334  11.239   6.044 -0.6918 -0.5168  0.1782
  250MOL0     C34400   1.486  11.246   6.032 -0.4368  0.5286 -0.6382
  250MOL0     C34401   1.536  11.206   5.893 -0.2739  0.4284 -0.1593
  250MOL0     C34402   1.692  11.199   5.880 -0.0991  0.1957 -0.0775
  250MOL0     C34403   1.753  11.113   5.981 -0.5711 -0.0927  0.1274
  250MOL0     C34404   1.713  10.961   5.965 -0.6584 -0.7491  1.2877
  250MOL0     C34405   1.775  10.881   6.082 -0.5669  0.0434 -0.1926
  250MOL0     C34406   1.763  10.731   6.069  0.6968  0.2897 -0.0699
  250MOL0    Cl34407   1.858  10.676   5.932 -0.5222  0.2889 -0.3672
  250MOL0     C34408   1.066  11.174   6.014 -0.7380 -0.1861 -0.2840
  250MOL0     C34409   0.931  11.147   5.990  0.1892  1.3050 -1.2370
  250MOL0     O34410   0.721  11.159   5.809  0.8405  0.2442  0.2168
  250MOL0     C34411   0.495  11.078   6.089  0.3148 -0.4768  0.4327
  250MOL0     C34412   0.358  11.084   6.139 -0.5095 -0.1553 -1.1936
  250MOL0     N34413  -0.143  10.709   6.388 -0.4611 -0.6626  0.0057
  250MOL0     N34414  -0.143  10.657   6.501  0.6018  0.4914 -0.3794
  250MOL0     C34415   0.538   9.964   6.565 -0.2394 -0.1568 -0.3556
  250MOL0     C34416   0.506   9.824   6.567 -0.4400 -0.8562  0.2067
  250MOL0     C34417   0.207   9.433   6.547  0.1026  0.8753  0.2910
  250MOL0     C34418   0.077   9.388   6.576 -0.9115  0.2196 -0.5498
  250MOL0     C34419   0.024   9.275   6.512 -0.8027 -0.5397 -0.3380
  250MOL0     C34420   0.104   9.187   6.429 -0.6986  0.6663 -0.6180
  250MOL0     O34421   0.052   9.071   6.383 -0.1875  1.0073 -0.1348
  250MOL0     C34422   0.144   8.975   6.330  0.3062  0.8153 -0.1064
  250MOL0     C34423   0.070   8.890   6.224  0.0545 -0.3303 -0.7535
  250MOL0     C34424  -0.048   8.810   6.273 -0.1173  0.3064  0.1781
  250MOL0     C34425  -0.161   8.893   6.334  0.1288  0.0420  1.0503
  250MOL0     C34426  -0.287   8.824   6.316 -0.8504 -0.1403  0.8276
  250MOL0     C34427  -0.402   8.781   6.301  0.4185 -0.2625 -0.8869
  250MOL0     C34428   0.241   9.234   6.406 -0.3183 -0.1856  0.1785
  250MOL0     C34429   0.288   9.355   6.461 -0.5343  0.0524  0.6319
  250MOL0     C34430   0.428   9.393   6.416  0.5979 -0.0730  0.5270
  250MOL0     H34431   0.166   9.836   6.593 -0.9209 -1.5414 -3.9556
  250MOL0     H34432   0.214  10.076   6.584  1.3683  1.6931 -2.1112
  250MOL0     H34433   0.295  10.266   6.499  0.8101  1.2439 -0.0461
  250MOL0     H34434   0.424  10.386   6.528  2.0761  1.6728  3.2524
  250MOL0     H34435   0.294  10.229   6.759  3.9220 -1.9345  0.7494
  250MOL0     H34436   0.428  10.331   6.765  0.2834  3.3616 -1.1574
  250MOL0     H34437   0.277  10.523   6.652  0.5414  1.0699  1.4166
  250MOL0     H34438   0.155  10.409   6.645 -0.9450  2.0834  2.0598
  250MOL0     H34439   0.148  10.400   6.915 -1.0928  1.0826  0.3525
  250MOL0     H34440   0.298  10.491   6.911  0.9604  0.0219 -1.6872
  250MOL0     H34441   0.190  10.685   6.802  1.2131 -0.8292  0.1622
  250MOL0     H34442   0.095  10.639   6.952 -2.0371 -2.4631 -0.2911
  250MOL0     H34443   0.011  10.595   6.673  0.3037 -0.8692  0.6697
  250MOL0     H34444  -0.065  10.505   6.806 -0.3040 -0.8475 -0.5791
  250MOL0     H34445  -0.033  10.801   6.822 -1.3217  0.9844  4.3279
  250MOL0     H34446  -0.120  10.687   6.927 -0.3826 -2.3569 -0.9608
  250MOL0     H34447  -0.273  10.628   6.730  0.8656 -0.3796 -0.7658
  250MOL0     H34448  -0.281  10.802   6.781 -0.5605  0.7866  0.2823
  250MOL0     H34449  -0.247  10.957   6.579  1.5656  0.6086  0.2205
  250MOL0     H34450  -0.248  11.031   6.324 -1.2418  0.5911 -2.1461
  250MOL0     H34451  -0.273  10.895   6.214  0.6603  3.0740 -2.1700
  250MOL0     H34452  -0.006  11.015   6.301 -1.8370 -2.7762  3.5556
  250MOL0     H34453  -0.021  10.876   6.197  0.4894 -1.1419  3.6821
  250MOL0     H34454  -0.182  11.014   6.034 -0.0339 -1.4749  0.1394
  250MOL0     H34455  -0.139  11.151   6.134 -0.2419 -0.0672 -0.5853
  250MOL0     H34456   0.069  10.979   5.982  0.0761  0.2795  1.6349
  250MOL0     H34457  -0.019  11.134   5.928 -3.4777  2.5555  1.8650
  250MOL0     H34458   0.212  11.239   5.885 -0.5503  1.6107  2.4035
  250MOL0     H34459   0.450  11.156   5.674 -0.4075 -2.7162  2.5822
  250MOL0     H34460   0.533  11.311   5.735 -0.6527  0.1290 -0.0516
  250MOL0     H34461   0.356  11.299   5.713  1.8138  1.0955 -2.3986
  250MOL0     H34462   0.947  10.811   5.963  0.1236 -1.2342  1.0622
  250MOL0     H34463   1.188  10.863   6.018  2.5953  2.1787 -2.0077
  250MOL0     H34464   1.278  11.289   5.964 -2.4417 -1.1033  1.0021
  250MOL0     H34465   1.316  11.295   6.136 -0.3723 -0.1414  0.0178
  250MOL0     H34466   1.542  11.338   6.054  2.1299 -0.6895 -1.6145
  250MOL0     H34467   1.519  11.167   6.099 -0.2556  3.3621  2.9484
  250MOL0     H34468   1.509  11.291   5.829 -0.2616  2.8896  2.8615
  250MOL0     H34469   1.494  11.112   5.855  1.6967 -0.5315 -0.0683
  250MOL0     H34470   1.749  11.288   5.908  1.3516 -0.8020  0.2522
  250MOL0     H34471   1.737  11.163   5.786  2.2250 -0.8021  1.3382
  250MOL0     H34472   1.862  11.108   5.973 -0.5928  1.8638 -2.5562
  250MOL0     H34473   1.726  11.152   6.080  1.8948 -1.3210  1.3590
  250MOL0     H34474   1.735  10.916   5.868 -0.2980  0.7088  0.6575
  250MOL0     H34475   1.606  10.947   5.982 -1.3884  1.5705 -0.7837
  250MOL0     H34476   1.734  10.916   6.177 -1.2720 -0.2544 -0.3814
  250MOL0     H34477   1.883  10.903   6.080 -0.0668 -2.0063  1.5243
  250MOL0     H34478   1.659  10.698   6.066  1.2771 -1.6172 -0.0823
  250MOL0     H34479   1.803  10.685   6.159  2.1292  2.2821  0.3686
  250MOL0     H34480   1.088  11.279   6.028 -0.2203  0.2749 -3.5533
  250MOL0     H34481   0.862  11.230   6.003 -3.0185 -1.1422 -1.6087
  250MOL0     H34482   0.574  11.050   6.159 -0.9719 -0.0805  2.1101
  250MOL0     H34483   0.329  11.070   6.243  1.2794  1.3530 -0.4382
  250MOL0     H34484   0.640  10.001   6.567 -0.8965  1.7716  1.1435
  250MOL0     H34485   0.587   9.753   6.552  0.0197 -0.2982 -0.0304
  250MOL0     H34486   0.013   9.449   6.639 -1.9435  0.1558 -1.4973
  250MOL0     H34487  -0.082   9.255   6.525 -0.4585 -2.1022  0.3185
  250MOL0     H34488   0.238   8.999   6.279  1.1458 -0.7155  0.6523
  250MOL0     H34489   0.176   8.917   6.417 -0.3983 -1.8523 -1.4964
  250MOL0     H34490   0.145   8.814   6.201  1.4131 -0.9575  4.3423
  250MOL0     H34491   0.040   8.953   6.140  0.8503  3.3406  1.5081
  250MOL0     H34492  -0.090   8.758   6.187 -0.5042  2.0951 -0.7772
  250MOL0     H34493  -0.024   8.733   6.346 -0.1085  0.3566  0.2291
  250MOL0     H34494  -0.164   8.988   6.280 -6.4908 -0.9906 -1.2962
  250MOL0     H34495  -0.142   8.905   6.441  1.1011 -1.7474  1.1038
  250MOL0     H34496  -0.498   8.737   6.288  0.4505  0.0127 -2.2664
  250MOL0     H34497   0.308   9.171   6.347  0.6184  0.9926 -0.0484
  250MOL0     H34498   0.481   9.306   6.377  3.4219  1.9315 -0.5009
  250MOL0     H34499   0.439   9.465   6.334  1.9225 -0.5354  0.2710
  250MOL0     H34500   0.471   9.446   6.502  0.2621 -1.7291  1.7693
  251MOL0     O34501   9.323  11.164   4.726  0.5445  0.2564 -0.2345
  251MOL0     C34502   9.331  11.052   4.678  0.6269  0.9169  0.5307
  251MOL0     O34503   9.334  10.942   4.751 -0.5817 -0.1089  0.7421
  251MOL0     C34504   9.373  10.941   4.887  0.4241  0.3018  0.5881
  251MOL0     C34505   9.316  10.851   4.984  0.3546 -0.0323  0.6649
  251MOL0     C34506   9.354  10.849   5.116  0.5184 -0.2347 -0.2389
  251MOL0     C34507   9.447  10.941   5.159 -0.0151  0.3475  0.2041
  251MOL0     O34508   9.492  10.935   5.291  0.0748 -0.5012 -0.0055
  251MOL0     C34509   9.523  11.055   5.357 -0.4087 -0.4174 -0.0748
  251MOL0     C34510   9.489  11.058   5.508  0.3482 -0.7902 -0.9991
  251MOL0     C34511   9.559  10.948   5.585  0.4388  0.0946 -0.2694
  251MOL0     C34512   9.519  10.966   5.734 -0.5629 -0.6390  0.8108
  251MOL0     C34513   9.548  10.829   5.801  0.1582 -0.5623 -0.7299
  251MOL0     C34514   9.704  10.793   5.803 -0.1953 -1.0056 -0.4774
  251MOL0     C34515   9.785  10.889   5.902 -0.6894  0.6732  0.1697
  251MOL0     C34516   9.937  10.840   5.921 -0.0404  0.3081  0.7358
  251MOL0     N34517  10.008  10.940   6.018  0.0407  0.3968 -1.0092
  251MOL0     C34518   9.997  10.947   6.156 -0.2580  0.6067  0.6856
  251MOL0     C34519  10.084  11.047   6.193 -0.6022 -0.1645  0.3359
  251MOL0     C34520  10.115  11.112   6.334 -0.1867 -0.1950 -0.5686
  251MOL0     C34521  10.257  11.079   6.382  0.1065 -0.6123 -0.6413
  251MOL0     C34522  10.255  10.998   6.508 -0.6530 -0.1783  0.5996
  251MOL0     C34523  10.400  10.994   6.568 -0.1039  0.0624 -0.0210
  251MOL0     O34524  10.506  10.970   6.464  0.2346  0.8791 -0.1818
  251MOL0     C34525  10.638  11.000   6.509  0.5850  0.3165  0.3651
  251MOL0     C34526  10.732  10.902   6.521  0.7161 -0.4031  0.3732
  251MOL0     C34527  10.864  10.923   6.558  0.5278  0.1113 -0.0930
  251MOL0     C34528  10.957  10.808   6.547 -1.1123  0.3000  1.1356
  251MOL0     C34529  10.903  11.057   6.596 -0.1793 -0.3075  0.1065
  251MOL0     C34530  11.039  11.099   6.640  0.2333  1.1005  0.6565
  251MOL0     O34531  11.052  11.220   6.705 -0.2159  1.1303  0.5371
  251MOL0     C34532  11.164  11.278   6.772  0.1200  0.2157 -0.7852
  251MOL0     C34533  11.164  11.427   6.777  0.4131 -0.2691 -0.5736
  251MOL0     C34534  11.273  11.488   6.844  0.1416  0.2881 -0.6475
  251MOL0     C34535  11.382  11.404   6.885  0.4417  0.6221 -0.3693
  251MOL0     O34536  11.491  11.468   6.927  0.0221 -0.0827  0.0842
  251MOL0     C34537  11.609  11.395   6.961  0.3771 -0.3291  0.0274
  251MOL0     C34538  11.734  11.493   6.963  0.2595  0.2854  0.1970
  251MOL0     C34539  11.712  11.597   7.077  0.3110  0.6734  0.0993
  251MOL0     C34540  11.830  11.688   7.090 -0.0815 -0.9885  0.7492
  251MOL0     C34541  11.814  11.788   7.211  0.1307 -0.1923  0.6010
  251MOL0     C34542  11.953  11.847   7.240  0.8251 -0.4009 -0.0288
  251MOL0     C34543  11.928  11.970   7.328 -0.4784 -0.2148 -0.5699
  251MOL0     C34544  12.061  12.055   7.330  0.3434 -0.8316  0.1753
  251MOL0    Cl34545  12.222  11.970   7.372  0.1143  0.3885  0.5834
  251MOL0     C34546  11.377  11.263   6.878 -0.1491 -0.6573  0.8789
  251MOL0     C34547  11.269  11.202   6.825 -0.2510 -0.2116 -0.3169
  251MOL0     O34548  11.136  11.016   6.631  0.6446 -1.0062  0.2572
  251MOL0     C34549  10.799  11.162   6.589 -0.6376 -1.0803 -1.1884
  251MOL0     C34550  10.679  11.130   6.532 -0.1609 -0.4790  0.1632
  251MOL0     N34551  10.155  11.087   6.076  1.3066 -0.1404  0.7344
  251MOL0     N34552  10.110  11.025   5.978 -0.1535 -0.6871  0.9888
  251MOL0     C34553   9.496  11.030   5.061 -0.9100 -0.2745  0.8418
  251MOL0     C34554   9.471  11.028   4.926  1.1753  0.6038  0.3857
  251MOL0     C34555   9.367  11.055   4.528 -0.6679 -0.4962 -0.1983
  251MOL0     C34556   9.447  11.162   4.467  0.7209 -0.0175 -0.1889
  251MOL0     C34557   9.496  11.146   4.335  0.3258 -0.3234 -0.0773
  251MOL0     C34558   9.470  11.036   4.258  0.1204 -0.2085  0.0771
  251MOL0     O34559   9.527  11.037   4.133 -0.0713 -0.3277  0.4691
  251MOL0     C34560   9.505  10.923   4.058  0.8607  0.6876  1.0800
  251MOL0     C34561   9.534  10.966   3.911  0.1621  0.2748 -0.5547
  251MOL0     C34562   9.675  11.016   3.891  0.0812  0.2593 -0.3429
  251MOL0     C34563   9.706  11.166   3.908  0.2200  0.5744 -1.0840
  251MOL0     C34564   9.856  11.177   3.898  0.3661  1.2142  0.9481
  251MOL0     C34565   9.971  11.171   3.863 -0.6834 -0.1390 -0.3210
  251MOL0     C34566   9.402  10.932   4.323 -0.6513 -0.5759  0.1775
  251MOL0     C34567   9.343  10.941   4.451  0.1938 -1.4071 -0.0982
  251MOL0     C34568   9.251  10.827   4.493 -0.5416 -0.2126 -0.4576
  251MOL0     H34569   9.253  10.775   4.939 -4.9106  4.2493 -0.2667
  251MOL0     H34570   9.316  10.771   5.181  0.4625 -0.5098 -0.5974
  251MOL0     H34571   9.473  11.135   5.303 -0.5861 -2.6926 -3.6188
  251MOL0     H34572   9.626  11.085   5.340 -1.3344  2.1640 -1.7367
  251MOL0     H34573   9.510  11.155   5.554 -2.4617 -1.1701  1.3836
  251MOL0     H34574   9.382  11.038   5.511  0.1970  0.0750  0.4685
  251MOL0     H34575   9.533  10.848   5.549  1.3099  0.8954 -3.4917
  251MOL0     H34576   9.666  10.955   5.565  0.1236  1.2401 -1.8029
  251MOL0     H34577   9.589  11.039   5.775 -2.3787 -0.6094  4.2464
  251MOL0     H34578   9.418  11.003   5.753 -0.7134 -0.8699  0.4657
  251MOL0     H34579   9.489  10.751   5.754  0.3648 -0.2839 -1.4711
  251MOL0     H34580   9.519  10.842   5.906  0.7958 -2.2094 -0.3230
  251MOL0     H34581   9.718  10.691   5.840  1.4217 -1.3801 -1.9750
  251MOL0     H34582   9.748  10.808   5.704  1.8138 -0.8492  0.4017
  251MOL0     H34583   9.728  10.903   5.994 -3.9299 -0.4450 -1.5179
  251MOL0     H34584   9.798  10.985   5.852 -0.0348  1.6378  2.0929
  251MOL0     H34585   9.953  10.735   5.949  0.6073  0.0736 -0.4586
  251MOL0     H34586   9.992  10.840   5.826  2.2400  1.2307  1.9770
  251MOL0     H34587   9.928  10.889   6.216 -0.1133 -1.2512 -0.8484
  251MOL0     H34588  10.029  11.086   6.396  0.2392 -1.7529 -0.6025
  251MOL0     H34589  10.121  11.219   6.311  1.8693 -0.2690 -0.4701
  251MOL0     H34590  10.317  11.032   6.304 -1.3580  0.3968 -2.4734
  251MOL0     H34591  10.313  11.169   6.410 -2.1140 -0.1230  2.7244
  251MOL0     H34592  10.189  11.040   6.584 -0.1926  1.5597  0.0677
  251MOL0     H34593  10.219  10.898   6.482  0.9000 -0.4780 -0.5465
  251MOL0     H34594  10.427  11.082   6.626  3.3712 -1.1353  0.4518
  251MOL0     H34595  10.395  10.914   6.643 -1.9370  0.6913  0.5727
  251MOL0     H34596  10.709  10.798   6.502  0.8130 -0.8456  2.4488
  251MOL0     H34597  11.029  10.824   6.466 -0.5813 -0.7796  1.3670
  251MOL0     H34598  10.905  10.725   6.499 -1.9569  2.2405 -1.5389
  251MOL0     H34599  11.001  10.779   6.643  1.2144  1.2053  0.4137
  251MOL0     H34600  11.079  11.485   6.741  2.8181  2.0426 -3.0443
  251MOL0     H34601  11.266  11.594   6.864  2.2768  0.1074  1.4960
  251MOL0     H34602  11.603  11.357   7.063  0.0015  1.8669  0.8815
  251MOL0     H34603  11.626  11.319   6.884 -2.0242  0.9192 -1.8596
  251MOL0     H34604  11.827  11.435   6.970  1.6304  2.4559  0.8773
  251MOL0     H34605  11.733  11.537   6.863 -1.6213  0.6694  0.3551
  251MOL0     H34606  11.693  11.544   7.170  0.8467  3.0309  1.6328
  251MOL0     H34607  11.620  11.652   7.055 -1.0067 -1.9872 -1.6963
  251MOL0     H34608  11.848  11.748   7.001  0.3425  2.1835  2.8090
  251MOL0     H34609  11.915  11.620   7.103 -0.4793 -2.9761 -4.6090
  251MOL0     H34610  11.739  11.856   7.171 -0.8790 -3.4199 -3.8502
  251MOL0     H34611  11.768  11.729   7.290 -2.2885 -2.8857 -2.5065
  251MOL0     H34612  11.999  11.865   7.142  1.2457 -2.4604 -0.2638
  251MOL0     H34613  12.015  11.775   7.294 -0.4514 -0.4578  1.4177
  251MOL0     H34614  11.908  11.943   7.432  0.3567  0.0417 -0.3346
  251MOL0     H34615  11.847  12.035   7.293  1.3123  2.0894 -0.6960
  251MOL0     H34616  12.049  12.141   7.397  2.8787 -2.2054  2.6166
  251MOL0     H34617  12.075  12.094   7.229  1.8951 -2.0271 -0.1161
  251MOL0     H34618  11.452  11.192   6.911 -0.6776 -0.6457  2.1566
  251MOL0     H34619  11.271  11.094   6.835 -0.0042 -0.0126  2.3537
  251MOL0     H34620  10.819  11.259   6.632  1.0021 -2.4838  1.4490
  251MOL0     H34621  10.595  11.198   6.524 -1.2876 -2.0048 -2.3196
  251MOL0     H34622   9.575  11.098   5.092  0.1751 -0.3433 -1.4846
  251MOL0     H34623   9.511  11.097   4.852 -1.5334  3.3719  1.2926
  251MOL0     H34624   9.466  11.254   4.523  0.1903  0.0743 -0.1562
  251MOL0     H34625   9.544  11.231   4.287 -2.8284  0.5382 -2.0186
  251MOL0     H34626   9.577  10.846   4.086  2.4446  0.8749 -2.1039
  251MOL0     H34627   9.402  10.887   4.067  0.4935  1.1785 -0.7139
  251MOL0     H34628   9.468  11.051   3.887 -0.7039 -0.7647 -2.0181
  251MOL0     H34629   9.508  10.880   3.849  0.1991  1.2172 -1.9093
  251MOL0     H34630   9.740  10.979   3.971 -1.3651  3.0925  2.3340
  251MOL0     H34631   9.710  10.982   3.793 -0.1378  3.2342 -1.5317
  251MOL0     H34632   9.678  11.204   4.007 -0.1212  0.4615 -1.1393
  251MOL0     H34633   9.668  11.234   3.831  0.9131  1.1169 -0.9658
  251MOL0     H34634  10.077  11.177   3.844 -0.9208  2.6995 -1.3170
  251MOL0     H34635   9.379  10.845   4.263 -1.0450  1.8270 -3.4905
  251MOL0     H34636   9.289  10.769   4.577  0.1915  0.9658  0.0538
  251MOL0     H34637   9.149  10.861   4.513  0.1947  1.1365  1.3004
  251MOL0     H34638   9.243  10.762   4.406  0.2562 -1.6256  0.4893
  252MOL0     O34639   1.495   6.498   5.299 -0.5429 -0.1373  0.4297
  252MOL0     C34640   1.406   6.507   5.213 -0.0084 -0.5052  0.8397
  252MOL0     O34641   1.311   6.608   5.216  0.3751 -0.1473  0.2751
  252MOL0     C34642   1.325   6.707   5.309 -0.8104  0.3871 -0.4497
  252MOL0     C34643   1.334   6.842   5.269 -0.5284 -0.1304  1.1067
  252MOL0     C34644   1.345   6.945   5.361  1.1188 -0.4039  0.5918
  252MOL0     C34645   1.342   6.914   5.501 -1.1988  0.2602  0.8554
  252MOL0     O34646   1.383   7.020   5.583 -0.0115 -0.1916  0.1016
  252MOL0     C34647   1.476   7.003   5.689 -0.3919  0.4556 -0.6857
  252MOL0     C34648   1.620   7.004   5.633 -0.5226  1.1851 -0.5198
  252MOL0     C34649   1.674   6.872   5.575  0.0062 -0.1230 -1.1862
  252MOL0     C34650   1.728   6.888   5.433 -0.4461  0.7744 -0.8879
  252MOL0     C34651   1.774   6.760   5.368  0.4105 -0.0235 -0.6038
  252MOL0     C34652   1.902   6.693   5.420 -0.2122  0.8866  0.4807
  252MOL0     C34653   1.938   6.556   5.351  0.1905 -0.5125  0.8723
  252MOL0     C34654   1.881   6.437   5.423  0.8358 -0.3776 -0.3499
  252MOL0     N34655   1.953   6.415   5.556  0.3611  0.1276 -0.4080
  252MOL0     C34656   1.909   6.455   5.677 -0.6001  0.4790 -0.3905
  252MOL0     C34657   2.011   6.443   5.762  0.0242 -0.8057  0.2059
  252MOL0     C34658   2.004   6.452   5.910  0.0930  0.6363 -0.2581
  252MOL0     C34659   1.868   6.409   5.977 -0.3971  0.1192 -0.3088
  252MOL0     C34660   1.851   6.255   5.961  0.1905 -0.7305 -0.6471
  252MOL0     C34661   1.750   6.200   6.069  0.0051  1.4472 -0.0354
  252MOL0     O34662   1.650   6.296   6.108  0.1148 -0.1702  0.4545
  252MOL0     C34663   1.599   6.290   6.241  0.9607  1.1779 -0.3245
  252MOL0     C34664   1.619   6.187   6.339  0.2828  0.1484  0.8437
  252MOL0     C34665   1.546   6.183   6.464 -0.2535 -0.3004  0.5672
  252MOL0     C34666   1.559   6.059   6.554 -0.7149  0.6067 -0.3526
  252MOL0     C34667   1.484   6.306   6.499  0.3151  1.0080  0.0113
  252MOL0     C34668   1.434   6.328   6.636 -0.3572  0.2727 -0.1347
  252MOL0     O34669   1.367   6.227   6.703  0.1577  0.8024  0.1453
  252MOL0     C34670   1.310   6.255   6.817 -0.2703  0.0846 -0.1070
  252MOL0     C34671   1.170   6.263   6.817 -0.5240  0.7888  0.6398
  252MOL0     C34672   1.104   6.308   6.934 -0.3889  1.1061 -0.1714
  252MOL0     C34673   1.175   6.317   7.053  0.2073  0.8689  0.0397
  252MOL0     O34674   1.088   6.342   7.167  0.3440 -0.2926  0.3253
  252MOL0     C34675   1.151   6.356   7.295 -0.2915  0.3996 -0.3568
  252MOL0     C34676   1.076   6.461   7.372 -0.1912 -0.1754 -1.1050
  252MOL0     C34677   1.140   6.473   7.502  0.0499  0.6470 -0.5220
  252MOL0     C34678   1.050   6.452   7.624  0.5413  0.8041 -0.2113
  252MOL0     C34679   1.039   6.306   7.662  0.4681  1.3893 -0.2700
  252MOL0     C34680   0.957   6.269   7.794  0.1162  0.3927  0.7520
  252MOL0     C34681   1.000   6.357   7.903  0.3674 -0.5448  0.0804
  252MOL0     C34682   1.146   6.322   7.948 -0.2131 -0.0657 -0.3640
  252MOL0    Cl34683   1.186   6.389   8.119 -0.1993  0.0434 -0.4125
  252MOL0     C34684   1.309   6.310   7.053 -0.6894  0.1781 -0.3601
  252MOL0     C34685   1.375   6.272   6.941 -0.4872  0.4880  1.0901
  252MOL0     O34686   1.471   6.425   6.686 -0.1887 -0.5113 -0.1622
  252MOL0     C34687   1.473   6.411   6.407 -0.3516  0.4924  0.0798
  252MOL0     C34688   1.516   6.399   6.280 -0.1288 -0.4333  0.5070
  252MOL0     N34689   2.115   6.387   5.690 -1.1937 -0.6025  0.8614
  252MOL0     N34690   2.084   6.377   5.574  0.0281 -0.4685  0.2628
  252MOL0     C34691   1.329   6.775   5.542 -0.3604 -0.1040  0.3196
  252MOL0     C34692   1.315   6.676   5.449  0.0566  0.5216 -0.5442
  252MOL0     C34693   1.407   6.420   5.083  0.6674  0.1573 -0.2719
  252MOL0     C34694   1.327   6.459   4.978  0.4681 -0.2729 -0.4529
  252MOL0     C34695   1.318   6.394   4.857 -0.0181  0.1740 -0.5868
  252MOL0     C34696   1.396   6.278   4.831 -0.3381  0.1089  0.0869
  252MOL0     O34697   1.395   6.198   4.713  0.1267  0.7779 -0.2577
  252MOL0     C34698   1.298   6.212   4.616 -0.1788 -0.2167  0.0275
  252MOL0     C34699   1.355   6.225   4.470 -0.0147  0.1525 -0.4547
  252MOL0     C34700   1.435   6.349   4.458 -0.5717  0.1984 -0.0720
  252MOL0     C34701   1.454   6.397   4.304  0.0252  0.6623  0.4928
  252MOL0     C34702   1.519   6.529   4.303  0.0250  0.9465 -0.2891
  252MOL0     C34703   1.579   6.627   4.299  0.1790 -0.2683 -0.5852
  252MOL0     C34704   1.491   6.247   4.926 -0.1478 -0.2917 -1.2705
  252MOL0     C34705   1.494   6.309   5.055 -0.9150  0.0533 -0.1805
  252MOL0     C34706   1.586   6.250   5.163 -0.1010 -0.2752  0.2339
  252MOL0     H34707   1.339   6.880   5.168 -1.3830  0.9577  1.4568
  252MOL0     H34708   1.351   7.050   5.335  0.6445 -0.8301 -1.3944
  252MOL0     H34709   1.460   6.904   5.732  0.2519  0.8235  0.4416
  252MOL0     H34710   1.467   7.086   5.760  0.0875  0.4434 -0.6094
  252MOL0     H34711   1.638   7.084   5.560 -0.3034 -0.5504 -2.4915
  252MOL0     H34712   1.687   7.034   5.713  2.8053 -1.1084 -2.1977
  252MOL0     H34713   1.748   6.829   5.642 -1.9303  0.8670  1.7787
  252MOL0     H34714   1.594   6.797   5.576  1.9620 -2.3394  0.5214
  252MOL0     H34715   1.643   6.922   5.374 -3.5181 -0.0259  2.7374
  252MOL0     H34716   1.802   6.967   5.414 -1.9079  2.8158  1.3839
  252MOL0     H34717   1.792   6.788   5.264  0.7986  0.0170 -0.5277
  252MOL0     H34718   1.697   6.683   5.376  2.5975 -2.3615 -0.6678
  252MOL0     H34719   1.986   6.759   5.399 -0.4250  0.0765 -3.9372
  252MOL0     H34720   1.888   6.683   5.528 -1.1121  2.1956  0.5054
  252MOL0     H34721   2.046   6.542   5.355  0.2839  0.3555  2.0386
  252MOL0     H34722   1.898   6.573   5.251  0.3861  1.8382  1.1190
  252MOL0     H34723   1.774   6.442   5.446  0.7897 -2.9330  0.3242
  252MOL0     H34724   1.897   6.351   5.356  1.2420  0.2275 -1.0478
  252MOL0     H34725   1.803   6.468   5.700 -0.7680  2.0359 -1.9245
  252MOL0     H34726   2.027   6.558   5.924  0.9766  0.7397 -2.1795
  252MOL0     H34727   2.086   6.393   5.953  0.0197  0.8366  0.1690
  252MOL0     H34728   1.876   6.435   6.082 -0.0974 -0.8479 -0.0767
  252MOL0     H34729   1.788   6.459   5.922 -1.1617 -1.7291 -0.9811
  252MOL0     H34730   1.807   6.239   5.862  0.6444 -1.7291 -0.7022
  252MOL0     H34731   1.945   6.200   5.961  3.3407  4.1092 -0.3211
  252MOL0     H34732   1.717   6.105   6.026  1.3951  0.2664  1.3689
  252MOL0     H34733   1.807   6.173   6.159 -0.2041 -0.8080 -0.5378
  252MOL0     H34734   1.681   6.105   6.302  1.5324  0.7635  1.5096
  252MOL0     H34735   1.587   6.098   6.653  0.8056  2.5402 -1.4622
  252MOL0     H34736   1.623   5.980   6.512  0.0322  1.1579 -0.2823
  252MOL0     H34737   1.463   6.010   6.571  1.4762 -4.2825 -0.2032
  252MOL0     H34738   1.126   6.245   6.720  3.6846 -0.2182 -1.2821
  252MOL0     H34739   0.996   6.321   6.934 -0.7366 -1.2819  0.7688
  252MOL0     H34740   1.133   6.266   7.353  0.0469  0.9070  0.5610
  252MOL0     H34741   1.258   6.378   7.297 -0.3602  0.6952  0.6667
  252MOL0     H34742   1.065   6.562   7.332  0.0912  0.5503  0.5574
  252MOL0     H34743   0.972   6.431   7.389  0.6211 -1.3220  2.8040
  252MOL0     H34744   1.198   6.566   7.507  0.8356  0.1496 -0.1135
  252MOL0     H34745   1.215   6.393   7.513 -0.6749 -0.1056 -0.9394
  252MOL0     H34746   0.953   6.502   7.621 -0.4699 -1.0715 -3.6221
  252MOL0     H34747   1.108   6.500   7.704  0.5403  0.3370  0.0767
  252MOL0     H34748   0.992   6.235   7.593  2.0520 -2.2818  2.0639
  252MOL0     H34749   1.145   6.279   7.673  0.2856 -0.4043 -2.1935
  252MOL0     H34750   0.971   6.162   7.810 -0.0915  0.0071 -1.3756
  252MOL0     H34751   0.851   6.282   7.769  0.6082  1.9902 -0.7614
  252MOL0     H34752   0.938   6.333   7.990  0.2371 -1.3072 -0.2154
  252MOL0     H34753   0.984   6.463   7.882  1.4647 -0.2370  0.7437
  252MOL0     H34754   1.222   6.371   7.887  2.5626 -0.2404  2.7166
  252MOL0     H34755   1.139   6.214   7.963  0.0257 -0.0931 -0.4516
  252MOL0     H34756   1.377   6.328   7.136  1.2306  1.5496 -2.1131
  252MOL0     H34757   1.484   6.276   6.942 -0.4957  1.8642 -0.0836
  252MOL0     H34758   1.425   6.503   6.436 -0.9626  0.4685 -0.7976
  252MOL0     H34759   1.508   6.482   6.210 -0.5168  0.9361  2.0977
  252MOL0     H34760   1.316   6.732   5.641  0.4239 -0.5424  0.2376
  252MOL0     H34761   1.294   6.575   5.484  1.9185  0.2305 -0.1843
  252MOL0     H34762   1.272   6.553   4.984  0.9635 -0.0872  2.7037
  252MOL0     H34763   1.245   6.433   4.787 -3.8278 -3.1357  1.1049
  252MOL0     H34764   1.236   6.122   4.622 -1.5577 -0.0150 -5.6625
  252MOL0     H34765   1.228   6.292   4.642 -0.4311 -0.2046 -0.6737
  252MOL0     H34766   1.269   6.227   4.403 -2.6376 -5.2238  2.1328
  252MOL0     H34767   1.414   6.135   4.446 -1.3443 -1.1959  1.0934
  252MOL0     H34768   1.378   6.428   4.507 -0.8067 -2.3661  4.2065
  252MOL0     H34769   1.526   6.351   4.519 -0.4644 -0.8896 -0.1873
  252MOL0     H34770   1.363   6.405   4.245  1.2395 -0.8708 -1.7409
  252MOL0     H34771   1.522   6.324   4.258 -2.9174  0.1492 -3.6370
  252MOL0     H34772   1.637   6.717   4.299 -0.7950  0.4048 -2.5071
  252MOL0     H34773   1.562   6.166   4.911 -1.5164 -1.6100 -0.8356
  252MOL0     H34774   1.658   6.329   5.187 -1.0933  0.1862  1.8809
  252MOL0     H34775   1.528   6.233   5.254 -0.6212 -0.1388 -0.0657
  252MOL0     H34776   1.634   6.157   5.131  1.6917 -0.4007  2.9496
  253MOL0     O34777   8.644   3.892   8.616 -0.8454  0.1684 -0.0859
  253MOL0     C34778   8.688   3.952   8.518  0.0072 -1.4342 -1.1122
  253MOL0     O34779   8.618   4.057   8.464 -0.7287  0.2129 -0.4724
  253MOL0     C34780   8.512   4.120   8.529  0.2616 -0.5459 -0.9220
  253MOL0     C34781   8.388   4.054   8.575  1.3473 -0.2075  0.1559
  253MOL0     C34782   8.286   4.119   8.644 -0.4813 -0.4850  0.2711
  253MOL0     C34783   8.292   4.260   8.660 -0.3990  0.3370  0.4683
  253MOL0     O34784   8.188   4.318   8.724 -0.1274  0.4200 -0.5856
  253MOL0     C34785   8.153   4.448   8.694 -0.7982  0.4356  0.2234
  253MOL0     C34786   8.089   4.466   8.561 -0.5573 -0.4270 -0.6797
  253MOL0     C34787   7.940   4.423   8.554  0.0512  1.0678 -0.5534
  253MOL0     C34788   7.869   4.444   8.419  0.1385 -0.6468  0.1788
  253MOL0     C34789   7.941   4.367   8.294  0.6353 -0.8764 -0.7457
  253MOL0     C34790   7.854   4.353   8.182  0.6241 -0.1768 -0.7400
  253MOL0     C34791   7.938   4.356   8.052  0.5747 -0.2502 -0.0249
  253MOL0     C34792   8.015   4.226   8.043 -0.9263  0.3412  1.8442
  253MOL0     N34793   8.138   4.239   7.955  0.1690 -0.2494  0.0622
  253MOL0     C34794   8.129   4.262   7.824 -0.6732  0.1496  0.1079
  253MOL0     C34795   8.248   4.274   7.776  0.5436 -0.3687  0.1170
  253MOL0     C34796   8.294   4.305   7.633  0.2223  0.1346 -0.6763
  253MOL0     C34797   8.305   4.189   7.546  0.7019  0.5298 -0.3108
  253MOL0     C34798   8.189   4.093   7.520  0.2197  0.1163  0.4628
  253MOL0     C34799   8.081   4.167   7.445  1.3958  0.5286 -0.9729
  253MOL0     O34800   7.987   4.227   7.541  0.1728  0.0003 -0.2336
  253MOL0     C34801   7.867   4.280   7.494  0.6053  0.5397  0.9771
  253MOL0     C34802   7.838   4.308   7.357 -0.3765  0.9606 -0.5412
  253MOL0     C34803   7.707   4.359   7.330 -0.1653 -0.9416  0.1135
  253MOL0     C34804   7.675   4.390   7.186 -0.0180 -0.1553  1.4542
  253MOL0     C34805   7.612   4.372   7.436  0.0267 -0.4015  0.1817
  253MOL0     C34806   7.470   4.425   7.414  0.1588 -0.3940  0.0544
  253MOL0     O34807   7.373   4.361   7.478 -0.2344  0.6439 -0.2010
  253MOL0     C34808   7.244   4.391   7.453  0.2453  0.3427 -0.5369
  253MOL0     C34809   7.184   4.521   7.421 -0.5768  1.5250 -0.2770
  253MOL0     C34810   7.048   4.541   7.405 -0.5495 -0.6783 -0.3470
  253MOL0     C34811   6.954   4.434   7.392 -0.0036 -0.2927 -0.1918
  253MOL0     O34812   6.826   4.453   7.353  0.3935 -0.4134  0.0440
  253MOL0     C34813   6.742   4.564   7.396  0.6566 -0.8432 -0.2310
  253MOL0     C34814   6.622   4.504   7.489  0.0495 -0.6138 -0.0442
  253MOL0     C34815   6.664   4.469   7.631 -1.1040  1.0109  0.0434
  253MOL0     C34816   6.713   4.325   7.641  0.7490 -0.3689 -0.3619
  253MOL0     C34817   6.741   4.258   7.772  1.1029  0.3022 -0.5136
  253MOL0     C34818   6.847   4.337   7.861 -0.6315  0.0788 -1.2533
  253MOL0     C34819   6.921   4.238   7.949  0.2069  0.0518 -0.4708
  253MOL0     C34820   6.998   4.303   8.062  1.1695  0.0732 -0.1572
  253MOL0    Cl34821   7.086   4.164   8.139  0.3858 -0.1354 -0.0889
  253MOL0     C34822   7.015   4.313   7.414 -0.0936  0.0162 -0.8901
  253MOL0     C34823   7.148   4.291   7.455  0.3641  0.0536  0.6382
  253MOL0     O34824   7.462   4.531   7.341 -0.6207  0.1568 -0.0454
  253MOL0     C34825   7.647   4.343   7.571 -0.5352 -0.7461 -0.3285
  253MOL0     C34826   7.774   4.290   7.593  0.1148 -0.6818 -0.1818
  253MOL0     N34827   8.334   4.258   7.886  0.1770 -0.6140  0.3584
  253MOL0     N34828   8.269   4.226   7.991 -0.8136 -0.1809 -0.8712
  253MOL0     C34829   8.406   4.328   8.615  0.2598 -0.4299 -0.4760
  253MOL0     C34830   8.521   4.252   8.567  0.3804  0.0804 -0.2939
  253MOL0     C34831   8.809   3.902   8.446 -0.5899 -0.7610  0.6139
  253MOL0     C34832   8.827   3.934   8.309 -1.3129 -0.3467  0.4948
  253MOL0     C34833   8.940   3.892   8.233  0.5289 -0.7720 -0.7515
  253MOL0     C34834   9.022   3.802   8.293 -0.6529  0.0828  0.8969
  253MOL0     O34835   9.126   3.741   8.226 -0.1392  0.4972 -0.1697
  253MOL0     C34836   9.183   3.806   8.113 -0.3183 -1.2104 -0.1587
  253MOL0     C34837   9.299   3.728   8.041 -0.4684  0.2139 -0.9564
  253MOL0     C34838   9.432   3.736   8.120 -0.2460  1.0682  0.3412
  253MOL0     C34839   9.543   3.686   8.025  0.1136 -0.0013  0.9660
  253MOL0     C34840   9.529   3.536   8.001 -0.8752 -1.1262  0.5342
  253MOL0     C34841   9.518   3.417   7.994  1.1384 -0.1417  1.0260
  253MOL0     C34842   9.009   3.771   8.424  0.3975 -0.0640  0.5392
  253MOL0     C34843   8.908   3.814   8.509 -0.9201 -0.1133  0.4704
  253MOL0     C34844   8.909   3.762   8.653  0.6628  0.3524  0.0032
  253MOL0     H34845   8.368   3.948   8.560  1.2561 -0.1737  0.0383
  253MOL0     H34846   8.197   4.066   8.677  0.5627 -2.3183  0.2228
  253MOL0     H34847   8.235   4.519   8.704 -0.8399  0.7296 -1.2758
  253MOL0     H34848   8.076   4.466   8.770 -1.8442 -2.1616 -0.1147
  253MOL0     H34849   8.089   4.573   8.539 -1.8730  0.4071  2.7668
  253MOL0     H34850   8.149   4.415   8.485  2.1488 -0.2307  1.1771
  253MOL0     H34851   7.929   4.321   8.591  1.3104  1.6860  1.7670
  253MOL0     H34852   7.872   4.482   8.616 -1.1177 -1.1298  0.3498
  253MOL0     H34853   7.760   4.433   8.419 -0.0759  1.1457 -0.8988
  253MOL0     H34854   7.889   4.549   8.399  3.2557 -1.2177 -0.2215
  253MOL0     H34855   7.977   4.268   8.324  0.6871 -0.4535  0.6509
  253MOL0     H34856   8.038   4.409   8.268  0.3802  0.3833  0.2559
  253MOL0     H34857   7.785   4.270   8.199 -0.6472  1.2908  1.9072
  253MOL0     H34858   7.781   4.434   8.179 -1.0488 -1.1948  3.6929
  253MOL0     H34859   8.003   4.443   8.068 -1.9402  1.7886 -0.2129
  253MOL0     H34860   7.882   4.358   7.958  0.1058 -0.4452  0.2462
  253MOL0     H34861   8.064   4.193   8.135  2.3219  1.7315  0.7551
  253MOL0     H34862   7.954   4.143   8.007  1.2887  0.0015 -1.6691
  253MOL0     H34863   8.034   4.279   7.774 -1.3943  2.6453  2.1152
  253MOL0     H34864   8.393   4.350   7.643  0.5743 -1.1984  3.1128
  253MOL0     H34865   8.221   4.373   7.588 -2.1391 -1.1313  1.0650
  253MOL0     H34866   8.325   4.231   7.447 -2.3185  3.7142  0.2389
  253MOL0     H34867   8.382   4.124   7.588 -1.5652 -2.3542 -0.2676
  253MOL0     H34868   8.239   4.007   7.475  1.2373  0.4358  0.9509
  253MOL0     H34869   8.149   4.055   7.614 -1.0411  0.4668  0.0787
  253MOL0     H34870   8.120   4.246   7.380 -1.7788  2.4375 -0.7461
  253MOL0     H34871   8.017   4.096   7.392  1.8143 -1.6671  1.2688
  253MOL0     H34872   7.914   4.287   7.283  0.6041 -1.0305  0.9525
  253MOL0     H34873   7.586   4.451   7.168  2.1232  2.6442 -0.5004
  253MOL0     H34874   7.660   4.297   7.131  0.3128  0.7929 -0.3210
  253MOL0     H34875   7.749   4.455   7.137 -2.2597  1.4718  0.0130
  253MOL0     H34876   7.249   4.607   7.426 -2.1241  2.6600  1.6628
  253MOL0     H34877   7.004   4.634   7.370 -0.1802 -0.4002 -0.0750
  253MOL0     H34878   6.791   4.645   7.451 -2.3871  0.8295  0.2551
  253MOL0     H34879   6.699   4.615   7.309  1.3267 -1.9332 -1.2418
  253MOL0     H34880   6.559   4.593   7.485  2.1689  1.0582  1.3014
  253MOL0     H34881   6.559   4.428   7.443 -0.5286 -0.9342  1.2254
  253MOL0     H34882   6.588   4.491   7.706 -1.0584  1.8729 -0.1558
  253MOL0     H34883   6.750   4.525   7.668  0.2743 -3.1657  4.2016
  253MOL0     H34884   6.804   4.313   7.582  3.4108  3.3496  2.5374
  253MOL0     H34885   6.629   4.277   7.589  1.5387  0.9344 -3.0160
  253MOL0     H34886   6.648   4.240   7.826 -0.1317  2.2444 -1.8739
  253MOL0     H34887   6.789   4.163   7.745  1.9888  0.5406  0.1684
  253MOL0     H34888   6.806   4.416   7.925 -0.4619  0.7387 -1.9492
  253MOL0     H34889   6.924   4.375   7.793 -1.4143 -0.8691 -2.7045
  253MOL0     H34890   6.991   4.174   7.895 -0.6217 -0.1272 -1.3489
  253MOL0     H34891   6.849   4.162   7.980  1.6157 -1.4508 -0.7302
  253MOL0     H34892   6.942   4.356   8.140  1.7316  3.9689 -2.1184
  253MOL0     H34893   7.054   4.378   8.005  1.0577 -0.3351 -0.8182
  253MOL0     H34894   6.955   4.223   7.407 -0.8793  0.3410  0.9758
  253MOL0     H34895   7.176   4.187   7.467  0.4170 -0.3711 -2.4543
  253MOL0     H34896   7.591   4.359   7.662 -2.7222  0.0245 -1.7257
  253MOL0     H34897   7.802   4.278   7.697 -0.5565 -1.3453 -0.0625
  253MOL0     H34898   8.415   4.435   8.632  2.5962  0.2211 -4.6360
  253MOL0     H34899   8.606   4.315   8.544 -0.9864  3.8564  3.6275
  253MOL0     H34900   8.758   3.996   8.254  0.5166  0.1402 -1.3767
  253MOL0     H34901   8.951   3.931   8.132 -1.9327  2.3583  0.0230
  253MOL0     H34902   9.110   3.830   8.035  0.8572 -1.4033 -1.3500
  253MOL0     H34903   9.228   3.902   8.140  0.7231 -0.6694 -3.3689
  253MOL0     H34904   9.315   3.760   7.938  0.7556 -1.3570 -1.2858
  253MOL0     H34905   9.276   3.622   8.026  2.6045 -0.9208  1.3202
  253MOL0     H34906   9.458   3.834   8.163 -2.4194  0.9287  2.1296
  253MOL0     H34907   9.422   3.668   8.205  0.2708 -1.7626 -1.7374
  253MOL0     H34908   9.634   3.704   8.083  0.6560  2.0984 -0.4262
  253MOL0     H34909   9.563   3.749   7.938 -1.3916  0.9725  1.2883
  253MOL0     H34910   9.508   3.310   7.992 -1.1757 -0.1345 -3.8864
  253MOL0     H34911   9.078   3.701   8.471  2.1280  0.7148 -0.7456
  253MOL0     H34912   8.870   3.834   8.726 -1.3137 -0.6683  0.0070
  253MOL0     H34913   8.837   3.680   8.658  0.4543  0.0755 -4.1996
  253MOL0     H34914   9.008   3.720   8.676  2.1131  1.1300 -4.0154
  254MOL0     O34915  10.787   1.256   2.055  0.3921 -0.4999 -0.1760
  254MOL0     C34916  10.750   1.270   1.936 -0.1030  0.2563  0.2276
  254MOL0     O34917  10.629   1.228   1.891 -0.3464 -0.4723 -0.3136
  254MOL0     C34918  10.546   1.133   1.949 -0.0567  1.1651  0.0721
  254MOL0     C34919  10.411   1.141   1.903 -0.0424  0.3578  0.3120
  254MOL0     C34920  10.317   1.043   1.940  0.1219 -0.3880 -0.3433
  254MOL0     C34921  10.351   0.927   2.022 -0.7172  0.6050  0.7038
  254MOL0     O34922  10.253   0.842   2.046  0.1525  0.6268  0.2905
  254MOL0     C34923  10.288   0.712   2.007 -0.2438  0.4552 -0.3094
  254MOL0     C34924  10.166   0.622   1.985  0.7221  0.1672 -0.0596
  254MOL0     C34925  10.094   0.601   2.109  0.8840 -0.2097  0.3772
  254MOL0     C34926   9.981   0.496   2.094 -0.2496  0.1044 -0.9477
  254MOL0     C34927   9.862   0.555   2.014  0.5138 -0.3496  0.6199
  254MOL0     C34928   9.735   0.490   2.060  0.0298  0.2178 -0.6017
  254MOL0     C34929   9.619   0.518   1.967  0.0540 -0.6200 -0.2750
  254MOL0     C34930   9.614   0.434   1.832  1.3131 -0.3053  0.0384
  254MOL0     N34931   9.491   0.454   1.741 -0.2043  0.5117  0.1109
  254MOL0     C34932   9.468   0.581   1.679 -0.0032 -0.9210  1.6927
  254MOL0     C34933   9.341   0.566   1.633 -0.7492  1.3545  0.5302
  254MOL0     C34934   9.287   0.666   1.538 -0.9513  0.9462 -1.7183
  254MOL0     C34935   9.142   0.630   1.493 -0.0182 -0.3032  0.1773
  254MOL0     C34936   9.056   0.673   1.604 -0.1393 -0.4605 -0.0632
  254MOL0     C34937   8.910   0.623   1.589 -0.4211  0.1491  0.5870
  254MOL0     O34938   8.825   0.669   1.695 -0.2890  0.2945  0.2750
  254MOL0     C34939   8.700   0.605   1.710  0.0878 -0.1565 -0.3277
  254MOL0     C34940   8.615   0.597   1.599 -0.1793 -0.2899 -0.0204
  254MOL0     C34941   8.481   0.540   1.597  0.1854 -0.0472 -0.1998
  254MOL0     C34942   8.395   0.557   1.465 -0.5169  0.3502  0.1186
  254MOL0     C34943   8.448   0.467   1.720  0.1361  0.5135  0.3561
  254MOL0     C34944   8.318   0.386   1.728  0.8253  0.4748  0.0387
  254MOL0     O34945   8.329   0.285   1.813  0.5696  0.8153  0.5330
  254MOL0     C34946   8.224   0.203   1.849  0.6262 -0.1067  0.0557
  254MOL0     C34947   8.089   0.257   1.865  0.7284  1.0521 -0.4419
  254MOL0     C34948   7.981   0.165   1.880 -0.0614 -1.4013  0.3406
  254MOL0     C34949   7.997   0.031   1.885  0.1204  0.1067 -0.5462
  254MOL0     O34950   7.876  -0.041   1.907  0.0962  1.0951 -0.7566
  254MOL0     C34951   7.880  -0.185   1.892 -0.0154  0.8096  0.5966
  254MOL0     C34952   7.738  -0.239   1.864  0.9153  0.4165  0.3983
  254MOL0     C34953   7.655  -0.201   1.737 -0.0911 -0.2963  0.1995
  254MOL0     C34954   7.717  -0.226   1.607  0.6056 -0.4846  0.6696
  254MOL0     C34955   7.610  -0.214   1.493 -0.6266 -0.0035  0.3882
  254MOL0     C34956   7.552  -0.340   1.436  0.4714  0.2033  0.8700
  254MOL0     C34957   7.650  -0.419   1.353 -0.8360  0.2742 -0.0505
  254MOL0     C34958   7.590  -0.552   1.300 -0.1252 -0.8410  0.3370
  254MOL0    Cl34959   7.497  -0.646   1.415 -0.0680  0.1113  0.6126
  254MOL0     C34960   8.128  -0.020   1.889 -0.0510 -0.1758  0.3441
  254MOL0     C34961   8.231   0.063   1.878 -0.7776 -0.7819  0.1900
  254MOL0     O34962   8.228   0.399   1.650  0.1789  0.4069  0.3568
  254MOL0     C34963   8.542   0.466   1.829  0.7164 -0.2504  0.2543
  254MOL0     C34964   8.665   0.533   1.824 -0.1426 -0.1685  0.1105
  254MOL0     N34965   9.297   0.432   1.657  0.2865  0.0873  0.1113
  254MOL0     N34966   9.385   0.369   1.728 -0.8825 -0.3028  0.2600
  254MOL0     C34967  10.475   0.934   2.078 -0.0611  0.4140 -0.3973
  254MOL0     C34968  10.571   1.034   2.040 -0.5077  0.3776 -0.2407
  254MOL0     C34969  10.840   1.308   1.821 -0.4256 -0.8279 -0.4645
  254MOL0     C34970  10.797   1.302   1.688 -0.7961  0.1454 -1.0496
  254MOL0     C34971  10.877   1.350   1.585 -0.2416  0.2615  0.6791
  254MOL0     C34972  11.007   1.393   1.608 -0.9546 -1.1968 -0.0752
  254MOL0     O34973  11.087   1.444   1.499  0.6649 -0.3377  0.6511
  254MOL0     C34974  11.216   1.379   1.504  0.1159  0.9560 -0.2796
  254MOL0     C34975  11.204   1.232   1.433  0.2430  0.7460  0.5236
  254MOL0     C34976  11.137   1.224   1.292 -0.8966 -1.0457 -0.5537
  254MOL0     C34977  11.208   1.332   1.211  0.4894  0.0933 -0.2697
  254MOL0     C34978  11.199   1.293   1.064  0.1683 -0.5284  0.4657
  254MOL0     C34979  11.196   1.288   0.949 -0.1058  0.1653  0.3517
  254MOL0     C34980  11.046   1.417   1.743 -1.3118  0.7985  0.7573
  254MOL0     C34981  10.965   1.381   1.843 -0.5009  0.9209 -0.1096
  254MOL0     C34982  11.011   1.409   1.979 -0.5602 -0.3417 -0.0698
  254MOL0     H34983  10.383   1.223   1.836 -0.1833 -0.0357 -0.1182
  254MOL0     H34984  10.218   1.067   1.904 -0.2726  1.2645  1.6088
  254MOL0     H34985  10.358   0.677   2.084  0.0814 -1.1375 -1.2729
  254MOL0     H34986  10.356   0.712   1.921  4.3564 -0.5017  2.9179
  254MOL0     H34987  10.105   0.666   1.906  0.1216 -2.6402 -1.3124
  254MOL0     H34988  10.182   0.522   1.943 -1.6934 -0.7614  1.0163
  254MOL0     H34989  10.163   0.557   2.181  0.6123  0.5937  1.1508
  254MOL0     H34990  10.065   0.697   2.152  3.0697  0.5088  0.3350
  254MOL0     H34991  10.010   0.402   2.048  0.9212 -0.4117  0.7597
  254MOL0     H34992   9.939   0.478   2.194 -3.6220  3.5560 -1.4928
  254MOL0     H34993   9.877   0.532   1.908 -0.2098 -0.1530  0.4700
  254MOL0     H34994   9.857   0.662   2.033  1.0011 -0.2925  0.4385
  254MOL0     H34995   9.740   0.380   2.059 -3.1075 -0.0535  0.7292
  254MOL0     H34996   9.704   0.532   2.156  4.0126 -0.3618  1.1413
  254MOL0     H34997   9.621   0.622   1.932 -1.2000 -1.6002 -3.5804
  254MOL0     H34998   9.529   0.496   2.026  1.1563 -1.7195  1.0814
  254MOL0     H34999   9.702   0.461   1.775  0.6030  1.0672 -0.4550
  254MOL0     H35000   9.609   0.331   1.870  0.0643 -0.6000 -0.8476
  254MOL0     H35001   9.535   0.666   1.667 -1.4075 -0.1169 -1.6638
  254MOL0     H35002   9.363   0.653   1.460  1.5783 -2.9310  0.9772
  254MOL0     H35003   9.292   0.764   1.585 -2.2482  0.3494 -0.2603
  254MOL0     H35004   9.125   0.689   1.403 -2.2372  2.0026  1.9418
  254MOL0     H35005   9.129   0.527   1.459  0.0660 -0.5286  0.8125
  254MOL0     H35006   9.083   0.630   1.701 -1.6070 -1.9749 -0.2996
  254MOL0     H35007   9.056   0.781   1.625 -3.4428 -0.3202 -0.2535
  254MOL0     H35008   8.882   0.671   1.495  1.8609  0.0337 -0.2129
  254MOL0     H35009   8.916   0.514   1.589 -4.0007 -0.1526  1.1956
  254MOL0     H35010   8.644   0.658   1.514  0.8065  1.1977  1.3239
  254MOL0     H35011   8.329   0.471   1.449  2.8800 -2.2907 -0.8345
  254MOL0     H35012   8.464   0.554   1.381 -0.1363  0.5977  0.4198
  254MOL0     H35013   8.347   0.655   1.472  1.3107  1.1839  2.2971
  254MOL0     H35014   8.075   0.364   1.858 -2.1385  0.8970  1.5387
  254MOL0     H35015   7.883   0.212   1.889  0.5060  0.1303 -0.9400
  254MOL0     H35016   7.940  -0.199   1.802  3.8410  4.2533  2.2966
  254MOL0     H35017   7.926  -0.233   1.979 -0.3682  2.7750  1.9494
  254MOL0     H35018   7.732  -0.348   1.869 -0.1949  0.5051  1.5496
  254MOL0     H35019   7.675  -0.207   1.947  0.1855  2.6133 -0.9187
  254MOL0     H35020   7.640  -0.092   1.739  2.4461  0.1524 -1.1403
  254MOL0     H35021   7.558  -0.252   1.742 -0.7327  0.2644 -3.4623
  254MOL0     H35022   7.759  -0.327   1.603  1.1106 -0.4072  2.7390
  254MOL0     H35023   7.792  -0.154   1.574  1.0479 -1.9950 -1.9802
  254MOL0     H35024   7.530  -0.142   1.514 -0.1584  1.4908 -2.4970
  254MOL0     H35025   7.668  -0.156   1.421  0.3202 -0.3609  0.8490
  254MOL0     H35026   7.468  -0.304   1.376  0.4626  1.1695  1.4429
  254MOL0     H35027   7.511  -0.401   1.517  0.7600 -1.0720  0.0790
  254MOL0     H35028   7.741  -0.444   1.409 -2.0811 -2.7894  0.8076
  254MOL0     H35029   7.680  -0.354   1.270  1.0477  1.8863  1.7824
  254MOL0     H35030   7.672  -0.612   1.258 -0.2574  1.7798 -4.3759
  254MOL0     H35031   7.529  -0.539   1.210 -0.3205  2.6641  0.8392
  254MOL0     H35032   8.145  -0.126   1.905  0.0317  0.0908  2.3326
  254MOL0     H35033   8.327   0.014   1.888  0.3478  1.2429 -0.2220
  254MOL0     H35034   8.501   0.404   1.908 -2.5548 -0.0945 -1.1917
  254MOL0     H35035   8.719   0.531   1.918 -1.1009  2.0291  0.7634
  254MOL0     H35036  10.511   0.863   2.151 -1.3397 -1.3127 -1.3616
  254MOL0     H35037  10.671   1.032   2.082 -0.8780  0.1391  0.6637
  254MOL0     H35038  10.695   1.272   1.664 -0.5362 -1.3965 -0.3673
  254MOL0     H35039  10.846   1.340   1.482 -2.0538 -5.0519  1.4450
  254MOL0     H35040  11.293   1.439   1.454  0.1036  1.4721  0.3122
  254MOL0     H35041  11.256   1.365   1.605  2.0572  0.9663 -1.0111
  254MOL0     H35042  11.147   1.166   1.498 -0.5773 -2.2945 -2.9369
  254MOL0     H35043  11.305   1.194   1.415 -0.7675 -1.8758 -0.0654
  254MOL0     H35044  11.148   1.125   1.246  1.8506 -1.0629  0.0083
  254MOL0     H35045  11.029   1.242   1.289 -0.7600 -0.3424 -1.9678
  254MOL0     H35046  11.304   1.363   1.254 -1.6471  2.5874  3.2156
  254MOL0     H35047  11.157   1.429   1.215  0.4096  0.0639 -0.5298
  254MOL0     H35048  11.197   1.289   0.842 -1.0352  1.6592  0.3259
  254MOL0     H35049  11.138   1.472   1.759 -1.0803  0.7287 -0.2836
  254MOL0     H35050  11.038   1.317   2.031  2.2996 -1.4570 -3.1325
  254MOL0     H35051  11.100   1.471   1.995  1.8072 -3.4302 -0.4104
  254MOL0     H35052  10.929   1.457   2.034  2.7830 -0.1495  5.4377
  255MOL0     O35053   1.596   0.094   9.373 -0.0857  0.2308  0.4078
  255MOL0     C35054   1.594  -0.026   9.391 -0.3720  0.6171  0.0925
  255MOL0     O35055   1.671  -0.110   9.315 -0.4468  0.5094  0.3461
  255MOL0     C35056   1.758  -0.047   9.228 -0.4984 -0.0168 -0.1741
  255MOL0     C35057   1.863   0.031   9.261 -1.0588  0.0884  0.6876
  255MOL0     C35058   1.946   0.085   9.163  0.2921 -1.3910 -0.5082
  255MOL0     C35059   1.933   0.067   9.029 -0.5765  0.4357  0.3644
  255MOL0     O35060   2.019   0.118   8.930  0.2202 -0.5043 -0.0797
  255MOL0     C35061   2.064   0.032   8.836 -0.2722  0.6155 -0.2237
  255MOL0     C35062   2.011   0.064   8.700  0.2445 -0.0100  1.2898
  255MOL0     C35063   2.101   0.008   8.581 -0.2541  0.6229  0.5877
  255MOL0     C35064   2.115  -0.146   8.574  0.1427  1.0741  0.1600
  255MOL0     C35065   2.172  -0.200   8.436  0.4721 -0.3095  0.3660
  255MOL0     C35066   2.316  -0.145   8.415 -0.6094  0.0057 -0.1149
  255MOL0     C35067   2.392  -0.257   8.346  0.2176 -0.4764  0.0881
  255MOL0     C35068   2.452  -0.368   8.434  0.9629  0.3596  0.8264
  255MOL0     N35069   2.592  -0.345   8.479 -0.2069 -0.4234  0.1364
  255MOL0     C35070   2.640  -0.240   8.556 -1.1424  0.1494  0.5585
  255MOL0     C35071   2.772  -0.259   8.581 -0.2013 -0.5338 -0.2106
  255MOL0     C35072   2.846  -0.171   8.680 -1.8411 -0.5972  0.3996
  255MOL0     C35073   3.003  -0.183   8.650  0.5377 -0.3815  0.4720
  255MOL0     C35074   3.062  -0.075   8.737 -0.6697  0.2196 -0.0081
  255MOL0     C35075   3.214  -0.057   8.730  0.4002  0.9752 -0.7898
  255MOL0     O35076   3.290  -0.176   8.692 -0.9241  0.5536 -0.4753
  255MOL0     C35077   3.321  -0.266   8.793 -0.0904 -0.7171  0.1501
  255MOL0     C35078   3.386  -0.386   8.757 -1.4233 -0.4326  0.0137
  255MOL0     C35079   3.415  -0.487   8.852  0.0571  0.1818  0.2425
  255MOL0     C35080   3.478  -0.617   8.800 -0.1536 -0.7236  0.4953
  255MOL0     C35081   3.370  -0.476   8.984  0.4626 -0.3766 -0.1845
  255MOL0     C35082   3.396  -0.580   9.096 -0.0815  1.0230  1.3962
  255MOL0     O35083   3.365  -0.543   9.222 -0.4060 -0.5031 -0.0463
  255MOL0     C35084   3.416  -0.603   9.335 -0.2902  0.1046  0.6954
  255MOL0     C35085   3.547  -0.631   9.356 -0.6267 -0.7063 -0.4668
  255MOL0     C35086   3.596  -0.680   9.479  1.2181  0.4376  1.0503
  255MOL0     C35087   3.503  -0.699   9.588  0.5326  0.0781 -0.8240
  255MOL0     O35088   3.533  -0.743   9.719  0.1733 -0.6346 -0.7026
  255MOL0     C35089   3.662  -0.709   9.765  1.0315 -0.6193  0.1411
  255MOL0     C35090   3.673  -0.722   9.914  1.0544  0.4495 -0.1926
  255MOL0     C35091   3.823  -0.727   9.958  1.2420 -0.5232  0.4125
  255MOL0     C35092   3.896  -0.596   9.956 -0.8027  0.0625 -0.2767
  255MOL0     C35093   4.044  -0.604  10.015  0.7361 -0.4002 -0.4647
  255MOL0     C35094   4.141  -0.699   9.945  0.8404  0.7501  0.7960
  255MOL0     C35095   4.253  -0.731  10.036 -0.0359  0.6024  0.2206
  255MOL0     C35096   4.378  -0.799   9.959 -0.7490 -0.3723  0.6255
  255MOL0    Cl35097   4.531  -0.812  10.053  0.8902 -0.1291  0.7879
  255MOL0     C35098   3.370  -0.677   9.568  1.1300  1.0264 -0.3762
  255MOL0     C35099   3.329  -0.634   9.439  0.7634 -0.2211  0.2643
  255MOL0     O35100   3.452  -0.687   9.072 -0.2352  0.4981  0.7806
  255MOL0     C35101   3.309  -0.354   9.026 -0.5730 -0.0045 -0.2307
  255MOL0     C35102   3.279  -0.255   8.933 -0.1501  0.8744 -0.1466
  255MOL0     N35103   2.797  -0.379   8.508  0.3145 -0.0376  0.1837
  255MOL0     N35104   2.699  -0.424   8.448  0.1041 -0.1775 -0.6010
  255MOL0     C35105   1.817  -0.005   8.990  0.5702  0.0971 -0.0461
  255MOL0     C35106   1.737  -0.063   9.091 -0.0724 -0.2624  0.6349
  255MOL0     C35107   1.517  -0.076   9.509 -0.4778 -0.5232 -0.1792
  255MOL0     C35108   1.472   0.015   9.611  0.4777 -0.3053 -0.0395
  255MOL0     C35109   1.406  -0.023   9.730  0.4244 -0.0380 -0.8842
  255MOL0     C35110   1.371  -0.157   9.750  0.2934  0.1234  0.5658
  255MOL0     O35111   1.309  -0.212   9.855  0.3385  0.3261 -1.1793
  255MOL0     C35112   1.272  -0.143   9.974  0.3089 -0.3554  0.3467
  255MOL0     C35113   1.387  -0.124  10.061 -0.2980  0.8533 -0.9294
  255MOL0     C35114   1.448  -0.250  10.128  0.0836  0.7856 -0.3459
  255MOL0     C35115   1.367  -0.358  10.191  0.7163 -0.1499 -0.0633
  255MOL0     C35116   1.305  -0.294  10.310 -0.2392 -0.3915  0.3958
  255MOL0     C35117   1.263  -0.228  10.403 -0.4193 -0.3357  0.9534
  255MOL0     C35118   1.412  -0.256   9.655 -0.1921  0.0948  0.3407
  255MOL0     C35119   1.487  -0.213   9.541 -0.3512  0.5266  0.5464
  255MOL0     C35120   1.537  -0.324   9.452 -0.0618  0.1459  1.2583
  255MOL0     H35121   1.870   0.034   9.369  1.3619 -1.3552  0.6371
  255MOL0     H35122   2.034   0.141   9.193 -0.6275  1.0589 -2.1237
  255MOL0     H35123   2.055  -0.074   8.860  5.1889  0.6695  4.0170
  255MOL0     H35124   2.171   0.054   8.838  0.4088 -2.2066 -1.0331
  255MOL0     H35125   1.915   0.013   8.699  0.8843 -1.2506  0.6395
  255MOL0     H35126   1.999   0.169   8.672  3.3808 -0.0224 -0.6041
  255MOL0     H35127   2.047   0.015   8.486 -2.5137  1.4786  1.8521
  255MOL0     H35128   2.199   0.055   8.569  0.6820 -0.7831  2.2907
  255MOL0     H35129   2.178  -0.184   8.655  0.2781 -1.7496 -1.1313
  255MOL0     H35130   2.016  -0.190   8.588  0.0698  0.9573 -0.6583
  255MOL0     H35131   2.101  -0.168   8.359 -0.8188  0.3020  1.7499
  255MOL0     H35132   2.178  -0.309   8.441 -0.1135 -0.2987  3.3738
  255MOL0     H35133   2.306  -0.059   8.348  0.3218  2.5996  2.8703
  255MOL0     H35134   2.364  -0.101   8.503 -0.4638 -0.6012  0.1169
  255MOL0     H35135   2.467  -0.214   8.278 -1.5582  0.6625 -1.2317
  255MOL0     H35136   2.323  -0.305   8.277  0.8820 -2.1415  0.5157
  255MOL0     H35137   2.388  -0.394   8.518  1.2146 -2.3467  0.2746
  255MOL0     H35138   2.445  -0.463   8.379 -0.3517  1.1702 -0.4812
  255MOL0     H35139   2.578  -0.162   8.600 -0.1266  3.1510 -2.8355
  255MOL0     H35140   2.830  -0.206   8.783 -3.1205 -0.4765  0.2569
  255MOL0     H35141   2.822  -0.066   8.663  0.4495 -0.1943 -0.7390
  255MOL0     H35142   3.034  -0.285   8.674  4.9833 -0.0718 -2.7512
  255MOL0     H35143   3.026  -0.160   8.545  0.4985  2.1256  0.9462
  255MOL0     H35144   3.021   0.019   8.699  2.2031  1.7004  0.2393
  255MOL0     H35145   3.035  -0.072   8.843 -1.2908 -2.6042  0.0020
  255MOL0     H35146   3.227   0.024   8.658  0.5574  0.7903 -0.9705
  255MOL0     H35147   3.252  -0.028   8.828 -4.8864 -0.9080  2.1916
  255MOL0     H35148   3.423  -0.403   8.657  0.4346 -2.0257  0.9061
  255MOL0     H35149   3.418  -0.704   8.827 -1.5173  0.2653  0.7714
  255MOL0     H35150   3.581  -0.613   8.837  0.5529  1.9696 -1.4757
  255MOL0     H35151   3.479  -0.601   8.692  1.4017  0.7039  0.6871
  255MOL0     H35152   3.611  -0.626   9.268 -4.6181 -0.1340 -3.6378
  255MOL0     H35153   3.701  -0.700   9.497  1.7801  0.6312 -1.7015
  255MOL0     H35154   3.732  -0.772   9.709 -1.6016  0.2710 -4.7667
  255MOL0     H35155   3.676  -0.601   9.754  0.6111 -0.6256 -0.5212
  255MOL0     H35156   3.629  -0.634   9.963  2.0333  0.8924 -0.0895
  255MOL0     H35157   3.610  -0.806   9.945  0.5956  0.8707  0.0396
  255MOL0     H35158   3.873  -0.804   9.899 -0.3581 -2.5021  1.5232
  255MOL0     H35159   3.840  -0.769  10.058  1.0059 -0.0157  0.6738
  255MOL0     H35160   3.840  -0.524  10.016  1.5190  2.6455 -0.9870
  255MOL0     H35161   3.893  -0.564   9.851  1.0382 -2.5730 -1.2485
  255MOL0     H35162   4.091  -0.506  10.028  3.3721 -1.4968 -1.0252
  255MOL0     H35163   4.032  -0.640  10.117 -0.9738 -1.7160 -1.0837
  255MOL0     H35164   4.171  -0.663   9.846  3.2027 -0.7598  0.8700
  255MOL0     H35165   4.077  -0.787   9.937  0.4052  1.0646  0.8239
  255MOL0     H35166   4.224  -0.810  10.106  2.6558 -3.3490 -2.6784
  255MOL0     H35167   4.281  -0.645  10.098  2.0497  0.2588 -0.1594
  255MOL0     H35168   4.400  -0.744   9.867 -2.2525 -2.2955 -0.9816
  255MOL0     H35169   4.352  -0.898   9.921 -0.8880  0.7169 -2.3804
  255MOL0     H35170   3.300  -0.696   9.649  0.2907  3.6945 -0.3765
  255MOL0     H35171   3.223  -0.618   9.422  0.1085 -0.6975  3.3619
  255MOL0     H35172   3.266  -0.338   9.125  2.0933  1.8658  0.7534
  255MOL0     H35173   3.223  -0.169   8.968  2.0635  2.5719 -0.5628
  255MOL0     H35174   1.796  -0.019   8.885  1.6358  1.3146 -0.4416
  255MOL0     H35175   1.641  -0.105   9.064  0.6712 -1.1974 -0.6417
  255MOL0     H35176   1.509   0.114   9.589  0.9181 -0.8469 -1.9350
  255MOL0     H35177   1.369   0.039   9.810 -0.1431 -1.8477  0.3081
  255MOL0     H35178   1.230  -0.046   9.947  0.7614 -0.0463  0.7606
  255MOL0     H35179   1.204  -0.195  10.042  0.6972 -1.5363 -0.1259
  255MOL0     H35180   1.364  -0.044  10.132 -1.2748  2.8203 -3.3033
  255MOL0     H35181   1.465  -0.082   9.997  0.3084  0.5063 -0.4213
  255MOL0     H35182   1.522  -0.302  10.066 -1.4422 -2.5202  0.3441
  255MOL0     H35183   1.513  -0.202  10.201  0.2324  0.1220 -0.0329
  255MOL0     H35184   1.419  -0.446  10.229  2.1302  0.7785  0.2524
  255MOL0     H35185   1.297  -0.387  10.113  1.2237  1.7572 -1.3184
  255MOL0     H35186   1.224  -0.188  10.494  0.7770  3.2382  0.0817
  255MOL0     H35187   1.394  -0.363   9.650 -3.1655  0.5779 -3.4987
  255MOL0     H35188   1.525  -0.295   9.348 -0.7696  1.1246  1.6004
  255MOL0     H35189   1.643  -0.351   9.462  0.3330  0.3389 -1.6532
  255MOL0     H35190   1.472  -0.410   9.472  0.7774 -0.2078  2.5930
  256MOL0     O35191   4.151   3.047   6.866  0.1371  0.3314 -0.4015
  256MOL0     C35192   4.064   2.963   6.891 -0.5198  1.3652 -0.9765
  256MOL0     O35193   3.932   2.990   6.923  0.2475  0.3039 -0.5442
  256MOL0     C35194   3.899   3.117   6.977  0.0347 -0.4248 -0.1223
  256MOL0     C35195   3.987   3.210   7.041 -0.8681  0.7163 -0.8959
  256MOL0     C35196   3.933   3.327   7.096  0.6025 -0.6751  1.2137
  256MOL0     C35197   3.792   3.356   7.073  0.7670 -0.0563 -0.6216
  256MOL0     O35198   3.747   3.471   7.137  0.2310 -0.7927 -0.0357
  256MOL0     C35199   3.604   3.496   7.136 -0.5353 -0.1884  0.4000
  256MOL0     C35200   3.573   3.621   7.218  0.6330  0.4678  0.1038
  256MOL0     C35201   3.416   3.629   7.233  0.2148 -0.2472 -0.6959
  256MOL0     C35202   3.340   3.690   7.101 -0.5821  0.0487 -0.0687
  256MOL0     C35203   3.186   3.712   7.114 -0.4471  0.2268  1.0551
  256MOL0     C35204   3.113   3.606   7.201  0.1827 -0.4429 -0.3203
  256MOL0     C35205   3.125   3.458   7.147 -0.9818 -0.9635 -0.0755
  256MOL0     C35206   3.036   3.360   7.220 -0.1913  0.2329 -0.8563
  256MOL0     N35207   3.044   3.367   7.367  0.2525 -0.4648  1.4434
  256MOL0     C35208   3.126   3.317   7.460  0.7845 -0.1206  0.5244
  256MOL0     C35209   3.093   3.379   7.586  0.0507 -0.7820  0.7398
  256MOL0     C35210   3.162   3.370   7.725  0.6463 -0.2630  0.0115
  256MOL0     C35211   3.111   3.266   7.815 -0.4736 -0.1719 -0.3030
  256MOL0     C35212   3.160   3.276   7.965 -0.9854 -0.3018  0.8139
  256MOL0     C35213   3.182   3.130   8.021  0.3946  0.0304  0.9118
  256MOL0     O35214   3.257   3.135   8.140 -0.5704  0.0506  0.2162
  256MOL0     C35215   3.212   3.195   8.255  1.6017 -0.0766 -0.0530
  256MOL0     C35216   3.292   3.241   8.356 -0.9213  0.5277 -1.1333
  256MOL0     C35217   3.243   3.301   8.471 -0.1518  0.8895  0.5157
  256MOL0     C35218   3.341   3.359   8.567  0.8025 -0.6116  0.7674
  256MOL0     C35219   3.103   3.312   8.496 -0.6079 -0.0856  0.1521
  256MOL0     C35220   3.044   3.375   8.622  0.1636  0.8142  0.6355
  256MOL0     O35221   3.093   3.321   8.735 -0.0580 -0.1899  0.5015
  256MOL0     C35222   3.076   3.378   8.854  0.2674  0.5775  0.7320
  256MOL0     C35223   3.046   3.515   8.882  0.2917  0.3825  0.0961
  256MOL0     C35224   3.032   3.563   9.015  0.6202  0.2082 -0.1587
  256MOL0     C35225   3.052   3.470   9.122  0.5983 -0.4591 -0.5768
  256MOL0     O35226   3.063   3.528   9.242 -0.7988 -0.0027 -0.2584
  256MOL0     C35227   3.094   3.448   9.351  0.5105  0.0532  0.6603
  256MOL0     C35228   3.126   3.532   9.478  0.2155 -0.0286  0.5976
  256MOL0     C35229   3.256   3.608   9.473 -0.3445  0.1601  0.1411
  256MOL0     C35230   3.254   3.736   9.382  0.6660 -0.2928 -0.1506
  256MOL0     C35231   3.393   3.809   9.356  0.1193  0.4518 -0.8543
  256MOL0     C35232   3.341   3.943   9.285  0.7733  0.6682  0.1826
  256MOL0     C35233   3.464   4.014   9.233 -0.0852 -0.1753  0.0092
  256MOL0     C35234   3.433   4.154   9.171  0.2418 -0.0822  0.0238
  256MOL0    Cl35235   3.354   4.119   9.009  0.0133 -0.3600  0.4375
  256MOL0     C35236   3.075   3.341   9.093 -0.4616  0.6677  0.4658
  256MOL0     C35237   3.090   3.290   8.958  0.5393 -0.6148 -1.2782
  256MOL0     O35238   2.950   3.450   8.609 -0.0787  0.1390 -0.8907
  256MOL0     C35239   3.018   3.265   8.393  1.0615  0.8970  0.0293
  256MOL0     C35240   3.070   3.209   8.276 -0.7618 -0.6994 -0.1130
  256MOL0     N35241   2.981   3.457   7.558 -0.4830  0.0018 -0.0090
  256MOL0     N35242   2.948   3.435   7.429  0.6665 -0.7594 -0.9908
  256MOL0     C35243   3.710   3.261   7.012  0.7567  0.7445 -0.4224
  256MOL0     C35244   3.760   3.143   6.957 -0.4381 -0.5170 -0.5062
  256MOL0     C35245   4.106   2.819   6.886 -0.8483 -0.4393 -0.7836
  256MOL0     C35246   4.006   2.716   6.881  0.0717  0.0399 -0.1978
  256MOL0     C35247   4.040   2.585   6.844 -0.5854 -0.2067 -0.4178
  256MOL0     C35248   4.168   2.548   6.821 -0.7393 -0.0677  0.3320
  256MOL0     O35249   4.187   2.418   6.788  0.4888 -0.1414 -0.0166
  256MOL0     C35250   4.286   2.373   6.696  0.7695  0.9494 -1.0625
  256MOL0     C35251   4.234   2.285   6.582  0.2806 -0.0606  0.2727
  256MOL0     C35252   4.209   2.141   6.622  0.2954  0.2656 -0.3692
  256MOL0     C35253   4.141   2.050   6.511 -1.1002 -0.6324  0.2306
  256MOL0     C35254   4.123   1.905   6.557 -0.5783 -0.3941  0.0518
  256MOL0     C35255   4.111   1.789   6.592  0.3402 -0.3734 -0.1135
  256MOL0     C35256   4.269   2.638   6.830 -0.2848  0.3353  0.3819
  256MOL0     C35257   4.243   2.768   6.851  0.3159  0.0990 -0.4634
  256MOL0     C35258   4.353   2.868   6.845  0.2751  0.6908 -0.0010
  256MOL0     H35259   4.088   3.173   7.050 -1.4075 -0.6798 -0.2753
  256MOL0     H35260   3.991   3.403   7.147  0.3513  1.3128 -1.2680
  256MOL0     H35261   3.549   3.414   7.183 -0.2300  0.4393  1.9336
  256MOL0     H35262   3.561   3.517   7.038  1.5674  2.3573 -0.0921
  256MOL0     H35263   3.607   3.597   7.319 -1.4161  2.0682  1.2406
  256MOL0     H35264   3.610   3.718   7.183 -2.4830  0.5380 -3.7715
  256MOL0     H35265   3.369   3.541   7.278 -0.4893  0.5382  0.1341
  256MOL0     H35266   3.392   3.712   7.299 -2.2638  0.8068 -2.7445
  256MOL0     H35267   3.396   3.783   7.087 -1.1398  0.7477  1.9994
  256MOL0     H35268   3.351   3.624   7.015  4.2740 -0.4934  0.7029
  256MOL0     H35269   3.137   3.698   7.018  1.4779 -2.0361  0.3060
  256MOL0     H35270   3.169   3.813   7.152 -1.2631 -0.0913  1.5822
  256MOL0     H35271   3.162   3.608   7.298  5.5463 -2.7886 -2.6112
  256MOL0     H35272   3.004   3.622   7.205  0.0651 -1.2770  3.3757
  256MOL0     H35273   3.229   3.423   7.149 -2.0612 -4.6470  1.4592
  256MOL0     H35274   3.097   3.468   7.042  1.2324  3.5504 -0.4760
  256MOL0     H35275   2.938   3.389   7.182 -0.5688  1.2578  0.8275
  256MOL0     H35276   3.049   3.257   7.186  0.2065 -0.3609  0.9932
  256MOL0     H35277   3.199   3.240   7.436 -1.3789 -1.7943 -1.1509
  256MOL0     H35278   3.151   3.463   7.782 -2.8143  1.4678 -3.0948
  256MOL0     H35279   3.268   3.348   7.712  1.4330  0.3153  3.9773
  256MOL0     H35280   3.002   3.258   7.817 -0.4545 -0.3901  0.1265
  256MOL0     H35281   3.137   3.172   7.766 -1.7282  0.2451 -1.8532
  256MOL0     H35282   3.256   3.329   7.975 -1.9929  1.6959  0.4444
  256MOL0     H35283   3.090   3.337   8.022 -1.9754  0.1158 -0.7832
  256MOL0     H35284   3.087   3.079   8.041  0.7109 -1.0608 -0.2558
  256MOL0     H35285   3.236   3.066   7.950  2.3676 -0.4388  2.7253
  256MOL0     H35286   3.396   3.223   8.333 -0.5280 -3.8217  2.6663
  256MOL0     H35287   3.349   3.298   8.658  0.2834  0.5318  1.6006
  256MOL0     H35288   3.319   3.464   8.584 -0.3603 -0.2352 -2.3797
  256MOL0     H35289   3.440   3.359   8.520  0.5517  1.0767  0.1619
  256MOL0     H35290   3.019   3.590   8.808  3.0591  1.9864  0.5760
  256MOL0     H35291   3.010   3.668   9.034  3.5434  0.5798  1.9427
  256MOL0     H35292   2.997   3.398   9.363 -0.4272  1.9322  1.4909
  256MOL0     H35293   3.175   3.375   9.348  0.1076 -0.5790  2.8078
  256MOL0     H35294   3.040   3.598   9.491 -1.0026 -1.2109 -1.0196
  256MOL0     H35295   3.119   3.472   9.569  0.2867  0.7513  1.1278
  256MOL0     H35296   3.335   3.551   9.424  0.4941  1.6087 -0.2615
  256MOL0     H35297   3.306   3.629   9.568  2.4202 -4.2579 -0.0631
  256MOL0     H35298   3.207   3.810   9.446 -4.1542 -2.2989 -0.9249
  256MOL0     H35299   3.212   3.733   9.281  3.0883 -0.6641 -1.2367
  256MOL0     H35300   3.450   3.823   9.448  0.2012  0.8453 -0.9657
  256MOL0     H35301   3.455   3.752   9.286 -1.7699 -2.7319 -0.1595
  256MOL0     H35302   3.290   4.012   9.353 -0.6365 -0.0258 -0.1360
  256MOL0     H35303   3.271   3.919   9.204  1.8158 -0.4328 -0.4219
  256MOL0     H35304   3.511   3.952   9.156 -0.9398 -3.2788  1.7928
  256MOL0     H35305   3.531   4.033   9.318 -0.7348  1.6524  0.1652
  256MOL0     H35306   3.521   4.217   9.159 -0.3771  0.9144  0.5674
  256MOL0     H35307   3.366   4.211   9.237  0.0196 -2.2549  1.7870
  256MOL0     H35308   3.073   3.257   9.162  0.3990 -0.6531 -1.0260
  256MOL0     H35309   3.115   3.188   8.931  1.9783 -1.0849  1.4341
  256MOL0     H35310   2.911   3.279   8.386  0.2774 -2.9398  1.8176
  256MOL0     H35311   2.991   3.174   8.211 -0.5169 -1.0618 -0.2148
  256MOL0     H35312   3.604   3.283   7.005 -0.4649 -2.5596  3.6308
  256MOL0     H35313   3.692   3.086   6.894 -0.9040  1.5632 -1.9925
  256MOL0     H35314   3.898   2.732   6.876 -0.2581 -0.7905  2.6954
  256MOL0     H35315   3.975   2.498   6.843  2.2439 -2.5331 -2.6079
  256MOL0     H35316   4.338   2.458   6.651  2.0593  0.2422 -0.9454
  256MOL0     H35317   4.362   2.310   6.744 -1.5526 -0.1492  1.4717
  256MOL0     H35318   4.303   2.286   6.497  0.8046  3.1859  0.5813
  256MOL0     H35319   4.133   2.315   6.552 -0.8235 -1.7296  2.1112
  256MOL0     H35320   4.303   2.095   6.656  0.1485  0.1397 -0.1306
  256MOL0     H35321   4.150   2.136   6.714  3.1682 -0.7559  1.5449
  256MOL0     H35322   4.210   2.042   6.427 -2.3943 -4.2274 -0.6730
  256MOL0     H35323   4.049   2.096   6.473 -1.8444 -0.9266  1.5857
  256MOL0     H35324   4.093   1.686   6.614 -1.0676 -0.7381 -2.5673
  256MOL0     H35325   4.369   2.601   6.806 -1.6569 -2.8324 -1.0739
  256MOL0     H35326   4.367   2.945   6.921 -0.5882  0.4346  0.4244
  256MOL0     H35327   4.442   2.811   6.876  2.4264  4.2663  0.9729
  256MOL0     H35328   4.348   2.918   6.748  2.2918  1.6011  0.3085
  257MOL0     O35329   1.794   3.472  10.586 -1.3402  0.1374 -0.4427
  257MOL0     C35330   1.703   3.496  10.505 -0.5891  0.4347  0.4698
  257MOL0     O35331   1.591   3.425  10.493  0.0306  0.0513 -0.2435
  257MOL0     C35332   1.558   3.311  10.554  0.0122  0.2634  0.5968
  257MOL0     C35333   1.615   3.247  10.667  0.0632  0.0167  0.4974
  257MOL0     C35334   1.549   3.133  10.721 -0.7539 -0.4226 -0.1306
  257MOL0     C35335   1.426   3.105  10.673  0.4064  0.7228  0.3420
  257MOL0     O35336   1.345   3.000  10.711 -0.7733  0.9314  0.0941
  257MOL0     C35337   1.411   2.876  10.754  0.5740  0.2494  0.2500
  257MOL0     C35338   1.338   2.737  10.720  0.3036  0.6226  0.8334
  257MOL0     C35339   1.400   2.671  10.600  0.1097 -0.7833  0.5323
  257MOL0     C35340   1.533   2.604  10.633  0.5341  0.4293  0.0291
  257MOL0     C35341   1.646   2.666  10.551  0.1085 -0.4249 -0.1312
  257MOL0     C35342   1.781   2.655  10.625 -0.2853 -0.3923  0.6796
  257MOL0     C35343   1.886   2.745  10.576 -0.1536 -0.3691 -0.3638
  257MOL0     C35344   1.875   2.895  10.629  0.8622  0.8030  0.1352
  257MOL0     N35345   1.980   2.983  10.577  0.0037 -0.2267 -0.1966
  257MOL0     C35346   2.108   2.943  10.539  0.1714 -0.0292  0.8070
  257MOL0     C35347   2.169   3.057  10.491  1.1868 -0.4339 -0.5575
  257MOL0     C35348   2.319   3.055  10.463  0.4429  0.3303  0.3912
  257MOL0     C35349   2.396   3.057  10.598 -0.3897 -1.3123 -0.8071
  257MOL0     C35350   2.425   3.205  10.645 -1.0904  0.7357  0.3613
  257MOL0     C35351   2.470   3.198  10.786  0.1940 -0.0749  0.4558
  257MOL0     O35352   2.620   3.163  10.790  0.2664 -0.5446 -0.2079
  257MOL0     C35353   2.651   3.170  10.922 -0.4628  0.4295 -1.0085
  257MOL0     C35354   2.593   3.115  11.034  1.4135  0.9285  0.1681
  257MOL0     C35355   2.633   3.136  11.171  0.2543  0.1594 -0.9009
  257MOL0     C35356   2.560   3.057  11.289  0.4046 -0.5929 -0.3371
  257MOL0     C35357   2.744   3.220  11.191 -0.2014 -0.3922  0.0436
  257MOL0     C35358   2.810   3.241  11.327 -0.3976  0.3011 -0.1693
  257MOL0     O35359   2.942   3.288  11.329  0.4703 -0.0087 -1.1825
  257MOL0     C35360   3.014   3.298  11.442 -0.0280 -0.4894 -0.1647
  257MOL0     C35361   3.122   3.211  11.463 -0.5394  0.7604  0.0117
  257MOL0     C35362   3.198   3.218  11.577 -1.1634  0.6733 -0.6957
  257MOL0     C35363   3.168   3.301  11.683 -0.2008 -0.5508  0.4978
  257MOL0     O35364   3.247   3.293  11.788 -0.6257  0.2834 -0.3114
  257MOL0     C35365   3.285   3.421  11.842 -0.1577 -0.6040 -0.0309
  257MOL0     C35366   3.406   3.405  11.932 -0.2302  0.8890 -1.3338
  257MOL0     C35367   3.477   3.538  11.953 -0.4308 -0.0756 -0.0290
  257MOL0     C35368   3.604   3.521  12.035 -0.4383 -0.1911  1.0544
  257MOL0     C35369   3.671   3.660  12.069 -0.4919 -0.0508 -0.7343
  257MOL0     C35370   3.810   3.631  12.132 -0.7324  0.0042 -0.0249
  257MOL0     C35371   3.819   3.543  12.257  0.0359  0.1932  0.0346
  257MOL0     C35372   3.964   3.487  12.271 -0.2546  0.6449 -0.3501
  257MOL0    Cl35373   4.013   3.386  12.415  0.1270 -0.4540 -0.1873
  257MOL0     C35374   3.059   3.387  11.664  0.4790  0.0962 -0.6976
  257MOL0     C35375   2.984   3.385  11.544 -0.3176 -0.4117 -0.4765
  257MOL0     O35376   2.747   3.221  11.433 -0.1023  0.4952  0.3410
  257MOL0     C35377   2.803   3.286  11.078 -0.7192 -0.4088 -0.6320
  257MOL0     C35378   2.761   3.255  10.950  0.6699 -0.5928  0.4894
  257MOL0     N35379   2.080   3.167  10.515  0.6262  0.2686  0.7506
  257MOL0     N35380   1.964   3.118  10.553  0.1467  0.2049 -0.1927
  257MOL0     C35381   1.364   3.174  10.561 -0.1768  0.3233 -0.5721
  257MOL0     C35382   1.429   3.282  10.509  0.4972  0.1377 -0.1560
  257MOL0     C35383   1.724   3.614  10.424 -0.1749  1.1207 -0.7850
  257MOL0     C35384   1.781   3.624  10.293 -0.2564 -0.2768  0.4016
  257MOL0     C35385   1.801   3.747  10.230  0.5255  0.8365  0.3212
  257MOL0     C35386   1.753   3.863  10.277 -0.1863 -0.4209 -0.0968
  257MOL0     O35387   1.757   3.978  10.205  0.5979  0.4044 -0.3430
  257MOL0     C35388   1.774   4.107  10.269 -0.8436 -1.1499  0.1926
  257MOL0     C35389   1.647   4.191  10.286  0.2121  0.2768 -0.3869
  257MOL0     C35390   1.629   4.283  10.170  0.3505  0.0667  0.2384
  257MOL0     C35391   1.497   4.368  10.176  0.2178 -0.0665 -0.6757
  257MOL0     C35392   1.492   4.455  10.057 -0.5754  0.7219 -0.5675
  257MOL0     C35393   1.474   4.561   9.999  0.2498 -0.2272 -0.2507
  257MOL0     C35394   1.694   3.851  10.405 -0.2961  0.1777 -0.1820
  257MOL0     C35395   1.684   3.737  10.480  0.5878 -0.4420 -0.3983
  257MOL0     C35396   1.619   3.738  10.616  0.6460  0.1592 -0.2354
  257MOL0     H35397   1.700   3.289  10.719  0.8043 -0.4039 -0.3600
  257MOL0     H35398   1.604   3.084  10.800 -0.1783 -1.1464 -0.9549
  257MOL0     H35399   1.408   2.869  10.863  3.3084 -4.9145  0.3278
  257MOL0     H35400   1.512   2.861  10.716 -0.6729  0.3502 -3.5509
  257MOL0     H35401   1.353   2.673  10.808  1.5677  1.2659  1.1011
  257MOL0     H35402   1.233   2.752  10.693  0.5560  2.3383  0.7278
  257MOL0     H35403   1.328   2.602  10.555 -0.6342 -1.2885  2.3980
  257MOL0     H35404   1.411   2.740  10.515 -0.8061 -0.6962  0.4724
  257MOL0     H35405   1.563   2.607  10.738  1.3870 -6.3646  0.4503
  257MOL0     H35406   1.520   2.498  10.610  3.0561 -0.3247  1.6441
  257MOL0     H35407   1.618   2.772  10.544 -1.4972 -0.7938  0.3330
  257MOL0     H35408   1.660   2.634  10.447  4.0792  4.0927 -1.3445
  257MOL0     H35409   1.775   2.666  10.734  1.6877 -0.1573  0.7930
  257MOL0     H35410   1.829   2.558  10.611  2.8648  1.2122 -0.5092
  257MOL0     H35411   1.881   2.747  10.467 -3.9927  0.8588 -0.3458
  257MOL0     H35412   1.985   2.708  10.604  0.5288  0.8299 -1.1420
  257MOL0     H35413   1.780   2.943  10.603  0.0920 -2.0209 -3.0379
  257MOL0     H35414   1.894   2.890  10.736 -2.7753 -2.9695  0.8442
  257MOL0     H35415   2.145   2.842  10.527 -0.3405  0.0057 -1.3642
  257MOL0     H35416   2.349   3.136  10.395  1.0302 -0.4041 -0.2467
  257MOL0     H35417   2.341   2.966  10.403  2.2176  2.7469 -2.9304
  257MOL0     H35418   2.342   3.006  10.678 -0.2042 -0.5046 -0.1569
  257MOL0     H35419   2.492   3.005  10.588 -0.7540 -1.7969 -2.0070
  257MOL0     H35420   2.511   3.233  10.584 -0.3687 -2.4068 -0.2355
  257MOL0     H35421   2.338   3.271  10.632 -0.0206  2.3274  1.0598
  257MOL0     H35422   2.443   3.298  10.819  0.0571  0.0238  0.0482
  257MOL0     H35423   2.413   3.128  10.847  0.9804  0.9757  2.4938
  257MOL0     H35424   2.530   3.031  11.004 -0.1404  2.3502 -0.7716
  257MOL0     H35425   2.501   3.130  11.347  2.3473  2.3121 -1.7654
  257MOL0     H35426   2.626   3.004  11.358  1.3165  2.5879  1.4694
  257MOL0     H35427   2.487   2.988  11.247 -1.1853  0.5585  0.4000
  257MOL0     H35428   3.151   3.134  11.392 -1.1649 -1.1374  1.7068
  257MOL0     H35429   3.284   3.152  11.587 -2.3716 -0.8484  0.0844
  257MOL0     H35430   3.308   3.496  11.766  1.7730 -1.4449 -0.3437
  257MOL0     H35431   3.196   3.446  11.901 -1.4477  0.5224 -2.3003
  257MOL0     H35432   3.385   3.371  12.034 -2.5845  4.0851 -0.5844
  257MOL0     H35433   3.472   3.326  11.896 -1.6162 -0.6531 -0.6568
  257MOL0     H35434   3.410   3.606  12.007 -1.2370  1.5402 -2.8365
  257MOL0     H35435   3.499   3.585  11.856 -0.3799  0.2071  0.1178
  257MOL0     H35436   3.678   3.474  11.971 -4.7354 -0.1857 -4.8082
  257MOL0     H35437   3.591   3.466  12.128 -0.8313 -0.7157  0.6917
  257MOL0     H35438   3.695   3.723  11.983  2.5182 -1.2475 -0.9060
  257MOL0     H35439   3.611   3.715  12.142  1.0047  1.4897 -0.6012
  257MOL0     H35440   3.877   3.715  12.151 -1.6225  0.8431 -0.4874
  257MOL0     H35441   3.858   3.579  12.049 -1.9834 -1.9706  0.4241
  257MOL0     H35442   3.748   3.461  12.245 -1.8618  1.8535 -0.6528
  257MOL0     H35443   3.814   3.586  12.358  0.0907 -1.0188  0.5740
  257MOL0     H35444   4.030   3.574  12.257 -0.8160  0.8616 -1.8451
  257MOL0     H35445   3.983   3.417  12.189  0.4574  1.7440 -1.1537
  257MOL0     H35446   3.041   3.461  11.741 -2.5209 -1.2670  0.0774
  257MOL0     H35447   2.906   3.460  11.537 -0.5218 -0.7276 -1.8632
  257MOL0     H35448   2.883   3.360  11.086 -1.5725  0.3688  1.1260
  257MOL0     H35449   2.805   3.305  10.865  0.1683  0.0834  0.6220
  257MOL0     H35450   1.260   3.155  10.539  1.0014 -4.3218 -3.3595
  257MOL0     H35451   1.372   3.349  10.444 -1.3147  1.1274  2.3120
  257MOL0     H35452   1.815   3.529  10.253  1.1022  1.4568 -2.8550
  257MOL0     H35453   1.842   3.733  10.130 -0.6585 -1.6138  0.1245
  257MOL0     H35454   1.841   4.097  10.355  0.4078 -1.1984 -0.7609
  257MOL0     H35455   1.838   4.173  10.210 -1.1698  2.4239  3.4191
  257MOL0     H35456   1.642   4.247  10.380 -1.3435 -0.8200  0.2278
  257MOL0     H35457   1.562   4.124  10.270 -2.2045  2.7256  1.2095
  257MOL0     H35458   1.714   4.351  10.174  1.2595 -1.0985  2.3520
  257MOL0     H35459   1.625   4.229  10.075 -0.4197 -0.5558  0.6032
  257MOL0     H35460   1.495   4.435  10.262 -2.8943 -1.0164  0.1161
  257MOL0     H35461   1.418   4.294  10.164  0.4490 -0.3550 -0.4287
  257MOL0     H35462   1.442   4.654   9.957 -1.8623 -1.1871 -0.9206
  257MOL0     H35463   1.652   3.941  10.449 -0.5015  0.1342 -0.2840
  257MOL0     H35464   1.647   3.658  10.685  0.0693 -1.6062 -1.9287
  257MOL0     H35465   1.660   3.828  10.662  1.9643 -0.9768  0.8971
  257MOL0     H35466   1.512   3.754  10.597  0.4993 -2.2564 -1.9165
  258MOL0     O35467  10.922   6.187   9.771 -0.7668  0.4023  0.2600
  258MOL0     C35468  10.803   6.157   9.782 -0.5785  0.3395  0.7786
  258MOL0     O35469  10.724   6.147   9.672  0.3742  0.1284 -0.0497
  258MOL0     C35470  10.785   6.105   9.551  0.3753 -0.3053  0.8655
  258MOL0     C35471  10.895   6.023   9.544 -1.5444 -0.1451 -0.1573
  258MOL0     C35472  10.939   5.967   9.425  1.2340 -0.2758  1.2827
  258MOL0     C35473  10.878   5.992   9.308 -0.1790 -0.4078 -0.1759
  258MOL0     O35474  10.923   5.921   9.201  0.8071  0.3266 -0.3199
  258MOL0     C35475  10.915   5.970   9.067  0.1970  0.7572 -0.9204
  258MOL0     C35476  10.972   5.863   8.978  1.3305 -0.3972 -0.4058
  258MOL0     C35477  11.113   5.831   9.005  0.0090 -0.7264  0.6562
  258MOL0     C35478  11.178   5.745   8.905 -0.1693 -0.3042  0.3261
  258MOL0     C35479  11.307   5.677   8.949 -0.2826 -0.9034  0.2619
  258MOL0     C35480  11.364   5.575   8.843  1.4393 -0.1847  0.0550
  258MOL0     C35481  11.492   5.521   8.899 -0.2564 -0.8381 -0.1943
  258MOL0     C35482  11.567   5.430   8.808 -0.2838 -0.5243  0.2106
  258MOL0     N35483  11.630   5.509   8.703  0.4149  0.5642  0.4173
  258MOL0     C35484  11.567   5.584   8.606  0.2801  0.3874 -0.5167
  258MOL0     C35485  11.663   5.662   8.561  1.1726 -0.0535 -0.3444
  258MOL0     C35486  11.628   5.753   8.453 -0.8858 -0.0729  0.5132
  258MOL0     C35487  11.679   5.901   8.472  0.5745  0.4640  1.0161
  258MOL0     C35488  11.617   5.997   8.362 -0.5444 -0.8007 -0.3418
  258MOL0     C35489  11.479   6.063   8.415 -0.2686  0.2385 -0.1055
  258MOL0     O35490  11.426   6.151   8.322 -0.5583  0.5265  1.3934
  258MOL0     C35491  11.300   6.207   8.358 -1.5250  0.0848  0.7575
  258MOL0     C35492  11.247   6.178   8.477  0.6133 -0.1058 -0.7581
  258MOL0     C35493  11.114   6.218   8.511 -0.3135 -0.3855 -0.2503
  258MOL0     C35494  11.071   6.158   8.650  0.8464  0.0345 -0.6266
  258MOL0     C35495  11.050   6.324   8.426 -0.5159  0.4711 -0.2356
  258MOL0     C35496  10.922   6.387   8.447  0.9956  0.4504  1.1892
  258MOL0     O35497  10.847   6.432   8.346  0.9688 -0.6384  0.3893
  258MOL0     C35498  10.722   6.474   8.379 -0.7013  0.5462  0.5731
  258MOL0     C35499  10.622   6.422   8.300  1.0812 -0.3046  0.8095
  258MOL0     C35500  10.486   6.458   8.325 -0.1107  1.2975 -0.5084
  258MOL0     C35501  10.449   6.556   8.424 -1.1972 -0.4718  0.0894
  258MOL0     O35502  10.321   6.598   8.436  0.6222 -1.1149 -0.0502
  258MOL0     C35503  10.233   6.495   8.467 -1.1396  0.1245  0.8279
  258MOL0     C35504  10.080   6.533   8.460  0.6082  0.8516  1.1767
  258MOL0     C35505  10.033   6.659   8.546  0.1487  0.0164 -0.8927
  258MOL0     C35506  10.020   6.613   8.700  0.2945  0.8321  0.9465
  258MOL0     C35507   9.929   6.710   8.779 -0.0290  0.2404  0.6206
  258MOL0     C35508   9.880   6.629   8.910 -0.2108 -0.0296 -0.7130
  258MOL0     C35509   9.979   6.628   9.021 -0.1453  1.6264 -0.2734
  258MOL0     C35510   9.924   6.637   9.160  0.0137 -0.2242 -0.0075
  258MOL0    Cl35511  10.057   6.674   9.274 -0.4375  0.1143 -0.0533
  258MOL0     C35512  10.553   6.617   8.498  1.2104  1.0491  0.6117
  258MOL0     C35513  10.689   6.564   8.478  0.1887  0.5381 -0.1186
  258MOL0     O35514  10.893   6.388   8.564 -0.8039  0.4653  0.0820
  258MOL0     C35515  11.115   6.352   8.303  0.3235  0.2828 -0.0007
  258MOL0     C35516  11.244   6.301   8.273  0.3024 -0.5979  0.4455
  258MOL0     N35517  11.778   5.632   8.631  0.0194 -0.9505  0.1148
  258MOL0     N35518  11.762   5.546   8.715  1.0360  0.4709  0.2019
  258MOL0     C35519  10.770   6.079   9.309  0.4780  0.2244  0.5974
  258MOL0     C35520  10.720   6.142   9.424  0.7713  0.1439  0.0382
  258MOL0     C35521  10.734   6.126   9.918 -0.8011  0.0170  0.8558
  258MOL0     C35522  10.632   6.036   9.915  0.3008  0.6598  0.4444
  258MOL0     C35523  10.558   5.998  10.020 -0.0633 -0.3532  0.7622
  258MOL0     C35524  10.594   6.058  10.151 -0.0914  0.1757  0.8072
  258MOL0     O35525  10.520   5.999  10.254  0.2232 -0.4041  0.7919
  258MOL0     C35526  10.549   6.050  10.393 -0.5185 -0.1373  0.8485
  258MOL0     C35527  10.661   5.951  10.437 -1.4050  0.2361  0.0093
  258MOL0     C35528  10.624   5.801  10.455  0.2212  0.3141 -1.1366
  258MOL0     C35529  10.531   5.778  10.581  0.8304  0.8886  0.5739
  258MOL0     C35530  10.458   5.647  10.567  0.3347 -0.1037 -0.8281
  258MOL0     C35531  10.388   5.552  10.538 -0.2844  0.4351  0.8874
  258MOL0     C35532  10.707   6.152  10.151 -1.0346 -0.0908 -0.5715
  258MOL0     C35533  10.767   6.185  10.029 -0.4980  0.3162 -0.1351
  258MOL0     C35534  10.876   6.294  10.038 -0.9858 -1.2483  0.5387
  258MOL0     H35535  10.933   5.983   9.637  0.7639  1.6955 -0.2000
  258MOL0     H35536  11.019   5.894   9.430  0.3426 -1.9185 -3.4172
  258MOL0     H35537  10.961   6.069   9.066 -4.1324  3.1520  2.0106
  258MOL0     H35538  10.812   5.971   9.029  0.4943  1.6611 -1.7447
  258MOL0     H35539  10.921   5.767   8.985  2.1129 -1.0816 -3.1683
  258MOL0     H35540  10.946   5.899   8.878 -0.2671  0.3042  0.2325
  258MOL0     H35541  11.169   5.925   9.009  1.3581 -1.4321 -0.6717
  258MOL0     H35542  11.124   5.783   9.103 -2.1791 -0.9032  0.8755
  258MOL0     H35543  11.109   5.663   8.887  0.9532 -1.2760  0.3221
  258MOL0     H35544  11.210   5.788   8.809 -3.3680 -1.7126 -1.5498
  258MOL0     H35545  11.283   5.628   9.044  0.0805  3.7407  3.0221
  258MOL0     H35546  11.387   5.747   8.975 -0.5897 -1.2982  2.4776
  258MOL0     H35547  11.304   5.486   8.818  3.6729 -2.3789  1.9497
  258MOL0     H35548  11.370   5.639   8.755 -1.3260  0.4230  0.2336
  258MOL0     H35549  11.466   5.463   8.988  3.3228 -1.0553  0.8570
  258MOL0     H35550  11.555   5.605   8.930 -0.4250  0.7700 -3.7739
  258MOL0     H35551  11.635   5.376   8.875  1.5055  0.8573 -0.3964
  258MOL0     H35552  11.502   5.358   8.758  2.6617 -2.1717 -1.5426
  258MOL0     H35553  11.463   5.571   8.582 -0.3994 -1.4481  2.7403
  258MOL0     H35554  11.519   5.752   8.448 -0.8568 -1.0343 -0.1134
  258MOL0     H35555  11.677   5.712   8.365  3.6118 -0.1928  2.7758
  258MOL0     H35556  11.653   5.939   8.571  0.2758  0.4834  0.9312
  258MOL0     H35557  11.788   5.901   8.460  0.4677  0.9713 -0.0116
  258MOL0     H35558  11.686   6.081   8.351  0.7856 -1.6014  1.4783
  258MOL0     H35559  11.600   5.959   8.260 -3.0045  2.7514 -1.4653
  258MOL0     H35560  11.410   5.979   8.430 -0.6475  0.6065  0.2045
  258MOL0     H35561  11.502   6.113   8.509  3.1848 -0.3239 -0.4921
  258MOL0     H35562  11.294   6.118   8.555  0.2640  1.9799  1.1516
  258MOL0     H35563  11.031   6.058   8.632 -2.0906  1.1232 -0.7259
  258MOL0     H35564  10.993   6.217   8.700  2.0041 -0.8984  2.5218
  258MOL0     H35565  11.159   6.161   8.715  0.6835  2.7256 -0.4000
  258MOL0     H35566  10.650   6.344   8.229 -1.5396 -1.4446  0.9248
  258MOL0     H35567  10.401   6.427   8.265 -3.1078  0.3607  3.7343
  258MOL0     H35568  10.237   6.409   8.399 -2.0002  0.4548  0.3346
  258MOL0     H35569  10.250   6.467   8.571  0.2931 -0.2703  0.5086
  258MOL0     H35570  10.046   6.545   8.357 -0.7120 -0.1332  1.4814
  258MOL0     H35571  10.037   6.446   8.509  3.6051 -0.9295  0.8876
  258MOL0     H35572   9.937   6.697   8.510  0.8332  0.7513 -2.0014
  258MOL0     H35573  10.093   6.750   8.545 -0.2421  0.3029  0.2825
  258MOL0     H35574  10.118   6.604   8.748  0.6887  4.2716  1.0053
  258MOL0     H35575   9.972   6.515   8.700 -2.8211  2.2494 -0.2374
  258MOL0     H35576   9.978   6.804   8.807  0.0611  0.1808  0.6602
  258MOL0     H35577   9.846   6.742   8.716 -0.0126  0.8537  0.8983
  258MOL0     H35578   9.871   6.523   8.886 -2.2229  0.1107 -0.7902
  258MOL0     H35579   9.789   6.673   8.954  1.1007 -0.1299  2.3868
  258MOL0     H35580  10.052   6.709   9.013  0.5127  1.0273 -0.4063
  258MOL0     H35581  10.049   6.545   9.013 -1.1543  0.7709 -0.4268
  258MOL0     H35582   9.864   6.549   9.185 -0.6951  0.5610  1.1431
  258MOL0     H35583   9.860   6.725   9.155  3.7196  2.7973  0.4606
  258MOL0     H35584  10.534   6.688   8.578 -1.1121  0.4139  0.7058
  258MOL0     H35585  10.767   6.608   8.539 -1.4245  2.2539  0.8232
  258MOL0     H35586  11.072   6.421   8.232 -3.1660 -0.4254  1.2332
  258MOL0     H35587  11.292   6.325   8.178 -2.2166  0.3382 -0.6810
  258MOL0     H35588  10.701   6.108   9.230 -1.1921  0.1315  1.9400
  258MOL0     H35589  10.627   6.198   9.428 -0.5822 -2.0546  1.2049
  258MOL0     H35590  10.633   5.989   9.817  0.3118 -0.2527  0.8688
  258MOL0     H35591  10.470   5.935  10.011 -0.3403 -0.0350  1.1914
  258MOL0     H35592  10.586   6.153  10.395 -0.5569 -0.1056  3.1623
  258MOL0     H35593  10.459   6.041  10.455 -1.9412 -1.8876 -1.3292
  258MOL0     H35594  10.709   6.000  10.523 -1.7081  1.6453 -0.6002
  258MOL0     H35595  10.745   5.960  10.368  1.1250 -0.2534  2.7865
  258MOL0     H35596  10.578   5.751  10.369 -0.1973 -2.0984  0.3884
  258MOL0     H35597  10.713   5.739  10.470 -0.8701 -1.4559 -1.7302
  258MOL0     H35598  10.446   5.847  10.589  0.4381  0.3711  0.9898
  258MOL0     H35599  10.591   5.780  10.672  1.1508 -2.3386  0.5580
  258MOL0     H35600  10.331   5.465  10.512  2.9075 -1.2276 -1.0871
  258MOL0     H35601  10.744   6.183  10.249 -2.3336 -2.3631  0.7452
  258MOL0     H35602  10.972   6.250  10.066 -0.7852  0.7216  3.4062
  258MOL0     H35603  10.890   6.342   9.941  0.7661 -0.8126  0.9710
  258MOL0     H35604  10.841   6.374  10.103 -1.4496  0.8801 -2.1648
  259MOL0     O35605   4.339   7.134  11.416  0.0125  0.4907  0.4040
  259MOL0     C35606   4.259   7.164  11.328  0.1004  0.1630  1.3868
  259MOL0     O35607   4.137   7.227  11.349  0.1712  0.1342  0.1789
  259MOL0     C35608   4.094   7.272  11.471 -1.1159 -1.0080  1.7398
  259MOL0     C35609   4.039   7.400  11.481  0.4199  0.9610  1.4137
  259MOL0     C35610   3.986   7.447  11.604 -1.0957 -0.1339 -0.9917
  259MOL0     C35611   3.987   7.374  11.722 -0.3032  1.2801 -0.1651
  259MOL0     O35612   3.939   7.422  11.836  0.7012 -0.6105  0.4129
  259MOL0     C35613   4.003   7.381  11.960 -0.3678  0.1696  0.4369
  259MOL0     C35614   3.909   7.381  12.090 -1.1111 -0.5227 -0.3412
  259MOL0     C35615   3.845   7.520  12.105  0.4915  0.1302  0.3067
  259MOL0     C35616   3.787   7.538  12.240  0.4076  0.3280 -0.1716
  259MOL0     C35617   3.706   7.668  12.237  0.5304 -0.3536 -1.1204
  259MOL0     C35618   3.680   7.735  12.378  0.1563 -0.1447 -0.4627
  259MOL0     C35619   3.581   7.844  12.357 -0.0004  0.0861  0.0358
  259MOL0     C35620   3.583   7.930  12.481  0.2307  0.6538  0.2568
  259MOL0     N35621   3.457   8.006  12.495  0.1042  0.1358 -0.4114
  259MOL0     C35622   3.335   7.950  12.535  0.6118 -0.5645 -0.0648
  259MOL0     C35623   3.236   8.040  12.519 -0.5345 -0.1878 -0.0695
  259MOL0     C35624   3.083   8.028  12.545 -0.6422 -0.2344  0.1979
  259MOL0     C35625   3.059   8.003  12.691 -0.6081 -0.3592 -0.3746
  259MOL0     C35626   2.953   7.896  12.711  0.0474 -0.1025  0.2390
  259MOL0     C35627   2.912   7.886  12.852 -0.2155  0.4261  0.7667
  259MOL0     O35628   2.836   8.006  12.877  0.2039 -0.2345  0.4422
  259MOL0     C35629   2.781   8.031  12.999  1.1925  0.2550 -0.9196
  259MOL0     C35630   2.740   8.161  13.037 -0.4381  0.0010  0.0412
  259MOL0     C35631   2.665   8.190  13.147 -0.2393 -0.4911  0.0030
  259MOL0     C35632   2.648   8.336  13.192  0.8498  0.3651 -0.4117
  259MOL0     C35633   2.642   8.088  13.242 -0.8445 -0.2726 -0.5791
  259MOL0     C35634   2.590   8.109  13.378  0.0724  0.5819 -0.8298
  259MOL0     O35635   2.459   8.072  13.405 -0.0531 -0.1478 -0.9224
  259MOL0     C35636   2.418   8.036  13.534  0.3119 -0.7450  0.1654
  259MOL0     C35637   2.486   8.002  13.651  0.2845 -0.1739  0.5517
  259MOL0     C35638   2.416   7.974  13.764 -0.0014  0.8249 -0.2906
  259MOL0     C35639   2.276   7.981  13.770  0.6461  0.6848  0.7501
  259MOL0     O35640   2.213   7.942  13.887 -0.0055  0.1341 -0.3265
  259MOL0     C35641   2.268   7.971  14.025 -0.3077  0.3089  0.0581
  259MOL0     C35642   2.290   8.115  14.051 -1.5895  0.3752  0.3771
  259MOL0     C35643   2.173   8.205  14.005  0.0645  1.1513 -0.2398
  259MOL0     C35644   2.222   8.347  13.985  0.2775 -0.3863  0.2994
  259MOL0     C35645   2.113   8.417  13.905 -0.8848  0.5753  0.0183
  259MOL0     C35646   2.156   8.543  13.852 -0.1737 -0.7492  0.6220
  259MOL0     C35647   2.053   8.626  13.767 -0.2401  0.1779  0.5106
  259MOL0     C35648   2.110   8.746  13.679  0.3449 -0.1151 -2.2183
  259MOL0    Cl35649   2.242   8.664  13.584 -0.4499  0.6285  0.5709
  259MOL0     C35650   2.210   8.019  13.659  0.2840  0.3619 -0.2524
  259MOL0     C35651   2.278   8.054  13.546 -1.0968 -1.0609  0.1308
  259MOL0     O35652   2.674   8.153  13.460  0.0402 -0.6117  0.3456
  259MOL0     C35653   2.669   7.955  13.203 -0.8135  0.3032  0.8673
  259MOL0     C35654   2.749   7.930  13.081  1.0308  0.0017 -1.6022
  259MOL0     N35655   3.306   8.151  12.480 -0.0247 -0.2332  0.8166
  259MOL0     N35656   3.434   8.129  12.460  0.3023  0.1666  0.6157
  259MOL0     C35657   4.039   7.238  11.698  0.2464 -1.7755  0.3280
  259MOL0     C35658   4.098   7.191  11.576  0.5778  0.5496 -0.5705
  259MOL0     C35659   4.288   7.099  11.196 -0.0123 -0.4430  0.0123
  259MOL0     C35660   4.186   7.024  11.140 -0.3823 -0.3038 -0.2928
  259MOL0     C35661   4.203   6.958  11.021  0.1738  0.7669 -0.3030
  259MOL0     C35662   4.323   6.955  10.958  0.1997 -1.0922 -0.7744
  259MOL0     O35663   4.339   6.883  10.842 -0.5437  0.6297  0.0201
  259MOL0     C35664   4.364   6.745  10.861  0.8590  0.2027 -0.0412
  259MOL0     C35665   4.508   6.710  10.893  0.3377  0.6654 -0.6019
  259MOL0     C35666   4.520   6.550  10.882 -0.6165 -0.9254 -0.4222
  259MOL0     C35667   4.660   6.521  10.894  0.3457 -0.1192  0.2987
  259MOL0     C35668   4.699   6.389  10.897  0.0263  0.9137 -0.1488
  259MOL0     C35669   4.721   6.271  10.916 -0.1398  0.4709 -0.2198
  259MOL0     C35670   4.423   7.041  11.008 -1.0288 -0.6476 -0.4893
  259MOL0     C35671   4.406   7.113  11.126 -0.4491  0.3740  0.2381
  259MOL0     C35672   4.513   7.200  11.167 -0.1170  0.1333 -0.5019
  259MOL0     H35673   4.050   7.479  11.407 -0.7137 -0.3094 -0.1809
  259MOL0     H35674   3.945   7.546  11.613 -2.2187 -0.6391 -0.4166
  259MOL0     H35675   4.082   7.450  11.993 -0.2312 -0.7959  2.2735
  259MOL0     H35676   4.056   7.286  11.949 -1.0599 -0.2670  0.8082
  259MOL0     H35677   3.826   7.310  12.095 -1.2080 -0.3408  0.7515
  259MOL0     H35678   3.975   7.364  12.176 -0.9063  4.1694  0.6885
  259MOL0     H35679   3.925   7.592  12.086  0.1020 -0.2546 -3.5268
  259MOL0     H35680   3.768   7.516  12.027  1.7914  0.1931 -1.0327
  259MOL0     H35681   3.726   7.454  12.273 -0.7343  1.1865 -0.0474
  259MOL0     H35682   3.876   7.551  12.302  0.3629 -2.0062  0.4482
  259MOL0     H35683   3.607   7.641  12.199  1.0371  1.1003 -3.7243
  259MOL0     H35684   3.757   7.738  12.170  1.1467  0.7517  0.4555
  259MOL0     H35685   3.645   7.666  12.455  2.4650 -0.2244  0.6189
  259MOL0     H35686   3.775   7.781  12.408  0.3311  1.0245 -2.6006
  259MOL0     H35687   3.482   7.800  12.337  1.0709 -1.2639 -2.9682
  259MOL0     H35688   3.599   7.902  12.266 -1.3092  1.9819  0.9104
  259MOL0     H35689   3.592   7.874  12.574 -0.8902 -0.8816 -0.5041
  259MOL0     H35690   3.657   8.010  12.473 -0.1554  1.0223  0.3484
  259MOL0     H35691   3.317   7.847  12.567 -1.8446  0.0789  0.8676
  259MOL0     H35692   3.047   7.947  12.481 -2.6178  0.6099  0.1920
  259MOL0     H35693   3.034   8.122  12.520 -1.7105 -1.3032 -2.0125
  259MOL0     H35694   3.152   7.967  12.735 -1.0627  0.1097  1.0016
  259MOL0     H35695   3.029   8.098  12.736  2.2242  0.1278  0.7531
  259MOL0     H35696   2.867   7.914  12.646  0.8363  2.3713 -0.2392
  259MOL0     H35697   2.983   7.795  12.684 -2.9859 -1.3644  1.1214
  259MOL0     H35698   2.844   7.801  12.852  2.1293 -1.6183 -1.6056
  259MOL0     H35699   3.008   7.868  12.902  0.9479 -2.8780 -2.2441
  259MOL0     H35700   2.758   8.241  12.965 -2.0431  0.3463 -0.0151
  259MOL0     H35701   2.712   8.406  13.138  2.8200 -1.0462  0.0076
  259MOL0     H35702   2.679   8.349  13.296 -0.7394  2.4219 -0.1177
  259MOL0     H35703   2.546   8.374  13.181 -0.2414 -2.7240 -2.0287
  259MOL0     H35704   2.593   7.994  13.632  0.1081 -0.2222 -0.4498
  259MOL0     H35705   2.468   7.936  13.851 -1.1591  1.3505  0.6708
  259MOL0     H35706   2.193   7.940  14.099 -0.8480  1.2580 -0.0708
  259MOL0     H35707   2.352   7.908  14.053  0.9271  0.9628 -1.9898
  259MOL0     H35708   2.340   8.134  14.147 -4.6329 -0.4558  2.2495
  259MOL0     H35709   2.372   8.144  13.984 -2.1668  1.2135  0.0179
  259MOL0     H35710   2.077   8.199  14.057  0.5676  2.2032  0.8685
  259MOL0     H35711   2.158   8.159  13.907 -0.8503 -0.4899  0.6377
  259MOL0     H35712   2.320   8.348  13.936  0.0012 -1.6513 -0.3291
  259MOL0     H35713   2.235   8.389  14.085 -0.3697 -0.8432  0.5835
  259MOL0     H35714   2.074   8.354  13.824 -2.4141  1.3181  0.1382
  259MOL0     H35715   2.026   8.428  13.971  0.0993  0.5669  1.3513
  259MOL0     H35716   2.247   8.517  13.798  0.1399 -1.2161  1.3537
  259MOL0     H35717   2.193   8.606  13.934  0.7879 -0.7303  0.1787
  259MOL0     H35718   1.977   8.662  13.838  1.5175  0.7388  2.1905
  259MOL0     H35719   1.996   8.564  13.697 -1.5442 -0.6193  2.1801
  259MOL0     H35720   2.151   8.810  13.758 -1.1947 -2.0187  0.2778
  259MOL0     H35721   2.035   8.793  13.615 -3.2106 -1.8350  0.2892
  259MOL0     H35722   2.102   8.026  13.659  0.2323  3.2219  3.7532
  259MOL0     H35723   2.222   8.074  13.455 -2.4810  0.6614  1.2948
  259MOL0     H35724   2.639   7.874  13.269  0.0314  0.6607  1.7193
  259MOL0     H35725   2.777   7.826  13.064 -3.1848 -1.8024  0.6971
  259MOL0     H35726   4.037   7.179  11.789 -0.0215  1.3200  2.5027
  259MOL0     H35727   4.111   7.085  11.557  0.8119  0.1422  1.5841
  259MOL0     H35728   4.105   6.989  11.203 -1.1180 -0.4542 -1.2927
  259MOL0     H35729   4.117   6.908  10.977 -1.0997  1.9921  0.7245
  259MOL0     H35730   4.305   6.722  10.951 -0.7747  1.3289 -0.7743
  259MOL0     H35731   4.320   6.675  10.789 -1.6281 -0.4833  1.9923
  259MOL0     H35732   4.528   6.762  10.987  0.8778  1.6903 -1.2671
  259MOL0     H35733   4.571   6.753  10.816 -0.0836  0.8314 -0.8574
  259MOL0     H35734   4.459   6.492  10.952  1.7565 -3.9404 -0.6291
  259MOL0     H35735   4.479   6.528  10.783 -0.4658  0.0657 -0.7114
  259MOL0     H35736   4.704   6.570  10.982  2.2295 -2.5874  0.8639
  259MOL0     H35737   4.713   6.560  10.807 -0.0029  0.4037  0.3157
  259MOL0     H35738   4.740   6.167  10.931 -2.1334  0.3064  1.8151
  259MOL0     H35739   4.515   7.056  10.951 -0.4756  1.3112  0.8173
  259MOL0     H35740   4.535   7.270  11.086  1.8570 -0.2730 -0.3705
  259MOL0     H35741   4.477   7.255  11.255 -1.5597 -1.4071 -0.0693
  259MOL0     H35742   4.605   7.150  11.197  0.1177  1.2127  0.6793
  260MOL0     O35743   1.405   0.190  11.099  0.2410  0.2783  0.0328
  260MOL0     C35744   1.445   0.194  11.208 -0.3249  0.0236 -1.1326
  260MOL0     O35745   1.567   0.133  11.258 -0.4529  0.0111 -0.6435
  260MOL0     C35746   1.627   0.032  11.180 -0.0894 -0.5415  0.1787
  260MOL0     C35747   1.552  -0.066  11.122  1.3366 -0.0457 -0.8029
  260MOL0     C35748   1.618  -0.168  11.056 -0.5413 -0.5144  0.2927
  260MOL0     C35749   1.761  -0.162  11.036 -0.6438  1.2464  1.1181
  260MOL0     O35750   1.841  -0.252  10.960 -0.1291 -0.1255 -0.6333
  260MOL0     C35751   1.797  -0.386  10.950 -0.2748  0.4898 -0.2446
  260MOL0     C35752   1.907  -0.494  10.928  0.8915  0.6686 -0.8314
  260MOL0     C35753   1.859  -0.635  10.941  0.5649 -0.1366  0.1635
  260MOL0     C35754   1.964  -0.747  10.910  0.3687 -0.0975  0.3356
  260MOL0     C35755   1.918  -0.895  10.941  0.1753 -0.3716 -0.1814
  260MOL0     C35756   2.028  -0.988  10.886 -0.1314 -0.0514 -0.2430
  260MOL0     C35757   2.177  -0.958  10.924 -0.6224 -0.0692  0.1690
  260MOL0     C35758   2.264  -1.075  10.885 -0.3463 -0.1163 -0.0835
  260MOL0     N35759   2.269  -1.189  10.975 -0.1456  0.3331 -0.8300
  260MOL0     C35760   2.331  -1.196  11.102 -0.3714 -0.0225  0.5058
  260MOL0     C35761   2.335  -1.327  11.133 -0.2782 -1.3117  0.2030
  260MOL0     C35762   2.396  -1.398  11.245  0.3828 -0.0850  0.1916
  260MOL0     C35763   2.537  -1.453  11.226  0.7103  1.6268 -1.0973
  260MOL0     C35764   2.653  -1.352  11.227  0.1230  0.1851  0.1121
  260MOL0     C35765   2.663  -1.301  11.373 -0.0579 -0.1591 -0.0318
  260MOL0     O35766   2.786  -1.221  11.389 -0.3842  0.0876 -0.5122
  260MOL0     C35767   2.877  -1.236  11.486 -0.0396  0.1757 -0.5305
  260MOL0     C35768   3.002  -1.178  11.470  0.9816 -0.0324  0.1000
  260MOL0     C35769   3.099  -1.180  11.570 -0.7687 -0.6277  0.5462
  260MOL0     C35770   3.217  -1.100  11.524  0.1504 -0.9847  0.2430
  260MOL0     C35771   3.086  -1.256  11.692  0.2781 -0.0643 -0.7718
  260MOL0     C35772   3.175  -1.271  11.810  0.2555  0.2003 -0.5569
  260MOL0     O35773   3.301  -1.231  11.787 -0.7525 -0.0087  0.6680
  260MOL0     C35774   3.403  -1.225  11.884  0.8800 -1.5490  0.4552
  260MOL0     C35775   3.378  -1.233  12.029 -0.3587  0.0957 -0.1988
  260MOL0     C35776   3.482  -1.199  12.118  0.4805 -0.3184  0.1278
  260MOL0     C35777   3.609  -1.165  12.071  0.1293 -0.5381  0.1990
  260MOL0     O35778   3.704  -1.141  12.170  0.2218  0.2628  0.1453
  260MOL0     C35779   3.824  -1.064  12.132  0.0995  0.1111  0.1768
  260MOL0     C35780   3.928  -1.087  12.239  0.3569  0.3247  1.3661
  260MOL0     C35781   3.982  -1.225  12.247  0.3699 -0.2822 -0.1263
  260MOL0     C35782   4.016  -1.283  12.101  0.4111 -0.2073 -0.5932
  260MOL0     C35783   4.106  -1.397  12.111 -1.0498  0.6994  0.7461
  260MOL0     C35784   4.037  -1.516  12.185 -0.1765 -0.9866 -0.3114
  260MOL0     C35785   4.076  -1.653  12.132 -0.8618  0.3388 -0.6217
  260MOL0     C35786   4.061  -1.751  12.237 -0.1971 -0.6062 -0.3563
  260MOL0    Cl35787   4.182  -1.747  12.360  0.1024  0.1698  0.2094
  260MOL0     C35788   3.633  -1.171  11.925  0.1863 -0.2323  0.4079
  260MOL0     C35789   3.537  -1.218  11.834 -1.0423 -0.3198 -0.9458
  260MOL0     O35790   3.134  -1.351  11.906  0.3054 -0.3553 -0.2301
  260MOL0     C35791   2.956  -1.322  11.708 -0.0005 -0.2823  0.9611
  260MOL0     C35792   2.861  -1.308  11.603 -0.3163  1.2458 -0.3262
  260MOL0     N35793   2.265  -1.401  11.042  0.4069 -1.1756  0.1262
  260MOL0     N35794   2.225  -1.319  10.958 -0.0114 -0.9401 -0.3405
  260MOL0     C35795   1.840  -0.050  11.073 -0.3993  0.2764  0.5078
  260MOL0     C35796   1.766   0.047  11.143 -0.1679 -0.3416 -0.2235
  260MOL0     C35797   1.362   0.279  11.300 -0.9568  0.5816  0.3402
  260MOL0     C35798   1.445   0.358  11.392 -0.2565  0.0223  0.3673
  260MOL0     C35799   1.383   0.445  11.480 -0.1317  0.2096  0.9869
  260MOL0     C35800   1.247   0.478  11.473  0.1907  0.5883 -0.0383
  260MOL0     O35801   1.198   0.564  11.565 -0.7417  0.4762  0.0239
  260MOL0     C35802   1.098   0.512  11.659  0.8544 -0.3856  1.0633
  260MOL0     C35803   1.101   0.577  11.783 -0.1394 -0.7450  0.3937
  260MOL0     C35804   1.039   0.724  11.787 -0.3151  0.5943 -0.4055
  260MOL0     C35805   1.142   0.833  11.738  0.1742  0.0304  0.0356
  260MOL0     C35806   1.235   0.854  11.841 -0.4166  0.3531 -0.2469
  260MOL0     C35807   1.313   0.886  11.930  0.4403 -0.3999  0.4792
  260MOL0     C35808   1.167   0.393  11.382  0.1785 -0.0740 -0.6514
  260MOL0     C35809   1.223   0.287  11.304 -0.2503 -0.0794  0.4996
  260MOL0     C35810   1.124   0.210  11.213  0.1093  0.3620  1.0330
  260MOL0     H35811   1.444  -0.075  11.130  0.7507  4.9476  0.0410
  260MOL0     H35812   1.546  -0.244  11.026 -2.0300  0.9223  0.0564
  260MOL0     H35813   1.730  -0.396  10.864  1.8306 -2.4007 -1.7017
  260MOL0     H35814   1.750  -0.419  11.044 -2.1365  1.0061 -0.9591
  260MOL0     H35815   1.949  -0.471  10.830  1.4228  0.6685 -0.6094
  260MOL0     H35816   1.987  -0.480  11.002 -0.8906  2.8492  0.8418
  260MOL0     H35817   1.840  -0.632  11.049 -3.6656  0.2931 -0.4129
  260MOL0     H35818   1.766  -0.667  10.894  2.1447 -0.9653 -2.5970
  260MOL0     H35819   1.998  -0.733  10.807  1.1499  1.5131  0.7756
  260MOL0     H35820   2.052  -0.711  10.965  0.5615  1.7618 -1.0991
  260MOL0     H35821   1.826  -0.913  10.884  1.2120 -0.4649 -1.9160
  260MOL0     H35822   1.904  -0.924  11.045  1.0882 -0.9830 -0.2145
  260MOL0     H35823   2.003  -1.094  10.888 -3.3470  0.5667 -1.9887
  260MOL0     H35824   2.022  -0.945  10.786 -1.3262 -1.6788 -0.9074
  260MOL0     H35825   2.180  -0.948  11.033 -4.6239 -0.4458  0.4531
  260MOL0     H35826   2.220  -0.862  10.895 -1.6153  0.4264  0.2890
  260MOL0     H35827   2.229  -1.107  10.786  1.0112  1.7546 -1.2354
  260MOL0     H35828   2.371  -1.051  10.878 -0.5433  0.3744 -4.6194
  260MOL0     H35829   2.383  -1.123  11.163  2.6482  0.4061 -2.2920
  260MOL0     H35830   2.333  -1.485  11.266 -1.2242  0.9613 -0.1103
  260MOL0     H35831   2.387  -1.340  11.337 -1.6926  1.9650 -1.1943
  260MOL0     H35832   2.564  -1.522  11.307 -3.5675  2.3693  1.2817
  260MOL0     H35833   2.538  -1.504  11.129  0.4160  1.6273 -1.1022
  260MOL0     H35834   2.745  -1.400  11.191 -2.5203 -3.8065 -2.1441
  260MOL0     H35835   2.617  -1.277  11.157 -3.1980  1.5985  3.0405
  260MOL0     H35836   2.578  -1.239  11.403 -0.2231 -0.1220 -0.5571
  260MOL0     H35837   2.691  -1.390  11.429 -1.0749  0.0279  0.7882
  260MOL0     H35838   3.004  -1.113  11.383 -1.5577  0.0996  0.0674
  260MOL0     H35839   3.278  -1.061  11.606  0.7939  1.3025 -1.2363
  260MOL0     H35840   3.185  -1.017  11.460 -1.6827 -1.3646  0.6262
  260MOL0     H35841   3.277  -1.162  11.456 -2.0938 -0.9058 -1.9492
  260MOL0     H35842   3.279  -1.260  12.066 -0.2259 -1.7781 -1.1192
  260MOL0     H35843   3.469  -1.197  12.226 -2.2695  1.3893 -0.1333
  260MOL0     H35844   3.858  -1.091  12.031  1.7052  2.7055 -0.0682
  260MOL0     H35845   3.809  -0.956  12.118  0.4551  0.2882  1.1172
  260MOL0     H35846   4.014  -1.022  12.222 -0.5226  1.1514 -0.1751
  260MOL0     H35847   3.881  -1.049  12.330 -0.1466  2.2853  0.3698
  260MOL0     H35848   3.913  -1.295  12.295 -1.0073  0.0619 -1.5216
  260MOL0     H35849   4.069  -1.240  12.312  1.1476  1.1741 -0.7841
  260MOL0     H35850   4.054  -1.199  12.042  0.3747  0.9593  0.9717
  260MOL0     H35851   3.925  -1.327  12.059 -2.1506  2.5170  1.6022
  260MOL0     H35852   4.131  -1.422  12.007  0.7189  0.4082  1.2218
  260MOL0     H35853   4.204  -1.371  12.151 -0.5561  0.8361 -0.4915
  260MOL0     H35854   3.929  -1.526  12.190 -0.1918 -0.5105  0.3239
  260MOL0     H35855   4.064  -1.503  12.290 -2.2945 -0.1856  0.1724
  260MOL0     H35856   4.175  -1.645  12.086  0.2838 -2.1838  1.2290
  260MOL0     H35857   3.995  -1.678  12.062 -0.8712 -2.4725  0.2823
  260MOL0     H35858   4.084  -1.848  12.191  0.1169 -0.6046 -0.1993
  260MOL0     H35859   3.958  -1.755  12.274 -0.1823 -0.4344 -0.2981
  260MOL0     H35860   3.735  -1.153  11.894  0.0580  2.1950  1.1633
  260MOL0     H35861   3.556  -1.221  11.727  2.5901  2.7085 -0.5804
  260MOL0     H35862   2.919  -1.368  11.799 -6.1324  2.9635  0.6305
  260MOL0     H35863   2.765  -1.353  11.626  1.1820 -3.1538 -1.7288
  260MOL0     H35864   1.940  -0.023  11.040  0.2215  1.1789  2.8987
  260MOL0     H35865   1.817   0.129  11.193 -2.2136 -0.7470  2.7863
  260MOL0     H35866   1.553   0.348  11.386 -0.3315 -0.0457 -2.1453
  260MOL0     H35867   1.450   0.484  11.556  1.7848  0.0174 -0.5057
  260MOL0     H35868   1.002   0.521  11.607  0.7496  0.4045  1.3928
  260MOL0     H35869   1.127   0.408  11.677 -1.3970 -0.7728  2.9745
  260MOL0     H35870   1.203   0.585  11.822 -1.4445 -0.5318  4.0771
  260MOL0     H35871   1.054   0.510  11.855 -0.1583 -0.3744  0.7324
  260MOL0     H35872   0.957   0.722  11.715 -0.2670 -5.5345 -0.7489
  260MOL0     H35873   0.995   0.748  11.885 -1.3875  4.2339 -1.6029
  260MOL0     H35874   1.090   0.929  11.729  1.2013  0.7538  1.4497
  260MOL0     H35875   1.184   0.810  11.640 -1.6440  0.4239 -0.8955
  260MOL0     H35876   1.396   0.899  11.997  1.5165 -2.6492 -0.3190
  260MOL0     H35877   1.060   0.409  11.370  0.1302 -0.5919 -0.9040
  260MOL0     H35878   1.160   0.212  11.110  0.1709 -2.2550  0.9319
  260MOL0     H35879   1.132   0.102  11.226  1.9193  0.4441  0.7647
  260MOL0     H35880   1.019   0.241  11.218  0.0340  1.1805 -2.9620
  261MOL0     O35881   6.216   2.110   4.982 -0.1435 -0.5806 -0.4998
  261MOL0     C35882   6.336   2.120   5.016  0.5052 -1.1049  0.3047
  261MOL0     O35883   6.429   2.157   4.936  0.5189 -0.0918 -1.1888
  261MOL0     C35884   6.409   2.197   4.811  0.2874  0.2263 -0.1729
  261MOL0     C35885   6.400   2.095   4.713  0.1274 -0.0764 -0.1484
  261MOL0     C35886   6.385   2.131   4.576 -1.1439  0.6437  0.6905
  261MOL0     C35887   6.370   2.273   4.535  0.4215 -0.4468  0.5917
  261MOL0     O35888   6.351   2.304   4.403 -0.7353 -0.4083 -0.0357
  261MOL0     C35889   6.212   2.287   4.371  0.0062  0.0092 -0.8774
  261MOL0     C35890   6.186   2.315   4.221  0.1804  0.7546 -0.2209
  261MOL0     C35891   6.141   2.457   4.185  0.9355  0.3763  0.1331
  261MOL0     C35892   5.996   2.492   4.209 -0.3330 -0.2685  0.7052
  261MOL0     C35893   5.950   2.631   4.177 -0.4005 -0.0439  0.5348
  261MOL0     C35894   5.997   2.730   4.282  0.3832  0.6181 -0.2080
  261MOL0     C35895   5.952   2.873   4.237  0.6236  0.3050 -0.7095
  261MOL0     C35896   5.800   2.880   4.202  0.4164  0.6077  0.4381
  261MOL0     N35897   5.763   3.024   4.174 -0.5466 -0.4409  0.9511
  261MOL0     C35898   5.702   3.074   4.065 -0.4505 -0.1529  0.7184
  261MOL0     C35899   5.672   3.208   4.094  0.5892 -0.1353  1.0216
  261MOL0     C35900   5.599   3.316   4.009 -0.2281  1.4612 -0.0284
  261MOL0     C35901   5.674   3.333   3.880 -0.0671 -0.4889  0.7395
  261MOL0     C35902   5.632   3.443   3.777 -0.5249 -0.1339 -0.8025
  261MOL0     C35903   5.612   3.579   3.846  0.7949 -0.6500 -1.0248
  261MOL0     O35904   5.587   3.658   3.733  0.6234 -0.5620  1.0111
  261MOL0     C35905   5.530   3.779   3.753  0.5502  0.1694  0.6054
  261MOL0     C35906   5.464   3.828   3.642 -0.6208 -0.7690 -1.3198
  261MOL0     C35907   5.391   3.948   3.651  0.3017  1.2619 -0.6327
  261MOL0     C35908   5.294   3.961   3.540  0.5323  0.6385  0.7510
  261MOL0     C35909   5.374   4.009   3.780 -0.1735 -1.2689  0.9930
  261MOL0     C35910   5.278   4.124   3.811  0.5447  0.0816 -1.1572
  261MOL0     O35911   5.279   4.161   3.941 -0.2292 -0.4144 -0.4689
  261MOL0     C35912   5.188   4.249   3.995 -0.0853  0.4050 -0.3977
  261MOL0     C35913   5.201   4.384   3.986 -0.6131 -1.1550 -1.2351
  261MOL0     C35914   5.102   4.475   4.021 -0.0627  0.8511  0.3527
  261MOL0     C35915   4.983   4.436   4.082 -0.3220  0.7752 -0.0311
  261MOL0     O35916   4.889   4.520   4.131  0.1650 -0.2136  0.3072
  261MOL0     C35917   4.880   4.657   4.098  0.0067 -0.1794 -0.3181
  261MOL0     C35918   4.815   4.688   3.956 -0.7019  0.3655  0.2295
  261MOL0     C35919   4.687   4.600   3.934  0.6295 -0.0469  0.3357
  261MOL0     C35920   4.621   4.626   3.800  0.4546  0.0759  0.3839
  261MOL0     C35921   4.482   4.579   3.782  0.6082  0.7811  0.1167
  261MOL0     C35922   4.446   4.598   3.635 -0.5763  0.0639 -0.0526
  261MOL0     C35923   4.294   4.621   3.625 -0.3489  0.3376  0.3746
  261MOL0     C35924   4.250   4.670   3.488  0.3346  0.1761 -0.0849
  261MOL0    Cl35925   4.072   4.626   3.470  0.3252 -0.6702 -0.5636
  261MOL0     C35926   4.962   4.292   4.086  0.2175  0.1105 -0.4709
  261MOL0     C35927   5.068   4.198   4.044  0.6531  0.9974  0.7230
  261MOL0     O35928   5.217   4.175   3.726 -0.0433  1.1255 -0.0439
  261MOL0     C35929   5.448   3.963   3.883 -1.1142  0.0923 -0.7819
  261MOL0     C35930   5.514   3.844   3.874 -0.4134  0.4352 -0.1453
  261MOL0     N35931   5.713   3.230   4.222  0.4758  0.0333  0.2315
  261MOL0     N35932   5.759   3.123   4.275  0.0798 -0.6811  1.1660
  261MOL0     C35933   6.374   2.368   4.642  0.5150  0.2866 -0.3618
  261MOL0     C35934   6.402   2.328   4.772  0.6790 -0.1849  0.3376
  261MOL0     C35935   6.376   2.053   5.138  0.1809 -0.5350 -0.8125
  261MOL0     C35936   6.464   2.123   5.234  0.5026 -0.3895  0.4292
  261MOL0     C35937   6.498   2.060   5.352 -0.1456 -0.7573  0.0510
  261MOL0     C35938   6.469   1.928   5.377 -0.4910 -0.7743 -0.5332
  261MOL0     O35939   6.528   1.883   5.497  0.0519  0.5682 -0.0896
  261MOL0     C35940   6.448   1.804   5.587  0.2344 -0.5081 -0.0425
  261MOL0     C35941   6.438   1.858   5.735  1.0616 -0.0742 -0.3769
  261MOL0     C35942   6.558   1.808   5.824 -0.4626  0.0042 -0.6362
  261MOL0     C35943   6.556   1.910   5.942 -0.1034  1.0608 -0.2719
  261MOL0     C35944   6.684   1.907   6.009 -0.8470 -0.5590 -0.1342
  261MOL0     C35945   6.797   1.914   6.055  0.1758 -0.1303  0.6387
  261MOL0     C35946   6.381   1.860   5.294 -1.1537 -0.2409 -1.0416
  261MOL0     C35947   6.333   1.922   5.169 -0.0694  0.0089 -0.7879
  261MOL0     C35948   6.243   1.849   5.082 -0.1877  0.2031  0.0084
  261MOL0     H35949   6.398   1.988   4.733 -1.6259 -0.7548 -3.3008
  261MOL0     H35950   6.396   2.055   4.500 -1.9856  0.4374  0.7640
  261MOL0     H35951   6.158   2.343   4.447 -0.8134  1.2649 -2.3349
  261MOL0     H35952   6.203   2.179   4.388  2.5173  0.0257  1.0283
  261MOL0     H35953   6.275   2.294   4.161 -2.1022  0.6810 -3.9217
  261MOL0     H35954   6.117   2.237   4.187  3.2454 -1.6961 -1.4221
  261MOL0     H35955   6.193   2.528   4.251 -1.4859  2.1664  0.2629
  261MOL0     H35956   6.152   2.471   4.077  2.0157 -3.0849 -0.3187
  261MOL0     H35957   5.940   2.425   4.142  3.5968 -2.6706 -0.5322
  261MOL0     H35958   5.977   2.471   4.314  1.3832  1.5706  1.4416
  261MOL0     H35959   5.840   2.635   4.183 -0.3695  4.0026  0.5509
  261MOL0     H35960   5.972   2.646   4.071  1.3096  1.3450  1.0458
  261MOL0     H35961   5.954   2.715   4.382  0.2497  2.7424  0.1044
  261MOL0     H35962   6.104   2.714   4.299 -0.2933 -4.3415  1.1504
  261MOL0     H35963   6.015   2.913   4.157 -0.8134  1.9465 -1.0860
  261MOL0     H35964   5.965   2.942   4.320  0.7570  2.4037 -2.3882
  261MOL0     H35965   5.787   2.823   4.109 -1.1385 -1.9812  2.0976
  261MOL0     H35966   5.737   2.835   4.280 -1.9092  0.5475 -1.3561
  261MOL0     H35967   5.673   3.019   3.976  1.7148 -1.9180  1.0158
  261MOL0     H35968   5.587   3.409   4.065  0.2598  0.8761  1.0693
  261MOL0     H35969   5.495   3.292   3.985 -0.0929  1.2639 -0.4346
  261MOL0     H35970   5.776   3.351   3.917  1.2982 -2.1599 -1.9409
  261MOL0     H35971   5.673   3.239   3.824  0.8059  0.7083 -1.4356
  261MOL0     H35972   5.706   3.444   3.696 -1.3097 -4.3928 -1.7802
  261MOL0     H35973   5.541   3.413   3.725  0.6470 -3.0328 -1.3615
  261MOL0     H35974   5.537   3.584   3.925  0.8052  0.2572 -1.0605
  261MOL0     H35975   5.701   3.617   3.897  2.1593 -4.1083 -0.6081
  261MOL0     H35976   5.458   3.765   3.554  0.2185 -1.8085 -0.6598
  261MOL0     H35977   5.296   3.888   3.459 -1.7372  0.6014  0.6660
  261MOL0     H35978   5.321   4.054   3.489 -3.5313  0.8694 -1.4452
  261MOL0     H35979   5.191   3.951   3.575  0.3204  2.7485  0.8429
  261MOL0     H35980   5.289   4.420   3.934  1.1527  1.1104  2.8864
  261MOL0     H35981   5.132   4.578   4.005  1.0745  0.2688 -1.6796
  261MOL0     H35982   4.827   4.712   4.176  0.1277 -0.6203  0.0746
  261MOL0     H35983   4.982   4.696   4.108 -0.2534  0.5571 -0.4220
  261MOL0     H35984   4.813   4.797   3.957  0.2610  0.4172 -1.1535
  261MOL0     H35985   4.875   4.663   3.868  0.9546  1.9075  0.8723
  261MOL0     H35986   4.619   4.623   4.016 -1.3404 -0.6658 -1.0673
  261MOL0     H35987   4.720   4.496   3.932  3.6817  0.8011 -2.4187
  261MOL0     H35988   4.687   4.587   3.723  2.5545  3.6516  0.1444
  261MOL0     H35989   4.627   4.732   3.775  2.6282 -0.3379 -1.1317
  261MOL0     H35990   4.487   4.471   3.797 -0.1337  0.6772 -0.3319
  261MOL0     H35991   4.410   4.628   3.848  0.1753 -0.5380  0.6664
  261MOL0     H35992   4.460   4.509   3.574  0.0967  0.2948 -0.2383
  261MOL0     H35993   4.497   4.683   3.589 -2.2429  0.3205 -1.5500
  261MOL0     H35994   4.270   4.696   3.701 -0.7169 -0.0573  0.6464
  261MOL0     H35995   4.239   4.529   3.647 -1.0326  1.3319  3.2812
  261MOL0     H35996   4.311   4.614   3.416 -1.6278  0.8772 -2.4219
  261MOL0     H35997   4.255   4.778   3.470 -2.6751  0.3677 -0.2226
  261MOL0     H35998   4.859   4.262   4.104  0.7821 -2.3974 -1.0942
  261MOL0     H35999   5.054   4.090   4.049 -0.0307  1.1414  3.8539
  261MOL0     H36000   5.446   4.019   3.976  3.8635  0.0661 -0.4117
  261MOL0     H36001   5.566   3.810   3.963 -1.5463  0.4291  0.5435
  261MOL0     H36002   6.349   2.466   4.603 -2.6963  0.0654  0.8455
  261MOL0     H36003   6.413   2.407   4.845 -2.1794 -0.7762  1.5229
  261MOL0     H36004   6.502   2.219   5.199 -1.4182  0.9188  1.7345
  261MOL0     H36005   6.581   2.104   5.407  0.6816 -1.5405 -0.5259
  261MOL0     H36006   6.347   1.792   5.546 -0.3463  0.5213  1.0314
  261MOL0     H36007   6.498   1.706   5.588  0.3637 -0.4455  1.3409
  261MOL0     H36008   6.346   1.815   5.775  0.4863  1.8931  0.5310
  261MOL0     H36009   6.431   1.967   5.732 -0.9995  0.0401  3.1418
  261MOL0     H36010   6.534   1.705   5.852 -1.3793  0.1419 -0.8945
  261MOL0     H36011   6.652   1.826   5.770 -2.2040  1.7570 -3.3648
  261MOL0     H36012   6.468   1.900   6.007  0.3455  1.0238  0.3355
  261MOL0     H36013   6.545   2.007   5.893  2.8635  0.4970 -2.3356
  261MOL0     H36014   6.897   1.921   6.092  0.4725 -2.6255  0.4382
  261MOL0     H36015   6.342   1.760   5.312  0.5673 -1.0020 -1.3050
  261MOL0     H36016   6.149   1.898   5.055 -1.1903 -1.3969  0.4571
  261MOL0     H36017   6.288   1.812   4.990  2.4544  3.1609 -0.0593
  261MOL0     H36018   6.225   1.761   5.145  2.4826 -1.0912 -0.9256
  262MOL0     O36019   7.962   8.441   5.239  0.9525  0.1315 -0.1070
  262MOL0     C36020   7.854   8.418   5.196 -0.8413  0.2098 -0.7838
  262MOL0     O36021   7.758   8.364   5.271  0.3731  0.2416 -0.5626
  262MOL0     C36022   7.759   8.381   5.413  1.0711 -0.5135  1.1852
  262MOL0     C36023   7.673   8.484   5.463  0.0535  0.2359  0.2528
  262MOL0     C36024   7.679   8.509   5.599 -0.0485 -0.0113 -0.1977
  262MOL0     C36025   7.758   8.428   5.685  0.5607 -0.5821  0.4247
  262MOL0     O36026   7.780   8.464   5.817 -0.8703 -0.2034  0.2165
  262MOL0     C36027   7.671   8.506   5.891  1.5670  0.0837  0.2997
  262MOL0     C36028   7.707   8.637   5.979 -0.3381 -0.0008  0.6218
  262MOL0     C36029   7.764   8.751   5.892  0.2084  0.2384  0.4906
  262MOL0     C36030   7.808   8.883   5.969  0.1923  0.5202  0.1857
  262MOL0     C36031   7.681   8.932   6.040  0.4705 -1.2539  0.8156
  262MOL0     C36032   7.647   9.082   6.020 -0.6240  0.3040 -0.1736
  262MOL0     C36033   7.514   9.114   6.084 -1.2203  0.0193 -0.8550
  262MOL0     C36034   7.486   9.259   6.112 -0.2467  0.9439 -0.2710
  262MOL0     N36035   7.350   9.294   6.156 -0.4452  0.2814 -0.7073
  262MOL0     C36036   7.276   9.394   6.097  0.6271  0.2452 -0.7811
  262MOL0     C36037   7.153   9.368   6.138  0.9606  0.5664 -0.6254
  262MOL0     C36038   7.018   9.416   6.075 -0.4778  0.7250 -0.2215
  262MOL0     C36039   6.941   9.507   6.175 -0.4086  0.3925 -0.5413
  262MOL0     C36040   6.803   9.556   6.111 -0.3939 -0.0669  0.6799
  262MOL0     C36041   6.812   9.616   5.963 -0.0544  0.0211 -0.8360
  262MOL0     O36042   6.868   9.748   5.963  0.2240 -0.1551  0.1571
  262MOL0     C36043   6.774   9.844   5.963  0.4669 -0.8065 -1.0740
  262MOL0     C36044   6.738   9.897   6.084  0.4031  0.7517 -0.2497
  262MOL0     C36045   6.627   9.984   6.098  0.4207 -0.0702  0.4875
  262MOL0     C36046   6.581  10.018   6.232 -0.6599 -0.3411  0.6822
  262MOL0     C36047   6.574  10.045   5.974 -0.2324 -0.4148  0.4891
  262MOL0     C36048   6.481  10.157   5.976 -0.5291  1.6156  0.3400
  262MOL0     O36049   6.348  10.124   5.954 -0.3986 -0.5975  0.2108
  262MOL0     C36050   6.251  10.217   5.986  0.0745  0.0282 -0.2106
  262MOL0     C36051   6.253  10.345   5.923 -0.5728 -0.7608  0.0030
  262MOL0     C36052   6.165  10.446   5.963 -0.1492 -0.9448  0.6673
  262MOL0     C36053   6.060  10.429   6.061 -0.2419  0.7797  0.6554
  262MOL0     O36054   5.960  10.503   6.106 -0.0568 -0.0583 -0.0603
  262MOL0     C36055   5.969  10.637   6.125  0.0009  0.0498 -1.1583
  262MOL0     C36056   5.840  10.668   6.198  0.6045 -0.5720 -0.8735
  262MOL0     C36057   5.708  10.642   6.112 -0.1639 -0.9124  0.5113
  262MOL0     C36058   5.584  10.659   6.202  0.2157 -0.2239 -1.0189
  262MOL0     C36059   5.457  10.645   6.124  0.0386 -0.9273 -0.4339
  262MOL0     C36060   5.330  10.689   6.197 -0.5793  0.6551 -0.8397
  262MOL0     C36061   5.212  10.647   6.116 -0.1454  1.0464  0.7526
  262MOL0     C36062   5.076  10.684   6.176  0.4190  0.3322 -0.5800
  262MOL0    Cl36063   5.057  10.864   6.173 -0.3707 -0.7919 -0.1880
  262MOL0     C36064   6.059  10.295   6.106 -0.4355  0.0543  0.3074
  262MOL0     C36065   6.157  10.188   6.082 -0.0023  0.2916 -0.3102
  262MOL0     O36066   6.526  10.269   6.004 -0.4196 -0.2448  0.2766
  262MOL0     C36067   6.612   9.985   5.854 -0.6216 -0.0268 -0.2863
  262MOL0     C36068   6.703   9.876   5.859  0.3522  0.6418 -0.5511
  262MOL0     N36069   7.145   9.270   6.233  0.1521  0.5522  0.1395
  262MOL0     N36070   7.262   9.229   6.239 -0.4179 -0.1971 -0.1598
  262MOL0     C36071   7.836   8.325   5.636 -0.7991  0.5325 -0.3683
  262MOL0     C36072   7.837   8.302   5.496 -0.0636  1.3267  0.7799
  262MOL0     C36073   7.822   8.464   5.053  0.6428  1.0828  0.1397
  262MOL0     C36074   7.698   8.425   4.996 -0.1069  0.0235 -0.1414
  262MOL0     C36075   7.661   8.464   4.864 -0.3650  0.1793  0.6033
  262MOL0     C36076   7.736   8.554   4.787  0.2851 -1.0104 -1.0358
  262MOL0     O36077   7.677   8.591   4.673 -0.0332  0.9392 -0.0628
  262MOL0     C36078   7.740   8.700   4.604  0.7665 -0.1918 -0.1221
  262MOL0     C36079   7.664   8.751   4.469  0.4138  0.3873 -0.5302
  262MOL0     C36080   7.653   8.653   4.361  0.6217 -0.2478  0.3106
  262MOL0     C36081   7.599   8.724   4.234 -0.0645 -0.0863  0.2297
  262MOL0     C36082   7.449   8.725   4.236  0.3696  0.4251  0.6696
  262MOL0     C36083   7.329   8.716   4.234  0.0237  0.0152  0.2240
  262MOL0     C36084   7.856   8.602   4.853  0.0043  0.7559 -0.2553
  262MOL0     C36085   7.905   8.551   4.978  1.3056 -0.4047 -0.0643
  262MOL0     C36086   8.037   8.621   5.028 -0.3144  0.7070 -0.1933
  262MOL0     H36087   7.614   8.543   5.394  0.2040  1.4064  1.0943
  262MOL0     H36088   7.611   8.577   5.649  1.2436 -1.9603  4.8320
  262MOL0     H36089   7.646   8.418   5.952 -2.6744  0.2900 -0.8263
  262MOL0     H36090   7.580   8.525   5.834  2.6719  1.3196 -1.1273
  262MOL0     H36091   7.614   8.674   6.022 -2.3583 -1.9241 -1.7480
  262MOL0     H36092   7.791   8.618   6.046  0.0051  0.8687  0.4486
  262MOL0     H36093   7.858   8.710   5.853 -0.3842 -0.4027 -0.2858
  262MOL0     H36094   7.693   8.777   5.813 -0.6414 -1.6722  0.5657
  262MOL0     H36095   7.892   8.870   6.037 -0.4813  0.0009  0.9508
  262MOL0     H36096   7.841   8.955   5.894 -0.7281 -1.1994 -1.9759
  262MOL0     H36097   7.693   8.924   6.148  0.8956  1.9822  1.0917
  262MOL0     H36098   7.592   8.873   6.013  0.2734 -0.1577 -1.1352
  262MOL0     H36099   7.729   9.149   6.047 -1.5399  0.7519  1.6309
  262MOL0     H36100   7.630   9.097   5.913  1.5307 -4.4389 -1.4464
  262MOL0     H36101   7.511   9.076   6.186  0.3081  0.9645 -0.4339
  262MOL0     H36102   7.422   9.076   6.038 -2.2839  2.5363 -0.9886
  262MOL0     H36103   7.558   9.301   6.182 -0.2704 -0.4823  0.6598
  262MOL0     H36104   7.497   9.317   6.020  1.7594  2.5507  0.9053
  262MOL0     H36105   7.307   9.448   6.008  1.1006  0.2204 -0.6375
  262MOL0     H36106   6.942   9.339   6.055 -0.2753  0.5193 -0.2082
  262MOL0     H36107   7.049   9.473   5.988 -1.6538  0.0986 -1.0764
  262MOL0     H36108   6.915   9.453   6.267 -0.2884  0.5153 -0.4349
  262MOL0     H36109   6.996   9.597   6.205 -0.1169  0.5089 -1.3946
  262MOL0     H36110   6.728   9.477   6.113 -1.3099  0.7057 -1.0272
  262MOL0     H36111   6.758   9.637   6.168 -0.1153  0.8942 -0.4246
  262MOL0     H36112   6.876   9.563   5.892 -1.0612  0.5522 -2.1826
  262MOL0     H36113   6.714   9.610   5.917 -0.9013  0.7464  0.7867
  262MOL0     H36114   6.795   9.858   6.168  2.3624  1.9055 -0.9717
  262MOL0     H36115   6.660   9.983   6.300 -1.0060  0.0486  1.3004
  262MOL0     H36116   6.482   9.985   6.264  0.0307 -2.0609  1.1825
  262MOL0     H36117   6.596  10.125   6.250  4.9903 -0.8651  0.9795
  262MOL0     H36118   6.330  10.370   5.850 -1.7468  1.8800 -0.4339
  262MOL0     H36119   6.154  10.544   5.917 -2.5010  1.2400  5.1660
  262MOL0     H36120   6.053  10.675   6.184  0.3124 -0.8729 -0.9945
  262MOL0     H36121   5.975  10.684   6.026  2.4183  1.6359 -0.3534
  262MOL0     H36122   5.835  10.596   6.280  0.0859 -2.3163 -2.3733
  262MOL0     H36123   5.845  10.774   6.225 -0.4805 -0.2241 -1.9521
  262MOL0     H36124   5.714  10.539   6.077  1.0029 -1.4885  2.2642
  262MOL0     H36125   5.695  10.701   6.021  0.9311 -0.1883  0.8026
  262MOL0     H36126   5.579  10.757   6.251 -0.2399 -0.0547 -1.3861
  262MOL0     H36127   5.598  10.574   6.268  1.0199 -1.2590 -2.4651
  262MOL0     H36128   5.465  10.693   6.026 -0.4803 -2.0093 -1.0208
  262MOL0     H36129   5.456  10.536   6.110  2.7026 -1.0224 -0.3947
  262MOL0     H36130   5.329  10.799   6.195  1.8871  0.7834  0.2565
  262MOL0     H36131   5.319  10.650   6.298  1.8935  1.2786 -0.2581
  262MOL0     H36132   5.206  10.538   6.110 -0.4758  1.1286 -0.7439
  262MOL0     H36133   5.214  10.686   6.014  0.6273 -1.5946 -0.3243
  262MOL0     H36134   5.084  10.656   6.281 -1.7277 -0.5989 -0.5941
  262MOL0     H36135   4.997  10.619   6.135  0.7370 -1.4250  1.4064
  262MOL0     H36136   5.984  10.293   6.184 -1.0791 -2.3456 -0.2748
  262MOL0     H36137   6.144  10.093   6.133 -1.1068 -1.1956 -3.1419
  262MOL0     H36138   6.580  10.020   5.756 -0.8861  2.3285  0.5740
  262MOL0     H36139   6.730   9.811   5.776 -0.3111 -0.4332  0.0669
  262MOL0     H36140   7.886   8.254   5.702 -0.2012  1.7396  0.5278
  262MOL0     H36141   7.897   8.226   5.446 -0.9368  1.3720 -0.3813
  262MOL0     H36142   7.624   8.358   5.040 -1.3724  2.2395  1.3174
  262MOL0     H36143   7.571   8.430   4.813 -0.0502  0.1938  0.0271
  262MOL0     H36144   7.745   8.783   4.675  4.3003 -1.8543  1.8561
  262MOL0     H36145   7.845   8.687   4.576  1.9776  5.9371  0.1402
  262MOL0     H36146   7.710   8.844   4.436 -1.3305  0.2299 -3.8061
  262MOL0     H36147   7.560   8.775   4.493  0.2637 -0.0377 -0.7418
  262MOL0     H36148   7.752   8.612   4.340  0.2043 -0.5371 -1.2555
  262MOL0     H36149   7.581   8.572   4.375  0.1655 -0.3289 -2.0294
  262MOL0     H36150   7.630   8.671   4.144 -1.1694 -0.5667  0.1110
  262MOL0     H36151   7.641   8.825   4.237  0.4017 -0.2860  0.5427
  262MOL0     H36152   7.225   8.734   4.222  0.1356  0.7810  0.3620
  262MOL0     H36153   7.907   8.680   4.798  2.3047  0.2108  0.9612
  262MOL0     H36154   8.026   8.656   5.131 -2.4878 -1.1140  0.2725
  262MOL0     H36155   8.131   8.565   5.025  0.6448  2.0546  2.2987
  262MOL0     H36156   8.062   8.711   4.972  1.2017 -0.4918 -1.5479
  263MOL0     O36157   5.105   4.093   9.155  0.4124 -0.5608  0.2900
  263MOL0     C36158   5.176   4.042   9.246  0.7136 -0.4859 -0.0460
  263MOL0     O36159   5.145   3.925   9.305 -0.5228  0.0462 -0.1833
  263MOL0     C36160   5.019   3.868   9.306  0.1537  0.1195  0.2871
  263MOL0     C36161   5.023   3.721   9.319 -0.4499 -0.8031  0.2632
  263MOL0     C36162   4.915   3.650   9.346  0.0552  0.5530  0.6856
  263MOL0     C36163   4.789   3.709   9.348  1.0822  0.7364  0.0714
  263MOL0     O36164   4.681   3.644   9.403  0.0783  0.5555  0.1758
  263MOL0     C36165   4.602   3.616   9.288  0.2089 -0.2797 -0.8820
  263MOL0     C36166   4.461   3.624   9.333  1.0852 -0.1894 -0.5604
  263MOL0     C36167   4.426   3.508   9.432 -0.3873  0.0514  0.1131
  263MOL0     C36168   4.347   3.397   9.367 -0.6293  0.5830  0.7965
  263MOL0     C36169   4.319   3.281   9.462  0.2633 -0.0201  0.5012
  263MOL0     C36170   4.248   3.162   9.394  0.8209 -0.3947  0.5659
  263MOL0     C36171   4.190   3.055   9.492 -1.2897  0.0635 -0.3212
  263MOL0     C36172   4.068   3.090   9.578  0.2270 -0.1483 -0.0838
  263MOL0     N36173   4.036   2.969   9.653  0.0068 -0.2126 -0.6312
  263MOL0     C36174   4.109   2.894   9.739  0.1832  0.1720 -1.2771
  263MOL0     C36175   4.030   2.790   9.787  0.1524 -0.1288  0.3945
  263MOL0     C36176   4.082   2.686   9.896  0.1658  0.1616  0.3779
  263MOL0     C36177   3.985   2.639   9.996 -0.3313 -0.1447 -0.6242
  263MOL0     C36178   3.925   2.758  10.090 -0.5922  0.3934  0.7421
  263MOL0     C36179   3.820   2.691  10.183 -0.5619 -0.2505 -0.1786
  263MOL0     O36180   3.904   2.632  10.295  0.5910 -0.3165  0.3486
  263MOL0     C36181   3.970   2.700  10.393  0.5485  0.4538 -0.4337
  263MOL0     C36182   4.047   2.615  10.472  0.7660  0.1589  0.2137
  263MOL0     C36183   4.126   2.667  10.577  0.2766 -0.1118  0.5305
  263MOL0     C36184   4.209   2.571  10.643 -0.8967  0.2330  0.0330
  263MOL0     C36185   4.112   2.807  10.604  0.8174 -0.6177 -0.2894
  263MOL0     C36186   4.186   2.866  10.711 -0.1072  0.0517 -0.4942
  263MOL0     O36187   4.124   2.907  10.823  0.2489 -0.2466 -0.7423
  263MOL0     C36188   4.201   2.915  10.939 -0.1211 -0.2792  0.1662
  263MOL0     C36189   4.282   3.030  10.956 -0.0927  0.7516  0.0557
  263MOL0     C36190   4.338   3.062  11.080 -0.3421  0.1123  0.8321
  263MOL0     C36191   4.334   2.977  11.189 -0.0288  1.4406  0.5981
  263MOL0     O36192   4.400   3.008  11.311 -1.0246  1.1164 -0.4490
  263MOL0     C36193   4.535   2.960  11.327 -0.4483  1.0023 -0.6560
  263MOL0     C36194   4.529   2.861  11.444  0.0140 -1.0601  1.4482
  263MOL0     C36195   4.673   2.825  11.506  0.0255  0.5318  0.1315
  263MOL0     C36196   4.769   2.949  11.534  0.1303  0.9125  0.5798
  263MOL0     C36197   4.891   2.900  11.620 -0.2717  0.0032  0.2084
  263MOL0     C36198   4.871   2.874  11.776  0.0795  0.3928  0.6608
  263MOL0     C36199   4.753   2.953  11.830  0.4563 -0.7737  0.0633
  263MOL0     C36200   4.791   3.093  11.870  0.2489  0.1989  0.1973
  263MOL0    Cl36201   4.642   3.164  11.930 -0.3936  0.3575  0.2666
  263MOL0     C36202   4.253   2.863  11.175  0.4360  0.5316 -0.1581
  263MOL0     C36203   4.178   2.839  11.059  0.6088  0.7951  0.2661
  263MOL0     O36204   4.306   2.875  10.700 -0.2548  0.0598 -0.5931
  263MOL0     C36205   4.029   2.888  10.533  0.0544  0.2750  0.5193
  263MOL0     C36206   3.946   2.833  10.431  0.2059 -0.4659  0.3346
  263MOL0     N36207   3.910   2.796   9.713 -0.4074  0.2785  0.8908
  263MOL0     N36208   3.916   2.898   9.631  0.6959 -0.2709 -0.4545
  263MOL0     C36209   4.784   3.845   9.340  0.0827  1.0511 -0.7034
  263MOL0     C36210   4.889   3.920   9.307 -1.0917 -0.0155 -0.3950
  263MOL0     C36211   5.302   4.112   9.284  0.4391 -1.2281 -0.4114
  263MOL0     C36212   5.337   4.228   9.212  0.5501 -0.5892 -0.0568
  263MOL0     C36213   5.463   4.291   9.229  0.1970 -0.7775  1.1347
  263MOL0     C36214   5.535   4.260   9.338  0.7200  0.1919 -0.3663
  263MOL0     O36215   5.640   4.323   9.393 -0.4065 -0.1415  0.1374
  263MOL0     C36216   5.732   4.392   9.315 -0.5380 -0.1676  0.5580
  263MOL0     C36217   5.815   4.499   9.390  0.0705 -0.5156  0.3984
  263MOL0     C36218   5.880   4.450   9.512  0.2590 -0.2034 -0.3568
  263MOL0     C36219   5.925   4.560   9.607  1.3182 -0.4593 -0.4048
  263MOL0     C36220   6.009   4.659   9.548 -0.2270 -0.2078  0.4299
  263MOL0     C36221   6.067   4.750   9.488  0.3456  0.0078 -0.1988
  263MOL0     C36222   5.504   4.151   9.413 -0.4047  0.0200 -0.2717
  263MOL0     C36223   5.393   4.073   9.390 -0.7539  0.2701  0.6633
  263MOL0     C36224   5.367   3.942   9.473 -0.2671 -0.2967 -0.6395
  263MOL0     H36225   5.121   3.675   9.314  0.5172  1.0827  0.9054
  263MOL0     H36226   4.925   3.542   9.345 -0.3464  0.3483 -4.0946
  263MOL0     H36227   4.602   3.512   9.255 -1.3009 -1.1628  1.6232
  263MOL0     H36228   4.619   3.679   9.199 -2.0671 -0.2455 -1.3576
  263MOL0     H36229   4.441   3.717   9.386 -0.2080 -1.2833  0.9586
  263MOL0     H36230   4.404   3.613   9.241  0.3272 -5.1431  0.2048
  263MOL0     H36231   4.519   3.469   9.473 -0.3583 -0.8385 -0.7614
  263MOL0     H36232   4.374   3.559   9.513 -0.2359  4.0452 -2.0516
  263MOL0     H36233   4.244   3.427   9.350 -0.5835 -0.3784 -1.4335
  263MOL0     H36234   4.395   3.363   9.275 -1.3705  1.8977 -0.0981
  263MOL0     H36235   4.256   3.314   9.545  1.7275  0.7929  1.3258
  263MOL0     H36236   4.412   3.242   9.505  0.9174  1.1970  0.2491
  263MOL0     H36237   4.168   3.200   9.331 -0.7706 -1.5283  1.8075
  263MOL0     H36238   4.324   3.115   9.332 -0.2834  1.8629 -2.7321
  263MOL0     H36239   4.274   3.038   9.559 -1.6462  3.3582  1.1705
  263MOL0     H36240   4.171   2.961   9.438  0.3435 -1.4511  1.5985
  263MOL0     H36241   4.077   3.186   9.630 -0.5641 -0.5543  0.8566
  263MOL0     H36242   3.989   3.104   9.503  1.8727 -2.1551 -2.3408
  263MOL0     H36243   4.213   2.920   9.757  0.0893  0.1642 -0.6988
  263MOL0     H36244   4.157   2.744   9.950 -0.4454  0.8793  0.4753
  263MOL0     H36245   4.118   2.607   9.829  1.1909 -1.2018  2.4586
  263MOL0     H36246   3.911   2.584   9.938 -1.3200  0.9641 -0.4507
  263MOL0     H36247   4.038   2.576  10.068  0.3631 -1.7571 -2.4650
  263MOL0     H36248   4.009   2.808  10.139 -0.2974 -0.7023  1.3804
  263MOL0     H36249   3.887   2.833  10.019 -2.7275 -2.3451 -1.2550
  263MOL0     H36250   3.747   2.752  10.236  0.5337  1.1483 -0.2267
  263MOL0     H36251   3.764   2.611  10.133  1.8698 -1.2139 -1.5042
  263MOL0     H36252   4.049   2.513  10.435  1.5687  1.0499 -2.4300
  263MOL0     H36253   4.165   2.472  10.630  0.2904 -0.2956 -0.0980
  263MOL0     H36254   4.219   2.590  10.751  0.3823  1.4948 -0.2728
  263MOL0     H36255   4.310   2.565  10.601 -0.2871 -3.7771  1.6142
  263MOL0     H36256   4.309   3.089  10.870  0.8228  0.9697  0.4820
  263MOL0     H36257   4.399   3.152  11.087  3.2872 -1.9462 -1.1634
  263MOL0     H36258   4.585   2.914  11.241  0.2648  0.9379 -0.2107
  263MOL0     H36259   4.608   3.034  11.360  0.3096 -0.6813  1.6177
  263MOL0     H36260   4.482   2.907  11.531 -1.4778 -1.9608  1.1457
  263MOL0     H36261   4.485   2.771  11.401  0.1597 -0.6322  0.3503
  263MOL0     H36262   4.720   2.761  11.431  0.6061  1.9178 -0.7432
  263MOL0     H36263   4.642   2.768  11.594  0.4842 -0.0003 -0.0448
  263MOL0     H36264   4.717   3.037  11.574  0.1287  0.6196  1.2212
  263MOL0     H36265   4.828   2.968  11.444  4.2936 -0.8280  2.6879
  263MOL0     H36266   4.943   2.815  11.576  2.1768  1.7383 -0.4715
  263MOL0     H36267   4.973   2.972  11.615 -1.7824  1.8059  0.1794
  263MOL0     H36268   4.954   2.910  11.839 -0.8063  1.5219  1.2344
  263MOL0     H36269   4.868   2.767  11.799  1.7304 -0.4996 -2.6705
  263MOL0     H36270   4.738   2.905  11.927 -0.8001 -0.1816  0.1830
  263MOL0     H36271   4.663   2.954  11.768 -1.0196  0.8672  2.1009
  263MOL0     H36272   4.833   3.145  11.783  1.8369  2.1929  2.0597
  263MOL0     H36273   4.866   3.081  11.949  0.4754  0.8926  0.0929
  263MOL0     H36274   4.257   2.810  11.269 -1.1200  2.0477  0.8085
  263MOL0     H36275   4.107   2.757  11.063  0.8442  0.5891  0.2253
  263MOL0     H36276   4.017   2.996  10.541 -1.3863  0.1070  1.0043
  263MOL0     H36277   3.885   2.905  10.378  1.2296  2.0387  2.3191
  263MOL0     H36278   4.695   3.896   9.374 -1.3478 -1.5389 -0.3264
  263MOL0     H36279   4.888   4.029   9.313 -1.2804 -0.0939  1.9266
  263MOL0     H36280   5.264   4.283   9.153  1.1569 -1.5170 -1.7537
  263MOL0     H36281   5.494   4.377   9.168  3.1518 -3.3449 -1.3730
  263MOL0     H36282   5.796   4.314   9.274 -1.2843 -0.6103  0.2152
  263MOL0     H36283   5.700   4.439   9.222  1.1570 -2.6609 -1.4218
  263MOL0     H36284   5.748   4.584   9.404 -2.3898 -2.2712 -0.1510
  263MOL0     H36285   5.897   4.540   9.330  2.1036 -2.2014  1.8620
  263MOL0     H36286   5.808   4.390   9.566  1.1507 -0.6606  0.3490
  263MOL0     H36287   5.965   4.384   9.492 -0.9943 -2.5083  1.5208
  263MOL0     H36288   5.975   4.521   9.696  0.2978 -0.1770  0.3052
  263MOL0     H36289   5.832   4.613   9.629  1.1572 -0.7517 -0.3643
  263MOL0     H36290   6.135   4.828   9.459 -0.5148  1.4621  1.4995
  263MOL0     H36291   5.580   4.118   9.484  2.2262  2.4367 -1.7422
  263MOL0     H36292   5.283   3.944   9.544  3.0220  1.6027  3.7234
  263MOL0     H36293   5.370   3.852   9.412  2.8010  0.8036 -2.3606
  263MOL0     H36294   5.449   3.923   9.543  0.9765 -2.0241 -2.4893
  264MOL0     O36295   2.752   2.510   9.560 -0.2898 -0.9530 -0.0321
  264MOL0     C36296   2.712   2.429   9.639 -0.0930 -0.3280  0.4489
  264MOL0     O36297   2.776   2.306   9.656 -0.4282  0.0219 -0.4248
  264MOL0     C36298   2.699   2.197   9.697 -0.4752  0.1294 -0.1569
  264MOL0     C36299   2.600   2.167   9.596 -0.5872 -0.4267 -0.6716
  264MOL0     C36300   2.518   2.061   9.615  0.0885  0.1496 -0.1895
  264MOL0     C36301   2.541   1.979   9.734  0.3005  0.3337  0.3632
  264MOL0     O36302   2.443   1.875   9.744  0.4575  0.0145  1.1276
  264MOL0     C36303   2.443   1.772   9.851  0.8048 -0.8888  0.7788
  264MOL0     C36304   2.326   1.681   9.858  0.6817  0.3889  0.0925
  264MOL0     C36305   2.184   1.742   9.830  0.5633  0.2769  0.0196
  264MOL0     C36306   2.132   1.840   9.942 -0.3471  0.4032  0.2303
  264MOL0     C36307   1.996   1.886   9.903 -0.3032 -0.2021 -0.7024
  264MOL0     C36308   1.954   1.996   9.996 -0.2358 -0.0337  0.1159
  264MOL0     C36309   1.812   1.999  10.036  0.2554 -0.3028  0.2807
  264MOL0     C36310   1.768   2.138  10.091 -0.7869  0.5888 -0.5989
  264MOL0     N36311   1.738   2.236   9.988  1.3798 -0.1083  0.0254
  264MOL0     C36312   1.820   2.327   9.920 -0.2453 -0.4394 -0.7410
  264MOL0     C36313   1.743   2.412   9.850  0.7526  0.0497  0.3273
  264MOL0     C36314   1.807   2.512   9.747  0.4595  0.4858 -0.9644
  264MOL0     C36315   1.903   2.607   9.804 -0.0131 -0.4009  0.6232
  264MOL0     C36316   1.923   2.725   9.699  0.3847 -0.0941  0.2434
  264MOL0     C36317   2.057   2.795   9.713  0.0611 -0.4713 -0.9243
  264MOL0     O36318   2.050   2.940   9.687  0.2310  0.2928  0.4935
  264MOL0     C36319   2.126   3.022   9.764 -0.2508  0.0733  0.5381
  264MOL0     C36320   2.262   2.991   9.798  0.1609 -0.3200 -0.0077
  264MOL0     C36321   2.335   3.064   9.895 -0.6767 -0.3856  0.1277
  264MOL0     C36322   2.476   3.009   9.925  0.4073  0.6159 -1.3356
  264MOL0     C36323   2.270   3.169   9.959  0.0281 -0.2625  0.1097
  264MOL0     C36324   2.335   3.256  10.064  0.1395  0.2904 -0.1007
  264MOL0     O36325   2.262   3.361  10.122 -0.1544  0.6634  0.0027
  264MOL0     C36326   2.302   3.434  10.235 -0.4489 -0.4065  0.9538
  264MOL0     C36327   2.428   3.451  10.286  1.0481 -0.8530 -0.5561
  264MOL0     C36328   2.452   3.528  10.399  0.7126  0.4205  1.3405
  264MOL0     C36329   2.346   3.586  10.459 -0.4993 -0.7744 -0.7062
  264MOL0     O36330   2.360   3.644  10.585 -0.6527  0.1371 -0.4157
  264MOL0     C36331   2.398   3.555  10.691 -0.0654  0.9216  0.1262
  264MOL0     C36332   2.397   3.626  10.823 -0.7230  0.0985 -0.2468
  264MOL0     C36333   2.517   3.728  10.831  0.7757 -0.7910 -0.1247
  264MOL0     C36334   2.578   3.717  10.979  0.7241 -0.2653  0.5386
  264MOL0     C36335   2.473   3.760  11.085 -0.4329  0.6563  0.1029
  264MOL0     C36336   2.429   3.910  11.062  0.1800 -0.9539 -0.4663
  264MOL0     C36337   2.349   3.962  11.196 -0.0224  0.0007 -0.7678
  264MOL0     C36338   2.272   4.095  11.169  0.9320 -0.3065 -0.0379
  264MOL0    Cl36339   2.381   4.230  11.133  0.0679 -0.1683 -0.5613
  264MOL0     C36340   2.215   3.582  10.412 -0.2081  0.1956  0.5166
  264MOL0     C36341   2.198   3.499  10.298  0.1842  0.1242 -0.2888
  264MOL0     O36342   2.450   3.226  10.100 -0.1333  0.1446  0.4822
  264MOL0     C36343   2.143   3.208   9.921 -0.3073 -0.1507  0.1940
  264MOL0     C36344   2.074   3.144   9.814 -0.2572  0.8109  0.5244
  264MOL0     N36345   1.608   2.382   9.881 -0.9863  0.1764  0.0645
  264MOL0     N36346   1.602   2.267   9.952 -0.1367  0.1975 -0.9403
  264MOL0     C36347   2.628   2.016   9.828 -1.0319  0.9932 -0.0376
  264MOL0     C36348   2.723   2.123   9.810  0.0335 -0.2412  0.5444
  264MOL0     C36349   2.602   2.489   9.723  0.2263 -0.5949 -0.1797
  264MOL0     C36350   2.610   2.491   9.866 -0.3381 -0.1630 -0.2247
  264MOL0     C36351   2.515   2.543   9.945  0.9478 -0.1598  1.0439
  264MOL0     C36352   2.403   2.608   9.890 -0.2952 -0.1233  0.0953
  264MOL0     O36353   2.302   2.663   9.971 -0.5386  0.0143 -0.1482
  264MOL0     C36354   2.315   2.683  10.114  1.1436  0.3928  0.1965
  264MOL0     C36355   2.218   2.794  10.160 -1.0417 -0.2485 -0.4220
  264MOL0     C36356   2.073   2.757  10.151 -0.0594  0.1089  0.6483
  264MOL0     C36357   1.989   2.875  10.179 -0.4019  1.2125 -1.5474
  264MOL0     C36358   1.853   2.832  10.202 -0.2339 -0.2379 -0.2580
  264MOL0     C36359   1.742   2.799  10.230  0.7612  0.8510 -0.4911
  264MOL0     C36360   2.385   2.594   9.752  0.0530 -0.3322  0.2051
  264MOL0     C36361   2.485   2.543   9.667 -0.9542 -0.3688 -1.1145
  264MOL0     C36362   2.460   2.557   9.522  0.3578 -0.5414  0.2924
  264MOL0     H36363   2.589   2.234   9.511  1.7053  1.4930  0.4325
  264MOL0     H36364   2.457   2.041   9.528 -3.2799 -0.0398  2.0340
  264MOL0     H36365   2.445   1.823   9.948 -4.0131  0.2426  0.5490
  264MOL0     H36366   2.535   1.715   9.845  2.3919  1.6335 -0.9339
  264MOL0     H36367   2.346   1.591   9.799 -2.1785  0.5155 -1.2655
  264MOL0     H36368   2.316   1.649   9.962 -2.8082  0.0795 -0.1928
  264MOL0     H36369   2.174   1.788   9.731 -2.2605 -0.3827 -0.0683
  264MOL0     H36370   2.126   1.650   9.838  0.5165  0.4809  3.9662
  264MOL0     H36371   2.138   1.800  10.043  0.8647 -1.3847 -0.4916
  264MOL0     H36372   2.191   1.931   9.929 -1.4927  1.1306 -0.0100
  264MOL0     H36373   1.922   1.805   9.912  0.4191 -0.9944 -1.6588
  264MOL0     H36374   1.989   1.910   9.797  3.8151 -0.7311 -1.2638
  264MOL0     H36375   2.015   1.989  10.087  2.0167 -0.8925 -1.3840
  264MOL0     H36376   1.995   2.087   9.950 -2.7952  0.6524 -0.9678
  264MOL0     H36377   1.793   1.917  10.107 -0.7969 -1.5627 -1.3744
  264MOL0     H36378   1.749   1.983   9.948 -1.0491 -1.6544  1.4059
  264MOL0     H36379   1.699   2.140  10.176 -0.4761  0.5208 -0.3423
  264MOL0     H36380   1.865   2.170  10.129 -1.5100 -0.2503  2.1951
  264MOL0     H36381   1.927   2.338   9.903 -0.1192 -0.7620 -0.1740
  264MOL0     H36382   1.727   2.578   9.712  0.1224 -0.6669 -2.4858
  264MOL0     H36383   1.856   2.453   9.669  0.4702 -0.3288 -0.3553
  264MOL0     H36384   1.874   2.655   9.898 -0.6347  2.1096 -0.7605
  264MOL0     H36385   1.999   2.558   9.822  0.5192 -0.5482 -2.1675
  264MOL0     H36386   1.923   2.686   9.596 -0.9213  2.5361 -0.8329
  264MOL0     H36387   1.841   2.797   9.708  0.0541 -0.4431  0.0685
  264MOL0     H36388   2.088   2.778   9.816  0.2038 -0.9853 -1.0485
  264MOL0     H36389   2.132   2.758   9.643  0.8917  0.1789 -0.4053
  264MOL0     H36390   2.304   2.897   9.763  1.7984 -0.0313  1.0302
  264MOL0     H36391   2.554   3.083   9.903 -0.3304  1.5044 -1.0371
  264MOL0     H36392   2.493   2.912   9.878 -3.5035 -0.7967 -0.2439
  264MOL0     H36393   2.484   2.985  10.032 -0.8426  0.5413 -1.2468
  264MOL0     H36394   2.514   3.417  10.228  3.3009  2.7231  0.4039
  264MOL0     H36395   2.555   3.529  10.432  0.0866  2.3809  3.4872
  264MOL0     H36396   2.324   3.475  10.685  3.4572 -2.6417  0.1383
  264MOL0     H36397   2.490   3.501  10.668 -1.7313 -2.8783  1.5088
  264MOL0     H36398   2.302   3.681  10.819 -1.7764 -1.6756 -1.2064
  264MOL0     H36399   2.404   3.564  10.913  1.0120 -2.2586 -1.9027
  264MOL0     H36400   2.489   3.832  10.812 -4.1807 -1.9399 -0.6244
  264MOL0     H36401   2.593   3.699  10.758 -2.3429 -0.9667 -3.5968
  264MOL0     H36402   2.664   3.782  10.996 -0.0267  1.3363 -1.3447
  264MOL0     H36403   2.607   3.612  10.991  1.5168  0.0797  1.8675
  264MOL0     H36404   2.387   3.692  11.090 -0.4340  0.7000  0.6870
  264MOL0     H36405   2.515   3.768  11.185  1.0620  2.2626 -0.6030
  264MOL0     H36406   2.364   3.926  10.976  1.4621 -0.8449 -1.4544
  264MOL0     H36407   2.520   3.969  11.049  0.5520 -1.9622 -3.0636
  264MOL0     H36408   2.424   3.980  11.274  0.9620  0.4647 -1.7928
  264MOL0     H36409   2.274   3.884  11.215 -1.4938  1.7500  1.0165
  264MOL0     H36410   2.207   4.122  11.253 -0.2331 -2.4174 -0.2010
  264MOL0     H36411   2.212   4.093  11.078  1.7859  0.0279 -0.6255
  264MOL0     H36412   2.135   3.625  10.472  1.8343 -0.2976  3.8579
  264MOL0     H36413   2.094   3.471  10.285 -0.9311  1.6131  3.8883
  264MOL0     H36414   2.082   3.283   9.970 -1.2948 -0.6876 -0.1887
  264MOL0     H36415   1.976   3.182   9.788  0.5566  1.2322 -2.1925
  264MOL0     H36416   2.641   1.963   9.922  0.7714  1.5821  0.0895
  264MOL0     H36417   2.809   2.148   9.871  1.4707 -0.6478 -1.2338
  264MOL0     H36418   2.689   2.432   9.911 -2.0870 -1.0534  1.8577
  264MOL0     H36419   2.520   2.554  10.053 -1.4709 -0.7614  1.2823
  264MOL0     H36420   2.272   2.588  10.147 -0.2685 -0.5448 -3.7902
  264MOL0     H36421   2.416   2.697  10.154  1.4618  1.6245 -0.9726
  264MOL0     H36422   2.238   2.882  10.099 -2.9086  1.7018  1.6168
  264MOL0     H36423   2.261   2.807  10.260  0.1416 -1.5952 -0.7140
  264MOL0     H36424   2.051   2.717  10.052 -1.0501  0.6707  0.6327
  264MOL0     H36425   2.049   2.676  10.220  0.8905  0.8426  1.8817
  264MOL0     H36426   1.983   2.941  10.093  0.3863  0.4810 -2.1777
  264MOL0     H36427   2.024   2.933  10.265 -0.5964  1.4465 -1.6260
  264MOL0     H36428   1.639   2.771  10.240  0.4458  2.2568  0.4740
  264MOL0     H36429   2.289   2.624   9.710 -0.2107 -1.1520  0.1978
  264MOL0     H36430   2.457   2.661   9.488  2.9379 -1.1577 -2.1581
  264MOL0     H36431   2.539   2.505   9.466  0.8212 -0.3833  0.7857
  264MOL0     H36432   2.369   2.512   9.482  1.3996 -2.2755 -0.2430
  265MOL0     O36433   3.828   6.257   0.372 -0.7759 -0.3788 -0.6430
  265MOL0     C36434   3.804   6.142   0.388  0.0006  0.4550  0.1452
  265MOL0     O36435   3.805   6.045   0.294  0.2425 -0.3863 -0.5639
  265MOL0     C36436   3.922   6.038   0.226 -0.1840 -0.2489 -0.7464
  265MOL0     C36437   4.025   5.967   0.279 -0.4174  0.6435 -0.2571
  265MOL0     C36438   4.144   5.954   0.206  0.4430  0.3462  0.1912
  265MOL0     C36439   4.150   5.986   0.066 -0.4765 -0.8211  0.0416
  265MOL0     O36440   4.258   5.981  -0.023 -0.4936 -0.7458  0.4589
  265MOL0     C36441   4.346   5.876   0.005  0.5609  0.4651  0.4649
  265MOL0     C36442   4.423   5.844  -0.126  0.4427  0.4416  0.6536
  265MOL0     C36443   4.423   5.685  -0.151  0.0779 -0.7088 -0.2346
  265MOL0     C36444   4.563   5.633  -0.146 -0.7386 -0.1181  1.3264
  265MOL0     C36445   4.619   5.649   0.001  0.1155  0.6316 -0.6388
  265MOL0     C36446   4.759   5.591   0.009  0.3086  1.1813  0.2957
  265MOL0     C36447   4.796   5.596   0.149 -1.0046  0.6600  0.1019
  265MOL0     C36448   4.752   5.474   0.233  0.6273 -0.3271 -0.7990
  265MOL0     N36449   4.634   5.484   0.330  0.3102 -0.3815 -0.1953
  265MOL0     C36450   4.634   5.430   0.462  0.1579  1.7171 -0.1809
  265MOL0     C36451   4.514   5.453   0.513  0.9450 -0.0937 -0.7868
  265MOL0     C36452   4.463   5.410   0.651 -0.2909 -0.2908 -0.7610
  265MOL0     C36453   4.309   5.422   0.678 -0.1443 -0.7683  0.2385
  265MOL0     C36454   4.235   5.288   0.650 -0.3644 -0.5854 -0.3647
  265MOL0     C36455   4.082   5.285   0.676  0.7143 -0.9186  0.3342
  265MOL0     O36456   4.037   5.151   0.655  0.3380  0.1451 -0.0042
  265MOL0     C36457   4.030   5.110   0.519  0.0221  0.1075  0.4567
  265MOL0     C36458   4.146   5.057   0.461  0.3423  0.3728 -0.3407
  265MOL0     C36459   4.145   4.998   0.339  0.2727  1.1208 -0.0305
  265MOL0     C36460   4.269   4.931   0.296 -0.3005  0.2318 -0.1710
  265MOL0     C36461   4.018   4.999   0.254 -0.3716  0.5499  0.3438
  265MOL0     C36462   4.002   4.937   0.116 -0.2800  0.4909 -0.6664
  265MOL0     O36463   4.111   4.932   0.039  0.4070 -0.5683 -0.0630
  265MOL0     C36464   4.086   4.889  -0.088 -0.9373  0.7220 -0.1280
  265MOL0     C36465   4.042   4.761  -0.133  1.8492  0.1193 -0.1751
  265MOL0     C36466   4.014   4.744  -0.266  0.7850 -0.0015 -0.2683
  265MOL0     C36467   4.027   4.840  -0.359 -0.2152 -0.8488 -0.3645
  265MOL0     O36468   3.989   4.835  -0.492  0.0204 -0.5439 -0.0188
  265MOL0     C36469   4.028   4.709  -0.555  1.1529  0.2005 -0.7660
  265MOL0     C36470   4.002   4.699  -0.707  0.5915 -0.8826 -0.2915
  265MOL0     C36471   4.091   4.802  -0.780  0.2483  0.5994 -0.6877
  265MOL0     C36472   4.090   4.794  -0.927  0.8583  0.0724 -0.7706
  265MOL0     C36473   4.149   4.920  -0.999 -0.1657  0.5205 -0.3378
  265MOL0     C36474   4.075   5.045  -0.960  0.2180  0.7475 -0.3112
  265MOL0     C36475   4.097   5.162  -1.050 -0.0032 -0.3104 -0.8222
  265MOL0     C36476   4.042   5.293  -0.980 -0.5770  0.9529  0.6335
  265MOL0    Cl36477   4.069   5.431  -1.099  0.5114 -0.0463  0.6815
  265MOL0     C36478   4.080   4.962  -0.322  0.5918 -0.3293  0.0117
  265MOL0     C36479   4.116   4.981  -0.186  0.2402 -0.0606 -0.0910
  265MOL0     O36480   3.893   4.916   0.080 -0.0761  0.1868  0.2768
  265MOL0     C36481   3.911   5.053   0.320  0.7204  0.0288  0.9399
  265MOL0     C36482   3.917   5.111   0.448  0.9236  0.1902 -0.2091
  265MOL0     N36483   4.434   5.515   0.414  0.2060 -0.5178  0.8471
  265MOL0     N36484   4.506   5.539   0.308 -0.2087  0.1424  0.2567
  265MOL0     C36485   4.036   6.041   0.006  0.0006  0.8196 -0.0045
  265MOL0     C36486   3.922   6.064   0.089 -0.5023 -0.2715 -0.3333
  265MOL0     C36487   3.761   6.104   0.524  0.4266  0.2569 -1.0514
  265MOL0     C36488   3.655   6.007   0.535  0.5973  0.5496  0.0566
  265MOL0     C36489   3.603   5.961   0.654 -0.0415 -0.9422 -0.6721
  265MOL0     C36490   3.666   6.003   0.778 -1.2545 -0.0689  0.3152
  265MOL0     O36491   3.642   5.951   0.904 -0.6366  0.0320  1.3752
  265MOL0     C36492   3.504   5.930   0.937  0.5020 -0.5362  0.2437
  265MOL0     C36493   3.487   5.881   1.081  0.2114  0.6250 -0.0621
  265MOL0     C36494   3.361   5.940   1.162 -0.5584  0.6205 -0.0942
  265MOL0     C36495   3.233   5.902   1.094  0.4497  0.3099  0.6354
  265MOL0     C36496   3.129   5.880   1.189  0.4711  0.8765  0.5553
  265MOL0     C36497   3.026   5.861   1.253  0.3685  0.7652  0.0469
  265MOL0     C36498   3.785   6.081   0.768 -0.4274  0.0012 -0.6226
  265MOL0     C36499   3.827   6.140   0.645  0.4479  0.4479 -1.7654
  265MOL0     C36500   3.950   6.233   0.654 -0.2844  0.2661  0.0334
  265MOL0     H36501   4.022   5.942   0.385 -1.4720  1.1197 -0.1587
  265MOL0     H36502   4.235   5.914   0.250 -1.2151 -2.1370  1.5505
  265MOL0     H36503   4.295   5.786   0.039  0.4336  0.8394  1.2876
  265MOL0     H36504   4.425   5.912   0.072  0.8758  1.7238 -0.5415
  265MOL0     H36505   4.375   5.891  -0.213  0.5854  0.5617  0.6393
  265MOL0     H36506   4.521   5.894  -0.128  0.2039  0.9148 -1.1101
  265MOL0     H36507   4.366   5.617  -0.087  2.3293 -0.0514  2.6860
  265MOL0     H36508   4.372   5.666  -0.246 -0.7818  4.9242 -1.2460
  265MOL0     H36509   4.565   5.528  -0.176 -2.5999 -0.8068  3.3455
  265MOL0     H36510   4.627   5.686  -0.217 -3.3196  1.2666 -0.1387
  265MOL0     H36511   4.563   5.589   0.073  2.2411  0.0728  0.6567
  265MOL0     H36512   4.624   5.750   0.043 -0.3833  1.0280 -1.5103
  265MOL0     H36513   4.761   5.486  -0.023  0.3122  0.9335  1.0910
  265MOL0     H36514   4.813   5.660  -0.057 -2.3346 -0.9134 -4.6166
  265MOL0     H36515   4.772   5.694   0.191  0.2544  1.6947 -1.4594
  265MOL0     H36516   4.905   5.592   0.142 -0.9163  1.4643  0.8894
  265MOL0     H36517   4.730   5.396   0.160  0.0878  0.2327 -1.2542
  265MOL0     H36518   4.840   5.441   0.289 -0.1878  0.6066  1.1576
  265MOL0     H36519   4.714   5.377   0.513 -0.5721 -1.1863 -1.7829
  265MOL0     H36520   4.513   5.470   0.727 -0.1278 -0.9815 -0.3133
  265MOL0     H36521   4.491   5.305   0.665 -2.8501 -1.2414 -2.0610
  265MOL0     H36522   4.304   5.438   0.786 -0.8158  1.0888 -0.0327
  265MOL0     H36523   4.269   5.506   0.622  0.6379 -0.0197  0.7731
  265MOL0     H36524   4.253   5.269   0.544 -1.5973  0.0681 -0.7111
  265MOL0     H36525   4.290   5.213   0.707 -1.9079 -1.6374 -0.2037
  265MOL0     H36526   4.069   5.335   0.773  6.6021  0.8136  0.6498
  265MOL0     H36527   4.035   5.354   0.604  3.6031 -0.1918 -1.0255
  265MOL0     H36528   4.233   5.040   0.523  1.0194 -0.5285 -1.4787
  265MOL0     H36529   4.254   4.840   0.237 -0.0406 -0.2045  0.4329
  265MOL0     H36530   4.340   4.903   0.374 -1.1087  1.0393  0.8932
  265MOL0     H36531   4.323   5.006   0.237  0.5865  2.4289  3.1690
  265MOL0     H36532   4.007   4.691  -0.057 -1.7283  0.2802 -1.4557
  265MOL0     H36533   3.983   4.642  -0.286 -2.2642  1.0994 -1.6814
  265MOL0     H36534   4.137   4.697  -0.544  0.6980 -2.9051  2.3512
  265MOL0     H36535   3.983   4.621  -0.509 -1.3354  1.0432 -1.4408
  265MOL0     H36536   4.011   4.599  -0.750 -2.5683 -1.1573 -0.6134
  265MOL0     H36537   3.903   4.742  -0.725  1.8704  1.6848 -1.7476
  265MOL0     H36538   4.194   4.784  -0.746  0.3865  2.2504 -0.1596
  265MOL0     H36539   4.063   4.900  -0.742 -2.6518  0.2580 -1.6483
  265MOL0     H36540   3.990   4.775  -0.967  2.1596 -1.5432 -3.5201
  265MOL0     H36541   4.156   4.712  -0.957  0.7393  0.1010 -1.1176
  265MOL0     H36542   4.248   4.921  -0.953 -1.4837  0.3117  2.7157
  265MOL0     H36543   4.148   4.912  -1.108  1.9134  0.4959 -0.3987
  265MOL0     H36544   4.116   5.064  -0.860  2.8939  0.5340 -1.2684
  265MOL0     H36545   3.968   5.025  -0.949  0.0427  2.6079  2.1201
  265MOL0     H36546   4.047   5.147  -1.146 -1.5037  0.2195 -0.1601
  265MOL0     H36547   4.205   5.176  -1.054  0.2799 -0.6724  2.5340
  265MOL0     H36548   4.109   5.316  -0.897 -1.2748 -1.9853  2.1376
  265MOL0     H36549   3.941   5.292  -0.938 -0.6997  5.1030  0.8067
  265MOL0     H36550   4.083   5.021  -0.413  2.6095 -3.2753 -2.0355
  265MOL0     H36551   4.150   5.078  -0.154  0.8787  0.5972 -2.5383
  265MOL0     H36552   3.821   5.047   0.260 -0.3921  0.7658  2.4603
  265MOL0     H36553   3.836   5.162   0.498 -0.0355 -3.0517  1.7753
  265MOL0     H36554   4.030   6.072  -0.097  4.8126  0.9761 -0.4328
  265MOL0     H36555   3.830   6.098   0.041 -2.6926 -2.8677  1.6871
  265MOL0     H36556   3.624   5.960   0.442 -0.4966  2.2652 -0.4934
  265MOL0     H36557   3.505   5.916   0.658 -0.1186 -0.9228 -2.0073
  265MOL0     H36558   3.448   6.024   0.937 -0.8024 -1.2908  0.9912
  265MOL0     H36559   3.443   5.854   0.887 -1.3419 -2.0096  4.3515
  265MOL0     H36560   3.564   5.907   1.154 -1.3416  0.3888  1.7486
  265MOL0     H36561   3.506   5.773   1.086  2.5629  1.0245  0.8639
  265MOL0     H36562   3.362   5.905   1.266 -2.4742  0.4515 -0.0956
  265MOL0     H36563   3.365   6.049   1.172 -1.6761  0.5373  1.9453
  265MOL0     H36564   3.244   5.812   1.034 -1.3001  0.8630 -0.5923
  265MOL0     H36565   3.214   5.973   1.013  3.4447 -0.3469 -0.7976
  265MOL0     H36566   2.927   5.847   1.291  0.2968  1.4248  0.1170
  265MOL0     H36567   3.837   6.100   0.861 -2.0543 -2.8086  0.9967
  265MOL0     H36568   4.004   6.223   0.559 -0.9796  0.5698 -0.4030
  265MOL0     H36569   3.913   6.336   0.652 -0.4929  0.1909 -0.0079
  265MOL0     H36570   4.029   6.212   0.727  2.2637  0.9712 -2.3372
  266MOL0     O36571   3.117   3.952   2.970  0.8848 -0.1085 -0.1809
  266MOL0     C36572   3.062   3.845   2.992 -0.9663  0.7053 -0.8280
  266MOL0     O36573   3.088   3.770   3.112  0.4533  0.0854  0.3053
  266MOL0     C36574   3.189   3.815   3.199 -0.4613  0.7974  0.8144
  266MOL0     C36575   3.317   3.858   3.159  0.6194  0.2810  0.7511
  266MOL0     C36576   3.422   3.887   3.239  0.4009  0.0427  0.5468
  266MOL0     C36577   3.407   3.854   3.370 -0.7239  1.0461 -0.0796
  266MOL0     O36578   3.507   3.866   3.467  0.4139  1.3227 -0.1762
  266MOL0     C36579   3.615   3.962   3.461  0.9634  0.4581  1.3687
  266MOL0     C36580   3.685   3.990   3.593 -0.9213 -0.8073  0.3295
  266MOL0     C36581   3.714   4.139   3.611  0.4838 -0.3217 -0.0063
  266MOL0     C36582   3.791   4.171   3.739  0.2023 -0.4855 -0.2203
  266MOL0     C36583   3.828   4.320   3.749  0.1864  0.0279  0.3597
  266MOL0     C36584   3.843   4.353   3.901  0.0363 -1.0353  0.1186
  266MOL0     C36585   3.894   4.505   3.897 -0.1977  0.2691  0.2554
  266MOL0     C36586   4.043   4.541   3.900 -1.1990 -0.6834  0.1926
  266MOL0     N36587   4.115   4.511   4.023 -0.2952  0.6703 -0.1465
  266MOL0     C36588   4.056   4.454   4.136 -0.5854  0.3469  0.1862
  266MOL0     C36589   4.163   4.426   4.220  0.4695 -0.3392  0.3407
  266MOL0     C36590   4.163   4.356   4.351 -1.0049 -1.0199 -0.0559
  266MOL0     C36591   4.165   4.457   4.469  0.3967 -0.5978 -0.1062
  266MOL0     C36592   4.148   4.383   4.602 -0.3152  0.5660  0.4293
  266MOL0     C36593   4.276   4.303   4.629  0.2475  0.6353 -0.1131
  266MOL0     O36594   4.276   4.289   4.768 -0.0671  0.1894  0.3271
  266MOL0     C36595   4.394   4.249   4.822 -0.6692 -0.1590 -0.1474
  266MOL0     C36596   4.410   4.291   4.956 -0.1368  0.2472 -0.3493
  266MOL0     C36597   4.527   4.259   5.036 -0.8210  0.6018  0.0267
  266MOL0     C36598   4.535   4.292   5.177 -0.9604  0.1100  0.2941
  266MOL0     C36599   4.617   4.162   4.978  0.4081 -0.9434  0.1075
  266MOL0     C36600   4.751   4.128   5.046 -0.3692 -0.4424 -0.1348
  266MOL0     O36601   4.817   4.027   4.985 -0.1436  0.5074 -0.4560
  266MOL0     C36602   4.907   3.973   5.074  0.5025  0.6518  0.7029
  266MOL0     C36603   5.042   4.011   5.102  0.4825 -0.2187  0.3455
  266MOL0     C36604   5.119   3.948   5.198 -0.6869  0.5058  0.2439
  266MOL0     C36605   5.063   3.841   5.263 -0.4934  0.3923 -0.1023
  266MOL0     O36606   5.150   3.779   5.346 -0.5185  0.0694 -0.6219
  266MOL0     C36607   5.101   3.701   5.458  0.2377 -0.0632  0.8140
  266MOL0     C36608   5.204   3.696   5.572 -0.2936  0.3103 -1.2360
  266MOL0     C36609   5.156   3.617   5.692  0.1382 -0.3750 -0.6613
  266MOL0     C36610   5.254   3.629   5.805  0.6940 -0.8626 -0.4047
  266MOL0     C36611   5.196   3.704   5.919  0.2742  0.2679 -0.2834
  266MOL0     C36612   5.289   3.721   6.045  0.2030 -0.2616 -0.0914
  266MOL0     C36613   5.196   3.767   6.168 -0.1074  0.0945 -0.5088
  266MOL0     C36614   5.146   3.921   6.167  0.2083  0.1979  0.3432
  266MOL0    Cl36615   5.060   3.961   6.321  0.4305 -0.5306 -0.6196
  266MOL0     C36616   4.934   3.797   5.240 -0.7115 -0.8334  0.0679
  266MOL0     C36617   4.860   3.854   5.142 -0.6098  0.0852 -0.2696
  266MOL0     O36618   4.793   4.187   5.145  0.5991  0.8613  0.1971
  266MOL0     C36619   4.603   4.136   4.843 -1.1331  0.4047  0.2331
  266MOL0     C36620   4.497   4.175   4.768  0.2343  0.8020 -0.4531
  266MOL0     N36621   4.273   4.449   4.143 -0.2384  0.4142 -0.4809
  266MOL0     N36622   4.251   4.504   4.034  0.2886  0.0652  0.5735
  266MOL0     C36623   3.281   3.815   3.414  0.3864  1.4241 -0.2487
  266MOL0     C36624   3.177   3.796   3.330  0.0676 -0.0669 -0.1811
  266MOL0     C36625   2.961   3.801   2.889 -1.4640 -0.9680 -0.0422
  266MOL0     C36626   2.976   3.850   2.764 -0.1060 -1.5107 -0.1344
  266MOL0     C36627   2.901   3.808   2.652  0.2254 -1.5221  0.3199
  266MOL0     C36628   2.802   3.720   2.678 -0.6282 -1.2413 -0.2785
  266MOL0     O36629   2.716   3.703   2.571  0.1680 -0.3342 -0.9161
  266MOL0     C36630   2.580   3.658   2.600 -0.5510  0.6988  0.0728
  266MOL0     C36631   2.479   3.728   2.517  0.1548  0.4079 -0.4298
  266MOL0     C36632   2.504   3.734   2.371  0.2515 -0.6564  0.2678
  266MOL0     C36633   2.502   3.595   2.311 -1.1010  0.8451  0.4646
  266MOL0     C36634   2.493   3.599   2.168  0.0750 -1.0430  0.2650
  266MOL0     C36635   2.484   3.619   2.048  0.4358 -0.0136 -0.6046
  266MOL0     C36636   2.784   3.661   2.810  0.3722 -0.6981 -0.1747
  266MOL0     C36637   2.853   3.714   2.917  0.2283 -0.7638 -0.5140
  266MOL0     C36638   2.829   3.648   3.039 -0.1135 -0.0737 -0.9700
  266MOL0     H36639   3.338   3.853   3.053  3.7954  3.1663  1.0538
  266MOL0     H36640   3.517   3.916   3.194 -0.0338  0.5711 -0.0441
  266MOL0     H36641   3.569   4.050   3.414  1.3516  0.4510  0.9751
  266MOL0     H36642   3.682   3.928   3.382 -1.0871  0.9669 -0.7206
  266MOL0     H36643   3.623   3.955   3.676  0.0443 -4.6370 -0.3983
  266MOL0     H36644   3.780   3.937   3.585 -0.0404  0.8972 -1.1939
  266MOL0     H36645   3.780   4.174   3.531  0.5904 -3.1552 -1.2696
  266MOL0     H36646   3.617   4.190   3.613  1.0953  0.9652 -1.4407
  266MOL0     H36647   3.724   4.150   3.823  3.2009 -0.8653  2.2624
  266MOL0     H36648   3.874   4.100   3.744 -0.3460 -1.4693 -2.9098
  266MOL0     H36649   3.760   4.397   3.713 -0.8214  0.2707  2.6180
  266MOL0     H36650   3.922   4.335   3.696 -0.8467  0.0550 -1.5695
  266MOL0     H36651   3.744   4.349   3.948  1.3019  0.4611  3.2375
  266MOL0     H36652   3.914   4.296   3.962 -1.2247 -0.8727  1.8319
  266MOL0     H36653   3.840   4.550   3.980  1.7339  1.9895  0.6537
  266MOL0     H36654   3.842   4.565   3.822 -0.3488  1.1527  1.0448
  266MOL0     H36655   4.090   4.500   3.810 -0.9873 -2.1712  0.9426
  266MOL0     H36656   4.046   4.648   3.878 -5.2845 -0.5964 -0.7071
  266MOL0     H36657   3.954   4.416   4.134 -0.5172  0.1571 -1.8399
  266MOL0     H36658   4.264   4.315   4.359 -0.6382 -0.0952  0.2438
  266MOL0     H36659   4.077   4.289   4.363 -2.8036  1.4900  2.3715
  266MOL0     H36660   4.256   4.517   4.464  0.5505 -0.8294 -0.0607
  266MOL0     H36661   4.072   4.514   4.459 -1.1101 -2.4627  2.2915
  266MOL0     H36662   4.120   4.454   4.680  1.4891  2.4467 -0.5428
  266MOL0     H36663   4.062   4.317   4.589 -1.0037  1.7090 -1.0804
  266MOL0     H36664   4.274   4.212   4.567  4.6151  1.0164 -1.1392
  266MOL0     H36665   4.373   4.351   4.610 -0.3444  1.6451 -0.6835
  266MOL0     H36666   4.333   4.357   4.995 -2.2377 -1.3179 -1.5600
  266MOL0     H36667   4.544   4.198   5.233 -3.8294  0.4335  1.4319
  266MOL0     H36668   4.451   4.340   5.227 -0.9858  2.4666 -1.7921
  266MOL0     H36669   4.620   4.354   5.206 -1.7229  0.8532  0.9977
  266MOL0     H36670   5.079   4.104   5.061  2.4391 -1.6204 -1.2823
  266MOL0     H36671   5.218   3.989   5.215 -0.6670  0.1715  0.9752
  266MOL0     H36672   5.007   3.739   5.499  0.6488  0.0360  1.6878
  266MOL0     H36673   5.070   3.599   5.434  0.9128 -0.2074  0.5412
  266MOL0     H36674   5.287   3.645   5.523 -0.8969  1.7173 -3.9680
  266MOL0     H36675   5.234   3.795   5.608 -0.6742 -0.6016  1.8207
  266MOL0     H36676   5.139   3.513   5.663  0.1460 -0.1192 -1.6260
  266MOL0     H36677   5.056   3.649   5.721 -0.9359 -3.3461 -0.8101
  266MOL0     H36678   5.348   3.675   5.771  1.5762 -1.7060  0.7901
  266MOL0     H36679   5.283   3.535   5.852 -0.7807  1.2603  5.7348
  266MOL0     H36680   5.162   3.801   5.882 -0.5616  0.0100 -0.2166
  266MOL0     H36681   5.112   3.642   5.951  1.0345 -0.8859 -0.4411
  266MOL0     H36682   5.367   3.794   6.025 -0.0018  0.8325  2.6529
  266MOL0     H36683   5.323   3.620   6.070  0.4284 -0.7426 -2.1707
  266MOL0     H36684   5.267   3.763   6.251  3.5443  2.3568 -3.2058
  266MOL0     H36685   5.113   3.696   6.164 -0.8353  0.9930 -2.7798
  266MOL0     H36686   5.095   3.934   6.071 -0.1573 -1.9878  0.1944
  266MOL0     H36687   5.230   3.989   6.152 -1.0070  1.3136 -1.9366
  266MOL0     H36688   4.888   3.721   5.301 -1.5244 -0.0212  0.4794
  266MOL0     H36689   4.759   3.816   5.128 -0.8221  0.4358  0.2644
  266MOL0     H36690   4.680   4.079   4.791 -1.3873 -0.7975  1.1173
  266MOL0     H36691   4.478   4.133   4.670  0.0433  0.0070 -0.0829
  266MOL0     H36692   3.289   3.800   3.522  1.3644  4.4880  0.1904
  266MOL0     H36693   3.076   3.778   3.364 -0.2186  1.2145 -0.3120
  266MOL0     H36694   3.035   3.939   2.741 -1.2265 -0.1645  1.9140
  266MOL0     H36695   2.892   3.856   2.556 -1.0878  1.6678  1.9036
  266MOL0     H36696   2.577   3.549   2.593  0.0730  0.7453 -1.3048
  266MOL0     H36697   2.547   3.665   2.704 -0.4005  2.0511  0.0407
  266MOL0     H36698   2.477   3.830   2.559  1.6255  0.6606 -0.9257
  266MOL0     H36699   2.385   3.673   2.526  0.9675 -1.1662 -1.2237
  266MOL0     H36700   2.425   3.802   2.337  1.7387  0.8374 -0.3441
  266MOL0     H36701   2.600   3.785   2.358  0.6802 -0.6400  2.8302
  266MOL0     H36702   2.407   3.544   2.328 -1.5331  1.8339  1.1268
  266MOL0     H36703   2.585   3.531   2.342 -0.6416  1.1885 -0.0325
  266MOL0     H36704   2.466   3.651   1.948 -0.1867  0.0049 -0.4923
  266MOL0     H36705   2.696   3.598   2.821  0.6289 -1.0636 -0.1998
  266MOL0     H36706   2.792   3.708   3.122  1.0706  1.4600 -1.5083
  266MOL0     H36707   2.739   3.586   3.032  0.4066 -1.0520  0.5058
  266MOL0     H36708   2.909   3.577   3.060 -0.6958 -1.5635 -3.3176
  267MOL0     O36709   3.892   5.851   6.201  0.2462 -0.2132  0.2065
  267MOL0     C36710   4.004   5.893   6.216 -0.3020 -0.4291  0.3280
  267MOL0     O36711   4.049   6.004   6.144 -0.3952  0.0778 -0.0947
  267MOL0     C36712   3.963   6.065   6.052  0.0789  0.0269  0.2464
  267MOL0     C36713   3.915   6.197   6.061 -0.0669 -1.2604 -0.1361
  267MOL0     C36714   3.860   6.266   5.956 -0.2231 -0.0232 -0.2754
  267MOL0     C36715   3.823   6.195   5.841 -0.5171 -0.6852 -0.4277
  267MOL0     O36716   3.745   6.243   5.742  0.4752  0.1864  0.3584
  267MOL0     C36717   3.619   6.178   5.723 -0.9296 -0.2873 -0.4186
  267MOL0     C36718   3.543   6.236   5.615  0.6839 -1.2038  0.8049
  267MOL0     C36719   3.388   6.197   5.609 -0.7462 -0.4111 -0.0947
  267MOL0     C36720   3.357   6.082   5.513  0.0155 -0.5736 -0.0456
  267MOL0     C36721   3.205   6.063   5.495  0.0814 -0.6838  0.4738
  267MOL0     C36722   3.159   5.933   5.425  0.2076  0.4173  0.1692
  267MOL0     C36723   3.056   5.862   5.514 -0.1548  0.1887  0.3394
  267MOL0     C36724   3.122   5.794   5.636 -0.5503  0.3528  0.2239
  267MOL0     N36725   3.148   5.646   5.628 -0.0294  0.2588  0.1836
  267MOL0     C36726   3.261   5.577   5.672 -1.3681  0.2043 -0.1869
  267MOL0     C36727   3.239   5.452   5.632 -0.1489  0.9672 -0.1665
  267MOL0     C36728   3.334   5.337   5.635 -0.7913 -0.3252  0.5537
  267MOL0     C36729   3.409   5.290   5.517 -0.7042 -0.5023  0.2630
  267MOL0     C36730   3.515   5.381   5.462 -0.5648 -0.1602  0.2590
  267MOL0     C36731   3.568   5.316   5.325  0.0928  0.3950 -1.0144
  267MOL0     O36732   3.656   5.219   5.379  0.2845 -0.1985  0.1312
  267MOL0     C36733   3.792   5.250   5.409  0.9081 -1.2647 -0.7255
  267MOL0     C36734   3.868   5.189   5.510  0.0890  0.5760  0.6495
  267MOL0     C36735   4.004   5.221   5.541  1.2278 -0.9273  0.6645
  267MOL0     C36736   4.072   5.130   5.636  1.0199 -0.2719 -0.6607
  267MOL0     C36737   4.066   5.331   5.479 -0.5447 -0.2452  0.5874
  267MOL0     C36738   4.208   5.366   5.499  0.5861 -0.0481 -0.2512
  267MOL0     O36739   4.272   5.317   5.612 -0.6052  0.6035  1.2513
  267MOL0     C36740   4.393   5.369   5.653 -0.1794 -0.3196  0.3048
  267MOL0     C36741   4.434   5.496   5.608  0.1424 -0.3555  0.0395
  267MOL0     C36742   4.566   5.537   5.640 -0.1721  0.1919 -0.4649
  267MOL0     C36743   4.657   5.452   5.703 -1.1623 -1.2198 -0.5096
  267MOL0     O36744   4.788   5.479   5.735  0.4001 -0.5256  0.2348
  267MOL0     C36745   4.821   5.626   5.738  0.1864 -0.7296 -1.2692
  267MOL0     C36746   4.889   5.672   5.602  0.5115 -0.0508  0.1591
  267MOL0     C36747   5.021   5.588   5.575 -0.0314 -0.3797 -0.3751
  267MOL0     C36748   5.017   5.525   5.444 -0.2923  0.5042 -0.0502
  267MOL0     C36749   5.148   5.441   5.419 -0.5821  0.9340 -0.7503
  267MOL0     C36750   5.170   5.321   5.515  0.6920  0.1027  0.1069
  267MOL0     C36751   5.045   5.228   5.492 -0.9705 -0.4597  0.5997
  267MOL0     C36752   5.035   5.120   5.602 -0.3885  0.4496 -0.9090
  267MOL0    Cl36753   4.974   5.200   5.753  0.3458  0.8425 -0.1509
  267MOL0     C36754   4.610   5.324   5.742  0.0735 -0.0524 -0.3152
  267MOL0     C36755   4.476   5.292   5.734 -0.1753  0.0023 -0.1120
  267MOL0     O36756   4.262   5.432   5.406 -0.5324 -0.0508  0.7587
  267MOL0     C36757   3.988   5.404   5.386  0.0484  0.2017 -0.1174
  267MOL0     C36758   3.861   5.354   5.339 -0.4777  0.7555 -0.5999
  267MOL0     N36759   3.121   5.446   5.559  0.2809 -0.4222 -0.7922
  267MOL0     N36760   3.063   5.560   5.567  0.6087 -0.0022 -1.4975
  267MOL0     C36761   3.862   6.054   5.835  0.3454 -0.4933 -0.2272
  267MOL0     C36762   3.941   6.002   5.935 -0.9092  0.3407  0.0872
  267MOL0     C36763   4.099   5.807   6.291 -0.4795 -0.3719 -0.4776
  267MOL0     C36764   4.050   5.708   6.377 -0.7716 -1.1465  0.3440
  267MOL0     C36765   4.134   5.626   6.452  0.1786  2.0103 -0.8840
  267MOL0     C36766   4.268   5.633   6.432 -0.1652 -0.5731 -0.5489
  267MOL0     O36767   4.358   5.569   6.510 -0.7074 -0.0301  0.5429
  267MOL0     C36768   4.329   5.543   6.645  0.6124 -0.1112 -0.6022
  267MOL0     C36769   4.456   5.489   6.716  0.6249  0.5678 -0.6084
  267MOL0     C36770   4.586   5.541   6.656  0.2137 -0.0293 -0.3850
  267MOL0     C36771   4.703   5.537   6.742 -0.5937 -0.2933 -1.6858
  267MOL0     C36772   4.701   5.578   6.880  0.6612 -0.6513 -0.2672
  267MOL0     C36773   4.687   5.617   6.989  0.8037 -1.5703  0.3303
  267MOL0     C36774   4.323   5.731   6.338  0.0285  1.1673 -0.3731
  267MOL0     C36775   4.237   5.814   6.263 -0.8794  0.5513  0.3599
  267MOL0     C36776   4.306   5.907   6.172 -0.8962 -0.7988 -0.0716
  267MOL0     H36777   3.944   6.272   6.134 -0.3696 -1.3620  0.0909
  267MOL0     H36778   3.826   6.367   5.974  2.1661  1.1446 -1.7235
  267MOL0     H36779   3.570   6.168   5.821  1.0832  0.4109  0.7030
  267MOL0     H36780   3.645   6.074   5.702  0.3414 -0.8290  3.1091
  267MOL0     H36781   3.546   6.344   5.630  2.6350 -0.7526 -2.1839
  267MOL0     H36782   3.572   6.227   5.510 -3.8385  0.7618 -0.8621
  267MOL0     H36783   3.366   6.176   5.714  0.7569  0.8402  0.5005
  267MOL0     H36784   3.338   6.286   5.570 -3.7402 -1.1009  1.8121
  267MOL0     H36785   3.402   6.109   5.417  0.8593  1.2836  0.8061
  267MOL0     H36786   3.403   5.994   5.558 -0.1603 -2.4020 -3.1321
  267MOL0     H36787   3.163   6.145   5.435 -2.7135 -0.0297  3.0416
  267MOL0     H36788   3.154   6.070   5.592 -2.0399  1.1491 -0.6625
  267MOL0     H36789   3.110   5.963   5.332  1.0328 -1.5846 -0.9673
  267MOL0     H36790   3.242   5.867   5.397  0.4971  0.2275  1.4370
  267MOL0     H36791   2.995   5.791   5.459  2.4507 -3.3689  1.6570
  267MOL0     H36792   2.989   5.944   5.543 -0.8397 -0.7638  1.5274
  267MOL0     H36793   3.214   5.849   5.659  2.6686 -4.5805  0.5523
  267MOL0     H36794   3.053   5.812   5.718 -0.0913 -1.3925  1.0252
  267MOL0     H36795   3.350   5.612   5.722 -1.0117 -0.5645 -0.2636
  267MOL0     H36796   3.286   5.244   5.667  1.9903 -0.5002  5.1066
  267MOL0     H36797   3.397   5.364   5.720 -1.7962  0.2375  1.1393
  267MOL0     H36798   3.477   5.213   5.558  3.1019  2.8380  0.8826
  267MOL0     H36799   3.341   5.267   5.435 -1.4991 -2.3504  1.3583
  267MOL0     H36800   3.468   5.474   5.431  1.3052  0.5661 -0.5377
  267MOL0     H36801   3.590   5.417   5.533 -0.0305 -2.5131  0.9908
  267MOL0     H36802   3.490   5.273   5.262 -1.1843 -2.5176  2.2037
  267MOL0     H36803   3.615   5.390   5.260  2.7792  0.2889  0.6621
  267MOL0     H36804   3.824   5.105   5.564  1.0501 -1.8851 -2.1446
  267MOL0     H36805   4.020   5.038   5.661  1.1771  0.2623  1.9340
  267MOL0     H36806   4.070   5.177   5.735 -0.9910  3.5663 -2.2925
  267MOL0     H36807   4.167   5.088   5.601 -0.0646 -2.1897 -1.4586
  267MOL0     H36808   4.363   5.557   5.554 -0.9063 -2.1579 -0.7201
  267MOL0     H36809   4.600   5.635   5.609  2.5657  0.4026  2.6369
  267MOL0     H36810   4.728   5.681   5.754 -2.3425 -4.5489 -1.7247
  267MOL0     H36811   4.883   5.658   5.822 -1.0961  2.5623 -1.4196
  267MOL0     H36812   4.815   5.650   5.525 -0.0369  4.4651 -0.8793
  267MOL0     H36813   4.905   5.780   5.606 -0.6656  0.1497  4.2457
  267MOL0     H36814   5.042   5.515   5.654 -3.9794  0.4514  1.7038
  267MOL0     H36815   5.107   5.655   5.573 -1.2268  1.5038  3.0574
  267MOL0     H36816   5.016   5.610   5.374  0.0099  1.2818  0.8566
  267MOL0     H36817   4.925   5.475   5.412  0.2998 -0.7388  0.1387
  267MOL0     H36818   5.144   5.404   5.316 -6.6978  0.4610 -0.7000
  267MOL0     H36819   5.241   5.499   5.426  0.3455 -0.6031 -0.0032
  267MOL0     H36820   5.189   5.353   5.618 -2.1058  0.1516  0.6992
  267MOL0     H36821   5.262   5.266   5.493  1.2145 -0.1934  2.7435
  267MOL0     H36822   5.062   5.182   5.393  4.6649 -0.6563  1.3339
  267MOL0     H36823   4.953   5.287   5.492  1.2724  3.3633  0.6888
  267MOL0     H36824   5.130   5.078   5.635 -0.3487  1.2129  0.0243
  267MOL0     H36825   4.959   5.049   5.570 -0.1704  1.2442 -3.3993
  267MOL0     H36826   4.673   5.242   5.776  0.3259 -0.8327 -2.4998
  267MOL0     H36827   4.437   5.202   5.781  1.6238  0.0001  1.5096
  267MOL0     H36828   4.021   5.499   5.345 -2.3051  3.7301  5.1726
  267MOL0     H36829   3.820   5.410   5.255  0.8918  3.1534  0.2390
  267MOL0     H36830   3.833   5.985   5.757  0.1472 -1.7493  0.9180
  267MOL0     H36831   3.950   5.894   5.928 -1.5436  0.0665  2.7223
  267MOL0     H36832   3.944   5.695   6.396 -0.9810 -0.7902 -0.5197
  267MOL0     H36833   4.089   5.543   6.505  1.8137  0.1703 -2.2131
  267MOL0     H36834   4.279   5.627   6.694  2.4395  0.0528  1.1035
  267MOL0     H36835   4.253   5.464   6.641  1.4285 -0.9395 -0.0199
  267MOL0     H36836   4.469   5.383   6.740  0.9744  0.0566 -2.8032
  267MOL0     H36837   4.443   5.528   6.818  0.4201 -2.3076  0.5447
  267MOL0     H36838   4.609   5.492   6.561  0.3896  1.9416 -1.3955
  267MOL0     H36839   4.578   5.647   6.633  5.0329  0.2600 -1.8292
  267MOL0     H36840   4.781   5.599   6.696 -1.6395  1.5132 -1.1105
  267MOL0     H36841   4.737   5.434   6.756  1.5665  0.0663 -3.6278
  267MOL0     H36842   4.673   5.664   7.084 -0.0635  1.3155 -1.0912
  267MOL0     H36843   4.431   5.746   6.332  0.5638 -2.3093 -1.2562
  267MOL0     H36844   4.415   5.899   6.184 -0.7109  3.3072  4.3360
  267MOL0     H36845   4.287   5.896   6.065  1.2009  4.7303 -1.3855
  267MOL0     H36846   4.277   6.011   6.190  3.1520  1.2163 -3.4532
  268MOL0     O36847   9.221   7.448   2.609 -0.0497 -0.1334  0.2600
  268MOL0     C36848   9.212   7.502   2.722 -0.1559 -0.2613 -0.2439
  268MOL0     O36849   9.285   7.605   2.767 -0.2452  0.4135  0.6102
  268MOL0     C36850   9.418   7.599   2.709  0.2423 -0.7843 -0.1627
  268MOL0     C36851   9.527   7.570   2.799  0.4245  0.3760 -0.0998
  268MOL0     C36852   9.659   7.607   2.758  0.8053  0.4336 -0.2332
  268MOL0     C36853   9.684   7.662   2.638 -0.3731  0.3771  0.8754
  268MOL0     O36854   9.810   7.694   2.595  0.6237 -0.6524  0.1512
  268MOL0     C36855   9.880   7.599   2.519 -0.7400  0.0549  0.5517
  268MOL0     C36856   9.982   7.517   2.608  0.0666  0.4106 -0.0034
  268MOL0     C36857  10.072   7.604   2.705  0.1607 -1.4283  0.0975
  268MOL0     C36858  10.164   7.709   2.645 -0.0460 -0.7788 -0.7551
  268MOL0     C36859  10.283   7.751   2.746  0.8553  0.0652  0.2467
  268MOL0     C36860  10.377   7.648   2.773 -0.9410  1.3030  1.3927
  268MOL0     C36861  10.463   7.598   2.646 -0.6827 -0.6057  0.3055
  268MOL0     C36862  10.570   7.514   2.704  0.8598  1.3083 -0.0180
  268MOL0     N36863  10.510   7.396   2.773 -0.3957 -0.3040 -0.0382
  268MOL0     C36864  10.507   7.388   2.912 -0.2146  0.9327  0.2783
  268MOL0     C36865  10.418   7.284   2.942 -0.4254  1.1029 -0.0314
  268MOL0     C36866  10.386   7.238   3.081 -0.3428 -0.0387  0.8005
  268MOL0     C36867  10.240   7.187   3.088 -0.1490  0.4274 -0.8613
  268MOL0     C36868  10.208   7.122   3.233  0.1683  0.6572 -0.1211
  268MOL0     C36869  10.084   7.021   3.215 -0.9531  0.9642 -0.1949
  268MOL0     O36870  10.131   6.883   3.186  1.1170  0.4485  0.4109
  268MOL0     C36871  10.042   6.776   3.161  0.2035 -0.8571 -0.0279
  268MOL0     C36872   9.906   6.770   3.195  0.3425 -0.6797 -0.4876
  268MOL0     C36873   9.821   6.670   3.173 -0.4260 -0.6895 -0.7392
  268MOL0     C36874   9.678   6.705   3.213  0.1175  0.4808  0.0611
  268MOL0     C36875   9.877   6.542   3.131  0.0236  0.3589 -0.0156
  268MOL0     C36876   9.793   6.416   3.130  0.1423 -0.7074  0.2529
  268MOL0     O36877   9.868   6.307   3.118 -0.6703 -0.4186  0.4462
  268MOL0     C36878   9.821   6.197   3.050 -0.1213  0.3214 -0.5030
  268MOL0     C36879   9.765   6.210   2.928  0.1449 -0.0062 -0.8815
  268MOL0     C36880   9.719   6.097   2.852 -0.5338 -0.1742 -0.2906
  268MOL0     C36881   9.723   5.966   2.912  0.4074 -0.1888  0.9311
  268MOL0     O36882   9.672   5.866   2.842  0.9374  0.8017 -0.4219
  268MOL0     C36883   9.689   5.723   2.895 -0.2420 -0.0645 -0.3787
  268MOL0     C36884   9.627   5.628   2.787 -0.5587  0.0090  1.1684
  268MOL0     C36885   9.726   5.584   2.669  0.0503 -0.5335 -0.8051
  268MOL0     C36886   9.649   5.485   2.582  0.7679 -0.3681 -0.0666
  268MOL0     C36887   9.703   5.476   2.437 -0.4073  0.2021 -0.8746
  268MOL0     C36888   9.845   5.405   2.434  1.1231  0.1107 -0.5897
  268MOL0     C36889   9.899   5.380   2.288 -0.1145 -0.5186 -0.7991
  268MOL0     C36890  10.029   5.308   2.299  0.7815  0.2780 -0.4852
  268MOL0    Cl36891  10.102   5.298   2.131 -0.0971 -0.4283  0.0435
  268MOL0     C36892   9.775   5.958   3.039  0.3857  0.0841  0.2598
  268MOL0     C36893   9.825   6.071   3.102  0.1312 -0.5359 -0.0334
  268MOL0     O36894   9.670   6.428   3.122  0.6245 -0.1412 -0.0201
  268MOL0     C36895  10.015   6.545   3.094 -0.7863  0.1670 -0.0594
  268MOL0     C36896  10.092   6.661   3.110 -0.2562  0.2708 -0.3729
  268MOL0     N36897  10.375   7.236   2.818  0.1189 -0.0941  0.5494
  268MOL0     N36898  10.431   7.300   2.721  0.9818 -0.1125  0.3247
  268MOL0     C36899   9.579   7.696   2.555  0.5762 -0.1418  0.3467
  268MOL0     C36900   9.450   7.668   2.589  0.7468  0.2790  0.4316
  268MOL0     C36901   9.117   7.451   2.818 -0.0265  0.1003 -0.0773
  268MOL0     C36902   9.046   7.551   2.901 -1.1623  0.5060  0.0285
  268MOL0     C36903   8.948   7.509   2.990  0.4352 -0.0205  0.5671
  268MOL0     C36904   8.922   7.375   3.011  0.5366  0.0043  0.3053
  268MOL0     O36905   8.824   7.310   3.090 -0.2286 -0.3656 -0.2479
  268MOL0     C36906   8.813   7.376   3.222 -0.4503 -0.2277  0.6902
  268MOL0     C36907   8.945   7.402   3.308  0.1062  0.0684  0.1290
  268MOL0     C36908   9.027   7.268   3.332  0.0056 -0.5501  0.0055
  268MOL0     C36909   9.159   7.299   3.408  0.5355  0.2560  0.2643
  268MOL0     C36910   9.132   7.353   3.549  0.1308  0.1309 -0.1843
  268MOL0     C36911   9.119   7.420   3.651  0.4536  0.0461  0.2626
  268MOL0     C36912   8.972   7.286   2.919 -0.5414  1.1941 -0.8473
  268MOL0     C36913   9.070   7.314   2.823 -0.6196 -0.3979  0.3971
  268MOL0     C36914   9.133   7.207   2.743 -0.4715 -0.1608 -0.1490
  268MOL0     H36915   9.515   7.535   2.901 -0.9918 -1.8673 -0.9840
  268MOL0     H36916   9.739   7.587   2.829  0.9581  0.3686 -0.4234
  268MOL0     H36917   9.945   7.647   2.446 -1.8385  0.0997 -0.4349
  268MOL0     H36918   9.816   7.543   2.450 -0.8094 -0.3968  0.9812
  268MOL0     H36919   9.918   7.448   2.663 -1.0792  2.2734  1.0960
  268MOL0     H36920  10.048   7.456   2.545  1.4464  0.0016  1.7594
  268MOL0     H36921   9.997   7.662   2.760  0.3921  0.0209 -1.0426
  268MOL0     H36922  10.104   7.521   2.767  0.8913 -1.2036  0.0296
  268MOL0     H36923  10.209   7.671   2.553  2.9181  0.4236  0.0606
  268MOL0     H36924  10.113   7.803   2.625 -0.6589  0.1844  4.0371
  268MOL0     H36925  10.238   7.780   2.841 -0.7010 -0.2116 -0.3630
  268MOL0     H36926  10.339   7.839   2.713  1.0984  0.7475  2.3166
  268MOL0     H36927  10.441   7.678   2.857  2.5642  0.8561 -0.8989
  268MOL0     H36928  10.325   7.561   2.812  1.0108 -2.1976 -2.9735
  268MOL0     H36929  10.510   7.680   2.591 -0.1299 -0.7440  0.5641
  268MOL0     H36930  10.414   7.544   2.564  1.6844  0.6303 -2.1086
  268MOL0     H36931  10.637   7.476   2.627  0.4941  2.3439 -0.8645
  268MOL0     H36932  10.632   7.577   2.769  1.7996  2.1552 -1.6828
  268MOL0     H36933  10.548   7.456   2.986  0.0922  0.5957  0.4188
  268MOL0     H36934  10.400   7.331   3.136  0.7914  0.2439  0.0781
  268MOL0     H36935  10.459   7.165   3.117 -0.3668  0.3120  1.5822
  268MOL0     H36936  10.175   7.274   3.070  0.8630  0.9132 -2.3643
  268MOL0     H36937  10.230   7.114   3.008  0.8651  0.1963 -0.7871
  268MOL0     H36938  10.299   7.071   3.267  0.9636  1.6614 -0.6901
  268MOL0     H36939  10.187   7.203   3.304 -0.6273  0.0172  0.3880
  268MOL0     H36940  10.023   7.016   3.306  2.6650  2.1135  2.5132
  268MOL0     H36941  10.030   7.057   3.127 -1.5854  1.2388  0.2943
  268MOL0     H36942   9.875   6.852   3.259 -2.8034 -1.7092 -0.4917
  268MOL0     H36943   9.657   6.812   3.222 -0.6367  0.5847 -2.1779
  268MOL0     H36944   9.661   6.660   3.311  0.0667  2.1806  0.8570
  268MOL0     H36945   9.602   6.670   3.142  1.5384  0.3054 -1.4468
  268MOL0     H36946   9.741   6.310   2.894 -0.7054  0.7363  1.6947
  268MOL0     H36947   9.667   6.127   2.761  0.4942  2.9545  0.0152
  268MOL0     H36948   9.795   5.713   2.919 -0.3286 -0.6370 -0.2226
  268MOL0     H36949   9.644   5.709   2.994  1.2830  2.3757  0.7287
  268MOL0     H36950   9.590   5.541   2.842  0.1787  1.3477  3.9520
  268MOL0     H36951   9.547   5.684   2.737  3.2133  5.0256 -0.0297
  268MOL0     H36952   9.819   5.536   2.700 -1.7877 -2.5081  2.1109
  268MOL0     H36953   9.761   5.674   2.616 -1.8362  0.4357 -0.4686
  268MOL0     H36954   9.546   5.521   2.591 -0.0898 -2.1308 -1.9463
  268MOL0     H36955   9.646   5.385   2.627 -2.1262 -0.7161 -0.8231
  268MOL0     H36956   9.635   5.426   2.367 -0.9144 -1.9461  1.0255
  268MOL0     H36957   9.710   5.578   2.401  0.8601  2.2647  4.2827
  268MOL0     H36958   9.826   5.305   2.473 -3.2356  0.2123 -1.8499
  268MOL0     H36959   9.917   5.459   2.495  1.2139 -1.4018  0.7167
  268MOL0     H36960   9.926   5.479   2.251  0.2407 -0.8363 -1.3948
  268MOL0     H36961   9.834   5.321   2.223  0.4196  1.5669 -3.3515
  268MOL0     H36962  10.015   5.214   2.353 -0.5817 -0.8332 -2.6268
  268MOL0     H36963  10.100   5.367   2.358  1.6985  2.0864 -3.2306
  268MOL0     H36964   9.776   5.861   3.089  0.4354 -0.8003 -1.3892
  268MOL0     H36965   9.837   6.080   3.210 -0.6959  2.1494 -0.0921
  268MOL0     H36966  10.047   6.450   3.051 -0.0028 -0.8631  2.5843
  268MOL0     H36967  10.192   6.643   3.072  1.2579  0.6188  3.0263
  268MOL0     H36968   9.595   7.757   2.466  1.2920  2.5922  2.2104
  268MOL0     H36969   9.377   7.697   2.514  2.0349  3.0311  0.1114
  268MOL0     H36970   9.053   7.657   2.878 -2.2780  0.9034  1.4102
  268MOL0     H36971   8.890   7.583   3.043 -1.4358 -0.6157 -0.5432
  268MOL0     H36972   8.786   7.481   3.210 -0.2338 -0.1908  0.5016
  268MOL0     H36973   8.738   7.321   3.278 -0.8060 -1.3607 -0.8233
  268MOL0     H36974   8.916   7.453   3.401  0.5171 -2.6428  1.8643
  268MOL0     H36975   9.006   7.474   3.254  1.8699 -1.8093 -0.5106
  268MOL0     H36976   8.970   7.192   3.386  2.6342 -1.2246  2.0340
  268MOL0     H36977   9.062   7.226   3.238  0.1666 -2.9685  1.0769
  268MOL0     H36978   9.222   7.366   3.349 -1.5469  0.9920 -1.2330
  268MOL0     H36979   9.214   7.205   3.422  0.7098  0.6021  2.2719
  268MOL0     H36980   9.115   7.490   3.732  1.2486  2.2482 -1.5134
  268MOL0     H36981   8.950   7.180   2.918  0.9827  0.8419 -0.5154
  268MOL0     H36982   9.088   7.111   2.768  0.1401 -0.1311  1.1875
  268MOL0     H36983   9.119   7.220   2.636  1.8353 -2.2772 -0.8075
  268MOL0     H36984   9.240   7.192   2.761 -0.5209  0.9848  1.3383
  269MOL0     O36985   8.310   3.073   3.162 -0.2005 -0.7672 -0.2362
  269MOL0     C36986   8.304   2.970   3.222 -0.1009  0.7772 -0.7853
  269MOL0     O36987   8.374   2.946   3.341 -0.3392  0.8836 -0.3852
  269MOL0     C36988   8.488   3.022   3.369 -0.7605 -0.1401 -0.5965
  269MOL0     C36989   8.567   3.110   3.288  1.5037 -1.1325  0.6435
  269MOL0     C36990   8.672   3.177   3.341  0.2010 -0.5639  0.6641
  269MOL0     C36991   8.714   3.166   3.470 -0.7106 -0.6866 -0.0383
  269MOL0     O36992   8.831   3.237   3.499 -0.4278 -0.4724 -0.3877
  269MOL0     C36993   8.896   3.233   3.623  0.2033 -0.1697  0.9793
  269MOL0     C36994   8.903   3.372   3.672  0.3226  1.1930  0.9605
  269MOL0     C36995   8.982   3.378   3.799  0.3884 -0.0522 -0.4676
  269MOL0     C36996   9.135   3.354   3.795  0.0976 -0.1804 -0.3860
  269MOL0     C36997   9.206   3.393   3.927  0.1887  0.6615  0.1772
  269MOL0     C36998   9.253   3.541   3.921 -0.0225 -0.4498 -0.3735
  269MOL0     C36999   9.340   3.580   4.046 -0.8710 -0.1769  0.4663
  269MOL0     C37000   9.371   3.733   4.045 -0.4890  0.1174 -0.0483
  269MOL0     N37001   9.465   3.761   4.155 -0.6420 -0.0710 -0.3423
  269MOL0     C37002   9.593   3.710   4.156  0.1796  1.0801 -0.6238
  269MOL0     C37003   9.656   3.773   4.257  0.7686  0.3431  0.3745
  269MOL0     C37004   9.806   3.762   4.276 -0.3785 -0.1123 -0.9972
  269MOL0     C37005   9.851   3.880   4.374  0.4110  0.4685 -0.8095
  269MOL0     C37006   9.855   4.012   4.299  0.0223 -0.3183  0.6207
  269MOL0     C37007   9.812   4.121   4.398  0.1500  0.5779  0.0583
  269MOL0     O37008   9.824   4.255   4.348  0.1590 -0.0019  0.0617
  269MOL0     C37009   9.754   4.350   4.407  0.5987 -0.4197  0.2979
  269MOL0     C37010   9.690   4.343   4.529 -0.3669  0.0881 -0.7234
  269MOL0     C37011   9.626   4.464   4.588  0.5078  0.6916 -0.1886
  269MOL0     C37012   9.559   4.437   4.715  0.2167 -0.0726  0.5465
  269MOL0     C37013   9.606   4.578   4.508 -0.7862 -0.9574 -0.0455
  269MOL0     C37014   9.551   4.709   4.563 -0.5093  0.5015 -0.2860
  269MOL0     O37015   9.503   4.801   4.471 -0.1353 -0.3772  0.2264
  269MOL0     C37016   9.487   4.925   4.528 -0.8243 -0.5047  0.3305
  269MOL0     C37017   9.366   4.987   4.497  0.3085 -0.6772 -1.0909
  269MOL0     C37018   9.337   5.113   4.548 -0.2373 -0.3612 -0.8152
  269MOL0     C37019   9.438   5.176   4.626  1.2402 -0.3849  0.2473
  269MOL0     O37020   9.395   5.289   4.694 -1.0536 -0.8148  0.0475
  269MOL0     C37021   9.494   5.398   4.720  0.6267  0.3990  0.6309
  269MOL0     C37022   9.430   5.535   4.706  1.2759  0.6815  0.3318
  269MOL0     C37023   9.458   5.580   4.561 -0.6581  0.4237  0.6827
  269MOL0     C37024   9.394   5.711   4.516  0.2467  0.9402  0.4663
  269MOL0     C37025   9.238   5.723   4.493  0.2175 -0.2583  0.6513
  269MOL0     C37026   9.186   5.854   4.447 -0.6507  0.6814 -0.2276
  269MOL0     C37027   9.246   5.904   4.316 -0.0623  0.3051  1.1016
  269MOL0     C37028   9.218   6.043   4.275 -0.6097 -0.7782  0.5984
  269MOL0    Cl37029   9.310   6.142   4.392 -0.6117 -0.3839 -0.3961
  269MOL0     C37030   9.562   5.121   4.640  0.4445  0.3751  0.3628
  269MOL0     C37031   9.593   4.992   4.590 -0.0548 -0.3533 -0.4201
  269MOL0     O37032   9.545   4.724   4.683 -1.1692  0.2161 -0.3475
  269MOL0     C37033   9.672   4.582   4.384 -0.1810  0.3107  1.2697
  269MOL0     C37034   9.753   4.476   4.341  0.2864  1.0107 -0.5504
  269MOL0     N37035   9.559   3.833   4.341  0.0159  0.6484  0.6594
  269MOL0     N37036   9.439   3.815   4.280 -0.3008 -0.8669  0.2762
  269MOL0     C37037   8.645   3.080   3.548 -1.2741  0.3622 -0.3059
  269MOL0     C37038   8.542   3.004   3.502  0.3527 -0.7255 -0.2279
  269MOL0     C37039   8.212   2.859   3.177 -0.3239 -0.5084 -0.2145
  269MOL0     C37040   8.238   2.728   3.210  0.3009  0.2528 -0.5396
  269MOL0     C37041   8.167   2.626   3.148  0.4136  0.8591  0.3261
  269MOL0     C37042   8.065   2.639   3.061  1.3238  0.1326 -0.5070
  269MOL0     O37043   8.010   2.516   3.014  0.0143 -0.2394 -0.4425
  269MOL0     C37044   7.902   2.542   2.920 -0.8717 -0.0028  0.2946
  269MOL0     C37045   7.957   2.544   2.772  0.5996 -0.4654 -0.0208
  269MOL0     C37046   7.877   2.494   2.654 -0.7705 -0.3121  0.6931
  269MOL0     C37047   7.742   2.558   2.638 -0.7169  0.3813 -0.3866
  269MOL0     C37048   7.691   2.514   2.512  1.3633 -0.5014  0.3676
  269MOL0     C37049   7.650   2.478   2.407 -0.4455  0.0363  0.7519
  269MOL0     C37050   8.035   2.766   3.023  0.1640 -1.0247  1.1773
  269MOL0     C37051   8.101   2.879   3.089 -0.5970  0.2253  0.1685
  269MOL0     C37052   8.054   3.020   3.050 -0.7547  1.0340 -0.2331
  269MOL0     H37053   8.549   3.138   3.184 -0.2233 -1.4302  0.8237
  269MOL0     H37054   8.716   3.255   3.280 -1.7016  0.7207  0.8393
  269MOL0     H37055   9.001   3.211   3.603  0.0125 -1.0364  0.8868
  269MOL0     H37056   8.854   3.156   3.688 -2.5921 -1.0047 -1.5672
  269MOL0     H37057   8.938   3.433   3.589 -0.5723 -1.1416 -1.2550
  269MOL0     H37058   8.799   3.402   3.687  0.7481  3.4497 -0.1621
  269MOL0     H37059   8.965   3.484   3.817  0.7604  1.0521 -5.3756
  269MOL0     H37060   8.939   3.317   3.879  0.0780  3.3579  2.1699
  269MOL0     H37061   9.165   3.255   3.760  0.8115 -0.3895  0.7678
  269MOL0     H37062   9.178   3.413   3.713 -0.9253 -0.1828 -0.9433
  269MOL0     H37063   9.283   3.324   3.961  0.6961  2.4243  2.9848
  269MOL0     H37064   9.134   3.390   4.009 -0.3452 -0.6209 -0.3158
  269MOL0     H37065   9.313   3.558   3.831  0.7341  1.1893  0.4062
  269MOL0     H37066   9.162   3.602   3.921  0.3447  0.1053  0.1065
  269MOL0     H37067   9.424   3.510   4.049 -1.4818 -1.1162 -1.8047
  269MOL0     H37068   9.286   3.568   4.140  0.3686  2.3784  1.5999
  269MOL0     H37069   9.417   3.766   3.952 -0.2604 -0.4039 -0.1251
  269MOL0     H37070   9.275   3.785   4.048  0.3012  1.7675 -1.8801
  269MOL0     H37071   9.641   3.648   4.081  2.2547 -0.3589  1.7651
  269MOL0     H37072   9.864   3.776   4.185  0.1945  1.8660 -0.3822
  269MOL0     H37073   9.824   3.663   4.319  3.6026  1.5919  1.8638
  269MOL0     H37074   9.779   3.881   4.456 -1.8228  0.0421 -2.6588
  269MOL0     H37075   9.951   3.856   4.412  1.5194  0.6156 -3.3826
  269MOL0     H37076   9.955   4.030   4.258 -0.4286 -0.7928 -0.7638
  269MOL0     H37077   9.771   4.014   4.229  0.5349  0.9378  0.0221
  269MOL0     H37078   9.710   4.103   4.431  0.2130  1.0130  0.5037
  269MOL0     H37079   9.888   4.123   4.477  1.6940  0.6244 -1.3620
  269MOL0     H37080   9.687   4.262   4.601 -0.7413 -0.2452 -1.1129
  269MOL0     H37081   9.547   4.336   4.755 -1.1590  1.1853  3.6739
  269MOL0     H37082   9.465   4.492   4.702  1.4873  2.2805  0.9121
  269MOL0     H37083   9.611   4.481   4.800  0.2380  1.4822 -0.2425
  269MOL0     H37084   9.289   4.946   4.434  0.8876 -0.4388 -1.9764
  269MOL0     H37085   9.242   5.162   4.528  0.0546 -0.0373 -1.4250
  269MOL0     H37086   9.518   5.377   4.825  1.3065 -1.7323  0.0923
  269MOL0     H37087   9.589   5.391   4.667 -0.0456  1.6096 -0.8061
  269MOL0     H37088   9.321   5.530   4.713  0.9159 -1.4933 -3.8937
  269MOL0     H37089   9.477   5.599   4.781 -1.8664  2.4004  1.0460
  269MOL0     H37090   9.434   5.505   4.486  1.9090 -0.1160  0.3194
  269MOL0     H37091   9.564   5.605   4.561 -0.7621  0.9507 -0.4682
  269MOL0     H37092   9.450   5.747   4.430  2.9962  0.8014  2.0549
  269MOL0     H37093   9.412   5.781   4.598  1.0745  1.0027  0.2417
  269MOL0     H37094   9.209   5.649   4.418  0.7098  0.7658 -0.5779
  269MOL0     H37095   9.189   5.701   4.589  0.7075  0.9328  1.1974
  269MOL0     H37096   9.201   5.930   4.524  2.2444  1.1007 -1.0951
  269MOL0     H37097   9.080   5.833   4.433 -0.5530 -2.0486  2.1444
  269MOL0     H37098   9.193   5.842   4.243 -2.5531  1.8284  1.4858
  269MOL0     H37099   9.352   5.882   4.305  0.4280  3.0868 -0.7435
  269MOL0     H37100   9.111   6.065   4.278 -0.1857  1.5486  0.6992
  269MOL0     H37101   9.246   6.061   4.171 -2.1058 -3.1006 -0.2635
  269MOL0     H37102   9.628   5.173   4.708 -0.7640  1.5119  0.7199
  269MOL0     H37103   9.692   4.950   4.608 -1.5549 -3.8217  0.5021
  269MOL0     H37104   9.668   4.670   4.321  0.7740 -1.2263 -1.0808
  269MOL0     H37105   9.810   4.489   4.250  2.8960 -0.4800  0.7349
  269MOL0     H37106   8.689   3.071   3.647 -2.4908  0.6738  0.2705
  269MOL0     H37107   8.497   2.929   3.567  0.8633 -0.8651 -0.0224
  269MOL0     H37108   8.319   2.715   3.281 -1.1918 -0.0997  1.2143
  269MOL0     H37109   8.189   2.522   3.166  0.1262  0.3705 -1.8586
  269MOL0     H37110   7.831   2.459   2.914 -0.0723 -0.6653 -0.1814
  269MOL0     H37111   7.849   2.633   2.951  5.5633  3.7235  2.2388
  269MOL0     H37112   8.053   2.491   2.767 -0.0150 -1.4545 -3.6346
  269MOL0     H37113   7.970   2.650   2.747 -1.3339 -0.5560 -1.6010
  269MOL0     H37114   7.927   2.511   2.558  3.2027  0.7201  2.7192
  269MOL0     H37115   7.865   2.386   2.669  0.5284 -0.4214  1.1364
  269MOL0     H37116   7.742   2.667   2.650 -1.6748  0.2060  1.8295
  269MOL0     H37117   7.680   2.506   2.712 -0.2907  2.7827  1.8072
  269MOL0     H37118   7.590   2.474   2.319  1.6727  0.9237 -0.8166
  269MOL0     H37119   7.958   2.798   2.954  0.6604  0.7609  1.3906
  269MOL0     H37120   8.015   3.068   3.140 -5.0211  0.0318 -1.3131
  269MOL0     H37121   8.135   3.075   3.002 -1.9148  1.7253 -1.4744
  269MOL0     H37122   7.972   3.018   2.978  0.6922 -0.9109 -1.9559
  270MOL0     O37123   9.756   4.617   9.644 -0.6274 -0.6506 -1.1012
  270MOL0     C37124   9.749   4.720   9.709  0.3490 -0.6195 -0.0580
  270MOL0     O37125   9.635   4.770   9.763  0.4423  0.5479  0.1937
  270MOL0     C37126   9.524   4.688   9.744 -0.1159 -0.4165  0.6740
  270MOL0     C37127   9.482   4.604   9.853  1.3367  0.0114 -0.2612
  270MOL0     C37128   9.364   4.536   9.848 -0.5497  0.9136 -0.0871
  270MOL0     C37129   9.281   4.548   9.741 -0.5673  0.2141 -1.2555
  270MOL0     O37130   9.150   4.490   9.732 -0.3532  0.6475  1.0134
  270MOL0     C37131   9.099   4.404   9.840  0.4577  0.3418  0.3788
  270MOL0     C37132   8.978   4.331   9.797  0.5473  0.3122  0.0273
  270MOL0     C37133   9.021   4.193   9.739  0.0866  0.3923 -0.4173
  270MOL0     C37134   9.062   4.201   9.593  0.4406  0.2022  0.8087
  270MOL0     C37135   9.073   4.073   9.513  0.7313  0.0781  0.3946
  270MOL0     C37136   9.191   3.982   9.551  0.7076  0.7802  0.0445
  270MOL0     C37137   9.186   3.846   9.477  0.4390 -0.1652  0.7359
  270MOL0     C37138   9.261   3.726   9.541 -0.3421  0.1780 -0.5155
  270MOL0     N37139   9.404   3.729   9.495 -0.4432 -0.1898 -0.0136
  270MOL0     C37140   9.514   3.768   9.573  0.0923  0.1338  0.2380
  270MOL0     C37141   9.610   3.815   9.478  0.5655 -0.4876  0.5602
  270MOL0     C37142   9.740   3.888   9.519  1.0049  0.2988  0.1512
  270MOL0     C37143   9.821   3.763   9.565 -0.1684 -0.0051 -0.0457
  270MOL0     C37144   9.978   3.786   9.543 -0.1697  0.5267 -0.5584
  270MOL0     C37145  10.040   3.885   9.634 -0.0793  0.4172 -0.0261
  270MOL0     O37146  10.021   3.851   9.770  0.1562 -0.2881  0.2663
  270MOL0     C37147  10.074   3.937   9.860  0.0779  0.2702 -0.4447
  270MOL0     C37148  10.142   4.056   9.831 -0.5748 -0.0356  0.7068
  270MOL0     C37149  10.207   4.134   9.930  0.4004 -0.0740  1.0004
  270MOL0     C37150  10.269   4.272   9.903 -0.1651 -0.4536  0.1241
  270MOL0     C37151  10.216   4.078  10.051 -0.5464  0.4700 -0.3709
  270MOL0     C37152  10.310   4.131  10.152 -0.3346 -0.7661 -0.3316
  270MOL0     O37153  10.419   4.204  10.114  0.0724  0.0404  0.6040
  270MOL0     C37154  10.460   4.290  10.216  0.4379 -0.5677 -1.2168
  270MOL0     C37155  10.590   4.287  10.264 -0.4452 -0.4673 -0.9709
  270MOL0     C37156  10.642   4.372  10.372  0.5682 -0.1920  0.4636
  270MOL0     C37157  10.554   4.476  10.416  0.4878  0.0277 -0.2111
  270MOL0     O37158  10.603   4.557  10.508  0.6656 -0.0662 -0.7969
  270MOL0     C37159  10.507   4.652  10.580  0.2773  0.6728  1.3682
  270MOL0     C37160  10.568   4.759  10.667  0.7788 -0.5154 -0.1875
  270MOL0     C37161  10.644   4.878  10.605 -0.3290  0.1533 -0.0649
  270MOL0     C37162  10.776   4.837  10.530  0.3220  0.0880  0.4950
  270MOL0     C37163  10.862   4.957  10.479  0.1358 -1.1579 -0.8653
  270MOL0     C37164  10.936   5.015  10.592 -0.0325  0.3264 -0.5107
  270MOL0     C37165  11.022   5.125  10.538 -0.0894  0.4133  0.2002
  270MOL0     C37166  11.155   5.089  10.482  0.1610  0.1352 -0.9104
  270MOL0    Cl37167  11.202   5.237  10.403 -0.1078  0.4431 -0.4667
  270MOL0     C37168  10.421   4.481  10.367  0.0000  0.5248  0.8606
  270MOL0     C37169  10.376   4.385  10.279  0.6111  0.3822  0.0407
  270MOL0     O37170  10.278   4.122  10.272 -0.5423 -0.4504  0.1797
  270MOL0     C37171  10.136   3.969  10.088  0.5117  0.0317  0.4928
  270MOL0     C37172  10.067   3.894   9.993 -0.4824  0.2538  0.3824
  270MOL0     N37173   9.574   3.773   9.356 -0.7894 -0.0206 -0.7019
  270MOL0     N37174   9.454   3.720   9.364 -0.9117 -0.0467 -0.8204
  270MOL0     C37175   9.312   4.631   9.635 -0.1391  0.3659 -0.7467
  270MOL0     C37176   9.442   4.692   9.630 -0.5570  0.1836  0.0323
  270MOL0     C37177   9.884   4.781   9.738  0.9935 -0.6008 -1.0100
  270MOL0     C37178   9.997   4.725   9.675 -0.3113  0.4987  0.3358
  270MOL0     C37179  10.128   4.758   9.702  0.3434 -0.4552 -0.3543
  270MOL0     C37180  10.144   4.859   9.797  0.1151 -0.5090 -1.0902
  270MOL0     O37181  10.264   4.912   9.834  0.3642 -0.5086  0.0762
  270MOL0     C37182  10.382   4.840   9.835  0.5401  0.4228  0.2645
  270MOL0     C37183  10.380   4.705   9.906 -0.3768  0.5166  0.4672
  270MOL0     C37184  10.341   4.716  10.058  0.9517  0.1302  0.7013
  270MOL0     C37185  10.416   4.808  10.153 -0.8414 -0.3984  0.2694
  270MOL0     C37186  10.550   4.758  10.160  0.2682 -0.4383 -0.2725
  270MOL0     C37187  10.665   4.725  10.185 -0.1345 -0.1733  1.1417
  270MOL0     C37188  10.028   4.928   9.851 -0.2688  0.4034 -0.0375
  270MOL0     C37189   9.904   4.884   9.839  0.4092  0.6946  0.0042
  270MOL0     C37190   9.792   4.939   9.926  0.5255 -0.1665  0.2552
  270MOL0     H37191   9.537   4.603   9.947 -0.4403  0.6818  0.8466
  270MOL0     H37192   9.350   4.466   9.929 -0.6694  0.3464 -0.5937
  270MOL0     H37193   9.071   4.457   9.932  1.2503 -0.3310  1.0306
  270MOL0     H37194   9.182   4.340   9.871  0.4405 -0.0137 -0.3004
  270MOL0     H37195   8.923   4.322   9.891  0.7127 -2.9932 -0.0673
  270MOL0     H37196   8.919   4.389   9.725  5.5870  2.9788 -2.4985
  270MOL0     H37197   9.095   4.135   9.795 -0.1863  0.2822 -0.1718
  270MOL0     H37198   8.928   4.136   9.732  0.1217  0.4547 -1.4530
  270MOL0     H37199   8.972   4.247   9.550 -1.2703 -0.7722  3.1310
  270MOL0     H37200   9.149   4.268   9.586  0.5188  0.0175 -0.1165
  270MOL0     H37201   9.088   4.104   9.409  0.2551 -0.7768  0.0593
  270MOL0     H37202   8.981   4.014   9.521  0.0480  1.3914  4.3539
  270MOL0     H37203   9.288   4.031   9.537  1.1348 -0.0709 -0.0596
  270MOL0     H37204   9.176   3.962   9.657 -0.5133 -0.1891 -0.2866
  270MOL0     H37205   9.217   3.862   9.373 -1.3104  1.7198  0.4265
  270MOL0     H37206   9.078   3.826   9.481  0.3084  0.7009  3.9992
  270MOL0     H37207   9.239   3.730   9.648 -0.7359 -4.2750 -0.2429
  270MOL0     H37208   9.226   3.635   9.492  3.0830 -0.7206 -1.5362
  270MOL0     H37209   9.509   3.793   9.679 -0.8538  3.0409 -0.4089
  270MOL0     H37210   9.729   3.960   9.601  5.1026  3.4215 -1.7177
  270MOL0     H37211   9.783   3.941   9.434 -0.3809  0.0181 -0.7590
  270MOL0     H37212   9.803   3.745   9.672 -4.2276  0.4690 -0.4883
  270MOL0     H37213   9.797   3.672   9.509 -0.1152  0.8005 -1.4317
  270MOL0     H37214  10.025   3.689   9.563 -1.6700 -0.2770 -0.7872
  270MOL0     H37215   9.993   3.810   9.438 -1.0558 -1.4773 -1.1968
  270MOL0     H37216  10.148   3.890   9.614 -0.1340 -0.3501 -0.5489
  270MOL0     H37217   9.991   3.980   9.611 -0.9884 -0.5302 -2.3997
  270MOL0     H37218  10.135   4.092   9.729  2.1105  0.8715  0.7702
  270MOL0     H37219  10.232   4.338   9.825 -2.7876 -1.0963  0.7373
  270MOL0     H37220  10.375   4.250   9.885 -0.3038 -1.4014  0.3895
  270MOL0     H37221  10.257   4.338   9.989  2.3478 -1.1880  1.1346
  270MOL0     H37222  10.646   4.202  10.227 -2.6673 -1.3297 -2.5348
  270MOL0     H37223  10.737   4.363  10.424  0.2836 -1.8347  0.7269
  270MOL0     H37224  10.431   4.694  10.513 -2.2881 -2.9606  1.6849
  270MOL0     H37225  10.448   4.592  10.650 -1.1166  1.9530  1.3505
  270MOL0     H37226  10.488   4.806  10.727  0.9803 -3.2959  2.5212
  270MOL0     H37227  10.634   4.700  10.732  0.9423 -0.9287 -0.7229
  270MOL0     H37228  10.673   4.949  10.683 -1.2152  3.4255 -2.4850
  270MOL0     H37229  10.574   4.928  10.536 -1.8308 -0.2822  1.1048
  270MOL0     H37230  10.739   4.776  10.447 -1.2199  0.5828  0.7733
  270MOL0     H37231  10.836   4.774  10.596 -2.1320 -2.4137  0.5524
  270MOL0     H37232  10.930   4.928  10.398  0.5034 -2.6260 -0.0646
  270MOL0     H37233  10.793   5.036  10.449 -1.3005 -1.6902  0.8951
  270MOL0     H37234  10.999   4.940  10.639 -1.4662 -0.1069  0.7719
  270MOL0     H37235  10.855   5.054  10.655 -0.5098  1.4635 -1.7610
  270MOL0     H37236  11.037   5.198  10.619 -0.6791  0.4452  0.2893
  270MOL0     H37237  10.963   5.177  10.461  1.3918  0.9061 -0.6405
  270MOL0     H37238  11.135   4.996  10.428 -3.5509 -1.4382  2.6852
  270MOL0     H37239  11.229   5.069  10.560  1.9030 -0.3877 -2.6163
  270MOL0     H37240  10.348   4.558  10.390  0.9775  2.0274 -0.7355
  270MOL0     H37241  10.288   4.400  10.218  0.6664 -2.4359 -0.9000
  270MOL0     H37242  10.151   3.933  10.190 -0.4505  2.4879  1.5693
  270MOL0     H37243  10.022   3.798  10.015 -0.5596  0.4869  1.2655
  270MOL0     H37244   9.248   4.631   9.548  0.1003  0.9513 -0.9256
  270MOL0     H37245   9.476   4.749   9.543 -0.2980  0.8348  0.5497
  270MOL0     H37246   9.992   4.648   9.599 -2.6338  1.5683 -0.6904
  270MOL0     H37247  10.214   4.729   9.643  0.6541  2.5664 -1.5630
  270MOL0     H37248  10.415   4.844   9.732 -1.0497  5.1689 -0.3024
  270MOL0     H37249  10.451   4.908   9.886 -2.1281  4.0494 -0.5299
  270MOL0     H37250  10.484   4.672   9.895 -1.1557 -1.4435 -2.1248
  270MOL0     H37251  10.314   4.635   9.854 -1.1221 -0.2936  2.4000
  270MOL0     H37252  10.238   4.751  10.068  0.3962 -1.6565  1.6789
  270MOL0     H37253  10.347   4.615  10.101  3.2076  0.4780  1.3371
  270MOL0     H37254  10.387   4.804  10.258  3.1640 -0.3611  1.5416
  270MOL0     H37255  10.416   4.908  10.111  0.0963 -1.1812 -1.7377
  270MOL0     H37256  10.768   4.704  10.207  0.7382  1.4316 -1.0637
  270MOL0     H37257  10.045   5.013   9.916 -1.5503  1.7099 -1.3286
  270MOL0     H37258   9.814   5.033   9.977 -0.9244 -0.2754  1.1394
  270MOL0     H37259   9.708   4.953   9.857  0.3579 -2.6408 -0.1156
  270MOL0     H37260   9.740   4.884  10.004 -2.8756  1.5533 -0.5992
  271MOL0     O37261   3.826   4.100   1.267 -0.1915  0.4303 -0.2061
  271MOL0     C37262   3.795   4.039   1.369  0.4904 -0.4561 -0.6269
  271MOL0     O37263   3.663   3.996   1.406  0.2964 -0.5735  0.2371
  271MOL0     C37264   3.549   4.017   1.329 -0.2908  0.4604 -0.1754
  271MOL0     C37265   3.534   4.094   1.212 -0.6413 -0.3877 -0.0076
  271MOL0     C37266   3.402   4.119   1.161 -0.5532  0.6535 -0.4214
  271MOL0     C37267   3.293   4.058   1.219  0.6410 -0.6083  1.0624
  271MOL0     O37268   3.160   4.061   1.174  0.0965 -0.0202 -0.1925
  271MOL0     C37269   3.131   4.098   1.037  0.6623  0.3598  0.0711
  271MOL0     C37270   3.163   4.005   0.920 -0.3619 -0.2282 -1.3181
  271MOL0     C37271   3.092   3.867   0.947 -0.0696 -0.2636 -0.4547
  271MOL0     C37272   3.105   3.769   0.825  0.9051 -0.3558 -0.3116
  271MOL0     C37273   3.026   3.642   0.863 -0.2615  0.2692  0.2970
  271MOL0     C37274   2.872   3.656   0.855  0.3056 -0.4440 -0.6496
  271MOL0     C37275   2.782   3.544   0.906  0.2605  0.2472  0.6861
  271MOL0     C37276   2.787   3.504   1.054  0.1097 -0.1615 -0.5351
  271MOL0     N37277   2.754   3.624   1.128 -0.5017 -0.2343 -0.2203
  271MOL0     C37278   2.843   3.711   1.184  0.8205 -1.2784 -0.3107
  271MOL0     C37279   2.770   3.820   1.224  0.4941 -0.0132 -0.2349
  271MOL0     C37280   2.845   3.942   1.279 -0.5132  0.1498 -0.7167
  271MOL0     C37281   2.811   3.955   1.424 -0.8433 -0.0050 -0.0067
  271MOL0     C37282   2.869   4.090   1.475 -0.2452 -1.3976 -0.1964
  271MOL0     C37283   2.790   4.135   1.591 -0.0364 -0.4796  0.5839
  271MOL0     O37284   2.866   4.227   1.663 -0.3250 -0.7676  0.1470
  271MOL0     C37285   2.819   4.288   1.779  0.2224  0.0430 -0.7803
  271MOL0     C37286   2.686   4.273   1.820  0.3467 -0.1642 -0.4401
  271MOL0     C37287   2.635   4.340   1.931  0.9799 -0.8949 -0.5651
  271MOL0     C37288   2.483   4.328   1.962 -0.2727 -1.3309 -0.4421
  271MOL0     C37289   2.720   4.430   2.001  0.4354 -0.0167  0.2309
  271MOL0     C37290   2.674   4.523   2.109  0.3509  0.0275 -0.3655
  271MOL0     O37291   2.744   4.630   2.122 -0.4023  0.0758  0.4801
  271MOL0     C37292   2.730   4.699   2.239 -0.9734  0.5968 -0.3304
  271MOL0     C37293   2.804   4.661   2.353  0.4661 -0.5900  0.4273
  271MOL0     C37294   2.796   4.742   2.468  0.7765 -0.5461 -0.3630
  271MOL0     C37295   2.714   4.856   2.481  0.6005  0.4897  0.1576
  271MOL0     O37296   2.695   4.940   2.588 -0.1005 -0.7565  1.0394
  271MOL0     C37297   2.763   4.922   2.709  0.4169  0.1017 -0.7307
  271MOL0     C37298   2.719   5.023   2.818 -1.2029  0.3575  0.0702
  271MOL0     C37299   2.573   5.049   2.806  0.1762 -0.4654 -0.9348
  271MOL0     C37300   2.518   5.113   2.933 -0.0041 -0.7559 -0.1792
  271MOL0     C37301   2.373   5.158   2.910 -0.3515 -0.1555  0.4644
  271MOL0     C37302   2.356   5.296   2.835 -0.9285 -0.0520 -0.8198
  271MOL0     C37303   2.444   5.397   2.910  0.2735 -0.3044  0.3259
  271MOL0     C37304   2.405   5.543   2.896 -0.5884  0.0832  0.4293
  271MOL0    Cl37305   2.229   5.551   2.940 -0.3528  0.1138 -0.5119
  271MOL0     C37306   2.626   4.881   2.367 -0.1787 -0.5859 -0.1590
  271MOL0     C37307   2.632   4.809   2.247  0.0086  0.2751  0.1886
  271MOL0     O37308   2.576   4.501   2.178  0.3270  0.1751 -0.2739
  271MOL0     C37309   2.856   4.440   1.956  0.2617  0.1854 -0.0444
  271MOL0     C37310   2.906   4.369   1.851 -1.1860 -0.1379 -0.2250
  271MOL0     N37311   2.637   3.798   1.196  0.1002 -0.1907 -0.3800
  271MOL0     N37312   2.632   3.677   1.137  0.0046 -0.4082 -0.4353
  271MOL0     C37313   3.310   3.972   1.324 -0.3212  0.1784 -0.3268
  271MOL0     C37314   3.437   3.959   1.381  0.6835  0.0077  0.7340
  271MOL0     C37315   3.899   3.994   1.463  0.5958 -1.1577  0.5148
  271MOL0     C37316   4.017   4.065   1.469  0.9427 -0.0217  0.6884
  271MOL0     C37317   4.111   4.023   1.553 -0.2422 -0.8633 -0.2998
  271MOL0     C37318   4.100   3.919   1.644  0.4650 -0.4798  0.5112
  271MOL0     O37319   4.205   3.909   1.735 -0.9164  0.3766 -0.1627
  271MOL0     C37320   4.200   3.824   1.851 -0.5332  0.2733 -0.7851
  271MOL0     C37321   4.248   3.677   1.827 -0.1260  0.6677  0.2849
  271MOL0     C37322   4.223   3.584   1.951 -0.6646  0.2342  0.7101
  271MOL0     C37323   4.074   3.529   1.925  0.0303 -0.6849  0.0091
  271MOL0     C37324   4.021   3.458   2.046  0.0422 -0.4938 -0.3903
  271MOL0     C37325   3.976   3.433   2.161 -0.1402 -0.9648  0.0822
  271MOL0     C37326   3.981   3.851   1.657 -0.3541 -0.1994  0.6634
  271MOL0     C37327   3.887   3.884   1.555  0.4561  0.8667 -0.1605
  271MOL0     C37328   3.768   3.799   1.567  0.0105 -0.8268  0.4398
  271MOL0     H37329   3.624   4.136   1.169 -0.9189 -1.9793 -2.2853
  271MOL0     H37330   3.417   4.179   1.072  2.0045  0.6461 -0.0610
  271MOL0     H37331   3.193   4.183   1.007 -0.0560  0.1007 -2.3379
  271MOL0     H37332   3.026   4.128   1.043  1.2534  2.3568  1.3718
  271MOL0     H37333   3.138   4.051   0.824  0.8583 -1.9324 -2.5176
  271MOL0     H37334   3.270   3.987   0.929 -0.7456 -2.4382 -0.5646
  271MOL0     H37335   3.143   3.825   1.035  3.9530 -1.1609 -2.9740
  271MOL0     H37336   2.986   3.880   0.970  0.4305  1.2612  1.2203
  271MOL0     H37337   3.040   3.814   0.750  0.7435  0.3741  0.2486
  271MOL0     H37338   3.209   3.748   0.798  1.6336  0.0670  1.8839
  271MOL0     H37339   3.063   3.598   0.956 -1.5883 -1.0896  0.2028
  271MOL0     H37340   3.036   3.569   0.782  1.8939  2.4977 -1.6114
  271MOL0     H37341   2.848   3.744   0.915  1.8262 -1.1114  1.0412
  271MOL0     H37342   2.845   3.672   0.751  5.3555  2.9095 -1.8374
  271MOL0     H37343   2.805   3.452   0.850 -1.6479  0.1155  0.0398
  271MOL0     H37344   2.674   3.559   0.894 -0.4829 -4.0931 -0.1079
  271MOL0     H37345   2.709   3.430   1.071 -0.0964  0.1001 -0.3434
  271MOL0     H37346   2.888   3.469   1.081  0.4745  0.2482 -1.3649
  271MOL0     H37347   2.950   3.713   1.198  1.0361  0.0433 -1.8878
  271MOL0     H37348   2.812   4.023   1.213  0.0205 -0.7164 -2.0930
  271MOL0     H37349   2.952   3.925   1.266 -0.2989  2.6357 -3.3545
  271MOL0     H37350   2.703   3.944   1.426 -1.0196  1.2289 -1.3009
  271MOL0     H37351   2.857   3.874   1.482 -0.9116  0.3772  0.5909
  271MOL0     H37352   2.976   4.090   1.498  0.1939  3.5715 -1.0037
  271MOL0     H37353   2.863   4.162   1.392 -3.2900 -0.5585  0.6459
  271MOL0     H37354   2.696   4.182   1.558  0.6088  1.5112  1.4421
  271MOL0     H37355   2.756   4.051   1.652 -1.1874 -1.2201 -0.9827
  271MOL0     H37356   2.613   4.210   1.770 -1.8659  1.1100  1.0060
  271MOL0     H37357   2.469   4.269   2.053 -2.3000  0.5720  0.5850
  271MOL0     H37358   2.426   4.286   1.879 -2.5821 -2.6030  1.6465
  271MOL0     H37359   2.436   4.426   1.977 -0.9476 -1.6772 -0.2468
  271MOL0     H37360   2.879   4.583   2.342 -0.4039 -1.4853  0.7225
  271MOL0     H37361   2.867   4.726   2.549  0.8149  1.2328  0.0091
  271MOL0     H37362   2.723   4.831   2.755 -0.0666  1.5818  1.9630
  271MOL0     H37363   2.871   4.914   2.692  0.6825  1.1431  0.3296
  271MOL0     H37364   2.742   4.987   2.919  1.7805 -2.1945 -1.3527
  271MOL0     H37365   2.772   5.117   2.804 -1.4581  0.5079  0.1063
  271MOL0     H37366   2.519   4.955   2.793 -1.1031 -0.1467  1.5128
  271MOL0     H37367   2.559   5.115   2.720  2.1870  0.1607 -0.8432
  271MOL0     H37368   2.589   5.189   2.965  0.5453 -1.1251 -0.5028
  271MOL0     H37369   2.507   5.039   3.013 -0.8429  0.2613  0.6692
  271MOL0     H37370   2.313   5.084   2.856 -1.8481 -0.1399  2.0340
  271MOL0     H37371   2.321   5.157   3.006 -3.9384 -1.1629 -1.3099
  271MOL0     H37372   2.248   5.314   2.839 -0.7158  1.7558 -1.9116
  271MOL0     H37373   2.381   5.297   2.729 -1.7326 -0.9694 -1.0251
  271MOL0     H37374   2.549   5.371   2.893 -0.0754 -0.8423 -1.1619
  271MOL0     H37375   2.424   5.368   3.014  2.9569 -1.3162  0.6397
  271MOL0     H37376   2.436   5.582   2.799  1.1380  0.5053  1.1106
  271MOL0     H37377   2.460   5.600   2.971  1.5606 -1.3268  0.0114
  271MOL0     H37378   2.552   4.960   2.372  0.5839  0.1533 -0.3013
  271MOL0     H37379   2.564   4.822   2.164 -0.9274 -0.5814  0.7998
  271MOL0     H37380   2.918   4.508   2.014 -0.1443 -1.6980  2.8100
  271MOL0     H37381   3.012   4.382   1.833 -1.3265 -0.4860 -1.3986
  271MOL0     H37382   3.222   3.927   1.369  0.9499 -4.0563 -1.6240
  271MOL0     H37383   3.446   3.918   1.481  3.7960  2.5886  1.6770
  271MOL0     H37384   4.021   4.158   1.413  0.9958 -0.5823 -0.2564
  271MOL0     H37385   4.205   4.075   1.567 -1.8402  2.0011  0.5201
  271MOL0     H37386   4.276   3.860   1.921  0.3323 -3.6774  0.5748
  271MOL0     H37387   4.107   3.820   1.909  2.6001 -0.4102  4.9650
  271MOL0     H37388   4.356   3.685   1.810 -0.2683  1.9115 -0.1411
  271MOL0     H37389   4.198   3.640   1.737  2.2183  0.0560 -0.8516
  271MOL0     H37390   4.297   3.507   1.972 -0.4016  0.2544 -0.1205
  271MOL0     H37391   4.216   3.646   2.041 -0.6842  0.9005  0.2624
  271MOL0     H37392   4.070   3.470   1.833  0.9205 -0.1067 -0.4125
  271MOL0     H37393   4.010   3.615   1.906  0.9155  0.7355  2.9089
  271MOL0     H37394   3.942   3.400   2.257  1.7877  1.4594  1.7235
  271MOL0     H37395   3.965   3.778   1.736  0.7148  1.5806  2.6254
  271MOL0     H37396   3.791   3.713   1.630 -0.8676 -0.2530  1.6054
  271MOL0     H37397   3.687   3.854   1.616  0.9775 -1.1775  2.5587
  271MOL0     H37398   3.713   3.758   1.482  1.3423 -0.5251 -0.5906
  272MOL0     O37399   6.541   1.213   4.162 -0.3864  0.0099  0.3572
  272MOL0     C37400   6.510   1.172   4.044  0.1627  0.0710 -0.4477
  272MOL0     O37401   6.604   1.152   3.948 -0.2514 -0.6454 -0.1013
  272MOL0     C37402   6.741   1.191   3.956 -0.2429 -0.2195 -1.2834
  272MOL0     C37403   6.799   1.249   3.850 -1.2269 -0.2463 -0.4140
  272MOL0     C37404   6.933   1.287   3.863 -0.9644  0.0722  0.1071
  272MOL0     C37405   7.014   1.251   3.962 -0.6607 -0.5337 -0.5362
  272MOL0     O37406   7.148   1.274   3.955 -0.3202  0.8189  0.4813
  272MOL0     C37407   7.222   1.162   4.002 -0.5570 -0.3768 -0.7270
  272MOL0     C37408   7.364   1.167   3.940  0.2448 -0.2092 -0.5295
  272MOL0     C37409   7.379   1.106   3.801 -0.0806  0.2533 -0.3029
  272MOL0     C37410   7.273   1.130   3.696  0.0249 -0.8470 -0.6800
  272MOL0     C37411   7.314   1.045   3.569  0.2424  0.0562 -0.2796
  272MOL0     C37412   7.252   1.098   3.443 -0.9777  0.3725  0.5122
  272MOL0     C37413   7.252   0.998   3.325  0.1914 -1.8347  0.9573
  272MOL0     C37414   7.179   1.056   3.194 -1.5944 -0.1543  0.0280
  272MOL0     N37415   7.278   1.155   3.146  0.1388  0.4369 -0.1698
  272MOL0     C37416   7.242   1.284   3.133  0.4725 -0.7653 -0.5630
  272MOL0     C37417   7.353   1.351   3.093  0.3528  0.4948  0.3442
  272MOL0     C37418   7.374   1.501   3.074 -0.7648 -0.7032 -0.6813
  272MOL0     C37419   7.336   1.550   2.940  0.7696  0.5122 -0.0416
  272MOL0     C37420   7.390   1.682   2.915  0.2855 -0.3338 -1.0072
  272MOL0     C37421   7.313   1.746   2.799  0.5503  0.8341 -0.0210
  272MOL0     O37422   7.373   1.871   2.764  0.2871  0.7293  0.2503
  272MOL0     C37423   7.328   1.937   2.663  0.2339  0.9420  0.2074
  272MOL0     C37424   7.413   2.038   2.614 -0.3474 -0.6066 -0.5626
  272MOL0     C37425   7.377   2.118   2.504 -0.2389  0.6403  1.0464
  272MOL0     C37426   7.481   2.206   2.443  0.5042 -0.4566  0.1224
  272MOL0     C37427   7.252   2.103   2.446  0.2254  0.5333  0.7527
  272MOL0     C37428   7.216   2.175   2.318  0.4048  0.6659 -0.6486
  272MOL0     O37429   7.284   2.157   2.187  0.2867  0.6700  0.3120
  272MOL0     C37430   7.381   2.061   2.187  0.0555  0.0167 -0.6900
  272MOL0     C37431   7.498   2.117   2.142 -0.4914 -0.3440 -0.0472
  272MOL0     C37432   7.612   2.037   2.128  0.3988 -0.4458 -0.2431
  272MOL0     C37433   7.593   1.901   2.155  0.1189  1.1086 -0.1937
  272MOL0     O37434   7.688   1.802   2.139  0.2059  0.1307 -0.4828
  272MOL0     C37435   7.821   1.840   2.131 -0.3205  0.0373 -0.1615
  272MOL0     C37436   7.865   1.856   1.982 -0.6590 -0.4778 -0.3082
  272MOL0     C37437   7.856   1.738   1.892 -0.5660 -1.8868 -0.6277
  272MOL0     C37438   7.932   1.620   1.948 -0.8328  0.6004  1.1182
  272MOL0     C37439   7.903   1.496   1.860 -0.0165  0.2256  0.6388
  272MOL0     C37440   7.984   1.379   1.921  0.3855 -0.3058  0.1720
  272MOL0     C37441   7.939   1.239   1.871 -0.4660 -0.3917  0.5235
  272MOL0     C37442   8.024   1.138   1.948 -0.2326 -0.0050  0.1683
  272MOL0    Cl37443   7.958   1.107   2.115 -0.0025 -0.4582 -0.4841
  272MOL0     C37444   7.466   1.841   2.174  0.5201 -0.6699  1.3457
  272MOL0     C37445   7.358   1.925   2.198  0.9795  1.2881  0.6222
  272MOL0     O37446   7.124   2.261   2.337  0.0402  0.0146  0.4514
  272MOL0     C37447   7.163   2.007   2.504 -0.5342  0.5707 -0.3199
  272MOL0     C37448   7.204   1.920   2.600 -0.3801 -0.1462 -0.5974
  272MOL0     N37449   7.444   1.251   3.060  1.0585 -0.7605 -0.3765
  272MOL0     N37450   7.402   1.130   3.101 -0.1362 -0.4365 -0.4878
  272MOL0     C37451   6.964   1.168   4.060 -0.3772 -0.8541 -0.6015
  272MOL0     C37452   6.825   1.143   4.066 -0.1504 -0.3704  0.3929
  272MOL0     C37453   6.366   1.142   4.015 -0.0826  0.3845  0.5566
  272MOL0     C37454   6.335   1.073   3.897  0.0230  0.0334 -0.1981
  272MOL0     C37455   6.204   1.032   3.873 -0.4124  0.1140 -0.8225
  272MOL0     C37456   6.095   1.057   3.959 -0.3594 -0.7640  0.8668
  272MOL0     O37457   5.963   1.024   3.939  0.7054 -0.1990  0.2954
  272MOL0     C37458   5.930   0.950   3.818 -0.0327  0.1576 -0.4009
  272MOL0     C37459   5.778   0.916   3.812 -0.0672 -1.0524 -0.3462
  272MOL0     C37460   5.723   0.823   3.914 -0.5421  0.1470 -0.2660
  272MOL0     C37461   5.569   0.814   3.894 -0.2473 -0.0318 -0.6334
  272MOL0     C37462   5.519   0.708   3.986 -0.3529 -0.6939  0.1999
  272MOL0     C37463   5.488   0.617   4.061  0.6286  0.8280  0.7156
  272MOL0     C37464   6.131   1.136   4.072  0.5980 -0.1609 -0.3750
  272MOL0     C37465   6.256   1.183   4.092 -0.1891 -0.0615 -0.7402
  272MOL0     C37466   6.267   1.286   4.202  0.1447 -0.0814  0.3472
  272MOL0     H37467   6.749   1.290   3.763 -0.5395  1.2935 -0.1087
  272MOL0     H37468   6.987   1.329   3.778 -1.7988  1.0735  0.0450
  272MOL0     H37469   7.179   1.063   3.985  0.9015 -1.0456 -0.6993
  272MOL0     H37470   7.230   1.180   4.109 -1.4655  0.5161 -0.7996
  272MOL0     H37471   7.387   1.272   3.919 -0.2948 -0.2014 -1.1045
  272MOL0     H37472   7.443   1.125   4.003  0.7516  0.4861 -0.6804
  272MOL0     H37473   7.459   1.159   3.750  0.1321 -1.3212 -1.6895
  272MOL0     H37474   7.397   0.999   3.816 -0.8720  0.4262  2.3326
  272MOL0     H37475   7.176   1.092   3.727 -0.1119  0.0454 -0.0069
  272MOL0     H37476   7.267   1.234   3.665 -1.1368 -1.6602 -3.5314
  272MOL0     H37477   7.283   0.940   3.575  1.3827 -0.2520  0.4555
  272MOL0     H37478   7.423   1.032   3.566  0.2399 -1.1794  2.2986
  272MOL0     H37479   7.147   1.122   3.463 -1.0198  0.6640 -0.0361
  272MOL0     H37480   7.307   1.185   3.406 -0.6104  0.2944  0.8676
  272MOL0     H37481   7.202   0.903   3.348 -2.1150 -0.7467  0.6823
  272MOL0     H37482   7.353   0.959   3.309  0.0274 -1.3659 -1.7035
  272MOL0     H37483   7.177   0.980   3.116  0.5143  0.9065 -1.1577
  272MOL0     H37484   7.080   1.096   3.219 -0.7439  3.1941 -1.3950
  272MOL0     H37485   7.142   1.327   3.143  0.9772  0.6391 -1.1940
  272MOL0     H37486   7.482   1.508   3.089 -0.6955 -1.6574 -0.7246
  272MOL0     H37487   7.333   1.559   3.157  0.5335 -1.0860  0.2637
  272MOL0     H37488   7.371   1.481   2.863 -0.2484  1.0255 -1.0010
  272MOL0     H37489   7.226   1.543   2.942  0.7764 -0.6022 -1.6521
  272MOL0     H37490   7.384   1.742   3.006 -0.4342 -3.2603  1.0263
  272MOL0     H37491   7.497   1.669   2.896  0.0816 -1.8218 -1.2551
  272MOL0     H37492   7.310   1.671   2.720 -2.3376 -0.8006  1.4665
  272MOL0     H37493   7.208   1.751   2.831  0.2324 -2.0922 -0.3435
  272MOL0     H37494   7.510   2.048   2.663 -1.3493  2.3258  1.0736
  272MOL0     H37495   7.556   2.140   2.398 -1.1912 -0.0764 -3.5733
  272MOL0     H37496   7.515   2.272   2.524 -3.2774  0.2326  1.3245
  272MOL0     H37497   7.448   2.269   2.361  1.4271 -0.7136 -0.4661
  272MOL0     H37498   7.514   2.224   2.140  0.2860 -0.2173  3.8910
  272MOL0     H37499   7.706   2.087   2.111 -0.8511  2.0091 -0.3423
  272MOL0     H37500   7.848   1.933   2.183  1.0780 -1.1959  1.4073
  272MOL0     H37501   7.881   1.764   2.181  0.3790 -0.2471 -1.3913
  272MOL0     H37502   7.814   1.944   1.944  1.3832  0.8026 -0.2065
  272MOL0     H37503   7.965   1.897   1.976 -0.7132  0.5516  3.2017
  272MOL0     H37504   7.912   1.785   1.810 -1.7468  0.6174 -0.0782
  272MOL0     H37505   7.752   1.719   1.864 -1.3683  1.7222 -0.5714
  272MOL0     H37506   7.907   1.600   2.052 -1.3878 -2.7389  0.4398
  272MOL0     H37507   8.039   1.647   1.947 -1.2109  2.1991  0.1745
  272MOL0     H37508   7.802   1.461   1.885 -0.3019  1.5936  1.5158
  272MOL0     H37509   7.931   1.504   1.755  1.6069  3.0889  1.1814
  272MOL0     H37510   7.993   1.391   2.030  2.0047  0.3836 -0.0046
  272MOL0     H37511   8.087   1.396   1.888  0.3115  1.5066  0.7303
  272MOL0     H37512   7.944   1.226   1.763  0.5489 -0.5998  0.5865
  272MOL0     H37513   7.832   1.235   1.895 -0.3528  0.9089  1.4037
  272MOL0     H37514   8.129   1.168   1.953  1.3300 -4.3350 -2.1699
  272MOL0     H37515   8.018   1.040   1.901 -1.8748  0.3230 -0.3695
  272MOL0     H37516   7.445   1.735   2.176 -2.3688 -0.3704 -2.1387
  272MOL0     H37517   7.257   1.890   2.219  1.4156 -0.4851 -0.1555
  272MOL0     H37518   7.068   1.984   2.456 -1.2403  0.9242  0.8702
  272MOL0     H37519   7.137   1.840   2.631  1.0145 -0.8072  0.9101
  272MOL0     H37520   7.016   1.124   4.144 -0.2948 -1.5391 -0.9968
  272MOL0     H37521   6.775   1.082   4.139  0.6520 -0.9136  0.5008
  272MOL0     H37522   6.411   1.029   3.833 -0.1846 -2.3152  1.0677
  272MOL0     H37523   6.191   1.001   3.770  3.3936 -0.6579 -1.2341
  272MOL0     H37524   5.935   1.010   3.726 -2.0381 -1.5429 -1.6872
  272MOL0     H37525   5.990   0.859   3.822  1.9738  1.4055 -0.3735
  272MOL0     H37526   5.760   0.865   3.717 -4.6165 -2.4214  0.9972
  272MOL0     H37527   5.719   1.008   3.812 -2.1594 -2.3261  0.2954
  272MOL0     H37528   5.786   0.734   3.906  2.3522  1.8327  1.4266
  272MOL0     H37529   5.752   0.870   4.009 -3.0313  1.5829 -0.1406
  272MOL0     H37530   5.541   0.795   3.791 -2.9083  0.9306 -0.1501
  272MOL0     H37531   5.524   0.908   3.928  1.5529  0.4204  0.6743
  272MOL0     H37532   5.471   0.543   4.137 -1.6460  1.1227  0.5500
  272MOL0     H37533   6.060   1.165   4.149  0.9640 -1.5487  0.5075
  272MOL0     H37534   6.331   1.238   4.276  0.4037 -0.7507 -0.3040
  272MOL0     H37535   6.319   1.378   4.172  2.8813 -1.2335  1.2520
  272MOL0     H37536   6.171   1.312   4.247 -0.6525  1.1682 -1.9171
  273MOL0     O37537  10.718   9.647   7.662 -0.4909  1.0171 -0.3180
  273MOL0     C37538  10.675   9.568   7.577 -0.2818  0.9212 -0.3014
  273MOL0     O37539  10.617   9.446   7.608  0.4874 -0.1625 -0.1693
  273MOL0     C37540  10.641   9.390   7.738  0.6613  0.0757  0.0745
  273MOL0     C37541  10.761   9.337   7.786  1.1775 -1.4347  0.2953
  273MOL0     C37542  10.773   9.298   7.923 -0.5695 -0.3189  0.6718
  273MOL0     C37543  10.653   9.295   8.001 -0.9985 -0.7484  0.0867
  273MOL0     O37544  10.665   9.262   8.137  0.3879 -0.7596 -0.0645
  273MOL0     C37545  10.691   9.366   8.235 -0.0563  0.3027  0.6015
  273MOL0     C37546  10.669   9.316   8.378 -0.6861  0.0999  0.9561
  273MOL0     C37547  10.524   9.263   8.398 -0.6039  0.2465 -0.0858
  273MOL0     C37548  10.428   9.382   8.421 -0.1355 -0.0816 -0.6106
  273MOL0     C37549  10.281   9.331   8.380 -0.2193  0.5575 -0.3329
  273MOL0     C37550  10.180   9.452   8.380 -0.9998 -0.3071 -0.3879
  273MOL0     C37551  10.044   9.425   8.320  0.2141 -0.2162  0.2891
  273MOL0     C37552  10.041   9.419   8.170  0.4992 -0.1470  0.7280
  273MOL0     N37553   9.912   9.363   8.126 -0.5147  1.4725  0.5032
  273MOL0     C37554   9.895   9.228   8.115 -0.0188  0.7869  0.4974
  273MOL0     C37555   9.761   9.218   8.087 -0.4986 -0.3001 -0.5923
  273MOL0     C37556   9.691   9.096   8.059 -0.0022 -0.2521  0.9993
  273MOL0     C37557   9.620   9.036   8.181  0.0209  0.8589 -1.0145
  273MOL0     C37558   9.542   8.907   8.158 -1.1713  0.9081  0.6509
  273MOL0     C37559   9.497   8.846   8.289 -0.2594  0.8228  0.0742
  273MOL0     O37560   9.590   8.746   8.332  0.2222 -0.1918 -0.4471
  273MOL0     C37561   9.554   8.661   8.439 -0.0350 -0.2402 -0.1343
  273MOL0     C37562   9.651   8.609   8.514  0.2030  0.0169 -0.0883
  273MOL0     C37563   9.640   8.513   8.617 -1.9284  0.0605 -0.1503
  273MOL0     C37564   9.769   8.451   8.667 -0.6022  0.1018 -0.3929
  273MOL0     C37565   9.510   8.476   8.657  0.0346  0.8997  0.4792
  273MOL0     C37566   9.480   8.376   8.763 -0.0251 -0.3590  0.0739
  273MOL0     O37567   9.359   8.305   8.756  0.5057 -0.2537 -0.5805
  273MOL0     C37568   9.294   8.283   8.878 -0.0174  0.1050  0.0847
  273MOL0     C37569   9.235   8.378   8.958 -1.6531 -0.0334  0.0398
  273MOL0     C37570   9.164   8.336   9.072  0.2713  0.5231  0.2406
  273MOL0     C37571   9.142   8.198   9.094 -0.1172 -0.6431  0.6728
  273MOL0     O37572   9.086   8.167   9.219 -1.0057 -0.3690 -0.3216
  273MOL0     C37573   9.065   8.255   9.337 -0.4369  0.1356  0.2036
  273MOL0     C37574   9.026   8.165   9.455 -0.2126  0.3709  0.2099
  273MOL0     C37575   9.137   8.063   9.487  0.7209  0.5499 -0.7255
  273MOL0     C37576   9.145   8.004   9.630 -0.6878 -0.1338  0.1225
  273MOL0     C37577   9.257   8.069   9.717 -0.6487 -0.7492  0.0424
  273MOL0     C37578   9.226   8.211   9.780  0.4826 -0.5637  0.3065
  273MOL0     C37579   9.133   8.211   9.900  0.5812  0.2790  0.1430
  273MOL0     C37580   9.182   8.112  10.025  0.3593 -1.5223  0.8179
  273MOL0    Cl37581   9.117   7.949   9.982 -0.6997 -0.3012  0.2043
  273MOL0     C37582   9.194   8.102   9.016 -0.8501  0.1257  0.1646
  273MOL0     C37583   9.271   8.152   8.913 -1.1326  0.0800 -0.0645
  273MOL0     O37584   9.556   8.370   8.855  0.0912 -0.1597 -0.0497
  273MOL0     C37585   9.406   8.542   8.581 -0.6694 -0.1018  0.8393
  273MOL0     C37586   9.423   8.626   8.478  0.6205  0.3916  1.1453
  273MOL0     N37587   9.711   9.347   8.088  0.9015 -0.5259 -0.0553
  273MOL0     N37588   9.806   9.436   8.100  0.0643 -0.2522 -0.0513
  273MOL0     C37589  10.531   9.341   7.946  0.7951  1.0039  0.1086
  273MOL0     C37590  10.528   9.381   7.815  0.6422  0.4382  0.8691
  273MOL0     C37591  10.668   9.621   7.436 -0.3391 -0.6585 -0.5292
  273MOL0     C37592  10.561   9.571   7.360  0.8353 -0.2449  0.6128
  273MOL0     C37593  10.528   9.635   7.243 -0.7925 -0.6744 -0.6500
  273MOL0     C37594  10.613   9.742   7.192  0.2681  1.3821 -0.2014
  273MOL0     O37595  10.594   9.795   7.067 -0.4161 -0.2420  0.8095
  273MOL0     C37596  10.563   9.930   7.059  0.0777  1.1222  0.0715
  273MOL0     C37597  10.650   9.978   6.938  0.2610 -1.0607  0.0150
  273MOL0     C37598  10.808   9.975   6.950  0.2865  0.3559  1.1127
  273MOL0     C37599  10.863  10.068   7.052  0.4317  1.2819  0.6746
  273MOL0     C37600  11.000  10.022   7.081 -0.1550  0.0764  0.9953
  273MOL0     C37601  11.113   9.979   7.083 -0.5576  0.2746  0.9079
  273MOL0     C37602  10.727   9.765   7.260 -1.3207 -0.1846  0.8953
  273MOL0     C37603  10.760   9.702   7.376  0.3943  0.8973 -0.3132
  273MOL0     C37604  10.889   9.746   7.448  0.9112  0.7669 -0.5367
  273MOL0     H37605  10.860   9.352   7.743  1.1140  2.0261  1.0870
  273MOL0     H37606  10.872   9.268   7.955  1.4793  2.9076 -2.0037
  273MOL0     H37607  10.623   9.450   8.219  0.5423  0.6723 -0.0059
  273MOL0     H37608  10.794   9.395   8.215  0.3349 -0.0879  1.9049
  273MOL0     H37609  10.744   9.237   8.384 -1.6452 -1.4591 -3.4995
  273MOL0     H37610  10.687   9.395   8.452 -0.0614 -0.3688  1.3157
  273MOL0     H37611  10.492   9.199   8.315  1.4466  0.7108 -1.3228
  273MOL0     H37612  10.528   9.212   8.495  2.0504 -2.0045 -1.2047
  273MOL0     H37613  10.435   9.414   8.526 -0.7780 -3.5569  0.6416
  273MOL0     H37614  10.450   9.474   8.368 -0.9885  0.2311 -0.4510
  273MOL0     H37615  10.244   9.247   8.441 -1.5398  1.9610  0.8771
  273MOL0     H37616  10.284   9.303   8.274 -0.1661 -2.0498  0.2698
  273MOL0     H37617  10.180   9.480   8.486  2.2988  1.1882 -0.6629
  273MOL0     H37618  10.230   9.534   8.327 -0.0224  0.2943  1.4040
  273MOL0     H37619   9.983   9.513   8.346 -1.4315 -0.9399 -0.9360
  273MOL0     H37620  10.007   9.325   8.344 -0.5754 -0.6290 -2.3353
  273MOL0     H37621  10.051   9.520   8.129  0.0297 -1.1742 -2.1441
  273MOL0     H37622  10.126   9.360   8.136  0.6981 -0.2236  1.3474
  273MOL0     H37623   9.973   9.154   8.101 -2.0100 -0.8454 -3.6338
  273MOL0     H37624   9.746   9.023   8.000  3.1182  0.9983  2.1279
  273MOL0     H37625   9.596   9.111   8.006  0.5055 -0.7611 -0.0737
  273MOL0     H37626   9.692   9.022   8.263 -2.1962  1.3429  1.1372
  273MOL0     H37627   9.551   9.113   8.217  0.1750 -0.2649  1.9777
  273MOL0     H37628   9.464   8.924   8.083  0.5102  1.0164 -1.1564
  273MOL0     H37629   9.618   8.840   8.116 -1.9477  0.5965 -0.3027
  273MOL0     H37630   9.484   8.924   8.365  1.5441 -0.3387  1.6762
  273MOL0     H37631   9.404   8.793   8.269  0.9377 -1.9786  1.3317
  273MOL0     H37632   9.751   8.634   8.482 -0.1752  0.1811 -1.1854
  273MOL0     H37633   9.836   8.411   8.590  1.0872  4.0449 -1.2152
  273MOL0     H37634   9.756   8.374   8.743  1.6507 -0.0951 -0.1308
  273MOL0     H37635   9.828   8.530   8.713 -1.1367  0.5154 -0.4077
  273MOL0     H37636   9.243   8.483   8.933 -2.7972 -0.3221 -1.7121
  273MOL0     H37637   9.143   8.418   9.140  0.0282  1.1330 -0.5427
  273MOL0     H37638   9.155   8.314   9.357  0.6840 -1.2872 -0.5350
  273MOL0     H37639   8.979   8.319   9.314  0.3789  1.7433  1.3457
  273MOL0     H37640   8.998   8.236   9.533  1.2281  0.5725  0.5775
  273MOL0     H37641   8.935   8.111   9.428 -1.7289  3.5432 -1.6390
  273MOL0     H37642   9.231   8.092   9.440  0.7353  4.7285  1.3944
  273MOL0     H37643   9.102   7.972   9.438  1.7129 -1.9678  2.8259
  273MOL0     H37644   9.169   7.898   9.623  0.5780  0.1756 -0.6139
  273MOL0     H37645   9.052   8.012   9.688  0.6062  4.3373  1.9805
  273MOL0     H37646   9.267   7.994   9.796 -0.4322 -1.3813 -0.5839
  273MOL0     H37647   9.350   8.072   9.660 -0.2199 -0.1301  0.7406
  273MOL0     H37648   9.176   8.274   9.705 -0.6343  1.0522  2.3158
  273MOL0     H37649   9.314   8.259   9.822 -0.4585  1.7088 -0.1447
  273MOL0     H37650   9.041   8.164   9.862  1.9394 -3.6085  1.2065
  273MOL0     H37651   9.113   8.311   9.938  1.8705  0.6613 -0.1338
  273MOL0     H37652   9.135   8.147  10.117  1.1333  0.3504  0.5365
  273MOL0     H37653   9.289   8.115  10.051  0.5971 -3.4522  0.2711
  273MOL0     H37654   9.209   8.000   9.051  3.6245  0.4150 -0.3352
  273MOL0     H37655   9.309   8.074   8.848 -0.0450  0.4607  0.1073
  273MOL0     H37656   9.305   8.539   8.621 -0.8998  0.1479  0.2811
  273MOL0     H37657   9.331   8.653   8.427 -0.0256 -1.1957  1.4138
  273MOL0     H37658  10.442   9.364   8.004 -0.8186  2.6834 -2.7900
  273MOL0     H37659  10.438   9.416   7.765 -0.5054  2.1347  3.8271
  273MOL0     H37660  10.495   9.493   7.398  0.2952 -0.1435 -0.0938
  273MOL0     H37661  10.442   9.618   7.179 -1.0029 -0.7416 -0.3489
  273MOL0     H37662  10.454   9.935   7.057  0.0525  0.9762  0.7096
  273MOL0     H37663  10.599   9.974   7.153 -2.0830  1.4410  0.8201
  273MOL0     H37664  10.633  10.082   6.908  3.2536 -0.7745 -1.0831
  273MOL0     H37665  10.628   9.912   6.854  1.5894 -0.8967 -0.4904
  273MOL0     H37666  10.830   9.870   6.972 -0.1648 -0.1071 -0.5000
  273MOL0     H37667  10.840   9.993   6.847  0.0021 -1.3000  0.7088
  273MOL0     H37668  10.789  10.076   7.132 -1.2882  1.7270 -0.8772
  273MOL0     H37669  10.867  10.166   7.002 -2.8994  1.1645 -0.0583
  273MOL0     H37670  11.217   9.956   7.089 -0.4150  0.7077  0.2354
  273MOL0     H37671  10.806   9.826   7.218 -0.9461 -0.5000  1.1434
  273MOL0     H37672  10.922   9.650   7.489 -1.9359 -0.1143 -0.0893
  273MOL0     H37673  10.963   9.794   7.383  0.5020  0.2032 -1.4382
  273MOL0     H37674  10.858   9.812   7.530 -1.2677  1.8207 -2.0935
  274MOL0     O37675   9.764   5.815   6.680 -0.8548  0.6841  0.0907
  274MOL0     C37676   9.819   5.907   6.731 -0.7618 -0.3795  0.2789
  274MOL0     O37677   9.930   5.959   6.687  0.0515 -0.1941 -0.7369
  274MOL0     C37678   9.988   5.898   6.577  1.5081 -0.1114 -0.0826
  274MOL0     C37679   9.950   5.958   6.457  0.1859  1.3091  0.2700
  274MOL0     C37680  10.013   5.912   6.342 -0.4463 -1.2162  0.6065
  274MOL0     C37681  10.113   5.810   6.337 -0.6928 -0.2513 -0.2755
  274MOL0     O37682  10.160   5.744   6.232 -0.2779  0.6663  0.2393
  274MOL0     C37683  10.114   5.787   6.098 -0.6088  0.0005 -0.7642
  274MOL0     C37684  10.226   5.735   5.991  0.5293 -0.5681 -0.4420
  274MOL0     C37685  10.371   5.792   6.018 -1.1752 -0.2654 -0.8411
  274MOL0     C37686  10.458   5.762   5.893 -0.3385  0.8023 -0.0807
  274MOL0     C37687  10.600   5.804   5.877 -0.1365 -0.2649  0.4318
  274MOL0     C37688  10.644   5.788   5.725 -0.6748  0.9388 -0.6023
  274MOL0     C37689  10.754   5.884   5.680 -0.7453  0.0046  0.2749
  274MOL0     C37690  10.749   5.888   5.520 -0.1882 -0.8077 -0.9339
  274MOL0     N37691  10.814   5.773   5.452  0.3395 -0.2074  0.3160
  274MOL0     C37692  10.940   5.760   5.401 -0.3037  0.6009  0.9649
  274MOL0     C37693  10.939   5.642   5.332  0.0057  0.5414 -0.8646
  274MOL0     C37694  11.067   5.571   5.295  0.1207  0.6470 -0.6266
  274MOL0     C37695  11.121   5.480   5.406 -0.4683 -0.2378 -0.9411
  274MOL0     C37696  11.222   5.377   5.359  0.7605  0.0975  0.6206
  274MOL0     C37697  11.275   5.293   5.481 -0.4413 -0.5938 -0.3268
  274MOL0     O37698  11.389   5.241   5.434 -0.1712  0.1735  0.1425
  274MOL0     C37699  11.457   5.167   5.530  0.0247  0.1467 -0.2451
  274MOL0     C37700  11.428   5.148   5.669  0.5709 -0.2226  0.3008
  274MOL0     C37701  11.520   5.090   5.763  0.6075  0.7371 -0.3742
  274MOL0     C37702  11.469   5.078   5.903  0.5132 -0.0040 -0.4507
  274MOL0     C37703  11.640   5.050   5.707 -0.3434 -0.2805  0.1941
  274MOL0     C37704  11.737   4.980   5.793 -0.7723  0.4595 -0.4126
  274MOL0     O37705  11.868   5.002   5.778  0.1700 -0.1271 -0.1105
  274MOL0     C37706  11.965   4.942   5.866 -1.0292  0.4818 -0.2274
  274MOL0     C37707  12.074   4.887   5.807 -0.8150 -0.0084  0.3165
  274MOL0     C37708  12.181   4.827   5.881 -0.7837 -0.2158  0.8846
  274MOL0     C37709  12.180   4.807   6.019  0.1129  0.3889  0.4578
  274MOL0     O37710  12.285   4.755   6.087 -0.8795 -0.5692  0.2847
  274MOL0     C37711  12.401   4.721   6.013  0.1375 -0.1571  0.2521
  274MOL0     C37712  12.511   4.677   6.122  0.1052 -0.5371  0.5733
  274MOL0     C37713  12.564   4.779   6.216 -0.2532 -0.8138  0.5968
  274MOL0     C37714  12.648   4.894   6.159  0.8446 -1.1237 -0.1523
  274MOL0     C37715  12.780   4.851   6.104 -0.0843 -0.4626  0.0893
  274MOL0     C37716  12.888   4.823   6.208  1.1699 -0.3111 -1.0584
  274MOL0     C37717  13.011   4.793   6.127 -0.0861  1.2383 -0.9096
  274MOL0     C37718  13.125   4.756   6.210  0.0429 -0.2812  0.1124
  274MOL0    Cl37719  13.264   4.717   6.107  0.0034 -0.3692  0.1828
  274MOL0     C37720  12.054   4.852   6.083  0.2798  0.1322 -0.4178
  274MOL0     C37721  11.949   4.913   6.010  1.0524  0.1727  1.1236
  274MOL0     O37722  11.687   4.898   5.873 -0.8576 -0.1394 -0.2947
  274MOL0     C37723  11.669   5.065   5.570  0.1681 -0.3857  0.8314
  274MOL0     C37724  11.584   5.121   5.485  0.2730 -0.0146 -0.7431
  274MOL0     N37725  10.811   5.582   5.347  0.5202 -0.1743  0.6224
  274MOL0     N37726  10.742   5.671   5.402  0.6831 -0.3383 -0.0638
  274MOL0     C37727  10.151   5.760   6.462 -0.4101  0.1874 -0.4197
  274MOL0     C37728  10.084   5.793   6.579 -0.6475 -0.8695  0.1859
  274MOL0     C37729   9.757   5.979   6.841  0.1139  0.1737  0.8534
  274MOL0     C37730   9.624   5.951   6.864 -0.1005 -0.5915  1.6970
  274MOL0     C37731   9.555   6.031   6.959  0.5551 -0.1758 -0.8639
  274MOL0     C37732   9.614   6.119   7.045  0.4349 -0.4834 -0.8888
  274MOL0     O37733   9.547   6.178   7.147 -0.3997 -0.2471 -0.2060
  274MOL0     C37734   9.619   6.244   7.249  0.3094  0.1653  0.2010
  274MOL0     C37735   9.520   6.261   7.372 -0.2705 -0.3891 -1.0581
  274MOL0     C37736   9.573   6.208   7.507 -0.4570  0.0666  0.1029
  274MOL0     C37737   9.459   6.196   7.607  0.5833 -0.3669  0.2919
  274MOL0     C37738   9.451   6.316   7.697 -0.1911  0.3370  0.6951
  274MOL0     C37739   9.461   6.417   7.761  0.0858 -0.4162  0.9506
  274MOL0     C37740   9.754   6.118   7.037 -0.7073  0.4006 -0.1245
  274MOL0     C37741   9.826   6.053   6.938 -0.1359 -0.5142  0.0050
  274MOL0     C37742   9.981   6.079   6.949  0.1988  0.2002 -0.8366
  274MOL0     H37743   9.854   6.008   6.454 -1.0136 -0.8958  0.4178
  274MOL0     H37744   9.975   5.943   6.245  0.9870 -1.3381 -0.0200
  274MOL0     H37745  10.104   5.896   6.096  0.5974  0.1251 -0.6653
  274MOL0     H37746  10.013   5.750   6.079 -1.4431  0.8172  1.6248
  274MOL0     H37747  10.226   5.626   5.986  3.7399 -0.9906  3.5369
  274MOL0     H37748  10.187   5.783   5.900 -3.3375 -1.4023  0.5584
  274MOL0     H37749  10.360   5.900   6.031  0.2896 -0.0936 -0.9411
  274MOL0     H37750  10.402   5.751   6.115 -1.7643  3.2733  1.0184
  274MOL0     H37751  10.474   5.655   5.877 -0.4575  0.8785 -0.7243
  274MOL0     H37752  10.409   5.807   5.806 -2.7852 -0.7430  0.3979
  274MOL0     H37753  10.669   5.753   5.945 -0.0454 -1.4401 -0.5093
  274MOL0     H37754  10.603   5.913   5.889 -2.0148 -0.1695  0.4105
  274MOL0     H37755  10.693   5.690   5.719  0.0798  1.2305  0.3696
  274MOL0     H37756  10.565   5.804   5.652 -0.3444  2.7776 -0.6058
  274MOL0     H37757  10.852   5.843   5.707  0.1603  2.0504  0.2572
  274MOL0     H37758  10.742   5.983   5.725 -0.5198 -0.0919  0.5523
  274MOL0     H37759  10.646   5.907   5.489  0.3145  1.0738 -1.5707
  274MOL0     H37760  10.798   5.972   5.470  1.9068 -3.0199 -2.8697
  274MOL0     H37761  11.022   5.831   5.404  1.3745 -0.8052 -3.2607
  274MOL0     H37762  11.145   5.641   5.263  0.6859 -0.8069 -2.6201
  274MOL0     H37763  11.038   5.510   5.208 -1.7960  0.7356 -0.1038
  274MOL0     H37764  11.181   5.539   5.476  0.5838  0.8877 -2.7250
  274MOL0     H37765  11.033   5.439   5.458  0.3718  0.0499  0.7744
  274MOL0     H37766  11.190   5.324   5.269  1.1494 -0.2548  0.6821
  274MOL0     H37767  11.312   5.431   5.327  2.0576 -1.6828  1.1180
  274MOL0     H37768  11.300   5.361   5.563 -0.1640 -1.0176 -0.0577
  274MOL0     H37769  11.215   5.213   5.524  1.3039 -1.8376 -0.0760
  274MOL0     H37770  11.331   5.180   5.704  0.0196 -2.2557  0.8051
  274MOL0     H37771  11.392   5.000   5.913  1.8633 -1.3135  0.1731
  274MOL0     H37772  11.439   5.174   5.944 -2.5512 -1.1683  0.3675
  274MOL0     H37773  11.539   5.047   5.980 -2.2322  3.5027  3.9298
  274MOL0     H37774  12.102   4.909   5.705  3.0722  0.6332  1.3842
  274MOL0     H37775  12.264   4.795   5.819 -1.0427  0.4772  0.1505
  274MOL0     H37776  12.379   4.631   5.956 -3.1485  1.4833 -1.3305
  274MOL0     H37777  12.435   4.792   5.937 -1.1079 -3.6433 -3.9698
  274MOL0     H37778  12.461   4.602   6.184 -2.9401  1.7594  1.1767
  274MOL0     H37779  12.595   4.637   6.065  0.2877  0.4014  0.1566
  274MOL0     H37780  12.626   4.729   6.291 -0.1287  0.4918  1.3870
  274MOL0     H37781  12.487   4.840   6.263 -1.3438  0.5963 -2.7279
  274MOL0     H37782  12.664   4.971   6.235  1.7160 -2.0309  0.6236
  274MOL0     H37783  12.583   4.934   6.082  2.0228 -0.7252 -0.9669
  274MOL0     H37784  12.768   4.763   6.039  1.0123  1.4300 -2.8697
  274MOL0     H37785  12.806   4.928   6.032 -1.7773 -1.3832 -1.6106
  274MOL0     H37786  12.859   4.749   6.283  1.1469 -0.1356 -0.8916
  274MOL0     H37787  12.881   4.916   6.265  0.1441 -0.6503 -0.5979
  274MOL0     H37788  13.030   4.873   6.055  3.2728 -0.7375 -2.4835
  274MOL0     H37789  12.985   4.702   6.072 -0.8488  0.8609  0.0557
  274MOL0     H37790  13.095   4.671   6.272  0.1266  0.6389  1.4405
  274MOL0     H37791  13.141   4.839   6.279 -4.4948 -1.1124  2.5965
  274MOL0     H37792  12.051   4.850   6.191 -1.9351 -2.2513 -0.4359
  274MOL0     H37793  11.863   4.953   6.061  0.5905  0.7481 -0.0678
  274MOL0     H37794  11.752   5.027   5.510 -0.2317  2.5888 -1.8275
  274MOL0     H37795  11.607   5.118   5.379  0.2581 -0.8683 -0.7256
  274MOL0     H37796  10.225   5.681   6.473 -0.2839  0.3263 -0.2699
  274MOL0     H37797  10.111   5.741   6.671  3.8709  1.4968  0.5023
  274MOL0     H37798   9.569   5.884   6.799  2.4784  0.1926 -1.5398
  274MOL0     H37799   9.451   6.005   6.970  0.9479 -1.0743  1.2267
  274MOL0     H37800   9.697   6.173   7.279  0.7325 -0.5249 -2.2668
  274MOL0     H37801   9.665   6.334   7.208  1.7387  0.1134  1.6198
  274MOL0     H37802   9.426   6.206   7.360 -2.4165  1.6165  3.8464
  274MOL0     H37803   9.494   6.366   7.385  0.4299 -0.4683  1.7156
  274MOL0     H37804   9.625   6.115   7.481 -0.1266  0.7740 -1.9594
  274MOL0     H37805   9.644   6.286   7.537  0.0851 -0.0700 -0.7976
  274MOL0     H37806   9.482   6.107   7.667 -0.2501 -0.6073  0.2653
  274MOL0     H37807   9.361   6.184   7.559 -0.1318  3.8006  0.3786
  274MOL0     H37808   9.459   6.498   7.830 -4.6770 -0.5661  1.3537
  274MOL0     H37809   9.811   6.174   7.110  1.7140 -0.1276 -1.5051
  274MOL0     H37810  10.040   6.030   6.871  1.3449 -0.6373  0.4998
  274MOL0     H37811  10.003   6.186   6.947  0.4825  0.1850  0.5935
  274MOL0     H37812  10.018   6.043   7.046  0.2445  0.3239 -0.8072
  275MOL0     O37813   6.626   0.022   2.202 -0.8019  0.4274 -0.1991
  275MOL0     C37814   6.595   0.134   2.203  0.7158 -0.0733 -0.1390
  275MOL0     O37815   6.478   0.190   2.242  0.4284 -0.3515 -0.1088
  275MOL0     C37816   6.369   0.119   2.278 -0.4636 -0.4730  0.4213
  275MOL0     C37817   6.282   0.188   2.362 -0.4316 -0.2836  0.0899
  275MOL0     C37818   6.179   0.120   2.424  1.0079 -0.5517 -0.3328
  275MOL0     C37819   6.135  -0.008   2.398 -0.0042  0.8895 -0.7022
  275MOL0     O37820   6.027  -0.072   2.460  0.0841  0.3789 -0.3474
  275MOL0     C37821   6.007  -0.044   2.599 -0.2224 -1.0182 -0.5986
  275MOL0     C37822   5.909  -0.143   2.658  0.0072  0.0425  0.8071
  275MOL0     C37823   5.963  -0.286   2.680  0.1166 -1.2294  0.3433
  275MOL0     C37824   5.867  -0.361   2.766 -0.2167  0.6531 -0.4412
  275MOL0     C37825   5.896  -0.514   2.759  0.0069  0.1406  0.5296
  275MOL0     C37826   6.036  -0.549   2.819  1.1101  0.2560 -0.2835
  275MOL0     C37827   6.061  -0.704   2.814  0.9193  0.2127  0.9275
  275MOL0     C37828   6.138  -0.740   2.683 -0.2303  0.1189 -1.4092
  275MOL0     N37829   6.165  -0.885   2.677 -0.5502  0.4271  0.4294
  275MOL0     C37830   6.265  -0.947   2.753  1.0194 -0.1169 -0.7679
  275MOL0     C37831   6.253  -1.077   2.724  0.3637 -0.2830  0.2187
  275MOL0     C37832   6.371  -1.166   2.768 -0.1108  0.4270 -0.1765
  275MOL0     C37833   6.426  -1.240   2.649  0.4130  0.5847 -0.0338
  275MOL0     C37834   6.331  -1.338   2.560  0.0603 -0.1751  0.0193
  275MOL0     C37835   6.364  -1.487   2.582  0.2580  0.2638 -0.3066
  275MOL0     O37836   6.376  -1.513   2.723 -0.4618 -0.1031 -0.7947
  275MOL0     C37837   6.415  -1.644   2.766 -0.2875 -1.2507 -0.3838
  275MOL0     C37838   6.426  -1.671   2.903 -0.6784  0.6412  0.6807
  275MOL0     C37839   6.438  -1.802   2.958 -1.7004  0.4220  0.6577
  275MOL0     C37840   6.442  -1.812   3.108  0.0311  0.2669  0.2647
  275MOL0     C37841   6.434  -1.915   2.868  0.0633 -0.3783  0.0373
  275MOL0     C37842   6.430  -2.057   2.908  0.1068 -1.0452 -0.0649
  275MOL0     O37843   6.417  -2.145   2.803  0.1584 -0.6400 -0.6909
  275MOL0     C37844   6.472  -2.277   2.822  0.5861 -1.2597  0.5201
  275MOL0     C37845   6.428  -2.374   2.722 -0.2117 -0.9603  0.3337
  275MOL0     C37846   6.477  -2.502   2.723 -0.0159  0.8143 -0.1761
  275MOL0     C37847   6.580  -2.540   2.823  0.7724  0.3066 -0.3419
  275MOL0     O37848   6.633  -2.670   2.817 -0.7248  0.5659 -0.2492
  275MOL0     C37849   6.564  -2.796   2.777  0.8427  0.6337  1.0545
  275MOL0     C37850   6.479  -2.866   2.897 -0.0072  0.3236  1.1295
  275MOL0     C37851   6.572  -2.942   2.988 -0.2779  0.5973  1.3958
  275MOL0     C37852   6.616  -3.077   2.916  0.7112 -0.2686 -0.5890
  275MOL0     C37853   6.738  -3.128   2.994  0.2346  0.3546 -0.1837
  275MOL0     C37854   6.696  -3.183   3.137  0.7727 -0.6996  0.2784
  275MOL0     C37855   6.817  -3.211   3.235  0.6496  0.2541 -0.4255
  275MOL0     C37856   6.777  -3.219   3.388 -0.8706 -0.1053  0.8315
  275MOL0    Cl37857   6.706  -3.063   3.443  0.3338 -0.0721 -0.3802
  275MOL0     C37858   6.629  -2.444   2.907 -0.0284 -0.4385 -0.3707
  275MOL0     C37859   6.568  -2.318   2.914 -0.0686 -0.7108 -0.1769
  275MOL0     O37860   6.401  -2.090   3.025 -0.1380  0.5518 -0.1956
  275MOL0     C37861   6.442  -1.885   2.731 -0.2898 -0.1636 -0.3782
  275MOL0     C37862   6.428  -1.754   2.685  0.7066 -0.1650 -0.6570
  275MOL0     N37863   6.145  -1.098   2.643 -0.1213 -0.4681 -0.5450
  275MOL0     N37864   6.107  -0.980   2.594 -0.0861  0.2077 -0.5824
  275MOL0     C37865   6.217  -0.075   2.299  0.3115 -0.7425 -0.7187
  275MOL0     C37866   6.332  -0.016   2.250 -0.0801 -0.5106 -0.1515
  275MOL0     C37867   6.700   0.226   2.156  0.3021  0.2609  0.1408
  275MOL0     C37868   6.815   0.178   2.085  0.5038 -0.3002 -1.0873
  275MOL0     C37869   6.896   0.260   2.016 -0.1541  1.0593  0.4122
  275MOL0     C37870   6.891   0.393   2.045 -0.4931 -0.6730 -0.9308
  275MOL0     O37871   7.007   0.463   2.028 -1.0461  0.0297 -0.0671
  275MOL0     C37872   7.074   0.459   1.900  0.1067  0.4932  0.4070
  275MOL0     C37873   6.984   0.502   1.791  0.3773 -0.1243  0.7318
  275MOL0     C37874   7.048   0.520   1.645 -0.3071 -0.0394 -0.9152
  275MOL0     C37875   7.154   0.638   1.614  0.0872  0.2217 -0.4272
  275MOL0     C37876   7.081   0.764   1.615  0.4812 -0.0202 -0.7391
  275MOL0     C37877   7.023   0.869   1.618  0.1752 -0.6048 -0.7969
  275MOL0     C37878   6.794   0.442   2.131 -1.0805 -0.2278  1.0600
  275MOL0     C37879   6.693   0.366   2.174  0.6301 -1.3226 -0.4669
  275MOL0     C37880   6.605   0.440   2.270 -0.0797  0.3517 -0.6768
  275MOL0     H37881   6.299   0.287   2.402  2.3966  0.2671 -2.1255
  275MOL0     H37882   6.117   0.171   2.497  2.3089 -2.8143  2.5210
  275MOL0     H37883   5.981   0.061   2.610 -3.7470 -1.7293 -0.9089
  275MOL0     H37884   6.100  -0.060   2.655 -1.4402 -0.9770  1.5564
  275MOL0     H37885   5.874  -0.099   2.752  2.0216  0.4302  1.4282
  275MOL0     H37886   5.810  -0.139   2.612 -0.2643 -0.1731  1.3605
  275MOL0     H37887   5.979  -0.337   2.584  1.6448 -0.1448 -0.0168
  275MOL0     H37888   6.059  -0.291   2.732  2.4320  1.5203 -3.1548
  275MOL0     H37889   5.853  -0.323   2.868 -0.6503  0.2136 -0.3329
  275MOL0     H37890   5.770  -0.354   2.717 -0.7026 -0.5967  0.2854
  275MOL0     H37891   5.893  -0.546   2.655 -0.4461 -0.5486  0.7479
  275MOL0     H37892   5.823  -0.575   2.814  0.8818 -0.9703  0.4919
  275MOL0     H37893   6.124  -0.500   2.776 -0.5729  1.2865 -2.7783
  275MOL0     H37894   6.024  -0.522   2.925 -0.1720 -0.8617 -0.1050
  275MOL0     H37895   5.972  -0.767   2.811  1.5328 -0.7466 -3.1581
  275MOL0     H37896   6.127  -0.734   2.896  0.9520 -0.3414  0.6987
  275MOL0     H37897   6.092  -0.691   2.596 -1.1236  4.4578  1.1944
  275MOL0     H37898   6.236  -0.692   2.683  0.6636 -1.6098 -0.0124
  275MOL0     H37899   6.333  -0.906   2.827 -1.2817  0.6799  1.0377
  275MOL0     H37900   6.335  -1.244   2.836 -0.1429 -1.2832 -2.0655
  275MOL0     H37901   6.447  -1.099   2.807  1.4742 -0.2113 -2.0093
  275MOL0     H37902   6.472  -1.163   2.586  0.1889  0.6370 -0.1363
  275MOL0     H37903   6.510  -1.297   2.687 -2.6059 -4.0780  0.4615
  275MOL0     H37904   6.228  -1.321   2.592 -0.1972 -2.6079  0.6970
  275MOL0     H37905   6.354  -1.330   2.453  3.4711 -2.7471  0.3894
  275MOL0     H37906   6.298  -1.553   2.526  1.1986  0.1938 -1.3888
  275MOL0     H37907   6.462  -1.508   2.538 -0.1768 -0.4229 -0.9766
  275MOL0     H37908   6.416  -1.580   2.962 -1.7578  0.6887  0.4518
  275MOL0     H37909   6.450  -1.713   3.152 -1.3025  1.1132 -1.2771
  275MOL0     H37910   6.519  -1.881   3.143  0.3468 -0.7177 -2.1288
  275MOL0     H37911   6.344  -1.850   3.140  0.1101  1.9361  2.6998
  275MOL0     H37912   6.362  -2.334   2.645 -0.3777 -1.2396  0.3291
  275MOL0     H37913   6.445  -2.560   2.637 -3.9205 -0.2993  1.7850
  275MOL0     H37914   6.500  -2.765   2.693  1.3008  1.3057  0.9428
  275MOL0     H37915   6.630  -2.867   2.727 -0.0818  0.6057 -0.1806
  275MOL0     H37916   6.431  -2.785   2.953  3.2368 -0.0500  4.9756
  275MOL0     H37917   6.416  -2.949   2.866  1.1488 -0.5668  1.0910
  275MOL0     H37918   6.512  -2.963   3.077 -3.2583 -0.4229 -0.6967
  275MOL0     H37919   6.661  -2.882   3.010  1.1972 -0.4966 -1.0569
  275MOL0     H37920   6.639  -3.057   2.811  0.8164 -0.0270 -0.5204
  275MOL0     H37921   6.533  -3.148   2.925  2.4496 -2.1836  2.3786
  275MOL0     H37922   6.799  -3.194   2.933 -2.0703  0.0695 -2.3618
  275MOL0     H37923   6.803  -3.042   3.012 -0.0609  0.6602 -0.5423
  275MOL0     H37924   6.627  -3.266   3.116 -1.0505  1.4060 -2.8652
  275MOL0     H37925   6.619  -3.123   3.188 -2.0710 -0.7679 -3.4994
  275MOL0     H37926   6.905  -3.147   3.216  1.2353 -0.6546 -0.8442
  275MOL0     H37927   6.849  -3.308   3.196  2.2991  0.6177 -0.0841
  275MOL0     H37928   6.868  -3.253   3.437  1.6616 -3.0125 -4.8610
  275MOL0     H37929   6.696  -3.293   3.389  0.1968 -1.3184  1.7389
  275MOL0     H37930   6.708  -2.479   2.972  0.8826  2.4754  0.2442
  275MOL0     H37931   6.611  -2.250   2.988 -1.1901 -1.6648  1.4085
  275MOL0     H37932   6.462  -1.961   2.656  0.0523 -1.2262  0.7647
  275MOL0     H37933   6.406  -1.743   2.579 -0.5353  3.1203 -0.1681
  275MOL0     H37934   6.201  -0.178   2.272  0.3227 -0.6875 -0.9340
  275MOL0     H37935   6.390  -0.063   2.170  0.4764 -0.5265  0.2554
  275MOL0     H37936   6.845   0.073   2.082  0.7467 -0.2781  0.1126
  275MOL0     H37937   6.968   0.199   1.962 -0.4527 -1.1515  2.3817
  275MOL0     H37938   7.164   0.521   1.905  1.5819 -1.2576 -1.9570
  275MOL0     H37939   7.105   0.359   1.869 -1.5093  0.5171 -1.5298
  275MOL0     H37940   6.941   0.599   1.817 -0.3363  0.5643 -2.5495
  275MOL0     H37941   6.904   0.428   1.783  0.1203  0.1858  0.3994
  275MOL0     H37942   7.106   0.427   1.631 -0.2922 -0.1740 -0.0182
  275MOL0     H37943   6.959   0.522   1.582 -1.4344 -0.3164  0.6089
  275MOL0     H37944   7.194   0.612   1.516  1.7854 -3.9917  1.1593
  275MOL0     H37945   7.236   0.642   1.686  1.5531  0.2985 -2.0380
  275MOL0     H37946   6.965   0.959   1.631 -0.8428 -1.0842 -1.8312
  275MOL0     H37947   6.794   0.546   2.163 -0.7736  0.7335 -1.7905
  275MOL0     H37948   6.574   0.378   2.354 -0.3910  2.2110  0.6546
  275MOL0     H37949   6.661   0.515   2.327 -0.8587  1.2447 -1.0603
  275MOL0     H37950   6.513   0.476   2.223 -1.1772  0.7417  1.6413
  276MOL0     O37951  10.519  10.026   5.434 -0.0045 -0.5306 -0.4350
  276MOL0     C37952  10.422  10.091   5.466  0.0099  0.0055  0.7518
  276MOL0     O37953  10.391  10.131   5.592 -0.9971 -0.6089 -0.6615
  276MOL0     C37954  10.457  10.059   5.687 -1.0497 -1.8860 -0.9918
  276MOL0     C37955  10.395   9.956   5.752 -0.0542 -0.2618 -0.1023
  276MOL0     C37956  10.461   9.886   5.858  0.3154 -0.3126  0.2025
  276MOL0     C37957  10.594   9.920   5.886  0.2585  0.0553 -0.6089
  276MOL0     O37958  10.652   9.834   5.979 -0.3844  0.4778  0.8657
  276MOL0     C37959  10.759   9.869   6.054 -1.0081 -0.0858 -0.4100
  276MOL0     C37960  10.796   9.745   6.144 -0.3080 -0.3763 -0.0119
  276MOL0     C37961  10.939   9.697   6.139 -0.5602 -1.9647 -0.4937
  276MOL0     C37962  11.000   9.675   6.281  0.0639  0.5936  0.6764
  276MOL0     C37963  10.972   9.540   6.332  0.4423  0.3891 -0.4165
  276MOL0     C37964  11.077   9.480   6.428 -0.4348  0.1420 -1.3529
  276MOL0     C37965  11.044   9.339   6.463  0.4226  0.2237 -1.8582
  276MOL0     C37966  11.027   9.335   6.616  0.2834  0.0111  0.7521
  276MOL0     N37967  11.157   9.318   6.680 -0.2796 -0.4496  0.7155
  276MOL0     C37968  11.202   9.194   6.713 -0.0842  0.8446 -0.5240
  276MOL0     C37969  11.299   9.209   6.796 -0.2478  0.6755 -0.7497
  276MOL0     C37970  11.412   9.132   6.867  0.2707 -0.2620 -1.0893
  276MOL0     C37971  11.377   9.115   7.009 -0.2331  1.2299 -0.5083
  276MOL0     C37972  11.465   8.993   7.059 -1.3384  0.0749 -0.3743
  276MOL0     C37973  11.623   9.005   7.038 -0.4169  0.4531  0.4121
  276MOL0     O37974  11.673   9.126   7.101  0.4387 -0.0013  0.1526
  276MOL0     C37975  11.812   9.140   7.120  0.1901 -0.1014  0.5160
  276MOL0     C37976  11.904   9.048   7.080 -0.2064 -0.0779  0.2571
  276MOL0     C37977  12.048   9.075   7.110 -0.4203 -0.1888  0.2869
  276MOL0     C37978  12.137   8.976   7.049  0.1221  0.1306 -0.2986
  276MOL0     C37979  12.092   9.200   7.170  0.0489  0.4277 -0.1247
  276MOL0     C37980  12.232   9.233   7.192 -0.0044  0.0870  0.1497
  276MOL0     O37981  12.270   9.361   7.156 -0.1015  0.9979  0.0323
  276MOL0     C37982  12.388   9.408   7.213  1.3682 -0.6927  0.0053
  276MOL0     C37983  12.492   9.444   7.134  0.3497  0.4420  0.2003
  276MOL0     C37984  12.612   9.492   7.189 -0.6324 -0.2860 -0.1202
  276MOL0     C37985  12.614   9.506   7.329 -0.0988  0.6720  0.2814
  276MOL0     O37986  12.732   9.558   7.400 -0.1738 -0.1943 -0.1946
  276MOL0     C37987  12.837   9.629   7.335  1.0445 -0.2102 -0.4787
  276MOL0     C37988  12.790   9.772   7.304  0.2097  0.1548 -0.5670
  276MOL0     C37989  12.899   9.854   7.232 -0.4968 -1.1533 -0.3221
  276MOL0     C37990  12.836   9.986   7.168 -1.0329 -0.4556  0.5557
  276MOL0     C37991  12.921  10.099   7.188 -0.5724 -0.0538 -0.2350
  276MOL0     C37992  13.045  10.090   7.101 -0.6011  0.1294  0.0547
  276MOL0     C37993  13.126  10.225   7.065  0.1661 -0.0092 -0.3339
  276MOL0     C37994  13.269  10.222   7.117 -0.5478 -1.6128 -1.5115
  276MOL0    Cl37995  13.272  10.186   7.303  0.1393  0.2108 -0.3263
  276MOL0     C37996  12.507   9.471   7.411 -0.5692  0.0237 -0.4518
  276MOL0     C37997  12.398   9.417   7.350 -0.0657 -0.7603  0.3913
  276MOL0     O37998  12.306   9.147   7.246  0.3809  0.6922  0.7496
  276MOL0     C37999  11.987   9.297   7.196  0.1012 -0.0390 -0.7391
  276MOL0     C38000  11.856   9.262   7.187  0.1128 -0.8280  0.0503
  276MOL0     N38001  11.305   9.346   6.817 -0.9328  0.2947  0.9154
  276MOL0     N38002  11.231   9.414   6.739  0.9400 -0.7554 -0.4114
  276MOL0     C38003  10.660  10.021   5.816 -0.5848 -0.0264  0.1318
  276MOL0     C38004  10.593  10.092   5.719 -0.2576  0.3851 -0.4177
  276MOL0     C38005  10.335  10.127   5.357  0.7099 -1.0104  0.1682
  276MOL0     C38006  10.267  10.034   5.274  0.3123 -0.9329 -0.1564
  276MOL0     C38007  10.176  10.075   5.178 -0.3988  0.1132 -0.4389
  276MOL0     C38008  10.142  10.206   5.165 -0.3330 -0.2851 -0.0177
  276MOL0     O38009  10.050  10.229   5.061 -0.8381  0.5125  0.0169
  276MOL0     C38010  10.005  10.368   5.035 -0.0959  0.5337 -0.0478
  276MOL0     C38011  10.082  10.428   4.918 -0.3885 -0.6376 -0.0342
  276MOL0     C38012  10.233  10.482   4.940 -1.8686  0.2938  1.0056
  276MOL0     C38013  10.333  10.370   4.913  0.6460 -0.2983 -0.4685
  276MOL0     C38014  10.459  10.425   4.969  0.4514  0.5846  0.7537
  276MOL0     C38015  10.566  10.451   5.023  0.6791 -0.2078 -1.2152
  276MOL0     C38016  10.205  10.308   5.249  0.9351  0.5520 -1.0133
  276MOL0     C38017  10.295  10.265   5.347 -0.9814  1.0643  0.1047
  276MOL0     C38018  10.362  10.372   5.426  0.2426  0.9052 -0.4561
  276MOL0     H38019  10.291   9.936   5.724 -0.3728 -0.0721  0.9203
  276MOL0     H38020  10.427   9.807   5.923  0.3541 -0.5128 -0.0224
  276MOL0     H38021  10.741   9.957   6.117 -0.2250  2.4084 -3.4365
  276MOL0     H38022  10.841   9.910   5.995 -2.5307  1.1819 -1.7492
  276MOL0     H38023  10.785   9.791   6.243 -1.8528  0.4606 -0.5386
  276MOL0     H38024  10.735   9.656   6.127  0.8099 -0.6841 -2.9464
  276MOL0     H38025  10.935   9.603   6.082  0.5994 -1.8139 -0.8515
  276MOL0     H38026  11.000   9.781   6.106  1.0445  0.1736  6.2316
  276MOL0     H38027  11.108   9.680   6.263 -0.3921 -0.9454 -4.0231
  276MOL0     H38028  10.970   9.753   6.351 -1.6604  1.4120 -0.8825
  276MOL0     H38029  10.961   9.465   6.253 -1.4218  2.3112 -2.0901
  276MOL0     H38030  10.874   9.550   6.381  0.7226  2.4208 -0.1805
  276MOL0     H38031  11.176   9.483   6.382 -0.8423 -0.5595 -2.3107
  276MOL0     H38032  11.090   9.539   6.519 -0.9170 -0.4402 -0.8977
  276MOL0     H38033  11.132   9.282   6.431  0.5049 -0.4249 -0.5618
  276MOL0     H38034  10.954   9.305   6.411  1.2618  0.1099 -3.2634
  276MOL0     H38035  10.999   9.428   6.665  0.7136  0.3252  0.4088
  276MOL0     H38036  10.972   9.246   6.648  0.6650  0.3826  2.5960
  276MOL0     H38037  11.175   9.096   6.676  2.3062  0.1518 -0.5567
  276MOL0     H38038  11.506   9.184   6.848  0.5368 -0.0655  0.6192
  276MOL0     H38039  11.406   9.034   6.817 -2.3507 -0.8073  0.1218
  276MOL0     H38040  11.408   9.204   7.064 -1.6854  0.8199  1.0888
  276MOL0     H38041  11.270   9.097   7.023  0.1222 -3.4807 -2.0271
  276MOL0     H38042  11.446   8.984   7.167 -3.1331 -0.0232 -0.6671
  276MOL0     H38043  11.441   8.896   7.015  2.4149 -1.0592 -0.2734
  276MOL0     H38044  11.664   8.916   7.086 -0.9648 -0.8362 -1.3801
  276MOL0     H38045  11.649   9.009   6.931 -3.6403 -1.0427 -0.5677
  276MOL0     H38046  11.869   8.962   7.023  1.9977 -0.7502 -0.2005
  276MOL0     H38047  12.217   9.035   7.003  0.1634 -0.2994 -0.7900
  276MOL0     H38048  12.099   8.913   6.968  0.3972  0.6186 -0.8125
  276MOL0     H38049  12.184   8.918   7.129 -3.1015  1.0686  2.5028
  276MOL0     H38050  12.486   9.431   7.026  0.9079 -0.2751  0.2443
  276MOL0     H38051  12.698   9.512   7.125  0.1912 -2.5394  0.1817
  276MOL0     H38052  12.930   9.619   7.393 -0.9799 -4.7395  2.5465
  276MOL0     H38053  12.850   9.572   7.243 -0.7373 -1.8860  0.2147
  276MOL0     H38054  12.695   9.777   7.251 -1.5150 -1.4772  2.1435
  276MOL0     H38055  12.760   9.810   7.402 -3.5337 -1.3025 -0.9800
  276MOL0     H38056  12.921   9.783   7.151  1.5577 -1.2631  0.2866
  276MOL0     H38057  12.990   9.872   7.289 -1.6284  3.2266  0.4395
  276MOL0     H38058  12.740  10.019   7.209 -0.6259  2.6174 -0.7012
  276MOL0     H38059  12.819   9.979   7.060 -0.1703 -0.5202  0.4210
  276MOL0     H38060  12.883  10.195   7.154 -0.2308 -0.0649 -0.6580
  276MOL0     H38061  12.966  10.112   7.287  0.2456  1.4919 -0.7846
  276MOL0     H38062  13.018  10.046   7.004 -3.9444 -0.5953  1.1697
  276MOL0     H38063  13.123  10.027   7.145 -2.3217  0.0673  3.3492
  276MOL0     H38064  13.075  10.313   7.106  0.8753 -0.7148  2.2937
  276MOL0     H38065  13.125  10.242   6.957  0.6292 -1.5489 -0.6025
  276MOL0     H38066  13.309  10.323   7.108  2.6523 -2.2560  2.6701
  276MOL0     H38067  13.336  10.156   7.060 -0.5738 -1.3075 -1.8940
  276MOL0     H38068  12.514   9.476   7.520 -1.9162  2.1357 -0.4037
  276MOL0     H38069  12.314   9.390   7.413  0.0602 -1.0793  0.4269
  276MOL0     H38070  12.009   9.398   7.229 -2.1830 -0.1219  1.2637
  276MOL0     H38071  11.778   9.330   7.219 -0.7912 -2.5894  1.8320
  276MOL0     H38072  10.759  10.057   5.839 -1.2101  0.7577  1.7726
  276MOL0     H38073  10.644  10.179   5.680  0.2197  2.0649  3.4873
  276MOL0     H38074  10.289   9.928   5.283  1.9415 -0.7036 -1.0066
  276MOL0     H38075  10.119  10.009   5.113 -2.1004  1.7968 -0.7657
  276MOL0     H38076   9.897  10.357   5.017 -0.0345 -1.4436  0.5746
  276MOL0     H38077  10.014  10.435   5.121 -0.5983  1.9166 -1.0332
  276MOL0     H38078  10.027  10.520   4.895  1.2843  0.8443  1.5459
  276MOL0     H38079  10.066  10.362   4.832  1.2296  0.3896 -1.1735
  276MOL0     H38080  10.258  10.539   4.850 -1.4975 -2.6328 -0.8972
  276MOL0     H38081  10.244  10.530   5.037 -3.0729 -0.4968  1.5508
  276MOL0     H38082  10.336  10.348   4.805 -1.7959  0.2127 -0.6854
  276MOL0     H38083  10.300  10.275   4.956  2.2176 -1.4287 -1.5937
  276MOL0     H38084  10.650  10.484   5.080 -0.0613  2.1045 -1.3432
  276MOL0     H38085  10.186  10.411   5.221 -1.5567 -0.0455 -1.7809
  276MOL0     H38086  10.469  10.351   5.420  0.0984 -0.1829  0.4828
  276MOL0     H38087  10.339  10.475   5.398 -0.4897  0.7135 -0.5965
  276MOL0     H38088  10.350  10.369   5.535  3.8876 -0.2098  0.0665
  277MOL0     O38089   5.202   8.191   3.738 -0.3115  0.0040 -0.4479
  277MOL0     C38090   5.270   8.300   3.730  0.3302  0.9232  0.6819
  277MOL0     O38091   5.403   8.302   3.696  0.6865 -0.2434 -0.1488
  277MOL0     C38092   5.461   8.189   3.645 -0.4848  0.3613  0.8291
  277MOL0     C38093   5.515   8.092   3.727  0.3135 -0.4643  0.6491
  277MOL0     C38094   5.547   7.962   3.684 -0.0118 -0.6898  0.6867
  277MOL0     C38095   5.552   7.942   3.552  0.0539 -0.3205 -0.0828
  277MOL0     O38096   5.616   7.825   3.503  0.3570 -0.2489 -0.5467
  277MOL0     C38097   5.716   7.831   3.396  0.2606  0.0104 -0.4423
  277MOL0     C38098   5.861   7.803   3.448  0.7311  0.1329 -0.2692
  277MOL0     C38099   5.880   7.670   3.521 -0.2580  0.1382 -0.7858
  277MOL0     C38100   5.990   7.699   3.631  0.2114  0.5496  0.6228
  277MOL0     C38101   6.065   7.570   3.679 -0.1840  0.3176  0.2738
  277MOL0     C38102   5.970   7.480   3.774  0.5533 -0.1153  0.0917
  277MOL0     C38103   5.884   7.379   3.704 -0.7007  0.2310  0.4652
  277MOL0     C38104   5.972   7.274   3.645 -1.9573  0.6857 -0.4337
  277MOL0     N38105   5.883   7.178   3.575  0.4592  0.7178 -0.4255
  277MOL0     C38106   5.833   7.201   3.453 -0.4338  0.4220 -0.0203
  277MOL0     C38107   5.762   7.096   3.419  0.1064 -0.9991 -0.5455
  277MOL0     C38108   5.708   7.061   3.283  0.8864  0.6596  0.0095
  277MOL0     C38109   5.558   7.044   3.285  0.1518  0.2738 -0.3003
  277MOL0     C38110   5.496   7.038   3.143 -0.3527 -0.2909 -0.3650
  277MOL0     C38111   5.475   6.888   3.101  0.7267 -0.5053  0.1305
  277MOL0     O38112   5.480   6.875   2.962  0.5033  0.3210  0.4417
  277MOL0     C38113   5.582   6.908   2.881  0.1425  0.2677 -0.0435
  277MOL0     C38114   5.560   6.891   2.742  0.2634 -0.2330 -1.1622
  277MOL0     C38115   5.652   6.929   2.652 -0.3867 -0.8972 -0.8122
  277MOL0     C38116   5.611   6.922   2.501 -0.3495  0.0799 -0.6820
  277MOL0     C38117   5.780   6.974   2.692 -0.1085 -0.2656 -0.5328
  277MOL0     C38118   5.888   6.990   2.588  0.1797 -0.2284  0.1497
  277MOL0     O38119   5.976   7.090   2.609 -0.0622  0.6128 -1.1182
  277MOL0     C38120   6.095   7.115   2.544  0.2602  0.4595  0.1022
  277MOL0     C38121   6.166   7.216   2.603  0.7631  0.0069 -0.9889
  277MOL0     C38122   6.300   7.249   2.559  0.4831 -0.1186  1.2463
  277MOL0     C38123   6.350   7.182   2.449 -0.2691 -0.5279  0.0222
  277MOL0     O38124   6.470   7.233   2.405 -0.1949  0.2549  0.0240
  277MOL0     C38125   6.549   7.141   2.338 -0.0307  0.6343 -0.7983
  277MOL0     C38126   6.675   7.210   2.311 -0.1145 -0.0304  0.4110
  277MOL0     C38127   6.769   7.127   2.225 -0.0764 -0.5804  0.9271
  277MOL0     C38128   6.889   7.207   2.178 -0.1836  0.3208  0.4278
  277MOL0     C38129   6.969   7.280   2.283 -0.0019  0.2568  1.0335
  277MOL0     C38130   7.078   7.371   2.218  0.3436 -0.1167 -0.2148
  277MOL0     C38131   7.197   7.410   2.314  0.0736 -0.2538 -0.7441
  277MOL0     C38132   7.229   7.554   2.282  0.3833 -0.4473 -0.8301
  277MOL0    Cl38133   7.075   7.661   2.324  0.3365 -0.0301 -0.1351
  277MOL0     C38134   6.282   7.082   2.381  0.4295  0.3722 -0.4404
  277MOL0     C38135   6.155   7.048   2.431  0.3962 -0.9205  0.2692
  277MOL0     O38136   5.897   6.903   2.499  0.3242  0.4662  0.1978
  277MOL0     C38137   5.805   6.990   2.831  0.2150  0.3783  0.0912
  277MOL0     C38138   5.708   6.946   2.920 -0.5708 -0.2809  0.9163
  277MOL0     N38139   5.745   7.027   3.541 -0.1310 -0.0438 -0.0237
  277MOL0     N38140   5.825   7.063   3.629  0.4964 -0.0209 -1.5058
  277MOL0     C38141   5.500   8.041   3.464 -0.5183  0.5214  0.7794
  277MOL0     C38142   5.463   8.159   3.510 -0.1203 -0.8382  0.1179
  277MOL0     C38143   5.191   8.429   3.760 -0.1928  0.2412 -0.0567
  277MOL0     C38144   5.268   8.544   3.773  0.9967 -0.5796 -0.0040
  277MOL0     C38145   5.204   8.667   3.808 -0.2205  0.6588  0.8571
  277MOL0     C38146   5.067   8.672   3.802  0.3019 -0.0936 -0.0257
  277MOL0     O38147   5.013   8.792   3.833 -0.0908  0.1854  0.6267
  277MOL0     C38148   4.902   8.831   3.744  0.3969 -1.6123  0.6587
  277MOL0     C38149   4.768   8.862   3.819 -0.7303 -0.1156 -0.1498
  277MOL0     C38150   4.636   8.830   3.743 -0.5234  0.7278  0.4482
  277MOL0     C38151   4.508   8.821   3.831  0.2499 -0.2227 -0.0887
  277MOL0     C38152   4.505   8.710   3.924 -0.5357 -0.1668 -0.6407
  277MOL0     C38153   4.529   8.615   3.999 -0.2037  0.0193 -0.1232
  277MOL0     C38154   4.996   8.557   3.789 -0.0492 -0.5756 -0.3280
  277MOL0     C38155   5.056   8.435   3.771 -0.0861  0.0524  0.3849
  277MOL0     C38156   4.958   8.314   3.754  0.3137  0.0845  0.2572
  277MOL0     H38157   5.543   8.099   3.831  2.8292  2.0739 -0.0730
  277MOL0     H38158   5.583   7.890   3.757 -1.3090  1.0931  3.2352
  277MOL0     H38159   5.725   7.928   3.347  2.1191  0.4556  0.6776
  277MOL0     H38160   5.701   7.751   3.324  0.4454 -0.5350  0.1221
  277MOL0     H38161   5.926   7.797   3.361 -0.7764 -0.0775 -1.4188
  277MOL0     H38162   5.891   7.892   3.504 -0.4892 -0.1552  0.9092
  277MOL0     H38163   5.783   7.645   3.565  0.0324  4.1175  2.8021
  277MOL0     H38164   5.902   7.596   3.444  1.5574 -1.0055  0.7622
  277MOL0     H38165   6.070   7.755   3.582  1.2999 -1.2797  0.2289
  277MOL0     H38166   5.944   7.763   3.707  0.4266  1.8336 -0.2872
  277MOL0     H38167   6.142   7.599   3.751 -2.3912  0.8914  2.5354
  277MOL0     H38168   6.115   7.521   3.595 -0.2331  1.4791 -0.4585
  277MOL0     H38169   6.032   7.420   3.842 -1.3297 -3.9914 -1.2776
  277MOL0     H38170   5.920   7.556   3.834 -0.3540 -0.9937  0.4744
  277MOL0     H38171   5.819   7.438   3.640 -1.3187  2.8451  3.2306
  277MOL0     H38172   5.821   7.336   3.783  1.3535  1.7517  3.1239
  277MOL0     H38173   6.045   7.309   3.571 -2.5992  0.6895 -1.0759
  277MOL0     H38174   6.036   7.233   3.724  1.4372 -1.6175 -4.0163
  277MOL0     H38175   5.863   7.273   3.377  0.2379 -0.4979 -0.6571
  277MOL0     H38176   5.742   6.958   3.267  0.8347  0.6098  0.2236
  277MOL0     H38177   5.753   7.127   3.207  0.2131  1.3287  0.1800
  277MOL0     H38178   5.542   6.956   3.348 -1.1049  0.7700  0.1071
  277MOL0     H38179   5.512   7.130   3.336  3.3867  0.7022  2.2165
  277MOL0     H38180   5.405   7.098   3.152  1.4489  2.3877  1.2710
  277MOL0     H38181   5.555   7.104   3.080  1.5146 -0.1521  1.4295
  277MOL0     H38182   5.560   6.833   3.141  1.6232  0.0139 -1.0291
  277MOL0     H38183   5.378   6.857   3.143 -0.2935 -0.0108 -1.7684
  277MOL0     H38184   5.463   6.853   2.710 -0.1962 -0.3630  0.3357
  277MOL0     H38185   5.670   6.989   2.437  7.1679 -4.2847  0.5167
  277MOL0     H38186   5.502   6.917   2.492 -0.3274 -1.1931 -0.3088
  277MOL0     H38187   5.657   6.825   2.480 -2.9577 -1.3916  0.0693
  277MOL0     H38188   6.135   7.271   2.691 -0.5966 -1.0812 -0.7611
  277MOL0     H38189   6.365   7.322   2.606  1.5369 -0.4439  0.3327
  277MOL0     H38190   6.565   7.053   2.401 -0.2241  0.2771 -1.2445
  277MOL0     H38191   6.496   7.105   2.250 -0.6984  1.1848 -0.6268
  277MOL0     H38192   6.659   7.307   2.264 -1.3508 -1.3854 -2.1216
  277MOL0     H38193   6.743   7.236   2.393  3.5068  1.6439 -2.7934
  277MOL0     H38194   6.725   7.083   2.136  3.0664 -1.8340 -0.1638
  277MOL0     H38195   6.803   7.041   2.285  1.6994 -0.8317 -0.3704
  277MOL0     H38196   6.864   7.275   2.097 -0.2490  1.4157  1.3313
  277MOL0     H38197   6.940   7.122   2.130 -1.7438 -1.6607  2.0777
  277MOL0     H38198   6.909   7.349   2.344 -1.0382  1.0038 -0.7618
  277MOL0     H38199   7.024   7.207   2.343 -1.7931 -2.6529 -0.6576
  277MOL0     H38200   7.020   7.454   2.175  0.7995  0.7251  0.7503
  277MOL0     H38201   7.125   7.333   2.127  1.8496 -1.9375  1.2706
  277MOL0     H38202   7.289   7.354   2.293  1.2469  0.1685  2.6201
  277MOL0     H38203   7.170   7.386   2.417  1.2239  1.2588 -0.0535
  277MOL0     H38204   7.253   7.567   2.176 -2.3277  0.6223 -1.4023
  277MOL0     H38205   7.320   7.571   2.340  0.6637 -3.0752 -0.3887
  277MOL0     H38206   6.317   7.037   2.289 -4.0114 -3.4707 -0.5844
  277MOL0     H38207   6.105   6.961   2.389  2.2188 -0.7143 -2.6193
  277MOL0     H38208   5.901   7.028   2.864  1.1806  0.5513 -2.6499
  277MOL0     H38209   5.738   6.935   3.024  0.0632  2.6704  1.1458
  277MOL0     H38210   5.511   8.023   3.358  2.1888  0.1742  1.0470
  277MOL0     H38211   5.435   8.251   3.459  0.9439 -0.0530  0.9160
  277MOL0     H38212   5.376   8.544   3.765  0.9034  0.7518 -2.2031
  277MOL0     H38213   5.269   8.750   3.830  3.1633 -1.3463 -0.6444
  277MOL0     H38214   4.924   8.929   3.701 -0.8841 -0.4806  2.4444
  277MOL0     H38215   4.900   8.759   3.662  4.4697 -0.1096 -1.0122
  277MOL0     H38216   4.762   8.961   3.864  1.5492 -0.7519  1.7651
  277MOL0     H38217   4.780   8.794   3.904 -1.1017 -0.3318 -0.2670
  277MOL0     H38218   4.626   8.911   3.670 -0.1602 -0.2071 -0.6749
  277MOL0     H38219   4.645   8.735   3.690  1.9344  0.9325  0.3880
  277MOL0     H38220   4.413   8.804   3.780 -2.4143 -0.7802  4.4595
  277MOL0     H38221   4.489   8.917   3.880  0.5628 -0.9099  1.4558
  277MOL0     H38222   4.561   8.522   4.041  0.1026 -0.5961 -1.6243
  277MOL0     H38223   4.888   8.570   3.790  0.1722  2.6757 -2.8732
  277MOL0     H38224   4.971   8.282   3.650 -1.2722  1.5774 -0.4634
  277MOL0     H38225   4.971   8.232   3.825  0.4287 -1.0245 -0.9940
  277MOL0     H38226   4.851   8.339   3.762  0.1314 -0.5218 -0.1668
  278MOL0     O38227  10.674   4.966   1.611 -0.0921 -0.5092 -0.6309
  278MOL0     C38228  10.737   4.863   1.605  0.8767  0.3415  1.1215
  278MOL0     O38229  10.749   4.767   1.710 -0.3177 -0.1264  0.8607
  278MOL0     C38230  10.669   4.783   1.829  0.3697 -0.6596 -0.1847
  278MOL0     C38231  10.541   4.827   1.836  0.4434  0.8615 -0.5101
  278MOL0     C38232  10.467   4.812   1.960 -0.0134  0.2071 -0.2422
  278MOL0     C38233  10.537   4.790   2.080  0.0717  0.7216 -1.4776
  278MOL0     O38234  10.478   4.795   2.207  0.4966  0.1517 -0.1637
  278MOL0     C38235  10.356   4.867   2.237  0.9748 -0.1668  0.4932
  278MOL0     C38236  10.377   4.946   2.369  0.3879 -0.6677 -0.0357
  278MOL0     C38237  10.490   5.060   2.353  0.1563 -0.8337 -0.9524
  278MOL0     C38238  10.441   5.201   2.359 -0.1472 -0.4876 -0.0098
  278MOL0     C38239  10.556   5.300   2.364  0.5978  0.9349  0.7902
  278MOL0     C38240  10.508   5.446   2.390 -0.7617 -0.0752  0.4219
  278MOL0     C38241  10.571   5.517   2.505  0.0210  0.1641  0.9742
  278MOL0     C38242  10.528   5.667   2.507 -0.2699 -0.3394 -0.1477
  278MOL0     N38243  10.599   5.736   2.615  0.3209 -0.1585 -0.4825
  278MOL0     C38244  10.724   5.779   2.604  0.3091  0.0368  0.1664
  278MOL0     C38245  10.743   5.866   2.704 -0.2749 -0.3531 -0.7349
  278MOL0     C38246  10.873   5.942   2.727  0.0304 -0.0830  0.0142
  278MOL0     C38247  10.852   6.097   2.720 -0.6580 -0.5890  0.3767
  278MOL0     C38248  10.794   6.167   2.599  0.0962 -0.2413 -0.5669
  278MOL0     C38249  10.888   6.179   2.473 -0.5595  0.2188 -0.4305
  278MOL0     O38250  10.843   6.088   2.374  0.3459  0.1135  0.5790
  278MOL0     C38251  10.949   6.031   2.305  0.2273 -0.2810 -0.0908
  278MOL0     C38252  11.081   6.065   2.282 -0.3061 -0.3015 -0.1927
  278MOL0     C38253  11.168   5.996   2.197  0.5449 -0.2653 -0.4436
  278MOL0     C38254  11.309   6.055   2.183  1.1041  0.6532 -0.1156
  278MOL0     C38255  11.128   5.876   2.138  0.2130 -0.6105  0.3854
  278MOL0     C38256  11.210   5.792   2.058  0.0290 -0.6116 -0.4304
  278MOL0     O38257  11.347   5.803   2.077 -0.5911 -0.4418  0.7011
  278MOL0     C38258  11.431   5.741   1.991  0.2498 -0.1391  0.4089
  278MOL0     C38259  11.439   5.607   1.980 -0.2760 -0.6631 -1.3545
  278MOL0     C38260  11.539   5.545   1.891  0.0725 -0.9255  0.3271
  278MOL0     C38261  11.638   5.624   1.828  0.9459 -0.5302 -0.2782
  278MOL0     O38262  11.729   5.572   1.741 -0.0838  0.0258 -0.6852
  278MOL0     C38263  11.872   5.581   1.784  0.1467  0.0604  0.4881
  278MOL0     C38264  11.971   5.482   1.714 -0.1001 -0.0877 -0.6249
  278MOL0     C38265  11.985   5.489   1.560 -0.3154 -0.4936 -0.2882
  278MOL0     C38266  12.103   5.408   1.508  0.8590  0.4433 -0.2688
  278MOL0     C38267  12.232   5.488   1.508  1.2653 -0.5116  0.6518
  278MOL0     C38268  12.338   5.416   1.419  0.9043  0.4805  0.9853
  278MOL0     C38269  12.411   5.303   1.494 -0.0807 -0.3468  1.3937
  278MOL0     C38270  12.504   5.229   1.411 -0.6545  0.2257 -0.1502
  278MOL0    Cl38271  12.434   5.152   1.271  0.6145 -0.1883  0.2556
  278MOL0     C38272  11.630   5.758   1.850  0.8266  0.3155  0.6373
  278MOL0     C38273  11.530   5.816   1.925  0.4272 -0.0407  0.2476
  278MOL0     O38274  11.149   5.713   1.989 -0.2603  0.8881  0.2060
  278MOL0     C38275  10.997   5.835   2.171  0.2005  0.7311 -0.2087
  278MOL0     C38276  10.909   5.913   2.247 -0.1319 -0.2694 -0.2942
  278MOL0     N38277  10.636   5.845   2.794 -0.2626  0.1473 -0.0150
  278MOL0     N38278  10.546   5.777   2.730  0.4654  0.1713 -1.0752
  278MOL0     C38279  10.668   4.742   2.077 -0.4590 -0.4016 -0.2088
  278MOL0     C38280  10.729   4.737   1.949  0.7252  0.1928  0.1293
  278MOL0     C38281  10.819   4.848   1.483  0.0511 -0.1846  1.0897
  278MOL0     C38282  10.824   4.955   1.379  0.1436  0.6562 -0.7932
  278MOL0     C38283  10.906   4.954   1.269  0.2467  1.0254  0.1377
  278MOL0     C38284  10.994   4.846   1.256 -0.0816  0.1569 -0.3214
  278MOL0     O38285  11.081   4.856   1.148 -0.3110 -0.1922  0.3901
  278MOL0     C38286  11.200   4.775   1.161  0.4637 -0.6762  0.2105
  278MOL0     C38287  11.283   4.818   1.036 -0.2907 -0.3125  0.8329
  278MOL0     C38288  11.362   4.716   0.951 -0.7104  0.2335 -0.7473
  278MOL0     C38289  11.460   4.631   1.025 -0.8862  0.5050 -0.4242
  278MOL0     C38290  11.577   4.719   1.053 -0.3853  0.4938 -1.2212
  278MOL0     C38291  11.664   4.799   1.082  0.1503 -0.0532 -0.1363
  278MOL0     C38292  11.001   4.745   1.358 -0.3272  0.0191 -0.1393
  278MOL0     C38293  10.920   4.744   1.469  0.6521  0.5334  0.9954
  278MOL0     C38294  10.954   4.636   1.576  0.2607  0.2609 -0.0223
  278MOL0     H38295  10.478   4.868   1.758 -3.3067  0.4960  2.0323
  278MOL0     H38296  10.367   4.854   1.959 -0.2668 -0.3317  0.9411
  278MOL0     H38297  10.273   4.797   2.250 -0.8487  1.3450 -2.0141
  278MOL0     H38298  10.321   4.934   2.158  0.4623  1.0707  1.7164
  278MOL0     H38299  10.285   5.002   2.391 -1.7297 -4.5355  1.9038
  278MOL0     H38300  10.384   4.889   2.462 -3.0070 -0.9417  0.1618
  278MOL0     H38301  10.572   5.034   2.420  2.4477  3.5342 -1.6903
  278MOL0     H38302  10.519   5.050   2.248  0.0374 -2.7120 -0.8251
  278MOL0     H38303  10.376   5.211   2.271 -2.2401 -2.0395  1.2576
  278MOL0     H38304  10.380   5.215   2.449  2.4631  1.3118  1.6028
  278MOL0     H38305  10.622   5.282   2.278  1.3545  1.7949  1.1745
  278MOL0     H38306  10.608   5.277   2.458 -0.5488  1.9672  1.7166
  278MOL0     H38307  10.525   5.499   2.295  0.3493  0.6589  1.0168
  278MOL0     H38308  10.399   5.449   2.397 -0.8648  0.2614 -1.0059
  278MOL0     H38309  10.680   5.519   2.506  0.1236 -2.1624  1.9986
  278MOL0     H38310  10.536   5.461   2.593  0.7690 -1.0613  0.5202
  278MOL0     H38311  10.548   5.729   2.418  4.4073  0.3635  1.1099
  278MOL0     H38312  10.419   5.663   2.515 -0.5132 -1.9729 -2.8728
  278MOL0     H38313  10.789   5.755   2.521 -1.6891  0.2500 -1.5374
  278MOL0     H38314  10.939   5.915   2.644 -0.1165 -1.6480  0.3833
  278MOL0     H38315  10.938   5.915   2.811 -1.0013 -0.0020  0.8507
  278MOL0     H38316  10.781   6.117   2.800 -2.0706 -1.5975 -0.5736
  278MOL0     H38317  10.940   6.159   2.735 -1.0800 -0.5080  2.8903
  278MOL0     H38318  10.698   6.115   2.588 -0.0322 -1.5582  4.3336
  278MOL0     H38319  10.773   6.273   2.613 -0.0507 -0.4082  0.6353
  278MOL0     H38320  10.909   6.280   2.437 -0.3839  0.1883 -0.4153
  278MOL0     H38321  10.988   6.155   2.512 -0.2679  1.1531 -0.5828
  278MOL0     H38322  11.121   6.156   2.325 -1.8320  0.5189 -0.4531
  278MOL0     H38323  11.393   6.000   2.226  0.2796  1.6546  3.0288
  278MOL0     H38324  11.306   6.159   2.215  0.9208 -0.0496  2.3049
  278MOL0     H38325  11.345   6.076   2.082  0.9029  2.0260  0.0819
  278MOL0     H38326  11.364   5.547   2.032  1.0555 -2.2646 -1.2024
  278MOL0     H38327  11.529   5.442   1.858  1.3865 -1.3744  1.2530
  278MOL0     H38328  11.917   5.679   1.768 -0.5209  0.0419 -1.8814
  278MOL0     H38329  11.868   5.556   1.890  1.2612 -1.8644  0.1276
  278MOL0     H38330  12.068   5.511   1.755 -0.6121  0.7027  0.0524
  278MOL0     H38331  11.947   5.377   1.735 -1.8185  0.7560  2.1053
  278MOL0     H38332  11.990   5.595   1.534 -0.8036 -0.3147  0.3363
  278MOL0     H38333  11.889   5.448   1.524 -2.4642  1.4424  2.7783
  278MOL0     H38334  12.094   5.374   1.405 -1.8681 -2.1256  0.6780
  278MOL0     H38335  12.118   5.317   1.566  1.5041 -1.4299 -3.1924
  278MOL0     H38336  12.214   5.592   1.478  4.9545 -0.4237 -1.9476
  278MOL0     H38337  12.274   5.508   1.606  0.6443  1.4189  0.5751
  278MOL0     H38338  12.408   5.495   1.388  0.3753  1.4176  2.1153
  278MOL0     H38339  12.296   5.379   1.325 -0.6356 -2.1333  2.5822
  278MOL0     H38340  12.332   5.242   1.540 -2.7533  2.1494  0.4577
  278MOL0     H38341  12.473   5.346   1.573  2.2692  1.1788 -1.1352
  278MOL0     H38342  12.542   5.148   1.474 -1.6270  0.4189  0.7027
  278MOL0     H38343  12.592   5.287   1.381  0.8918 -1.8257  0.1330
  278MOL0     H38344  11.687   5.836   1.799  0.7255 -0.2932 -0.4553
  278MOL0     H38345  11.522   5.923   1.940  0.5178  0.1597 -1.0104
  278MOL0     H38346  10.966   5.733   2.148  0.5004  0.8584 -1.2377
  278MOL0     H38347  10.808   5.873   2.256 -0.7800  1.5509  1.0229
  278MOL0     H38348  10.721   4.704   2.164  1.1741  1.4184 -0.3336
  278MOL0     H38349  10.830   4.699   1.940  0.8495 -0.3837  2.9578
  278MOL0     H38350  10.746   5.030   1.392 -2.0295 -1.6294  0.4037
  278MOL0     H38351  10.898   5.030   1.193 -1.5857  1.4340  0.7024
  278MOL0     H38352  11.255   4.792   1.254 -1.3769  0.5604  1.1230
  278MOL0     H38353  11.161   4.673   1.148 -0.0501 -0.5573  0.7714
  278MOL0     H38354  11.356   4.891   1.071  0.8722 -0.0650 -1.8483
  278MOL0     H38355  11.222   4.871   0.962 -0.5508 -2.6419 -0.7194
  278MOL0     H38356  11.284   4.644   0.923  1.2803 -1.5846 -1.9410
  278MOL0     H38357  11.410   4.761   0.863 -0.9488 -3.6119 -3.0860
  278MOL0     H38358  11.492   4.552   0.957  0.3199  0.6538 -0.0455
  278MOL0     H38359  11.417   4.588   1.116 -2.1690  1.2150 -0.6790
  278MOL0     H38360  11.754   4.854   1.099  2.0966 -2.9195 -0.3863
  278MOL0     H38361  11.068   4.659   1.351 -3.1570 -2.3864  0.1544
  278MOL0     H38362  11.023   4.564   1.530  0.6354 -0.8257  2.0701
  278MOL0     H38363  11.000   4.681   1.665 -0.0118  0.5306 -0.0177
  278MOL0     H38364  10.869   4.582   1.619  0.6571  0.0583  0.5250
  279MOL0     O38365   7.580   5.395   2.144  0.5419 -0.1395 -1.2245
  279MOL0     C38366   7.640   5.494   2.127  0.5479  0.4815  0.1743
  279MOL0     O38367   7.588   5.617   2.093  0.1299 -0.4727 -0.0654
  279MOL0     C38368   7.454   5.629   2.097 -0.7740 -0.4385 -0.7112
  279MOL0     C38369   7.405   5.744   2.155 -0.1612 -0.0427  0.5077
  279MOL0     C38370   7.265   5.775   2.165  0.8514  0.7144  0.6404
  279MOL0     C38371   7.169   5.692   2.110 -0.5436  0.8240 -0.9230
  279MOL0     O38372   7.032   5.704   2.111  0.4928 -0.6290 -0.1733
  279MOL0     C38373   6.990   5.830   2.162 -0.1976 -0.0827  0.5014
  279MOL0     C38374   6.845   5.856   2.142 -0.3018  0.4398 -0.5028
  279MOL0     C38375   6.766   5.806   2.266 -0.5782  0.2794  1.0084
  279MOL0     C38376   6.612   5.827   2.274  1.2473 -0.1331  0.2288
  279MOL0     C38377   6.599   5.962   2.343  0.2790 -0.0556 -0.9327
  279MOL0     C38378   6.460   6.037   2.322  0.6276 -0.5241 -0.1132
  279MOL0     C38379   6.468   6.185   2.367  0.1918 -0.3334 -0.1833
  279MOL0     C38380   6.419   6.206   2.520 -0.3408 -0.2924 -0.3016
  279MOL0     N38381   6.482   6.324   2.573  1.0121  0.0523  0.9176
  279MOL0     C38382   6.466   6.454   2.519  0.2293  0.5038  0.4210
  279MOL0     C38383   6.530   6.532   2.611  0.7824  0.6041 -0.7833
  279MOL0     C38384   6.547   6.677   2.600 -0.2544 -0.2816 -0.5427
  279MOL0     C38385   6.654   6.713   2.493 -0.7107  0.3760 -0.4633
  279MOL0     C38386   6.628   6.674   2.341 -0.1467  0.2071  0.2191
  279MOL0     C38387   6.477   6.722   2.291 -0.3332  0.2755  0.7840
  279MOL0     O38388   6.476   6.693   2.146 -0.0636  0.6115  0.1094
  279MOL0     C38389   6.358   6.724   2.081  0.9764  0.0956 -0.2883
  279MOL0     C38390   6.234   6.763   2.131 -0.1445 -0.7486  0.4582
  279MOL0     C38391   6.127   6.807   2.052  0.1652  0.1505  0.1358
  279MOL0     C38392   5.999   6.844   2.131  0.2518  0.2103 -0.3179
  279MOL0     C38393   6.140   6.788   1.912 -1.1085 -0.0346 -0.6317
  279MOL0     C38394   6.036   6.828   1.810 -0.2540  0.0120  0.1675
  279MOL0     O38395   6.020   6.742   1.700  0.0629  0.2314 -0.0743
  279MOL0     C38396   5.893   6.703   1.674 -0.9186 -0.7368  0.0608
  279MOL0     C38397   5.847   6.694   1.539  0.2020 -0.3302  0.3972
  279MOL0     C38398   5.713   6.647   1.510  0.3602  0.4034 -0.4723
  279MOL0     C38399   5.630   6.603   1.617  0.5228  0.1295 -0.3957
  279MOL0     O38400   5.501   6.553   1.599 -1.1352 -0.5366 -1.1931
  279MOL0     C38401   5.424   6.623   1.490 -0.3941 -0.0887 -0.5906
  279MOL0     C38402   5.293   6.671   1.548 -0.6585  0.6887  0.9043
  279MOL0     C38403   5.300   6.756   1.676 -0.2517 -1.0200 -0.0520
  279MOL0     C38404   5.172   6.833   1.694 -0.5260 -0.1146  0.4376
  279MOL0     C38405   5.184   6.926   1.824  0.0194 -0.3595 -0.1766
  279MOL0     C38406   5.076   7.036   1.852  0.3640  0.4311  0.6906
  279MOL0     C38407   4.939   6.966   1.884  0.0853 -0.2540  0.1336
  279MOL0     C38408   4.837   7.068   1.933 -0.9301  0.6727  0.5202
  279MOL0    Cl38409   4.677   6.987   1.977  0.1633 -0.3307  0.2345
  279MOL0     C38410   5.685   6.581   1.741 -0.3590  0.9887  0.3776
  279MOL0     C38411   5.815   6.634   1.769 -0.0688 -0.5260 -0.0689
  279MOL0     O38412   5.959   6.925   1.830 -0.2093  0.2333 -0.4460
  279MOL0     C38413   6.268   6.745   1.863  0.3343  0.4880  0.3344
  279MOL0     C38414   6.375   6.719   1.942 -0.0056 -0.0720 -0.1645
  279MOL0     N38415   6.567   6.452   2.723 -0.8814 -0.0575 -0.4263
  279MOL0     N38416   6.543   6.327   2.695  0.5361  0.0377  0.0469
  279MOL0     C38417   7.228   5.578   2.046  0.5845  0.1861 -1.2988
  279MOL0     C38418   7.359   5.542   2.038 -0.6854 -1.1068  0.4941
  279MOL0     C38419   7.788   5.490   2.157 -0.3850 -0.2757  0.5609
  279MOL0     C38420   7.862   5.607   2.127  0.4260 -1.1881  1.0626
  279MOL0     C38421   7.999   5.612   2.141 -0.0444 -0.2874  0.5588
  279MOL0     C38422   8.072   5.512   2.195 -0.1600  0.5424  0.4832
  279MOL0     O38423   8.196   5.509   2.245 -0.2691  0.5100  0.2247
  279MOL0     C38424   8.271   5.628   2.244 -0.6093 -0.1603  0.3903
  279MOL0     C38425   8.343   5.632   2.103  0.3059 -0.3530  0.3654
  279MOL0     C38426   8.399   5.500   2.053 -0.4968  0.5526 -0.7795
  279MOL0     C38427   8.493   5.528   1.932  0.5580 -0.0649  0.7620
  279MOL0     C38428   8.419   5.528   1.805 -0.5493 -0.7560  0.2660
  279MOL0     C38429   8.359   5.512   1.703 -0.0075  0.4160  0.9946
  279MOL0     C38430   8.001   5.390   2.208  1.1547  0.1196 -0.3166
  279MOL0     C38431   7.862   5.382   2.209  0.4914 -0.7721 -0.3520
  279MOL0     C38432   7.800   5.246   2.232 -0.8996  0.4208 -0.5249
  279MOL0     H38433   7.480   5.806   2.204  0.1120 -0.0444  0.0905
  279MOL0     H38434   7.231   5.860   2.223 -2.7826 -0.4075  0.3939
  279MOL0     H38435   7.053   5.904   2.112 -2.7178  0.5507 -1.9821
  279MOL0     H38436   7.006   5.841   2.270 -0.6584  2.3789  0.3898
  279MOL0     H38437   6.821   5.963   2.146  0.4403  0.5901  0.3716
  279MOL0     H38438   6.811   5.829   2.042 -0.2950  3.0972 -1.3040
  279MOL0     H38439   6.784   5.699   2.272  1.7682  0.6514  1.5632
  279MOL0     H38440   6.811   5.856   2.353  0.8906  2.2816 -0.8037
  279MOL0     H38441   6.567   5.816   2.175  0.1097  3.1919  0.2507
  279MOL0     H38442   6.553   5.758   2.336  0.2516 -2.4264 -3.0231
  279MOL0     H38443   6.673   6.030   2.299  1.5142 -0.2000  0.8077
  279MOL0     H38444   6.624   5.942   2.447  1.3243 -0.2313 -1.2071
  279MOL0     H38445   6.438   6.033   2.215 -1.6155 -1.2246  0.3265
  279MOL0     H38446   6.372   5.997   2.374 -1.2727  0.8955 -2.0511
  279MOL0     H38447   6.410   6.252   2.303  0.4791 -0.5769 -0.7010
  279MOL0     H38448   6.568   6.222   2.342  0.1980 -1.9825 -2.8735
  279MOL0     H38449   6.310   6.212   2.524 -0.2685  1.5832  3.4125
  279MOL0     H38450   6.458   6.126   2.583  3.8570  3.2643  2.2029
  279MOL0     H38451   6.424   6.484   2.423  1.6589  1.5977  0.1011
  279MOL0     H38452   6.587   6.724   2.690 -1.7502 -1.0899  0.5784
  279MOL0     H38453   6.452   6.725   2.578 -0.3328 -0.5485 -0.7996
  279MOL0     H38454   6.672   6.820   2.512  3.2597 -0.3712  1.0258
  279MOL0     H38455   6.754   6.677   2.520  0.1313  1.5833 -1.8146
  279MOL0     H38456   6.691   6.739   2.280 -0.7259  0.6019  0.0268
  279MOL0     H38457   6.646   6.567   2.329 -0.0300  0.3462 -0.9957
  279MOL0     H38458   6.409   6.659   2.349  0.9433 -1.9363 -0.0185
  279MOL0     H38459   6.462   6.827   2.320 -0.4862 -0.0620  1.9745
  279MOL0     H38460   6.226   6.780   2.238 -0.6233 -1.4123  0.5292
  279MOL0     H38461   6.019   6.906   2.219 -1.6364 -1.5263  1.4499
  279MOL0     H38462   5.959   6.753   2.175  0.3383  0.5862  0.5800
  279MOL0     H38463   5.923   6.906   2.083 -0.1591 -2.4346 -3.3526
  279MOL0     H38464   5.907   6.733   1.457 -0.4534  1.0878  0.5565
  279MOL0     H38465   5.676   6.654   1.408  0.1863 -2.0901 -0.6590
  279MOL0     H38466   5.485   6.703   1.448  1.9715 -3.4135 -4.1727
  279MOL0     H38467   5.412   6.545   1.414 -0.5900 -1.8813  1.1893
  279MOL0     H38468   5.230   6.704   1.464  0.1628 -2.7072 -1.2384
  279MOL0     H38469   5.244   6.577   1.573 -1.9449 -0.7246 -5.2842
  279MOL0     H38470   5.394   6.812   1.670 -0.2738 -0.3204  3.6548
  279MOL0     H38471   5.319   6.700   1.768  1.4934  2.8439  2.2412
  279MOL0     H38472   5.084   6.773   1.719 -1.0569  0.5495  0.1923
  279MOL0     H38473   5.160   6.893   1.603  1.3450  1.4817  1.1504
  279MOL0     H38474   5.208   6.863   1.910  0.0789 -2.8599 -1.9297
  279MOL0     H38475   5.266   6.995   1.805  0.1554 -0.8792 -1.6664
  279MOL0     H38476   5.051   7.101   1.768 -1.5670  0.7354  1.4308
  279MOL0     H38477   5.092   7.092   1.945 -0.1433  1.1027  0.3835
  279MOL0     H38478   4.954   6.897   1.967  1.8227  0.0483  0.0957
  279MOL0     H38479   4.916   6.916   1.790  1.5234  1.5547 -1.2741
  279MOL0     H38480   4.826   7.142   1.854  0.5863  3.0960  2.4468
  279MOL0     H38481   4.869   7.114   2.027 -0.6769  0.7302  0.4056
  279MOL0     H38482   5.628   6.514   1.804 -2.6402  1.2863 -1.2480
  279MOL0     H38483   5.862   6.641   1.867  1.6420  1.5115 -0.9496
  279MOL0     H38484   6.279   6.754   1.755  1.3035  1.7318  0.5077
  279MOL0     H38485   6.472   6.680   1.912  1.0933  0.1156  2.8517
  279MOL0     H38486   7.160   5.513   1.992 -2.9935  1.1137  1.6683
  279MOL0     H38487   7.380   5.454   1.978 -4.1260 -1.6690 -0.0670
  279MOL0     H38488   7.819   5.692   2.075  3.0081 -2.3748 -3.5863
  279MOL0     H38489   8.042   5.711   2.124  0.0231 -0.6921 -1.9626
  279MOL0     H38490   8.209   5.716   2.261  0.5024  0.8251 -0.4334
  279MOL0     H38491   8.339   5.639   2.329 -2.3703  0.5188  1.7669
  279MOL0     H38492   8.428   5.699   2.120  1.0479 -1.3120  0.5176
  279MOL0     H38493   8.269   5.677   2.037  0.0485  0.5702  1.2596
  279MOL0     H38494   8.462   5.456   2.130 -2.1790  0.0735  0.3650
  279MOL0     H38495   8.318   5.436   2.018 -1.6108  1.8253 -0.6059
  279MOL0     H38496   8.578   5.460   1.929  1.1833  0.7001 -2.8466
  279MOL0     H38497   8.520   5.633   1.944 -0.6044  0.2143  1.1114
  279MOL0     H38498   8.314   5.531   1.608  0.6149  2.9569  1.1398
  279MOL0     H38499   8.053   5.299   2.238 -0.6087 -0.8063  0.0218
  279MOL0     H38500   7.872   5.173   2.271 -1.2699  0.3406  0.0340
  279MOL0     H38501   7.712   5.244   2.296  0.3369 -1.6933  1.2626
  279MOL0     H38502   7.754   5.216   2.138 -4.3770  1.1968  0.7767
  280MOL0     O38503  10.044   5.972   7.785  0.9835  0.7275  0.3180
  280MOL0     C38504   9.924   6.011   7.800 -0.5661  0.3060  1.7157
  280MOL0     O38505   9.852   6.095   7.705 -0.4810 -0.0962  0.0480
  280MOL0     C38506   9.924   6.160   7.606 -0.9447  0.2911  0.8504
  280MOL0     C38507  10.013   6.267   7.635 -0.2515 -1.0945  0.2255
  280MOL0     C38508  10.094   6.322   7.532  0.1442  0.1549 -0.2505
  280MOL0     C38509  10.111   6.255   7.412 -0.2129 -0.3734 -0.1440
  280MOL0     O38510  10.209   6.304   7.327 -0.7550 -0.0272 -0.3063
  280MOL0     C38511  10.343   6.276   7.368  0.0184  0.5575 -0.9096
  280MOL0     C38512  10.365   6.117   7.380  0.1179  0.0429 -0.0855
  280MOL0     C38513  10.335   6.048   7.242  0.3227  0.3877 -0.4922
  280MOL0     C38514  10.386   5.900   7.248 -0.6480 -0.6349  0.3936
  280MOL0     C38515  10.365   5.823   7.128  0.4188 -0.1143  0.5617
  280MOL0     C38516  10.442   5.691   7.130 -0.0881 -0.5072 -0.1233
  280MOL0     C38517  10.404   5.589   7.247  0.2242  0.7398 -0.2446
  280MOL0     C38518  10.469   5.455   7.213 -0.1999  0.5362  0.9423
  280MOL0     N38519  10.618   5.465   7.187  0.0466  0.3192 -0.3301
  280MOL0     C38520  10.708   5.487   7.283 -0.1519  1.1087  0.7478
  280MOL0     C38521  10.833   5.495   7.221 -0.5119 -0.4171 -0.3339
  280MOL0     C38522  10.969   5.526   7.290  0.3015  0.3864 -0.0670
  280MOL0     C38523  11.028   5.649   7.229  0.5334  0.6040 -0.2760
  280MOL0     C38524  10.939   5.768   7.253 -0.8754 -0.3912  0.0668
  280MOL0     C38525  10.907   5.804   7.401  0.0957 -0.0812  0.0257
  280MOL0     O38526  11.040   5.804   7.474  0.7847 -0.4712 -0.0282
  280MOL0     C38527  11.048   5.787   7.609 -0.4062 -0.4107 -0.4951
  280MOL0     C38528  10.939   5.774   7.684  0.2990 -0.1110  0.4570
  280MOL0     C38529  10.938   5.779   7.827 -1.0868  0.6461  0.4553
  280MOL0     C38530  10.815   5.778   7.896  0.1618  1.0271 -0.6167
  280MOL0     C38531  11.069   5.762   7.883  1.0341  0.1449 -0.0161
  280MOL0     C38532  11.093   5.712   8.022  0.5904  0.7089  0.1788
  280MOL0     O38533  11.219   5.677   8.056 -0.5547 -0.0158 -0.0232
  280MOL0     C38534  11.218   5.614   8.174 -0.3974 -0.4639 -1.2420
  280MOL0     C38535  11.185   5.476   8.188  1.1595 -0.2133 -0.3973
  280MOL0     C38536  11.169   5.413   8.311 -0.0591 -0.5219 -0.2786
  280MOL0     C38537  11.191   5.487   8.428 -0.5727  0.8572 -0.1918
  280MOL0     O38538  11.203   5.416   8.551  0.1080 -0.7644  0.0248
  280MOL0     C38539  11.134   5.295   8.585  0.5130 -0.7514  0.3931
  280MOL0     C38540  11.131   5.249   8.726  0.9592 -0.0662  0.0812
  280MOL0     C38541  11.026   5.140   8.752  0.6041  0.7674  0.3242
  280MOL0     C38542  10.948   5.148   8.889 -0.2596  0.0493 -0.0743
  280MOL0     C38543  10.809   5.089   8.866  0.8588  0.6521  0.7331
  280MOL0     C38544  10.712   5.119   8.974 -0.8000 -0.1525  0.1499
  280MOL0     C38545  10.573   5.067   8.929 -0.4460 -0.1413 -0.3413
  280MOL0     C38546  10.480   5.031   9.049  0.8728 -0.1074  0.0347
  280MOL0    Cl38547  10.324   4.966   8.997 -0.2050  0.1757 -0.0204
  280MOL0     C38548  11.229   5.631   8.414  0.4107 -0.1688  0.2661
  280MOL0     C38549  11.254   5.686   8.291 -0.1261  0.4227 -0.8998
  280MOL0     O38550  10.999   5.709   8.097 -0.4916 -0.6409 -0.0129
  280MOL0     C38551  11.182   5.760   7.805 -0.1425  0.4887 -0.1384
  280MOL0     C38552  11.179   5.781   7.667  0.6725 -0.3692 -0.9342
  280MOL0     N38553  10.817   5.469   7.090  0.8818  1.2474 -1.1519
  280MOL0     N38554  10.690   5.458   7.068  0.0734  1.4379  1.0532
  280MOL0     C38555  10.024   6.154   7.380 -0.8523  0.6049  0.5858
  280MOL0     C38556   9.937   6.108   7.478  0.4787 -0.4912 -0.6733
  280MOL0     C38557   9.865   5.947   7.931 -0.7303  0.7472  0.2327
  280MOL0     C38558   9.947   5.950   8.045  0.4729 -0.1061 -0.0507
  280MOL0     C38559   9.919   5.911   8.169  0.4064  0.5548  0.2556
  280MOL0     C38560   9.782   5.872   8.194  0.4327 -0.2104  0.5036
  280MOL0     O38561   9.753   5.859   8.324 -0.4079  0.5524 -0.4528
  280MOL0     C38562   9.791   5.744   8.396  0.9838 -0.3930 -0.1141
  280MOL0     C38563   9.701   5.713   8.517 -0.6190  0.1113  0.3121
  280MOL0     C38564   9.776   5.744   8.649  0.8761  1.4914 -0.1244
  280MOL0     C38565   9.682   5.721   8.764  0.2232 -0.1776  0.4033
  280MOL0     C38566   9.732   5.762   8.894 -0.1371  0.5074  0.3246
  280MOL0     C38567   9.775   5.813   8.998 -0.4788 -0.1193  0.5991
  280MOL0     C38568   9.687   5.865   8.093  0.3476 -0.7831  0.1736
  280MOL0     C38569   9.730   5.909   7.954 -0.2055  0.0443  0.2820
  280MOL0     C38570   9.626   5.919   7.846 -0.2608 -0.3850 -0.0555
  280MOL0     H38571   9.993   6.329   7.722  2.2481  0.0587  0.0706
  280MOL0     H38572  10.148   6.414   7.552 -1.5138  0.2694  5.3872
  280MOL0     H38573  10.363   6.324   7.465  2.4981  0.2359 -1.1960
  280MOL0     H38574  10.423   6.328   7.316  0.7586 -0.6652 -1.0288
  280MOL0     H38575  10.465   6.095   7.420  0.7539 -1.2712 -2.2473
  280MOL0     H38576  10.302   6.079   7.460 -0.1138  0.0715 -0.2542
  280MOL0     H38577  10.231   6.060   7.211 -1.3951 -2.0401  3.5714
  280MOL0     H38578  10.399   6.099   7.169  2.0854  2.1964  2.1269
  280MOL0     H38579  10.494   5.901   7.266 -0.3864 -1.6658 -0.9526
  280MOL0     H38580  10.345   5.855   7.339 -2.6974  1.1646  0.4232
  280MOL0     H38581  10.409   5.881   7.047  2.9404 -1.0512  1.1630
  280MOL0     H38582  10.257   5.807   7.120  0.2319  0.7292  1.2444
  280MOL0     H38583  10.424   5.641   7.035  3.3291  0.5087 -1.4337
  280MOL0     H38584  10.549   5.713   7.136 -0.3054  0.7397 -0.6254
  280MOL0     H38585  10.295   5.588   7.262  0.0621  0.7085 -1.3261
  280MOL0     H38586  10.431   5.618   7.349 -3.6813 -0.4663  1.3396
  280MOL0     H38587  10.463   5.388   7.299 -0.5754  2.6867  2.7060
  280MOL0     H38588  10.421   5.414   7.124 -0.6630  2.1986  0.3798
  280MOL0     H38589  10.675   5.509   7.384 -2.2218  0.3923  0.2805
  280MOL0     H38590  11.042   5.451   7.257 -0.5029 -0.7935  0.7636
  280MOL0     H38591  10.968   5.529   7.399 -0.2358 -1.6743  0.0332
  280MOL0     H38592  11.117   5.667   7.289  0.3863  0.6748 -0.0803
  280MOL0     H38593  11.060   5.627   7.126  1.7396 -2.0635  0.5819
  280MOL0     H38594  11.003   5.851   7.221  1.7636 -2.6972 -1.0852
  280MOL0     H38595  10.845   5.760   7.197 -1.5160  0.3823  0.9871
  280MOL0     H38596  10.861   5.903   7.408 -0.1351 -0.2263  0.6439
  280MOL0     H38597  10.840   5.724   7.434  1.4283 -0.8805  0.9238
  280MOL0     H38598  10.841   5.756   7.641  0.9757 -0.9302 -0.7910
  280MOL0     H38599  10.831   5.856   7.971 -2.8255  2.4393 -1.3119
  280MOL0     H38600  10.803   5.677   7.937 -0.3423  1.6384  0.8177
  280MOL0     H38601  10.737   5.808   7.826  0.7852  2.1395 -0.8537
  280MOL0     H38602  11.158   5.412   8.104 -1.4949 -1.8572  1.5747
  280MOL0     H38603  11.140   5.309   8.321  0.5105 -0.4591  3.7900
  280MOL0     H38604  11.028   5.303   8.558  0.3356 -2.9568  0.2528
  280MOL0     H38605  11.169   5.210   8.526  1.2018 -0.5704  0.5337
  280MOL0     H38606  11.221   5.188   8.745  1.2545 -0.3331 -1.9585
  280MOL0     H38607  11.134   5.337   8.791  3.9906  1.0576 -1.3880
  280MOL0     H38608  11.070   5.040   8.751 -1.3008 -0.1272  0.8642
  280MOL0     H38609  10.955   5.140   8.669  3.4098 -0.0378 -2.2680
  280MOL0     H38610  10.941   5.255   8.911 -0.1750  0.3509 -1.4684
  280MOL0     H38611  10.998   5.085   8.963  1.1156 -3.4738 -3.6578
  280MOL0     H38612  10.775   5.133   8.772  2.8434  0.8177  0.0321
  280MOL0     H38613  10.815   4.985   8.833 -0.6086  1.5787 -3.0232
  280MOL0     H38614  10.694   5.223   9.003 -2.2074  0.3692 -2.3010
  280MOL0     H38615  10.737   5.070   9.069  0.0133 -2.4737 -1.1734
  280MOL0     H38616  10.587   4.973   8.874 -2.0725 -0.7583  0.2536
  280MOL0     H38617  10.526   5.138   8.860  4.1887  2.7550 -0.9654
  280MOL0     H38618  10.451   5.117   9.111  0.8081  1.9222 -2.6480
  280MOL0     H38619  10.526   4.954   9.112 -3.0951 -2.4468  0.4424
  280MOL0     H38620  11.247   5.684   8.507  1.9526  0.8600 -0.5883
  280MOL0     H38621  11.286   5.790   8.283 -0.8235  0.6180 -1.1957
  280MOL0     H38622  11.284   5.763   7.844 -0.0823  0.3174 -0.2757
  280MOL0     H38623  11.275   5.791   7.618  1.4263 -0.7880  0.4047
  280MOL0     H38624  10.030   6.117   7.278 -1.7789  0.9567  0.3963
  280MOL0     H38625   9.876   6.020   7.457  0.3055 -0.1462 -1.6841
  280MOL0     H38626  10.044   5.990   8.019 -0.7905  1.6181 -2.4632
  280MOL0     H38627   9.979   5.921   8.258 -2.7874 -3.0720  3.1758
  280MOL0     H38628   9.786   5.652   8.338  1.6831 -2.4975  2.9738
  280MOL0     H38629   9.893   5.755   8.433  1.1079 -0.4035 -0.4487
  280MOL0     H38630   9.665   5.610   8.525  1.6353 -0.7181  0.4555
  280MOL0     H38631   9.620   5.785   8.502  0.8698  1.6491 -0.8081
  280MOL0     H38632   9.860   5.673   8.655  0.1486  0.6185 -0.1352
  280MOL0     H38633   9.824   5.842   8.654  1.3726  1.2027  1.7550
  280MOL0     H38634   9.657   5.615   8.776 -1.7907  0.3825  1.6558
  280MOL0     H38635   9.590   5.778   8.748 -1.0157 -1.3234  2.9398
  280MOL0     H38636   9.802   5.866   9.087  0.7485 -1.1546  0.8708
  280MOL0     H38637   9.585   5.844   8.123  0.1781  0.5336  0.6050
  280MOL0     H38638   9.618   6.022   7.811  0.6235 -0.1820  0.3250
  280MOL0     H38639   9.663   5.878   7.751  1.7463  0.9094  0.1146
  280MOL0     H38640   9.527   5.877   7.868 -0.3498 -0.5964 -0.8014
  281MOL0     O38641  10.552  11.565   3.754 -0.3590  0.1218 -0.8050
  281MOL0     C38642  10.655  11.506   3.791 -1.4722 -0.2036 -0.6660
  281MOL0     O38643  10.775  11.508   3.718  0.4292  0.4701 -0.3968
  281MOL0     C38644  10.788  11.559   3.590  0.7421  0.3317 -0.1035
  281MOL0     C38645  10.688  11.548   3.487  0.1701  0.3750  0.2846
  281MOL0     C38646  10.718  11.587   3.354 -0.0358 -0.9736  1.0418
  281MOL0     C38647  10.840  11.652   3.326 -0.6634  0.7872 -0.0282
  281MOL0     O38648  10.870  11.701   3.207  0.7095 -0.1996 -1.5486
  281MOL0     C38649  10.767  11.763   3.126 -0.0193 -1.0011 -0.3521
  281MOL0     C38650  10.808  11.908   3.079  0.6409 -0.2077 -0.3146
  281MOL0     C38651  10.693  11.987   3.007 -0.4714 -0.4826  0.0701
  281MOL0     C38652  10.549  11.992   3.075  0.0980  0.3159 -1.1168
  281MOL0     C38653  10.461  12.089   2.999  0.9874 -0.2631 -0.2947
  281MOL0     C38654  10.330  12.133   3.071 -0.8185  0.2557  0.5745
  281MOL0     C38655  10.353  12.160   3.218  0.0232 -0.2365  0.4579
  281MOL0     C38656  10.245  12.255   3.268 -0.6340 -0.9311  0.2429
  281MOL0     N38657  10.252  12.234   3.415 -0.2385 -0.2338 -0.3434
  281MOL0     C38658  10.329  12.300   3.504  0.6170 -0.6008 -0.3302
  281MOL0     C38659  10.293  12.245   3.627  0.3983 -0.1049 -0.0476
  281MOL0     C38660  10.350  12.282   3.764  0.2406 -1.7649 -0.0631
  281MOL0     C38661  10.253  12.326   3.875  0.3118  0.9196  0.5480
  281MOL0     C38662  10.167  12.446   3.832  0.5010  0.2244  0.2214
  281MOL0     C38663  10.236  12.571   3.851 -0.5739  0.1453 -0.8361
  281MOL0     O38664  10.347  12.593   3.760  0.5796 -0.6320 -0.7099
  281MOL0     C38665  10.320  12.647   3.633  0.2729  0.0389 -1.3831
  281MOL0     C38666  10.199  12.674   3.575  0.1393  0.3214 -0.5304
  281MOL0     C38667  10.186  12.688   3.437  0.1201 -0.6159 -0.2323
  281MOL0     C38668  10.046  12.705   3.376  0.6613  0.8039 -0.3202
  281MOL0     C38669  10.304  12.676   3.359  0.1042 -0.0897 -0.7746
  281MOL0     C38670  10.310  12.692   3.209 -0.7476 -0.3883 -0.2672
  281MOL0     O38671  10.415  12.782   3.166 -0.4190 -0.7171 -0.5788
  281MOL0     C38672  10.447  12.820   3.036  0.0376 -0.0886  1.0840
  281MOL0     C38673  10.580  12.830   3.002 -0.1426 -0.0543  0.4201
  281MOL0     C38674  10.610  12.835   2.866 -0.8094 -0.3632  0.8512
  281MOL0     C38675  10.522  12.835   2.760  0.1702 -0.3181 -0.1185
  281MOL0     O38676  10.546  12.853   2.626 -0.2383 -0.1177  0.0003
  281MOL0     C38677  10.688  12.832   2.587  0.7964  1.0118  0.0254
  281MOL0     C38678  10.700  12.839   2.432  0.1101 -0.0441  0.0606
  281MOL0     C38679  10.625  12.948   2.357 -0.0337 -0.7717  0.5668
  281MOL0     C38680  10.690  13.091   2.361  0.3621  0.0281 -0.8790
  281MOL0     C38681  10.697  13.170   2.493 -0.0660 -0.7595  0.0944
  281MOL0     C38682  10.689  13.324   2.471  0.1799 -0.8524 -0.0503
  281MOL0     C38683  10.548  13.369   2.448 -0.4389 -0.5574 -0.1089
  281MOL0     C38684  10.495  13.486   2.527  0.8252  0.4783  0.3794
  281MOL0    Cl38685  10.626  13.616   2.558 -0.5299  0.1968 -0.3552
  281MOL0     C38686  10.388  12.825   2.798 -0.7235  0.0633  0.2411
  281MOL0     C38687  10.352  12.820   2.933  1.1574  0.4238  0.4221
  281MOL0     O38688  10.233  12.633   3.137  0.2789  0.6590 -0.7241
  281MOL0     C38689  10.430  12.652   3.423 -0.5660  0.7338 -0.3895
  281MOL0     C38690  10.438  12.634   3.558  1.3335  0.4327 -0.3332
  281MOL0     N38691  10.192  12.153   3.606 -0.6687 -0.2988  0.0160
  281MOL0     N38692  10.169  12.150   3.477  0.0305 -0.6526  0.6970
  281MOL0     C38693  10.937  11.663   3.426 -0.2966 -0.1337  0.6082
  281MOL0     C38694  10.911  11.622   3.553  0.5142 -0.4391  1.1340
  281MOL0     C38695  10.651  11.447   3.932 -0.1196 -0.0741 -0.7956
  281MOL0     C38696  10.768  11.397   3.988  0.3928 -0.3775 -0.4118
  281MOL0     C38697  10.787  11.347   4.114  0.1234 -0.5523  0.6231
  281MOL0     C38698  10.675  11.323   4.201 -0.6194 -0.5736 -0.0236
  281MOL0     O38699  10.677  11.271   4.329  0.9330 -0.2171  0.0991
  281MOL0     C38700  10.804  11.229   4.365  0.5761 -1.7402  0.0336
  281MOL0     C38701  10.823  11.172   4.512  0.0055 -0.6139  0.6919
  281MOL0     C38702  10.766  11.263   4.621  0.2070 -0.2462 -0.4396
  281MOL0     C38703  10.868  11.385   4.641 -0.0572 -0.2026  0.1776
  281MOL0     C38704  10.792  11.508   4.623 -1.5003  0.2314 -0.3223
  281MOL0     C38705  10.752  11.613   4.581 -0.0837  0.3876  0.6170
  281MOL0     C38706  10.551  11.370   4.151  1.1288  0.4114  0.7318
  281MOL0     C38707  10.538  11.438   4.017  0.7382 -0.2839 -0.2261
  281MOL0     C38708  10.408  11.502   3.989  0.1659 -0.0221  0.7228
  281MOL0     H38709  10.586  11.513   3.496  0.4365 -0.8322 -1.0094
  281MOL0     H38710  10.637  11.570   3.284  0.6618  0.6950 -0.2490
  281MOL0     H38711  10.670  11.766   3.176  0.0829 -3.4047  0.1261
  281MOL0     H38712  10.763  11.699   3.037  2.4931 -0.7923 -0.7054
  281MOL0     H38713  10.845  11.968   3.162  1.4787 -1.5029  0.2668
  281MOL0     H38714  10.889  11.898   3.006 -1.1027 -0.8996 -2.2702
  281MOL0     H38715  10.729  12.088   2.986 -0.5967 -0.2263  1.0567
  281MOL0     H38716  10.681  11.942   2.908 -2.1241 -0.6389  0.3064
  281MOL0     H38717  10.502  11.895   3.060  2.4230 -0.6663 -2.6438
  281MOL0     H38718  10.565  12.019   3.180  1.9165 -0.6939 -1.0897
  281MOL0     H38719  10.448  12.038   2.902  2.6977 -4.8053  1.5881
  281MOL0     H38720  10.516  12.181   2.981 -0.0625  0.4098 -0.1576
  281MOL0     H38721  10.289  12.218   3.016 -0.0139 -1.4590 -2.9656
  281MOL0     H38722  10.263  12.047   3.054  2.5648 -2.3149 -0.9908
  281MOL0     H38723  10.453  12.205   3.224 -0.3896  1.3402 -2.4352
  281MOL0     H38724  10.336  12.064   3.266  2.1874 -1.4446 -1.0574
  281MOL0     H38725  10.273  12.359   3.246  0.0787 -1.3667 -0.9608
  281MOL0     H38726  10.149  12.233   3.223 -0.3856 -0.2061 -0.6738
  281MOL0     H38727  10.395  12.384   3.488 -0.5704  1.0296  2.6353
  281MOL0     H38728  10.424  12.362   3.759 -2.4169  0.8721 -0.1030
  281MOL0     H38729  10.389  12.190   3.810 -4.4962 -2.1345  4.1149
  281MOL0     H38730  10.193  12.238   3.901  0.1044  0.5720 -1.0214
  281MOL0     H38731  10.310  12.333   3.968 -2.6978 -0.5742  2.6650
  281MOL0     H38732  10.150  12.436   3.724  1.0387 -0.2412  0.1719
  281MOL0     H38733  10.076  12.442   3.892  0.1896  1.2175 -0.1744
  281MOL0     H38734  10.153  12.642   3.843 -3.6569 -3.1830 -0.7326
  281MOL0     H38735  10.283  12.575   3.950  0.0117 -1.1258 -1.0489
  281MOL0     H38736  10.114  12.694   3.640  1.8038  3.2941  0.9517
  281MOL0     H38737   9.981  12.770   3.436  1.0632 -1.4096  2.7447
  281MOL0     H38738  10.007  12.615   3.328  2.5269  1.5426 -3.4863
  281MOL0     H38739  10.057  12.774   3.292  1.3821  2.8865  1.3902
  281MOL0     H38740  10.643  12.821   3.091  2.3187  2.8984 -0.8468
  281MOL0     H38741  10.713  12.865   2.848 -1.4737  0.7129 -1.6266
  281MOL0     H38742  10.739  12.919   2.629  0.2132  0.5053  1.8459
  281MOL0     H38743  10.718  12.739   2.636 -3.4826  1.3547  3.9805
  281MOL0     H38744  10.805  12.864   2.415 -0.2670  1.0853 -0.7451
  281MOL0     H38745  10.691  12.740   2.386  1.1480  1.2536 -3.2721
  281MOL0     H38746  10.522  12.965   2.389 -0.3687  2.9336 -1.9614
  281MOL0     H38747  10.618  12.922   2.251  2.9180  0.8719 -0.1249
  281MOL0     H38748  10.648  13.147   2.276  1.7216 -1.9303 -2.9661
  281MOL0     H38749  10.795  13.089   2.330 -0.0508 -0.6094 -2.3278
  281MOL0     H38750  10.613  13.142   2.557  0.3558  0.6029  1.3011
  281MOL0     H38751  10.796  13.151   2.536  0.6635 -0.9088 -1.5860
  281MOL0     H38752  10.755  13.369   2.397 -0.2651  1.3167  0.8014
  281MOL0     H38753  10.726  13.365   2.566  2.2222 -0.6617 -0.8790
  281MOL0     H38754  10.486  13.279   2.454 -3.2977  1.2738 -0.4837
  281MOL0     H38755  10.541  13.405   2.345  1.7627  4.5884  1.2259
  281MOL0     H38756  10.443  13.446   2.614  0.1732 -2.3729 -1.2140
  281MOL0     H38757  10.412  13.537   2.476  1.6021  1.6452  0.2326
  281MOL0     H38758  10.324  12.818   2.711  0.1019 -0.0062 -0.3788
  281MOL0     H38759  10.244  12.825   2.947  1.0796  0.1786 -0.0694
  281MOL0     H38760  10.525  12.642   3.371  1.5198  4.3199  2.2764
  281MOL0     H38761  10.523  12.598   3.615  0.7335  0.1182  0.3849
  281MOL0     H38762  11.038  11.694   3.400  0.4739 -0.9291  2.4840
  281MOL0     H38763  10.993  11.625   3.625  0.7841  1.8544  0.8177
  281MOL0     H38764  10.866  11.395   3.940  0.6384 -0.8537  0.0905
  281MOL0     H38765  10.886  11.312   4.140  0.2058 -1.2670 -0.5379
  281MOL0     H38766  10.841  11.162   4.286 -1.0429 -0.9221 -1.4937
  281MOL0     H38767  10.856  11.325   4.359  0.0090 -1.3676  0.9905
  281MOL0     H38768  10.924  11.140   4.539 -0.1791 -0.4458  1.6106
  281MOL0     H38769  10.762  11.082   4.517 -0.4502 -0.4717 -1.3732
  281MOL0     H38770  10.669  11.295   4.584  0.9159 -0.3731 -2.5914
  281MOL0     H38771  10.748  11.212   4.716 -1.7180 -0.5453 -0.9354
  281MOL0     H38772  10.957  11.379   4.578  0.2383 -1.2550  0.6777
  281MOL0     H38773  10.895  11.374   4.746 -2.4176 -1.0684  0.7782
  281MOL0     H38774  10.729  11.710   4.542 -1.2039 -0.3137 -0.5676
  281MOL0     H38775  10.474  11.381   4.226  3.1917  2.5499  2.7128
  281MOL0     H38776  10.343  11.490   4.075  2.9076  0.1632  2.9780
  281MOL0     H38777  10.425  11.608   3.967  0.9369 -0.1258  0.7738
  281MOL0     H38778  10.360  11.455   3.903 -3.0905  1.2312  1.7249
  282MOL0     O38779   2.116   5.679   0.822 -0.7843 -0.7133  0.4496
  282MOL0     C38780   2.092   5.687   0.706 -0.4062 -0.2868 -0.0026
  282MOL0     O38781   2.013   5.784   0.655  0.1354  0.0564 -0.2703
  282MOL0     C38782   1.970   5.892   0.729 -0.9368 -0.5301  0.0879
  282MOL0     C38783   1.923   5.987   0.641 -0.1153  0.2826 -0.9156
  282MOL0     C38784   1.865   6.103   0.692  0.1677 -0.2191 -0.4229
  282MOL0     C38785   1.845   6.116   0.830  0.2007 -0.1789 -0.5156
  282MOL0     O38786   1.780   6.222   0.887  0.0626 -0.2388  0.0848
  282MOL0     C38787   1.731   6.329   0.818  1.4047 -0.1926  0.0858
  282MOL0     C38788   1.632   6.406   0.923  0.6053  0.6942 -0.4813
  282MOL0     C38789   1.571   6.548   0.881 -0.3771  0.0768 -0.3128
  282MOL0     C38790   1.462   6.597   0.979  0.5372  0.0480 -0.4058
  282MOL0     C38791   1.425   6.741   0.938  0.6464 -2.2797  0.0523
  282MOL0     C38792   1.539   6.845   0.941  1.1671 -0.0837  0.4575
  282MOL0     C38793   1.498   6.990   0.972  0.0839 -0.7987 -0.1960
  282MOL0     C38794   1.385   7.054   0.882 -0.1724  0.3794  0.8429
  282MOL0     N38795   1.414   7.026   0.744  0.5141  0.1929  0.1688
  282MOL0     C38796   1.328   6.983   0.646  0.1001 -0.2372 -0.2693
  282MOL0     C38797   1.406   6.977   0.537 -0.2664 -0.7527  0.2264
  282MOL0     C38798   1.362   6.902   0.413 -0.0189 -0.9759  0.4100
  282MOL0     C38799   1.444   6.778   0.383  0.0781  0.7581  0.3848
  282MOL0     C38800   1.378   6.662   0.454 -0.1905 -0.4724  0.8500
  282MOL0     C38801   1.456   6.524   0.434 -0.2217 -0.3096 -0.2011
  282MOL0     O38802   1.542   6.489   0.543 -0.2595 -0.1442 -0.6607
  282MOL0     C38803   1.679   6.496   0.520  0.2150  0.6509  0.4120
  282MOL0     C38804   1.738   6.402   0.444  0.1570 -0.8829  0.4260
  282MOL0     C38805   1.874   6.406   0.418  0.0464  0.4826  0.1151
  282MOL0     C38806   1.940   6.296   0.341 -0.0643 -0.5245 -0.3389
  282MOL0     C38807   1.951   6.518   0.471 -0.6432  0.8425 -1.9140
  282MOL0     C38808   2.103   6.535   0.462  0.1117  0.2317  0.4404
  282MOL0     O38809   2.168   6.566   0.576 -0.1101 -0.8804 -0.6575
  282MOL0     C38810   2.302   6.533   0.604 -0.3207 -0.5960  1.7421
  282MOL0     C38811   2.383   6.432   0.543  0.7556 -0.1600 -1.0308
  282MOL0     C38812   2.523   6.425   0.572  0.3817  0.7044 -0.4926
  282MOL0     C38813   2.575   6.498   0.681 -0.8762 -0.1119  0.3997
  282MOL0     O38814   2.704   6.471   0.720  0.1427 -0.5326  0.8645
  282MOL0     C38815   2.743   6.521   0.850  0.1696 -0.6571  0.3516
  282MOL0     C38816   2.854   6.428   0.893  0.3033  0.0123 -0.0448
  282MOL0     C38817   2.982   6.446   0.817 -0.1300  0.4047  1.2013
  282MOL0     C38818   3.091   6.477   0.916 -1.1959  0.8177 -0.3750
  282MOL0     C38819   3.227   6.482   0.843  0.0473 -1.6751 -1.0344
  282MOL0     C38820   3.335   6.556   0.923 -0.2350 -0.4724  0.0307
  282MOL0     C38821   3.400   6.460   1.030  0.3133 -0.2164  0.9270
  282MOL0     C38822   3.504   6.366   0.958 -0.0089 -1.1803 -0.1038
  282MOL0    Cl38823   3.580   6.286   1.098  0.1372 -0.0354  0.4157
  282MOL0     C38824   2.500   6.595   0.745  0.2096  0.2158  0.2190
  282MOL0     C38825   2.368   6.615   0.705 -0.7325 -0.1083 -0.5679
  282MOL0     O38826   2.161   6.528   0.355  0.4982  0.0690  0.7733
  282MOL0     C38827   1.885   6.621   0.539  0.4101 -0.1492  0.7846
  282MOL0     C38828   1.745   6.606   0.561 -0.4472  0.5242 -0.0999
  282MOL0     N38829   1.537   7.019   0.564  0.0579 -0.4290  0.1312
  282MOL0     N38830   1.537   7.058   0.684  0.2040 -0.5032 -0.1679
  282MOL0     C38831   1.883   6.020   0.921  0.0007 -0.4623 -0.1326
  282MOL0     C38832   1.952   5.908   0.869 -0.2681 -0.9840  0.0864
  282MOL0     C38833   2.112   5.555   0.638  0.2701 -0.0593 -0.3571
  282MOL0     C38834   1.993   5.498   0.598  0.6259 -0.1940  0.1410
  282MOL0     C38835   2.004   5.364   0.541 -0.4664  0.5039 -0.3533
  282MOL0     C38836   2.127   5.293   0.529  0.3123 -0.1193 -0.5923
  282MOL0     O38837   2.125   5.162   0.477 -0.3664 -0.8135  0.5894
  282MOL0     C38838   2.234   5.075   0.501  0.4768 -0.5744  0.2143
  282MOL0     C38839   2.198   4.925   0.496 -0.2598  0.6262 -0.0581
  282MOL0     C38840   2.235   4.839   0.627  0.6569  0.1268 -0.2220
  282MOL0     C38841   2.374   4.849   0.675 -0.4993  0.7092 -0.5390
  282MOL0     C38842   2.381   4.769   0.797 -0.4840 -0.8250  0.3165
  282MOL0     C38843   2.397   4.708   0.894 -0.0247  1.0184 -0.1161
  282MOL0     C38844   2.250   5.363   0.573 -0.0835  0.9516  0.6616
  282MOL0     C38845   2.234   5.488   0.626 -0.2088 -1.0024  0.1899
  282MOL0     C38846   2.362   5.559   0.666 -0.0506 -0.1441  0.3447
  282MOL0     H38847   1.937   5.977   0.534  0.5169 -0.5618 -0.7568
  282MOL0     H38848   1.828   6.176   0.621 -1.4661 -1.2720 -0.6984
  282MOL0     H38849   1.684   6.301   0.724  0.7892 -0.7595  0.5449
  282MOL0     H38850   1.806   6.402   0.787  1.4606 -1.5047 -3.1755
  282MOL0     H38851   1.558   6.329   0.944  1.8469 -0.5753 -0.6282
  282MOL0     H38852   1.682   6.417   1.019 -1.0444 -0.7447  0.5990
  282MOL0     H38853   1.657   6.614   0.888  0.0178 -0.5750  1.7423
  282MOL0     H38854   1.528   6.550   0.780  2.0695 -0.5265 -1.4479
  282MOL0     H38855   1.383   6.524   0.996  1.2888 -0.1046  3.4541
  282MOL0     H38856   1.517   6.599   1.074 -2.9581  1.6164  1.7930
  282MOL0     H38857   1.345   6.773   1.005  2.3840  1.5060  0.6365
  282MOL0     H38858   1.386   6.742   0.836 -1.9523  4.2315  0.5886
  282MOL0     H38859   1.601   6.809   1.024  1.2156 -0.3930  0.2888
  282MOL0     H38860   1.593   6.853   0.847 -0.6873  2.8891 -0.4992
  282MOL0     H38861   1.578   7.064   0.975 -0.2445 -0.4809  1.6945
  282MOL0     H38862   1.461   6.981   1.075  0.1629 -1.6148 -0.2342
  282MOL0     H38863   1.288   7.007   0.901 -2.1589  2.4362 -2.9385
  282MOL0     H38864   1.371   7.158   0.911  0.6358 -0.2720  3.9344
  282MOL0     H38865   1.224   6.953   0.656  0.4492 -1.2953  0.3283
  282MOL0     H38866   1.376   6.969   0.328 -0.5572  0.2358  1.2503
  282MOL0     H38867   1.255   6.880   0.410  0.3132 -2.8062  0.6197
  282MOL0     H38868   1.432   6.764   0.275  3.5468  1.8799 -0.2815
  282MOL0     H38869   1.552   6.795   0.393 -0.1632  2.8251  0.0344
  282MOL0     H38870   1.364   6.673   0.562  0.2559 -2.5799  1.1581
  282MOL0     H38871   1.282   6.647   0.403  1.0388  0.5001 -1.9403
  282MOL0     H38872   1.382   6.449   0.402  1.1632 -1.2201 -1.4063
  282MOL0     H38873   1.516   6.537   0.343 -1.1168 -1.6392 -1.0345
  282MOL0     H38874   1.683   6.315   0.411 -5.0117  0.9895  3.0926
  282MOL0     H38875   1.871   6.213   0.324  1.3960 -3.1412  4.7447
  282MOL0     H38876   2.014   6.258   0.411 -0.8305  0.6188  1.1491
  282MOL0     H38877   1.990   6.338   0.253  1.2854  1.6370  1.3450
  282MOL0     H38878   2.352   6.347   0.483  0.3330 -2.9944  2.7758
  282MOL0     H38879   2.581   6.349   0.520 -3.7008 -1.8297 -1.8221
  282MOL0     H38880   2.772   6.627   0.853  1.5826 -1.0186  4.0762
  282MOL0     H38881   2.664   6.515   0.925 -0.3043  2.6667  0.2644
  282MOL0     H38882   2.869   6.439   1.001  3.6156  2.3226 -0.5849
  282MOL0     H38883   2.818   6.325   0.885  0.5981 -0.5529  3.8843
  282MOL0     H38884   2.966   6.531   0.749 -2.3835 -0.5056  0.4866
  282MOL0     H38885   2.998   6.357   0.754 -1.8328  1.1235 -0.3704
  282MOL0     H38886   3.098   6.394   0.987  0.0197 -1.4341 -2.9468
  282MOL0     H38887   3.079   6.570   0.973  0.2944  1.1140 -0.5078
  282MOL0     H38888   3.253   6.377   0.831 -2.8849 -2.4606 -1.2560
  282MOL0     H38889   3.223   6.534   0.746  2.3950 -0.9290 -0.7922
  282MOL0     H38890   3.304   6.647   0.975  0.8979  0.3300 -0.6601
  282MOL0     H38891   3.409   6.588   0.849 -1.9965 -1.7218 -2.4170
  282MOL0     H38892   3.317   6.397   1.063 -1.8864 -0.3082 -3.9584
  282MOL0     H38893   3.443   6.515   1.115  0.9874 -1.1204  1.1830
  282MOL0     H38894   3.578   6.426   0.904 -0.4948 -1.1778 -0.7908
  282MOL0     H38895   3.472   6.286   0.891 -0.3639 -1.4891  0.4237
  282MOL0     H38896   2.547   6.650   0.826  1.9102 -0.5724 -0.2073
  282MOL0     H38897   2.323   6.703   0.751  0.6387  0.6950 -0.7020
  282MOL0     H38898   1.924   6.717   0.570 -0.7667  0.0654  1.6812
  282MOL0     H38899   1.684   6.684   0.605 -2.0506  0.7478 -2.5405
  282MOL0     H38900   1.854   6.039   1.023 -2.0269  1.5651 -0.9890
  282MOL0     H38901   1.994   5.841   0.943  1.9940 -0.7512 -0.9069
  282MOL0     H38902   1.897   5.545   0.615  2.1362  2.5940  1.5802
  282MOL0     H38903   1.912   5.320   0.503  0.0485  0.2880 -1.3847
  282MOL0     H38904   2.326   5.105   0.449 -0.6486  1.8679 -0.5125
  282MOL0     H38905   2.246   5.093   0.609 -1.4494 -0.6353  0.4681
  282MOL0     H38906   2.251   4.873   0.415 -1.4943 -4.3150  1.9124
  282MOL0     H38907   2.090   4.910   0.489 -0.3352 -0.2330  2.2479
  282MOL0     H38908   2.166   4.858   0.710  0.9484 -3.0133  0.8780
  282MOL0     H38909   2.223   4.731   0.616 -3.4537 -0.1792  4.0202
  282MOL0     H38910   2.396   4.952   0.704  0.1926  0.5650 -0.5235
  282MOL0     H38911   2.436   4.806   0.596 -3.8884 -1.0332 -2.4805
  282MOL0     H38912   2.420   4.655   0.984 -3.4294  1.6068  1.2770
  282MOL0     H38913   2.347   5.315   0.584 -1.2820 -1.8158  0.1032
  282MOL0     H38914   2.364   5.660   0.623  0.3677 -0.5226 -0.5567
  282MOL0     H38915   2.388   5.564   0.772  0.3025  1.8809  0.2141
  282MOL0     H38916   2.446   5.508   0.619  0.2965  1.4265 -0.8404
  283MOL0     O38917   6.374   1.740   1.440 -0.4142 -0.8345 -0.0646
  283MOL0     C38918   6.305   1.653   1.397  0.0090  0.0667  0.2457
  283MOL0     O38919   6.319   1.520   1.426 -0.0637 -0.1927  0.4522
  283MOL0     C38920   6.391   1.464   1.521 -0.1395 -0.2451  0.1757
  283MOL0     C38921   6.353   1.333   1.566  1.2074  0.2259  0.1073
  283MOL0     C38922   6.440   1.260   1.640 -0.4686 -0.7774 -0.3650
  283MOL0     C38923   6.566   1.312   1.680 -0.4156 -0.1966 -0.0984
  283MOL0     O38924   6.650   1.237   1.754  0.4579 -0.1646 -0.2098
  283MOL0     C38925   6.703   1.280   1.881  1.3082  0.2565 -0.6830
  283MOL0     C38926   6.756   1.162   1.949 -0.6955 -0.2082 -0.1011
  283MOL0     C38927   6.875   1.091   1.889  0.1810  0.5137  0.1071
  283MOL0     C38928   6.920   0.985   1.987  0.2119  0.8057  0.3277
  283MOL0     C38929   7.058   0.929   1.959  0.5301 -0.4988 -0.8891
  283MOL0     C38930   7.091   0.811   2.054 -0.5514 -1.2461  0.7442
  283MOL0     C38931   7.124   0.864   2.197  0.2360 -0.5789  0.4255
  283MOL0     C38932   7.204   0.783   2.296 -0.7472 -0.8785 -0.1686
  283MOL0     N38933   7.123   0.680   2.359 -0.1667  0.5158  0.6668
  283MOL0     C38934   7.096   0.551   2.320 -1.0644  0.4783  1.4382
  283MOL0     C38935   7.057   0.486   2.428  0.8180  0.2308 -1.1897
  283MOL0     C38936   7.027   0.338   2.447  1.2505  1.2560  0.2514
  283MOL0     C38937   6.893   0.312   2.525 -1.0105 -0.2083 -0.1315
  283MOL0     C38938   6.881   0.162   2.527  0.7540 -0.5033  0.1407
  283MOL0     C38939   6.796   0.124   2.647  0.8385  0.4583  0.3614
  283MOL0     O38940   6.805  -0.018   2.664 -0.3530 -0.5210  0.2087
  283MOL0     C38941   6.705  -0.102   2.618 -1.0612 -0.2806  0.4453
  283MOL0     C38942   6.736  -0.241   2.622  0.6038 -0.3420  0.6128
  283MOL0     C38943   6.642  -0.345   2.583 -1.4683 -0.0332 -0.2501
  283MOL0     C38944   6.681  -0.490   2.586  0.4146 -0.5651 -0.5754
  283MOL0     C38945   6.511  -0.302   2.537 -0.0473  0.3916 -0.4414
  283MOL0     C38946   6.398  -0.409   2.499 -0.2543 -0.5065 -0.7318
  283MOL0     O38947   6.324  -0.356   2.396 -0.6905 -0.0747  0.3292
  283MOL0     C38948   6.253  -0.435   2.308 -0.2632  0.3402  0.3757
  283MOL0     C38949   6.307  -0.458   2.182  0.2861 -0.0176  0.4966
  283MOL0     C38950   6.244  -0.541   2.089  0.7824  0.6999 -0.5467
  283MOL0     C38951   6.119  -0.596   2.118 -0.1917 -0.7378 -0.9466
  283MOL0     O38952   6.045  -0.673   2.033 -0.5387 -0.1380 -1.1108
  283MOL0     C38953   6.111  -0.797   1.993 -0.2872 -0.5733  0.5509
  283MOL0     C38954   6.025  -0.894   1.915 -0.2367 -0.3859  1.1096
  283MOL0     C38955   6.112  -1.008   1.862  0.1028 -1.1950  0.0756
  283MOL0     C38956   6.036  -1.108   1.768  0.7038  0.3211 -0.3259
  283MOL0     C38957   6.111  -1.239   1.756  0.2222  0.8361 -0.4063
  283MOL0     C38958   6.094  -1.349   1.865 -0.0309 -0.4855 -0.4305
  283MOL0     C38959   6.171  -1.486   1.826  0.2618 -0.2424 -0.5527
  283MOL0     C38960   6.094  -1.572   1.729 -0.4437 -0.2107  0.4936
  283MOL0    Cl38961   5.957  -1.645   1.815 -0.4523  0.0518 -0.0925
  283MOL0     C38962   6.050  -0.573   2.241 -0.2900  0.3843 -0.0868
  283MOL0     C38963   6.131  -0.493   2.335  0.6589  1.0182  0.1235
  283MOL0     O38964   6.380  -0.518   2.551 -0.1867  0.7996 -0.1666
  283MOL0     C38965   6.482  -0.162   2.530  0.1056 -0.6046  0.0740
  283MOL0     C38966   6.583  -0.067   2.563 -0.5982  0.5253  0.4643
  283MOL0     N38967   7.024   0.582   2.519  0.0916 -0.0102  0.2380
  283MOL0     N38968   7.049   0.695   2.468  0.1607  0.2548  0.1270
  283MOL0     C38969   6.604   1.445   1.647  0.0224 -0.2555  0.3240
  283MOL0     C38970   6.504   1.513   1.572 -0.4047 -0.9796  0.1105
  283MOL0     C38971   6.189   1.683   1.311  0.6722  0.4430  0.1599
  283MOL0     C38972   6.111   1.796   1.333  0.2018  1.0759 -0.9886
  283MOL0     C38973   6.009   1.838   1.247  0.2370  0.4860  0.1311
  283MOL0     C38974   6.000   1.770   1.122  1.0865 -0.2254 -0.1670
  283MOL0     O38975   5.912   1.807   1.023  0.7047  0.2666  0.2736
  283MOL0     C38976   5.816   1.908   1.043 -0.3782  0.4265  0.4168
  283MOL0     C38977   5.691   1.857   1.109  0.3006  0.0477 -0.0755
  283MOL0     C38978   5.616   1.760   1.024 -0.6356  0.0797  0.1234
  283MOL0     C38979   5.505   1.700   1.104 -0.2045  0.3152  0.9599
  283MOL0     C38980   5.408   1.654   1.006  0.9609  0.4115 -0.8965
  283MOL0     C38981   5.319   1.598   0.938  0.5621  0.0149 -0.2389
  283MOL0     C38982   6.069   1.652   1.098  0.6894 -0.0888 -0.1063
  283MOL0     C38983   6.167   1.603   1.196 -0.0930 -1.0688  0.6116
  283MOL0     C38984   6.247   1.493   1.155 -0.1452  0.5590  0.1796
  283MOL0     H38985   6.264   1.280   1.534 -0.9953  3.2090  0.8588
  283MOL0     H38986   6.424   1.157   1.669 -3.1038 -0.3442 -0.0155
  283MOL0     H38987   6.619   1.319   1.940 -2.7654 -1.8319 -4.5075
  283MOL0     H38988   6.778   1.357   1.862 -0.1106  1.1986 -2.8432
  283MOL0     H38989   6.787   1.209   2.043  0.6730 -0.9182 -0.1597
  283MOL0     H38990   6.669   1.095   1.957 -1.6520  1.1146  1.0456
  283MOL0     H38991   6.860   1.044   1.791  1.1238 -1.8942  1.0177
  283MOL0     H38992   6.952   1.168   1.888  0.7794  0.0240  2.2217
  283MOL0     H38993   6.916   1.036   2.084 -2.0494  0.1500  0.6177
  283MOL0     H38994   6.848   0.904   1.993  1.6490 -0.4930  0.8061
  283MOL0     H38995   7.143   0.999   1.965 -0.2826  0.3385  2.3447
  283MOL0     H38996   7.062   0.884   1.859  1.9917 -1.4416 -0.4351
  283MOL0     H38997   7.009   0.739   2.056 -1.6775 -0.0038  1.8986
  283MOL0     H38998   7.186   0.766   2.025  1.0321  1.6743  1.0511
  283MOL0     H38999   7.023   0.880   2.235  0.4768  0.9744  0.5120
  283MOL0     H39000   7.160   0.968   2.192 -0.6012 -0.0002  3.6561
  283MOL0     H39001   7.304   0.750   2.265  0.2531  1.5020  0.2817
  283MOL0     H39002   7.225   0.855   2.375 -0.3055  0.2790 -1.3092
  283MOL0     H39003   7.129   0.507   2.226 -1.3763  1.0473  1.0523
  283MOL0     H39004   7.105   0.295   2.509  0.6390 -1.2191 -0.6085
  283MOL0     H39005   7.025   0.288   2.350  1.6273  0.1809  0.7881
  283MOL0     H39006   6.889   0.357   2.625 -1.1715  1.5395 -0.8788
  283MOL0     H39007   6.817   0.355   2.460  1.6062  0.3835 -3.0440
  283MOL0     H39008   6.831   0.129   2.436 -1.2444  1.2681  0.5275
  283MOL0     H39009   6.972   0.104   2.544 -0.3946 -2.6144 -0.5184
  283MOL0     H39010   6.840   0.170   2.736 -0.0426 -0.8106  1.4743
  283MOL0     H39011   6.693   0.161   2.644  0.4316 -0.6862 -1.6364
  283MOL0     H39012   6.823  -0.263   2.682  0.4372 -0.0709  0.9591
  283MOL0     H39013   6.788  -0.507   2.578  0.0422 -3.1432 -1.1199
  283MOL0     H39014   6.633  -0.531   2.496 -0.5014 -2.0728  0.5464
  283MOL0     H39015   6.632  -0.535   2.673 -1.2767 -1.0520 -1.7064
  283MOL0     H39016   6.398  -0.402   2.165  1.5281 -1.6922  1.2724
  283MOL0     H39017   6.296  -0.567   1.997  1.4211 -1.6790  0.4078
  283MOL0     H39018   6.204  -0.771   1.940 -1.2706  2.1126 -0.0352
  283MOL0     H39019   6.147  -0.841   2.087 -1.0685 -0.1054  1.0766
  283MOL0     H39020   5.948  -0.953   1.966  0.1142 -3.1246 -1.2512
  283MOL0     H39021   5.977  -0.846   1.830  4.3680 -0.4640 -1.8937
  283MOL0     H39022   6.155  -1.068   1.942 -2.3661 -4.6357 -0.9669
  283MOL0     H39023   6.195  -0.963   1.805 -1.8550 -0.6850 -2.5932
  283MOL0     H39024   6.024  -1.058   1.672 -2.4560 -0.4451 -0.4393
  283MOL0     H39025   5.936  -1.136   1.802  1.2955 -0.3639  0.9533
  283MOL0     H39026   6.069  -1.280   1.663 -3.7140 -0.3297  1.6458
  283MOL0     H39027   6.212  -1.215   1.724 -0.4106  0.9873 -2.4237
  283MOL0     H39028   5.989  -1.378   1.877 -0.1115  0.6628  2.4487
  283MOL0     H39029   6.138  -1.310   1.958  1.1420 -1.1845 -0.6737
  283MOL0     H39030   6.190  -1.544   1.917  2.4208 -0.0733 -0.8510
  283MOL0     H39031   6.265  -1.477   1.770 -0.9022 -0.2302 -2.6074
  283MOL0     H39032   6.153  -1.655   1.689  0.3575  1.0215 -0.9830
  283MOL0     H39033   6.059  -1.520   1.639 -0.7672 -0.3188  0.5538
  283MOL0     H39034   5.959  -0.631   2.244  0.4574 -0.9916 -1.9664
  283MOL0     H39035   6.091  -0.485   2.436  2.1354 -2.4844  1.1302
  283MOL0     H39036   6.378  -0.133   2.518 -0.9222 -3.5275  0.8308
  283MOL0     H39037   6.568   0.040   2.554  2.2053  1.1324  1.6883
  283MOL0     H39038   6.704   1.480   1.675 -0.1352 -0.5253  1.2691
  283MOL0     H39039   6.531   1.614   1.541 -1.9582 -1.0602 -1.6991
  283MOL0     H39040   6.116   1.851   1.427  2.7412  0.1834 -0.5101
  283MOL0     H39041   5.951   1.926   1.271  0.5095  0.1433  2.2843
  283MOL0     H39042   5.862   1.990   1.097 -0.0567 -0.0395  0.8603
  283MOL0     H39043   5.794   1.947   0.943  1.2221  0.6151  0.1155
  283MOL0     H39044   5.637   1.947   1.141 -0.4701  0.2857 -1.9184
  283MOL0     H39045   5.727   1.795   1.191  0.8370  1.0525  0.4726
  283MOL0     H39046   5.575   1.810   0.937 -1.9057 -3.0983 -1.2657
  283MOL0     H39047   5.691   1.685   0.998 -1.9475 -1.4971  0.6557
  283MOL0     H39048   5.479   1.772   1.181  2.9111  2.4255  0.2190
  283MOL0     H39049   5.544   1.612   1.155  1.0989  0.3241  0.0238
  283MOL0     H39050   5.257   1.556   0.861  0.1614  0.7454 -0.3194
  283MOL0     H39051   6.056   1.589   1.011 -3.5830 -0.9216  0.8932
  283MOL0     H39052   6.245   1.495   1.046  1.1112  1.7259  0.1568
  283MOL0     H39053   6.352   1.516   1.175 -0.1961 -0.6978  2.2222
  283MOL0     H39054   6.220   1.394   1.193  1.0618 -1.1581 -3.0185
  284MOL0     O39055   5.150   8.653  11.117  0.3193 -0.1755 -0.1013
  284MOL0     C39056   5.236   8.705  11.188  0.6179 -0.2428  0.5187
  284MOL0     O39057   5.361   8.739  11.143  0.3295 -0.3435 -0.4137
  284MOL0     C39058   5.405   8.725  11.013  0.2986  0.2959 -0.0723
  284MOL0     C39059   5.387   8.610  10.929 -1.0389 -0.1827  0.5989
  284MOL0     C39060   5.433   8.610  10.801  0.0909  0.2487  0.2100
  284MOL0     C39061   5.489   8.733  10.754  0.0027  0.8106  0.0061
  284MOL0     O39062   5.529   8.755  10.623 -0.1750  0.0822  0.2103
  284MOL0     C39063   5.498   8.660  10.522 -0.0120 -0.4449 -0.7661
  284MOL0     C39064   5.352   8.666  10.476 -1.0593 -0.4312  0.1008
  284MOL0     C39065   5.333   8.598  10.334  0.6869  0.7132  0.3887
  284MOL0     C39066   5.199   8.644  10.271 -0.2107  1.0889  0.2731
  284MOL0     C39067   5.077   8.619  10.354 -0.3357 -0.1505  0.5954
  284MOL0     C39068   4.959   8.657  10.273 -0.8686  0.2179  0.3570
  284MOL0     C39069   4.823   8.659  10.344 -0.4459 -0.0491 -1.2101
  284MOL0     C39070   4.765   8.533  10.387 -1.4272  0.6941 -0.2567
  284MOL0     N39071   4.646   8.562  10.466 -0.9588  1.3329 -0.0402
  284MOL0     C39072   4.589   8.472  10.547 -0.4226  0.9805  0.1624
  284MOL0     C39073   4.471   8.530  10.595  0.2008  0.4760  0.0719
  284MOL0     C39074   4.363   8.492  10.693  0.0378 -0.6642  0.7540
  284MOL0     C39075   4.405   8.414  10.818  0.2807  0.1894 -0.7692
  284MOL0     C39076   4.287   8.370  10.910 -0.1677 -0.7666 -0.6074
  284MOL0     C39077   4.251   8.473  11.018  0.5467 -0.9452  0.4988
  284MOL0     O39078   4.150   8.568  10.971 -0.2446 -0.6424 -0.0628
  284MOL0     C39079   4.028   8.529  10.920 -0.8522  1.0497  0.5204
  284MOL0     C39080   3.957   8.425  10.968 -0.5563 -0.6547  0.0585
  284MOL0     C39081   3.839   8.376  10.913  1.2665 -0.6270 -0.3137
  284MOL0     C39082   3.779   8.249  10.968 -0.7350 -0.1414  0.4513
  284MOL0     C39083   3.777   8.457  10.807 -0.4441  0.1150 -1.0311
  284MOL0     C39084   3.639   8.426  10.752  0.2000 -0.4049 -0.0603
  284MOL0     O39085   3.587   8.287  10.746 -0.8625 -0.2460  0.2419
  284MOL0     C39086   3.463   8.264  10.698  0.5718  0.2187 -1.2272
  284MOL0     C39087   3.380   8.198  10.790 -0.2391  0.1080 -0.3412
  284MOL0     C39088   3.253   8.161  10.754  0.4260  0.0837 -0.5223
  284MOL0     C39089   3.204   8.189  10.626  0.2121  0.6642  0.5327
  284MOL0     O39090   3.076   8.150  10.591 -0.2313 -0.3259  0.1002
  284MOL0     C39091   2.973   8.164  10.681  0.0426  1.3027 -0.0327
  284MOL0     C39092   2.849   8.199  10.596  1.5737  0.0241  0.2108
  284MOL0     C39093   2.728   8.239  10.695 -0.2711 -0.7679  0.6264
  284MOL0     C39094   2.594   8.265  10.612 -0.2666  0.1050 -0.5213
  284MOL0     C39095   2.487   8.311  10.718 -0.4471  0.2704  0.4396
  284MOL0     C39096   2.523   8.447  10.785 -0.3606 -0.2970 -0.7213
  284MOL0     C39097   2.403   8.516  10.844  0.3435  0.4360 -0.3585
  284MOL0     C39098   2.312   8.415  10.925  0.0841 -0.4865  0.5405
  284MOL0    Cl39099   2.385   8.380  11.085  0.0335  0.2205 -0.1356
  284MOL0     C39100   3.291   8.245  10.534 -1.0740  0.1023 -0.6080
  284MOL0     C39101   3.417   8.292  10.570 -0.0874 -0.2899  0.0064
  284MOL0     O39102   3.574   8.522  10.707  0.4284 -0.5503  0.8261
  284MOL0     C39103   3.840   8.579  10.779  0.7202  0.5012  0.4958
  284MOL0     C39104   3.966   8.613  10.819  0.0755  0.0262 -1.2967
  284MOL0     N39105   4.458   8.654  10.526  0.3420  0.9551  0.5626
  284MOL0     N39106   4.549   8.653  10.434 -0.2350 -0.2818 -0.2232
  284MOL0     C39107   5.503   8.837  10.833 -0.1129 -0.3326 -0.7668
  284MOL0     C39108   5.468   8.831  10.975 -0.3249 -1.4467  1.2378
  284MOL0     C39109   5.195   8.728  11.333 -0.0608 -0.0571  0.5712
  284MOL0     C39110   5.303   8.728  11.423  0.6857  0.3027 -0.4575
  284MOL0     C39111   5.275   8.745  11.561  0.2547  0.1738  0.1196
  284MOL0     C39112   5.148   8.755  11.609 -0.6590  1.1956 -0.1428
  284MOL0     O39113   5.131   8.765  11.746  0.1349  0.1965 -0.1312
  284MOL0     C39114   5.071   8.884  11.790  0.9279  1.1415  0.2110
  284MOL0     C39115   5.120   8.919  11.919 -0.3710 -0.2385 -0.7373
  284MOL0     C39116   5.255   8.999  11.919 -0.1198 -0.3697 -0.9086
  284MOL0     C39117   5.303   9.028  12.060  0.1232 -0.4617 -0.4180
  284MOL0     C39118   5.348   8.900  12.123  0.7600 -0.2441  0.0297
  284MOL0     C39119   5.353   8.787  12.184 -0.2615  0.1884  0.5580
  284MOL0     C39120   5.043   8.767  11.519  0.0553 -0.0703  0.3094
  284MOL0     C39121   5.061   8.753  11.378 -0.3680 -1.1302 -0.4409
  284MOL0     C39122   4.945   8.767  11.287 -0.5615 -0.1396  0.4684
  284MOL0     H39123   5.325   8.530  10.970 -0.8274 -0.6773 -0.0354
  284MOL0     H39124   5.440   8.520  10.740 -0.7850 -0.5819  1.2996
  284MOL0     H39125   5.506   8.557  10.560 -1.1534 -0.7564 -1.3260
  284MOL0     H39126   5.568   8.672  10.438 -2.8507  1.1889 -3.0544
  284MOL0     H39127   5.287   8.627  10.555  1.3820  0.0997  2.5295
  284MOL0     H39128   5.342   8.773  10.455 -1.1691 -1.0682 -3.9486
  284MOL0     H39129   5.413   8.631  10.269  0.3516  2.1235  0.6622
  284MOL0     H39130   5.340   8.490  10.351  0.9001  0.3027 -2.0005
  284MOL0     H39131   5.210   8.750  10.249 -2.8099  1.9186  2.4780
  284MOL0     H39132   5.195   8.588  10.177  1.1223 -0.3122  0.9988
  284MOL0     H39133   5.072   8.688  10.439 -3.6491  0.4482  0.0411
  284MOL0     H39134   5.068   8.516  10.390  1.2626  0.1059  1.8293
  284MOL0     H39135   4.971   8.759  10.237  0.6276 -0.3639 -0.9018
  284MOL0     H39136   4.953   8.585  10.190 -4.2092  1.9145 -1.0529
  284MOL0     H39137   4.752   8.709  10.278  0.0939 -0.3532 -2.0408
  284MOL0     H39138   4.829   8.733  10.425 -0.2745 -1.5494  0.2098
  284MOL0     H39139   4.729   8.480  10.298  2.3269 -3.5481  0.3885
  284MOL0     H39140   4.831   8.463  10.439  0.6273 -0.2792 -3.8128
  284MOL0     H39141   4.632   8.375  10.569 -1.9249  0.4147  0.7462
  284MOL0     H39142   4.274   8.446  10.650  0.2894  0.3492 -0.9245
  284MOL0     H39143   4.323   8.583  10.737 -1.5275 -1.2055  0.4869
  284MOL0     H39144   4.461   8.328  10.780  3.7782  3.1242 -2.8897
  284MOL0     H39145   4.471   8.469  10.886  1.3754 -0.1508 -1.5339
  284MOL0     H39146   4.194   8.359  10.854 -1.7384  5.1719  0.1142
  284MOL0     H39147   4.312   8.280  10.965  1.8012 -0.0634 -0.2932
  284MOL0     H39148   4.209   8.427  11.108 -1.3306 -1.2301 -0.4793
  284MOL0     H39149   4.335   8.538  11.045 -0.3479  0.0701  0.9250
  284MOL0     H39150   3.999   8.372  11.053 -1.1959 -0.5794  0.4237
  284MOL0     H39151   3.671   8.238  10.967 -0.6124 -2.3057 -2.3325
  284MOL0     H39152   3.822   8.223  11.065  0.7091 -0.2306 -0.1856
  284MOL0     H39153   3.818   8.173  10.899  0.5516  0.8953  0.0029
  284MOL0     H39154   3.407   8.169  10.891 -1.0335 -2.2043 -0.7270
  284MOL0     H39155   3.175   8.115  10.814 -2.0507  2.3915 -1.7632
  284MOL0     H39156   2.954   8.082  10.751  0.6110  2.5382  1.6429
  284MOL0     H39157   2.998   8.249  10.745  3.0612 -0.2724  1.0720
  284MOL0     H39158   2.874   8.280  10.528 -0.1127  1.4386  1.1753
  284MOL0     H39159   2.814   8.120  10.528  0.3944 -1.4986  2.4511
  284MOL0     H39160   2.753   8.331  10.747  2.2942 -0.0943 -1.5552
  284MOL0     H39161   2.705   8.158  10.765 -0.7510 -0.5036  0.7767
  284MOL0     H39162   2.564   8.169  10.571  0.9150 -0.4634 -0.0925
  284MOL0     H39163   2.600   8.341  10.533 -0.8184 -1.4851 -2.1663
  284MOL0     H39164   2.394   8.323  10.662 -0.4107 -0.4994  0.2074
  284MOL0     H39165   2.478   8.241  10.801 -3.9198  0.7664  0.6320
  284MOL0     H39166   2.558   8.524  10.716 -2.1591  2.7468  1.5186
  284MOL0     H39167   2.607   8.440  10.855 -0.7340  0.9284 -0.1248
  284MOL0     H39168   2.335   8.560  10.770 -2.0031 -0.1603  1.3389
  284MOL0     H39169   2.421   8.601  10.910 -0.5179 -0.1443  0.6624
  284MOL0     H39170   2.273   8.328  10.870 -2.6957  0.2590  1.1536
  284MOL0     H39171   2.221   8.475  10.940 -0.6443 -0.8057 -2.0608
  284MOL0     H39172   3.254   8.261  10.433  2.6500 -0.2457 -2.1796
  284MOL0     H39173   3.483   8.347  10.504  0.3566 -0.1368  0.5770
  284MOL0     H39174   3.791   8.641  10.704  1.7707 -0.2943 -0.8867
  284MOL0     H39175   4.026   8.698  10.789  0.1762  0.0047 -1.1570
  284MOL0     H39176   5.547   8.927  10.790  0.4302 -0.2291 -0.0088
  284MOL0     H39177   5.481   8.918  11.039  1.6453 -0.8347  0.0918
  284MOL0     H39178   5.409   8.713  11.409  0.5816  0.1485 -1.1534
  284MOL0     H39179   5.354   8.753  11.635 -0.6545  2.6596  0.9186
  284MOL0     H39180   5.096   8.968  11.724  1.7224  0.9184  0.2130
  284MOL0     H39181   4.963   8.870  11.784  0.7360  1.7405  1.7704
  284MOL0     H39182   5.123   8.835  11.989  1.3804 -2.3953 -3.1794
  284MOL0     H39183   5.041   8.988  11.950 -2.2132 -1.0869 -3.1958
  284MOL0     H39184   5.327   8.935  11.869 -1.8819 -1.8824 -1.6186
  284MOL0     H39185   5.246   9.094  11.864  0.0080  1.2397  1.6562
  284MOL0     H39186   5.222   9.067  12.123  1.4333  0.7014  0.6100
  284MOL0     H39187   5.380   9.103  12.078  1.8429 -1.6594 -2.4261
  284MOL0     H39188   5.357   8.692  12.233 -1.9115  0.8581  2.1141
  284MOL0     H39189   4.947   8.793  11.561  0.7255  1.1900  1.1359
  284MOL0     H39190   4.873   8.831  11.340  0.3456 -1.4218  3.3997
  284MOL0     H39191   4.965   8.811  11.189 -0.6886  1.7497  1.2435
  284MOL0     H39192   4.897   8.670  11.271  2.0243 -1.6218  1.1645
  285MOL0     O39193   5.475  10.319   7.781  0.5395 -1.1211  0.0478
  285MOL0     C39194   5.443  10.399   7.688 -0.9871 -0.4433 -0.5366
  285MOL0     O39195   5.427  10.533   7.694  0.1954  0.4829 -0.3525
  285MOL0     C39196   5.403  10.610   7.809 -0.0992  0.8469 -0.5592
  285MOL0     C39197   5.465  10.740   7.821  0.3788  1.0557  0.3659
  285MOL0     C39198   5.443  10.813   7.935  0.4701  0.5194  0.7902
  285MOL0     C39199   5.341  10.771   8.024  0.0815 -0.1583 -0.1815
  285MOL0     O39200   5.303  10.860   8.124 -0.7809 -0.0158  0.5648
  285MOL0     C39201   5.261  10.994   8.091 -0.1747 -0.1255  0.1132
  285MOL0     C39202   5.235  11.077   8.220 -0.6043  0.9314 -0.2495
  285MOL0     C39203   5.372  11.092   8.296  1.0737  0.4098 -0.2331
  285MOL0     C39204   5.374  11.178   8.420 -0.9915 -0.4130  0.5098
  285MOL0     C39205   5.521  11.200   8.471  0.4519  0.3469  0.4501
  285MOL0     C39206   5.547  11.247   8.618 -0.1478  0.8133  0.8206
  285MOL0     C39207   5.699  11.203   8.668  0.6153  1.4571  0.0395
  285MOL0     C39208   5.710  11.057   8.711  0.0079  0.2979  0.8379
  285MOL0     N39209   5.853  11.028   8.748  0.9241 -0.5013 -0.0329
  285MOL0     C39210   5.968  11.032   8.666  0.4036  0.5069 -0.5127
  285MOL0     C39211   6.080  11.021   8.743  0.3425  0.4276 -0.1338
  285MOL0     C39212   6.224  11.014   8.699  0.3587 -0.3167  0.7651
  285MOL0     C39213   6.277  10.869   8.741 -0.6932 -0.2737 -0.8354
  285MOL0     C39214   6.404  10.839   8.660 -0.2773 -0.0752  0.4655
  285MOL0     C39215   6.457  10.699   8.688 -0.3832  0.4513 -0.2918
  285MOL0     O39216   6.538  10.640   8.592 -0.7535 -0.3573  0.7477
  285MOL0     C39217   6.464  10.599   8.482 -0.8662  0.2327 -0.8215
  285MOL0     C39218   6.326  10.605   8.460 -0.7309 -0.4792  0.1629
  285MOL0     C39219   6.272  10.569   8.331 -0.1910  0.6720 -0.2453
  285MOL0     C39220   6.127  10.597   8.310  1.0420 -0.0821 -0.6953
  285MOL0     C39221   6.354  10.503   8.234 -0.4427  0.2004  0.3571
  285MOL0     C39222   6.299  10.442   8.110  0.3077 -0.9137 -0.4520
  285MOL0     O39223   6.377  10.343   8.063 -0.4205  0.6925  0.1812
  285MOL0     C39224   6.363  10.293   7.935  0.0585  0.8801 -0.6926
  285MOL0     C39225   6.247  10.220   7.892 -0.3045 -0.8214  0.0135
  285MOL0     C39226   6.230  10.158   7.771 -0.8270 -1.1399 -0.8138
  285MOL0     C39227   6.333  10.184   7.682 -0.9824 -0.5345 -0.0281
  285MOL0     O39228   6.327  10.115   7.565  0.1350 -0.2252 -0.1785
  285MOL0     C39229   6.276   9.980   7.562  0.0431 -1.5131 -0.2047
  285MOL0     C39230   6.365   9.888   7.469  1.0156  0.5346  0.9894
  285MOL0     C39231   6.344   9.907   7.323 -0.1789 -0.4162  0.1714
  285MOL0     C39232   6.301   9.776   7.268 -0.1399  0.7904  0.6101
  285MOL0     C39233   6.386   9.726   7.151  0.4806  0.2461 -0.7153
  285MOL0     C39234   6.524   9.684   7.193  0.6360  0.2246  0.0771
  285MOL0     C39235   6.592   9.586   7.094  1.2405  0.1092  0.2992
  285MOL0     C39236   6.676   9.674   7.000  0.4580  0.5243  0.3405
  285MOL0    Cl39237   6.827   9.735   7.087 -0.2790  0.4291 -0.2885
  285MOL0     C39238   6.442  10.267   7.702  0.6520 -0.5008  0.3773
  285MOL0     C39239   6.453  10.317   7.833 -0.2465  0.0257 -0.5797
  285MOL0     O39240   6.212  10.503   8.048 -0.0924  0.2611  0.0399
  285MOL0     C39241   6.488  10.501   8.260  0.9666 -0.2352 -0.2671
  285MOL0     C39242   6.539  10.554   8.378 -0.9454  1.3690 -0.7229
  285MOL0     N39243   6.039  10.987   8.866 -0.0888  1.0226 -0.0326
  285MOL0     N39244   5.909  11.018   8.874  0.5352  0.0794 -0.5278
  285MOL0     C39245   5.276  10.643   8.016  0.7676  0.0562  0.2306
  285MOL0     C39246   5.319  10.564   7.910  0.8851 -0.3653 -0.6176
  285MOL0     C39247   5.425  10.333   7.553  0.3970  0.2361  0.6039
  285MOL0     C39248   5.505  10.373   7.440 -0.3348 -0.6741  0.5479
  285MOL0     C39249   5.491  10.303   7.314 -0.3106 -0.7417 -0.3315
  285MOL0     C39250   5.403  10.197   7.298  0.3524  0.0926 -0.0997
  285MOL0     O39251   5.383  10.124   7.181  0.7546  1.0968 -0.4163
  285MOL0     C39252   5.442  10.167   7.060 -0.1015 -1.6383  0.4014
  285MOL0     C39253   5.382  10.092   6.939  0.4945  0.1596  0.1113
  285MOL0     C39254   5.232  10.091   6.945  0.3843 -0.3231  0.1073
  285MOL0     C39255   5.164  10.100   6.808  0.0020  0.5079 -0.8622
  285MOL0     C39256   5.024  10.147   6.805  0.1162 -0.0996  0.3862
  285MOL0     C39257   4.913  10.198   6.818  0.2021  0.3439 -0.0342
  285MOL0     C39258   5.329  10.162   7.411 -0.0045 -0.8846  0.1476
  285MOL0     C39259   5.348  10.222   7.539  0.6593 -1.1431 -0.5936
  285MOL0     C39260   5.267  10.160   7.649 -0.0706 -0.0693  0.1204
  285MOL0     H39261   5.532  10.770   7.741 -0.7636 -0.2312 -1.1311
  285MOL0     H39262   5.499  10.905   7.948  0.6438  0.6719 -0.8968
  285MOL0     H39263   5.169  10.993   8.032  0.0628  0.2688 -0.2706
  285MOL0     H39264   5.335  11.056   8.041  1.5434 -0.7223  1.7889
  285MOL0     H39265   5.199  11.176   8.193  2.0839  1.4977 -2.1456
  285MOL0     H39266   5.164  11.029   8.288 -0.1829  0.6586  0.0007
  285MOL0     H39267   5.403  10.990   8.322  2.4926  0.9282  0.2345
  285MOL0     H39268   5.448  11.128   8.225  0.3075 -0.8842 -1.7835
  285MOL0     H39269   5.338  11.280   8.402  0.8071  0.0053 -1.0037
  285MOL0     H39270   5.302  11.127   8.485 -4.1081  1.7727 -0.9687
  285MOL0     H39271   5.559  11.281   8.409  2.3084  1.9314  3.4362
  285MOL0     H39272   5.577  11.109   8.447  1.7507  0.8877  1.3206
  285MOL0     H39273   5.555  11.356   8.614 -0.5573  0.8141 -0.0689
  285MOL0     H39274   5.481  11.207   8.695  0.1405 -1.6061 -0.1150
  285MOL0     H39275   5.735  11.266   8.749  0.3100  0.8534  0.6502
  285MOL0     H39276   5.775  11.216   8.590  1.9340  4.5845  1.6646
  285MOL0     H39277   5.644  11.039   8.796 -3.0097 -0.0211 -1.4012
  285MOL0     H39278   5.687  11.003   8.618  0.3185  1.5141  0.0200
  285MOL0     H39279   5.965  11.047   8.559 -0.2164 -1.1854 -0.7664
  285MOL0     H39280   6.270  11.100   8.749 -3.3661  1.3020  1.7855
  285MOL0     H39281   6.216  11.022   8.590 -1.2968 -3.0260  0.5914
  285MOL0     H39282   6.303  10.858   8.846  1.1473  1.7400 -0.9902
  285MOL0     H39283   6.200  10.795   8.718 -1.2833 -0.5217  1.6760
  285MOL0     H39284   6.383  10.860   8.555  1.9422  2.3392  0.4056
  285MOL0     H39285   6.490  10.901   8.687  1.2580 -2.0589  0.4053
  285MOL0     H39286   6.523  10.711   8.774  0.5541  3.6419 -1.3297
  285MOL0     H39287   6.369  10.640   8.717  1.2635 -1.6798  0.6031
  285MOL0     H39288   6.264  10.666   8.524 -1.6069 -1.2637  0.0880
  285MOL0     H39289   6.067  10.612   8.400 -1.5393  2.8353 -2.6683
  285MOL0     H39290   6.078  10.511   8.262 -0.7746 -0.8777  2.3278
  285MOL0     H39291   6.127  10.689   8.251  2.0928  1.1932  1.2091
  285MOL0     H39292   6.171  10.210   7.969 -1.1465 -1.9834 -0.9275
  285MOL0     H39293   6.140  10.111   7.732 -0.4096  1.2583 -5.4676
  285MOL0     H39294   6.274   9.942   7.665  0.0072 -0.4471  0.2073
  285MOL0     H39295   6.174   9.984   7.524 -0.2799  0.4642  0.7219
  285MOL0     H39296   6.473   9.903   7.471  1.4659 -1.5556 -1.4827
  285MOL0     H39297   6.340   9.787   7.504 -1.7554  0.6167 -0.4317
  285MOL0     H39298   6.442   9.929   7.278 -0.9103 -0.8090 -1.6869
  285MOL0     H39299   6.274   9.988   7.304 -1.2685 -0.4442  3.3928
  285MOL0     H39300   6.200   9.795   7.232  0.1557  2.5669  0.6669
  285MOL0     H39301   6.295   9.691   7.337 -1.0093  1.6177  1.5699
  285MOL0     H39302   6.332   9.647   7.097  1.2379 -0.0637 -1.0368
  285MOL0     H39303   6.391   9.812   7.084  0.7448 -1.0489 -2.4398
  285MOL0     H39304   6.517   9.637   7.292 -0.3258 -1.1009 -0.5835
  285MOL0     H39305   6.591   9.769   7.208  0.4306  0.5353 -0.7152
  285MOL0     H39306   6.513   9.526   7.048  1.1410 -0.3159  1.0216
  285MOL0     H39307   6.647   9.511   7.150 -1.2940 -0.2100  2.5729
  285MOL0     H39308   6.629   9.760   6.953 -2.8250 -2.2004 -1.8319
  285MOL0     H39309   6.712   9.612   6.917  1.8502 -0.7646  1.8263
  285MOL0     H39310   6.518  10.298   7.632  4.9183 -2.7747  3.5164
  285MOL0     H39311   6.542  10.373   7.860  0.7545 -3.0122  3.4084
  285MOL0     H39312   6.561  10.463   8.190  2.2476 -1.1170  1.4706
  285MOL0     H39313   6.647  10.546   8.387 -0.9961  1.1261 -0.3429
  285MOL0     H39314   5.200  10.622   8.090  0.3311  2.3112  0.5119
  285MOL0     H39315   5.293  10.459   7.904  0.3035 -0.2784  0.1240
  285MOL0     H39316   5.582  10.449   7.450 -1.2694  0.3087  0.5511
  285MOL0     H39317   5.564  10.326   7.238 -0.3772 -1.1925 -0.5354
  285MOL0     H39318   5.416  10.274   7.053  1.8641 -1.1903 -0.8445
  285MOL0     H39319   5.550  10.156   7.047 -0.3538 -0.6512 -4.3960
  285MOL0     H39320   5.409   9.986   6.947 -1.9799 -0.5442 -0.2206
  285MOL0     H39321   5.422  10.136   6.847 -0.3710 -1.3851 -1.0427
  285MOL0     H39322   5.218   9.987   6.976 -0.1736 -0.1314  0.5190
  285MOL0     H39323   5.197  10.159   7.023 -0.5123 -1.8251  1.0791
  285MOL0     H39324   5.165  10.005   6.754 -2.8496 -1.6998  2.4816
  285MOL0     H39325   5.223  10.175   6.754  1.9012  1.7700  2.6370
  285MOL0     H39326   4.815  10.240   6.831 -0.4039 -1.6630  2.7383
  285MOL0     H39327   5.261  10.080   7.394  0.3769 -0.9231 -1.3360
  285MOL0     H39328   5.213  10.238   7.705  0.0872 -1.3435  2.1595
  285MOL0     H39329   5.205  10.081   7.608  0.6371  1.0248 -3.3553
  285MOL0     H39330   5.334  10.110   7.720  0.4578 -0.0100 -0.3233
  286MOL0     O39331   9.144   1.416   9.475  1.0474 -0.4929 -0.6606
  286MOL0     C39332   9.053   1.369   9.545 -0.0236 -0.7224  0.1491
  286MOL0     O39333   8.928   1.428   9.551  0.4072  0.0608  0.5138
  286MOL0     C39334   8.910   1.560   9.501 -0.6532 -0.3453  0.3693
  286MOL0     C39335   9.006   1.665   9.466 -0.2979 -0.3454  0.9585
  286MOL0     C39336   8.959   1.790   9.411  0.4078  1.4013 -0.6026
  286MOL0     C39337   8.825   1.825   9.428  0.1997  0.3073 -0.1220
  286MOL0     O39338   8.771   1.946   9.385 -0.0178  0.2582 -0.3871
  286MOL0     C39339   8.835   2.072   9.390  0.1535 -0.1635 -1.2313
  286MOL0     C39340   8.812   2.145   9.265  1.1130  0.0662  0.1688
  286MOL0     C39341   8.661   2.166   9.229  0.8010  0.2291  0.3641
  286MOL0     C39342   8.586   2.216   9.348  0.6998 -0.3315  0.3379
  286MOL0     C39343   8.438   2.250   9.313  0.1889  0.2298 -0.3753
  286MOL0     C39344   8.345   2.257   9.443 -0.1332 -0.6281 -1.1998
  286MOL0     C39345   8.306   2.124   9.496  0.0805  0.5876  0.2358
  286MOL0     C39346   8.182   2.116   9.603  0.0890  0.7667  0.0755
  286MOL0     N39347   8.113   1.986   9.609  0.5817  0.8685 -0.5814
  286MOL0     C39348   8.133   1.895   9.711  0.2547  0.4325  0.8871
  286MOL0     C39349   8.064   1.786   9.670  1.0356 -0.1645  0.3801
  286MOL0     C39350   8.049   1.647   9.746  0.2666 -1.1562  0.1313
  286MOL0     C39351   8.096   1.663   9.900  0.5197  1.2684  0.0757
  286MOL0     C39352   8.134   1.529   9.969 -0.2162 -0.6655  0.9213
  286MOL0     C39353   8.018   1.470  10.035 -0.4991  0.4903  0.5398
  286MOL0     O39354   8.042   1.372  10.133  0.0978  0.5030 -0.0866
  286MOL0     C39355   8.069   1.247  10.092  0.1811  0.3315  0.4798
  286MOL0     C39356   8.062   1.141  10.186 -0.1208 -0.8803 -0.8914
  286MOL0     C39357   8.080   1.001  10.151  0.7107 -0.6023 -0.3565
  286MOL0     C39358   8.061   0.914  10.263 -0.7926 -0.6831  0.2285
  286MOL0     C39359   8.091   0.968  10.008  0.1073  1.0489 -1.1711
  286MOL0     C39360   8.100   0.830   9.962 -0.1198  0.9992  0.1887
  286MOL0     O39361   8.082   0.740  10.057 -0.1173 -0.0633 -0.2414
  286MOL0     C39362   8.061   0.610  10.024  0.1168 -0.6554  0.1419
  286MOL0     C39363   7.985   0.565   9.915 -0.2256  0.0241 -1.5774
  286MOL0     C39364   7.979   0.435   9.885 -0.3209  0.0291  0.2731
  286MOL0     C39365   8.051   0.345   9.969 -0.5379  0.6948  0.6229
  286MOL0     O39366   8.040   0.212   9.960 -0.2717  0.8759 -0.4277
  286MOL0     C39367   7.919   0.151   9.901  0.6431  0.3787 -0.1031
  286MOL0     C39368   7.785   0.174   9.986 -1.4686  0.0385  0.5699
  286MOL0     C39369   7.743   0.042  10.048  0.4898  0.9534  0.2717
  286MOL0     C39370   7.630   0.058  10.149 -0.2801 -0.3746 -0.4502
  286MOL0     C39371   7.680   0.031  10.297  0.4874 -0.2753  0.2588
  286MOL0     C39372   7.711  -0.113  10.318  0.9515  0.1911 -0.3523
  286MOL0     C39373   7.783  -0.127  10.459 -1.0672 -0.4945  0.1321
  286MOL0     C39374   7.924  -0.076  10.446  0.1376 -0.6282  0.5157
  286MOL0    Cl39375   8.014  -0.102  10.284  0.1638  0.1523 -0.1118
  286MOL0     C39376   8.123   0.389  10.084 -0.7153  0.5791  0.9215
  286MOL0     C39377   8.130   0.522  10.114  0.8320 -0.8404 -0.8094
  286MOL0     O39378   8.115   0.806   9.843  0.1632  0.2764  0.0377
  286MOL0     C39379   8.095   1.070   9.917  0.7998 -1.3934  0.3801
  286MOL0     C39380   8.085   1.208   9.954  0.0603 -0.5996 -1.1849
  286MOL0     N39381   8.008   1.813   9.552  0.1745 -0.8820  0.7011
  286MOL0     N39382   8.038   1.933   9.515  0.5037  0.6362 -0.4646
  286MOL0     C39383   8.736   1.727   9.461 -0.1074 -0.3355  0.0505
  286MOL0     C39384   8.779   1.595   9.499 -0.5144  0.1014  0.3741
  286MOL0     C39385   9.075   1.227   9.592 -0.5494 -0.6278 -1.6691
  286MOL0     C39386   8.961   1.158   9.643 -0.0348 -0.8435  0.7618
  286MOL0     C39387   8.961   1.031   9.708  0.2684  0.2566 -0.3220
  286MOL0     C39388   9.082   0.959   9.714 -0.0331  0.1021  0.6997
  286MOL0     O39389   9.092   0.834   9.776 -0.2265 -0.0054 -0.9782
  286MOL0     C39390   9.083   0.721   9.682  0.6534  0.0346  0.1564
  286MOL0     C39391   9.112   0.585   9.751 -0.5731  0.4819 -0.1051
  286MOL0     C39392   9.033   0.566   9.878 -1.0239 -0.0832  0.0981
  286MOL0     C39393   9.036   0.417   9.932  0.5272  0.3926  0.1406
  286MOL0     C39394   8.947   0.397  10.044 -0.5734  0.4250 -0.0333
  286MOL0     C39395   8.862   0.381  10.128 -0.0576  0.2101 -0.1321
  286MOL0     C39396   9.195   1.024   9.668 -0.3941  0.5881  1.3133
  286MOL0     C39397   9.200   1.147   9.596 -0.5480 -0.4983  0.5531
  286MOL0     C39398   9.328   1.199   9.545  0.3961 -0.1695  1.2367
  286MOL0     H39399   9.113   1.650   9.475  0.0396  1.9194  1.2435
  286MOL0     H39400   9.025   1.865   9.368 -0.6404  1.2659 -2.5598
  286MOL0     H39401   8.942   2.070   9.412 -0.0799 -0.8048 -0.0568
  286MOL0     H39402   8.800   2.130   9.475 -0.1773 -0.5052 -1.1305
  286MOL0     H39403   8.853   2.246   9.278 -0.6256  0.8237  0.0070
  286MOL0     H39404   8.868   2.091   9.188  2.1458 -1.8419  2.1529
  286MOL0     H39405   8.658   2.226   9.138 -0.1418  2.3197  1.7046
  286MOL0     H39406   8.619   2.070   9.198  2.0307  0.0950 -1.0235
  286MOL0     H39407   8.572   2.136   9.421 -2.0430 -2.2601 -2.0793
  286MOL0     H39408   8.626   2.309   9.390 -5.5648  2.7914  0.5877
  286MOL0     H39409   8.386   2.192   9.236 -4.4511  1.5804  1.4120
  286MOL0     H39410   8.439   2.352   9.273  0.8995  1.9582  3.5724
  286MOL0     H39411   8.378   2.321   9.525 -2.6542  1.3602 -1.6171
  286MOL0     H39412   8.249   2.302   9.419  0.2458  0.9198  0.0852
  286MOL0     H39413   8.396   2.081   9.541 -1.7929 -4.6067 -0.3257
  286MOL0     H39414   8.288   2.057   9.411  0.3998 -1.7464  1.8965
  286MOL0     H39415   8.217   2.141   9.704  1.0386  2.3294 -0.6144
  286MOL0     H39416   8.110   2.192   9.573  2.4035  2.6429 -1.0962
  286MOL0     H39417   8.202   1.913   9.792  1.9020  0.6493 -0.5073
  286MOL0     H39418   8.114   1.578   9.691  1.9546  1.4893 -1.4624
  286MOL0     H39419   7.944   1.619   9.749  0.7664 -3.2102  0.2660
  286MOL0     H39420   8.181   1.731   9.902 -0.5941  3.2309 -5.0082
  286MOL0     H39421   8.017   1.719   9.951  0.4813 -0.8295  2.5430
  286MOL0     H39422   8.178   1.470   9.888  1.9852  1.5369  0.3941
  286MOL0     H39423   8.213   1.540  10.044 -0.4485 -2.8276  1.5716
  286MOL0     H39424   7.973   1.554  10.089  1.3218 -0.2167  3.4126
  286MOL0     H39425   7.941   1.435   9.967 -1.3579  1.9794  0.7086
  286MOL0     H39426   8.027   1.168  10.285  0.7066 -1.0780 -0.5357
  286MOL0     H39427   8.042   0.963  10.358  1.0848 -0.7455  0.6764
  286MOL0     H39428   8.143   0.849  10.295 -1.8397 -3.2571 -1.8327
  286MOL0     H39429   7.971   0.853  10.246  0.6410 -2.4137 -1.7443
  286MOL0     H39430   7.932   0.646   9.865 -1.4010  2.3767  2.9696
  286MOL0     H39431   7.923   0.393   9.802  1.4001  0.0410 -0.9439
  286MOL0     H39432   7.903   0.182   9.797  2.0786  0.8447 -0.2014
  286MOL0     H39433   7.941   0.044   9.888  3.2195  0.6122  1.6294
  286MOL0     H39434   7.810   0.251  10.060 -1.2945 -0.3188  0.8905
  286MOL0     H39435   7.701   0.222   9.936 -2.3843 -1.0942  0.9696
  286MOL0     H39436   7.828  -0.003  10.100  0.4802  1.0239  0.3492
  286MOL0     H39437   7.710  -0.023   9.966  0.2419  0.8734  0.4314
  286MOL0     H39438   7.549  -0.014  10.139 -0.6127 -0.6516  2.8854
  286MOL0     H39439   7.591   0.159  10.135 -0.9654 -0.7088 -0.9951
  286MOL0     H39440   7.762   0.098  10.323  0.1228  1.2431 -2.1865
  286MOL0     H39441   7.601   0.066  10.364 -0.4100  1.0856 -1.4206
  286MOL0     H39442   7.767  -0.163  10.239 -0.1181 -2.7902  0.6347
  286MOL0     H39443   7.619  -0.173  10.310  1.7125 -0.7189 -4.3393
  286MOL0     H39444   7.779  -0.232  10.488  0.1067 -1.2477 -2.1849
  286MOL0     H39445   7.742  -0.062  10.537  1.8639  1.2155  0.3955
  286MOL0     H39446   7.988  -0.109  10.528 -1.0808 -1.5882  1.1065
  286MOL0     H39447   7.919   0.030  10.472 -0.8608 -0.4334 -0.4085
  286MOL0     H39448   8.172   0.309  10.139 -2.3895 -2.3414 -1.5270
  286MOL0     H39449   8.193   0.557  10.196 -0.8995 -1.7014  0.9756
  286MOL0     H39450   8.112   1.041   9.814 -0.1422  0.7182 -0.4185
  286MOL0     H39451   8.082   1.282   9.874 -0.2301  2.1881  1.2022
  286MOL0     H39452   8.630   1.748   9.446 -0.0729 -0.2888 -0.1298
  286MOL0     H39453   8.702   1.526   9.533 -0.5010  1.8614  4.6370
  286MOL0     H39454   8.864   1.207   9.646  0.4393  0.1385  0.2724
  286MOL0     H39455   8.871   0.979   9.741 -1.4211  2.1181 -1.7346
  286MOL0     H39456   8.980   0.724   9.647  1.4155 -0.2014 -2.3117
  286MOL0     H39457   9.145   0.719   9.591 -0.9620 -2.0452 -0.9856
  286MOL0     H39458   9.220   0.573   9.763 -0.4161 -1.6935 -2.8433
  286MOL0     H39459   9.081   0.503   9.686 -1.8520  2.9377 -2.8209
  286MOL0     H39460   9.065   0.637   9.954  0.9253  0.6236 -1.3075
  286MOL0     H39461   8.933   0.602   9.852 -1.2168 -0.8659 -0.2713
  286MOL0     H39462   9.139   0.387   9.953  1.2890  0.3886 -3.0547
  286MOL0     H39463   8.993   0.360   9.849 -2.9905 -0.8277  2.6104
  286MOL0     H39464   8.780   0.382  10.197  0.5939  1.2029  0.6639
  286MOL0     H39465   9.287   0.968   9.683 -0.8548 -0.0274  1.8661
  286MOL0     H39466   9.324   1.195   9.436 -3.0151 -0.1400  1.2473
  286MOL0     H39467   9.349   1.303   9.569 -0.5149  0.3547 -0.1083
  286MOL0     H39468   9.410   1.138   9.586  0.6908 -1.9782 -1.7161
  287MOL0     O39469  10.250   9.756   4.630  1.2638 -0.1324  0.9034
  287MOL0     C39470  10.163   9.836   4.670 -0.9802 -0.1656  0.7399
  287MOL0     O39471  10.124   9.852   4.800  0.5409 -0.3437  0.3076
  287MOL0     C39472  10.189   9.771   4.895 -0.1190  0.3218  1.1118
  287MOL0     C39473  10.162   9.635   4.916  0.9801 -0.2957 -0.0335
  287MOL0     C39474  10.224   9.570   5.034  0.4894  0.6274  0.9794
  287MOL0     C39475  10.321   9.632   5.104  0.4645  0.5095 -1.0455
  287MOL0     O39476  10.392   9.570   5.199 -0.5342 -0.3377  0.3636
  287MOL0     C39477  10.412   9.623   5.336 -0.0845 -0.1394 -0.8414
  287MOL0     C39478  10.495   9.528   5.414  0.2856 -0.0747 -0.4010
  287MOL0     C39479  10.553   9.588   5.542 -1.3262 -0.9473 -0.3558
  287MOL0     C39480  10.696   9.628   5.521 -0.0056 -0.2234 -0.0575
  287MOL0     C39481  10.740   9.720   5.640 -0.5775 -0.1499  0.0355
  287MOL0     C39482  10.889   9.750   5.636  0.1491 -0.2219  0.0082
  287MOL0     C39483  10.940   9.805   5.495 -0.5950 -0.4904  0.5249
  287MOL0     C39484  10.895   9.944   5.452 -0.3531 -0.8885  0.8197
  287MOL0     N39485  10.951  10.049   5.535  0.4129 -1.1057  0.6829
  287MOL0     C39486  11.024  10.157   5.497  1.0567 -0.4252  0.4476
  287MOL0     C39487  11.084  10.191   5.616 -0.8511  0.1995  0.8211
  287MOL0     C39488  11.194  10.287   5.624  0.0624  0.0494  0.5247
  287MOL0     C39489  11.301  10.253   5.731 -0.4366 -0.6217 -0.3784
  287MOL0     C39490  11.273  10.326   5.866 -0.2155 -0.1763  0.0260
  287MOL0     C39491  11.337  10.255   5.980 -0.0919  0.0603  0.4576
  287MOL0     O39492  11.336  10.330   6.099  0.4940  0.0557 -0.0757
  287MOL0     C39493  11.227  10.350   6.176  0.2664 -0.3168  0.5716
  287MOL0     C39494  11.109  10.289   6.144 -0.0571 -0.1321  0.2752
  287MOL0     C39495  11.000  10.286   6.235  0.1905 -0.6016 -0.5774
  287MOL0     C39496  10.868  10.245   6.176  0.2689 -0.5754  0.2592
  287MOL0     C39497  11.009  10.356   6.363 -0.5624  0.0271 -0.2855
  287MOL0     C39498  10.888  10.372   6.451  0.4787  0.4959 -0.6038
  287MOL0     O39499  10.787  10.280   6.429 -0.4812  0.1496 -0.1835
  287MOL0     C39500  10.689  10.255   6.517  0.0703 -0.8078  0.1946
  287MOL0     C39501  10.599  10.346   6.582 -1.2714  0.4615 -0.3854
  287MOL0     C39502  10.496  10.298   6.655  0.3041 -0.5192 -0.1293
  287MOL0     C39503  10.479  10.160   6.669 -0.7576  0.9319  0.0713
  287MOL0     O39504  10.374  10.113   6.747  0.9477 -0.6901  0.4655
  287MOL0     C39505  10.245  10.163   6.702 -0.0646 -0.9183  0.4279
  287MOL0     C39506  10.130  10.062   6.734 -0.0360 -0.1820  0.6907
  287MOL0     C39507  10.129  10.001   6.885 -0.4470  0.0660  0.8857
  287MOL0     C39508  10.022   9.888   6.893 -0.2212  0.1990 -1.0398
  287MOL0     C39509   9.887   9.953   6.885 -0.5820 -0.3343  0.1138
  287MOL0     C39510   9.776   9.859   6.930 -0.2028  0.2984 -0.1925
  287MOL0     C39511   9.780   9.717   6.867 -0.4606  0.4418  0.0483
  287MOL0     C39512   9.678   9.617   6.920 -0.0395  0.3408 -0.4215
  287MOL0    Cl39513   9.685   9.461   6.823  0.1290  0.0130  0.2806
  287MOL0     C39514  10.567  10.070   6.606  0.1665 -0.7005 -0.1500
  287MOL0     C39515  10.663  10.118   6.527  0.1328 -0.1703 -0.4978
  287MOL0     O39516  10.884  10.471   6.529  0.1450  0.3657  1.2514
  287MOL0     C39517  11.126  10.423   6.390  0.1816 -0.5494 -0.0087
  287MOL0     C39518  11.234  10.423   6.299 -0.4057 -0.2859 -0.9140
  287MOL0     N39519  11.045  10.110   5.720  0.1372  0.1306 -0.3438
  287MOL0     N39520  10.965  10.036   5.667 -0.0614 -0.1643 -0.0565
  287MOL0     C39521  10.354   9.759   5.071 -0.3758  0.5903  1.0356
  287MOL0     C39522  10.291   9.833   4.976  0.1741  0.6416 -0.2418
  287MOL0     C39523  10.089   9.919   4.572  0.0025 -0.2059 -0.2451
  287MOL0     C39524   9.969   9.979   4.625 -0.0726  0.3786 -0.0177
  287MOL0     C39525   9.886  10.058   4.535  0.5450  0.1925  0.4216
  287MOL0     C39526   9.912  10.066   4.394 -0.1197 -1.0242 -0.0080
  287MOL0     O39527   9.830  10.142   4.309  0.1037 -0.2770  0.1050
  287MOL0     C39528   9.873  10.193   4.186 -0.1137 -0.3715  0.8878
  287MOL0     C39529   9.812  10.108   4.071  1.0014 -0.4394  0.5403
  287MOL0     C39530   9.663  10.133   4.055 -0.9214 -0.0858  0.6132
  287MOL0     C39531   9.619  10.065   3.928  0.2548  0.6022  0.5557
  287MOL0     C39532   9.481  10.095   3.882  0.2522  0.0415 -0.2129
  287MOL0     C39533   9.369  10.123   3.836  0.3868 -0.5874 -0.1759
  287MOL0     C39534  10.031  10.007   4.352  0.6435  0.4810 -0.6802
  287MOL0     C39535  10.111   9.928   4.437 -0.5605 -0.1517  0.4053
  287MOL0     C39536  10.227   9.866   4.352 -0.0884 -0.1666  0.7995
  287MOL0     H39537  10.096   9.582   4.847 -0.1548 -2.6116  2.5777
  287MOL0     H39538  10.202   9.465   5.049 -0.1159  0.0663 -2.7446
  287MOL0     H39539  10.325   9.636   5.401  1.6678  0.5694  1.4806
  287MOL0     H39540  10.468   9.717   5.331  0.5866 -0.2431  2.4322
  287MOL0     H39541  10.426   9.451   5.450  0.7198 -0.2671  0.0366
  287MOL0     H39542  10.577   9.488   5.354 -0.1217  2.9891 -3.3293
  287MOL0     H39543  10.486   9.663   5.587  1.9392  1.3373  1.0515
  287MOL0     H39544  10.562   9.505   5.612  3.0722 -0.7479 -0.4573
  287MOL0     H39545  10.763   9.544   5.499 -2.9645 -3.3307  1.6445
  287MOL0     H39546  10.686   9.697   5.438 -3.0544 -0.0681  0.3041
  287MOL0     H39547  10.717   9.675   5.737  0.2109  1.7849  1.1654
  287MOL0     H39548  10.700   9.822   5.634 -0.4791 -0.0024  1.5101
  287MOL0     H39549  10.925   9.800   5.726 -1.1593 -1.9150  1.5586
  287MOL0     H39550  10.940   9.653   5.644 -1.0178 -1.0136 -1.5416
  287MOL0     H39551  10.918   9.724   5.424  1.1229 -1.9902  1.6127
  287MOL0     H39552  11.049   9.801   5.491 -0.5741  0.6582 -0.6227
  287MOL0     H39553  10.911   9.959   5.345 -1.4060 -3.0986  0.3024
  287MOL0     H39554  10.787   9.939   5.470 -0.1595 -2.1578  1.7569
  287MOL0     H39555  11.044  10.193   5.397  0.1280 -2.0276 -0.3560
  287MOL0     H39556  11.151  10.385   5.646  2.2035  1.1856  0.0163
  287MOL0     H39557  11.252  10.294   5.531  0.0990 -1.7942  0.3744
  287MOL0     H39558  11.305  10.146   5.753 -2.9498 -0.8359 -0.5835
  287MOL0     H39559  11.399  10.291   5.704 -0.6088  0.8702  0.9582
  287MOL0     H39560  11.325  10.422   5.853  3.0798 -1.3732  2.8984
  287MOL0     H39561  11.165  10.340   5.882 -0.3771  0.2002 -1.2234
  287MOL0     H39562  11.291  10.156   5.987  0.7572 -0.2958  1.1216
  287MOL0     H39563  11.441  10.226   5.964  0.1381  0.0717  1.8069
  287MOL0     H39564  11.111  10.218   6.063 -2.7113  1.2906 -1.1537
  287MOL0     H39565  10.827  10.156   6.225 -1.0160 -0.1591  0.0038
  287MOL0     H39566  10.891  10.223   6.071  1.9464  0.3435  0.4040
  287MOL0     H39567  10.791  10.323   6.179 -1.8387 -2.5255  0.3603
  287MOL0     H39568  10.615  10.454   6.582 -0.8812  0.4066 -0.2376
  287MOL0     H39569  10.429  10.373   6.697 -2.0198 -1.0798 -2.6104
  287MOL0     H39570  10.214  10.252   6.758 -1.8043  0.1230 -2.0347
  287MOL0     H39571  10.235  10.189   6.597  2.8518  1.0931  0.5295
  287MOL0     H39572  10.034  10.114   6.724  0.8034  1.5293  1.0490
  287MOL0     H39573  10.137   9.986   6.656  2.0177 -0.8485  1.4662
  287MOL0     H39574  10.104  10.085   6.951  0.4951 -0.0934  1.4747
  287MOL0     H39575  10.231   9.965   6.902  0.2937  0.9515 -1.3361
  287MOL0     H39576  10.020   9.842   6.992 -3.3541  0.5572 -0.8383
  287MOL0     H39577  10.040   9.828   6.804 -0.0091  3.0720 -3.0976
  287MOL0     H39578   9.883  10.048   6.939 -2.8241  0.6599 -1.6298
  287MOL0     H39579   9.878   9.984   6.781  2.6733  0.0220 -0.1441
  287MOL0     H39580   9.675   9.896   6.910 -0.1008  0.9370  0.4389
  287MOL0     H39581   9.788   9.848   7.038 -1.4085 -1.9069 -0.2192
  287MOL0     H39582   9.881   9.674   6.868 -1.7856 -3.0379  1.7015
  287MOL0     H39583   9.750   9.733   6.763 -2.8883 -0.3431  0.5749
  287MOL0     H39584   9.581   9.664   6.906  0.1833  0.6920 -0.7933
  287MOL0     H39585   9.688   9.604   7.028  3.0059 -0.5231 -0.7003
  287MOL0     H39586  10.563   9.962   6.614  3.9579 -0.9076  0.8404
  287MOL0     H39587  10.740  10.060   6.476  0.6571  0.1041 -0.0233
  287MOL0     H39588  11.123  10.481   6.482 -3.6988  0.4784 -0.6140
  287MOL0     H39589  11.316  10.489   6.327  0.0906 -1.2976  0.1278
  287MOL0     H39590  10.433   9.805   5.129 -0.6619  1.2339  0.9211
  287MOL0     H39591  10.311   9.939   4.968 -1.3617  0.9354 -0.4195
  287MOL0     H39592   9.944   9.983   4.730  1.5575  4.1059  0.4151
  287MOL0     H39593   9.801  10.112   4.576  0.0621  1.6847 -2.2748
  287MOL0     H39594   9.835  10.296   4.186 -1.3932 -0.7923  2.1045
  287MOL0     H39595   9.981  10.201   4.178 -0.1658  0.1636  0.6857
  287MOL0     H39596   9.834  10.005   4.100  1.4852 -1.2930 -2.5418
  287MOL0     H39597   9.853  10.118   3.970  0.0911 -7.5838 -1.0464
  287MOL0     H39598   9.625  10.079   4.143 -1.3334 -2.3642 -0.8739
  287MOL0     H39599   9.641  10.240   4.058 -2.0729 -0.3237  2.1193
  287MOL0     H39600   9.623   9.960   3.957 -1.6895  0.8297  1.8774
  287MOL0     H39601   9.690  10.080   3.846 -0.4212 -2.0194 -0.5907
  287MOL0     H39602   9.276  10.145   3.788 -0.2288 -1.2257  0.6910
  287MOL0     H39603  10.071  10.021   4.252  1.7918 -0.8917 -0.4407
  287MOL0     H39604  10.245   9.923   4.260  1.3764 -0.3173  0.9552
  287MOL0     H39605  10.325   9.865   4.403  0.2787  3.0218  0.3724
  287MOL0     H39606  10.198   9.764   4.328  2.5830 -1.0070  0.7618
  288MOL0     O39607   3.531   6.138   2.862  0.0583 -0.8195  1.2616
  288MOL0     C39608   3.595   6.222   2.811 -0.9084 -0.0094 -0.0175
  288MOL0     O39609   3.590   6.248   2.680 -0.0537 -0.2163 -0.8025
  288MOL0     C39610   3.560   6.152   2.589  0.5302 -0.6440 -0.0816
  288MOL0     C39611   3.615   6.027   2.587  0.2637  0.8546  0.5647
  288MOL0     C39612   3.565   5.932   2.499 -0.3394 -0.1868  0.2000
  288MOL0     C39613   3.462   5.958   2.406  0.4941 -0.4762 -0.0796
  288MOL0     O39614   3.419   5.851   2.327  0.3760  0.4542  0.7679
  288MOL0     C39615   3.285   5.870   2.268 -1.3082  0.7914 -0.3393
  288MOL0     C39616   3.250   5.731   2.222  0.1736  0.6523 -0.1948
  288MOL0     C39617   3.200   5.645   2.348  0.4024  0.7994 -0.5347
  288MOL0     C39618   3.156   5.509   2.316  1.0023 -0.8583  0.3169
  288MOL0     C39619   3.115   5.429   2.438  0.4046  0.0452  0.5533
  288MOL0     C39620   3.029   5.309   2.405 -0.2656  0.3761  0.5679
  288MOL0     C39621   2.887   5.335   2.364  0.6129 -0.0033 -0.6939
  288MOL0     C39622   2.799   5.207   2.396  0.3838 -0.7836  0.9324
  288MOL0     N39623   2.661   5.240   2.362 -0.2339  0.1279 -0.1648
  288MOL0     C39624   2.580   5.193   2.259 -0.4852 -0.2430  0.2559
  288MOL0     C39625   2.469   5.264   2.275  0.3927 -0.3512  0.8015
  288MOL0     C39626   2.342   5.256   2.196 -0.4977 -0.0927 -0.8681
  288MOL0     C39627   2.224   5.346   2.248  0.1422 -0.0718 -0.1709
  288MOL0     C39628   2.141   5.409   2.129 -0.2181 -0.4601  0.0557
  288MOL0     C39629   2.208   5.524   2.052  0.5527  0.4065  0.3473
  288MOL0     O39630   2.116   5.561   1.942 -0.1425 -0.0098  0.2185
  288MOL0     C39631   2.093   5.693   1.913  0.4080  0.3450  0.0467
  288MOL0     C39632   2.084   5.797   2.004  0.8299  0.5429 -0.3902
  288MOL0     C39633   2.043   5.918   1.960  0.4340  0.1757  0.5224
  288MOL0     C39634   2.033   6.026   2.064 -0.7040  0.4404  0.4250
  288MOL0     C39635   2.010   5.942   1.821  0.9951 -0.6178 -0.6787
  288MOL0     C39636   1.971   6.084   1.763  0.3341 -0.5457 -0.3744
  288MOL0     O39637   1.903   6.084   1.647 -0.1557 -0.5062 -0.1944
  288MOL0     C39638   1.828   6.202   1.617 -0.1604 -0.5910  0.4862
  288MOL0     C39639   1.747   6.261   1.713  0.8121  0.9780  0.3130
  288MOL0     C39640   1.673   6.375   1.685  0.0810  0.4722  0.5036
  288MOL0     C39641   1.675   6.433   1.556 -1.0946 -1.4084 -0.6400
  288MOL0     O39642   1.600   6.554   1.547  0.6637 -0.6985  0.0501
  288MOL0     C39643   1.557   6.592   1.417 -0.0744 -0.2699 -0.3007
  288MOL0     C39644   1.473   6.717   1.401 -0.2136  0.0705 -0.7275
  288MOL0     C39645   1.569   6.832   1.442 -0.4412 -0.6541  0.0930
  288MOL0     C39646   1.519   6.956   1.382 -0.3440  0.1686  0.3070
  288MOL0     C39647   1.383   7.009   1.436  0.4316 -0.2866  0.1447
  288MOL0     C39648   1.343   7.141   1.363 -0.1940 -0.0068  0.6082
  288MOL0     C39649   1.198   7.189   1.406  0.8079 -0.5612 -0.1426
  288MOL0     C39650   1.139   7.315   1.328 -0.5658 -0.4474 -0.2642
  288MOL0    Cl39651   0.977   7.335   1.385 -0.2107  0.1127 -0.1234
  288MOL0     C39652   1.758   6.369   1.460 -0.3791 -0.4862 -0.3103
  288MOL0     C39653   1.828   6.255   1.495 -0.1217 -0.1040  0.1047
  288MOL0     O39654   1.972   6.179   1.840 -0.4896 -0.7563 -0.5726
  288MOL0     C39655   2.021   5.836   1.730  0.3293  0.3248 -0.0042
  288MOL0     C39656   2.060   5.713   1.781  0.1647  0.6312 -0.1883
  288MOL0     N39657   2.471   5.326   2.397 -0.1852 -0.5813 -1.1442
  288MOL0     N39658   2.585   5.320   2.445  0.0940  1.0604 -0.2481
  288MOL0     C39659   3.406   6.088   2.410 -0.0556  1.0313  0.6150
  288MOL0     C39660   3.458   6.181   2.501 -0.3453 -0.6156  0.8305
  288MOL0     C39661   3.661   6.326   2.898 -0.1394 -0.0459 -0.1575
  288MOL0     C39662   3.653   6.464   2.866  1.3613 -0.6974  0.6411
  288MOL0     C39663   3.699   6.564   2.959  0.2441  0.2293  0.3182
  288MOL0     C39664   3.758   6.529   3.080  0.5087  0.6447 -0.8063
  288MOL0     O39665   3.790   6.626   3.171  0.2356  0.0315 -0.1578
  288MOL0     C39666   3.868   6.593   3.286 -0.1464  0.0617 -0.4789
  288MOL0     C39667   3.897   6.723   3.371  0.0426 -0.5504 -0.0321
  288MOL0     C39668   3.960   6.838   3.278  0.1928  0.9371 -0.6225
  288MOL0     C39669   3.970   6.970   3.368 -0.3167  0.2087  0.4981
  288MOL0     C39670   4.069   6.961   3.471 -0.4674 -0.2439  0.2603
  288MOL0     C39671   4.161   6.950   3.551 -0.0365 -0.7701 -0.3501
  288MOL0     C39672   3.781   6.392   3.109 -0.2944  0.1350 -0.1287
  288MOL0     C39673   3.738   6.293   3.016 -0.4174  0.9732  0.4060
  288MOL0     C39674   3.773   6.149   3.051 -1.6934  0.0196  0.0531
  288MOL0     H39675   3.703   5.996   2.642  0.4809 -0.5756 -0.5252
  288MOL0     H39676   3.602   5.830   2.496  1.8738  0.5262  1.3583
  288MOL0     H39677   3.285   5.928   2.175  1.4561  0.6376 -0.5137
  288MOL0     H39678   3.210   5.904   2.340 -1.1226 -0.2692  0.3811
  288MOL0     H39679   3.162   5.734   2.157 -2.8126 -2.2667  3.2716
  288MOL0     H39680   3.328   5.680   2.164 -1.0356  0.5735 -1.8242
  288MOL0     H39681   3.277   5.635   2.426 -1.0636 -0.4410  0.8252
  288MOL0     H39682   3.114   5.695   2.393  0.7137  2.4550 -1.6941
  288MOL0     H39683   3.084   5.516   2.234  0.1142 -2.8618  0.8717
  288MOL0     H39684   3.243   5.455   2.277 -0.0918 -3.1425  0.8839
  288MOL0     H39685   3.052   5.492   2.503 -1.1447 -0.7631 -0.0955
  288MOL0     H39686   3.201   5.397   2.497  0.9851  1.5130  0.5452
  288MOL0     H39687   3.074   5.261   2.318 -1.8836 -1.9073  0.9293
  288MOL0     H39688   3.045   5.240   2.488  3.1613 -0.5309 -0.6537
  288MOL0     H39689   2.875   5.366   2.259  2.2653  1.9751 -0.3721
  288MOL0     H39690   2.850   5.417   2.426  3.0641  0.4039  0.3595
  288MOL0     H39691   2.834   5.109   2.363  0.5831 -0.0885 -1.1147
  288MOL0     H39692   2.796   5.194   2.504  1.8910 -0.3625  1.0383
  288MOL0     H39693   2.602   5.122   2.180  0.9989  0.6037 -0.1291
  288MOL0     H39694   2.311   5.152   2.188  3.3730 -1.4454 -0.4037
  288MOL0     H39695   2.370   5.287   2.094 -0.7159  2.2964 -0.2557
  288MOL0     H39696   2.156   5.290   2.314 -0.2206  0.8941  0.2833
  288MOL0     H39697   2.262   5.432   2.304  1.4309 -0.3864 -0.5355
  288MOL0     H39698   2.111   5.323   2.069  1.0342 -1.0611  0.2467
  288MOL0     H39699   2.060   5.454   2.187  0.5217 -0.4596  1.1421
  288MOL0     H39700   2.239   5.602   2.123 -3.6125 -0.0162  2.9276
  288MOL0     H39701   2.291   5.478   1.998 -1.5130 -3.0626 -0.1552
  288MOL0     H39702   2.087   5.782   2.111  2.2520 -1.3882 -0.6359
  288MOL0     H39703   2.071   5.999   2.163  0.9377  1.8132  0.2084
  288MOL0     H39704   1.929   6.056   2.083 -0.2906  0.4910  3.0670
  288MOL0     H39705   2.098   6.104   2.024 -1.1153 -0.9867 -3.3497
  288MOL0     H39706   1.744   6.216   1.812  1.1363  2.1859  0.8798
  288MOL0     H39707   1.610   6.420   1.761 -0.3950  1.3844 -0.4203
  288MOL0     H39708   1.648   6.616   1.360 -0.6590 -2.1332 -2.1244
  288MOL0     H39709   1.496   6.509   1.380 -2.2323  0.4892  1.3605
  288MOL0     H39710   1.409   6.726   1.313 -0.7780  1.9470 -0.1650
  288MOL0     H39711   1.418   6.706   1.495  2.9689 -3.0352  1.0293
  288MOL0     H39712   1.673   6.826   1.408  0.4808  0.4809  2.5117
  288MOL0     H39713   1.573   6.837   1.551 -3.7456  0.1786  0.2560
  288MOL0     H39714   1.512   6.955   1.273  1.3182  1.8150  0.1241
  288MOL0     H39715   1.606   7.022   1.398 -0.3606  1.3711 -3.4269
  288MOL0     H39716   1.297   6.946   1.415  1.2736 -1.2875 -0.3702
  288MOL0     H39717   1.386   7.014   1.545 -0.5602  0.3895  0.1537
  288MOL0     H39718   1.343   7.117   1.257  2.2030 -1.0738  0.7746
  288MOL0     H39719   1.418   7.219   1.379  1.7744 -2.0113  1.9575
  288MOL0     H39720   1.215   7.228   1.507  2.3355 -0.8339 -0.2596
  288MOL0     H39721   1.123   7.110   1.410 -0.0332  0.2866  2.4223
  288MOL0     H39722   1.139   7.293   1.221 -1.5479  1.1515 -0.6272
  288MOL0     H39723   1.200   7.400   1.361 -3.4496  1.1452  1.3555
  288MOL0     H39724   1.760   6.416   1.362  0.4810  0.4871  0.1455
  288MOL0     H39725   1.878   6.207   1.412 -0.4186 -0.7013  0.2612
  288MOL0     H39726   1.991   5.838   1.626 -1.4479  1.3860  0.4946
  288MOL0     H39727   2.037   5.625   1.722 -1.3602 -0.5137  1.9386
  288MOL0     H39728   3.323   6.106   2.342  0.6166 -3.1265 -1.6229
  288MOL0     H39729   3.416   6.281   2.499 -0.9330 -0.8534 -1.0830
  288MOL0     H39730   3.605   6.505   2.777  1.0713 -1.8440  0.2599
  288MOL0     H39731   3.678   6.668   2.938  1.1171  0.0891 -1.5084
  288MOL0     H39732   3.810   6.522   3.346 -0.3939 -1.2271 -2.1513
  288MOL0     H39733   3.965   6.545   3.270  2.6568  2.9062  4.9587
  288MOL0     H39734   3.947   6.695   3.464  0.4637  0.6318  0.1180
  288MOL0     H39735   3.802   6.774   3.393  1.5320  2.8362 -0.7616
  288MOL0     H39736   4.058   6.816   3.234  0.0656  0.1050 -0.5057
  288MOL0     H39737   3.897   6.867   3.193  0.0950 -0.5267 -1.0822
  288MOL0     H39738   3.871   6.995   3.408  0.8108  1.5387  2.5995
  288MOL0     H39739   4.003   7.051   3.302  0.5423 -0.1971  0.4232
  288MOL0     H39740   4.232   6.932   3.630 -1.0807  0.6545  0.9659
  288MOL0     H39741   3.817   6.368   3.209  0.9091 -1.9494 -1.0190
  288MOL0     H39742   3.696   6.115   3.121 -1.0075  1.0026  1.3085
  288MOL0     H39743   3.780   6.078   2.967  0.8002  0.9887 -0.6638
  288MOL0     H39744   3.871   6.144   3.100 -1.7924 -1.2468  0.1694
  289MOL0     O39745   3.393   6.731   8.546 -0.5715  0.6930 -0.3205
  289MOL0     C39746   3.376   6.845   8.579  0.1151  0.0023  1.6436
  289MOL0     O39747   3.326   6.885   8.693 -0.7088  0.7115 -0.2879
  289MOL0     C39748   3.288   6.805   8.797 -0.6557 -0.0820 -0.1653
  289MOL0     C39749   3.233   6.871   8.904 -0.7384 -0.9990  0.4707
  289MOL0     C39750   3.212   6.812   9.022  0.6301  0.2265 -0.1382
  289MOL0     C39751   3.239   6.677   9.035  0.1466  0.0479  0.0069
  289MOL0     O39752   3.222   6.616   9.157 -0.0828  0.5206 -0.0759
  289MOL0     C39753   3.253   6.679   9.278  0.1912  0.4234  0.6051
  289MOL0     C39754   3.181   6.583   9.384 -1.4488 -0.4814 -0.0834
  289MOL0     C39755   3.271   6.462   9.425 -0.3239  1.0155  0.5327
  289MOL0     C39756   3.191   6.380   9.525  0.1514 -0.3335 -0.1132
  289MOL0     C39757   3.258   6.250   9.561 -0.1112 -0.1478 -0.3428
  289MOL0     C39758   3.161   6.193   9.668  0.2675  0.0173 -0.0659
  289MOL0     C39759   3.196   6.048   9.679 -0.5640  0.3952 -0.2519
  289MOL0     C39760   3.119   5.962   9.572 -0.4690  0.1131  0.5580
  289MOL0     N39761   2.987   5.918   9.614  0.7661 -0.1394 -0.5055
  289MOL0     C39762   2.945   5.832   9.713  0.3323  0.0505  0.2715
  289MOL0     C39763   2.808   5.852   9.721  1.1632  0.5900  0.3396
  289MOL0     C39764   2.705   5.790   9.827 -1.3068  0.4252  0.9551
  289MOL0     C39765   2.557   5.800   9.774 -0.6654 -0.1558  0.6735
  289MOL0     C39766   2.459   5.703   9.836 -0.1151  0.1993 -0.2232
  289MOL0     C39767   2.436   5.721   9.987  2.0811 -0.4721 -0.7376
  289MOL0     O39768   2.442   5.853  10.039  0.1822  0.6294 -0.3404
  289MOL0     C39769   2.438   5.868  10.175  0.6823  0.4906 -0.2970
  289MOL0     C39770   2.485   5.988  10.232 -0.4180 -0.3729  0.1399
  289MOL0     C39771   2.504   6.011  10.363  0.6456 -0.1475 -0.6392
  289MOL0     C39772   2.555   6.140  10.407  0.4710 -0.1052 -0.0188
  289MOL0     C39773   2.470   5.915  10.448  0.5487  1.2156 -0.3632
  289MOL0     C39774   2.503   5.916  10.588 -0.2703  0.4614 -0.7231
  289MOL0     O39775   2.391   5.896  10.668  0.6144  0.0762 -0.4859
  289MOL0     C39776   2.419   5.897  10.799 -0.3429 -0.1632  0.1379
  289MOL0     C39777   2.333   5.980  10.869 -0.6953 -0.3724  0.9305
  289MOL0     C39778   2.330   5.988  11.007  0.9360 -0.0960  0.5481
  289MOL0     C39779   2.422   5.908  11.075  0.6180  0.0130 -0.6634
  289MOL0     O39780   2.433   5.931  11.214  0.2168  0.0260 -0.3686
  289MOL0     C39781   2.543   5.864  11.289 -0.4511 -0.5646 -0.1623
  289MOL0     C39782   2.503   5.742  11.360  0.3613  1.2627 -0.0047
  289MOL0     C39783   2.383   5.767  11.466 -0.2005 -0.6401  0.4242
  289MOL0     C39784   2.331   5.640  11.541  0.1752 -0.2195 -0.6127
  289MOL0     C39785   2.226   5.651  11.660 -0.1420 -0.5373  0.5149
  289MOL0     C39786   2.260   5.544  11.768  0.2147 -0.1212  0.8189
  289MOL0     C39787   2.201   5.411  11.728  1.0059  0.7060  0.1952
  289MOL0     C39788   2.233   5.290  11.824 -0.3267 -0.3319  0.3548
  289MOL0    Cl39789   2.310   5.141  11.752 -0.4706 -0.2890  0.3834
  289MOL0     C39790   2.502   5.819  11.005 -0.6745  0.1927 -0.6106
  289MOL0     C39791   2.492   5.802  10.864 -1.3278  0.2359  0.1752
  289MOL0     O39792   2.621   5.932  10.631 -0.6119  0.6337  0.1165
  289MOL0     C39793   2.428   5.786  10.395  0.3839 -0.0767 -0.0493
  289MOL0     C39794   2.414   5.766  10.263 -0.4732 -0.1447  0.3768
  289MOL0     N39795   2.769   5.942   9.625 -0.6327 -0.4037 -0.2357
  289MOL0     N39796   2.876   5.988   9.570  0.3037  0.3150  0.3809
  289MOL0     C39797   3.302   6.610   8.930 -0.1848  0.1462  1.1413
  289MOL0     C39798   3.333   6.670   8.814 -0.3733 -0.2111 -0.2678
  289MOL0     C39799   3.422   6.951   8.477 -0.1966  0.0756  0.6094
  289MOL0     C39800   3.522   6.909   8.386 -1.0293 -0.2806 -0.0524
  289MOL0     C39801   3.574   6.988   8.292 -0.6550  0.1545  0.3555
  289MOL0     C39802   3.528   7.120   8.279 -0.1104 -0.0094  0.4689
  289MOL0     O39803   3.566   7.180   8.158 -0.1907 -1.2503  0.5208
  289MOL0     C39804   3.623   7.309   8.144  0.4713  0.8393  0.0584
  289MOL0     C39805   3.764   7.316   8.182  0.5798 -0.0348  0.0464
  289MOL0     C39806   3.824   7.440   8.124  1.2046  0.1251  0.0964
  289MOL0     C39807   3.980   7.438   8.122  0.8134 -0.9100  0.1022
  289MOL0     C39808   4.026   7.557   8.057 -1.2392  0.5754  0.5337
  289MOL0     C39809   4.082   7.655   8.001 -0.7907  0.4050 -0.0682
  289MOL0     C39810   3.439   7.170   8.369 -0.3563 -0.2466 -0.0769
  289MOL0     C39811   3.391   7.083   8.479 -0.1457 -1.5284 -0.0796
  289MOL0     C39812   3.314   7.147   8.590  0.0085  0.0561 -0.4192
  289MOL0     H39813   3.209   6.976   8.891  1.1265 -0.3687  1.6610
  289MOL0     H39814   3.174   6.866   9.109 -0.4380  1.4610 -1.3329
  289MOL0     H39815   3.226   6.785   9.278  1.2388  0.7097  1.3819
  289MOL0     H39816   3.362   6.679   9.286  0.0858 -1.3071  4.2912
  289MOL0     H39817   3.170   6.646   9.474  1.7303  0.7656 -0.4475
  289MOL0     H39818   3.088   6.558   9.332 -1.1411  2.2044 -2.1655
  289MOL0     H39819   3.298   6.399   9.339 -1.5364 -2.0929  2.2609
  289MOL0     H39820   3.368   6.488   9.467  1.3046 -2.6263 -0.5387
  289MOL0     H39821   3.177   6.450   9.608 -1.0551  0.9340 -1.3314
  289MOL0     H39822   3.091   6.373   9.482  0.4216  0.8943 -1.0282
  289MOL0     H39823   3.358   6.278   9.597  1.2372 -0.8404 -3.2750
  289MOL0     H39824   3.289   6.188   9.477  5.1264 -1.1867  1.8820
  289MOL0     H39825   3.183   6.244   9.762 -0.8061 -0.4379  0.4483
  289MOL0     H39826   3.054   6.206   9.645  0.5546  0.7345 -1.0678
  289MOL0     H39827   3.182   6.011   9.781  3.1382  2.4603  1.1766
  289MOL0     H39828   3.303   6.042   9.660  0.3192  4.2136  2.5444
  289MOL0     H39829   3.121   5.999   9.469  2.2600 -1.1580  0.0655
  289MOL0     H39830   3.187   5.879   9.550 -0.3775  1.0624 -3.5412
  289MOL0     H39831   3.001   5.762   9.773  1.4718  1.9019  1.4687
  289MOL0     H39832   2.714   5.856   9.913  0.7647 -0.9663  1.9055
  289MOL0     H39833   2.740   5.688   9.847 -2.3510 -0.2060 -0.2534
  289MOL0     H39834   2.516   5.902   9.778 -2.9188 -0.7726 -2.5663
  289MOL0     H39835   2.554   5.772   9.668 -0.5122  0.6883  0.4325
  289MOL0     H39836   2.362   5.710   9.784 -0.3108 -0.6058  0.0177
  289MOL0     H39837   2.494   5.602   9.811 -1.5978 -0.5978  0.7495
  289MOL0     H39838   2.334   5.687  10.005  0.9410  2.2332 -1.5848
  289MOL0     H39839   2.490   5.645  10.044  1.3669 -0.3936  0.0607
  289MOL0     H39840   2.517   6.062  10.159 -0.0607 -2.7764 -2.2896
  289MOL0     H39841   2.645   6.137  10.469 -0.2826  3.4164  1.5366
  289MOL0     H39842   2.480   6.183  10.475  2.4619 -2.1257  3.8347
  289MOL0     H39843   2.553   6.201  10.316 -1.7928 -2.5222 -1.7561
  289MOL0     H39844   2.280   6.057  10.814  0.4134 -0.5148 -0.3796
  289MOL0     H39845   2.259   6.057  11.051  2.0355  1.9257 -0.6943
  289MOL0     H39846   2.627   5.851  11.219 -0.5796  0.8863 -0.6260
  289MOL0     H39847   2.591   5.927  11.365 -3.5427 -0.7101  2.0966
  289MOL0     H39848   2.480   5.660  11.291  2.4675  0.2125  0.4477
  289MOL0     H39849   2.589   5.708  11.419 -0.0406  3.1729  1.7737
  289MOL0     H39850   2.294   5.814  11.422 -0.9904  0.0947  2.6727
  289MOL0     H39851   2.424   5.836  11.540  0.2011 -0.3129 -0.0930
  289MOL0     H39852   2.418   5.583  11.575  0.1429  0.0638 -0.0568
  289MOL0     H39853   2.283   5.564  11.479 -0.7321 -1.7928  1.8764
  289MOL0     H39854   2.222   5.749  11.710  2.7017 -1.2359  2.2944
  289MOL0     H39855   2.126   5.628  11.622  0.5428 -0.3413 -1.4764
  289MOL0     H39856   2.236   5.586  11.866 -2.4909  0.2772  0.0726
  289MOL0     H39857   2.369   5.546  11.778  0.2710  2.5236  0.3054
  289MOL0     H39858   2.228   5.383  11.626 -2.2600 -1.0830 -0.3229
  289MOL0     H39859   2.093   5.427  11.713  0.5495 -0.6639  1.6153
  289MOL0     H39860   2.130   5.276  11.858 -1.5743  0.8528 -2.6081
  289MOL0     H39861   2.286   5.317  11.916  1.2279 -2.8538  0.2998
  289MOL0     H39862   2.563   5.747  11.060 -0.9489 -1.0842 -1.9187
  289MOL0     H39863   2.557   5.732  10.811  3.3278  1.6921  3.3466
  289MOL0     H39864   2.407   5.699  10.457 -3.1821  1.9380  1.8836
  289MOL0     H39865   2.368   5.675  10.225 -2.3852  0.2653  1.5563
  289MOL0     H39866   3.330   6.507   8.952 -0.8117 -0.5768 -1.2028
  289MOL0     H39867   3.389   6.615   8.739  1.0089  0.5705  0.1556
  289MOL0     H39868   3.545   6.803   8.388 -0.4774 -0.1679  2.0731
  289MOL0     H39869   3.645   6.951   8.220  2.3641  1.5659  2.4218
  289MOL0     H39870   3.610   7.338   8.040 -5.0574  0.4558  0.3596
  289MOL0     H39871   3.566   7.385   8.199 -1.6043 -1.0829  0.7345
  289MOL0     H39872   3.813   7.221   8.159  0.1052 -0.4209  0.5943
  289MOL0     H39873   3.768   7.331   8.291 -1.6167  0.3834  0.1154
  289MOL0     H39874   3.787   7.435   8.021 -0.4683  1.4281  0.5819
  289MOL0     H39875   3.773   7.520   8.177 -0.7805 -0.9612 -0.0435
  289MOL0     H39876   4.016   7.353   8.062  2.2347 -0.6142  0.4879
  289MOL0     H39877   4.011   7.437   8.227 -0.0771 -0.1070  0.3838
  289MOL0     H39878   4.123   7.744   7.958  1.8854 -0.9202 -0.4245
  289MOL0     H39879   3.403   7.272   8.370 -0.8662 -0.4068 -0.6814
  289MOL0     H39880   3.280   7.244   8.551 -0.4561  1.0310  2.1607
  289MOL0     H39881   3.230   7.081   8.609  0.3489 -0.6356 -1.2687
  289MOL0     H39882   3.363   7.168   8.686 -0.5578  1.0587 -0.3358
  290MOL0     O39883   3.927   6.982   1.530 -0.4219 -0.1163 -0.3746
  290MOL0     C39884   3.911   6.864   1.570 -0.6605 -0.8398  0.3984
  290MOL0     O39885   3.801   6.783   1.536 -1.0450  0.2000 -0.5267
  290MOL0     C39886   3.752   6.781   1.408 -0.0135 -0.4929 -0.4344
  290MOL0     C39887   3.621   6.746   1.391  0.3884  0.2887  0.3522
  290MOL0     C39888   3.572   6.734   1.261 -0.7764 -0.1566  0.2197
  290MOL0     C39889   3.650   6.772   1.144  1.0189 -0.0144 -0.1597
  290MOL0     O39890   3.595   6.782   1.016 -1.2209 -1.0074 -0.6684
  290MOL0     C39891   3.638   6.895   0.938 -0.3339  0.3040  0.4527
  290MOL0     C39892   3.527   6.945   0.850 -0.5228  0.7266 -0.8979
  290MOL0     C39893   3.582   7.033   0.738  0.1510 -0.3080  0.1025
  290MOL0     C39894   3.656   6.960   0.628 -0.0793 -0.0494 -0.5458
  290MOL0     C39895   3.719   7.065   0.534  1.0558  0.4670 -0.2572
  290MOL0     C39896   3.808   7.006   0.430  0.1062 -0.6339  0.1691
  290MOL0     C39897   3.730   6.912   0.332  0.8423 -0.1472 -0.3460
  290MOL0     C39898   3.824   6.900   0.213  0.6672  0.2999  0.8583
  290MOL0     N39899   3.937   6.816   0.248 -0.6022  0.0011  0.5061
  290MOL0     C39900   3.928   6.681   0.248  0.2073 -0.8882  0.1164
  290MOL0     C39901   4.047   6.648   0.288 -0.8325  0.3382  0.3869
  290MOL0     C39902   4.088   6.511   0.319  0.5627  0.5838  0.3666
  290MOL0     C39903   4.137   6.442   0.195 -0.0840  0.4289  0.2823
  290MOL0     C39904   4.286   6.389   0.212 -0.0365 -0.2197  0.9735
  290MOL0     C39905   4.347   6.348   0.080 -0.6698 -0.8205  0.5032
  290MOL0     O39906   4.382   6.456  -0.017  0.1934 -0.0200  1.1534
  290MOL0     C39907   4.488   6.548   0.026  0.5310  0.1631  0.6403
  290MOL0     C39908   4.451   6.659   0.089 -0.5335 -0.5618 -0.4024
  290MOL0     C39909   4.535   6.768   0.116  0.1917 -0.7143  0.2017
  290MOL0     C39910   4.474   6.892   0.178  0.5221 -0.1072  0.2289
  290MOL0     C39911   4.672   6.753   0.085 -0.0601  0.0645  0.5092
  290MOL0     C39912   4.780   6.853   0.122  0.1241  0.1173  0.0953
  290MOL0     O39913   4.905   6.844   0.062 -0.0808  0.0336  0.5390
  290MOL0     C39914   4.982   6.960   0.078  0.6476 -0.1224 -0.3890
  290MOL0     C39915   5.064   6.964   0.196  1.3038 -0.3616  0.8764
  290MOL0     C39916   5.141   7.071   0.224 -0.5318 -0.6764  0.4701
  290MOL0     C39917   5.130   7.190   0.149  0.5809 -1.0502  0.3073
  290MOL0     O39918   5.213   7.295   0.179  0.1234 -0.0603  0.8298
  290MOL0     C39919   5.323   7.293   0.263 -0.0426  1.1492 -0.0741
  290MOL0     C39920   5.303   7.395   0.372 -0.5728  0.4349  0.0354
  290MOL0     C39921   5.281   7.540   0.302  0.4264 -0.3708 -0.1300
  290MOL0     C39922   5.293   7.667   0.392 -0.5102 -0.4366 -0.8471
  290MOL0     C39923   5.190   7.771   0.356 -0.4351  0.3732 -1.2014
  290MOL0     C39924   5.199   7.826   0.215  0.5476 -0.5454 -0.0286
  290MOL0     C39925   5.138   7.958   0.203 -1.2128 -0.1579  0.0764
  290MOL0     C39926   5.167   8.026   0.067 -0.2829  0.1319 -0.0814
  290MOL0    Cl39927   5.111   8.195   0.061  0.3123 -0.4153 -0.1628
  290MOL0     C39928   5.055   7.191   0.034  0.6572 -0.5014  0.0346
  290MOL0     C39929   4.988   7.074  -0.009  1.3633 -0.8487 -0.0646
  290MOL0     O39930   4.752   6.937   0.204 -0.2964  0.6752  0.6931
  290MOL0     C39931   4.711   6.627   0.021 -0.8739  0.5166  0.5620
  290MOL0     C39932   4.617   6.525  -0.021 -0.7345 -0.1973 -0.0223
  290MOL0     N39933   4.139   6.752   0.311  0.8971 -0.2698 -0.1850
  290MOL0     N39934   4.070   6.857   0.280  0.9497 -0.0312  0.0093
  290MOL0     C39935   3.782   6.815   1.172 -0.0480  0.2270  0.2569
  290MOL0     C39936   3.837   6.816   1.298 -0.2030 -0.5435  0.3787
  290MOL0     C39937   4.004   6.808   1.670  0.8989  0.2311 -0.2583
  290MOL0     C39938   4.070   6.899   1.746  0.3222  0.1766 -0.0332
  290MOL0     C39939   4.164   6.862   1.843  0.4137  1.0140 -0.5045
  290MOL0     C39940   4.200   6.727   1.853 -0.1727  0.3722  0.0588
  290MOL0     O39941   4.293   6.683   1.953  0.2883  0.5918  0.1705
  290MOL0     C39942   4.434   6.720   1.941 -0.8723  0.4572 -0.3362
  290MOL0     C39943   4.520   6.594   1.929  0.3310  0.9144 -0.3488
  290MOL0     C39944   4.673   6.617   1.900 -0.1409  0.2193  0.2170
  290MOL0     C39945   4.755   6.487   1.887 -1.2110 -0.1537 -0.2610
  290MOL0     C39946   4.901   6.509   1.901 -1.0779 -0.7057 -0.1842
  290MOL0     C39947   5.023   6.546   1.908 -0.0924  0.4653 -0.8007
  290MOL0     C39948   4.136   6.634   1.772  1.4071  0.0553 -0.5862
  290MOL0     C39949   4.037   6.668   1.676 -0.2601 -0.3344 -1.0262
  290MOL0     C39950   3.992   6.570   1.569  0.5522  0.5871  0.3796
  290MOL0     H39951   3.552   6.713   1.467  0.0361 -2.5204 -1.0785
  290MOL0     H39952   3.470   6.706   1.237 -1.2764  2.8690 -1.6841
  290MOL0     H39953   3.723   6.868   0.876 -0.4503  0.3168  0.2882
  290MOL0     H39954   3.669   6.972   1.010 -1.2395 -0.2319  1.4450
  290MOL0     H39955   3.482   6.849   0.823  2.3729 -2.3662  3.8836
  290MOL0     H39956   3.465   7.005   0.917  0.0086 -1.5971  1.8566
  290MOL0     H39957   3.498   7.076   0.682  1.2361 -1.0052 -2.1758
  290MOL0     H39958   3.646   7.114   0.774  0.8729 -0.9906  0.3904
  290MOL0     H39959   3.743   6.908   0.670 -0.2413  0.0094 -0.1353
  290MOL0     H39960   3.588   6.896   0.571  0.7078  1.0072 -2.7984
  290MOL0     H39961   3.787   7.130   0.589  3.7872 -0.5271 -2.2236
  290MOL0     H39962   3.647   7.127   0.480  3.7924  1.9903 -2.4822
  290MOL0     H39963   3.862   7.087   0.381  0.3792  2.2120  4.6245
  290MOL0     H39964   3.885   6.956   0.489 -0.5079 -0.2000  1.3683
  290MOL0     H39965   3.633   6.949   0.297  0.8395 -0.3515 -0.5572
  290MOL0     H39966   3.715   6.813   0.375  2.6913  0.0012  0.7630
  290MOL0     H39967   3.774   6.839   0.137  2.6202  1.2605 -1.3606
  290MOL0     H39968   3.843   6.999   0.169 -3.5267  1.8684  2.1190
  290MOL0     H39969   3.840   6.618   0.237 -0.6701  0.5226 -1.3829
  290MOL0     H39970   3.995   6.473   0.363 -0.8010  1.4291 -1.6191
  290MOL0     H39971   4.165   6.506   0.396 -1.0748 -3.0274  2.0162
  290MOL0     H39972   4.066   6.362   0.174  0.7375 -0.3246  0.3443
  290MOL0     H39973   4.125   6.502   0.104 -2.1003 -0.1045  0.1628
  290MOL0     H39974   4.342   6.464   0.268  1.2994 -1.1038  0.8760
  290MOL0     H39975   4.300   6.305   0.280  2.3247  1.2164  2.4206
  290MOL0     H39976   4.440   6.294   0.101 -1.3215 -1.0704  3.0330
  290MOL0     H39977   4.280   6.275   0.035  2.5842 -3.5355 -0.3512
  290MOL0     H39978   4.347   6.681   0.113 -0.7996  1.4366 -2.9552
  290MOL0     H39979   4.521   6.975   0.124  1.0089 -1.0295 -0.7840
  290MOL0     H39980   4.495   6.899   0.286  2.3850  0.1116 -0.1084
  290MOL0     H39981   4.370   6.911   0.151  1.0025  1.5252 -0.6121
  290MOL0     H39982   5.066   6.899   0.283 -0.5212  0.0050  1.2488
  290MOL0     H39983   5.189   7.054   0.320 -3.2398  0.7603  2.1857
  290MOL0     H39984   5.349   7.199   0.310 -1.0320  0.6314 -0.5239
  290MOL0     H39985   5.416   7.325   0.215  1.0444 -0.8519  0.6266
  290MOL0     H39986   5.223   7.372   0.443  2.3466 -3.4853  2.5163
  290MOL0     H39987   5.390   7.393   0.439 -1.3119  3.1199  1.1730
  290MOL0     H39988   5.178   7.537   0.265  1.6257  2.3301 -4.5735
  290MOL0     H39989   5.348   7.546   0.215  0.5229  0.0078 -0.0337
  290MOL0     H39990   5.390   7.717   0.390 -0.6017 -0.1836  0.3610
  290MOL0     H39991   5.277   7.640   0.497  2.1175 -1.1153 -0.5405
  290MOL0     H39992   5.095   7.727   0.388  1.6982 -3.0153  1.2845
  290MOL0     H39993   5.201   7.856   0.425 -3.4114  0.6268 -0.9103
  290MOL0     H39994   5.147   7.760   0.145 -0.2222  1.1915 -1.1650
  290MOL0     H39995   5.307   7.830   0.199  0.7191 -1.8252  0.6558
  290MOL0     H39996   5.181   8.026   0.277 -1.4230  0.1965 -0.1227
  290MOL0     H39997   5.034   7.943   0.231 -1.4154 -2.6182 -1.6811
  290MOL0     H39998   5.116   7.968  -0.011  1.7599 -2.2215  0.2204
  290MOL0     H39999   5.274   8.027   0.043 -0.6173 -3.2578 -2.4471
  290MOL0     H40000   5.054   7.284  -0.022  0.1368  0.2541  1.2440
  290MOL0     H40001   4.935   7.070  -0.104 -2.7933  0.0013  2.0252
  290MOL0     H40002   4.812   6.608  -0.015 -0.5711  0.0701  1.6105
  290MOL0     H40003   4.638   6.446  -0.092  2.5499 -0.5796  1.2240
  290MOL0     H40004   3.850   6.837   1.090  1.8977  4.7602  2.7034
  290MOL0     H40005   3.942   6.838   1.318 -1.0904  1.3477  3.8321
  290MOL0     H40006   4.044   7.004   1.746 -1.5969 -0.2598 -0.4624
  290MOL0     H40007   4.205   6.923   1.922 -1.4044  0.4218  0.9500
  290MOL0     H40008   4.438   6.785   1.854 -1.5882 -1.0833 -1.5783
  290MOL0     H40009   4.464   6.770   2.034 -1.1205 -1.6182  0.9391
  290MOL0     H40010   4.485   6.533   1.846  2.1816 -0.9213  0.1633
  290MOL0     H40011   4.535   6.542   2.024  1.7369  1.6886 -0.1212
  290MOL0     H40012   4.672   6.672   1.806 -0.7838 -1.8907 -1.0968
  290MOL0     H40013   4.719   6.685   1.971  1.3423  0.0983 -0.6050
  290MOL0     H40014   4.745   6.446   1.785  1.7436 -2.9194  0.4044
  290MOL0     H40015   4.721   6.405   1.950  1.1152 -1.5033 -0.6500
  290MOL0     H40016   5.123   6.583   1.919  0.3172 -0.7635 -0.2639
  290MOL0     H40017   4.154   6.527   1.777 -1.5762 -0.5035  3.4679
  290MOL0     H40018   3.903   6.515   1.600  2.0090 -1.3728  1.3608
  290MOL0     H40019   3.989   6.617   1.470  1.8760  0.0956  0.0810
  290MOL0     H40020   4.067   6.491   1.559 -0.7559 -0.4295 -2.2618
  291MOL0     O40021   9.792   1.816  10.487 -0.3348  0.1409  0.3870
  291MOL0     C40022   9.887   1.786  10.554 -0.3074 -0.2203 -0.0542
  291MOL0     O40023  10.010   1.729  10.510 -0.0224 -0.1184 -0.2443
  291MOL0     C40024  10.037   1.722  10.375 -0.2991 -0.0491  0.5654
  291MOL0     C40025   9.948   1.662  10.289 -0.7857  0.3916  0.0047
  291MOL0     C40026   9.983   1.619  10.161  0.9953 -0.1238  0.2004
  291MOL0     C40027  10.117   1.636  10.123 -0.2971  0.7332  1.0891
  291MOL0     O40028  10.176   1.595  10.005 -0.0110 -0.0302 -0.3065
  291MOL0     C40029  10.106   1.514   9.902 -0.2417  0.2863 -0.1112
  291MOL0     C40030  10.117   1.364   9.922 -0.8096 -0.5079 -0.4140
  291MOL0     C40031  10.261   1.309   9.928  0.0078  0.4026 -0.2654
  291MOL0     C40032  10.329   1.318   9.796  0.6697 -0.1502  0.1035
  291MOL0     C40033  10.411   1.201   9.773  0.4362  0.4985  0.8980
  291MOL0     C40034  10.503   1.235   9.651  0.2870 -0.3784  0.0296
  291MOL0     C40035  10.607   1.125   9.610  0.4221  0.9166 -0.1730
  291MOL0     C40036  10.533   1.000   9.541 -0.5127 -0.5812 -0.3704
  291MOL0     N40037  10.473   1.035   9.409 -0.0995  0.3529 -0.1380
  291MOL0     C40038  10.341   1.075   9.383  0.6864 -1.5942  0.3189
  291MOL0     C40039  10.326   1.066   9.244 -0.0480 -0.0125  0.4440
  291MOL0     C40040  10.209   1.104   9.166  0.5211 -1.1140  0.2198
  291MOL0     C40041  10.232   1.083   9.007 -0.0137  1.0447 -0.2442
  291MOL0     C40042  10.120   1.116   8.922  0.1110 -0.0908  0.7729
  291MOL0     C40043   9.995   1.041   8.940  0.0367  0.1154 -0.9760
  291MOL0     O40044   9.899   1.128   8.999  0.1780  0.8679  0.1028
  291MOL0     C40045   9.769   1.076   9.013  0.3057 -0.6420 -0.0363
  291MOL0     C40046   9.674   1.164   9.061 -0.1740  0.2667  0.0764
  291MOL0     C40047   9.541   1.128   9.075  0.6211 -0.3829 -0.1439
  291MOL0     C40048   9.455   1.253   9.105 -0.4680 -0.2184  1.2575
  291MOL0     C40049   9.499   0.994   9.070 -0.3191 -0.0848  0.5870
  291MOL0     C40050   9.361   0.956   9.117  0.7089 -0.2508  0.9322
  291MOL0     O40051   9.311   0.829   9.102  0.2980  0.6762 -1.0453
  291MOL0     C40052   9.190   0.789   9.143  0.2157 -0.4254  0.3115
  291MOL0     C40053   9.124   0.839   9.253 -0.3781  1.0499  0.7753
  291MOL0     C40054   9.009   0.771   9.301 -0.3316 -0.5874 -1.1305
  291MOL0     C40055   8.946   0.668   9.224 -0.2601 -0.2666 -0.3363
  291MOL0     O40056   8.852   0.576   9.271  0.0404  0.0686  0.0419
  291MOL0     C40057   8.810   0.542   9.407  0.0346 -0.3114 -0.7960
  291MOL0     C40058   8.906   0.440   9.470  0.2659 -1.0842 -0.6565
  291MOL0     C40059   8.901   0.301   9.404  0.2560 -0.9077  0.1213
  291MOL0     C40060   8.988   0.201   9.476 -0.2279  0.1324  0.4421
  291MOL0     C40061   8.924   0.064   9.473 -0.2251  0.1240 -0.0213
  291MOL0     C40062   8.784   0.042   9.534  0.8372 -0.2149 -0.5584
  291MOL0     C40063   8.753  -0.103   9.535 -0.2890 -0.4445  0.2963
  291MOL0     C40064   8.610  -0.131   9.573  0.0712 -0.4186  0.1526
  291MOL0    Cl40065   8.496  -0.048   9.446  0.1938 -0.3597  0.4632
  291MOL0     C40066   9.002   0.637   9.100  0.3221 -0.5314  0.2694
  291MOL0     C40067   9.127   0.690   9.064 -0.6249 -0.1026  0.5863
  291MOL0     O40068   9.300   1.042   9.179 -0.0892 -0.3931 -0.2145
  291MOL0     C40069   9.597   0.901   9.022  1.1447 -0.0866  1.2288
  291MOL0     C40070   9.721   0.946   8.991 -0.0812  0.2244  1.6822
  291MOL0     N40071  10.453   1.041   9.199  0.3464  0.3809 -0.2813
  291MOL0     N40072  10.540   1.020   9.291  0.0947  0.3426 -0.0895
  291MOL0     C40073  10.206   1.703  10.206 -0.1589 -0.3976  0.0797
  291MOL0     C40074  10.166   1.737  10.334 -0.2931 -0.1422  0.8313
  291MOL0     C40075   9.888   1.822  10.699  0.5436 -0.0692  0.1107
  291MOL0     C40076  10.003   1.801  10.783 -0.0929  0.2747  0.5826
  291MOL0     C40077  10.003   1.839  10.914  0.0073  0.5562  0.6847
  291MOL0     C40078   9.894   1.897  10.976 -0.7142  0.5966 -0.4295
  291MOL0     O40079   9.908   1.928  11.112  0.2610 -0.4194  0.3569
  291MOL0     C40080   9.803   1.988  11.184 -0.7204 -0.6252 -0.7624
  291MOL0     C40081   9.692   1.892  11.233 -0.2823  0.2911  0.5468
  291MOL0     C40082   9.577   1.971  11.291  0.1017 -0.0787 -0.3694
  291MOL0     C40083   9.450   1.876  11.293  0.0400  1.1214 -0.2557
  291MOL0     C40084   9.403   1.810  11.169  0.3953 -0.3255  0.5745
  291MOL0     C40085   9.365   1.765  11.069  0.6769  0.2999 -0.6168
  291MOL0     C40086   9.786   1.922  10.901 -0.6921  0.5107 -0.3517
  291MOL0     C40087   9.774   1.873  10.774 -0.0236  2.0726 -0.4924
  291MOL0     C40088   9.637   1.875  10.709 -0.5537  0.4794 -0.0031
  291MOL0     H40089   9.850   1.630  10.323 -0.6634 -0.6743 -0.6065
  291MOL0     H40090   9.904   1.572  10.104  1.2034 -0.7406  0.4101
  291MOL0     H40091  10.163   1.529   9.810  1.9483 -0.8999  0.9949
  291MOL0     H40092  10.001   1.545   9.892 -0.9508 -1.8661  0.2110
  291MOL0     H40093  10.072   1.335  10.017 -2.4774 -2.4949 -1.7246
  291MOL0     H40094  10.057   1.325   9.839  0.6605  0.2709 -1.9062
  291MOL0     H40095  10.317   1.361  10.006  1.1380 -0.3547 -0.5418
  291MOL0     H40096  10.248   1.203   9.954 -0.0481 -0.1926 -2.4689
  291MOL0     H40097  10.250   1.328   9.721 -0.2575  1.6847  1.2376
  291MOL0     H40098  10.407   1.395   9.795  2.5188 -1.9642 -0.7907
  291MOL0     H40099  10.338   1.122   9.755 -0.1183  1.4033 -1.0980
  291MOL0     H40100  10.471   1.165   9.857 -1.9539 -0.0721  2.4632
  291MOL0     H40101  10.442   1.254   9.562 -2.3274  2.0435  2.1540
  291MOL0     H40102  10.551   1.332   9.660  0.2730 -0.4585  1.0246
  291MOL0     H40103  10.643   1.086   9.706 -2.8507  1.0772  1.2439
  291MOL0     H40104  10.688   1.166   9.550  1.8826 -0.1545  0.9689
  291MOL0     H40105  10.622   0.937   9.534  1.7107  2.3698 -0.4556
  291MOL0     H40106  10.461   0.945   9.602  1.5618 -4.7041 -1.2383
  291MOL0     H40107  10.270   1.096   9.463  0.6155 -0.9761  0.1006
  291MOL0     H40108  10.184   1.208   9.188  2.1159 -0.3991 -1.1417
  291MOL0     H40109  10.120   1.044   9.187 -1.8614  2.3426  0.9551
  291MOL0     H40110  10.326   1.136   8.994  2.5308 -2.8841  0.2672
  291MOL0     H40111  10.270   0.981   8.995 -1.0525  0.8579 -2.3825
  291MOL0     H40112  10.105   1.224   8.914 -0.0487 -0.2572 -2.4674
  291MOL0     H40113  10.161   1.101   8.822  1.8773  1.2820  1.2381
  291MOL0     H40114   9.951   0.997   8.850 -1.8804 -3.0018  1.2428
  291MOL0     H40115  10.010   0.964   9.017  0.8066 -1.0814 -2.2671
  291MOL0     H40116   9.699   1.267   9.084 -1.8212  0.6492  0.2925
  291MOL0     H40117   9.470   1.286   9.208 -1.4912  2.4415  0.6500
  291MOL0     H40118   9.346   1.251   9.093 -0.3659  0.8073 -0.0505
  291MOL0     H40119   9.498   1.342   9.058 -1.0370 -0.3949  0.3880
  291MOL0     H40120   9.183   0.901   9.319  2.4450 -1.8269  1.2003
  291MOL0     H40121   8.974   0.788   9.403  0.0365  0.1672 -1.1262
  291MOL0     H40122   8.795   0.628   9.473  0.0562 -2.9103  2.8230
  291MOL0     H40123   8.710   0.497   9.404 -1.0224  1.9216 -2.0037
  291MOL0     H40124   9.011   0.468   9.473  0.4943 -0.9333 -4.6255
  291MOL0     H40125   8.872   0.428   9.573  2.5925  1.2428  0.4782
  291MOL0     H40126   8.928   0.305   9.298 -2.4354  0.8493 -0.6053
  291MOL0     H40127   8.800   0.262   9.394 -0.0217  0.0577 -1.0427
  291MOL0     H40128   9.010   0.225   9.580  1.8690 -0.6791  0.2331
  291MOL0     H40129   9.083   0.194   9.423 -2.0091 -1.0257 -2.9369
  291MOL0     H40130   8.924   0.020   9.373 -0.2728  0.3162 -0.1071
  291MOL0     H40131   8.983   0.003   9.541 -4.4419 -1.5229  2.5621
  291MOL0     H40132   8.714   0.099   9.473  1.3211  2.7626  1.4360
  291MOL0     H40133   8.788   0.091   9.632  0.5665  0.2540 -0.7821
  291MOL0     H40134   8.835  -0.146   9.592  1.0648  1.9693  0.3338
  291MOL0     H40135   8.757  -0.138   9.432  1.5090 -0.7942  0.4464
  291MOL0     H40136   8.589  -0.100   9.676  3.4016  2.5282  0.1411
  291MOL0     H40137   8.592  -0.239   9.573 -0.7565 -0.3166  1.8812
  291MOL0     H40138   8.959   0.564   9.032 -2.2337  1.1706 -0.0896
  291MOL0     H40139   9.177   0.657   8.973 -3.3105  4.0153 -2.7187
  291MOL0     H40140   9.573   0.795   9.012  1.9687 -0.1867  0.1032
  291MOL0     H40141   9.787   0.869   8.951  1.0502  1.0765  1.8538
  291MOL0     H40142  10.309   1.728  10.184 -0.4283  0.7552  0.0580
  291MOL0     H40143  10.229   1.767  10.417  2.0474 -1.2802 -0.4311
  291MOL0     H40144  10.091   1.744  10.754 -1.7594 -2.3761  0.4148
  291MOL0     H40145  10.100   1.838  10.962  1.3813  2.7414 -1.8040
  291MOL0     H40146   9.844   2.039  11.272 -1.1919 -3.2401  1.0861
  291MOL0     H40147   9.760   2.071  11.127 -1.9936 -1.4793 -1.1090
  291MOL0     H40148   9.735   1.813  11.294 -1.8705 -0.2781  0.9647
  291MOL0     H40149   9.665   1.828  11.148  0.8276  0.2850  0.1811
  291MOL0     H40150   9.595   2.019  11.387  0.9635  1.1889 -1.1282
  291MOL0     H40151   9.565   2.056  11.222  2.1937 -0.6315 -1.4989
  291MOL0     H40152   9.369   1.936  11.336 -0.2665  0.7226 -0.2754
  291MOL0     H40153   9.466   1.801  11.371 -1.4554  0.7186 -0.3039
  291MOL0     H40154   9.310   1.735  10.983 -1.2277  0.1152  0.6129
  291MOL0     H40155   9.697   1.967  10.945 -0.0166  0.1013  1.4945
  291MOL0     H40156   9.624   1.949  10.629 -1.0959  0.5531  0.1532
  291MOL0     H40157   9.616   1.780  10.659 -2.1299  0.8235 -0.0469
  291MOL0     H40158   9.565   1.882  10.790  1.1676 -2.4548  1.9511
  292MOL0     O40159   3.364   5.603   0.425 -1.3088  0.7406 -0.0692
  292MOL0     C40160   3.434   5.599   0.524 -0.3065  0.1439 -0.0620
  292MOL0     O40161   3.394   5.641   0.652  0.6455  0.9838 -0.1010
  292MOL0     C40162   3.269   5.681   0.678  0.0601 -0.1896 -0.6066
  292MOL0     C40163   3.176   5.618   0.759 -0.3577  0.0509  0.9390
  292MOL0     C40164   3.051   5.670   0.783 -0.3148  0.2985  0.2567
  292MOL0     C40165   3.018   5.796   0.722 -0.2930  0.3401  0.8376
  292MOL0     O40166   2.890   5.849   0.738 -0.0239  0.3382 -0.0862
  292MOL0     C40167   2.878   5.986   0.758  0.1217 -0.4100  0.1171
  292MOL0     C40168   2.732   6.008   0.774  0.3495 -0.8216 -0.2081
  292MOL0     C40169   2.669   6.021   0.640  0.7124 -0.4066 -0.4177
  292MOL0     C40170   2.515   6.021   0.663 -0.8127 -0.5280  0.7747
  292MOL0     C40171   2.445   6.033   0.531  0.7080 -0.3136 -0.1530
  292MOL0     C40172   2.293   6.028   0.535  0.3028  0.1223 -0.0837
  292MOL0     C40173   2.224   6.060   0.398 -0.3724 -0.1022  0.0322
  292MOL0     C40174   2.298   6.036   0.263 -0.5214  0.1166 -0.6879
  292MOL0     N40175   2.211   6.089   0.156  0.1477 -0.2841  0.3057
  292MOL0     C40176   2.223   6.211   0.108 -0.5831 -0.3667  0.1877
  292MOL0     C40177   2.159   6.201  -0.011  0.2086 -1.0191  0.2076
  292MOL0     C40178   2.123   6.311  -0.110  0.2347 -1.1265  0.3241
  292MOL0     C40179   2.240   6.398  -0.171 -0.5141 -0.0427  0.6563
  292MOL0     C40180   2.320   6.307  -0.268 -0.0299  0.2079 -0.2258
  292MOL0     C40181   2.267   6.288  -0.402  0.5611 -0.2289  0.5065
  292MOL0     O40182   2.236   6.405  -0.473  0.3472  0.1655 -1.0465
  292MOL0     C40183   2.177   6.379  -0.590 -0.1416 -0.1330  0.5511
  292MOL0     C40184   2.262   6.356  -0.703 -0.4962  0.0058  0.5518
  292MOL0     C40185   2.202   6.335  -0.829 -0.3183 -0.0855  0.1965
  292MOL0     C40186   2.296   6.303  -0.940 -0.2142 -0.2311  0.0818
  292MOL0     C40187   2.065   6.347  -0.847  0.1316  0.0193 -0.5298
  292MOL0     C40188   2.001   6.339  -0.982 -0.3731 -0.0197 -0.2979
  292MOL0     O40189   1.866   6.322  -0.982 -0.2713 -0.0719 -0.4930
  292MOL0     C40190   1.795   6.326  -1.101 -0.0849  0.8606 -0.7059
  292MOL0     C40191   1.822   6.421  -1.202  0.1237 -0.9151 -0.1766
  292MOL0     C40192   1.748   6.420  -1.320  0.0748  1.4306  0.2307
  292MOL0     C40193   1.644   6.325  -1.334  0.0341  0.3822  0.3050
  292MOL0     O40194   1.568   6.308  -1.448 -0.0271 -0.5825  0.5175
  292MOL0     C40195   1.636   6.354  -1.574 -0.5783 -0.1035 -0.6127
  292MOL0     C40196   1.578   6.295  -1.705  0.7879 -0.2994  0.5896
  292MOL0     C40197   1.458   6.360  -1.751  0.5578 -0.4548  0.3509
  292MOL0     C40198   1.405   6.332  -1.887  0.5930  0.7275 -0.3514
  292MOL0     C40199   1.369   6.184  -1.914  0.8792  0.2900 -0.6048
  292MOL0     C40200   1.368   6.150  -2.063 -0.0236 -0.2502  0.1270
  292MOL0     C40201   1.347   5.998  -2.084 -0.6133 -0.8397 -0.0459
  292MOL0     C40202   1.306   5.957  -2.229  0.2472 -0.4290 -0.1731
  292MOL0    Cl40203   1.414   6.010  -2.367  0.1790 -0.8476  0.1622
  292MOL0     C40204   1.620   6.227  -1.235 -0.4531 -0.7170 -0.1336
  292MOL0     C40205   1.690   6.225  -1.116  0.2327  0.0385  0.3563
  292MOL0     O40206   2.061   6.392  -1.069 -0.5558  0.4972  0.2553
  292MOL0     C40207   1.978   6.357  -0.732  0.2959  0.2493  0.0912
  292MOL0     C40208   2.039   6.372  -0.607  0.0275 -0.3194  0.1776
  292MOL0     N40209   2.091   6.087  -0.021 -0.3889  1.2201 -0.4234
  292MOL0     N40210   2.132   6.010   0.077  0.1214 -1.0919  0.5979
  292MOL0     C40211   3.104   5.854   0.621 -0.5008  0.3892 -0.5643
  292MOL0     C40212   3.228   5.788   0.609  0.7962 -0.3343  0.6119
  292MOL0     C40213   3.576   5.605   0.498 -0.1203 -0.4540 -0.6089
  292MOL0     C40214   3.663   5.605   0.616  1.2057 -0.1669  0.4767
  292MOL0     C40215   3.797   5.633   0.603  0.0487 -0.3345 -0.2519
  292MOL0     C40216   3.865   5.634   0.482 -0.8498 -0.5922  0.2117
  292MOL0     O40217   3.997   5.644   0.496 -0.2530 -0.3105 -0.2556
  292MOL0     C40218   4.074   5.622   0.381 -0.0492 -0.2102 -0.6840
  292MOL0     C40219   4.060   5.484   0.322  0.5239  2.1348 -0.3424
  292MOL0     C40220   4.150   5.476   0.200  0.7684 -0.3393  0.3066
  292MOL0     C40221   4.194   5.336   0.150 -0.4623  0.8409  0.7510
  292MOL0     C40222   4.090   5.273   0.066  0.3148  0.6225 -0.5295
  292MOL0     C40223   3.991   5.235   0.014 -0.5141  0.2978  1.1732
  292MOL0     C40224   3.785   5.618   0.367  1.0520  0.1893 -0.1935
  292MOL0     C40225   3.647   5.587   0.373 -0.1279 -0.5079 -0.4894
  292MOL0     C40226   3.578   5.560   0.243 -0.1133  0.5444 -0.8099
  292MOL0     H40227   3.201   5.523   0.806 -0.0362  1.5547  4.1068
  292MOL0     H40228   2.977   5.619   0.843  1.3352  1.8346  3.8628
  292MOL0     H40229   2.910   6.042   0.670  1.8514 -1.2939  0.1601
  292MOL0     H40230   2.940   6.012   0.844  2.3281 -1.6145 -1.0282
  292MOL0     H40231   2.678   5.924   0.820 -2.8413  0.2598 -1.7313
  292MOL0     H40232   2.715   6.094   0.840 -0.1714 -1.4730  0.5260
  292MOL0     H40233   2.685   6.119   0.593 -0.2633  1.0718  2.0988
  292MOL0     H40234   2.697   5.926   0.594 -0.4045 -0.6934 -0.5366
  292MOL0     H40235   2.485   5.929   0.714 -0.1777 -0.4530  1.2989
  292MOL0     H40236   2.486   6.103   0.729 -2.2130 -1.6948  1.6607
  292MOL0     H40237   2.484   5.963   0.456  2.6535  1.9895 -1.4577
  292MOL0     H40238   2.466   6.133   0.490 -0.8379 -0.0859 -0.4638
  292MOL0     H40239   2.271   5.930   0.578  0.7590 -0.2395 -0.6776
  292MOL0     H40240   2.255   6.105   0.603 -1.9165 -1.4889  0.6061
  292MOL0     H40241   2.202   6.168   0.403  0.8040  0.3129 -2.4221
  292MOL0     H40242   2.136   5.999   0.377  0.5828 -2.5952  2.5565
  292MOL0     H40243   2.398   6.078   0.273 -1.4991  2.0762  3.9973
  292MOL0     H40244   2.297   5.928   0.247  2.0683 -0.2367  1.0044
  292MOL0     H40245   2.271   6.295   0.156 -0.8550  0.4721 -0.9518
  292MOL0     H40246   2.063   6.390  -0.064  0.2961 -0.8421 -0.0749
  292MOL0     H40247   2.062   6.269  -0.191 -1.2521  0.2963  0.6528
  292MOL0     H40248   2.199   6.491  -0.210 -2.5318  0.1319  2.9361
  292MOL0     H40249   2.315   6.422  -0.096  3.4815 -1.7229 -2.4363
  292MOL0     H40250   2.416   6.358  -0.265 -0.4032  1.0005 -1.3263
  292MOL0     H40251   2.335   6.207  -0.224  0.7435  0.8344  0.9794
  292MOL0     H40252   2.340   6.239  -0.467  1.1959  2.4623 -0.9394
  292MOL0     H40253   2.175   6.230  -0.406 -0.8496  1.9790 -1.4935
  292MOL0     H40254   2.370   6.355  -0.701 -0.2616 -1.3633 -3.6098
  292MOL0     H40255   2.389   6.254  -0.910  0.7841  1.2578 -0.4977
  292MOL0     H40256   2.330   6.394  -0.990  1.2038 -1.4825 -1.3685
  292MOL0     H40257   2.250   6.247  -1.022 -0.2853  2.2709 -1.7203
  292MOL0     H40258   1.899   6.497  -1.198  0.2102 -1.0010 -0.2008
  292MOL0     H40259   1.765   6.490  -1.400 -1.5962  0.7853 -0.7577
  292MOL0     H40260   1.636   6.463  -1.567 -0.9347 -0.1577  0.2966
  292MOL0     H40261   1.737   6.313  -1.573 -1.5534 -2.6956 -0.7370
  292MOL0     H40262   1.656   6.312  -1.780  0.8318  0.1461  0.7312
  292MOL0     H40263   1.546   6.191  -1.695 -2.4829  0.1100 -2.9544
  292MOL0     H40264   1.473   6.468  -1.739 -2.6382 -0.1326  2.7403
  292MOL0     H40265   1.376   6.341  -1.681  0.6417  1.4496  1.0447
  292MOL0     H40266   1.484   6.353  -1.960  0.6378 -2.2001 -1.2896
  292MOL0     H40267   1.326   6.405  -1.906  1.4197  1.0432 -3.0165
  292MOL0     H40268   1.444   6.120  -1.867 -1.5290 -1.5678  0.9957
  292MOL0     H40269   1.269   6.164  -1.872  0.1723  3.1274 -0.7374
  292MOL0     H40270   1.472   6.172  -2.089  0.2852 -2.1803 -0.4634
  292MOL0     H40271   1.304   6.215  -2.124  1.6557  0.7952 -0.5948
  292MOL0     H40272   1.270   5.969  -2.012 -1.1999  1.0763  0.1582
  292MOL0     H40273   1.443   5.950  -2.063  0.6926  1.3528 -0.6646
  292MOL0     H40274   1.202   5.989  -2.242  0.2246 -0.6999 -0.6833
  292MOL0     H40275   1.308   5.848  -2.231 -1.6935 -0.5124 -3.1084
  292MOL0     H40276   1.534   6.165  -1.260 -1.8097  0.4234  1.4909
  292MOL0     H40277   1.670   6.150  -1.040 -1.4207 -0.3190 -0.3915
  292MOL0     H40278   1.871   6.358  -0.748 -0.3466 -1.0476  3.3735
  292MOL0     H40279   1.989   6.401  -0.515  0.1535 -0.2734  0.2301
  292MOL0     H40280   3.069   5.938   0.561  1.2505  1.8577  0.3485
  292MOL0     H40281   3.287   5.826   0.527  0.2033 -1.2329 -0.2451
  292MOL0     H40282   3.611   5.599   0.711  1.5687 -3.5881  0.5563
  292MOL0     H40283   3.844   5.647   0.700 -0.2023  0.9043 -0.2916
  292MOL0     H40284   4.045   5.697   0.307 -1.4152  4.3931  3.9062
  292MOL0     H40285   4.178   5.636   0.412  0.7661 -3.2281 -1.7095
  292MOL0     H40286   3.962   5.441   0.304  1.5501 -1.2644  1.3258
  292MOL0     H40287   4.104   5.414   0.394  0.8943  0.8721 -1.7564
  292MOL0     H40288   4.108   5.536   0.119  1.0435  2.7246  2.2786
  292MOL0     H40289   4.246   5.523   0.222  1.3333 -1.6405  0.6964
  292MOL0     H40290   4.230   5.265   0.225  1.3343 -2.3055 -2.7209
  292MOL0     H40291   4.278   5.353   0.082  0.9282  2.4227  2.7582
  292MOL0     H40292   3.906   5.196  -0.037  1.0724 -1.1655 -0.5094
  292MOL0     H40293   3.840   5.626   0.274  0.4199 -0.3036 -0.6182
  292MOL0     H40294   3.551   5.655   0.196  0.3522  0.4159 -1.3489
  292MOL0     H40295   3.645   5.500   0.181  0.9599  2.7592 -1.9011
  292MOL0     H40296   3.493   5.492   0.256 -0.5437  1.2276 -0.0115
  293MOL0     O40297   8.604   4.877   5.195 -0.5301 -0.0371  0.1011
  293MOL0     C40298   8.506   4.958   5.200 -0.4635 -0.9475 -0.0119
  293MOL0     O40299   8.393   4.943   5.278 -0.0847  0.4724  0.2815
  293MOL0     C40300   8.384   4.838   5.352  0.3962  0.3276  0.2781
  293MOL0     C40301   8.333   4.729   5.289 -0.7583  0.1532  0.8581
  293MOL0     C40302   8.328   4.607   5.358 -0.3799 -0.6142 -0.0106
  293MOL0     C40303   8.377   4.597   5.484  0.0724  0.1917  0.1643
  293MOL0     O40304   8.400   4.478   5.556 -0.2687  0.3686  0.0318
  293MOL0     C40305   8.282   4.400   5.556  0.2987  0.5365 -0.2893
  293MOL0     C40306   8.327   4.260   5.593  0.0863  0.5804 -0.7903
  293MOL0     C40307   8.362   4.261   5.740  1.1642  0.0592  1.2724
  293MOL0     C40308   8.382   4.124   5.790 -0.3220 -0.5648 -0.6657
  293MOL0     C40309   8.417   4.121   5.947  0.2456 -0.0016 -0.9967
  293MOL0     C40310   8.291   4.145   6.035 -0.0753  0.1700  0.2580
  293MOL0     C40311   8.175   4.051   6.018 -0.0610  0.2970 -0.1862
  293MOL0     C40312   8.066   4.091   6.108  0.1795 -0.6264  0.0596
  293MOL0     N40313   7.953   3.997   6.114  1.2409 -0.7060  0.0618
  293MOL0     C40314   7.879   3.983   6.223  0.0079  0.0863 -0.5159
  293MOL0     C40315   7.768   3.925   6.186  0.0549  0.1975  0.7303
  293MOL0     C40316   7.648   3.873   6.256 -0.7269  0.2378 -0.6741
  293MOL0     C40317   7.531   3.979   6.267 -0.5635  0.3126 -0.3589
  293MOL0     C40318   7.387   3.921   6.281 -1.2463  0.4098  1.2074
  293MOL0     C40319   7.285   4.038   6.257  0.2670  0.3243 -0.4248
  293MOL0     O40320   7.317   4.163   6.321 -0.2088 -0.9012 -0.4048
  293MOL0     C40321   7.291   4.268   6.240  0.3747 -0.0938  0.0599
  293MOL0     C40322   7.182   4.340   6.274 -0.2529 -0.6149  0.4640
  293MOL0     C40323   7.132   4.444   6.189  0.2336  0.1399 -1.2726
  293MOL0     C40324   7.004   4.520   6.236 -1.1564  0.4059  0.1512
  293MOL0     C40325   7.198   4.459   6.064  0.3490 -0.9185 -0.4495
  293MOL0     C40326   7.142   4.549   5.949 -0.1988  0.1398  0.4169
  293MOL0     O40327   7.214   4.555   5.838 -0.8498 -1.0001  0.0577
  293MOL0     C40328   7.174   4.629   5.732 -0.0268 -1.7370  0.2918
  293MOL0     C40329   7.066   4.589   5.653 -0.1605 -0.1013  0.4592
  293MOL0     C40330   7.024   4.663   5.537 -0.7861  0.6325  1.2241
  293MOL0     C40331   7.085   4.787   5.503 -1.0356 -0.2097  0.9428
  293MOL0     O40332   7.046   4.861   5.392 -0.1061  0.5203 -0.3307
  293MOL0     C40333   6.906   4.861   5.380 -0.3341  0.0037 -0.2741
  293MOL0     C40334   6.888   4.992   5.309 -0.5746 -0.2453 -1.0283
  293MOL0     C40335   6.877   4.967   5.160  0.5406 -0.1377 -0.1255
  293MOL0     C40336   7.000   4.905   5.085  0.8266  0.5370 -0.3429
  293MOL0     C40337   7.134   4.981   5.075  0.8832 -0.3973  0.6049
  293MOL0     C40338   7.123   5.128   5.038  1.1768  0.0932  0.4336
  293MOL0     C40339   7.260   5.166   4.977  0.6831 -0.3389 -0.5487
  293MOL0     C40340   7.366   5.197   5.078 -1.2322  0.4745 -0.0319
  293MOL0    Cl40341   7.326   5.367   5.128 -0.0750 -0.1534 -0.3894
  293MOL0     C40342   7.195   4.827   5.584 -0.3123 -0.5999 -0.2518
  293MOL0     C40343   7.242   4.746   5.696 -0.0534 -0.2076  0.4982
  293MOL0     O40344   7.031   4.606   5.974 -0.1930  0.3405  0.3844
  293MOL0     C40345   7.317   4.391   6.039 -0.4893  0.2035  0.1318
  293MOL0     C40346   7.354   4.295   6.125  1.2076  0.7473  0.3338
  293MOL0     N40347   7.765   3.921   6.048 -0.1098 -0.0056 -0.9034
  293MOL0     N40348   7.876   3.962   6.006 -0.3818 -0.9607  0.7094
  293MOL0     C40349   8.409   4.713   5.548 -1.0472  0.5363 -0.4931
  293MOL0     C40350   8.423   4.834   5.485  0.6534  0.6515 -0.2238
  293MOL0     C40351   8.510   5.072   5.103 -0.2362 -0.4761  0.2884
  293MOL0     C40352   8.626   5.091   5.012  0.1992  0.5742  0.0223
  293MOL0     C40353   8.620   5.189   4.915 -0.7295 -0.8605 -0.9920
  293MOL0     C40354   8.505   5.270   4.898 -0.0733 -0.1516 -1.3312
  293MOL0     O40355   8.517   5.380   4.816  0.5492 -0.1513 -0.4265
  293MOL0     C40356   8.483   5.515   4.861  0.5298  0.3945 -0.4389
  293MOL0     C40357   8.331   5.558   4.842  0.0315  0.5358  0.1479
  293MOL0     C40358   8.307   5.684   4.930 -0.3321  0.7780 -0.9939
  293MOL0     C40359   8.168   5.746   4.900 -0.3112 -0.5626  0.4854
  293MOL0     C40360   8.152   5.883   4.949  0.5086 -0.1293  0.4178
  293MOL0     C40361   8.140   5.990   5.004  0.2187 -0.0056  0.3689
  293MOL0     C40362   8.400   5.253   4.982  0.5703 -0.8565  0.1524
  293MOL0     C40363   8.400   5.163   5.087 -0.5177  0.9229  0.5001
  293MOL0     C40364   8.287   5.173   5.185 -0.7489 -0.4671  0.1696
  293MOL0     H40365   8.294   4.730   5.188  1.5064 -1.7748 -0.1402
  293MOL0     H40366   8.278   4.526   5.306 -3.6860  0.7630  0.7439
  293MOL0     H40367   8.234   4.394   5.458  2.9845  0.8419 -1.7206
  293MOL0     H40368   8.209   4.438   5.628 -0.8850 -0.3661 -0.9848
  293MOL0     H40369   8.237   4.199   5.577 -1.3583  1.9289  1.6462
  293MOL0     H40370   8.410   4.216   5.536 -0.8313 -0.0372 -1.6890
  293MOL0     H40371   8.457   4.312   5.759  1.6116  0.5041 -1.6596
  293MOL0     H40372   8.298   4.327   5.798 -0.5913 -0.2754 -0.2136
  293MOL0     H40373   8.308   4.048   5.762  2.5429 -2.5958 -3.3917
  293MOL0     H40374   8.478   4.095   5.746  0.5192  0.0403  0.7152
  293MOL0     H40375   8.495   4.197   5.956  1.5723 -1.5460  1.5608
  293MOL0     H40376   8.449   4.018   5.967 -0.1840 -0.0424 -0.5200
  293MOL0     H40377   8.334   4.142   6.136  4.0549 -1.7240 -1.3391
  293MOL0     H40378   8.258   4.245   6.007  0.1651  0.2740  0.3534
  293MOL0     H40379   8.217   3.952   6.039 -1.5658 -0.3262  0.0848
  293MOL0     H40380   8.142   4.059   5.914 -1.1797 -1.1341  0.0196
  293MOL0     H40381   8.096   4.093   6.213 -2.1448  1.6881  0.7830
  293MOL0     H40382   8.033   4.194   6.087 -3.1180 -1.0933  2.1936
  293MOL0     H40383   7.900   3.999   6.328  0.0523  2.2459 -0.8059
  293MOL0     H40384   7.675   3.852   6.360 -0.3280  2.9786 -0.1708
  293MOL0     H40385   7.618   3.776   6.215 -3.0030  0.2111  0.8710
  293MOL0     H40386   7.537   4.033   6.362 -2.1567 -1.5075  0.8229
  293MOL0     H40387   7.534   4.045   6.179 -0.8012 -2.1980 -2.3616
  293MOL0     H40388   7.370   3.845   6.205  3.3369 -2.3757  2.5009
  293MOL0     H40389   7.387   3.878   6.382  3.6175  1.3689  1.8718
  293MOL0     H40390   7.264   4.053   6.151 -0.2614  2.2114 -0.0955
  293MOL0     H40391   7.188   4.009   6.297 -0.9963  1.2182 -2.6767
  293MOL0     H40392   7.135   4.325   6.371 -2.2336 -2.0500 -0.6607
  293MOL0     H40393   6.923   4.462   6.192  0.4183 -0.3011 -1.9965
  293MOL0     H40394   7.007   4.627   6.213  1.5277  0.9109  2.2365
  293MOL0     H40395   7.013   4.520   6.345 -0.6268  1.4822  0.1197
  293MOL0     H40396   6.992   4.520   5.693 -0.9438  1.3728  1.6563
  293MOL0     H40397   6.938   4.622   5.485 -0.0719 -0.0636  0.5573
  293MOL0     H40398   6.866   4.775   5.325  1.6156  0.8160 -3.1543
  293MOL0     H40399   6.868   4.873   5.482  0.4664  1.9327 -0.1614
  293MOL0     H40400   6.796   5.042   5.340  0.6942  0.6253  1.5455
  293MOL0     H40401   6.960   5.067   5.341  1.1751 -3.3513  3.1302
  293MOL0     H40402   6.840   5.058   5.111 -1.8126 -1.5472 -1.1700
  293MOL0     H40403   6.798   4.892   5.149  2.8669 -2.9485  1.0472
  293MOL0     H40404   6.961   4.893   4.984 -1.6025 -2.0708  0.7527
  293MOL0     H40405   7.016   4.803   5.122 -1.5258  0.4789  0.7035
  293MOL0     H40406   7.175   4.978   5.177 -3.1018  2.3799  2.5355
  293MOL0     H40407   7.202   4.924   5.011  3.5898  0.4047  2.5851
  293MOL0     H40408   7.093   5.185   5.127  1.2522 -0.3792  0.7657
  293MOL0     H40409   7.050   5.149   4.960  0.3966 -0.0361  1.1090
  293MOL0     H40410   7.250   5.263   4.928  0.7014  0.1696  0.4342
  293MOL0     H40411   7.297   5.091   4.907 -2.2207 -1.3852 -1.1258
  293MOL0     H40412   7.464   5.186   5.029 -2.0606  1.8857 -2.1308
  293MOL0     H40413   7.362   5.126   5.161 -0.7428  2.5854  1.8669
  293MOL0     H40414   7.261   4.902   5.543  0.0325 -1.3635 -1.1225
  293MOL0     H40415   7.309   4.787   5.771 -1.8697  1.7777  1.1358
  293MOL0     H40416   7.370   4.410   5.947  0.2065 -1.3451  0.1782
  293MOL0     H40417   7.443   4.241   6.095  0.3013 -1.9355  2.0852
  293MOL0     H40418   8.435   4.700   5.652 -2.2645  0.5420 -0.1794
  293MOL0     H40419   8.465   4.921   5.536  0.6018  0.8687 -0.5503
  293MOL0     H40420   8.711   5.023   5.012  3.2026  4.0029 -1.0271
  293MOL0     H40421   8.707   5.213   4.855  1.4446 -6.0466 -0.4460
  293MOL0     H40422   8.510   5.523   4.967  0.6651  0.5591 -0.4864
  293MOL0     H40423   8.541   5.594   4.813 -0.9181  2.7240  1.3799
  293MOL0     H40424   8.264   5.473   4.860 -1.2185  2.0342  3.4286
  293MOL0     H40425   8.306   5.583   4.738 -2.7754  3.0057  1.2521
  293MOL0     H40426   8.327   5.661   5.035 -0.4710  3.6162 -0.2571
  293MOL0     H40427   8.390   5.750   4.902  0.5457 -1.0564 -2.9850
  293MOL0     H40428   8.086   5.684   4.937 -1.7463 -0.0536 -1.6882
  293MOL0     H40429   8.150   5.749   4.792  1.1650  2.1743  0.2453
  293MOL0     H40430   8.132   6.088   5.046  3.7041  0.4805  0.1145
  293MOL0     H40431   8.326   5.331   4.975  1.2981 -0.1553  0.1663
  293MOL0     H40432   8.215   5.252   5.163  3.6243  3.3395 -2.3889
  293MOL0     H40433   8.232   5.078   5.185  0.0983 -1.0156  2.0499
  293MOL0     H40434   8.318   5.195   5.288  0.8676 -1.2552 -0.1017
  294MOL0     O40435   0.921   4.982  10.685  0.6700 -0.0960  0.2881
  294MOL0     C40436   0.804   4.941  10.673 -0.0176  0.8586 -0.3844
  294MOL0     O40437   0.765   4.810  10.711 -0.4545 -1.0383 -0.2185
  294MOL0     C40438   0.852   4.702  10.729 -0.5012  1.0118  0.2804
  294MOL0     C40439   0.958   4.659  10.642  0.1781  0.6672  0.3645
  294MOL0     C40440   1.035   4.550  10.677 -0.4430  0.2563  0.1630
  294MOL0     C40441   1.013   4.477  10.792  0.8045  0.2628 -0.2897
  294MOL0     O40442   1.100   4.376  10.825  0.2609  0.2514 -1.0292
  294MOL0     C40443   1.044   4.266  10.898  0.1474  0.4027  0.3114
  294MOL0     C40444   1.141   4.149  10.913  0.0434 -0.5288  0.3834
  294MOL0     C40445   1.077   4.035  10.994  1.1008  1.1551  0.0271
  294MOL0     C40446   0.927   4.004  10.974  0.0044 -0.3363  0.0617
  294MOL0     C40447   0.906   3.954  10.837  0.1116 -0.4102  0.5853
  294MOL0     C40448   0.755   3.939  10.796 -0.7602  0.6832 -0.9245
  294MOL0     C40449   0.670   3.866  10.897 -0.7570  0.1803  0.0337
  294MOL0     C40450   0.522   3.869  10.849 -0.4657  0.4578 -0.2320
  294MOL0     N40451   0.502   3.804  10.718  1.1558 -0.2585 -0.5573
  294MOL0     C40452   0.519   3.671  10.699 -0.6414  0.3097 -0.1922
  294MOL0     C40453   0.514   3.640  10.571 -0.4454  0.4765 -0.6097
  294MOL0     C40454   0.515   3.507  10.502 -0.6880 -0.0891 -0.0893
  294MOL0     C40455   0.665   3.466  10.465 -0.3353 -0.1344  0.3772
  294MOL0     C40456   0.663   3.350  10.359  0.9446 -0.0928 -0.8872
  294MOL0     C40457   0.596   3.215  10.413  0.4162 -0.7063  0.7874
  294MOL0     O40458   0.635   3.198  10.553 -0.1048 -1.0007 -0.1823
  294MOL0     C40459   0.567   3.103  10.625 -0.4680  0.4039 -0.6735
  294MOL0     C40460   0.536   2.979  10.566  0.7031 -0.3229 -0.0294
  294MOL0     C40461   0.470   2.884  10.651  0.5563 -0.7010  1.4094
  294MOL0     C40462   0.427   2.754  10.583  0.4672  0.0937 -0.3939
  294MOL0     C40463   0.424   2.914  10.783 -0.3492  0.7022 -0.1960
  294MOL0     C40464   0.360   2.810  10.879 -0.3784 -0.4162 -0.6346
  294MOL0     O40465   0.378   2.672  10.856 -0.1220 -0.1862 -0.1053
  294MOL0     C40466   0.327   2.589  10.953  0.0009 -0.4745 -0.5113
  294MOL0     C40467   0.193   2.598  10.981 -0.4035  0.4847  0.2350
  294MOL0     C40468   0.137   2.508  11.072 -0.2861  0.3691 -0.4899
  294MOL0     C40469   0.216   2.406  11.134 -0.0284 -0.0383 -0.5212
  294MOL0     O40470   0.172   2.314  11.223 -0.5324  0.0460 -0.4333
  294MOL0     C40471   0.034   2.271  11.209 -0.0646 -0.6157  0.5848
  294MOL0     C40472   0.021   2.192  11.085  0.0647  0.9301  0.0117
  294MOL0     C40473   0.087   2.047  11.090  0.5783  0.0249 -0.1092
  294MOL0     C40474   0.003   1.944  11.171 -0.8918 -0.6681  0.1310
  294MOL0     C40475   0.082   1.818  11.187  0.5855 -0.3404 -0.6696
  294MOL0     C40476  -0.015   1.699  11.218 -0.0916  0.2701  0.1014
  294MOL0     C40477  -0.101   1.624  11.110  0.1632  0.2403 -0.2428
  294MOL0     C40478  -0.162   1.488  11.147 -0.6467  0.7595 -0.8323
  294MOL0    Cl40479  -0.333   1.500  11.214 -0.0858 -0.4288  0.0153
  294MOL0     C40480   0.352   2.420  11.110 -0.0252  0.6053 -1.8240
  294MOL0     C40481   0.407   2.511  11.029  0.6192 -0.0520 -0.4147
  294MOL0     O40482   0.304   2.854  10.984 -0.3032  0.3313  0.3296
  294MOL0     C40483   0.454   3.035  10.833  0.2879 -0.4101 -0.1138
  294MOL0     C40484   0.532   3.133  10.763  0.3882  0.4180  0.5873
  294MOL0     N40485   0.465   3.757  10.508  0.1975  0.2060  0.1869
  294MOL0     N40486   0.462   3.851  10.601  0.2837  0.6322  0.3476
  294MOL0     C40487   0.897   4.517  10.870 -0.1875 -0.2634 -0.5501
  294MOL0     C40488   0.818   4.624  10.840  0.2065 -0.4600  0.8503
  294MOL0     C40489   0.694   5.032  10.638 -0.1510  0.9154 -0.8713
  294MOL0     C40490   0.722   5.172  10.607 -0.8480  1.1639  0.4251
  294MOL0     C40491   0.630   5.266  10.563  0.2151 -0.5557 -0.2365
  294MOL0     C40492   0.496   5.230  10.544 -0.4087 -0.3746 -0.2058
  294MOL0     O40493   0.405   5.327  10.497 -1.2946  0.8924  0.3758
  294MOL0     C40494   0.281   5.332  10.554  0.1382  0.1283 -0.5131
  294MOL0     C40495   0.200   5.456  10.501 -0.3831  0.9977 -1.1255
  294MOL0     C40496   0.191   5.437  10.353 -0.2457 -0.1002  0.0593
  294MOL0     C40497   0.137   5.303  10.293 -0.7409 -0.8156 -0.7836
  294MOL0     C40498   0.015   5.254  10.358 -0.0983  0.4209 -0.7525
  294MOL0     C40499  -0.087   5.223  10.417  0.2027  0.0060  0.1647
  294MOL0     C40500   0.458   5.103  10.588 -0.5344 -0.3002 -0.0918
  294MOL0     C40501   0.557   5.008  10.634 -0.0928  0.3447  0.1448
  294MOL0     C40502   0.493   4.869  10.665 -0.3362  0.1689 -0.5317
  294MOL0     H40503   0.984   4.721  10.557 -3.9515  0.6175 -1.1577
  294MOL0     H40504   1.114   4.527  10.606 -2.3144 -0.2959 -1.8510
  294MOL0     H40505   0.958   4.231  10.842  0.0656  0.0598  0.6505
  294MOL0     H40506   1.013   4.298  10.998 -2.2852 -0.5428 -0.0963
  294MOL0     H40507   1.159   4.108  10.813  2.2296 -0.4127  0.6731
  294MOL0     H40508   1.239   4.171  10.958 -1.0748 -0.1682  2.7814
  294MOL0     H40509   1.116   3.934  10.975 -1.5810 -0.4553  2.2619
  294MOL0     H40510   1.093   4.057  11.100 -5.5794 -1.2228  2.0730
  294MOL0     H40511   0.894   3.940  11.056 -2.7739  2.3250  1.1800
  294MOL0     H40512   0.873   4.097  10.990  1.6389  0.4283  1.3757
  294MOL0     H40513   0.972   3.867  10.823  2.5464  1.5196 -0.8782
  294MOL0     H40514   0.957   4.024  10.770 -0.6141 -0.3996  0.0385
  294MOL0     H40515   0.710   4.036  10.771 -0.2222  1.2217  0.1635
  294MOL0     H40516   0.757   3.883  10.702 -1.3219 -0.6331 -0.1909
  294MOL0     H40517   0.678   3.914  10.995  1.2203  1.4154 -0.6963
  294MOL0     H40518   0.707   3.763  10.898  1.8033  1.0184  1.9332
  294MOL0     H40519   0.467   3.820  10.930 -1.3378 -0.2862 -1.2462
  294MOL0     H40520   0.483   3.970  10.837  2.3428  2.0118  2.4532
  294MOL0     H40521   0.532   3.593  10.774  0.8936 -1.3382 -2.0384
  294MOL0     H40522   0.461   3.519  10.408 -1.8406  0.1031  0.5846
  294MOL0     H40523   0.476   3.417  10.551  0.1291 -0.4761 -0.1332
  294MOL0     H40524   0.719   3.548  10.418 -3.2648 -0.2708 -3.7216
  294MOL0     H40525   0.724   3.433  10.551 -1.3168  0.9512  1.4994
  294MOL0     H40526   0.607   3.389  10.273 -0.5092  0.4472  0.2439
  294MOL0     H40527   0.767   3.339  10.327  1.5148  1.3014  0.3301
  294MOL0     H40528   0.488   3.226  10.404  0.5672 -0.0577 -0.5353
  294MOL0     H40529   0.637   3.133  10.353 -0.0035 -0.3916  0.0548
  294MOL0     H40530   0.566   2.971  10.462 -0.0328  0.3957 -0.3112
  294MOL0     H40531   0.437   2.745  10.475  0.1690  3.8303 -0.8553
  294MOL0     H40532   0.321   2.742  10.608  0.5103 -3.0339 -1.3110
  294MOL0     H40533   0.486   2.674  10.628 -1.0351 -2.1213 -2.1206
  294MOL0     H40534   0.107   2.652  10.942 -3.1966 -2.2057  2.1137
  294MOL0     H40535   0.035   2.518  11.108 -0.0218 -2.1745  1.2781
  294MOL0     H40536   0.010   2.195  11.285  0.6308 -2.0531 -0.5869
  294MOL0     H40537  -0.034   2.357  11.211  3.5099  2.6002 -1.7310
  294MOL0     H40538  -0.087   2.177  11.088 -0.1570  1.4046 -2.6114
  294MOL0     H40539   0.059   2.262  11.009 -0.5596 -1.1192 -2.3388
  294MOL0     H40540   0.190   2.055  11.126  1.1476  0.6602 -1.7712
  294MOL0     H40541   0.092   1.997  10.993 -1.3915 -2.2052  0.8550
  294MOL0     H40542  -0.091   1.917  11.120 -0.4332 -1.0234 -0.5508
  294MOL0     H40543  -0.030   2.001  11.258 -0.2905  1.8113 -1.1743
  294MOL0     H40544   0.142   1.795  11.099 -0.5042 -0.7647 -1.3243
  294MOL0     H40545   0.150   1.831  11.272 -2.0812 -3.6486  2.3033
  294MOL0     H40546  -0.071   1.729  11.307 -0.3532  1.0558 -0.3213
  294MOL0     H40547   0.051   1.620  11.256 -0.8419 -0.8773 -0.9064
  294MOL0     H40548  -0.026   1.610  11.033 -0.1783 -3.1678 -0.1113
  294MOL0     H40549  -0.187   1.681  11.072 -0.8134 -2.3954 -2.2956
  294MOL0     H40550  -0.100   1.431  11.218 -0.4634  1.2967 -0.5597
  294MOL0     H40551  -0.175   1.430  11.055 -3.7853  1.2091 -0.7771
  294MOL0     H40552   0.410   2.347  11.166 -2.0157 -0.3281 -0.8492
  294MOL0     H40553   0.514   2.518  11.009  1.7183 -0.1587  4.2371
  294MOL0     H40554   0.433   3.039  10.940 -0.9930 -1.0240 -0.3214
  294MOL0     H40555   0.567   3.224  10.809  2.9666 -0.3855  0.3443
  294MOL0     H40556   0.885   4.460  10.962 -0.5826 -1.2106 -1.1677
  294MOL0     H40557   0.729   4.650  10.896  0.3127  1.0207  0.3752
  294MOL0     H40558   0.820   5.216  10.593 -0.9358  1.0490 -0.6331
  294MOL0     H40559   0.668   5.364  10.537 -1.3179  0.5370  1.4523
  294MOL0     H40560   0.223   5.239  10.547  0.1834  0.0842 -0.3240
  294MOL0     H40561   0.289   5.352  10.661 -1.8247 -0.0525 -0.2891
  294MOL0     H40562   0.264   5.540  10.527  0.0120  0.5986 -0.7896
  294MOL0     H40563   0.106   5.469  10.555  2.0476  1.8471  3.3176
  294MOL0     H40564   0.136   5.522  10.313 -1.3030  0.6615  2.8625
  294MOL0     H40565   0.294   5.447  10.317  0.9080 -4.3274  1.5097
  294MOL0     H40566   0.214   5.225  10.304 -1.4696 -1.9867 -3.3220
  294MOL0     H40567   0.120   5.308  10.186 -2.1359  0.2142 -0.5355
  294MOL0     H40568  -0.165   5.188  10.482  0.3097  0.2713  0.4421
  294MOL0     H40569   0.354   5.071  10.591 -1.4715  2.2343  4.8945
  294MOL0     H40570   0.385   4.881  10.670 -0.1087  2.8088 -0.9058
  294MOL0     H40571   0.521   4.804  10.582  1.2600  0.7816 -0.5012
  294MOL0     H40572   0.529   4.815  10.753 -2.3576  0.9497  0.8522
  295MOL0     O40573   4.684   5.559  10.180  0.0970 -0.6707  0.3102
  295MOL0     C40574   4.745   5.632  10.254 -0.5948 -0.5298 -0.6509
  295MOL0     O40575   4.702   5.764  10.289 -0.4913 -0.7252  0.0813
  295MOL0     C40576   4.759   5.810  10.410 -0.3524 -0.6632  0.3593
  295MOL0     C40577   4.814   5.938  10.411 -0.1980  0.2388 -0.8084
  295MOL0     C40578   4.876   5.984  10.522 -0.3658 -0.1067 -1.1667
  295MOL0     C40579   4.880   5.913  10.643 -0.2528  1.1946 -0.7440
  295MOL0     O40580   4.923   5.973  10.758 -0.6744 -0.0426  0.7491
  295MOL0     C40581   5.064   6.002  10.769 -0.3691 -0.6132  0.4927
  295MOL0     C40582   5.099   6.018  10.927 -1.0260 -0.1705 -0.5149
  295MOL0     C40583   5.094   5.885  11.001 -0.4742  1.4390  0.4388
  295MOL0     C40584   5.082   5.911  11.151 -0.2968 -0.1030  0.0003
  295MOL0     C40585   5.099   5.782  11.231  0.6959  0.7271 -1.2887
  295MOL0     C40586   5.090   5.799  11.387 -0.1011 -0.2633 -0.7256
  295MOL0     C40587   5.224   5.848  11.443  0.6342 -0.2193  0.5647
  295MOL0     C40588   5.351   5.751  11.437  0.0385 -0.6145  0.9160
  295MOL0     N40589   5.337   5.641  11.530 -1.2869  1.2544 -0.4521
  295MOL0     C40590   5.442   5.578  11.595  0.0830 -0.1103 -0.6186
  295MOL0     C40591   5.386   5.474  11.663  0.7495  0.6503 -0.4337
  295MOL0     C40592   5.448   5.381  11.767  0.1466  1.3507 -0.2329
  295MOL0     C40593   5.486   5.467  11.890  0.4152 -0.6331 -0.4088
  295MOL0     C40594   5.448   5.373  12.011 -0.1698 -1.0576 -0.0425
  295MOL0     C40595   5.515   5.434  12.131 -0.3165  0.4954 -0.5211
  295MOL0     O40596   5.452   5.554  12.180  0.5337  0.3098 -0.2546
  295MOL0     C40597   5.408   5.566  12.305  0.0111 -0.5268  0.0289
  295MOL0     C40598   5.464   5.495  12.415 -0.2129 -0.4687  0.5783
  295MOL0     C40599   5.408   5.530  12.539  0.3477  0.4134 -0.1406
  295MOL0     C40600   5.497   5.491  12.657 -0.8049 -0.2065 -0.0790
  295MOL0     C40601   5.297   5.619  12.555  0.7627 -0.0030  1.0614
  295MOL0     C40602   5.251   5.658  12.682 -0.8102  0.9616 -0.1453
  295MOL0     O40603   5.262   5.787  12.710 -0.6860 -0.0447 -0.2440
  295MOL0     C40604   5.332   5.877  12.630 -0.0638  0.7522 -0.8068
  295MOL0     C40605   5.468   5.867  12.613 -1.5887  0.5279 -0.9579
  295MOL0     C40606   5.535   5.972  12.547  1.1867  0.2222 -0.9211
  295MOL0     C40607   5.468   6.081  12.490  0.1287 -0.4126 -0.2099
  295MOL0     O40608   5.520   6.179  12.423  0.2670 -0.6004 -0.8033
  295MOL0     C40609   5.613   6.140  12.322  0.1449  0.0286  0.0082
  295MOL0     C40610   5.627   6.275  12.234 -0.2934 -0.0192 -0.2264
  295MOL0     C40611   5.679   6.240  12.088 -1.0769 -0.6933  0.0294
  295MOL0     C40612   5.829   6.189  12.086  0.4808  0.0419 -0.6780
  295MOL0     C40613   5.893   6.162  11.952 -0.2867  0.1129  0.0765
  295MOL0     C40614   5.941   6.290  11.868  0.1689  0.4743  0.2005
  295MOL0     C40615   5.967   6.272  11.716  0.3724  0.4941  0.3642
  295MOL0     C40616   6.064   6.376  11.681  0.0545  0.1299  0.2874
  295MOL0    Cl40617   6.072   6.378  11.499 -0.0571 -0.2874 -0.0065
  295MOL0     C40618   5.331   6.084  12.509 -0.2924 -0.1423  0.6797
  295MOL0     C40619   5.261   5.983  12.574 -0.1123  0.3670 -0.3366
  295MOL0     O40620   5.183   5.584  12.747 -0.4707 -0.8357 -0.5450
  295MOL0     C40621   5.243   5.672  12.439  0.4264  0.1892 -0.3416
  295MOL0     C40622   5.299   5.644  12.314  0.3884 -1.8208  0.1905
  295MOL0     N40623   5.253   5.467  11.634 -0.9236 -0.9137  0.1402
  295MOL0     N40624   5.226   5.567  11.557  0.2922  0.5055  0.6313
  295MOL0     C40625   4.839   5.778  10.642  0.6661  0.8670 -0.0385
  295MOL0     C40626   4.774   5.731  10.528 -0.0520 -0.5671  0.4471
  295MOL0     C40627   4.884   5.587  10.275 -0.2775  1.4828 -0.2730
  295MOL0     C40628   4.992   5.668  10.238  0.2003  0.3797 -0.7003
  295MOL0     C40629   5.120   5.616  10.250  0.3024  0.5585  0.0230
  295MOL0     C40630   5.145   5.480  10.270 -0.0080 -0.2428  0.5973
  295MOL0     O40631   5.264   5.443  10.299 -0.2030 -0.5830  0.1189
  295MOL0     C40632   5.313   5.335  10.225 -0.2176 -0.1203 -0.2019
  295MOL0     C40633   5.351   5.209  10.325  0.0579 -0.6633  0.6159
  295MOL0     C40634   5.500   5.210  10.370  0.6101  0.5682  0.4462
  295MOL0     C40635   5.536   5.085  10.463  0.5544  0.1741 -0.3110
  295MOL0     C40636   5.678   5.084  10.493  0.0567  1.4322  0.3205
  295MOL0     C40637   5.798   5.088  10.495  1.4339 -0.6259  0.8895
  295MOL0     C40638   5.036   5.401  10.312 -0.8828  0.3768  1.1645
  295MOL0     C40639   4.904   5.447  10.311 -0.9872 -0.4613 -0.7602
  295MOL0     C40640   4.791   5.355  10.357 -0.2234 -0.3904  0.2283
  295MOL0     H40641   4.821   5.991  10.317  5.2279  2.1554  0.3443
  295MOL0     H40642   4.920   6.083  10.516  1.2741 -0.7078  0.1902
  295MOL0     H40643   5.076   6.094  10.712 -0.5770  0.4190  2.0606
  295MOL0     H40644   5.120   5.921  10.721 -5.2420 -2.3314 -3.1573
  295MOL0     H40645   5.202   6.048  10.951 -0.7724  0.0959 -1.8339
  295MOL0     H40646   5.034   6.092  10.976 -0.9800  0.3102 -1.1628
  295MOL0     H40647   5.007   5.831  10.963  0.6763  0.2643 -0.6227
  295MOL0     H40648   5.179   5.817  10.986 -2.6096 -1.2851 -0.2057
  295MOL0     H40649   5.153   5.984  11.190  1.3039 -0.5742 -1.8992
  295MOL0     H40650   4.981   5.955  11.158 -0.7569 -0.1482 -4.1124
  295MOL0     H40651   5.194   5.730  11.217  0.6777 -1.1553  3.5120
  295MOL0     H40652   5.013   5.718  11.208  1.7752 -1.0104 -0.6670
  295MOL0     H40653   5.004   5.863  11.412 -0.8626 -1.9912  1.3656
  295MOL0     H40654   5.053   5.704  11.426  3.9263 -1.6123  0.1940
  295MOL0     H40655   5.213   5.856  11.552 -1.4183 -1.9969  0.5553
  295MOL0     H40656   5.260   5.939  11.395  0.1482 -0.2747  0.0906
  295MOL0     H40657   5.373   5.732  11.332 -1.0555 -0.8604  0.7149
  295MOL0     H40658   5.442   5.806  11.464  0.9263  0.3419 -3.3234
  295MOL0     H40659   5.546   5.610  11.586 -0.3449  0.9083 -2.5950
  295MOL0     H40660   5.539   5.347  11.719 -1.3660  2.0719 -3.9192
  295MOL0     H40661   5.388   5.294  11.794  0.7181  1.5671  1.9634
  295MOL0     H40662   5.593   5.492  11.893 -0.3078  2.8425 -0.3241
  295MOL0     H40663   5.431   5.561  11.883 -0.2053 -1.1070 -2.7792
  295MOL0     H40664   5.340   5.361  12.023 -0.0466 -1.7347  0.5128
  295MOL0     H40665   5.479   5.268  12.007 -1.3194 -1.4501  0.8010
  295MOL0     H40666   5.524   5.353  12.204  1.2290  1.1257  0.0393
  295MOL0     H40667   5.618   5.447  12.095 -0.7419  2.5459 -1.1275
  295MOL0     H40668   5.561   5.450  12.399 -0.7481 -1.2137 -0.7586
  295MOL0     H40669   5.481   5.388  12.691  0.2950 -0.6863 -0.9710
  295MOL0     H40670   5.467   5.557  12.740 -1.6557  1.1833 -1.4283
  295MOL0     H40671   5.605   5.504  12.644 -0.5628 -0.4391  1.5068
  295MOL0     H40672   5.525   5.784  12.654  0.1020  2.5030  0.9840
  295MOL0     H40673   5.643   5.971  12.543  1.3757 -3.2427  0.8550
  295MOL0     H40674   5.706   6.112  12.373 -0.5768  2.3090  2.8494
  295MOL0     H40675   5.577   6.061  12.256  1.6246 -0.3092 -0.4263
  295MOL0     H40676   5.523   6.307  12.234 -0.9520 -1.9410 -1.6699
  295MOL0     H40677   5.697   6.350  12.271  0.9448 -1.5111  0.5931
  295MOL0     H40678   5.690   6.333  12.031  0.0789  0.0669  1.4177
  295MOL0     H40679   5.610   6.170  12.040 -3.4345 -1.6687  4.3085
  295MOL0     H40680   5.824   6.095  12.143 -2.3043  1.2939  1.3943
  295MOL0     H40681   5.897   6.262  12.129  0.8255  0.4703 -1.9138
  295MOL0     H40682   5.979   6.095  11.965  0.8623  1.3614 -0.7136
  295MOL0     H40683   5.830   6.105  11.883 -1.0854  1.6768 -0.5378
  295MOL0     H40684   6.030   6.330  11.916 -1.7328  0.3726  4.2601
  295MOL0     H40685   5.861   6.365  11.879 -0.3922  0.1359 -1.3249
  295MOL0     H40686   5.872   6.266  11.663  1.5234 -2.4536 -1.6394
  295MOL0     H40687   6.008   6.175  11.687 -2.7394 -1.3942  1.7476
  295MOL0     H40688   6.168   6.364  11.713  1.0881  1.5131 -2.2377
  295MOL0     H40689   6.030   6.473  11.719  2.6033  0.0575  3.0945
  295MOL0     H40690   5.276   6.172  12.475 -3.0501 -2.5186 -1.4846
  295MOL0     H40691   5.154   5.979  12.595  0.3293 -2.1465  1.8721
  295MOL0     H40692   5.165   5.747  12.451 -0.2214 -0.1765 -1.9040
  295MOL0     H40693   5.262   5.695  12.226 -0.1167  0.7994  1.8171
  295MOL0     H40694   4.836   5.716  10.731  1.7207  0.0998 -0.5141
  295MOL0     H40695   4.721   5.636  10.537  0.8690 -1.0546  0.8601
  295MOL0     H40696   4.965   5.769  10.208 -2.2046 -0.5798 -2.0694
  295MOL0     H40697   5.204   5.685  10.245  1.0113 -0.3462 -1.1912
  295MOL0     H40698   5.238   5.298  10.154 -0.2786 -1.8340  0.7112
  295MOL0     H40699   5.404   5.355  10.169 -0.5720 -2.6825 -1.8844
  295MOL0     H40700   5.347   5.112  10.276  4.7145 -0.9892  0.4274
  295MOL0     H40701   5.274   5.207  10.402 -0.7176 -0.1024 -0.1259
  295MOL0     H40702   5.577   5.216  10.292  2.5690 -1.7263  2.0409
  295MOL0     H40703   5.521   5.299  10.429  0.4752  1.2376 -0.4932
  295MOL0     H40704   5.504   4.993  10.414 -0.7671  0.4243  0.0369
  295MOL0     H40705   5.480   5.084  10.557 -1.8606  2.1130 -1.6236
  295MOL0     H40706   5.904   5.082  10.510  1.5722  0.2060  0.3189
  295MOL0     H40707   5.058   5.303  10.353  4.0880  0.8302  0.2184
  295MOL0     H40708   4.816   5.264  10.413  2.9764 -1.3346 -2.3548
  295MOL0     H40709   4.714   5.404  10.416  1.7659 -1.1911  3.7968
  295MOL0     H40710   4.736   5.316  10.270 -0.0343 -0.8739  0.3227
  296MOL0     O40711   1.152   2.740   8.871  0.2036 -0.8533 -0.5301
  296MOL0     C40712   1.088   2.818   8.932 -0.1163  0.1830 -0.1522
  296MOL0     O40713   1.123   2.891   9.046 -1.0681  0.5147 -0.3222
  296MOL0     C40714   1.260   2.903   9.064 -0.7010  0.4486 -0.2134
  296MOL0     C40715   1.319   2.866   9.185 -0.5492 -0.8820  0.1287
  296MOL0     C40716   1.456   2.890   9.203 -0.6048 -0.4653 -0.1142
  296MOL0     C40717   1.538   2.951   9.113 -0.1746  1.0602  0.2713
  296MOL0     O40718   1.670   2.988   9.134 -0.0451  0.6210 -0.0248
  296MOL0     C40719   1.746   2.957   9.249  1.4662  0.5933 -0.9067
  296MOL0     C40720   1.891   2.990   9.226  0.4465 -1.0713  0.5582
  296MOL0     C40721   1.997   2.950   9.328  0.2140 -0.0763  0.1296
  296MOL0     C40722   2.135   2.995   9.289 -0.2865  0.8093  0.1723
  296MOL0     C40723   2.230   2.993   9.415 -0.3625  0.1848  0.0270
  296MOL0     C40724   2.379   3.010   9.368  1.8514  0.4314  0.3057
  296MOL0     C40725   2.473   3.029   9.486  0.3748  0.5491  0.3049
  296MOL0     C40726   2.462   3.163   9.561 -0.0962  0.6912  0.0367
  296MOL0     N40727   2.469   3.289   9.485 -0.2457  0.1091 -0.7923
  296MOL0     C40728   2.557   3.327   9.392  0.2072 -1.1340  0.5820
  296MOL0     C40729   2.521   3.456   9.355 -0.4262  0.5246 -0.6518
  296MOL0     C40730   2.615   3.551   9.290 -1.2900 -0.1816  0.7031
  296MOL0     C40731   2.585   3.698   9.325  0.2839  0.5825 -0.3930
  296MOL0     C40732   2.676   3.794   9.251 -0.8873 -0.5258 -0.6386
  296MOL0     C40733   2.819   3.791   9.297 -0.1341  0.1271  0.2109
  296MOL0     O40734   2.826   3.805   9.449 -0.0655 -0.6097  0.3100
  296MOL0     C40735   2.785   3.931   9.495  0.4902 -0.2094 -0.2992
  296MOL0     C40736   2.719   3.928   9.614 -0.3705  0.4661 -0.2592
  296MOL0     C40737   2.697   4.055   9.672  0.1901  0.5380 -0.2779
  296MOL0     C40738   2.635   4.047   9.810  0.2551  0.1545  0.4786
  296MOL0     C40739   2.716   4.177   9.603  0.5632 -0.5579  0.3582
  296MOL0     C40740   2.692   4.312   9.648 -0.6277 -0.1700 -0.0469
  296MOL0     O40741   2.688   4.411   9.559  0.3523  0.4865  0.3417
  296MOL0     C40742   2.641   4.531   9.610 -0.4682  0.9133 -0.4084
  296MOL0     C40743   2.717   4.611   9.696  0.0515 -0.7003  0.6101
  296MOL0     C40744   2.661   4.715   9.768 -0.7032 -0.0140 -0.4546
  296MOL0     C40745   2.533   4.751   9.748  0.5228 -0.6621 -0.4008
  296MOL0     O40746   2.462   4.853   9.811 -0.4545  0.5230 -0.5407
  296MOL0     C40747   2.541   4.948   9.876  1.0873  0.0010 -0.2521
  296MOL0     C40748   2.546   4.910  10.028 -1.1088  0.1308 -0.0372
  296MOL0     C40749   2.438   4.983  10.115 -0.0611  0.6524 -0.1638
  296MOL0     C40750   2.478   4.956  10.271  0.4937 -0.3719  0.5622
  296MOL0     C40751   2.358   4.992  10.353 -0.3180 -0.3033 -0.9221
  296MOL0     C40752   2.378   4.946  10.504 -0.3020  0.9952  0.3225
  296MOL0     C40753   2.242   4.955  10.567 -0.2123 -0.3869  0.8896
  296MOL0     C40754   2.165   4.820  10.579  0.0348  0.7579 -0.2767
  296MOL0    Cl40755   2.186   4.690  10.454  0.3109  0.0129 -0.0286
  296MOL0     C40756   2.456   4.689   9.647 -0.4328  0.0803 -0.3210
  296MOL0     C40757   2.511   4.577   9.584 -0.1008 -0.8733  0.8490
  296MOL0     O40758   2.685   4.325   9.774  0.0751  0.4406 -0.1218
  296MOL0     C40759   2.755   4.165   9.474  0.1944  1.0576  0.5335
  296MOL0     C40760   2.801   4.046   9.422  0.3769  0.0714  0.6077
  296MOL0     N40761   2.398   3.481   9.415 -0.9292  0.5828 -0.3675
  296MOL0     N40762   2.370   3.384   9.500 -0.4337  0.3331 -0.0998
  296MOL0     C40763   1.475   2.987   8.994  0.3783 -0.2156  0.7180
  296MOL0     C40764   1.339   2.966   8.966  1.2149 -0.0597  0.9802
  296MOL0     C40765   0.950   2.816   8.910  0.7073  0.1007  0.3787
  296MOL0     C40766   0.872   2.817   9.029  0.0397  0.7847 -0.0922
  296MOL0     C40767   0.732   2.823   9.021 -0.3521 -0.0493 -0.5010
  296MOL0     C40768   0.664   2.805   8.902 -0.0111  0.6389 -0.6187
  296MOL0     O40769   0.526   2.818   8.914 -0.0443 -0.4516  0.6353
  296MOL0     C40770   0.439   2.809   8.807 -0.0999 -0.4379 -0.2683
  296MOL0     C40771   0.306   2.848   8.868  0.9715  0.0660 -0.1933
  296MOL0     C40772   0.204   2.886   8.748 -0.0419  0.6725 -0.4644
  296MOL0     C40773   0.180   2.774   8.655  1.4666  0.2156  0.0364
  296MOL0     C40774   0.102   2.822   8.544  0.9676 -0.1869  0.4823
  296MOL0     C40775   0.050   2.838   8.442  0.9463 -0.4203 -0.1319
  296MOL0     C40776   0.747   2.806   8.780 -0.3379  1.0357 -0.9764
  296MOL0     C40777   0.888   2.819   8.780 -0.5036 -0.1425 -0.1792
  296MOL0     C40778   0.960   2.829   8.655  0.1025 -0.9164  0.9812
  296MOL0     H40779   1.262   2.827   9.268 -0.6062 -4.3264 -1.3533
  296MOL0     H40780   1.491   2.850   9.297 -1.0158  0.3845  0.4175
  296MOL0     H40781   1.748   2.850   9.274  2.3562  1.0358  1.0756
  296MOL0     H40782   1.706   3.017   9.331  3.6390 -1.0300  1.5175
  296MOL0     H40783   1.913   2.940   9.131 -3.2573 -1.7735 -0.0992
  296MOL0     H40784   1.909   3.098   9.216  1.6277 -1.3443 -0.4034
  296MOL0     H40785   1.985   3.002   9.423  4.6608  1.9213 -0.1926
  296MOL0     H40786   2.003   2.841   9.336 -0.9887 -0.2873 -1.3427
  296MOL0     H40787   2.191   2.947   9.209 -0.3969  1.5142 -0.3413
  296MOL0     H40788   2.150   3.100   9.262  3.3438  0.6193  0.9417
  296MOL0     H40789   2.222   2.896   9.465  1.9616 -0.9776 -1.6559
  296MOL0     H40790   2.203   3.075   9.483 -3.3494 -0.9086  0.3171
  296MOL0     H40791   2.405   2.913   9.326 -1.9791 -2.1771  3.1841
  296MOL0     H40792   2.395   3.096   9.302 -1.0049  0.6198 -0.2855
  296MOL0     H40793   2.576   3.016   9.454  0.8065  2.7708  0.6090
  296MOL0     H40794   2.447   2.943   9.548 -3.3688  1.5357  0.3919
  296MOL0     H40795   2.365   3.170   9.613  0.0999 -2.0694  0.9925
  296MOL0     H40796   2.537   3.169   9.640 -2.2753 -1.2300  2.4737
  296MOL0     H40797   2.646   3.282   9.348  0.1663  0.9439 -1.8327
  296MOL0     H40798   2.613   3.535   9.182 -1.1441 -2.7168  1.0018
  296MOL0     H40799   2.713   3.522   9.330  0.3272 -5.6340 -5.4976
  296MOL0     H40800   2.485   3.722   9.288  1.2607  1.2187 -2.8239
  296MOL0     H40801   2.594   3.707   9.433  4.0266 -2.6287 -0.1794
  296MOL0     H40802   2.677   3.796   9.141  4.0563  3.4763 -0.8728
  296MOL0     H40803   2.636   3.892   9.279 -1.2468 -0.4979 -1.2390
  296MOL0     H40804   2.867   3.700   9.260  1.5550  1.7888 -1.9218
  296MOL0     H40805   2.870   3.868   9.239  1.1104 -1.0555 -0.3185
  296MOL0     H40806   2.714   3.826   9.652  0.7986  0.7026  0.5783
  296MOL0     H40807   2.531   4.082   9.812  1.0432  2.6932  0.9021
  296MOL0     H40808   2.689   4.105   9.885 -0.6301  2.0119 -0.2590
  296MOL0     H40809   2.655   3.944   9.842 -0.5181 -1.1819 -2.8912
  296MOL0     H40810   2.821   4.587   9.714  0.7128  3.2549  3.3140
  296MOL0     H40811   2.716   4.772   9.843 -0.4315 -1.4142  0.4631
  296MOL0     H40812   2.643   4.953   9.836  1.8717 -1.1393  1.4580
  296MOL0     H40813   2.496   5.047   9.863  0.9789 -0.4229 -4.9264
  296MOL0     H40814   2.539   4.803  10.047  3.5739 -0.0627  2.0738
  296MOL0     H40815   2.643   4.949  10.063 -0.3752 -0.0140 -1.7937
  296MOL0     H40816   2.335   4.952  10.092 -0.2064 -2.4340  3.6404
  296MOL0     H40817   2.435   5.091  10.099 -1.5820  0.8766  1.3178
  296MOL0     H40818   2.562   5.018  10.302  0.0208 -0.9992  3.3343
  296MOL0     H40819   2.507   4.851  10.280  1.1052 -0.1737  0.9549
  296MOL0     H40820   2.343   5.100  10.343  0.0751 -0.1906 -0.3652
  296MOL0     H40821   2.264   4.959  10.309 -0.9916  1.0509 -0.5715
  296MOL0     H40822   2.453   5.008  10.555 -0.7576  0.1922  2.0495
  296MOL0     H40823   2.415   4.844  10.512 -0.9033  0.8743  2.1482
  296MOL0     H40824   2.189   5.039  10.521  0.9626 -0.3847 -0.5141
  296MOL0     H40825   2.241   5.003  10.666  3.1829  0.7831  0.5093
  296MOL0     H40826   2.061   4.846  10.599 -0.0172  1.7427 -1.7115
  296MOL0     H40827   2.203   4.784  10.675  1.2516  0.5136 -0.8205
  296MOL0     H40828   2.363   4.744   9.639 -0.6975 -0.4401 -0.8944
  296MOL0     H40829   2.471   4.522   9.499 -0.2097 -2.0835  1.6617
  296MOL0     H40830   2.774   4.245   9.403  1.0345 -0.1200 -0.6130
  296MOL0     H40831   2.850   4.044   9.325 -0.8715 -3.1943 -0.1254
  296MOL0     H40832   1.529   3.028   8.909 -1.8573  0.4081 -0.4958
  296MOL0     H40833   1.298   2.996   8.870  0.1445 -1.2607  1.0348
  296MOL0     H40834   0.914   2.831   9.128 -1.5179 -1.8701  1.0777
  296MOL0     H40835   0.670   2.835   9.110 -0.6079 -1.5966 -0.4448
  296MOL0     H40836   0.457   2.865   8.715 -1.2064 -2.6889 -1.9492
  296MOL0     H40837   0.431   2.704   8.778  0.8544 -0.7014  0.3597
  296MOL0     H40838   0.313   2.939   8.928 -1.3526  2.7125 -3.5351
  296MOL0     H40839   0.260   2.765   8.921 -1.9243  0.5878 -1.6546
  296MOL0     H40840   0.111   2.913   8.798 -0.8719 -1.8496 -0.5207
  296MOL0     H40841   0.243   2.974   8.695 -1.3624  0.2706 -2.1781
  296MOL0     H40842   0.119   2.696   8.702 -1.4234  1.5424 -1.2472
  296MOL0     H40843   0.280   2.733   8.635  1.2520 -0.4533  0.2908
  296MOL0     H40844   0.020   2.871   8.345  0.0203  5.2302  1.7197
  296MOL0     H40845   0.684   2.814   8.692 -1.1019 -0.1366 -0.5649
  296MOL0     H40846   0.952   2.736   8.598 -1.0889 -0.8982  1.0783
  296MOL0     H40847   0.900   2.900   8.597  0.0230  0.5788  2.8021
  296MOL0     H40848   1.062   2.868   8.655  0.6727 -2.2761 -0.6671
  297MOL0     O40849   9.956   9.170   8.968 -0.3968  0.2770  0.5312
  297MOL0     C40850   9.939   9.283   8.934 -0.1837  0.3954 -0.2205
  297MOL0     O40851  10.024   9.350   8.853  0.4981  0.9470  0.0309
  297MOL0     C40852  10.147   9.298   8.833 -0.3768  0.2056 -0.8274
  297MOL0     C40853  10.248   9.332   8.925  0.1428 -0.0206 -0.3020
  297MOL0     C40854  10.374   9.295   8.901  0.5977  1.1467 -0.5746
  297MOL0     C40855  10.413   9.217   8.793 -0.1473  0.7328  0.3513
  297MOL0     O40856  10.541   9.172   8.773 -0.0329  0.5116  0.7779
  297MOL0     C40857  10.644   9.224   8.856 -0.6317  0.9159 -0.3455
  297MOL0     C40858  10.701   9.363   8.814  0.3079  0.4475  0.7793
  297MOL0     C40859  10.821   9.403   8.900  0.9251 -0.3827 -0.9133
  297MOL0     C40860  10.791   9.482   9.039 -0.3639 -0.3336 -0.8565
  297MOL0     C40861  10.928   9.544   9.092  0.8829 -0.1698 -0.1790
  297MOL0     C40862  10.920   9.597   9.235 -0.2883  0.8526 -0.0333
  297MOL0     C40863  11.054   9.654   9.265 -0.5977  0.1664 -0.4557
  297MOL0     C40864  11.068   9.716   9.406 -0.3683  0.0637  1.1878
  297MOL0     N40865  10.976   9.831   9.417  0.6017 -0.2748  0.3077
  297MOL0     C40866  10.872   9.841   9.510  0.0773  0.4677 -0.1893
  297MOL0     C40867  10.817   9.958   9.482 -0.5714  1.3644  1.0411
  297MOL0     C40868  10.718  10.028   9.572 -1.0912  0.4808  0.3451
  297MOL0     C40869  10.672  10.152   9.506 -0.9479  0.0963 -0.4651
  297MOL0     C40870  10.559  10.209   9.594 -0.2956 -0.8342  0.2527
  297MOL0     C40871  10.432  10.128   9.602 -0.0202 -0.1718  0.1434
  297MOL0     O40872  10.432  10.014   9.687  0.9117 -0.7886 -0.0899
  297MOL0     C40873  10.314   9.948   9.710 -0.0333 -0.3115 -0.8260
  297MOL0     C40874  10.331   9.841   9.798  0.8136 -0.4072 -0.0856
  297MOL0     C40875  10.225   9.776   9.853 -0.0893  0.8439  0.5605
  297MOL0     C40876  10.252   9.663   9.963  0.3065 -0.3457  0.0558
  297MOL0     C40877  10.095   9.823   9.816 -0.0825  1.1952 -0.3975
  297MOL0     C40878   9.982   9.760   9.887  0.6837  0.7287 -0.8405
  297MOL0     O40879   9.926   9.836   9.981 -0.1989  1.2707 -0.0589
  297MOL0     C40880   9.843   9.781  10.075  0.2416 -0.4995  0.4990
  297MOL0     C40881   9.734   9.700  10.045  0.0613  0.3107 -0.0820
  297MOL0     C40882   9.664   9.624  10.136 -0.3251  0.0425 -0.6728
  297MOL0     C40883   9.689   9.651  10.273 -0.4097  0.1129  0.6269
  297MOL0     O40884   9.605   9.595  10.360 -0.0771  0.3865 -0.1293
  297MOL0     C40885   9.656   9.552  10.481  0.0724 -0.5819  0.1887
  297MOL0     C40886   9.543   9.494  10.567  0.1442 -0.1216 -0.1948
  297MOL0     C40887   9.434   9.601  10.590 -0.0908 -0.2927 -0.1490
  297MOL0     C40888   9.474   9.728  10.670  0.5461  0.6668 -0.3461
  297MOL0     C40889   9.506   9.694  10.814 -0.0600 -0.3611  0.8173
  297MOL0     C40890   9.391   9.667  10.916  0.8728 -0.4521 -0.2174
  297MOL0     C40891   9.335   9.811  10.952 -0.2157  0.8343 -0.0873
  297MOL0     C40892   9.208   9.808  11.039 -0.0980 -1.3256  0.5879
  297MOL0    Cl40893   9.224   9.718  11.188 -0.1039  0.4562  0.3267
  297MOL0     C40894   9.793   9.742  10.310 -0.4348  0.7898  1.0553
  297MOL0     C40895   9.864   9.809  10.207  0.1883 -1.0845  1.0027
  297MOL0     O40896   9.945   9.653   9.851 -0.2430 -0.0829  0.5486
  297MOL0     C40897  10.077   9.930   9.729  0.0509  0.1832 -0.7572
  297MOL0     C40898  10.192   9.985   9.662  0.5916 -0.2094  0.6699
  297MOL0     N40899  10.882  10.024   9.372 -0.4776 -0.7113 -0.1050
  297MOL0     N40900  10.988   9.956   9.353 -0.7181  0.6210  0.3905
  297MOL0     C40901  10.314   9.190   8.694  0.3307  0.6200  0.0186
  297MOL0     C40902  10.183   9.237   8.712 -0.0305 -1.5938  0.2990
  297MOL0     C40903   9.824   9.345   8.996  0.4998 -0.3722  0.9492
  297MOL0     C40904   9.803   9.340   9.135  0.3586  0.3971  1.0615
  297MOL0     C40905   9.698   9.423   9.188 -0.4270  0.2587 -0.2000
  297MOL0     C40906   9.619   9.511   9.112 -0.3770 -0.0070  0.0906
  297MOL0     O40907   9.513   9.595   9.156 -0.3181  0.3744 -0.8917
  297MOL0     C40908   9.488   9.609   9.296 -0.6160  0.8631  0.1731
  297MOL0     C40909   9.388   9.502   9.353  0.9992  0.1678  0.3702
  297MOL0     C40910   9.430   9.425   9.480  0.2791  0.6040 -0.8455
  297MOL0     C40911   9.395   9.499   9.609  0.2275  0.5413 -0.5815
  297MOL0     C40912   9.491   9.592   9.655  0.6812 -0.9166 -0.8722
  297MOL0     C40913   9.591   9.655   9.689  0.6819  0.2135 -0.7481
  297MOL0     C40914   9.637   9.499   8.976  0.8356  0.4633  0.1275
  297MOL0     C40915   9.737   9.414   8.915 -0.3414 -0.6108  0.6439
  297MOL0     C40916   9.745   9.424   8.760  0.4662 -0.1527  0.3757
  297MOL0     H40917  10.212   9.398   9.003  0.0845  1.1045 -1.2581
  297MOL0     H40918  10.449   9.344   8.962  1.1213 -1.1606  0.7593
  297MOL0     H40919  10.725   9.150   8.855 -1.7996 -0.3984 -0.1020
  297MOL0     H40920  10.609   9.224   8.959  3.8295  0.4935  1.4074
  297MOL0     H40921  10.735   9.334   8.715  0.6842 -2.0312  1.5637
  297MOL0     H40922  10.622   9.439   8.817 -0.2399 -0.0648 -0.3665
  297MOL0     H40923  10.884   9.316   8.922 -0.2057 -0.4182  2.6829
  297MOL0     H40924  10.889   9.470   8.847  1.5168 -1.0499 -1.0190
  297MOL0     H40925  10.722   9.567   9.037  0.0338  0.0181  0.0884
  297MOL0     H40926  10.740   9.418   9.111  0.1509  0.9871  0.7285
  297MOL0     H40927  10.965   9.620   9.023  0.7612 -1.8424 -2.1834
  297MOL0     H40928  11.008   9.469   9.093  1.3265  0.2109 -2.2089
  297MOL0     H40929  10.861   9.689   9.231 -2.0723 -0.1975  0.9330
  297MOL0     H40930  10.884   9.523   9.308  1.5739 -4.2445 -3.7107
  297MOL0     H40931  11.077   9.729   9.189  2.6040 -0.6885 -0.4931
  297MOL0     H40932  11.132   9.577   9.254 -2.5387 -2.0029  0.1616
  297MOL0     H40933  11.046   9.643   9.484 -5.3764  0.3601  0.3761
  297MOL0     H40934  11.170   9.754   9.405 -0.0425 -0.7692  1.7148
  297MOL0     H40935  10.862   9.784   9.602 -0.6750  0.8914 -0.0008
  297MOL0     H40936  10.770  10.034   9.668 -4.6430 -3.6028  2.9339
  297MOL0     H40937  10.631   9.962   9.576 -0.3358 -0.5246  0.8645
  297MOL0     H40938  10.746  10.232   9.499  0.2086 -0.8944 -0.0334
  297MOL0     H40939  10.634  10.125   9.408 -1.6030  0.0970 -0.2162
  297MOL0     H40940  10.601  10.241   9.690  3.2946  3.5557 -2.3569
  297MOL0     H40941  10.536  10.307   9.551  0.2198 -0.8431 -0.0593
  297MOL0     H40942  10.355  10.190   9.651  2.7586  0.5019  4.1678
  297MOL0     H40943  10.407  10.084   9.505  1.6266 -0.5328 -0.1449
  297MOL0     H40944  10.430   9.806   9.824  1.5771 -0.1801 -2.4498
  297MOL0     H40945  10.352   9.665  10.007  0.7112  0.5330 -0.8606
  297MOL0     H40946  10.237   9.567   9.914 -0.6061  0.9699 -2.4171
  297MOL0     H40947  10.172   9.681  10.036  1.3519  1.5613  0.8233
  297MOL0     H40948   9.719   9.684   9.939 -0.5686 -2.8039  0.3618
  297MOL0     H40949   9.583   9.557  10.112 -0.4600  1.1082 -3.5737
  297MOL0     H40950   9.721   9.465  10.464  0.6222 -0.0228 -0.6015
  297MOL0     H40951   9.712   9.631  10.532  0.2342 -2.1713  2.6734
  297MOL0     H40952   9.511   9.407  10.510  3.8649 -2.4431  0.8857
  297MOL0     H40953   9.590   9.462  10.660  0.4153 -1.0406 -0.6372
  297MOL0     H40954   9.355   9.553  10.649 -2.5796  3.1152 -0.4418
  297MOL0     H40955   9.390   9.624  10.492  0.7047 -2.3432 -1.0429
  297MOL0     H40956   9.388   9.795  10.659 -0.5401  0.0517  3.0009
  297MOL0     H40957   9.562   9.780  10.632  1.5746 -0.7068  0.0524
  297MOL0     H40958   9.566   9.603  10.822 -0.8495 -1.0318 -0.5580
  297MOL0     H40959   9.575   9.771  10.850 -0.7835  0.3997  0.6159
  297MOL0     H40960   9.422   9.606  11.002 -1.2688 -1.9853 -0.4353
  297MOL0     H40961   9.319   9.604  10.862  2.9648 -2.3401 -0.9517
  297MOL0     H40962   9.320   9.872  10.862 -0.1058 -1.8942 -2.0575
  297MOL0     H40963   9.409   9.861  11.016 -0.1693 -1.7236  2.0298
  297MOL0     H40964   9.129   9.774  10.972 -1.0584  3.2853 -1.0178
  297MOL0     H40965   9.189   9.912  11.069  0.3072 -1.8376  2.7965
  297MOL0     H40966   9.825   9.751  10.413 -0.0746 -1.0354  1.1416
  297MOL0     H40967   9.936   9.887  10.227 -0.2070 -0.7873  1.2813
  297MOL0     H40968   9.976   9.960   9.700 -1.8161 -2.5620  2.1860
  297MOL0     H40969  10.168  10.069   9.597 -0.8218 -2.5520 -2.0745
  297MOL0     H40970  10.355   9.142   8.607 -0.3448  0.9538 -0.4987
  297MOL0     H40971  10.097   9.237   8.646 -1.1539  2.0693  1.5161
  297MOL0     H40972   9.868   9.275   9.192  1.4511 -0.6208 -1.1909
  297MOL0     H40973   9.683   9.405   9.294 -4.1426 -3.1011 -1.0453
  297MOL0     H40974   9.587   9.612   9.343  0.1120 -4.4952 -0.3613
  297MOL0     H40975   9.441   9.706   9.316 -0.2624  1.2189 -0.6879
  297MOL0     H40976   9.361   9.430   9.275  0.9226 -2.1594  2.4317
  297MOL0     H40977   9.303   9.565   9.377 -0.2271 -1.5122  0.5859
  297MOL0     H40978   9.381   9.328   9.479 -0.3753  0.9302 -2.0751
  297MOL0     H40979   9.537   9.403   9.488  0.4445  1.9584  3.8452
  297MOL0     H40980   9.389   9.421   9.685 -0.4879  0.8557 -0.3089
  297MOL0     H40981   9.296   9.546   9.603 -0.5271 -0.4756  2.3777
  297MOL0     H40982   9.678   9.713   9.712 -0.3979  0.9152  1.9390
  297MOL0     H40983   9.567   9.550   8.910 -0.8157 -0.1140  1.3927
  297MOL0     H40984   9.818   9.499   8.730 -0.4658  0.0746 -1.4424
  297MOL0     H40985   9.773   9.330   8.711  0.1133  0.4700 -1.0630
  297MOL0     H40986   9.646   9.443   8.717  1.2166 -1.0551 -1.9238
  298MOL0     O40987   6.537   1.114   0.916 -0.4825  0.0001 -0.2524
  298MOL0     C40988   6.557   1.236   0.890  0.4804  0.6367  0.7403
  298MOL0     O40989   6.560   1.284   0.759 -0.1745 -0.7037  0.6885
  298MOL0     C40990   6.569   1.198   0.646  0.4712  0.1500 -0.1276
  298MOL0     C40991   6.622   1.264   0.530 -0.3555 -0.7297 -0.4907
  298MOL0     C40992   6.632   1.199   0.416  0.5846 -0.9061 -0.0873
  298MOL0     C40993   6.597   1.062   0.392 -0.3881  0.5776 -0.1529
  298MOL0     O40994   6.630   0.989   0.284 -0.4947 -0.3726 -0.2241
  298MOL0     C40995   6.758   1.017   0.215  0.5208 -0.2764 -0.8961
  298MOL0     C40996   6.728   1.102   0.093  0.4783  0.1279  0.1360
  298MOL0     C40997   6.606   1.057   0.009 -0.9581 -0.3206  1.2044
  298MOL0     C40998   6.594   1.157  -0.112 -0.2618 -0.4689 -0.7025
  298MOL0     C40999   6.548   1.296  -0.069 -0.8456  0.3092 -0.5368
  298MOL0     C41000   6.402   1.288  -0.081  1.2423  0.2808  1.0510
  298MOL0     C41001   6.339   1.406  -0.022  0.2408  0.4756  0.4374
  298MOL0     C41002   6.314   1.524  -0.116  0.0050 -0.2424  0.2129
  298MOL0     N41003   6.252   1.643  -0.055  0.3393 -0.2504  0.1746
  298MOL0     C41004   6.253   1.674   0.080  0.2961  0.5529 -0.0650
  298MOL0     C41005   6.194   1.795   0.099  0.2953  0.6421 -0.6993
  298MOL0     C41006   6.176   1.877   0.215 -0.3268 -0.0374 -0.1296
  298MOL0     C41007   6.082   1.819   0.320  0.6433  0.4866  0.7479
  298MOL0     C41008   5.939   1.806   0.269 -0.0614  0.0969 -0.7496
  298MOL0     C41009   5.868   1.939   0.231  0.8243  0.0816 -0.2632
  298MOL0     O41010   5.862   1.951   0.094 -0.2054  0.6175  0.3802
  298MOL0     C41011   5.811   2.071   0.038 -0.2565 -0.5194 -1.0446
  298MOL0     C41012   5.842   2.097  -0.092  0.1574  0.5634 -0.6046
  298MOL0     C41013   5.811   2.215  -0.159 -0.7408  0.2387 -0.1785
  298MOL0     C41014   5.865   2.237  -0.303  0.3034 -0.0639  0.6687
  298MOL0     C41015   5.736   2.307  -0.083 -1.0837 -1.1143 -0.4589
  298MOL0     C41016   5.700   2.437  -0.143  0.7475  1.2609 -0.7393
  298MOL0     O41017   5.797   2.507  -0.192  0.0747 -0.7777 -0.5987
  298MOL0     C41018   5.781   2.632  -0.243  0.3621  0.0189  0.2394
  298MOL0     C41019   5.747   2.729  -0.157  0.4062  0.2896  0.6769
  298MOL0     C41020   5.755   2.862  -0.197 -0.5864 -0.2416 -0.4221
  298MOL0     C41021   5.794   2.898  -0.333  0.9644  1.1935 -0.1395
  298MOL0     O41022   5.794   3.025  -0.374  0.2609  0.1438 -0.9647
  298MOL0     C41023   5.674   3.065  -0.435  0.1306 -0.5753  0.3030
  298MOL0     C41024   5.661   3.216  -0.462 -0.3597 -0.5934  0.1060
  298MOL0     C41025   5.783   3.261  -0.528  0.0087 -0.4305 -0.0134
  298MOL0     C41026   5.750   3.361  -0.638  0.5339 -0.1238  0.7875
  298MOL0     C41027   5.705   3.296  -0.768 -0.0487 -0.7795  0.1502
  298MOL0     C41028   5.642   3.387  -0.868  0.2628 -0.5006  1.3303
  298MOL0     C41029   5.666   3.328  -1.012 -0.0851  1.0834  0.2801
  298MOL0     C41030   5.591   3.427  -1.102  0.6650 -0.7277 -0.8809
  298MOL0    Cl41031   5.607   3.606  -1.061 -0.1371 -0.0712 -0.4628
  298MOL0     C41032   5.831   2.792  -0.421 -0.2514  0.1227  0.4880
  298MOL0     C41033   5.832   2.657  -0.369 -0.1531  0.5087  0.2813
  298MOL0     O41034   5.576   2.465  -0.140  0.7934 -0.0116  0.4455
  298MOL0     C41035   5.702   2.283   0.049 -0.7192  0.5228 -0.5116
  298MOL0     C41036   5.733   2.164   0.104 -0.1790 -0.9852 -0.8637
  298MOL0     N41037   6.180   1.848  -0.027 -0.0022  0.2398  0.1361
  298MOL0     N41038   6.216   1.756  -0.115  0.7818 -0.3547 -1.1895
  298MOL0     C41039   6.545   0.988   0.505 -0.4971 -0.4566 -0.1785
  298MOL0     C41040   6.528   1.067   0.626  0.9090 -0.5898  0.1086
  298MOL0     C41041   6.577   1.345   0.989 -0.7811  0.0047 -0.8502
  298MOL0     C41042   6.604   1.474   0.943 -0.3621  1.2192 -0.0546
  298MOL0     C41043   6.644   1.582   1.024 -0.6093  0.7126  0.3076
  298MOL0     C41044   6.634   1.568   1.160 -0.4830  0.5675  0.8577
  298MOL0     O41045   6.661   1.676   1.245 -0.8811 -0.5283  0.4248
  298MOL0     C41046   6.692   1.805   1.190  0.3470 -1.0897  0.4804
  298MOL0     C41047   6.834   1.824   1.168  0.5239 -0.1874  0.3160
  298MOL0     C41048   6.895   1.968   1.183  0.1820  0.5870  0.8132
  298MOL0     C41049   6.822   2.083   1.108 -0.3507  0.2606  0.3310
  298MOL0     C41050   6.792   2.041   0.969 -0.2393 -0.1402  0.6195
  298MOL0     C41051   6.727   2.016   0.868 -0.7031 -0.0533 -0.2243
  298MOL0     C41052   6.624   1.438   1.212 -0.7913 -0.7949  0.0078
  298MOL0     C41053   6.586   1.325   1.132 -0.8372 -0.2902 -0.7453
  298MOL0     C41054   6.561   1.193   1.203 -0.2870  0.3557  0.2221
  298MOL0     H41055   6.645   1.367   0.552  2.2784 -1.4883  0.6404
  298MOL0     H41056   6.657   1.255   0.326 -1.3789  0.2623  0.0274
  298MOL0     H41057   6.809   0.929   0.176 -1.1718 -1.1796 -1.1537
  298MOL0     H41058   6.827   1.062   0.288 -1.1293 -2.2959  2.1286
  298MOL0     H41059   6.715   1.200   0.138  0.9477 -0.6982  2.1881
  298MOL0     H41060   6.816   1.105   0.028  1.1323  0.2310  1.0056
  298MOL0     H41061   6.630   0.959  -0.034 -2.0480  1.4572 -4.1199
  298MOL0     H41062   6.522   1.043   0.078 -0.5255 -2.4468  1.3813
  298MOL0     H41063   6.697   1.164  -0.148  0.0373  1.1842  0.3242
  298MOL0     H41064   6.541   1.117  -0.199 -1.1054 -1.2867  0.1622
  298MOL0     H41065   6.592   1.374  -0.133 -4.0339  2.3861 -0.4097
  298MOL0     H41066   6.560   1.323   0.037  1.8249  0.6120 -0.8331
  298MOL0     H41067   6.390   1.273  -0.188  2.0290  3.2669  0.4564
  298MOL0     H41068   6.368   1.200  -0.025  0.2511 -1.5107 -2.1337
  298MOL0     H41069   6.393   1.438   0.067  0.9709 -1.3136  0.6776
  298MOL0     H41070   6.236   1.378   0.003 -0.6970 -2.9305 -5.2366
  298MOL0     H41071   6.410   1.556  -0.159 -0.3842  1.1602  0.3650
  298MOL0     H41072   6.251   1.488  -0.198  2.0861 -1.8151 -0.8173
  298MOL0     H41073   6.290   1.612   0.161  0.1240  1.9421  1.1113
  298MOL0     H41074   6.137   1.973   0.179 -0.5706 -1.2125 -3.3265
  298MOL0     H41075   6.278   1.894   0.251 -0.4801  2.5804 -0.7339
  298MOL0     H41076   6.120   1.729   0.370 -1.5210  0.4793  2.5024
  298MOL0     H41077   6.091   1.890   0.403  4.7472  0.2743  0.6870
  298MOL0     H41078   5.935   1.747   0.177  2.5741  2.9644 -2.9400
  298MOL0     H41079   5.881   1.756   0.346  0.0909  1.1841  0.1036
  298MOL0     H41080   5.764   1.933   0.265 -0.1960 -0.6967 -3.2533
  298MOL0     H41081   5.907   2.025   0.286 -3.6557  1.3704  1.3094
  298MOL0     H41082   5.909   2.023  -0.135  2.6546  0.1729  3.4174
  298MOL0     H41083   5.945   2.312  -0.300  1.6629 -1.0510 -3.6093
  298MOL0     H41084   5.772   2.270  -0.351 -0.1761  2.4077  3.0459
  298MOL0     H41085   5.895   2.150  -0.361 -0.7628  2.1465 -3.5868
  298MOL0     H41086   5.700   2.700  -0.063 -3.7855  0.6273 -1.1189
  298MOL0     H41087   5.730   2.939  -0.124  3.6106  0.3278  0.6465
  298MOL0     H41088   5.666   3.024  -0.536  0.3899  1.0862 -0.4392
  298MOL0     H41089   5.584   3.028  -0.384 -0.9905 -0.3582 -1.4264
  298MOL0     H41090   5.573   3.213  -0.527 -0.7165 -2.8119  0.5999
  298MOL0     H41091   5.632   3.273  -0.374 -1.1764 -1.4989  0.4426
  298MOL0     H41092   5.842   3.179  -0.571 -1.0776 -0.9484 -0.5804
  298MOL0     H41093   5.844   3.293  -0.443  0.4707 -1.8670  0.2399
  298MOL0     H41094   5.837   3.413  -0.678  0.1415 -0.9082 -1.2201
  298MOL0     H41095   5.683   3.440  -0.603 -0.0639  0.8750 -2.2294
  298MOL0     H41096   5.796   3.257  -0.815 -0.5216 -1.4258 -0.2307
  298MOL0     H41097   5.635   3.215  -0.748 -3.6306  2.3336  1.4231
  298MOL0     H41098   5.697   3.480  -0.849 -0.7519 -0.0012  1.8793
  298MOL0     H41099   5.536   3.397  -0.841 -0.1597  1.6932 -0.8050
  298MOL0     H41100   5.617   3.233  -1.032 -1.6618  2.0727 -0.7131
  298MOL0     H41101   5.772   3.322  -1.041 -0.4699  4.0707 -2.2566
  298MOL0     H41102   5.486   3.397  -1.090 -1.3297  4.3635 -2.7373
  298MOL0     H41103   5.623   3.411  -1.205 -0.1024 -1.5729 -1.0012
  298MOL0     H41104   5.869   2.826  -0.517 -3.5686  0.8235 -0.6870
  298MOL0     H41105   5.857   2.575  -0.436  0.4154  0.4822  0.5213
  298MOL0     H41106   5.645   2.360   0.100 -0.2647  0.3192  0.3162
  298MOL0     H41107   5.712   2.151   0.210  1.2634  1.9191 -0.1172
  298MOL0     H41108   6.513   0.885   0.496 -3.0809  0.1096  1.5250
  298MOL0     H41109   6.478   1.025   0.713 -2.7091  1.6456 -0.6891
  298MOL0     H41110   6.627   1.483   0.837  2.9659 -3.5648 -0.0409
  298MOL0     H41111   6.683   1.664   0.965  1.8530 -1.1079 -0.7488
  298MOL0     H41112   6.639   1.831   1.098  1.5506  0.0229  0.0573
  298MOL0     H41113   6.665   1.890   1.253 -2.1154 -0.5542 -1.1422
  298MOL0     H41114   6.870   1.778   1.075 -0.0713  2.4793 -1.3652
  298MOL0     H41115   6.884   1.776   1.252  2.3063 -1.0707 -1.1673
  298MOL0     H41116   6.903   1.991   1.289  0.6822  2.5650  0.3929
  298MOL0     H41117   6.994   1.963   1.136 -1.1085 -0.1812 -2.0660
  298MOL0     H41118   6.883   2.174   1.106 -3.4221  2.4784 -1.1124
  298MOL0     H41119   6.733   2.108   1.166 -0.9649 -2.7364  0.8303
  298MOL0     H41120   6.677   1.994   0.776  0.4739  0.4854 -1.0149
  298MOL0     H41121   6.631   1.425   1.319 -0.7741  2.2535  0.4439
  298MOL0     H41122   6.643   1.126   1.175 -1.6132 -0.7577 -1.1632
  298MOL0     H41123   6.570   1.191   1.312 -0.4531  0.2995  0.2364
  298MOL0     H41124   6.466   1.150   1.168  1.4540 -1.1905 -2.9684
  299MOL0     O41125   6.153  11.595   0.212 -1.0062 -0.5484  0.7428
  299MOL0     C41126   6.077  11.496   0.213  0.2207 -0.4945 -0.0762
  299MOL0     O41127   6.000  11.448   0.315 -0.2222  0.5146  0.0923
  299MOL0     C41128   5.984  11.519   0.434  0.8473  0.0672  0.9997
  299MOL0     C41129   5.853  11.550   0.479 -0.8744 -0.4186 -0.0800
  299MOL0     C41130   5.842  11.626   0.603  0.0077  0.2160 -1.2462
  299MOL0     C41131   5.954  11.675   0.680  0.0677 -0.7463  1.0918
  299MOL0     O41132   5.941  11.777   0.778  0.7581 -0.3074  0.2971
  299MOL0     C41133   6.016  11.754   0.897  0.0730 -0.4110 -0.2334
  299MOL0     C41134   6.130  11.860   0.956  0.2691 -0.0666 -0.7194
  299MOL0     C41135   6.078  12.003   0.971 -1.3193  0.4673  0.0458
  299MOL0     C41136   6.196  12.097   1.001 -0.0686 -1.1911  0.0504
  299MOL0     C41137   6.152  12.240   0.975  0.4677  0.7902  0.1105
  299MOL0     C41138   6.264  12.338   1.007 -0.1303  0.0321  0.1136
  299MOL0     C41139   6.197  12.481   1.039 -0.2858  0.0413 -1.4421
  299MOL0     C41140   6.206  12.583   0.928 -0.5746 -1.2669  0.0370
  299MOL0     N41141   6.110  12.696   0.967  0.3459 -0.2681 -0.7101
  299MOL0     C41142   5.979  12.703   0.936 -0.5593  0.8260 -0.4018
  299MOL0     C41143   5.919  12.817   0.982  0.6771  0.8690  0.0469
  299MOL0     C41144   5.781  12.868   0.958  0.4161 -0.5959 -0.5832
  299MOL0     C41145   5.738  12.903   0.819 -0.8707 -0.6089  0.8957
  299MOL0     C41146   5.815  13.017   0.745 -0.0501  0.9517 -0.4175
  299MOL0     C41147   5.781  13.038   0.595 -0.1402  0.0114  0.4315
  299MOL0     O41148   5.720  12.924   0.543 -0.3284  0.2904  0.5841
  299MOL0     C41149   5.772  12.886   0.428 -0.3932 -0.2820  0.1065
  299MOL0     C41150   5.770  12.975   0.319  0.6434 -0.6935  0.2606
  299MOL0     C41151   5.843  12.945   0.203 -0.8308 -0.2624  0.0220
  299MOL0     C41152   5.871  13.057   0.106  0.3428 -0.3048  0.1350
  299MOL0     C41153   5.916  12.826   0.192  1.2345  0.0985 -0.4997
  299MOL0     C41154   6.000  12.785   0.082  1.2360  1.1203  0.0826
  299MOL0     O41155   6.010  12.648   0.069  0.4752 -0.0183 -0.7105
  299MOL0     C41156   6.082  12.592  -0.038 -0.8178 -0.4293  1.4050
  299MOL0     C41157   6.051  12.602  -0.173 -0.8059  0.4268 -0.0834
  299MOL0     C41158   6.119  12.523  -0.269  0.3705  0.0657  0.2891
  299MOL0     C41159   6.230  12.452  -0.232 -0.3536  0.8341  0.1911
  299MOL0     O41160   6.296  12.385  -0.334 -0.4023  0.0202  0.3992
  299MOL0     C41161   6.382  12.267  -0.308  0.2710  0.3063 -0.4315
  299MOL0     C41162   6.529  12.302  -0.291 -0.1106 -0.9846  0.1872
  299MOL0     C41163   6.580  12.378  -0.419 -0.2736 -0.4251  0.0746
  299MOL0     C41164   6.729  12.403  -0.424 -0.4866  0.0447  0.0096
  299MOL0     C41165   6.829  12.292  -0.441 -0.3681  0.3600 -0.5038
  299MOL0     C41166   6.980  12.316  -0.400  0.7692 -0.4502  0.6082
  299MOL0     C41167   7.063  12.190  -0.426  0.2016  0.1970  0.4386
  299MOL0     C41168   7.195  12.197  -0.361  0.0045  0.2672 -0.1018
  299MOL0    Cl41169   7.289  12.346  -0.406  0.1602  0.5528  0.5782
  299MOL0     C41170   6.268  12.444  -0.100  0.0864 -0.0235 -0.8337
  299MOL0     C41171   6.195  12.514  -0.004  1.1364  0.2325 -0.0100
  299MOL0     O41172   6.040  12.865   0.000 -0.4600 -0.1055  0.4936
  299MOL0     C41173   5.894  12.733   0.303  0.4263  0.5286  0.4090
  299MOL0     C41174   5.824  12.759   0.423 -0.2640 -0.2251  0.6669
  299MOL0     N41175   6.027  12.885   1.040  0.5312 -1.0779  0.0744
  299MOL0     N41176   6.134  12.819   1.034 -0.0919  0.6581  0.4202
  299MOL0     C41177   6.081  11.640   0.626 -0.0989  0.5619  1.2043
  299MOL0     C41178   6.091  11.566   0.507 -0.3740 -1.3451  0.5614
  299MOL0     C41179   6.065  11.422   0.078  0.9050 -0.4214  0.3150
  299MOL0     C41180   5.969  11.317   0.065 -1.3978 -1.2928  0.1200
  299MOL0     C41181   5.952  11.244  -0.048  0.3969 -0.2413 -0.4174
  299MOL0     C41182   6.025  11.280  -0.162 -0.0478  0.2229  0.1977
  299MOL0     O41183   6.021  11.215  -0.280 -0.4057 -0.4768  0.8093
  299MOL0     C41184   5.956  11.090  -0.292  0.7567 -0.7118  0.7024
  299MOL0     C41185   6.029  10.963  -0.224  0.1919  0.2261  0.6776
  299MOL0     C41186   5.969  10.823  -0.272  0.4416 -0.1259 -0.1618
  299MOL0     C41187   5.998  10.721  -0.162 -0.7658 -0.3022  0.2691
  299MOL0     C41188   6.141  10.679  -0.148  0.0963 -0.6507 -0.0670
  299MOL0     C41189   6.258  10.641  -0.140 -0.3152 -0.0748 -0.3415
  299MOL0     C41190   6.122  11.376  -0.155 -0.6252  0.1466  0.0883
  299MOL0     C41191   6.141  11.452  -0.038  0.3401 -0.7196  0.1508
  299MOL0     C41192   6.248  11.565  -0.066  0.4534  0.3881  0.6462
  299MOL0     H41193   5.760  11.520   0.434 -1.0898  1.7506 -1.1888
  299MOL0     H41194   5.741  11.651   0.636  0.8455  0.8027  1.0251
  299MOL0     H41195   6.055  11.652   0.899  2.3723  0.3943  3.1360
  299MOL0     H41196   5.939  11.745   0.974 -0.3839 -1.2114 -0.7580
  299MOL0     H41197   6.175  11.820   1.048  1.7854 -4.5554 -3.1211
  299MOL0     H41198   6.219  11.870   0.893 -0.7849  0.2664 -2.2161
  299MOL0     H41199   6.028  12.029   0.877  4.0464  2.0930 -2.7696
  299MOL0     H41200   6.002  12.016   1.049  1.1187  2.7501  2.2426
  299MOL0     H41201   6.239  12.087   1.101 -1.8368 -1.5046  0.8245
  299MOL0     H41202   6.279  12.084   0.931  1.8104 -0.2743  2.0121
  299MOL0     H41203   6.071  12.247   1.048  1.6210 -0.7898  1.6330
  299MOL0     H41204   6.108  12.258   0.876  1.4260 -0.5355 -0.5893
  299MOL0     H41205   6.322  12.299   1.091 -1.3767 -2.5809 -0.1414
  299MOL0     H41206   6.337  12.348   0.926  1.1093 -0.4337  1.1389
  299MOL0     H41207   6.255  12.519   1.124 -3.2420  0.9949  0.3237
  299MOL0     H41208   6.093  12.472   1.074  0.3140 -2.3728 -0.0558
  299MOL0     H41209   6.305  12.629   0.923 -1.0833 -0.2925 -1.8389
  299MOL0     H41210   6.182  12.541   0.830  0.7558  2.3751 -2.0441
  299MOL0     H41211   5.933  12.643   0.857  0.6299 -0.3813 -0.2165
  299MOL0     H41212   5.770  12.958   1.018 -0.8530 -3.7740  4.6182
  299MOL0     H41213   5.708  12.797   1.000  0.4172 -0.3501 -0.1623
  299MOL0     H41214   5.755  12.811   0.762 -0.7501 -0.8311  1.2802
  299MOL0     H41215   5.630  12.922   0.824 -0.8453 -0.1162 -0.2834
  299MOL0     H41216   5.815  13.112   0.800  0.1541  1.2728 -0.9633
  299MOL0     H41217   5.918  12.980   0.748 -0.4710 -0.4084 -1.5899
  299MOL0     H41218   5.711  13.119   0.576  0.9315  1.4944  2.4807
  299MOL0     H41219   5.863  13.083   0.538  1.7061 -2.9156  0.5807
  299MOL0     H41220   5.732  13.076   0.322  1.8691 -0.1419 -1.1791
  299MOL0     H41221   5.863  13.022   0.002  0.0319 -0.5032  0.2251
  299MOL0     H41222   5.971  13.098   0.125 -0.6002  1.9955  0.4518
  299MOL0     H41223   5.795  13.133   0.125  1.7404  1.8448 -2.2249
  299MOL0     H41224   5.967  12.660  -0.212 -0.9774 -0.7109 -1.5011
  299MOL0     H41225   6.084  12.518  -0.371  1.4875  0.3387 -0.1264
  299MOL0     H41226   6.340  12.215  -0.221 -2.5288 -0.5823 -2.1994
  299MOL0     H41227   6.379  12.194  -0.389  1.3537  2.3825 -2.4395
  299MOL0     H41228   6.539  12.374  -0.209 -2.5453  3.1813 -2.7476
  299MOL0     H41229   6.590  12.212  -0.283  3.4089  1.3569  2.4710
  299MOL0     H41230   6.532  12.476  -0.425 -1.1944 -0.7708  1.3681
  299MOL0     H41231   6.563  12.328  -0.515  0.0915  3.5827 -2.2837
  299MOL0     H41232   6.757  12.436  -0.324 -1.3216 -2.9055  1.3223
  299MOL0     H41233   6.743  12.490  -0.489 -0.2659  1.2457  1.6002
  299MOL0     H41234   6.791  12.210  -0.379 -0.1816  0.6177 -0.0444
  299MOL0     H41235   6.835  12.256  -0.544 -2.7291 -2.0927  0.0955
  299MOL0     H41236   6.973  12.335  -0.293 -0.7088  0.8924  0.2903
  299MOL0     H41237   7.022  12.400  -0.456  2.8293 -2.3541 -0.9271
  299MOL0     H41238   7.075  12.180  -0.534  0.2835  0.6417  0.4049
  299MOL0     H41239   7.015  12.097  -0.392 -1.0628  0.7629  0.2524
  299MOL0     H41240   7.243  12.108  -0.404  1.6121  2.6908 -3.9417
  299MOL0     H41241   7.198  12.188  -0.252  1.1763  0.6348 -0.0948
  299MOL0     H41242   6.352  12.378  -0.081 -0.3518  0.1537  2.1241
  299MOL0     H41243   6.239  12.499   0.094  3.4321 -0.5456 -1.0799
  299MOL0     H41244   5.950  12.642   0.288 -3.4650 -2.5973  2.7937
  299MOL0     H41245   5.821  12.684   0.502  2.0733  1.2859  2.3324
  299MOL0     H41246   6.173  11.675   0.672  0.5880  1.5990 -0.8173
  299MOL0     H41247   6.188  11.536   0.469  0.6158  2.4550 -0.3070
  299MOL0     H41248   5.891  11.293   0.136 -1.3370  1.9794  1.4657
  299MOL0     H41249   5.868  11.175  -0.049  0.3591 -0.1958 -1.3807
  299MOL0     H41250   5.853  11.104  -0.257  0.1348  0.5878 -1.4319
  299MOL0     H41251   5.930  11.076  -0.398  1.1023 -0.0721  0.5264
  299MOL0     H41252   6.049  10.974  -0.117  1.7922 -1.9720  0.6749
  299MOL0     H41253   6.132  10.957  -0.261  0.2197  0.0896  0.7763
  299MOL0     H41254   5.863  10.832  -0.294  0.7585  0.0046 -1.7757
  299MOL0     H41255   6.022  10.792  -0.363 -1.3271  0.0040 -1.2765
  299MOL0     H41256   5.943  10.628  -0.182 -2.3846  1.1987 -3.1116
  299MOL0     H41257   5.954  10.761  -0.070 -1.9192  1.4819 -0.9858
  299MOL0     H41258   6.363  10.626  -0.156 -0.4491 -1.5298 -0.0122
  299MOL0     H41259   6.184  11.389  -0.244 -1.9864 -2.4831 -1.3516
  299MOL0     H41260   6.344  11.521  -0.037 -1.3519 -3.3284  1.7218
  299MOL0     H41261   6.258  11.587  -0.173  0.9399 -1.0991  0.3531
  299MOL0     H41262   6.229  11.660  -0.016 -0.2348  0.0191  1.1075
  300MOL0     O41263   1.676  11.407   8.114  0.3927 -0.3739 -0.3172
  300MOL0     C41264   1.570  11.451   8.162  0.0513 -0.1034  0.0029
  300MOL0     O41265   1.465  11.496   8.089  0.1066  0.4287 -0.1408
  300MOL0     C41266   1.490  11.515   7.955  1.3104 -0.5224 -0.1483
  300MOL0     C41267   1.539  11.637   7.906 -0.4859  0.0258  0.2472
  300MOL0     C41268   1.575  11.645   7.770 -0.1048 -0.3043  1.1263
  300MOL0     C41269   1.580  11.538   7.683  0.2758 -0.2912 -0.3388
  300MOL0     O41270   1.635  11.532   7.559  0.7956  0.0242  0.4278
  300MOL0     C41271   1.665  11.658   7.491 -0.0025  0.1201  1.0556
  300MOL0     C41272   1.686  11.629   7.339 -0.6765 -0.6344 -1.0256
  300MOL0     C41273   1.557  11.564   7.279  0.4411  0.2621 -0.0174
  300MOL0     C41274   1.574  11.554   7.133  0.7299  0.0009  0.2267
  300MOL0     C41275   1.457  11.505   7.040 -0.1015 -0.2697 -0.9425
  300MOL0     C41276   1.417  11.367   7.094 -0.0686  0.4348 -0.5102
  300MOL0     C41277   1.313  11.301   7.007  0.7220  0.1564 -0.9151
  300MOL0     C41278   1.170  11.330   7.043 -0.0898 -0.3624  0.2891
  300MOL0     N41279   1.090  11.242   6.956  0.3289  0.2028  0.8984
  300MOL0     C41280   1.100  11.103   6.930 -1.0577 -0.6512 -0.2627
  300MOL0     C41281   1.006  11.076   6.835  0.1647 -0.5702 -0.0506
  300MOL0     C41282   0.957  10.939   6.783 -0.3804  0.5468  0.0358
  300MOL0     C41283   0.883  10.861   6.895  1.0901 -0.1891 -0.7888
  300MOL0     C41284   0.747  10.927   6.914  0.5863  0.9126 -0.3005
  300MOL0     C41285   0.634  10.829   6.941  0.1751  0.4260  0.5036
  300MOL0     O41286   0.686  10.750   7.046  0.7786  0.1510  0.0069
  300MOL0     C41287   0.598  10.690   7.130  0.1850 -0.3149 -0.6600
  300MOL0     C41288   0.542  10.566   7.097 -0.4182  0.4488 -0.1275
  300MOL0     C41289   0.467  10.488   7.198  0.2620 -0.4832 -1.1287
  300MOL0     C41290   0.409  10.357   7.143  0.2659  0.4387  0.3325
  300MOL0     C41291   0.442  10.540   7.323 -0.0314  0.3719 -0.3837
  300MOL0     C41292   0.365  10.467   7.437 -0.5946  0.0412 -0.2498
  300MOL0     O41293   0.367  10.540   7.556  0.0012 -0.6328 -0.5986
  300MOL0     C41294   0.340  10.471   7.673  0.8293  0.8448  0.3352
  300MOL0     C41295   0.394  10.341   7.695 -1.3107  0.0185 -0.7724
  300MOL0     C41296   0.374  10.279   7.818 -0.6916 -0.6410  0.2130
  300MOL0     C41297   0.306  10.347   7.924 -0.4929 -0.5662  0.1528
  300MOL0     O41298   0.301  10.302   8.045  0.2433  0.3951 -1.0733
  300MOL0     C41299   0.329  10.161   8.076 -0.1243 -0.4234 -0.8407
  300MOL0     C41300   0.334  10.135   8.222 -0.0054 -0.1535  0.3622
  300MOL0     C41301   0.188  10.138   8.276 -0.0786  0.2587 -0.6928
  300MOL0     C41302   0.170  10.146   8.431  0.2468 -0.4274 -0.5878
  300MOL0     C41303   0.024  10.173   8.465 -0.7180 -0.1964 -0.0171
  300MOL0     C41304  -0.072  10.065   8.417 -0.0767  0.3465  0.1594
  300MOL0     C41305  -0.209  10.080   8.495  0.1104 -0.1640 -0.6097
  300MOL0     C41306  -0.330  10.008   8.439  0.3937  0.4036  0.0079
  300MOL0    Cl41307  -0.309   9.831   8.435  0.2383  0.5450 -0.1898
  300MOL0     C41308   0.247  10.467   7.901  0.5343 -0.2298  0.2816
  300MOL0     C41309   0.266  10.529   7.778  1.2038 -0.5273 -0.5968
  300MOL0     O41310   0.305  10.360   7.415 -0.2586 -0.8831  0.4776
  300MOL0     C41311   0.493  10.669   7.347 -0.2616 -0.7861 -0.3721
  300MOL0     C41312   0.570  10.746   7.253 -0.4807 -0.0874  0.2020
  300MOL0     N41313   0.942  11.195   6.813 -0.3419 -0.4239  0.0380
  300MOL0     N41314   0.994  11.295   6.874 -0.2257 -0.7164  0.3937
  300MOL0     C41315   1.530  11.413   7.735  0.6048 -0.5898  0.5980
  300MOL0     C41316   1.482  11.405   7.865  1.0185  0.2501 -0.4328
  300MOL0     C41317   1.571  11.449   8.312  0.3486  0.4315 -0.3975
  300MOL0     C41318   1.458  11.498   8.384  0.1527 -0.1283 -0.2912
  300MOL0     C41319   1.450  11.488   8.528 -0.0527 -0.7268  0.6899
  300MOL0     C41320   1.546  11.428   8.605 -0.7809 -0.1364 -0.2008
  300MOL0     O41321   1.549  11.419   8.742 -0.6483  0.3902 -0.0903
  300MOL0     C41322   1.443  11.492   8.814  0.6577  0.5291 -0.0410
  300MOL0     C41323   1.430  11.447   8.958  0.1675 -0.0699  0.1998
  300MOL0     C41324   1.328  11.336   8.968  0.3297 -0.0857 -0.0084
  300MOL0     C41325   1.308  11.315   9.121 -0.2171  0.6561  0.1100
  300MOL0     C41326   1.188  11.244   9.144 -0.3000 -0.2972  1.6051
  300MOL0     C41327   1.076  11.200   9.159  0.1354  0.6418 -0.9046
  300MOL0     C41328   1.661  11.375   8.535 -0.4659  0.4424  0.8373
  300MOL0     C41329   1.671  11.398   8.391  0.7906 -0.3339 -0.7936
  300MOL0     C41330   1.815  11.364   8.340  0.3879  0.3748 -0.8051
  300MOL0     H41331   1.548  11.724   7.971 -1.6039  0.7282 -0.4982
  300MOL0     H41332   1.623  11.735   7.731  1.5707 -1.5233  0.2727
  300MOL0     H41333   1.749  11.703   7.543  0.3459 -1.8384  2.2795
  300MOL0     H41334   1.575  11.721   7.498 -0.5393 -0.2075 -1.7536
  300MOL0     H41335   1.712  11.730   7.308 -0.4440  1.1586  4.0254
  300MOL0     H41336   1.776  11.567   7.335  0.1360  0.2826  1.1086
  300MOL0     H41337   1.538  11.468   7.328 -0.3104 -0.4305 -1.6196
  300MOL0     H41338   1.477  11.635   7.301 -0.5538 -0.2437 -1.8617
  300MOL0     H41339   1.599  11.654   7.098  4.0103 -1.0542 -0.8162
  300MOL0     H41340   1.655  11.484   7.110 -0.5809 -1.5185  0.0104
  300MOL0     H41341   1.488  11.502   6.935  1.7004  0.1389 -0.4427
  300MOL0     H41342   1.371  11.570   7.056 -1.3268 -2.5304  2.9242
  300MOL0     H41343   1.511  11.311   7.095  0.4752  1.3402  0.0495
  300MOL0     H41344   1.387  11.361   7.199  1.0128  0.4476 -0.1911
  300MOL0     H41345   1.336  11.194   7.009 -1.5757 -0.4259 -1.8921
  300MOL0     H41346   1.333  11.346   6.910 -0.5293  3.1405  0.0696
  300MOL0     H41347   1.161  11.308   7.150  0.6298  2.2695  0.9887
  300MOL0     H41348   1.134  11.434   7.043 -1.5325 -0.8505 -0.0329
  300MOL0     H41349   1.161  11.028   6.979 -1.2115  0.9537  2.5781
  300MOL0     H41350   1.044  10.884   6.747  0.3125  0.6510  1.4830
  300MOL0     H41351   0.884  10.956   6.703  0.5300  3.2651 -0.3039
  300MOL0     H41352   0.868  10.755   6.872 -3.0281  0.4307 -1.7657
  300MOL0     H41353   0.940  10.873   6.988  2.5189 -1.0197 -1.5260
  300MOL0     H41354   0.763  10.979   7.009  1.5728 -1.0308  0.6674
  300MOL0     H41355   0.715  10.997   6.836  0.1407  4.6120  2.9046
  300MOL0     H41356   0.544  10.881   6.977 -1.5937 -0.5755 -2.1961
  300MOL0     H41357   0.600  10.767   6.858 -0.5691  3.7328 -1.8708
  300MOL0     H41358   0.543  10.529   6.995 -0.1304 -0.8888  0.3356
  300MOL0     H41359   0.430  10.275   7.212 -1.5401  0.8357  1.3991
  300MOL0     H41360   0.445  10.336   7.042  0.3964  3.0079 -0.2226
  300MOL0     H41361   0.300  10.360   7.132  0.0873  0.9883  1.9326
  300MOL0     H41362   0.455  10.284   7.625  3.4230 -0.7092  3.4064
  300MOL0     H41363   0.421  10.181   7.827 -0.6782 -1.0161 -3.0142
  300MOL0     H41364   0.269  10.087   8.024 -0.0188 -1.5232  0.5538
  300MOL0     H41365   0.431  10.131   8.047 -1.3812 -1.8554 -4.2583
  300MOL0     H41366   0.371  10.035   8.249 -2.0582 -0.6455  1.6211
  300MOL0     H41367   0.393  10.209   8.277 -3.0595  0.9326  2.4398
  300MOL0     H41368   0.130  10.056   8.232 -2.1188  2.1655 -1.7676
  300MOL0     H41369   0.128  10.222   8.240 -2.6969 -0.9648  0.5180
  300MOL0     H41370   0.225  10.231   8.474 -0.3598 -1.2313  1.9962
  300MOL0     H41371   0.209  10.063   8.491  0.3130 -0.3975 -0.5889
  300MOL0     H41372   0.029  10.198   8.571  0.6768 -2.1852  0.4388
  300MOL0     H41373  -0.001  10.267   8.414 -1.0331  0.2396  0.9342
  300MOL0     H41374  -0.042   9.965   8.449  1.3742  1.2868  1.8973
  300MOL0     H41375  -0.075  10.065   8.307 -1.4103 -3.3888  0.0639
  300MOL0     H41376  -0.226  10.188   8.504  1.6409  0.1419 -0.9841
  300MOL0     H41377  -0.198  10.048   8.600  2.0505  1.5897 -0.1953
  300MOL0     H41378  -0.345  10.061   8.345  1.3285 -0.1236 -0.4560
  300MOL0     H41379  -0.421  10.038   8.491  0.5359  1.0042 -0.0890
  300MOL0     H41380   0.187  10.501   7.985 -0.6603 -1.8102  0.0987
  300MOL0     H41381   0.217  10.626   7.781  0.5610 -0.8755  0.9234
  300MOL0     H41382   0.471  10.723   7.439  0.7094  1.1715 -1.2307
  300MOL0     H41383   0.612  10.841   7.285  0.5370 -0.5721  0.3181
  300MOL0     H41384   1.548  11.329   7.669 -2.2252  0.0178 -1.1259
  300MOL0     H41385   1.442  11.312   7.904  1.2773  1.8710  4.4199
  300MOL0     H41386   1.379  11.542   8.324  1.2499  2.3988  0.0035
  300MOL0     H41387   1.357  11.534   8.560 -0.6012 -1.2709 -0.0981
  300MOL0     H41388   1.476  11.597   8.821 -5.3422  2.7163  1.5331
  300MOL0     H41389   1.344  11.488   8.769  1.2960 -2.5621 -1.3994
  300MOL0     H41390   1.414  11.534   9.021  1.3639  1.8710 -1.9954
  300MOL0     H41391   1.518  11.396   8.997 -0.7537 -1.0013  1.1399
  300MOL0     H41392   1.236  11.372   8.922  1.4367  0.5322 -1.8796
  300MOL0     H41393   1.361  11.241   8.924 -1.3231 -0.4388 -0.5571
  300MOL0     H41394   1.303  11.413   9.170  1.1909  1.3732 -1.0843
  300MOL0     H41395   1.400  11.270   9.161  2.0357  4.1595 -0.5616
  300MOL0     H41396   0.972  11.174   9.160 -0.1266  1.6448  0.1419
  300MOL0     H41397   1.740  11.330   8.594  0.6206  1.4545  0.2013
  300MOL0     H41398   1.812  11.276   8.275 -1.1560 -0.9712  0.9668
  300MOL0     H41399   1.873  11.448   8.301 -1.0723  2.6265  1.5432
  300MOL0     H41400   1.873  11.326   8.425 -0.9820 -2.4932 -1.0412
  301MOL0     O41401  10.005   9.673   3.526  0.1982  0.0891  0.0511
  301MOL0     C41402   9.921   9.653   3.438  0.9400 -0.0343  0.5698
  301MOL0     O41403   9.946   9.602   3.314  0.1392 -0.1061 -0.1099
  301MOL0     C41404  10.070   9.545   3.297  0.7217  0.5086 -0.1644
  301MOL0     C41405  10.189   9.618   3.298  0.3416 -0.4977  0.0969
  301MOL0     C41406  10.315   9.554   3.279 -0.3836 -0.0883  0.2882
  301MOL0     C41407  10.317   9.421   3.259 -0.0490  0.3033 -0.3427
  301MOL0     O41408  10.448   9.368   3.280 -0.1956 -0.0827  0.1285
  301MOL0     C41409  10.455   9.227   3.269 -0.5386  0.3891 -0.4364
  301MOL0     C41410  10.592   9.171   3.301  0.5168  0.2648  1.2145
  301MOL0     C41411  10.619   9.024   3.249  0.1824 -0.1955 -0.6126
  301MOL0     C41412  10.777   9.013   3.272 -0.6792  0.1120 -1.1795
  301MOL0     C41413  10.820   8.858   3.290  0.3456  0.2245  0.2516
  301MOL0     C41414  10.966   8.844   3.335 -0.8903  0.5399  0.7712
  301MOL0     C41415  10.998   8.700   3.362  0.8684  0.4198  0.5298
  301MOL0     C41416  10.942   8.596   3.264 -0.0615  0.9633  0.4219
  301MOL0     N41417  10.995   8.457   3.309  0.7570 -0.6817  0.2662
  301MOL0     C41418  11.123   8.431   3.303 -0.1979  0.1243  0.0516
  301MOL0     C41419  11.135   8.298   3.298  0.3727 -0.6886  0.4723
  301MOL0     C41420  11.271   8.231   3.290 -0.8972 -0.3062 -0.5959
  301MOL0     C41421  11.288   8.130   3.405  0.8641  1.0015  0.0918
  301MOL0     C41422  11.391   8.013   3.367  0.9349  1.0612 -0.8594
  301MOL0     C41423  11.408   7.913   3.482 -0.2179  0.6603  0.2931
  301MOL0     O41424  11.485   7.802   3.440 -1.1581 -0.5473  1.2606
  301MOL0     C41425  11.503   7.705   3.515  0.5134  0.1349  0.6247
  301MOL0     C41426  11.556   7.585   3.459  0.8511 -0.2246  0.3686
  301MOL0     C41427  11.594   7.475   3.534  0.5981  0.0440  0.2628
  301MOL0     C41428  11.655   7.362   3.466 -0.5801  0.7739  0.6887
  301MOL0     C41429  11.545   7.470   3.670  0.6396  0.5995 -1.0098
  301MOL0     C41430  11.577   7.364   3.764  1.2842  0.8021  0.6715
  301MOL0     O41431  11.555   7.399   3.897 -0.8181 -0.6619  0.1470
  301MOL0     C41432  11.660   7.376   3.982 -0.5166 -1.1916  0.8258
  301MOL0     C41433  11.674   7.246   4.039  0.7588 -0.2875 -0.3702
  301MOL0     C41434  11.772   7.225   4.134  0.5158  0.5733  0.6916
  301MOL0     C41435  11.870   7.318   4.168 -0.0533 -0.1692 -0.5327
  301MOL0     O41436  11.951   7.299   4.275 -0.0136  0.6144 -0.2228
  301MOL0     C41437  12.008   7.412   4.344  0.3104  0.1717  0.3515
  301MOL0     C41438  12.076   7.371   4.468 -0.0440  0.2936  0.5663
  301MOL0     C41439  12.215   7.295   4.437  0.0587 -1.2031 -1.0110
  301MOL0     C41440  12.316   7.373   4.352 -0.6382  0.4330 -0.7538
  301MOL0     C41441  12.377   7.506   4.408  0.3433 -0.8555  0.0943
  301MOL0     C41442  12.467   7.550   4.291  0.4176 -0.6876 -0.5094
  301MOL0     C41443  12.531   7.689   4.320 -0.8142  0.1225  0.1387
  301MOL0     C41444  12.459   7.819   4.262  0.8562 -0.7471 -0.4738
  301MOL0    Cl41445  12.319   7.865   4.355 -0.1613  0.3808  0.1121
  301MOL0     C41446  11.870   7.440   4.099  0.3673  0.4388  0.6260
  301MOL0     C41447  11.761   7.470   4.012  0.7657  0.5809  0.0997
  301MOL0     O41448  11.604   7.251   3.732  0.1730 -0.7104  0.1407
  301MOL0     C41449  11.467   7.586   3.713 -0.6288 -0.1097 -0.5723
  301MOL0     C41450  11.461   7.700   3.643 -0.4411  1.1868 -0.0889
  301MOL0     N41451  11.011   8.246   3.301 -0.0527 -0.2413  0.7108
  301MOL0     N41452  10.929   8.341   3.314 -0.4662  0.3343  0.4313
  301MOL0     C41453  10.201   9.340   3.266  0.9647  0.8134  0.4892
  301MOL0     C41454  10.080   9.403   3.285  0.3348 -0.3373  0.0901
  301MOL0     C41455   9.787   9.705   3.457  0.3022  1.1560  0.2301
  301MOL0     C41456   9.679   9.631   3.395 -0.1045 -0.2211  0.9403
  301MOL0     C41457   9.550   9.692   3.395 -0.5860  0.6650 -0.9639
  301MOL0     C41458   9.522   9.806   3.465 -0.6705 -0.2614  0.3434
  301MOL0     O41459   9.390   9.833   3.474  0.0787 -0.3161 -0.6277
  301MOL0     C41460   9.349   9.923   3.578 -0.1834 -0.5554 -0.3010
  301MOL0     C41461   9.206   9.886   3.631  1.5836 -0.1319 -0.4211
  301MOL0     C41462   9.200   9.736   3.655  0.3359 -0.4441  0.3985
  301MOL0     C41463   9.059   9.698   3.690  0.7848  0.2090 -0.3234
  301MOL0     C41464   9.042   9.552   3.718  0.1102  0.4779  0.7053
  301MOL0     C41465   9.022   9.435   3.707  0.2157 -0.6304  0.2004
  301MOL0     C41466   9.631   9.864   3.542  0.1028 -0.1548 -0.5057
  301MOL0     C41467   9.763   9.820   3.530 -0.0343  0.6843  0.5412
  301MOL0     C41468   9.870   9.905   3.601 -0.2437 -0.1032 -0.1778
  301MOL0     H41469  10.183   9.726   3.311  0.3792 -0.5056  0.1697
  301MOL0     H41470  10.401   9.620   3.269 -1.2705  0.9498 -0.7482
  301MOL0     H41471  10.418   9.182   3.176  0.4446 -1.0730 -0.1580
  301MOL0     H41472  10.392   9.185   3.348  1.1859 -3.8948 -1.0763
  301MOL0     H41473  10.661   9.230   3.239  1.0710 -1.1495  0.4549
  301MOL0     H41474  10.615   9.186   3.407  3.0040  2.2191  0.4979
  301MOL0     H41475  10.562   8.945   3.300 -3.3858  3.2537  1.3217
  301MOL0     H41476  10.594   9.011   3.144  1.4835  0.5130 -1.0246
  301MOL0     H41477  10.840   9.054   3.192 -0.0489  2.3433  0.3530
  301MOL0     H41478  10.807   9.064   3.365  3.3707  2.5810 -3.5488
  301MOL0     H41479  10.817   8.816   3.189 -0.0280 -0.9718  0.7401
  301MOL0     H41480  10.760   8.804   3.364 -0.9949 -1.1628 -1.7683
  301MOL0     H41481  11.034   8.870   3.253 -3.1244  1.8089 -0.8040
  301MOL0     H41482  10.997   8.906   3.420  3.7699  3.0011 -2.2674
  301MOL0     H41483  10.964   8.672   3.463  2.5130  0.2451  1.0670
  301MOL0     H41484  11.104   8.683   3.379  0.0888 -0.6732  7.6589
  301MOL0     H41485  10.833   8.603   3.265  0.0584  4.0184 -0.0139
  301MOL0     H41486  10.976   8.609   3.161 -2.8432  2.3669 -0.4049
  301MOL0     H41487  11.205   8.501   3.304 -2.0533  2.4470 -1.5112
  301MOL0     H41488  11.354   8.302   3.285 -0.4467 -0.8890 -3.4970
  301MOL0     H41489  11.257   8.182   3.193 -1.5157  1.6604 -1.5464
  301MOL0     H41490  11.309   8.175   3.502 -1.9839  1.4846  0.5922
  301MOL0     H41491  11.193   8.074   3.402 -0.1282  2.5261 -3.8705
  301MOL0     H41492  11.360   7.954   3.281  2.4436 -1.4183  0.2025
  301MOL0     H41493  11.492   8.050   3.348  1.4402  0.7305  1.0278
  301MOL0     H41494  11.456   7.960   3.568  0.4256  0.2482  0.1580
  301MOL0     H41495  11.309   7.877   3.512 -0.0525  0.9367  1.2041
  301MOL0     H41496  11.582   7.573   3.354  0.5209 -0.1809  0.2770
  301MOL0     H41497  11.593   7.273   3.478  1.0250 -0.8913 -2.2936
  301MOL0     H41498  11.749   7.323   3.506 -2.3938 -2.8966  1.8041
  301MOL0     H41499  11.660   7.382   3.359  0.1922  0.4057  0.6408
  301MOL0     H41500  11.592   7.176   4.023 -0.1953  0.7312 -0.0717
  301MOL0     H41501  11.773   7.133   4.190  1.5572  0.3900  0.4002
  301MOL0     H41502  12.077   7.451   4.270 -0.5851 -2.2731 -1.9222
  301MOL0     H41503  11.934   7.488   4.369  0.2140 -0.3933  1.9273
  301MOL0     H41504  12.093   7.444   4.547 -0.8750  0.8309  0.2624
  301MOL0     H41505  12.022   7.282   4.503  0.2001 -0.5553 -1.1124
  301MOL0     H41506  12.210   7.199   4.384  1.1881 -0.0390 -3.3904
  301MOL0     H41507  12.265   7.281   4.534  0.9830  0.9679 -1.1314
  301MOL0     H41508  12.266   7.402   4.259 -2.2001  1.0052  0.2108
  301MOL0     H41509  12.394   7.298   4.339  0.1745  1.2571 -0.6875
  301MOL0     H41510  12.309   7.591   4.420  2.1940  0.4738  1.9354
  301MOL0     H41511  12.430   7.481   4.500  0.9218 -1.5988 -0.4314
  301MOL0     H41512  12.414   7.564   4.196  1.9964  3.1183 -1.0312
  301MOL0     H41513  12.547   7.476   4.284  0.2910 -0.6348 -3.4723
  301MOL0     H41514  12.633   7.688   4.282 -1.3286 -0.2267 -1.3323
  301MOL0     H41515  12.550   7.695   4.427  0.5297 -1.2055  0.0001
  301MOL0     H41516  12.426   7.794   4.161 -1.2314 -0.1965  0.0190
  301MOL0     H41517  12.522   7.908   4.255 -1.3483  0.8661 -0.9751
  301MOL0     H41518  11.943   7.519   4.107  0.3853  1.8356 -6.6260
  301MOL0     H41519  11.761   7.568   3.967  3.8960  0.0866 -1.2726
  301MOL0     H41520  11.435   7.582   3.817 -0.6708  0.7752 -0.5415
  301MOL0     H41521  11.415   7.786   3.689  0.6831  0.1828  3.1658
  301MOL0     H41522  10.202   9.232   3.267  0.9952  0.7397 -1.9416
  301MOL0     H41523   9.985   9.352   3.282 -0.5760  1.1885  1.4754
  301MOL0     H41524   9.700   9.554   3.322 -2.6092  0.0430 -0.1558
  301MOL0     H41525   9.470   9.637   3.347  0.9854 -0.5987 -2.2921
  301MOL0     H41526   9.420   9.914   3.661  1.6170 -1.4812 -1.8775
  301MOL0     H41527   9.349  10.014   3.517 -2.0420 -2.3565 -3.2076
  301MOL0     H41528   9.131   9.909   3.555  3.1744  0.6222 -1.8342
  301MOL0     H41529   9.181   9.941   3.721 -1.2374 -2.8472  0.6368
  301MOL0     H41530   9.220   9.687   3.560 -1.7568 -1.6416  0.5175
  301MOL0     H41531   9.272   9.702   3.731 -0.6462 -0.8708  1.1668
  301MOL0     H41532   8.993   9.725   3.608  2.0092  1.3586 -0.9648
  301MOL0     H41533   9.040   9.747   3.786  2.8367  0.8376 -0.1854
  301MOL0     H41534   9.001   9.337   3.670 -1.5031  0.6491 -2.5274
  301MOL0     H41535   9.610   9.950   3.604 -0.5525  1.4712 -2.8673
  301MOL0     H41536   9.937   9.964   3.538  3.0765 -0.4353  2.6723
  301MOL0     H41537   9.821   9.970   3.675  0.3990  2.3716 -1.8157
  301MOL0     H41538   9.935   9.849   3.670 -0.7380  0.0138  0.3884
  302MOL0     O41539   9.665  10.845   9.786  0.6172 -0.6591  0.1082
  302MOL0     C41540   9.617  10.964   9.806 -0.8953  0.3230 -0.8042
  302MOL0     O41541   9.495  11.003   9.778  0.3761 -0.4301 -0.0161
  302MOL0     C41542   9.422  10.911   9.708 -0.3876 -0.1814  0.1788
  302MOL0     C41543   9.360  10.951   9.588  1.1571 -0.2838 -0.4316
  302MOL0     C41544   9.285  10.856   9.512 -0.5014  0.2996 -0.5960
  302MOL0     C41545   9.273  10.723   9.556 -0.0418 -0.3182 -0.1149
  302MOL0     O41546   9.201  10.622   9.500 -0.6264 -0.4440 -0.5493
  302MOL0     C41547   9.093  10.661   9.407 -0.9538  0.2645 -0.3027
  302MOL0     C41548   8.962  10.647   9.478  0.5237 -0.9277 -0.0100
  302MOL0     C41549   8.857  10.569   9.398 -0.2080 -0.1336  0.1424
  302MOL0     C41550   8.816  10.637   9.269 -1.0520  0.5220  0.5441
  302MOL0     C41551   8.681  10.601   9.205  0.1403  0.6061 -0.3279
  302MOL0     C41552   8.673  10.458   9.145  1.4603  0.1778 -0.1319
  302MOL0     C41553   8.542  10.422   9.088 -0.8677 -0.9866  0.9053
  302MOL0     C41554   8.498  10.510   8.962  0.2870  0.0747  0.0949
  302MOL0     N41555   8.598  10.502   8.856  0.7920 -0.9725  0.0567
  302MOL0     C41556   8.701  10.588   8.854  0.1499 -0.2331  0.7529
  302MOL0     C41557   8.776  10.544   8.742 -0.4769 -0.2732 -0.0380
  302MOL0     C41558   8.914  10.596   8.698 -0.2335  0.9488  0.0480
  302MOL0     C41559   9.011  10.588   8.815 -0.6246 -0.2664  0.3305
  302MOL0     C41560   9.041  10.446   8.876 -0.0571  0.1492  0.1557
  302MOL0     C41561   9.104  10.449   9.016  0.6310  0.4363 -0.0569
  302MOL0     O41562   9.212  10.547   9.012  0.2451  0.5141  0.4862
  302MOL0     C41563   9.337  10.505   8.976  0.3146 -0.1412  0.1122
  302MOL0     C41564   9.435  10.601   8.984  0.5204  0.0703 -0.0061
  302MOL0     C41565   9.568  10.576   8.956 -0.1080 -0.2283 -0.6380
  302MOL0     C41566   9.664  10.685   8.989  0.0577  0.1566 -0.0554
  302MOL0     C41567   9.608  10.449   8.917  0.4734  0.7016  0.3483
  302MOL0     C41568   9.752  10.401   8.917  0.9514  0.3675  0.0118
  302MOL0     O41569   9.762  10.282   8.865  0.8712  0.0853  0.1961
  302MOL0     C41570   9.865  10.214   8.900  0.0809 -0.1382  0.1392
  302MOL0     C41571   9.868  10.156   9.021  0.0471  0.4558 -0.6027
  302MOL0     C41572   9.975  10.078   9.057 -0.5518  1.0459 -0.1586
  302MOL0     C41573  10.081  10.042   8.968  0.1767  0.5086  0.0215
  302MOL0     O41574  10.197   9.983   9.006 -0.6614  0.9584 -0.2104
  302MOL0     C41575  10.199   9.839   9.001 -1.1189  0.2123  0.2674
  302MOL0     C41576  10.335   9.777   8.983 -0.2922  0.1449  0.1676
  302MOL0     C41577  10.427   9.783   9.114 -1.1659  1.1551 -0.5028
  302MOL0     C41578  10.437   9.638   9.178  0.0399 -0.3215  0.1600
  302MOL0     C41579  10.523   9.638   9.302 -0.9014  0.7949 -0.0407
  302MOL0     C41580  10.450   9.682   9.429  0.0844  0.8521 -0.1220
  302MOL0     C41581  10.496   9.609   9.556 -0.4180  0.2415 -0.6563
  302MOL0     C41582  10.634   9.657   9.611 -0.2568 -0.8059  0.3834
  302MOL0    Cl41583  10.692   9.578   9.766 -0.0307 -0.1165  0.1856
  302MOL0     C41584  10.076  10.098   8.848  0.1902 -0.5544 -0.1070
  302MOL0     C41585   9.963  10.177   8.816 -1.2044  0.6303  0.5207
  302MOL0     O41586   9.837  10.462   8.985 -0.4175  0.7852  0.1406
  302MOL0     C41587   9.510  10.350   8.919  0.0319  0.3716  0.1501
  302MOL0     C41588   9.378  10.378   8.946  0.6607 -0.5787 -0.7471
  302MOL0     N41589   8.712  10.438   8.689 -0.4782  0.1301 -0.0214
  302MOL0     N41590   8.600  10.412   8.753  0.6543  0.6994  0.3602
  302MOL0     C41591   9.315  10.698   9.685  0.6504  0.3324 -0.1884
  302MOL0     C41592   9.382  10.794   9.761  1.0325  0.1345  1.4192
  302MOL0     C41593   9.715  11.057   9.863  0.3365 -0.0096 -0.1332
  302MOL0     C41594   9.668  11.182   9.920 -0.3554  0.1200  0.4513
  302MOL0     C41595   9.750  11.269   9.983  0.0299  0.3118 -0.1052
  302MOL0     C41596   9.888  11.244  10.002 -1.1663  0.0430 -0.4176
  302MOL0     O41597   9.956  11.323  10.096  0.6107  0.2406  0.5217
  302MOL0     C41598  10.091  11.300  10.132 -0.7703  0.2108  0.3515
  302MOL0     C41599  10.187  11.364  10.029  0.5215  1.3009 -0.5337
  302MOL0     C41600  10.327  11.354  10.078 -0.2366  0.9449 -0.6374
  302MOL0     C41601  10.431  11.284   9.979  0.4409  0.3083 -0.3259
  302MOL0     C41602  10.403  11.145  10.002 -0.1195 -0.5165 -0.7152
  302MOL0     C41603  10.399  11.029   9.989 -0.2497  0.4786 -0.4538
  302MOL0     C41604   9.941  11.129   9.928  0.4171  0.4546  0.0630
  302MOL0     C41605   9.857  11.039   9.858  0.0727 -0.0121  0.4964
  302MOL0     C41606   9.920  10.935   9.767 -0.4592  0.2468 -0.1115
  302MOL0     H41607   9.372  11.056   9.563 -0.1048 -0.3758 -1.5409
  302MOL0     H41608   9.235  10.901   9.428 -0.5283  0.1473 -0.6617
  302MOL0     H41609   9.100  10.585   9.328 -0.8078 -2.6435  2.2837
  302MOL0     H41610   9.087  10.761   9.364 -2.9291 -0.2407 -1.3697
  302MOL0     H41611   8.977  10.597   9.574  0.0601 -0.5196  0.2714
  302MOL0     H41612   8.934  10.751   9.491  1.6203 -0.8100  1.7057
  302MOL0     H41613   8.914  10.478   9.378  2.6042  0.9125  2.7086
  302MOL0     H41614   8.771  10.530   9.452 -0.7733  0.7858 -0.0642
  302MOL0     H41615   8.819  10.744   9.289  0.8647  1.1252 -2.4109
  302MOL0     H41616   8.906  10.613   9.211 -0.6110  0.0539  1.4000
  302MOL0     H41617   8.654  10.667   9.122 -1.8965 -2.6897 -2.5038
  302MOL0     H41618   8.605  10.608   9.283  1.1880  0.3977  0.7389
  302MOL0     H41619   8.745  10.453   9.063 -0.1206  2.2076 -1.7502
  302MOL0     H41620   8.688  10.383   9.223  1.0391 -1.9825 -2.0355
  302MOL0     H41621   8.467  10.416   9.167 -0.5470 -3.0892  1.1246
  302MOL0     H41622   8.550  10.318   9.055 -0.8502  0.0959 -2.9854
  302MOL0     H41623   8.398  10.477   8.933  0.9365 -0.8211 -1.1827
  302MOL0     H41624   8.482  10.612   8.998  0.5763 -0.7979  2.9829
  302MOL0     H41625   8.709  10.680   8.910 -1.8512  1.2423 -1.2183
  302MOL0     H41626   8.894  10.699   8.666  2.4339  1.0976 -1.3977
  302MOL0     H41627   8.962  10.544   8.615  0.1020  1.7207 -0.2494
  302MOL0     H41628   9.105  10.636   8.787 -1.9825  3.0674  0.9754
  302MOL0     H41629   8.964  10.653   8.890 -2.1023 -1.7236  0.7122
  302MOL0     H41630   8.956  10.377   8.878  1.1623 -1.4074  0.2868
  302MOL0     H41631   9.118  10.396   8.816  0.9836  0.0607  1.5261
  302MOL0     H41632   9.027  10.480   9.088 -2.3330 -3.3137 -1.3114
  302MOL0     H41633   9.135  10.350   9.050 -1.1011 -0.2005 -0.2519
  302MOL0     H41634   9.416  10.700   9.024  3.3326  1.8039 -2.5774
  302MOL0     H41635   9.703  10.652   9.085  0.9672  2.7914  0.5569
  302MOL0     H41636   9.628  10.784   9.018  1.5837  0.4547  0.8952
  302MOL0     H41637   9.746  10.693   8.917  0.7736 -0.7663  0.6403
  302MOL0     H41638   9.788  10.178   9.091 -0.6855 -0.3303 -1.1734
  302MOL0     H41639   9.983  10.038   9.157 -4.6664 -1.5600 -0.6484
  302MOL0     H41640  10.146   9.798   9.088 -2.3654 -0.8653 -0.9716
  302MOL0     H41641  10.140   9.815   8.913 -1.4720 -2.7043  1.1781
  302MOL0     H41642  10.328   9.669   8.969 -0.8226  0.3479 -1.2852
  302MOL0     H41643  10.380   9.821   8.893  2.2160  0.2576  1.3988
  302MOL0     H41644  10.401   9.861   9.186  3.4580  2.1687  0.4021
  302MOL0     H41645  10.523   9.820   9.074 -1.1617  0.6493 -0.9682
  302MOL0     H41646  10.487   9.569   9.110  0.9867 -1.0451  1.5347
  302MOL0     H41647  10.336   9.608   9.207 -0.2387 -3.4774 -3.2837
  302MOL0     H41648  10.558   9.536   9.320 -2.6609  0.2574  0.5620
  302MOL0     H41649  10.607   9.709   9.294 -1.4202  1.3631 -0.5462
  302MOL0     H41650  10.342   9.668   9.414  0.1005  3.3621 -3.9177
  302MOL0     H41651  10.471   9.788   9.443 -0.1617  0.8777  0.0565
  302MOL0     H41652  10.512   9.503   9.532  0.5785  0.5866 -1.6213
  302MOL0     H41653  10.420   9.625   9.633 -0.0288 -0.4180 -0.1212
  302MOL0     H41654  10.622   9.764   9.633 -0.3223 -0.5828 -0.7151
  302MOL0     H41655  10.704   9.645   9.528 -1.5366  2.1680 -1.2843
  302MOL0     H41656  10.156  10.078   8.777 -0.5406 -0.7328 -0.9104
  302MOL0     H41657   9.950  10.226   8.720  0.2604  0.5236  0.2569
  302MOL0     H41658   9.536  10.245   8.903 -0.8381  0.2352 -0.4292
  302MOL0     H41659   9.305  10.298   8.955 -0.8032  0.8010  0.1836
  302MOL0     H41660   9.290  10.603   9.731 -0.1950  0.9566  0.6700
  302MOL0     H41661   9.412  10.783   9.865  0.0647  0.1480  1.7032
  302MOL0     H41662   9.561  11.195   9.932 -1.0242  0.9816 -4.5302
  302MOL0     H41663   9.708  11.353  10.038 -1.2438 -1.7618  2.2760
  302MOL0     H41664  10.113  11.348  10.229 -2.0523 -1.2433  1.3971
  302MOL0     H41665  10.113  11.193  10.140  3.5322  0.7829 -0.9694
  302MOL0     H41666  10.150  11.466  10.022 -1.3856  0.5312 -2.7210
  302MOL0     H41667  10.177  11.323   9.928 -3.2987 -1.3409  0.6882
  302MOL0     H41668  10.360  11.457  10.092  1.0295  0.8627 -2.5583
  302MOL0     H41669  10.333  11.307  10.177  1.7160  1.6776 -0.3664
  302MOL0     H41670  10.532  11.308  10.014 -0.3721  0.6256  2.0265
  302MOL0     H41671  10.413  11.316   9.876  0.2915  0.7453 -0.1670
  302MOL0     H41672  10.391  10.923   9.975 -0.6658  0.3737  0.4566
  302MOL0     H41673  10.047  11.107   9.937  0.1060 -0.2696  2.6278
  302MOL0     H41674   9.894  10.839   9.813 -0.7525  1.4107  2.3317
  302MOL0     H41675   9.881  10.947   9.665 -1.4375 -0.8396  0.1143
  302MOL0     H41676  10.029  10.943   9.766 -0.2453 -1.9664 -1.2263
  303MOL0     O41677  10.310   3.750   8.458  0.9583  1.7139 -0.4508
  303MOL0     C41678  10.226   3.821   8.498  0.2552  0.2163  0.5046
  303MOL0     O41679  10.203   3.954   8.466  0.9096 -0.0629 -0.0633
  303MOL0     C41680  10.299   4.024   8.401 -0.3356  0.2420  0.6973
  303MOL0     C41681  10.315   4.029   8.260 -0.0248 -0.0959 -0.2101
  303MOL0     C41682  10.418   4.110   8.203  0.2891  0.3542 -0.0080
  303MOL0     C41683  10.501   4.187   8.291 -0.9192 -0.0858  0.4627
  303MOL0     O41684  10.609   4.256   8.236  0.5421  0.2685 -0.3546
  303MOL0     C41685  10.706   4.184   8.153  0.4188  0.0350 -0.0134
  303MOL0     C41686  10.737   4.280   8.032  0.5697  0.6194 -0.7472
  303MOL0     C41687  10.781   4.212   7.898  0.9848  0.2293  0.2868
  303MOL0     C41688  10.664   4.129   7.843 -0.2411 -0.1591  0.4180
  303MOL0     C41689  10.710   3.995   7.793 -1.1295 -0.0659  0.9163
  303MOL0     C41690  10.793   4.007   7.665 -0.2498  0.0369 -0.8437
  303MOL0     C41691  10.704   4.007   7.542 -0.2320  0.2463 -0.0539
  303MOL0     C41692  10.642   3.873   7.523 -0.6987  0.1777 -0.1391
  303MOL0     N41693  10.563   3.861   7.402 -0.4778  0.4525 -0.5003
  303MOL0     C41694  10.505   3.961   7.328  0.5514  0.8394  0.7452
  303MOL0     C41695  10.481   3.903   7.209  0.3586 -1.1630  0.2471
  303MOL0     C41696  10.422   3.977   7.089  0.4535  0.1602 -0.3279
  303MOL0     C41697  10.296   3.927   7.020  0.3509  0.3863 -0.5645
  303MOL0     C41698  10.301   3.934   6.869 -0.4539  0.0281  0.6434
  303MOL0     C41699  10.169   3.926   6.798  0.3004  0.5772  1.1653
  303MOL0     O41700  10.095   3.802   6.831  0.5244 -0.3519 -0.2428
  303MOL0     C41701   9.965   3.805   6.772  0.5329  0.0443 -0.2174
  303MOL0     C41702   9.933   3.709   6.670 -0.7673  0.5781 -0.1478
  303MOL0     C41703   9.799   3.700   6.629 -0.2769  1.2918 -0.6030
  303MOL0     C41704   9.763   3.582   6.542  0.1261  0.3872 -0.0993
  303MOL0     C41705   9.703   3.801   6.667  0.7351  0.8757  0.2601
  303MOL0     C41706   9.559   3.794   6.646 -0.3453 -0.4638 -0.2943
  303MOL0     O41707   9.495   3.913   6.668 -0.2015  0.7771 -0.4104
  303MOL0     C41708   9.359   3.937   6.682  0.4090  0.5204 -0.0292
  303MOL0     C41709   9.300   4.064   6.652 -0.8346  1.2346  0.1152
  303MOL0     C41710   9.176   4.102   6.693  0.8074  0.1731  0.0019
  303MOL0     C41711   9.092   4.001   6.762  0.0034  0.0423 -0.1848
  303MOL0     O41712   8.982   4.053   6.822 -0.4097  0.8729  0.1882
  303MOL0     C41713   8.917   3.971   6.922  0.0629 -0.5047 -0.2437
  303MOL0     C41714   8.796   4.059   6.965  0.1933 -0.1069 -0.4896
  303MOL0     C41715   8.694   3.994   7.059  0.1990  1.0577  0.1700
  303MOL0     C41716   8.616   4.111   7.125  0.2353  0.0265 -0.1466
  303MOL0     C41717   8.524   4.057   7.239  0.1985  1.3610 -0.6696
  303MOL0     C41718   8.594   4.004   7.368 -0.1624 -0.9848  0.4530
  303MOL0     C41719   8.686   4.103   7.432 -0.6008  0.2453 -0.5182
  303MOL0     C41720   8.843   4.065   7.422 -0.5676  0.3563 -0.8042
  303MOL0    Cl41721   8.941   4.175   7.513  0.1729 -0.2692  0.2699
  303MOL0     C41722   9.137   3.872   6.775  0.3503 -0.3336 -0.4576
  303MOL0     C41723   9.268   3.846   6.741 -0.3218 -0.3302  0.0831
  303MOL0     O41724   9.509   3.698   6.609 -0.0210  0.4467  0.1837
  303MOL0     C41725   9.747   3.903   6.760 -0.0709  0.8460  0.2047
  303MOL0     C41726   9.876   3.901   6.806 -0.4027  0.2704 -1.1607
  303MOL0     N41727  10.523   3.776   7.209 -0.0172 -1.0319  1.0355
  303MOL0     N41728  10.574   3.752   7.323 -0.4742 -0.1730 -1.0032
  303MOL0     C41729  10.490   4.180   8.426 -0.8700 -0.3015 -0.0306
  303MOL0     C41730  10.388   4.097   8.480 -0.1150  0.4095  0.6603
  303MOL0     C41731  10.153   3.765   8.612  0.3418 -0.0263 -0.6328
  303MOL0     C41732  10.187   3.808   8.744 -0.1719 -0.1929  0.1294
  303MOL0     C41733  10.111   3.770   8.858  0.1944  0.7833  0.5972
  303MOL0     C41734   9.994   3.697   8.837 -0.1076  0.5122 -0.2447
  303MOL0     O41735   9.927   3.649   8.947 -0.3307  0.1413 -0.0708
  303MOL0     C41736   9.789   3.685   8.959 -0.2207 -0.4175  0.1498
  303MOL0     C41737   9.798   3.819   9.052 -0.3331  0.5752 -0.6000
  303MOL0     C41738   9.904   3.816   9.163 -0.0645 -0.2295  0.4716
  303MOL0     C41739   9.987   3.948   9.164 -0.4645 -0.1419 -0.2268
  303MOL0     C41740   9.914   4.052   9.219 -0.5353 -0.6070 -1.2097
  303MOL0     C41741   9.865   4.155   9.269  0.6582  0.1450 -0.2183
  303MOL0     C41742   9.963   3.653   8.708  0.9205 -0.0797 -0.4086
  303MOL0     C41743  10.044   3.682   8.593 -0.3669 -0.5422 -0.0207
  303MOL0     C41744   9.997   3.646   8.460 -0.1596 -0.0700  0.3911
  303MOL0     H41745  10.252   3.968   8.197 -1.3766  4.1821 -3.4582
  303MOL0     H41746  10.423   4.108   8.094 -0.8635 -0.7479 -0.0588
  303MOL0     H41747  10.664   4.084   8.137 -1.3425  0.5529  1.1159
  303MOL0     H41748  10.804   4.173   8.202  0.5603 -0.5305 -0.4174
  303MOL0     H41749  10.644   4.336   8.016  2.1092  3.3470 -0.7967
  303MOL0     H41750  10.817   4.344   8.071  1.1572  0.0586 -1.0203
  303MOL0     H41751  10.817   4.297   7.838  1.5811  0.4285  0.9257
  303MOL0     H41752  10.868   4.149   7.917 -2.2132 -4.3806  1.1477
  303MOL0     H41753  10.579   4.106   7.908 -0.2569 -0.5948  0.2462
  303MOL0     H41754  10.614   4.192   7.769 -0.0731  1.6227  1.7636
  303MOL0     H41755  10.620   3.934   7.785 -0.5592 -0.8505  0.2588
  303MOL0     H41756  10.767   3.934   7.863 -2.9778 -3.2581 -0.1411
  303MOL0     H41757  10.852   4.098   7.656  0.1395 -0.2798 -1.5225
  303MOL0     H41758  10.869   3.930   7.650 -0.0221  0.3878 -1.5121
  303MOL0     H41759  10.746   4.048   7.450 -0.4599  5.0376  1.6977
  303MOL0     H41760  10.618   4.071   7.563 -1.3171 -2.0050  3.2456
  303MOL0     H41761  10.711   3.788   7.512 -3.0441 -1.9749  0.9021
  303MOL0     H41762  10.582   3.846   7.610 -0.2955  0.6783  0.3042
  303MOL0     H41763  10.484   4.063   7.357 -2.6721  1.1003 -1.9488
  303MOL0     H41764  10.502   3.968   7.015 -1.0712  1.1091 -2.1794
  303MOL0     H41765  10.412   4.081   7.122 -1.0920 -1.0879  3.7708
  303MOL0     H41766  10.287   3.825   7.058  4.4275  0.0218 -0.1306
  303MOL0     H41767  10.215   3.990   7.059  0.8427  0.8453 -0.2767
  303MOL0     H41768  10.354   4.025   6.839 -0.7232  0.8722  2.5460
  303MOL0     H41769  10.361   3.847   6.840  2.3105  2.1346 -0.5273
  303MOL0     H41770  10.108   4.016   6.813 -2.0994 -1.2313  3.2011
  303MOL0     H41771  10.178   3.914   6.689 -2.3713 -0.0188  0.9323
  303MOL0     H41772  10.009   3.639   6.639 -1.5834  0.4920 -2.1594
  303MOL0     H41773   9.679   3.596   6.473  0.7735 -1.3938 -1.3138
  303MOL0     H41774   9.739   3.489   6.594 -0.9976  0.8760  0.2900
  303MOL0     H41775   9.847   3.557   6.477 -0.9013  0.8923 -1.6907
  303MOL0     H41776   9.366   4.134   6.602 -0.8655 -1.4061 -4.1616
  303MOL0     H41777   9.139   4.203   6.676 -1.3412 -0.7422 -1.2314
  303MOL0     H41778   8.875   3.873   6.897 -0.9154 -0.0695 -0.3531
  303MOL0     H41779   8.982   3.964   7.009 -0.3178 -1.0402  0.0014
  303MOL0     H41780   8.830   4.153   7.009 -0.5899 -1.4432  3.3387
  303MOL0     H41781   8.743   4.093   6.875 -1.2597  0.2028  0.4527
  303MOL0     H41782   8.755   3.932   7.125  1.9663  0.4047 -1.9505
  303MOL0     H41783   8.625   3.936   6.996 -2.4509 -0.9699  4.4736
  303MOL0     H41784   8.549   4.144   7.045 -0.1665  1.8333  0.8908
  303MOL0     H41785   8.686   4.188   7.160 -0.6355  0.3220  0.9857
  303MOL0     H41786   8.458   4.140   7.267  1.4501  2.6608 -1.4435
  303MOL0     H41787   8.464   3.973   7.203  0.0116  1.5243 -0.7444
  303MOL0     H41788   8.644   3.910   7.342 -1.3788 -0.8196 -3.0860
  303MOL0     H41789   8.512   3.985   7.438  0.0125  2.6556  1.8337
  303MOL0     H41790   8.660   4.106   7.538  1.4945  0.5996  0.0356
  303MOL0     H41791   8.672   4.206   7.400 -0.6183 -0.1818 -1.9741
  303MOL0     H41792   8.873   4.069   7.316  0.8400 -1.0782 -0.4900
  303MOL0     H41793   8.872   3.968   7.463 -1.3476  0.0042 -1.0483
  303MOL0     H41794   9.071   3.804   6.826  0.3114 -1.8031 -2.3504
  303MOL0     H41795   9.296   3.746   6.772 -2.2433 -0.6125  1.0410
  303MOL0     H41796   9.689   3.979   6.811  0.5860  0.7207  1.1550
  303MOL0     H41797   9.893   3.979   6.880  1.1727 -2.1654  1.2097
  303MOL0     H41798  10.559   4.241   8.484  0.5146 -2.0590  0.2300
  303MOL0     H41799  10.386   4.081   8.587  0.4072  2.0699  0.9435
  303MOL0     H41800  10.276   3.868   8.762 -1.2215  0.7974  2.3856
  303MOL0     H41801  10.133   3.812   8.956  0.6520  2.8731 -0.3397
  303MOL0     H41802   9.745   3.692   8.859  0.3170 -2.4813 -0.2735
  303MOL0     H41803   9.747   3.601   9.015  2.3867 -2.9182 -1.4002
  303MOL0     H41804   9.701   3.831   9.100 -0.3414  4.2839 -1.2713
  303MOL0     H41805   9.807   3.906   8.987  0.1941  0.4002 -0.7689
  303MOL0     H41806   9.844   3.816   9.254  2.0365 -0.4362  1.9385
  303MOL0     H41807   9.968   3.728   9.151 -0.1716 -0.0541 -1.8139
  303MOL0     H41808  10.034   3.958   9.065  0.5344  0.9016  0.3318
  303MOL0     H41809  10.065   3.924   9.236 -1.5079  1.1109  1.3794
  303MOL0     H41810   9.813   4.235   9.319 -3.0700 -1.7227 -0.7178
  303MOL0     H41811   9.874   3.592   8.693  0.3466  0.6418 -0.0301
  303MOL0     H41812   9.956   3.728   8.401  0.1527 -1.0241 -1.2100
  303MOL0     H41813  10.081   3.617   8.395 -0.5266  1.7435 -0.9729
  303MOL0     H41814   9.927   3.562   8.458 -1.0327  0.6064 -2.5436
  304MOL0     O41815   8.232  10.501   3.538 -0.0304 -0.2513 -0.8755
  304MOL0     C41816   8.240  10.390   3.589  0.5726  0.2302 -0.0697
  304MOL0     O41817   8.274  10.273   3.527  0.6844  0.2602 -0.7278
  304MOL0     C41818   8.317  10.269   3.405 -0.4716  0.4968  0.5221
  304MOL0     C41819   8.395  10.154   3.386  0.6678  0.3091 -0.0355
  304MOL0     C41820   8.471  10.124   3.272 -0.2219  0.2022 -0.7322
  304MOL0     C41821   8.460  10.215   3.169 -0.1375 -0.0958 -0.1844
  304MOL0     O41822   8.555  10.192   3.069 -0.1317  0.0300  0.8019
  304MOL0     C41823   8.576  10.292   2.973 -0.2296 -0.3422 -0.2127
  304MOL0     C41824   8.721  10.290   2.922  0.0265  0.2713 -0.2513
  304MOL0     C41825   8.744  10.388   2.801  0.7836  0.5580 -0.5081
  304MOL0     C41826   8.883  10.458   2.788 -0.0707 -0.4990 -0.8664
  304MOL0     C41827   8.986  10.368   2.728 -0.4423 -0.1846  0.2754
  304MOL0     C41828   8.963  10.324   2.574 -0.2731 -0.5637  0.2408
  304MOL0     C41829   9.092  10.257   2.519 -0.4361  1.1291  0.5482
  304MOL0     C41830   9.122  10.132   2.602 -0.7577 -0.0984  0.1813
  304MOL0     N41831   9.221  10.052   2.534  0.0199 -1.0161  1.1607
  304MOL0     C41832   9.234  10.039   2.401 -0.9400  0.1487  0.8096
  304MOL0     C41833   9.331   9.945   2.384  0.1382 -0.0548 -0.2233
  304MOL0     C41834   9.382   9.922   2.251 -0.7536 -0.4143  0.4773
  304MOL0     C41835   9.528   9.947   2.267 -0.8785  0.2917  0.8074
  304MOL0     C41836   9.574  10.079   2.344  0.0846 -0.4713 -0.4492
  304MOL0     C41837   9.697  10.158   2.284  0.4724 -0.3999  0.4536
  304MOL0     O41838   9.645  10.251   2.183 -0.6352  0.0422 -0.1967
  304MOL0     C41839   9.734  10.341   2.127 -0.7557  0.0127 -0.6438
  304MOL0     C41840   9.871  10.317   2.133  1.0345  0.6729 -0.6014
  304MOL0     C41841   9.963  10.406   2.084 -0.7707 -0.3767  0.1270
  304MOL0     C41842  10.106  10.367   2.104  0.3263 -0.2227 -0.5892
  304MOL0     C41843   9.914  10.520   2.005  0.9003  0.7171 -1.0586
  304MOL0     C41844   9.996  10.627   1.941  1.0942 -0.5520  0.7586
  304MOL0     O41845   9.943  10.701   1.832  0.0509  0.1555 -0.3366
  304MOL0     C41846  10.021  10.816   1.791  0.1515 -0.1571 -0.1391
  304MOL0     C41847   9.977  10.941   1.823  0.0061 -0.9902  0.3028
  304MOL0     C41848  10.058  11.050   1.783 -0.2071  0.0891 -0.1872
  304MOL0     C41849  10.176  11.031   1.706 -0.1203 -0.1300  0.3052
  304MOL0     O41850  10.261  11.123   1.655  0.0805 -0.2075 -0.1803
  304MOL0     C41851  10.257  11.261   1.709  0.2620 -0.0458 -0.7384
  304MOL0     C41852  10.357  11.341   1.623  0.0502  0.5251 -0.0533
  304MOL0     C41853  10.317  11.357   1.483  0.0258  0.1087 -0.0847
  304MOL0     C41854  10.228  11.486   1.458 -0.2759 -0.4150 -0.1900
  304MOL0     C41855  10.221  11.531   1.302 -0.3219 -0.0123 -0.7961
  304MOL0     C41856  10.185  11.680   1.283 -0.0369 -0.6877  0.1014
  304MOL0     C41857  10.114  11.703   1.146  0.1099  0.0918 -0.0550
  304MOL0     C41858  10.063  11.843   1.117 -1.5005  0.0380  0.7651
  304MOL0    Cl41859  10.201  11.977   1.106  0.6153  0.3058  0.2094
  304MOL0     C41860  10.214  10.905   1.678 -0.1224  0.4803  0.4719
  304MOL0     C41861  10.144  10.797   1.721  0.3793 -0.4709 -0.7327
  304MOL0     O41862  10.109  10.641   1.979 -0.9087 -0.2069 -0.1414
  304MOL0     C41863   9.779  10.523   1.969 -0.1742 -0.1163  0.4306
  304MOL0     C41864   9.694  10.443   2.040  0.5549 -0.2653  0.3273
  304MOL0     N41865   9.362   9.890   2.507  0.3137 -0.7416 -0.5964
  304MOL0     N41866   9.300   9.964   2.596 -0.2226  0.6868  0.3348
  304MOL0     C41867   8.375  10.327   3.177  1.4129 -0.8139 -0.4145
  304MOL0     C41868   8.304  10.354   3.291  0.5278  0.8376  0.4805
  304MOL0     C41869   8.212  10.370   3.735 -0.5297 -0.3352 -0.2912
  304MOL0     C41870   8.240  10.243   3.800 -0.3502 -0.2237  0.6537
  304MOL0     C41871   8.218  10.212   3.930 -0.1442 -0.1068  0.1731
  304MOL0     C41872   8.123  10.300   3.989  0.0428  1.1001  0.1712
  304MOL0     O41873   8.038  10.266   4.101 -0.2369  0.0884 -0.1368
  304MOL0     C41874   8.072  10.150   4.188 -0.5139  0.9851  0.3646
  304MOL0     C41875   8.014  10.171   4.320 -0.4284  0.7504  0.6989
  304MOL0     C41876   8.018  10.055   4.418 -0.4496 -0.0100  0.4463
  304MOL0     C41877   8.158   9.972   4.421  0.2591 -0.0595 -0.0151
  304MOL0     C41878   8.278  10.048   4.459 -1.6354 -0.7231  0.0119
  304MOL0     C41879   8.370  10.120   4.487  0.4743 -0.4037  0.5379
  304MOL0     C41880   8.094  10.420   3.935 -0.0917  0.0952  0.4778
  304MOL0     C41881   8.128  10.466   3.806  0.2313  0.7665 -0.0824
  304MOL0     C41882   8.069  10.595   3.749 -1.1790 -0.5403 -0.2687
  304MOL0     H41883   8.410  10.084   3.468  0.4957 -0.2965 -0.5174
  304MOL0     H41884   8.534  10.035   3.270 -0.6170 -0.2762  2.4381
  304MOL0     H41885   8.566  10.391   3.017 -0.3284  1.1192 -3.2278
  304MOL0     H41886   8.499  10.282   2.895 -0.2228 -0.5848 -0.1903
  304MOL0     H41887   8.791  10.309   3.004  4.1183 -2.7491 -2.6228
  304MOL0     H41888   8.746  10.191   2.881 -0.8931  0.8386 -2.3116
  304MOL0     H41889   8.719  10.347   2.703  2.5014 -1.2054 -0.2702
  304MOL0     H41890   8.675  10.469   2.827  3.0271  2.2116  0.7533
  304MOL0     H41891   8.877  10.546   2.723  0.8192  1.9591  2.1483
  304MOL0     H41892   8.912  10.489   2.889 -2.5928 -0.7405  0.0200
  304MOL0     H41893   9.000  10.287   2.800  0.1587  1.9050  2.6248
  304MOL0     H41894   9.083  10.419   2.731  0.9943 -1.6688 -5.8785
  304MOL0     H41895   8.885  10.249   2.558 -0.3586 -0.4412  0.0704
  304MOL0     H41896   8.927  10.413   2.522 -2.3778 -1.0602  0.7367
  304MOL0     H41897   9.174  10.330   2.522 -1.0308  1.8205  0.2843
  304MOL0     H41898   9.074  10.245   2.412 -0.4609  1.4279  0.5185
  304MOL0     H41899   9.155  10.154   2.704 -1.0132 -0.0867  0.2641
  304MOL0     H41900   9.027  10.079   2.615 -0.7340 -0.0758  0.4456
  304MOL0     H41901   9.194  10.092   2.315  2.1071 -1.9695 -2.1892
  304MOL0     H41902   9.348  10.000   2.183  0.1697 -1.6605 -1.5000
  304MOL0     H41903   9.347   9.832   2.200 -0.2731 -1.5771  2.0867
  304MOL0     H41904   9.570   9.865   2.325 -0.0306 -1.8220 -2.4894
  304MOL0     H41905   9.578   9.941   2.170 -1.1872  0.3170  0.6455
  304MOL0     H41906   9.494  10.146   2.377  0.6017  0.1018 -0.3390
  304MOL0     H41907   9.624  10.034   2.430  1.9021 -1.4595 -1.9349
  304MOL0     H41908   9.756  10.205   2.363  1.7701 -0.1694 -0.6193
  304MOL0     H41909   9.767  10.084   2.244  0.7881  0.3374 -0.3983
  304MOL0     H41910   9.913  10.228   2.179 -0.6192 -1.9252 -3.6772
  304MOL0     H41911  10.148  10.417   2.191 -1.2171  4.1489 -2.1069
  304MOL0     H41912  10.160  10.386   2.011 -4.1352  2.5799 -2.9641
  304MOL0     H41913  10.109  10.257   2.106  0.6915 -0.2074 -0.2818
  304MOL0     H41914   9.895  10.960   1.891  0.4038 -0.8318  0.7413
  304MOL0     H41915  10.028  11.151   1.808 -3.2961 -0.3648 -1.6791
  304MOL0     H41916  10.157  11.304   1.708  1.3181  2.5850 -1.8884
  304MOL0     H41917  10.296  11.266   1.811  2.6978  2.3037 -1.6535
  304MOL0     H41918  10.380  11.438   1.668  1.2928  0.4633 -0.5155
  304MOL0     H41919  10.454  11.292   1.628 -1.1866 -1.9803  0.7128
  304MOL0     H41920  10.262  11.269   1.446 -2.0442  1.8167 -1.3591
  304MOL0     H41921  10.414  11.367   1.433  1.3357 -0.5402  2.1944
  304MOL0     H41922  10.269  11.568   1.518  0.9639 -2.4888  1.9913
  304MOL0     H41923  10.127  11.464   1.495  0.7725 -0.1725  3.1883
  304MOL0     H41924  10.323  11.525   1.262  0.1837 -3.5195  0.7023
  304MOL0     H41925  10.159  11.468   1.238 -0.2727 -0.9267  0.0360
  304MOL0     H41926  10.279  11.734   1.288  0.3484 -1.2115 -1.1085
  304MOL0     H41927  10.107  11.704   1.356  1.3493 -2.3059  2.2262
  304MOL0     H41928  10.026  11.640   1.157 -0.0404  0.3402  0.1874
  304MOL0     H41929  10.175  11.670   1.061 -0.2220  1.1980 -0.7551
  304MOL0     H41930   9.999  11.865   1.203 -0.7944  0.2222  1.2543
  304MOL0     H41931   9.999  11.835   1.029 -1.7406 -4.2067  1.0902
  304MOL0     H41932  10.308  10.898   1.624  0.8857  2.0852  1.9264
  304MOL0     H41933  10.174  10.694   1.702 -0.0235 -0.4097 -1.7622
  304MOL0     H41934   9.733  10.580   1.888 -3.7169 -3.4585 -0.2465
  304MOL0     H41935   9.587  10.439   2.019  0.2927  0.4666  1.4567
  304MOL0     H41936   8.355  10.402   3.101 -3.5070  1.1183  2.2893
  304MOL0     H41937   8.245  10.443   3.308 -1.7584 -0.7210  1.1926
  304MOL0     H41938   8.279  10.157   3.746 -2.0195 -1.2565  0.9935
  304MOL0     H41939   8.259  10.122   3.976  5.5609  1.2330 -1.4325
  304MOL0     H41940   8.042  10.053   4.149  0.9010  0.2750  0.9712
  304MOL0     H41941   8.181  10.152   4.203 -0.4967  0.4729  0.3237
  304MOL0     H41942   7.907  10.196   4.321 -0.4326  0.7548  1.9114
  304MOL0     H41943   8.061  10.260   4.362  0.9596  0.8086 -0.8761
  304MOL0     H41944   7.994  10.092   4.518 -1.4356  0.1736  0.1474
  304MOL0     H41945   7.940   9.987   4.384  1.2457 -1.8830  0.1316
  304MOL0     H41946   8.173   9.931   4.320 -0.1944  4.5897 -2.2421
  304MOL0     H41947   8.151   9.888   4.490 -0.7842  1.1981  1.4814
  304MOL0     H41948   8.452  10.183   4.514  0.7837 -0.1264 -0.9550
  304MOL0     H41949   8.020  10.479   3.989  1.9865  2.9358  0.4887
  304MOL0     H41950   8.008  10.573   3.662 -1.8026  1.1254 -0.2904
  304MOL0     H41951   8.004  10.648   3.819 -2.9381  0.0877 -2.2954
  304MOL0     H41952   8.140  10.677   3.732 -1.7987 -0.1439 -1.0079
  305MOL0     O41953   2.853   5.652   7.188  1.4921  0.2004 -0.0445
  305MOL0     C41954   2.971   5.667   7.165  0.2770  1.4247 -0.5468
  305MOL0     O41955   3.041   5.786   7.172  0.3059  0.2978 -0.4681
  305MOL0     C41956   2.982   5.905   7.206  1.3035  0.0753  0.6492
  305MOL0     C41957   2.994   6.001   7.099 -0.3280 -0.7606 -0.9556
  305MOL0     C41958   2.968   6.134   7.120  1.0120  0.6032  0.3800
  305MOL0     C41959   2.926   6.176   7.246  0.1998 -0.6635  0.1407
  305MOL0     O41960   2.907   6.312   7.277 -0.2836  0.0380 -0.5344
  305MOL0     C41961   2.988   6.404   7.200 -0.6365 -0.0910 -0.6205
  305MOL0     C41962   3.142   6.398   7.216 -0.5194  0.8082 -0.2956
  305MOL0     C41963   3.194   6.371   7.358  0.7819  0.8974  0.6505
  305MOL0     C41964   3.182   6.493   7.449  0.4493 -1.0649  0.2684
  305MOL0     C41965   3.229   6.480   7.590 -0.3132 -0.2981 -1.4975
  305MOL0     C41966   3.146   6.381   7.671  0.4699  0.6217  0.0549
  305MOL0     C41967   3.230   6.330   7.793  0.2603 -0.1429  0.4403
  305MOL0     C41968   3.227   6.438   7.911 -1.0308  0.2858  0.6887
  305MOL0     N41969   3.096   6.444   7.973  0.6418  0.3651 -0.5282
  305MOL0     C41970   3.055   6.358   8.075  0.5270 -0.1133 -0.5009
  305MOL0     C41971   2.918   6.394   8.085 -0.0892 -0.5952 -0.3969
  305MOL0     C41972   2.800   6.332   8.158  0.3523 -0.6937  0.4163
  305MOL0     C41973   2.821   6.314   8.313  0.5686  0.3426  0.4243
  305MOL0     C41974   2.800   6.449   8.377 -0.2607  0.2039  0.2135
  305MOL0     C41975   2.775   6.445   8.525  0.1049 -0.8549  0.0954
  305MOL0     O41976   2.885   6.428   8.595 -0.2546 -0.9005  0.2573
  305MOL0     C41977   2.878   6.428   8.732 -0.0299 -0.2848  0.0694
  305MOL0     C41978   2.764   6.449   8.807  0.9726 -0.1182 -0.3498
  305MOL0     C41979   2.757   6.420   8.950 -0.2879 -0.2775 -0.3360
  305MOL0     C41980   2.619   6.413   9.005  0.4342 -0.2097  0.2682
  305MOL0     C41981   2.879   6.395   9.014 -0.0024 -0.2107  0.8713
  305MOL0     C41982   2.885   6.388   9.163  0.4658  0.4390  0.7766
  305MOL0     O41983   2.786   6.443   9.236 -0.5155 -0.4066 -0.2296
  305MOL0     C41984   2.798   6.441   9.369  0.8460  0.8493 -0.3085
  305MOL0     C41985   2.835   6.548   9.442  1.3084  0.5772  0.8425
  305MOL0     C41986   2.846   6.534   9.585 -0.5366  0.8519  0.3746
  305MOL0     C41987   2.813   6.416   9.644 -0.2820  0.0540 -0.3082
  305MOL0     O41988   2.842   6.411   9.776  0.1939  0.2903 -0.4023
  305MOL0     C41989   2.784   6.319   9.864 -0.0712  0.4882  0.8604
  305MOL0     C41990   2.879   6.205   9.897  0.5592  0.7362 -0.3503
  305MOL0     C41991   2.842   6.138  10.026  0.2711  0.0485  0.2476
  305MOL0     C41992   2.939   6.030  10.050  0.3237  0.2134 -0.1717
  305MOL0     C41993   2.893   5.930  10.162 -0.8217 -0.7556 -0.3090
  305MOL0     C41994   2.990   5.802  10.164 -0.0484  0.4896 -0.1232
  305MOL0     C41995   3.118   5.823  10.251  0.2227  0.4508  0.2282
  305MOL0     C41996   3.234   5.747  10.186 -0.3827  0.2237 -0.7444
  305MOL0    Cl41997   3.297   5.811  10.027 -0.6614  0.0658 -0.6942
  305MOL0     C41998   2.767   6.304   9.567  0.3116 -0.4490 -0.4551
  305MOL0     C41999   2.754   6.319   9.430 -0.6798 -1.2223  0.1014
  305MOL0     O42000   2.984   6.335   9.216 -0.1130 -0.4861 -0.9239
  305MOL0     C42001   2.998   6.390   8.938  0.1790 -0.8626  0.0382
  305MOL0     C42002   2.991   6.404   8.801  0.1168  0.3616  0.6615
  305MOL0     N42003   2.897   6.502   8.000  1.0250 -0.0738 -0.4969
  305MOL0     N42004   3.002   6.537   7.943 -0.3445  0.2813 -1.0558
  305MOL0     C42005   2.898   6.084   7.348 -0.4120  0.9181 -0.3479
  305MOL0     C42006   2.930   5.944   7.327 -0.4476 -0.5645 -0.1852
  305MOL0     C42007   3.036   5.538   7.131 -0.4614 -0.4095  0.1508
  305MOL0     C42008   2.967   5.421   7.129  0.1763 -0.3885 -0.6834
  305MOL0     C42009   3.026   5.299   7.093  0.4779 -0.5439  0.6254
  305MOL0     C42010   3.160   5.293   7.052  0.2703 -0.1180  0.9369
  305MOL0     O42011   3.202   5.167   7.014  0.1783 -0.2792  0.1805
  305MOL0     C42012   3.331   5.142   6.955 -0.5842 -0.3736 -0.1546
  305MOL0     C42013   3.321   5.013   6.886  0.8646  0.2245  0.6522
  305MOL0     C42014   3.449   4.984   6.798  1.0010 -0.2577 -0.0660
  305MOL0     C42015   3.425   4.872   6.701 -0.5559  0.5151 -0.4105
  305MOL0     C42016   3.524   4.870   6.598 -1.3145 -1.0138 -0.3304
  305MOL0     C42017   3.603   4.878   6.507  0.8035  0.6764 -0.3542
  305MOL0     C42018   3.236   5.408   7.047  0.1990 -1.3860 -0.5904
  305MOL0     C42019   3.176   5.532   7.093  0.1835  0.0457  0.4808
  305MOL0     C42020   3.270   5.658   7.097  0.2219  0.2119  0.5500
  305MOL0     H42021   3.027   5.962   7.004  0.9907 -0.5080 -0.6224
  305MOL0     H42022   2.973   6.201   7.035  1.5750  0.2855  0.1549
  305MOL0     H42023   2.956   6.503   7.232 -0.6249 -0.5122  0.7647
  305MOL0     H42024   2.965   6.395   7.094 -2.3569 -3.3833 -0.0948
  305MOL0     H42025   3.176   6.313   7.156 -2.3050 -1.3532  1.5821
  305MOL0     H42026   3.178   6.491   7.171  1.6344 -0.3496 -1.0898
  305MOL0     H42027   3.147   6.282   7.402 -1.4496  3.8758  5.0562
  305MOL0     H42028   3.295   6.330   7.361  0.4719  0.0946  0.5579
  305MOL0     H42029   3.235   6.579   7.407  0.0476 -0.8551  0.1887
  305MOL0     H42030   3.079   6.530   7.452  0.4860 -0.3748 -3.1124
  305MOL0     H42031   3.207   6.578   7.634 -0.6754 -1.0051 -0.0117
  305MOL0     H42032   3.336   6.459   7.594 -0.6386 -1.9449 -0.5326
  305MOL0     H42033   3.045   6.418   7.691  0.8039  0.2710  2.7449
  305MOL0     H42034   3.141   6.287   7.616 -0.0505  0.0519  1.0434
  305MOL0     H42035   3.330   6.306   7.757  1.0615  2.3439  0.8343
  305MOL0     H42036   3.175   6.245   7.836 -0.9435  0.8357  0.9085
  305MOL0     H42037   3.283   6.404   7.998  0.3410 -1.6630 -0.8598
  305MOL0     H42038   3.270   6.536   7.888  1.9248 -1.0649  0.0690
  305MOL0     H42039   3.104   6.263   8.095  1.4403  0.3758 -0.3545
  305MOL0     H42040   2.777   6.235   8.114 -2.2484  0.2243 -0.3957
  305MOL0     H42041   2.715   6.388   8.119  1.2759 -0.6928 -1.7973
  305MOL0     H42042   2.736   6.255   8.351 -0.7531  0.0616 -2.6769
  305MOL0     H42043   2.911   6.267   8.353  0.3845 -0.7732 -0.4310
  305MOL0     H42044   2.887   6.515   8.365 -1.3834  1.9381  1.2344
  305MOL0     H42045   2.711   6.501   8.340  0.2613  2.0059  1.3633
  305MOL0     H42046   2.733   6.542   8.554  0.0078 -1.3161  1.6432
  305MOL0     H42047   2.698   6.369   8.546 -2.1312  1.4054  0.5918
  305MOL0     H42048   2.671   6.469   8.754  0.6279 -1.9116 -0.4782
  305MOL0     H42049   2.579   6.499   9.059  2.0067  0.9971 -0.3874
  305MOL0     H42050   2.624   6.324   9.068  2.8829 -1.4972 -1.5608
  305MOL0     H42051   2.544   6.379   8.933 -0.5066 -0.1425  1.2029
  305MOL0     H42052   2.869   6.632   9.383 -1.9360  1.7253  0.4211
  305MOL0     H42053   2.899   6.609   9.644 -1.2484  2.4820 -0.9797
  305MOL0     H42054   2.770   6.374   9.958  1.8567 -1.0150  2.1239
  305MOL0     H42055   2.692   6.280   9.819  1.3455  0.3095 -2.0839
  305MOL0     H42056   2.867   6.127   9.821 -3.7504 -0.1284  0.9764
  305MOL0     H42057   2.977   6.255   9.898  0.0211  2.1036 -3.3356
  305MOL0     H42058   2.741   6.097  10.018 -0.5843  1.3284  3.3253
  305MOL0     H42059   2.840   6.222  10.096  1.3666  0.5529 -0.3009
  305MOL0     H42060   3.041   6.067  10.060  0.1322  0.4104  1.1630
  305MOL0     H42061   2.939   5.964   9.963  3.6963  0.0803 -0.1667
  305MOL0     H42062   2.925   5.979  10.254 -0.0975 -0.3641 -0.7557
  305MOL0     H42063   2.789   5.899  10.153 -0.0052 -3.7509 -0.6048
  305MOL0     H42064   3.024   5.787  10.061  3.4001  0.1899  0.9086
  305MOL0     H42065   2.933   5.711  10.184 -0.8091  1.5631  3.2346
  305MOL0     H42066   3.101   5.768  10.344 -1.9365  0.4331 -0.1307
  305MOL0     H42067   3.152   5.923  10.281  0.8051  0.1448  0.6100
  305MOL0     H42068   3.193   5.645  10.184  0.3062 -0.4133  4.1597
  305MOL0     H42069   3.319   5.738  10.255 -0.9324  1.2904  0.1052
  305MOL0     H42070   2.750   6.214   9.625 -0.5619  2.4352  4.2909
  305MOL0     H42071   2.730   6.228   9.376  0.3231 -1.7645  0.5446
  305MOL0     H42072   3.089   6.361   8.990 -0.4407 -5.8970 -1.1472
  305MOL0     H42073   3.086   6.386   8.753 -0.8401  0.5016 -1.3875
  305MOL0     H42074   2.868   6.117   7.447 -0.8162  1.4794 -0.6513
  305MOL0     H42075   2.942   5.880   7.414  1.3006  2.0988  1.6891
  305MOL0     H42076   2.865   5.419   7.165 -0.6331  0.1683 -2.7969
  305MOL0     H42077   2.963   5.210   7.098  2.3928 -1.9082  1.6106
  305MOL0     H42078   3.360   5.230   6.896  2.9878 -0.3254  1.4220
  305MOL0     H42079   3.411   5.143   7.029 -1.2393 -0.8097  0.5678
  305MOL0     H42080   3.228   5.016   6.829  1.0735  2.0320  0.3475
  305MOL0     H42081   3.315   4.931   6.958  3.5687  1.2623  2.1945
  305MOL0     H42082   3.481   5.074   6.745  3.2442 -0.5950  0.5778
  305MOL0     H42083   3.533   4.965   6.866  0.7064 -1.5594 -0.0388
  305MOL0     H42084   3.331   4.872   6.644 -1.0769 -4.3827 -0.0179
  305MOL0     H42085   3.438   4.785   6.766  0.8449  1.6438  0.8943
  305MOL0     H42086   3.667   4.883   6.422  1.5954  2.4903  0.2854
  305MOL0     H42087   3.336   5.405   7.006  1.4441 -0.2211  2.1021
  305MOL0     H42088   3.261   5.710   7.193 -2.2438  0.0071  0.4997
  305MOL0     H42089   3.371   5.618   7.095  0.1840  0.1332 -0.9256
  305MOL0     H42090   3.243   5.727   7.017 -0.2047 -2.6305 -1.9538
  306MOL0     O42091   4.947  10.078   0.221  1.6849  0.0616 -0.1424
  306MOL0     C42092   4.844  10.139   0.262 -0.0586 -0.6688  1.0268
  306MOL0     O42093   4.845  10.209   0.372  0.3886  0.0279 -0.9045
  306MOL0     C42094   4.946  10.206   0.466  0.3116 -0.7010 -0.5659
  306MOL0     C42095   5.026  10.094   0.486 -1.1930 -0.5962 -0.7115
  306MOL0     C42096   5.115  10.078   0.592 -0.2507  0.4927  0.2129
  306MOL0     C42097   5.119  10.188   0.691  0.3935 -0.6325  0.7796
  306MOL0     O42098   5.201  10.198   0.801 -0.0868  0.5823 -0.3849
  306MOL0     C42099   5.253  10.073   0.843 -0.0505 -0.6839 -0.5531
  306MOL0     C42100   5.358  10.109   0.946  0.2842 -0.7867  0.1974
  306MOL0     C42101   5.426   9.986   0.992  0.3049 -1.5930  0.2394
  306MOL0     C42102   5.339   9.934   1.106  0.1374  0.0944  1.1681
  306MOL0     C42103   5.417   9.826   1.195  0.9097  0.8467  0.3172
  306MOL0     C42104   5.410   9.689   1.148  0.1022  0.1570 -0.6556
  306MOL0     C42105   5.499   9.605   1.243  0.6552  0.5162 -0.3252
  306MOL0     C42106   5.438   9.560   1.383  0.1767  0.3448 -0.1854
  306MOL0     N42107   5.540   9.509   1.482 -0.4613  0.5145  0.0092
  306MOL0     C42108   5.538   9.381   1.555  0.2555 -0.3627  0.5146
  306MOL0     C42109   5.664   9.370   1.597 -0.6464  0.2966 -0.9189
  306MOL0     C42110   5.704   9.248   1.686  0.5731  0.0562 -0.8412
  306MOL0     C42111   5.731   9.118   1.601  0.1971 -0.0585 -0.4783
  306MOL0     C42112   5.848   9.145   1.513 -0.2020 -0.3441 -0.2971
  306MOL0     C42113   5.981   9.159   1.591  0.0470  0.2987 -0.8730
  306MOL0     O42114   6.009   9.023   1.628  0.0358 -0.8283 -0.6070
  306MOL0     C42115   6.123   9.009   1.704 -0.2417  0.2399 -0.2335
  306MOL0     C42116   6.228   9.095   1.727 -1.2223 -0.2949 -0.3064
  306MOL0     C42117   6.321   9.085   1.828 -0.7118  0.1881  0.2662
  306MOL0     C42118   6.424   9.196   1.833  1.0307 -0.5863  0.6198
  306MOL0     C42119   6.326   8.964   1.902 -0.5909 -0.4430  0.5657
  306MOL0     C42120   6.445   8.928   1.987  0.4254  0.1222  0.2315
  306MOL0     O42121   6.465   8.794   2.000 -0.8019 -0.0537 -0.0052
  306MOL0     C42122   6.580   8.739   2.052 -0.4303  0.3514  0.4394
  306MOL0     C42123   6.707   8.793   2.017  0.4388  0.3877  0.2281
  306MOL0     C42124   6.824   8.716   2.041  0.0211 -0.8967 -0.0366
  306MOL0     C42125   6.814   8.588   2.119 -0.0554  0.2024 -0.1936
  306MOL0     O42126   6.913   8.487   2.136  0.0333  0.0568  0.2391
  306MOL0     C42127   7.044   8.547   2.142  0.3926  1.2138  0.1212
  306MOL0     C42128   7.061   8.627   2.263  0.8884 -0.5959 -0.7679
  306MOL0     C42129   7.200   8.693   2.240 -0.5024  1.2396  0.5145
  306MOL0     C42130   7.264   8.778   2.358  0.5921 -0.2226 -0.6225
  306MOL0     C42131   7.400   8.842   2.324 -0.6807  0.6488  0.1749
  306MOL0     C42132   7.511   8.746   2.310 -1.2863 -0.4033 -1.0260
  306MOL0     C42133   7.646   8.819   2.329 -0.1373 -0.8431  0.7027
  306MOL0     C42134   7.752   8.727   2.296 -0.0445 -0.7306  0.3116
  306MOL0    Cl42135   7.767   8.586   2.403 -1.0928 -0.5332  0.0701
  306MOL0     C42136   6.692   8.554   2.166 -0.0327 -0.3976  0.1047
  306MOL0     C42137   6.574   8.626   2.129 -0.0348  0.4798  0.9597
  306MOL0     O42138   6.502   9.014   2.053 -0.2377  0.4854 -0.0289
  306MOL0     C42139   6.226   8.873   1.876 -0.7972 -0.2225  0.5171
  306MOL0     C42140   6.126   8.895   1.783  0.1766  0.3465 -0.3006
  306MOL0     N42141   5.742   9.479   1.561 -0.3885 -0.5845  0.6440
  306MOL0     N42142   5.673   9.556   1.482  0.0908 -0.3598  0.3603
  306MOL0     C42143   5.049  10.310   0.654 -0.6393  0.4597  0.4606
  306MOL0     C42144   4.964  10.318   0.553  0.4399  0.5176  0.0477
  306MOL0     C42145   4.713  10.130   0.188  0.2834  1.0567  0.1126
  306MOL0     C42146   4.598  10.172   0.262  0.3810  0.4378  0.0179
  306MOL0     C42147   4.471  10.160   0.199  0.1726 -0.5553 -0.3996
  306MOL0     C42148   4.449  10.129   0.071  0.2305 -0.3469  0.1481
  306MOL0     O42149   4.320  10.129   0.027  0.8331 -0.7216  0.0655
  306MOL0     C42150   4.294  10.097  -0.104  1.0079 -0.4713 -0.6291
  306MOL0     C42151   4.323  10.205  -0.195  0.2438 -0.7845 -1.4192
  306MOL0     C42152   4.262  10.187  -0.335 -0.1604  0.3728 -0.5887
  306MOL0     C42153   4.320  10.292  -0.428  0.1639  0.1535  0.1635
  306MOL0     C42154   4.458  10.250  -0.442  0.3187 -0.0469  0.3455
  306MOL0     C42155   4.568  10.217  -0.460 -0.7698  0.7585  0.3545
  306MOL0     C42156   4.562  10.082   0.004 -0.0008  0.4967  0.2625
  306MOL0     C42157   4.693  10.074   0.064  0.4767 -0.7712  0.3233
  306MOL0     C42158   4.809  10.029  -0.018 -1.3433  0.2433  0.5834
  306MOL0     H42159   5.031  10.007   0.421  2.3321  0.2301 -1.7901
  306MOL0     H42160   5.179   9.991   0.603  0.8114  1.5605  4.3008
  306MOL0     H42161   5.298  10.022   0.757  0.1971 -0.1594 -0.7370
  306MOL0     H42162   5.179  10.001   0.879  0.1132  0.0942  1.4567
  306MOL0     H42163   5.430  10.170   0.892 -0.4972  0.8945  0.9840
  306MOL0     H42164   5.328  10.171   1.031  2.1457  0.0800  0.2552
  306MOL0     H42165   5.458   9.913   0.917 -4.2362 -1.1390 -2.5084
  306MOL0     H42166   5.523  10.027   1.022  0.5181 -2.6594  1.0521
  306MOL0     H42167   5.321  10.014   1.178 -1.5403 -0.5530  1.4998
  306MOL0     H42168   5.244   9.891   1.076 -1.6630  3.3726  1.7500
  306MOL0     H42169   5.372   9.818   1.294  2.5822 -1.8598  0.9636
  306MOL0     H42170   5.517   9.872   1.199  0.5547  1.8374 -1.3452
  306MOL0     H42171   5.304   9.665   1.138 -0.3016  1.1155  0.9732
  306MOL0     H42172   5.460   9.677   1.052  2.3390 -0.4419  0.5179
  306MOL0     H42173   5.593   9.661   1.243  1.0019 -0.0150 -2.2060
  306MOL0     H42174   5.536   9.511   1.201  1.2027  0.8488 -0.5853
  306MOL0     H42175   5.396   9.649   1.431 -0.1083  0.2539 -0.2620
  306MOL0     H42176   5.369   9.479   1.356  1.2951  0.0616 -2.4053
  306MOL0     H42177   5.446   9.324   1.559 -1.1489  1.8160  1.0670
  306MOL0     H42178   5.616   9.221   1.745 -1.4305 -0.0906 -3.7188
  306MOL0     H42179   5.788   9.283   1.748  0.6060 -0.1831 -0.7473
  306MOL0     H42180   5.756   9.042   1.675  1.1931  2.7864  2.3759
  306MOL0     H42181   5.648   9.083   1.539  0.5841 -0.0952 -0.9785
  306MOL0     H42182   5.862   9.060   1.445  1.1297  1.4825 -2.4394
  306MOL0     H42183   5.822   9.218   1.435 -3.0181  0.2837  1.1060
  306MOL0     H42184   6.054   9.203   1.522  1.6148  0.7841  0.9843
  306MOL0     H42185   5.981   9.225   1.679 -0.1701 -1.2018  0.3022
  306MOL0     H42186   6.213   9.175   1.655  0.7701  0.6332  0.2423
  306MOL0     H42187   6.519   9.162   1.875  1.5524  0.4401  0.3178
  306MOL0     H42188   6.386   9.256   1.917  3.3939  1.7258  0.1648
  306MOL0     H42189   6.454   9.254   1.746  0.3615 -2.1602 -0.7060
  306MOL0     H42190   6.706   8.885   1.959  1.5657  0.5912  0.4996
  306MOL0     H42191   6.916   8.763   2.008 -2.2253  1.1553 -4.1208
  306MOL0     H42192   7.103   8.457   2.163 -2.3912 -0.5997  0.8558
  306MOL0     H42193   7.066   8.596   2.047  0.5811 -0.3412 -0.6730
  306MOL0     H42194   6.992   8.710   2.246  2.6473  0.3524 -4.3606
  306MOL0     H42195   7.048   8.582   2.362  0.9668 -1.4589 -1.1406
  306MOL0     H42196   7.196   8.751   2.148 -0.2634  0.7784  0.2100
  306MOL0     H42197   7.266   8.610   2.214 -1.2388  0.2340  1.6659
  306MOL0     H42198   7.266   8.729   2.455  3.3082  1.8034  0.4926
  306MOL0     H42199   7.208   8.869   2.381  0.8366 -0.9642  3.7915
  306MOL0     H42200   7.388   8.901   2.233  4.7979  2.6271  0.3643
  306MOL0     H42201   7.435   8.915   2.397  0.0411  0.0356  0.4571
  306MOL0     H42202   7.516   8.693   2.214  2.6145 -0.5929 -0.8848
  306MOL0     H42203   7.512   8.674   2.392  1.7186 -0.9644 -1.4309
  306MOL0     H42204   7.655   8.849   2.434  2.3109 -3.7961  1.4662
  306MOL0     H42205   7.646   8.906   2.263  0.6353 -1.4359 -0.0917
  306MOL0     H42206   7.851   8.774   2.295 -0.9534  1.3683  1.5260
  306MOL0     H42207   7.726   8.673   2.204  0.6388 -3.3273  1.5602
  306MOL0     H42208   6.695   8.468   2.232 -2.2705 -0.5064  0.1270
  306MOL0     H42209   6.478   8.579   2.146 -0.5537  0.3721 -1.8257
  306MOL0     H42210   6.225   8.779   1.931  0.6318 -0.6249 -0.1001
  306MOL0     H42211   6.058   8.810   1.776  2.5674 -1.7882  0.7430
  306MOL0     H42212   5.077  10.393   0.717  0.4656 -0.1081  0.7464
  306MOL0     H42213   4.895  10.401   0.550 -1.5763 -1.0801  0.0476
  306MOL0     H42214   4.607  10.211   0.363 -0.1703  0.8952 -0.1051
  306MOL0     H42215   4.394  10.186   0.271  3.8670  1.9787  3.1089
  306MOL0     H42216   4.347  10.010  -0.144  1.2758  0.2336 -1.8920
  306MOL0     H42217   4.188  10.070  -0.110  0.7566  0.3430  0.0808
  306MOL0     H42218   4.431  10.188  -0.203  1.0516  1.0963  2.8431
  306MOL0     H42219   4.310  10.304  -0.151  0.9977  0.3616 -3.6345
  306MOL0     H42220   4.302  10.089  -0.362  2.9907  1.9350 -2.1027
  306MOL0     H42221   4.154  10.175  -0.322 -0.0413 -0.5629 -0.4330
  306MOL0     H42222   4.307  10.393  -0.388 -0.3584  0.9319 -1.8612
  306MOL0     H42223   4.273  10.302  -0.526  3.8931 -1.5260 -2.0282
  306MOL0     H42224   4.669  10.194  -0.485 -0.0757  1.7248  2.1205
  306MOL0     H42225   4.551  10.050  -0.099  0.9738  1.2642 -0.0978
  306MOL0     H42226   4.782  10.029  -0.124  0.3064 -3.1684  0.0360
  306MOL0     H42227   4.891  10.101  -0.018 -1.1135  0.0501 -1.5838
  306MOL0     H42228   4.837   9.929   0.017 -2.8282 -1.4939 -2.7162
  307MOL0     O42229   1.591   2.338   6.817  0.1730  0.1630 -0.0838
  307MOL0     C42230   1.570   2.376   6.932 -0.2775  0.2110 -0.0304
  307MOL0     O42231   1.449   2.358   6.995 -0.0270  0.2255  0.0131
  307MOL0     C42232   1.329   2.303   6.959  0.3307 -0.5315  0.4702
  307MOL0     C42233   1.237   2.266   7.063  0.1145 -0.2602 -1.0725
  307MOL0     C42234   1.102   2.223   7.021 -0.0512 -0.9936  0.4734
  307MOL0     C42235   1.068   2.223   6.874  0.4745 -0.1972 -0.1529
  307MOL0     O42236   0.940   2.180   6.845 -0.2679  0.3509  0.0728
  307MOL0     C42237   0.872   2.270   6.757 -0.5193 -0.4367 -1.5510
  307MOL0     C42238   0.723   2.278   6.785 -0.0684  0.0564 -0.1382
  307MOL0     C42239   0.694   2.315   6.937  0.2900 -0.0890  0.2684
  307MOL0     C42240   0.545   2.285   6.981 -0.8701  0.0389 -0.1940
  307MOL0     C42241   0.514   2.333   7.124  0.6587 -0.0010  0.5959
  307MOL0     C42242   0.360   2.347   7.144 -0.0894 -0.0748  1.2763
  307MOL0     C42243   0.328   2.428   7.268 -0.4525  0.1392 -0.4881
  307MOL0     C42244   0.377   2.345   7.390  0.1860  0.4394 -0.2055
  307MOL0     N42245   0.302   2.376   7.516  0.8118 -0.0110 -0.1062
  307MOL0     C42246   0.159   2.377   7.539 -0.3345 -0.1967 -0.6994
  307MOL0     C42247   0.144   2.401   7.670  0.5418  0.6175 -0.8908
  307MOL0     C42248   0.007   2.396   7.740  1.3734  0.5577 -0.4064
  307MOL0     C42249  -0.048   2.529   7.813  0.1799 -0.2916  0.1361
  307MOL0     C42250   0.059   2.608   7.887 -1.1253 -0.7617  0.1725
  307MOL0     C42251   0.002   2.719   7.978 -0.3919 -0.3096 -0.0068
  307MOL0     O42252   0.086   2.832   8.007 -0.1258 -0.3357  0.2506
  307MOL0     C42253   0.186   2.842   8.097  0.0932  0.5545  0.2207
  307MOL0     C42254   0.235   2.736   8.174  0.6983  0.5260  0.1574
  307MOL0     C42255   0.335   2.754   8.272  0.0359  0.0313  0.2562
  307MOL0     C42256   0.363   2.635   8.346  0.2580 -0.2873 -0.6703
  307MOL0     C42257   0.376   2.886   8.304 -0.0453 -1.4364  0.2188
  307MOL0     C42258   0.459   2.939   8.428  0.7236  0.8743  0.9303
  307MOL0     O42259   0.471   3.082   8.452  0.1252  0.2900  0.1636
  307MOL0     C42260   0.558   3.122   8.553  0.4062 -0.5603  0.2017
  307MOL0     C42261   0.696   3.090   8.554 -0.1707 -0.4484 -0.3764
  307MOL0     C42262   0.769   3.127   8.672 -0.7678  1.1303 -0.4280
  307MOL0     C42263   0.722   3.211   8.773 -1.0901 -1.4196  0.1356
  307MOL0     O42264   0.794   3.264   8.872  0.1131 -0.6267  0.4638
  307MOL0     C42265   0.938   3.239   8.887 -0.0092 -0.1711 -0.2074
  307MOL0     C42266   0.993   3.307   9.013  0.5471  0.0029  0.2910
  307MOL0     C42267   1.119   3.239   9.065 -0.0466  0.8843  0.0689
  307MOL0     C42268   1.206   3.338   9.140 -0.1605  0.6837 -0.5534
  307MOL0     C42269   1.323   3.257   9.198 -0.8364 -0.3268 -0.2880
  307MOL0     C42270   1.416   3.356   9.264 -1.3958 -0.7743 -1.0875
  307MOL0     C42271   1.537   3.300   9.344 -0.2381 -0.0579  0.8311
  307MOL0     C42272   1.616   3.411   9.405 -0.3690 -0.6851 -1.1577
  307MOL0    Cl42273   1.533   3.465   9.546 -0.2586  0.2736 -0.0341
  307MOL0     C42274   0.585   3.237   8.764 -1.2325  0.2702 -0.4426
  307MOL0     C42275   0.501   3.194   8.664  0.0108  0.1308  0.5105
  307MOL0     O42276   0.511   2.855   8.498  0.6420  0.8036  0.1857
  307MOL0     C42277   0.335   2.993   8.219 -0.4433 -0.5767  0.6395
  307MOL0     C42278   0.233   2.966   8.121  0.3421 -0.0016  0.8648
  307MOL0     N42279   0.266   2.429   7.732  0.6682  0.0197 -0.3215
  307MOL0     N42280   0.354   2.412   7.634 -0.7270 -0.6776  0.0413
  307MOL0     C42281   1.167   2.267   6.778 -0.3941 -0.0827 -0.6008
  307MOL0     C42282   1.294   2.306   6.823 -0.1932 -0.2901 -1.0470
  307MOL0     C42283   1.670   2.451   7.004 -0.3438 -0.8088 -0.7315
  307MOL0     C42284   1.627   2.539   7.109  1.6848 -0.5245 -0.6424
  307MOL0     C42285   1.714   2.600   7.196  0.0041 -0.8541 -0.0197
  307MOL0     C42286   1.854   2.591   7.173  0.1902  0.1245  0.0778
  307MOL0     O42287   1.956   2.657   7.241 -0.0430 -0.0157  0.5413
  307MOL0     C42288   1.923   2.713   7.369  0.6732  0.9785  0.5814
  307MOL0     C42289   2.045   2.701   7.467  0.8885  0.6907 -0.3228
  307MOL0     C42290   2.017   2.697   7.624 -1.3337  0.2242 -1.5169
  307MOL0     C42291   2.041   2.820   7.709 -0.6374  0.0495 -0.2446
  307MOL0     C42292   2.044   2.774   7.853 -0.0788  0.2642  0.9783
  307MOL0     C42293   2.043   2.741   7.972 -0.4874 -0.0439  0.3130
  307MOL0     C42294   1.900   2.513   7.069 -0.2858  0.4308 -0.5892
  307MOL0     C42295   1.812   2.435   6.995  0.5703 -0.8649 -0.9395
  307MOL0     C42296   1.869   2.336   6.903  0.2099 -0.3363 -0.6548
  307MOL0     H42297   1.272   2.274   7.166 -1.5552  1.4032 -0.5788
  307MOL0     H42298   1.028   2.202   7.097 -1.0438 -1.8886 -0.6968
  307MOL0     H42299   0.900   2.245   6.654 -0.0553  0.0478 -1.5514
  307MOL0     H42300   0.899   2.374   6.781 -0.9878 -0.5312 -0.6023
  307MOL0     H42301   0.663   2.344   6.722 -1.0411  1.3242  1.9894
  307MOL0     H42302   0.688   2.177   6.763 -1.7654  0.7070 -0.5648
  307MOL0     H42303   0.764   2.263   7.004 -1.8642 -1.2369  1.7680
  307MOL0     H42304   0.722   2.420   6.942 -2.6695  0.9311 -1.6863
  307MOL0     H42305   0.475   2.319   6.904 -0.0836  0.6554 -0.6611
  307MOL0     H42306   0.533   2.176   6.981 -3.1722  0.2544 -1.1012
  307MOL0     H42307   0.565   2.426   7.152 -0.7685  0.3842  2.1006
  307MOL0     H42308   0.557   2.272   7.204  1.7253  1.2461  1.0234
  307MOL0     H42309   0.331   2.416   7.064  0.5142 -1.0259  0.2079
  307MOL0     H42310   0.310   2.250   7.134  1.8426 -1.0611  0.6080
  307MOL0     H42311   0.220   2.442   7.272 -0.1934  2.0460  2.0393
  307MOL0     H42312   0.383   2.522   7.269  0.2491 -0.2304  1.9367
  307MOL0     H42313   0.371   2.239   7.366 -1.2785 -0.0021  1.8816
  307MOL0     H42314   0.480   2.378   7.411  1.0789 -0.3658 -2.9451
  307MOL0     H42315   0.085   2.349   7.465  0.1352 -2.4273 -0.3988
  307MOL0     H42316  -0.020   2.310   7.802 -5.1160  3.7113  2.0709
  307MOL0     H42317  -0.062   2.367   7.661 -1.4689  1.4833  1.6043
  307MOL0     H42318  -0.082   2.596   7.733  0.2335  0.8144  1.0211
  307MOL0     H42319  -0.130   2.503   7.880  2.9658 -1.5983  3.2996
  307MOL0     H42320   0.124   2.541   7.945  1.3220  0.9033 -0.5092
  307MOL0     H42321   0.134   2.647   7.818  3.5023  0.5445  5.2533
  307MOL0     H42322  -0.076   2.759   7.913 -0.8823 -1.9686 -0.4991
  307MOL0     H42323  -0.037   2.676   8.071 -0.4233 -0.0309  0.1074
  307MOL0     H42324   0.175   2.646   8.178 -0.9765  1.5781 -0.2042
  307MOL0     H42325   0.296   2.622   8.431  2.5077 -0.4114  1.1978
  307MOL0     H42326   0.468   2.625   8.377  0.4489  0.3380 -1.1063
  307MOL0     H42327   0.355   2.546   8.283 -1.0854  0.4548 -1.5773
  307MOL0     H42328   0.760   3.042   8.481  2.1309 -0.4769  1.5450
  307MOL0     H42329   0.870   3.086   8.676 -2.0882 -3.4569 -4.0221
  307MOL0     H42330   0.945   3.132   8.909 -0.7150 -0.2890 -0.5127
  307MOL0     H42331   0.996   3.253   8.796  1.7860 -3.0686  0.3793
  307MOL0     H42332   1.015   3.411   8.987 -1.9401  0.2683 -1.0541
  307MOL0     H42333   0.914   3.306   9.089  0.6543 -1.2415  0.4078
  307MOL0     H42334   1.178   3.210   8.977  0.1295  0.2450  0.3873
  307MOL0     H42335   1.098   3.154   9.131  1.4847  1.9343  2.0187
  307MOL0     H42336   1.146   3.363   9.228 -1.5980 -1.9415 -0.6988
  307MOL0     H42337   1.231   3.425   9.079 -0.3387 -1.3327 -3.7171
  307MOL0     H42338   1.286   3.192   9.278  1.1288  0.4618  1.3552
  307MOL0     H42339   1.363   3.208   9.109 -1.9844 -0.9511 -0.4859
  307MOL0     H42340   1.356   3.412   9.336 -0.1015 -2.0922  1.1086
  307MOL0     H42341   1.451   3.420   9.183 -3.7136 -1.5661 -2.8338
  307MOL0     H42342   1.596   3.237   9.277 -3.1135 -4.4200  1.9470
  307MOL0     H42343   1.504   3.228   9.420  1.4609 -2.4657 -0.5930
  307MOL0     H42344   1.631   3.495   9.337  1.1029  1.2110  1.3432
  307MOL0     H42345   1.718   3.377   9.428 -0.2041 -1.1944 -2.5585
  307MOL0     H42346   0.545   3.299   8.843 -2.5661  0.0415 -0.9160
  307MOL0     H42347   0.394   3.206   8.653  0.2412  1.0843 -0.9364
  307MOL0     H42348   0.353   3.099   8.232  0.9346 -0.1418 -3.5071
  307MOL0     H42349   0.205   3.044   8.052  1.6250 -1.8571 -1.9776
  307MOL0     H42350   1.138   2.261   6.673 -2.0168  1.5588 -0.3150
  307MOL0     H42351   1.364   2.338   6.747  0.8562  0.9575  0.3893
  307MOL0     H42352   1.523   2.556   7.136  1.4384 -0.8061 -1.3985
  307MOL0     H42353   1.681   2.667   7.275 -1.1844 -2.7822  1.2133
  307MOL0     H42354   1.889   2.817   7.373 -4.3619 -0.3280 -0.8774
  307MOL0     H42355   1.837   2.655   7.404  0.0831 -0.1637 -2.4380
  307MOL0     H42356   2.121   2.773   7.436  0.4901  1.4166  0.3413
  307MOL0     H42357   2.082   2.599   7.453  1.1600  0.8033 -0.4308
  307MOL0     H42358   1.917   2.658   7.647  0.5820 -4.9094 -0.5604
  307MOL0     H42359   2.090   2.622   7.654 -0.4096  1.5742 -0.2657
  307MOL0     H42360   1.962   2.893   7.685 -0.5819 -1.2444 -6.0099
  307MOL0     H42361   2.141   2.848   7.675 -2.0977  0.7638 -4.6636
  307MOL0     H42362   2.029   2.699   8.070 -3.0368 -1.8199 -0.7197
  307MOL0     H42363   2.007   2.511   7.050 -0.3313 -2.2827 -0.9638
  307MOL0     H42364   1.852   2.360   6.797 -0.9954 -0.3498 -0.4767
  307MOL0     H42365   1.977   2.340   6.917  0.8197  1.3244 -4.4608
  307MOL0     H42366   1.833   2.234   6.923 -0.6972  0.2322  0.7797
  308MOL0     O42367   0.221   1.359   6.387  0.0835  0.2571  0.2345
  308MOL0     C42368   0.152   1.427   6.470 -0.5199 -0.3963 -0.7269
  308MOL0     O42369   0.164   1.565   6.486  0.8304 -0.8868  0.0030
  308MOL0     C42370   0.240   1.627   6.399 -1.1665 -0.9106  0.6137
  308MOL0     C42371   0.382   1.614   6.407 -0.6576 -0.2454  0.3320
  308MOL0     C42372   0.473   1.679   6.324  0.0816 -0.9388 -0.4417
  308MOL0     C42373   0.417   1.767   6.222 -0.8056 -0.1894  0.0163
  308MOL0     O42374   0.506   1.844   6.139  0.1570 -0.2491  0.1983
  308MOL0     C42375   0.488   1.805   5.998  0.5478 -1.0050  0.3724
  308MOL0     C42376   0.573   1.677   5.968 -0.0965  0.1662  0.9602
  308MOL0     C42377   0.722   1.707   5.993 -1.0886 -0.7555 -0.5526
  308MOL0     C42378   0.809   1.599   5.935 -0.3922  0.5385  0.1418
  308MOL0     C42379   0.827   1.472   6.031 -0.0295 -0.4851  0.0338
  308MOL0     C42380   0.919   1.359   5.981 -0.7793 -0.8839 -0.1799
  308MOL0     C42381   0.930   1.247   6.079 -0.4960  0.7001  0.2611
  308MOL0     C42382   1.028   1.131   6.034 -0.2934 -0.6719  0.0856
  308MOL0     N42383   1.170   1.179   6.032 -0.8179  0.4400 -0.0759
  308MOL0     C42384   1.224   1.228   6.142 -0.2373 -0.1923  0.7287
  308MOL0     C42385   1.324   1.295   6.098 -0.8545  0.2022  0.2524
  308MOL0     C42386   1.427   1.378   6.179 -0.9822  0.6357  0.5414
  308MOL0     C42387   1.422   1.529   6.161 -0.0093 -0.4070 -0.8685
  308MOL0     C42388   1.554   1.595   6.215 -1.0513 -0.4517 -0.0818
  308MOL0     C42389   1.583   1.556   6.355  0.5612 -0.0217 -0.2290
  308MOL0     O42390   1.706   1.630   6.395 -0.1964  0.0491 -0.3882
  308MOL0     C42391   1.742   1.626   6.532 -0.1594 -0.0489  1.3054
  308MOL0     C42392   1.855   1.697   6.569  0.2122 -0.1234  1.0171
  308MOL0     C42393   1.897   1.713   6.699  0.3580 -0.3243 -1.3528
  308MOL0     C42394   2.030   1.788   6.732 -1.1110  0.6171 -0.4730
  308MOL0     C42395   1.819   1.653   6.796 -0.0581  0.8276  0.7083
  308MOL0     C42396   1.837   1.664   6.945 -0.6038  1.2458  0.2287
  308MOL0     O42397   1.726   1.659   7.016  0.0818  0.4056 -0.1252
  308MOL0     C42398   1.727   1.671   7.156  0.1950 -0.0585  0.0690
  308MOL0     C42399   1.638   1.761   7.221 -0.4214 -0.3294  0.1682
  308MOL0     C42400   1.647   1.787   7.362  0.9150  0.4457 -0.2009
  308MOL0     C42401   1.743   1.734   7.440  0.2811  0.0659  0.6814
  308MOL0     O42402   1.763   1.766   7.566  0.4304 -1.0324 -0.0119
  308MOL0     C42403   1.688   1.885   7.622 -0.6239  0.3652 -0.3618
  308MOL0     C42404   1.743   1.921   7.762  0.7857 -0.9099 -0.3661
  308MOL0     C42405   1.736   1.807   7.872  1.4473 -0.5082  0.4762
  308MOL0     C42406   1.786   1.873   8.003 -0.4788  0.9555 -0.5043
  308MOL0     C42407   1.940   1.905   7.998 -0.7954 -0.0757 -0.0537
  308MOL0     C42408   1.994   1.901   8.136 -0.8989 -0.3980  0.7347
  308MOL0     C42409   2.138   1.958   8.135  0.2661  0.4688  0.8291
  308MOL0     C42410   2.201   1.973   8.270  0.5025 -0.0859 -0.6460
  308MOL0    Cl42411   2.081   2.031   8.393  0.6894 -0.1190  0.0217
  308MOL0     C42412   1.830   1.646   7.378  0.2156  0.5300  0.1658
  308MOL0     C42413   1.822   1.612   7.236  0.3568 -0.3614 -0.8189
  308MOL0     O42414   1.950   1.677   6.988  0.7848 -0.4955  0.3989
  308MOL0     C42415   1.705   1.573   6.763 -0.1483 -0.1953  0.9361
  308MOL0     C42416   1.663   1.568   6.633 -1.1886  1.0198  0.2139
  308MOL0     N42417   1.341   1.276   5.962  0.7672  0.6141  0.1088
  308MOL0     N42418   1.243   1.203   5.919 -0.1417  0.3556 -0.0028
  308MOL0     C42419   0.272   1.793   6.225  0.2439  0.3218  1.1029
  308MOL0     C42420   0.187   1.719   6.302  0.5883 -0.8088 -0.3736
  308MOL0     C42421   0.064   1.346   6.546 -0.8693 -0.4029  0.0270
  308MOL0     C42422  -0.037   1.420   6.612 -0.1994  0.3760  1.1351
  308MOL0     C42423  -0.139   1.349   6.676  1.0271 -0.7040  0.3051
  308MOL0     C42424  -0.149   1.217   6.678  0.1896 -0.0760  0.8331
  308MOL0     O42425  -0.250   1.160   6.753 -0.6367 -0.4697  0.1740
  308MOL0     C42426  -0.353   1.104   6.675 -1.1635  0.6049 -0.4966
  308MOL0     C42427  -0.435   1.010   6.763  1.0152  0.1751 -0.3173
  308MOL0     C42428  -0.525   0.921   6.679  0.7700 -0.1202  0.5991
  308MOL0     C42429  -0.609   0.830   6.764  0.0389 -0.3172 -0.7574
  308MOL0     C42430  -0.712   0.757   6.694  0.7441 -0.0491  0.0606
  308MOL0     C42431  -0.809   0.698   6.652 -0.3635  0.5676  0.2936
  308MOL0     C42432  -0.051   1.152   6.604  0.8072  0.1585 -0.6671
  308MOL0     C42433   0.065   1.205   6.545 -0.0823 -0.5638  0.0753
  308MOL0     C42434   0.155   1.113   6.469  0.1322  0.2349  0.1405
  308MOL0     H42435   0.427   1.552   6.484  1.8559 -0.9761 -1.5888
  308MOL0     H42436   0.580   1.689   6.343  0.5561  4.3438 -3.9027
  308MOL0     H42437   0.519   1.885   5.931  0.5873 -0.1352  1.4087
  308MOL0     H42438   0.385   1.790   5.966  0.4882  0.4758 -0.1880
  308MOL0     H42439   0.543   1.586   6.021 -1.3850  0.1924  0.3405
  308MOL0     H42440   0.574   1.647   5.863  3.7338  1.5772  0.4472
  308MOL0     H42441   0.758   1.802   5.954  3.1898 -1.3222  1.4150
  308MOL0     H42442   0.743   1.713   6.100  0.6664  2.2287 -0.9574
  308MOL0     H42443   0.762   1.559   5.845 -4.0562  2.4413  0.9906
  308MOL0     H42444   0.911   1.626   5.906  0.1505 -0.4357  1.0745
  308MOL0     H42445   0.727   1.431   6.047  2.0944 -5.4365  2.6635
  308MOL0     H42446   0.874   1.505   6.124  0.7863 -0.1378 -0.4936
  308MOL0     H42447   0.873   1.310   5.895 -0.5799 -2.0068  0.3454
  308MOL0     H42448   1.020   1.393   5.959 -0.5782 -3.2719 -3.6674
  308MOL0     H42449   0.824   1.219   6.086 -0.3047  0.4032  4.1384
  308MOL0     H42450   0.974   1.282   6.173 -0.0169  1.1996 -0.1432
  308MOL0     H42451   1.020   1.050   6.107  3.1077  3.0854  5.3405
  308MOL0     H42452   0.995   1.095   5.936 -3.2757 -0.8255  1.0510
  308MOL0     H42453   1.182   1.220   6.242 -0.5523 -1.2908  0.5272
  308MOL0     H42454   1.527   1.343   6.149 -0.3208  2.3048  0.6865
  308MOL0     H42455   1.409   1.351   6.284 -1.0359  1.4436  0.7424
  308MOL0     H42456   1.414   1.556   6.055  2.4107  3.1006 -0.3582
  308MOL0     H42457   1.340   1.564   6.224  0.6270  0.2196 -0.3579
  308MOL0     H42458   1.640   1.573   6.152  2.2953 -0.1847  4.0053
  308MOL0     H42459   1.536   1.703   6.213 -0.5214 -0.3732 -1.0234
  308MOL0     H42460   1.513   1.586   6.433  4.9479  1.3271  3.6578
  308MOL0     H42461   1.611   1.450   6.362 -0.1915 -0.3389 -1.5464
  308MOL0     H42462   1.927   1.723   6.492  1.5954 -0.0285  2.2859
  308MOL0     H42463   2.066   1.843   6.644 -0.3519  0.4158 -0.2921
  308MOL0     H42464   2.115   1.727   6.764 -0.3190  2.1893  0.5503
  308MOL0     H42465   2.007   1.862   6.809 -2.2479 -0.0702 -0.1338
  308MOL0     H42466   1.580   1.817   7.149  0.2486  0.3902  0.1681
  308MOL0     H42467   1.585   1.869   7.396  1.2208  1.9829 -3.0320
  308MOL0     H42468   1.706   1.968   7.553  0.1955 -0.0622 -0.6673
  308MOL0     H42469   1.582   1.860   7.635 -0.8563  0.9577 -1.0459
  308MOL0     H42470   1.845   1.958   7.757  1.1053 -1.7535 -0.2049
  308MOL0     H42471   1.673   1.999   7.793  0.3067 -0.7483 -1.7695
  308MOL0     H42472   1.799   1.719   7.853  2.4108  0.2912 -0.1693
  308MOL0     H42473   1.633   1.777   7.890  1.0581  1.8275  2.7380
  308MOL0     H42474   1.772   1.797   8.080  0.0057 -0.2508 -1.5732
  308MOL0     H42475   1.737   1.966   8.032 -1.5405  1.0151 -2.3429
  308MOL0     H42476   1.995   1.822   7.953 -0.4258 -1.8867  3.3436
  308MOL0     H42477   1.940   1.998   7.941 -2.0321 -0.4473 -0.6914
  308MOL0     H42478   1.990   1.797   8.170  1.9740 -0.7110  0.3910
  308MOL0     H42479   1.927   1.962   8.196 -1.6902  0.6868 -1.1472
  308MOL0     H42480   2.137   2.060   8.095  1.8405  0.4931  0.8191
  308MOL0     H42481   2.206   1.890   8.083 -2.2763 -3.2701  1.9541
  308MOL0     H42482   2.281   2.047   8.273 -1.3653  2.0305  1.2382
  308MOL0     H42483   2.242   1.876   8.301 -1.8723 -2.4525 -4.0934
  308MOL0     H42484   1.908   1.603   7.439  0.7458 -0.4706 -1.1690
  308MOL0     H42485   1.903   1.550   7.197 -0.0716 -0.9777 -0.7437
  308MOL0     H42486   1.633   1.538   6.836  0.7227 -0.4337  1.7121
  308MOL0     H42487   1.578   1.506   6.605 -0.1517 -0.0033 -0.8057
  308MOL0     H42488   0.225   1.865   6.159  1.0562  0.5753  0.7842
  308MOL0     H42489   0.078   1.722   6.302  0.4997 -0.8980  2.3837
  308MOL0     H42490  -0.032   1.528   6.623  1.0874  1.0940 -3.8468
  308MOL0     H42491  -0.214   1.393   6.741 -0.4562 -3.5889  0.7346
  308MOL0     H42492  -0.412   1.186   6.631 -0.9003  1.5397  0.8342
  308MOL0     H42493  -0.334   1.034   6.593 -0.2870 -0.9377  0.9676
  308MOL0     H42494  -0.507   1.069   6.820  2.4857  1.5031  0.2231
  308MOL0     H42495  -0.364   0.964   6.834  1.0028  1.2006  0.3843
  308MOL0     H42496  -0.591   0.981   6.615 -0.3899 -3.1016 -1.2033
  308MOL0     H42497  -0.466   0.854   6.616 -1.4063 -0.1739 -1.5290
  308MOL0     H42498  -0.672   0.880   6.839 -3.3377 -2.5820 -1.8325
  308MOL0     H42499  -0.549   0.752   6.812 -0.8397 -0.8537 -0.5099
  308MOL0     H42500  -0.884   0.638   6.605  1.1191  0.5308 -2.1986
  308MOL0     H42501  -0.061   1.045   6.609  0.4802  0.1894 -0.6309
  308MOL0     H42502   0.139   1.128   6.362  1.7344 -0.4564 -0.2342
  308MOL0     H42503   0.264   1.112   6.480  0.3259 -0.5963 -1.4926
  308MOL0     H42504   0.117   1.011   6.482  0.7065 -0.3339 -2.2748
  309MOL0     O42505   7.784   7.255   2.975 -0.5006  1.4170  0.8596
  309MOL0     C42506   7.901   7.286   3.011  0.0252  0.5287 -0.4245
  309MOL0     O42507   7.980   7.204   3.088 -0.8390  0.1756  0.8137
  309MOL0     C42508   7.918   7.118   3.178  0.5846 -0.0683  0.1838
  309MOL0     C42509   7.997   7.013   3.219  0.1797  0.2586 -1.2869
  309MOL0     C42510   7.938   6.916   3.306  0.7348  0.1007  0.7052
  309MOL0     C42511   7.810   6.938   3.363 -0.6005 -1.0665  0.4230
  309MOL0     O42512   7.750   6.868   3.467 -0.7989  0.3359 -0.1129
  309MOL0     C42513   7.826   6.828   3.582  0.2282 -0.6232  0.0004
  309MOL0     C42514   7.809   6.679   3.613  0.2623 -0.5654  0.6562
  309MOL0     C42515   7.875   6.591   3.511 -0.6655  0.1686  0.1970
  309MOL0     C42516   7.880   6.451   3.569 -0.7780  0.0380  0.6034
  309MOL0     C42517   7.921   6.344   3.470 -0.6759  0.6776  0.8631
  309MOL0     C42518   7.962   6.205   3.537  0.1961 -0.5393 -0.0099
  309MOL0     C42519   8.041   6.113   3.438 -0.0143 -0.5297 -0.5262
  309MOL0     C42520   7.979   5.980   3.401 -0.2829  0.2133  0.2040
  309MOL0     N42521   7.989   5.877   3.513  0.4817 -0.1887 -0.0239
  309MOL0     C42522   8.101   5.818   3.554 -0.0350  0.0863  0.6164
  309MOL0     C42523   8.063   5.723   3.646  0.4038 -0.3604 -1.0541
  309MOL0     C42524   8.151   5.614   3.704  0.1364  0.1332  0.0752
  309MOL0     C42525   8.075   5.480   3.714 -1.0895  0.0949 -0.9684
  309MOL0     C42526   8.115   5.375   3.616  0.0256 -0.0221  1.5432
  309MOL0     C42527   8.003   5.269   3.618  0.2891  0.3592  0.7740
  309MOL0     O42528   7.992   5.217   3.753  0.0705 -0.4054  0.3077
  309MOL0     C42529   7.877   5.153   3.791 -0.6011  0.5678 -0.4630
  309MOL0     C42530   7.778   5.095   3.710  0.1244  0.4627  0.5889
  309MOL0     C42531   7.684   5.006   3.774 -0.8600  0.7654  1.4595
  309MOL0     C42532   7.590   4.943   3.665 -0.1411  0.0079 -1.6351
  309MOL0     C42533   7.686   4.965   3.910  0.1411 -0.1636  0.6665
  309MOL0     C42534   7.601   4.858   3.968  0.3542 -0.0677  0.8155
  309MOL0     O42535   7.620   4.832   4.110 -0.1453 -0.3737 -0.5802
  309MOL0     C42536   7.572   4.730   4.190 -0.4472 -1.0267 -0.1832
  309MOL0     C42537   7.619   4.740   4.324 -0.5302  1.1989  0.7417
  309MOL0     C42538   7.584   4.634   4.412  0.2792  0.9302 -0.3826
  309MOL0     C42539   7.485   4.534   4.382 -0.7464 -0.3471 -0.4730
  309MOL0     O42540   7.437   4.435   4.471  0.1096  0.1229  0.9052
  309MOL0     C42541   7.545   4.365   4.547  0.0145  0.0529  0.2482
  309MOL0     C42542   7.528   4.391   4.691  0.3646  0.0946  0.0096
  309MOL0     C42543   7.400   4.309   4.719 -0.2093  0.3538  0.1786
  309MOL0     C42544   7.304   4.386   4.811  0.8826  0.2256  0.1439
  309MOL0     C42545   7.221   4.276   4.891 -0.0567 -1.3346  0.5945
  309MOL0     C42546   7.133   4.176   4.816  0.0408 -0.0239 -0.4674
  309MOL0     C42547   7.083   4.045   4.893  0.9600 -0.5289  0.2485
  309MOL0     C42548   6.994   4.071   5.012  0.4045 -0.5233  0.1276
  309MOL0    Cl42549   6.945   3.919   5.105 -0.2690  0.1563 -0.0736
  309MOL0     C42550   7.438   4.537   4.253  0.2447 -0.0504 -0.1883
  309MOL0     C42551   7.475   4.629   4.155 -0.5418  0.6340 -0.0612
  309MOL0     O42552   7.523   4.795   3.895  0.8587  0.7299  0.1605
  309MOL0     C42553   7.781   5.030   3.982  0.3200 -0.2020 -0.3468
  309MOL0     C42554   7.875   5.120   3.924  1.3642 -0.1536 -1.2193
  309MOL0     N42555   7.926   5.742   3.675  0.2828  0.4163  0.0098
  309MOL0     N42556   7.888   5.824   3.589  0.0719  0.3467 -1.1688
  309MOL0     C42557   7.741   7.043   3.326  0.2975 -0.1294  0.8848
  309MOL0     C42558   7.790   7.135   3.231  1.1125  0.0921  0.8720
  309MOL0     C42559   7.947   7.412   2.955  0.2963 -0.2083  0.4257
  309MOL0     C42560   7.878   7.466   2.846 -0.6795  0.0605 -0.4245
  309MOL0     C42561   7.897   7.593   2.795  0.7470 -0.3542  0.1710
  309MOL0     C42562   8.002   7.663   2.845  0.5441  0.2197  0.5146
  309MOL0     O42563   8.027   7.783   2.777  0.8778 -0.4261 -0.6681
  309MOL0     C42564   8.154   7.849   2.790 -0.4459  0.8627  0.0289
  309MOL0     C42565   8.184   7.974   2.699 -0.3619 -0.9417 -0.5227
  309MOL0     C42566   8.086   8.083   2.724 -1.1454  0.2631 -0.0509
  309MOL0     C42567   8.126   8.216   2.655 -0.0332  0.3365  0.9596
  309MOL0     C42568   7.995   8.287   2.637 -0.0060  0.3178  0.2444
  309MOL0     C42569   7.892   8.356   2.614 -0.1575  0.0428  0.5407
  309MOL0     C42570   8.083   7.608   2.949  0.7085 -1.3030  0.4045
  309MOL0     C42571   8.054   7.489   3.010  0.4795 -0.2120  0.5164
  309MOL0     C42572   8.124   7.450   3.126  0.0322  0.5777  0.1029
  309MOL0     H42573   8.097   6.999   3.179  0.1907  0.7455 -1.4377
  309MOL0     H42574   7.981   6.821   3.339 -1.9356 -1.1566  0.7961
  309MOL0     H42575   7.773   6.883   3.660 -0.7115 -0.5096 -0.7116
  309MOL0     H42576   7.930   6.862   3.576  0.3995 -1.1925 -0.3180
  309MOL0     H42577   7.861   6.655   3.706  0.9115 -2.2977 -0.1068
  309MOL0     H42578   7.705   6.645   3.619 -0.3442  0.1888 -2.9583
  309MOL0     H42579   7.822   6.604   3.417  0.6013  0.8637 -0.4497
  309MOL0     H42580   7.982   6.608   3.495  0.7750 -7.5153 -2.7431
  309MOL0     H42581   7.930   6.445   3.665 -1.5526  0.0995  1.0205
  309MOL0     H42582   7.776   6.425   3.593  0.0056 -0.7262  3.5503
  309MOL0     H42583   8.002   6.373   3.403 -1.8426 -4.1759 -3.3739
  309MOL0     H42584   7.830   6.324   3.412 -2.3757  1.7123  3.0526
  309MOL0     H42585   8.028   6.232   3.620 -0.2884 -1.9847  0.8862
  309MOL0     H42586   7.878   6.152   3.583  1.1646 -0.3156  2.1263
  309MOL0     H42587   8.126   6.096   3.503  2.5221  2.3584 -2.7697
  309MOL0     H42588   8.074   6.167   3.348 -1.4033 -1.6988 -1.7971
  309MOL0     H42589   7.877   5.991   3.364  0.2768 -0.7300 -1.7162
  309MOL0     H42590   8.039   5.938   3.320  0.3527  1.2153  0.1258
  309MOL0     H42591   8.202   5.825   3.516 -0.0625  0.3151  0.5896
  309MOL0     H42592   8.183   5.636   3.806  0.2263 -3.8606  1.0733
  309MOL0     H42593   8.236   5.611   3.635 -1.9171  0.0763 -2.6483
  309MOL0     H42594   8.101   5.448   3.816  5.0633  2.1732 -1.4191
  309MOL0     H42595   7.967   5.491   3.715 -0.8664  3.4866 -2.0558
  309MOL0     H42596   8.114   5.427   3.520 -0.5733  0.9511  2.0469
  309MOL0     H42597   8.213   5.329   3.635  0.5381  0.2930 -0.2189
  309MOL0     H42598   7.906   5.312   3.591  0.8631  0.0551 -2.0226
  309MOL0     H42599   8.023   5.188   3.547 -3.6590 -1.1689  1.1218
  309MOL0     H42600   7.772   5.122   3.605  1.2093 -0.5947  0.2350
  309MOL0     H42601   7.605   4.836   3.652  0.4817 -0.5035  2.2177
  309MOL0     H42602   7.609   4.989   3.568  5.0979 -1.0632 -1.3780
  309MOL0     H42603   7.486   4.943   3.700  0.7460 -1.2553  1.2592
  309MOL0     H42604   7.681   4.823   4.355 -3.6662  2.8915  3.0702
  309MOL0     H42605   7.624   4.649   4.512 -0.7004  1.2885 -0.0398
  309MOL0     H42606   7.525   4.261   4.519 -2.5311  0.3027  0.8773
  309MOL0     H42607   7.647   4.384   4.513  0.9063  0.9834  3.2123
  309MOL0     H42608   7.608   4.340   4.745  2.4370  0.3305 -2.6492
  309MOL0     H42609   7.523   4.496   4.720 -3.6081 -0.6509  2.9528
  309MOL0     H42610   7.427   4.214   4.766 -1.6689 -0.2868 -0.2242
  309MOL0     H42611   7.344   4.263   4.636  1.2499 -1.6968  0.2562
  309MOL0     H42612   7.240   4.449   4.749  1.4176 -0.1072 -0.7726
  309MOL0     H42613   7.362   4.450   4.878 -0.2993  1.6268 -0.1145
  309MOL0     H42614   7.286   4.220   4.959  1.6911 -0.6091 -0.4129
  309MOL0     H42615   7.159   4.338   4.957  1.7668  0.0640  1.0720
  309MOL0     H42616   7.191   4.128   4.736  2.7192  0.4159  1.0595
  309MOL0     H42617   7.043   4.222   4.774  1.5139  0.5917 -3.1827
  309MOL0     H42618   7.170   3.991   4.930 -1.1066 -4.4344 -0.1112
  309MOL0     H42619   7.024   3.976   4.833 -2.0521  0.6539  1.6163
  309MOL0     H42620   6.911   4.138   4.987  1.5389  1.9648  2.5052
  309MOL0     H42621   7.048   4.133   5.084  0.7073  0.3183 -0.8123
  309MOL0     H42622   7.362   4.462   4.234  3.1266 -3.4248  0.6242
  309MOL0     H42623   7.424   4.625   4.059 -1.1333  0.6809  0.2402
  309MOL0     H42624   7.796   5.015   4.088 -2.7352  0.5116  0.2970
  309MOL0     H42625   7.961   5.157   3.979  1.3740 -1.8169 -0.0610
  309MOL0     H42626   7.638   7.052   3.359  0.1693  1.7384  0.1108
  309MOL0     H42627   7.717   7.213   3.209 -2.0507 -2.9072 -0.2692
  309MOL0     H42628   7.792   7.418   2.802 -1.0182  1.7586 -1.7130
  309MOL0     H42629   7.846   7.634   2.708  2.7142 -0.6854 -1.1982
  309MOL0     H42630   8.150   7.893   2.889 -1.0785  2.0015 -0.4828
  309MOL0     H42631   8.239   7.780   2.784 -0.3391  0.9086  0.9529
  309MOL0     H42632   8.199   7.942   2.596  3.0637 -2.5180  0.3244
  309MOL0     H42633   8.282   8.013   2.729  0.8518 -1.7505 -3.2179
  309MOL0     H42634   7.992   8.039   2.689 -1.1847 -2.4542  2.9550
  309MOL0     H42635   8.079   8.105   2.831 -1.2845  2.8618 -0.5414
  309MOL0     H42636   8.165   8.198   2.554 -1.9773 -2.0816  0.5396
  309MOL0     H42637   8.194   8.287   2.701 -0.5718  1.4606  0.0731
  309MOL0     H42638   7.802   8.410   2.594  0.7203  2.0122  1.5179
  309MOL0     H42639   8.151   7.681   2.991 -1.7343  2.0135 -0.9825
  309MOL0     H42640   8.047   7.454   3.203 -0.6705  0.7776 -0.5859
  309MOL0     H42641   8.162   7.348   3.125 -2.1012 -0.2822 -0.9635
  309MOL0     H42642   8.203   7.519   3.154  0.0180  0.4166  0.5399
  310MOL0     O42643   2.046   1.586   6.029 -0.7662  0.5204 -0.3156
  310MOL0     C42644   2.101   1.488   6.080 -0.4805  0.0744 -0.7271
  310MOL0     O42645   2.079   1.362   6.030 -0.3930 -0.6838  0.1704
  310MOL0     C42646   1.995   1.343   5.923  0.4370  0.2874 -1.2942
  310MOL0     C42647   1.904   1.236   5.945 -0.3219  0.3644  0.0770
  310MOL0     C42648   1.800   1.216   5.849  0.3183  0.5870  0.9584
  310MOL0     C42649   1.796   1.288   5.728 -0.9743  0.6621  0.3454
  310MOL0     O42650   1.693   1.293   5.639 -0.3114  0.5592  0.2513
  310MOL0     C42651   1.595   1.185   5.645 -0.7390 -0.5395  0.4418
  310MOL0     C42652   1.646   1.049   5.587 -0.0246  0.1726  0.7259
  310MOL0     C42653   1.546   0.946   5.611 -0.1663 -0.0336 -0.4471
  310MOL0     C42654   1.407   0.987   5.587  0.3167 -0.8546  1.0298
  310MOL0     C42655   1.312   0.863   5.581  0.4175  0.1809 -0.7740
  310MOL0     C42656   1.301   0.786   5.712 -0.3078  0.1905 -0.5862
  310MOL0     C42657   1.244   0.871   5.828 -0.3944  1.0715 -0.2136
  310MOL0     C42658   1.232   0.795   5.963 -0.6025 -0.0593 -0.2132
  310MOL0     N42659   1.369   0.743   5.995  0.4151  0.3435 -0.0288
  310MOL0     C42660   1.480   0.810   6.029 -0.8228 -0.2925 -0.3271
  310MOL0     C42661   1.581   0.713   6.031  0.0207  0.0419 -0.2816
  310MOL0     C42662   1.718   0.711   6.092 -0.4279 -0.0383  0.4646
  310MOL0     C42663   1.834   0.711   5.985 -0.2484  0.3916 -0.1583
  310MOL0     C42664   1.820   0.806   5.870  0.0423  0.1283  0.3900
  310MOL0     C42665   1.928   0.782   5.761  0.4774 -0.0374 -0.4265
  310MOL0     O42666   1.916   0.645   5.709 -0.2807 -0.7575 -0.0512
  310MOL0     C42667   1.821   0.632   5.604  0.3824  0.1539 -0.3602
  310MOL0     C42668   1.828   0.686   5.471  0.0135 -0.6257  0.1800
  310MOL0     C42669   1.725   0.667   5.379  0.6492  0.1395 -0.0027
  310MOL0     C42670   1.749   0.751   5.251 -0.3263  0.1745 -1.0139
  310MOL0     C42671   1.601   0.604   5.425  0.4981 -0.6837 -0.8407
  310MOL0     C42672   1.488   0.608   5.330 -0.0238  0.4033  0.3170
  310MOL0     O42673   1.368   0.592   5.395  0.3594  0.3084 -0.0231
  310MOL0     C42674   1.249   0.577   5.321 -1.0753 -0.6875  1.2996
  310MOL0     C42675   1.219   0.646   5.200  1.2309 -0.9074  0.8854
  310MOL0     C42676   1.087   0.646   5.146  0.1417  0.9128 -0.5718
  310MOL0     C42677   0.979   0.580   5.209 -0.0821  0.1525 -0.3512
  310MOL0     O42678   0.853   0.584   5.166 -0.0244 -0.6630 -0.2412
  310MOL0     C42679   0.830   0.536   5.029  0.1831 -0.1016 -0.0524
  310MOL0     C42680   0.687   0.563   4.970  0.6264  0.0214  0.7934
  310MOL0     C42681   0.579   0.545   5.084  0.5965  0.3217  0.3992
  310MOL0     C42682   0.538   0.401   5.092 -0.2338  0.4342  0.1680
  310MOL0     C42683   0.429   0.365   5.194 -0.0962  0.4804  0.6268
  310MOL0     C42684   0.487   0.257   5.289  0.4154 -0.2469  0.5201
  310MOL0     C42685   0.378   0.204   5.376  0.2408  0.6065  0.4862
  310MOL0     C42686   0.407   0.060   5.405  0.2979  1.4326  0.0556
  310MOL0    Cl42687   0.348  -0.044   5.268 -0.7900  0.1289 -0.4738
  310MOL0     C42688   1.016   0.514   5.323 -0.0012 -0.4385  0.8389
  310MOL0     C42689   1.137   0.513   5.380 -0.3296 -0.4907  0.3900
  310MOL0     O42690   1.512   0.613   5.209  0.4743  0.4669  0.5545
  310MOL0     C42691   1.600   0.535   5.550 -0.1500  0.4326 -0.9401
  310MOL0     C42692   1.716   0.544   5.635  0.3156  0.2181 -0.4405
  310MOL0     N42693   1.517   0.595   6.000 -0.2516 -0.8617 -0.4437
  310MOL0     N42694   1.392   0.606   5.977  1.0796  1.0308  0.0805
  310MOL0     C42695   1.895   1.377   5.702  0.3304 -0.8439 -0.5068
  310MOL0     C42696   1.987   1.413   5.802  1.5816  0.2611 -1.3437
  310MOL0     C42697   2.181   1.511   6.199  0.2868  0.1821 -0.5410
  310MOL0     C42698   2.147   1.625   6.270 -0.2975  0.0817 -1.6114
  310MOL0     C42699   2.227   1.663   6.375  0.0487  0.0139 -0.1790
  310MOL0     C42700   2.342   1.597   6.417 -1.1848  0.2477  0.9183
  310MOL0     O42701   2.426   1.651   6.514 -0.4953  0.4016  0.8592
  310MOL0     C42702   2.464   1.791   6.517 -0.4025  0.4786  0.4782
  310MOL0     C42703   2.549   1.828   6.634  0.1228  0.0556 -0.8418
  310MOL0     C42704   2.464   1.816   6.763  0.2415 -0.5104 -0.0868
  310MOL0     C42705   2.534   1.873   6.893  0.1429 -0.6504  0.3711
  310MOL0     C42706   2.441   1.836   7.000  0.1515 -0.6744  1.3207
  310MOL0     C42707   2.358   1.809   7.084  0.3563  0.4026  0.5676
  310MOL0     C42708   2.365   1.473   6.355  0.4230 -0.2162 -0.7916
  310MOL0     C42709   2.290   1.429   6.238 -0.5181 -0.7880  0.0752
  310MOL0     C42710   2.326   1.296   6.166 -0.3162 -0.5526 -0.1288
  310MOL0     H42711   1.889   1.180   6.037  3.4987 -1.6421 -0.3279
  310MOL0     H42712   1.716   1.150   5.868  2.8864 -4.0874 -1.9419
  310MOL0     H42713   1.515   1.216   5.577 -1.5818 -0.0111  1.6417
  310MOL0     H42714   1.544   1.181   5.742 -0.8613 -1.5381  0.3468
  310MOL0     H42715   1.666   1.054   5.480  2.5438 -0.6047  1.1016
  310MOL0     H42716   1.742   1.018   5.628 -0.4825 -1.4755  0.6258
  310MOL0     H42717   1.568   0.871   5.535  2.1890  0.5768 -0.4408
  310MOL0     H42718   1.566   0.897   5.707  1.3770 -1.0779 -1.2666
  310MOL0     H42719   1.368   1.058   5.661 -3.3009 -1.0637 -0.4561
  310MOL0     H42720   1.396   1.041   5.492 -0.1005  1.3952  2.2858
  310MOL0     H42721   1.343   0.791   5.505  1.1776  0.9609 -1.2326
  310MOL0     H42722   1.211   0.890   5.550 -0.0291 -1.5900 -0.9601
  310MOL0     H42723   1.231   0.702   5.700 -0.1835  0.2967 -2.2295
  310MOL0     H42724   1.401   0.749   5.736 -0.3764  1.0212  1.1590
  310MOL0     H42725   1.145   0.902   5.792 -0.9497 -0.9943 -0.6324
  310MOL0     H42726   1.316   0.953   5.837 -1.9348  2.4823 -0.2296
  310MOL0     H42727   1.207   0.875   6.032  1.4246  0.9805 -0.6208
  310MOL0     H42728   1.166   0.709   5.943  0.3430 -0.8285 -0.0546
  310MOL0     H42729   1.480   0.911   6.069  0.8918 -0.8230  1.1375
  310MOL0     H42730   1.718   0.623   6.157 -2.2389 -0.3003  0.1810
  310MOL0     H42731   1.728   0.802   6.152 -0.4503  0.0253  0.3724
  310MOL0     H42732   1.920   0.747   6.042 -1.9885  1.6052  1.8349
  310MOL0     H42733   1.855   0.617   5.933 -0.5925  1.6962 -2.8713
  310MOL0     H42734   1.724   0.784   5.822  0.2120 -1.6117  0.7542
  310MOL0     H42735   1.824   0.913   5.891  3.0788 -0.0989  1.5222
  310MOL0     H42736   1.912   0.852   5.678 -1.0181 -0.5828 -0.6291
  310MOL0     H42737   2.024   0.799   5.810  0.3548 -2.2130  0.7140
  310MOL0     H42738   1.927   0.723   5.445  0.9286 -3.3127 -0.4919
  310MOL0     H42739   1.681   0.836   5.239  1.9558  2.0400 -1.4893
  310MOL0     H42740   1.745   0.680   5.168 -0.4484  0.3984 -1.2027
  310MOL0     H42741   1.851   0.790   5.244  1.0725 -2.4798  2.1054
  310MOL0     H42742   1.290   0.705   5.143 -0.0819 -0.0719  0.0680
  310MOL0     H42743   1.081   0.701   5.052  2.3617 -1.1901 -2.0656
  310MOL0     H42744   0.899   0.573   4.953  0.0331 -2.6551 -1.5120
  310MOL0     H42745   0.847   0.428   5.027 -0.7360 -0.2355 -2.0429
  310MOL0     H42746   0.683   0.666   4.936  0.0039  0.2773  1.6057
  310MOL0     H42747   0.669   0.490   4.890  3.0715 -0.2807  0.4524
  310MOL0     H42748   0.486   0.603   5.075 -0.8663 -1.7215  1.6933
  310MOL0     H42749   0.624   0.586   5.175  0.6078  3.8988 -1.0194
  310MOL0     H42750   0.627   0.340   5.107 -0.1687  1.0590  2.7087
  310MOL0     H42751   0.500   0.372   4.993 -0.7803 -1.0942  0.7922
  310MOL0     H42752   0.404   0.463   5.234 -0.2828  1.3708 -1.5467
  310MOL0     H42753   0.341   0.330   5.139  0.3626  4.0703 -2.8273
  310MOL0     H42754   0.559   0.314   5.348  1.0481  0.9893 -1.3716
  310MOL0     H42755   0.544   0.178   5.240 -2.9254 -2.8414  0.4005
  310MOL0     H42756   0.289   0.208   5.312  0.5320 -2.3127 -0.2704
  310MOL0     H42757   0.344   0.255   5.467 -1.0005  0.3382  0.1967
  310MOL0     H42758   0.354   0.022   5.494 -0.3409 -0.4392 -1.0606
  310MOL0     H42759   0.513   0.043   5.426 -0.2643 -0.0980  1.9730
  310MOL0     H42760   0.934   0.460   5.369 -1.4650  0.3839 -0.6855
  310MOL0     H42761   1.147   0.462   5.476  1.1591  0.9117  1.0144
  310MOL0     H42762   1.518   0.471   5.580  2.0882 -3.0203 -1.6681
  310MOL0     H42763   1.723   0.490   5.728  0.3746  3.2967  1.4668
  310MOL0     H42764   1.882   1.424   5.605 -4.0512 -1.1038 -0.2508
  310MOL0     H42765   2.062   1.487   5.774 -2.5590  3.9585 -3.9341
  310MOL0     H42766   2.061   1.686   6.243  0.7253  1.0723 -2.6977
  310MOL0     H42767   2.191   1.745   6.437 -1.3938 -0.6296 -0.1126
  310MOL0     H42768   2.513   1.802   6.420 -1.2393 -1.0734 -0.1570
  310MOL0     H42769   2.370   1.846   6.513 -0.7943 -0.0494  1.9709
  310MOL0     H42770   2.572   1.935   6.627  2.1887  0.0676  3.2558
  310MOL0     H42771   2.640   1.768   6.629  1.5159  1.6099  2.4273
  310MOL0     H42772   2.359   1.838   6.741 -0.3304 -1.9111  1.1002
  310MOL0     H42773   2.457   1.709   6.784  1.0998 -0.3621  1.0527
  310MOL0     H42774   2.561   1.979   6.890  0.9723 -0.7527  2.2406
  310MOL0     H42775   2.628   1.817   6.897 -0.5183 -2.2841 -3.4047
  310MOL0     H42776   2.282   1.764   7.146  0.0737 -2.1477 -1.4592
  310MOL0     H42777   2.453   1.418   6.389  0.1553 -0.6613 -0.8049
  310MOL0     H42778   2.253   1.216   6.181 -0.8637 -0.0426 -0.0142
  310MOL0     H42779   2.342   1.311   6.059  0.0378  0.2656  0.0291
  310MOL0     H42780   2.425   1.262   6.199 -0.0908 -2.6067 -2.6557
  311MOL0     O42781  11.605   8.364  10.584  0.1551 -0.0678  0.5480
  311MOL0     C42782  11.622   8.444  10.673  0.2532 -0.7130 -0.3249
  311MOL0     O42783  11.612   8.588  10.661 -0.8385 -0.2437  0.2154
  311MOL0     C42784  11.589   8.643  10.536  0.2013 -0.1081  1.3577
  311MOL0     C42785  11.683   8.724  10.470 -0.6305 -0.3847  0.6014
  311MOL0     C42786  11.666   8.775  10.344 -0.4981 -0.4122 -0.9017
  311MOL0     C42787  11.540   8.750  10.280 -0.0195 -0.7028  0.3411
  311MOL0     O42788  11.524   8.808  10.157 -0.2582 -0.4558  0.3239
  311MOL0     C42789  11.405   8.793  10.079 -0.1757 -0.6129  0.3294
  311MOL0     C42790  11.391   8.651  10.013  0.9449 -0.3645 -0.0630
  311MOL0     C42791  11.436   8.644   9.879 -1.1147  0.5014  1.1175
  311MOL0     C42792  11.378   8.526   9.805  0.4522  0.5795  0.0944
  311MOL0     C42793  11.448   8.393   9.827 -0.0107 -0.1566 -0.0035
  311MOL0     C42794  11.384   8.269   9.762 -0.2575 -1.2179 -0.2961
  311MOL0     C42795  11.230   8.271   9.750  0.6491  0.4454 -1.0814
  311MOL0     C42796  11.184   8.158   9.661  1.2120 -0.8303  0.1947
  311MOL0     N42797  11.204   8.178   9.515  0.9368  0.2546 -0.9541
  311MOL0     C42798  11.281   8.109   9.417  0.0555  0.2755 -0.1366
  311MOL0     C42799  11.255   8.182   9.305 -0.1608  0.6224  0.3062
  311MOL0     C42800  11.286   8.132   9.163 -0.3212 -0.0126 -0.3947
  311MOL0     C42801  11.304   8.254   9.071 -0.3612  0.3227  0.3441
  311MOL0     C42802  11.377   8.229   8.937 -0.4313  0.5865  1.6578
  311MOL0     C42803  11.306   8.132   8.838 -0.4993 -0.3825 -0.5028
  311MOL0     O42804  11.352   8.148   8.707 -0.9109  0.2916  0.2722
  311MOL0     C42805  11.313   8.050   8.625  0.2254  0.8997  0.2749
  311MOL0     C42806  11.369   8.047   8.494  0.3407 -0.1265 -0.1505
  311MOL0     C42807  11.328   7.950   8.403 -0.1108  0.5026  0.2393
  311MOL0     C42808  11.380   7.976   8.260 -0.3824  0.3290  1.5224
  311MOL0     C42809  11.237   7.851   8.436  0.9225 -0.5350  0.1286
  311MOL0     C42810  11.190   7.742   8.355  0.5177 -0.7314  0.3349
  311MOL0     O42811  11.082   7.670   8.404 -0.4778  0.3851 -0.4620
  311MOL0     C42812  11.044   7.552   8.346  0.5036  0.0566  0.1370
  311MOL0     C42813  11.139   7.455   8.318 -0.5048 -0.5823 -0.2017
  311MOL0     C42814  11.093   7.328   8.266 -0.1809  0.1047 -0.0110
  311MOL0     C42815  10.958   7.298   8.228 -1.1421  0.2030  0.1123
  311MOL0     O42816  10.916   7.186   8.176  0.3369  0.1277  0.2784
  311MOL0     C42817  10.990   7.070   8.181 -1.0082  0.0721  0.0992
  311MOL0     C42818  10.925   6.953   8.105 -0.1020  0.3263 -0.5023
  311MOL0     C42819  11.004   6.816   8.109 -0.0987 -0.5007 -0.0531
  311MOL0     C42820  11.097   6.772   7.993 -0.6341 -1.1322  0.1614
  311MOL0     C42821  11.141   6.627   7.995 -0.1203 -0.2420 -0.8689
  311MOL0     C42822  11.252   6.595   7.891  0.9170 -0.7916 -0.0710
  311MOL0     C42823  11.255   6.439   7.860  1.1165  0.5465 -0.1508
  311MOL0     C42824  11.360   6.409   7.754  0.0254 -0.4048  0.7303
  311MOL0    Cl42825  11.519   6.439   7.831  0.2771  0.1555  0.0081
  311MOL0     C42826  10.871   7.408   8.244  0.7117  0.2915 -1.1244
  311MOL0     C42827  10.906   7.531   8.306 -0.4611 -0.2610  0.7459
  311MOL0     O42828  11.245   7.713   8.249 -0.0840  0.5328 -0.3115
  311MOL0     C42829  11.193   7.838   8.568 -0.0498  0.2967  1.0988
  311MOL0     C42830  11.228   7.937   8.662  0.5846  0.0896 -0.5004
  311MOL0     N42831  11.193   8.299   9.334 -0.0666 -0.3045 -0.2403
  311MOL0     N42832  11.174   8.295   9.466  0.5429 -1.0976 -1.0197
  311MOL0     C42833  11.441   8.669  10.344 -0.4827  0.4074  0.7382
  311MOL0     C42834  11.465   8.613  10.469 -0.0846 -0.2759 -0.7508
  311MOL0     C42835  11.632   8.392  10.816  0.5924 -0.6675  0.0386
  311MOL0     C42836  11.713   8.464  10.905  0.2371 -0.4117  0.6128
  311MOL0     C42837  11.730   8.415  11.032  0.2226 -0.9348 -0.5816
  311MOL0     C42838  11.702   8.285  11.075  0.4990  0.2337  1.3589
  311MOL0     O42839  11.720   8.232  11.196 -0.3316 -0.3565 -0.6926
  311MOL0     C42840  11.837   8.281  11.267 -0.1989  0.2375  0.2975
  311MOL0     C42841  11.981   8.275  11.203  0.0172  0.2580 -0.1668
  311MOL0     C42842  12.095   8.304  11.303  0.8000  1.1505 -0.6452
  311MOL0     C42843  12.090   8.453  11.359  0.5039 -0.2868  0.9517
  311MOL0     C42844  12.213   8.501  11.427 -0.3933 -0.6195  0.5475
  311MOL0     C42845  12.309   8.543  11.490 -0.2450 -0.3346 -0.6517
  311MOL0     C42846  11.623   8.212  10.986 -0.7608  1.1574  0.3004
  311MOL0     C42847  11.574   8.269  10.867  0.5411  0.7509  0.3477
  311MOL0     C42848  11.461   8.192  10.791 -0.6381 -0.0627  0.4199
  311MOL0     H42849  11.775   8.749  10.521  0.3199  0.7139 -1.5192
  311MOL0     H42850  11.753   8.821  10.298 -1.5993  1.4660 -1.1961
  311MOL0     H42851  11.401   8.868   9.999 -0.0549 -1.7745 -0.8162
  311MOL0     H42852  11.318   8.816  10.141  1.5202  5.0679  1.1937
  311MOL0     H42853  11.421   8.570  10.080 -0.1520  0.7794  1.9276
  311MOL0     H42854  11.283   8.636  10.008  0.8085  0.8856 -3.2611
  311MOL0     H42855  11.417   8.736   9.822  2.3972 -0.4567 -2.0898
  311MOL0     H42856  11.544   8.627   9.877 -1.2340 -1.3519 -3.6199
  311MOL0     H42857  11.272   8.521   9.832 -0.0927  1.7845 -1.6959
  311MOL0     H42858  11.380   8.550   9.698  1.4108 -1.8690 -0.5171
  311MOL0     H42859  11.464   8.372   9.933 -2.2864 -2.7337 -0.0530
  311MOL0     H42860  11.546   8.408   9.781  0.0004  0.4649  0.2250
  311MOL0     H42861  11.422   8.261   9.660 -5.1545  1.1834 -2.6868
  311MOL0     H42862  11.416   8.182   9.818  0.2367 -0.8047  0.0705
  311MOL0     H42863  11.207   8.369   9.708  0.7439  1.0699  0.2732
  311MOL0     H42864  11.194   8.259   9.853  2.1217 -2.6294 -0.8060
  311MOL0     H42865  11.248   8.073   9.687  0.0966 -1.9482 -0.6083
  311MOL0     H42866  11.080   8.132   9.679  1.3959 -2.7061 -1.1613
  311MOL0     H42867  11.335   8.016   9.431  2.2304  0.7477 -3.9233
  311MOL0     H42868  11.216   8.060   9.120  0.5804  0.2372 -2.3849
  311MOL0     H42869  11.383   8.081   9.156 -1.3576 -1.8393 -3.1808
  311MOL0     H42870  11.206   8.290   9.038  0.6649  0.9327 -2.2959
  311MOL0     H42871  11.355   8.339   9.117  0.3583  0.2604 -0.3240
  311MOL0     H42872  11.388   8.326   8.888  1.2386 -0.3930 -0.0713
  311MOL0     H42873  11.470   8.173   8.948 -0.0556  0.6566 -0.6707
  311MOL0     H42874  11.308   8.036   8.889 -0.2079 -0.0660  0.0893
  311MOL0     H42875  11.201   8.165   8.840  0.8727  5.0115  0.8063
  311MOL0     H42876  11.420   8.133   8.452  1.8388 -1.5689 -1.4605
  311MOL0     H42877  11.427   8.075   8.269 -1.9647  1.0490  2.3673
  311MOL0     H42878  11.297   7.968   8.190  1.6783  0.1990 -1.0615
  311MOL0     H42879  11.454   7.902   8.229 -4.1941 -4.3003  2.2318
  311MOL0     H42880  11.243   7.475   8.342 -0.1038  1.6520 -3.1747
  311MOL0     H42881  11.170   7.253   8.274  0.4229  0.7715  0.5936
  311MOL0     H42882  11.085   7.096   8.134  0.2587 -2.8417  0.7993
  311MOL0     H42883  11.021   7.042   8.282  1.3170  0.4848 -0.4409
  311MOL0     H42884  10.822   6.947   8.142  0.3570  1.8949  1.1426
  311MOL0     H42885  10.913   6.990   8.003  0.2216 -2.2159 -1.5238
  311MOL0     H42886  10.924   6.742   8.117  1.1380 -1.6707  3.1903
  311MOL0     H42887  11.058   6.806   8.204 -0.0670  1.8705  0.2438
  311MOL0     H42888  11.186   6.835   7.989  0.6876 -2.9778 -1.3832
  311MOL0     H42889  11.051   6.789   7.896  0.1522  0.0251 -0.0298
  311MOL0     H42890  11.180   6.606   8.095 -0.6276  1.1823 -0.3552
  311MOL0     H42891  11.054   6.562   7.980  0.6907 -1.5636 -0.0250
  311MOL0     H42892  11.349   6.627   7.928  0.2055 -0.8573  1.9472
  311MOL0     H42893  11.218   6.643   7.798 -0.0144 -2.3055 -0.5512
  311MOL0     H42894  11.158   6.412   7.816  1.9714 -2.8425 -0.2323
  311MOL0     H42895  11.263   6.370   7.944  4.6203  0.4903 -0.3993
  311MOL0     H42896  11.358   6.465   7.660  1.9022 -0.6230  0.5321
  311MOL0     H42897  11.350   6.306   7.720 -2.8941 -0.6488  1.9812
  311MOL0     H42898  10.765   7.388   8.226  0.4296 -1.9368  2.1858
  311MOL0     H42899  10.844   7.618   8.321  1.5813  1.9110 -2.3175
  311MOL0     H42900  11.135   7.756   8.610  1.4760 -1.9782 -0.9713
  311MOL0     H42901  11.180   7.926   8.759  3.1558  1.1703  1.0012
  311MOL0     H42902  11.341   8.648  10.308 -0.0535 -0.0349 -0.2240
  311MOL0     H42903  11.392   8.553  10.524  0.4884 -1.1031 -0.8647
  311MOL0     H42904  11.751   8.562  10.878  0.7888 -0.1116  2.3877
  311MOL0     H42905  11.779   8.484  11.101 -3.3643  2.5745 -1.1728
  311MOL0     H42906  11.813   8.387  11.283  1.2113  0.6777 -0.3599
  311MOL0     H42907  11.838   8.221  11.358  2.2321 -0.9710 -0.4628
  311MOL0     H42908  11.992   8.344  11.118  2.8940  0.6690  0.4170
  311MOL0     H42909  11.998   8.174  11.164  0.3700  0.5281 -0.7297
  311MOL0     H42910  12.093   8.226  11.380 -1.1015  2.2170  0.4671
  311MOL0     H42911  12.191   8.299  11.250 -0.1467  0.5092 -2.3724
  311MOL0     H42912  12.012   8.472  11.433  1.9343  0.0224  2.4595
  311MOL0     H42913  12.078   8.514  11.269  2.4353  0.2251  0.9863
  311MOL0     H42914  12.392   8.566  11.554 -1.0249 -0.7287  0.5397
  311MOL0     H42915  11.598   8.109  11.009  0.8463  1.5243  4.4451
  311MOL0     H42916  11.483   8.152  10.691  3.0096 -2.1623  1.8560
  311MOL0     H42917  11.436   8.100  10.844 -2.0871 -0.9192 -1.6095
  311MOL0     H42918  11.372   8.250  10.765 -1.5926 -2.6230 -2.7445
  312MOL0     O42919   9.815   2.409   7.850 -0.0491  0.0399 -1.3761
  312MOL0     C42920   9.899   2.346   7.786 -0.1367 -1.0828 -0.3867
  312MOL0     O42921   9.981   2.256   7.842 -0.2391 -0.8018  0.0807
  312MOL0     C42922   9.999   2.230   7.977  0.2271 -0.9583 -0.0359
  312MOL0     C42923   9.954   2.320   8.083 -0.8953 -0.1665 -0.4478
  312MOL0     C42924   9.962   2.264   8.212 -0.5356  0.5544  0.4111
  312MOL0     C42925  10.025   2.144   8.240  0.2431  0.3094 -0.0650
  312MOL0     O42926  10.017   2.093   8.370 -0.1735 -0.4968 -1.1184
  312MOL0     C42927   9.977   1.959   8.388 -0.1623 -0.2087 -0.8785
  312MOL0     C42928   9.963   1.935   8.543 -0.0162 -0.0725 -0.6893
  312MOL0     C42929   9.959   1.777   8.568 -0.1520 -0.2140  1.2955
  312MOL0     C42930   9.988   1.745   8.715  0.5563 -0.4210  0.4596
  312MOL0     C42931   9.974   1.587   8.729 -1.0633  0.2955 -0.2403
  312MOL0     C42932  10.001   1.548   8.871  0.9806  0.7190 -0.2379
  312MOL0     C42933   9.870   1.563   8.951 -0.0578 -0.3613 -0.4235
  312MOL0     C42934   9.893   1.517   9.101 -0.4275 -0.2952  1.2732
  312MOL0     N42935   9.764   1.545   9.164 -0.2319  0.9484 -0.1728
  312MOL0     C42936   9.710   1.474   9.258  0.1764  0.9396  0.5238
  312MOL0     C42937   9.599   1.538   9.303  0.5101 -0.4351  0.6965
  312MOL0     C42938   9.495   1.493   9.393 -0.4220 -0.4204 -0.1774
  312MOL0     C42939   9.462   1.571   9.514 -0.4690 -0.7850 -0.4464
  312MOL0     C42940   9.403   1.701   9.481  0.0296 -0.7043 -0.2473
  312MOL0     C42941   9.347   1.785   9.602 -0.7281  0.3599  0.0253
  312MOL0     O42942   9.283   1.913   9.562 -0.2033 -0.0599  0.3282
  312MOL0     C42943   9.250   2.004   9.657  0.2331 -0.2333 -0.5569
  312MOL0     C42944   9.270   1.983   9.799  0.0334 -0.3781  0.8136
  312MOL0     C42945   9.209   2.074   9.887 -0.2011 -1.4761 -0.7876
  312MOL0     C42946   9.251   2.066  10.034 -0.0852 -0.7590  0.0856
  312MOL0     C42947   9.133   2.177   9.831  0.1975  0.4110 -0.7410
  312MOL0     C42948   9.061   2.270   9.919  0.4821 -0.2764 -0.6914
  312MOL0     O42949   9.043   2.393   9.867  0.0191 -0.6481 -0.0182
  312MOL0     C42950   8.974   2.486   9.934  1.3812  0.3459  0.3669
  312MOL0     C42951   8.870   2.552   9.869  0.6070  0.4482 -0.0400
  312MOL0     C42952   8.814   2.669   9.932 -0.8979 -0.6905  0.1457
  312MOL0     C42953   8.864   2.699  10.061 -0.5908 -0.4461  0.2463
  312MOL0     O42954   8.824   2.808  10.126 -1.2604 -0.9725 -0.6126
  312MOL0     C42955   8.804   2.928  10.042 -1.2185 -0.5805 -0.4602
  312MOL0     C42956   8.788   3.045  10.142  0.2565  0.3267  0.0953
  312MOL0     C42957   8.782   3.178  10.061 -0.3607 -0.2547  1.6213
  312MOL0     C42958   8.918   3.224  10.002 -0.6115  0.3342  0.0126
  312MOL0     C42959   8.914   3.376   9.950  0.6789  0.7385 -0.0828
  312MOL0     C42960   9.050   3.442   9.983 -0.1937 -0.1418  0.1879
  312MOL0     C42961   9.156   3.415   9.877  0.6667  1.3195 -0.4523
  312MOL0     C42962   9.277   3.506   9.884  0.1499  0.0974  0.1576
  312MOL0    Cl42963   9.412   3.428   9.789 -0.1029 -0.5010 -0.1356
  312MOL0     C42964   8.963   2.620  10.124 -0.2057 -0.4038  0.2654
  312MOL0     C42965   9.023   2.515  10.060 -0.0658  0.7580 -0.5338
  312MOL0     O42966   9.004   2.221  10.018 -0.3840 -0.0840  1.1406
  312MOL0     C42967   9.119   2.202   9.690  0.3681  0.5369  0.1094
  312MOL0     C42968   9.179   2.110   9.604 -0.5325 -0.1574 -0.4205
  312MOL0     N42969   9.610   1.659   9.243 -0.2010  0.4105  0.8865
  312MOL0     N42970   9.697   1.658   9.156 -0.1514 -0.1125 -0.0661
  312MOL0     C42971  10.090   2.071   8.139 -0.7397  0.4354  0.2065
  312MOL0     C42972  10.082   2.121   8.005  0.8173 -0.2802  0.5342
  312MOL0     C42973   9.894   2.334   7.632 -0.8601  0.7428 -0.6733
  312MOL0     C42974   9.977   2.245   7.557  0.4178 -0.4676 -0.1262
  312MOL0     C42975   9.962   2.218   7.428 -0.5926 -0.0880 -0.5308
  312MOL0     C42976   9.879   2.303   7.357  0.6558 -0.5066  0.2717
  312MOL0     O42977   9.853   2.289   7.227 -0.1127 -0.0885  0.5799
  312MOL0     C42978   9.964   2.276   7.132 -0.2032  0.2662  0.0964
  312MOL0     C42979   9.923   2.333   6.998 -1.0830 -0.4148  0.0898
  312MOL0     C42980   9.880   2.480   7.004  0.2424  0.0689  0.2294
  312MOL0     C42981   9.880   2.532   6.851  0.2182 -0.1694  0.1678
  312MOL0     C42982   9.811   2.438   6.762 -0.6853  0.2531  0.7040
  312MOL0     C42983   9.749   2.348   6.700  0.3581 -0.6722  0.5877
  312MOL0     C42984   9.804   2.395   7.419  0.1838 -0.1991 -1.4091
  312MOL0     C42985   9.799   2.413   7.561 -0.4443 -0.4653  0.1169
  312MOL0     C42986   9.703   2.502   7.620 -0.2634 -0.9575 -1.3171
  312MOL0     H42987   9.909   2.416   8.059 -0.3077  0.0963 -0.5183
  312MOL0     H42988   9.924   2.324   8.294 -1.0508 -0.7537  1.1622
  312MOL0     H42989  10.063   1.907   8.345  0.8069  1.9929 -1.7448
  312MOL0     H42990   9.880   1.941   8.341 -0.2482  1.4430 -1.3941
  312MOL0     H42991  10.042   1.975   8.607  0.9767 -2.2159 -0.4847
  312MOL0     H42992   9.875   1.995   8.568 -0.0742 -0.6686  0.6527
  312MOL0     H42993   9.864   1.725   8.550  0.2688 -0.7457  0.5144
  312MOL0     H42994  10.037   1.738   8.501  0.3943  3.9312 -0.7921
  312MOL0     H42995  10.090   1.776   8.736  1.5183 -1.7935 -1.8031
  312MOL0     H42996   9.900   1.796   8.755 -0.5479  0.9022 -3.2367
  312MOL0     H42997  10.051   1.559   8.656 -0.4402 -0.6694  0.7526
  312MOL0     H42998   9.884   1.537   8.693 -1.2058 -2.2757  3.1872
  312MOL0     H42999  10.039   1.445   8.868 -3.0936 -0.9832  0.7814
  312MOL0     H43000  10.081   1.616   8.902  1.6773 -0.5152  0.7711
  312MOL0     H43001   9.790   1.497   8.916 -2.3211  1.8977  0.1791
  312MOL0     H43002   9.833   1.664   8.932 -1.0313  0.5665  4.7558
  312MOL0     H43003   9.928   1.416   9.126  0.2954 -0.0546  1.2734
  312MOL0     H43004   9.975   1.572   9.148 -0.8453 -0.4205  2.1625
  312MOL0     H43005   9.744   1.375   9.285  1.7402  1.1832 -0.4434
  312MOL0     H43006   9.502   1.389   9.425  0.4136 -1.0865 -2.3123
  312MOL0     H43007   9.408   1.483   9.328 -0.2878 -2.6914 -0.1042
  312MOL0     H43008   9.383   1.523   9.571 -1.8361 -1.1978 -2.5788
  312MOL0     H43009   9.551   1.583   9.577  1.3104 -1.7020 -2.6358
  312MOL0     H43010   9.471   1.771   9.433 -0.7891  2.9433  3.3680
  312MOL0     H43011   9.321   1.684   9.412 -2.6565  1.5291  2.1377
  312MOL0     H43012   9.277   1.726   9.661  0.9369 -2.2153 -0.4071
  312MOL0     H43013   9.431   1.804   9.670  0.8137 -2.3245 -0.9798
  312MOL0     H43014   9.319   1.902   9.852  0.5565 -0.7001 -0.1400
  312MOL0     H43015   9.163   2.067  10.099  0.8189 -3.0158  1.4499
  312MOL0     H43016   9.323   2.145  10.056  0.5805 -0.1367 -3.7321
  312MOL0     H43017   9.304   1.971  10.046 -1.8777 -1.5493  2.7363
  312MOL0     H43018   8.832   2.515   9.774 -2.2592 -3.7651  2.3857
  312MOL0     H43019   8.746   2.731   9.875 -0.5588 -0.2760  0.1909
  312MOL0     H43020   8.890   2.940   9.976 -0.9903 -0.0668 -0.0732
  312MOL0     H43021   8.707   2.921   9.993 -1.6848 -1.6171  0.5470
  312MOL0     H43022   8.691   3.036  10.192 -0.3069  2.5735 -0.5107
  312MOL0     H43023   8.879   3.043  10.203  3.9097 -3.5748 -4.5392
  312MOL0     H43024   8.743   3.250  10.134 -0.5783 -1.6661  2.9662
  312MOL0     H43025   8.709   3.178   9.980  0.8853  2.8406  0.3256
  312MOL0     H43026   8.935   3.167   9.910  0.4254  1.5163 -0.5459
  312MOL0     H43027   9.002   3.202  10.070 -2.0520  0.6826  1.9877
  312MOL0     H43028   8.888   3.384   9.844 -1.4845  0.8375  0.4161
  312MOL0     H43029   8.847   3.427  10.020  2.8179 -0.0009  2.7159
  312MOL0     H43030   9.084   3.402  10.079 -1.3771  1.2636  1.2299
  312MOL0     H43031   9.043   3.551   9.983 -1.3208 -0.1047 -3.1085
  312MOL0     H43032   9.118   3.406   9.775  0.4688  2.4101 -0.4849
  312MOL0     H43033   9.205   3.323   9.910  1.1591  2.4311  2.2181
  312MOL0     H43034   9.298   3.524   9.990 -1.1685  2.7535  0.0587
  312MOL0     H43035   9.252   3.604   9.842 -1.8268  0.4071  1.8398
  312MOL0     H43036   9.017   2.647  10.214 -0.0815 -0.2969  0.1587
  312MOL0     H43037   9.094   2.459  10.121 -2.1149 -2.0099 -0.4962
  312MOL0     H43038   9.069   2.289   9.648  2.1247  0.1338 -3.1428
  312MOL0     H43039   9.165   2.109   9.497  0.1140 -2.7782 -0.5439
  312MOL0     H43040  10.128   1.972   8.162 -3.1718 -1.1193 -1.9193
  312MOL0     H43041  10.100   2.053   7.923  0.5279 -0.1467  0.3606
  312MOL0     H43042  10.060   2.201   7.611  1.1746  1.8227  0.6870
  312MOL0     H43043  10.018   2.139   7.379 -1.5095 -1.6693  0.9090
  312MOL0     H43044  10.054   2.319   7.177 -0.2559 -0.0961  0.5553
  312MOL0     H43045   9.989   2.169   7.132  2.2983  0.7575  2.5750
  312MOL0     H43046   9.848   2.269   6.952 -3.5837  1.4662  1.3093
  312MOL0     H43047  10.012   2.332   6.935 -0.1890 -1.3888  1.3100
  312MOL0     H43048   9.785   2.488   7.058  0.4269  0.2354  0.5360
  312MOL0     H43049   9.963   2.532   7.054  0.1324  2.0178 -1.5337
  312MOL0     H43050   9.977   2.555   6.807 -0.8160  0.6603 -1.7872
  312MOL0     H43051   9.819   2.623   6.846  0.4415 -0.0729 -0.8127
  312MOL0     H43052   9.681   2.281   6.651 -0.3898  1.0095 -0.7537
  312MOL0     H43053   9.732   2.462   7.372 -0.4337  3.0005  3.4025
  312MOL0     H43054   9.653   2.554   7.538  1.4634 -1.5287 -2.8088
  312MOL0     H43055   9.629   2.468   7.693  0.1317 -1.0918 -0.9766
  312MOL0     H43056   9.746   2.588   7.672 -3.8119  0.2997 -0.1761
  313MOL0     O43057  11.062   3.666   9.796 -0.1914  0.1469  0.4414
  313MOL0     C43058  11.128   3.708   9.895  1.4149 -0.3912  0.6042
  313MOL0     O43059  11.078   3.716  10.021 -0.0772  0.3847 -0.5192
  313MOL0     C43060  11.001   3.605  10.054 -0.3576  0.6586  0.0446
  313MOL0     C43061  10.870   3.612  10.108 -0.0532  0.2220 -0.8142
  313MOL0     C43062  10.798   3.500  10.148 -0.0864  0.1858  0.1731
  313MOL0     C43063  10.861   3.378  10.170 -0.8297  0.1481  0.6684
  313MOL0     O43064  10.793   3.264  10.210 -0.2089 -0.2725  0.1952
  313MOL0     C43065  10.653   3.247  10.183 -0.5764 -0.2638  0.1829
  313MOL0     C43066  10.619   3.103  10.212 -0.4474 -0.5708 -0.1033
  313MOL0     C43067  10.683   3.042  10.338 -1.1062 -0.7770 -0.4813
  313MOL0     C43068  10.605   2.922  10.395 -0.2118 -0.3937 -0.2439
  313MOL0     C43069  10.668   2.861  10.534  0.8409  1.1199 -0.3701
  313MOL0     C43070  10.571   2.757  10.596  0.9852 -0.9441  1.1234
  313MOL0     C43071  10.650   2.655  10.684 -0.7448  0.1304  0.2396
  313MOL0     C43072  10.691   2.719  10.821  0.3754 -0.4296 -0.0415
  313MOL0     N43073  10.791   2.829  10.812  0.4120  0.7697 -0.0352
  313MOL0     C43074  10.911   2.801  10.754 -0.0357 -0.5814 -0.7359
  313MOL0     C43075  10.975   2.925  10.746  0.0530 -0.0715 -0.1174
  313MOL0     C43076  11.124   2.959  10.711  0.3547 -0.9413 -0.8436
  313MOL0     C43077  11.153   2.978  10.561  0.5086 -0.0325  0.1252
  313MOL0     C43078  11.248   3.089  10.532  0.1712  0.3365  0.2842
  313MOL0     C43079  11.270   3.110  10.384  0.5093  0.0331  0.0245
  313MOL0     O43080  11.392   3.165  10.350 -0.2487 -0.2780  0.2990
  313MOL0     C43081  11.423   3.302  10.329  0.5727  0.0937 -0.0412
  313MOL0     C43082  11.331   3.402  10.357  0.3161  0.3249  0.5593
  313MOL0     C43083  11.351   3.543  10.326  0.0153  1.0370  0.3693
  313MOL0     C43084  11.240   3.652  10.348 -0.5417  0.8272  0.1479
  313MOL0     C43085  11.477   3.587  10.289  0.7244 -0.3239  0.7054
  313MOL0     C43086  11.518   3.728  10.252  0.3697 -0.2898  0.8575
  313MOL0     O43087  11.636   3.771  10.298  0.0435 -0.4276  0.0226
  313MOL0     C43088  11.712   3.876  10.251  1.0585 -0.6042 -0.3080
  313MOL0     C43089  11.715   3.932  10.120  0.9169 -0.5217 -0.0985
  313MOL0     C43090  11.812   4.026  10.078  0.1193  0.5519 -0.7675
  313MOL0     C43091  11.917   4.062  10.158 -0.6089  0.3375 -0.6888
  313MOL0     O43092  12.022   4.145  10.112  0.1328  0.1890 -0.3224
  313MOL0     C43093  12.009   4.217   9.994 -0.4172 -0.0270  0.3797
  313MOL0     C43094  12.131   4.301   9.958 -0.1097 -0.1356  0.0823
  313MOL0     C43095  12.146   4.418  10.055  1.0651  0.6638 -1.0118
  313MOL0     C43096  12.015   4.480  10.091 -0.4777  0.2160 -1.2458
  313MOL0     C43097  12.046   4.611  10.175 -0.1206  0.6930  0.1483
  313MOL0     C43098  11.918   4.705  10.215 -0.0255  0.4043  0.4306
  313MOL0     C43099  11.975   4.817  10.305 -0.6679 -0.5793  0.5079
  313MOL0     C43100  11.927   4.952  10.262 -0.8281 -0.6325  0.6789
  313MOL0    Cl43101  12.005   4.980  10.104  0.3275 -0.2370 -0.2647
  313MOL0     C43102  11.913   4.017  10.291 -0.3969  0.4714  0.1307
  313MOL0     C43103  11.819   3.916  10.340 -0.7891 -0.4461 -0.2520
  313MOL0     O43104  11.435   3.800  10.189 -0.5787 -0.0036  0.7374
  313MOL0     C43105  11.566   3.488  10.257 -0.4250 -0.3889 -0.7690
  313MOL0     C43106  11.542   3.346  10.270 -0.7525 -0.7317 -0.1329
  313MOL0     N43107  10.884   3.018  10.782 -0.2461 -0.6960  0.3566
  313MOL0     N43108  10.783   2.963  10.828  0.8306  0.0979  1.2712
  313MOL0     C43109  10.996   3.360  10.128  0.0504  0.1879 -0.3200
  313MOL0     C43110  11.064   3.475  10.069  1.0721  0.3723 -0.1105
  313MOL0     C43111  11.242   3.797   9.867  0.0525  0.2567  0.4476
  313MOL0     C43112  11.229   3.934   9.920  0.2263  0.3161  0.2473
  313MOL0     C43113  11.336   4.020   9.900 -0.0387  0.7415 -0.7747
  313MOL0     C43114  11.440   3.983   9.820  0.2010 -0.0375  1.0651
  313MOL0     O43115  11.549   4.059   9.816  0.6001 -0.2918 -0.0634
  313MOL0     C43116  11.545   4.129   9.695  0.5105 -0.8791 -0.1257
  313MOL0     C43117  11.669   4.205   9.686  0.4719  1.2411 -0.6033
  313MOL0     C43118  11.654   4.329   9.770 -0.4459  0.0298 -0.3658
  313MOL0     C43119  11.599   4.335   9.914 -0.2987  0.2655  0.3673
  313MOL0     C43120  11.451   4.350   9.918 -0.8016 -0.6740 -0.6781
  313MOL0     C43121  11.327   4.371   9.918  0.1861 -0.4645  0.0762
  313MOL0     C43122  11.448   3.852   9.762 -0.8240 -1.0946  0.4144
  313MOL0     C43123  11.345   3.759   9.781 -0.1170  0.4359 -0.1207
  313MOL0     C43124  11.354   3.624   9.710 -0.3570 -0.3056 -0.3775
  313MOL0     H43125  10.829   3.712  10.094  1.5911  0.7181 -2.6052
  313MOL0     H43126  10.695   3.505  10.182 -0.0957  0.9159  0.0633
  313MOL0     H43127  10.631   3.282  10.082 -0.9743  0.4891  0.5103
  313MOL0     H43128  10.607   3.321  10.250  2.7698 -0.4906  2.9989
  313MOL0     H43129  10.510   3.103  10.219 -0.6067 -1.4529 -1.8797
  313MOL0     H43130  10.648   3.043  10.125 -3.5136  1.9498 -3.1539
  313MOL0     H43131  10.787   3.015  10.317 -1.0804  0.1335 -1.5786
  313MOL0     H43132  10.678   3.124  10.410  1.3912 -0.8370 -0.1356
  313MOL0     H43133  10.501   2.952  10.409 -0.2150  1.2445 -3.0628
  313MOL0     H43134  10.615   2.847  10.316  2.1840  0.2256 -0.5999
  313MOL0     H43135  10.676   2.941  10.609  0.1124  1.0110 -0.1671
  313MOL0     H43136  10.770   2.832  10.509  1.2991 -0.6048  2.9851
  313MOL0     H43137  10.494   2.803  10.658  0.0955  2.8791 -2.3134
  313MOL0     H43138  10.515   2.708  10.516  0.3255  1.1327  0.2379
  313MOL0     H43139  10.720   2.589  10.632 -0.1154 -0.6918  2.0451
  313MOL0     H43140  10.571   2.587  10.716 -0.5320  0.4058  1.3612
  313MOL0     H43141  10.599   2.750  10.871  0.6519  1.9337 -0.8411
  313MOL0     H43142  10.739   2.647  10.888  2.8769 -1.9332 -3.1359
  313MOL0     H43143  10.963   2.706  10.748 -1.0031 -1.1338 -0.6089
  313MOL0     H43144  11.179   2.871  10.749  0.3452 -0.3202  0.6852
  313MOL0     H43145  11.146   3.050  10.766 -0.1337 -2.2748  1.7095
  313MOL0     H43146  11.190   2.884  10.520 -1.2780 -0.4581 -0.6159
  313MOL0     H43147  11.058   3.004  10.514  0.0439  2.5069  2.1839
  313MOL0     H43148  11.205   3.183  10.568 -0.7431 -0.0505  0.2232
  313MOL0     H43149  11.350   3.081  10.571 -0.3712 -1.0919  1.4847
  313MOL0     H43150  11.241   3.020  10.329 -0.8130 -1.2267  2.5780
  313MOL0     H43151  11.200   3.186  10.347 -0.5502 -1.7414 -1.7566
  313MOL0     H43152  11.232   3.381  10.397 -0.8983  1.1671 -1.7842
  313MOL0     H43153  11.273   3.742  10.401 -1.7246  1.4008 -0.0554
  313MOL0     H43154  11.167   3.603  10.413  1.1302 -1.5455  0.3336
  313MOL0     H43155  11.203   3.684  10.250  1.4340  0.6037 -0.7167
  313MOL0     H43156  11.637   3.910  10.048 -0.1991  1.2287  0.5115
  313MOL0     H43157  11.808   4.066   9.978  4.7369 -1.7827 -2.1490
  313MOL0     H43158  11.997   4.137   9.920 -0.5206 -1.2121  1.6420
  313MOL0     H43159  11.923   4.283  10.002 -0.9303 -0.9432  3.5892
  313MOL0     H43160  12.218   4.236   9.973 -0.8553 -1.7718 -2.1371
  313MOL0     H43161  12.125   4.345   9.858 -0.1468 -0.7670 -0.1973
  313MOL0     H43162  12.201   4.496  10.001  0.3283  1.1719 -1.0456
  313MOL0     H43163  12.205   4.389  10.143  0.5996  0.6964 -0.6854
  313MOL0     H43164  11.959   4.418  10.161  3.1418 -0.5679  1.2426
  313MOL0     H43165  11.958   4.504  10.001  0.2460  0.1499 -1.7296
  313MOL0     H43166  12.099   4.566  10.259 -3.0244 -3.3262  0.1065
  313MOL0     H43167  12.120   4.675  10.126  1.4611 -0.6298  0.7009
  313MOL0     H43168  11.841   4.643  10.262 -3.6548  1.3544 -3.6661
  313MOL0     H43169  11.860   4.756  10.138  0.9722  3.0456  1.3341
  313MOL0     H43170  12.084   4.810  10.302 -0.3822  2.6141  0.3421
  313MOL0     H43171  11.944   4.817  10.410  0.0916  2.2228  0.7985
  313MOL0     H43172  11.978   5.025  10.326  2.8312 -1.2613 -1.2483
  313MOL0     H43173  11.817   4.952  10.262 -0.8992 -3.3352 -1.1019
  313MOL0     H43174  11.997   4.049  10.352 -0.8367  0.3482  0.8076
  313MOL0     H43175  11.829   3.889  10.444  1.6578 -0.8729 -0.5390
  313MOL0     H43176  11.660   3.516  10.210 -0.2430  1.3088  0.5211
  313MOL0     H43177  11.622   3.276  10.249  0.2496  0.9443 -2.2653
  313MOL0     H43178  11.051   3.270  10.155  0.6294  0.0472 -1.8801
  313MOL0     H43179  11.166   3.453  10.041  1.4948  0.1789  1.4587
  313MOL0     H43180  11.146   3.958   9.986 -0.3550 -2.2581  0.5873
  313MOL0     H43181  11.334   4.111   9.960 -0.9499  0.6661 -0.6780
  313MOL0     H43182  11.537   4.058   9.611 -2.2868  0.1062 -0.8130
  313MOL0     H43183  11.458   4.195   9.683 -0.4511 -2.3286 -1.6615
  313MOL0     H43184  11.694   4.219   9.580  1.6620  2.1641 -0.2268
  313MOL0     H43185  11.754   4.149   9.725 -0.2350 -1.2774 -2.4479
  313MOL0     H43186  11.750   4.382   9.771 -1.0642  1.2022 -0.5760
  313MOL0     H43187  11.587   4.387   9.705 -0.4331 -0.1665 -0.5540
  313MOL0     H43188  11.649   4.420   9.961 -1.8048 -0.3425  3.3077
  313MOL0     H43189  11.626   4.244   9.968  3.7037  2.3413  2.3733
  313MOL0     H43190  11.230   4.413   9.929  0.2194 -0.1962 -0.5908
  313MOL0     H43191  11.537   3.835   9.702 -0.3354  0.8151  0.5523
  313MOL0     H43192  11.270   3.630   9.640  0.4379 -1.5563 -1.4817
  313MOL0     H43193  11.450   3.609   9.659 -0.4562 -1.3705 -0.2719
  313MOL0     H43194  11.346   3.547   9.787  3.2489  1.4581  2.0731
  314MOL0     O43195   5.691   6.118   6.704 -0.7589 -0.7659 -0.9113
  314MOL0     C43196   5.696   6.158   6.818  1.2247 -0.3488 -0.8321
  314MOL0     O43197   5.588   6.226   6.888 -0.3412 -0.3285  0.1746
  314MOL0     C43198   5.472   6.158   6.887  0.1072 -0.5581  0.4079
  314MOL0     C43199   5.449   6.071   7.001  0.6183 -0.4937  0.6098
  314MOL0     C43200   5.332   5.998   7.008 -1.0840  0.0106 -0.2799
  314MOL0     C43201   5.242   6.014   6.904  0.5853  0.1744 -0.0195
  314MOL0     O43202   5.124   5.946   6.899 -0.2035  1.1481 -0.8150
  314MOL0     C43203   5.131   5.802   6.911  0.9583  0.7228  0.1297
  314MOL0     C43204   5.156   5.754   6.765 -1.1800 -0.1174 -0.3523
  314MOL0     C43205   5.104   5.619   6.749  0.8325  0.0952 -0.1394
  314MOL0     C43206   5.120   5.562   6.599  0.3875  0.1267 -0.3257
  314MOL0     C43207   5.067   5.669   6.502  0.4642  0.3773  0.1331
  314MOL0     C43208   5.171   5.755   6.426 -0.3022  0.0417 -1.0201
  314MOL0     C43209   5.101   5.849   6.329 -1.0336  0.4321  0.3592
  314MOL0     C43210   5.012   5.957   6.404  0.1855 -0.5039  0.0931
  314MOL0     N43211   5.024   6.079   6.324 -0.0154 -0.0931 -0.0379
  314MOL0     C43212   4.911   6.144   6.286 -0.3050  0.7101 -0.0731
  314MOL0     C43213   4.942   6.270   6.258 -0.3924 -0.5959  0.9504
  314MOL0     C43214   4.839   6.378   6.223 -0.4207 -0.5910 -0.3304
  314MOL0     C43215   4.908   6.489   6.139 -0.3699 -0.0603 -0.2901
  314MOL0     C43216   4.819   6.605   6.114 -0.9997 -0.1511  0.0590
  314MOL0     C43217   4.702   6.561   6.022  1.5480 -0.4387  0.3634
  314MOL0     O43218   4.611   6.664   6.013  0.9265 -0.3198  0.0761
  314MOL0     C43219   4.537   6.676   5.893 -0.4907  0.7157 -0.8719
  314MOL0     C43220   4.464   6.793   5.891  0.3302  0.9775 -0.5875
  314MOL0     C43221   4.384   6.829   5.784  0.5063  0.6143  0.1660
  314MOL0     C43222   4.309   6.958   5.795  0.8200  1.0851  0.0157
  314MOL0     C43223   4.384   6.748   5.668  0.7723  0.5638 -0.3189
  314MOL0     C43224   4.295   6.792   5.557  0.5551  1.4511  0.2894
  314MOL0     O43225   4.346   6.900   5.492 -0.0127 -0.4936  0.2204
  314MOL0     C43226   4.260   6.945   5.393 -0.7211 -0.2045  0.2308
  314MOL0     C43227   4.281   6.893   5.261  0.5219  0.7289  1.1879
  314MOL0     C43228   4.207   6.942   5.149  0.1112  0.2877 -1.1181
  314MOL0     C43229   4.109   7.039   5.179 -0.1853 -0.3805  1.2473
  314MOL0     O43230   4.032   7.102   5.088  0.4601 -0.3347 -0.2028
  314MOL0     C43231   4.064   7.087   4.956  0.1358 -0.5521  0.7215
  314MOL0     C43232   4.024   7.211   4.883 -0.4077  0.0542 -0.7673
  314MOL0     C43233   4.002   7.196   4.727  0.3360  0.1043 -0.2861
  314MOL0     C43234   4.048   7.322   4.662 -0.1804  0.6998  1.0146
  314MOL0     C43235   4.039   7.319   4.513 -0.3039  0.6186 -1.0134
  314MOL0     C43236   3.913   7.272   4.448  0.5492 -0.4124  0.1727
  314MOL0     C43237   3.925   7.276   4.299  0.0379 -1.1655  0.5816
  314MOL0     C43238   3.903   7.422   4.250 -1.2137 -0.2346  0.4477
  314MOL0    Cl43239   4.048   7.477   4.151 -0.5654  0.3195 -0.4338
  314MOL0     C43240   4.093   7.087   5.309 -0.4755  0.1923 -0.1843
  314MOL0     C43241   4.167   7.044   5.414 -0.6920  0.6142  0.1751
  314MOL0     O43242   4.200   6.722   5.518  0.2255  0.2115 -0.3644
  314MOL0     C43243   4.469   6.636   5.661 -0.5622  0.4609  0.1550
  314MOL0     C43244   4.535   6.595   5.777 -1.0047  0.0248 -0.1594
  314MOL0     N43245   5.080   6.285   6.296 -0.0963 -0.6658 -0.6275
  314MOL0     N43246   5.125   6.171   6.335 -0.2440 -0.3859  1.0692
  314MOL0     C43247   5.260   6.103   6.805  0.6584  0.4561 -0.0194
  314MOL0     C43248   5.377   6.171   6.791 -0.9339 -0.4454  0.7792
  314MOL0     C43249   5.821   6.175   6.888  0.4074  0.0618  0.0695
  314MOL0     C43250   5.841   6.291   6.952 -0.8497 -0.7070  1.0901
  314MOL0     C43251   5.959   6.322   7.014  0.6586  0.1079 -0.4445
  314MOL0     C43252   6.070   6.230   7.017  0.7566  0.6821 -0.0596
  314MOL0     O43253   6.192   6.277   7.077  0.4017  0.5004 -0.8136
  314MOL0     C43254   6.305   6.194   7.038  0.6124  0.4451  0.6547
  314MOL0     C43255   6.344   6.208   6.887 -0.9453 -0.2103  0.3472
  314MOL0     C43256   6.453   6.118   6.832 -0.6598 -0.6559 -0.1891
  314MOL0     C43257   6.512   6.163   6.697  0.6803 -0.4443  1.0074
  314MOL0     C43258   6.622   6.076   6.666 -0.5602 -0.3710 -0.1132
  314MOL0     C43259   6.722   6.009   6.645 -0.1341  1.1358 -1.6146
  314MOL0     C43260   6.043   6.108   6.955 -1.2460  0.5876  0.5364
  314MOL0     C43261   5.920   6.082   6.892  0.8317  0.2251  0.2838
  314MOL0     C43262   5.895   5.946   6.830 -0.6245  0.7594  0.1895
  314MOL0     H43263   5.522   6.061   7.080  1.1988 -0.9943  0.0195
  314MOL0     H43264   5.321   5.937   7.097 -0.9405 -1.5935 -1.3141
  314MOL0     H43265   5.031   5.767   6.936 -0.5558  3.8084 -1.0116
  314MOL0     H43266   5.216   5.766   6.969 -1.2132 -0.6157  2.6645
  314MOL0     H43267   5.118   5.825   6.691 -0.2134 -1.9091 -2.7044
  314MOL0     H43268   5.265   5.765   6.761 -0.9769  2.1271  4.4685
  314MOL0     H43269   5.155   5.554   6.822 -2.2789 -0.9503  1.2970
  314MOL0     H43270   5.001   5.609   6.783  0.0349 -2.2313 -2.8230
  314MOL0     H43271   5.226   5.546   6.578  0.3932  1.9554 -1.9820
  314MOL0     H43272   5.062   5.469   6.596  0.8961 -0.1687 -1.1821
  314MOL0     H43273   4.991   5.733   6.548 -0.9701 -0.9764 -0.2618
  314MOL0     H43274   5.007   5.617   6.427 -0.3182  1.7076 -0.1983
  314MOL0     H43275   5.231   5.818   6.493  0.8402  0.3966 -2.3098
  314MOL0     H43276   5.248   5.703   6.368  0.0681  2.7741 -3.2305
  314MOL0     H43277   5.037   5.792   6.261 -0.8664  1.7879 -0.9904
  314MOL0     H43278   5.176   5.894   6.263 -2.7972  0.9645 -1.3826
  314MOL0     H43279   4.910   5.919   6.405 -0.0283 -0.5662 -4.4080
  314MOL0     H43280   5.051   5.984   6.502 -1.0191 -0.1231  0.4801
  314MOL0     H43281   4.822   6.090   6.255  0.4536 -0.9157  0.5068
  314MOL0     H43282   4.809   6.426   6.316  1.7556 -1.5999  0.9857
  314MOL0     H43283   4.746   6.337   6.185  0.4323 -1.8005 -1.1986
  314MOL0     H43284   5.000   6.518   6.191 -1.2406  1.5540  0.4032
  314MOL0     H43285   4.941   6.453   6.041 -0.4513  2.4892 -1.3435
  314MOL0     H43286   4.795   6.642   6.214  2.5631 -2.4913  2.0030
  314MOL0     H43287   4.872   6.693   6.076 -3.7917  1.3322 -0.6963
  314MOL0     H43288   4.742   6.527   5.926  3.3300 -0.5100  1.0912
  314MOL0     H43289   4.643   6.479   6.065  0.2075 -0.1170 -0.7865
  314MOL0     H43290   4.480   6.855   5.978  1.5763 -0.1744  0.0327
  314MOL0     H43291   4.312   7.019   5.704  1.0465  0.5435 -0.3403
  314MOL0     H43292   4.349   7.009   5.884  2.5378 -2.4720  1.4694
  314MOL0     H43293   4.202   6.944   5.809  0.7329  2.1974  0.5944
  314MOL0     H43294   4.349   6.811   5.243  0.3975  1.0241 -0.7635
  314MOL0     H43295   4.205   6.901   5.049 -1.6757  1.4424 -1.6138
  314MOL0     H43296   4.173   7.076   4.952  0.0032 -1.8213 -1.8103
  314MOL0     H43297   4.011   7.005   4.906  1.0922 -0.6144 -0.2248
  314MOL0     H43298   3.932   7.247   4.931  0.1479 -1.1908  1.3767
  314MOL0     H43299   4.110   7.274   4.904 -0.5659  0.7917 -2.2061
  314MOL0     H43300   3.898   7.176   4.699  0.1977 -1.2784  1.1061
  314MOL0     H43301   4.053   7.110   4.682  1.5443  1.5583 -1.8655
  314MOL0     H43302   4.151   7.343   4.692 -0.0141 -0.4835  1.3474
  314MOL0     H43303   3.988   7.401   4.707  2.5229  1.2261  4.0248
  314MOL0     H43304   4.067   7.415   4.468  0.4036  0.1266 -1.6489
  314MOL0     H43305   4.115   7.246   4.482 -1.1122 -2.8247  3.9781
  314MOL0     H43306   3.825   7.331   4.471  0.2189 -0.4551 -0.9225
  314MOL0     H43307   3.891   7.166   4.463 -2.0890 -0.4955 -3.1568
  314MOL0     H43308   3.855   7.206   4.253 -1.3906  0.3309  0.3798
  314MOL0     H43309   4.024   7.257   4.255  0.6993  1.4299  0.7452
  314MOL0     H43310   3.887   7.495   4.330 -1.0758 -1.5894  1.7645
  314MOL0     H43311   3.813   7.412   4.189  2.1055 -2.9579 -4.7661
  314MOL0     H43312   4.011   7.154   5.333 -1.6699 -0.9427 -0.9605
  314MOL0     H43313   4.148   7.077   5.516  1.2286 -4.3095  2.4739
  314MOL0     H43314   4.471   6.578   5.569  0.1945  0.7865 -0.0425
  314MOL0     H43315   4.581   6.497   5.770  3.5287  1.8714  0.1760
  314MOL0     H43316   5.175   6.119   6.739  0.2789 -0.7756  0.1545
  314MOL0     H43317   5.401   6.236   6.707 -3.7118  0.3657  0.5038
  314MOL0     H43318   5.762   6.365   6.959 -0.6499 -0.1998 -1.3452
  314MOL0     H43319   5.968   6.417   7.067  1.2445  0.3210 -0.9102
  314MOL0     H43320   6.386   6.228   7.103  0.8878 -0.4714  0.8150
  314MOL0     H43321   6.283   6.088   7.056 -3.7230  0.7014 -1.6522
  314MOL0     H43322   6.379   6.312   6.880  3.5631 -1.5307 -0.0736
  314MOL0     H43323   6.261   6.172   6.826  1.8159 -2.9030 -2.1329
  314MOL0     H43324   6.535   6.122   6.904 -1.0101 -0.7213  0.2176
  314MOL0     H43325   6.401   6.022   6.830 -1.1670 -0.5011  2.3681
  314MOL0     H43326   6.542   6.267   6.707 -2.6345  0.6752  0.3193
  314MOL0     H43327   6.442   6.155   6.614  3.1184 -0.2322 -1.2244
  314MOL0     H43328   6.815   5.957   6.634 -1.7552 -1.9403 -1.9862
  314MOL0     H43329   6.116   6.028   6.958 -1.0487  0.7816  3.3158
  314MOL0     H43330   5.825   5.884   6.887 -0.3393  0.6479  0.4196
  314MOL0     H43331   5.875   5.948   6.722 -1.7126  0.1840  0.3627
  314MOL0     H43332   5.992   5.895   6.833  0.0925  2.0824  2.9301
  315MOL0     O43333   0.468   4.885   8.994 -0.3948 -0.1515  0.3141
  315MOL0     C43334   0.452   4.872   9.118  0.3716  1.2687  0.5155
  315MOL0     O43335   0.403   4.763   9.177  0.8513 -0.6299 -0.0644
  315MOL0     C43336   0.392   4.631   9.123 -0.9573  0.0367  0.0618
  315MOL0     C43337   0.496   4.580   9.048 -0.2853  0.2006  0.5566
  315MOL0     C43338   0.490   4.454   8.995  0.7054  0.1811  0.6762
  315MOL0     C43339   0.396   4.362   9.039 -0.3786  0.2540 -0.1251
  315MOL0     O43340   0.381   4.231   8.989 -0.3273  0.4276 -0.1047
  315MOL0     C43341   0.403   4.220   8.850  0.5891 -0.1305  0.1752
  315MOL0     C43342   0.310   4.107   8.795 -0.1769 -0.5605  0.3174
  315MOL0     C43343   0.345   4.066   8.653 -0.1931 -1.0851 -0.1754
  315MOL0     C43344   0.288   3.935   8.600 -0.8159 -0.5987 -0.1252
  315MOL0     C43345   0.284   3.933   8.441 -0.0726  0.8779 -0.3607
  315MOL0     C43346   0.428   3.903   8.386 -0.4484  0.1314 -0.0733
  315MOL0     C43347   0.424   3.872   8.235 -0.0306  0.3330  0.3822
  315MOL0     C43348   0.554   3.820   8.181  0.5026 -0.4721 -0.2851
  315MOL0     N43349   0.620   3.918   8.091  0.3952  0.5107 -0.2172
  315MOL0     C43350   0.573   3.968   7.976 -0.0630 -0.4160 -0.2542
  315MOL0     C43351   0.670   4.051   7.925 -0.1320 -0.1317 -0.4186
  315MOL0     C43352   0.658   4.127   7.791 -0.7640  0.8482  0.1726
  315MOL0     C43353   0.801   4.148   7.738  0.5044  0.2119 -0.1399
  315MOL0     C43354   0.863   4.020   7.680 -0.1933 -0.8836  0.2644
  315MOL0     C43355   0.966   3.948   7.762 -0.3334 -1.1593  0.6254
  315MOL0     O43356   1.064   3.911   7.653  0.4734 -0.5785  0.3523
  315MOL0     C43357   1.191   3.878   7.691 -0.4768 -0.1134  0.9963
  315MOL0     C43358   1.248   3.879   7.814  0.1187  0.3753  0.0866
  315MOL0     C43359   1.392   3.895   7.830  0.3387 -0.7107  1.3972
  315MOL0     C43360   1.445   3.945   7.952 -0.3410 -1.0797  0.0662
  315MOL0     C43361   1.471   3.865   7.719 -0.4335 -1.1752  0.2708
  315MOL0     C43362   1.615   3.878   7.723  0.3393  0.9118 -0.9890
  315MOL0     O43363   1.681   3.825   7.833 -0.1179 -0.2994  0.6091
  315MOL0     C43364   1.818   3.847   7.840  0.4078 -0.1791  0.9274
  315MOL0     C43365   1.910   3.738   7.867  0.2808 -0.5017  0.9962
  315MOL0     C43366   2.052   3.759   7.860 -0.0462  0.0157 -0.1892
  315MOL0     C43367   2.100   3.885   7.839  0.2233 -0.0245 -0.0812
  315MOL0     O43368   2.229   3.915   7.829 -0.4670  0.2631 -0.0220
  315MOL0     C43369   2.286   4.037   7.881 -0.0582 -0.3981 -0.9082
  315MOL0     C43370   2.441   4.018   7.887  0.2828  0.3221  0.0316
  315MOL0     C43371   2.497   4.152   7.930  0.1477  0.2353 -0.4406
  315MOL0     C43372   2.645   4.146   7.919 -0.2060 -1.0354 -0.2632
  315MOL0     C43373   2.714   4.279   7.942  1.3264 -0.3261 -0.4750
  315MOL0     C43374   2.860   4.283   7.982  0.1193 -0.3092 -0.6198
  315MOL0     C43375   2.888   4.200   8.114 -0.3979 -0.7243  0.4348
  315MOL0     C43376   3.029   4.239   8.159 -0.8011 -0.5043  0.7918
  315MOL0    Cl43377   3.037   4.415   8.215 -0.1931 -0.0096  0.0756
  315MOL0     C43378   2.006   3.999   7.836 -0.5609  0.6937 -0.9503
  315MOL0     C43379   1.867   3.976   7.841 -0.0891 -0.6736 -0.8157
  315MOL0     O43380   1.670   3.928   7.626 -0.7037 -0.1849  0.3313
  315MOL0     C43381   1.411   3.849   7.586 -0.6321  0.3674 -0.0646
  315MOL0     C43382   1.270   3.858   7.572  0.6596  0.9157  0.3373
  315MOL0     N43383   0.764   4.063   8.024 -1.1127  0.1237 -1.1287
  315MOL0     N43384   0.726   3.985   8.126  0.3257 -0.7876 -0.0617
  315MOL0     C43385   0.302   4.410   9.131  0.9926 -0.4930 -0.2098
  315MOL0     C43386   0.300   4.545   9.165  1.5361  0.6788  0.7369
  315MOL0     C43387   0.464   4.988   9.202  1.3736  0.6222 -0.2008
  315MOL0     C43388   0.447   4.967   9.338 -0.5070 -0.0307  0.3897
  315MOL0     C43389   0.486   5.050   9.438 -0.3118 -0.0228 -0.2341
  315MOL0     C43390   0.531   5.173   9.397 -1.2387  0.3027 -1.3771
  315MOL0     O43391   0.548   5.277   9.488  0.7332 -0.8785 -0.5315
  315MOL0     C43392   0.679   5.287   9.542 -0.1034  0.1903 -0.0979
  315MOL0     C43393   0.659   5.292   9.695  0.4682 -0.0023 -1.5168
  315MOL0     C43394   0.787   5.302   9.769 -0.5715  0.1787 -0.6223
  315MOL0     C43395   0.852   5.168   9.775  0.4885 -0.0394 -0.9167
  315MOL0     C43396   0.980   5.168   9.849 -1.0350  0.8514 -0.4667
  315MOL0     C43397   1.074   5.149   9.923 -0.7749 -0.4055 -0.1082
  315MOL0     C43398   0.535   5.210   9.261 -0.0276  0.0898  0.4467
  315MOL0     C43399   0.502   5.118   9.160  0.2427  0.3511  0.4455
  315MOL0     C43400   0.513   5.166   9.029 -0.5444  0.1102 -0.0737
  315MOL0     H43401   0.582   4.640   9.019 -0.7096  0.9206  0.7558
  315MOL0     H43402   0.573   4.425   8.931 -0.4508 -0.8011 -0.4522
  315MOL0     H43403   0.512   4.213   8.839  0.7381  2.0071 -0.1473
  315MOL0     H43404   0.380   4.316   8.803 -0.8669 -1.1054 -1.2261
  315MOL0     H43405   0.331   4.023   8.862  0.7940 -1.1513 -0.6976
  315MOL0     H43406   0.207   4.143   8.799  0.3180  1.2050 -1.5451
  315MOL0     H43407   0.327   4.152   8.588 -1.4077  0.0628  1.5809
  315MOL0     H43408   0.454   4.055   8.647 -0.3224 -1.5613 -2.2861
  315MOL0     H43409   0.343   3.851   8.642 -1.9492 -1.8801 -1.0902
  315MOL0     H43410   0.186   3.927   8.640 -0.5116 -1.5565  0.4862
  315MOL0     H43411   0.235   4.021   8.399 -0.9334  0.1262 -0.9686
  315MOL0     H43412   0.224   3.847   8.410 -1.1151  1.3283  0.3456
  315MOL0     H43413   0.506   3.979   8.396 -2.2143  1.9271  0.6316
  315MOL0     H43414   0.449   3.815   8.448 -0.8720  0.8853  1.1824
  315MOL0     H43415   0.384   3.965   8.192 -2.2479  0.0499  1.6657
  315MOL0     H43416   0.354   3.789   8.223  2.1568 -1.4627 -0.6969
  315MOL0     H43417   0.607   3.776   8.266 -1.1375 -2.5885 -0.2755
  315MOL0     H43418   0.533   3.729   8.124 -0.6268 -1.0319  0.9729
  315MOL0     H43419   0.471   3.957   7.940 -0.9080 -1.0576  2.1388
  315MOL0     H43420   0.612   4.221   7.820 -0.2816  0.3778  2.7322
  315MOL0     H43421   0.597   4.076   7.715  1.4057 -1.4283 -0.1831
  315MOL0     H43422   0.786   4.221   7.658  0.4784  0.4865  0.1122
  315MOL0     H43423   0.857   4.196   7.819 -2.9735  1.2035  1.8888
  315MOL0     H43424   0.785   3.946   7.657 -0.7845  0.5471 -2.7944
  315MOL0     H43425   0.908   4.064   7.590 -1.3340 -2.0204 -0.9034
  315MOL0     H43426   0.993   4.029   7.829  2.3818 -2.7293  1.5834
  315MOL0     H43427   0.923   3.866   7.821 -1.1476  0.5134  2.4447
  315MOL0     H43428   1.184   3.895   7.900 -2.0233 -4.1264 -0.4283
  315MOL0     H43429   1.367   3.994   8.011  0.7293  2.4171 -1.1288
  315MOL0     H43430   1.527   4.017   7.941  0.6602 -2.3316 -0.9727
  315MOL0     H43431   1.493   3.867   8.011  0.7706 -3.4350 -3.6308
  315MOL0     H43432   1.869   3.638   7.870 -4.5720  1.0276 -2.1114
  315MOL0     H43433   2.109   3.667   7.860 -0.4272 -0.3393  2.9902
  315MOL0     H43434   2.251   4.119   7.817 -2.4835 -0.5264  0.1365
  315MOL0     H43435   2.257   4.057   7.984 -0.8095  0.6044 -1.2913
  315MOL0     H43436   2.461   3.941   7.962 -2.0375 -0.8732 -0.4583
  315MOL0     H43437   2.481   3.986   7.790 -0.7987 -1.8733  0.2325
  315MOL0     H43438   2.475   4.163   8.037  2.3278 -1.2539  0.2266
  315MOL0     H43439   2.462   4.238   7.872  0.1630  0.6461  0.1524
  315MOL0     H43440   2.685   4.102   7.827  2.5377  1.1648 -0.2506
  315MOL0     H43441   2.685   4.076   7.993  4.8323 -0.2396 -1.7969
  315MOL0     H43442   2.700   4.341   7.853  2.0882 -0.9048 -1.0040
  315MOL0     H43443   2.653   4.337   8.013 -0.4392 -0.8096 -1.5221
  315MOL0     H43444   2.865   4.391   7.998  1.0573 -0.8836  5.5814
  315MOL0     H43445   2.925   4.245   7.903  0.9037  0.1481 -0.2078
  315MOL0     H43446   2.888   4.092   8.096 -2.5030 -0.7872  0.5235
  315MOL0     H43447   2.820   4.226   8.195  0.3559  0.6625  0.6593
  315MOL0     H43448   3.101   4.233   8.077 -1.8494 -0.4660 -0.1473
  315MOL0     H43449   3.037   4.157   8.231 -4.5640 -2.3209 -0.5880
  315MOL0     H43450   2.049   4.099   7.825 -0.9506  1.0508  0.5161
  315MOL0     H43451   1.797   4.059   7.846 -1.4522 -1.8486  1.7102
  315MOL0     H43452   1.470   3.821   7.499 -0.3824 -0.1770  0.2725
  315MOL0     H43453   1.222   3.841   7.477 -0.9293  2.5890  0.7875
  315MOL0     H43454   0.217   4.364   9.179 -2.1678  1.8244 -3.1359
  315MOL0     H43455   0.223   4.582   9.233  1.0399 -0.7108  0.9764
  315MOL0     H43456   0.428   4.863   9.361  2.9561 -0.7242  0.7133
  315MOL0     H43457   0.469   5.026   9.542  1.8465  0.7442  0.3502
  315MOL0     H43458   0.751   5.211   9.510 -0.9768 -1.4478  1.5970
  315MOL0     H43459   0.731   5.376   9.506 -0.1469  0.1426 -0.2805
  315MOL0     H43460   0.590   5.218   9.737 -1.7158  3.7183  2.2700
  315MOL0     H43461   0.621   5.390   9.724  3.9447  0.4603  2.4544
  315MOL0     H43462   0.852   5.378   9.725 -1.2364 -0.9095 -3.7454
  315MOL0     H43463   0.754   5.329   9.869  0.7299 -2.1449  0.5089
  315MOL0     H43464   0.884   5.134   9.676 -1.5475 -2.6868 -0.7805
  315MOL0     H43465   0.793   5.091   9.825 -0.0705 -0.2024 -1.8039
  315MOL0     H43466   1.139   5.129  10.005 -0.0651  2.7741  0.2371
  315MOL0     H43467   0.542   5.315   9.233  1.4266 -0.3070 -0.7184
  315MOL0     H43468   0.599   5.124   8.976 -0.7955  1.6924 -1.8348
  315MOL0     H43469   0.414   5.130   8.997 -1.2057  0.2684  1.6897
  315MOL0     H43470   0.528   5.273   9.020  3.0486 -0.2623  0.2007
  316MOL0     O43471   3.105   7.424  10.169 -0.2606  0.9986  0.4241
  316MOL0     C43472   3.075   7.507  10.073  0.2725  0.0437 -0.2001
  316MOL0     O43473   2.948   7.526  10.024 -0.2687 -0.1401 -0.1040
  316MOL0     C43474   2.850   7.427  10.050 -0.7101  0.3768  0.1160
  316MOL0     C43475   2.736   7.462  10.108 -0.5192  0.3849  0.9311
  316MOL0     C43476   2.639   7.370  10.149  0.5579 -0.5017  0.0574
  316MOL0     C43477   2.655   7.233  10.137  0.6332  0.7486  0.0663
  316MOL0     O43478   2.558   7.151  10.198  0.7405  0.0004 -0.0190
  316MOL0     C43479   2.554   7.002  10.204 -0.2847 -0.3817  1.0682
  316MOL0     C43480   2.442   6.948  10.288  0.4534  0.6549 -0.2304
  316MOL0     C43481   2.479   6.936  10.436 -0.2672  0.8988 -0.4449
  316MOL0     C43482   2.429   6.799  10.504  0.1395 -0.3764 -0.4097
  316MOL0     C43483   2.332   6.835  10.626 -0.3757  0.5869  0.4815
  316MOL0     C43484   2.271   6.709  10.696 -0.1222  0.6206  0.1053
  316MOL0     C43485   2.149   6.726  10.788 -0.3936 -0.6015 -0.0411
  316MOL0     C43486   2.033   6.764  10.700  0.1015  0.8530 -0.0322
  316MOL0     N43487   1.921   6.745  10.788  1.2146  0.4085 -0.2678
  316MOL0     C43488   1.895   6.838  10.893 -0.2367  0.9274 -0.0445
  316MOL0     C43489   1.793   6.777  10.962 -0.3736 -0.1735  0.1983
  316MOL0     C43490   1.727   6.851  11.082  0.3179  0.6616 -1.0373
  316MOL0     C43491   1.581   6.876  11.059 -0.1736  0.0849 -0.1773
  316MOL0     C43492   1.572   6.999  10.976 -0.6332  0.0230 -0.2641
  316MOL0     C43493   1.432   7.049  10.958 -0.3056 -0.3698  0.6599
  316MOL0     O43494   1.375   7.057  10.825  0.2936 -0.2837  1.0337
  316MOL0     C43495   1.253   7.124  10.816 -0.3096 -0.2759 -0.1231
  316MOL0     C43496   1.173   7.169  10.923 -0.1567  0.5378  0.3735
  316MOL0     C43497   1.047   7.225  10.896  0.3489 -0.6098 -2.2488
  316MOL0     C43498   0.957   7.259  11.019 -0.5446 -0.2542  0.1696
  316MOL0     C43499   1.002   7.242  10.762  0.3833  0.1247 -1.0722
  316MOL0     C43500   0.872   7.294  10.728 -0.1969 -1.2601 -0.2421
  316MOL0     O43501   0.784   7.211  10.664 -0.1157 -0.3194  0.4004
  316MOL0     C43502   0.678   7.255  10.584 -0.2724 -0.1461 -0.1526
  316MOL0     C43503   0.575   7.164  10.551  0.0943 -0.6316 -0.6935
  316MOL0     C43504   0.470   7.200  10.462 -0.2789  0.0683 -0.2011
  316MOL0     C43505   0.482   7.319  10.391 -0.3420 -0.1401  0.2525
  316MOL0     O43506   0.389   7.367  10.300  0.1842 -1.0436  0.0478
  316MOL0     C43507   0.258   7.313  10.295  0.6016 -0.3769  0.3363
  316MOL0     C43508   0.170   7.346  10.411  0.5828 -0.0632  0.8546
  316MOL0     C43509   0.030   7.308  10.367  0.5944  0.6338 -0.1321
  316MOL0     C43510  -0.060   7.305  10.495  0.0124  0.2679 -0.7212
  316MOL0     C43511  -0.191   7.228  10.470  0.2820 -0.1937  0.7472
  316MOL0     C43512  -0.266   7.197  10.599  0.0102 -0.0116 -0.3850
  316MOL0     C43513  -0.406   7.145  10.579 -0.1929 -0.2774  0.1660
  316MOL0     C43514  -0.479   7.089  10.705  0.3209  0.7298 -0.2197
  316MOL0    Cl43515  -0.399   6.950  10.771 -0.0150  0.1727  0.1157
  316MOL0     C43516   0.595   7.401  10.410  0.4025 -0.8240 -0.0454
  316MOL0     C43517   0.679   7.375  10.507 -0.7367  0.0964 -0.4632
  316MOL0     O43518   0.846   7.406  10.771 -0.2718  0.1845 -0.7879
  316MOL0     C43519   1.086   7.204  10.660  0.6333  0.3460 -0.7653
  316MOL0     C43520   1.212   7.155  10.687 -0.0262  1.2734  0.0703
  316MOL0     N43521   1.762   6.654  10.910 -0.4908  0.2193  0.1135
  316MOL0     N43522   1.855   6.636  10.820  0.4192 -0.1699 -0.6507
  316MOL0     C43523   2.769   7.197  10.065  0.2996  0.3456 -0.4013
  316MOL0     C43524   2.866   7.291  10.020  0.0376 -0.1401 -0.1705
  316MOL0     C43525   3.182   7.588  10.023 -0.5264 -0.6538 -0.5323
  316MOL0     C43526   3.279   7.618  10.110  0.1091  0.1470  0.6586
  316MOL0     C43527   3.384   7.707  10.080  0.4612  0.4585  0.0285
  316MOL0     C43528   3.391   7.772   9.960 -0.5961 -0.0201 -0.3497
  316MOL0     O43529   3.473   7.883   9.939  0.9110  0.2437 -0.2620
  316MOL0     C43530   3.576   7.920  10.037 -0.5374 -0.0689 -0.2619
  316MOL0     C43531   3.505   8.009  10.141  0.1966 -0.1980  0.3663
  316MOL0     C43532   3.500   8.145  10.080 -0.6238 -1.0494  0.2892
  316MOL0     C43533   3.431   8.246  10.167  0.1483 -0.5842 -0.7284
  316MOL0     C43534   3.291   8.252  10.132  0.4906  1.3903  0.1834
  316MOL0     C43535   3.170   8.243  10.103 -0.3221 -0.5635 -1.0649
  316MOL0     C43536   3.290   7.741   9.867  0.0255 -0.6109  0.9189
  316MOL0     C43537   3.190   7.638   9.897 -0.5281 -0.4992 -0.1549
  316MOL0     C43538   3.095   7.600   9.785  0.3923  1.1696 -0.7597
  316MOL0     H43539   2.724   7.570  10.102  0.2549  0.4233 -0.3026
  316MOL0     H43540   2.545   7.395  10.197  0.8827 -0.3980  0.6512
  316MOL0     H43541   2.653   6.957  10.217  0.3876  0.1337 -1.7114
  316MOL0     H43542   2.528   6.956  10.108  2.1829 -1.1421  0.7031
  316MOL0     H43543   2.362   7.018  10.262 -1.1199 -0.5107  1.3058
  316MOL0     H43544   2.404   6.854  10.247  0.3885  0.7136 -0.3038
  316MOL0     H43545   2.585   6.946  10.459 -0.3233 -1.9149  1.7126
  316MOL0     H43546   2.433   7.015  10.496  1.4943  0.7475  1.1986
  316MOL0     H43547   2.377   6.741  10.426  0.5284  1.2196 -1.9213
  316MOL0     H43548   2.511   6.744  10.551  1.8495 -1.0484 -3.8270
  316MOL0     H43549   2.268   6.917  10.592 -0.6952 -0.2428 -0.9987
  316MOL0     H43550   2.393   6.878  10.707  1.3868 -1.0138  0.0848
  316MOL0     H43551   2.240   6.641  10.616 -2.7749  0.4501  1.1944
  316MOL0     H43552   2.348   6.660  10.757  1.2294  1.1398 -1.1062
  316MOL0     H43553   2.174   6.798  10.866  1.9501 -1.6139  0.2471
  316MOL0     H43554   2.126   6.632  10.839 -0.5152 -0.7066 -0.2883
  316MOL0     H43555   2.034   6.871  10.679 -0.1004  0.8400 -0.1060
  316MOL0     H43556   2.031   6.700  10.611 -2.4747 -2.1413  1.9409
  316MOL0     H43557   1.939   6.933  10.921  2.5352 -0.6356  1.3407
  316MOL0     H43558   1.786   6.940  11.108  2.7807 -1.1174 -0.1494
  316MOL0     H43559   1.736   6.782  11.166 -0.7721 -2.5517 -3.3719
  316MOL0     H43560   1.524   6.793  11.018 -1.5665  1.4632 -1.1522
  316MOL0     H43561   1.542   6.897  11.159  2.4406  0.9546  0.7619
  316MOL0     H43562   1.628   7.081  11.023 -0.9758 -0.1157  0.3969
  316MOL0     H43563   1.624   6.970  10.884  1.0699  2.8811 -0.3515
  316MOL0     H43564   1.377   6.980  11.023  1.7940 -1.6632  1.1357
  316MOL0     H43565   1.444   7.149  11.002 -0.3411 -0.1323  0.1393
  316MOL0     H43566   1.217   7.145  11.020  0.5893 -0.4353 -0.1792
  316MOL0     H43567   1.021   7.260  11.107 -0.4517  0.1170  0.0975
  316MOL0     H43568   0.887   7.175  11.011 -3.3845  2.1466 -3.0142
  316MOL0     H43569   0.899   7.350  11.001  1.3442  0.4299 -3.1996
  316MOL0     H43570   0.583   7.071  10.608  0.2890 -1.0339 -1.3605
  316MOL0     H43571   0.382   7.138  10.446 -1.7834  2.3407 -1.3024
  316MOL0     H43572   0.211   7.367  10.212 -1.1128  0.0714  1.5436
  316MOL0     H43573   0.242   7.205  10.293  0.5421 -0.3640  0.0878
  316MOL0     H43574   0.215   7.283  10.488  0.4011  1.6382  2.4293
  316MOL0     H43575   0.176   7.451  10.443  1.7357 -0.4185  1.9210
  316MOL0     H43576   0.025   7.208  10.324  0.1721  0.3997  0.4499
  316MOL0     H43577  -0.017   7.384  10.303 -1.4160  0.3432  0.9232
  316MOL0     H43578  -0.091   7.404  10.532 -0.4313 -0.0586 -0.1968
  316MOL0     H43579  -0.008   7.260  10.580 -2.6063 -1.8280 -0.0954
  316MOL0     H43580  -0.251   7.293  10.406  2.5013  1.7105  0.4804
  316MOL0     H43581  -0.169   7.145  10.401  1.2015  1.4428 -1.0420
  316MOL0     H43582  -0.278   7.290  10.655 -2.5836 -0.6140  0.1586
  316MOL0     H43583  -0.209   7.117  10.648  2.2393  1.4154 -0.4955
  316MOL0     H43584  -0.403   7.060  10.511  2.2401  0.3985 -0.6731
  316MOL0     H43585  -0.470   7.217  10.527 -2.5312 -1.9094  0.6205
  316MOL0     H43586  -0.569   7.047  10.660  0.2680  3.3160 -2.8438
  316MOL0     H43587  -0.492   7.163  10.784  0.2581 -0.7774  1.2136
  316MOL0     H43588   0.604   7.487  10.345 -0.3515 -1.2671 -0.7640
  316MOL0     H43589   0.764   7.442  10.520 -0.5337 -0.3344  0.5652
  316MOL0     H43590   1.064   7.233  10.558 -0.2939 -1.2354 -1.0448
  316MOL0     H43591   1.290   7.130  10.617 -1.5345  1.7942 -1.8783
  316MOL0     H43592   2.794   7.092  10.055  0.1498  0.4502 -2.1901
  316MOL0     H43593   2.957   7.259   9.970  1.5124  4.3854 -0.8656
  316MOL0     H43594   3.274   7.571  10.208  0.1435 -0.6399  0.2893
  316MOL0     H43595   3.472   7.726  10.141  2.3279  0.8696 -2.6018
  316MOL0     H43596   3.623   7.833  10.084  1.5090  0.7972 -0.5827
  316MOL0     H43597   3.668   7.963   9.995  0.0513 -2.4463 -1.6081
  316MOL0     H43598   3.572   8.015  10.227  0.2462 -0.0685  0.3183
  316MOL0     H43599   3.407   7.962  10.158  0.7794 -1.0400  1.5273
  316MOL0     H43600   3.599   8.190  10.064 -1.1811  0.0735 -0.0767
  316MOL0     H43601   3.440   8.145   9.989 -3.7464 -0.6910  2.1970
  316MOL0     H43602   3.474   8.343  10.142 -1.1397 -0.2877 -1.9189
  316MOL0     H43603   3.444   8.219  10.272  3.7983  1.6003 -0.4740
  316MOL0     H43604   3.069   8.219  10.078 -1.9490  1.0295  3.1672
  316MOL0     H43605   3.287   7.799   9.776  1.1508 -2.9704 -0.7311
  316MOL0     H43606   3.050   7.501   9.799 -0.1641  0.9583 -3.4542
  316MOL0     H43607   3.022   7.679   9.769  1.1763  2.5170  1.7934
  316MOL0     H43608   3.161   7.589   9.698  1.0081 -0.1266 -0.1724
  317MOL0     O43609   7.990   8.467  10.048  0.2202  0.4724  0.1496
  317MOL0     C43610   7.883   8.427  10.086 -0.8364  0.2639 -1.0155
  317MOL0     O43611   7.829   8.472  10.204  0.0423 -0.5391  0.4712
  317MOL0     C43612   7.899   8.539  10.301  0.0082 -0.5359  0.8275
  317MOL0     C43613   7.833   8.625  10.390  0.5945  0.4957 -0.3655
  317MOL0     C43614   7.908   8.705  10.474  0.2990 -0.4429  0.4495
  317MOL0     C43615   8.047   8.705  10.475  0.2777 -0.2860  1.6568
  317MOL0     O43616   8.105   8.804  10.552  0.3903 -0.3308 -0.3717
  317MOL0     C43617   8.218   8.876  10.501  0.2785 -0.1543  0.0526
  317MOL0     C43618   8.177   9.035  10.498  0.2118 -0.0103 -0.1992
  317MOL0     C43619   8.055   9.071  10.404  0.2144  1.0758  0.1446
  317MOL0     C43620   8.079   9.032  10.255  0.3734 -0.2198 -1.0750
  317MOL0     C43621   7.985   9.129  10.175 -0.0532  1.0571 -0.2892
  317MOL0     C43622   8.044   9.264  10.146  0.5616  0.2603 -0.0723
  317MOL0     C43623   7.950   9.350  10.071 -0.4562  1.0649 -0.4384
  317MOL0     C43624   8.009   9.474  10.027 -0.5381  0.8747  1.2690
  317MOL0     N43625   8.111   9.463   9.926  0.5999  1.0585  0.3055
  317MOL0     C43626   8.143   9.364   9.833 -0.0419 -0.2463 -0.3043
  317MOL0     C43627   8.268   9.373   9.798  0.1545 -0.2030  0.7313
  317MOL0     C43628   8.338   9.277   9.703 -0.3123  0.2211 -0.3156
  317MOL0     C43629   8.454   9.203   9.768 -0.2062  1.0563  0.5069
  317MOL0     C43630   8.529   9.100   9.664 -1.1121  0.5559 -0.5414
  317MOL0     C43631   8.604   9.162   9.550  0.5739 -0.9281 -0.4147
  317MOL0     O43632   8.729   9.102   9.520  0.8701 -0.4020 -0.7250
  317MOL0     C43633   8.797   9.158   9.413  0.0826  0.1919 -0.6786
  317MOL0     C43634   8.934   9.130   9.414 -0.0746  0.6417 -0.6487
  317MOL0     C43635   9.015   9.174   9.318 -0.3231  0.8482  0.6965
  317MOL0     C43636   9.164   9.125   9.322 -0.4603 -0.5214  0.8318
  317MOL0     C43637   8.961   9.242   9.197  0.4104 -0.1604 -0.1415
  317MOL0     C43638   9.049   9.313   9.114 -0.6040 -0.1583  0.3040
  317MOL0     O43639   9.002   9.348   8.997  0.1988  0.2290 -0.3981
  317MOL0     C43640   9.069   9.444   8.915  0.1008  0.2236  0.2233
  317MOL0     C43641   9.169   9.543   8.949 -0.1470 -0.3908  0.2690
  317MOL0     C43642   9.212   9.638   8.856 -0.3785 -0.5182 -0.2199
  317MOL0     C43643   9.179   9.623   8.718  0.7839 -0.6402 -0.2020
  317MOL0     O43644   9.218   9.716   8.621  0.0568  0.0223  0.0981
  317MOL0     C43645   9.309   9.812   8.666 -0.8095 -0.3707 -0.7200
  317MOL0     C43646   9.358   9.898   8.549 -0.0561  0.0235 -0.9625
  317MOL0     C43647   9.426  10.029   8.583  1.0318 -0.0563 -0.6004
  317MOL0     C43648   9.330  10.152   8.601 -0.1237  0.2856 -0.1547
  317MOL0     C43649   9.386  10.275   8.533 -0.0772  0.2198 -0.0501
  317MOL0     C43650   9.330  10.399   8.590  0.2526 -0.5316 -0.8557
  317MOL0     C43651   9.430  10.520   8.567  0.2391 -0.0334 -0.8861
  317MOL0     C43652   9.363  10.653   8.623 -0.6127 -0.0632 -0.0084
  317MOL0    Cl43653   9.483  10.800   8.626  0.1254  0.9335  0.2579
  317MOL0     C43654   9.094   9.523   8.681  0.5751 -0.9726 -0.0438
  317MOL0     C43655   9.036   9.436   8.780 -1.7381  0.3600 -0.5537
  317MOL0     O43656   9.160   9.346   9.157 -0.4455 -0.8056 -0.5979
  317MOL0     C43657   8.823   9.259   9.195 -0.4085 -0.5898 -0.5041
  317MOL0     C43658   8.741   9.209   9.293  0.0473 -0.7258  0.3625
  317MOL0     N43659   8.326   9.486   9.862  0.2033  0.2024  0.4733
  317MOL0     N43660   8.231   9.528   9.942 -0.0187 -0.3995  0.1724
  317MOL0     C43661   8.116   8.616  10.393 -0.5631 -0.4938  0.3123
  317MOL0     C43662   8.044   8.525  10.316  0.1512  0.4101 -0.7748
  317MOL0     C43663   7.808   8.313  10.016 -0.1354  0.3797  0.2956
  317MOL0     C43664   7.789   8.320   9.885 -0.0356  0.4055  0.5338
  317MOL0     C43665   7.722   8.213   9.810 -0.9213  0.6916 -0.3077
  317MOL0     C43666   7.676   8.107   9.872  0.7394  0.4418 -0.2878
  317MOL0     O43667   7.626   7.996   9.805 -0.2766 -0.1719  0.3921
  317MOL0     C43668   7.739   7.910   9.777  0.1624  0.9078 -0.8397
  317MOL0     C43669   7.777   7.907   9.632  0.5033  0.2805 -0.8086
  317MOL0     C43670   7.893   7.814   9.610 -0.7416 -0.7282  0.0476
  317MOL0     C43671   8.021   7.894   9.601  1.0152 -0.1780  1.8398
  317MOL0     C43672   8.028   7.966   9.474 -0.7675 -0.7314 -0.3147
  317MOL0     C43673   8.033   8.006   9.355 -0.7576  0.8068  0.0994
  317MOL0     C43674   7.692   8.105  10.012 -0.2516  0.3193 -0.7469
  317MOL0     C43675   7.762   8.197  10.082  0.2777 -0.2693 -0.0425
  317MOL0     C43676   7.772   8.191  10.227 -0.0086  0.9612  0.2162
  317MOL0     H43677   7.726   8.614  10.405  1.1902 -2.3263  3.2770
  317MOL0     H43678   7.851   8.764  10.545  0.5451 -0.5395  0.7275
  317MOL0     H43679   8.245   8.836  10.402 -0.0274  1.0442 -0.5371
  317MOL0     H43680   8.289   8.869  10.584 -1.4163  1.7105  1.7566
  317MOL0     H43681   8.146   9.054  10.602  1.6068  0.0184  0.2298
  317MOL0     H43682   8.254   9.106  10.470  0.9554 -0.4122  0.7581
  317MOL0     H43683   7.974   9.013  10.448  2.1472 -2.8260 -0.9899
  317MOL0     H43684   8.027   9.176  10.416  0.3448  1.2490 -0.9528
  317MOL0     H43685   8.182   9.052  10.226  0.4374  3.2483  0.9480
  317MOL0     H43686   8.052   8.928  10.237  1.8667 -0.5245 -1.6708
  317MOL0     H43687   7.892   9.155  10.226  0.3852  0.0433  1.0721
  317MOL0     H43688   7.950   9.086  10.080  0.8052  1.2621 -0.7165
  317MOL0     H43689   8.077   9.304  10.243 -1.1935 -2.0226  1.5911
  317MOL0     H43690   8.130   9.239  10.083 -0.5931  0.6281 -1.8686
  317MOL0     H43691   7.867   9.368  10.141 -2.0269 -3.1114 -0.9207
  317MOL0     H43692   7.917   9.287   9.988 -1.2845  1.5877 -0.5184
  317MOL0     H43693   7.932   9.544   9.993 -1.1198  0.8576  2.4743
  317MOL0     H43694   8.046   9.524  10.118  1.3179  0.6907  0.6472
  317MOL0     H43695   8.075   9.285   9.802 -0.1149 -0.3653  0.1518
  317MOL0     H43696   8.378   9.340   9.623 -3.2356 -1.8460 -3.6403
  317MOL0     H43697   8.274   9.211   9.645  2.2431 -0.4748 -2.5764
  317MOL0     H43698   8.530   9.275   9.800  2.0427 -0.8873 -0.1312
  317MOL0     H43699   8.413   9.148   9.853 -1.7659 -0.4985 -1.1638
  317MOL0     H43700   8.592   9.033   9.724 -0.2240  0.3278 -1.6923
  317MOL0     H43701   8.458   9.025   9.629 -0.7466 -0.8748  1.5511
  317MOL0     H43702   8.527   9.167   9.472  1.0079 -5.0401 -1.3352
  317MOL0     H43703   8.644   9.260   9.578  2.9828 -2.2666  1.1743
  317MOL0     H43704   8.966   9.064   9.494 -0.3252 -1.4301 -2.1709
  317MOL0     H43705   9.215   9.176   9.404 -2.0323  0.4109  1.2723
  317MOL0     H43706   9.224   9.141   9.232 -0.7976 -2.1368  0.2796
  317MOL0     H43707   9.149   9.019   9.345 -4.3482  0.3810  3.5414
  317MOL0     H43708   9.218   9.556   9.045  1.4314 -0.5994 -0.4713
  317MOL0     H43709   9.277   9.719   8.888 -1.8575  0.3268  0.7285
  317MOL0     H43710   9.262   9.887   8.730 -0.3139 -1.6373  1.2449
  317MOL0     H43711   9.394   9.773   8.724 -0.8965  0.4176 -0.0499
  317MOL0     H43712   9.410   9.838   8.474  0.8706  2.4358 -2.3534
  317MOL0     H43713   9.264   9.918   8.496 -0.7357 -0.9294 -0.1696
  317MOL0     H43714   9.482  10.055   8.493  0.1422  2.3781 -0.5197
  317MOL0     H43715   9.495  10.018   8.668 -0.7066 -1.2194  0.7219
  317MOL0     H43716   9.311  10.183   8.704 -0.9570  0.7805 -0.4475
  317MOL0     H43717   9.236  10.138   8.548 -1.8536  0.6667  2.6107
  317MOL0     H43718   9.495  10.269   8.529  0.0197 -2.1210  2.8908
  317MOL0     H43719   9.361  10.268   8.427 -0.5436 -1.7452  0.1390
  317MOL0     H43720   9.311  10.405   8.697  1.0578  2.5605 -0.7957
  317MOL0     H43721   9.230  10.412   8.547  0.3066 -1.7718 -1.3965
  317MOL0     H43722   9.448  10.523   8.459 -1.9938 -0.3946 -1.3248
  317MOL0     H43723   9.524  10.492   8.615 -0.7448 -1.9271  0.0275
  317MOL0     H43724   9.329  10.629   8.724 -0.4927 -1.2284 -0.2274
  317MOL0     H43725   9.272  10.665   8.563  0.3239 -0.3983 -1.5827
  317MOL0     H43726   9.064   9.518   8.576  2.6251 -1.7397 -0.6309
  317MOL0     H43727   8.959   9.364   8.754 -2.0717 -0.6866  2.8107
  317MOL0     H43728   8.784   9.307   9.106  0.4560 -0.4906 -0.8316
  317MOL0     H43729   8.634   9.215   9.273  0.1710  0.1607 -0.0898
  317MOL0     H43730   8.220   8.588  10.385 -0.4560  0.1607 -0.8981
  317MOL0     H43731   8.092   8.457  10.246 -0.0945 -1.4392  0.7836
  317MOL0     H43732   7.837   8.408   9.843  0.6075  0.0850  0.5899
  317MOL0     H43733   7.712   8.212   9.702 -1.0529 -0.2771 -0.2963
  317MOL0     H43734   7.824   7.939   9.839 -0.6951  0.7531  0.4538
  317MOL0     H43735   7.740   7.807   9.815  1.0009  1.1085 -0.2913
  317MOL0     H43736   7.811   8.004   9.594  1.7573 -0.1885 -0.9345
  317MOL0     H43737   7.689   7.879   9.574 -1.7237  1.3993  1.8625
  317MOL0     H43738   7.914   7.753   9.699 -0.2032  0.1016  0.5016
  317MOL0     H43739   7.878   7.752   9.521  1.5754 -0.6675 -0.4551
  317MOL0     H43740   8.108   7.828   9.610  2.3019  1.6042  3.1548
  317MOL0     H43741   8.044   7.958   9.687  1.0547  0.7576  1.1562
  317MOL0     H43742   8.043   8.019   9.249  3.6072 -0.3969  0.1921
  317MOL0     H43743   7.646   8.019  10.060 -1.0256  0.5679 -1.0304
  317MOL0     H43744   7.717   8.275  10.270  1.2316  1.0212  1.7740
  317MOL0     H43745   7.726   8.095  10.255  0.2009  0.1773 -1.9268
  317MOL0     H43746   7.872   8.188  10.271  1.4219 -2.7849 -2.6998
  318MOL0     O43747   2.196   3.005   0.307  0.0015 -0.2389 -0.2511
  318MOL0     C43748   2.280   2.955   0.384  0.4744  0.5759 -0.9314
  318MOL0     O43749   2.252   2.889   0.497  0.4519  0.1150 -0.3316
  318MOL0     C43750   2.128   2.883   0.543  0.6507 -0.3567  1.2192
  318MOL0     C43751   2.090   2.946   0.660  0.5021  0.4947 -0.5137
  318MOL0     C43752   1.962   2.943   0.723  0.7074 -0.0436  0.8674
  318MOL0     C43753   1.861   2.881   0.653  0.4079 -0.3408  0.7468
  318MOL0     O43754   1.738   2.882   0.719  0.1871  0.0812  0.6684
  318MOL0     C43755   1.627   2.867   0.620 -0.6013 -0.0967 -0.1817
  318MOL0     C43756   1.600   2.995   0.540  0.6841  0.7660 -0.1618
  318MOL0     C43757   1.557   3.117   0.621 -0.3402  0.2406 -0.5767
  318MOL0     C43758   1.526   3.234   0.523  0.6704 -0.6958 -0.1771
  318MOL0     C43759   1.481   3.366   0.596  0.0926 -0.4598 -1.3028
  318MOL0     C43760   1.354   3.405   0.536  0.0768  0.3857 -0.3320
  318MOL0     C43761   1.285   3.516   0.626 -1.1377  0.8798  0.5491
  318MOL0     C43762   1.147   3.540   0.571  0.0671 -0.4915 -0.2479
  318MOL0     N43763   1.063   3.602   0.678 -0.0276 -0.9991  0.4050
  318MOL0     C43764   1.045   3.550   0.809  0.1092 -0.0494  0.9153
  318MOL0     C43765   0.981   3.649   0.874  0.7184 -0.9455 -0.5086
  318MOL0     C43766   0.958   3.655   1.017 -0.7893 -1.1669  0.2968
  318MOL0     C43767   0.870   3.776   1.050 -0.6682  0.5646 -0.0195
  318MOL0     C43768   0.847   3.780   1.204 -0.2672 -0.7292 -0.2118
  318MOL0     C43769   0.708   3.826   1.237 -0.6868  0.7532 -0.0652
  318MOL0     O43770   0.670   3.771   1.364  0.4799  0.7126  0.5812
  318MOL0     C43771   0.533   3.759   1.379  0.5216  0.7308 -0.0303
  318MOL0     C43772   0.484   3.637   1.421  0.5837 -0.0304  0.3723
  318MOL0     C43773   0.346   3.612   1.452 -0.3861 -0.5710 -0.4931
  318MOL0     C43774   0.318   3.486   1.527 -0.0368  0.2459 -0.3849
  318MOL0     C43775   0.253   3.718   1.434  0.0587 -0.2400  0.5073
  318MOL0     C43776   0.110   3.704   1.469 -0.5858  0.5660  0.3072
  318MOL0     O43777   0.034   3.813   1.448 -0.2687  0.3662  0.8722
  318MOL0     C43778  -0.095   3.799   1.504  0.4634 -0.2523 -0.4887
  318MOL0     C43779  -0.211   3.827   1.431 -1.3432  0.2720  0.0787
  318MOL0     C43780  -0.331   3.835   1.495  0.5032  1.1234 -0.2342
  318MOL0     C43781  -0.343   3.830   1.634  0.0486  0.3798  0.0125
  318MOL0     O43782  -0.459   3.858   1.696  0.3917 -0.1942 -0.0390
  318MOL0     C43783  -0.505   3.787   1.811 -0.3595  0.3610 -0.4019
  318MOL0     C43784  -0.631   3.852   1.856  0.0807  0.2178  0.1915
  318MOL0     C43785  -0.691   3.787   1.994 -0.2934  0.0530  0.1821
  318MOL0     C43786  -0.833   3.841   2.009  0.1258 -0.6092  0.4628
  318MOL0     C43787  -0.900   3.805   2.138 -0.2971 -0.3989  0.3947
  318MOL0     C43788  -0.912   3.657   2.160 -0.4402 -0.0114 -0.2926
  318MOL0     C43789  -1.005   3.611   2.272 -0.3606 -0.5412  0.1228
  318MOL0     C43790  -0.959   3.646   2.412 -0.8113 -0.3759 -0.2229
  318MOL0    Cl43791  -1.099   3.605   2.531 -0.2467  0.1308  0.1203
  318MOL0     C43792  -0.228   3.803   1.709 -0.7564 -0.5333  0.4367
  318MOL0     C43793  -0.102   3.794   1.650 -0.4102 -0.7789  1.0538
  318MOL0     O43794   0.062   3.594   1.495  0.3440 -0.2233  0.4288
  318MOL0     C43795   0.304   3.839   1.373 -1.3839 -0.0221  0.7793
  318MOL0     C43796   0.443   3.862   1.351  0.1722 -0.1003  0.4512
  318MOL0     N43797   0.995   3.765   0.800 -1.2794  0.4464 -0.5385
  318MOL0     N43798   1.041   3.736   0.682 -0.0992  0.0213 -0.0342
  318MOL0     C43799   1.899   2.827   0.529 -0.4480  0.5254 -0.1424
  318MOL0     C43800   2.024   2.826   0.469  0.1664 -1.1570 -0.3942
  318MOL0     C43801   2.424   2.963   0.357  0.4530 -0.0624  0.5555
  318MOL0     C43802   2.518   2.925   0.449  0.7052  0.8392  0.2842
  318MOL0     C43803   2.656   2.931   0.425  0.1404 -0.6962 -1.4464
  318MOL0     C43804   2.708   2.976   0.308  0.4902 -0.4541 -0.0170
  318MOL0     O43805   2.835   2.979   0.295  0.1851  0.6007  0.0256
  318MOL0     C43806   2.902   3.027   0.181 -0.1246  0.6383 -0.0299
  318MOL0     C43807   3.028   2.947   0.158 -0.2830  1.0254  0.3947
  318MOL0     C43808   3.006   2.799   0.123 -0.0574 -0.0173  0.8711
  318MOL0     C43809   2.912   2.768  -0.002  0.4641  0.0713 -0.0875
  318MOL0     C43810   2.950   2.842  -0.128 -0.4373  0.1059 -0.0536
  318MOL0     C43811   2.992   2.908  -0.217 -0.1275  0.0291 -0.3960
  318MOL0     C43812   2.615   3.024   0.208  0.2271  0.8948  0.1831
  318MOL0     C43813   2.477   3.013   0.229 -0.0213 -1.0164 -0.9436
  318MOL0     C43814   2.385   3.038   0.118  0.0956 -0.4550  0.5011
  318MOL0     H43815   2.168   2.984   0.725 -1.7109  0.4332  2.4091
  318MOL0     H43816   1.950   2.986   0.822 -0.1243  1.4225  0.1685
  318MOL0     H43817   1.530   2.840   0.665 -1.1519 -1.4565 -2.0775
  318MOL0     H43818   1.635   2.777   0.560 -1.1103 -0.4403  0.2536
  318MOL0     H43819   1.687   3.020   0.478  2.4442  2.4756  2.7693
  318MOL0     H43820   1.516   2.971   0.474  3.6812 -1.0080 -3.7174
  318MOL0     H43821   1.470   3.103   0.687  2.0089  0.6765  2.8974
  318MOL0     H43822   1.644   3.139   0.683 -2.3294 -0.1799  2.6166
  318MOL0     H43823   1.615   3.251   0.461  0.2440  0.5696 -0.4706
  318MOL0     H43824   1.448   3.185   0.464  2.4804 -1.6247 -1.9345
  318MOL0     H43825   1.555   3.445   0.577  2.0934 -1.7428  0.7178
  318MOL0     H43826   1.485   3.359   0.705 -2.3436 -2.4562 -1.2810
  318MOL0     H43827   1.344   3.418   0.428 -0.1295 -3.7470 -0.9867
  318MOL0     H43828   1.295   3.315   0.554  1.2986 -1.0977 -3.2381
  318MOL0     H43829   1.341   3.609   0.611  1.4556 -1.0899 -4.7688
  318MOL0     H43830   1.270   3.487   0.730 -1.4698  3.0015  1.1336
  318MOL0     H43831   1.146   3.587   0.472  0.2872  1.0501  0.4461
  318MOL0     H43832   1.096   3.448   0.543 -0.0726  0.0232 -1.7531
  318MOL0     H43833   1.074   3.450   0.837  2.5155 -0.5662 -2.7999
  318MOL0     H43834   1.054   3.658   1.068 -1.2221 -0.4037  1.0975
  318MOL0     H43835   0.909   3.563   1.051 -3.2536 -0.7346 -1.7776
  318MOL0     H43836   0.901   3.873   1.010  0.7877  0.1764  0.1133
  318MOL0     H43837   0.772   3.763   1.005 -0.7501  2.3406 -0.4377
  318MOL0     H43838   0.873   3.681   1.244 -0.4266 -1.6495 -2.2626
  318MOL0     H43839   0.924   3.844   1.248 -0.3440 -0.7094 -0.1059
  318MOL0     H43840   0.717   3.935   1.244 -0.6658  0.6678  1.5368
  318MOL0     H43841   0.635   3.794   1.163 -0.5754 -0.0352  0.1586
  318MOL0     H43842   0.543   3.553   1.456 -2.2513 -1.8871  0.9873
  318MOL0     H43843   0.260   3.499   1.619  0.2908 -3.0657  0.4325
  318MOL0     H43844   0.395   3.411   1.552 -2.2836 -2.3469 -0.7638
  318MOL0     H43845   0.248   3.440   1.457 -2.2624  3.1019 -0.2276
  318MOL0     H43846  -0.209   3.849   1.325 -1.7755  2.5518  0.4920
  318MOL0     H43847  -0.412   3.852   1.425  0.5956 -2.2118 -1.3114
  318MOL0     H43848  -0.528   3.684   1.784  1.6252 -0.5197  0.9421
  318MOL0     H43849  -0.432   3.793   1.893  0.6308 -0.4142 -1.2027
  318MOL0     H43850  -0.621   3.961   1.850  2.1187 -0.0044 -2.0007
  318MOL0     H43851  -0.697   3.840   1.769 -0.5332  0.0311  0.6789
  318MOL0     H43852  -0.631   3.804   2.083  0.3775 -0.1678 -0.2236
  318MOL0     H43853  -0.677   3.681   1.969 -1.6819  0.2315 -1.5931
  318MOL0     H43854  -0.881   3.810   1.917  2.8724 -1.1896 -0.8929
  318MOL0     H43855  -0.825   3.949   1.988 -0.2003 -0.5057  0.8505
  318MOL0     H43856  -0.847   3.863   2.214 -2.9566  0.3050  1.8443
  318MOL0     H43857  -1.007   3.829   2.136 -0.3890 -0.5430  2.2071
  318MOL0     H43858  -0.808   3.626   2.171 -0.4382 -0.0086 -0.2963
  318MOL0     H43859  -0.952   3.601   2.075  2.1903 -3.1082  0.3241
  318MOL0     H43860  -1.018   3.503   2.278 -0.6149 -0.4780  0.9183
  318MOL0     H43861  -1.102   3.660   2.260  1.3703  2.8446 -1.5060
  318MOL0     H43862  -0.938   3.754   2.406 -0.2260 -0.3790  1.2206
  318MOL0     H43863  -0.865   3.603   2.447  0.1843  0.9708 -1.1235
  318MOL0     H43864  -0.229   3.791   1.816  0.5297  0.9518  0.6424
  318MOL0     H43865  -0.013   3.778   1.709  0.9807  2.2261 -0.0369
  318MOL0     H43866   0.251   3.930   1.346  1.5954  2.5014  2.6541
  318MOL0     H43867   0.500   3.951   1.328  0.5792 -0.2861  0.7289
  318MOL0     H43868   1.822   2.788   0.462 -1.2702 -0.2180  1.1951
  318MOL0     H43869   2.043   2.783   0.372  1.9452 -1.4968  0.0518
  318MOL0     H43870   2.491   2.880   0.544  3.2130 -0.7826  0.3249
  318MOL0     H43871   2.731   2.906   0.500  1.6119  0.1160 -2.5903
  318MOL0     H43872   2.829   3.019   0.100 -2.5293 -3.2761  2.1736
  318MOL0     H43873   2.924   3.131   0.205  1.0412  0.9555 -2.1821
  318MOL0     H43874   3.086   2.936   0.251  1.0552  3.4237 -0.0798
  318MOL0     H43875   3.090   3.008   0.093  0.1558  1.4365  1.1837
  318MOL0     H43876   3.093   2.737   0.099  1.7779  3.5135 -2.7004
  318MOL0     H43877   2.961   2.744   0.206 -0.8764  1.5899  1.5279
  318MOL0     H43878   2.810   2.801   0.017  0.2186  0.4252 -1.7886
  318MOL0     H43879   2.906   2.662  -0.031  0.9541  0.4440 -1.7070
  318MOL0     H43880   3.012   2.972  -0.301 -1.2461  0.4486 -0.3715
  318MOL0     H43881   2.638   3.071   0.113 -0.4209 -0.7194 -0.8150
  318MOL0     H43882   2.321   2.952   0.095  2.6356 -1.8093 -2.0144
  318MOL0     H43883   2.321   3.127   0.126  1.8321  0.8562  0.3277
  318MOL0     H43884   2.446   3.059   0.030  1.2113  2.3246  1.8272
  319MOL0     O43885   1.295   8.074   6.437  0.2320 -0.0761  0.0575
  319MOL0     C43886   1.190   8.114   6.482  0.1261 -0.7281 -0.0706
  319MOL0     O43887   1.145   8.088   6.613  0.2927 -0.4799  0.5544
  319MOL0     C43888   1.203   7.997   6.699  0.7956  0.1537 -0.6716
  319MOL0     C43889   1.153   7.999   6.828  0.7767 -0.4313 -0.5504
  319MOL0     C43890   1.204   7.919   6.929 -0.0529 -0.1599 -0.0782
  319MOL0     C43891   1.309   7.832   6.908 -0.5004 -1.5666  0.6160
  319MOL0     O43892   1.366   7.766   7.017 -0.3675 -0.7554  0.7676
  319MOL0     C43893   1.506   7.756   7.016 -0.1503 -0.4127 -0.4591
  319MOL0     C43894   1.545   7.876   7.103 -0.3064  0.4459 -0.1993
  319MOL0     C43895   1.460   7.907   7.233 -0.3682 -0.3731  0.9063
  319MOL0     C43896   1.533   8.017   7.314  0.2832 -0.4074  0.1529
  319MOL0     C43897   1.469   8.024   7.460 -0.2344 -1.4949  0.1895
  319MOL0     C43898   1.563   8.101   7.557  0.0365 -0.6638  0.8202
  319MOL0     C43899   1.491   8.138   7.689  0.0491  0.2324 -0.1887
  319MOL0     C43900   1.514   8.275   7.753  0.0600  0.3882  0.2854
  319MOL0     N43901   1.651   8.312   7.760  0.9374 -0.4699  0.3760
  319MOL0     C43902   1.760   8.235   7.783  0.9339  0.2805 -0.6274
  319MOL0     C43903   1.866   8.314   7.764  0.6551 -0.8413  0.3630
  319MOL0     C43904   2.003   8.254   7.772 -0.2961  0.5720 -0.2724
  319MOL0     C43905   2.080   8.342   7.867  0.8055  1.1485 -0.5062
  319MOL0     C43906   2.029   8.357   8.010  0.8750  0.6059  0.2442
  319MOL0     C43907   2.129   8.399   8.115 -0.9347  0.0711 -0.0621
  319MOL0     O43908   2.253   8.322   8.130 -0.5591 -0.2247  1.2253
  319MOL0     C43909   2.364   8.382   8.195  0.2296  0.4555  0.4767
  319MOL0     C43910   2.444   8.472   8.118 -0.1538  0.2443 -1.0288
  319MOL0     C43911   2.550   8.529   8.180  0.3659  0.5260  0.2845
  319MOL0     C43912   2.630   8.641   8.116 -0.6930  1.9786  0.3321
  319MOL0     C43913   2.590   8.485   8.314  0.1160  0.2657 -0.1303
  319MOL0     C43914   2.711   8.513   8.384 -1.1815  0.3331 -0.5452
  319MOL0     O43915   2.722   8.470   8.519  0.0777  0.5954 -0.0994
  319MOL0     C43916   2.853   8.473   8.571 -0.6022  0.4625 -0.0832
  319MOL0     C43917   2.893   8.573   8.661 -0.4968 -0.3590 -0.5166
  319MOL0     C43918   3.033   8.564   8.698  0.5597 -1.1624  0.1762
  319MOL0     C43919   3.120   8.475   8.654 -0.5845 -0.2517  0.7746
  319MOL0     O43920   3.249   8.491   8.705 -0.8628  1.0932  0.1373
  319MOL0     C43921   3.347   8.384   8.687  0.7766 -0.0306 -0.4082
  319MOL0     C43922   3.451   8.402   8.798  0.3052  0.6355  0.8048
  319MOL0     C43923   3.404   8.350   8.928  0.7632  0.2218 -0.1607
  319MOL0     C43924   3.383   8.198   8.953  0.2490 -1.0232  0.7965
  319MOL0     C43925   3.376   8.173   9.098 -0.5296 -0.0437  1.2828
  319MOL0     C43926   3.293   8.062   9.127  0.6650 -0.3108  0.6351
  319MOL0     C43927   3.321   7.927   9.053  0.7010 -0.3766 -0.2702
  319MOL0     C43928   3.217   7.829   9.083 -0.4036  0.7307  0.9406
  319MOL0    Cl43929   3.052   7.880   9.053 -0.6231 -0.5589 -0.1353
  319MOL0     C43930   3.080   8.385   8.553  0.3203  0.1866 -0.0840
  319MOL0     C43931   2.945   8.381   8.520  0.1330  0.4319  0.0587
  319MOL0     O43932   2.797   8.584   8.326  0.4303 -0.0626  0.1856
  319MOL0     C43933   2.500   8.392   8.379 -0.2693  0.4900 -0.8675
  319MOL0     C43934   2.385   8.350   8.320  0.2359  0.1199 -0.8340
  319MOL0     N43935   1.824   8.442   7.745  0.7750  0.2627 -0.0318
  319MOL0     N43936   1.697   8.438   7.743  0.5711 -0.0697  0.1174
  319MOL0     C43937   1.358   7.815   6.777 -0.7959 -1.3319  0.4559
  319MOL0     C43938   1.313   7.908   6.675  0.1625  0.8217 -0.6954
  319MOL0     C43939   1.111   8.200   6.399 -0.5741  0.6523  0.9303
  319MOL0     C43940   1.179   8.320   6.350 -0.0842  0.4066  0.6064
  319MOL0     C43941   1.118   8.417   6.271 -0.4687 -0.3030 -0.0950
  319MOL0     C43942   0.986   8.397   6.227  0.3503 -0.0335  0.5853
  319MOL0     O43943   0.922   8.478   6.141 -0.0986  0.3016  0.1836
  319MOL0     C43944   0.777   8.499   6.143 -0.0726  0.1792  0.0580
  319MOL0     C43945   0.739   8.631   6.076 -0.0580 -0.0566 -0.5426
  319MOL0     C43946   0.815   8.658   5.951 -1.2934 -0.4003  0.0780
  319MOL0     C43947   0.773   8.556   5.841  0.3013 -0.0151  0.1037
  319MOL0     C43948   0.633   8.586   5.795 -0.1980  0.5259  0.1581
  319MOL0     C43949   0.519   8.586   5.759 -0.1375 -0.2449  0.3573
  319MOL0     C43950   0.925   8.275   6.263  0.0279 -0.6905  0.4859
  319MOL0     C43951   0.983   8.178   6.347  0.1907  0.3743 -0.3730
  319MOL0     C43952   0.897   8.069   6.406  0.1914  0.0585 -0.5838
  319MOL0     H43953   1.060   8.053   6.841  1.5834  0.6936  0.7797
  319MOL0     H43954   1.150   7.936   7.022 -0.6681  2.7570 -0.8628
  319MOL0     H43955   1.552   7.765   6.917  2.1288 -0.7053  0.4902
  319MOL0     H43956   1.531   7.664   7.070 -2.9825 -0.1686  1.5223
  319MOL0     H43957   1.649   7.864   7.136 -0.0655  0.0248 -1.0917
  319MOL0     H43958   1.562   7.963   7.039  0.6555  0.3736 -0.0639
  319MOL0     H43959   1.359   7.942   7.209  0.3989  0.5551 -1.1983
  319MOL0     H43960   1.441   7.824   7.302  1.0140 -1.0242  0.5231
  319MOL0     H43961   1.640   8.001   7.325 -0.0470 -2.5648  0.6042
  319MOL0     H43962   1.520   8.115   7.267 -0.3907 -0.6654 -0.2088
  319MOL0     H43963   1.464   7.928   7.512  1.9614 -1.2500  0.9626
  319MOL0     H43964   1.368   8.067   7.463  0.5930  0.5306  1.0371
  319MOL0     H43965   1.646   8.035   7.584  1.3515  1.2484  1.6896
  319MOL0     H43966   1.582   8.192   7.500 -2.1824 -0.8145 -0.2322
  319MOL0     H43967   1.519   8.054   7.753 -0.0176 -0.3756 -0.9448
  319MOL0     H43968   1.382   8.140   7.675  0.0021  1.3904  0.1826
  319MOL0     H43969   1.455   8.346   7.696  0.1313 -1.0746 -1.7356
  319MOL0     H43970   1.472   8.274   7.854 -1.4842  1.2583 -0.3282
  319MOL0     H43971   1.761   8.127   7.794  2.8195  0.1713 -1.4280
  319MOL0     H43972   2.049   8.273   7.675  3.6686  1.3414  1.5487
  319MOL0     H43973   2.000   8.146   7.788 -4.1766 -0.0712 -3.6250
  319MOL0     H43974   2.173   8.286   7.882  0.4842  0.5567 -0.6828
  319MOL0     H43975   2.103   8.440   7.825  0.1721  1.4139 -0.2437
  319MOL0     H43976   1.942   8.424   8.005  1.4136  1.4074  1.1911
  319MOL0     H43977   1.998   8.257   8.043 -0.6453  0.9734  0.0076
  319MOL0     H43978   2.151   8.502   8.084 -0.1655 -0.6767 -2.1506
  319MOL0     H43979   2.071   8.396   8.207  1.4930 -2.7497  1.5600
  319MOL0     H43980   2.418   8.500   8.016  1.4704 -2.0486 -2.1722
  319MOL0     H43981   2.647   8.730   8.178  2.3877 -0.2836  3.0657
  319MOL0     H43982   2.593   8.682   8.021 -0.1420  1.0197 -0.3135
  319MOL0     H43983   2.725   8.589   8.106 -2.5581 -1.4233 -1.8892
  319MOL0     H43984   2.826   8.644   8.709 -1.7011 -2.5137  1.1670
  319MOL0     H43985   3.064   8.636   8.774 -1.8559  0.6619 -0.4418
  319MOL0     H43986   3.286   8.296   8.711  1.6770  0.3269  4.0373
  319MOL0     H43987   3.398   8.395   8.590  1.3333  1.8882  0.0633
  319MOL0     H43988   3.543   8.347   8.775  1.5752  2.1349  2.1522
  319MOL0     H43989   3.480   8.507   8.805 -0.4927  1.0102 -0.8683
  319MOL0     H43990   3.309   8.402   8.940  1.4289  1.7618 -1.2042
  319MOL0     H43991   3.472   8.384   9.007  0.4509  1.7656 -0.5231
  319MOL0     H43992   3.462   8.135   8.912 -0.5295 -2.2451  1.1262
  319MOL0     H43993   3.296   8.150   8.906 -0.4042  2.4757 -2.0597
  319MOL0     H43994   3.478   8.155   9.135 -1.6738 -0.8035  4.3879
  319MOL0     H43995   3.341   8.265   9.144 -0.2644  1.0702 -0.6275
  319MOL0     H43996   3.190   8.096   9.113  0.4779 -1.1454 -0.1173
  319MOL0     H43997   3.295   8.042   9.235  4.0562  1.9208  1.1257
  319MOL0     H43998   3.423   7.889   9.070  0.0597 -1.5537  1.1680
  319MOL0     H43999   3.316   7.937   8.944  2.1140 -2.1694 -0.5506
  319MOL0     H44000   3.223   7.801   9.188 -0.5964  1.7259  1.2294
  319MOL0     H44001   3.235   7.742   9.019  1.4788  1.3841  0.5041
  319MOL0     H44002   3.146   8.316   8.502  0.6384  0.4273 -0.0062
  319MOL0     H44003   2.900   8.321   8.442 -0.6556 -0.3554  1.0957
  319MOL0     H44004   2.514   8.341   8.474 -1.5825  1.8105  0.0869
  319MOL0     H44005   2.312   8.279   8.359  0.3494  0.2923 -0.2995
  319MOL0     H44006   1.420   7.733   6.743 -0.1654 -1.5679  2.1039
  319MOL0     H44007   1.353   7.904   6.574  0.2534  2.4094 -0.7561
  319MOL0     H44008   1.281   8.325   6.388 -0.5473 -0.7231  2.0837
  319MOL0     H44009   1.169   8.512   6.257 -0.0663 -0.0260  2.6524
  319MOL0     H44010   0.721   8.411   6.110 -0.6305  0.8010 -0.6824
  319MOL0     H44011   0.739   8.507   6.246  2.5309 -1.7404  1.2725
  319MOL0     H44012   0.763   8.723   6.129  0.3991 -0.2091 -0.4791
  319MOL0     H44013   0.632   8.626   6.054  0.2308 -1.7151 -1.8381
  319MOL0     H44014   0.788   8.755   5.908 -3.8813 -1.2256 -0.3344
  319MOL0     H44015   0.923   8.663   5.964 -0.4482  2.9113 -5.2128
  319MOL0     H44016   0.777   8.447   5.852 -0.3800 -0.3419 -2.2937
  319MOL0     H44017   0.844   8.576   5.760  0.1419 -2.1811 -0.6473
  319MOL0     H44018   0.424   8.598   5.712  0.8129  3.7553 -1.0002
  319MOL0     H44019   0.830   8.260   6.212 -0.0685 -1.9261  0.9909
  319MOL0     H44020   0.930   7.973   6.366  2.9332  1.8509 -3.1660
  319MOL0     H44021   0.908   8.070   6.514 -1.1038  2.2014 -0.4150
  319MOL0     H44022   0.791   8.087   6.385  0.0117  1.7196  1.3622
  320MOL0     O44023   6.627   3.684   1.456  0.2748 -0.0239  0.1961
  320MOL0     C44024   6.672   3.754   1.542 -0.8115 -1.0714  0.0633
  320MOL0     O44025   6.803   3.754   1.577 -0.5500 -0.5113  0.7464
  320MOL0     C44026   6.893   3.653   1.548  0.8177  0.9376  0.4176
  320MOL0     C44027   6.866   3.517   1.514 -0.2972 -0.6696  0.0062
  320MOL0     C44028   6.975   3.429   1.483  0.4974  0.1504 -0.4310
  320MOL0     C44029   7.108   3.465   1.510 -0.5551  0.2426  0.4303
  320MOL0     O44030   7.218   3.396   1.478  0.3508  0.9011  0.0504
  320MOL0     C44031   7.212   3.291   1.376  0.4953  0.0210  0.1817
  320MOL0     C44032   7.321   3.180   1.397  0.4455  0.4555  0.7681
  320MOL0     C44033   7.288   3.086   1.515  0.8672 -0.1507 -0.0836
  320MOL0     C44034   7.296   3.144   1.653  0.3524 -0.2682  0.5781
  320MOL0     C44035   7.315   3.049   1.770 -0.4672 -0.5833 -0.5847
  320MOL0     C44036   7.317   3.125   1.906 -0.0159 -0.1340 -0.1868
  320MOL0     C44037   7.188   3.105   1.993  1.0733  0.2686 -0.0795
  320MOL0     C44038   7.097   3.224   1.977  1.3147 -0.7456  0.1369
  320MOL0     N44039   6.987   3.229   2.080 -0.6660 -0.5638  0.2424
  320MOL0     C44040   6.930   3.119   2.139  0.5802 -0.1504  0.2411
  320MOL0     C44041   6.880   3.181   2.252 -0.7170  1.1114  0.1470
  320MOL0     C44042   6.824   3.101   2.362  0.1944 -0.3536 -0.9694
  320MOL0     C44043   6.934   3.027   2.436 -0.2399 -1.4145  0.6890
  320MOL0     C44044   7.051   3.119   2.482  0.5408  0.2687 -0.1964
  320MOL0     C44045   7.135   3.043   2.580 -0.6089  0.1058  0.7956
  320MOL0     O44046   7.071   3.012   2.704  0.1774  0.2323 -0.0310
  320MOL0     C44047   7.154   2.961   2.808  0.2639  0.0336  0.4507
  320MOL0     C44048   7.098   3.000   2.933 -0.4146 -0.8226  0.7495
  320MOL0     C44049   7.156   2.949   3.052 -0.7226 -0.7231 -0.6850
  320MOL0     C44050   7.096   2.981   3.186 -0.5469 -0.3186  0.1144
  320MOL0     C44051   7.285   2.883   3.049 -0.6709  1.1777  0.3594
  320MOL0     C44052   7.371   2.848   3.167 -0.6369 -0.9067 -0.3064
  320MOL0     O44053   7.447   2.736   3.153  0.1818 -0.0026 -0.1899
  320MOL0     C44054   7.556   2.721   3.238  0.4973 -0.5074 -0.3131
  320MOL0     C44055   7.569   2.618   3.323  0.3995  1.3093 -0.5810
  320MOL0     C44056   7.683   2.586   3.400 -0.1529 -0.7118  0.0608
  320MOL0     C44057   7.797   2.678   3.393  0.8621  0.7882  0.5770
  320MOL0     O44058   7.914   2.656   3.468  0.2256 -0.3414  0.8582
  320MOL0     C44059   7.916   2.584   3.594  0.0312 -1.2054  0.5898
  320MOL0     C44060   8.046   2.600   3.670  0.7069  1.0391 -0.0410
  320MOL0     C44061   8.158   2.529   3.595  0.3039 -0.2640 -0.2296
  320MOL0     C44062   8.298   2.540   3.654 -0.9385  0.0163 -0.1868
  320MOL0     C44063   8.287   2.484   3.802  1.2448  0.9508  0.4795
  320MOL0     C44064   8.423   2.489   3.864 -0.5817  0.3090 -0.8725
  320MOL0     C44065   8.432   2.466   4.024 -0.1045  0.4466  1.0219
  320MOL0     C44066   8.426   2.311   4.061 -1.0583  0.5117 -0.3402
  320MOL0    Cl44067   8.432   2.324   4.234  0.2651 -0.3405  0.2202
  320MOL0     C44068   7.788   2.785   3.303  0.5459 -0.5346  0.6245
  320MOL0     C44069   7.670   2.801   3.223  0.2561 -0.4844  0.3039
  320MOL0     O44070   7.393   2.939   3.244 -0.5221 -0.8409  0.1891
  320MOL0     C44071   7.344   2.861   2.921  0.7232 -0.4614 -0.1367
  320MOL0     C44072   7.272   2.895   2.801 -0.2934 -0.3191  0.0477
  320MOL0     N44073   6.900   3.321   2.256 -0.1444 -0.2197  0.6677
  320MOL0     N44074   6.968   3.341   2.150 -0.3177 -0.4409 -0.2910
  320MOL0     C44075   7.134   3.599   1.544 -0.2632 -0.1193 -0.4525
  320MOL0     C44076   7.027   3.684   1.565 -0.2922  0.7412  0.1204
  320MOL0     C44077   6.588   3.868   1.588 -0.3456  0.9134  0.0143
  320MOL0     C44078   6.454   3.824   1.609 -0.6340 -0.0007  0.0369
  320MOL0     C44079   6.360   3.904   1.657 -0.3020  0.1354 -0.7430
  320MOL0     C44080   6.386   4.035   1.678  0.0392 -0.5148 -0.2547
  320MOL0     O44081   6.287   4.118   1.718 -0.1503 -0.4621 -0.0705
  320MOL0     C44082   6.201   4.160   1.601 -0.6524  0.6766 -0.2786
  320MOL0     C44083   6.044   4.166   1.633  0.1855 -0.2012 -0.3695
  320MOL0     C44084   6.038   4.282   1.742 -0.0622  0.9329  0.1412
  320MOL0     C44085   5.906   4.291   1.813 -0.0128 -0.4510  0.1479
  320MOL0     C44086   5.884   4.419   1.895  1.1252 -1.2024 -0.0930
  320MOL0     C44087   5.880   4.509   1.981  0.1137  0.4291 -0.1401
  320MOL0     C44088   6.521   4.082   1.661 -0.1360 -0.2360 -0.0278
  320MOL0     C44089   6.623   4.000   1.618 -0.6304  0.1818  0.2589
  320MOL0     C44090   6.760   4.063   1.596  1.6125  0.7758 -0.0697
  320MOL0     H44091   6.764   3.482   1.504  0.1810 -2.1286  0.0923
  320MOL0     H44092   6.936   3.330   1.463 -2.3901  0.5028  2.5148
  320MOL0     H44093   7.230   3.340   1.280 -0.8945 -1.8098 -1.1053
  320MOL0     H44094   7.110   3.251   1.375 -0.8890  3.1819  0.7172
  320MOL0     H44095   7.328   3.113   1.311 -2.2577 -0.0498  0.8783
  320MOL0     H44096   7.420   3.225   1.414  0.5365  0.2504  0.7884
  320MOL0     H44097   7.183   3.065   1.493 -0.1682  2.1294  2.0616
  320MOL0     H44098   7.362   3.006   1.529  2.6994  1.7043  1.5104
  320MOL0     H44099   7.383   3.210   1.653  4.5255 -5.1129  2.7732
  320MOL0     H44100   7.207   3.204   1.674 -0.1729 -0.4802 -0.8898
  320MOL0     H44101   7.416   3.008   1.758  0.1682  0.5283  0.6878
  320MOL0     H44102   7.235   2.978   1.752 -2.2622  1.9136 -3.1983
  320MOL0     H44103   7.401   3.105   1.973 -1.3461  0.0967  1.6292
  320MOL0     H44104   7.332   3.232   1.889  0.2595  0.1714  1.7168
  320MOL0     H44105   7.228   3.116   2.094  1.9927 -1.9601 -0.1241
  320MOL0     H44106   7.137   3.009   1.980  0.9106  0.2338  0.8012
  320MOL0     H44107   7.150   3.319   1.989 -0.9957  0.6055  0.2335
  320MOL0     H44108   7.060   3.211   1.874 -0.6934 -1.6883  0.9151
  320MOL0     H44109   6.927   3.014   2.112 -1.4641  0.2923 -1.5817
  320MOL0     H44110   6.734   3.047   2.332  0.8558 -1.4998 -0.9518
  320MOL0     H44111   6.780   3.171   2.435 -3.3517 -2.3707 -0.9322
  320MOL0     H44112   6.894   2.972   2.522  0.9640 -0.9560  1.5720
  320MOL0     H44113   6.966   2.956   2.359 -0.4205  2.1280 -2.9579
  320MOL0     H44114   7.114   3.144   2.396 -0.6046  0.3795 -1.0256
  320MOL0     H44115   7.001   3.211   2.514  0.3917  0.5909 -1.3012
  320MOL0     H44116   7.154   2.951   2.524 -1.0177  1.5697 -1.8990
  320MOL0     H44117   7.223   3.107   2.592  0.4247 -1.3266  1.1769
  320MOL0     H44118   7.014   3.067   2.950  1.0812  1.5632 -0.6470
  320MOL0     H44119   7.153   3.066   3.225 -2.3940  2.7135 -3.2077
  320MOL0     H44120   7.116   2.899   3.256  2.6679  0.4413  0.2386
  320MOL0     H44121   6.987   2.995   3.188 -0.9034 -2.6983  0.7854
  320MOL0     H44122   7.498   2.537   3.316 -1.0906  2.3297  1.4305
  320MOL0     H44123   7.686   2.505   3.472 -1.2626  1.2577  2.4986
  320MOL0     H44124   7.840   2.639   3.649  1.1367  1.5708 -0.4719
  320MOL0     H44125   7.878   2.481   3.588 -0.6704 -1.0294  1.6592
  320MOL0     H44126   8.073   2.704   3.693 -1.9226  1.8609 -0.4064
  320MOL0     H44127   8.040   2.548   3.766  1.2084  0.5415 -0.2756
  320MOL0     H44128   8.176   2.575   3.497 -0.1065 -1.9293 -1.1319
  320MOL0     H44129   8.140   2.422   3.577  3.2407 -0.8687 -0.0871
  320MOL0     H44130   8.338   2.641   3.651  1.3972 -0.8296  0.5080
  320MOL0     H44131   8.368   2.481   3.594  1.3661 -0.0078  2.3413
  320MOL0     H44132   8.214   2.531   3.868  0.2735  0.4742 -0.2242
  320MOL0     H44133   8.260   2.378   3.802  2.1768  0.6330 -2.0607
  320MOL0     H44134   8.470   2.586   3.850  1.3132 -0.5616 -0.7838
  320MOL0     H44135   8.492   2.423   3.811 -0.5361 -0.6030  0.2812
  320MOL0     H44136   8.337   2.510   4.056 -1.7107 -1.7632 -0.4415
  320MOL0     H44137   8.509   2.527   4.074 -1.3916  0.0644  3.6620
  320MOL0     H44138   8.519   2.265   4.027  0.7716  1.8579  2.4512
  320MOL0     H44139   8.333   2.261   4.032  0.2795 -2.0868 -0.4300
  320MOL0     H44140   7.878   2.843   3.286  1.1676 -1.7846 -0.5120
  320MOL0     H44141   7.658   2.884   3.153 -2.8117  0.9643  2.3000
  320MOL0     H44142   7.444   2.821   2.906  0.8219  0.2532 -1.4842
  320MOL0     H44143   7.312   2.874   2.703 -1.5215 -2.1425 -0.1081
  320MOL0     H44144   7.233   3.643   1.545 -0.0725 -0.3632  2.8270
  320MOL0     H44145   7.051   3.786   1.591  2.8865 -0.3913  2.2605
  320MOL0     H44146   6.434   3.718   1.605 -2.5146  0.3367 -0.4976
  320MOL0     H44147   6.261   3.873   1.689  0.8502 -2.4734  0.5335
  320MOL0     H44148   6.230   4.254   1.553 -1.0805 -0.3662 -2.7355
  320MOL0     H44149   6.206   4.093   1.515 -0.0356 -0.2299  0.4428
  320MOL0     H44150   6.015   4.067   1.668  2.4657 -1.0199 -0.6993
  320MOL0     H44151   5.988   4.194   1.543 -2.5410 -2.5478  0.4532
  320MOL0     H44152   6.125   4.281   1.808  0.6977 -0.5252 -0.8218
  320MOL0     H44153   6.047   4.371   1.680 -2.5999  1.8944  1.0419
  320MOL0     H44154   5.916   4.216   1.892 -0.7216  1.3654  2.0602
  320MOL0     H44155   5.830   4.265   1.740 -0.8365  0.6676  0.5664
  320MOL0     H44156   5.879   4.577   2.064  0.0717 -0.8876  0.9805
  320MOL0     H44157   6.543   4.184   1.689 -0.5296  0.3101 -1.6030
  320MOL0     H44158   6.747   4.171   1.595 -3.6949  0.4121 -0.0602
  320MOL0     H44159   6.826   4.022   1.673  1.3347 -2.4512 -1.3700
  320MOL0     H44160   6.789   4.024   1.498 -1.0752  0.9526 -1.0120
  321MOL0     O44161   8.652   2.646   9.190  0.0848 -0.2038  0.1004
  321MOL0     C44162   8.558   2.614   9.120  0.4204 -0.9525 -0.1077
  321MOL0     O44163   8.435   2.665   9.125 -0.3855  0.1694 -0.1484
  321MOL0     C44164   8.404   2.735   9.245  0.4646  0.3203 -0.3109
  321MOL0     C44165   8.339   2.654   9.346  1.0658 -0.9784  0.4809
  321MOL0     C44166   8.275   2.714   9.467 -0.4866 -0.8493 -0.4688
  321MOL0     C44167   8.268   2.858   9.465  0.1673 -1.0449 -0.4644
  321MOL0     O44168   8.221   2.934   9.566 -0.3051 -0.0501  0.3905
  321MOL0     C44169   8.122   2.893   9.663 -0.6307 -0.2370  0.1521
  321MOL0     C44170   8.185   2.835   9.795 -0.0958 -1.2867  0.8864
  321MOL0     C44171   8.272   2.940   9.849 -0.1097 -0.9255 -0.5787
  321MOL0     C44172   8.289   2.926  10.003  0.1026 -0.9154  0.8978
  321MOL0     C44173   8.417   2.989  10.064 -0.2957 -0.1244 -0.3353
  321MOL0     C44174   8.417   3.141  10.087 -0.5196 -0.5527 -0.8774
  321MOL0     C44175   8.293   3.212  10.125 -0.4463 -1.2063 -0.0454
  321MOL0     C44176   8.290   3.360  10.106 -0.2864 -0.9711 -0.6592
  321MOL0     N44177   8.245   3.412   9.975  0.0499 -1.2453 -0.9798
  321MOL0     C44178   8.277   3.536   9.927  0.4006  0.6153  0.5489
  321MOL0     C44179   8.196   3.551   9.822  0.5291  0.2052  0.1290
  321MOL0     C44180   8.193   3.675   9.726  0.3305 -0.2948  1.0725
  321MOL0     C44181   8.056   3.704   9.656  1.0683 -0.5436 -0.4777
  321MOL0     C44182   8.061   3.823   9.561  0.3593 -0.0820  0.2986
  321MOL0     C44183   7.917   3.871   9.516  0.0369 -0.3121  0.5988
  321MOL0     O44184   7.852   3.932   9.634 -0.1583  0.1468 -0.2343
  321MOL0     C44185   7.720   3.904   9.640 -0.7021  0.6623 -0.7370
  321MOL0     C44186   7.671   3.771   9.644  0.3629 -0.0920 -0.4118
  321MOL0     C44187   7.528   3.752   9.655  0.3971  0.7492  0.7206
  321MOL0     C44188   7.466   3.619   9.664 -0.2930 -0.4773  0.4277
  321MOL0     C44189   7.439   3.859   9.652 -1.5277 -0.5423 -0.6829
  321MOL0     C44190   7.288   3.850   9.667  0.1017 -0.6595  0.3656
  321MOL0     O44191   7.211   3.955   9.618 -0.6628 -0.3537 -1.0757
  321MOL0     C44192   7.078   3.935   9.597  0.4222 -0.6393 -0.3054
  321MOL0     C44193   6.991   4.009   9.676  0.0684 -0.2287  1.3061
  321MOL0     C44194   6.854   4.014   9.650 -1.0833 -0.4483  0.2655
  321MOL0     C44195   6.800   3.930   9.557 -0.6886 -0.0265 -0.2745
  321MOL0     O44196   6.664   3.918   9.545  0.4249 -0.4320 -0.9774
  321MOL0     C44197   6.612   3.815   9.630 -0.3716  0.3943  0.5132
  321MOL0     C44198   6.464   3.825   9.620 -0.4737 -0.2021 -0.2866
  321MOL0     C44199   6.396   3.940   9.692 -0.1355  0.7996  0.1616
  321MOL0     C44200   6.385   3.898   9.841  0.1528 -0.2721 -0.3120
  321MOL0     C44201   6.315   4.006   9.927  0.9615  0.0521  0.4585
  321MOL0     C44202   6.307   3.984  10.079 -0.3351  0.5667  0.2846
  321MOL0     C44203   6.216   4.092  10.126 -0.0291 -0.2506 -0.5237
  321MOL0     C44204   6.207   4.082  10.276 -0.5702  0.0503  0.4979
  321MOL0    Cl44205   6.160   3.911  10.321  0.5353 -0.1763 -0.0509
  321MOL0     C44206   6.881   3.861   9.468 -0.2973 -0.4507 -0.0108
  321MOL0     C44207   7.026   3.861   9.490  0.8732 -0.6598 -0.0962
  321MOL0     O44208   7.235   3.751   9.719 -0.1785  0.5538  0.5425
  321MOL0     C44209   7.495   3.986   9.643  0.5996  0.2332  0.0515
  321MOL0     C44210   7.627   4.008   9.634 -0.7071  0.9930  0.5921
  321MOL0     N44211   8.112   3.441   9.814 -0.5183  0.4461  0.0588
  321MOL0     N44212   8.137   3.364   9.908 -0.4520  0.1637 -0.0015
  321MOL0     C44213   8.333   2.930   9.359 -0.5453 -0.0276  0.3955
  321MOL0     C44214   8.408   2.869   9.257 -0.0721 -0.3591  0.9585
  321MOL0     C44215   8.599   2.510   9.020 -0.5332  0.9096  0.7091
  321MOL0     C44216   8.497   2.420   8.984  0.3532  0.5384 -0.0030
  321MOL0     C44217   8.522   2.326   8.877  0.2462  0.4927 -0.3057
  321MOL0     C44218   8.639   2.324   8.806 -0.0417  0.7543  0.0326
  321MOL0     O44219   8.645   2.221   8.713 -0.1326  0.1251 -0.8394
  321MOL0     C44220   8.621   2.087   8.778  0.6988 -0.2821  0.9638
  321MOL0     C44221   8.743   2.047   8.871  0.1514  0.4745 -1.0720
  321MOL0     C44222   8.877   2.079   8.780 -0.5676  0.2119 -0.8164
  321MOL0     C44223   8.998   2.058   8.877  1.1326 -0.1714 -0.3145
  321MOL0     C44224   8.985   1.945   8.968 -0.7151  0.3756 -0.5802
  321MOL0     C44225   8.963   1.854   9.043 -0.7410 -0.7498 -0.0480
  321MOL0     C44226   8.734   2.420   8.832 -0.3836  0.1615 -0.6655
  321MOL0     C44227   8.721   2.511   8.942 -0.2362  0.2408 -1.3369
  321MOL0     C44228   8.829   2.616   8.964 -0.8049  0.4541  1.2512
  321MOL0     H44229   8.333   2.552   9.310 -2.9223  0.4998 -4.2236
  321MOL0     H44230   8.236   2.657   9.551 -2.0884  4.1227  2.5431
  321MOL0     H44231   8.050   2.821   9.625 -1.6328  1.1582 -0.6909
  321MOL0     H44232   8.063   2.982   9.690  1.9007  2.0355 -1.2323
  321MOL0     H44233   8.107   2.810   9.868  0.0373  0.5206  1.7027
  321MOL0     H44234   8.248   2.747   9.782  1.5865  0.0867 -0.9212
  321MOL0     H44235   8.368   2.930   9.798 -1.7923  0.3850 -4.3438
  321MOL0     H44236   8.237   3.042   9.830  1.8025 -0.2256 -0.4820
  321MOL0     H44237   8.197   2.953  10.055 -0.2532 -3.3835  1.6475
  321MOL0     H44238   8.307   2.820  10.021  2.2989 -0.8140 -0.3687
  321MOL0     H44239   8.497   2.949  10.001 -2.9946 -2.2365 -2.7035
  321MOL0     H44240   8.437   2.937  10.158  0.3437 -2.0569 -1.4901
  321MOL0     H44241   8.492   3.165  10.163 -1.4000 -2.5833  0.7232
  321MOL0     H44242   8.449   3.184   9.991  2.6772  3.0749  1.4930
  321MOL0     H44243   8.269   3.193  10.230 -0.2210 -3.2689 -0.3204
  321MOL0     H44244   8.209   3.163  10.075 -2.7287 -0.4380  2.7452
  321MOL0     H44245   8.216   3.391  10.180  1.9020 -2.7838  2.5095
  321MOL0     H44246   8.388   3.402  10.129 -1.3716  1.1984  0.3041
  321MOL0     H44247   8.341   3.611   9.973  3.8017 -0.7628 -1.5514
  321MOL0     H44248   8.278   3.647   9.663  1.1474 -1.9925  2.8365
  321MOL0     H44249   8.214   3.772   9.773 -2.2169  0.7226  0.2607
  321MOL0     H44250   8.029   3.617   9.595 -1.1678 -2.6406  3.1581
  321MOL0     H44251   7.984   3.722   9.737 -1.0832  1.2026 -2.6223
  321MOL0     H44252   8.110   3.906   9.613 -0.7927  0.6536  0.2273
  321MOL0     H44253   8.126   3.802   9.476 -1.8256 -0.5850 -1.3183
  321MOL0     H44254   7.914   3.954   9.445 -2.5916 -0.0528  0.9245
  321MOL0     H44255   7.858   3.787   9.479 -1.7772  0.5868  1.3290
  321MOL0     H44256   7.742   3.690   9.633  0.8940  0.5479 -2.0005
  321MOL0     H44257   7.393   3.599   9.584  1.1741  3.9856 -2.4041
  321MOL0     H44258   7.430   3.605   9.766  0.1997 -1.3585  0.4902
  321MOL0     H44259   7.537   3.542   9.631 -1.9662 -0.0771 -5.3631
  321MOL0     H44260   7.043   4.068   9.751  3.7587  0.0815 -1.2706
  321MOL0     H44261   6.793   4.066   9.722  0.2361 -2.3116  2.9118
  321MOL0     H44262   6.650   3.718   9.600  1.4372  1.0609  0.5439
  321MOL0     H44263   6.654   3.834   9.729  2.2229  1.8688 -0.7730
  321MOL0     H44264   6.435   3.831   9.515 -1.2952 -0.4509 -0.0787
  321MOL0     H44265   6.437   3.732   9.670  2.1333 -0.7336  0.2931
  321MOL0     H44266   6.299   3.970   9.651 -0.4962  1.8963  1.7327
  321MOL0     H44267   6.462   4.025   9.677  2.3481 -1.4896 -3.8148
  321MOL0     H44268   6.487   3.895   9.878  1.1161  4.7492 -1.8038
  321MOL0     H44269   6.338   3.800   9.857  0.2450 -0.5896 -1.8258
  321MOL0     H44270   6.355   4.107   9.912  0.5394  0.1826  0.2050
  321MOL0     H44271   6.213   4.006   9.888  0.2920 -0.2914  2.1381
  321MOL0     H44272   6.403   4.000  10.128 -0.4834  0.1104  0.7334
  321MOL0     H44273   6.268   3.884  10.101 -0.1070  0.6256  0.9961
  321MOL0     H44274   6.118   4.083  10.078  0.8436  1.6614 -2.8665
  321MOL0     H44275   6.251   4.194  10.107 -0.8774  0.6408  2.2323
  321MOL0     H44276   6.139   4.161  10.310 -1.4988 -0.1597 -0.7972
  321MOL0     H44277   6.305   4.097  10.324 -1.2900  2.6723  1.3225
  321MOL0     H44278   6.826   3.812   9.389  1.0910 -2.8750  0.4169
  321MOL0     H44279   7.090   3.805   9.422  1.0480 -1.8568  0.9967
  321MOL0     H44280   7.432   4.074   9.629 -2.1611 -1.6396 -0.2055
  321MOL0     H44281   7.677   4.104   9.641  0.7416  0.1533  2.4950
  321MOL0     H44282   8.326   3.037   9.373 -0.9186 -0.0476  0.3667
  321MOL0     H44283   8.459   2.938   9.190 -2.8692  0.5191 -0.4480
  321MOL0     H44284   8.398   2.435   9.025  1.5496  2.6003  2.4657
  321MOL0     H44285   8.440   2.266   8.839  0.4769  2.3734 -4.3771
  321MOL0     H44286   8.531   2.097   8.840 -0.9745  0.5904 -1.4594
  321MOL0     H44287   8.611   2.012   8.699 -0.3814  0.3787  0.4518
  321MOL0     H44288   8.743   1.944   8.907  3.2375  1.5593  2.5375
  321MOL0     H44289   8.745   2.104   8.964  1.1023  0.4338 -1.0593
  321MOL0     H44290   8.892   2.001   8.704 -0.9829 -1.1842  0.4780
  321MOL0     H44291   8.888   2.180   8.740 -1.0498  0.3382 -0.6382
  321MOL0     H44292   9.017   2.150   8.932 -1.0825  0.9622 -1.3249
  321MOL0     H44293   9.091   2.051   8.819  0.7154 -2.4062 -0.8166
  321MOL0     H44294   8.938   1.779   9.115 -0.2129 -0.1394  0.8048
  321MOL0     H44295   8.825   2.421   8.773 -0.2186  0.5727 -0.4072
  321MOL0     H44296   8.853   2.625   9.070 -0.3395  0.3003  1.1590
  321MOL0     H44297   8.904   2.581   8.893 -1.6013 -3.5343  2.1402
  321MOL0     H44298   8.794   2.713   8.927 -0.2170 -0.3757 -1.6921
  322MOL0     O44299  10.237   2.655  10.329 -0.7889 -0.5301  0.5306
  322MOL0     C44300  10.288   2.701  10.228  0.7431  0.0752 -0.7313
  322MOL0     O44301  10.266   2.825  10.191 -0.9628  0.5706 -0.1174
  322MOL0     C44302  10.160   2.904  10.231 -0.0915 -1.5107 -0.0688
  322MOL0     C44303  10.038   2.863  10.279  0.4986  0.1258 -0.2689
  322MOL0     C44304   9.942   2.957  10.295 -0.1490 -0.1946 -0.0922
  322MOL0     C44305   9.960   3.097  10.273 -0.1271 -0.6799  0.7602
  322MOL0     O44306   9.860   3.194  10.281  0.2828 -0.0768 -0.5552
  322MOL0     C44307   9.728   3.161  10.334  0.2179 -0.2058 -1.1709
  322MOL0     C44308   9.638   3.105  10.224 -0.1197  0.7620 -0.5325
  322MOL0     C44309   9.491   3.121  10.253  0.5606  0.2945 -1.1130
  322MOL0     C44310   9.410   3.074  10.127  0.1302 -0.6362  0.0582
  322MOL0     C44311   9.267   3.116  10.133 -0.8258 -0.7900  0.3001
  322MOL0     C44312   9.181   3.088  10.268 -0.7691 -0.0518  0.0081
  322MOL0     C44313   9.161   2.944  10.288  0.9650 -0.3177 -0.2468
  322MOL0     C44314   9.044   2.907  10.386 -0.1222 -0.2124  0.0328
  322MOL0     N44315   9.019   3.003  10.497 -0.4130 -0.1774  0.3467
  322MOL0     C44316   9.100   3.024  10.610  0.0766 -0.3033  1.6339
  322MOL0     C44317   9.026   3.120  10.681 -0.2227  0.5437 -1.3594
  322MOL0     C44318   9.080   3.199  10.807  0.2571  0.1454  0.8141
  322MOL0     C44319   9.020   3.137  10.937  0.1260 -0.0378 -0.1814
  322MOL0     C44320   9.089   3.002  10.995  0.5592  0.0477  0.2425
  322MOL0     C44321   9.232   3.042  11.056 -0.0867 -1.0953  0.6136
  322MOL0     O44322   9.223   3.138  11.167  0.1751  0.6925 -0.3339
  322MOL0     C44323   9.341   3.196  11.210 -1.4372 -0.1566  0.6769
  322MOL0     C44324   9.467   3.190  11.148 -0.1192  0.7639  0.6481
  322MOL0     C44325   9.584   3.231  11.217  0.1109  0.1541  0.7296
  322MOL0     C44326   9.721   3.189  11.159  0.3448 -0.0274  0.9396
  322MOL0     C44327   9.578   3.304  11.335 -0.2001  0.4576 -0.0835
  322MOL0     C44328   9.690   3.357  11.420  0.1136  0.4145  0.2557
  322MOL0     O44329   9.662   3.468  11.506  0.4429 -0.6082 -0.1206
  322MOL0     C44330   9.771   3.495  11.585 -0.7013  0.0002  0.2691
  322MOL0     C44331   9.787   3.440  11.711 -0.4282 -0.3158  0.1282
  322MOL0     C44332   9.899   3.468  11.784 -0.1308  0.0518 -0.6919
  322MOL0     C44333   9.998   3.549  11.732  0.5295  0.9621 -0.1095
  322MOL0     O44334  10.116   3.548  11.791  0.4349  0.1184 -0.1982
  322MOL0     C44335  10.238   3.555  11.714 -0.8629 -1.1736  0.4508
  322MOL0     C44336  10.339   3.503  11.812 -0.1192 -0.7163  0.5655
  322MOL0     C44337  10.337   3.533  11.970  0.2995  0.7862  0.5284
  322MOL0     C44338  10.395   3.675  11.995 -0.0944  0.5360  0.7042
  322MOL0     C44339  10.439   3.696  12.149  0.0662  0.5152 -0.1747
  322MOL0     C44340  10.485   3.832  12.215 -0.6407  0.4040 -0.3270
  322MOL0     C44341  10.595   3.900  12.129  0.4786  0.2291  0.9800
  322MOL0     C44342  10.668   4.010  12.196 -0.0155  0.1014 -0.5358
  322MOL0    Cl44343  10.574   4.162  12.212  0.1488  0.4648  0.1151
  322MOL0     C44344   9.978   3.609  11.607 -1.4665 -1.1247  0.0496
  322MOL0     C44345   9.857   3.583  11.533 -0.0933  0.3605 -0.8749
  322MOL0     O44346   9.802   3.306  11.405 -0.4353  0.1660 -0.0306
  322MOL0     C44347   9.444   3.329  11.385  0.3802 -0.5042 -0.2459
  322MOL0     C44348   9.328   3.273  11.329 -0.2763 -0.4520  0.0279
  322MOL0     N44349   8.911   3.149  10.622  0.1876 -0.1360  0.5214
  322MOL0     N44350   8.912   3.080  10.513  0.3689  0.2574  0.0572
  322MOL0     C44351  10.088   3.140  10.227 -0.3737  0.0065 -0.7013
  322MOL0     C44352  10.183   3.040  10.209 -0.1733  0.2645  0.1557
  322MOL0     C44353  10.411   2.625  10.171  0.4224 -0.9821 -0.3310
  322MOL0     C44354  10.497   2.705  10.096  0.8132 -0.8530  0.3081
  322MOL0     C44355  10.603   2.654  10.020  0.8218 -0.7667  0.0035
  322MOL0     C44356  10.632   2.515  10.035  0.0309  0.2544 -0.7045
  322MOL0     O44357  10.738   2.458   9.982  0.1303 -0.0178  0.6457
  322MOL0     C44358  10.828   2.544   9.907  0.5200  0.2558 -0.6701
  322MOL0     C44359  10.944   2.468   9.844  0.1726 -0.6195 -0.2472
  322MOL0     C44360  11.002   2.359   9.925 -0.6048  0.2635  0.1200
  322MOL0     C44361  11.068   2.418  10.052  0.3419  0.2675 -0.3545
  322MOL0     C44362  11.129   2.306  10.135 -0.8435  0.5670  0.3713
  322MOL0     C44363  11.166   2.206  10.200 -0.6429 -1.3790  0.5179
  322MOL0     C44364  10.560   2.435  10.123  0.2916 -1.1968  0.3426
  322MOL0     C44365  10.452   2.492  10.188  0.5651  0.5624 -0.1018
  322MOL0     C44366  10.381   2.392  10.274  0.4072 -0.4835 -0.3523
  322MOL0     H44367  10.003   2.760  10.285 -3.6767  1.1370 -3.1981
  322MOL0     H44368   9.851   2.905  10.320 -0.0462  0.0432  0.8395
  322MOL0     H44369   9.688   3.255  10.370  2.7604  1.6178 -2.7734
  322MOL0     H44370   9.751   3.099  10.422  2.4283  2.1608  0.0449
  322MOL0     H44371   9.670   3.150  10.129  0.6693  0.3904 -0.4546
  322MOL0     H44372   9.652   2.996  10.222 -2.7317  0.3871 -1.2941
  322MOL0     H44373   9.469   3.059  10.341 -3.0044  0.1792 -1.9146
  322MOL0     H44374   9.465   3.225  10.271  0.4071  0.5846 -2.8621
  322MOL0     H44375   9.461   3.109  10.036 -2.0266 -0.4113 -1.1347
  322MOL0     H44376   9.406   2.964  10.130  3.2590 -0.8472  3.5090
  322MOL0     H44377   9.220   3.062  10.051 -0.2201 -1.1354  0.1791
  322MOL0     H44378   9.278   3.223  10.114  0.8765 -1.1487 -0.9189
  322MOL0     H44379   9.238   3.125  10.354  1.7200 -0.6898 -1.2753
  322MOL0     H44380   9.080   3.129  10.264  0.6279  3.6581 -0.8910
  322MOL0     H44381   9.254   2.900  10.324 -0.4626 -1.2594  2.6361
  322MOL0     H44382   9.136   2.906  10.189 -2.0891 -1.4294  0.8222
  322MOL0     H44383   8.952   2.895  10.327 -0.3710 -2.3063  0.7998
  322MOL0     H44384   9.060   2.809  10.431  1.5326  0.0010 -0.0578
  322MOL0     H44385   9.202   2.989  10.624  0.8072 -0.3146 -2.5516
  322MOL0     H44386   9.050   3.304  10.802 -0.5832 -0.1239 -0.4549
  322MOL0     H44387   9.189   3.195  10.808  0.3242 -2.1098 -1.8934
  322MOL0     H44388   9.015   3.210  11.019 -1.3688 -2.3915  1.9420
  322MOL0     H44389   8.918   3.110  10.911  0.9609 -2.5098 -1.1640
  322MOL0     H44390   9.030   2.950  11.071 -0.8490  2.0986  0.6297
  322MOL0     H44391   9.102   2.929  10.914  1.1589  0.4254 -0.0081
  322MOL0     H44392   9.286   2.947  11.062  0.0960 -0.9128  2.2646
  322MOL0     H44393   9.284   3.101  10.980 -0.0349  1.4741  2.5373
  322MOL0     H44394   9.476   3.122  11.064 -3.7667  0.0474  0.6760
  322MOL0     H44395   9.807   3.256  11.159 -0.0672  0.8438 -4.0174
  322MOL0     H44396   9.706   3.170  11.053 -1.4015 -0.9671  1.3063
  322MOL0     H44397   9.768   3.101  11.206  0.3054 -0.3471  0.3843
  322MOL0     H44398   9.719   3.366  11.752  0.1012 -1.3704 -0.8316
  322MOL0     H44399   9.903   3.432  11.886 -4.3130  0.1773 -0.3221
  322MOL0     H44400  10.231   3.504  11.618 -0.8073  0.3474 -0.3964
  322MOL0     H44401  10.266   3.660  11.700  1.0095 -1.7646 -0.4116
  322MOL0     H44402  10.338   3.394  11.803 -1.3048 -0.5409 -3.0574
  322MOL0     H44403  10.443   3.522  11.782 -0.1484  1.0783  1.5062
  322MOL0     H44404  10.398   3.457  12.019 -1.8124 -1.6659 -0.4158
  322MOL0     H44405  10.234   3.526  12.006 -1.3294 -0.4996 -3.7640
  322MOL0     H44406  10.315   3.748  11.979  0.3827  0.7676 -0.7247
  322MOL0     H44407  10.481   3.696  11.931 -1.2235  1.7364 -0.4663
  322MOL0     H44408  10.359   3.654  12.210 -1.5748  5.3745  1.4372
  322MOL0     H44409  10.523   3.627  12.168  1.5473  2.7075  1.8587
  322MOL0     H44410  10.518   3.811  12.317 -0.6343 -1.2635 -0.6396
  322MOL0     H44411  10.399   3.898  12.230 -2.1188 -1.3225 -0.9611
  322MOL0     H44412  10.550   3.935  12.036 -0.4749  3.1305  2.3851
  322MOL0     H44413  10.675   3.831  12.102 -2.1051 -2.0211 -1.4856
  322MOL0     H44414  10.754   4.049  12.141 -1.0196  2.8120 -0.3305
  322MOL0     H44415  10.697   3.981  12.298 -1.6781  0.0836 -0.0402
  322MOL0     H44416  10.051   3.672  11.557 -3.7110  3.1826  1.6817
  322MOL0     H44417   9.849   3.631  11.435 -0.4831  2.2341  0.0265
  322MOL0     H44418   9.424   3.375  11.481 -0.1697 -3.4565  1.1795
  322MOL0     H44419   9.240   3.277  11.393 -0.1105  0.7099  0.2063
  322MOL0     H44420  10.098   3.244  10.200 -0.1309  0.0958 -0.2815
  322MOL0     H44421  10.278   3.067  10.164 -0.4862  0.1871 -0.5743
  322MOL0     H44422  10.481   2.812  10.098  5.2310  0.0816 -1.5964
  322MOL0     H44423  10.664   2.715   9.954  1.1191 -0.2545  0.7396
  322MOL0     H44424  10.773   2.588   9.823 -1.1381 -0.0605  0.2290
  322MOL0     H44425  10.863   2.618   9.979 -1.1903  0.0604  0.4025
  322MOL0     H44426  11.019   2.543   9.818 -0.1147  0.7530  2.5384
  322MOL0     H44427  10.907   2.414   9.755  3.2650 -1.2382 -1.2758
  322MOL0     H44428  10.944   2.273   9.959 -0.9313 -0.1065 -1.3038
  322MOL0     H44429  11.089   2.318   9.873  1.6093 -0.1612  3.7893
  322MOL0     H44430  10.998   2.491  10.093 -0.7109  0.9148 -3.0366
  322MOL0     H44431  11.156   2.474  10.020  0.4415 -2.0222 -5.0828
  322MOL0     H44432  11.196   2.129  10.268  0.1724 -0.7671  0.8761
  322MOL0     H44433  10.581   2.328  10.122  2.5448 -0.8561 -2.5255
  322MOL0     H44434  10.283   2.379  10.228  0.4818 -0.9965 -0.3740
  322MOL0     H44435  10.438   2.299  10.282  0.8320 -0.1435  0.6926
  322MOL0     H44436  10.363   2.425  10.376  0.0706 -2.1313  0.1574
  323MOL0     O44437   2.744   8.175   8.850  0.1955 -0.1857 -0.0195
  323MOL0     C44438   2.751   8.168   8.976 -0.0204  0.4180  0.0643
  323MOL0     O44439   2.660   8.106   9.055 -0.1959  0.7391 -0.0489
  323MOL0     C44440   2.599   7.990   9.008  0.2075 -0.6454 -0.0291
  323MOL0     C44441   2.676   7.887   8.955  0.3300  0.0581  0.8075
  323MOL0     C44442   2.612   7.760   8.928  0.5265 -1.8209 -0.6010
  323MOL0     C44443   2.474   7.748   8.951  0.5175 -0.0017 -0.4673
  323MOL0     O44444   2.413   7.622   8.940 -0.1213 -1.0436  0.4754
  323MOL0     C44445   2.301   7.603   8.853  0.5118 -0.0865 -0.0904
  323MOL0     C44446   2.168   7.594   8.940  0.4325  0.0643 -0.2594
  323MOL0     C44447   2.052   7.576   8.841  0.1105 -0.1126  0.3036
  323MOL0     C44448   1.949   7.690   8.861 -0.4991  0.6392 -0.2215
  323MOL0     C44449   1.816   7.670   8.784  0.2125  0.6915  0.5500
  323MOL0     C44450   1.730   7.793   8.805  0.4160 -0.6828 -0.2986
  323MOL0     C44451   1.603   7.773   8.723  0.3296 -0.9231  0.5433
  323MOL0     C44452   1.520   7.897   8.692  0.1182 -0.3975  0.0456
  323MOL0     N44453   1.596   7.976   8.593 -0.1911  1.0368  0.6653
  323MOL0     C44454   1.593   7.973   8.456  0.3681  0.0077  0.1495
  323MOL0     C44455   1.681   8.070   8.428 -0.0112  0.1309  0.0992
  323MOL0     C44456   1.726   8.096   8.288 -0.0371  0.2040 -0.6260
  323MOL0     C44457   1.751   8.238   8.244 -0.4641  1.1155 -0.5514
  323MOL0     C44458   1.638   8.337   8.242 -0.5572  0.3753  0.1704
  323MOL0     C44459   1.662   8.474   8.162  0.3585  0.1995 -0.2947
  323MOL0     O44460   1.759   8.558   8.226  0.0880 -1.0686  0.3285
  323MOL0     C44461   1.779   8.691   8.190  0.1646  0.7102  0.6114
  323MOL0     C44462   1.765   8.731   8.055  0.7342 -0.0661 -0.7363
  323MOL0     C44463   1.761   8.854   8.004 -0.1171 -1.0431  0.2271
  323MOL0     C44464   1.754   8.890   7.857 -0.1174  0.2351  0.0758
  323MOL0     C44465   1.806   8.962   8.093  0.0798  0.3249  0.9844
  323MOL0     C44466   1.786   9.099   8.053  0.0355  0.2030  0.2290
  323MOL0     O44467   1.662   9.140   8.005 -0.0031  0.2752  0.9859
  323MOL0     C44468   1.652   9.270   7.939  0.5693  1.0766 -0.2097
  323MOL0     C44469   1.753   9.300   7.846 -0.5304 -0.7753 -0.4149
  323MOL0     C44470   1.733   9.418   7.772 -0.5447 -1.0612  0.2231
  323MOL0     C44471   1.615   9.493   7.776 -0.5775 -0.3643  0.1996
  323MOL0     O44472   1.611   9.609   7.698  0.5434 -0.7764  1.0740
  323MOL0     C44473   1.532   9.596   7.575 -0.5889  0.0414  0.3045
  323MOL0     C44474   1.617   9.547   7.459 -0.2276 -0.2300 -0.6916
  323MOL0     C44475   1.638   9.657   7.343 -0.2566 -0.0197  0.0342
  323MOL0     C44476   1.777   9.631   7.280  0.0125 -0.4669  0.2491
  323MOL0     C44477   1.791   9.720   7.162 -1.0974  0.3616  0.4388
  323MOL0     C44478   1.930   9.732   7.095  1.8668 -0.3361  0.3499
  323MOL0     C44479   2.047   9.792   7.174  0.3875  0.3514 -0.0587
  323MOL0     C44480   2.015   9.920   7.261 -0.7841 -0.0880 -0.1768
  323MOL0    Cl44481   1.986  10.060   7.162  0.1258 -0.1499  0.0474
  323MOL0     C44482   1.520   9.467   7.876  0.2537 -0.9897 -0.1599
  323MOL0     C44483   1.541   9.351   7.963  0.7680 -0.4284  0.6242
  323MOL0     O44484   1.896   9.161   8.054  0.6885 -0.2284  0.0652
  323MOL0     C44485   1.853   8.916   8.226  0.3254  1.3570  0.2210
  323MOL0     C44486   1.851   8.780   8.268 -0.2814  0.3309  0.6498
  323MOL0     N44487   1.725   8.139   8.541 -0.6065  0.2835 -0.8479
  323MOL0     N44488   1.688   8.071   8.642 -0.7380  0.0486  0.0427
  323MOL0     C44489   2.401   7.850   8.992  0.2966 -0.3265  0.4601
  323MOL0     C44490   2.460   7.977   9.021 -0.1100  0.7089 -0.8395
  323MOL0     C44491   2.857   8.248   9.041  0.3662  0.2399 -0.8158
  323MOL0     C44492   2.928   8.327   8.955 -0.3302 -0.3909  0.2990
  323MOL0     C44493   3.039   8.411   8.997 -0.4153  0.0181  0.9339
  323MOL0     C44494   3.074   8.414   9.126 -0.1458 -0.0653  0.2858
  323MOL0     O44495   3.162   8.488   9.190  0.4749 -0.2311 -0.2094
  323MOL0     C44496   3.185   8.627   9.162 -0.1836  0.1348 -0.2216
  323MOL0     C44497   3.269   8.687   9.275 -0.4375  0.1106 -0.5730
  323MOL0     C44498   3.414   8.638   9.261 -0.6319 -0.6930 -0.8076
  323MOL0     C44499   3.489   8.621   9.395 -0.6346 -0.3706  0.5138
  323MOL0     C44500   3.486   8.742   9.482  0.4235  0.0946 -0.3404
  323MOL0     C44501   3.469   8.829   9.566  0.0378  0.2506  0.4565
  323MOL0     C44502   2.996   8.326   9.213 -1.5333 -0.2115 -1.7165
  323MOL0     C44503   2.891   8.243   9.174  0.0961  0.9101 -0.9343
  323MOL0     C44504   2.847   8.142   9.272  0.7729 -0.3199  0.3041
  323MOL0     H44505   2.781   7.909   8.941  0.2496 -1.3910 -3.3309
  323MOL0     H44506   2.667   7.670   8.901  0.2312 -3.0304  2.3852
  323MOL0     H44507   2.316   7.514   8.792 -3.0265 -0.7048 -0.2323
  323MOL0     H44508   2.294   7.690   8.787 -0.4000  1.2149  1.6461
  323MOL0     H44509   2.171   7.511   9.012  1.8094  1.4855  1.3959
  323MOL0     H44510   2.153   7.680   9.006  1.9863 -0.7168  1.1848
  323MOL0     H44511   2.085   7.567   8.738 -0.4709 -3.8626  0.3057
  323MOL0     H44512   1.991   7.487   8.859 -0.5251  0.6911  2.5216
  323MOL0     H44513   1.931   7.708   8.968  1.5395  2.1448 -0.0624
  323MOL0     H44514   2.009   7.776   8.831  0.6002 -0.2320 -0.5824
  323MOL0     H44515   1.778   7.569   8.801  4.2397 -1.5477 -2.2092
  323MOL0     H44516   1.836   7.662   8.677 -0.4223  3.0899  0.1815
  323MOL0     H44517   1.705   7.803   8.910 -1.4031 -0.7926 -0.6932
  323MOL0     H44518   1.802   7.867   8.770 -1.1368  0.3132 -1.5194
  323MOL0     H44519   1.540   7.697   8.770 -0.5967 -0.9043 -0.6118
  323MOL0     H44520   1.636   7.742   8.623  0.8658  1.7402 -0.1739
  323MOL0     H44521   1.426   7.866   8.645 -0.1433  1.6462 -0.8831
  323MOL0     H44522   1.513   7.964   8.778 -1.9259  0.9445 -1.0818
  323MOL0     H44523   1.540   7.916   8.379  0.2776  2.1608 -1.4587
  323MOL0     H44524   1.652   8.047   8.224  0.0432 -1.3927  0.4651
  323MOL0     H44525   1.828   8.059   8.275 -0.3483 -0.4706 -1.2125
  323MOL0     H44526   1.834   8.270   8.307 -0.3878 -3.6941  2.2560
  323MOL0     H44527   1.802   8.239   8.147  0.3343 -1.7942 -0.2525
  323MOL0     H44528   1.559   8.290   8.183 -2.1302  1.2184  1.4969
  323MOL0     H44529   1.604   8.359   8.344 -1.3819 -1.8087  0.4221
  323MOL0     H44530   1.699   8.443   8.064  0.2359  2.4560 -1.1175
  323MOL0     H44531   1.565   8.522   8.145  0.1981  1.1713  2.7089
  323MOL0     H44532   1.721   8.669   7.978 -0.0357  2.4221 -2.3989
  323MOL0     H44533   1.773   8.795   7.805 -0.5363 -0.8585  1.8210
  323MOL0     H44534   1.825   8.970   7.838 -2.7329  3.0407  1.2192
  323MOL0     H44535   1.650   8.904   7.826 -1.2167 -0.4650  3.1050
  323MOL0     H44536   1.834   9.229   7.833  5.1928  3.8634  4.2375
  323MOL0     H44537   1.819   9.437   7.709  1.3847 -0.2848  2.8984
  323MOL0     H44538   1.444   9.531   7.573 -0.9697  0.4661 -3.4462
  323MOL0     H44539   1.503   9.699   7.557  0.3997  0.0947 -1.0953
  323MOL0     H44540   1.711   9.510   7.501  0.0420 -1.5969 -2.4092
  323MOL0     H44541   1.579   9.456   7.412  2.1594 -1.2286 -0.8380
  323MOL0     H44542   1.619   9.756   7.385 -3.2833  1.2168 -3.6879
  323MOL0     H44543   1.554   9.642   7.276  0.2969  0.1342 -0.7020
  323MOL0     H44544   1.772   9.523   7.261  0.4681 -0.3173 -0.7737
  323MOL0     H44545   1.867   9.647   7.339 -0.5517  0.5978  0.8537
  323MOL0     H44546   1.716   9.675   7.096 -0.7229  1.3258 -0.6786
  323MOL0     H44547   1.750   9.819   7.181 -0.5307  0.5788  0.5484
  323MOL0     H44548   1.923   9.803   7.012  2.6187  0.9122  1.3068
  323MOL0     H44549   1.970   9.639   7.054  0.9362  0.2438 -2.0015
  323MOL0     H44550   2.130   9.815   7.106  0.2851  0.3752 -0.1754
  323MOL0     H44551   2.081   9.718   7.247  0.3397 -0.5040 -0.8893
  323MOL0     H44552   2.097   9.940   7.330 -1.2464 -2.3713  1.1614
  323MOL0     H44553   1.929   9.914   7.329 -1.7595  0.0047 -1.3699
  323MOL0     H44554   1.445   9.538   7.911  4.1982  2.3201  2.6540
  323MOL0     H44555   1.474   9.322   8.044  4.9828 -3.9115  3.2992
  323MOL0     H44556   1.888   8.999   8.287 -1.9878  0.0119  3.6520
  323MOL0     H44557   1.856   8.755   8.373  3.2804 -1.7470  0.1346
  323MOL0     H44558   2.301   7.831   9.029 -1.4297 -0.5293 -3.7213
  323MOL0     H44559   2.404   8.059   9.064  0.1599 -0.3483  1.6785
  323MOL0     H44560   2.918   8.330   8.847  4.1695  3.3193 -0.3394
  323MOL0     H44561   3.095   8.476   8.931 -1.5302  0.7903  0.7154
  323MOL0     H44562   3.227   8.636   9.062  0.0056  2.9092  0.0218
  323MOL0     H44563   3.088   8.679   9.163 -0.1676  0.3096 -2.7391
  323MOL0     H44564   3.241   8.659   9.377  5.1365  0.1538  1.3171
  323MOL0     H44565   3.271   8.796   9.264  2.2209  0.2362  0.3355
  323MOL0     H44566   3.423   8.547   9.200  3.8085  0.2636 -1.9875
  323MOL0     H44567   3.470   8.710   9.200 -2.5910  1.2992 -0.3680
  323MOL0     H44568   3.594   8.591   9.391 -1.1941 -2.8799  2.3205
  323MOL0     H44569   3.435   8.541   9.446 -0.5054 -2.3713 -2.2260
  323MOL0     H44570   3.444   8.886   9.654 -2.9626 -1.8381  1.1565
  323MOL0     H44571   3.032   8.332   9.316  0.2363  1.6752 -2.3613
  323MOL0     H44572   2.891   8.161   9.370 -2.3874 -1.0183  1.9888
  323MOL0     H44573   2.740   8.150   9.290  0.2942  4.3899 -2.8805
  323MOL0     H44574   2.885   8.043   9.246  6.4980  1.1470  1.5287
  324MOL0     O44575  11.073  11.108   2.237 -0.4609  0.0983 -0.2791
  324MOL0     C44576  11.120  11.204   2.172 -0.0908 -0.7270 -0.3827
  324MOL0     O44577  11.070  11.252   2.057  0.3581  0.1197  0.8931
  324MOL0     C44578  10.992  11.187   1.961  0.2472  0.0467 -0.6680
  324MOL0     C44579  10.976  11.049   1.944  0.3139 -0.5228  0.7689
  324MOL0     C44580  10.897  11.004   1.840  0.1973 -0.6950  0.8599
  324MOL0     C44581  10.823  11.092   1.764  0.5156 -1.4585  0.5505
  324MOL0     O44582  10.763  11.030   1.656  0.6975 -0.0221 -1.2361
  324MOL0     C44583  10.685  11.103   1.558 -0.6800 -1.3963  1.0384
  324MOL0     C44584  10.773  11.139   1.438  0.0632  0.2203 -0.9063
  324MOL0     C44585  10.691  11.205   1.320  0.1631  0.2385 -0.4637
  324MOL0     C44586  10.659  11.103   1.211 -0.3706  1.3315  0.1878
  324MOL0     C44587  10.603  11.170   1.087 -0.7576 -0.3576  0.1197
  324MOL0     C44588  10.495  11.277   1.095  1.0437 -0.0355  0.0671
  324MOL0     C44589  10.444  11.292   0.947 -0.3936  0.4385  0.1447
  324MOL0     C44590  10.347  11.411   0.931  0.5833 -0.9285 -0.6780
  324MOL0     N44591  10.283  11.414   0.800  0.0125  1.0393  0.3267
  324MOL0     C44592  10.304  11.514   0.710  0.6721 -0.2159  0.2295
  324MOL0     C44593  10.262  11.470   0.590 -0.1410  1.0978  1.1278
  324MOL0     C44594  10.277  11.532   0.456  0.7821 -0.3789  0.8633
  324MOL0     C44595  10.317  11.436   0.340 -0.5060 -0.0470  0.4152
  324MOL0     C44596  10.289  11.511   0.203  0.1327  1.2203  0.8394
  324MOL0     C44597  10.358  11.651   0.185  0.8955  0.4360  0.0348
  324MOL0     O44598  10.361  11.690   0.042  1.2825  0.8642  0.0646
  324MOL0     C44599  10.398  11.815   0.004 -0.3200  0.0607 -0.7385
  324MOL0     C44600  10.454  11.919   0.087 -0.2512 -0.5948 -0.3809
  324MOL0     C44601  10.509  12.035   0.035 -0.2546 -0.2031  0.6147
  324MOL0     C44602  10.590  12.129   0.120  0.0775  0.2437  0.4100
  324MOL0     C44603  10.508  12.056  -0.106  0.0195 -0.0525 -0.2521
  324MOL0     C44604  10.557  12.177  -0.166 -0.5481  0.2649 -0.1686
  324MOL0     O44605  10.669  12.161  -0.228  0.4261  0.4621  0.5428
  324MOL0     C44606  10.742  12.270  -0.255 -0.5500  0.0152  0.0514
  324MOL0     C44607  10.762  12.313  -0.385 -0.0716  0.1627  0.1171
  324MOL0     C44608  10.826  12.428  -0.431 -0.8022 -0.9175 -0.6481
  324MOL0     C44609  10.889  12.515  -0.332  0.3670  1.3147 -0.0989
  324MOL0     O44610  10.971  12.610  -0.392  0.0071  0.4224 -0.3376
  324MOL0     C44611  11.113  12.600  -0.373 -0.3212  0.3485 -1.0652
  324MOL0     C44612  11.186  12.722  -0.434 -0.6493 -0.2066  0.6255
  324MOL0     C44613  11.177  12.746  -0.583  0.8468 -0.3235  0.7759
  324MOL0     C44614  11.272  12.650  -0.663 -0.3431  0.4699 -0.1219
  324MOL0     C44615  11.281  12.682  -0.813 -0.1677  0.3520 -0.0387
  324MOL0     C44616  11.313  12.829  -0.840  0.7191 -1.0951  0.1602
  324MOL0     C44617  11.347  12.839  -0.988 -0.3597  0.2878  0.2703
  324MOL0     C44618  11.216  12.856  -1.072 -0.6756  0.3480 -0.0930
  324MOL0    Cl44619  11.266  12.899  -1.239 -0.2588 -0.0454  0.1132
  324MOL0     C44620  10.879  12.470  -0.196  0.5139 -0.1007 -0.5811
  324MOL0     C44621  10.803  12.352  -0.160 -0.5935  0.4125 -0.2418
  324MOL0     O44622  10.484  12.266  -0.170  0.2423 -0.6540 -0.6440
  324MOL0     C44623  10.457  11.956  -0.186 -0.5373 -0.1861  0.1957
  324MOL0     C44624  10.403  11.838  -0.132  0.1855  0.5958 -1.0972
  324MOL0     N44625  10.202  11.340   0.608  1.3069  0.6031 -0.4213
  324MOL0     N44626  10.218  11.309   0.734  0.4524 -0.3849  0.3621
  324MOL0     C44627  10.846  11.226   1.773  0.5453  0.2976 -0.3155
  324MOL0     C44628  10.935  11.277   1.875 -0.4660 -0.4163  0.0493
  324MOL0     C44629  11.242  11.277   2.226  1.3349 -0.1156  0.0691
  324MOL0     C44630  11.319  11.345   2.129  0.1889  0.2614 -0.3755
  324MOL0     C44631  11.446  11.405   2.156  0.8603  0.2633 -0.2922
  324MOL0     C44632  11.489  11.398   2.291  0.2538 -0.0283 -0.2596
  324MOL0     O44633  11.602  11.449   2.343 -0.0709  0.0738  0.5009
  324MOL0     C44634  11.701  11.470   2.244  0.3327 -0.3699  0.0498
  324MOL0     C44635  11.845  11.467   2.307  0.3901  0.4210 -0.7806
  324MOL0     C44636  11.862  11.576   2.423  0.2089 -0.2433  0.0962
  324MOL0     C44637  11.859  11.710   2.354  0.8218 -0.1705  0.2280
  324MOL0     C44638  11.919  11.823   2.431 -0.2150  0.4680 -0.2737
  324MOL0     C44639  11.981  11.904   2.499  0.0691  0.7035 -1.0809
  324MOL0     C44640  11.424  11.324   2.383 -0.0804  0.3449  0.4394
  324MOL0     C44641  11.300  11.267   2.359  0.1793 -0.5833  0.0381
  324MOL0     C44642  11.234  11.197   2.474 -0.5525 -0.6346  0.4160
  324MOL0     H44643  11.029  10.981   2.009  0.1393 -1.5971 -0.1807
  324MOL0     H44644  10.864  10.902   1.822  3.0045 -1.4767 -0.4707
  324MOL0     H44645  10.645  11.197   1.596  3.1745  1.8011 -1.9893
  324MOL0     H44646  10.597  11.049   1.522  0.2662 -1.4512 -1.4239
  324MOL0     H44647  10.852  11.211   1.462 -0.2170  0.8247 -1.7479
  324MOL0     H44648  10.827  11.048   1.411  0.3721  0.2334 -0.3477
  324MOL0     H44649  10.598  11.244   1.363 -1.0127 -1.7196 -1.1065
  324MOL0     H44650  10.754  11.280   1.273  1.6557 -0.0536  0.9685
  324MOL0     H44651  10.751  11.046   1.195 -1.7837 -1.0229 -0.0200
  324MOL0     H44652  10.587  11.036   1.259  2.0992 -1.6159  0.0192
  324MOL0     H44653  10.554  11.093   1.027 -0.5885  1.4580 -2.4938
  324MOL0     H44654  10.688  11.204   1.026 -2.5038  4.3442 -0.0470
  324MOL0     H44655  10.415  11.231   1.154 -0.5334 -2.1155 -3.3854
  324MOL0     H44656  10.520  11.374   1.139  0.4566  0.1596 -0.0194
  324MOL0     H44657  10.393  11.200   0.918 -1.9546  2.0866 -2.7580
  324MOL0     H44658  10.528  11.310   0.879 -0.6015  0.0505 -0.2184
  324MOL0     H44659  10.273  11.393   1.010  2.3526 -0.7748  1.0715
  324MOL0     H44660  10.393  11.507   0.955 -1.7298 -0.0673  0.6691
  324MOL0     H44661  10.337  11.610   0.748  0.8975 -0.8769  1.7604
  324MOL0     H44662  10.357  11.605   0.471  1.2629 -0.7755  0.3126
  324MOL0     H44663  10.179  11.571   0.430  1.3194  1.7650  1.9018
  324MOL0     H44664  10.425  11.423   0.355 -0.4745 -2.2016 -1.1525
  324MOL0     H44665  10.267  11.339   0.339 -2.1757  0.7631 -1.4823
  324MOL0     H44666  10.332  11.458   0.117 -2.6947 -0.7184  0.4778
  324MOL0     H44667  10.181  11.517   0.188  0.0828 -0.8895 -0.0774
  324MOL0     H44668  10.298  11.724   0.241 -1.6562 -0.3938 -1.4384
  324MOL0     H44669  10.459  11.645   0.227  0.0386  0.1063  2.1742
  324MOL0     H44670  10.452  11.901   0.194 -1.4323 -1.3452 -0.5214
  324MOL0     H44671  10.548  12.225   0.148 -0.5900 -0.0734  0.5086
  324MOL0     H44672  10.685  12.147   0.068  1.2261 -2.5623  1.3180
  324MOL0     H44673  10.603  12.069   0.211  0.2026  1.5620  1.2789
  324MOL0     H44674  10.731  12.247  -0.465  4.3781 -0.7536 -1.1401
  324MOL0     H44675  10.828  12.464  -0.533 -2.1267  0.9334 -0.0839
  324MOL0     H44676  11.141  12.594  -0.268  1.2528 -2.7426 -1.5438
  324MOL0     H44677  11.153  12.503  -0.404  0.3015  0.0594  0.5455
  324MOL0     H44678  11.146  12.808  -0.380 -1.0551  1.0379 -1.5059
  324MOL0     H44679  11.286  12.702  -0.395  0.0083  1.5246 -0.0900
  324MOL0     H44680  11.216  12.847  -0.599 -0.0623 -0.0696  0.0961
  324MOL0     H44681  11.074  12.749  -0.620  0.8254 -4.1962  0.1212
  324MOL0     H44682  11.233  12.548  -0.653 -0.0110  0.3653  0.1192
  324MOL0     H44683  11.370  12.646  -0.614  0.1367 -1.1347 -1.1071
  324MOL0     H44684  11.345  12.609  -0.864 -2.0719 -0.4735 -1.3651
  324MOL0     H44685  11.182  12.655  -0.849  0.8347 -3.5225 -0.3448
  324MOL0     H44686  11.396  12.860  -0.776  1.0830  0.3209 -0.9377
  324MOL0     H44687  11.226  12.890  -0.811 -0.5987 -2.3997 -0.9213
  324MOL0     H44688  11.391  12.745  -1.022 -1.3205 -0.5717  1.3376
  324MOL0     H44689  11.408  12.924  -1.019 -2.4756  1.1904 -1.7389
  324MOL0     H44690  11.156  12.934  -1.025 -0.1991  1.2926 -1.0157
  324MOL0     H44691  11.155  12.766  -1.081  0.4603 -0.2487 -2.3173
  324MOL0     H44692  10.934  12.523  -0.119  0.7755  1.0152 -1.5105
  324MOL0     H44693  10.780  12.329  -0.057  1.3849 -0.8423 -0.0221
  324MOL0     H44694  10.452  11.977  -0.293 -2.0254  0.0880  0.3004
  324MOL0     H44695  10.348  11.767  -0.193 -3.0789 -0.5733  2.8131
  324MOL0     H44696  10.816  11.292   1.692  2.5361 -0.0421 -1.4035
  324MOL0     H44697  10.974  11.378   1.877  0.3621 -0.6827 -1.1910
  324MOL0     H44698  11.286  11.366   2.028 -1.9573  0.9238  0.4082
  324MOL0     H44699  11.507  11.446   2.076 -0.4764  0.6948 -1.1251
  324MOL0     H44700  11.695  11.402   2.158  0.0017  0.8936 -0.9665
  324MOL0     H44701  11.666  11.569   2.213 -0.5863 -0.6643  0.0893
  324MOL0     H44702  11.918  11.474   2.226  1.7210  2.1834  0.4980
  324MOL0     H44703  11.870  11.373   2.357 -3.3303  0.8563  2.4010
  324MOL0     H44704  11.793  11.563   2.507  0.6583  0.9409  0.6699
  324MOL0     H44705  11.965  11.572   2.460  1.0988  2.4049 -1.7812
  324MOL0     H44706  11.756  11.722   2.321  0.6298 -0.8996  0.5457
  324MOL0     H44707  11.913  11.713   2.259 -1.9069  0.6475 -1.4240
  324MOL0     H44708  12.019  11.978   2.566  1.9788 -3.3879  2.9329
  324MOL0     H44709  11.481  11.306   2.474 -0.7781 -3.3772  0.3162
  324MOL0     H44710  11.125  11.196   2.467 -0.5322 -1.7487  0.0644
  324MOL0     H44711  11.276  11.096   2.481  1.5183 -0.0952 -2.3636
  324MOL0     H44712  11.256  11.256   2.563  1.6919 -0.2221 -0.3501
  325MOL0     O44713   8.378   7.292   1.132 -0.3305  0.2385 -1.1588
  325MOL0     C44714   8.480   7.358   1.115  0.1983  0.1926  0.4953
  325MOL0     O44715   8.588   7.351   1.192 -0.6214  0.5229 -0.0561
  325MOL0     C44716   8.591   7.320   1.327  0.3499 -0.7804  1.0168
  325MOL0     C44717   8.482   7.315   1.416  0.0445 -0.8313 -0.8741
  325MOL0     C44718   8.501   7.315   1.554  0.6468 -0.8695  0.2916
  325MOL0     C44719   8.627   7.293   1.607 -0.5236  0.2610  0.6735
  325MOL0     O44720   8.647   7.296   1.744 -0.3386  0.5957  0.2815
  325MOL0     C44721   8.777   7.256   1.802  0.0257 -0.2919 -0.1057
  325MOL0     C44722   8.853   7.387   1.838 -0.4159  0.1317 -0.3884
  325MOL0     C44723   8.973   7.354   1.921  0.2393 -0.2120  0.2979
  325MOL0     C44724   8.942   7.311   2.062 -0.0573 -1.1349 -0.8788
  325MOL0     C44725   9.073   7.303   2.143  1.3378 -0.4863 -0.8205
  325MOL0     C44726   9.070   7.234   2.285 -0.2602 -0.2004 -1.0479
  325MOL0     C44727   9.003   7.095   2.276 -1.0126 -0.1475 -1.1683
  325MOL0     C44728   8.967   7.038   2.417 -0.0683  0.3757 -0.7454
  325MOL0     N44729   9.064   6.925   2.449 -0.2473  0.1303 -0.5795
  325MOL0     C44730   9.059   6.792   2.391 -0.1528  0.5362  0.7054
  325MOL0     C44731   9.155   6.722   2.450 -0.8955 -0.2462  0.2753
  325MOL0     C44732   9.174   6.578   2.422  0.3209  0.1645  0.1501
  325MOL0     C44733   9.259   6.549   2.299  0.9190  0.1046 -0.2992
  325MOL0     C44734   9.403   6.572   2.317 -0.3609 -0.1385 -0.3735
  325MOL0     C44735   9.483   6.522   2.203 -0.5655 -0.4923  0.0763
  325MOL0     O44736   9.433   6.556   2.076 -0.0262  0.4626  0.7343
  325MOL0     C44737   9.495   6.499   1.964  0.2079 -0.5199 -0.4880
  325MOL0     C44738   9.580   6.384   1.964  0.2671 -0.5741  0.4327
  325MOL0     C44739   9.655   6.352   1.845  0.8146  0.3251 -0.6211
  325MOL0     C44740   9.732   6.220   1.860 -0.4239  0.2591  0.1069
  325MOL0     C44741   9.638   6.441   1.734 -0.0878 -0.2422 -0.2810
  325MOL0     C44742   9.716   6.417   1.609 -0.3257 -0.8858 -0.0355
  325MOL0     O44743   9.665   6.470   1.492 -0.0911  0.0892 -0.0112
  325MOL0     C44744   9.751   6.503   1.384 -0.0786  0.7739 -0.3982
  325MOL0     C44745   9.755   6.638   1.340  0.0615 -0.1601 -0.2706
  325MOL0     C44746   9.846   6.669   1.237 -0.0766  0.5065  0.3332
  325MOL0     C44747   9.930   6.578   1.171 -0.2589 -0.3139  0.3050
  325MOL0     O44748  10.007   6.621   1.073 -0.3047 -0.1016 -0.2636
  325MOL0     C44749  10.006   6.542   0.947 -0.3752 -0.4377 -1.0156
  325MOL0     C44750  10.092   6.630   0.847  0.1750 -1.4838  0.2319
  325MOL0     C44751  10.239   6.664   0.890  0.1769  0.1440  0.4571
  325MOL0     C44752  10.322   6.759   0.796 -0.3551 -0.0522  0.1402
  325MOL0     C44753  10.446   6.808   0.860  0.0507 -0.4717 -0.6737
  325MOL0     C44754  10.410   6.915   0.971  0.1657  0.6178 -1.3709
  325MOL0     C44755  10.540   6.979   1.015  0.2794 -0.2581 -0.3713
  325MOL0     C44756  10.579   7.109   0.933  0.6486 -0.3144 -0.0089
  325MOL0    Cl44757  10.724   7.189   1.007 -0.2703  0.3501 -0.4083
  325MOL0     C44758   9.918   6.443   1.214  0.5013 -0.2160 -0.2060
  325MOL0     C44759   9.837   6.406   1.331  1.1969  0.1743  0.4384
  325MOL0     O44760   9.833   6.377   1.626 -0.0029 -0.4943 -0.1113
  325MOL0     C44761   9.535   6.544   1.728 -0.4667 -0.3702  0.0373
  325MOL0     C44762   9.468   6.573   1.848 -1.1704  0.6431  0.3831
  325MOL0     N44763   9.226   6.811   2.541 -0.0854 -0.8821 -0.4005
  325MOL0     N44764   9.166   6.930   2.544 -0.3089  0.1255 -0.1657
  325MOL0     C44765   8.738   7.270   1.513  0.1609  0.8487 -0.4883
  325MOL0     C44766   8.716   7.292   1.377 -0.3829  0.3647  0.3471
  325MOL0     C44767   8.481   7.470   1.009  0.8495  0.8410 -0.1514
  325MOL0     C44768   8.403   7.433   0.891  0.0731  0.6153 -0.3835
  325MOL0     C44769   8.424   7.512   0.773  0.3662  0.7231 -0.4240
  325MOL0     C44770   8.519   7.617   0.772 -1.0785 -0.0580  0.5182
  325MOL0     O44771   8.530   7.696   0.666 -1.3482 -0.0284  1.0955
  325MOL0     C44772   8.464   7.819   0.680 -0.9895 -0.2872  0.5303
  325MOL0     C44773   8.348   7.846   0.587  0.0383  0.0231  0.1781
  325MOL0     C44774   8.389   7.892   0.444  0.6627 -0.3659  0.9291
  325MOL0     C44775   8.282   7.874   0.340  0.0731 -0.3315  0.0306
  325MOL0     C44776   8.167   7.965   0.344 -1.1518 -0.0133  0.0147
  325MOL0     C44777   8.086   8.042   0.395 -0.4427  0.7146 -0.1576
  325MOL0     C44778   8.589   7.652   0.895  0.2688  0.4380 -0.0229
  325MOL0     C44779   8.575   7.573   1.006  0.1873 -0.1198 -0.6022
  325MOL0     C44780   8.667   7.616   1.120 -0.0763 -0.2922 -0.1063
  325MOL0     H44781   8.387   7.361   1.394 -0.0120  1.1723  2.7399
  325MOL0     H44782   8.420   7.323   1.626  0.2785  2.1806 -0.3477
  325MOL0     H44783   8.820   7.177   1.741 -1.1885 -0.2488 -1.0573
  325MOL0     H44784   8.756   7.197   1.891  1.0078 -1.1442 -0.4216
  325MOL0     H44785   8.879   7.445   1.749 -1.2485  1.0084 -0.0847
  325MOL0     H44786   8.790   7.450   1.902  0.2296  0.5287 -0.1271
  325MOL0     H44787   9.050   7.291   1.875  1.2204  0.4965  0.9252
  325MOL0     H44788   9.021   7.453   1.925  1.8939 -0.9464 -0.5026
  325MOL0     H44789   8.874   7.378   2.115 -0.1037 -1.6813 -0.2303
  325MOL0     H44790   8.889   7.217   2.047 -1.4520 -0.5110 -0.0954
  325MOL0     H44791   9.103   7.406   2.167 -1.0063 -0.2487  1.6147
  325MOL0     H44792   9.147   7.249   2.084 -0.3469 -0.5418 -3.0169
  325MOL0     H44793   9.170   7.232   2.327 -1.0282  0.2497  0.9263
  325MOL0     H44794   9.011   7.303   2.346 -0.6937 -1.2629 -0.2270
  325MOL0     H44795   9.078   7.029   2.234  0.3273 -1.4368  2.8096
  325MOL0     H44796   8.910   7.089   2.218 -0.4293 -0.7969 -2.0640
  325MOL0     H44797   8.986   7.108   2.499 -2.1622  1.1405 -0.8589
  325MOL0     H44798   8.866   6.997   2.404 -0.3152  0.6629  0.1593
  325MOL0     H44799   8.982   6.762   2.321  2.5388 -1.2694 -1.7201
  325MOL0     H44800   9.075   6.535   2.403 -0.2328  0.8572  1.3476
  325MOL0     H44801   9.220   6.529   2.509  2.3826  3.4390  1.0683
  325MOL0     H44802   9.241   6.451   2.253  1.5504  0.4981 -1.4062
  325MOL0     H44803   9.232   6.615   2.217  1.5693  0.4869 -0.2182
  325MOL0     H44804   9.432   6.678   2.326  1.5271 -0.5127 -1.5017
  325MOL0     H44805   9.436   6.511   2.401  1.5352 -2.2709 -2.4963
  325MOL0     H44806   9.586   6.548   2.228 -1.1270  1.6595  0.2754
  325MOL0     H44807   9.477   6.413   2.218  0.0173 -0.4269  0.9228
  325MOL0     H44808   9.586   6.330   2.058 -1.2934 -0.5422  0.5809
  325MOL0     H44809   9.756   6.177   1.762  3.1774 -1.9420  1.7425
  325MOL0     H44810   9.672   6.149   1.917  2.1742 -0.1633  2.5496
  325MOL0     H44811   9.832   6.233   1.903  0.4636 -0.7273 -1.5433
  325MOL0     H44812   9.690   6.703   1.397 -2.2499 -4.6936  2.8444
  325MOL0     H44813   9.838   6.773   1.204 -3.2542  0.3250  0.2066
  325MOL0     H44814  10.056   6.445   0.950 -0.4752 -0.5211 -1.8512
  325MOL0     H44815   9.904   6.519   0.917 -0.5599 -0.3254 -0.4905
  325MOL0     H44816  10.086   6.577   0.751 -1.7065  0.5893 -0.9171
  325MOL0     H44817  10.047   6.729   0.832 -0.6723 -1.8126  0.5609
  325MOL0     H44818  10.297   6.572   0.898  3.5699  2.0330 -0.6837
  325MOL0     H44819  10.230   6.715   0.987  0.4901  2.0872 -0.4964
  325MOL0     H44820  10.251   6.837   0.767  0.5170  0.4425 -0.7475
  325MOL0     H44821  10.343   6.698   0.707 -0.5566  1.2446 -0.8377
  325MOL0     H44822  10.497   6.727   0.913  0.7536 -0.0966 -0.7718
  325MOL0     H44823  10.513   6.853   0.787  1.3377 -1.3317 -0.0533
  325MOL0     H44824  10.352   6.866   1.049 -0.9281  1.7341 -1.4512
  325MOL0     H44825  10.342   6.992   0.933 -1.3979 -0.1505 -0.2459
  325MOL0     H44826  10.619   6.903   1.019  0.8884  0.3334 -0.8279
  325MOL0     H44827  10.532   7.009   1.120  1.7637  0.0204 -0.3011
  325MOL0     H44828  10.493   7.177   0.928  0.0006 -1.1381 -0.3319
  325MOL0     H44829  10.613   7.076   0.834  0.7860  0.0053 -0.0705
  325MOL0     H44830   9.988   6.369   1.178 -0.5154 -2.2079  1.6892
  325MOL0     H44831   9.835   6.305   1.371  1.0547  0.6464  1.6824
  325MOL0     H44832   9.509   6.607   1.644 -4.9086 -0.5712  1.0308
  325MOL0     H44833   9.406   6.662   1.857  0.6635  2.1569 -1.0699
  325MOL0     H44834   8.838   7.264   1.555  1.1218  5.4767 -1.5270
  325MOL0     H44835   8.802   7.273   1.313 -0.4098 -1.1131  0.7119
  325MOL0     H44836   8.345   7.346   0.865  1.9535 -0.5991 -0.7293
  325MOL0     H44837   8.371   7.483   0.683 -1.6709 -1.8338  1.4304
  325MOL0     H44838   8.435   7.827   0.786  0.7451 -0.3750  1.0458
  325MOL0     H44839   8.536   7.901   0.676  0.1176 -1.1544  1.7600
  325MOL0     H44840   8.270   7.911   0.626 -2.5223 -0.7980 -3.1653
  325MOL0     H44841   8.299   7.749   0.576  1.5124 -0.6499 -0.7531
  325MOL0     H44842   8.421   7.995   0.424  0.0944 -0.8412 -3.4407
  325MOL0     H44843   8.468   7.825   0.410  0.3638  0.5565 -1.8266
  325MOL0     H44844   8.246   7.771   0.339 -2.2635  0.3992 -1.9186
  325MOL0     H44845   8.326   7.911   0.246 -0.4770  0.3084  0.0227
  325MOL0     H44846   8.008   8.111   0.422  0.6389  1.0268  2.4767
  325MOL0     H44847   8.655   7.738   0.895 -0.1880  0.7940 -0.5957
  325MOL0     H44848   8.739   7.537   1.142  1.0197  0.0898 -2.1170
  325MOL0     H44849   8.725   7.701   1.083 -1.1305 -0.3442 -1.9998
  325MOL0     H44850   8.610   7.634   1.212 -1.1033 -0.0396 -0.7627
  326MOL0     O44851   9.001   9.459  10.281 -0.4404  0.0541 -0.2830
  326MOL0     C44852   9.112   9.440  10.312 -1.4198  0.2051  0.7547
  326MOL0     O44853   9.156   9.436  10.440  0.0755 -0.3571 -0.1399
  326MOL0     C44854   9.060   9.491  10.536  0.6122  0.4290  0.8229
  326MOL0     C44855   8.976   9.405  10.600  0.2866  0.2545  0.1781
  326MOL0     C44856   8.884   9.445  10.698  0.0832 -0.5625 -0.2045
  326MOL0     C44857   8.877   9.584  10.726 -0.6842 -0.3544 -0.5507
  326MOL0     O44858   8.776   9.623  10.818  0.2330  0.0432 -0.2575
  326MOL0     C44859   8.725   9.756  10.814 -0.0836 -0.3867  0.0817
  326MOL0     C44860   8.580   9.768  10.862 -0.2003 -0.0875 -0.1212
  326MOL0     C44861   8.481   9.687  10.764  0.5725 -0.2123  0.0604
  326MOL0     C44862   8.336   9.723  10.799  0.3822 -0.1034 -0.1007
  326MOL0     C44863   8.222   9.638  10.732 -0.3719 -0.4777 -0.5088
  326MOL0     C44864   8.186   9.687  10.597 -0.3743 -0.3772 -0.0783
  326MOL0     C44865   8.068   9.590  10.532 -0.5787 -0.5242 -0.6511
  326MOL0     C44866   8.112   9.445  10.506  0.3812 -0.0539 -0.2226
  326MOL0     N44867   8.252   9.426  10.467 -0.7820 -0.1981  0.6675
  326MOL0     C44868   8.323   9.498  10.377  0.0744 -0.4466 -1.2406
  326MOL0     C44869   8.450   9.456  10.400  0.0587 -0.1577  1.3327
  326MOL0     C44870   8.576   9.519  10.334  0.0393  0.5135 -0.2482
  326MOL0     C44871   8.560   9.572  10.195 -0.7225 -0.0140 -0.4871
  326MOL0     C44872   8.697   9.576  10.117  0.2324  0.4428 -0.4891
  326MOL0     C44873   8.665   9.575   9.969  0.2773 -0.7184 -0.3463
  326MOL0     O44874   8.784   9.553   9.899 -0.1744 -0.3082  0.6940
  326MOL0     C44875   8.764   9.562   9.760 -0.9360 -0.4779 -0.4074
  326MOL0     C44876   8.883   9.527   9.687  0.5505  0.8458  0.6263
  326MOL0     C44877   8.886   9.539   9.544 -1.0613 -0.4737  1.0192
  326MOL0     C44878   9.021   9.508   9.473  0.3801  0.2828  0.4002
  326MOL0     C44879   8.773   9.585   9.474 -0.0899  0.4560  0.3340
  326MOL0     C44880   8.773   9.614   9.328  0.0755  0.5027 -0.4975
  326MOL0     O44881   8.658   9.587   9.253  0.2542  0.2136  0.2999
  326MOL0     C44882   8.644   9.610   9.118 -0.7692 -0.1756 -0.2468
  326MOL0     C44883   8.750   9.596   9.032  1.0469  0.3951 -0.0016
  326MOL0     C44884   8.728   9.632   8.893 -0.0183  0.8074  0.6767
  326MOL0     C44885   8.602   9.674   8.845  0.6749 -0.6498 -0.7380
  326MOL0     O44886   8.590   9.705   8.716 -0.8141 -0.2847 -0.0691
  326MOL0     C44887   8.480   9.790   8.672 -0.7520 -0.7279  0.1124
  326MOL0     C44888   8.468   9.788   8.518  0.8096  0.7491  0.8328
  326MOL0     C44889   8.393   9.903   8.455 -1.0050  0.1299 -0.3827
  326MOL0     C44890   8.423   9.906   8.292  0.6856 -0.2072 -0.8462
  326MOL0     C44891   8.349  10.006   8.205  0.1154 -0.5017 -0.1714
  326MOL0     C44892   8.192  10.014   8.236  0.4093 -0.3825  0.0766
  326MOL0     C44893   8.124  10.143   8.170 -0.0423 -0.2915 -0.0109
  326MOL0     C44894   7.973  10.156   8.191  0.1815 -0.8525 -0.0237
  326MOL0    Cl44895   7.915  10.143   8.369 -0.0272 -0.2548 -0.0667
  326MOL0     C44896   8.495   9.681   8.935  0.0970  0.2633 -0.1801
  326MOL0     C44897   8.519   9.649   9.072 -0.2157 -0.0778 -0.2298
  326MOL0     O44898   8.878   9.670   9.290 -0.3497  0.3543 -1.0023
  326MOL0     C44899   8.654   9.597   9.548  0.7162 -1.1230  0.1569
  326MOL0     C44900   8.647   9.589   9.693 -0.1720  0.3344 -0.0137
  326MOL0     N44901   8.459   9.362  10.495  0.5187  0.2431  0.5519
  326MOL0     N44902   8.339   9.351  10.547 -0.1965 -0.5362  0.9181
  326MOL0     C44903   8.962   9.676  10.660 -0.8342  0.4988  0.7597
  326MOL0     C44904   9.049   9.628  10.561 -0.1825  0.2713  0.5361
  326MOL0     C44905   9.218   9.411  10.210  0.3032 -0.5375  0.2575
  326MOL0     C44906   9.330   9.338  10.246 -0.9736  1.2984  0.5888
  326MOL0     C44907   9.439   9.314  10.162  0.1953  0.3015 -0.3205
  326MOL0     C44908   9.427   9.339  10.021  0.8570 -0.1468  1.1644
  326MOL0     O44909   9.522   9.323   9.919  1.2557 -0.5052 -0.1430
  326MOL0     C44910   9.647   9.271   9.961 -0.1686 -0.5364  0.0110
  326MOL0     C44911   9.724   9.268   9.837 -0.0820  0.5598 -0.2572
  326MOL0     C44912   9.872   9.235   9.875 -0.7352  0.4092  0.6852
  326MOL0     C44913   9.964   9.251   9.752 -0.2773 -0.5374  0.6274
  326MOL0     C44914   9.913   9.202   9.625  0.2563  0.4809 -0.0864
  326MOL0     C44915   9.882   9.160   9.519  0.2334  0.2225  0.0468
  326MOL0     C44916   9.303   9.396   9.979 -0.1607  0.2529  0.2658
  326MOL0     C44917   9.198   9.434  10.073  0.0757  0.4682 -0.2518
  326MOL0     C44918   9.080   9.520  10.025 -0.8649  0.6234 -0.1367
  326MOL0     H44919   8.975   9.307  10.554  0.2464  1.3462 -2.2873
  326MOL0     H44920   8.811   9.379  10.745 -0.8948  3.0241  3.9205
  326MOL0     H44921   8.720   9.776  10.707  0.9083 -1.3425 -0.1562
  326MOL0     H44922   8.794   9.833  10.850 -1.3367  1.9904 -2.2800
  326MOL0     H44923   8.574   9.738  10.967  0.7446  1.3967  0.3942
  326MOL0     H44924   8.558   9.875  10.866 -2.7521 -0.5968  2.5466
  326MOL0     H44925   8.498   9.723  10.662 -0.7344  1.5113  0.4021
  326MOL0     H44926   8.495   9.579  10.776  3.3869 -0.3280 -2.8255
  326MOL0     H44927   8.329   9.723  10.908 -0.1712 -1.1089 -0.1273
  326MOL0     H44928   8.322   9.829  10.773  0.5486  0.2818  1.2978
  326MOL0     H44929   8.128   9.642  10.788 -1.1293  2.0760 -1.8357
  326MOL0     H44930   8.259   9.535  10.736  1.1997 -0.1130 -3.4575
  326MOL0     H44931   8.145   9.788  10.602  3.8173  1.5941 -1.1880
  326MOL0     H44932   8.268   9.691  10.524  0.3815 -1.5596  0.6770
  326MOL0     H44933   8.031   9.625  10.435 -0.9532  1.3902  0.1352
  326MOL0     H44934   7.980   9.590  10.597 -2.3840  3.0631 -2.7329
  326MOL0     H44935   8.085   9.380  10.591  1.0390  0.6683  0.5548
  326MOL0     H44936   8.050   9.409  10.423  2.4932 -1.8626 -1.1052
  326MOL0     H44937   8.290   9.574  10.307 -0.4933  1.3293  0.8431
  326MOL0     H44938   8.659   9.450  10.348 -1.4819 -1.3972 -0.2816
  326MOL0     H44939   8.610   9.609  10.386 -0.6838  2.1484 -2.4060
  326MOL0     H44940   8.481   9.517  10.142  1.3026 -3.4366 -0.2178
  326MOL0     H44941   8.522   9.675  10.188 -1.4584 -0.3727 -2.7205
  326MOL0     H44942   8.767   9.656  10.140  0.3497  0.4153 -0.7449
  326MOL0     H44943   8.743   9.480  10.139 -3.7790 -1.0647  2.4785
  326MOL0     H44944   8.600   9.490   9.948 -1.6359  0.2292  1.3820
  326MOL0     H44945   8.619   9.671   9.941 -0.9126 -1.1861 -0.0588
  326MOL0     H44946   8.974   9.492   9.736 -0.3876 -0.2231  1.6552
  326MOL0     H44947   9.069   9.600   9.438  1.5864 -1.0159 -1.5961
  326MOL0     H44948   9.008   9.447   9.383 -0.3228 -1.0632  1.3746
  326MOL0     H44949   9.084   9.457   9.547 -0.3264 -0.6840  0.3558
  326MOL0     H44950   8.846   9.565   9.071  0.3978 -2.2627 -0.2854
  326MOL0     H44951   8.802   9.612   8.817 -1.1978 -0.9532 -0.0685
  326MOL0     H44952   8.386   9.759   8.719  1.2365 -1.2397  4.2146
  326MOL0     H44953   8.509   9.891   8.705 -1.0578 -0.9380  1.0650
  326MOL0     H44954   8.568   9.791   8.474 -0.2061  0.5358 -1.6086
  326MOL0     H44955   8.412   9.700   8.484  1.2996  0.7558  0.0029
  326MOL0     H44956   8.440   9.992   8.498 -2.2967  1.3120 -1.3540
  326MOL0     H44957   8.290   9.883   8.486 -0.3885  3.1806  4.7873
  326MOL0     H44958   8.389   9.810   8.251 -0.4146 -0.5037  0.6626
  326MOL0     H44959   8.532   9.914   8.281  1.0218 -0.0546  1.9440
  326MOL0     H44960   8.385  10.107   8.227 -1.2503  0.4879 -2.1931
  326MOL0     H44961   8.369   9.980   8.101  1.5816  1.2178 -0.3597
  326MOL0     H44962   8.166  10.024   8.342  0.6201  1.2919  0.0051
  326MOL0     H44963   8.142   9.922   8.206  2.3333 -1.0268 -1.3306
  326MOL0     H44964   8.145  10.155   8.063 -2.7502  3.1559 -0.3515
  326MOL0     H44965   8.169  10.230   8.219 -2.3939  1.0925 -0.1650
  326MOL0     H44966   7.931  10.068   8.142  0.9793 -0.8863 -0.6591
  326MOL0     H44967   7.929  10.246   8.148  0.7077  1.3457  3.5991
  326MOL0     H44968   8.393   9.703   8.907  0.3127  1.5717  0.0019
  326MOL0     H44969   8.456   9.658   9.160  1.8369  1.5376  1.1856
  326MOL0     H44970   8.566   9.634   9.495 -1.0688 -0.2865  3.4087
  326MOL0     H44971   8.561   9.621   9.750 -0.1096  2.5510 -1.0664
  326MOL0     H44972   8.966   9.782  10.683 -1.7290  0.1893  2.4530
  326MOL0     H44973   9.116   9.693  10.506 -0.3201  1.2919  1.5235
  326MOL0     H44974   9.342   9.304  10.348 -1.0475 -0.9235 -0.0888
  326MOL0     H44975   9.517   9.259  10.215 -1.4861 -0.6466  1.2690
  326MOL0     H44976   9.691   9.346  10.029 -2.0672 -0.8651  1.7139
  326MOL0     H44977   9.650   9.174  10.011  2.0284 -0.0706  0.9219
  326MOL0     H44978   9.704   9.362   9.785 -1.5871 -0.0216 -0.7854
  326MOL0     H44979   9.687   9.188   9.772  0.1855 -0.3276  0.6575
  326MOL0     H44980   9.916   9.294   9.955 -0.1370  1.6779 -0.5346
  326MOL0     H44981   9.876   9.131   9.909 -0.1909  1.3327  3.7434
  326MOL0     H44982  10.066   9.213   9.759 -0.1256 -0.0959  0.8933
  326MOL0     H44983   9.981   9.359   9.738 -0.5906 -0.5916 -0.2310
  326MOL0     H44984   9.868   9.117   9.422  0.5705  0.0441  0.0780
  326MOL0     H44985   9.293   9.448   9.884  0.7076  1.6841  0.9153
  326MOL0     H44986   9.082   9.617  10.076 -0.3865  0.0696  0.9306
  326MOL0     H44987   9.079   9.532   9.917 -3.9540 -0.5272 -0.3067
  326MOL0     H44988   8.984   9.478  10.056 -0.7784  0.5402  0.0205
  327MOL0     O44989   9.647   4.498   6.088 -0.8661 -0.0052  0.5047
  327MOL0     C44990   9.692   4.572   5.993 -0.0947  0.2549 -0.7843
  327MOL0     O44991   9.768   4.533   5.895 -1.0506 -0.2496  0.0689
  327MOL0     C44992   9.797   4.404   5.883 -0.1737 -0.3956 -0.0834
  327MOL0     C44993   9.692   4.302   5.873 -0.7039 -0.5535 -0.2410
  327MOL0     C44994   9.741   4.175   5.859 -0.0528  0.7910 -0.4154
  327MOL0     C44995   9.880   4.144   5.874  0.2128 -0.9362 -0.7446
  327MOL0     O44996   9.931   4.013   5.878  0.5882 -0.2241  0.4645
  327MOL0     C44997   9.872   3.903   5.940 -0.5707  0.4253  0.3525
  327MOL0     C44998   9.951   3.891   6.081  0.4952  0.2594  0.1177
  327MOL0     C44999  10.099   3.855   6.036  0.6197 -1.0888  0.2159
  327MOL0     C45000  10.178   3.812   6.162  0.1172  0.2482 -1.1543
  327MOL0     C45001  10.332   3.787   6.130 -0.4837 -0.0045 -0.5148
  327MOL0     C45002  10.391   3.740   6.263 -0.5378  0.9172  0.8634
  327MOL0     C45003  10.540   3.736   6.278  0.0439 -0.5385  0.4711
  327MOL0     C45004  10.588   3.677   6.408 -0.4068  0.4485  0.4595
  327MOL0     N45005  10.575   3.528   6.397  0.4397 -0.2882  0.2865
  327MOL0     C45006  10.493   3.450   6.471  0.0830 -0.3264 -0.1167
  327MOL0     C45007  10.494   3.325   6.412 -0.2868  0.1425 -0.2529
  327MOL0     C45008  10.418   3.202   6.452 -0.8417 -0.0990  0.1910
  327MOL0     C45009  10.262   3.217   6.449 -0.3391  0.6269 -0.9932
  327MOL0     C45010  10.194   3.272   6.576  0.4380 -0.1292 -0.1535
  327MOL0     C45011  10.071   3.364   6.532 -0.1299  0.5182 -0.0250
  327MOL0     O45012   9.966   3.298   6.450  0.1814  0.6004 -0.1530
  327MOL0     C45013   9.884   3.198   6.505  0.5304 -0.0790 -0.2867
  327MOL0     C45014   9.892   3.140   6.632 -0.0693 -0.1053 -0.1711
  327MOL0     C45015   9.817   3.029   6.671  0.3047 -0.3541  0.6043
  327MOL0     C45016   9.819   2.990   6.822 -0.1854  0.1296 -0.7552
  327MOL0     C45017   9.729   2.966   6.575  0.7184 -0.0884 -0.4426
  327MOL0     C45018   9.665   2.831   6.602 -0.1169 -0.2787 -0.1039
  327MOL0     O45019   9.557   2.798   6.520 -0.2797  0.0000 -0.2970
  327MOL0     C45020   9.481   2.687   6.523  0.0243 -0.1389  0.0216
  327MOL0     C45021   9.407   2.662   6.413 -0.1399 -1.3450 -0.2187
  327MOL0     C45022   9.327   2.548   6.394 -1.6152  0.5696  0.1332
  327MOL0     C45023   9.320   2.459   6.505  0.7249  0.9366 -0.0842
  327MOL0     O45024   9.243   2.340   6.518  0.0591  0.3399  0.6234
  327MOL0     C45025   9.166   2.299   6.400  0.1635  0.6610  0.4309
  327MOL0     C45026   9.070   2.180   6.432  0.6064 -0.9509  0.0855
  327MOL0     C45027   8.981   2.186   6.560 -1.0033  0.5173  0.5895
  327MOL0     C45028   8.897   2.055   6.567 -0.2744 -0.2527  0.4159
  327MOL0     C45029   8.830   2.055   6.712  0.6513 -0.4376  0.4118
  327MOL0     C45030   8.930   2.057   6.836 -0.1187  1.1241 -0.1638
  327MOL0     C45031   9.049   1.958   6.826  0.1309 -1.0670 -0.2485
  327MOL0     C45032   9.027   1.815   6.890  0.4723 -0.4941  0.6475
  327MOL0    Cl45033   8.892   1.736   6.806  0.1197  0.2896  0.0619
  327MOL0     C45034   9.391   2.486   6.617 -0.3423  0.5899 -0.3224
  327MOL0     C45035   9.472   2.593   6.630 -0.0649 -0.8265 -0.6069
  327MOL0     O45036   9.718   2.756   6.678  0.0093 -0.1734 -0.3565
  327MOL0     C45037   9.724   3.027   6.453  0.5397 -0.6166 -0.6136
  327MOL0     C45038   9.797   3.137   6.417 -1.0024 -0.3402 -0.2304
  327MOL0     N45039  10.584   3.333   6.302 -0.3259 -1.3881 -0.8223
  327MOL0     N45040  10.623   3.452   6.287  0.6733  0.1219  0.0394
  327MOL0     C45041   9.973   4.243   5.868  0.4222  0.8294 -0.8457
  327MOL0     C45042   9.932   4.376   5.869  0.3054 -0.7648 -0.1429
  327MOL0     C45043   9.677   4.720   6.003  0.6766  0.4492  0.2802
  327MOL0     C45044   9.642   4.803   5.889  0.0363 -0.0590 -0.7597
  327MOL0     C45045   9.609   4.941   5.903 -0.1670  0.4987 -0.5694
  327MOL0     C45046   9.609   4.997   6.031 -0.8165  0.8610  0.9030
  327MOL0     O45047   9.583   5.125   6.055  0.2094  0.0647  0.2595
  327MOL0     C45048   9.485   5.202   5.990  0.4957  0.2917  1.0184
  327MOL0     C45049   9.412   5.312   6.078 -1.0157 -0.3763 -0.1563
  327MOL0     C45050   9.400   5.264   6.224  0.3139 -0.6408 -0.6291
  327MOL0     C45051   9.287   5.351   6.292 -0.0726 -1.0912  0.5570
  327MOL0     C45052   9.255   5.315   6.434  0.4113 -0.5439  0.6746
  327MOL0     C45053   9.238   5.275   6.545  0.8892 -0.2630  1.0194
  327MOL0     C45054   9.655   4.919   6.139 -0.2376  0.0686  0.1111
  327MOL0     C45055   9.680   4.787   6.127 -0.3487  0.5305  0.5354
  327MOL0     C45056   9.753   4.726   6.243 -0.0072  0.1374  0.7926
  327MOL0     H45057   9.586   4.326   5.864 -0.4757  0.7040  0.1752
  327MOL0     H45058   9.668   4.095   5.848 -0.0475  0.4909  1.4874
  327MOL0     H45059   9.880   3.823   5.865  0.9887  0.8418  0.0473
  327MOL0     H45060   9.766   3.914   5.964 -1.9589 -5.1430 -1.5185
  327MOL0     H45061   9.949   3.984   6.139  0.4700  0.0886  0.3927
  327MOL0     H45062   9.913   3.807   6.139 -1.0026  0.5659 -0.3702
  327MOL0     H45063  10.110   3.782   5.956 -1.3908 -5.0623  3.2034
  327MOL0     H45064  10.141   3.955   6.018 -3.5789  0.7563 -0.4668
  327MOL0     H45065  10.165   3.892   6.236  1.7652  2.5691 -3.1965
  327MOL0     H45066  10.128   3.718   6.187  0.0697  0.1757 -1.5186
  327MOL0     H45067  10.375   3.872   6.075  1.3462 -1.7788 -1.9390
  327MOL0     H45068  10.335   3.701   6.064 -0.1598 -3.6494  3.8025
  327MOL0     H45069  10.355   3.808   6.341 -1.0459  0.1899  1.2774
  327MOL0     H45070  10.350   3.643   6.292  0.9357 -0.2701 -0.7733
  327MOL0     H45071  10.564   3.843   6.283 -2.6155  0.3853 -2.6612
  327MOL0     H45072  10.601   3.705   6.193  2.7221  5.2904 -0.2681
  327MOL0     H45073  10.689   3.716   6.415  0.0608 -0.6032 -0.1478
  327MOL0     H45074  10.526   3.711   6.491 -0.7099 -0.7614  0.7565
  327MOL0     H45075  10.431   3.478   6.556  1.5722 -2.9564  2.0318
  327MOL0     H45076  10.459   3.161   6.545 -1.9599 -0.2480  0.6284
  327MOL0     H45077  10.443   3.124   6.379  0.9734  2.7620 -2.4724
  327MOL0     H45078  10.240   3.269   6.355 -0.3769 -0.9052 -1.8588
  327MOL0     H45079  10.232   3.114   6.430  1.3928  0.0235 -0.6433
  327MOL0     H45080  10.165   3.183   6.633  1.3993  1.0069  2.2627
  327MOL0     H45081  10.264   3.333   6.634 -0.2104  2.1045 -1.5721
  327MOL0     H45082  10.031   3.404   6.626 -0.4643  0.7540 -0.2687
  327MOL0     H45083  10.100   3.452   6.474  0.5353 -0.8216 -1.8352
  327MOL0     H45084   9.961   3.198   6.693 -0.9104 -0.5330  1.2220
  327MOL0     H45085   9.860   3.067   6.888 -2.2004  1.8988 -1.4389
  327MOL0     H45086   9.877   2.898   6.825 -1.0760 -0.4216  0.2311
  327MOL0     H45087   9.716   2.964   6.849  0.6628 -2.1907  0.5464
  327MOL0     H45088   9.420   2.747   6.346  3.2348 -1.6134 -0.0787
  327MOL0     H45089   9.284   2.526   6.296  1.4910 -5.0751 -0.4177
  327MOL0     H45090   9.108   2.383   6.361  1.2517  0.3549 -2.0219
  327MOL0     H45091   9.225   2.265   6.315  2.1522  0.0983  1.9499
  327MOL0     H45092   9.010   2.155   6.343 -3.2868  1.0695  1.9115
  327MOL0     H45093   9.146   2.102   6.441 -0.0504 -1.7598 -1.0157
  327MOL0     H45094   8.907   2.267   6.555 -1.2255  0.4712  2.4281
  327MOL0     H45095   9.052   2.205   6.641 -0.4022  2.1931 -0.2954
  327MOL0     H45096   8.968   1.973   6.555  1.2330  1.1640 -0.9457
  327MOL0     H45097   8.816   2.060   6.493 -0.2076 -2.2546  0.1582
  327MOL0     H45098   8.766   2.142   6.727 -0.1062 -0.5475 -1.8070
  327MOL0     H45099   8.771   1.964   6.731  1.3105 -0.4252  2.8605
  327MOL0     H45100   8.858   2.024   6.911 -3.1636 -4.3089 -4.6786
  327MOL0     H45101   8.969   2.159   6.844 -1.6798  1.8471 -1.2269
  327MOL0     H45102   9.131   2.011   6.875  0.4413 -0.0722 -1.7699
  327MOL0     H45103   9.084   1.930   6.726  0.4365 -1.2720 -0.0879
  327MOL0     H45104   9.000   1.826   6.996  1.4498 -0.2790  0.8846
  327MOL0     H45105   9.116   1.753   6.876  0.4332  0.0118 -2.4397
  327MOL0     H45106   9.381   2.418   6.702 -2.2496  1.9073  0.5833
  327MOL0     H45107   9.528   2.613   6.720 -1.5641 -0.3300  0.2431
  327MOL0     H45108   9.654   2.978   6.385 -0.0067 -0.8720  0.1189
  327MOL0     H45109   9.792   3.184   6.319 -1.5636 -1.9793 -1.0249
  327MOL0     H45110  10.078   4.216   5.863  0.2102 -0.2854  0.1268
  327MOL0     H45111  10.015   4.446   5.864  1.6074 -2.2306  0.0794
  327MOL0     H45112   9.629   4.765   5.788 -0.1511 -1.4793 -0.2158
  327MOL0     H45113   9.599   4.999   5.812  3.5824  1.6818 -0.4101
  327MOL0     H45114   9.531   5.259   5.908 -4.1162  2.3647 -0.5010
  327MOL0     H45115   9.410   5.144   5.936  2.8579 -0.7139 -1.4231
  327MOL0     H45116   9.316   5.338   6.032 -2.5414 -1.6512  2.0915
  327MOL0     H45117   9.472   5.404   6.080 -1.6530  0.1300 -1.8656
  327MOL0     H45118   9.378   5.157   6.228  4.7527 -1.7398 -0.5695
  327MOL0     H45119   9.502   5.280   6.260  0.0234  0.8886 -0.4260
  327MOL0     H45120   9.189   5.338   6.247 -0.4968  3.8521 -0.4855
  327MOL0     H45121   9.323   5.454   6.293  0.5904 -1.2473  3.6376
  327MOL0     H45122   9.217   5.239   6.644  1.5613  0.7792  1.5445
  327MOL0     H45123   9.668   4.967   6.236  3.3121 -0.5920  0.0819
  327MOL0     H45124   9.698   4.643   6.288 -1.3282  1.0573  0.9276
  327MOL0     H45125   9.847   4.676   6.219 -0.0404 -0.3492  1.6272
  327MOL0     H45126   9.772   4.801   6.320  0.4276 -1.1014  1.9256
  328MOL0     O45127   4.791   6.326   5.693 -0.1068 -0.2745 -0.5106
  328MOL0     C45128   4.862   6.246   5.753  0.4116 -0.0931 -0.1984
  328MOL0     O45129   4.862   6.232   5.889 -0.3399 -1.2765 -0.0804
  328MOL0     C45130   4.900   6.106   5.942 -0.2313 -0.1422  0.1014
  328MOL0     C45131   5.034   6.061   5.962 -0.8650  0.4080 -0.3609
  328MOL0     C45132   5.062   5.925   5.991  0.2835 -0.2561  0.0834
  328MOL0     C45133   4.957   5.828   5.995  0.9481 -0.1908  0.7619
  328MOL0     O45134   4.975   5.698   6.039 -0.5948 -0.1168 -0.0149
  328MOL0     C45135   5.101   5.628   6.011 -0.2716 -1.2328  0.7825
  328MOL0     C45136   5.076   5.471   6.030  0.4243 -0.0004  0.2539
  328MOL0     C45137   5.209   5.392   6.052  0.2954 -0.7590  0.0170
  328MOL0     C45138   5.228   5.374   6.214  0.3655 -0.1126 -0.1225
  328MOL0     C45139   5.333   5.273   6.275 -0.7074  0.2379  1.2844
  328MOL0     C45140   5.465   5.243   6.196 -0.2236  0.2885 -0.8348
  328MOL0     C45141   5.532   5.111   6.226 -0.0686 -0.3155  0.8665
  328MOL0     C45142   5.559   5.071   6.368 -0.1099 -0.4781 -0.0404
  328MOL0     N45143   5.636   4.947   6.367  1.8276 -0.0389  1.2124
  328MOL0     C45144   5.633   4.853   6.468 -0.6663 -0.7179  0.3250
  328MOL0     C45145   5.750   4.789   6.447 -0.5391  0.4037 -0.5423
  328MOL0     C45146   5.800   4.667   6.522 -0.0828  0.6034  0.1559
  328MOL0     C45147   5.712   4.545   6.505 -0.8932 -0.0697  0.7519
  328MOL0     C45148   5.720   4.472   6.370  0.1203 -0.0879 -0.4625
  328MOL0     C45149   5.621   4.363   6.339 -0.9125  0.0970 -0.1785
  328MOL0     O45150   5.623   4.263   6.438 -0.0262  0.3457  0.1315
  328MOL0     C45151   5.505   4.239   6.496 -0.9304  0.1455  0.4818
  328MOL0     C45152   5.506   4.229   6.635  0.0683 -0.1957  0.4618
  328MOL0     C45153   5.385   4.236   6.702 -1.6904  0.0989 -0.0381
  328MOL0     C45154   5.393   4.212   6.842  0.1131 -0.1403  0.6485
  328MOL0     C45155   5.265   4.251   6.628  0.4331  0.4202  0.0002
  328MOL0     C45156   5.142   4.274   6.697 -0.9743 -0.3395  0.6412
  328MOL0     O45157   5.047   4.181   6.660  0.0483  0.5122  0.1080
  328MOL0     C45158   4.922   4.188   6.709 -0.3195  0.1040 -0.2000
  328MOL0     C45159   4.900   4.184   6.845 -0.8477 -0.5410  0.1580
  328MOL0     C45160   4.771   4.201   6.900 -0.5673 -0.5820  0.7590
  328MOL0     C45161   4.653   4.202   6.817 -1.0767  0.0248 -0.9291
  328MOL0     O45162   4.534   4.224   6.878  0.0035  0.1597  0.4767
  328MOL0     C45163   4.418   4.152   6.838  0.1801  0.4839  0.1760
  328MOL0     C45164   4.310   4.262   6.806 -0.9094  0.5222 -0.6306
  328MOL0     C45165   4.323   4.317   6.661 -0.4254  0.4716 -0.4261
  328MOL0     C45166   4.200   4.411   6.642 -0.2560  0.3168  1.4979
  328MOL0     C45167   4.208   4.487   6.514  0.2389  0.1878 -0.5591
  328MOL0     C45168   4.066   4.495   6.456 -0.1293  0.6836 -0.0036
  328MOL0     C45169   3.965   4.584   6.526  0.5908 -0.5801  0.9194
  328MOL0     C45170   3.851   4.602   6.422  0.8992  0.2606  0.4335
  328MOL0    Cl45171   3.749   4.463   6.414  0.0739  0.3725 -0.2104
  328MOL0     C45172   4.685   4.188   6.674 -0.8713 -0.7448 -0.0480
  328MOL0     C45173   4.813   4.179   6.620  0.1512  0.2173  0.0308
  328MOL0     O45174   5.136   4.368   6.771 -0.2662 -0.7047  0.7376
  328MOL0     C45175   5.274   4.230   6.489  0.1522  0.6954 -0.8091
  328MOL0     C45176   5.387   4.221   6.419  0.4080 -0.1664 -1.2414
  328MOL0     N45177   5.828   4.843   6.353 -1.0243 -0.0089  1.6670
  328MOL0     N45178   5.755   4.930   6.298  0.7671 -0.1090  0.3024
  328MOL0     C45179   4.829   5.870   5.961 -0.5768  0.3252  0.2756
  328MOL0     C45180   4.804   6.004   5.938 -1.1426  0.5193 -0.5973
  328MOL0     C45181   4.949   6.158   5.664  0.1359 -1.2382 -0.0458
  328MOL0     C45182   5.083   6.182   5.683 -1.1457 -0.4784  0.6287
  328MOL0     C45183   5.163   6.096   5.603 -0.6731  0.6072  0.1041
  328MOL0     C45184   5.121   5.994   5.522 -0.0863 -0.9708  0.2309
  328MOL0     O45185   5.214   5.925   5.449  0.1179 -0.0021 -0.5269
  328MOL0     C45186   5.247   5.996   5.328 -0.3295 -0.0649 -0.5608
  328MOL0     C45187   5.243   5.904   5.220 -0.6003 -0.7854  0.4479
  328MOL0     C45188   5.358   5.798   5.221 -0.9631  0.1154  0.0359
  328MOL0     C45189   5.332   5.703   5.108 -0.2276 -0.5805 -0.0741
  328MOL0     C45190   5.432   5.593   5.114  0.2972  0.4800  1.3497
  328MOL0     C45191   5.522   5.511   5.100 -0.2557  0.5093  1.1167
  328MOL0     C45192   4.989   5.995   5.492  0.0448 -0.2784  0.4776
  328MOL0     C45193   4.898   6.074   5.566 -0.1464 -0.4665  0.3010
  328MOL0     C45194   4.753   6.055   5.533  0.5959 -0.0122  0.0283
  328MOL0     H45195   5.117   6.127   5.984 -1.0199 -0.5830  4.0214
  328MOL0     H45196   5.155   5.887   6.032  0.3895  0.1511  0.2309
  328MOL0     H45197   5.183   5.656   6.078  1.1271 -1.0935 -0.9271
  328MOL0     H45198   5.133   5.648   5.909  0.2314 -0.9501  0.9954
  328MOL0     H45199   5.012   5.447   6.116  2.1481 -0.2893  1.4944
  328MOL0     H45200   5.028   5.438   5.938  2.7497  3.7573 -2.5536
  328MOL0     H45201   5.207   5.298   5.996 -0.2450  0.3618 -1.9451
  328MOL0     H45202   5.287   5.463   6.022  0.3224 -1.2747 -1.1729
  328MOL0     H45203   5.268   5.470   6.248 -0.8555  1.2761 -2.3405
  328MOL0     H45204   5.131   5.346   6.256 -1.6983  0.1561 -4.1524
  328MOL0     H45205   5.283   5.175   6.278  3.5271 -2.1638  1.0201
  328MOL0     H45206   5.360   5.294   6.378 -1.2933 -0.1549  1.5269
  328MOL0     H45207   5.440   5.248   6.090 -1.4155  0.7246 -0.5507
  328MOL0     H45208   5.545   5.316   6.214  1.3839 -1.1769 -1.8166
  328MOL0     H45209   5.626   5.128   6.173 -0.0200 -0.4793  0.8976
  328MOL0     H45210   5.482   5.035   6.165  0.0871  0.6268 -0.4597
  328MOL0     H45211   5.612   5.155   6.413 -0.2800 -0.3613 -0.0561
  328MOL0     H45212   5.469   5.045   6.424  1.3248 -0.9021  2.1643
  328MOL0     H45213   5.562   4.837   6.548  1.0162 -0.3528  1.9652
  328MOL0     H45214   5.800   4.674   6.631 -5.1134  1.8991  0.3199
  328MOL0     H45215   5.902   4.646   6.488  0.0885  0.1737  0.9215
  328MOL0     H45216   5.735   4.470   6.581  2.1715 -0.8482 -0.7842
  328MOL0     H45217   5.612   4.586   6.516 -0.6063  0.8897 -0.0929
  328MOL0     H45218   5.696   4.542   6.289 -1.3607 -2.7855 -2.5076
  328MOL0     H45219   5.820   4.433   6.351  1.1008  1.7821  0.5924
  328MOL0     H45220   5.527   4.409   6.306  0.2206  2.3771 -0.3622
  328MOL0     H45221   5.661   4.323   6.245 -1.7639  0.8460 -0.8823
  328MOL0     H45222   5.597   4.205   6.689 -1.1563 -2.6265  1.6256
  328MOL0     H45223   5.298   4.187   6.889 -0.4099 -1.0476 -0.8453
  328MOL0     H45224   5.451   4.287   6.897  0.0105  0.6293 -0.2651
  328MOL0     H45225   5.451   4.120   6.857  0.3584  0.4248  3.8226
  328MOL0     H45226   4.990   4.186   6.906 -2.6021  2.6577  3.0106
  328MOL0     H45227   4.758   4.212   7.007  1.4520  3.9684  0.7553
  328MOL0     H45228   4.433   4.088   6.750  1.1587 -0.5361  1.0534
  328MOL0     H45229   4.382   4.080   6.912 -0.1708 -0.6893 -1.0851
  328MOL0     H45230   4.207   4.227   6.823 -0.9778  0.8452 -0.3369
  328MOL0     H45231   4.315   4.333   6.890  0.5482 -0.6207  0.2910
  328MOL0     H45232   4.342   4.234   6.593 -0.1434  1.1039 -1.1424
  328MOL0     H45233   4.416   4.376   6.662  0.7532 -1.2599 -1.6077
  328MOL0     H45234   4.204   4.491   6.715 -2.1426  1.5476  0.3223
  328MOL0     H45235   4.111   4.347   6.647  0.8469 -2.4945 -4.8152
  328MOL0     H45236   4.239   4.589   6.535  0.1610 -0.2498  2.0183
  328MOL0     H45237   4.270   4.427   6.447  0.7617  3.7100 -3.5320
  328MOL0     H45238   4.020   4.400   6.427  1.3709 -2.0250  5.1406
  328MOL0     H45239   4.081   4.545   6.360  1.9678 -2.3616 -1.4370
  328MOL0     H45240   4.017   4.678   6.548  0.8549 -0.7315  0.9386
  328MOL0     H45241   3.921   4.546   6.618 -3.1930  2.0269  0.4237
  328MOL0     H45242   3.887   4.633   6.324  2.3270  0.6492  1.0577
  328MOL0     H45243   3.786   4.687   6.446 -1.0045 -0.7278 -0.9697
  328MOL0     H45244   4.605   4.203   6.602 -0.9353 -0.3126  0.1064
  328MOL0     H45245   4.826   4.197   6.514 -0.7123  1.9709  0.2053
  328MOL0     H45246   5.176   4.219   6.444  0.2640 -2.5257 -0.5092
  328MOL0     H45247   5.375   4.210   6.311 -0.0039 -2.3074 -1.0232
  328MOL0     H45248   4.750   5.798   5.941  1.2680 -1.0436 -2.8853
  328MOL0     H45249   4.702   6.034   5.915 -1.9947 -2.3585 -0.9067
  328MOL0     H45250   5.122   6.252   5.756  1.8506  1.8270 -2.8695
  328MOL0     H45251   5.267   6.110   5.627 -1.4391  3.7428  2.1600
  328MOL0     H45252   5.176   6.070   5.291  0.9463 -0.0476 -3.1218
  328MOL0     H45253   5.342   6.050   5.336 -1.0932  1.1027  1.6067
  328MOL0     H45254   5.253   5.947   5.120 -1.2936  0.7364  1.0041
  328MOL0     H45255   5.148   5.849   5.215 -0.6256 -0.6671 -0.8679
  328MOL0     H45256   5.457   5.846   5.216  0.8822 -2.0984  6.0707
  328MOL0     H45257   5.364   5.743   5.315 -0.4761 -0.4512 -0.3156
  328MOL0     H45258   5.338   5.760   5.014 -2.3212  0.5517  0.4232
  328MOL0     H45259   5.230   5.665   5.122 -0.8855  0.1251 -2.4354
  328MOL0     H45260   5.592   5.431   5.090  1.1718  1.6687  1.5441
  328MOL0     H45261   4.951   5.944   5.404  1.4412 -2.0929  0.8668
  328MOL0     H45262   4.687   6.109   5.601 -2.1726 -0.2607 -2.3049
  328MOL0     H45263   4.722   6.081   5.432  1.2391 -1.6945 -0.6290
  328MOL0     H45264   4.735   5.947   5.528 -1.8008  0.3976 -2.2238
  329MOL0     O45265   6.842   0.090   7.769  0.2902 -0.4248  0.5645
  329MOL0     C45266   6.741   0.047   7.833 -0.1045 -0.0545  0.4734
  329MOL0     O45267   6.663   0.129   7.911  0.7186  0.1586  0.4354
  329MOL0     C45268   6.707   0.257   7.921 -0.3494  0.3274 -0.8398
  329MOL0     C45269   6.774   0.285   8.040  0.4927  0.4625 -0.1126
  329MOL0     C45270   6.827   0.413   8.060 -0.6225  0.4331  0.2277
  329MOL0     C45271   6.824   0.512   7.955  0.3134 -0.1385 -0.6272
  329MOL0     O45272   6.860   0.635   7.979  0.0230 -0.6168 -0.6600
  329MOL0     C45273   6.984   0.663   7.903  1.5837 -0.7943 -0.4194
  329MOL0     C45274   6.939   0.778   7.797  0.6112 -1.5317 -0.1247
  329MOL0     C45275   6.882   0.900   7.881 -0.1310  0.3125  0.2189
  329MOL0     C45276   6.960   0.947   8.010  0.8189  0.2709  0.1355
  329MOL0     C45277   6.916   1.080   8.056 -1.1990 -0.9400 -0.6930
  329MOL0     C45278   7.030   1.139   8.146 -0.2700 -1.3046 -0.6598
  329MOL0     C45279   6.982   1.264   8.221  0.0047 -0.4629  0.6237
  329MOL0     C45280   6.982   1.392   8.127 -0.8271  0.2633  0.8700
  329MOL0     N45281   6.932   1.510   8.193 -0.8129  0.5406 -1.0126
  329MOL0     C45282   6.968   1.634   8.162 -0.5572 -0.2255  0.5351
  329MOL0     C45283   6.917   1.719   8.256 -0.2917 -0.7357 -0.2744
  329MOL0     C45284   6.918   1.871   8.258 -0.8520 -0.0250 -0.8222
  329MOL0     C45285   7.060   1.922   8.270  0.0796 -1.4187  0.0936
  329MOL0     C45286   7.145   1.862   8.383 -0.1850  0.3841  0.5076
  329MOL0     C45287   7.105   1.895   8.521 -0.0987 -0.1176 -0.6198
  329MOL0     O45288   7.196   1.830   8.615 -0.0044 -0.5043 -0.1041
  329MOL0     C45289   7.184   1.699   8.648 -0.5453  0.3306 -0.0567
  329MOL0     C45290   7.292   1.654   8.731  0.0584  0.3649  0.3018
  329MOL0     C45291   7.305   1.519   8.749 -0.1726 -0.0086  0.3126
  329MOL0     C45292   7.431   1.464   8.830  0.6907  0.1112 -0.3198
  329MOL0     C45293   7.202   1.429   8.717 -0.4108  0.5009  0.8238
  329MOL0     C45294   7.217   1.276   8.710  0.7469 -0.0869 -0.1431
  329MOL0     O45295   7.118   1.208   8.637 -0.5347 -0.3687  0.3066
  329MOL0     C45296   7.128   1.077   8.621  0.5577  0.8781 -0.5928
  329MOL0     C45297   7.235   1.039   8.548 -0.4190  0.3488  0.6135
  329MOL0     C45298   7.233   0.902   8.504  0.3243 -0.0480  0.3121
  329MOL0     C45299   7.125   0.812   8.519 -0.8257 -0.6143  0.5015
  329MOL0     O45300   7.113   0.684   8.471  0.6082  0.1410  0.0468
  329MOL0     C45301   7.235   0.615   8.449 -0.2583 -0.8488  0.5593
  329MOL0     C45302   7.211   0.477   8.381  1.0379 -0.5564 -1.1306
  329MOL0     C45303   7.145   0.477   8.253  0.3503  0.4031  1.0025
  329MOL0     C45304   7.169   0.347   8.163 -0.7957 -0.0129  0.4049
  329MOL0     C45305   7.121   0.221   8.238  0.7391 -0.9571  0.7672
  329MOL0     C45306   7.125   0.088   8.160 -0.4970  0.1591  0.8072
  329MOL0     C45307   7.071   0.095   8.017  0.8915 -0.3073 -0.0041
  329MOL0     C45308   7.182   0.125   7.910  0.7675  0.3800  0.3300
  329MOL0    Cl45309   7.312  -0.009   7.906 -0.1015  0.1834 -0.0597
  329MOL0     C45310   7.029   0.857   8.608  0.7400 -0.7697  0.0866
  329MOL0     C45311   7.026   0.990   8.644  0.9605 -0.1626  0.2280
  329MOL0     O45312   7.308   1.216   8.762  0.4603  0.4895 -0.6767
  329MOL0     C45313   7.084   1.475   8.658 -0.1396 -0.2068  0.3803
  329MOL0     C45314   7.084   1.607   8.620 -0.6909  0.1755 -0.1504
  329MOL0     N45315   6.845   1.636   8.347  0.0865  0.0460  1.3639
  329MOL0     N45316   6.859   1.513   8.315  1.1242  0.0717  0.4149
  329MOL0     C45317   6.728   0.487   7.844 -0.7577  0.0700 -0.0367
  329MOL0     C45318   6.674   0.357   7.830 -0.1779 -0.0496 -0.6291
  329MOL0     C45319   6.714  -0.097   7.815  0.0265  0.7935  0.6207
  329MOL0     C45320   6.829  -0.181   7.782  0.1482  0.0296 -0.4214
  329MOL0     C45321   6.805  -0.318   7.757  0.3508 -0.4687  1.0410
  329MOL0     C45322   6.673  -0.368   7.774 -0.0348  0.5230 -0.3791
  329MOL0     O45323   6.646  -0.501   7.752 -0.5755  0.9785  0.5700
  329MOL0     C45324   6.697  -0.564   7.632  0.5551 -0.0928  0.1654
  329MOL0     C45325   6.732  -0.706   7.647 -0.9201  0.3127 -0.1170
  329MOL0     C45326   6.803  -0.755   7.519  0.2141  0.1396  0.2346
  329MOL0     C45327   6.713  -0.782   7.397  0.7393 -0.4991  0.4649
  329MOL0     C45328   6.795  -0.847   7.288  0.0707 -0.1227 -0.1315
  329MOL0     C45329   6.861  -0.905   7.211  0.1862 -0.1024 -1.0541
  329MOL0     C45330   6.583  -0.298   7.843  0.0402  0.3422 -1.1928
  329MOL0     C45331   6.590  -0.162   7.850 -0.3155 -0.5423  0.2946
  329MOL0     C45332   6.469  -0.089   7.904 -0.2677  0.8397 -0.3193
  329MOL0     H45333   6.780   0.213   8.121 -3.0636  3.3896  3.1569
  329MOL0     H45334   6.871   0.447   8.154  0.6429 -0.0567 -0.1696
  329MOL0     H45335   7.011   0.578   7.840  0.8322 -1.4205  0.0888
  329MOL0     H45336   7.060   0.688   7.978  1.6517 -3.7045  0.6050
  329MOL0     H45337   7.036   0.800   7.751  0.5879 -0.5062  0.2833
  329MOL0     H45338   6.864   0.735   7.731  1.0550 -0.1801 -1.5689
  329MOL0     H45339   6.870   0.979   7.806 -2.4089  0.6925  0.9197
  329MOL0     H45340   6.781   0.876   7.915 -0.6383  2.1466  0.0943
  329MOL0     H45341   6.961   0.874   8.091 -0.9813 -3.5000 -2.8996
  329MOL0     H45342   7.059   0.976   7.974  0.8030  1.6019  1.0931
  329MOL0     H45343   6.828   1.079   8.121 -0.2976 -0.2705  0.5836
  329MOL0     H45344   6.885   1.142   7.971  0.1502  0.9387  0.1272
  329MOL0     H45345   7.062   1.066   8.220 -1.8399  0.9027  2.4118
  329MOL0     H45346   7.124   1.168   8.099  0.7151 -1.8307  0.9275
  329MOL0     H45347   7.053   1.278   8.303  0.2792 -1.5220  0.5804
  329MOL0     H45348   6.886   1.242   8.270 -1.2290 -2.7163 -2.4272
  329MOL0     H45349   7.084   1.406   8.089 -0.8825 -1.5047  0.0061
  329MOL0     H45350   6.912   1.375   8.045  0.8192 -1.7305 -0.2068
  329MOL0     H45351   7.015   1.660   8.067 -2.3531  1.1719 -0.0293
  329MOL0     H45352   6.865   1.922   8.339  0.2075 -0.8502  0.4346
  329MOL0     H45353   6.880   1.902   8.161  1.0755 -1.1945 -2.0179
  329MOL0     H45354   7.109   1.893   8.177 -0.2179  0.9548 -0.8748
  329MOL0     H45355   7.049   2.031   8.268 -0.2878 -1.3001  3.2268
  329MOL0     H45356   7.161   1.758   8.354 -1.0347 -0.3033  2.3275
  329MOL0     H45357   7.245   1.905   8.375  0.0126  0.0492  1.1214
  329MOL0     H45358   7.090   2.003   8.530 -2.4250 -0.3382 -1.2263
  329MOL0     H45359   7.003   1.857   8.528 -0.5362  1.1932  0.8474
  329MOL0     H45360   7.380   1.714   8.751 -0.2051 -0.0999  3.2615
  329MOL0     H45361   7.416   1.437   8.935  2.1274  0.5550  0.0169
  329MOL0     H45362   7.508   1.539   8.846 -0.5012  0.9834  1.7295
  329MOL0     H45363   7.474   1.382   8.771  0.2749  0.1672 -0.7072
  329MOL0     H45364   7.317   1.101   8.513  0.9057 -2.1751 -1.0462
  329MOL0     H45365   7.319   0.869   8.446  0.1534  1.5229 -0.8964
  329MOL0     H45366   7.304   0.666   8.381  2.4555  0.7504  4.1725
  329MOL0     H45367   7.285   0.586   8.542  0.5878 -0.3212  0.2851
  329MOL0     H45368   7.308   0.426   8.391 -0.0231 -2.2965  1.5437
  329MOL0     H45369   7.135   0.423   8.438 -2.8134  2.1611 -3.2439
  329MOL0     H45370   7.191   0.554   8.191  0.7347 -1.3491 -0.9944
  329MOL0     H45371   7.036   0.484   8.259  0.0903 -1.5184 -0.6325
  329MOL0     H45372   7.277   0.345   8.147 -0.4852 -0.1313  2.2771
  329MOL0     H45373   7.132   0.358   8.060  4.8721  1.2809 -1.8293
  329MOL0     H45374   7.178   0.202   8.329  2.3202  2.0537  0.5485
  329MOL0     H45375   7.014   0.238   8.251  0.3304 -2.0897 -0.8297
  329MOL0     H45376   7.060   0.015   8.210 -2.3769  1.1039 -0.1773
  329MOL0     H45377   7.223   0.041   8.147  0.7676  2.5939  1.0006
  329MOL0     H45378   6.994   0.173   8.009  1.8623  0.7879  0.9669
  329MOL0     H45379   7.026  -0.003   7.998 -0.4896  1.0076 -5.4605
  329MOL0     H45380   7.235   0.220   7.926  0.8521  0.5223 -0.7638
  329MOL0     H45381   7.136   0.128   7.811 -1.2043 -4.5278  0.8059
  329MOL0     H45382   6.944   0.790   8.619  1.1828 -1.7478 -2.0364
  329MOL0     H45383   6.933   1.019   8.692 -0.9472 -2.2927 -1.9456
  329MOL0     H45384   6.999   1.410   8.637  0.1334 -0.2423 -0.6688
  329MOL0     H45385   6.998   1.634   8.559 -1.7980 -3.3064 -0.3853
  329MOL0     H45386   6.701   0.565   7.773  0.8928  0.6762 -0.0440
  329MOL0     H45387   6.615   0.341   7.741  0.1549  0.7008 -0.9929
  329MOL0     H45388   6.928  -0.137   7.772  1.3935 -2.4846  0.1163
  329MOL0     H45389   6.882  -0.389   7.729 -2.5822 -2.7476 -2.0562
  329MOL0     H45390   6.621  -0.563   7.553  1.7520  0.3393 -1.0291
  329MOL0     H45391   6.788  -0.510   7.603 -0.8213  3.0782  1.3000
  329MOL0     H45392   6.638  -0.755   7.673 -1.2702  1.5740  1.1359
  329MOL0     H45393   6.799  -0.713   7.733 -1.6407  2.5672  0.6933
  329MOL0     H45394   6.880  -0.680   7.500  0.8552  0.5209  3.7392
  329MOL0     H45395   6.857  -0.846   7.546  0.8712 -0.5057 -2.8421
  329MOL0     H45396   6.659  -0.692   7.365 -1.5409 -1.9101  0.1390
  329MOL0     H45397   6.633  -0.852   7.423  0.6617 -1.6522 -2.4760
  329MOL0     H45398   6.909  -0.960   7.132 -0.9374 -1.2940 -0.9499
  329MOL0     H45399   6.498  -0.348   7.887 -1.4748  0.9863 -3.2273
  329MOL0     H45400   6.378  -0.150   7.917  1.4184 -1.3472  2.3880
  329MOL0     H45401   6.489  -0.048   8.003  1.1297  1.2295 -0.7421
  329MOL0     H45402   6.445  -0.004   7.839 -2.3658 -1.3825 -2.6942
  330MOL0     O45403   4.673   4.529   0.688  0.0498  0.3537 -1.2799
  330MOL0     C45404   4.564   4.496   0.650 -0.4704 -0.0585  0.0320
  330MOL0     O45405   4.463   4.438   0.724 -0.7482 -0.2243  0.7851
  330MOL0     C45406   4.487   4.419   0.858  0.0883 -0.2781  0.6395
  330MOL0     C45407   4.551   4.311   0.900  0.4911 -0.2512 -0.9080
  330MOL0     C45408   4.564   4.300   1.040 -0.1193  0.7648 -0.2960
  330MOL0     C45409   4.534   4.399   1.128 -0.0396  0.7363  0.0769
  330MOL0     O45410   4.575   4.392   1.267 -0.7314 -1.0539  0.6503
  330MOL0     C45411   4.657   4.281   1.312 -0.2215 -0.0954 -0.1487
  330MOL0     C45412   4.669   4.284   1.465  0.4207  0.4431  0.4258
  330MOL0     C45413   4.538   4.304   1.525  0.7191 -0.2438 -0.3589
  330MOL0     C45414   4.529   4.310   1.679  0.4293  0.4667 -0.0599
  330MOL0     C45415   4.477   4.184   1.740  0.5108  0.2909 -0.3630
  330MOL0     C45416   4.538   4.170   1.871 -0.1880  0.3648  0.0392
  330MOL0     C45417   4.468   4.057   1.952  0.6374 -0.0366 -0.2899
  330MOL0     C45418   4.528   4.059   2.094 -0.0962  0.2728  0.2307
  330MOL0     N45419   4.489   3.925   2.148  0.7796 -0.6683 -0.1374
  330MOL0     C45420   4.380   3.902   2.233  0.6532 -0.2135 -0.3715
  330MOL0     C45421   4.388   3.769   2.264  0.3430  0.2494 -0.2193
  330MOL0     C45422   4.313   3.684   2.364 -0.5305 -1.2141 -0.3304
  330MOL0     C45423   4.337   3.530   2.342 -0.4604  0.2056 -0.2667
  330MOL0     C45424   4.241   3.445   2.440  0.4333 -0.7052  0.5960
  330MOL0     C45425   4.246   3.298   2.401  1.1145  0.1041  0.6159
  330MOL0     O45426   4.364   3.256   2.459 -0.3238  0.3990  0.2531
  330MOL0     C45427   4.398   3.124   2.433  1.4275 -0.8523 -1.1370
  330MOL0     C45428   4.321   3.024   2.377  0.3326  0.0347 -0.5382
  330MOL0     C45429   4.352   2.883   2.387 -0.3270 -0.6330  1.1427
  330MOL0     C45430   4.253   2.774   2.332 -0.0318 -0.5753 -0.8455
  330MOL0     C45431   4.480   2.860   2.437 -0.3032  0.6386 -0.3407
  330MOL0     C45432   4.525   2.718   2.459  0.1903 -0.4293  0.4869
  330MOL0     O45433   4.494   2.618   2.364 -0.3166 -0.0911  0.4313
  330MOL0     C45434   4.523   2.493   2.410  0.5745  0.6163 -0.2563
  330MOL0     C45435   4.623   2.414   2.350 -0.0695 -0.2895 -0.2713
  330MOL0     C45436   4.639   2.274   2.381 -0.2969 -0.9441  0.0743
  330MOL0     C45437   4.563   2.216   2.478  0.4604 -0.3255 -0.5071
  330MOL0     O45438   4.593   2.081   2.511 -0.8355  0.0939  0.0815
  330MOL0     C45439   4.587   2.051   2.655 -0.4459 -0.1813  0.6060
  330MOL0     C45440   4.667   1.927   2.685 -0.3281 -0.5713  0.5391
  330MOL0     C45441   4.591   1.834   2.781  0.1274  0.3820 -0.4668
  330MOL0     C45442   4.696   1.765   2.871 -0.5862 -0.1360 -0.1336
  330MOL0     C45443   4.723   1.854   2.989  0.4522  0.9911 -1.4103
  330MOL0     C45444   4.603   1.841   3.087  1.0695  0.2230  0.6402
  330MOL0     C45445   4.621   1.906   3.220  0.9668  0.0623  0.9538
  330MOL0     C45446   4.708   1.820   3.310 -0.6604  0.3532  0.8390
  330MOL0    Cl45447   4.641   1.651   3.332  0.2448 -0.2966 -0.0958
  330MOL0     C45448   4.456   2.296   2.543  0.2852 -0.0062  0.2302
  330MOL0     C45449   4.437   2.429   2.508  0.0982 -0.1130  0.0599
  330MOL0     O45450   4.586   2.702   2.564 -0.3026  0.0847  0.5341
  330MOL0     C45451   4.566   2.968   2.477 -0.0437  0.5339  0.0935
  330MOL0     C45452   4.524   3.093   2.471 -0.3017  0.6378 -0.3814
  330MOL0     N45453   4.503   3.727   2.200 -0.5522  0.0810 -0.4606
  330MOL0     N45454   4.559   3.818   2.129  0.5805  0.5376 -0.3818
  330MOL0     C45455   4.467   4.510   1.076 -0.1543  0.7283  0.8304
  330MOL0     C45456   4.431   4.512   0.945 -0.2659 -0.1466  0.8317
  330MOL0     C45457   4.556   4.516   0.511 -0.4302 -0.8828 -0.6928
  330MOL0     C45458   4.678   4.546   0.437 -0.1187 -0.0079  0.0656
  330MOL0     C45459   4.678   4.585   0.301  0.9073 -0.2513  0.6809
  330MOL0     C45460   4.566   4.584   0.222  0.9825  0.2381  0.1830
  330MOL0     O45461   4.577   4.615   0.087 -0.1981  0.4466 -0.1629
  330MOL0     C45462   4.486   4.696   0.023  0.0626  0.1087  0.2934
  330MOL0     C45463   4.548   4.827  -0.025  0.3096 -0.6594  0.8321
  330MOL0     C45464   4.446   4.913  -0.108 -0.5964 -0.2137  0.5620
  330MOL0     C45465   4.486   5.063  -0.132 -0.1631 -1.0796  0.0333
  330MOL0     C45466   4.427   5.133  -0.240 -1.0846  1.1875  0.6502
  330MOL0     C45467   4.397   5.184  -0.341 -0.6979  0.3103  0.3315
  330MOL0     C45468   4.444   4.555   0.280 -0.1589  0.1013 -0.3878
  330MOL0     C45469   4.440   4.527   0.423  0.3572 -0.3428  0.0742
  330MOL0     C45470   4.305   4.494   0.473  0.3278  0.6232 -1.0038
  330MOL0     H45471   4.571   4.236   0.824 -1.1806 -1.7997  0.1237
  330MOL0     H45472   4.596   4.204   1.079 -3.0225 -0.0844  0.2389
  330MOL0     H45473   4.759   4.301   1.276  0.1017 -0.0778  0.7530
  330MOL0     H45474   4.629   4.180   1.282  2.7926 -0.4234 -2.3503
  330MOL0     H45475   4.697   4.186   1.506 -0.5757  0.4692  1.2249
  330MOL0     H45476   4.728   4.363   1.511 -1.0665  1.5257  0.5626
  330MOL0     H45477   4.505   4.406   1.507 -1.8985 -0.7743  0.9801
  330MOL0     H45478   4.460   4.236   1.489 -1.3325  1.2921  0.9854
  330MOL0     H45479   4.633   4.328   1.709  0.1526 -0.0999  1.3121
  330MOL0     H45480   4.467   4.392   1.716 -1.4116 -1.6964  1.9365
  330MOL0     H45481   4.509   4.094   1.686  2.2231  0.8854 -0.3830
  330MOL0     H45482   4.368   4.189   1.734  0.4182  0.0606  0.8842
  330MOL0     H45483   4.642   4.137   1.862  0.0614  1.0507  0.2931
  330MOL0     H45484   4.533   4.263   1.928  0.9880  0.3424  0.2069
  330MOL0     H45485   4.477   3.960   1.903 -2.9543 -0.2648 -0.7604
  330MOL0     H45486   4.361   4.072   1.963  0.9487  1.8932  0.5042
  330MOL0     H45487   4.635   4.084   2.096  0.3250 -1.2920  2.9343
  330MOL0     H45488   4.472   4.138   2.144 -2.7297 -2.3141  1.7087
  330MOL0     H45489   4.299   3.969   2.260  0.5724 -0.9259  1.2479
  330MOL0     H45490   4.209   3.717   2.353 -0.8718 -1.7827  0.9631
  330MOL0     H45491   4.347   3.704   2.466  2.7029 -2.1594 -1.1125
  330MOL0     H45492   4.323   3.510   2.235  0.5091 -1.0306 -0.1953
  330MOL0     H45493   4.440   3.499   2.358 -1.2949 -1.9721  1.5079
  330MOL0     H45494   4.272   3.454   2.545  0.6246 -4.0639  0.9364
  330MOL0     H45495   4.140   3.487   2.436 -0.3990 -2.7165 -2.7159
  330MOL0     H45496   4.161   3.246   2.446  0.2098  1.5665  0.6740
  330MOL0     H45497   4.241   3.285   2.292 -1.6252  1.7635  0.4318
  330MOL0     H45498   4.222   3.042   2.335  0.6054  0.1841 -1.1242
  330MOL0     H45499   4.291   2.735   2.237  2.0160 -3.8782  1.1410
  330MOL0     H45500   4.158   2.827   2.318  0.0589  0.0831  0.7540
  330MOL0     H45501   4.231   2.700   2.409 -2.1532  0.8613  0.0267
  330MOL0     H45502   4.661   2.456   2.258  2.6075 -1.5150  0.1798
  330MOL0     H45503   4.707   2.211   2.324 -0.1327 -1.1102  0.4498
  330MOL0     H45504   4.610   2.134   2.722 -0.8191  0.9987 -0.7004
  330MOL0     H45505   4.481   2.033   2.677 -0.5200 -0.3490  0.1093
  330MOL0     H45506   4.684   1.872   2.592  0.5194 -2.1534  1.5953
  330MOL0     H45507   4.763   1.964   2.721 -0.1157  3.3012 -3.1519
  330MOL0     H45508   4.539   1.757   2.723 -0.5845 -0.9953  1.8554
  330MOL0     H45509   4.516   1.884   2.842  0.3183 -2.7313  2.6195
  330MOL0     H45510   4.791   1.745   2.821 -1.3009 -4.3927 -0.1813
  330MOL0     H45511   4.655   1.671   2.909 -1.4573 -0.1813 -1.1269
  330MOL0     H45512   4.810   1.814   3.042 -1.3520 -1.9478 -0.4413
  330MOL0     H45513   4.717   1.957   2.952  0.9713  1.7973  0.6191
  330MOL0     H45514   4.567   1.738   3.102 -0.3171  0.4181 -1.0424
  330MOL0     H45515   4.508   1.873   3.042  1.4871  1.0914  0.3680
  330MOL0     H45516   4.524   1.933   3.262  1.2725  0.5595  1.3526
  330MOL0     H45517   4.675   1.994   3.185 -1.4571  0.5658 -1.9302
  330MOL0     H45518   4.720   1.874   3.405 -1.2387 -0.8786  1.6417
  330MOL0     H45519   4.810   1.810   3.275 -1.2511 -1.7005 -0.4296
  330MOL0     H45520   4.387   2.250   2.613  0.8636 -0.8958  0.2326
  330MOL0     H45521   4.362   2.484   2.564 -0.9439 -1.5847  0.1645
  330MOL0     H45522   4.670   2.948   2.499  0.4601  1.9521 -0.8612
  330MOL0     H45523   4.594   3.172   2.496  2.7454 -1.0534 -2.8100
  330MOL0     H45524   4.432   4.592   1.140 -2.3616 -0.8733  1.8335
  330MOL0     H45525   4.362   4.587   0.909  0.5783  0.5550  0.6288
  330MOL0     H45526   4.772   4.552   0.491 -0.9523  0.6275  1.4956
  330MOL0     H45527   4.771   4.578   0.247  1.0288 -2.4592  1.0876
  330MOL0     H45528   4.449   4.640  -0.064 -0.0686  1.2183 -0.3897
  330MOL0     H45529   4.403   4.719   0.091  1.3715 -0.7784  2.2556
  330MOL0     H45530   4.641   4.816  -0.081  0.1398  0.3429  0.3476
  330MOL0     H45531   4.585   4.892   0.055  0.2872  1.1295 -0.5504
  330MOL0     H45532   4.444   4.867  -0.207 -0.8802 -4.1232  2.2176
  330MOL0     H45533   4.352   4.913  -0.051 -2.8405  0.1636 -2.8243
  330MOL0     H45534   4.593   5.068  -0.157 -0.1164  3.0046  0.3465
  330MOL0     H45535   4.461   5.127  -0.046  1.3446  0.8813 -0.9062
  330MOL0     H45536   4.355   5.231  -0.428  3.1690  0.4322 -1.7241
  330MOL0     H45537   4.355   4.544   0.219 -1.4253 -2.7882  1.7082
  330MOL0     H45538   4.232   4.489   0.392 -0.6750 -0.5976 -0.0692
  330MOL0     H45539   4.307   4.397   0.524  1.2533  0.0780 -2.0234
  330MOL0     H45540   4.273   4.571   0.543  3.4415  0.8012  0.3746
  331MOL0     O45541   6.483   7.121   8.384 -0.2391  0.3723  0.1680
  331MOL0     C45542   6.489   7.010   8.328 -0.2708  1.2043 -0.4735
  331MOL0     O45543   6.571   6.982   8.226 -0.1273  0.5716 -0.3346
  331MOL0     C45544   6.643   7.085   8.163  0.5050  0.8657 -0.1516
  331MOL0     C45545   6.760   7.051   8.108  0.3934 -0.1462 -1.0011
  331MOL0     C45546   6.840   7.142   8.050 -0.2779 -0.1881 -0.4806
  331MOL0     C45547   6.794   7.277   8.027 -0.2104  0.4673  0.5928
  331MOL0     O45548   6.877   7.373   7.967  0.2182 -0.4156  0.3779
  331MOL0     C45549   6.840   7.501   7.904 -0.2240 -0.3221  0.0931
  331MOL0     C45550   6.766   7.501   7.769 -0.0323  1.0160 -0.6440
  331MOL0     C45551   6.759   7.630   7.697  0.2971  0.5217  0.3074
  331MOL0     C45552   6.622   7.684   7.675 -0.0002  0.0715 -0.0440
  331MOL0     C45553   6.618   7.785   7.562 -0.1700 -0.6278  0.2803
  331MOL0     C45554   6.642   7.725   7.418  0.5455 -1.2828  0.1965
  331MOL0     C45555   6.714   7.831   7.333  1.1816 -0.3965  0.0435
  331MOL0     C45556   6.777   7.765   7.217 -0.2571 -0.7929  1.6513
  331MOL0     N45557   6.839   7.866   7.122 -0.0969 -0.5123  0.2493
  331MOL0     C45558   6.781   7.930   7.015 -0.9736 -0.8304 -0.1155
  331MOL0     C45559   6.868   8.018   6.974 -0.5772 -0.3481  0.2328
  331MOL0     C45560   6.858   8.128   6.864  1.2680  0.7845  0.0550
  331MOL0     C45561   6.884   8.061   6.730 -0.3469 -0.3421 -0.1929
  331MOL0     C45562   6.926   8.159   6.614  0.4444  0.0829  0.5045
  331MOL0     C45563   6.858   8.120   6.489  0.4605 -1.2164 -0.2743
  331MOL0     O45564   6.725   8.176   6.486  0.3271 -0.2176 -0.6028
  331MOL0     C45565   6.662   8.179   6.368  0.5546 -0.0853 -0.0098
  331MOL0     C45566   6.711   8.116   6.253 -0.8472  0.1162  0.4463
  331MOL0     C45567   6.628   8.121   6.137  0.3683 -0.6660 -0.0964
  331MOL0     C45568   6.672   8.055   6.014 -0.0502 -0.5031  0.6799
  331MOL0     C45569   6.506   8.185   6.139  0.3940  0.4858 -0.1506
  331MOL0     C45570   6.404   8.192   6.029  0.1977  0.0920  0.2972
  331MOL0     O45571   6.358   8.318   5.995  0.0243  0.8351  0.0176
  331MOL0     C45572   6.303   8.357   5.875  0.2273  0.3160  0.0347
  331MOL0     C45573   6.252   8.489   5.857 -0.3935 -0.1433 -0.0410
  331MOL0     C45574   6.170   8.510   5.746 -1.3475 -0.3165  0.0393
  331MOL0     C45575   6.155   8.423   5.641  0.6079  0.1937  0.3055
  331MOL0     O45576   6.085   8.450   5.527 -0.5645  0.0614 -0.2706
  331MOL0     C45577   5.984   8.536   5.512  0.8355  0.1944 -0.2505
  331MOL0     C45578   5.855   8.487   5.583  0.1318  0.3050 -0.2451
  331MOL0     C45579   5.807   8.363   5.494 -0.8078  0.3792 -0.2221
  331MOL0     C45580   5.703   8.276   5.562 -1.3948 -0.5684  0.2736
  331MOL0     C45581   5.566   8.344   5.592 -0.6624  1.2524 -0.0452
  331MOL0     C45582   5.498   8.355   5.460 -0.0750 -0.3280  0.6439
  331MOL0     C45583   5.377   8.439   5.477 -0.8294  0.6838 -0.2176
  331MOL0     C45584   5.248   8.357   5.516  0.8159 -0.6353  1.0096
  331MOL0    Cl45585   5.182   8.288   5.372 -0.0025  0.0737 -0.4239
  331MOL0     C45586   6.228   8.307   5.643 -0.4064 -0.0989  0.0586
  331MOL0     C45587   6.294   8.274   5.758 -0.2213  0.0889 -0.1361
  331MOL0     O45588   6.364   8.088   5.986 -0.5419  0.8060  0.9678
  331MOL0     C45589   6.458   8.251   6.254  0.2378  0.3871 -0.5328
  331MOL0     C45590   6.537   8.246   6.373 -0.5096  0.1676  0.4040
  331MOL0     N45591   6.985   8.004   7.043  0.0282 -0.8608 -0.3827
  331MOL0     N45592   6.971   7.914   7.133  0.3454  0.6771 -0.1608
  331MOL0     C45593   6.667   7.308   8.068  0.0889 -1.2448 -0.1355
  331MOL0     C45594   6.589   7.210   8.137 -0.5707  0.2132 -1.0544
  331MOL0     C45595   6.408   6.900   8.379  0.8164 -0.1757  0.0446
  331MOL0     C45596   6.448   6.761   8.361 -0.0075  0.0605  0.2767
  331MOL0     C45597   6.370   6.662   8.408 -0.4677 -0.5891 -0.0339
  331MOL0     C45598   6.257   6.690   8.492  0.0501 -0.4400  0.3827
  331MOL0     O45599   6.180   6.584   8.538  0.5708 -0.4947  0.3045
  331MOL0     C45600   6.262   6.499   8.618 -0.2016  0.4492  0.7608
  331MOL0     C45601   6.209   6.491   8.758  0.1611 -0.4787  0.0860
  331MOL0     C45602   6.228   6.629   8.837 -0.6148 -0.2226  0.8969
  331MOL0     C45603   6.197   6.610   8.990  0.8743  0.6513 -0.6025
  331MOL0     C45604   6.072   6.541   9.036 -0.3667  0.0672  0.4194
  331MOL0     C45605   5.990   6.456   9.061 -0.1055 -0.2762  0.7325
  331MOL0     C45606   6.217   6.814   8.502  0.3015  0.2304 -0.5755
  331MOL0     C45607   6.291   6.926   8.451 -0.3673  0.6489 -0.3094
  331MOL0     C45608   6.241   7.062   8.495  0.5126  0.4082  0.0688
  331MOL0     H45609   6.793   6.951   8.132 -0.3546 -0.0584  0.4556
  331MOL0     H45610   6.946   7.124   8.032 -0.4510  0.2192 -2.0297
  331MOL0     H45611   6.940   7.542   7.884 -0.5842 -0.3920 -2.1179
  331MOL0     H45612   6.789   7.563   7.978  1.9797 -0.4026  1.7948
  331MOL0     H45613   6.811   7.428   7.702 -3.4413  0.1536 -2.2300
  331MOL0     H45614   6.662   7.471   7.788 -0.8123  3.4091 -0.7789
  331MOL0     H45615   6.821   7.703   7.748  3.7778 -3.4159  2.3654
  331MOL0     H45616   6.804   7.620   7.598 -2.8672 -0.3110 -1.1760
  331MOL0     H45617   6.564   7.597   7.642  2.4526 -0.0350 -5.0526
  331MOL0     H45618   6.583   7.728   7.768  1.2096 -0.8531  0.9353
  331MOL0     H45619   6.678   7.872   7.589 -2.9607  0.6248  3.0472
  331MOL0     H45620   6.525   7.840   7.547  0.3143  0.3262  0.6984
  331MOL0     H45621   6.706   7.636   7.428 -0.7223 -2.2838 -0.2910
  331MOL0     H45622   6.547   7.691   7.376 -0.9783  2.8733 -0.1486
  331MOL0     H45623   6.800   7.874   7.385  0.4427  2.3601 -0.8233
  331MOL0     H45624   6.639   7.907   7.311  0.0740 -1.1149  1.1767
  331MOL0     H45625   6.860   7.712   7.264  2.2536  3.3880  2.5133
  331MOL0     H45626   6.719   7.688   7.166  1.0761 -0.3121 -0.7292
  331MOL0     H45627   6.681   7.916   6.976 -1.6348  1.3590  0.6714
  331MOL0     H45628   6.930   8.207   6.888  1.4831  1.2203 -1.8606
  331MOL0     H45629   6.757   8.168   6.870  0.6669 -0.5004 -1.0437
  331MOL0     H45630   6.956   7.981   6.748 -3.8876 -3.4688  1.5986
  331MOL0     H45631   6.787   8.014   6.711 -0.4820  0.0676 -0.5253
  331MOL0     H45632   6.903   8.265   6.631  0.1878  0.8843 -3.7086
  331MOL0     H45633   7.035   8.164   6.599  0.2402  2.1630 -0.8191
  331MOL0     H45634   6.913   8.166   6.406 -2.0116 -0.1022 -1.4136
  331MOL0     H45635   6.858   8.011   6.482  3.2587 -1.1791 -2.0356
  331MOL0     H45636   6.807   8.066   6.244 -1.7647 -2.0711  1.9437
  331MOL0     H45637   6.781   8.050   6.008 -0.0387 -0.2095 -4.8432
  331MOL0     H45638   6.654   8.124   5.931 -1.3213 -0.0974  1.2602
  331MOL0     H45639   6.627   7.956   6.001  0.7535 -0.7802 -0.0824
  331MOL0     H45640   6.274   8.552   5.943  2.0630 -0.2043 -0.5446
  331MOL0     H45641   6.109   8.599   5.729 -1.7034 -0.3911  0.9067
  331MOL0     H45642   5.998   8.641   5.539 -2.5155  0.4817  0.8131
  331MOL0     H45643   5.976   8.539   5.403 -0.4324  1.0137 -0.1456
  331MOL0     H45644   5.878   8.457   5.685  0.7825  2.5059  0.3175
  331MOL0     H45645   5.777   8.563   5.577 -0.7669 -0.6292 -0.7196
  331MOL0     H45646   5.892   8.296   5.483  0.5385  2.0008 -0.0866
  331MOL0     H45647   5.757   8.383   5.398  0.5767 -2.6094 -1.7064
  331MOL0     H45648   5.752   8.231   5.649  2.2948 -1.5258 -2.0793
  331MOL0     H45649   5.682   8.194   5.492 -0.2455 -2.3651  1.9467
  331MOL0     H45650   5.507   8.294   5.669 -0.8099  2.7832  0.8780
  331MOL0     H45651   5.595   8.439   5.638  0.8613  0.3226  0.9730
  331MOL0     H45652   5.481   8.255   5.419  2.1183  0.3126 -2.2069
  331MOL0     H45653   5.557   8.409   5.385 -0.2193 -0.1524  0.6556
  331MOL0     H45654   5.366   8.497   5.386  1.0145  0.9116 -0.3159
  331MOL0     H45655   5.391   8.493   5.571 -0.9182 -2.8328  2.0109
  331MOL0     H45656   5.174   8.424   5.560 -0.2418 -0.5798 -0.7401
  331MOL0     H45657   5.267   8.290   5.600  0.2201  0.1651  1.7982
  331MOL0     H45658   6.232   8.241   5.557  3.0604  0.0293 -0.0156
  331MOL0     H45659   6.352   8.182   5.760  0.2933  0.4199  0.6225
  331MOL0     H45660   6.361   8.300   6.255  0.8956  1.7248 -0.1231
  331MOL0     H45661   6.498   8.293   6.463 -2.6306 -1.0240  0.1669
  331MOL0     H45662   6.614   7.401   8.050 -2.0243 -2.3189  0.1795
  331MOL0     H45663   6.494   7.250   8.170  0.5475 -0.0561  3.1119
  331MOL0     H45664   6.536   6.738   8.302 -1.6860 -2.4330 -1.4532
  331MOL0     H45665   6.414   6.569   8.375  1.1790  0.2091 -0.1973
  331MOL0     H45666   6.274   6.404   8.566 -0.7036  0.1940  1.1136
  331MOL0     H45667   6.366   6.534   8.626  0.0423  1.1554 -3.2258
  331MOL0     H45668   6.265   6.415   8.814 -0.0550 -1.2682 -0.7433
  331MOL0     H45669   6.102   6.468   8.751 -1.0129  4.1519 -0.3286
  331MOL0     H45670   6.329   6.670   8.825  0.4987 -2.8516  0.4387
  331MOL0     H45671   6.168   6.711   8.798  1.3564  1.1212  0.5261
  331MOL0     H45672   6.179   6.707   9.039  0.3959  0.6378 -0.7537
  331MOL0     H45673   6.285   6.573   9.043  0.7562  2.3777  0.9164
  331MOL0     H45674   5.908   6.387   9.047  2.4942 -3.3364 -0.6749
  331MOL0     H45675   6.127   6.833   8.558 -1.7014 -0.1575 -3.4577
  331MOL0     H45676   6.285   7.081   8.594 -1.8157  0.1764  1.2235
  331MOL0     H45677   6.263   7.149   8.433  0.5188  1.1227  1.0454
  331MOL0     H45678   6.134   7.062   8.519  0.5924  2.5779  0.6273
  332MOL0     O45679   3.716   0.856   5.640  0.2694 -0.6895 -0.1425
  332MOL0     C45680   3.732   0.776   5.732 -0.4223 -0.0859  0.3913
  332MOL0     O45681   3.705   0.641   5.728  0.1529 -0.2046  0.1075
  332MOL0     C45682   3.672   0.572   5.611 -0.8047 -0.0149  0.3295
  332MOL0     C45683   3.742   0.602   5.495  0.6135  0.8314  0.6128
  332MOL0     C45684   3.715   0.538   5.378  0.1504 -0.2986  0.3007
  332MOL0     C45685   3.612   0.441   5.369  0.5062 -0.8395  0.2345
  332MOL0     O45686   3.599   0.380   5.242  0.2983  0.1494 -0.4195
  332MOL0     C45687   3.599   0.237   5.238  0.5179 -0.2777  0.2745
  332MOL0     C45688   3.723   0.187   5.163  0.2772 -1.0262  0.7801
  332MOL0     C45689   3.704   0.047   5.108  0.2971  0.9405 -0.1350
  332MOL0     C45690   3.823   0.011   5.011 -0.1303  0.6729 -0.7983
  332MOL0     C45691   3.838  -0.136   4.983  0.6283  1.0308 -0.2308
  332MOL0     C45692   3.868  -0.233   5.102  0.4552  0.2516  0.1502
  332MOL0     C45693   3.946  -0.360   5.046  0.3399 -0.2652  1.1682
  332MOL0     C45694   3.950  -0.473   5.143  0.4336 -0.0641  0.2470
  332MOL0     N45695   4.030  -0.436   5.266 -0.3254 -0.3758 -0.3393
  332MOL0     C45696   3.996  -0.453   5.392 -1.4400 -0.1875 -0.4007
  332MOL0     C45697   4.098  -0.393   5.466  0.7611 -1.1202  0.3140
  332MOL0     C45698   4.114  -0.389   5.618  0.0542  0.0968  0.1406
  332MOL0     C45699   4.092  -0.251   5.669  0.3511 -0.5860 -0.1776
  332MOL0     C45700   4.105  -0.226   5.825  0.3476  0.0585  0.1653
  332MOL0     C45701   4.080  -0.075   5.850  0.3878 -0.2266 -0.0733
  332MOL0     O45702   4.117  -0.052   5.990  0.5543 -0.0993  0.4478
  332MOL0     C45703   4.031  -0.013   6.086 -0.3750 -1.2270  0.4209
  332MOL0     C45704   3.896  -0.046   6.079  0.6986  0.1958  0.2336
  332MOL0     C45705   3.804   0.010   6.175 -0.3200  0.0585 -0.5364
  332MOL0     C45706   3.654  -0.013   6.153 -0.8503 -0.1062  0.4321
  332MOL0     C45707   3.858   0.084   6.288 -0.0691 -0.9521  0.3291
  332MOL0     C45708   3.792   0.126   6.408  0.3552  0.1758 -0.4624
  332MOL0     O45709   3.653   0.115   6.409 -0.1081  0.1964  0.0377
  332MOL0     C45710   3.581   0.143   6.528  0.4750  0.0517 -0.4643
  332MOL0     C45711   3.607   0.074   6.644  0.5902 -0.2518 -0.1985
  332MOL0     C45712   3.535   0.084   6.759  0.1199  0.5466 -0.7309
  332MOL0     C45713   3.430   0.178   6.770  0.4026  0.7772 -0.5084
  332MOL0     O45714   3.357   0.193   6.887 -0.3167  0.1100 -0.0117
  332MOL0     C45715   3.310   0.065   6.929  0.7689 -0.6153  0.8205
  332MOL0     C45716   3.188   0.097   7.020 -1.2236 -1.6175  0.5127
  332MOL0     C45717   3.114  -0.016   7.080  0.0716  0.2413  0.2071
  332MOL0     C45718   3.013   0.039   7.193 -0.7077  0.8241 -0.2656
  332MOL0     C45719   2.898  -0.059   7.203 -0.0104 -0.1795  1.2274
  332MOL0     C45720   2.786  -0.024   7.305  0.0271 -0.2256 -0.2533
  332MOL0     C45721   2.686  -0.137   7.312  1.0140  0.9715 -0.0585
  332MOL0     C45722   2.559  -0.101   7.397  0.3475 -0.3170  0.0760
  332MOL0    Cl45723   2.600  -0.029   7.564 -0.4130 -0.3364  0.1186
  332MOL0     C45724   3.399   0.254   6.649  0.3156  0.3138  0.0589
  332MOL0     C45725   3.468   0.235   6.531  0.3479 -0.9939  0.0429
  332MOL0     O45726   3.861   0.167   6.503  0.5893  0.7175  0.4797
  332MOL0     C45727   3.999   0.109   6.289 -0.1911 -0.3684  0.3875
  332MOL0     C45728   4.081   0.070   6.188 -0.7020  0.1257  0.6682
  332MOL0     N45729   4.189  -0.338   5.384  0.0556  0.1252  0.1090
  332MOL0     N45730   4.153  -0.364   5.268  0.1593  0.8046  0.0396
  332MOL0     C45731   3.531   0.417   5.486 -1.1302 -1.1076  0.6149
  332MOL0     C45732   3.563   0.484   5.608 -0.6868 -0.1191 -0.1831
  332MOL0     C45733   3.795   0.817   5.861  0.2145 -0.8280  0.2195
  332MOL0     C45734   3.888   0.928   5.855  0.8460 -0.4935  0.5555
  332MOL0     C45735   3.967   0.964   5.957 -0.4422  0.6863 -0.1558
  332MOL0     C45736   3.963   0.894   6.085 -0.5021 -0.4519  0.0206
  332MOL0     O45737   4.049   0.913   6.194 -0.3712 -0.0962  0.2818
  332MOL0     C45738   4.123   1.041   6.193  0.2338  0.5172 -0.1735
  332MOL0     C45739   4.218   1.066   6.308 -0.6411 -0.2930 -0.0578
  332MOL0     C45740   4.350   0.977   6.276  0.2615  0.1475 -1.0126
  332MOL0     C45741   4.321   0.826   6.311 -0.0637 -0.2893 -0.2823
  332MOL0     C45742   4.438   0.738   6.289 -0.3737  0.7446  0.0946
  332MOL0     C45743   4.521   0.672   6.236 -0.7614  0.4747 -0.2926
  332MOL0     C45744   3.870   0.788   6.094  0.8709 -0.3184  0.5341
  332MOL0     C45745   3.787   0.750   5.986  0.0822 -0.6605  0.0741
  332MOL0     C45746   3.716   0.615   6.014  0.1631 -0.4630 -0.4445
  332MOL0     H45747   3.818   0.680   5.491  0.7753  0.6786 -4.0684
  332MOL0     H45748   3.768   0.559   5.285 -0.4563 -2.3677 -0.5606
  332MOL0     H45749   3.515   0.201   5.179  1.8168 -1.5640 -0.8633
  332MOL0     H45750   3.595   0.192   5.337  0.3975  0.3314  0.5539
  332MOL0     H45751   3.769   0.245   5.083  1.1797  0.8109  2.5593
  332MOL0     H45752   3.811   0.187   5.227  1.2633 -1.9445 -0.5126
  332MOL0     H45753   3.700  -0.022   5.193  0.2140  2.8322  1.4718
  332MOL0     H45754   3.608   0.044   5.054  1.2150 -1.5622 -1.8092
  332MOL0     H45755   3.822   0.072   4.921  1.2773  2.6848  0.4648
  332MOL0     H45756   3.915   0.028   5.068  1.3126 -5.1270 -0.7253
  332MOL0     H45757   3.917  -0.161   4.911  0.8568  0.8034  0.0930
  332MOL0     H45758   3.740  -0.171   4.950  0.2928  1.4542  0.2968
  332MOL0     H45759   3.936  -0.166   5.156  2.7916 -1.6402 -0.2516
  332MOL0     H45760   3.788  -0.268   5.168 -1.1326  0.8291 -1.3961
  332MOL0     H45761   4.047  -0.342   5.009  0.0036 -2.6056 -1.1424
  332MOL0     H45762   3.895  -0.384   4.952  0.5773  4.0546 -0.2832
  332MOL0     H45763   3.850  -0.487   5.185  2.3001 -1.1752  5.0514
  332MOL0     H45764   3.993  -0.553   5.083  1.3426  1.6329 -1.4756
  332MOL0     H45765   3.915  -0.513   5.432 -1.0377 -0.4679  0.0001
  332MOL0     H45766   4.217  -0.418   5.638  1.2920  0.6177 -4.2753
  332MOL0     H45767   4.052  -0.462   5.671 -0.2733 -0.9072 -1.5128
  332MOL0     H45768   4.158  -0.193   5.605  2.9802 -1.9803  1.1057
  332MOL0     H45769   3.986  -0.228   5.650 -0.0994 -1.3156  1.2966
  332MOL0     H45770   4.039  -0.291   5.883 -0.7155  0.9320 -0.0141
  332MOL0     H45771   4.207  -0.251   5.853  0.5849  1.0629  0.2308
  332MOL0     H45772   4.135  -0.018   5.775 -0.9046 -0.5387 -1.3099
  332MOL0     H45773   3.980  -0.043   5.819  0.8181 -0.1365 -1.3914
  332MOL0     H45774   3.852  -0.099   5.996 -0.5592  1.5608  0.0009
  332MOL0     H45775   3.607  -0.064   6.238 -2.4862  0.2514 -0.2155
  332MOL0     H45776   3.634  -0.072   6.063  2.2738 -2.4043  1.0990
  332MOL0     H45777   3.610   0.086   6.136  2.8628  1.7142  0.4089
  332MOL0     H45778   3.684  -0.002   6.644  0.1495 -0.8161  2.9548
  332MOL0     H45779   3.574   0.015   6.834  2.2318 -1.0141 -3.1121
  332MOL0     H45780   3.278   0.006   6.843  2.0200  0.6688 -0.5796
  332MOL0     H45781   3.377   0.016   7.001  0.7170  1.2851  2.2199
  332MOL0     H45782   3.228   0.167   7.094 -2.8878  0.1700 -0.1751
  332MOL0     H45783   3.124   0.160   6.957 -0.2928  0.5460  1.6089
  332MOL0     H45784   3.188  -0.078   7.131  0.5366  1.5158  1.1547
  332MOL0     H45785   3.060  -0.075   7.006 -0.7209 -0.6799  1.4667
  332MOL0     H45786   2.961   0.122   7.146 -2.2097  1.5881  2.5555
  332MOL0     H45787   3.067   0.064   7.284  0.0773  1.0183 -0.7720
  332MOL0     H45788   2.871  -0.080   7.099  1.9587 -0.0187  0.6326
  332MOL0     H45789   2.950  -0.151   7.230  2.1918  0.3254 -0.8494
  332MOL0     H45790   2.738   0.068   7.273 -1.5298 -1.4882 -1.7481
  332MOL0     H45791   2.833  -0.011   7.403 -1.7648  1.0377  0.4786
  332MOL0     H45792   2.726  -0.224   7.364 -0.9123 -0.4069 -0.7924
  332MOL0     H45793   2.648  -0.176   7.218 -1.7581  0.0790  1.3301
  332MOL0     H45794   2.483  -0.176   7.421 -2.7406  3.4120  3.7357
  332MOL0     H45795   2.497  -0.028   7.343  0.1627  0.0840  0.8092
  332MOL0     H45796   3.324   0.332   6.651 -0.2255 -0.1917 -0.1149
  332MOL0     H45797   3.438   0.290   6.443 -2.1051 -0.6051  1.0397
  332MOL0     H45798   4.051   0.170   6.362 -0.5530  1.0305 -0.4984
  332MOL0     H45799   4.189   0.080   6.189 -0.0911 -4.3219  1.5171
  332MOL0     H45800   3.444   0.356   5.466 -3.1737  2.4359 -2.7988
  332MOL0     H45801   3.503   0.465   5.696 -3.8651  3.2714 -1.3566
  332MOL0     H45802   3.892   0.982   5.761 -0.6997 -0.2215  0.6143
  332MOL0     H45803   4.039   1.042   5.935  1.8033 -0.4099  2.7263
  332MOL0     H45804   4.184   1.050   6.103  2.3369 -0.9275  1.0215
  332MOL0     H45805   4.041   1.114   6.189  0.1333  0.6314  2.5181
  332MOL0     H45806   4.178   1.060   6.410 -1.5525 -1.8398 -0.4716
  332MOL0     H45807   4.247   1.171   6.306 -1.8756  0.0510 -0.9917
  332MOL0     H45808   4.381   0.996   6.173  0.9592 -0.8295 -0.9946
  332MOL0     H45809   4.430   1.010   6.343 -1.0853  1.8237 -0.1417
  332MOL0     H45810   4.242   0.791   6.243 -0.7599  1.4060 -0.3985
  332MOL0     H45811   4.301   0.825   6.418  0.1774  3.5773 -0.0303
  332MOL0     H45812   4.589   0.608   6.182  0.3483  1.1443  0.2749
  332MOL0     H45813   3.859   0.741   6.191  3.3225  1.1397  1.6058
  332MOL0     H45814   3.680   0.614   6.117 -1.7205  1.3169 -1.0084
  332MOL0     H45815   3.625   0.608   5.954  0.4199 -2.1183 -0.6742
  332MOL0     H45816   3.770   0.524   5.987  2.6577  0.8522 -0.1334
  333MOL0     O45817   6.173   5.554   4.156 -0.3763  0.4841  0.5937
  333MOL0     C45818   6.191   5.659   4.217  0.1717  0.3321 -0.1013
  333MOL0     O45819   6.093   5.761   4.215 -0.1577  0.2827  0.0809
  333MOL0     C45820   6.008   5.767   4.109 -0.0849 -0.3069 -1.1887
  333MOL0     C45821   5.912   5.656   4.093 -0.7336 -0.0999 -1.4752
  333MOL0     C45822   5.812   5.666   4.003  0.2310  0.8665  0.1950
  333MOL0     C45823   5.793   5.777   3.914  0.9362  0.3154  0.0275
  333MOL0     O45824   5.704   5.794   3.820  0.1810  1.0708  0.8518
  333MOL0     C45825   5.692   5.666   3.739  0.4506  0.5319 -0.6869
  333MOL0     C45826   5.551   5.632   3.714  0.0345 -0.1957 -0.7863
  333MOL0     C45827   5.462   5.741   3.644  0.1968 -0.1453 -0.8702
  333MOL0     C45828   5.311   5.717   3.636  0.1790 -0.1179 -0.4187
  333MOL0     C45829   5.249   5.740   3.778 -0.6048 -0.6541  0.4302
  333MOL0     C45830   5.120   5.661   3.803 -0.5510 -0.7874  0.2195
  333MOL0     C45831   5.085   5.638   3.953 -0.8823 -1.1491 -0.6044
  333MOL0     C45832   4.958   5.561   3.967 -0.1911 -0.1412 -0.8147
  333MOL0     N45833   4.833   5.642   3.958  0.4110  0.5316  0.0782
  333MOL0     C45834   4.796   5.754   3.882 -0.4009 -0.4426 -0.1627
  333MOL0     C45835   4.668   5.779   3.915 -0.6594  0.1836 -0.0154
  333MOL0     C45836   4.581   5.882   3.861 -0.7598 -0.6827  0.4810
  333MOL0     C45837   4.496   5.948   3.971 -0.0007  0.0092 -0.4792
  333MOL0     C45838   4.385   6.029   3.907 -0.1865 -0.4193 -0.2319
  333MOL0     C45839   4.425   6.161   3.859  0.0218  0.7800 -0.8633
  333MOL0     O45840   4.522   6.238   3.935  0.2327  1.2039 -0.4956
  333MOL0     C45841   4.524   6.366   3.931 -0.6565 -0.2575  0.2259
  333MOL0     C45842   4.497   6.443   3.819 -0.3783  0.8817  0.5078
  333MOL0     C45843   4.499   6.582   3.821  0.1579 -0.2431  1.5062
  333MOL0     C45844   4.459   6.652   3.693 -0.1996  0.4613 -0.5223
  333MOL0     C45845   4.545   6.647   3.934 -0.4241  0.5248 -1.1196
  333MOL0     C45846   4.566   6.793   3.963 -0.4239  0.1643  0.3414
  333MOL0     O45847   4.636   6.835   4.083  0.5461  0.5240  0.7876
  333MOL0     C45848   4.628   6.959   4.135 -0.8655  0.5485  0.6187
  333MOL0     C45849   4.525   6.984   4.220  0.2555 -0.1447  0.1739
  333MOL0     C45850   4.516   7.114   4.271  0.6640  0.5993 -0.5371
  333MOL0     C45851   4.619   7.207   4.248  0.4531  0.0509  0.2137
  333MOL0     O45852   4.603   7.328   4.307  0.1482 -0.0447 -0.5236
  333MOL0     C45853   4.709   7.424   4.292  0.5616  0.3179  0.0385
  333MOL0     C45854   4.710   7.512   4.411  1.3113  0.4165  0.0271
  333MOL0     C45855   4.792   7.641   4.389  0.5640  1.2933 -1.0284
  333MOL0     C45856   4.785   7.738   4.505 -0.7542 -0.5517 -0.1688
  333MOL0     C45857   4.647   7.788   4.530 -0.0479 -0.0520 -0.0939
  333MOL0     C45858   4.641   7.899   4.622 -0.1780 -0.7888 -0.3142
  333MOL0     C45859   4.501   7.960   4.647  0.3907  0.2587 -0.3726
  333MOL0     C45860   4.506   8.055   4.765 -0.4501  0.3400  0.3502
  333MOL0    Cl45861   4.357   8.152   4.781  0.2178  0.0521  0.4368
  333MOL0     C45862   4.715   7.184   4.150  1.1491  0.3284  0.5982
  333MOL0     C45863   4.721   7.054   4.098  0.9060  0.1293 -0.6478
  333MOL0     O45864   4.516   6.871   3.883 -0.9704 -0.3835  0.6454
  333MOL0     C45865   4.584   6.563   4.043 -0.7345 -0.2911 -0.0355
  333MOL0     C45866   4.576   6.428   4.044  0.4055  0.8332  0.6748
  333MOL0     N45867   4.639   5.693   4.021 -0.0362  0.0680  0.7810
  333MOL0     N45868   4.734   5.623   4.044  0.1027 -0.3808 -1.3841
  333MOL0     C45869   5.882   5.878   3.931  0.2628 -0.0427  0.0883
  333MOL0     C45870   5.978   5.884   4.035 -0.6101  0.2022 -0.1603
  333MOL0     C45871   6.300   5.686   4.297 -0.1902 -1.0299  0.4094
  333MOL0     C45872   6.285   5.776   4.408 -0.0960  0.3023  0.2781
  333MOL0     C45873   6.385   5.787   4.504 -0.3641 -0.3935  1.0505
  333MOL0     C45874   6.507   5.717   4.481 -0.6867 -0.9645  0.0650
  333MOL0     O45875   6.607   5.744   4.573  0.5897  0.1494  0.2644
  333MOL0     C45876   6.730   5.673   4.559  0.1775  0.7280 -0.2348
  333MOL0     C45877   6.783   5.675   4.695 -1.1201 -0.7015 -1.1577
  333MOL0     C45878   6.933   5.646   4.693 -1.0432  0.3247  0.3366
  333MOL0     C45879   6.990   5.655   4.837 -1.0218 -0.4497  0.2028
  333MOL0     C45880   7.139   5.647   4.835 -0.2127 -0.1091  0.7688
  333MOL0     C45881   7.256   5.619   4.836 -0.0154  0.6008 -0.0217
  333MOL0     C45882   6.529   5.653   4.357  0.5259  1.2827 -0.2451
  333MOL0     C45883   6.417   5.625   4.265 -0.9442 -0.2192 -0.1161
  333MOL0     C45884   6.453   5.543   4.134 -0.6408 -0.2843 -0.2052
  333MOL0     H45885   5.924   5.578   4.167 -3.6861 -0.4634 -1.2779
  333MOL0     H45886   5.747   5.579   4.004 -2.1062  2.3982 -2.9105
  333MOL0     H45887   5.753   5.580   3.767 -0.3442  0.0828 -0.3102
  333MOL0     H45888   5.737   5.679   3.640 -1.1010  0.5598 -1.4259
  333MOL0     H45889   5.549   5.550   3.643  1.2304 -0.2927 -0.7346
  333MOL0     H45890   5.507   5.597   3.808 -0.4275  1.9432 -0.1411
  333MOL0     H45891   5.473   5.843   3.683  0.2496  0.3704 -2.1991
  333MOL0     H45892   5.483   5.737   3.537 -0.9278 -1.5012 -1.0651
  333MOL0     H45893   5.257   5.782   3.566  2.5739  1.5710 -0.7916
  333MOL0     H45894   5.289   5.618   3.593  1.6740 -0.0862 -1.3021
  333MOL0     H45895   5.229   5.848   3.775 -0.9891 -0.7085  0.8877
  333MOL0     H45896   5.317   5.720   3.861 -0.9479 -0.7270  0.6954
  333MOL0     H45897   5.032   5.697   3.750  0.5649 -0.3821 -1.4329
  333MOL0     H45898   5.134   5.558   3.768  0.7529  0.2182 -2.5441
  333MOL0     H45899   5.073   5.728   4.013 -3.0656 -2.4524  1.0400
  333MOL0     H45900   5.169   5.589   4.003  1.9772  2.8034 -1.0859
  333MOL0     H45901   4.952   5.471   3.905 -1.2475 -2.9668  3.0240
  333MOL0     H45902   4.957   5.505   4.061 -1.3690  0.4872 -0.4243
  333MOL0     H45903   4.856   5.800   3.803 -1.4718  1.2670 -0.0400
  333MOL0     H45904   4.520   5.823   3.792  3.2221 -2.1431 -2.1915
  333MOL0     H45905   4.633   5.953   3.797  0.3150 -0.4137  1.6043
  333MOL0     H45906   4.468   5.875   4.048 -0.7031  1.7819  1.0155
  333MOL0     H45907   4.562   6.016   4.026  0.2987 -0.1862 -0.5888
  333MOL0     H45908   4.332   5.980   3.824 -3.3174  2.8282 -0.4146
  333MOL0     H45909   4.306   6.049   3.980 -2.2634 -1.2966 -2.0945
  333MOL0     H45910   4.470   6.146   3.761 -0.8123  1.5852 -1.3806
  333MOL0     H45911   4.335   6.219   3.841  0.3129  0.7004 -2.8057
  333MOL0     H45912   4.459   6.403   3.725 -2.3511  0.9493  1.2240
  333MOL0     H45913   4.518   6.743   3.676 -2.7451  1.9580 -1.9503
  333MOL0     H45914   4.359   6.695   3.700  0.6931  2.3776  2.0272
  333MOL0     H45915   4.461   6.578   3.613 -0.1868 -2.2777  1.8469
  333MOL0     H45916   4.444   6.913   4.230  2.3465 -3.3781 -3.2564
  333MOL0     H45917   4.436   7.141   4.340  0.1700  0.3795 -1.0137
  333MOL0     H45918   4.810   7.384   4.279  0.0009 -0.6078 -1.6343
  333MOL0     H45919   4.681   7.485   4.206  1.6322  3.4610  1.7373
  333MOL0     H45920   4.612   7.560   4.421  2.5889  2.7661  2.5774
  333MOL0     H45921   4.741   7.455   4.499 -1.7940 -2.2181 -0.4024
  333MOL0     H45922   4.738   7.694   4.309 -3.6897 -1.0692 -0.0489
  333MOL0     H45923   4.892   7.618   4.352 -0.6671 -3.9167 -1.9166
  333MOL0     H45924   4.837   7.831   4.484 -4.2257  1.8487  0.9258
  333MOL0     H45925   4.826   7.685   4.591  0.5273 -0.0540 -0.4629
  333MOL0     H45926   4.594   7.822   4.441 -0.0265 -2.1501 -0.9747
  333MOL0     H45927   4.597   7.697   4.563  1.3226  0.1293  2.8152
  333MOL0     H45928   4.706   7.976   4.579 -2.7494  1.3484 -0.6052
  333MOL0     H45929   4.684   7.873   4.720  2.4454  1.7183 -0.6580
  333MOL0     H45930   4.427   7.882   4.666  0.9690 -0.2526 -0.1942
  333MOL0     H45931   4.483   8.027   4.562 -0.1882  1.1308  0.4261
  333MOL0     H45932   4.584   8.129   4.751 -0.2881  0.0055 -0.6343
  333MOL0     H45933   4.525   8.002   4.859  3.1446 -1.5437 -1.2365
  333MOL0     H45934   4.782   7.259   4.110 -2.4269  2.1391 -2.6082
  333MOL0     H45935   4.807   7.026   4.038  0.2508 -3.0390 -0.2981
  333MOL0     H45936   4.609   6.612   4.137  2.3314  3.2564 -2.4039
  333MOL0     H45937   4.607   6.360   4.123  2.1186 -1.8383 -2.0625
  333MOL0     H45938   5.870   5.955   3.855  1.7185  0.0503 -0.0717
  333MOL0     H45939   6.033   5.974   4.062 -0.3687 -0.1188  0.4321
  333MOL0     H45940   6.206   5.848   4.429 -0.4055 -0.4188  1.7965
  333MOL0     H45941   6.391   5.862   4.582  0.2183  1.7336 -0.9040
  333MOL0     H45942   6.722   5.570   4.525 -0.8523  0.2734  1.2551
  333MOL0     H45943   6.789   5.733   4.489 -1.5886  2.4501 -0.3576
  333MOL0     H45944   6.731   5.610   4.765 -1.1467 -1.6570 -2.0350
  333MOL0     H45945   6.772   5.776   4.735 -0.6633 -0.0559 -2.5699
  333MOL0     H45946   6.939   5.544   4.654 -0.5482  0.5977 -0.3183
  333MOL0     H45947   6.976   5.711   4.616 -0.6615 -0.7225 -0.3470
  333MOL0     H45948   6.945   5.578   4.901 -0.7327 -1.6104 -0.9346
  333MOL0     H45949   6.962   5.751   4.881 -0.8191 -0.8862  1.3110
  333MOL0     H45950   7.353   5.581   4.809 -0.4679 -2.0482  1.6722
  333MOL0     H45951   6.615   5.592   4.331 -2.7293 -2.4244 -3.7890
  333MOL0     H45952   6.560   5.555   4.113 -0.1693 -0.0520  2.0508
  333MOL0     H45953   6.437   5.436   4.153  2.1260 -0.4920  1.5376
  333MOL0     H45954   6.400   5.560   4.040 -1.0867  1.0392  0.2588
  334MOL0     O45955   0.192   8.545   1.193 -0.2848  0.2637 -0.2849
  334MOL0     C45956   0.146   8.623   1.109  0.0020 -0.1229  0.3135
  334MOL0     O45957   0.021   8.620   1.051  0.1622  0.3210 -0.0908
  334MOL0     C45958  -0.055   8.510   1.086  0.8712 -1.0545  0.0375
  334MOL0     C45959  -0.088   8.404   0.997  0.8246 -0.8747 -0.1640
  334MOL0     C45960  -0.173   8.298   1.035 -0.2104 -0.3082  0.5092
  334MOL0     C45961  -0.211   8.301   1.167 -0.2098  0.6742  0.3857
  334MOL0     O45962  -0.265   8.184   1.222 -0.1917 -0.2837  0.0363
  334MOL0     C45963  -0.302   8.080   1.134 -0.5781  0.1247 -1.4219
  334MOL0     C45964  -0.390   7.976   1.205  0.0080 -0.0268  0.0479
  334MOL0     C45965  -0.472   7.889   1.115  1.2983  0.1153  1.1087
  334MOL0     C45966  -0.511   7.750   1.175 -0.2269  0.4942  0.8865
  334MOL0     C45967  -0.611   7.686   1.081 -0.1882  1.0036 -0.2930
  334MOL0     C45968  -0.540   7.602   0.969 -0.9600  0.6423  0.5738
  334MOL0     C45969  -0.629   7.591   0.836  0.4805  0.5912 -0.2654
  334MOL0     C45970  -0.726   7.473   0.853  0.2604  0.4259  0.6382
  334MOL0     N45971  -0.790   7.444   0.721  0.1791 -0.7647 -0.5359
  334MOL0     C45972  -0.906   7.493   0.677 -0.4338  0.2524 -0.3672
  334MOL0     C45973  -0.926   7.435   0.558 -0.0289  0.2692 -0.1382
  334MOL0     C45974  -1.049   7.467   0.469  0.4361 -0.1620 -0.7399
  334MOL0     C45975  -1.013   7.547   0.343 -0.5459  1.3034 -1.3142
  334MOL0     C45976  -0.979   7.688   0.381 -0.5123 -0.1276  1.4520
  334MOL0     C45977  -0.923   7.766   0.262 -0.4424 -0.3102 -0.1548
  334MOL0     O45978  -1.016   7.765   0.156  0.2216  0.2610  0.5363
  334MOL0     C45979  -0.995   7.836   0.036  0.7677  0.2541  0.5181
  334MOL0     C45980  -0.887   7.916   0.017  0.3157  0.2809  0.2664
  334MOL0     C45981  -0.860   7.988  -0.095  0.6156  0.4287  0.6745
  334MOL0     C45982  -0.729   8.065  -0.116 -1.2735 -0.3230  0.4971
  334MOL0     C45983  -0.941   7.966  -0.208  0.4429  0.3534 -0.2928
  334MOL0     C45984  -0.925   8.031  -0.331 -0.3224 -0.2442 -0.8470
  334MOL0     O45985  -0.846   7.970  -0.418  0.5717  0.1521  0.3525
  334MOL0     C45986  -0.829   8.034  -0.538 -0.1983 -0.0253 -0.0139
  334MOL0     C45987  -0.893   7.989  -0.660  0.8651  0.5438  0.3483
  334MOL0     C45988  -0.850   8.042  -0.779  0.6018  0.3418  0.4165
  334MOL0     C45989  -0.755   8.147  -0.781 -0.8691 -0.2018  0.0036
  334MOL0     O45990  -0.712   8.203  -0.898 -0.7467  0.0146 -0.0645
  334MOL0     C45991  -0.753   8.152  -1.028 -0.2958 -0.4039 -0.4785
  334MOL0     C45992  -0.694   8.251  -1.132 -0.6627  0.8388 -0.3101
  334MOL0     C45993  -0.701   8.187  -1.267 -0.2557 -0.9950  0.8088
  334MOL0     C45994  -0.656   8.303  -1.369 -0.6099 -0.2570 -0.3502
  334MOL0     C45995  -0.508   8.356  -1.367  0.2307  0.5341 -0.3285
  334MOL0     C45996  -0.416   8.233  -1.394 -0.2628 -0.4997  0.2237
  334MOL0     C45997  -0.270   8.279  -1.392 -0.2359 -1.1567 -0.6994
  334MOL0     C45998  -0.179   8.156  -1.404 -0.9829 -0.1415  0.6012
  334MOL0    Cl45999  -0.195   8.043  -1.545 -0.5226 -0.4153 -0.1396
  334MOL0     C46000  -0.689   8.188  -0.667  0.6736 -0.2680  0.5363
  334MOL0     C46001  -0.727   8.139  -0.544 -0.0526 -0.4280  0.8455
  334MOL0     O46002  -0.981   8.135  -0.344  0.6620 -0.4712  0.8355
  334MOL0     C46003  -1.050   7.875  -0.195  0.4599 -0.0534 -0.7216
  334MOL0     C46004  -1.079   7.821  -0.068 -0.0106 -0.0712 -0.4114
  334MOL0     N46005  -0.818   7.359   0.523 -0.1922  0.0947 -0.3982
  334MOL0     N46006  -0.732   7.362   0.624 -0.4035 -0.2457 -0.4852
  334MOL0     C46007  -0.172   8.393   1.251  0.1503 -0.1988  0.5744
  334MOL0     C46008  -0.097   8.501   1.223 -0.3325 -0.5719  0.0297
  334MOL0     C46009   0.238   8.730   1.061  0.2553  0.9798  0.3869
  334MOL0     C46010   0.208   8.788   0.931  0.0815  0.2008 -0.5479
  334MOL0     C46011   0.304   8.868   0.865  0.3877 -0.4404 -0.4077
  334MOL0     C46012   0.416   8.912   0.929 -0.1109 -0.0176 -0.7969
  334MOL0     O46013   0.511   8.996   0.877 -0.2438 -0.0831  0.1915
  334MOL0     C46014   0.655   8.989   0.912  0.4612 -0.7750  0.0298
  334MOL0     C46015   0.686   9.107   1.008 -0.6382  0.5255  0.0933
  334MOL0     C46016   0.816   9.121   1.093  0.4706 -0.2468  0.6352
  334MOL0     C46017   0.912   9.242   1.075 -0.0177  0.0720 -0.0659
  334MOL0     C46018   0.945   9.275   0.934 -0.1522 -1.0499  0.4933
  334MOL0     C46019   0.956   9.300   0.815 -0.2793  0.0293  0.9048
  334MOL0     C46020   0.428   8.870   1.058  0.6821 -0.5871 -0.1913
  334MOL0     C46021   0.355   8.768   1.122  0.2758  0.3716 -0.4044
  334MOL0     C46022   0.404   8.714   1.250  0.3955 -0.1200 -0.9904
  334MOL0     H46023  -0.048   8.404   0.896  1.6198 -2.9299  0.1124
  334MOL0     H46024  -0.181   8.224   0.956  0.5249  1.5222 -1.3813
  334MOL0     H46025  -0.210   8.040   1.089  1.2269  3.3978 -0.9777
  334MOL0     H46026  -0.361   8.127   1.055 -1.4574  2.0104  0.2741
  334MOL0     H46027  -0.322   7.918   1.269  0.6218  1.9354  1.2767
  334MOL0     H46028  -0.464   8.021   1.272  0.0528  1.9228 -1.1379
  334MOL0     H46029  -0.559   7.953   1.098  1.9477  0.8568  0.5049
  334MOL0     H46030  -0.422   7.865   1.021  0.1223 -2.8315  1.1254
  334MOL0     H46031  -0.424   7.685   1.188 -1.5018 -1.9664 -1.8074
  334MOL0     H46032  -0.565   7.775   1.267  0.0972  0.2235  1.1520
  334MOL0     H46033  -0.667   7.773   1.048  1.1303  2.1595  0.4340
  334MOL0     H46034  -0.681   7.623   1.137  0.0221  0.9436 -0.0950
  334MOL0     H46035  -0.451   7.658   0.940  0.7681 -2.7748 -1.4015
  334MOL0     H46036  -0.512   7.506   1.014  0.7197  2.0862  2.8607
  334MOL0     H46037  -0.559   7.579   0.753  3.0930  0.7872  1.7613
  334MOL0     H46038  -0.690   7.681   0.819  1.5201  1.0447 -1.8210
  334MOL0     H46039  -0.682   7.380   0.890  0.7071  0.2156 -0.3614
  334MOL0     H46040  -0.799   7.504   0.928  2.7445  2.4405  2.3635
  334MOL0     H46041  -0.969   7.569   0.721  0.6662  1.7998 -1.3184
  334MOL0     H46042  -1.133   7.518   0.516  0.3574 -0.6862 -0.3018
  334MOL0     H46043  -1.095   7.375   0.431 -2.1505  0.4897  0.5812
  334MOL0     H46044  -0.926   7.505   0.293 -1.4045  0.6167 -2.2849
  334MOL0     H46045  -1.090   7.546   0.265 -2.3591  0.1734  0.3950
  334MOL0     H46046  -1.069   7.733   0.424 -0.6885  1.4191 -0.3978
  334MOL0     H46047  -0.903   7.678   0.459 -1.0968  0.6424  2.1317
  334MOL0     H46048  -0.899   7.870   0.286  0.7653 -0.4605 -0.6498
  334MOL0     H46049  -0.835   7.727   0.210 -1.1913 -0.9664 -0.9707
  334MOL0     H46050  -0.819   7.915   0.102 -0.5457 -0.5469  0.9645
  334MOL0     H46051  -0.649   8.051  -0.043 -0.9684 -1.3276 -0.0134
  334MOL0     H46052  -0.748   8.172  -0.101  1.0659 -0.0604  2.3120
  334MOL0     H46053  -0.691   8.048  -0.217 -1.6902 -0.8041  0.4230
  334MOL0     H46054  -0.966   7.909  -0.664  0.9028  0.4877  0.8001
  334MOL0     H46055  -0.890   8.005  -0.873  0.0014  0.4885  0.6091
  334MOL0     H46056  -0.719   8.048  -1.031 -3.2032 -1.4747  0.3331
  334MOL0     H46057  -0.862   8.148  -1.042 -0.3926 -2.6163  0.6552
  334MOL0     H46058  -0.759   8.339  -1.123 -0.6520  0.6475  2.6905
  334MOL0     H46059  -0.588   8.261  -1.109 -0.3775 -1.3080 -0.5344
  334MOL0     H46060  -0.806   8.161  -1.284 -0.3409  0.2267 -0.8818
  334MOL0     H46061  -0.643   8.095  -1.274  1.2044 -0.2502  2.3119
  334MOL0     H46062  -0.714   8.395  -1.358  0.9437  0.8075 -0.8453
  334MOL0     H46063  -0.673   8.253  -1.465  0.6351 -4.4228  1.3754
  334MOL0     H46064  -0.499   8.434  -1.443  3.6319  0.7936  0.1920
  334MOL0     H46065  -0.488   8.405  -1.271  2.2312  0.8700 -0.8858
  334MOL0     H46066  -0.440   8.197  -1.494  1.9909 -0.4863 -0.3841
  334MOL0     H46067  -0.436   8.167  -1.308 -1.8104 -1.9669 -1.1732
  334MOL0     H46068  -0.243   8.327  -1.297  0.0882  0.2990 -1.4932
  334MOL0     H46069  -0.257   8.347  -1.477 -2.7078  0.4755  0.1060
  334MOL0     H46070  -0.205   8.098  -1.315 -2.4431  0.7590  0.7901
  334MOL0     H46071  -0.075   8.183  -1.386 -1.6111  0.5332  3.7221
  334MOL0     H46072  -0.601   8.251  -0.656 -0.1944  0.5898  3.2411
  334MOL0     H46073  -0.681   8.186  -0.457  0.0345 -1.8074  1.5806
  334MOL0     H46074  -1.112   7.856  -0.282 -1.5310  0.9435  0.3960
  334MOL0     H46075  -1.164   7.753  -0.064  1.4272 -1.9899 -0.8189
  334MOL0     H46076  -0.223   8.366   1.343 -0.6944 -1.0894 -0.1326
  334MOL0     H46077  -0.073   8.580   1.293 -0.9204  2.0876 -2.5840
  334MOL0     H46078   0.121   8.752   0.876 -0.1593 -1.3422  0.7641
  334MOL0     H46079   0.288   8.908   0.765 -0.2832 -1.0456 -0.5532
  334MOL0     H46080   0.692   8.905   0.973  3.8435  1.7537  1.7835
  334MOL0     H46081   0.725   9.004   0.829  0.8080  2.9970  0.8653
  334MOL0     H46082   0.596   9.126   1.066 -0.6247  2.2649 -0.3740
  334MOL0     H46083   0.689   9.192   0.938  1.2259 -0.6018 -1.3130
  334MOL0     H46084   0.773   9.121   1.193 -1.0367 -0.8776  0.0134
  334MOL0     H46085   0.872   9.027   1.084  2.2120  0.8818 -1.4584
  334MOL0     H46086   1.003   9.230   1.134 -1.0044 -0.4140  1.4401
  334MOL0     H46087   0.855   9.325   1.117 -0.7504 -0.8643  0.8520
  334MOL0     H46088   0.979   9.317   0.712 -1.2654  0.9976  0.8191
  334MOL0     H46089   0.512   8.909   1.115 -0.0294  1.3998 -0.4072
  334MOL0     H46090   0.460   8.621   1.237  2.4759  1.0416 -0.6970
  334MOL0     H46091   0.474   8.782   1.299 -0.1489 -1.8384  2.4976
  334MOL0     H46092   0.325   8.698   1.324 -0.7571  0.3224 -2.0791
  335MOL0     O46093   1.072   7.079   0.791  0.3435  0.4061  0.2926
  335MOL0     C46094   0.965   7.123   0.745  0.2700  0.4708  0.8180
  335MOL0     O46095   0.873   7.043   0.686  0.5176  0.0293 -0.3151
  335MOL0     C46096   0.912   6.919   0.670 -0.7782 -0.5120  0.5621
  335MOL0     C46097   0.868   6.819   0.753  1.0274  0.9570  0.7050
  335MOL0     C46098   0.911   6.680   0.740 -0.2316  0.0745 -0.0602
  335MOL0     C46099   1.002   6.645   0.636 -0.7326 -0.8372 -0.5843
  335MOL0     O46100   1.046   6.513   0.634 -0.3554 -0.4084 -0.0232
  335MOL0     C46101   1.106   6.464   0.755  1.0064  0.1628  0.0451
  335MOL0     C46102   1.169   6.330   0.706  0.7682 -0.3224  1.0167
  335MOL0     C46103   1.231   6.245   0.811  0.3875  0.8496 -0.5588
  335MOL0     C46104   1.332   6.145   0.752  1.2716 -0.2566  0.5965
  335MOL0     C46105   1.402   6.061   0.858 -0.7387  0.1126  0.4763
  335MOL0     C46106   1.531   5.996   0.801  0.2071  0.0335 -0.2227
  335MOL0     C46107   1.488   5.863   0.718  0.1674 -0.1861 -0.3963
  335MOL0     C46108   1.591   5.800   0.621  0.8830 -0.3908 -0.0547
  335MOL0     N46109   1.619   5.872   0.498 -0.1997 -0.4316  0.5120
  335MOL0     C46110   1.668   5.803   0.390 -0.8633  0.0715 -0.2150
  335MOL0     C46111   1.721   5.889   0.291 -0.3427  0.5169 -0.4017
  335MOL0     C46112   1.779   5.865   0.157 -0.3085 -0.4013  0.4806
  335MOL0     C46113   1.812   6.000   0.081 -0.5502 -0.1111 -0.1374
  335MOL0     C46114   1.686   6.059   0.018  0.5302 -0.9587 -0.5725
  335MOL0     C46115   1.724   6.203  -0.032  0.1949  0.1042 -0.7495
  335MOL0     O46116   1.753   6.193  -0.170 -0.2376  0.5631 -0.0069
  335MOL0     C46117   1.662   6.208  -0.265 -0.7452 -0.2953 -0.5667
  335MOL0     C46118   1.524   6.203  -0.249 -0.7752 -0.8165 -0.5656
  335MOL0     C46119   1.441   6.211  -0.365  0.0436 -0.6311 -0.2769
  335MOL0     C46120   1.295   6.205  -0.344  0.6313  0.7497 -0.8027
  335MOL0     C46121   1.497   6.227  -0.502 -0.1655 -0.2096  0.5304
  335MOL0     C46122   1.422   6.245  -0.626 -0.3920  0.3092 -0.3478
  335MOL0     O46123   1.285   6.249  -0.622 -0.3056  0.6106  0.2529
  335MOL0     C46124   1.194   6.174  -0.695 -0.6120  0.1913 -0.4737
  335MOL0     C46125   1.061   6.172  -0.652 -0.6216 -0.2070 -0.2171
  335MOL0     C46126   0.964   6.104  -0.726  1.1189 -0.5785  0.6778
  335MOL0     C46127   0.998   6.036  -0.846 -0.4583  0.9687  1.3760
  335MOL0     O46128   0.915   5.955  -0.922  0.0744  0.4964 -0.7051
  335MOL0     C46129   0.828   5.878  -0.844  0.3579 -0.4750 -0.2599
  335MOL0     C46130   0.826   5.738  -0.898  0.3040 -0.0889  1.0369
  335MOL0     C46131   0.772   5.641  -0.794  0.1266 -0.6732  0.3478
  335MOL0     C46132   0.812   5.492  -0.818  0.0770 -0.3976  0.4498
  335MOL0     C46133   0.747   5.400  -0.718 -0.0351  0.6673  0.0243
  335MOL0     C46134   0.590   5.410  -0.738  0.6809  0.1718 -0.0213
  335MOL0     C46135   0.520   5.291  -0.672 -1.1383 -0.6697  0.2393
  335MOL0     C46136   0.538   5.281  -0.519  0.2151  0.0116  0.9734
  335MOL0    Cl46137   0.405   5.170  -0.447 -0.0555  0.2282 -0.4210
  335MOL0     C46138   1.126   6.056  -0.893 -0.1383  0.1270  0.8696
  335MOL0     C46139   1.219   6.109  -0.815  0.0207  0.3501  0.5732
  335MOL0     O46140   1.485   6.212  -0.727 -0.2655  0.2279  0.2062
  335MOL0     C46141   1.638   6.223  -0.506  1.1526 -0.6047 -0.5271
  335MOL0     C46142   1.716   6.205  -0.395 -0.5771 -0.2056 -0.6028
  335MOL0     N46143   1.699   6.013   0.355 -0.3758  0.1175 -0.1239
  335MOL0     N46144   1.633   6.002   0.468 -0.5262  0.1481 -0.6814
  335MOL0     C46145   1.028   6.747   0.537 -0.1816  0.2287 -0.8607
  335MOL0     C46146   0.988   6.881   0.555  0.7974  1.2885 -0.3257
  335MOL0     C46147   0.939   7.268   0.753  0.5758  0.6847  0.0618
  335MOL0     C46148   0.807   7.308   0.749 -0.6478 -0.0326  0.1703
  335MOL0     C46149   0.775   7.444   0.779  0.5599  0.5377  0.1438
  335MOL0     C46150   0.868   7.542   0.801 -0.8460  0.3856 -0.4249
  335MOL0     O46151   0.814   7.666   0.834 -0.8004 -0.4073  0.0383
  335MOL0     C46152   0.901   7.747   0.916  0.0310  0.3840  0.3398
  335MOL0     C46153   0.812   7.869   0.946  0.3594 -0.1993 -0.5070
  335MOL0     C46154   0.890   8.001   0.967 -0.7687  0.5595  0.1392
  335MOL0     C46155   0.791   8.123   0.989 -0.0421 -0.1064  0.3140
  335MOL0     C46156   0.745   8.155   1.124 -1.0359 -0.0072 -0.6981
  335MOL0     C46157   0.707   8.179   1.232  0.3015 -0.2162 -0.2555
  335MOL0     C46158   1.005   7.499   0.783  0.3958 -0.2478 -0.5893
  335MOL0     C46159   1.040   7.362   0.753 -0.4461 -1.1023 -0.8745
  335MOL0     C46160   1.193   7.347   0.769 -0.3035  0.9764  0.2260
  335MOL0     H46161   0.805   6.852   0.836  3.5707 -0.4682  3.4016
  335MOL0     H46162   0.879   6.607   0.813 -2.3239  1.0553  0.0848
  335MOL0     H46163   1.026   6.452   0.828  1.2133 -0.6496  0.1398
  335MOL0     H46164   1.179   6.540   0.785 -0.8186  1.9536  0.2287
  335MOL0     H46165   1.089   6.275   0.657 -0.0424  1.9458 -0.3551
  335MOL0     H46166   1.237   6.342   0.621  1.5788  0.2414  1.7215
  335MOL0     H46167   1.284   6.314   0.879  6.3720  0.0141 -3.6946
  335MOL0     H46168   1.149   6.201   0.868  0.8298  0.5151 -0.1727
  335MOL0     H46169   1.286   6.076   0.681  1.3247 -1.8356  2.0210
  335MOL0     H46170   1.411   6.198   0.698  1.4162 -1.6087 -0.5733
  335MOL0     H46171   1.334   5.990   0.905 -1.4210  2.7472  3.7945
  335MOL0     H46172   1.436   6.129   0.936 -0.9695  3.7512 -2.3131
  335MOL0     H46173   1.586   6.057   0.729  0.8465  3.4355  2.8327
  335MOL0     H46174   1.600   5.959   0.878  0.5277  0.6286 -0.2137
  335MOL0     H46175   1.389   5.876   0.673 -0.8767 -0.1350  1.7862
  335MOL0     H46176   1.463   5.794   0.799 -1.5767 -1.3145 -1.8557
  335MOL0     H46177   1.679   5.774   0.679 -0.0060 -3.2180  0.1545
  335MOL0     H46178   1.558   5.703   0.583  0.9947 -0.7274  0.7061
  335MOL0     H46179   1.636   5.699   0.389 -1.7683  0.1639  3.6029
  335MOL0     H46180   1.715   5.798   0.099 -0.2158 -0.3644  0.3325
  335MOL0     H46181   1.879   5.826   0.179  1.0643  1.9233 -1.0604
  335MOL0     H46182   1.863   6.065   0.153 -2.0365  1.0024 -0.0386
  335MOL0     H46183   1.885   5.985   0.001 -0.7773 -0.6818 -0.2431
  335MOL0     H46184   1.666   5.995  -0.068  2.4931 -1.5508 -0.6263
  335MOL0     H46185   1.596   6.068   0.080 -2.1787 -2.1446 -4.0184
  335MOL0     H46186   1.644   6.273  -0.007  1.1959  0.8929  0.3836
  335MOL0     H46187   1.813   6.240   0.021 -0.1798  0.1863 -0.1632
  335MOL0     H46188   1.482   6.187  -0.150 -0.0359  1.9237  0.2792
  335MOL0     H46189   1.267   6.207  -0.238  1.5943  0.8253 -0.5432
  335MOL0     H46190   1.245   6.121  -0.393  1.4703 -0.7033  0.7223
  335MOL0     H46191   1.243   6.297  -0.372  0.0948  1.3214  1.8023
  335MOL0     H46192   1.037   6.224  -0.560  1.4792 -3.6098  2.5258
  335MOL0     H46193   0.860   6.112  -0.696  0.9752  0.5792 -0.0544
  335MOL0     H46194   0.849   5.892  -0.737 -4.6321  1.1370  0.7705
  335MOL0     H46195   0.723   5.906  -0.844  0.7439  1.0906 -0.1325
  335MOL0     H46196   0.757   5.737  -0.983  0.4997  0.3057  0.8687
  335MOL0     H46197   0.920   5.699  -0.939 -1.2592 -3.4148  0.2899
  335MOL0     H46198   0.663   5.644  -0.808  0.4138  0.5390 -2.1637
  335MOL0     H46199   0.791   5.677  -0.693 -0.5202 -2.1117  1.0138
  335MOL0     H46200   0.920   5.491  -0.799  0.8304  0.9237 -3.0740
  335MOL0     H46201   0.792   5.459  -0.920 -0.2035 -1.3966  0.8096
  335MOL0     H46202   0.795   5.309  -0.755  0.3790  1.1793 -0.7075
  335MOL0     H46203   0.775   5.435  -0.618  0.3454  1.1653 -0.2578
  335MOL0     H46204   0.558   5.421  -0.842 -0.6083  0.8884  0.4322
  335MOL0     H46205   0.561   5.499  -0.682 -0.2890 -1.2151  1.7547
  335MOL0     H46206   0.557   5.201  -0.723  1.9019  0.8957 -0.5168
  335MOL0     H46207   0.413   5.290  -0.696 -1.1361 -1.7883  0.2140
  335MOL0     H46208   0.512   5.382  -0.485  1.8432  0.4281  1.0801
  335MOL0     H46209   0.640   5.269  -0.481 -0.2452  1.5617  2.8821
  335MOL0     H46210   1.140   6.025  -0.996  2.0352 -4.4062  2.2799
  335MOL0     H46211   1.317   6.112  -0.861 -0.8368  1.4184 -1.2567
  335MOL0     H46212   1.709   6.228  -0.589  0.6384  1.5151 -0.8881
  335MOL0     H46213   1.820   6.181  -0.410 -0.2239 -0.3726  1.7606
  335MOL0     H46214   1.077   6.710   0.448  0.6674 -2.3241  0.5638
  335MOL0     H46215   1.013   6.960   0.485  0.8069 -0.6632 -2.6992
  335MOL0     H46216   0.727   7.237   0.731 -0.9212  0.5182 -0.8432
  335MOL0     H46217   0.672   7.467   0.806  1.0089  0.6231  1.8486
  335MOL0     H46218   0.924   7.704   1.014  1.3724  1.9052  0.7374
  335MOL0     H46219   0.997   7.782   0.876  0.8670 -1.5842  0.5150
  335MOL0     H46220   0.753   7.844   1.035  1.8253  4.2028  2.0125
  335MOL0     H46221   0.757   7.884   0.853  0.5669  0.3792 -0.5373
  335MOL0     H46222   0.949   7.983   1.057 -0.3157 -3.9482 -0.8266
  335MOL0     H46223   0.965   8.017   0.889 -0.1146  2.0856  1.0296
  335MOL0     H46224   0.699   8.128   0.930  1.1110  3.4340 -1.4073
  335MOL0     H46225   0.841   8.211   0.948 -0.6057  0.5203  0.9304
  335MOL0     H46226   0.665   8.190   1.330 -0.7480 -0.2129 -0.6857
  335MOL0     H46227   1.085   7.571   0.767  0.8425 -1.5925 -6.2824
  335MOL0     H46228   1.227   7.250   0.730 -3.1822 -0.1913  0.3484
  335MOL0     H46229   1.255   7.425   0.725  1.1536 -0.9514 -1.3430
  335MOL0     H46230   1.209   7.359   0.877 -1.4273  0.2533  0.4992
  336MOL0     O46231   8.430   9.723   4.464 -1.1209  0.0049 -0.0317
  336MOL0     C46232   8.510   9.800   4.401  0.1926 -0.3283 -0.3642
  336MOL0     O46233   8.613   9.869   4.456  0.7807  0.1018  0.1365
  336MOL0     C46234   8.648   9.843   4.590  0.3377 -0.5171 -0.0170
  336MOL0     C46235   8.765   9.769   4.628 -0.3267 -1.1574  0.2618
  336MOL0     C46236   8.787   9.724   4.752 -0.1772  0.6157 -0.4595
  336MOL0     C46237   8.696   9.759   4.852  0.0653  0.2191 -0.4919
  336MOL0     O46238   8.705   9.697   4.977  0.8401 -0.1451  0.1639
  336MOL0     C46239   8.598   9.671   5.066  0.8408 -0.6517  0.1261
  336MOL0     C46240   8.663   9.593   5.181  0.3607 -0.4232 -0.8596
  336MOL0     C46241   8.677   9.441   5.154 -0.4659  0.3503  0.4162
  336MOL0     C46242   8.714   9.377   5.288  1.2044 -1.0223 -0.1459
  336MOL0     C46243   8.775   9.237   5.270  0.1080 -0.1207 -0.2687
  336MOL0     C46244   8.800   9.163   5.403  0.3409  0.5266  0.5868
  336MOL0     C46245   8.914   9.057   5.385  0.9103  0.2803 -0.5726
  336MOL0     C46246   8.865   8.932   5.299 -0.3754 -0.1109  0.2151
  336MOL0     N46247   8.976   8.844   5.264 -0.1899  0.6652 -0.4474
  336MOL0     C46248   8.973   8.704   5.278  0.9602 -0.8329  0.5837
  336MOL0     C46249   9.091   8.676   5.225 -0.0849 -0.2403 -1.0271
  336MOL0     C46250   9.147   8.537   5.195 -0.1206 -0.9748  0.2642
  336MOL0     C46251   9.042   8.438   5.136  0.5583 -0.0043  0.1253
  336MOL0     C46252   8.975   8.485   5.007  0.3738 -0.0953  1.0458
  336MOL0     C46253   8.905   8.379   4.933  0.4661  0.4485  0.0308
  336MOL0     O46254   8.831   8.303   5.032  0.0997  0.2362  0.2792
  336MOL0     C46255   8.779   8.179   4.995  0.3865  1.0058 -0.7633
  336MOL0     C46256   8.745   8.102   5.105  0.6400  0.7187  0.5845
  336MOL0     C46257   8.715   7.967   5.094 -0.9126  0.4065  1.5400
  336MOL0     C46258   8.701   7.887   5.223 -0.1539  0.0418 -0.6343
  336MOL0     C46259   8.710   7.908   4.960  0.5805  0.1633 -0.4995
  336MOL0     C46260   8.657   7.770   4.935 -0.1464  0.9201  0.2782
  336MOL0     O46261   8.702   7.705   4.826 -0.1688  0.9109 -0.0180
  336MOL0     C46262   8.694   7.574   4.814  0.8786  0.0925 -0.0582
  336MOL0     C46263   8.566   7.509   4.813 -0.0560  0.3569  0.4624
  336MOL0     C46264   8.546   7.374   4.806  0.4805  0.0838  0.5776
  336MOL0     C46265   8.656   7.295   4.789 -1.3260  0.2169  0.6915
  336MOL0     O46266   8.633   7.155   4.785  0.4672 -0.6380  0.0036
  336MOL0     C46267   8.695   7.066   4.690  0.3416 -0.5956 -0.7689
  336MOL0     C46268   8.586   6.998   4.618 -0.0323 -0.0745 -0.1879
  336MOL0     C46269   8.467   7.080   4.584  0.3736 -0.3821 -0.3393
  336MOL0     C46270   8.478   7.164   4.466 -0.4225  0.3812 -0.3221
  336MOL0     C46271   8.379   7.280   4.466  1.3572 -0.2446  0.0699
  336MOL0     C46272   8.358   7.345   4.325 -0.1638  0.1387 -0.0369
  336MOL0     C46273   8.271   7.250   4.225  0.6750 -0.6339 -0.3017
  336MOL0     C46274   8.123   7.237   4.263 -0.2487  0.2546  0.3584
  336MOL0    Cl46275   8.093   7.068   4.236 -0.3696 -0.2430  0.3519
  336MOL0     C46276   8.782   7.353   4.771  0.2716 -0.1648  0.2425
  336MOL0     C46277   8.800   7.491   4.784  0.6115 -0.7445 -0.1322
  336MOL0     O46278   8.587   7.721   5.015  0.4121  0.2758 -0.0296
  336MOL0     C46279   8.749   7.989   4.848 -0.6881  1.4527  0.0909
  336MOL0     C46280   8.791   8.115   4.868  0.7952 -0.9454  1.0774
  336MOL0     N46281   9.164   8.786   5.200 -0.1457 -0.2925 -0.0168
  336MOL0     N46282   9.096   8.887   5.217  0.5293 -0.3606 -0.6052
  336MOL0     C46283   8.584   9.838   4.816 -0.5447  0.4901 -0.0178
  336MOL0     C46284   8.558   9.886   4.689  0.3438  0.0684 -0.5646
  336MOL0     C46285   8.473   9.825   4.260 -0.1297  0.2453 -0.4012
  336MOL0     C46286   8.500   9.957   4.203 -0.3101  0.2373  0.1359
  336MOL0     C46287   8.469   9.975   4.069  0.2063 -0.1190 -0.8170
  336MOL0     C46288   8.406   9.887   3.987 -0.0046  1.3382 -0.0162
  336MOL0     O46289   8.368   9.914   3.858 -0.2237 -0.7926 -0.2710
  336MOL0     C46290   8.413   9.804   3.771 -0.3341 -0.1571  0.6457
  336MOL0     C46291   8.457   9.862   3.635  0.6544  0.2056  1.0438
  336MOL0     C46292   8.571   9.961   3.648  0.4474  0.0760  0.2122
  336MOL0     C46293   8.700   9.910   3.725  0.6070 -0.0283 -0.3509
  336MOL0     C46294   8.815   9.994   3.685 -0.5030 -0.8601  0.5259
  336MOL0     C46295   8.905  10.062   3.627 -0.5308 -0.8703 -0.6233
  336MOL0     C46296   8.380   9.757   4.038  0.5489 -0.2465 -0.0536
  336MOL0     C46297   8.413   9.732   4.173  0.4926 -0.1878  1.0938
  336MOL0     C46298   8.375   9.590   4.211 -0.1480  0.6091 -0.6259
  336MOL0     H46299   8.830   9.748   4.543 -1.8865 -2.2715 -0.7068
  336MOL0     H46300   8.871   9.663   4.782 -2.2113  0.1011  5.8011
  336MOL0     H46301   8.522   9.600   5.030  2.6518 -1.8898 -1.4680
  336MOL0     H46302   8.551   9.763   5.103 -0.8727 -1.8999  1.2235
  336MOL0     H46303   8.770   9.612   5.195  0.4979 -1.5734 -0.2135
  336MOL0     H46304   8.607   9.617   5.272  2.7896 -1.8009  1.1232
  336MOL0     H46305   8.587   9.393   5.115  1.4126 -3.7514  0.5811
  336MOL0     H46306   8.752   9.425   5.076  0.3155  0.5587  1.1094
  336MOL0     H46307   8.780   9.434   5.353  0.1584 -0.6458  0.6170
  336MOL0     H46308   8.613   9.369   5.330 -0.3844  1.5003 -3.0519
  336MOL0     H46309   8.869   9.254   5.216  1.0445 -0.2014  1.2986
  336MOL0     H46310   8.701   9.170   5.226  1.1297 -1.8506  0.5353
  336MOL0     H46311   8.843   9.237   5.471  1.0522  1.5989 -0.9772
  336MOL0     H46312   8.707   9.113   5.432 -0.3515  1.9110  0.8086
  336MOL0     H46313   8.951   9.033   5.486  3.6893 -0.3737 -1.6497
  336MOL0     H46314   8.993   9.105   5.327 -0.9211  2.2212 -1.6105
  336MOL0     H46315   8.790   8.875   5.355  0.7905  1.1354  3.2522
  336MOL0     H46316   8.819   8.977   5.210  0.2190 -2.9575 -1.6684
  336MOL0     H46317   8.901   8.624   5.292  1.6847 -1.6855 -0.3991
  336MOL0     H46318   9.202   8.498   5.281 -0.4272 -2.3306 -0.1331
  336MOL0     H46319   9.222   8.551   5.117  0.1481 -2.6606  0.1738
  336MOL0     H46320   9.098   8.345   5.126  3.6128  1.5263  1.3251
  336MOL0     H46321   8.975   8.433   5.223  2.2930 -1.3279  1.4764
  336MOL0     H46322   8.896   8.557   5.031 -0.9555 -0.5688 -1.6037
  336MOL0     H46323   9.043   8.536   4.939 -0.1900  1.2919  1.4860
  336MOL0     H46324   8.838   8.399   4.849 -2.1791 -0.1936  1.8518
  336MOL0     H46325   8.980   8.308   4.897  0.0978  0.4549 -0.7794
  336MOL0     H46326   8.730   8.150   5.201 -0.4876  1.2014  0.1921
  336MOL0     H46327   8.747   7.926   5.314 -2.0433 -1.4240  1.0432
  336MOL0     H46328   8.743   7.788   5.206  1.8801  0.9942 -1.5571
  336MOL0     H46329   8.596   7.886   5.256  0.4026 -2.1994  1.3064
  336MOL0     H46330   8.488   7.582   4.831 -1.3103 -0.3279 -1.8341
  336MOL0     H46331   8.451   7.325   4.825  1.8130 -2.2672  1.6675
  336MOL0     H46332   8.753   7.131   4.624  1.6251 -2.9906 -2.1346
  336MOL0     H46333   8.771   7.006   4.742  1.1579 -1.1759 -2.5783
  336MOL0     H46334   8.630   6.964   4.524  2.9307  0.8591  0.7506
  336MOL0     H46335   8.555   6.912   4.679  0.3577 -0.2069 -0.1708
  336MOL0     H46336   8.439   7.142   4.669  0.7113  1.3955 -1.4810
  336MOL0     H46337   8.379   7.016   4.570 -0.3718 -0.0351  2.3154
  336MOL0     H46338   8.467   7.093   4.384 -1.9012 -2.7211  2.3681
  336MOL0     H46339   8.575   7.214   4.458 -0.6796  0.6458 -2.6768
  336MOL0     H46340   8.288   7.252   4.521  2.8500 -4.2737  0.8437
  336MOL0     H46341   8.414   7.365   4.525  0.7362  1.9928 -2.5699
  336MOL0     H46342   8.461   7.361   4.292  0.3864 -0.2837  1.3726
  336MOL0     H46343   8.319   7.447   4.321  0.6073  0.4484 -4.2739
  336MOL0     H46344   8.304   7.147   4.213 -0.5118 -0.7894 -2.9910
  336MOL0     H46345   8.284   7.284   4.122  0.9269 -3.3129 -1.2349
  336MOL0     H46346   8.072   7.297   4.187 -1.4437 -1.7279 -0.4855
  336MOL0     H46347   8.099   7.275   4.363 -0.2210 -0.6637  0.7196
  336MOL0     H46348   8.869   7.299   4.735  0.0198 -0.4084 -0.0027
  336MOL0     H46349   8.903   7.524   4.774  0.8825 -0.7773  1.9916
  336MOL0     H46350   8.767   7.940   4.753 -0.6271 -1.0962  1.3355
  336MOL0     H46351   8.804   8.168   4.774 -0.9305  0.2713  1.4711
  336MOL0     H46352   8.511   9.866   4.891  0.4354 -0.0898  1.1973
  336MOL0     H46353   8.484   9.964   4.674  0.1164 -0.0626 -0.1435
  336MOL0     H46354   8.542  10.039   4.261 -0.0914  0.5553 -0.4624
  336MOL0     H46355   8.488  10.069   4.019  1.9208 -1.3803 -2.7165
  336MOL0     H46356   8.507   9.756   3.800 -0.1017  0.3128  0.6860
  336MOL0     H46357   8.328   9.735   3.767 -0.5574 -0.1514  3.5540
  336MOL0     H46358   8.371   9.903   3.580  1.1415 -1.3261 -0.9407
  336MOL0     H46359   8.498   9.784   3.571 -0.8328 -1.1971  1.7093
  336MOL0     H46360   8.596   9.976   3.543 -0.0552  2.0121  0.3448
  336MOL0     H46361   8.541  10.056   3.693  1.5498  1.6106 -2.0960
  336MOL0     H46362   8.710   9.807   3.692  1.9708  1.0787 -3.9059
  336MOL0     H46363   8.674   9.913   3.831 -1.9705  1.3342 -0.9564
  336MOL0     H46364   8.976  10.117   3.568 -1.5514 -0.5033 -1.5390
  336MOL0     H46365   8.320   9.687   3.981  3.0523 -1.5019 -1.3033
  336MOL0     H46366   8.270   9.564   4.225  0.0180 -1.0683 -2.0160
  336MOL0     H46367   8.392   9.525   4.124 -1.0378 -4.9634  2.8592
  336MOL0     H46368   8.443   9.542   4.282  0.0824 -0.6297 -1.6403
  337MOL0     O46369   8.513   3.321   4.672  0.3148 -0.0971 -0.1897
  337MOL0     C46370   8.439   3.228   4.707 -0.4491  0.6454 -0.0970
  337MOL0     O46371   8.448   3.156   4.823  0.6178 -0.5170  0.3358
  337MOL0     C46372   8.543   3.189   4.911  0.4337  0.5553 -0.1104
  337MOL0     C46373   8.506   3.222   5.043  0.4930  0.3671  0.5604
  337MOL0     C46374   8.592   3.301   5.116  0.5971 -0.4712 -0.2123
  337MOL0     C46375   8.718   3.316   5.091 -0.6492 -0.0153  0.4942
  337MOL0     O46376   8.803   3.359   5.185  0.0958 -0.1833  1.2168
  337MOL0     C46377   8.883   3.250   5.234 -0.3342  0.7524 -0.6208
  337MOL0     C46378   8.959   3.307   5.357 -0.3397 -0.4411  0.0499
  337MOL0     C46379   8.868   3.288   5.488  0.3070  0.0862  0.3259
  337MOL0     C46380   8.948   3.313   5.614 -0.0955  0.3845 -0.0167
  337MOL0     C46381   8.868   3.301   5.747 -0.6574  0.2320 -0.1291
  337MOL0     C46382   8.733   3.366   5.743 -0.2578 -0.3665 -0.1373
  337MOL0     C46383   8.735   3.516   5.720 -0.2057 -0.7032 -0.7777
  337MOL0     C46384   8.598   3.580   5.687  0.2944  0.6290 -0.0748
  337MOL0     N46385   8.595   3.695   5.600  0.3289  0.2110  0.1470
  337MOL0     C46386   8.639   3.698   5.473  0.2178  0.0994  0.9991
  337MOL0     C46387   8.562   3.794   5.406  0.0804  1.1515 -0.2818
  337MOL0     C46388   8.528   3.796   5.253 -0.1766  0.1648 -0.1803
  337MOL0     C46389   8.657   3.813   5.170  0.8991 -0.0174 -0.5549
  337MOL0     C46390   8.637   3.851   5.030 -0.1910  0.1240 -0.9929
  337MOL0     C46391   8.558   3.748   4.954 -0.1178  0.6262 -0.4606
  337MOL0     O46392   8.415   3.769   4.971  0.2771  0.5445  0.0806
  337MOL0     C46393   8.345   3.861   4.886  0.2469 -0.0421 -0.4636
  337MOL0     C46394   8.206   3.859   4.885  0.6334  0.0224 -1.3991
  337MOL0     C46395   8.120   3.952   4.819 -0.2807 -0.8597  0.6240
  337MOL0     C46396   7.975   3.946   4.859  0.1782 -0.0379  0.0105
  337MOL0     C46397   8.180   4.045   4.732 -0.6065 -0.8830 -0.1784
  337MOL0     C46398   8.106   4.148   4.648 -0.4795  0.0762 -0.3884
  337MOL0     O46399   8.184   4.254   4.596  0.0374  0.6328  0.0200
  337MOL0     C46400   8.132   4.376   4.557 -0.4316  0.4165  0.6546
  337MOL0     C46401   8.229   4.475   4.531  0.2060 -0.1211 -0.3729
  337MOL0     C46402   8.194   4.597   4.488 -0.5061 -0.1225  0.7500
  337MOL0     C46403   8.063   4.633   4.465  0.6133 -0.8345  0.5804
  337MOL0     O46404   8.029   4.751   4.408  0.4532  0.1654 -0.8367
  337MOL0     C46405   8.111   4.782   4.293  0.3078 -0.3036 -0.1282
  337MOL0     C46406   8.031   4.782   4.166  0.0587 -0.2451 -0.5701
  337MOL0     C46407   8.036   4.633   4.104  0.2890  0.4984  0.1555
  337MOL0     C46408   7.891   4.595   4.082 -0.0273  0.5588  0.5042
  337MOL0     C46409   7.885   4.451   4.036  0.3114 -0.7014 -0.0602
  337MOL0     C46410   7.823   4.362   4.148  0.2391 -0.7891  0.5420
  337MOL0     C46411   7.853   4.210   4.143  0.0202 -0.5434  0.3997
  337MOL0     C46412   7.763   4.134   4.243 -0.1236 -0.9493  0.4672
  337MOL0    Cl46413   7.594   4.154   4.196 -0.0783 -0.4243  0.5993
  337MOL0     C46414   7.968   4.539   4.504  0.0648 -1.0046 -0.3017
  337MOL0     C46415   8.007   4.407   4.536  0.6292 -1.1235 -0.3795
  337MOL0     O46416   7.987   4.128   4.622 -0.2026  0.4691 -0.5001
  337MOL0     C46417   8.325   4.054   4.735 -0.9430 -1.0353  0.2623
  337MOL0     C46418   8.392   3.966   4.811 -0.2989 -0.0232 -0.3819
  337MOL0     N46419   8.480   3.857   5.501 -0.1049  0.5803  0.5914
  337MOL0     N46420   8.503   3.796   5.618  0.4055  0.0193 -0.2203
  337MOL0     C46421   8.767   3.276   4.970  0.3624 -0.7894  0.4782
  337MOL0     C46422   8.671   3.233   4.871  0.3506 -0.8027 -0.0472
  337MOL0     C46423   8.338   3.174   4.613  0.5391 -0.4828  0.0337
  337MOL0     C46424   8.217   3.127   4.672 -0.1017  1.0434 -0.4095
  337MOL0     C46425   8.105   3.097   4.593 -0.1930 -0.4135 -0.4426
  337MOL0     C46426   8.101   3.089   4.459 -0.3003  0.3220  0.4810
  337MOL0     O46427   7.996   3.043   4.378 -0.6140 -0.2059  0.0789
  337MOL0     C46428   7.871   3.000   4.424 -0.5110 -0.0493  0.8121
  337MOL0     C46429   7.877   2.856   4.469  0.8038 -0.7200 -0.3652
  337MOL0     C46430   7.888   2.747   4.370 -0.2583 -0.1775  0.2515
  337MOL0     C46431   7.876   2.606   4.422  0.0017  0.2332 -0.6134
  337MOL0     C46432   7.993   2.545   4.481 -0.3648  0.2994 -0.2104
  337MOL0     C46433   8.078   2.476   4.541 -0.5763  0.0445  0.3514
  337MOL0     C46434   8.217   3.132   4.400  0.0241  0.6161  0.5027
  337MOL0     C46435   8.332   3.169   4.472 -0.7966  0.7002 -1.1661
  337MOL0     C46436   8.464   3.203   4.401  0.4020 -0.1418 -0.8736
  337MOL0     H46437   8.412   3.198   5.091  2.4201 -3.2467  2.9101
  337MOL0     H46438   8.550   3.339   5.208 -0.7562 -0.1104 -0.9608
  337MOL0     H46439   8.963   3.221   5.166 -0.8805 -0.4721 -0.7608
  337MOL0     H46440   8.827   3.163   5.269  2.6995 -0.3629  1.9783
  337MOL0     H46441   9.060   3.269   5.377  0.2121  0.8744 -0.1501
  337MOL0     H46442   8.978   3.411   5.329 -2.6805 -0.6322 -2.6482
  337MOL0     H46443   8.791   3.365   5.484  1.1929  0.9948  0.3608
  337MOL0     H46444   8.800   3.203   5.479 -0.3743  0.6911 -0.3766
  337MOL0     H46445   9.028   3.238   5.615  0.1570  0.6293  1.7426
  337MOL0     H46446   8.988   3.414   5.604 -2.8924  1.3544 -3.0252
  337MOL0     H46447   8.929   3.333   5.831  0.3141  1.5745 -1.2849
  337MOL0     H46448   8.857   3.194   5.768 -0.1277  0.7044  2.9771
  337MOL0     H46449   8.685   3.321   5.656  0.3845  0.7693 -1.1202
  337MOL0     H46450   8.684   3.334   5.835 -1.9539 -1.2383 -1.2999
  337MOL0     H46451   8.801   3.547   5.638 -2.1118  0.4063 -1.9750
  337MOL0     H46452   8.763   3.574   5.808  3.1852  0.3010 -2.3537
  337MOL0     H46453   8.530   3.508   5.640  3.1319 -1.3063 -1.5141
  337MOL0     H46454   8.553   3.603   5.784 -0.9712 -3.5982  0.5247
  337MOL0     H46455   8.709   3.632   5.422 -1.2507  0.4267 -1.6139
  337MOL0     H46456   8.460   3.879   5.231 -4.5454 -2.9883 -0.0686
  337MOL0     H46457   8.480   3.703   5.219 -2.2447  1.7155 -1.7316
  337MOL0     H46458   8.718   3.885   5.226  1.1661  1.0403 -2.1243
  337MOL0     H46459   8.711   3.719   5.181  0.7100 -0.4058 -2.4939
  337MOL0     H46460   8.597   3.952   5.021  1.1579  0.7077 -0.7316
  337MOL0     H46461   8.738   3.848   4.988  0.7051 -0.0077  1.0347
  337MOL0     H46462   8.575   3.738   4.846 -1.9678 -1.3203 -0.6395
  337MOL0     H46463   8.590   3.652   4.996  0.0741  0.1131 -1.7417
  337MOL0     H46464   8.160   3.784   4.949 -4.1541  1.5941 -2.5564
  337MOL0     H46465   7.948   4.043   4.901  2.9193  1.6980 -1.9227
  337MOL0     H46466   7.956   3.874   4.939 -3.2215 -0.4563 -1.0410
  337MOL0     H46467   7.907   3.927   4.776  1.7255  0.3103 -1.4074
  337MOL0     H46468   8.337   4.466   4.545  0.4639  0.9864 -1.4965
  337MOL0     H46469   8.278   4.663   4.472  1.4440 -2.5397  0.3414
  337MOL0     H46470   8.158   4.881   4.292 -0.6229  0.1884 -3.2556
  337MOL0     H46471   8.192   4.709   4.281  0.3170  0.0307 -2.3938
  337MOL0     H46472   7.926   4.811   4.175 -1.3952 -3.8548 -3.4760
  337MOL0     H46473   8.074   4.846   4.088 -3.5290  0.1567 -2.4043
  337MOL0     H46474   8.082   4.553   4.163 -0.4872 -0.7928 -0.9160
  337MOL0     H46475   8.088   4.639   4.008 -2.2702 -2.3029 -1.6079
  337MOL0     H46476   7.856   4.668   4.009  0.4856  2.9509  2.5079
  337MOL0     H46477   7.832   4.611   4.173  0.4059  0.3989  0.8127
  337MOL0     H46478   7.816   4.462   3.952  0.7455  0.4062 -0.2824
  337MOL0     H46479   7.982   4.411   4.005 -0.2781 -1.8576 -0.4824
  337MOL0     H46480   7.714   4.368   4.138  0.3940  1.7102 -0.1623
  337MOL0     H46481   7.846   4.404   4.247 -3.4813  1.8813  0.4894
  337MOL0     H46482   7.959   4.194   4.162  0.8974  3.2044 -0.4928
  337MOL0     H46483   7.836   4.167   4.044 -2.7115  0.2367  0.4340
  337MOL0     H46484   7.770   4.162   4.349 -2.0026 -3.2300  1.2642
  337MOL0     H46485   7.776   4.026   4.235 -0.4775 -0.8920 -1.2916
  337MOL0     H46486   7.863   4.556   4.485 -0.5279 -0.5718  2.8839
  337MOL0     H46487   7.936   4.325   4.546  0.2548 -0.6657  1.0500
  337MOL0     H46488   8.382   4.117   4.667 -1.8224 -2.3602 -1.8125
  337MOL0     H46489   8.500   3.966   4.811 -0.2865  0.4763  0.5094
  337MOL0     H46490   8.869   3.299   4.940  0.2410 -1.2852 -0.3593
  337MOL0     H46491   8.715   3.247   4.773  0.9831  1.1031  0.4582
  337MOL0     H46492   8.212   3.126   4.780 -1.0919  0.1303 -0.4466
  337MOL0     H46493   8.016   3.069   4.649  0.4106 -0.7970  0.3375
  337MOL0     H46494   7.848   3.053   4.517 -0.3943 -0.3195  0.9955
  337MOL0     H46495   7.787   3.003   4.354 -1.1850  0.6773  1.6171
  337MOL0     H46496   7.788   2.835   4.528 -0.3900  1.8343 -1.1177
  337MOL0     H46497   7.960   2.852   4.541 -0.7287 -0.4421  1.4902
  337MOL0     H46498   7.808   2.766   4.298 -0.3479  1.0841  0.6630
  337MOL0     H46499   7.983   2.752   4.317 -1.4429  0.6309 -1.9401
  337MOL0     H46500   7.850   2.541   4.338 -0.4417 -1.2601  0.6316
  337MOL0     H46501   7.788   2.613   4.487 -0.5874  0.8449 -1.4525
  337MOL0     H46502   8.158   2.427   4.592 -0.7687  0.7269  1.3253
  337MOL0     H46503   8.217   3.137   4.291 -1.7733 -0.7636  0.3993
  337MOL0     H46504   8.442   3.298   4.351  2.4717 -0.0009 -1.6099
  337MOL0     H46505   8.554   3.208   4.463 -0.3720  1.4053  0.2137
  337MOL0     H46506   8.497   3.128   4.330 -0.5991 -0.3791 -1.1039
  338MOL0     O46507   3.800   8.947  11.357 -0.3040 -0.4176  0.3788
  338MOL0     C46508   3.870   8.978  11.261  0.0948  0.2112  0.5203
  338MOL0     O46509   3.992   8.917  11.241 -0.0219  0.4245  0.0456
  338MOL0     C46510   4.019   8.798  11.301  0.8151  0.7703 -0.1059
  338MOL0     C46511   4.124   8.790  11.389  0.2690 -0.0055 -0.5337
  338MOL0     C46512   4.161   8.666  11.440 -0.6233 -0.3352  0.6631
  338MOL0     C46513   4.077   8.551  11.424  0.0269  0.0720  0.9090
  338MOL0     O46514   4.119   8.439  11.484 -0.5867  0.1648 -0.4018
  338MOL0     C46515   4.044   8.316  11.467 -0.6387 -0.0442  0.0099
  338MOL0     C46516   4.102   8.255  11.345  0.1520  0.0677 -0.3661
  338MOL0     C46517   4.011   8.139  11.297  0.2784  0.1077  1.0331
  338MOL0     C46518   4.050   8.011  11.340  0.0856 -0.5301 -0.5163
  338MOL0     C46519   4.020   7.893  11.248 -0.4008  0.6177  0.4847
  338MOL0     C46520   3.872   7.869  11.222  0.1251 -0.4372  0.8402
  338MOL0     C46521   3.852   7.774  11.102 -0.0176  0.8495 -0.2791
  338MOL0     C46522   3.713   7.709  11.100 -0.4373 -1.2496  0.5520
  338MOL0     N46523   3.668   7.666  11.229  0.3128  0.0203 -0.8103
  338MOL0     C46524   3.722   7.578  11.323  0.2274  0.8289  0.5623
  338MOL0     C46525   3.646   7.591  11.430  0.5915 -0.1812  0.1833
  338MOL0     C46526   3.658   7.497  11.551 -0.1766  0.4163  0.1337
  338MOL0     C46527   3.522   7.488  11.618  0.5101  0.7990  0.6902
  338MOL0     C46528   3.512   7.393  11.739  0.2861 -0.3689  0.1162
  338MOL0     C46529   3.372   7.343  11.782 -0.3341 -0.9531 -0.1304
  338MOL0     O46530   3.310   7.459  11.842 -0.1631  0.6388  0.0073
  338MOL0     C46531   3.306   7.475  11.976  0.3324 -0.8378 -0.3366
  338MOL0     C46532   3.322   7.384  12.088 -0.3564  0.3334 -0.1813
  338MOL0     C46533   3.286   7.421  12.220 -0.0629  0.1423  0.3839
  338MOL0     C46534   3.289   7.303  12.311  0.1451 -0.4887 -0.9520
  338MOL0     C46535   3.233   7.545  12.242 -0.1250 -0.0912  0.1509
  338MOL0     C46536   3.194   7.589  12.383 -0.1947  0.2382 -0.1465
  338MOL0     O46537   3.242   7.530  12.489  0.3476  1.0357  0.3893
  338MOL0     C46538   3.171   7.540  12.611 -0.3017 -0.9395  1.0235
  338MOL0     C46539   3.252   7.596  12.712 -0.0916 -0.7832  0.5621
  338MOL0     C46540   3.207   7.605  12.847  0.0817 -0.1085  0.3353
  338MOL0     C46541   3.083   7.558  12.885  0.0802 -0.2983  0.2529
  338MOL0     O46542   3.058   7.572  13.020 -0.2545 -0.1325  0.7091
  338MOL0     C46543   2.918   7.555  13.065 -0.2532 -0.3205  0.1179
  338MOL0     C46544   2.894   7.404  13.112 -0.0595  0.8665  0.2720
  338MOL0     C46545   2.741   7.370  13.140  0.0589  0.7393 -0.3876
  338MOL0     C46546   2.684   7.452  13.263 -1.3806 -0.3440  0.2179
  338MOL0     C46547   2.549   7.519  13.236 -0.1830  0.9121 -0.6066
  338MOL0     C46548   2.498   7.594  13.358  0.5308 -0.4981 -0.7485
  338MOL0     C46549   2.337   7.641  13.342  0.0554 -0.0094  0.0977
  338MOL0     C46550   2.236   7.628  13.459  0.5989 -1.0275 -0.4149
  338MOL0    Cl46551   2.061   7.674  13.415 -0.2150 -0.0932 -0.0091
  338MOL0     C46552   2.985   7.523  12.784 -1.0004  0.2569 -0.4782
  338MOL0     C46553   3.029   7.514  12.641 -0.5052  0.7727  1.0956
  338MOL0     O46554   3.112   7.687  12.383 -0.2068 -0.1889  0.4523
  338MOL0     C46555   3.211   7.634  12.133  0.1852 -0.5418  0.5015
  338MOL0     C46556   3.256   7.606  12.000  0.5808  0.2198 -0.2783
  338MOL0     N46557   3.542   7.677  11.402  0.5854 -0.9103 -0.5950
  338MOL0     N46558   3.554   7.721  11.281  0.0479  0.0529  0.4042
  338MOL0     C46559   3.980   8.557  11.322 -0.1854  0.2567  0.1552
  338MOL0     C46560   3.951   8.681  11.268 -0.4002 -0.3635 -0.5597
  338MOL0     C46561   3.825   9.094  11.188 -0.1457  0.1623  0.4281
  338MOL0     C46562   3.807   9.219  11.258 -0.2094 -0.4228  0.0918
  338MOL0     C46563   3.753   9.326  11.182 -0.4764  0.8537 -0.3487
  338MOL0     C46564   3.728   9.321  11.051  0.2477 -0.4326 -0.2603
  338MOL0     O46565   3.687   9.420  10.961 -0.2198  0.3234  0.0611
  338MOL0     C46566   3.642   9.540  11.014  1.2766 -0.5815  0.4868
  338MOL0     C46567   3.632   9.646  10.908 -0.2301  0.5351  0.0649
  338MOL0     C46568   3.556   9.765  10.971 -0.0657  0.3765 -0.2818
  338MOL0     C46569   3.576   9.894  10.896 -0.1932 -0.1769 -0.1665
  338MOL0     C46570   3.519   9.904  10.765 -0.1563  0.8207 -0.2525
  338MOL0     C46571   3.491   9.886  10.645  0.3116  0.2568 -0.8981
  338MOL0     C46572   3.749   9.206  10.984 -0.3792 -0.5045  0.3801
  338MOL0     C46573   3.799   9.085  11.045  0.5701 -1.1188 -0.9874
  338MOL0     C46574   3.809   8.956  10.961  0.5357 -0.4641 -0.2239
  338MOL0     H46575   4.177   8.881  11.416  2.4738 -1.2065 -0.5592
  338MOL0     H46576   4.249   8.668  11.504 -0.3360 -0.7021  0.2861
  338MOL0     H46577   3.938   8.337  11.456 -0.7392 -1.4471 -2.5044
  338MOL0     H46578   4.064   8.256  11.556 -0.7095 -0.9051 -0.5385
  338MOL0     H46579   4.103   8.333  11.269  0.9298  0.4026 -0.0204
  338MOL0     H46580   4.207   8.231  11.366 -0.6661 -0.9351  3.4561
  338MOL0     H46581   3.908   8.150  11.332  0.1250 -0.4198  0.7724
  338MOL0     H46582   4.008   8.137  11.187 -1.7999  2.3348  0.9654
  338MOL0     H46583   4.159   8.011  11.341  0.0988  0.5790  0.7411
  338MOL0     H46584   4.007   7.988  11.438 -0.4469  0.3101 -0.5419
  338MOL0     H46585   4.054   7.805  11.304 -5.2909 -2.6906 -1.1179
  338MOL0     H46586   4.072   7.919  11.156 -2.5736 -0.5066 -1.1353
  338MOL0     H46587   3.827   7.843  11.319  2.2784 -0.4092  1.8927
  338MOL0     H46588   3.821   7.962  11.192  0.8207 -1.0116 -2.4428
  338MOL0     H46589   3.920   7.689  11.115 -2.9221 -1.7042 -0.7040
  338MOL0     H46590   3.881   7.829  11.012 -0.2120  1.1296 -0.1725
  338MOL0     H46591   3.650   7.792  11.068  1.9970  0.0548 -1.1489
  338MOL0     H46592   3.695   7.631  11.026 -2.2897 -0.6624  0.3441
  338MOL0     H46593   3.815   7.524  11.307  1.5476  3.0378  0.1788
  338MOL0     H46594   3.720   7.563  11.612 -2.5898  2.7669  0.2207
  338MOL0     H46595   3.697   7.398  11.527 -3.9008 -0.8597 -1.4203
  338MOL0     H46596   3.483   7.589  11.631  0.7269  0.7549  1.7905
  338MOL0     H46597   3.461   7.435  11.545  0.2462  1.2094  0.6066
  338MOL0     H46598   3.560   7.299  11.708 -2.4319 -1.7998 -0.0634
  338MOL0     H46599   3.558   7.451  11.819 -2.0765 -0.3479  1.5586
  338MOL0     H46600   3.313   7.304  11.699  0.7717 -1.5751 -0.6359
  338MOL0     H46601   3.386   7.257  11.848  1.7053 -0.4175  0.2069
  338MOL0     H46602   3.361   7.287  12.059  2.3943  1.8299 -1.8022
  338MOL0     H46603   3.196   7.299  12.369 -0.5740 -1.3964 -2.1071
  338MOL0     H46604   3.371   7.314  12.382  0.2823  0.8258 -1.2964
  338MOL0     H46605   3.280   7.206  12.260  0.4989 -0.6270 -0.7513
  338MOL0     H46606   3.350   7.638  12.690  1.7595 -3.7237  2.4761
  338MOL0     H46607   3.269   7.653  12.922 -3.2271  1.3977  2.3516
  338MOL0     H46608   2.907   7.619  13.154  0.8482  1.5900 -1.0458
  338MOL0     H46609   2.846   7.590  12.991  3.2445  3.2186 -2.0345
  338MOL0     H46610   2.947   7.344  13.038  1.6988  1.3872  1.0597
  338MOL0     H46611   2.957   7.381  13.198  1.6871  0.7229 -0.9883
  338MOL0     H46612   2.724   7.266  13.166 -0.7187  0.5766 -1.4501
  338MOL0     H46613   2.686   7.387  13.047  0.9361  6.0617 -0.2833
  338MOL0     H46614   2.739   7.541  13.295 -1.8334 -0.6281  1.9078
  338MOL0     H46615   2.672   7.378  13.343 -0.5936  0.4879  1.1334
  338MOL0     H46616   2.554   7.574  13.142  1.1796  2.1385  0.1476
  338MOL0     H46617   2.477   7.438  13.221 -0.8226  1.6569 -1.7469
  338MOL0     H46618   2.560   7.684  13.370  1.5057 -1.5116  3.9016
  338MOL0     H46619   2.522   7.542  13.451  1.3058  0.1599 -0.5687
  338MOL0     H46620   2.300   7.576  13.262  2.0529 -0.2413 -0.7144
  338MOL0     H46621   2.327   7.745  13.308  1.2588 -0.4722 -1.8586
  338MOL0     H46622   2.274   7.688  13.543  0.3865 -0.9175 -0.3980
  338MOL0     H46623   2.243   7.524  13.493  0.8402  0.0760  3.3966
  338MOL0     H46624   2.890   7.488  12.823 -0.7775  1.3034  1.1281
  338MOL0     H46625   2.951   7.501  12.567  0.4946  2.2270 -0.2826
  338MOL0     H46626   3.165   7.732  12.143  0.2406 -0.7426  5.0247
  338MOL0     H46627   3.228   7.687  11.934 -2.5040 -1.0029 -0.6752
  338MOL0     H46628   3.913   8.482  11.281  0.2119 -0.0175  0.0083
  338MOL0     H46629   3.869   8.695  11.197 -1.7797  2.9349  1.4626
  338MOL0     H46630   3.804   9.228  11.367 -1.0952 -2.6781  0.3040
  338MOL0     H46631   3.722   9.419  11.228  3.4068  1.9033  0.5594
  338MOL0     H46632   3.551   9.533  11.075  0.2239 -2.2413 -1.1741
  338MOL0     H46633   3.718   9.580  11.082  1.0740  3.6226 -1.4454
  338MOL0     H46634   3.574   9.604  10.824 -0.0293 -0.1527  0.2587
  338MOL0     H46635   3.729   9.681  10.873 -0.2838  0.2896 -0.3494
  338MOL0     H46636   3.452   9.730  10.967 -0.0503  0.3732 -0.7816
  338MOL0     H46637   3.582   9.767  11.077 -0.8970 -3.8853  0.1888
  338MOL0     H46638   3.682   9.918  10.901  0.8606 -3.9597 -1.4260
  338MOL0     H46639   3.527   9.981  10.942 -4.2886 -2.8193  1.0586
  338MOL0     H46640   3.460   9.882  10.542  0.6426 -1.0549 -0.9562
  338MOL0     H46641   3.730   9.196  10.878 -1.3149  2.2149  0.2269
  338MOL0     H46642   3.754   8.876  11.011  0.2003 -0.5304 -0.7022
  338MOL0     H46643   3.762   8.969  10.864  0.9841  0.5428 -0.3158
  338MOL0     H46644   3.915   8.928  10.953  0.2632 -1.8618  0.6545
  339MOL0     O46645   2.361   2.589   2.902 -0.1037  0.7659  0.3940
  339MOL0     C46646   2.379   2.472   2.873  0.8131  0.8685  0.6840
  339MOL0     O46647   2.461   2.435   2.769  1.2906  0.0649 -0.6893
  339MOL0     C46648   2.524   2.528   2.691 -0.5457  0.4585 -0.2772
  339MOL0     C46649   2.660   2.496   2.684  0.9342 -0.1547 -0.0793
  339MOL0     C46650   2.749   2.555   2.601  0.3437 -0.0434  0.0808
  339MOL0     C46651   2.712   2.664   2.515  0.8456 -0.1713  0.1314
  339MOL0     O46652   2.813   2.718   2.437  1.2376  0.2280  0.0342
  339MOL0     C46653   2.770   2.783   2.313  0.1810  0.0297 -0.9398
  339MOL0     C46654   2.878   2.852   2.236 -0.6640 -0.2216  0.2322
  339MOL0     C46655   2.972   2.936   2.327 -0.3322 -0.5391  0.4260
  339MOL0     C46656   3.036   3.045   2.244  0.1064 -0.2881  0.1305
  339MOL0     C46657   3.128   2.993   2.124  0.3317  0.7114 -0.1022
  339MOL0     C46658   3.269   2.966   2.156 -0.5170  0.0521 -0.5152
  339MOL0     C46659   3.329   2.899   2.034 -0.1856 -1.7782  0.4768
  339MOL0     C46660   3.486   2.888   2.049 -0.0039 -0.9687  0.3480
  339MOL0     N46661   3.549   2.822   1.939 -0.1069  0.4560  0.1544
  339MOL0     C46662   3.658   2.736   1.942 -0.3058  0.7985  1.0595
  339MOL0     C46663   3.669   2.688   1.816  0.3676  0.0682  1.1391
  339MOL0     C46664   3.778   2.600   1.757 -0.0798 -1.3530 -0.3347
  339MOL0     C46665   3.864   2.680   1.659 -0.0443 -0.0558 -0.0297
  339MOL0     C46666   3.793   2.697   1.519  0.9943 -0.1240 -0.9231
  339MOL0     C46667   3.881   2.755   1.413  0.2561  0.5328  0.8012
  339MOL0     O46668   4.003   2.687   1.390 -0.0321 -0.0989 -0.0456
  339MOL0     C46669   4.018   2.588   1.299  0.1564  0.9675  0.4447
  339MOL0     C46670   4.142   2.521   1.293  0.2396  0.5073 -0.1906
  339MOL0     C46671   4.166   2.420   1.202 -0.6151  0.1365 -0.4589
  339MOL0     C46672   4.302   2.367   1.220 -0.1476  0.7718 -0.2303
  339MOL0     C46673   4.065   2.373   1.115  0.3260 -0.9591 -0.3815
  339MOL0     C46674   4.074   2.246   1.034 -1.3297 -0.8928 -0.9477
  339MOL0     O46675   3.957   2.210   0.971 -0.0927 -0.1501  0.4476
  339MOL0     C46676   3.925   2.087   0.921 -0.9355  0.9036  0.6164
  339MOL0     C46677   4.015   2.003   0.856 -0.3378  0.1908  0.2608
  339MOL0     C46678   3.991   1.869   0.817  1.5674 -0.0182  0.0990
  339MOL0     C46679   3.849   1.818   0.835 -0.5373 -0.3888  0.1984
  339MOL0     O46680   3.826   1.694   0.791  0.1322  0.1709  0.0416
  339MOL0     C46681   3.871   1.596   0.889 -0.2327 -1.1791  0.1239
  339MOL0     C46682   3.835   1.452   0.867 -0.1717  0.0319  0.6105
  339MOL0     C46683   3.799   1.386   0.999  0.4097  0.0893  0.0250
  339MOL0     C46684   3.928   1.342   1.069  0.3851 -0.3807 -0.7215
  339MOL0     C46685   3.902   1.290   1.220 -0.3515  0.1624 -0.5752
  339MOL0     C46686   3.883   1.408   1.316  0.2526  0.8849 -0.2753
  339MOL0     C46687   3.846   1.364   1.459  0.2238 -0.0261  0.3333
  339MOL0     C46688   3.810   1.488   1.544  0.5721  0.8025  0.1968
  339MOL0    Cl46689   3.928   1.626   1.551 -0.0942  0.1228  0.7686
  339MOL0     C46690   3.753   1.907   0.881  0.6548  0.6059  0.3387
  339MOL0     C46691   3.792   2.035   0.924 -1.4504 -0.2932  0.4610
  339MOL0     O46692   4.170   2.166   1.054  0.1630 -0.0471 -0.6419
  339MOL0     C46693   3.943   2.442   1.115 -0.1022 -1.0622 -0.0281
  339MOL0     C46694   3.916   2.546   1.214  0.1619 -0.1037 -0.6303
  339MOL0     N46695   3.576   2.756   1.734 -0.5596 -0.0954  0.1684
  339MOL0     N46696   3.514   2.832   1.807  0.1025  0.1040  0.0180
  339MOL0     C46697   2.562   2.689   2.520  0.0677  0.3373 -0.2244
  339MOL0     C46698   2.478   2.631   2.614  0.9309  1.0678 -0.9948
  339MOL0     C46699   2.291   2.359   2.933 -0.4930  0.6356 -1.1523
  339MOL0     C46700   2.274   2.241   2.863 -0.4037 -0.0222  0.2709
  339MOL0     C46701   2.196   2.136   2.913  0.0211  0.5419 -0.0044
  339MOL0     C46702   2.110   2.158   3.026  0.1331 -0.7081  0.7119
  339MOL0     O46703   2.027   2.058   3.058 -0.1400 -0.4013 -0.0119
  339MOL0     C46704   1.928   2.085   3.160  0.7132 -0.5908  0.1520
  339MOL0     C46705   1.854   1.958   3.174 -0.3399  0.0852  1.5806
  339MOL0     C46706   1.950   1.842   3.220  0.2090  0.1977  0.9189
  339MOL0     C46707   1.967   1.824   3.359  0.3311 -1.9775  0.1869
  339MOL0     C46708   1.841   1.779   3.410 -0.3796 -0.0897 -0.5117
  339MOL0     C46709   1.730   1.759   3.443  0.0252 -0.1684  0.1512
  339MOL0     C46710   2.125   2.279   3.098  0.0908 -0.5518 -1.0070
  339MOL0     C46711   2.219   2.377   3.059 -0.7134 -0.1073  0.4603
  339MOL0     C46712   2.239   2.506   3.140 -0.5043  0.3883 -0.9732
  339MOL0     H46713   2.690   2.406   2.737 -3.4389 -1.7359  0.0736
  339MOL0     H46714   2.853   2.526   2.616 -0.6428 -2.5488  3.2169
  339MOL0     H46715   2.696   2.856   2.348 -0.9284 -1.8352  0.8285
  339MOL0     H46716   2.728   2.700   2.256  0.6414 -1.4367  0.7818
  339MOL0     H46717   2.939   2.779   2.182  1.9520  2.3257 -0.5158
  339MOL0     H46718   2.845   2.916   2.154 -0.8117 -1.6741 -0.8845
  339MOL0     H46719   2.913   2.993   2.400 -2.6973  0.9947 -2.4473
  339MOL0     H46720   3.044   2.871   2.377  0.4219 -1.2121 -1.4404
  339MOL0     H46721   2.956   3.110   2.209 -2.0571 -1.7770  2.0687
  339MOL0     H46722   3.098   3.111   2.306  2.9056 -1.3514 -1.3344
  339MOL0     H46723   3.144   3.076   2.055  4.3684 -0.3582 -0.7160
  339MOL0     H46724   3.078   2.917   2.063  1.2076 -1.3721  1.6359
  339MOL0     H46725   3.322   3.061   2.167 -3.0451  1.7858 -2.2864
  339MOL0     H46726   3.283   2.909   2.248  2.9489  0.2839 -0.7801
  339MOL0     H46727   3.313   2.964   1.948  2.9628 -2.2093 -0.5746
  339MOL0     H46728   3.274   2.807   2.012 -2.1040 -0.4466 -0.5793
  339MOL0     H46729   3.532   2.987   2.055 -1.0396 -0.3795 -1.0118
  339MOL0     H46730   3.506   2.850   2.150 -1.2383 -1.0010  0.5951
  339MOL0     H46731   3.722   2.699   2.021  1.5507  2.2316  0.2882
  339MOL0     H46732   3.724   2.526   1.696  0.2975 -1.2076 -0.8550
  339MOL0     H46733   3.833   2.550   1.837 -0.0216  0.9195  1.1417
  339MOL0     H46734   3.887   2.773   1.711 -0.5347 -0.0415  0.1686
  339MOL0     H46735   3.966   2.641   1.658  0.7057  1.6868  1.7278
  339MOL0     H46736   3.746   2.603   1.488 -4.7490  1.4039  1.8776
  339MOL0     H46737   3.704   2.758   1.534  2.5238  1.4916  2.8357
  339MOL0     H46738   3.835   2.768   1.315 -2.1969  0.1442  1.8449
  339MOL0     H46739   3.907   2.857   1.444  2.3152  0.6883 -1.1768
  339MOL0     H46740   4.217   2.555   1.363  1.6830 -1.8014 -0.5331
  339MOL0     H46741   4.360   2.426   1.292  1.3261  1.4748 -1.9234
  339MOL0     H46742   4.350   2.370   1.122 -0.3149  0.1334 -0.3398
  339MOL0     H46743   4.296   2.265   1.260  0.6681  2.1444  3.9562
  339MOL0     H46744   4.118   2.035   0.852 -1.0341  3.1888  2.7781
  339MOL0     H46745   4.064   1.803   0.771  1.0335  1.2702 -2.8123
  339MOL0     H46746   3.981   1.596   0.883 -0.2872 -0.6451 -1.2187
  339MOL0     H46747   3.846   1.621   0.992 -0.8045  0.1572 -0.3155
  339MOL0     H46748   3.748   1.451   0.801 -1.0734 -1.4473  1.7730
  339MOL0     H46749   3.915   1.395   0.818 -0.7602 -0.3606  0.0926
  339MOL0     H46750   3.742   1.296   0.977  4.5835 -2.7291 -0.3843
  339MOL0     H46751   3.738   1.452   1.062  1.1328 -1.0044  1.9476
  339MOL0     H46752   3.997   1.426   1.078 -2.4170  1.8543  2.7906
  339MOL0     H46753   3.981   1.262   1.016  0.5779  0.0481 -1.1893
  339MOL0     H46754   3.816   1.222   1.216  0.5679 -1.0368 -0.2159
  339MOL0     H46755   3.991   1.241   1.259 -1.3108 -2.2945 -1.3265
  339MOL0     H46756   3.797   1.468   1.284  1.4204  2.9482  0.2484
  339MOL0     H46757   3.972   1.471   1.317  1.8124 -1.2374  0.9867
  339MOL0     H46758   3.925   1.305   1.507  0.3767  2.5517  3.6541
  339MOL0     H46759   3.749   1.313   1.458  0.4115 -0.4184  1.2725
  339MOL0     H46760   3.780   1.457   1.645 -0.2139  0.2279 -0.2105
  339MOL0     H46761   3.720   1.534   1.504  1.0185 -0.2500 -2.2217
  339MOL0     H46762   3.653   1.874   0.906  0.7028  1.3245  1.5344
  339MOL0     H46763   3.721   2.100   0.975 -0.3277  1.4479 -0.1242
  339MOL0     H46764   3.859   2.405   1.057  0.3364 -2.0324 -0.0548
  339MOL0     H46765   3.812   2.573   1.230  0.0967  0.6062 -2.1189
  339MOL0     H46766   2.504   2.759   2.462 -0.7792  1.1497  1.5194
  339MOL0     H46767   2.373   2.658   2.604  0.1999 -2.0636 -3.5355
  339MOL0     H46768   2.332   2.233   2.772 -0.4307  1.0603  0.1420
  339MOL0     H46769   2.184   2.039   2.865 -2.6142  0.4658  0.6439
  339MOL0     H46770   1.967   2.122   3.255  1.3168 -2.7527  0.7991
  339MOL0     H46771   1.848   2.151   3.125  0.2103 -0.6927  1.0779
  339MOL0     H46772   1.807   1.928   3.080 -5.3414 -0.1232  3.8316
  339MOL0     H46773   1.777   1.980   3.249  0.1776  2.7351  1.4335
  339MOL0     H46774   1.912   1.754   3.167 -3.8559  1.3233  1.6435
  339MOL0     H46775   2.048   1.860   3.174 -1.3483  1.5505 -2.1998
  339MOL0     H46776   1.985   1.922   3.402 -0.9875 -1.6123 -0.0536
  339MOL0     H46777   2.043   1.747   3.379  0.5864 -2.0394 -0.9400
  339MOL0     H46778   1.629   1.749   3.477  0.4651  1.8136  2.2999
  339MOL0     H46779   2.054   2.306   3.176  1.4713  1.4375 -0.3337
  339MOL0     H46780   2.347   2.516   3.153  0.2931 -3.8548 -2.6628
  339MOL0     H46781   2.188   2.587   3.086 -1.8838  1.2180  1.4133
  339MOL0     H46782   2.196   2.501   3.241  3.3325 -0.6360  0.8127
  340MOL0     O46783   8.380   5.896   1.457 -0.4062 -0.1889 -0.5974
  340MOL0     C46784   8.268   5.879   1.410  0.6054  0.5469  0.3889
  340MOL0     O46785   8.148   5.925   1.470  0.2810  0.0096  0.4062
  340MOL0     C46786   8.161   5.995   1.586  0.0234 -0.6791  0.0103
  340MOL0     C46787   8.230   5.946   1.699  0.0319 -1.0424  0.1063
  340MOL0     C46788   8.247   6.028   1.815  0.4070 -0.0277  0.5510
  340MOL0     C46789   8.182   6.148   1.826  0.1082  0.0473  0.3259
  340MOL0     O46790   8.189   6.232   1.931 -0.4589 -0.5408 -0.2175
  340MOL0     C46791   8.279   6.346   1.925 -0.2639  0.2026 -0.0273
  340MOL0     C46792   8.205   6.457   1.854  0.0747 -0.2438 -0.5425
  340MOL0     C46793   8.276   6.591   1.891 -0.0249  0.1789  0.7591
  340MOL0     C46794   8.196   6.697   1.820  0.0139 -0.6330 -0.6548
  340MOL0     C46795   8.257   6.833   1.850 -0.4979  1.3084 -0.7822
  340MOL0     C46796   8.186   6.943   1.782  0.6486  0.1529  0.3080
  340MOL0     C46797   8.262   7.079   1.777  0.8266  0.3118 -0.2474
  340MOL0     C46798   8.261   7.148   1.924 -0.1099 -0.0761  0.7302
  340MOL0     N46799   8.362   7.089   2.012 -1.0357 -0.4138 -0.0515
  340MOL0     C46800   8.495   7.062   1.986  0.0624 -0.1833 -0.5842
  340MOL0     C46801   8.535   6.993   2.091 -0.6091  0.3437 -0.8337
  340MOL0     C46802   8.673   6.946   2.101  0.0951 -0.4331  0.7938
  340MOL0     C46803   8.703   6.811   2.035 -0.2739 -0.7319 -0.8025
  340MOL0     C46804   8.635   6.697   2.105  0.3181 -0.9972  0.0323
  340MOL0     C46805   8.644   6.679   2.261  0.4018 -0.9079 -0.8050
  340MOL0     O46806   8.735   6.575   2.284 -0.4914  0.7224 -0.3341
  340MOL0     C46807   8.681   6.450   2.300 -0.6957 -0.7189  0.7741
  340MOL0     C46808   8.653   6.369   2.188 -0.5480  0.4009  0.3191
  340MOL0     C46809   8.596   6.243   2.203 -0.4632 -0.3995 -0.4922
  340MOL0     C46810   8.576   6.162   2.071  0.3868 -0.5412  0.3449
  340MOL0     C46811   8.556   6.203   2.334  0.7053 -0.6393  0.0387
  340MOL0     C46812   8.487   6.070   2.358 -0.4947  0.0275 -0.4609
  340MOL0     O46813   8.482   6.044   2.486 -0.2496 -0.1727  0.3298
  340MOL0     C46814   8.412   5.937   2.535  0.0346 -0.0121  1.0559
  340MOL0     C46815   8.447   5.804   2.505 -0.1299  0.5933 -0.5081
  340MOL0     C46816   8.393   5.694   2.569  0.2691  0.7585 -0.3518
  340MOL0     C46817   8.283   5.716   2.653 -0.0263 -0.4801 -0.1320
  340MOL0     O46818   8.232   5.609   2.725  0.0183  0.7705  0.3856
  340MOL0     C46819   8.191   5.483   2.665 -0.0450  0.7092  0.1138
  340MOL0     C46820   8.062   5.506   2.580  0.0504  0.5155 -0.0220
  340MOL0     C46821   7.936   5.522   2.666 -0.0653 -0.8544 -0.9292
  340MOL0     C46822   7.878   5.387   2.701 -0.4823  0.9201  1.3395
  340MOL0     C46823   7.732   5.402   2.737  0.6920 -0.7164  0.8041
  340MOL0     C46824   7.683   5.278   2.817 -0.6319 -1.4607 -0.0435
  340MOL0     C46825   7.685   5.143   2.753 -0.4694  0.2374 -0.4204
  340MOL0     C46826   7.645   5.029   2.848 -0.7342  0.3598 -0.5424
  340MOL0    Cl46827   7.632   4.864   2.766 -0.0795 -0.1595 -0.2440
  340MOL0     C46828   8.250   5.848   2.687  0.0919  0.6112  0.5775
  340MOL0     C46829   8.308   5.959   2.622  0.2077  0.2115  1.0188
  340MOL0     O46830   8.447   6.001   2.268  0.6330 -0.2376 -0.3370
  340MOL0     C46831   8.585   6.293   2.445 -0.3512 -0.0872  0.6435
  340MOL0     C46832   8.637   6.415   2.426  0.3909 -0.7738  0.9383
  340MOL0     N46833   8.430   6.974   2.183  0.6703  0.2028 -0.0766
  340MOL0     N46834   8.326   7.032   2.129  0.2025  0.7827  0.4057
  340MOL0     C46835   8.097   6.185   1.724 -0.1383 -0.2820 -0.0166
  340MOL0     C46836   8.090   6.115   1.601 -0.1412 -0.0590  0.0322
  340MOL0     C46837   8.249   5.803   1.282  0.9272  0.0943  0.7225
  340MOL0     C46838   8.122   5.797   1.222  0.2543 -0.1639 -0.6248
  340MOL0     C46839   8.108   5.724   1.103 -0.4362  0.9282 -0.6714
  340MOL0     C46840   8.208   5.655   1.031  0.5185  0.2681  0.3520
  340MOL0     O46841   8.183   5.593   0.909 -0.0352  0.3030 -0.3392
  340MOL0     C46842   8.060   5.590   0.828  0.5918  0.5542 -0.1868
  340MOL0     C46843   8.031   5.723   0.750  0.0992 -0.0627 -0.2195
  340MOL0     C46844   7.910   5.724   0.649 -0.0916 -0.4076  0.3163
  340MOL0     C46845   7.963   5.674   0.509  0.4688  0.0454  0.3834
  340MOL0     C46846   8.030   5.783   0.439 -0.7471 -0.0171 -0.2307
  340MOL0     C46847   8.103   5.871   0.392  0.4847  0.0270 -0.3512
  340MOL0     C46848   8.334   5.656   1.099  0.6896 -0.1152  0.4872
  340MOL0     C46849   8.355   5.729   1.216 -0.5121  0.3757 -1.0681
  340MOL0     C46850   8.496   5.718   1.270  0.2504  0.3276 -0.4201
  340MOL0     H46851   8.271   5.846   1.696 -1.8232 -1.8189 -1.9141
  340MOL0     H46852   8.323   6.000   1.888  1.4336 -0.5681 -0.6870
  340MOL0     H46853   8.374   6.316   1.879  0.0142  0.3506  0.4515
  340MOL0     H46854   8.299   6.376   2.028 -0.5499 -0.6283  0.2844
  340MOL0     H46855   8.216   6.436   1.747  0.0517 -1.4421 -0.3237
  340MOL0     H46856   8.101   6.454   1.886  0.5620 -0.8906  1.0646
  340MOL0     H46857   8.274   6.613   1.998 -0.4758 -1.8761  1.2054
  340MOL0     H46858   8.382   6.585   1.864  0.6611 -0.7857  3.4030
  340MOL0     H46859   8.191   6.670   1.714  2.8574  3.0392 -1.9319
  340MOL0     H46860   8.092   6.697   1.855 -0.2887  3.1848 -1.2035
  340MOL0     H46861   8.361   6.841   1.817 -0.8487  3.8097 -1.4790
  340MOL0     H46862   8.269   6.846   1.958 -3.9558 -5.2859  0.9693
  340MOL0     H46863   8.168   6.915   1.677 -1.8487 -0.3598  0.8060
  340MOL0     H46864   8.090   6.967   1.829  0.9226  2.9742 -0.4075
  340MOL0     H46865   8.214   7.146   1.706  0.7329 -1.4084 -1.8893
  340MOL0     H46866   8.368   7.064   1.752  1.3866  2.2557  0.7908
  340MOL0     H46867   8.291   7.250   1.901  2.2651 -1.2787 -2.4422
  340MOL0     H46868   8.167   7.130   1.976 -1.4023 -1.2334 -1.8027
  340MOL0     H46869   8.554   7.105   1.906  0.6842 -2.3049 -1.3480
  340MOL0     H46870   8.698   6.948   2.208  1.7567 -2.8508  0.5430
  340MOL0     H46871   8.747   7.007   2.048 -2.9120 -0.7788 -4.4903
  340MOL0     H46872   8.670   6.797   1.932 -0.0390 -2.8402 -0.6435
  340MOL0     H46873   8.811   6.795   2.033  0.2944  2.2483  0.6307
  340MOL0     H46874   8.527   6.702   2.094 -0.1271 -2.5308  2.8998
  340MOL0     H46875   8.660   6.607   2.048  1.0638 -2.5284  2.6153
  340MOL0     H46876   8.683   6.770   2.310 -2.4981  0.7035 -1.2918
  340MOL0     H46877   8.545   6.656   2.300  0.5836 -0.4440 -0.0391
  340MOL0     H46878   8.684   6.406   2.090 -2.8339 -0.6237 -0.8719
  340MOL0     H46879   8.584   6.224   1.981 -1.2289  0.1745  0.6769
  340MOL0     H46880   8.474   6.125   2.057 -0.3820  1.4820  0.3218
  340MOL0     H46881   8.647   6.079   2.066 -1.6970 -2.6562  3.0009
  340MOL0     H46882   8.536   5.794   2.443  0.6771  0.9823  0.5748
  340MOL0     H46883   8.427   5.595   2.541 -3.3342  0.4890 -4.8798
  340MOL0     H46884   8.276   5.446   2.607  0.4958 -2.3230  2.5890
  340MOL0     H46885   8.179   5.412   2.747 -1.6661  2.4350  1.4696
  340MOL0     H46886   8.072   5.585   2.505 -1.2270  4.8070  3.8698
  340MOL0     H46887   8.054   5.417   2.516  1.6961  0.4573 -0.1891
  340MOL0     H46888   7.867   5.584   2.609  2.5309  1.1779 -2.0787
  340MOL0     H46889   7.962   5.580   2.756 -0.8843 -0.2168 -1.0944
  340MOL0     H46890   7.931   5.331   2.779  1.6127 -2.3275 -2.0803
  340MOL0     H46891   7.882   5.311   2.622 -3.3820  1.0776  0.9097
  340MOL0     H46892   7.710   5.488   2.801 -3.3345  0.9463 -2.3587
  340MOL0     H46893   7.669   5.412   2.648 -1.1607 -0.2263  2.1020
  340MOL0     H46894   7.579   5.284   2.850 -0.7050 -4.3677  0.4662
  340MOL0     H46895   7.751   5.283   2.902 -1.7247  2.1046  0.8013
  340MOL0     H46896   7.782   5.116   2.711  0.1247  1.2363  0.2781
  340MOL0     H46897   7.611   5.135   2.672 -0.8339 -0.3044 -0.0421
  340MOL0     H46898   7.548   5.051   2.894 -0.9037 -2.5065  0.7265
  340MOL0     H46899   7.719   5.024   2.929 -1.2162  1.7528  0.0020
  340MOL0     H46900   8.173   5.865   2.762  0.0600  2.0439  0.2338
  340MOL0     H46901   8.287   6.062   2.651  2.7120  1.8852 -2.3977
  340MOL0     H46902   8.568   6.267   2.550  0.2855 -0.0338  0.7632
  340MOL0     H46903   8.646   6.482   2.511 -1.6880  0.8832 -0.0687
  340MOL0     H46904   8.048   6.281   1.737 -0.1696 -0.1728 -0.9005
  340MOL0     H46905   8.044   6.140   1.505 -0.1719  0.6109  0.2183
  340MOL0     H46906   8.040   5.854   1.266  1.0451  2.7790 -2.6774
  340MOL0     H46907   8.004   5.716   1.073 -0.2577 -1.8056 -0.7679
  340MOL0     H46908   8.065   5.515   0.749 -4.5755 -0.0584 -0.2974
  340MOL0     H46909   7.977   5.556   0.891  1.3739  0.4515  0.8070
  340MOL0     H46910   8.126   5.749   0.704 -0.1874 -0.3159 -0.9578
  340MOL0     H46911   8.010   5.804   0.821 -1.1111  0.2111 -0.8647
  340MOL0     H46912   7.831   5.655   0.679 -0.9906  0.9152  1.0820
  340MOL0     H46913   7.875   5.827   0.635  0.5898 -0.4121 -1.9092
  340MOL0     H46914   7.880   5.647   0.443  1.6686 -1.4151 -0.5860
  340MOL0     H46915   8.042   5.599   0.514  2.1349  1.6466 -0.4931
  340MOL0     H46916   8.170   5.946   0.355 -2.2489  1.6518 -2.3905
  340MOL0     H46917   8.418   5.604   1.055 -0.0635 -1.2357  0.3495
  340MOL0     H46918   8.549   5.636   1.222 -1.5009 -1.8431  1.1910
  340MOL0     H46919   8.538   5.819   1.260 -0.7480  0.8452  0.3890
  340MOL0     H46920   8.486   5.695   1.376 -4.6663  0.7090 -0.5542
  341MOL0     O46921   7.499   2.808   8.027 -0.1672  0.8089  0.0948
  341MOL0     C46922   7.426   2.702   8.032 -1.5472 -0.3661 -0.8134
  341MOL0     O46923   7.475   2.585   7.986  0.0467 -0.2499 -0.0306
  341MOL0     C46924   7.604   2.581   7.938 -0.1705 -0.8024 -1.0251
  341MOL0     C46925   7.709   2.542   8.023 -0.1817  0.2588 -0.5717
  341MOL0     C46926   7.839   2.561   7.976 -0.1296 -0.0867  0.7242
  341MOL0     C46927   7.866   2.597   7.841 -0.3574 -0.5016 -1.0548
  341MOL0     O46928   8.001   2.597   7.797 -0.0181  0.9988 -0.3412
  341MOL0     C46929   8.042   2.694   7.703 -0.0804  0.2202 -0.1672
  341MOL0     C46930   8.190   2.677   7.672  0.5245 -0.6399 -0.1622
  341MOL0     C46931   8.231   2.785   7.565 -0.9381  0.0045 -0.1411
  341MOL0     C46932   8.388   2.773   7.553 -0.0279 -0.4283  0.2389
  341MOL0     C46933   8.461   2.818   7.679 -1.1896 -0.4220  0.0608
  341MOL0     C46934   8.458   2.966   7.724  0.0853 -0.2442  0.4264
  341MOL0     C46935   8.550   2.993   7.849  0.5419 -0.3886  0.7158
  341MOL0     C46936   8.566   3.140   7.877  0.4381 -0.3708  0.6270
  341MOL0     N46937   8.637   3.219   7.772  0.1415 -1.0157  0.7203
  341MOL0     C46938   8.756   3.194   7.710  0.1179  0.3583 -0.4525
  341MOL0     C46939   8.777   3.306   7.637  0.4023  0.6564  1.3602
  341MOL0     C46940   8.894   3.344   7.549 -0.1061  1.3127  0.7295
  341MOL0     C46941   8.953   3.228   7.462  0.0610  0.4451 -0.4924
  341MOL0     C46942   8.891   3.225   7.324  0.3068  0.3379 -0.0937
  341MOL0     C46943   8.937   3.107   7.238  0.0112  0.0082  0.2717
  341MOL0     O46944   8.895   3.129   7.104 -0.4183  0.4443  0.5185
  341MOL0     C46945   8.768   3.100   7.073  0.6867  0.9391 -0.4377
  341MOL0     C46946   8.686   3.000   7.139  0.9367 -0.5724 -0.4858
  341MOL0     C46947   8.552   2.971   7.092 -0.9941  0.8295 -0.2533
  341MOL0     C46948   8.479   2.850   7.158 -1.0355  0.5819  0.4150
  341MOL0     C46949   8.501   3.040   6.982 -0.6799 -0.6300 -0.9969
  341MOL0     C46950   8.364   3.018   6.926 -0.5270 -0.3965  0.1434
  341MOL0     O46951   8.322   3.114   6.843 -0.4468  0.2195  0.7737
  341MOL0     C46952   8.226   3.081   6.754 -0.9732  0.1494  0.2646
  341MOL0     C46953   8.249   3.001   6.639  0.2724  0.2755 -0.2757
  341MOL0     C46954   8.143   2.957   6.553 -0.2603 -1.2022 -0.5101
  341MOL0     C46955   8.015   3.002   6.578  0.6185 -1.2264  0.9499
  341MOL0     O46956   7.920   2.950   6.494  0.2036 -0.2926 -0.7223
  341MOL0     C46957   7.902   2.814   6.502  0.2760 -1.0736  0.4204
  341MOL0     C46958   7.793   2.757   6.413 -0.3954  0.9084 -0.2948
  341MOL0     C46959   7.832   2.627   6.352 -0.3344  0.1731  0.4790
  341MOL0     C46960   7.715   2.549   6.301  0.8890 -0.1261 -0.3031
  341MOL0     C46961   7.754   2.432   6.211 -1.0034 -0.7936 -0.6143
  341MOL0     C46962   7.649   2.317   6.195  0.4332 -0.3603 -0.3204
  341MOL0     C46963   7.715   2.196   6.125 -0.2589 -0.3116 -0.1193
  341MOL0     C46964   7.619   2.081   6.107  0.1526  1.0893  0.4273
  341MOL0    Cl46965   7.685   1.961   6.006  0.2937  0.2102  0.2106
  341MOL0     C46966   7.994   3.092   6.676 -0.9187 -0.9679 -0.6901
  341MOL0     C46967   8.093   3.133   6.768 -0.0046 -0.2706 -0.1016
  341MOL0     O46968   8.306   2.913   6.946  0.4433  0.1909 -0.5600
  341MOL0     C46969   8.582   3.148   6.927 -0.5910 -0.4264 -0.1537
  341MOL0     C46970   8.713   3.175   6.965  0.1745  0.3784 -0.1494
  341MOL0     N46971   8.664   3.386   7.637  0.1848  0.1398 -0.2835
  341MOL0     N46972   8.582   3.332   7.729  0.1085  0.5913 -0.6193
  341MOL0     C46973   7.758   2.627   7.763  0.5095 -0.4042  0.7974
  341MOL0     C46974   7.631   2.631   7.809 -0.0496  0.3038 -0.9672
  341MOL0     C46975   7.307   2.708   8.106  0.0640 -0.5620 -1.1922
  341MOL0     C46976   7.209   2.622   8.058 -0.2799  0.1551 -0.0891
  341MOL0     C46977   7.091   2.604   8.134 -0.1389 -0.5594 -0.2295
  341MOL0     C46978   7.064   2.678   8.246 -0.0736  0.1444 -1.2316
  341MOL0     O46979   6.944   2.649   8.294 -0.3368 -0.6461  0.5810
  341MOL0     C46980   6.891   2.717   8.407  0.1212  0.4588  1.1830
  341MOL0     C46981   6.748   2.669   8.415  0.3418  0.4148 -0.2254
  341MOL0     C46982   6.647   2.702   8.309 -0.1384 -0.2014  0.1276
  341MOL0     C46983   6.508   2.660   8.360 -0.1108 -0.0822  0.7466
  341MOL0     C46984   6.396   2.698   8.277 -0.0795  0.6042 -0.3087
  341MOL0     C46985   6.305   2.754   8.215  0.5826 -0.1397 -0.5761
  341MOL0     C46986   7.162   2.770   8.292 -0.3343  0.5560 -0.2504
  341MOL0     C46987   7.284   2.783   8.224 -1.3008 -0.1433 -0.2646
  341MOL0     C46988   7.383   2.885   8.274 -0.8839 -0.0311  0.6366
  341MOL0     H46989   7.690   2.499   8.120  0.8808 -1.9239 -1.2509
  341MOL0     H46990   7.926   2.538   8.037 -1.1189 -0.4151  2.0466
  341MOL0     H46991   8.021   2.796   7.736 -0.4156  0.4957 -1.2118
  341MOL0     H46992   7.986   2.693   7.610  0.3970  1.5019 -0.4871
  341MOL0     H46993   8.246   2.702   7.762 -0.9969  2.5754  0.0095
  341MOL0     H46994   8.218   2.577   7.636  2.4445  0.8568 -3.1904
  341MOL0     H46995   8.180   2.766   7.470  0.6364  1.3889 -1.3238
  341MOL0     H46996   8.207   2.883   7.608  1.1797  1.1772 -1.4656
  341MOL0     H46997   8.409   2.667   7.540 -2.4163 -1.0661  1.0131
  341MOL0     H46998   8.416   2.828   7.462 -1.1438  0.0373  0.1481
  341MOL0     H46999   8.565   2.797   7.656 -0.9375  2.0700 -1.4876
  341MOL0     H47000   8.436   2.754   7.764 -3.6905 -0.4114 -0.5701
  341MOL0     H47001   8.500   3.025   7.643  1.5509  0.5887  1.7349
  341MOL0     H47002   8.355   3.000   7.738 -0.6538 -1.0089 -2.6121
  341MOL0     H47003   8.642   2.936   7.841  1.2509  0.8745 -0.6686
  341MOL0     H47004   8.499   2.955   7.938  0.6301  0.9382  1.3598
  341MOL0     H47005   8.463   3.177   7.884 -0.5384 -2.6340 -0.6978
  341MOL0     H47006   8.623   3.148   7.970 -0.7636  1.8588  1.2651
  341MOL0     H47007   8.819   3.109   7.733  2.0671  2.1971  1.5181
  341MOL0     H47008   8.972   3.384   7.614 -0.2894 -0.6681  2.2733
  341MOL0     H47009   8.850   3.413   7.477 -0.5463 -1.5691 -2.0094
  341MOL0     H47010   9.062   3.241   7.453  0.0868 -0.0716 -0.9348
  341MOL0     H47011   8.938   3.131   7.509 -0.4034 -1.7621 -4.6910
  341MOL0     H47012   8.783   3.211   7.336  0.6830 -1.4109  1.6645
  341MOL0     H47013   8.918   3.305   7.254 -0.9376  0.4287 -0.5021
  341MOL0     H47014   9.047   3.106   7.236  0.0984  2.3596 -1.9738
  341MOL0     H47015   8.888   3.020   7.282 -2.0359  1.7005  1.5536
  341MOL0     H47016   8.715   2.933   7.220  1.0689  0.0311 -0.0290
  341MOL0     H47017   8.510   2.835   7.262 -0.9989  0.6057  0.4077
  341MOL0     H47018   8.497   2.750   7.118  0.4581  1.1325 -0.3649
  341MOL0     H47019   8.371   2.867   7.161 -1.0951  0.8944 -1.9585
  341MOL0     H47020   8.348   2.961   6.619  1.0889  2.1233 -0.1390
  341MOL0     H47021   8.177   2.893   6.472 -1.6725  0.2021 -2.2952
  341MOL0     H47022   7.991   2.762   6.465 -2.3041 -3.3694 -3.1262
  341MOL0     H47023   7.883   2.776   6.603 -2.0279 -2.3584 -0.4363
  341MOL0     H47024   7.697   2.750   6.466  0.6038  4.2389  2.3509
  341MOL0     H47025   7.767   2.835   6.341  1.1535  0.4758 -1.3696
  341MOL0     H47026   7.886   2.568   6.427  0.0215 -0.7234 -0.4607
  341MOL0     H47027   7.891   2.647   6.261  2.6087  3.8480  2.8701
  341MOL0     H47028   7.649   2.612   6.242 -3.8065  0.6401  4.8869
  341MOL0     H47029   7.651   2.501   6.376 -1.7675  1.8227 -1.1988
  341MOL0     H47030   7.787   2.476   6.116  0.0257 -1.5816 -0.6363
  341MOL0     H47031   7.838   2.374   6.248 -2.5949 -2.7660  0.0860
  341MOL0     H47032   7.565   2.348   6.132 -2.4652 -0.2079  3.3494
  341MOL0     H47033   7.618   2.292   6.296  1.5033 -2.3507 -0.4377
  341MOL0     H47034   7.795   2.157   6.189  0.6293 -3.5118 -2.9118
  341MOL0     H47035   7.748   2.223   6.024 -0.7777 -1.4575 -0.6118
  341MOL0     H47036   7.520   2.120   6.081 -0.2610  1.2150  2.0926
  341MOL0     H47037   7.591   2.025   6.197 -2.4215 -1.4308 -1.7480
  341MOL0     H47038   7.891   3.118   6.697 -1.0722 -1.3347 -0.9623
  341MOL0     H47039   8.053   3.203   6.841 -2.2041  0.4001 -1.8151
  341MOL0     H47040   8.544   3.215   6.850  1.1634  0.2681 -0.4663
  341MOL0     H47041   8.761   3.253   6.907  2.1786  0.4250  1.4622
  341MOL0     H47042   7.762   2.653   7.658 -5.1809 -0.2023  0.3296
  341MOL0     H47043   7.548   2.669   7.750  0.4932 -0.4687 -2.2741
  341MOL0     H47044   7.216   2.602   7.952  3.8911  2.8983 -0.5547
  341MOL0     H47045   7.009   2.547   8.091 -1.0682 -0.8483  1.8238
  341MOL0     H47046   6.942   2.687   8.499  1.7509  1.7108  0.7291
  341MOL0     H47047   6.896   2.826   8.396  3.3543  0.4063  1.3895
  341MOL0     H47048   6.711   2.717   8.506  0.2205 -0.5699  0.2519
  341MOL0     H47049   6.736   2.561   8.430  0.6522  0.1715 -1.5507
  341MOL0     H47050   6.657   2.811   8.296  0.6997 -0.2190  0.5422
  341MOL0     H47051   6.671   2.653   8.215  3.4994  1.3078  0.1197
  341MOL0     H47052   6.494   2.706   8.458  1.6993  1.9968  0.1119
  341MOL0     H47053   6.495   2.552   8.367 -3.4048  0.1510  0.0056
  341MOL0     H47054   6.233   2.816   8.165  0.7691 -0.7931 -1.6927
  341MOL0     H47055   7.125   2.819   8.381  2.8721  4.0794 -0.6202
  341MOL0     H47056   7.355   2.928   8.370 -0.8586  2.1873 -0.2763
  341MOL0     H47057   7.484   2.846   8.286 -0.7030  0.8511  2.1347
  341MOL0     H47058   7.407   2.968   8.207  1.5320 -0.3356  1.0389
  342MOL0     O47059   4.159   8.846   9.738 -0.0966  0.2656  0.7738
  342MOL0     C47060   4.193   8.952   9.694  0.3843 -0.5838  0.6207
  342MOL0     O47061   4.131   9.067   9.730  0.3654 -0.2837  0.3892
  342MOL0     C47062   4.013   9.051   9.809  0.2402 -0.7807 -0.3341
  342MOL0     C47063   3.883   9.057   9.749 -0.5585 -0.2188 -0.0910
  342MOL0     C47064   3.764   9.074   9.827  0.4664  0.6367  0.6262
  342MOL0     C47065   3.778   9.076   9.970 -0.0038 -0.2815  0.3302
  342MOL0     O47066   3.671   9.087  10.058 -0.0133 -0.1312 -0.6302
  342MOL0     C47067   3.589   9.201  10.055 -0.1704  0.1804 -0.3637
  342MOL0     C47068   3.464   9.180  10.141 -0.8559  0.2181  1.0716
  342MOL0     C47069   3.479   9.180  10.289 -0.3620 -0.6105  0.9499
  342MOL0     C47070   3.469   9.319  10.364 -0.4012  0.2428  0.4256
  342MOL0     C47071   3.606   9.385  10.377  0.2076  0.0286 -0.4579
  342MOL0     C47072   3.685   9.302  10.480 -0.1110  1.0245  0.4516
  342MOL0     C47073   3.715   9.378  10.608  0.7168  0.3254  0.1103
  342MOL0     C47074   3.837   9.467  10.599 -0.2141  0.4347  0.2742
  342MOL0     N47075   3.826   9.600  10.527 -0.4921 -0.1135  1.0110
  342MOL0     C47076   3.828   9.623  10.395 -0.4144  0.5171  0.2495
  342MOL0     C47077   3.791   9.755  10.378 -0.1723  0.7939 -0.5151
  342MOL0     C47078   3.781   9.831  10.255 -0.3904 -0.2415  0.8450
  342MOL0     C47079   3.646   9.843  10.205 -1.0956 -0.0308 -0.1854
  342MOL0     C47080   3.652   9.890  10.060  0.6203 -0.4534 -0.4714
  342MOL0     C47081   3.692  10.043  10.048 -0.2356  0.2069  0.4043
  342MOL0     O47082   3.817  10.067   9.985  0.2213 -0.0473 -0.4420
  342MOL0     C47083   3.875   9.999   9.886 -0.1880  0.9098  0.2754
  342MOL0     C47084   3.800   9.959   9.775  0.2912  0.1154 -0.1433
  342MOL0     C47085   3.855   9.911   9.652  0.4896 -0.3054  0.0685
  342MOL0     C47086   3.763   9.930   9.539  0.6697  0.5555 -0.0264
  342MOL0     C47087   3.986   9.898   9.638  0.3081  0.3072  1.1705
  342MOL0     C47088   4.048   9.819   9.525 -0.0087 -0.4682 -0.6375
  342MOL0     O47089   4.185   9.824   9.531 -0.1461 -0.5915 -0.2693
  342MOL0     C47090   4.265   9.726   9.470  0.3868 -0.8070 -0.0411
  342MOL0     C47091   4.250   9.710   9.329  0.2655 -0.9719 -0.9046
  342MOL0     C47092   4.297   9.596   9.260 -0.8969  0.0445 -0.5578
  342MOL0     C47093   4.382   9.511   9.323 -0.5880 -0.6705 -0.5760
  342MOL0     O47094   4.446   9.416   9.244  0.3596 -0.5714  0.2414
  342MOL0     C47095   4.550   9.474   9.157  0.9544 -0.0682  0.5248
  342MOL0     C47096   4.652   9.367   9.147 -0.2913  0.2611  0.4102
  342MOL0     C47097   4.772   9.379   9.240  0.6579  0.6615 -0.2768
  342MOL0     C47098   4.776   9.433   9.381  0.3002 -0.8057  0.5410
  342MOL0     C47099   4.918   9.415   9.440  0.1435 -0.9323  0.2295
  342MOL0     C47100   4.921   9.492   9.574  0.5734  0.8107  0.8251
  342MOL0     C47101   5.065   9.497   9.630  0.0812  0.1393 -0.1954
  342MOL0     C47102   5.067   9.535   9.775 -0.7382 -0.1331  0.6913
  342MOL0    Cl47103   5.233   9.550   9.835 -0.3794 -0.0606  0.1168
  342MOL0     C47104   4.399   9.520   9.462 -0.2744 -0.4155  1.9905
  342MOL0     C47105   4.345   9.626   9.527 -0.2731  0.5285  0.1103
  342MOL0     O47106   3.981   9.749   9.460 -0.0054  0.2334  0.1798
  342MOL0     C47107   4.064   9.924   9.756  0.4002  0.0009 -0.0402
  342MOL0     C47108   4.013   9.977   9.880 -0.7158  1.0890  0.4647
  342MOL0     N47109   3.798   9.805  10.508 -0.2069 -0.7014 -0.1773
  342MOL0     N47110   3.805   9.716  10.589 -0.2807 -0.9852 -0.2490
  342MOL0     C47111   3.901   9.060  10.032  0.6780  0.5425  0.1320
  342MOL0     C47112   4.018   9.055   9.956  0.4012 -0.4174  0.1924
  342MOL0     C47113   4.294   8.959   9.590 -0.7487 -0.8913 -0.5638
  342MOL0     C47114   4.396   8.850   9.580 -0.1182 -0.1411  0.6904
  342MOL0     C47115   4.490   8.857   9.477  0.0795 -0.4084 -0.7403
  342MOL0     C47116   4.499   8.962   9.388 -0.4861  0.1062  0.0901
  342MOL0     O47117   4.595   8.983   9.296 -0.0268 -0.3619 -0.2042
  342MOL0     C47118   4.707   8.888   9.284  0.1324  0.6894  0.4906
  342MOL0     C47119   4.825   8.970   9.229  0.3110  0.7329  0.7755
  342MOL0     C47120   4.819   8.987   9.079 -0.3817  0.2351  0.0095
  342MOL0     C47121   4.946   9.058   9.021  0.4594 -0.4329  0.5882
  342MOL0     C47122   5.056   8.961   9.013  0.0885  0.8253 -0.0191
  342MOL0     C47123   5.132   8.871   9.013 -0.0498 -0.0626  0.7618
  342MOL0     C47124   4.402   9.058   9.397 -0.5981 -0.3334 -0.5189
  342MOL0     C47125   4.303   9.067   9.487 -0.3726  1.1719  0.6313
  342MOL0     C47126   4.219   9.184   9.482  0.2766 -0.5680 -0.3436
  342MOL0     H47127   3.858   9.055   9.643 -6.8553 -1.6721  1.0220
  342MOL0     H47128   3.663   9.088   9.790  0.0391 -0.5180  1.3039
  342MOL0     H47129   3.571   9.217   9.949  2.1165 -0.8876 -0.9725
  342MOL0     H47130   3.648   9.283  10.097  1.8064 -1.2948 -0.1216
  342MOL0     H47131   3.393   9.258  10.112  1.0438  0.5801 -3.2916
  342MOL0     H47132   3.427   9.085  10.101 -1.5244  0.5313  0.9393
  342MOL0     H47133   3.385   9.127  10.304 -0.5174 -2.4081 -4.2127
  342MOL0     H47134   3.566   9.117  10.309  0.3190  0.3984  1.2523
  342MOL0     H47135   3.401   9.385  10.309  0.7867 -1.9663 -4.3019
  342MOL0     H47136   3.443   9.309  10.470  4.3376 -0.9001  1.6911
  342MOL0     H47137   3.597   9.487  10.415  4.4499  1.8193 -3.3647
  342MOL0     H47138   3.663   9.391  10.284  3.2797  1.1777  1.3411
  342MOL0     H47139   3.631   9.209  10.502 -2.5798  1.4951 -2.7170
  342MOL0     H47140   3.782   9.279  10.437  1.6354 -0.8804  4.8384
  342MOL0     H47141   3.727   9.309  10.692 -2.6586  0.2841  0.7036
  342MOL0     H47142   3.625   9.431  10.642  1.1088 -1.7368  5.2177
  342MOL0     H47143   3.888   9.477  10.695  3.1739  0.6016 -1.3823
  342MOL0     H47144   3.907   9.409  10.539  0.8583 -0.8984  2.6894
  342MOL0     H47145   3.840   9.552  10.314  4.5454  1.8856 -0.5537
  342MOL0     H47146   3.851   9.782  10.187  1.7216  3.1385  0.3246
  342MOL0     H47147   3.822   9.929  10.283  0.7372 -0.8319  1.3275
  342MOL0     H47148   3.601   9.744  10.192 -1.7471  0.4001 -1.3164
  342MOL0     H47149   3.588   9.905  10.274 -0.3833  0.9705 -0.4708
  342MOL0     H47150   3.701   9.821   9.990 -0.2907 -0.4510 -1.1282
  342MOL0     H47151   3.547   9.888  10.029  0.8691  0.5517 -1.4596
  342MOL0     H47152   3.610  10.098  10.001 -0.8776 -2.1302 -1.3943
  342MOL0     H47153   3.703  10.087  10.147  0.1945  1.1136 -0.0341
  342MOL0     H47154   3.696   9.988   9.765  0.5164  0.3840 -2.0141
  342MOL0     H47155   3.812   9.972   9.451  3.2364  1.3565  1.6657
  342MOL0     H47156   3.667   9.978   9.562 -0.3781 -2.6921  3.3692
  342MOL0     H47157   3.724   9.831   9.515 -2.4518  0.6802  3.4754
  342MOL0     H47158   4.177   9.777   9.285 -0.9659 -1.6974 -0.0518
  342MOL0     H47159   4.265   9.592   9.156 -2.2580  3.9169 -0.4472
  342MOL0     H47160   4.506   9.485   9.057 -2.9435  3.3966  2.3322
  342MOL0     H47161   4.598   9.562   9.202 -0.2380 -0.5210  2.8403
  342MOL0     H47162   4.594   9.277   9.165 -1.5833  1.3314  1.8175
  342MOL0     H47163   4.696   9.381   9.047  0.4809  3.2288  1.0588
  342MOL0     H47164   4.837   9.449   9.188  0.1517  0.1032 -1.7111
  342MOL0     H47165   4.817   9.279   9.236  2.5551  1.4151  0.9031
  342MOL0     H47166   4.703   9.385   9.447 -0.7613 -1.3589 -0.9855
  342MOL0     H47167   4.760   9.542   9.381  2.2313 -0.4793  1.8285
  342MOL0     H47168   4.955   9.312   9.444 -1.6451 -1.5976  0.5604
  342MOL0     H47169   4.980   9.474   9.372 -1.1623 -0.9209 -1.0069
  342MOL0     H47170   4.850   9.443   9.642  2.2295 -2.7109  0.2656
  342MOL0     H47171   4.889   9.594   9.554 -0.5743  0.1542 -0.8867
  342MOL0     H47172   5.127   9.561   9.566 -1.7491 -0.4353 -2.6840
  342MOL0     H47173   5.110   9.397   9.621 -2.1381 -0.8561 -0.9885
  342MOL0     H47174   4.997   9.466   9.823 -1.1798  2.1929  3.6990
  342MOL0     H47175   5.015   9.631   9.786  0.2450  0.5652 -0.4822
  342MOL0     H47176   4.463   9.449   9.514  1.2234  1.9592  3.5955
  342MOL0     H47177   4.367   9.620   9.633  2.3697  1.6723 -0.2765
  342MOL0     H47178   4.170   9.902   9.769 -0.0340 -0.5071  3.5546
  342MOL0     H47179   4.087   9.993   9.958 -1.4704  2.2234  0.9883
  342MOL0     H47180   3.910   9.065  10.140 -0.6388 -2.0783  0.4439
  342MOL0     H47181   4.112   9.045  10.008 -0.2506 -0.9223  1.2944
  342MOL0     H47182   4.399   8.756   9.635  1.8577 -1.8939 -2.1179
  342MOL0     H47183   4.555   8.772   9.460  1.4278  0.5464 -0.4834
  342MOL0     H47184   4.746   8.844   9.376  2.5854 -1.9362 -1.6217
  342MOL0     H47185   4.683   8.801   9.223 -2.6362  1.0753  0.8849
  342MOL0     H47186   4.919   8.925   9.264  0.5543  0.1003 -0.6231
  342MOL0     H47187   4.823   9.070   9.273 -0.8549 -0.3498  3.3824
  342MOL0     H47188   4.783   8.894   9.034 -1.1744  1.1874 -1.4150
  342MOL0     H47189   4.741   9.060   9.055  0.3098  0.5164 -1.4753
  342MOL0     H47190   4.971   9.140   9.088 -0.4929  0.3103  0.0563
  342MOL0     H47191   4.933   9.106   8.924 -2.2645 -1.6832  0.2246
  342MOL0     H47192   5.184   8.777   9.022  1.1495  0.4361 -0.5543
  342MOL0     H47193   4.405   9.126   9.313  3.1283 -0.9112 -1.0469
  342MOL0     H47194   4.112   9.159   9.489  0.1251  0.1394  0.0084
  342MOL0     H47195   4.243   9.243   9.571  0.1548 -1.6109  0.3987
  342MOL0     H47196   4.234   9.246   9.392  1.9537 -3.1353 -1.9486
  343MOL0     O47197   9.537   1.806   3.924  0.6424 -0.8817 -0.2833
  343MOL0     C47198   9.477   1.912   3.905  0.2463  0.0574  0.3678
  343MOL0     O47199   9.401   1.952   3.791  0.3914  0.5186  0.2392
  343MOL0     C47200   9.366   1.853   3.704 -0.1502  0.8204  0.3006
  343MOL0     C47201   9.235   1.846   3.647 -0.3885  0.0152 -0.8018
  343MOL0     C47202   9.209   1.768   3.545 -0.4760  0.6654 -0.2227
  343MOL0     C47203   9.306   1.688   3.480  0.2194  0.0794  0.6107
  343MOL0     O47204   9.258   1.597   3.382 -0.0180 -0.6134 -0.3016
  343MOL0     C47205   9.361   1.562   3.291  0.6845 -0.1389  0.4512
  343MOL0     C47206   9.308   1.498   3.165 -0.5320  0.7970 -0.6155
  343MOL0     C47207   9.234   1.368   3.188  0.3361  0.0286 -0.5684
  343MOL0     C47208   9.338   1.254   3.220  0.4376  0.8809  0.8306
  343MOL0     C47209   9.255   1.131   3.258 -0.3094  0.5788 -0.1861
  343MOL0     C47210   9.225   1.115   3.409  0.3702 -0.3307  0.0539
  343MOL0     C47211   9.147   0.993   3.433 -0.2887  0.0778 -0.4279
  343MOL0     C47212   9.027   1.011   3.524  0.6419 -0.6982  0.1131
  343MOL0     N47213   8.991   0.882   3.577 -0.2695  0.0595  0.2384
  343MOL0     C47214   8.894   0.800   3.527 -0.3110  0.3849  0.0858
  343MOL0     C47215   8.883   0.701   3.618  0.2029  0.9378  0.6499
  343MOL0     C47216   8.770   0.599   3.634 -0.4242  0.1803  0.6143
  343MOL0     C47217   8.628   0.652   3.641 -0.0229 -0.6845 -0.0820
  343MOL0     C47218   8.603   0.724   3.782 -0.7657 -0.0419  0.7604
  343MOL0     C47219   8.638   0.628   3.903 -0.0685 -0.7375 -0.0165
  343MOL0     O47220   8.594   0.699   4.023 -0.1039  0.5829 -0.6477
  343MOL0     C47221   8.471   0.676   4.061  0.9330  0.2913 -0.9094
  343MOL0     C47222   8.369   0.614   3.988  0.5346 -0.6320  0.5834
  343MOL0     C47223   8.238   0.604   4.028  0.8406  0.9331 -1.3685
  343MOL0     C47224   8.128   0.534   3.943  0.7069 -0.0478 -0.2916
  343MOL0     C47225   8.201   0.655   4.153  0.1548 -0.4210 -0.3268
  343MOL0     C47226   8.069   0.646   4.222 -0.4631  0.0386  0.3658
  343MOL0     O47227   8.062   0.707   4.342 -0.2841 -0.6211 -0.2291
  343MOL0     C47228   7.947   0.693   4.411 -0.2437 -0.2229 -0.2600
  343MOL0     C47229   7.825   0.745   4.372  0.2046  0.3096  1.0444
  343MOL0     C47230   7.711   0.752   4.461 -1.0323 -0.6919 -0.1375
  343MOL0     C47231   7.719   0.710   4.591 -0.2058  0.4537 -0.2528
  343MOL0     O47232   7.605   0.691   4.672 -0.9040  0.5186 -0.1049
  343MOL0     C47233   7.622   0.696   4.818  0.4285 -0.4029  0.3890
  343MOL0     C47234   7.620   0.564   4.896 -0.2619 -0.0708  1.1610
  343MOL0     C47235   7.476   0.541   4.953 -0.0659 -0.4721  0.3074
  343MOL0     C47236   7.462   0.389   4.980 -0.9853 -0.3670  0.7241
  343MOL0     C47237   7.329   0.343   5.045 -0.3142 -0.6885 -0.8226
  343MOL0     C47238   7.314   0.412   5.185  0.5065 -0.1600 -0.4334
  343MOL0     C47239   7.183   0.357   5.246  0.0356 -0.4641 -0.1253
  343MOL0     C47240   7.060   0.421   5.171  0.7715  0.7251  0.2431
  343MOL0    Cl47241   6.925   0.402   5.296 -0.2974  0.0999  0.1035
  343MOL0     C47242   7.842   0.657   4.628  0.3677 -0.1393 -0.8046
  343MOL0     C47243   7.951   0.648   4.542 -0.1925 -0.0316  0.4915
  343MOL0     O47244   7.980   0.578   4.170 -0.7236 -0.0387 -0.1428
  343MOL0     C47245   8.306   0.732   4.219 -0.0544  1.0005  0.7246
  343MOL0     C47246   8.436   0.731   4.175 -0.1527 -0.1127  0.0006
  343MOL0     N47247   8.980   0.713   3.716  0.9825 -0.9942 -0.7640
  343MOL0     N47248   9.041   0.819   3.697  0.1305  0.0302  1.0869
  343MOL0     C47249   9.433   1.699   3.527 -0.1442  0.4372 -0.1680
  343MOL0     C47250   9.464   1.774   3.641  0.5426 -0.0954 -0.6608
  343MOL0     C47251   9.506   2.016   4.009  0.8686 -0.8182 -1.0168
  343MOL0     C47252   9.490   2.148   3.961 -0.7577  0.6081 -0.0354
  343MOL0     C47253   9.519   2.254   4.046 -0.0466 -0.0977  0.6066
  343MOL0     C47254   9.543   2.242   4.185 -0.7901  0.0418  0.4564
  343MOL0     O47255   9.563   2.351   4.265  0.7222  0.5025 -0.1291
  343MOL0     C47256   9.551   2.486   4.210  0.1116  1.0176 -0.1137
  343MOL0     C47257   9.554   2.580   4.319 -1.5118 -0.4969 -0.8406
  343MOL0     C47258   9.682   2.558   4.415  0.0103  1.5455  1.6339
  343MOL0     C47259   9.759   2.680   4.455 -0.7837 -0.5666  1.2426
  343MOL0     C47260   9.781   2.770   4.354 -0.6152 -0.2225  0.6263
  343MOL0     C47261   9.804   2.862   4.271 -0.4943  0.0594  0.0646
  343MOL0     C47262   9.563   2.112   4.231  0.5366 -1.0321 -0.2406
  343MOL0     C47263   9.535   1.996   4.148 -0.1653  0.8690 -0.0130
  343MOL0     C47264   9.555   1.863   4.206  0.2616 -0.1913  0.8524
  343MOL0     H47265   9.153   1.898   3.697  0.5205 -1.5916  2.6361
  343MOL0     H47266   9.106   1.749   3.517  0.1526 -0.5456 -1.8795
  343MOL0     H47267   9.432   1.492   3.338  0.2848 -0.4313  0.6291
  343MOL0     H47268   9.419   1.648   3.257  1.1108 -0.7481 -0.4084
  343MOL0     H47269   9.238   1.572   3.125 -0.9783  1.5063  1.3804
  343MOL0     H47270   9.383   1.472   3.090 -0.1898 -4.3636  1.1055
  343MOL0     H47271   9.164   1.384   3.270  2.1627  4.8741  0.3589
  343MOL0     H47272   9.176   1.347   3.097  0.5792  1.7686 -1.1672
  343MOL0     H47273   9.403   1.224   3.138 -0.2582 -2.4876  1.3539
  343MOL0     H47274   9.398   1.274   3.309  0.5124 -0.5879  1.1267
  343MOL0     H47275   9.310   1.039   3.232 -0.9253  0.2334 -0.2771
  343MOL0     H47276   9.162   1.125   3.202  0.2746 -0.1103 -1.1029
  343MOL0     H47277   9.320   1.097   3.460  0.6545 -0.2562 -0.4411
  343MOL0     H47278   9.177   1.206   3.446 -2.2568 -1.8581  0.6801
  343MOL0     H47279   9.222   0.922   3.470 -1.7463 -1.7172 -0.7606
  343MOL0     H47280   9.106   0.945   3.343 -3.9114 -1.9790  2.0302
  343MOL0     H47281   9.053   1.082   3.602 -3.3075  1.1902 -0.0268
  343MOL0     H47282   8.966   1.069   3.453  4.1329 -0.9906 -3.4473
  343MOL0     H47283   8.837   0.824   3.438 -0.4286 -2.1695 -0.6132
  343MOL0     H47284   8.797   0.525   3.710  1.3273 -0.2247 -0.3533
  343MOL0     H47285   8.772   0.544   3.539  3.4489  2.4461 -0.8564
  343MOL0     H47286   8.613   0.717   3.554 -1.4449 -0.2499  0.4653
  343MOL0     H47287   8.561   0.566   3.629  1.0930 -1.4001 -1.7147
  343MOL0     H47288   8.666   0.813   3.794 -0.3433 -0.1192 -0.6948
  343MOL0     H47289   8.501   0.763   3.784 -0.5176  0.6777  0.0362
  343MOL0     H47290   8.593   0.529   3.891  1.2410 -1.4396  0.6708
  343MOL0     H47291   8.747   0.622   3.913 -0.0902  1.3610  2.6775
  343MOL0     H47292   8.381   0.605   3.880 -0.5090 -0.9124  0.4808
  343MOL0     H47293   8.160   0.541   3.839  1.2579 -1.4159 -0.2409
  343MOL0     H47294   8.025   0.572   3.941  0.0481 -1.7301 -0.1813
  343MOL0     H47295   8.106   0.431   3.974  0.0326 -0.9112 -3.2423
  343MOL0     H47296   7.817   0.792   4.274 -3.4680 -1.3077  0.4157
  343MOL0     H47297   7.614   0.796   4.442 -1.0543 -0.5519  0.2736
  343MOL0     H47298   7.707   0.758   4.851  0.7684  1.1208 -2.9556
  343MOL0     H47299   7.538   0.753   4.859  1.2174  3.4749 -2.7378
  343MOL0     H47300   7.637   0.481   4.828  1.0007  1.9085 -1.0819
  343MOL0     H47301   7.697   0.568   4.974  1.9615 -2.4529 -0.7609
  343MOL0     H47302   7.409   0.567   4.870  3.4209  3.7658 -1.6169
  343MOL0     H47303   7.456   0.597   5.045  1.5725  0.3711  0.2017
  343MOL0     H47304   7.543   0.360   5.048 -1.4029  0.5779  1.6593
  343MOL0     H47305   7.480   0.333   4.888  3.6008  1.3203  0.3005
  343MOL0     H47306   7.254   0.375   4.971  0.2428 -0.7441 -1.4229
  343MOL0     H47307   7.313   0.237   5.064 -0.1312 -0.8803 -1.6764
  343MOL0     H47308   7.303   0.521   5.179 -2.7121 -0.3429  0.3824
  343MOL0     H47309   7.403   0.386   5.243  0.5701  0.0107 -0.4531
  343MOL0     H47310   7.157   0.366   5.352 -0.7318  3.2500 -0.4613
  343MOL0     H47311   7.171   0.250   5.231  0.6251 -0.6483  0.6330
  343MOL0     H47312   7.035   0.351   5.091  2.4898  0.0098  0.2726
  343MOL0     H47313   7.065   0.526   5.139 -1.0860  0.8941  0.3944
  343MOL0     H47314   7.861   0.630   4.732 -0.9467 -4.8210 -1.5683
  343MOL0     H47315   8.037   0.608   4.595 -0.3548 -2.7261 -1.0915
  343MOL0     H47316   8.284   0.770   4.318 -2.6800 -0.5120  0.8222
  343MOL0     H47317   8.515   0.777   4.233  0.8762 -2.5210  0.6470
  343MOL0     H47318   9.515   1.653   3.474  0.8434  0.2984  1.4022
  343MOL0     H47319   9.562   1.769   3.687  0.6621  1.5282 -0.6900
  343MOL0     H47320   9.469   2.162   3.855  3.1747 -2.7097 -1.5209
  343MOL0     H47321   9.522   2.354   4.002 -0.0920  0.2769  1.4308
  343MOL0     H47322   9.625   2.514   4.134  0.2612  2.8628  0.6731
  343MOL0     H47323   9.450   2.497   4.169  0.0111  2.6732  0.5183
  343MOL0     H47324   9.463   2.559   4.376 -0.0615 -0.9905  1.4284
  343MOL0     H47325   9.549   2.683   4.281 -1.5548 -0.0336  0.3949
  343MOL0     H47326   9.652   2.505   4.506  1.7512 -0.7104  0.9890
  343MOL0     H47327   9.747   2.481   4.372 -1.7967 -1.1641  3.4095
  343MOL0     H47328   9.853   2.658   4.505  1.0306  4.8238  0.7584
  343MOL0     H47329   9.691   2.734   4.521 -3.0137 -1.8914  0.1926
  343MOL0     H47330   9.827   2.929   4.190 -2.7244  0.3666 -0.3888
  343MOL0     H47331   9.608   2.090   4.327  1.5468 -4.1586 -1.2797
  343MOL0     H47332   9.465   1.806   4.183  0.1376 -0.4356  1.8974
  343MOL0     H47333   9.647   1.816   4.168  0.7054  0.5522  0.9884
  343MOL0     H47334   9.549   1.864   4.315  1.6601  1.1965  0.9431
  344MOL0     O47335   9.341   3.423   2.261  0.3045  0.3429  0.7750
  344MOL0     C47336   9.297   3.393   2.152 -0.2526 -0.7294 -0.3670
  344MOL0     O47337   9.161   3.385   2.125 -0.6869 -1.0413  0.6247
  344MOL0     C47338   9.056   3.356   2.209 -0.1272  0.6596  0.1398
  344MOL0     C47339   9.076   3.280   2.323  0.4959 -1.5347 -0.3134
  344MOL0     C47340   8.965   3.223   2.389 -0.0751  0.3009 -0.8539
  344MOL0     C47341   8.832   3.259   2.348 -0.0426 -0.2523 -0.0541
  344MOL0     O47342   8.725   3.221   2.423  0.4133 -0.8807  0.4920
  344MOL0     C47343   8.721   3.087   2.463 -0.8206  0.7083 -0.2856
  344MOL0     C47344   8.601   3.058   2.546 -0.8262 -0.6201  0.6607
  344MOL0     C47345   8.586   3.144   2.669 -0.8394 -0.5468  0.4873
  344MOL0     C47346   8.704   3.137   2.768  1.3172 -0.0585  0.3858
  344MOL0     C47347   8.688   3.207   2.904  0.0779 -1.6059  1.2337
  344MOL0     C47348   8.745   3.353   2.907 -1.0593 -0.6498 -0.0975
  344MOL0     C47349   8.711   3.430   3.029  0.2647  0.2864 -0.3017
  344MOL0     C47350   8.566   3.453   3.049  0.4537  1.1484  0.2290
  344MOL0     N47351   8.492   3.522   2.936 -0.2647  0.3700  0.3082
  344MOL0     C47352   8.428   3.649   2.943 -0.2890  0.3496  0.1897
  344MOL0     C47353   8.327   3.648   2.853  0.4623  0.0809  0.5747
  344MOL0     C47354   8.235   3.763   2.821  0.1975  0.2609 -0.2821
  344MOL0     C47355   8.135   3.786   2.943 -0.6026  0.0040 -0.3309
  344MOL0     C47356   8.042   3.908   2.917  0.5423 -0.8564  0.0522
  344MOL0     C47357   8.123   4.039   2.937  0.0885 -0.1832  0.1489
  344MOL0     O47358   8.105   4.086   3.073 -1.0972  0.1891  0.3659
  344MOL0     C47359   8.079   4.213   3.082  0.3422 -0.5296  0.2593
  344MOL0     C47360   8.177   4.291   3.152 -0.2453  0.4882  0.7787
  344MOL0     C47361   8.173   4.428   3.149  0.1446 -0.4084 -0.4073
  344MOL0     C47362   8.290   4.502   3.208  0.8706 -0.5931 -0.1225
  344MOL0     C47363   8.060   4.499   3.096 -0.8920  1.0937  0.7256
  344MOL0     C47364   8.049   4.645   3.088 -0.8744  0.7867 -0.2929
  344MOL0     O47365   7.922   4.697   3.090  0.2905  0.8088  0.7155
  344MOL0     C47366   7.907   4.834   3.092  0.0668 -0.5086 -0.2983
  344MOL0     C47367   7.868   4.900   3.210  0.3955  0.6785 -0.4652
  344MOL0     C47368   7.893   5.034   3.220 -0.5876 -0.4020  0.1911
  344MOL0     C47369   7.953   5.110   3.114  0.3525  0.6086  0.1851
  344MOL0     O47370   7.981   5.243   3.118  0.0653  1.2103  0.4086
  344MOL0     C47371   7.952   5.316   3.241 -0.5003  0.0190  1.2682
  344MOL0     C47372   7.810   5.373   3.221 -0.6832  0.7341 -0.5830
  344MOL0     C47373   7.783   5.490   3.324 -1.0682  0.1070  0.2384
  344MOL0     C47374   7.659   5.575   3.277 -0.3201 -0.3355  0.1870
  344MOL0     C47375   7.668   5.714   3.343 -0.3134 -0.1140 -0.3348
  344MOL0     C47376   7.548   5.810   3.307 -0.6865  0.4167  0.3720
  344MOL0     C47377   7.580   5.949   3.367  0.4106 -0.1172 -0.1759
  344MOL0     C47378   7.453   6.042   3.370  1.0153  0.0194 -0.2142
  344MOL0    Cl47379   7.492   6.219   3.361  0.0796  0.0579 -0.2528
  344MOL0     C47380   7.988   5.042   3.005 -0.9735 -0.1211  0.0044
  344MOL0     C47381   7.972   4.902   2.988  0.3649  1.2647  0.0390
  344MOL0     O47382   8.154   4.711   3.066 -0.4285 -0.4694 -0.5001
  344MOL0     C47383   7.956   4.421   3.045 -0.2354 -1.3908 -0.2801
  344MOL0     C47384   7.961   4.276   3.029  0.2616 -0.5628 -0.9434
  344MOL0     N47385   8.337   3.524   2.785  0.2714 -0.3931 -0.8739
  344MOL0     N47386   8.435   3.457   2.835 -0.3895  0.3874 -0.3723
  344MOL0     C47387   8.818   3.341   2.231 -1.0469 -0.4303  0.0433
  344MOL0     C47388   8.930   3.397   2.171  0.2429  0.0708  0.0494
  344MOL0     C47389   9.389   3.383   2.036 -0.5488 -0.3370  1.0141
  344MOL0     C47390   9.456   3.255   2.011 -0.8191  0.2445 -0.3633
  344MOL0     C47391   9.531   3.250   1.903 -0.6757 -0.2987  0.5597
  344MOL0     C47392   9.574   3.361   1.826 -0.1904  0.0123 -0.5168
  344MOL0     O47393   9.656   3.350   1.714 -0.3270  0.3427  0.4451
  344MOL0     C47394   9.698   3.462   1.635  0.2121 -0.5318  0.3592
  344MOL0     C47395   9.821   3.436   1.541  1.0472 -0.2144 -0.8447
  344MOL0     C47396   9.949   3.380   1.613  0.4131  0.1750 -0.2599
  344MOL0     C47397  10.038   3.334   1.506  0.2974  0.5007 -0.2924
  344MOL0     C47398  10.160   3.273   1.558  1.1951  0.2314 -0.0257
  344MOL0     C47399  10.259   3.229   1.603  0.6145  0.7667 -0.5027
  344MOL0     C47400   9.518   3.487   1.860 -0.2810 -0.1845  0.4786
  344MOL0     C47401   9.424   3.498   1.960 -1.2307  0.1904 -0.3058
  344MOL0     C47402   9.346   3.626   1.970 -0.4590 -0.3982  0.0046
  344MOL0     H47403   9.178   3.285   2.359 -0.1909  1.9829  1.6046
  344MOL0     H47404   8.996   3.160   2.473  0.5109  1.2422 -0.3502
  344MOL0     H47405   8.805   3.070   2.530 -1.8011  4.9332  2.3882
  344MOL0     H47406   8.728   3.014   2.382 -0.4665  0.0233  0.3493
  344MOL0     H47407   8.522   3.073   2.471 -0.1669 -4.6938 -1.0841
  344MOL0     H47408   8.616   2.955   2.579  0.2552 -0.1149  1.8135
  344MOL0     H47409   8.563   3.249   2.650  1.0390  0.0655  1.3344
  344MOL0     H47410   8.503   3.094   2.719 -0.9141 -1.4106 -0.4646
  344MOL0     H47411   8.720   3.033   2.798  0.9381 -0.2314  0.0138
  344MOL0     H47412   8.787   3.180   2.712  0.1171  1.2787 -0.4400
  344MOL0     H47413   8.736   3.147   2.982  2.2608  2.1007  3.0076
  344MOL0     H47414   8.580   3.206   2.924 -0.1310 -1.2721  0.1531
  344MOL0     H47415   8.853   3.333   2.907 -1.0152 -0.9029  2.9663
  344MOL0     H47416   8.720   3.419   2.823 -2.3828 -0.1802  0.6374
  344MOL0     H47417   8.763   3.526   3.028 -0.7832  0.8689 -0.0095
  344MOL0     H47418   8.746   3.374   3.117 -1.9191  1.5751  1.5002
  344MOL0     H47419   8.514   3.358   3.064 -0.0790  1.2307 -0.9425
  344MOL0     H47420   8.555   3.524   3.131  0.2252 -1.0504  2.1950
  344MOL0     H47421   8.444   3.730   3.012 -2.8620 -0.6998  2.2030
  344MOL0     H47422   8.176   3.743   2.731  1.3871  0.8349 -1.2174
  344MOL0     H47423   8.292   3.856   2.812 -1.6749  2.3573  5.1150
  344MOL0     H47424   8.074   3.695   2.941  1.2755 -1.3120 -0.1982
  344MOL0     H47425   8.191   3.799   3.036 -1.4342 -2.2574  0.5573
  344MOL0     H47426   8.009   3.916   2.813  1.1562  0.7414 -0.0405
  344MOL0     H47427   7.958   3.900   2.986  0.7063  0.2174  0.3900
  344MOL0     H47428   8.227   4.034   2.905  0.7633  0.6024  2.0819
  344MOL0     H47429   8.074   4.109   2.868  0.6168  1.2467  1.1745
  344MOL0     H47430   8.251   4.228   3.200 -0.1905 -1.5865 -1.7674
  344MOL0     H47431   8.339   4.438   3.282 -3.4387 -2.3977  1.4828
  344MOL0     H47432   8.252   4.582   3.271 -0.1263 -0.7239 -0.5416
  344MOL0     H47433   8.358   4.538   3.130 -0.7040  1.0468 -0.8144
  344MOL0     H47434   7.840   4.846   3.300  0.1465 -1.0116 -1.5160
  344MOL0     H47435   7.859   5.079   3.312 -2.3710 -0.9523 -0.1667
  344MOL0     H47436   7.957   5.251   3.328 -0.3034 -2.2704 -0.3500
  344MOL0     H47437   8.027   5.395   3.252  0.5882 -1.0588  1.7962
  344MOL0     H47438   7.800   5.412   3.119 -0.0350 -1.9215 -1.7581
  344MOL0     H47439   7.740   5.292   3.243 -0.5656  1.2845  2.1381
  344MOL0     H47440   7.874   5.541   3.355  0.0014 -2.3641  1.4772
  344MOL0     H47441   7.743   5.436   3.411  0.6150  0.8036  1.5125
  344MOL0     H47442   7.565   5.525   3.300  0.1932 -1.4469 -0.0421
  344MOL0     H47443   7.657   5.598   3.170  0.0551  0.0766  0.2662
  344MOL0     H47444   7.667   5.705   3.452 -0.0151 -1.2195 -0.4021
  344MOL0     H47445   7.757   5.764   3.303  1.1482 -1.4518  1.1048
  344MOL0     H47446   7.452   5.766   3.338 -1.0830  1.9466  1.4735
  344MOL0     H47447   7.553   5.820   3.198  1.9683 -1.7928  0.1770
  344MOL0     H47448   7.658   6.004   3.314  2.9755 -2.3403  1.0836
  344MOL0     H47449   7.619   5.938   3.468 -0.8256 -0.0988  0.3296
  344MOL0     H47450   7.382   6.027   3.451 -0.7305 -2.3939 -2.0581
  344MOL0     H47451   7.399   6.010   3.281  2.9779 -2.3948 -0.6422
  344MOL0     H47452   8.036   5.093   2.922  0.1490  0.3360  0.9089
  344MOL0     H47453   8.011   4.845   2.905 -0.2065  0.2144  0.4698
  344MOL0     H47454   7.869   4.475   3.010  1.3509  1.5326 -0.0217
  344MOL0     H47455   7.873   4.223   2.995 -1.9867  1.1383  1.7272
  344MOL0     H47456   8.719   3.376   2.204 -0.9798 -0.9382 -0.8923
  344MOL0     H47457   8.920   3.477   2.098  1.1081  1.8400  1.7572
  344MOL0     H47458   9.430   3.169   2.072 -4.7835  1.1603 -0.5444
  344MOL0     H47459   9.578   3.154   1.887 -0.8871 -0.0625 -1.7857
  344MOL0     H47460   9.619   3.502   1.571  1.3359 -1.2379 -1.5705
  344MOL0     H47461   9.734   3.540   1.702 -1.8446  1.9559 -1.2669
  344MOL0     H47462   9.845   3.517   1.471 -1.3734  0.2676 -1.2105
  344MOL0     H47463   9.787   3.355   1.476 -2.7310  0.0373  0.5811
  344MOL0     H47464   9.999   3.451   1.680 -0.7245 -0.7898  1.6733
  344MOL0     H47465   9.915   3.307   1.686 -0.9955 -0.1547 -1.2069
  344MOL0     H47466  10.078   3.415   1.444  0.7916  1.5832  1.3834
  344MOL0     H47467   9.988   3.270   1.432  0.2258 -2.9001  2.4148
  344MOL0     H47468  10.340   3.167   1.634 -2.1898 -4.8079 -2.8486
  344MOL0     H47469   9.533   3.567   1.789  3.4959 -1.3310 -0.2310
  344MOL0     H47470   9.396   3.685   2.047 -2.4057 -0.3586  1.2905
  344MOL0     H47471   9.361   3.693   1.884 -2.5435  0.1859  0.0467
  344MOL0     H47472   9.243   3.604   1.996 -0.4270 -1.8320 -0.9468
  345MOL0     O47473   0.595   9.944   2.821  0.0048 -0.2501 -0.4319
  345MOL0     C47474   0.474   9.963   2.823  0.4983  0.0423  0.1566
  345MOL0     O47475   0.414  10.085   2.811  0.7275  0.4583 -0.7422
  345MOL0     C47476   0.491  10.193   2.833  0.3589 -0.2033  0.9620
  345MOL0     C47477   0.617  10.234   2.773  0.6036  0.8224 -0.3784
  345MOL0     C47478   0.693  10.341   2.812 -0.4144  0.6359 -0.6976
  345MOL0     C47479   0.641  10.420   2.914 -0.2147  0.4826 -0.0333
  345MOL0     O47480   0.705  10.536   2.941 -0.7841  0.2322 -0.5012
  345MOL0     C47481   0.711  10.576   3.081 -0.9966 -0.9546 -0.2523
  345MOL0     C47482   0.768  10.721   3.101 -0.2841 -0.1463 -0.0239
  345MOL0     C47483   0.890  10.734   3.185 -0.2255 -0.7800  0.5187
  345MOL0     C47484   0.922  10.885   3.183  0.5723 -0.3969  0.0487
  345MOL0     C47485   1.043  10.928   3.267 -0.2397  0.4559  0.0992
  345MOL0     C47486   1.172  10.856   3.233  1.0977  0.5883 -0.0776
  345MOL0     C47487   1.303  10.926   3.262  0.9554  0.2525 -1.1105
  345MOL0     C47488   1.438  10.855   3.239  1.0300 -0.1181 -0.4013
  345MOL0     N47489   1.481  10.906   3.113  0.6000 -0.7045  0.4408
  345MOL0     C47490   1.553  11.026   3.093  0.1249 -0.2715  0.8709
  345MOL0     C47491   1.544  11.037   2.963  0.4794 -0.2340 -0.1163
  345MOL0     C47492   1.583  11.165   2.900 -0.0393  0.7929  0.5872
  345MOL0     C47493   1.664  11.141   2.771  0.2600  0.0111 -0.6622
  345MOL0     C47494   1.667  11.275   2.700  0.1997 -0.1146  0.3007
  345MOL0     C47495   1.554  11.321   2.615 -0.8427  0.5206  0.0423
  345MOL0     O47496   1.506  11.217   2.531 -0.3601 -0.0722  0.0934
  345MOL0     C47497   1.536  11.235   2.398  1.1322  1.4585 -0.2893
  345MOL0     C47498   1.441  11.295   2.312  1.3773 -0.6923  0.1318
  345MOL0     C47499   1.450  11.297   2.176 -0.7196 -0.0688 -0.4438
  345MOL0     C47500   1.329  11.351   2.093 -0.4236 -0.3392 -0.4335
  345MOL0     C47501   1.572  11.251   2.122  1.3959  0.8852  0.6187
  345MOL0     C47502   1.589  11.251   1.969  0.3870  0.1159 -0.1733
  345MOL0     O47503   1.538  11.143   1.900  0.0236  0.6108  0.8248
  345MOL0     C47504   1.577  11.102   1.771 -0.4913 -0.0586  0.9557
  345MOL0     C47505   1.660  11.179   1.671  0.3980 -0.0340 -0.2428
  345MOL0     C47506   1.670  11.120   1.549  0.4066  0.2418 -0.6396
  345MOL0     C47507   1.617  10.996   1.509  0.4546 -0.4313  1.1458
  345MOL0     O47508   1.625  10.975   1.376  0.8385 -0.9783  0.3793
  345MOL0     C47509   1.554  10.857   1.330 -0.3956 -0.1322  0.1488
  345MOL0     C47510   1.403  10.873   1.321 -0.0564 -0.0572  1.0250
  345MOL0     C47511   1.335  10.759   1.243 -0.3041 -0.7427  0.1197
  345MOL0     C47512   1.304  10.632   1.319 -0.6891  0.8697 -0.2375
  345MOL0     C47513   1.232  10.525   1.227  0.9273 -0.2409  1.2190
  345MOL0     C47514   1.214  10.388   1.297 -0.2023 -0.5358  0.2172
  345MOL0     C47515   1.164  10.283   1.208  0.5521  0.4972 -0.3744
  345MOL0     C47516   1.025  10.310   1.143 -1.3385  0.3769  0.3719
  345MOL0    Cl47517   0.963  10.145   1.100 -0.1299 -0.4582  0.0886
  345MOL0     C47518   1.550  10.918   1.611  0.6230  0.5210 -0.3401
  345MOL0     C47519   1.537  10.975   1.743  0.0865 -0.1645  1.0655
  345MOL0     O47520   1.670  11.336   1.922  0.2160 -0.0149  0.5408
  345MOL0     C47521   1.672  11.199   2.202  0.5467  0.1600 -0.1243
  345MOL0     C47522   1.656  11.187   2.345 -1.1753 -0.0689  0.0337
  345MOL0     N47523   1.486  10.928   2.899  0.2111  0.0576  0.8663
  345MOL0     N47524   1.442  10.847   2.995 -0.5122 -0.1429  0.0179
  345MOL0     C47525   0.518  10.389   2.972  0.9947  0.2562  0.5050
  345MOL0     C47526   0.449  10.275   2.938 -0.1805 -0.1001  0.6569
  345MOL0     C47527   0.380   9.850   2.823  0.1151  0.2177  0.4238
  345MOL0     C47528   0.262   9.868   2.750 -1.2604  0.9025  0.3511
  345MOL0     C47529   0.166   9.772   2.754 -0.4853  0.4735 -0.2204
  345MOL0     C47530   0.180   9.647   2.830  0.7092  0.5092  0.3988
  345MOL0     O47531   0.076   9.564   2.854  0.0809 -0.0246 -0.1042
  345MOL0     C47532   0.072   9.457   2.763  0.4047  0.0679  0.6909
  345MOL0     C47533  -0.043   9.478   2.663  0.1874  0.6885  0.5857
  345MOL0     C47534  -0.045   9.379   2.548  0.7167  0.1567  0.5376
  345MOL0     C47535  -0.178   9.393   2.462 -0.3808 -0.2958  0.1510
  345MOL0     C47536  -0.198   9.311   2.341 -0.3015 -0.5161  0.0105
  345MOL0     C47537  -0.231   9.257   2.243 -0.6824  1.2352  0.2818
  345MOL0     C47538   0.298   9.627   2.895 -0.8104 -0.4383 -0.1709
  345MOL0     C47539   0.398   9.727   2.901  0.7757  0.2877 -0.1385
  345MOL0     C47540   0.504   9.697   3.000  0.0045 -0.3880 -0.4587
  345MOL0     H47541   0.662  10.180   2.691  0.0975  0.8596 -0.6835
  345MOL0     H47542   0.777  10.374   2.752  2.9632  0.4602  3.4750
  345MOL0     H47543   0.772  10.506   3.139 -0.1126  1.1993  1.5180
  345MOL0     H47544   0.616  10.575   3.135 -1.1156 -1.5176 -0.4557
  345MOL0     H47545   0.805  10.763   3.007  0.7187  0.4884  0.6384
  345MOL0     H47546   0.683  10.781   3.133 -0.4210  0.9222 -2.1913
  345MOL0     H47547   0.865  10.709   3.289  1.0580  0.1895  1.0915
  345MOL0     H47548   0.974  10.673   3.150 -0.6808 -0.9334 -0.3278
  345MOL0     H47549   0.927  10.908   3.076  2.1255 -4.2612 -0.8670
  345MOL0     H47550   0.840  10.949   3.219  1.1903  1.0637 -1.0421
  345MOL0     H47551   1.025  10.923   3.375  2.7862  2.5672  0.8392
  345MOL0     H47552   1.058  11.034   3.243  0.1366  0.4756  0.4251
  345MOL0     H47553   1.163  10.759   3.283 -0.0710  0.5623 -0.3230
  345MOL0     H47554   1.163  10.849   3.124 -0.8710  1.4563  0.0008
  345MOL0     H47555   1.292  10.957   3.366 -4.1599 -3.1290 -0.2718
  345MOL0     H47556   1.296  11.023   3.212 -0.6217  0.2345 -0.9538
  345MOL0     H47557   1.498  10.874   3.328  0.5508 -0.3026 -0.0326
  345MOL0     H47558   1.415  10.748   3.232  1.2375 -0.0887 -1.8594
  345MOL0     H47559   1.589  11.090   3.173  0.9512 -0.4362  0.6377
  345MOL0     H47560   1.647  11.219   2.970  2.6518  0.4513 -1.4405
  345MOL0     H47561   1.490  11.220   2.884 -0.2783  0.3648  0.4835
  345MOL0     H47562   1.768  11.124   2.802 -0.7532  0.2704  3.4482
  345MOL0     H47563   1.638  11.052   2.713  1.1531 -0.3123 -0.5881
  345MOL0     H47564   1.688  11.351   2.777  3.0065 -1.0853  0.6196
  345MOL0     H47565   1.748  11.265   2.628 -1.8107 -1.9427 -1.8625
  345MOL0     H47566   1.475  11.355   2.683 -1.0755 -2.6426  1.5090
  345MOL0     H47567   1.587  11.400   2.547 -2.7682  2.2295  0.9885
  345MOL0     H47568   1.345  11.334   2.343 -0.2549 -1.2420 -3.6657
  345MOL0     H47569   1.309  11.281   2.011  1.4675  0.0100 -1.2508
  345MOL0     H47570   1.360  11.446   2.048  3.5277 -0.3604  1.7107
  345MOL0     H47571   1.235  11.364   2.147  0.1717  1.7344  0.2004
  345MOL0     H47572   1.691  11.279   1.701 -1.5357  1.4881 -2.9697
  345MOL0     H47573   1.718  11.162   1.460  0.2113 -2.0516 -1.8961
  345MOL0     H47574   1.599  10.835   1.232  3.5316  0.1954  1.6929
  345MOL0     H47575   1.594  10.779   1.395  0.7076  3.1971  3.8190
  345MOL0     H47576   1.360  10.880   1.421  0.8734  2.6927  1.3244
  345MOL0     H47577   1.393  10.972   1.275  3.1346  0.3950  1.0540
  345MOL0     H47578   1.387  10.747   1.147 -2.8611  4.3214 -2.3221
  345MOL0     H47579   1.253  10.814   1.196  0.3130 -1.3257 -1.7413
  345MOL0     H47580   1.247  10.668   1.405 -1.8934  2.5728 -1.6752
  345MOL0     H47581   1.399  10.589   1.353 -0.0025  2.1535 -0.4341
  345MOL0     H47582   1.137  10.571   1.195  1.4169 -0.7808 -1.1804
  345MOL0     H47583   1.297  10.512   1.140  2.0545  0.6014  1.9213
  345MOL0     H47584   1.145  10.410   1.379 -1.0324 -0.1107 -0.5729
  345MOL0     H47585   1.311  10.355   1.335 -0.3848 -1.7525 -0.3182
  345MOL0     H47586   1.158  10.186   1.258  0.7889 -0.8915 -2.8724
  345MOL0     H47587   1.245  10.281   1.134  0.6476  2.4187 -0.3836
  345MOL0     H47588   1.046  10.359   1.047 -1.5407  0.0528  0.1638
  345MOL0     H47589   0.949  10.354   1.208 -1.2133  1.5488 -0.2401
  345MOL0     H47590   1.515  10.815   1.600  0.8868  0.5522 -1.6784
  345MOL0     H47591   1.481  10.931   1.825 -0.2812 -0.0735  0.8658
  345MOL0     H47592   1.763  11.156   2.160 -0.1001 -0.5498 -0.8109
  345MOL0     H47593   1.730  11.155   2.418 -0.8680  0.9682  0.1866
  345MOL0     H47594   0.469  10.448   3.049  0.6661 -0.0264  0.5188
  345MOL0     H47595   0.362  10.235   2.990 -1.4671  1.4322 -0.2102
  345MOL0     H47596   0.245   9.951   2.683 -1.5313  1.5424  1.1890
  345MOL0     H47597   0.068   9.781   2.708 -0.1506 -1.0055 -1.3147
  345MOL0     H47598   0.168   9.431   2.719 -0.0640  0.1150 -0.3895
  345MOL0     H47599   0.047   9.371   2.826  3.6956  0.3664  2.6276
  345MOL0     H47600  -0.034   9.579   2.622  0.4949  0.7090  0.7027
  345MOL0     H47601  -0.137   9.459   2.716 -2.4153 -0.5621 -3.9895
  345MOL0     H47602   0.041   9.398   2.483 -0.2181 -0.3736 -0.9086
  345MOL0     H47603  -0.046   9.278   2.590 -1.3024 -0.6219 -1.1829
  345MOL0     H47604  -0.193   9.496   2.427 -1.5005 -0.1757  0.9641
  345MOL0     H47605  -0.268   9.378   2.521 -0.0055 -1.7587  0.3964
  345MOL0     H47606  -0.261   9.195   2.160  0.5260 -0.4888  1.0820
  345MOL0     H47607   0.312   9.534   2.948 -1.8307 -0.8592 -0.6173
  345MOL0     H47608   0.594   9.757   2.982  2.2816 -3.1170  1.0361
  345MOL0     H47609   0.469   9.725   3.099 -2.6911 -0.9773 -1.1768
  345MOL0     H47610   0.540   9.594   3.009  0.5156 -0.0711  1.3367
  346MOL0     O47611  10.531   8.112   8.447 -0.0957  0.1499  0.1243
  346MOL0     C47612  10.412   8.103   8.427  0.1837 -0.1398  0.2495
  346MOL0     O47613  10.339   7.992   8.419 -1.0268  0.0880  0.5323
  346MOL0     C47614  10.393   7.870   8.440 -0.6933  0.5102 -0.1884
  346MOL0     C47615  10.463   7.839   8.556  0.1436  0.7471 -0.2980
  346MOL0     C47616  10.473   7.710   8.601 -1.5572  0.7392 -0.0721
  346MOL0     C47617  10.429   7.598   8.520  0.0881 -0.6586 -0.5665
  346MOL0     O47618  10.458   7.468   8.558 -0.0363  0.0264  0.2541
  346MOL0     C47619  10.579   7.433   8.638 -0.2958 -0.8878  0.4347
  346MOL0     C47620  10.594   7.275   8.643 -0.5295 -0.0893  0.5563
  346MOL0     C47621  10.615   7.203   8.506 -0.0480 -1.1175  0.5562
  346MOL0     C47622  10.641   7.058   8.529 -0.0144  0.0279  0.9766
  346MOL0     C47623  10.653   6.980   8.390 -0.0582 -0.2766  0.9605
  346MOL0     C47624  10.522   6.985   8.306  0.3135  0.2073 -0.5604
  346MOL0     C47625  10.534   6.878   8.192  0.2943  0.2935  0.3016
  346MOL0     C47626  10.405   6.847   8.110  0.0268  0.8675 -0.4314
  346MOL0     N47627  10.368   6.951   8.016  0.2558  0.6391 -0.5642
  346MOL0     C47628  10.309   7.069   8.062 -0.6756  0.1748  0.4394
  346MOL0     C47629  10.287   7.147   7.950 -0.6475  0.4697 -0.8105
  346MOL0     C47630  10.230   7.290   7.951 -0.3717  0.3864  0.6810
  346MOL0     C47631  10.339   7.399   7.929 -0.4269 -0.4408  0.3194
  346MOL0     C47632  10.470   7.391   8.019 -0.4510  0.2415  0.5417
  346MOL0     C47633  10.565   7.498   7.989 -0.1595  0.0885  0.3721
  346MOL0     O47634  10.501   7.628   8.027  0.5718  0.6276  0.0939
  346MOL0     C47635  10.587   7.736   8.040 -0.2214  0.5226  0.2825
  346MOL0     C47636  10.731   7.730   8.028  0.6380 -0.0204  0.5694
  346MOL0     C47637  10.819   7.832   8.062  0.8895  0.2593 -0.8246
  346MOL0     C47638  10.964   7.802   8.072  0.3231  0.0504 -0.0505
  346MOL0     C47639  10.757   7.953   8.098  1.0984  0.0489  0.0740
  346MOL0     C47640  10.828   8.076   8.137  0.2752  0.5513 -0.2386
  346MOL0     O47641  10.963   8.078   8.143 -0.6405  0.5062  0.0419
  346MOL0     C47642  11.018   8.175   8.226 -0.5286  0.7315 -0.6969
  346MOL0     C47643  11.030   8.149   8.365 -0.2801  0.9263 -0.5678
  346MOL0     C47644  11.077   8.268   8.439  0.1963 -0.5830  0.8927
  346MOL0     C47645  11.114   8.391   8.366  0.1643  0.2025 -1.0117
  346MOL0     O47646  11.174   8.493   8.442 -0.0082  0.7822 -0.6174
  346MOL0     C47647  11.142   8.500   8.587  0.2659 -0.1246 -0.4734
  346MOL0     C47648  11.169   8.636   8.654  0.5797 -0.0588 -0.3840
  346MOL0     C47649  11.143   8.661   8.805 -0.2547 -0.2343  0.3520
  346MOL0     C47650  11.242   8.598   8.889  1.0522  0.6474 -0.2961
  346MOL0     C47651  11.241   8.654   9.025 -0.7537  0.1137  0.4382
  346MOL0     C47652  11.107   8.666   9.102 -0.3548 -0.2267 -1.1565
  346MOL0     C47653  11.124   8.719   9.250 -0.0065 -0.4306 -0.0874
  346MOL0     C47654  11.173   8.606   9.334 -0.2703  0.5467 -0.0013
  346MOL0    Cl47655  11.152   8.658   9.500  0.2296  0.1316 -0.3010
  346MOL0     C47656  11.110   8.398   8.238  0.3229  0.5233  0.5778
  346MOL0     C47657  11.063   8.295   8.163  0.3127 -0.9738  0.2880
  346MOL0     O47658  10.753   8.168   8.178  0.1451 -0.3372  0.8013
  346MOL0     C47659  10.612   7.961   8.102 -0.7591 -0.7446 -0.8140
  346MOL0     C47660  10.529   7.855   8.064 -0.4216 -1.2664  0.3634
  346MOL0     N47661  10.346   7.071   7.844  0.0421  0.3283 -0.2575
  346MOL0     N47662  10.386   6.959   7.882  0.6970  0.4437  0.3861
  346MOL0     C47663  10.375   7.629   8.393  1.4606  0.2877  0.1847
  346MOL0     C47664  10.348   7.768   8.352  0.3991  1.2273  0.2241
  346MOL0     C47665  10.338   8.227   8.404  0.4856 -0.1216 -0.0356
  346MOL0     C47666  10.200   8.228   8.408  0.4644 -0.1368 -0.0364
  346MOL0     C47667  10.131   8.352   8.408 -0.2265  0.1566 -1.1141
  346MOL0     C47668  10.193   8.472   8.416  0.0993 -0.1771  0.2225
  346MOL0     O47669  10.126   8.590   8.441  0.4481  0.3484 -0.6929
  346MOL0     C47670  10.076   8.589   8.577  0.4038 -0.1288  0.3120
  346MOL0     C47671  10.093   8.713   8.657  0.0101 -1.3913 -0.6792
  346MOL0     C47672  10.030   8.841   8.582  0.5022  0.2857  0.0707
  346MOL0     C47673   9.937   8.917   8.669  0.3240  0.0981  0.4715
  346MOL0     C47674   9.879   9.036   8.604  0.2878  1.1578 -0.3902
  346MOL0     C47675   9.838   9.121   8.535 -0.3483 -0.2810 -0.8227
  346MOL0     C47676  10.333   8.479   8.400  0.0500 -1.0472 -0.1326
  346MOL0     C47677  10.403   8.353   8.394 -0.2102 -1.5497 -0.6223
  346MOL0     C47678  10.561   8.368   8.399  0.7523 -0.4364  0.3195
  346MOL0     H47679  10.489   7.916   8.628 -3.1266 -0.8929  2.9501
  346MOL0     H47680  10.519   7.672   8.692 -3.9309 -3.0360 -0.2485
  346MOL0     H47681  10.571   7.472   8.739  1.3428  0.9742 -0.0924
  346MOL0     H47682  10.665   7.478   8.586 -0.1065  0.3025  1.7181
  346MOL0     H47683  10.670   7.236   8.711 -4.0039 -0.3745  4.6677
  346MOL0     H47684  10.500   7.237   8.683  0.3596 -2.4851  0.5321
  346MOL0     H47685  10.528   7.223   8.442  1.0511 -0.6891 -0.8595
  346MOL0     H47686  10.692   7.262   8.456  2.2973 -0.2975  4.7275
  346MOL0     H47687  10.732   7.041   8.588  0.4141  0.4441  0.4477
  346MOL0     H47688  10.555   7.015   8.582  0.7414 -1.5374  1.0032
  346MOL0     H47689  10.687   6.878   8.409  0.1251 -1.0144 -2.5313
  346MOL0     H47690  10.732   7.028   8.331 -2.1996  0.1115 -1.8272
  346MOL0     H47691  10.428   6.980   8.361  0.5032  3.4311  0.2212
  346MOL0     H47692  10.528   7.080   8.252 -1.7321 -0.0261 -1.2655
  346MOL0     H47693  10.572   6.787   8.241 -2.0786 -0.2972  1.2277
  346MOL0     H47694  10.625   6.902   8.137 -0.6774  0.6632 -1.2175
  346MOL0     H47695  10.429   6.754   8.058  1.9990  0.3906  1.1740
  346MOL0     H47696  10.323   6.823   8.179 -0.0241 -0.6712 -1.0035
  346MOL0     H47697  10.285   7.100   8.163 -1.4436 -1.9190  0.9341
  346MOL0     H47698  10.185   7.305   8.050  0.9671  0.1708  1.3539
  346MOL0     H47699  10.148   7.292   7.879 -1.8302 -2.9600  2.0170
  346MOL0     H47700  10.381   7.391   7.828  2.9918  1.7905  1.4230
  346MOL0     H47701  10.295   7.497   7.949 -2.2010 -1.6938  3.0601
  346MOL0     H47702  10.444   7.398   8.125 -0.6058 -0.2027  0.5340
  346MOL0     H47703  10.520   7.295   8.002  0.1796  0.6637 -0.0249
  346MOL0     H47704  10.653   7.478   8.051 -1.9086 -3.2203  2.0940
  346MOL0     H47705  10.607   7.493   7.889  0.4418 -2.3768  0.6972
  346MOL0     H47706  10.776   7.634   8.003  2.2159  0.5483  1.1194
  346MOL0     H47707  11.027   7.866   8.010  0.7982  1.0379  1.3791
  346MOL0     H47708  10.999   7.700   8.057  1.2985  0.2762  0.5348
  346MOL0     H47709  10.980   7.828   8.178 -1.2627  2.8125 -0.3892
  346MOL0     H47710  10.997   8.053   8.403  1.2733 -0.8012 -3.2949
  346MOL0     H47711  11.087   8.248   8.546 -0.9714 -2.1033  0.7472
  346MOL0     H47712  11.038   8.470   8.599  0.2983 -0.9761 -2.0925
  346MOL0     H47713  11.205   8.426   8.637  1.2995  1.3498  0.5045
  346MOL0     H47714  11.269   8.671   8.626  0.6841 -1.5322 -1.9958
  346MOL0     H47715  11.094   8.703   8.611  0.9299  0.7227  0.1918
  346MOL0     H47716  11.042   8.623   8.824 -0.2897 -0.3535 -0.0541
  346MOL0     H47717  11.143   8.768   8.829  0.6923 -0.1579  0.0444
  346MOL0     H47718  11.341   8.603   8.843  0.5592 -0.2878 -1.5248
  346MOL0     H47719  11.208   8.494   8.883 -1.4913  1.0631  3.3626
  346MOL0     H47720  11.304   8.580   9.076  1.4734 -0.2103 -2.4859
  346MOL0     H47721  11.298   8.748   9.026 -2.1484  1.0253 -0.9649
  346MOL0     H47722  11.050   8.573   9.108  1.3562 -1.2194  2.0893
  346MOL0     H47723  11.040   8.734   9.050 -0.0158  0.9083 -0.1561
  346MOL0     H47724  11.022   8.742   9.281  0.3703  0.4548  0.5406
  346MOL0     H47725  11.180   8.812   9.264  0.3012 -0.6259 -0.0111
  346MOL0     H47726  11.271   8.563   9.312 -0.3226 -0.5016  1.6650
  346MOL0     H47727  11.100   8.525   9.321 -0.9390  1.5465 -3.5624
  346MOL0     H47728  11.155   8.481   8.184  1.0094 -1.7989 -2.6665
  346MOL0     H47729  11.067   8.295   8.054  0.0526 -1.4142  0.2754
  346MOL0     H47730  10.559   8.050   8.136 -3.0777 -2.0803 -0.7152
  346MOL0     H47731  10.422   7.875   8.075 -0.6151 -2.0777  0.0007
  346MOL0     H47732  10.347   7.549   8.325 -1.0795  1.9311 -0.8453
  346MOL0     H47733  10.298   7.790   8.258 -1.3436  0.9118  1.0370
  346MOL0     H47734  10.146   8.134   8.421 -0.2724  0.5674  2.4915
  346MOL0     H47735  10.024   8.353   8.425  0.2984 -0.4734  3.5827
  346MOL0     H47736   9.968   8.578   8.584  0.5526 -0.3453  3.9732
  346MOL0     H47737  10.117   8.504   8.632 -1.0820 -1.9277 -1.2192
  346MOL0     H47738  10.196   8.733   8.686 -0.7660 -1.2437  2.2177
  346MOL0     H47739  10.027   8.703   8.743  1.7506 -1.1016  0.7273
  346MOL0     H47740  10.110   8.912   8.562  0.7730  0.0848  0.4284
  346MOL0     H47741   9.976   8.816   8.490  0.7642 -1.0520  0.2465
  346MOL0     H47742   9.991   8.944   8.761  1.4742 -0.1367 -0.1241
  346MOL0     H47743   9.852   8.859   8.707 -1.5189  2.6500  0.4904
  346MOL0     H47744   9.808   9.186   8.455 -1.2618  0.6641  0.2372
  346MOL0     H47745  10.376   8.578   8.400 -3.2317  0.5272  0.5831
  346MOL0     H47746  10.614   8.309   8.324  1.3615  0.0706  0.3464
  346MOL0     H47747  10.587   8.472   8.378  3.2622 -0.6969  1.6392
  346MOL0     H47748  10.597   8.347   8.501 -0.0953  0.3414  0.7933
  347MOL0     O47749   9.389   8.111  11.566 -0.8623  0.6620 -0.6522
  347MOL0     C47750   9.289   8.070  11.616  0.7759 -0.1344  0.5457
  347MOL0     O47751   9.175   8.027  11.548 -0.4173  0.0751 -0.9216
  347MOL0     C47752   9.178   8.073  11.419 -0.0137 -0.4569 -0.3285
  347MOL0     C47753   9.261   8.003  11.332  0.2634  0.6888 -0.3792
  347MOL0     C47754   9.264   8.043  11.193  0.4467  0.1873 -0.2972
  347MOL0     C47755   9.176   8.141  11.148 -0.5379  0.0471 -0.8827
  347MOL0     O47756   9.172   8.184  11.020 -0.2106  1.2722 -0.0063
  347MOL0     C47757   9.124   8.099  10.917 -0.8041 -0.2886  0.4314
  347MOL0     C47758   9.069   8.184  10.799 -0.8114  0.3944  0.6935
  347MOL0     C47759   9.062   8.103  10.666 -0.5958  0.1934  0.3529
  347MOL0     C47760   8.951   8.150  10.581  0.7334  1.2255  0.8256
  347MOL0     C47761   8.949   8.071  10.446 -0.2857  0.0694 -0.7562
  347MOL0     C47762   8.828   8.085  10.355  0.3203 -1.0324  1.0269
  347MOL0     C47763   8.821   8.235  10.294 -0.2608  0.2829  0.6854
  347MOL0     C47764   8.708   8.249  10.192  0.0422 -0.1934 -0.4474
  347MOL0     N47765   8.581   8.256  10.252  0.0504  0.3397 -0.3767
  347MOL0     C47766   8.505   8.155  10.298  0.1493 -0.1024 -0.1052
  347MOL0     C47767   8.383   8.211  10.315  0.3758 -0.0476  0.2532
  347MOL0     C47768   8.255   8.140  10.343 -0.8359  0.6758  0.3578
  347MOL0     C47769   8.183   8.191  10.462 -0.2977  0.3339  0.8476
  347MOL0     C47770   8.247   8.144  10.592  1.3429 -1.4001  0.5033
  347MOL0     C47771   8.172   8.029  10.662  0.2106  0.8138  0.0469
  347MOL0     O47772   8.206   7.906  10.595  0.0423 -0.0360  0.2388
  347MOL0     C47773   8.098   7.831  10.548  0.7146  0.5284  0.1835
  347MOL0     C47774   7.971   7.875  10.513 -0.2186  0.3758  0.2194
  347MOL0     C47775   7.873   7.777  10.469  0.0930 -0.3241  0.7866
  347MOL0     C47776   7.739   7.831  10.437 -1.1053  0.1432  0.0000
  347MOL0     C47777   7.909   7.646  10.462 -0.6296  0.7462  0.6521
  347MOL0     C47778   7.813   7.536  10.429  0.5023  0.8942  0.0449
  347MOL0     O47779   7.868   7.409  10.419  0.5191  0.0103  0.5756
  347MOL0     C47780   7.787   7.295  10.424  1.0744 -0.4306  0.0380
  347MOL0     C47781   7.829   7.179  10.354  0.3278  0.1680  0.5518
  347MOL0     C47782   7.758   7.061  10.347 -0.5473  0.3506  1.0960
  347MOL0     C47783   7.652   7.040  10.428 -0.2179 -0.0626 -0.0974
  347MOL0     O47784   7.601   6.907  10.440 -0.1821 -0.1730  0.3564
  347MOL0     C47785   7.466   6.875  10.482  0.4692 -0.1798 -0.1398
  347MOL0     C47786   7.373   6.877  10.361  0.5585 -0.0595 -0.2076
  347MOL0     C47787   7.328   7.005  10.292 -0.0178  0.8858  0.7111
  347MOL0     C47788   7.171   7.011  10.287 -0.7835 -0.3465  0.4008
  347MOL0     C47789   7.117   7.073  10.416 -0.1118  0.4896  0.0751
  347MOL0     C47790   6.973   7.030  10.456  0.3953  0.0135 -0.3669
  347MOL0     C47791   6.862   7.101  10.376  0.0543 -0.3295  1.0658
  347MOL0     C47792   6.732   7.118  10.449 -0.3371  0.1900 -0.4120
  347MOL0    Cl47793   6.647   6.969  10.436 -0.3080 -0.0321  0.0426
  347MOL0     C47794   7.596   7.151  10.488 -0.0533  0.0614  0.9294
  347MOL0     C47795   7.656   7.282  10.485  0.7034 -0.6513  0.2070
  347MOL0     O47796   7.694   7.558  10.445 -0.3986 -0.5389  0.3554
  347MOL0     C47797   8.043   7.604  10.488  0.2685 -0.4907  0.7533
  347MOL0     C47798   8.135   7.699  10.537  0.3146 -0.6384 -0.4594
  347MOL0     N47799   8.396   8.347  10.282  1.1480 -0.9412  0.1898
  347MOL0     N47800   8.515   8.372  10.245 -0.4954 -0.9564 -0.0170
  347MOL0     C47801   9.104   8.217  11.243 -1.1447  0.9317  0.5331
  347MOL0     C47802   9.106   8.181  11.372 -0.0862  0.3259 -0.0086
  347MOL0     C47803   9.271   8.056  11.767  1.3031  0.4820 -0.3476
  347MOL0     C47804   9.160   7.981  11.819 -0.1753 -1.1089  0.0999
  347MOL0     C47805   9.149   7.948  11.952 -0.5572  0.5856 -0.2299
  347MOL0     C47806   9.251   7.995  12.044  0.4900  0.3507 -0.2398
  347MOL0     O47807   9.221   7.969  12.178  0.5422 -0.2904  0.1416
  347MOL0     C47808   9.303   8.026  12.285 -0.0607  0.2044 -0.7592
  347MOL0     C47809   9.229   7.998  12.412  0.1760  0.5789 -0.2224
  347MOL0     C47810   9.122   8.103  12.448 -0.4298  0.2788  0.1029
  347MOL0     C47811   9.043   8.062  12.578  0.7191 -0.7796  0.4904
  347MOL0     C47812   8.968   7.932  12.560 -1.0658 -0.0491  0.6424
  347MOL0     C47813   8.910   7.825  12.544  0.3732 -1.1887  1.1348
  347MOL0     C47814   9.354   8.069  12.000 -0.4151 -0.1426  0.3302
  347MOL0     C47815   9.371   8.099  11.868  0.0129  0.4308  0.7779
  347MOL0     C47816   9.503   8.162  11.825  0.2671  0.7457 -0.9012
  347MOL0     H47817   9.327   7.934  11.384 -2.1557 -0.8696  0.7810
  347MOL0     H47818   9.332   7.998  11.121  2.1528  1.1655  0.6214
  347MOL0     H47819   9.055   8.025  10.960  0.3438 -0.8339  1.4028
  347MOL0     H47820   9.209   8.037  10.887 -0.1562  1.2386 -1.0432
  347MOL0     H47821   8.973   8.225  10.831 -0.6280 -0.3632  2.3371
  347MOL0     H47822   9.147   8.256  10.771 -0.6138  1.0345  2.7343
  347MOL0     H47823   9.158   8.094  10.614 -0.1581 -1.1928  1.3518
  347MOL0     H47824   9.039   8.003  10.704  1.1625 -0.0297  0.9009
  347MOL0     H47825   8.855   8.136  10.632  0.2085  2.1529  0.1416
  347MOL0     H47826   8.966   8.258  10.567  0.0331  1.2362  0.1094
  347MOL0     H47827   8.944   7.962  10.458 -0.3013 -0.3986 -4.1679
  347MOL0     H47828   9.036   8.096  10.386  0.2411 -2.7678 -1.3237
  347MOL0     H47829   8.839   8.012  10.274  1.3806 -2.1441  2.1280
  347MOL0     H47830   8.746   8.060  10.422  0.3811 -0.4999  1.3064
  347MOL0     H47831   8.908   8.256  10.231 -0.7375  0.6114  0.1321
  347MOL0     H47832   8.809   8.305  10.378  1.3993 -2.6373  3.6061
  347MOL0     H47833   8.720   8.330  10.120  0.2206  2.3217  2.1983
  347MOL0     H47834   8.704   8.151  10.144 -1.5841 -2.0190  3.0392
  347MOL0     H47835   8.522   8.047  10.302 -0.8773 -0.2914  4.6365
  347MOL0     H47836   8.276   8.033  10.335  0.6317  0.9054  0.8539
  347MOL0     H47837   8.198   8.166  10.253  2.3726 -0.4221 -2.1920
  347MOL0     H47838   8.173   8.300  10.471 -3.8855 -0.0680  6.2983
  347MOL0     H47839   8.080   8.155  10.456 -0.9908  2.3541 -0.7219
  347MOL0     H47840   8.355   8.130  10.584  1.7714  0.3526  2.3193
  347MOL0     H47841   8.241   8.221  10.670 -0.2451 -0.6912 -0.2639
  347MOL0     H47842   8.214   8.016  10.763  0.0746 -1.0064 -0.0972
  347MOL0     H47843   8.064   8.036  10.677  0.0126 -2.3617  0.8490
  347MOL0     H47844   7.939   7.978  10.525 -0.3139  0.3045  0.5937
  347MOL0     H47845   7.728   7.919  10.501 -0.1157 -0.6741  1.3327
  347MOL0     H47846   7.649   7.777  10.467 -1.9975  1.4990 -0.1491
  347MOL0     H47847   7.738   7.850  10.329 -0.5928 -2.0079 -0.4307
  347MOL0     H47848   7.929   7.200  10.317 -1.0287  3.9473 -1.5019
  347MOL0     H47849   7.812   6.979  10.300  0.3151  0.5731  1.6724
  347MOL0     H47850   7.470   6.778  10.532  3.2853  0.2545  0.6314
  347MOL0     H47851   7.427   6.943  10.558 -0.0369 -0.1041 -0.4660
  347MOL0     H47852   7.442   6.823  10.296  1.0235 -0.1664  0.3602
  347MOL0     H47853   7.278   6.831  10.389  0.3536  1.4271  1.8395
  347MOL0     H47854   7.369   6.997  10.191  2.6627 -0.0570  1.7931
  347MOL0     H47855   7.364   7.092  10.348  2.4429 -0.0733  0.7219
  347MOL0     H47856   7.124   6.913  10.274 -0.7191 -0.3830  0.4490
  347MOL0     H47857   7.142   7.073  10.202 -4.0225 -1.1570  0.7907
  347MOL0     H47858   7.179   7.026  10.492  1.3792 -0.3034 -1.5481
  347MOL0     H47859   7.132   7.181  10.413 -1.4833  0.7468 -3.9169
  347MOL0     H47860   6.957   7.042  10.563 -0.4713 -0.0577 -0.4817
  347MOL0     H47861   6.971   6.925  10.426 -0.5962  0.7090 -3.0319
  347MOL0     H47862   6.843   7.043  10.285 -1.0061 -1.1673  1.7898
  347MOL0     H47863   6.902   7.201  10.357  1.4627 -1.2119 -0.8649
  347MOL0     H47864   6.673   7.193  10.395 -1.8741 -0.8015 -0.1496
  347MOL0     H47865   6.763   7.149  10.549  1.9010 -0.2852 -0.8858
  347MOL0     H47866   7.505   7.143  10.547  2.4871  0.0622  5.3110
  347MOL0     H47867   7.613   7.364  10.541  1.1527  0.4929 -1.0700
  347MOL0     H47868   8.080   7.504  10.474  0.2977  0.0022 -4.2326
  347MOL0     H47869   8.236   7.678  10.572  1.1856  1.9633 -1.2167
  347MOL0     H47870   9.046   8.303  11.212 -2.0232 -0.2507 -1.2985
  347MOL0     H47871   9.034   8.234  11.433 -0.5481  0.8104 -0.9546
  347MOL0     H47872   9.095   7.942  11.742  0.5687  1.2933 -1.8880
  347MOL0     H47873   9.059   7.891  11.976 -0.9234  1.8144  1.4851
  347MOL0     H47874   9.400   7.976  12.287  0.2025  0.7295  0.8027
  347MOL0     H47875   9.304   8.135  12.273 -0.2958  0.4297  1.0187
  347MOL0     H47876   9.297   7.991  12.498 -1.3287 -0.1122  0.9587
  347MOL0     H47877   9.185   7.898  12.406 -1.2130  1.1974 -0.8272
  347MOL0     H47878   9.166   8.202  12.463 -2.2766  1.3910 -1.3636
  347MOL0     H47879   9.053   8.121  12.365 -3.0392  0.5695  2.1982
  347MOL0     H47880   8.980   8.149  12.598  4.0500  1.6867  0.9986
  347MOL0     H47881   9.108   8.056  12.666 -0.4151 -0.1272  1.4001
  347MOL0     H47882   8.873   7.726  12.530 -0.5581 -0.8846  1.3782
  347MOL0     H47883   9.416   8.114  12.076 -2.8043 -1.9460  3.6250
  347MOL0     H47884   9.484   8.250  11.763  1.1330  1.6399  0.0664
  347MOL0     H47885   9.556   8.190  11.916 -1.9673  3.3824 -0.2716
  347MOL0     H47886   9.566   8.095  11.767  0.3580 -2.0332  2.1424
  348MOL0     O47887   0.923   3.783   6.659  0.7749  1.0153  0.1938
  348MOL0     C47888   0.991   3.882   6.693  0.7530  0.1001 -0.2850
  348MOL0     O47889   1.095   3.938   6.636 -0.3315  0.5748  0.1571
  348MOL0     C47890   1.125   3.918   6.500  0.7066 -0.1136 -0.0000
  348MOL0     C47891   1.250   3.958   6.460 -0.1501  0.3803  0.7807
  348MOL0     C47892   1.300   3.945   6.322  0.8012 -0.4626 -0.6627
  348MOL0     C47893   1.207   3.904   6.227 -0.0024 -0.3927  0.1209
  348MOL0     O47894   1.247   3.902   6.099 -0.9667 -0.4339 -0.4991
  348MOL0     C47895   1.367   3.968   6.055 -0.0363 -0.1118  0.5593
  348MOL0     C47896   1.368   3.961   5.908  0.5326 -0.1712  1.1791
  348MOL0     C47897   1.250   4.041   5.841 -0.2487 -0.3847 -0.4612
  348MOL0     C47898   1.291   4.184   5.799 -0.6356 -0.1639  0.4312
  348MOL0     C47899   1.164   4.275   5.787  0.7185 -0.8995 -0.0678
  348MOL0     C47900   1.048   4.226   5.690  0.7301 -0.1822  0.1714
  348MOL0     C47901   1.075   4.201   5.539 -0.5206 -0.1841 -1.2725
  348MOL0     C47902   1.117   4.337   5.479  0.1696  0.3350 -0.4905
  348MOL0     N47903   1.116   4.327   5.330  0.2066 -0.2009 -0.3076
  348MOL0     C47904   1.206   4.243   5.270 -0.5943  0.3732 -0.2302
  348MOL0     C47905   1.164   4.228   5.134 -0.1514 -0.1913 -0.8032
  348MOL0     C47906   1.224   4.146   5.031 -0.1650  0.6589  0.1158
  348MOL0     C47907   1.273   4.225   4.910 -0.6548 -0.1623 -0.2477
  348MOL0     C47908   1.399   4.307   4.952  0.3547 -0.0099  0.7708
  348MOL0     C47909   1.451   4.406   4.836  0.1137 -0.4143  0.9499
  348MOL0     O47910   1.587   4.432   4.843 -0.5425  0.3194 -0.1144
  348MOL0     C47911   1.646   4.476   4.722 -0.7467  0.3586 -0.6174
  348MOL0     C47912   1.584   4.520   4.608  0.1347  0.1235 -0.3394
  348MOL0     C47913   1.647   4.539   4.488  0.1893  0.2267 -0.3344
  348MOL0     C47914   1.567   4.570   4.367  0.1880 -0.4269  0.0646
  348MOL0     C47915   1.788   4.524   4.480 -0.4401  0.2180  0.4931
  348MOL0     C47916   1.873   4.532   4.368 -0.1290  0.1153  1.0024
  348MOL0     O47917   1.854   4.641   4.287  0.2649 -0.0768 -0.0223
  348MOL0     C47918   1.904   4.641   4.156 -0.8677  0.4647 -0.2309
  348MOL0     C47919   1.826   4.606   4.048 -1.0384 -0.0029  0.0710
  348MOL0     C47920   1.880   4.594   3.917  0.1268  0.1314 -0.3451
  348MOL0     C47921   2.018   4.619   3.886 -0.2869 -0.8787  1.0807
  348MOL0     O47922   2.065   4.618   3.754 -0.2979 -0.0523  0.0754
  348MOL0     C47923   1.979   4.651   3.644 -0.1463  0.2506  0.2436
  348MOL0     C47924   1.896   4.775   3.646  0.4180 -0.5958  0.0788
  348MOL0     C47925   1.982   4.898   3.684 -0.2243 -0.3451 -0.3199
  348MOL0     C47926   2.100   4.927   3.596 -1.3199  0.5923 -1.1257
  348MOL0     C47927   2.168   5.062   3.593 -0.1678 -1.2372 -0.1344
  348MOL0     C47928   2.167   5.131   3.456  0.3508 -0.7414 -0.6272
  348MOL0     C47929   2.244   5.264   3.456 -0.6914  0.0729 -0.1299
  348MOL0     C47930   2.395   5.264   3.440  0.2027  0.6028  0.0756
  348MOL0    Cl47931   2.427   5.199   3.283  0.0714 -0.2787 -0.6571
  348MOL0     C47932   2.098   4.650   3.994  0.2630  0.5229 -0.5591
  348MOL0     C47933   2.040   4.656   4.121  0.9228  0.9621  0.6804
  348MOL0     O47934   1.950   4.436   4.343  0.5037  0.2435 -0.0565
  348MOL0     C47935   1.854   4.497   4.598 -0.4313 -0.6087  0.3690
  348MOL0     C47936   1.788   4.484   4.718  0.9977  0.1345 -1.1914
  348MOL0     N47937   1.047   4.306   5.122 -0.3908 -0.4759 -0.5510
  348MOL0     N47938   1.029   4.361   5.232 -1.3050 -0.6620 -0.6350
  348MOL0     C47939   1.081   3.867   6.266 -0.2944  0.2894 -0.5818
  348MOL0     C47940   1.038   3.874   6.397  0.2754 -0.1209  0.6463
  348MOL0     C47941   0.964   3.930   6.836  1.1034 -0.1638 -0.2543
  348MOL0     C47942   0.946   3.834   6.936 -0.2584 -0.5338 -0.1252
  348MOL0     C47943   0.940   3.864   7.069 -0.6747 -0.0144  0.8157
  348MOL0     C47944   0.949   3.999   7.099  0.1444 -0.5005  0.6483
  348MOL0     O47945   0.938   4.020   7.238  0.0883  0.9920 -0.0449
  348MOL0     C47946   0.986   4.143   7.292  0.5854 -0.4092  0.9804
  348MOL0     C47947   0.871   4.244   7.315 -0.2312  0.4062 -0.4384
  348MOL0     C47948   0.945   4.381   7.337 -0.3767  0.4229  0.8486
  348MOL0     C47949   0.858   4.493   7.374  0.1202 -0.6319  0.7847
  348MOL0     C47950   0.815   4.510   7.513 -0.1911 -0.4659 -0.3067
  348MOL0     C47951   0.805   4.513   7.635 -0.1755 -0.4335 -0.7491
  348MOL0     C47952   0.958   4.095   7.001 -0.4772 -0.0225 -0.5656
  348MOL0     C47953   0.967   4.064   6.871 -0.1867 -1.2244  1.1446
  348MOL0     C47954   0.987   4.161   6.762  0.2439  0.2881  0.3875
  348MOL0     H47955   1.321   3.981   6.539  1.0035  0.4810 -0.2640
  348MOL0     H47956   1.399   3.988   6.320  1.8122 -2.3549  2.4035
  348MOL0     H47957   1.463   3.924   6.084  0.3739 -1.5789 -2.6314
  348MOL0     H47958   1.374   4.070   6.093  0.0801  0.6947 -1.5169
  348MOL0     H47959   1.461   4.001   5.867 -0.1641  0.2980 -0.0058
  348MOL0     H47960   1.364   3.861   5.865 -0.0752  0.0789  0.6285
  348MOL0     H47961   1.227   3.988   5.748  1.5370 -2.2387  0.0734
  348MOL0     H47962   1.161   4.045   5.905 -1.4102  3.0550 -1.9981
  348MOL0     H47963   1.346   4.210   5.889  1.2555 -0.3665 -0.6109
  348MOL0     H47964   1.359   4.179   5.713  0.3307 -0.2104  1.1759
  348MOL0     H47965   1.191   4.377   5.757  0.6908 -0.9454 -0.2526
  348MOL0     H47966   1.116   4.287   5.884 -2.0416  0.8374 -1.5288
  348MOL0     H47967   1.018   4.130   5.734  0.1640  0.0278  0.2403
  348MOL0     H47968   0.967   4.299   5.690  0.1834 -0.7353 -1.6650
  348MOL0     H47969   0.982   4.161   5.497 -0.7373  0.6915 -1.6543
  348MOL0     H47970   1.153   4.128   5.520 -0.9519 -1.2059  0.6074
  348MOL0     H47971   1.043   4.413   5.504 -0.8807 -1.2135  1.4462
  348MOL0     H47972   1.219   4.360   5.511  0.5404 -0.9328 -0.6933
  348MOL0     H47973   1.297   4.203   5.312  0.1856  1.9584 -0.3435
  348MOL0     H47974   1.151   4.071   4.999  0.7291  0.3581 -1.2770
  348MOL0     H47975   1.311   4.095   5.074 -0.0387 -0.0718 -0.9877
  348MOL0     H47976   1.300   4.160   4.826  2.1408  2.2797 -1.4660
  348MOL0     H47977   1.192   4.292   4.880 -0.6670  0.2628  0.7051
  348MOL0     H47978   1.364   4.357   5.042  0.2279 -0.8877  1.2122
  348MOL0     H47979   1.491   4.249   4.967  0.3834  0.5215  2.9915
  348MOL0     H47980   1.428   4.369   4.736 -0.2052  0.9480  0.5035
  348MOL0     H47981   1.394   4.496   4.857  0.7089  0.2944 -0.4027
  348MOL0     H47982   1.475   4.523   4.601  0.1325  0.7498 -0.1061
  348MOL0     H47983   1.616   4.532   4.277  6.4590  1.3327  2.1663
  348MOL0     H47984   1.553   4.677   4.351 -0.5906 -0.5123  0.1228
  348MOL0     H47985   1.465   4.531   4.372 -1.7245  4.0948  1.6090
  348MOL0     H47986   1.725   4.569   4.060 -0.4015 -0.9539  4.1164
  348MOL0     H47987   1.803   4.574   3.843  1.0225 -1.2143 -0.9508
  348MOL0     H47988   2.034   4.636   3.550 -0.7111 -0.0284 -0.0496
  348MOL0     H47989   1.911   4.566   3.637  0.3686 -0.3965  2.3472
  348MOL0     H47990   1.847   4.781   3.548 -2.1253 -0.5241  1.2687
  348MOL0     H47991   1.810   4.764   3.713 -0.4616  0.8635 -0.7581
  348MOL0     H47992   2.013   4.879   3.787 -1.3356  1.1156  0.3273
  348MOL0     H47993   1.930   4.993   3.673  2.5661  1.1027 -2.4010
  348MOL0     H47994   2.079   4.908   3.490  1.0046 -0.0150 -1.5342
  348MOL0     H47995   2.174   4.850   3.619 -0.5239  0.6250 -3.3047
  348MOL0     H47996   2.128   5.134   3.664 -1.6073 -0.8926 -1.2570
  348MOL0     H47997   2.275   5.049   3.615  0.7210  2.9516 -1.0219
  348MOL0     H47998   2.062   5.157   3.443  0.2186 -0.8421  0.1702
  348MOL0     H47999   2.199   5.063   3.377  4.1009 -2.6412  2.1860
  348MOL0     H48000   2.217   5.316   3.549  2.0486  1.7809 -0.1640
  348MOL0     H48001   2.201   5.323   3.375 -1.5372 -3.2496 -2.2878
  348MOL0     H48002   2.448   5.211   3.519  0.2379  0.7790  0.1723
  348MOL0     H48003   2.442   5.361   3.459  2.7705 -0.0894 -2.1262
  348MOL0     H48004   2.205   4.666   3.987  1.4635 -2.4803  4.9666
  348MOL0     H48005   2.107   4.689   4.200 -0.5422  0.9902  1.9626
  348MOL0     H48006   1.962   4.488   4.592 -0.2938  1.1698 -0.2763
  348MOL0     H48007   1.847   4.469   4.808 -0.4833 -0.1281 -0.2293
  348MOL0     H48008   1.013   3.822   6.193  1.0964  0.2627 -1.9234
  348MOL0     H48009   0.935   3.853   6.427  1.0509 -0.5039  3.3765
  348MOL0     H48010   0.954   3.730   6.906  0.2766 -1.0757  1.7304
  348MOL0     H48011   0.917   3.802   7.155 -0.0735  0.0921  1.0569
  348MOL0     H48012   1.035   4.123   7.387  0.1192  1.0416  1.5494
  348MOL0     H48013   1.056   4.196   7.226 -1.8695 -0.6118 -2.0302
  348MOL0     H48014   0.825   4.221   7.412  1.4077  0.5743  0.4202
  348MOL0     H48015   0.790   4.246   7.241  0.0384 -2.5831 -0.9371
  348MOL0     H48016   1.018   4.368   7.418 -0.7971  2.0942  1.5368
  348MOL0     H48017   1.008   4.418   7.255 -1.5373 -0.7735 -0.6392
  348MOL0     H48018   0.764   4.492   7.318  0.7293  2.6989 -0.5253
  348MOL0     H48019   0.898   4.588   7.336  0.5399 -1.0544  0.1324
  348MOL0     H48020   0.786   4.530   7.739 -0.9413 -3.6807 -0.2573
  348MOL0     H48021   0.958   4.198   7.037  0.2968 -0.1218 -0.2750
  348MOL0     H48022   1.084   4.160   6.712  1.3155 -0.0146  2.3620
  348MOL0     H48023   0.904   4.135   6.696  1.1489 -1.5027 -0.1302
  348MOL0     H48024   0.974   4.259   6.809  4.2394  0.0157  2.5005
  349MOL0     O48025  10.746   4.453   1.450 -0.6170  0.4832 -0.0066
  349MOL0     C48026  10.701   4.505   1.350 -0.0806  0.4671  0.9851
  349MOL0     O48027  10.750   4.492   1.230 -0.0219 -0.5850 -0.0967
  349MOL0     C48028  10.876   4.442   1.201 -0.1828 -0.0100  0.3492
  349MOL0     C48029  10.932   4.328   1.252  0.1001  0.5029 -0.3138
  349MOL0     C48030  11.063   4.280   1.207  0.0672 -0.5839 -0.3746
  349MOL0     C48031  11.123   4.337   1.100  0.0375 -0.1233  0.6043
  349MOL0     O48032  11.242   4.297   1.051  1.0266  0.3392 -0.2487
  349MOL0     C48033  11.293   4.164   1.084  0.2597  0.3909  0.5613
  349MOL0     C48034  11.430   4.145   1.046 -0.9277  0.5594 -0.1273
  349MOL0     C48035  11.518   4.245   1.110 -0.2880 -0.0638 -0.4777
  349MOL0     C48036  11.672   4.204   1.078  0.2042  0.3384 -0.2658
  349MOL0     C48037  11.769   4.312   1.141  0.2866 -0.4979  0.6679
  349MOL0     C48038  11.916   4.272   1.122 -0.3469 -0.9201  0.8741
  349MOL0     C48039  11.980   4.316   0.978 -0.2795 -0.3856  0.6601
  349MOL0     C48040  12.132   4.294   0.967 -0.4245  0.2161  0.6505
  349MOL0     N48041  12.161   4.148   0.958 -0.0488 -0.6570 -0.6977
  349MOL0     C48042  12.209   4.081   0.839  0.3328 -0.4586 -0.3693
  349MOL0     C48043  12.213   3.947   0.873 -0.4303 -1.1981 -0.0608
  349MOL0     C48044  12.259   3.836   0.781 -0.0227 -0.4331 -0.4422
  349MOL0     C48045  12.188   3.848   0.650 -0.6915  1.0789 -0.0130
  349MOL0     C48046  12.265   3.770   0.537  0.3654  0.5553  0.5247
  349MOL0     C48047  12.319   3.628   0.573  0.4921 -0.9267 -0.2289
  349MOL0     O48048  12.359   3.552   0.458 -0.6995  0.3756 -0.0866
  349MOL0     C48049  12.267   3.464   0.405 -0.9294 -0.2528 -0.2210
  349MOL0     C48050  12.134   3.456   0.434  1.6142  0.6353 -0.4587
  349MOL0     C48051  12.053   3.339   0.398  0.4008 -1.2807  0.1973
  349MOL0     C48052  11.900   3.360   0.425  0.1805  0.2601 -0.3476
  349MOL0     C48053  12.109   3.234   0.324  0.3224  0.1992 -0.4193
  349MOL0     C48054  12.028   3.119   0.263  0.0488  0.6105 -0.6660
  349MOL0     O48055  12.091   3.043   0.164  0.0517  0.6282 -0.8861
  349MOL0     C48056  12.034   2.927   0.116 -0.2632 -0.7110 -0.3911
  349MOL0     C48057  12.031   2.818   0.199 -0.9314 -0.8499 -0.0092
  349MOL0     C48058  11.963   2.705   0.161 -1.1747  1.2783 -0.0539
  349MOL0     C48059  11.886   2.703   0.036  0.0212 -0.6602  0.0082
  349MOL0     O48060  11.817   2.602  -0.023 -0.3855  0.3210 -0.3194
  349MOL0     C48061  11.785   2.491   0.060  0.4344  0.7240  0.0253
  349MOL0     C48062  11.696   2.390  -0.015 -0.2693  0.1679  0.4439
  349MOL0     C48063  11.657   2.281   0.086 -0.1998  0.0993  0.5116
  349MOL0     C48064  11.574   2.171   0.010 -0.5689  1.3177  0.0648
  349MOL0     C48065  11.475   2.093   0.097 -0.8302 -0.9391 -0.2741
  349MOL0     C48066  11.545   1.998   0.193 -0.0278 -0.5434 -0.2517
  349MOL0     C48067  11.455   1.951   0.316  0.2491  0.5477 -0.4612
  349MOL0     C48068  11.531   1.853   0.409 -0.2117  0.0867  0.3858
  349MOL0    Cl48069  11.606   1.925   0.543  0.1063 -0.5084  0.2158
  349MOL0     C48070  11.900   2.811  -0.045 -0.1338  0.5657  0.6049
  349MOL0     C48071  11.977   2.920  -0.012  0.7772 -0.0495 -0.5891
  349MOL0     O48072  11.935   3.081   0.328 -0.1854  0.0051  0.6139
  349MOL0     C48073  12.242   3.237   0.299  0.3853 -0.7467 -0.3780
  349MOL0     C48074  12.320   3.352   0.336 -0.3822  0.7282 -0.1855
  349MOL0     N48075  12.162   3.934   1.000 -0.0043 -0.6296 -0.7301
  349MOL0     N48076  12.125   4.050   1.045  0.1758  0.2515 -0.4139
  349MOL0     C48077  11.065   4.453   1.047 -0.3710  0.4061 -0.8675
  349MOL0     C48078  10.942   4.505   1.095  1.2926 -0.4780  0.2433
  349MOL0     C48079  10.603   4.616   1.362  0.5027 -0.6531  0.0767
  349MOL0     C48080  10.609   4.725   1.268  0.1546  0.7566  0.6548
  349MOL0     C48081  10.522   4.827   1.267  0.2409 -0.6443  0.7911
  349MOL0     C48082  10.425   4.832   1.366 -0.0164 -0.4231 -0.0235
  349MOL0     O48083  10.332   4.940   1.365  0.9446  0.4511 -0.4663
  349MOL0     C48084  10.383   5.077   1.368  0.6687  0.9100 -0.7978
  349MOL0     C48085  10.299   5.169   1.467 -0.1034 -0.7155  0.2285
  349MOL0     C48086  10.333   5.141   1.616 -0.1111  0.2468 -0.5768
  349MOL0     C48087  10.238   5.232   1.702 -0.5831 -1.0024  0.5230
  349MOL0     C48088  10.292   5.252   1.835  0.1770 -0.1410  0.3707
  349MOL0     C48089  10.344   5.256   1.944  0.4392  0.2058 -0.1097
  349MOL0     C48090  10.413   4.727   1.459 -0.5698  0.3152  0.3210
  349MOL0     C48091  10.501   4.624   1.463  0.5360  0.6961  0.6913
  349MOL0     C48092  10.501   4.517   1.565 -0.3892  0.8141 -0.3718
  349MOL0     H48093  10.880   4.270   1.327 -2.0673  0.6005 -1.6536
  349MOL0     H48094  11.085   4.182   1.247 -0.5357 -1.7221 -2.6775
  349MOL0     H48095  11.233   4.093   1.026  0.1350  0.2877  0.8190
  349MOL0     H48096  11.293   4.138   1.190  0.2937 -5.1092 -0.4923
  349MOL0     H48097  11.453   4.043   1.081 -2.0806  0.0551 -0.7949
  349MOL0     H48098  11.445   4.149   0.938 -1.3629 -0.6478 -0.2529
  349MOL0     H48099  11.499   4.348   1.077 -1.1164  0.5922  1.8465
  349MOL0     H48100  11.509   4.254   1.218  1.5138  2.9632 -0.4580
  349MOL0     H48101  11.699   4.109   1.126  0.7164 -0.0878 -1.3533
  349MOL0     H48102  11.688   4.167   0.976 -0.4144 -0.2883 -0.1440
  349MOL0     H48103  11.743   4.302   1.246  1.4394 -1.8662  0.8433
  349MOL0     H48104  11.747   4.412   1.100  3.7261 -0.2374 -0.9137
  349MOL0     H48105  11.969   4.322   1.204 -2.7578  1.6018  1.0756
  349MOL0     H48106  11.912   4.163   1.131  1.4409 -0.9860  1.2284
  349MOL0     H48107  11.962   4.423   0.966 -3.6382 -1.0313 -1.5812
  349MOL0     H48108  11.941   4.254   0.897  0.3366  2.2170 -1.8052
  349MOL0     H48109  12.169   4.337   0.874 -2.9843 -1.3027 -1.1888
  349MOL0     H48110  12.178   4.342   1.054 -2.3252  2.5882  0.4557
  349MOL0     H48111  12.242   4.124   0.745  0.4989 -2.4108 -1.2521
  349MOL0     H48112  12.231   3.745   0.834  2.1144  0.3875  2.3655
  349MOL0     H48113  12.367   3.855   0.770 -0.2412  0.3651 -1.3316
  349MOL0     H48114  12.081   3.826   0.665 -0.7889  2.8257  2.3196
  349MOL0     H48115  12.189   3.954   0.625 -1.8938  0.4446 -3.1837
  349MOL0     H48116  12.186   3.745   0.465  0.1354  2.9814 -0.1492
  349MOL0     H48117  12.343   3.836   0.500  1.2226 -0.8614 -0.2598
  349MOL0     H48118  12.412   3.647   0.627 -1.6874 -1.3648  4.1353
  349MOL0     H48119  12.250   3.585   0.646  0.4382  1.5991  1.3408
  349MOL0     H48120  12.086   3.534   0.493  1.8493  0.4891 -0.0687
  349MOL0     H48121  11.870   3.326   0.524 -1.5050  1.7653 -0.2949
  349MOL0     H48122  11.842   3.307   0.349  0.2403  1.6050 -1.3748
  349MOL0     H48123  11.871   3.465   0.427  1.5643  0.6628  1.3094
  349MOL0     H48124  12.078   2.821   0.297  1.8417 -1.5373 -1.2095
  349MOL0     H48125  11.980   2.613   0.215 -0.9590  1.0878 -0.4511
  349MOL0     H48126  11.876   2.443   0.098 -0.4878 -1.0533  0.1046
  349MOL0     H48127  11.733   2.522   0.150  4.2725  2.9551  1.7097
  349MOL0     H48128  11.613   2.446  -0.057  0.4755  2.7204  2.1525
  349MOL0     H48129  11.753   2.343  -0.096  0.8828  1.6690  0.3458
  349MOL0     H48130  11.596   2.323   0.167  1.4227 -0.8577  2.2929
  349MOL0     H48131  11.743   2.232   0.132 -0.3260  0.7109  1.4246
  349MOL0     H48132  11.645   2.095  -0.026 -1.0163  1.3026 -0.8284
  349MOL0     H48133  11.509   2.206  -0.071  1.1108  0.9762 -1.4994
  349MOL0     H48134  11.426   2.166   0.163  2.2369 -0.3778  1.6241
  349MOL0     H48135  11.396   2.054   0.033 -3.3275  1.1813  1.3062
  349MOL0     H48136  11.631   2.048   0.238 -0.4844 -1.3517  1.6058
  349MOL0     H48137  11.578   1.911   0.135 -0.3383 -0.2675 -0.8506
  349MOL0     H48138  11.381   1.883   0.271  3.1950 -2.9037 -0.6076
  349MOL0     H48139  11.416   2.043   0.359  3.5594  1.4684  0.8248
  349MOL0     H48140  11.600   1.801   0.342 -0.6854  1.2243 -1.0394
  349MOL0     H48141  11.454   1.784   0.446 -0.1981 -0.5294 -0.7108
  349MOL0     H48142  11.841   2.798  -0.135 -0.9200 -0.8235  1.2751
  349MOL0     H48143  11.991   3.007  -0.075  0.7504  1.4356  1.3611
  349MOL0     H48144  12.290   3.154   0.249 -0.9132 -4.0711  3.4224
  349MOL0     H48145  12.425   3.346   0.312  0.1397  0.7104  1.9381
  349MOL0     H48146  11.108   4.516   0.970 -0.2475  0.3958 -0.8074
  349MOL0     H48147  10.902   4.592   1.044  1.5783 -2.2139 -3.2353
  349MOL0     H48148  10.693   4.727   1.200  0.4100  0.0032  0.9465
  349MOL0     H48149  10.522   4.907   1.193  0.1920 -2.3066 -1.0889
  349MOL0     H48150  10.491   5.074   1.388  0.7630  1.3083 -1.2255
  349MOL0     H48151  10.356   5.115   1.269 -0.8449 -1.0587 -1.1937
  349MOL0     H48152  10.192   5.154   1.455 -0.5917  2.3280 -0.0860
  349MOL0     H48153  10.325   5.271   1.438 -1.5393 -1.0451 -2.5971
  349MOL0     H48154  10.311   5.037   1.641  4.1869 -0.8074 -0.4403
  349MOL0     H48155  10.438   5.160   1.640  0.3319 -1.2592 -1.2358
  349MOL0     H48156  10.136   5.194   1.714 -0.5803 -0.7980  1.2771
  349MOL0     H48157  10.227   5.330   1.656 -1.4097 -0.2417  2.2234
  349MOL0     H48158  10.369   5.255   2.048  1.1204  0.7901 -0.2565
  349MOL0     H48159  10.343   4.743   1.540 -0.2615  1.1405  0.4278
  349MOL0     H48160  10.412   4.532   1.628 -0.8203 -0.8585 -0.5511
  349MOL0     H48161  10.505   4.422   1.511 -1.7054  0.7038 -0.3203
  349MOL0     H48162  10.586   4.532   1.632 -1.6068  0.8698  1.2331
  350MOL0     O48163   7.986   2.057   4.134 -0.3420  0.3185  0.6076
  350MOL0     C48164   8.025   2.169   4.152 -0.4240  0.9221  0.0470
  350MOL0     O48165   8.141   2.195   4.206  0.0397 -0.3867 -0.4218
  350MOL0     C48166   8.212   2.094   4.269  0.3824 -0.3826  0.5301
  350MOL0     C48167   8.245   2.098   4.409 -0.1222 -0.1364  0.9327
  350MOL0     C48168   8.303   1.995   4.482 -0.5353 -0.7594 -0.2241
  350MOL0     C48169   8.360   1.883   4.409  0.2155  0.3649 -0.7942
  350MOL0     O48170   8.430   1.795   4.488 -0.8059 -0.1160 -0.6117
  350MOL0     C48171   8.449   1.667   4.424  0.0044  0.3909  0.1390
  350MOL0     C48172   8.555   1.577   4.512 -0.2889  0.3326  0.2648
  350MOL0     C48173   8.508   1.560   4.657 -0.8983  0.1278  0.7989
  350MOL0     C48174   8.629   1.524   4.739  0.5258 -0.0494  0.1170
  350MOL0     C48175   8.584   1.520   4.891 -0.0075 -0.0558 -1.3181
  350MOL0     C48176   8.709   1.483   4.984  1.2366  0.1652  0.8010
  350MOL0     C48177   8.676   1.443   5.136  0.7733  0.3333  1.0139
  350MOL0     C48178   8.790   1.400   5.223 -0.9118 -0.3248  0.2390
  350MOL0     N48179   8.767   1.397   5.366 -0.2192  0.2551  0.9668
  350MOL0     C48180   8.723   1.491   5.445  0.2705 -0.0463 -0.6467
  350MOL0     C48181   8.746   1.447   5.568  0.1744  0.1746  0.2508
  350MOL0     C48182   8.712   1.519   5.693  0.0461  0.2251 -0.3418
  350MOL0     C48183   8.737   1.668   5.689  0.6797 -0.2486  0.1495
  350MOL0     C48184   8.772   1.714   5.832  0.4880  0.1120  0.5866
  350MOL0     C48185   8.632   1.714   5.914 -1.1026  0.6171  0.4631
  350MOL0     O48186   8.664   1.770   6.038 -0.4279 -0.2157 -0.1499
  350MOL0     C48187   8.721   1.698   6.145 -1.2430 -0.1385 -0.1996
  350MOL0     C48188   8.740   1.568   6.137 -1.2077  0.1513  0.8950
  350MOL0     C48189   8.809   1.492   6.235 -0.9251  0.6038  0.3369
  350MOL0     C48190   8.806   1.347   6.215 -0.2677 -1.0478  0.8257
  350MOL0     C48191   8.856   1.556   6.357  0.4068 -0.8229 -0.0868
  350MOL0     C48192   8.917   1.488   6.474  0.5976 -0.2138 -0.4294
  350MOL0     O48193   8.935   1.357   6.476 -0.5732 -0.0695  0.0086
  350MOL0     C48194   9.012   1.306   6.578  0.1022 -0.0132 -0.4069
  350MOL0     C48195   8.956   1.284   6.701 -0.8113 -0.0106 -0.3161
  350MOL0     C48196   9.029   1.230   6.801 -0.0483 -0.3051 -0.6893
  350MOL0     C48197   9.159   1.181   6.777  0.1750  0.8562  0.1602
  350MOL0     O48198   9.238   1.115   6.875  0.1486 -0.0756  0.0568
  350MOL0     C48199   9.167   1.095   6.998  0.6331  0.1500 -0.6991
  350MOL0     C48200   9.255   1.007   7.094 -1.0735 -0.8078  0.3696
  350MOL0     C48201   9.286   0.868   7.049  0.5536 -0.3263  0.1582
  350MOL0     C48202   9.153   0.790   7.043 -0.1260  0.3440  0.7811
  350MOL0     C48203   9.179   0.638   7.041 -0.7895  0.7181  0.0991
  350MOL0     C48204   9.045   0.571   7.037  0.1761 -0.4966 -0.1582
  350MOL0     C48205   8.976   0.569   6.893  0.2092  0.6665  0.1606
  350MOL0     C48206   8.873   0.454   6.881 -0.1573 -0.4414  0.4964
  350MOL0    Cl48207   8.932   0.292   6.900  0.1894  0.0503  0.2732
  350MOL0     C48208   9.213   1.192   6.644  0.8383  0.3688  0.3445
  350MOL0     C48209   9.137   1.259   6.546 -0.9557  0.8080  0.1854
  350MOL0     O48210   8.952   1.564   6.570  0.6543  0.5954 -0.2943
  350MOL0     C48211   8.825   1.695   6.359 -0.3132 -1.0570 -0.4116
  350MOL0     C48212   8.758   1.761   6.263  0.2813 -0.0939  0.4138
  350MOL0     N48213   8.799   1.319   5.566 -0.0899  1.1066 -0.4360
  350MOL0     N48214   8.807   1.292   5.439 -1.1450  0.7883 -0.0476
  350MOL0     C48215   8.335   1.880   4.265 -0.7670 -0.7565 -0.5689
  350MOL0     C48216   8.272   1.985   4.190  0.0285 -0.1423 -1.4172
  350MOL0     C48217   7.941   2.286   4.108  0.2718 -0.1535  0.3204
  350MOL0     C48218   8.007   2.412   4.094  0.3600  0.3898 -0.5613
  350MOL0     C48219   7.948   2.524   4.034 -0.1838 -0.0493 -0.1772
  350MOL0     C48220   7.820   2.513   3.981  0.2309 -0.4653 -0.7231
  350MOL0     O48221   7.763   2.625   3.924  0.1699  0.2739 -0.8219
  350MOL0     C48222   7.621   2.646   3.958  0.1782  0.3044 -0.7148
  350MOL0     C48223   7.567   2.788   3.928 -0.5418 -0.0008 -0.0088
  350MOL0     C48224   7.594   2.818   3.780 -0.0881 -0.6670 -0.4126
  350MOL0     C48225   7.574   2.968   3.761 -0.3877  0.0787  0.2386
  350MOL0     C48226   7.590   3.008   3.623  0.0499  1.3520 -0.0335
  350MOL0     C48227   7.587   3.033   3.498  0.0810 -0.0571 -1.1810
  350MOL0     C48228   7.746   2.388   4.000 -1.3321  0.4162  0.0635
  350MOL0     C48229   7.807   2.283   4.072  0.4980 -0.5598 -0.7361
  350MOL0     C48230   7.714   2.166   4.111 -0.0601 -0.2978 -0.2294
  350MOL0     H48231   8.223   2.186   4.468  0.0727 -0.5258  1.5894
  350MOL0     H48232   8.317   1.990   4.589  0.2032 -2.0962 -0.3713
  350MOL0     H48233   8.505   1.690   4.332 -0.6419 -0.6836 -0.5389
  350MOL0     H48234   8.357   1.610   4.410 -0.1505 -0.0563  2.6346
  350MOL0     H48235   8.567   1.477   4.469 -3.9483 -0.2204  0.1305
  350MOL0     H48236   8.645   1.638   4.506 -1.0638  1.3958 -1.3411
  350MOL0     H48237   8.463   1.654   4.690 -1.7146  0.1642 -0.3752
  350MOL0     H48238   8.447   1.470   4.657  3.3475 -3.2528 -3.1404
  350MOL0     H48239   8.653   1.420   4.717 -0.5121 -0.5937  1.4165
  350MOL0     H48240   8.713   1.593   4.727  2.1779 -2.1514 -1.0569
  350MOL0     H48241   8.506   1.445   4.909 -2.2023  1.9131 -2.0465
  350MOL0     H48242   8.541   1.613   4.928  0.6093 -1.0034  2.0685
  350MOL0     H48243   8.780   1.421   4.929 -2.4740 -0.9758 -3.3340
  350MOL0     H48244   8.761   1.579   4.989  3.3136 -0.9123  1.2044
  350MOL0     H48245   8.604   1.362   5.147  2.9184 -1.6433  1.1099
  350MOL0     H48246   8.636   1.536   5.180 -4.1627 -1.9581  2.1153
  350MOL0     H48247   8.827   1.303   5.189 -1.4253 -0.9512  1.4048
  350MOL0     H48248   8.874   1.467   5.202 -2.0134  0.9685 -0.2442
  350MOL0     H48249   8.671   1.584   5.427 -0.2880 -0.3435 -0.5673
  350MOL0     H48250   8.777   1.470   5.766  0.7151  2.3028  0.5433
  350MOL0     H48251   8.608   1.495   5.717  0.0688  1.3633  1.0037
  350MOL0     H48252   8.809   1.688   5.609  2.0242 -0.8092  1.1940
  350MOL0     H48253   8.641   1.704   5.649  0.8252 -0.4323 -0.3787
  350MOL0     H48254   8.854   1.660   5.879 -0.2238 -0.9424  0.6430
  350MOL0     H48255   8.818   1.812   5.817  0.7904 -0.3868 -2.5363
  350MOL0     H48256   8.551   1.771   5.868 -0.0830  1.5646 -0.1936
  350MOL0     H48257   8.586   1.615   5.924 -1.0252  0.7990  3.5836
  350MOL0     H48258   8.699   1.519   6.049  2.0142 -1.0965 -0.0395
  350MOL0     H48259   8.799   1.323   6.108  0.8352  2.4208 -0.1587
  350MOL0     H48260   8.720   1.302   6.265  0.2735 -1.2075  1.6278
  350MOL0     H48261   8.900   1.311   6.257  0.7987 -0.2920 -0.8180
  350MOL0     H48262   8.848   1.295   6.711 -0.9848 -0.3221 -1.6322
  350MOL0     H48263   8.984   1.217   6.900  4.1161  1.9041  1.7863
  350MOL0     H48264   9.134   1.196   7.024  0.5351  0.5958 -2.4340
  350MOL0     H48265   9.072   1.044   6.982 -0.7128  1.1391  3.0302
  350MOL0     H48266   9.347   1.063   7.111 -0.6339 -1.3859 -0.0534
  350MOL0     H48267   9.195   1.007   7.186 -1.0538  1.9169  0.4457
  350MOL0     H48268   9.359   0.826   7.119  0.2398  1.6460  1.7477
  350MOL0     H48269   9.339   0.875   6.953  1.6593  0.0642  0.7899
  350MOL0     H48270   9.103   0.826   6.953  2.3992  0.7360 -0.5617
  350MOL0     H48271   9.086   0.808   7.127 -0.1218 -1.8126  1.3137
  350MOL0     H48272   9.246   0.612   6.958 -1.3899 -3.2121  0.6633
  350MOL0     H48273   9.229   0.611   7.134 -1.3706  0.2581  0.2806
  350MOL0     H48274   8.973   0.621   7.102  0.6067 -0.6267  0.4218
  350MOL0     H48275   9.056   0.465   7.062  0.7567 -0.7119 -1.2375
  350MOL0     H48276   9.047   0.557   6.811 -2.4921 -5.3524 -1.9601
  350MOL0     H48277   8.916   0.659   6.874 -1.6659  0.3064  3.5459
  350MOL0     H48278   8.824   0.455   6.783 -3.2998 -4.6944  1.7230
  350MOL0     H48279   8.792   0.474   6.951  1.9157  2.3162  2.2720
  350MOL0     H48280   9.315   1.157   6.632  1.9943  1.6145  4.8101
  350MOL0     H48281   9.177   1.269   6.446 -0.0657 -3.4112 -0.0718
  350MOL0     H48282   8.845   1.754   6.448  2.3002 -0.8367 -1.0672
  350MOL0     H48283   8.740   1.866   6.288  0.3855 -0.4859  2.2653
  350MOL0     H48284   8.377   1.800   4.205  2.9265 -0.0769  0.8753
  350MOL0     H48285   8.238   1.958   4.091 -0.0723 -0.8697 -1.1884
  350MOL0     H48286   8.114   2.423   4.112  0.7086 -0.5085 -1.9360
  350MOL0     H48287   8.010   2.612   4.024 -0.9039  0.2547 -2.9086
  350MOL0     H48288   7.558   2.581   3.897 -3.8266 -0.7606  3.9043
  350MOL0     H48289   7.599   2.618   4.061  0.0720  0.8513 -0.5832
  350MOL0     H48290   7.613   2.860   3.996  0.7674  1.0687 -1.9400
  350MOL0     H48291   7.461   2.777   3.953  0.1474  2.0544  4.9672
  350MOL0     H48292   7.695   2.789   3.750 -0.4182 -1.2989 -0.9568
  350MOL0     H48293   7.517   2.764   3.725 -0.7207 -0.5722  0.3634
  350MOL0     H48294   7.646   3.021   3.823 -2.3841  1.7882  1.2369
  350MOL0     H48295   7.471   2.976   3.798 -0.6012 -1.9040  0.2257
  350MOL0     H48296   7.577   3.049   3.393  1.2549 -1.6781 -1.5760
  350MOL0     H48297   7.647   2.375   3.957 -0.4937  0.0238 -1.8236
  350MOL0     H48298   7.614   2.203   4.132  0.1760  1.4160 -1.7529
  350MOL0     H48299   7.706   2.101   4.023 -0.6671  1.4904 -1.5615
  350MOL0     H48300   7.749   2.112   4.199 -2.3314 -1.2459  0.1549
  351MOL0     O48301  11.440   6.517   9.564  0.4384 -0.0828  0.0605
  351MOL0     C48302  11.342   6.446   9.546 -0.0381  0.6705 -0.3913
  351MOL0     O48303  11.265   6.389   9.651 -0.7678 -0.3572  0.0566
  351MOL0     C48304  11.320   6.368   9.782 -0.4706 -0.4048  0.0125
  351MOL0     C48305  11.219   6.340   9.882  0.2996 -0.4701  0.0560
  351MOL0     C48306  11.270   6.309  10.012  0.1906 -0.0793  0.0714
  351MOL0     C48307  11.403   6.319  10.042  0.0969 -0.3001 -0.9679
  351MOL0     O48308  11.444   6.308  10.173  0.7822 -0.2351  0.0872
  351MOL0     C48309  11.557   6.224  10.196 -1.0032 -1.3168 -0.1272
  351MOL0     C48310  11.577   6.210  10.351 -0.0523  0.2652  0.3269
  351MOL0     C48311  11.662   6.091  10.394 -0.4001 -1.2916  0.0147
  351MOL0     C48312  11.712   6.110  10.538  0.1751 -0.2635 -0.5794
  351MOL0     C48313  11.794   5.994  10.584 -0.4812 -0.6794 -0.6419
  351MOL0     C48314  11.782   5.941  10.725  0.1314 -0.0349 -0.3468
  351MOL0     C48315  11.794   6.051  10.837 -0.1668  0.1387 -0.0458
  351MOL0     C48316  11.821   6.009  10.991  0.4926 -0.1470 -0.5094
  351MOL0     N48317  11.958   5.973  11.025 -0.2435 -0.1155 -0.2381
  351MOL0     C48318  12.059   6.055  11.074  0.9535 -0.9632  1.0117
  351MOL0     C48319  12.167   5.976  11.078 -0.2912 -0.1852 -0.6127
  351MOL0     C48320  12.319   6.020  11.121  1.6467  0.8049  0.9391
  351MOL0     C48321  12.340   6.035  11.269  0.3809 -0.5573  0.5780
  351MOL0     C48322  12.477   6.089  11.311  0.3014  0.1168 -0.7871
  351MOL0     C48323  12.491   6.241  11.327  0.1442  0.7200 -0.4672
  351MOL0     O48324  12.604   6.264  11.402  1.1481  0.1411 -0.2196
  351MOL0     C48325  12.602   6.375  11.476 -0.9087 -1.3031 -0.2970
  351MOL0     C48326  12.715   6.390  11.562  0.0121  0.8497 -0.1292
  351MOL0     C48327  12.745   6.503  11.632 -0.2520 -0.6093  0.2184
  351MOL0     C48328  12.850   6.491  11.738  0.7711  0.0875 -0.3380
  351MOL0     C48329  12.659   6.615  11.615 -0.1594 -1.1136  0.0227
  351MOL0     C48330  12.679   6.753  11.670 -0.0742 -0.2560 -0.1751
  351MOL0     O48331  12.634   6.863  11.597 -0.8553  0.0473 -0.1803
  351MOL0     C48332  12.638   6.983  11.666 -0.1805 -0.2328  0.6508
  351MOL0     C48333  12.536   7.006  11.756  0.3488 -0.3730  0.1305
  351MOL0     C48334  12.544   7.123  11.846 -0.4982 -0.3885  0.2944
  351MOL0     C48335  12.628   7.233  11.817 -0.3350  0.0801  0.1176
  351MOL0     O48336  12.613   7.356  11.876  0.4268  0.0118  0.4863
  351MOL0     C48337  12.529   7.381  11.983  0.2118 -0.5609 -1.1529
  351MOL0     C48338  12.502   7.532  12.013 -0.7164 -0.8987 -0.5568
  351MOL0     C48339  12.623   7.626  12.004  1.0390 -0.0405  0.7850
  351MOL0     C48340  12.588   7.767  12.030  0.4876 -0.0249  0.1442
  351MOL0     C48341  12.698   7.848  12.076 -0.0888 -1.0443  0.0487
  351MOL0     C48342  12.756   7.811  12.213  0.0460  0.5551  0.4189
  351MOL0     C48343  12.798   7.939  12.273 -1.2752  0.5949 -0.2231
  351MOL0     C48344  12.913   8.010  12.193 -0.2312  0.4802  0.3548
  351MOL0    Cl48345  13.074   7.940  12.201 -0.7689 -0.4564  0.2540
  351MOL0     C48346  12.731   7.210  11.713  0.6445 -0.4508 -0.6403
  351MOL0     C48347  12.726   7.086  11.642 -0.2041 -0.7747 -0.6228
  351MOL0     O48348  12.733   6.765  11.781 -0.0296 -0.7700  0.0755
  351MOL0     C48349  12.542   6.603  11.528 -0.1825  0.0434  0.4118
  351MOL0     C48350  12.525   6.490  11.452  0.8107 -0.1548 -0.3186
  351MOL0     N48351  12.131   5.846  11.047 -0.9038 -0.4014 -0.5281
  351MOL0     N48352  12.007   5.851  11.007  0.0087 -0.0693 -0.1824
  351MOL0     C48353  11.493   6.346   9.938  0.0672 -1.1400  0.0641
  351MOL0     C48354  11.451   6.374   9.811 -0.4081  0.6512  0.1421
  351MOL0     C48355  11.304   6.404   9.404  0.7154 -0.1138 -0.3471
  351MOL0     C48356  11.205   6.309   9.382  0.3775  0.6669  0.2245
  351MOL0     C48357  11.147   6.291   9.261  0.3972 -0.1360  0.5664
  351MOL0     C48358  11.195   6.356   9.146  0.2236  0.0978 -0.4102
  351MOL0     O48359  11.150   6.327   9.026 -1.2743  0.2163  0.7097
  351MOL0     C48360  11.032   6.385   8.984  0.0311 -0.2072 -0.1391
  351MOL0     C48361  11.006   6.540   9.027 -0.2685 -0.3539  0.1794
  351MOL0     C48362  10.861   6.570   8.994  0.0970 -0.9817  0.9532
  351MOL0     C48363  10.825   6.572   8.842  0.3669  0.1893  0.8083
  351MOL0     C48364  10.862   6.699   8.777  0.4031  0.0977 -0.0258
  351MOL0     C48365  10.925   6.777   8.717  0.5053 -0.9660 -0.2682
  351MOL0     C48366  11.283   6.463   9.159 -0.3760  0.0585  0.2281
  351MOL0     C48367  11.350   6.480   9.288  1.3535 -0.6365  0.3415
  351MOL0     C48368  11.461   6.579   9.286 -0.3075 -0.5525 -0.6103
  351MOL0     H48369  11.116   6.357   9.852  0.8064  1.5143 -0.7458
  351MOL0     H48370  11.200   6.287  10.092 -3.4075  2.4242 -2.0757
  351MOL0     H48371  11.651   6.272  10.166 -0.6339 -0.6092  2.0168
  351MOL0     H48372  11.552   6.133  10.135  0.2657  0.2332 -2.7424
  351MOL0     H48373  11.603   6.308  10.392  0.9425  0.1293  0.0442
  351MOL0     H48374  11.481   6.191  10.401 -1.7986  1.4170 -2.3689
  351MOL0     H48375  11.602   5.999  10.388 -0.9185 -0.9432 -0.2559
  351MOL0     H48376  11.746   6.084  10.324  0.6006 -0.0627  1.0658
  351MOL0     H48377  11.774   6.200  10.537  0.5393 -0.5099 -1.3434
  351MOL0     H48378  11.631   6.127  10.609  0.5363  1.6747 -0.5745
  351MOL0     H48379  11.895   6.013  10.548 -1.1804  2.4425 -1.2461
  351MOL0     H48380  11.764   5.909  10.521 -0.2228 -1.3270  0.0987
  351MOL0     H48381  11.685   5.895  10.744  0.0192  0.8161  1.3820
  351MOL0     H48382  11.866   5.873  10.741 -2.1960 -3.4791 -1.5332
  351MOL0     H48383  11.697   6.103  10.841  0.8863  2.1682  0.5281
  351MOL0     H48384  11.868   6.125  10.805  1.1446 -1.8592 -1.9629
  351MOL0     H48385  11.782   6.080  11.066  1.6163 -0.0534  0.0084
  351MOL0     H48386  11.762   5.920  11.016 -0.3736  0.1776 -1.3324
  351MOL0     H48387  12.062   6.162  11.095 -3.4585 -0.8860  2.3493
  351MOL0     H48388  12.325   6.114  11.065 -0.7946 -0.9168 -2.5585
  351MOL0     H48389  12.394   5.948  11.087  0.5138  0.4940 -1.0283
  351MOL0     H48390  12.271   6.114  11.299  2.4293  3.7875 -4.4126
  351MOL0     H48391  12.318   5.936  11.311  0.1868 -0.2667  1.1609
  351MOL0     H48392  12.480   6.058  11.416  0.3964  0.4608 -0.6901
  351MOL0     H48393  12.560   6.040  11.259  1.1515 -2.4522  2.5989
  351MOL0     H48394  12.488   6.302  11.236 -0.1369  3.8138  1.4650
  351MOL0     H48395  12.406   6.279  11.384  0.3960  1.2094 -0.4169
  351MOL0     H48396  12.785   6.308  11.577 -1.3969 -0.4046 -0.2165
  351MOL0     H48397  12.799   6.490  11.835 -0.5057 -0.1707 -0.9908
  351MOL0     H48398  12.906   6.585  11.746  0.3003  0.4644 -1.3268
  351MOL0     H48399  12.909   6.401  11.714  1.0443  0.5413 -1.4304
  351MOL0     H48400  12.465   6.931  11.787 -0.3423 -0.2493 -1.0913
  351MOL0     H48401  12.472   7.129  11.927  2.4709 -0.3881  3.1816
  351MOL0     H48402  12.430   7.336  11.968  0.9162 -2.2587 -0.8698
  351MOL0     H48403  12.576   7.342  12.073 -1.5087 -0.5003 -0.1770
  351MOL0     H48404  12.414   7.564  11.955 -0.7750  2.4328  1.1176
  351MOL0     H48405  12.469   7.539  12.117 -2.6657 -0.5350 -1.1437
  351MOL0     H48406  12.659   7.618  11.901 -0.2934 -3.3030  0.4349
  351MOL0     H48407  12.700   7.593  12.075  0.8398 -3.8649 -0.5145
  351MOL0     H48408  12.512   7.774  12.109  0.8215  2.4272  0.3183
  351MOL0     H48409  12.532   7.808  11.945 -2.7714  3.1418  3.4435
  351MOL0     H48410  12.776   7.834  12.000  2.3517 -1.0311  2.3687
  351MOL0     H48411  12.667   7.952  12.065 -0.2359 -1.0347  0.5338
  351MOL0     H48412  12.844   7.750  12.192  0.7005  1.3340  0.8554
  351MOL0     H48413  12.672   7.774  12.272  1.3264 -1.8020  0.8869
  351MOL0     H48414  12.831   7.923  12.376 -2.6485  2.5867  0.6021
  351MOL0     H48415  12.703   7.993  12.273 -0.6228  1.8219  1.1802
  351MOL0     H48416  12.908   8.108  12.241 -1.0821 -0.0284  1.3430
  351MOL0     H48417  12.893   8.024  12.086  1.7433 -0.2142 -0.1514
  351MOL0     H48418  12.799   7.294  11.701 -0.9325  1.3010  1.8002
  351MOL0     H48419  12.796   7.057  11.564 -0.9052 -3.5545 -0.3192
  351MOL0     H48420  12.466   6.680  11.537 -0.1181 -0.0931  2.4500
  351MOL0     H48421  12.436   6.494  11.390  0.6376  2.2111 -0.0186
  351MOL0     H48422  11.599   6.347   9.962  0.3549  0.1759 -1.1793
  351MOL0     H48423  11.523   6.383   9.731  0.7374  2.4140  1.3025
  351MOL0     H48424  11.160   6.272   9.473 -0.4008  1.5664  0.2242
  351MOL0     H48425  11.071   6.213   9.260 -0.2822  0.4890  1.5139
  351MOL0     H48426  11.020   6.364   8.877  0.6393  2.9084 -0.9363
  351MOL0     H48427  10.954   6.332   9.039 -1.2770 -0.9655 -2.5659
  351MOL0     H48428  11.065   6.612   8.970  0.4042 -0.7311  0.3944
  351MOL0     H48429  11.032   6.560   9.131  4.6286  2.4943 -1.2860
  351MOL0     H48430  10.797   6.494   9.040  0.0309 -1.1326  0.6162
  351MOL0     H48431  10.842   6.662   9.050 -2.9025 -2.5399  2.8026
  351MOL0     H48432  10.718   6.554   8.824  0.3371 -0.2404  1.4165
  351MOL0     H48433  10.884   6.494   8.794 -0.0904  1.1709 -1.5017
  351MOL0     H48434  10.963   6.853   8.652 -1.6919  0.5494  0.0913
  351MOL0     H48435  11.321   6.503   9.065 -4.8243  1.0990 -1.3412
  351MOL0     H48436  11.438   6.666   9.347 -0.6545  0.5690 -2.2701
  351MOL0     H48437  11.545   6.526   9.332  1.1982  1.9401 -0.3551
  351MOL0     H48438  11.483   6.606   9.182  0.9729  0.7103 -0.0401
  352MOL0     O48439   0.120   1.476   0.261 -0.5706  0.1143  0.2072
  352MOL0     C48440   0.141   1.529   0.155 -0.4324 -0.1723 -0.2815
  352MOL0     O48441   0.049   1.576   0.069  0.5744  0.6335 -0.2847
  352MOL0     C48442  -0.073   1.509   0.054 -0.5003 -0.6184  0.4536
  352MOL0     C48443  -0.069   1.415  -0.054  0.5475  0.0736  0.2680
  352MOL0     C48444  -0.183   1.351  -0.104 -0.3266 -0.8215 -0.2857
  352MOL0     C48445  -0.309   1.368  -0.034  0.6754 -0.9298  0.2560
  352MOL0     O48446  -0.413   1.291  -0.078  0.2106 -0.8260 -0.7444
  352MOL0     C48447  -0.542   1.311  -0.025 -0.2047 -0.0760 -0.5253
  352MOL0     C48448  -0.632   1.284  -0.139  0.7128  0.2647 -0.2954
  352MOL0     C48449  -0.786   1.305  -0.114  0.0404  0.4787 -0.8475
  352MOL0     C48450  -0.828   1.449  -0.112 -0.3635  0.3427 -0.2644
  352MOL0     C48451  -0.982   1.460  -0.146 -0.4095  0.9005  0.0782
  352MOL0     C48452  -1.046   1.606  -0.118 -0.1326  0.4130  0.1842
  352MOL0     C48453  -0.979   1.713  -0.203 -0.6491 -0.5949 -0.4451
  352MOL0     C48454  -1.047   1.842  -0.149 -0.1200 -0.3457  0.5365
  352MOL0     N48455  -0.985   1.948  -0.235 -0.5567 -1.2537 -0.4160
  352MOL0     C48456  -0.880   2.028  -0.190 -0.3283  0.3667 -0.9600
  352MOL0     C48457  -0.878   2.133  -0.285 -0.6407 -0.3990 -0.5471
  352MOL0     C48458  -0.779   2.250  -0.292  0.0374 -0.6175 -0.2014
  352MOL0     C48459  -0.693   2.281  -0.165  0.4173  0.3751 -0.0152
  352MOL0     C48460  -0.750   2.365  -0.052 -0.4380  0.1095 -0.4812
  352MOL0     C48461  -0.672   2.369   0.083  0.8056 -0.4903 -0.3954
  352MOL0     O48462  -0.529   2.397   0.070  0.6322  0.5773  0.9368
  352MOL0     C48463  -0.493   2.525   0.038  0.3815  0.3160  0.3113
  352MOL0     C48464  -0.581   2.637   0.027  1.3986 -0.7238  0.3112
  352MOL0     C48465  -0.530   2.763  -0.010 -0.1311 -0.1627  0.6013
  352MOL0     C48466  -0.622   2.875  -0.039  0.4211 -0.4042 -0.2854
  352MOL0     C48467  -0.394   2.781  -0.028  0.4632 -0.0866 -0.2916
  352MOL0     C48468  -0.329   2.914  -0.044  0.5329 -0.6216  0.5179
  352MOL0     O48469  -0.219   2.918  -0.125 -0.5333  0.1263  0.2057
  352MOL0     C48470  -0.127   3.017  -0.106 -0.8151  0.4937  0.5921
  352MOL0     C48471  -0.047   3.037   0.011 -0.2343 -0.2615  0.8668
  352MOL0     C48472   0.045   3.136   0.018 -0.3486 -0.3645 -0.3010
  352MOL0     C48473   0.066   3.229  -0.083 -0.0542 -0.5039  0.5757
  352MOL0     O48474   0.147   3.343  -0.086 -0.2896  0.7503 -0.5688
  352MOL0     C48475   0.186   3.393   0.038  1.0085  0.9996 -0.0565
  352MOL0     C48476   0.181   3.546   0.012 -0.2257 -0.1352  0.5746
  352MOL0     C48477   0.260   3.641   0.117  0.0350 -0.5119  0.8244
  352MOL0     C48478   0.419   3.644   0.093  0.8728  1.1326 -1.1655
  352MOL0     C48479   0.452   3.776   0.055 -1.2027  0.0884  0.1061
  352MOL0     C48480   0.445   3.879   0.154 -1.0471 -0.1254 -0.1510
  352MOL0     C48481   0.504   4.017   0.123  0.8802 -0.5795 -0.6633
  352MOL0     C48482   0.659   4.025   0.102  1.2614 -0.0736  0.7757
  352MOL0    Cl48483   0.718   3.952  -0.044  0.0782  0.1125 -0.1155
  352MOL0     C48484  -0.004   3.207  -0.195 -0.1063 -0.0752  0.5617
  352MOL0     C48485  -0.095   3.100  -0.207  0.2114 -0.3107 -0.1243
  352MOL0     O48486  -0.386   3.013   0.004  0.2282  0.4375  0.7854
  352MOL0     C48487  -0.308   2.675  -0.008  0.7462 -0.4074  0.0190
  352MOL0     C48488  -0.360   2.553   0.017  0.2286 -0.1215  1.1385
  352MOL0     N48489  -0.974   2.109  -0.391  0.8288  0.3330 -0.7615
  352MOL0     N48490  -1.040   2.007  -0.344  0.7358  0.9633 -0.5028
  352MOL0     C48491  -0.309   1.449   0.076 -0.6467  0.6460 -0.5227
  352MOL0     C48492  -0.196   1.522   0.114  0.4645  0.1595  0.6069
  352MOL0     C48493   0.286   1.553   0.115 -0.8090  0.7427  0.1710
  352MOL0     C48494   0.404   1.489   0.173 -0.4168  0.0070 -0.7148
  352MOL0     C48495   0.529   1.511   0.132 -0.7134 -0.5324 -0.5512
  352MOL0     C48496   0.565   1.606   0.034  0.0391  0.0344 -0.6218
  352MOL0     O48497   0.695   1.612  -0.002 -0.4286 -0.3779 -0.3876
  352MOL0     C48498   0.740   1.690  -0.107 -0.3395 -0.3242  0.0471
  352MOL0     C48499   0.887   1.662  -0.124  0.0431  0.1115  0.5370
  352MOL0     C48500   0.939   1.696  -0.264  0.5072 -0.8252  0.6621
  352MOL0     C48501   1.084   1.678  -0.276  0.2032  1.2578 -0.9210
  352MOL0     C48502   1.138   1.734  -0.398  0.6654 -0.1730 -0.7893
  352MOL0     C48503   1.171   1.808  -0.489  0.3105 -0.6609  0.0485
  352MOL0     C48504   0.465   1.683  -0.011  0.4769 -0.3130 -0.2483
  352MOL0     C48505   0.328   1.645   0.012  0.0850 -0.9173  0.2730
  352MOL0     C48506   0.222   1.726  -0.075 -0.8665  0.3274 -0.7985
  352MOL0     H48507   0.024   1.411  -0.110  0.6648 -0.5666  0.5042
  352MOL0     H48508  -0.175   1.279  -0.185  3.2754 -1.8610  0.8276
  352MOL0     H48509  -0.569   1.412   0.005 -0.0922 -0.9758  3.1331
  352MOL0     H48510  -0.562   1.247   0.062  1.4415 -0.4582 -0.3905
  352MOL0     H48511  -0.597   1.328  -0.233  2.2633  1.9113  0.9711
  352MOL0     H48512  -0.612   1.179  -0.161 -1.5908  0.0274 -1.5276
  352MOL0     H48513  -0.835   1.254  -0.197 -3.8299  1.1467  0.8113
  352MOL0     H48514  -0.808   1.256  -0.019  1.9248 -2.8940 -1.9721
  352MOL0     H48515  -0.809   1.486  -0.011  4.6901 -3.2312  0.4836
  352MOL0     H48516  -0.763   1.500  -0.182 -1.4329 -0.0303 -1.5711
  352MOL0     H48517  -1.045   1.393  -0.088  1.5355  0.1766  1.4451
  352MOL0     H48518  -0.995   1.434  -0.252 -0.0095  0.1590  0.2081
  352MOL0     H48519  -1.154   1.609  -0.137 -0.8163  2.3211  3.5917
  352MOL0     H48520  -1.041   1.627  -0.011 -1.8692  0.5855  0.2657
  352MOL0     H48521  -0.983   1.698  -0.311  1.4418  0.6888 -0.7633
  352MOL0     H48522  -0.875   1.713  -0.171 -0.0260  0.8088 -2.3380
  352MOL0     H48523  -1.155   1.831  -0.155 -0.0932 -1.6046  1.9342
  352MOL0     H48524  -1.013   1.850  -0.046  1.1040  2.1413  0.0077
  352MOL0     H48525  -0.814   2.017  -0.104 -0.5404 -0.8001 -0.9377
  352MOL0     H48526  -0.835   2.341  -0.318 -1.6394 -1.4708  0.3069
  352MOL0     H48527  -0.705   2.225  -0.369 -0.6365 -3.4057 -0.0576
  352MOL0     H48528  -0.680   2.182  -0.119 -1.5702 -2.1785 -4.3159
  352MOL0     H48529  -0.591   2.315  -0.185  0.4050 -0.0801 -0.8817
  352MOL0     H48530  -0.767   2.465  -0.093  0.1097  1.1070  1.6139
  352MOL0     H48531  -0.852   2.333  -0.031 -0.7670  1.2982 -0.1671
  352MOL0     H48532  -0.728   2.439   0.145  0.2620 -0.8522 -0.4766
  352MOL0     H48533  -0.670   2.273   0.136 -1.7922 -0.8776 -0.8666
  352MOL0     H48534  -0.685   2.623   0.056  0.6999  1.1399 -1.0665
  352MOL0     H48535  -0.714   2.828  -0.073  1.4267 -1.5381 -1.5540
  352MOL0     H48536  -0.595   2.942  -0.121 -0.9201 -0.2742 -0.6499
  352MOL0     H48537  -0.629   2.929   0.056  3.5910  0.3646 -0.3569
  352MOL0     H48538  -0.064   2.960   0.087  0.3418  0.1142  1.3896
  352MOL0     H48539   0.095   3.142   0.115  1.3514  1.4625 -1.2135
  352MOL0     H48540   0.118   3.365   0.119  2.7500 -1.4969  0.6534
  352MOL0     H48541   0.289   3.382   0.071  0.7784  6.5632  3.9790
  352MOL0     H48542   0.240   3.561  -0.079  0.5634 -1.3459  0.8596
  352MOL0     H48543   0.080   3.586  -0.003 -0.6077 -0.8951  1.0437
  352MOL0     H48544   0.245   3.609   0.220  2.6470  1.2248  1.8233
  352MOL0     H48545   0.216   3.741   0.118  1.3587  0.1684 -1.3971
  352MOL0     H48546   0.452   3.569   0.019 -1.1192 -2.2754  1.1207
  352MOL0     H48547   0.466   3.608   0.185 -0.7913 -0.4329 -0.8635
  352MOL0     H48548   0.558   3.768   0.028 -1.2083  0.5607 -0.0741
  352MOL0     H48549   0.397   3.815  -0.032 -1.7461 -0.6374  0.1243
  352MOL0     H48550   0.494   3.843   0.245 -3.8822 -1.5508  0.9358
  352MOL0     H48551   0.339   3.894   0.173 -1.2908  0.7436 -1.9277
  352MOL0     H48552   0.466   4.089   0.196  0.6116  2.0250 -3.2108
  352MOL0     H48553   0.451   4.050   0.033  0.7546 -0.2303 -0.4630
  352MOL0     H48554   0.708   3.987   0.192  1.1947  1.9062  1.7187
  352MOL0     H48555   0.685   4.132   0.100 -1.3329  0.6306  1.1319
  352MOL0     H48556   0.014   3.272  -0.281  0.1487  1.5431  1.7897
  352MOL0     H48557  -0.131   3.078  -0.307  1.3669 -2.7862 -0.0566
  352MOL0     H48558  -0.203   2.703  -0.008  0.7958 -0.5466 -0.9096
  352MOL0     H48559  -0.303   2.462   0.010 -0.5227 -0.6706  1.8991
  352MOL0     H48560  -0.402   1.459   0.132 -1.8563 -2.0286 -1.8736
  352MOL0     H48561  -0.200   1.595   0.194 -0.2722 -0.4925  1.1804
  352MOL0     H48562   0.383   1.412   0.246  0.3749 -0.1745 -0.6752
  352MOL0     H48563   0.611   1.446   0.162  0.2952  0.6120 -0.7624
  352MOL0     H48564   0.681   1.660  -0.195 -3.5897  2.3355  1.1027
  352MOL0     H48565   0.714   1.794  -0.085  2.8920  0.7623 -0.6618
  352MOL0     H48566   0.911   1.556  -0.109 -3.7884 -0.8634  1.0335
  352MOL0     H48567   0.931   1.723  -0.045 -2.6618  0.8550  1.6034
  352MOL0     H48568   0.888   1.636  -0.340 -1.6209  2.7402 -1.0162
  352MOL0     H48569   0.916   1.802  -0.282 -1.0536 -0.3516  4.4847
  352MOL0     H48570   1.097   1.570  -0.261 -2.7071  1.0654  0.9706
  352MOL0     H48571   1.127   1.730  -0.190 -3.7518  0.3794  1.9011
  352MOL0     H48572   1.206   1.869  -0.569 -0.7831  0.7478  0.5844
  352MOL0     H48573   0.492   1.740  -0.100 -0.6187 -0.4730 -0.7032
  352MOL0     H48574   0.154   1.785  -0.013  0.7615 -0.3350  1.7659
  352MOL0     H48575   0.274   1.803  -0.133 -0.5882 -0.7720 -2.0728
  352MOL0     H48576   0.161   1.669  -0.146 -2.6432  2.5104 -1.1259
  353MOL0     O48577   5.121   4.905   1.635 -0.1926  0.6909 -0.4467
  353MOL0     C48578   5.010   4.930   1.603 -0.0125 -0.6053  0.5104
  353MOL0     O48579   4.908   4.948   1.679 -0.3315 -0.1176 -0.7164
  353MOL0     C48580   4.919   4.969   1.811 -0.4358  0.0741 -0.6209
  353MOL0     C48581   4.796   4.976   1.880  0.4021 -0.6675 -0.0074
  353MOL0     C48582   4.773   5.000   2.012 -0.1435  0.4263 -0.8351
  353MOL0     C48583   4.885   5.012   2.091  0.2687 -0.3318  0.4760
  353MOL0     O48584   4.842   5.041   2.216  0.5195  0.4577  0.0790
  353MOL0     C48585   4.910   4.991   2.328 -0.6892 -0.2200  0.2761
  353MOL0     C48586   4.819   4.971   2.435  0.7331 -0.3140 -1.0392
  353MOL0     C48587   4.756   5.107   2.497 -0.3409 -0.5276  0.4834
  353MOL0     C48588   4.852   5.212   2.557  0.7760 -0.7680  0.3445
  353MOL0     C48589   4.774   5.295   2.661  1.0668  0.6966 -0.6155
  353MOL0     C48590   4.670   5.391   2.598  0.5026  1.0937 -0.3434
  353MOL0     C48591   4.700   5.533   2.637 -0.1724 -0.2989 -0.2693
  353MOL0     C48592   4.825   5.576   2.557 -0.0329 -0.7615  0.7671
  353MOL0     N48593   4.796   5.596   2.410  0.1934 -0.1095 -0.6100
  353MOL0     C48594   4.673   5.620   2.341  1.1492  0.5525  0.3806
  353MOL0     C48595   4.701   5.706   2.233  0.1840  0.5612  0.1094
  353MOL0     C48596   4.614   5.790   2.144  0.1855 -0.3865 -0.1706
  353MOL0     C48597   4.537   5.899   2.215 -1.0526 -0.0030  0.7238
  353MOL0     C48598   4.436   5.959   2.121  0.8956 -0.4344 -0.2484
  353MOL0     C48599   4.340   6.065   2.187 -0.5535 -0.3039  0.3935
  353MOL0     O48600   4.420   6.176   2.242  0.3074  0.3022  0.6201
  353MOL0     C48601   4.354   6.297   2.259  0.1049  0.7321  0.3569
  353MOL0     C48602   4.423   6.374   2.339 -0.9539 -0.4442 -0.0930
  353MOL0     C48603   4.364   6.503   2.385 -0.4834  0.4575  0.2623
  353MOL0     C48604   4.449   6.591   2.470  1.0565  0.1818  0.9465
  353MOL0     C48605   4.242   6.545   2.339  0.1603  0.8199  0.5394
  353MOL0     C48606   4.188   6.690   2.363  0.4989  0.4067  0.0246
  353MOL0     O48607   4.262   6.789   2.302 -0.3537 -1.0866  0.2624
  353MOL0     C48608   4.256   6.928   2.321  0.0615 -0.0129 -0.7999
  353MOL0     C48609   4.152   7.004   2.378 -0.0990  0.0127 -0.1123
  353MOL0     C48610   4.172   7.141   2.394  0.7829  0.1199 -0.3534
  353MOL0     C48611   4.276   7.206   2.336 -0.2652  0.0173  0.1373
  353MOL0     O48612   4.286   7.342   2.335 -0.2166  0.0443  0.5201
  353MOL0     C48613   4.241   7.396   2.212 -0.5945 -0.3194 -0.0518
  353MOL0     C48614   4.222   7.547   2.213 -0.5610 -0.3758  0.5634
  353MOL0     C48615   4.351   7.625   2.195 -0.2537  1.1589  0.6242
  353MOL0     C48616   4.370   7.668   2.052 -1.0844 -0.4063  0.5141
  353MOL0     C48617   4.270   7.766   2.007  0.2345 -0.1409  0.1074
  353MOL0     C48618   4.194   7.730   1.880  0.3675  0.8085 -0.3024
  353MOL0     C48619   4.082   7.831   1.859  0.2608  0.6596 -0.0395
  353MOL0     C48620   3.967   7.776   1.773 -0.7699 -0.7591 -0.0902
  353MOL0    Cl48621   4.034   7.743   1.605  0.0860 -0.2133 -0.4636
  353MOL0     C48622   4.372   7.133   2.271  0.1290  0.4455 -0.0991
  353MOL0     C48623   4.372   6.992   2.270  0.6824 -0.2981  0.0789
  353MOL0     O48624   4.108   6.708   2.450 -0.2235 -0.1301  0.4738
  353MOL0     C48625   4.173   6.455   2.253  0.4723 -0.5355  0.0628
  353MOL0     C48626   4.223   6.333   2.212 -0.3339  0.9630  0.3138
  353MOL0     N48627   4.844   5.723   2.242 -0.8535 -1.3438 -0.3849
  353MOL0     N48628   4.897   5.650   2.332 -0.5097 -0.0481  0.9038
  353MOL0     C48629   5.013   4.998   2.041 -1.1689 -1.0674  0.4866
  353MOL0     C48630   5.029   4.976   1.896  0.0596  0.4437  0.6562
  353MOL0     C48631   4.973   4.931   1.457 -0.3057 -0.7887  0.1965
  353MOL0     C48632   5.008   4.826   1.379 -0.2072  0.5304 -0.2509
  353MOL0     C48633   4.978   4.821   1.247 -1.0248  0.0146 -0.1469
  353MOL0     C48634   4.887   4.915   1.193 -0.8917 -0.9891  0.2394
  353MOL0     O48635   4.845   4.921   1.063  0.9990 -1.1175 -0.2859
  353MOL0     C48636   4.905   4.833   0.969 -0.0487  0.0228  0.0752
  353MOL0     C48637   4.843   4.866   0.843  0.0478 -0.0002 -0.6412
  353MOL0     C48638   4.689   4.849   0.830  1.0206  1.0628  0.0147
  353MOL0     C48639   4.651   4.884   0.683 -0.2806 -0.5372 -0.3344
  353MOL0     C48640   4.514   4.850   0.665  0.9689  0.0155 -0.7440
  353MOL0     C48641   4.395   4.816   0.677 -0.2736 -0.4400  0.9441
  353MOL0     C48642   4.840   5.016   1.270  0.7479 -0.0262  0.3006
  353MOL0     C48643   4.884   5.029   1.405 -0.5699  0.1230  0.0102
  353MOL0     C48644   4.856   5.146   1.489  0.4924 -0.1170 -0.9877
  353MOL0     H48645   4.707   4.977   1.818  1.8050 -1.1843 -2.1884
  353MOL0     H48646   4.674   5.021   2.051 -0.9818 -1.2018 -1.9996
  353MOL0     H48647   4.971   5.076   2.361 -2.1029  0.3024  1.6784
  353MOL0     H48648   4.965   4.897   2.318  1.1504  1.0389 -2.5973
  353MOL0     H48649   4.738   4.899   2.420 -0.6747  0.7938  0.7440
  353MOL0     H48650   4.881   4.923   2.512  1.7631  1.5833 -0.6342
  353MOL0     H48651   4.687   5.161   2.431  1.5475 -0.2168 -1.3479
  353MOL0     H48652   4.689   5.080   2.579 -1.1528  0.0026  0.0027
  353MOL0     H48653   4.934   5.161   2.607 -1.2050 -4.8349 -0.1529
  353MOL0     H48654   4.889   5.283   2.482  2.1481 -1.4831  0.3262
  353MOL0     H48655   4.854   5.352   2.710  1.4146  2.3015 -2.8876
  353MOL0     H48656   4.719   5.236   2.735  1.0598  0.4238 -0.8348
  353MOL0     H48657   4.655   5.391   2.490 -1.1711  2.1809 -0.1445
  353MOL0     H48658   4.568   5.383   2.635 -0.0160  5.4804 -0.3480
  353MOL0     H48659   4.714   5.554   2.744  2.2790 -1.6622 -0.2549
  353MOL0     H48660   4.612   5.586   2.600 -0.0594  0.9170  1.0964
  353MOL0     H48661   4.869   5.669   2.594 -1.2139  0.1131  0.0395
  353MOL0     H48662   4.898   5.498   2.578 -1.2989 -2.3079 -0.3525
  353MOL0     H48663   4.571   5.607   2.375  1.1260  2.0232  0.9073
  353MOL0     H48664   4.550   5.717   2.092 -0.9102 -0.5326  1.3285
  353MOL0     H48665   4.683   5.840   2.076 -0.5584  1.4052  0.3293
  353MOL0     H48666   4.485   5.851   2.298  0.6016 -2.5191  0.4274
  353MOL0     H48667   4.620   5.963   2.246  1.3099 -1.6655 -1.6614
  353MOL0     H48668   4.476   5.994   2.025 -1.0809  0.2296 -0.8918
  353MOL0     H48669   4.372   5.875   2.096  1.8583 -2.0034  2.2153
  353MOL0     H48670   4.276   6.102   2.107  1.3012  0.8682 -0.6348
  353MOL0     H48671   4.279   6.024   2.268 -3.1409  0.7433 -0.9401
  353MOL0     H48672   4.521   6.344   2.374 -1.0274  0.0923  0.5810
  353MOL0     H48673   4.399   6.627   2.561 -1.6419 -1.2839  0.1353
  353MOL0     H48674   4.488   6.678   2.416  3.0138  1.2898  3.8763
  353MOL0     H48675   4.536   6.530   2.497  2.6070  0.7874 -2.2225
  353MOL0     H48676   4.063   6.954   2.415 -1.2247  1.0916 -1.2768
  353MOL0     H48677   4.091   7.187   2.450  0.3767 -0.9867 -0.0027
  353MOL0     H48678   4.310   7.374   2.130 -0.9178  0.8522 -0.6478
  353MOL0     H48679   4.143   7.351   2.195 -0.8494 -1.1517  3.0375
  353MOL0     H48680   4.161   7.564   2.124  1.3057  1.3786 -0.4551
  353MOL0     H48681   4.174   7.586   2.303  0.4440  1.5476  0.3173
  353MOL0     H48682   4.428   7.557   2.233 -1.2207  0.3442  1.1898
  353MOL0     H48683   4.367   7.717   2.251 -0.1180  1.0177  0.8227
  353MOL0     H48684   4.359   7.576   1.994 -1.4660 -0.4950  0.7289
  353MOL0     H48685   4.469   7.713   2.054 -2.1859  2.4505 -1.7830
  353MOL0     H48686   4.191   7.780   2.081 -0.7362  4.1116 -1.4533
  353MOL0     H48687   4.319   7.863   1.992 -0.0967  0.3647  2.0987
  353MOL0     H48688   4.161   7.626   1.885 -1.2938  1.3690  1.1348
  353MOL0     H48689   4.263   7.727   1.795  0.5107 -2.7712 -0.1970
  353MOL0     H48690   4.131   7.914   1.807 -2.4631  1.4285 -1.5784
  353MOL0     H48691   4.033   7.856   1.953 -3.6940 -4.0489 -0.4368
  353MOL0     H48692   3.889   7.851   1.770 -0.9334 -0.9258 -0.0253
  353MOL0     H48693   3.930   7.690   1.830  2.0358  0.6110  4.2978
  353MOL0     H48694   4.452   7.185   2.219 -0.4685  1.4709 -0.0154
  353MOL0     H48695   4.436   6.931   2.208  0.0909 -0.5149 -0.3220
  353MOL0     H48696   4.073   6.477   2.216 -0.6366 -1.2377  2.4559
  353MOL0     H48697   4.167   6.263   2.151  1.2429 -2.7109  2.6774
  353MOL0     H48698   5.103   5.011   2.101 -1.3567 -0.6868  0.6928
  353MOL0     H48699   5.127   4.982   1.850 -1.4560  0.6165 -2.8590
  353MOL0     H48700   5.081   4.754   1.414  0.2861  0.1651 -1.9418
  353MOL0     H48701   5.013   4.736   1.189 -0.5991 -0.7262  1.1518
  353MOL0     H48702   5.012   4.854   0.968 -0.2301  0.9317 -0.6943
  353MOL0     H48703   4.881   4.729   0.996  0.6440  0.5370  3.0404
  353MOL0     H48704   4.893   4.805   0.766 -0.2762  1.2453 -1.8781
  353MOL0     H48705   4.859   4.972   0.824 -4.2023  1.0039  0.3145
  353MOL0     H48706   4.661   4.744   0.842  0.0484  1.3398  0.2389
  353MOL0     H48707   4.631   4.914   0.897  0.2573 -2.9069  3.6602
  353MOL0     H48708   4.713   4.823   0.616 -0.2991 -2.1926  1.0841
  353MOL0     H48709   4.648   4.993   0.667 -0.8697 -0.6537 -1.0323
  353MOL0     H48710   4.293   4.784   0.685  0.3882 -2.2284  3.6748
  353MOL0     H48711   4.764   5.086   1.237 -3.2169 -3.2420  1.6670
  353MOL0     H48712   4.871   5.239   1.433 -3.7637  0.5108 -1.4249
  353MOL0     H48713   4.751   5.140   1.519  0.7028  1.1769  0.0976
  353MOL0     H48714   4.919   5.153   1.578 -0.2508  2.0445 -0.5788
  354MOL0     O48715  11.480   5.097   3.081 -0.8830 -0.5725  1.2161
  354MOL0     C48716  11.420   5.206   3.113  0.5254  0.1445  0.0766
  354MOL0     O48717  11.288   5.231   3.078  0.0823 -0.3056 -0.4793
  354MOL0     C48718  11.223   5.144   2.992 -0.3063 -0.3030  0.0186
  354MOL0     C48719  11.189   5.014   3.026 -0.8217  0.3012  0.1821
  354MOL0     C48720  11.116   4.929   2.946  0.1585 -0.5522  0.2417
  354MOL0     C48721  11.047   4.984   2.829 -1.3256  0.4634 -0.5600
  354MOL0     O48722  10.962   4.920   2.739 -0.1787 -0.0236 -1.2308
  354MOL0     C48723  10.952   4.778   2.739 -0.6446 -0.5550 -0.8568
  354MOL0     C48724  10.904   4.718   2.605 -0.4728  0.0860 -1.1507
  354MOL0     C48725  10.751   4.745   2.600 -0.1896 -0.6437  0.7830
  354MOL0     C48726  10.669   4.627   2.638  0.3885 -0.0757  0.4947
  354MOL0     C48727  10.519   4.661   2.662  0.8546 -0.1753 -0.6890
  354MOL0     C48728  10.444   4.533   2.703  0.2869 -0.0449 -0.2267
  354MOL0     C48729  10.434   4.418   2.606  0.0438 -0.2492  0.0861
  354MOL0     C48730  10.351   4.455   2.483  1.1180 -0.1890 -0.2364
  354MOL0     N48731  10.324   4.335   2.400  0.6439  0.5741 -0.3488
  354MOL0     C48732  10.417   4.265   2.325 -0.0095  0.4900  0.2194
  354MOL0     C48733  10.350   4.159   2.273  0.8331  0.4653  0.3911
  354MOL0     C48734  10.405   4.050   2.189 -0.6748 -0.5410 -0.7465
  354MOL0     C48735  10.344   4.010   2.061  0.6313 -0.7706  0.7760
  354MOL0     C48736  10.426   3.920   1.977  0.4624  0.3785 -0.6699
  354MOL0     C48737  10.350   3.872   1.854  0.2878  0.1097  0.8812
  354MOL0     O48738  10.393   3.747   1.795 -0.5168  1.1326  0.8486
  354MOL0     C48739  10.394   3.624   1.860 -0.4859  0.1269  0.3129
  354MOL0     C48740  10.327   3.602   1.980  1.1053  1.1808 -0.9339
  354MOL0     C48741  10.316   3.478   2.030  0.4657  0.0139 -0.2708
  354MOL0     C48742  10.256   3.458   2.173 -0.3808  1.4135 -0.8842
  354MOL0     C48743  10.371   3.372   1.966 -0.0690  0.5325  0.3059
  354MOL0     C48744  10.381   3.243   2.026  0.5392 -0.7020 -0.1568
  354MOL0     O48745  10.271   3.178   2.040  0.1127  0.2408  0.1700
  354MOL0     C48746  10.284   3.049   2.070  0.2386 -0.0878  0.1788
  354MOL0     C48747  10.283   2.954   1.972  0.0907 -0.6402 -0.6133
  354MOL0     C48748  10.305   2.823   2.001  0.3618 -0.2893 -0.2830
  354MOL0     C48749  10.323   2.775   2.134 -0.4617 -0.5951  0.5217
  354MOL0     O48750  10.358   2.645   2.155 -0.5644  0.0989  0.0971
  354MOL0     C48751  10.379   2.608   2.294  0.2792  0.0306 -0.5154
  354MOL0     C48752  10.430   2.463   2.317 -0.0070 -0.2221  0.6375
  354MOL0     C48753  10.541   2.419   2.213 -0.1943  0.7857 -0.9871
  354MOL0     C48754  10.621   2.285   2.257  0.7096  1.2095 -0.2386
  354MOL0     C48755  10.699   2.226   2.140  0.3748 -0.2716  0.0595
  354MOL0     C48756  10.732   2.082   2.166 -0.8983  0.1004  0.2187
  354MOL0     C48757  10.771   1.999   2.035  0.2470 -0.0422 -0.2112
  354MOL0     C48758  10.804   1.846   2.048  0.0516 -1.2630 -0.5683
  354MOL0    Cl48759  10.930   1.786   1.936 -0.4507 -0.0660  0.3302
  354MOL0     C48760  10.309   2.874   2.232  0.8140  0.0536 -0.0358
  354MOL0     C48761  10.288   3.010   2.203  0.2259  0.3747 -1.2771
  354MOL0     O48762  10.491   3.210   2.069 -0.6829  0.1884  0.9100
  354MOL0     C48763  10.430   3.391   1.841  0.0743 -0.3337 -0.3431
  354MOL0     C48764  10.449   3.519   1.791 -0.8867 -1.1881 -0.0561
  354MOL0     N48765  10.219   4.170   2.305 -0.2569  0.2257 -0.3627
  354MOL0     N48766  10.200   4.275   2.377 -0.8609  0.3335  0.4064
  354MOL0     C48767  11.076   5.120   2.807  0.7734 -1.0346 -0.1704
  354MOL0     C48768  11.165   5.200   2.880  1.0853 -0.6496  0.3512
  354MOL0     C48769  11.495   5.304   3.199 -1.3642  0.5913  0.3443
  354MOL0     C48770  11.414   5.407   3.263  0.2072  0.0979 -0.7789
  354MOL0     C48771  11.469   5.515   3.335 -0.2370 -0.3516  0.2618
  354MOL0     C48772  11.608   5.525   3.342 -0.3210 -1.0261 -0.1695
  354MOL0     O48773  11.658   5.633   3.413 -0.5326 -0.9918  0.2672
  354MOL0     C48774  11.776   5.614   3.494  0.6460 -0.2568  0.3743
  354MOL0     C48775  11.722   5.622   3.637 -1.0660  0.0592 -0.5381
  354MOL0     C48776  11.753   5.762   3.697 -0.2008 -0.6521  1.3841
  354MOL0     C48777  11.674   5.877   3.625  0.7567 -0.5262 -0.1434
  354MOL0     C48778  11.645   5.983   3.726 -0.2877  0.5437  0.9864
  354MOL0     C48779  11.612   6.081   3.787 -0.1659 -0.0512 -0.4982
  354MOL0     C48780  11.697   5.430   3.267  0.4314  0.1652 -1.0470
  354MOL0     C48781  11.640   5.321   3.208  1.0971  0.6899  0.1099
  354MOL0     C48782  11.728   5.229   3.126  0.1437  0.1223  0.2127
  354MOL0     H48783  11.232   4.990   3.122 -2.0278  1.2398  0.9860
  354MOL0     H48784  11.106   4.823   2.964 -1.6951 -0.1672  1.7800
  354MOL0     H48785  10.873   4.748   2.807 -3.4398  4.0955 -1.6521
  354MOL0     H48786  11.049   4.737   2.768 -1.6650 -0.5883  2.9831
  354MOL0     H48787  10.959   4.767   2.524 -0.5374  1.6802 -0.2753
  354MOL0     H48788  10.919   4.610   2.614 -2.7864 -0.1136  2.0131
  354MOL0     H48789  10.738   4.834   2.663  1.8626  0.1775  0.1495
  354MOL0     H48790  10.725   4.775   2.498  1.8513  3.1684  1.1971
  354MOL0     H48791  10.677   4.542   2.569 -5.8605 -0.4902 -0.2690
  354MOL0     H48792  10.703   4.583   2.732 -0.9595 -0.3326  0.8829
  354MOL0     H48793  10.473   4.708   2.574  1.3196  2.3374  0.3462
  354MOL0     H48794  10.513   4.734   2.743  1.4868  2.8108 -3.1375
  354MOL0     H48795  10.488   4.517   2.802  0.4851  4.3012  0.5669
  354MOL0     H48796  10.340   4.561   2.720 -0.2244 -1.5460 -0.7141
  354MOL0     H48797  10.384   4.343   2.668 -0.0090 -0.8729 -0.6929
  354MOL0     H48798  10.536   4.390   2.577  1.3325  3.3080  0.7361
  354MOL0     H48799  10.260   4.509   2.510  0.9644 -1.5235  2.2517
  354MOL0     H48800  10.416   4.524   2.428 -2.5210  4.9351  1.1394
  354MOL0     H48801  10.523   4.289   2.317 -0.1858  0.6085 -2.9583
  354MOL0     H48802  10.409   3.961   2.253 -0.0314  1.0258  1.5254
  354MOL0     H48803  10.502   4.099   2.172 -1.8692  1.4840 -2.0943
  354MOL0     H48804  10.245   3.968   2.081  1.3384 -2.6179  0.5944
  354MOL0     H48805  10.331   4.112   2.022 -2.5487 -1.0457  0.8793
  354MOL0     H48806  10.515   3.969   1.936 -1.0705  1.9915 -2.2250
  354MOL0     H48807  10.449   3.826   2.029 -3.0706  1.8057  4.1048
  354MOL0     H48808  10.243   3.863   1.874  0.2009 -0.9819  0.0160
  354MOL0     H48809  10.357   3.953   1.780 -1.7647 -0.5189 -0.0685
  354MOL0     H48810  10.282   3.681   2.039 -2.1757  0.7679 -2.6487
  354MOL0     H48811  10.147   3.456   2.164 -0.4591 -0.9778 -0.0911
  354MOL0     H48812  10.287   3.543   2.234 -0.8050  1.1639 -0.2997
  354MOL0     H48813  10.288   3.365   2.221 -3.4250  1.0723  0.7892
  354MOL0     H48814  10.297   2.984   1.869 -0.7881  1.3246 -0.2196
  354MOL0     H48815  10.311   2.753   1.918 -0.4271 -0.0936 -0.5191
  354MOL0     H48816  10.451   2.676   2.340 -0.4042 -0.0110  0.6373
  354MOL0     H48817  10.287   2.639   2.345  1.0311 -0.7024  1.3599
  354MOL0     H48818  10.462   2.459   2.421 -1.1729  2.7190  1.2184
  354MOL0     H48819  10.351   2.387   2.316  0.6303 -0.8966  1.2569
  354MOL0     H48820  10.606   2.506   2.203  0.1767  0.5366 -0.7573
  354MOL0     H48821  10.486   2.402   2.120 -0.0487  1.7474 -1.2618
  354MOL0     H48822  10.545   2.218   2.299  2.9729 -3.8445 -3.3130
  354MOL0     H48823  10.688   2.298   2.343 -0.4940 -0.9002  1.1188
  354MOL0     H48824  10.641   2.225   2.047  3.0703 -0.1652 -1.7423
  354MOL0     H48825  10.786   2.292   2.139  0.2330 -0.0713  0.6660
  354MOL0     H48826  10.645   2.033   2.210 -1.4560  0.1307 -0.8241
  354MOL0     H48827  10.812   2.068   2.240 -0.4851 -2.3064 -0.6071
  354MOL0     H48828  10.858   2.049   1.992  1.8949 -1.3192  1.4405
  354MOL0     H48829  10.692   2.009   1.960 -1.1530 -0.5427  1.1367
  354MOL0     H48830  10.715   1.785   2.032 -1.7822  0.8727  0.8217
  354MOL0     H48831  10.847   1.826   2.147  1.8445 -2.1731 -1.4929
  354MOL0     H48832  10.319   2.848   2.337 -1.1261 -1.3694 -0.1476
  354MOL0     H48833  10.286   3.079   2.287  2.9762 -0.4950 -0.3946
  354MOL0     H48834  10.478   3.314   1.783  0.1175 -1.1308  0.7291
  354MOL0     H48835  10.502   3.541   1.700 -1.0135  0.6745  0.2831
  354MOL0     H48836  11.036   5.173   2.721 -1.9293 -1.9248  0.4660
  354MOL0     H48837  11.177   5.306   2.862  0.6936 -0.7263 -0.3957
  354MOL0     H48838  11.306   5.416   3.255  0.0824 -0.6762 -0.0464
  354MOL0     H48839  11.409   5.590   3.385 -0.3840 -0.8185  0.7998
  354MOL0     H48840  11.836   5.527   3.466  0.1021 -0.5504  0.1078
  354MOL0     H48841  11.848   5.696   3.483 -0.1453  0.7298  2.0647
  354MOL0     H48842  11.788   5.552   3.689  0.8346  0.2297 -2.5397
  354MOL0     H48843  11.615   5.603   3.653 -0.7382  0.4630  2.8050
  354MOL0     H48844  11.727   5.762   3.803  1.1318  0.6909  1.7552
  354MOL0     H48845  11.861   5.780   3.698 -0.4499  0.9333  1.4084
  354MOL0     H48846  11.583   5.833   3.584  1.4953 -0.2186 -2.1913
  354MOL0     H48847  11.714   5.907   3.528 -0.8594 -2.7921 -1.5939
  354MOL0     H48848  11.576   6.154   3.856 -0.4904 -0.2807 -0.4214
  354MOL0     H48849  11.804   5.450   3.268  0.7348 -0.3978  4.0123
  354MOL0     H48850  11.832   5.247   3.152 -0.6629  0.7551  3.4302
  354MOL0     H48851  11.717   5.124   3.154  2.9650  0.5812  3.6417
  354MOL0     H48852  11.708   5.246   3.019  0.5442 -0.1826  0.0887
  355MOL0     O48853   2.995   6.292   2.613  0.3257 -1.0830 -0.3022
  355MOL0     C48854   3.081   6.383   2.604 -0.2214  1.1880 -0.2645
  355MOL0     O48855   3.093   6.466   2.499 -0.4167 -0.4789 -0.0373
  355MOL0     C48856   3.010   6.467   2.393  0.1217  0.6175  0.0177
  355MOL0     C48857   3.062   6.462   2.262  0.2101  0.1327 -0.3342
  355MOL0     C48858   2.997   6.510   2.156  0.1476 -0.4022 -0.3415
  355MOL0     C48859   2.869   6.563   2.175 -0.1790  1.0064 -0.3965
  355MOL0     O48860   2.791   6.619   2.081  0.4627 -0.3396 -0.0092
  355MOL0     C48861   2.839   6.653   1.957 -0.8641  0.7324  0.6021
  355MOL0     C48862   2.733   6.733   1.898  0.6892  0.4788  0.5262
  355MOL0     C48863   2.710   6.875   1.934  0.7751  0.2197  0.4216
  355MOL0     C48864   2.567   6.905   1.985  0.0324 -0.1265 -0.6663
  355MOL0     C48865   2.548   7.059   1.993  0.4626 -0.4792 -0.0740
  355MOL0     C48866   2.394   7.106   1.997  0.3089  0.6411 -0.1499
  355MOL0     C48867   2.335   7.129   1.853  0.3452  0.6903  0.8896
  355MOL0     C48868   2.187   7.159   1.853  0.7115  0.8443 -0.5110
  355MOL0     N48869   2.125   7.211   1.727  0.1455  0.0336 -0.0228
  355MOL0     C48870   2.019   7.301   1.719 -0.4281 -0.1751  0.0595
  355MOL0     C48871   1.987   7.308   1.592 -0.0412 -0.0508 -0.3106
  355MOL0     C48872   1.900   7.418   1.530  0.1256 -0.0604  0.5292
  355MOL0     C48873   1.864   7.416   1.383  0.2619 -0.4487  0.7044
  355MOL0     C48874   1.772   7.298   1.350  0.5506 -0.4129 -0.4929
  355MOL0     C48875   1.746   7.279   1.194  1.9896 -0.5959 -0.1931
  355MOL0     O48876   1.645   7.375   1.156 -0.2595  0.0153 -1.1783
  355MOL0     C48877   1.614   7.387   1.030 -0.0108  0.0746 -0.2650
  355MOL0     C48878   1.533   7.500   1.010 -1.2224 -0.3547 -0.3497
  355MOL0     C48879   1.518   7.551   0.876  0.7870  0.0965  0.1691
  355MOL0     C48880   1.450   7.678   0.870  0.2947 -0.8522  0.3818
  355MOL0     C48881   1.556   7.464   0.767  0.4135 -0.3270 -0.2873
  355MOL0     C48882   1.512   7.498   0.631 -0.0509 -1.0371 -0.1097
  355MOL0     O48883   1.571   7.428   0.536 -0.5127 -0.0870  0.1321
  355MOL0     C48884   1.532   7.438   0.406 -0.6278  0.4789 -0.2648
  355MOL0     C48885   1.476   7.331   0.343 -0.3790  0.8121 -1.0862
  355MOL0     C48886   1.434   7.342   0.208  0.7533 -0.4256 -0.8737
  355MOL0     C48887   1.459   7.462   0.141 -0.3787  0.5333 -0.2870
  355MOL0     O48888   1.394   7.476   0.021 -0.1598  0.4809  0.1900
  355MOL0     C48889   1.396   7.597  -0.051 -0.2857  0.0322 -0.1032
  355MOL0     C48890   1.321   7.596  -0.194  0.5488  0.3011 -0.0834
  355MOL0     C48891   1.171   7.565  -0.201 -0.2841  0.2094 -0.1535
  355MOL0     C48892   1.107   7.641  -0.315 -0.3021 -0.0110  0.1688
  355MOL0     C48893   1.135   7.579  -0.451  0.5366 -0.0624 -0.0191
  355MOL0     C48894   1.088   7.666  -0.571  1.3629  0.7827  1.2849
  355MOL0     C48895   1.150   7.641  -0.707  0.8842 -0.3478 -0.4327
  355MOL0     C48896   1.096   7.755  -0.799  0.2492 -0.4158  0.3174
  355MOL0    Cl48897   1.203   7.894  -0.774  0.2960  0.7804  0.0318
  355MOL0     C48898   1.510   7.575   0.203  1.1435 -0.1117 -0.3465
  355MOL0     C48899   1.554   7.558   0.334  0.4383  0.1574 -0.0767
  355MOL0     O48900   1.427   7.582   0.606  0.4668 -0.5259 -0.8232
  355MOL0     C48901   1.636   7.349   0.791  0.0348 -0.1033 -0.2346
  355MOL0     C48902   1.665   7.314   0.919 -0.1070  0.2776 -0.0918
  355MOL0     N48903   2.080   7.228   1.518  0.2685  0.4264  0.5171
  355MOL0     N48904   2.157   7.170   1.604  0.1032  0.1213  0.2613
  355MOL0     C48905   2.806   6.555   2.302  0.0029  0.2670 -0.1626
  355MOL0     C48906   2.882   6.524   2.412  0.5442 -0.5091 -0.2348
  355MOL0     C48907   3.169   6.412   2.720 -0.7746 -0.2370 -0.3846
  355MOL0     C48908   3.211   6.547   2.730  0.6657  0.1225  0.6575
  355MOL0     C48909   3.257   6.599   2.841 -0.3380 -0.4034 -1.2406
  355MOL0     C48910   3.309   6.512   2.942 -0.5780 -0.5164 -0.3057
  355MOL0     O48911   3.364   6.551   3.067  0.0612 -0.5285  0.4707
  355MOL0     C48912   3.407   6.684   3.066 -0.7570  0.4041  0.3996
  355MOL0     C48913   3.295   6.764   3.136  0.9672 -0.4585  0.6881
  355MOL0     C48914   3.347   6.895   3.174  0.0245  0.1142 -0.5557
  355MOL0     C48915   3.240   7.004   3.147  0.4482  0.6294 -0.4561
  355MOL0     C48916   3.244   7.118   3.244  0.1270 -0.1075 -0.2211
  355MOL0     C48917   3.235   7.210   3.325 -0.6839  1.2493  0.3208
  355MOL0     C48918   3.300   6.373   2.920 -0.3686  0.0989  0.0178
  355MOL0     C48919   3.230   6.324   2.810  0.8626  0.0787  0.6573
  355MOL0     C48920   3.208   6.180   2.799 -0.4400 -0.0789 -0.1340
  355MOL0     H48921   3.164   6.425   2.259  0.3858  0.0323  3.0525
  355MOL0     H48922   3.043   6.499   2.058 -2.5454  0.8537 -1.8444
  355MOL0     H48923   2.857   6.560   1.903 -0.8536  0.7787  0.5260
  355MOL0     H48924   2.933   6.708   1.973 -2.8323  3.6863  3.0432
  355MOL0     H48925   2.738   6.733   1.788  2.0510 -1.7407  0.5336
  355MOL0     H48926   2.643   6.676   1.922 -0.0462  1.7362  0.8748
  355MOL0     H48927   2.791   6.899   2.004  3.2560 -0.0649 -2.2037
  355MOL0     H48928   2.725   6.926   1.839 -1.2522 -0.3632 -0.2645
  355MOL0     H48929   2.487   6.862   1.924 -2.6640  2.4760  0.7933
  355MOL0     H48930   2.553   6.856   2.081 -1.8378 -0.1650 -0.9252
  355MOL0     H48931   2.586   7.098   1.898  2.2267  2.6887  1.7799
  355MOL0     H48932   2.615   7.097   2.069  1.4567 -4.4711  1.3107
  355MOL0     H48933   2.330   7.038   2.054  0.3356  1.7110  1.2088
  355MOL0     H48934   2.399   7.205   2.044  1.8149  0.3809  0.2804
  355MOL0     H48935   2.335   7.051   1.776  0.1072 -1.0504  2.5732
  355MOL0     H48936   2.395   7.213   1.817  2.8848 -0.2209  2.7157
  355MOL0     H48937   2.134   7.068   1.882  0.6745 -0.2267 -3.6174
  355MOL0     H48938   2.162   7.236   1.927 -1.5555  0.3824 -0.7149
  355MOL0     H48939   1.978   7.365   1.797 -3.6793 -0.3717 -1.3060
  355MOL0     H48940   1.938   7.519   1.545  0.2364  0.0449 -0.4137
  355MOL0     H48941   1.811   7.407   1.593  0.8908 -2.8715  1.2623
  355MOL0     H48942   1.804   7.500   1.347 -1.1190 -2.8756 -3.2802
  355MOL0     H48943   1.959   7.412   1.329 -1.3785  2.4171 -2.8749
  355MOL0     H48944   1.824   7.209   1.388 -0.3027 -0.1955  1.3166
  355MOL0     H48945   1.680   7.302   1.409  1.7335 -0.0044  1.4156
  355MOL0     H48946   1.833   7.305   1.134  1.1186  1.0941 -0.7809
  355MOL0     H48947   1.717   7.177   1.168 -1.5239  0.3052 -0.2251
  355MOL0     H48948   1.499   7.557   1.096 -2.5892 -0.5056 -0.7736
  355MOL0     H48949   1.481   7.740   0.954  3.2758 -0.7863 -0.6199
  355MOL0     H48950   1.343   7.660   0.879  0.1934 -1.6899 -1.8063
  355MOL0     H48951   1.468   7.732   0.776  0.0885 -0.4836  0.5550
  355MOL0     H48952   1.452   7.241   0.400  3.4998 -0.9736 -1.9782
  355MOL0     H48953   1.383   7.261   0.158  0.7405 -0.6316 -0.5338
  355MOL0     H48954   1.343   7.671   0.009 -2.5072 -0.2816 -1.5654
  355MOL0     H48955   1.496   7.638  -0.073 -0.1650  0.2168  0.7805
  355MOL0     H48956   1.338   7.696  -0.235  3.8256  0.5794  1.6570
  355MOL0     H48957   1.365   7.525  -0.264  3.1514  0.1594  1.5812
  355MOL0     H48958   1.121   7.584  -0.105  3.2977  1.3276  1.6570
  355MOL0     H48959   1.163   7.456  -0.210  2.6724 -0.0668 -0.2639
  355MOL0     H48960   1.137   7.746  -0.322  0.7584 -0.3888 -1.7737
  355MOL0     H48961   0.998   7.652  -0.308 -0.2858  2.1988 -1.7024
  355MOL0     H48962   1.245   7.576  -0.449  0.6041 -3.9016  2.4014
  355MOL0     H48963   1.102   7.475  -0.462  0.1358  0.1584 -1.0042
  355MOL0     H48964   1.111   7.770  -0.549  1.1308  1.5671 -1.6951
  355MOL0     H48965   0.983   7.636  -0.575  1.1510  1.6029 -0.1787
  355MOL0     H48966   1.111   7.542  -0.734 -1.8625  1.3714 -3.6303
  355MOL0     H48967   1.259   7.635  -0.699  0.8454 -2.6667 -0.8083
  355MOL0     H48968   1.000   7.789  -0.760  0.4850 -0.8930  1.3484
  355MOL0     H48969   1.097   7.723  -0.904  2.1483  0.7212 -0.0536
  355MOL0     H48970   1.517   7.670   0.151 -1.6913  0.6950  0.5948
  355MOL0     H48971   1.604   7.640   0.385  0.7650 -0.5216  0.7231
  355MOL0     H48972   1.680   7.287   0.714  1.2292 -2.8491  2.4358
  355MOL0     H48973   1.739   7.238   0.940  1.1595  1.1839 -1.0557
  355MOL0     H48974   2.701   6.581   2.305  0.1931  0.9941  0.4702
  355MOL0     H48975   2.853   6.514   2.516  2.3160 -2.9996  0.1111
  355MOL0     H48976   3.189   6.619   2.652  0.9876 -0.5123 -0.0355
  355MOL0     H48977   3.258   6.708   2.848  0.9173 -0.4367 -0.5014
  355MOL0     H48978   3.507   6.684   3.110  0.7499 -2.5235 -2.6223
  355MOL0     H48979   3.426   6.725   2.967 -1.9733  3.5235  1.3413
  355MOL0     H48980   3.256   6.716   3.227  1.1843 -0.9269  0.5392
  355MOL0     H48981   3.209   6.776   3.070  2.1771 -1.9403 -1.2688
  355MOL0     H48982   3.362   6.903   3.282  1.9713 -0.4904 -0.7334
  355MOL0     H48983   3.436   6.913   3.112 -0.2992 -0.2898 -1.1469
  355MOL0     H48984   3.143   6.956   3.163  2.3854 -3.3368  0.4893
  355MOL0     H48985   3.248   7.042   3.044  3.4736  0.0799 -0.5046
  355MOL0     H48986   3.226   7.294   3.391 -3.0326  1.3980 -0.1092
  355MOL0     H48987   3.340   6.287   2.974  0.1207 -1.0190 -2.0150
  355MOL0     H48988   3.214   6.160   2.692  1.8152  1.8983 -0.4519
  355MOL0     H48989   3.290   6.119   2.838 -1.5406 -3.3859 -2.4589
  355MOL0     H48990   3.108   6.150   2.832 -0.8745 -2.2633 -3.0115
  356MOL0     O48991   4.626   6.040   1.450  0.2499  0.1939  0.3031
  356MOL0     C48992   4.696   6.118   1.504  0.1713  0.7979 -0.1027
  356MOL0     O48993   4.651   6.196   1.605  0.1990 -0.0783  0.4550
  356MOL0     C48994   4.519   6.196   1.650 -0.6242 -0.1085 -0.3614
  356MOL0     C48995   4.447   6.312   1.628 -0.1778 -0.3292  0.6636
  356MOL0     C48996   4.309   6.318   1.636 -0.1833  0.4858  0.1558
  356MOL0     C48997   4.237   6.212   1.671 -1.0417  0.6633  0.2201
  356MOL0     O48998   4.105   6.229   1.676 -0.4195 -0.7109 -0.4185
  356MOL0     C48999   4.047   6.232   1.813 -0.6160 -0.4143 -0.5717
  356MOL0     C49000   3.912   6.279   1.796  0.5781  0.8270 -0.4587
  356MOL0     C49001   3.850   6.335   1.915  0.1778  0.2505 -0.6518
  356MOL0     C49002   3.884   6.478   1.940 -0.0495  0.7703  0.6586
  356MOL0     C49003   3.818   6.540   2.058  0.2721 -0.1938  0.1054
  356MOL0     C49004   3.867   6.687   2.065 -0.2241  0.2345 -0.3377
  356MOL0     C49005   3.782   6.750   2.187 -0.0110 -0.0637 -0.9629
  356MOL0     C49006   3.771   6.906   2.192 -0.2259  1.0028 -0.8612
  356MOL0     N49007   3.704   6.952   2.315 -0.0809  0.4743  0.8088
  356MOL0     C49008   3.568   6.992   2.327  0.6474 -0.6970 -0.4484
  356MOL0     C49009   3.565   7.074   2.438 -0.7500  0.1775  0.2970
  356MOL0     C49010   3.441   7.145   2.503 -0.4168  0.5331 -0.4973
  356MOL0     C49011   3.406   7.276   2.437  0.3596 -0.3954  0.6604
  356MOL0     C49012   3.268   7.323   2.502  0.5381  0.0317  0.2299
  356MOL0     C49013   3.286   7.381   2.651  0.1587  0.9837 -1.0596
  356MOL0     O49014   3.405   7.458   2.649 -0.3593  0.0812  0.2446
  356MOL0     C49015   3.430   7.539   2.754  0.7028  0.0465 -0.2670
  356MOL0     C49016   3.422   7.497   2.888  0.8273  0.3289 -0.6210
  356MOL0     C49017   3.422   7.590   3.005 -0.0825  0.0884 -0.5463
  356MOL0     C49018   3.391   7.525   3.136 -0.3385  1.0358 -0.4522
  356MOL0     C49019   3.463   7.718   2.986  0.3181 -0.5420 -0.0028
  356MOL0     C49020   3.485   7.831   3.081 -0.9192 -0.7526 -0.8014
  356MOL0     O49021   3.546   7.938   3.032 -0.2034 -0.2513  0.4544
  356MOL0     C49022   3.569   8.056   3.099 -0.9527  0.8638 -0.8931
  356MOL0     C49023   3.579   8.075   3.241 -0.7085  0.9876 -0.8773
  356MOL0     C49024   3.624   8.202   3.289 -0.3892  0.8164 -0.0400
  356MOL0     C49025   3.652   8.309   3.197  0.3862  1.6595  0.0916
  356MOL0     O49026   3.712   8.424   3.241 -0.4691 -0.0089  0.3468
  356MOL0     C49027   3.764   8.506   3.139 -0.4905 -0.6535  0.3268
  356MOL0     C49028   3.826   8.623   3.214 -0.2024  0.0542  0.0036
  356MOL0     C49029   3.889   8.725   3.115  0.4257  0.3176  0.1392
  356MOL0     C49030   3.905   8.864   3.183  0.1285  0.8388 -0.1529
  356MOL0     C49031   4.000   8.954   3.117 -0.3326 -0.1113 -0.2021
  356MOL0     C49032   4.153   8.934   3.139  0.5648  0.3209 -0.8726
  356MOL0     C49033   4.246   9.026   3.051 -0.2415  0.2255  0.3003
  356MOL0     C49034   4.380   9.036   3.125  0.0774  0.5785  0.2806
  356MOL0    Cl49035   4.353   9.160   3.263 -0.1269  0.0207 -0.1100
  356MOL0     C49036   3.633   8.279   3.064  0.2106 -0.2845  0.3665
  356MOL0     C49037   3.592   8.153   3.017 -0.2303  0.1291  0.0703
  356MOL0     O49038   3.461   7.809   3.199  0.3615 -0.0691 -1.5387
  356MOL0     C49039   3.474   7.765   2.851 -0.4481  0.9601 -0.0692
  356MOL0     C49040   3.454   7.675   2.739  0.6600 -0.6463 -0.7302
  356MOL0     N49041   3.696   7.070   2.477 -0.0292  0.3343 -0.6342
  356MOL0     N49042   3.781   7.020   2.401  0.4344 -0.0886 -0.2052
  356MOL0     C49043   4.303   6.091   1.705  0.1443  0.6696  0.0817
  356MOL0     C49044   4.440   6.078   1.684 -0.8490 -0.2643 -0.3898
  356MOL0     C49045   4.846   6.125   1.470  0.5939  0.5122  0.1174
  356MOL0     C49046   4.909   6.229   1.527 -0.3393 -0.5315 -1.0211
  356MOL0     C49047   5.046   6.256   1.516  0.5044 -0.0191 -0.4472
  356MOL0     C49048   5.121   6.177   1.427 -0.0740  0.0122  0.6683
  356MOL0     O49049   5.249   6.222   1.399 -0.4363  0.0434 -1.0498
  356MOL0     C49050   5.334   6.168   1.293 -0.4145  0.4885  0.2998
  356MOL0     C49051   5.433   6.259   1.217 -0.5637 -0.2028 -0.2604
  356MOL0     C49052   5.551   6.318   1.289  0.3559 -0.1868 -0.1703
  356MOL0     C49053   5.665   6.217   1.303  0.1855  0.7251 -0.2092
  356MOL0     C49054   5.779   6.282   1.367  0.0797  0.5486 -0.0708
  356MOL0     C49055   5.866   6.335   1.424 -0.7777 -0.4773  0.2443
  356MOL0     C49056   5.056   6.069   1.364 -0.1732  0.1017  0.1847
  356MOL0     C49057   4.921   6.041   1.381  0.0240  0.0281  0.7807
  356MOL0     C49058   4.860   5.915   1.319  0.4313 -0.0548  1.4444
  356MOL0     H49059   4.498   6.400   1.589 -0.1455 -1.3568 -1.8226
  356MOL0     H49060   4.248   6.403   1.608 -0.0554  0.5977  0.2152
  356MOL0     H49061   4.102   6.299   1.880  0.5564  0.1891 -2.0798
  356MOL0     H49062   4.049   6.137   1.868  1.0942 -0.2930 -0.3753
  356MOL0     H49063   3.892   6.347   1.712 -1.0410 -0.9308 -1.5762
  356MOL0     H49064   3.854   6.189   1.776  0.4424  0.2195  2.2747
  356MOL0     H49065   3.742   6.316   1.917 -0.2296  2.0471  2.5686
  356MOL0     H49066   3.884   6.284   2.005 -2.3796 -0.3080  0.0816
  356MOL0     H49067   3.992   6.484   1.952  0.4169 -3.2515 -0.0114
  356MOL0     H49068   3.853   6.525   1.846 -0.2519 -3.3512 -1.5649
  356MOL0     H49069   3.844   6.485   2.149  1.9064 -2.6345 -1.7286
  356MOL0     H49070   3.709   6.538   2.051 -0.1638 -0.6889  4.3183
  356MOL0     H49071   3.974   6.677   2.087 -0.3890 -2.1946 -0.4140
  356MOL0     H49072   3.845   6.741   1.973  1.1452 -0.0204 -0.8410
  356MOL0     H49073   3.796   6.700   2.284  0.7821  1.4546 -0.2503
  356MOL0     H49074   3.679   6.714   2.179 -1.1702  2.4688  1.0118
  356MOL0     H49075   3.873   6.946   2.194 -0.0513  0.5618  1.2424
  356MOL0     H49076   3.720   6.945   2.104 -2.0333  4.3040  1.4391
  356MOL0     H49077   3.484   6.968   2.262  0.2670  0.6664 -0.4864
  356MOL0     H49078   3.445   7.144   2.613  0.5982 -0.8776 -0.5135
  356MOL0     H49079   3.358   7.075   2.492 -1.0592  1.1391  0.3413
  356MOL0     H49080   3.488   7.344   2.462  0.3077  0.8282 -2.1417
  356MOL0     H49081   3.401   7.276   2.328 -0.3608 -3.8875  0.5795
  356MOL0     H49082   3.235   7.408   2.442  0.5404 -0.0742  0.0779
  356MOL0     H49083   3.187   7.249   2.496 -1.9926  2.6694 -0.9056
  356MOL0     H49084   3.201   7.444   2.680 -1.1746 -0.7936 -0.9577
  356MOL0     H49085   3.295   7.304   2.727 -1.4501  1.7983  0.0217
  356MOL0     H49086   3.419   7.391   2.912  1.6698  0.4837  0.2493
  356MOL0     H49087   3.428   7.568   3.229  1.0111 -1.6611  0.3685
  356MOL0     H49088   3.429   7.422   3.135 -0.7182  0.8554 -3.2283
  356MOL0     H49089   3.282   7.518   3.134 -0.2139 -1.9920 -1.7863
  356MOL0     H49090   3.579   7.999   3.319 -2.8781  1.1557 -0.6726
  356MOL0     H49091   3.662   8.209   3.391  5.1479 -0.1658 -1.7096
  356MOL0     H49092   3.843   8.460   3.080 -1.1061 -0.5457 -0.6144
  356MOL0     H49093   3.692   8.541   3.065  0.0389  1.3851  0.7169
  356MOL0     H49094   3.741   8.681   3.252  1.6111  3.9633 -1.4688
  356MOL0     H49095   3.887   8.590   3.299 -2.1089  0.3534  1.5734
  356MOL0     H49096   3.851   8.730   3.013  1.9274 -0.0701 -0.4569
  356MOL0     H49097   3.994   8.699   3.101  2.0343  6.4493 -2.4623
  356MOL0     H49098   3.938   8.840   3.285 -2.0182  0.4497  0.5025
  356MOL0     H49099   3.806   8.910   3.185  0.7885  2.6481 -3.3039
  356MOL0     H49100   3.991   8.954   3.008  2.4170 -2.3314 -0.5648
  356MOL0     H49101   3.986   9.055   3.156  2.9514  0.0614  0.8629
  356MOL0     H49102   4.178   8.828   3.133  0.8240  0.3830 -0.9122
  356MOL0     H49103   4.168   8.962   3.244 -2.8872 -3.0707  0.7819
  356MOL0     H49104   4.204   9.127   3.049 -2.6278 -0.6945  0.5177
  356MOL0     H49105   4.266   8.986   2.951  1.7337 -3.5809  2.0069
  356MOL0     H49106   4.459   9.070   3.057  0.4170 -1.9890 -0.6996
  356MOL0     H49107   4.406   8.944   3.178 -0.3612  0.0410 -0.4122
  356MOL0     H49108   3.636   8.345   2.977 -1.6377 -3.0902 -1.9930
  356MOL0     H49109   3.604   8.142   2.909 -1.8232 -0.1376 -0.0925
  356MOL0     H49110   3.464   7.870   2.826 -2.6134  0.4221 -1.7662
  356MOL0     H49111   3.462   7.704   2.635 -0.1093  4.2475  0.3400
  356MOL0     H49112   4.251   6.000   1.733 -0.0985  1.0631  0.9376
  356MOL0     H49113   4.501   5.989   1.689  1.2456  0.9056 -2.7407
  356MOL0     H49114   4.855   6.297   1.592 -0.1338 -1.0962 -0.2552
  356MOL0     H49115   5.078   6.345   1.571  0.9748  0.0612 -0.8503
  356MOL0     H49116   5.393   6.090   1.343 -2.1523  0.9265  3.2422
  356MOL0     H49117   5.273   6.117   1.218  0.4120 -1.8464  1.0978
  356MOL0     H49118   5.379   6.345   1.178 -2.8815 -0.7797  1.4219
  356MOL0     H49119   5.469   6.205   1.129 -0.4477 -3.5983  1.6667
  356MOL0     H49120   5.586   6.413   1.249  2.7364 -1.3298 -1.0315
  356MOL0     H49121   5.516   6.337   1.391 -0.4642  0.6784 -0.6005
  356MOL0     H49122   5.697   6.170   1.210 -0.7738 -3.0323  1.2016
  356MOL0     H49123   5.631   6.135   1.366 -3.4124  0.0137 -2.8051
  356MOL0     H49124   5.952   6.381   1.467 -0.1494  0.7754 -2.1698
  356MOL0     H49125   5.122   6.005   1.307  1.0786 -0.0003  1.6652
  356MOL0     H49126   4.825   5.856   1.404  1.9535 -3.9667 -0.3950
  356MOL0     H49127   4.774   5.934   1.255  2.0352  0.2019 -0.7308
  356MOL0     H49128   4.927   5.855   1.257  0.6938  1.9588 -0.3360
  357MOL0     O49129  11.289   0.381   4.924  0.4134 -0.8697  0.4464
  357MOL0     C49130  11.406   0.350   4.950  0.3546  0.1711  0.4377
  357MOL0     O49131  11.514   0.381   4.879 -0.5037  0.2356  0.1388
  357MOL0     C49132  11.507   0.484   4.790  0.2137 -0.1503 -0.0359
  357MOL0     C49133  11.414   0.495   4.680  0.3976 -0.3757 -0.3471
  357MOL0     C49134  11.407   0.615   4.610  1.0032 -0.1634 -0.0514
  357MOL0     C49135  11.479   0.725   4.652  0.0655  0.6556 -0.9062
  357MOL0     O49136  11.470   0.853   4.608  0.5762 -0.5741  0.2705
  357MOL0     C49137  11.409   0.872   4.481 -0.1618  0.5021 -0.2054
  357MOL0     C49138  11.507   0.840   4.364 -0.4808  0.8718  0.7829
  357MOL0     C49139  11.472   0.903   4.224 -0.2135  0.9505  0.0006
  357MOL0     C49140  11.386   1.019   4.233 -0.4268 -1.2074 -0.4332
  357MOL0     C49141  11.343   1.098   4.097 -0.2975  0.2834  0.5572
  357MOL0     C49142  11.448   1.104   3.994  0.3733 -0.0449  0.1927
  357MOL0     C49143  11.412   1.190   3.871 -0.4934 -0.9369 -0.2075
  357MOL0     C49144  11.300   1.138   3.796  1.0106  0.6746 -0.7765
  357MOL0     N49145  11.311   1.197   3.663  0.6338 -0.1330  0.3689
  357MOL0     C49146  11.200   1.236   3.592 -0.7424 -0.1834  0.5151
  357MOL0     C49147  11.252   1.299   3.487 -1.0592 -0.2980 -1.1712
  357MOL0     C49148  11.193   1.390   3.386  0.0395 -0.1411  0.0394
  357MOL0     C49149  11.264   1.524   3.378 -0.5927  0.4681  0.2607
  357MOL0     C49150  11.235   1.605   3.506  0.1763 -0.6245 -0.1442
  357MOL0     C49151  11.246   1.757   3.503  0.8122 -0.2990  0.5483
  357MOL0     O49152  11.139   1.818   3.432 -0.1982  0.3627  0.6888
  357MOL0     C49153  11.167   1.844   3.291 -0.2786  0.2409  0.3718
  357MOL0     C49154  11.287   1.811   3.223  1.4473 -0.9663  0.0959
  357MOL0     C49155  11.290   1.835   3.088 -0.6490 -0.6671  1.0824
  357MOL0     C49156  11.417   1.804   3.021 -0.0717 -0.5682 -0.3737
  357MOL0     C49157  11.173   1.876   3.014 -0.1310  0.1248 -1.1474
  357MOL0     C49158  11.163   1.883   2.861  0.0713 -0.1367 -0.9950
  357MOL0     O49159  11.049   1.916   2.811 -0.0791 -0.3119  0.6916
  357MOL0     C49160  11.045   1.968   2.683 -0.5431 -0.4875 -0.5597
  357MOL0     C49161  10.999   1.895   2.575 -0.2945  0.6456  0.0940
  357MOL0     C49162  10.999   1.948   2.441 -0.3389  0.1338 -0.9324
  357MOL0     C49163  11.056   2.073   2.422 -0.3574  1.1854 -1.2446
  357MOL0     O49164  11.042   2.133   2.299  0.3283 -0.0905  0.1419
  357MOL0     C49165  11.148   2.213   2.236 -0.2119  0.2487  0.2978
  357MOL0     C49166  11.160   2.184   2.080 -0.6030  0.2968  0.0215
  357MOL0     C49167  11.216   2.054   2.048  0.2046 -0.3995  0.0690
  357MOL0     C49168  11.362   2.056   2.022 -0.1347 -0.6060 -0.4161
  357MOL0     C49169  11.438   1.932   1.993  0.4177  0.8831  0.0914
  357MOL0     C49170  11.375   1.834   1.889 -1.1070 -0.4145 -0.0722
  357MOL0     C49171  11.471   1.729   1.823  0.4992 -0.0041 -0.5693
  357MOL0     C49172  11.396   1.596   1.808 -0.2713 -0.2692  0.3834
  357MOL0    Cl49173  11.510   1.467   1.740 -0.0506  0.1451 -0.3300
  357MOL0     C49174  11.107   2.139   2.534 -0.1609  0.3270  0.4267
  357MOL0     C49175  11.105   2.101   2.664  0.0606  0.3352  0.0433
  357MOL0     O49176  11.270   1.872   2.799  0.3007 -0.1267  0.2928
  357MOL0     C49177  11.064   1.925   3.089 -0.6318  0.9960 -0.3638
  357MOL0     C49178  11.067   1.907   3.228  0.1217 -0.5703 -0.5224
  357MOL0     N49179  11.385   1.273   3.479 -0.2290 -0.1148  0.3616
  357MOL0     N49180  11.415   1.217   3.589  0.0270  0.0514 -0.0535
  357MOL0     C49181  11.567   0.718   4.759 -0.0828 -0.2658  0.8024
  357MOL0     C49182  11.591   0.597   4.819  0.0156  0.9006  0.2956
  357MOL0     C49183  11.433   0.258   5.055 -0.7089  0.3057 -0.5200
  357MOL0     C49184  11.564   0.223   5.086  0.1801 -0.6928 -0.1773
  357MOL0     C49185  11.601   0.126   5.182 -1.1708  0.3120 -0.4157
  357MOL0     C49186  11.504   0.064   5.262  0.0265 -0.0200 -1.3759
  357MOL0     O49187  11.550  -0.022   5.363 -0.3870 -0.8959  0.1254
  357MOL0     C49188  11.444  -0.098   5.428  0.5377 -0.0253  0.1915
  357MOL0     C49189  11.507  -0.195   5.536 -0.8173  0.4167  0.3405
  357MOL0     C49190  11.565  -0.308   5.454  0.0562 -0.6047 -0.9682
  357MOL0     C49191  11.677  -0.374   5.541 -0.2038 -0.4723  0.7396
  357MOL0     C49192  11.615  -0.479   5.617  0.2923 -0.5227  0.6566
  357MOL0     C49193  11.547  -0.562   5.674  0.9835  0.2960 -0.5559
  357MOL0     C49194  11.367   0.092   5.227  0.2207 -0.3983 -0.5837
  357MOL0     C49195  11.335   0.196   5.132  1.4773  0.2092 -0.6663
  357MOL0     C49196  11.186   0.215   5.130  0.4250  0.6906 -0.1853
  357MOL0     H49197  11.346   0.410   4.677 -0.3349  0.1730  0.2309
  357MOL0     H49198  11.318   0.635   4.552  0.0175  0.0992  1.4757
  357MOL0     H49199  11.379   0.976   4.470  1.5865  1.0348 -0.2341
  357MOL0     H49200  11.315   0.817   4.478  1.1928 -1.9443 -2.4162
  357MOL0     H49201  11.604   0.880   4.395  0.2601 -1.1335  1.1912
  357MOL0     H49202  11.518   0.732   4.355  2.0823  0.9054  2.5147
  357MOL0     H49203  11.571   0.932   4.188  2.1166 -1.1309  3.9852
  357MOL0     H49204  11.430   0.837   4.148  3.9650  0.4538 -2.1420
  357MOL0     H49205  11.291   0.998   4.283 -2.7046 -2.7007 -4.8434
  357MOL0     H49206  11.434   1.095   4.295 -0.6876 -0.5014 -1.0790
  357MOL0     H49207  11.328   1.200   4.133 -0.6058  1.3766 -2.3884
  357MOL0     H49208  11.250   1.054   4.061 -0.7379  0.1152  1.8562
  357MOL0     H49209  11.537   1.155   4.030  1.9535  0.6566 -4.0756
  357MOL0     H49210  11.472   1.001   3.966  0.9116  0.5430 -1.6754
  357MOL0     H49211  11.499   1.185   3.805 -1.2344 -2.5035 -1.1211
  357MOL0     H49212  11.397   1.296   3.894  1.3548 -0.5205 -0.7883
  357MOL0     H49213  11.319   1.030   3.792 -1.7872 -0.1835  2.9462
  357MOL0     H49214  11.204   1.154   3.845 -0.1652 -3.0276 -1.5753
  357MOL0     H49215  11.105   1.257   3.640 -0.0848  4.9087  0.1359
  357MOL0     H49216  11.088   1.395   3.414 -1.1082  0.9371 -3.8006
  357MOL0     H49217  11.207   1.326   3.298  0.0040  0.2570 -0.2605
  357MOL0     H49218  11.368   1.505   3.350 -1.1296 -0.3662 -1.2922
  357MOL0     H49219  11.215   1.576   3.294 -0.0346  2.8732  1.3279
  357MOL0     H49220  11.132   1.581   3.533  0.4948 -0.4378  1.3018
  357MOL0     H49221  11.300   1.563   3.584  2.8274  3.7992  0.3300
  357MOL0     H49222  11.237   1.802   3.602  1.4992  1.7714 -0.2744
  357MOL0     H49223  11.346   1.781   3.466  0.1668  0.3391 -0.8657
  357MOL0     H49224  11.375   1.763   3.267  2.1131  1.7450  1.9363
  357MOL0     H49225  11.437   1.882   2.946 -1.0682 -0.1136 -0.1852
  357MOL0     H49226  11.409   1.703   2.980 -2.0949 -0.5168 -0.1988
  357MOL0     H49227  11.495   1.806   3.097  0.3934 -4.4861 -0.5436
  357MOL0     H49228  10.959   1.794   2.578 -1.8442  1.2318  0.5422
  357MOL0     H49229  10.968   1.888   2.357 -2.8222 -0.7658  0.5182
  357MOL0     H49230  11.118   2.318   2.242 -2.2648 -0.2618 -0.1380
  357MOL0     H49231  11.242   2.198   2.289  1.7551  1.9691 -2.4538
  357MOL0     H49232  11.059   2.205   2.044 -1.1391  0.2290  1.4277
  357MOL0     H49233  11.225   2.264   2.043 -1.1753  0.6764 -0.1807
  357MOL0     H49234  11.195   2.017   1.947 -0.3272  0.8650 -0.3141
  357MOL0     H49235  11.191   1.980   2.124 -1.0311 -0.8741 -0.7604
  357MOL0     H49236  11.416   2.103   2.105  0.6432  1.4096 -1.9711
  357MOL0     H49237  11.363   2.125   1.937 -0.4201 -1.6407 -1.2817
  357MOL0     H49238  11.535   1.965   1.956  0.4029  2.3538  1.2737
  357MOL0     H49239  11.471   1.877   2.081 -0.6596  1.5872  0.9651
  357MOL0     H49240  11.350   1.907   1.812  2.0729  2.3508  1.2518
  357MOL0     H49241  11.290   1.781   1.934  0.5516 -1.6649  1.7802
  357MOL0     H49242  11.554   1.714   1.893 -1.5158  1.3487  2.3073
  357MOL0     H49243  11.515   1.766   1.730 -0.2873 -2.0254 -1.8048
  357MOL0     H49244  11.318   1.609   1.733  0.8136 -1.2867 -0.9764
  357MOL0     H49245  11.360   1.553   1.902 -0.1563 -2.5345 -0.5321
  357MOL0     H49246  11.142   2.238   2.509 -0.5811 -0.3710 -3.6416
  357MOL0     H49247  11.149   2.153   2.748  2.2148 -1.9077  0.4104
  357MOL0     H49248  10.981   1.975   3.040 -1.3069  1.9141  1.6306
  357MOL0     H49249  10.978   1.938   3.281  1.7999  3.3383  0.3703
  357MOL0     H49250  11.622   0.806   4.791  2.8779 -2.0016  0.8696
  357MOL0     H49251  11.651   0.585   4.908 -0.7820  1.6067  0.9475
  357MOL0     H49252  11.639   0.280   5.033 -0.8083  1.0218  0.1994
  357MOL0     H49253  11.701   0.130   5.226 -1.0937 -0.5788 -0.4941
  357MOL0     H49254  11.381  -0.026   5.481  0.2531 -1.7814  2.3749
  357MOL0     H49255  11.381  -0.146   5.352  0.3817  2.2467 -1.1993
  357MOL0     H49256  11.424  -0.223   5.602 -1.4257  2.3956  0.4816
  357MOL0     H49257  11.583  -0.135   5.587  1.7443  0.8875 -3.6079
  357MOL0     H49258  11.492  -0.381   5.418 -0.2895 -2.0457  2.3446
  357MOL0     H49259  11.611  -0.268   5.362 -2.2529  0.4928 -1.7212
  357MOL0     H49260  11.731  -0.306   5.607  3.6683 -1.7649 -0.8034
  357MOL0     H49261  11.745  -0.425   5.472 -0.0425 -0.7273  1.0835
  357MOL0     H49262  11.497  -0.649   5.711  1.7351  0.0661 -0.0485
  357MOL0     H49263  11.283   0.053   5.285  0.8532 -1.1116 -0.1298
  357MOL0     H49264  11.136   0.308   5.103  0.5954  0.3830 -1.6695
  357MOL0     H49265  11.145   0.143   5.058  1.1316 -0.1930  0.2734
  357MOL0     H49266  11.149   0.182   5.227  3.4455 -0.6029  0.6646
  358MOL0     O49267   8.240   8.670   7.392 -0.8236 -0.3495  0.3770
  358MOL0     C49268   8.273   8.572   7.323 -0.7009  0.5209 -0.5456
  358MOL0     O49269   8.196   8.457   7.318 -0.2159 -0.3601  0.0933
  358MOL0     C49270   8.094   8.436   7.404 -0.8280 -0.3454  0.2971
  358MOL0     C49271   8.001   8.528   7.444 -0.0621 -0.1166  0.0826
  358MOL0     C49272   7.890   8.485   7.520 -0.0290 -0.1000  0.6954
  358MOL0     C49273   7.881   8.352   7.559  0.0264  1.0851  0.0313
  358MOL0     O49274   7.772   8.314   7.647  0.7215 -0.3587  0.6942
  358MOL0     C49275   7.778   8.209   7.735  0.5666  0.0624 -0.1490
  358MOL0     C49276   7.878   8.232   7.847  0.3866  0.2213  0.7147
  358MOL0     C49277   7.919   8.105   7.913  0.3308  0.4830 -0.4214
  358MOL0     C49278   7.947   8.143   8.065 -0.3251 -0.3558  1.2684
  358MOL0     C49279   7.990   8.016   8.148 -0.8789  0.2362  0.2823
  358MOL0     C49280   8.140   7.993   8.159  0.1246  0.1049 -0.0667
  358MOL0     C49281   8.177   7.873   8.247 -0.9838 -0.4244 -0.5116
  358MOL0     C49282   8.328   7.847   8.261 -0.9095 -0.0950  0.5371
  358MOL0     N49283   8.357   7.795   8.391 -0.2175  0.0271 -0.2604
  358MOL0     C49284   8.311   7.837   8.513 -0.1491 -0.0978 -0.0096
  358MOL0     C49285   8.353   7.746   8.601 -0.6627  0.4258 -0.0561
  358MOL0     C49286   8.316   7.743   8.741 -0.3319  0.7345 -0.6208
  358MOL0     C49287   8.435   7.700   8.826  0.4075 -0.1433  0.2134
  358MOL0     C49288   8.404   7.735   8.969  0.3681  0.2919 -0.3413
  358MOL0     C49289   8.457   7.865   9.009 -0.4724 -0.7272 -0.1586
  358MOL0     O49290   8.383   7.915   9.119  0.1458  0.6883  0.0199
  358MOL0     C49291   8.438   8.018   9.194  0.8496  0.2538  0.9121
  358MOL0     C49292   8.549   8.092   9.157  0.7473  0.4951  0.3727
  358MOL0     C49293   8.589   8.184   9.251  0.2497 -0.7626 -0.0292
  358MOL0     C49294   8.707   8.268   9.215  0.5669 -0.1743  0.4374
  358MOL0     C49295   8.531   8.205   9.379 -0.3431  0.1642  0.0077
  358MOL0     C49296   8.565   8.323   9.469  0.7507  0.0977  1.0407
  358MOL0     O49297   8.642   8.319   9.573  0.3424 -0.3270  0.2542
  358MOL0     C49298   8.655   8.209   9.642 -0.6180 -0.7930  0.0040
  358MOL0     C49299   8.718   8.094   9.592 -0.5458  0.0738 -0.0854
  358MOL0     C49300   8.737   7.977   9.668  0.1194  0.3943 -1.4311
  358MOL0     C49301   8.694   7.981   9.795 -0.2419  0.2965 -0.6280
  358MOL0     O49302   8.726   7.867   9.866 -0.8077  0.1788 -0.0576
  358MOL0     C49303   8.637   7.831   9.972 -0.1538  0.8668  0.5095
  358MOL0     C49304   8.721   7.836  10.106 -0.0062  0.5740 -0.4858
  358MOL0     C49305   8.779   7.690  10.154  0.4468  0.0146  0.1623
  358MOL0     C49306   8.822   7.686  10.299  0.3742  0.7151 -0.0881
  358MOL0     C49307   8.692   7.656  10.374  0.9294  0.3558 -1.3577
  358MOL0     C49308   8.695   7.713  10.505  0.2967 -0.2177  1.0198
  358MOL0     C49309   8.790   7.667  10.607 -0.3358  0.2864  0.7837
  358MOL0     C49310   8.735   7.567  10.708 -0.1621  0.4397 -0.2298
  358MOL0    Cl49311   8.607   7.629  10.820 -0.3689 -0.0480  0.1047
  358MOL0     C49312   8.637   8.095   9.851  1.6738  0.3978  0.9353
  358MOL0     C49313   8.628   8.214   9.778  0.1095  0.4631 -0.8556
  358MOL0     O49314   8.532   8.430   9.422 -0.0635 -0.1479  0.4385
  358MOL0     C49315   8.434   8.108   9.420  0.0233 -0.1792  0.0209
  358MOL0     C49316   8.387   8.020   9.326 -0.4247  0.1365  0.1407
  358MOL0     N49317   8.415   7.639   8.530  0.1664  0.3970  0.5122
  358MOL0     N49318   8.427   7.677   8.403 -0.1094  0.0182 -1.4001
  358MOL0     C49319   7.969   8.261   7.509  0.3818 -0.3231 -0.3921
  358MOL0     C49320   8.069   8.305   7.431 -0.1839  0.6549  0.1048
  358MOL0     C49321   8.382   8.587   7.228  0.2119  0.3978  0.1116
  358MOL0     C49322   8.402   8.716   7.167 -0.8820  0.3655 -0.0091
  358MOL0     C49323   8.509   8.733   7.083  0.2906  0.3458  0.2017
  358MOL0     C49324   8.606   8.636   7.057  1.1601  1.1426  0.7285
  358MOL0     O49325   8.710   8.654   6.962  0.1496  0.4204  0.6226
  358MOL0     C49326   8.698   8.761   6.860 -0.1587  0.4854  0.4597
  358MOL0     C49327   8.587   8.744   6.761  0.2807 -1.5197 -0.4445
  358MOL0     C49328   8.557   8.600   6.721 -0.0588  1.1255  0.2161
  358MOL0     C49329   8.519   8.587   6.582 -0.5918 -0.3825  0.4114
  358MOL0     C49330   8.546   8.456   6.531  0.5028  0.1574  0.7086
  358MOL0     C49331   8.581   8.341   6.522 -0.1352  1.1183  0.1151
  358MOL0     C49332   8.600   8.516   7.129  0.4401 -1.5215 -0.3092
  358MOL0     C49333   8.482   8.486   7.210 -0.9342 -0.3262  0.7273
  358MOL0     C49334   8.465   8.341   7.262  0.8103  0.4513  0.3631
  358MOL0     H49335   7.996   8.633   7.418  1.4021  0.0687  0.4466
  358MOL0     H49336   7.805   8.549   7.543  0.8406  1.2941  0.2018
  358MOL0     H49337   7.785   8.115   7.680 -2.6106  0.6324 -1.7712
  358MOL0     H49338   7.676   8.198   7.774  0.3103 -0.2184 -0.8879
  358MOL0     H49339   7.962   8.296   7.818  0.3191  0.8937  1.9405
  358MOL0     H49340   7.824   8.286   7.925 -0.5766 -1.3260  1.1630
  358MOL0     H49341   7.839   8.031   7.901  3.5651 -3.5104  0.1426
  358MOL0     H49342   8.005   8.060   7.862 -0.0140  0.3436 -0.8943
  358MOL0     H49343   8.013   8.228   8.081  0.0504 -0.5592  0.8482
  358MOL0     H49344   7.851   8.173   8.107 -0.3149  1.3143  0.1816
  358MOL0     H49345   7.935   7.925   8.123  2.8026 -1.3973 -2.8806
  358MOL0     H49346   7.961   8.053   8.247  2.2637  1.7376  0.7535
  358MOL0     H49347   8.186   7.972   8.062  0.7207 -0.5899  0.3455
  358MOL0     H49348   8.195   8.081   8.194  3.5214 -1.6064 -0.5677
  358MOL0     H49349   8.138   7.778   8.208  0.5644 -2.7272  2.9845
  358MOL0     H49350   8.135   7.896   8.345  1.5280  3.4444 -0.1220
  358MOL0     H49351   8.361   7.786   8.176  2.3618  1.3229  0.6297
  358MOL0     H49352   8.388   7.938   8.256 -0.9248  0.0105  1.8438
  358MOL0     H49353   8.255   7.927   8.538 -0.2612  0.7436 -2.9403
  358MOL0     H49354   8.239   7.668   8.762  1.5907 -1.7612 -1.9296
  358MOL0     H49355   8.273   7.836   8.779  0.7264  0.7224  0.6728
  358MOL0     H49356   8.430   7.591   8.821 -2.2921 -0.0379 -1.3129
  358MOL0     H49357   8.527   7.738   8.780  0.2177 -1.8068 -1.6751
  358MOL0     H49358   8.295   7.730   8.983  0.5131 -5.2106  1.1671
  358MOL0     H49359   8.422   7.652   9.038 -4.9639 -3.9295 -3.1761
  358MOL0     H49360   8.563   7.856   9.035 -0.6748  0.9856  1.4916
  358MOL0     H49361   8.458   7.931   8.921 -0.3919 -0.3394  0.1315
  358MOL0     H49362   8.599   8.083   9.061 -0.9407  1.2920 -0.6356
  358MOL0     H49363   8.713   8.368   9.257 -0.6329  0.0540  0.1157
  358MOL0     H49364   8.715   8.265   9.106 -0.9702  1.6816  0.2176
  358MOL0     H49365   8.784   8.209   9.264 -0.5691 -1.7353  0.4471
  358MOL0     H49366   8.744   8.094   9.487 -0.5289  1.3164 -0.0979
  358MOL0     H49367   8.783   7.886   9.631 -1.4917  0.3025 -3.3724
  358MOL0     H49368   8.550   7.896   9.974  0.3421  1.6294 -1.0000
  358MOL0     H49369   8.597   7.731   9.952 -0.1937  0.7244  1.2672
  358MOL0     H49370   8.808   7.901  10.094 -0.6474  1.1644 -2.1726
  358MOL0     H49371   8.652   7.874  10.182 -0.2812  0.7130 -0.8015
  358MOL0     H49372   8.872   7.677  10.097 -0.1158 -2.0186 -0.3882
  358MOL0     H49373   8.715   7.608  10.122  1.5117 -0.9332  0.3655
  358MOL0     H49374   8.861   7.785  10.324 -2.7988  2.7449 -2.4173
  358MOL0     H49375   8.894   7.608  10.325 -3.9533 -3.1215  1.9954
  358MOL0     H49376   8.604   7.690  10.319 -1.0998 -2.0226  0.2520
  358MOL0     H49377   8.684   7.548  10.391 -2.8285  0.2277 -2.9839
  358MOL0     H49378   8.599   7.703  10.557  0.9389 -0.6320  2.1664
  358MOL0     H49379   8.709   7.821  10.489 -1.3800  0.0098  0.9215
  358MOL0     H49380   8.829   7.756  10.658  3.1979 -1.4524  1.3917
  358MOL0     H49381   8.873   7.621  10.553 -1.1418  0.4440 -0.6630
  358MOL0     H49382   8.825   7.533  10.761  1.5019  2.3364 -1.6943
  358MOL0     H49383   8.686   7.479  10.666 -2.6901  1.8720 -0.4406
  358MOL0     H49384   8.607   8.092   9.956  0.0824 -2.7701  0.5147
  358MOL0     H49385   8.567   8.293   9.821 -2.3912 -1.2191 -1.0765
  358MOL0     H49386   8.387   8.109   9.517  0.6141 -1.2534  0.3382
  358MOL0     H49387   8.324   7.936   9.350  1.6340 -1.1506  1.3844
  358MOL0     H49388   7.963   8.157   7.539 -1.0479 -0.2419 -0.3403
  358MOL0     H49389   8.140   8.231   7.396 -0.3155 -3.1735  6.3220
  358MOL0     H49390   8.338   8.803   7.181 -1.1617  0.1692 -0.0481
  358MOL0     H49391   8.510   8.831   7.035 -1.1042  0.7693  0.9602
  358MOL0     H49392   8.683   8.861   6.902 -0.8677 -0.4522  2.5409
  358MOL0     H49393   8.792   8.748   6.806  0.2486 -1.0420  1.4776
  358MOL0     H49394   8.614   8.800   6.672 -3.6153 -0.8516 -1.3951
  358MOL0     H49395   8.497   8.796   6.796  0.9543 -0.4087 -0.3301
  358MOL0     H49396   8.641   8.534   6.744 -2.3807 -1.5879  1.4271
  358MOL0     H49397   8.472   8.557   6.774 -0.5034  3.0798  1.1484
  358MOL0     H49398   8.573   8.657   6.517 -3.6243  1.2612 -0.5369
  358MOL0     H49399   8.412   8.612   6.582 -1.0601 -2.1004  2.2061
  358MOL0     H49400   8.617   8.240   6.527  1.9415  1.8336  0.8913
  358MOL0     H49401   8.669   8.435   7.107 -0.4441 -2.1438 -0.8589
  358MOL0     H49402   8.404   8.308   7.178  3.9566 -0.8606 -1.5715
  358MOL0     H49403   8.556   8.281   7.263  1.2435  0.8856 -2.6882
  358MOL0     H49404   8.402   8.336   7.351 -0.9690  4.4416 -0.4324
  359MOL0     O49405  10.231   6.065   0.795 -0.5689  0.6232  0.4457
  359MOL0     C49406  10.238   6.157   0.875  0.4532 -0.2655 -0.8522
  359MOL0     O49407  10.220   6.284   0.834  0.7656 -0.6613 -0.4718
  359MOL0     C49408  10.209   6.319   0.700 -0.9022  0.4385  0.0461
  359MOL0     C49409  10.084   6.321   0.634 -0.6940  0.2887  0.6784
  359MOL0     C49410  10.073   6.389   0.508 -0.9225 -0.0861 -0.2060
  359MOL0     C49411  10.184   6.447   0.445 -0.3097 -0.5204  0.0668
  359MOL0     O49412  10.178   6.517   0.327 -0.3694  0.5228 -0.0928
  359MOL0     C49413  10.050   6.546   0.272 -0.3269  0.2177  0.0456
  359MOL0     C49414   9.979   6.658   0.351 -0.2553  0.1680  0.0481
  359MOL0     C49415   9.853   6.702   0.282  0.0528 -0.3187  0.3341
  359MOL0     C49416   9.795   6.842   0.341  0.5994 -0.6957  0.0166
  359MOL0     C49417   9.684   6.916   0.256  0.6758 -0.4487 -0.4503
  359MOL0     C49418   9.546   6.863   0.286 -0.6022  0.0372 -0.4369
  359MOL0     C49419   9.439   6.941   0.211  0.2582  0.4148 -0.2159
  359MOL0     C49420   9.304   6.883   0.262 -0.2767 -0.0389  0.0882
  359MOL0     N49421   9.199   6.930   0.173 -0.1360 -0.5732 -0.0204
  359MOL0     C49422   9.122   6.845   0.101  0.2890 -0.5989 -1.2766
  359MOL0     C49423   9.028   6.926   0.042 -1.2331 -0.4381  0.3865
  359MOL0     C49424   8.929   6.856  -0.044  0.0786  0.0499  0.0908
  359MOL0     C49425   8.824   6.952  -0.105  0.0916  0.0973  0.2760
  359MOL0     C49426   8.732   6.856  -0.187 -0.2776  0.8624  0.0403
  359MOL0     C49427   8.785   6.853  -0.333 -0.1246  0.2074 -0.8498
  359MOL0     O49428   8.706   6.764  -0.414  0.1802 -0.3634  0.3717
  359MOL0     C49429   8.715   6.775  -0.555  0.4286  1.1910  0.1149
  359MOL0     C49430   8.826   6.828  -0.624 -0.3072  0.4257  0.1616
  359MOL0     C49431   8.837   6.830  -0.767  1.1866 -0.1613 -0.1658
  359MOL0     C49432   8.950   6.910  -0.827 -0.6284 -0.3737  0.3908
  359MOL0     C49433   8.729   6.763  -0.842 -0.0086 -0.1894 -0.8134
  359MOL0     C49434   8.728   6.751  -0.990 -0.8163 -0.4185  1.0612
  359MOL0     O49435   8.610   6.736  -1.044  0.1122  0.0258  0.0607
  359MOL0     C49436   8.595   6.763  -1.182  0.9142 -0.1133  0.2208
  359MOL0     C49437   8.553   6.652  -1.267  0.3089 -0.6688  0.3874
  359MOL0     C49438   8.530   6.678  -1.401  0.0565 -0.1792  0.0937
  359MOL0     C49439   8.551   6.795  -1.460 -0.2624 -0.3542  0.2957
  359MOL0     O49440   8.530   6.841  -1.593 -0.4470  0.1697  0.1941
  359MOL0     C49441   8.485   6.744  -1.691  0.0682 -0.3652 -0.0509
  359MOL0     C49442   8.330   6.734  -1.683 -0.3599  0.1847  0.4790
  359MOL0     C49443   8.269   6.662  -1.808  0.8680 -0.4335 -0.2903
  359MOL0     C49444   8.118   6.700  -1.819  0.3395  1.7278 -0.6297
  359MOL0     C49445   8.049   6.620  -1.937  0.2611  0.1376  0.7162
  359MOL0     C49446   7.895   6.632  -1.943 -0.6058  0.8888  0.0069
  359MOL0     C49447   7.832   6.517  -2.025  1.0516  0.5290  0.1409
  359MOL0     C49448   7.686   6.547  -2.071 -0.0648  0.0756 -0.0126
  359MOL0    Cl49449   7.691   6.687  -2.176  0.3574  0.0831  0.2627
  359MOL0     C49450   8.605   6.900  -1.381  1.1495  0.8816 -0.0335
  359MOL0     C49451   8.622   6.888  -1.241  0.1269 -0.4185  0.2447
  359MOL0     O49452   8.836   6.773  -1.055  0.4785  0.0169  0.3329
  359MOL0     C49453   8.623   6.708  -0.772  1.1416 -0.6652  0.2969
  359MOL0     C49454   8.616   6.717  -0.634 -0.8016  1.2138 -0.3774
  359MOL0     N49455   9.052   7.057   0.071 -0.0904  0.3259  0.6058
  359MOL0     N49456   9.160   7.059   0.142  0.3315 -0.3459  0.0724
  359MOL0     C49457  10.306   6.447   0.515  0.6719 -0.2454  0.3796
  359MOL0     C49458  10.318   6.391   0.642 -0.1316  0.2943  0.2502
  359MOL0     C49459  10.237   6.126   1.010  0.5469  0.0842 -0.1635
  359MOL0     C49460  10.245   6.223   1.113 -0.2041 -0.2225  0.6469
  359MOL0     C49461  10.200   6.196   1.239 -0.5262 -0.3001 -0.2558
  359MOL0     C49462  10.146   6.072   1.285  0.2124  0.8337  0.0262
  359MOL0     O49463  10.107   6.047   1.413  0.2961  0.1130 -0.2985
  359MOL0     C49464  10.006   5.956   1.430 -0.7394  0.7027  0.4432
  359MOL0     C49465   9.940   5.940   1.567 -0.8167  0.6403  0.1588
  359MOL0     C49466   9.829   5.842   1.563  0.1478 -0.4518 -0.3690
  359MOL0     C49467   9.722   5.868   1.669  0.1803 -0.3280 -1.2751
  359MOL0     C49468   9.789   5.868   1.794  0.8000  0.1534  0.0967
  359MOL0     C49469   9.829   5.859   1.908  0.4122  0.9064  0.4004
  359MOL0     C49470  10.149   5.973   1.186 -0.4868 -0.3109  0.1367
  359MOL0     C49471  10.180   5.994   1.048 -0.7584  0.0053  0.0919
  359MOL0     C49472  10.156   5.868   0.963 -0.0673 -0.7421 -0.7922
  359MOL0     H49473   9.999   6.264   0.670  0.8209 -0.6026  3.0994
  359MOL0     H49474   9.980   6.363   0.458 -2.2885 -1.8407  2.9214
  359MOL0     H49475   9.985   6.457   0.271  1.1475 -0.8944  0.4257
  359MOL0     H49476  10.064   6.578   0.169 -2.7823  0.3827 -0.3094
  359MOL0     H49477   9.940   6.634   0.450 -1.2234  1.0533 -0.1024
  359MOL0     H49478  10.044   6.745   0.365  2.6084 -2.0411  1.5967
  359MOL0     H49479   9.875   6.717   0.176  0.5755  1.5229  0.6639
  359MOL0     H49480   9.777   6.624   0.295 -0.3484  0.2753  1.6891
  359MOL0     H49481   9.765   6.813   0.442 -3.5274 -0.9124 -1.1046
  359MOL0     H49482   9.879   6.912   0.355 -1.1874  1.8387 -1.1116
  359MOL0     H49483   9.692   6.906   0.148 -0.1132  1.6262 -0.7359
  359MOL0     H49484   9.683   7.024   0.272  1.2923 -0.3974 -0.7289
  359MOL0     H49485   9.553   6.757   0.262 -0.7299 -1.1283  3.8690
  359MOL0     H49486   9.533   6.873   0.394 -3.1694  0.7058 -0.7416
  359MOL0     H49487   9.439   6.926   0.103 -1.0946  0.8870 -0.3021
  359MOL0     H49488   9.438   7.049   0.227  2.3729  1.0724 -3.6333
  359MOL0     H49489   9.318   6.775   0.251  0.3339  0.0321  0.1866
  359MOL0     H49490   9.279   6.924   0.360 -1.7346  0.3428 -0.4075
  359MOL0     H49491   9.139   6.738   0.096 -0.6280 -1.1871  3.5909
  359MOL0     H49492   8.890   6.768   0.008  2.2289 -2.1232 -1.7064
  359MOL0     H49493   8.989   6.802  -0.118 -0.6784  0.7877 -1.0987
  359MOL0     H49494   8.776   7.004  -0.022  0.3594  1.7983 -0.5830
  359MOL0     H49495   8.870   7.031  -0.164  1.3006  1.1961  2.5727
  359MOL0     H49496   8.731   6.757  -0.140 -1.6488  1.1867  0.7376
  359MOL0     H49497   8.628   6.887  -0.186 -0.5545 -0.0149 -0.2355
  359MOL0     H49498   8.775   6.948  -0.387 -2.4910  1.6608  1.8974
  359MOL0     H49499   8.887   6.813  -0.340 -0.7667 -2.0704  1.4003
  359MOL0     H49500   8.906   6.856  -0.557  0.0401 -1.8633  0.8006
  359MOL0     H49501   9.018   6.843  -0.881  1.3744  2.8253 -1.3460
  359MOL0     H49502   9.008   6.962  -0.750 -0.8522  3.3084 -1.6857
  359MOL0     H49503   8.910   6.984  -0.896 -2.0643 -0.7189  0.8252
  359MOL0     H49504   8.533   6.555  -1.223  0.0444 -0.1987  1.3173
  359MOL0     H49505   8.495   6.595  -1.463 -1.2183  0.6892 -0.3989
  359MOL0     H49506   8.513   6.777  -1.791  0.0446 -1.4241 -0.4267
  359MOL0     H49507   8.543   6.653  -1.674  6.0974  3.3492  2.4946
  359MOL0     H49508   8.304   6.692  -1.586 -2.2760  0.7521  0.2410
  359MOL0     H49509   8.308   6.841  -1.677  1.8012  0.6978  0.3089
  359MOL0     H49510   8.266   6.553  -1.798 -0.6532 -0.6055 -1.9713
  359MOL0     H49511   8.322   6.686  -1.901  0.2730  1.1482 -0.2653
  359MOL0     H49512   8.105   6.808  -1.830  0.2060  1.7490 -0.2662
  359MOL0     H49513   8.077   6.678  -1.721 -0.1418  3.4326 -0.4047
  359MOL0     H49514   8.088   6.667  -2.029 -2.1187  2.5748  0.8294
  359MOL0     H49515   8.075   6.514  -1.938 -2.1478 -0.5130  0.0032
  359MOL0     H49516   7.878   6.724  -1.999 -2.5790 -0.3462 -1.5926
  359MOL0     H49517   7.866   6.637  -1.838  2.6972 -0.2764  1.1011
  359MOL0     H49518   7.826   6.423  -1.970 -0.9005 -0.7315 -2.0659
  359MOL0     H49519   7.883   6.493  -2.120 -0.7035 -1.3937 -0.3848
  359MOL0     H49520   7.631   6.555  -1.977  0.4501 -1.6252  0.4718
  359MOL0     H49521   7.627   6.476  -2.130  0.9401 -0.6552 -0.1735
  359MOL0     H49522   8.629   6.990  -1.435  3.4123  0.0440 -0.5320
  359MOL0     H49523   8.657   6.960  -1.168  0.0613 -1.8254  1.7208
  359MOL0     H49524   8.535   6.667  -0.820 -0.2877 -0.3455  2.5106
  359MOL0     H49525   8.533   6.670  -0.583 -2.0543  0.2773 -3.1083
  359MOL0     H49526  10.379   6.509   0.464 -0.5410  3.1504  2.4147
  359MOL0     H49527  10.411   6.377   0.695 -1.7311 -3.3648  2.4772
  359MOL0     H49528  10.268   6.325   1.084  0.0939 -0.4290  0.1469
  359MOL0     H49529  10.209   6.276   1.312  0.3760 -0.3843 -0.2682
  359MOL0     H49530   9.940   5.972   1.345  1.5666 -3.2654 -2.4318
  359MOL0     H49531  10.036   5.852   1.415 -1.0657 -0.7185  6.8557
  359MOL0     H49532   9.908   6.037   1.607 -0.1780 -0.4119  3.5268
  359MOL0     H49533  10.024   5.902   1.626  1.2807  1.8562 -1.8355
  359MOL0     H49534   9.790   5.835   1.461  1.2179  0.6124 -0.8788
  359MOL0     H49535   9.873   5.743   1.578  0.0784 -0.4125  0.1229
  359MOL0     H49536   9.638   5.798   1.668 -0.7594  0.7760 -1.6278
  359MOL0     H49537   9.682   5.970   1.659  0.9813  0.1637  0.1776
  359MOL0     H49538   9.870   5.857   2.006 -1.7200  0.1710  1.3394
  359MOL0     H49539  10.105   5.877   1.209  0.1776 -0.5179  0.5978
  359MOL0     H49540  10.088   5.798   1.013 -0.5741 -0.6995 -1.4113
  359MOL0     H49541  10.094   5.887   0.875 -2.4132  0.9297  1.0913
  359MOL0     H49542  10.242   5.806   0.936 -0.0663 -2.0806  1.9313
  360MOL0     O49543   7.614   6.530   2.124 -1.2419  0.3063 -0.0254
  360MOL0     C49544   7.654   6.490   2.237 -1.0058 -0.5264  0.5321
  360MOL0     O49545   7.732   6.379   2.256 -0.3412 -0.1489  0.1351
  360MOL0     C49546   7.743   6.280   2.170 -0.0264  1.3140 -0.2124
  360MOL0     C49547   7.691   6.155   2.203 -1.2631 -0.4754 -0.1823
  360MOL0     C49548   7.696   6.045   2.112 -0.1435 -0.0464 -0.1460
  360MOL0     C49549   7.747   6.062   1.987 -0.0136 -0.6218  0.9016
  360MOL0     O49550   7.749   5.953   1.909  0.3538  0.4631  0.0435
  360MOL0     C49551   7.686   5.957   1.782  1.3866  0.5532  0.2053
  360MOL0     C49552   7.664   5.804   1.746  0.2319  0.4865 -0.7435
  360MOL0     C49553   7.792   5.726   1.733 -0.8271  0.9097  0.9378
  360MOL0     C49554   7.778   5.576   1.762 -0.0196  0.5602  0.1387
  360MOL0     C49555   7.921   5.503   1.752 -1.3076 -0.2791  0.2316
  360MOL0     C49556   7.931   5.356   1.757 -0.5044  0.3943 -0.6117
  360MOL0     C49557   7.829   5.289   1.658  0.1563  0.2635  0.1851
  360MOL0     C49558   7.810   5.147   1.695  0.1087  0.4638 -0.5606
  360MOL0     N49559   7.739   5.063   1.587 -0.5003 -0.6871  0.8909
  360MOL0     C49560   7.804   4.991   1.488  0.4060 -0.0311 -1.3055
  360MOL0     C49561   7.707   4.921   1.420 -0.6759 -1.2051  0.7406
  360MOL0     C49562   7.732   4.826   1.305  0.8645 -0.6532  0.6167
  360MOL0     C49563   7.612   4.820   1.196 -0.3365  0.3423 -1.3674
  360MOL0     C49564   7.624   4.691   1.123  0.4022  1.1875 -0.0504
  360MOL0     C49565   7.507   4.682   1.026  0.5075 -0.5712 -0.4683
  360MOL0     O49566   7.380   4.676   1.097 -0.4966  0.4126 -0.6254
  360MOL0     C49567   7.269   4.667   1.019  0.5456 -1.4573 -0.4625
  360MOL0     C49568   7.150   4.705   1.075 -0.2885  0.3112  0.4525
  360MOL0     C49569   7.030   4.705   1.015 -0.1237 -0.4791  0.7747
  360MOL0     C49570   6.916   4.754   1.096 -0.0019  1.0791 -0.2867
  360MOL0     C49571   7.020   4.672   0.882  0.4711 -0.1929  0.6829
  360MOL0     C49572   6.903   4.672   0.799  0.3140  0.1879  1.2158
  360MOL0     O49573   6.912   4.631   0.662  0.3976  0.9713 -0.3893
  360MOL0     C49574   6.805   4.648   0.575 -0.5069  0.3238 -0.6922
  360MOL0     C49575   6.820   4.583   0.459  0.7126 -0.2507 -0.4414
  360MOL0     C49576   6.715   4.592   0.358 -0.0377 -0.9390  0.0362
  360MOL0     C49577   6.606   4.670   0.376 -0.5413 -0.4811  0.3245
  360MOL0     O49578   6.522   4.676   0.271 -1.1123 -0.2835 -0.4396
  360MOL0     C49579   6.391   4.616   0.305 -0.3272  0.6928 -0.2884
  360MOL0     C49580   6.300   4.641   0.194  0.0563 -0.0015  0.4389
  360MOL0     C49581   6.310   4.794   0.133  0.6444 -0.4294  0.2153
  360MOL0     C49582   6.202   4.799   0.027  0.8068 -0.4562  0.1435
  360MOL0     C49583   6.186   4.943  -0.041 -0.4773  0.3724 -0.5911
  360MOL0     C49584   6.127   4.910  -0.172  0.7351 -1.1768 -0.7073
  360MOL0     C49585   6.121   5.044  -0.249  0.2173  0.8876  1.0983
  360MOL0     C49586   6.256   5.077  -0.313  0.2299 -0.5325 -0.8015
  360MOL0    Cl49587   6.306   5.240  -0.234  0.6931  0.0032 -0.0559
  360MOL0     C49588   6.603   4.758   0.483  0.1125  0.1100  0.7650
  360MOL0     C49589   6.694   4.734   0.591 -0.1640  0.3834  0.0521
  360MOL0     O49590   6.810   4.730   0.849 -0.1313 -0.3081  0.4429
  360MOL0     C49591   7.138   4.627   0.817  0.4237  1.0680  0.2990
  360MOL0     C49592   7.261   4.623   0.886  0.9155  0.0348  0.0352
  360MOL0     N49593   7.588   4.931   1.488  0.1106 -0.2274 -0.1871
  360MOL0     N49594   7.611   5.017   1.587  0.3409 -0.1865  0.0959
  360MOL0     C49595   7.791   6.184   1.942 -0.7504 -1.1480 -0.7192
  360MOL0     C49596   7.795   6.293   2.043  1.1212 -0.1220  0.2749
  360MOL0     C49597   7.644   6.593   2.346  0.5853 -0.2832 -0.0783
  360MOL0     C49598   7.762   6.642   2.401 -0.5082 -0.6193  0.0269
  360MOL0     C49599   7.747   6.734   2.494 -0.9358 -0.2296  0.8594
  360MOL0     C49600   7.621   6.779   2.541  0.2044  0.6022  0.2993
  360MOL0     O49601   7.618   6.846   2.656  0.7027  0.0057  0.0465
  360MOL0     C49602   7.500   6.911   2.699 -0.7130  0.8939 -0.7338
  360MOL0     C49603   7.532   6.975   2.830 -0.0529  0.6386 -0.0970
  360MOL0     C49604   7.477   6.896   2.939 -0.3219 -0.8655 -0.2692
  360MOL0     C49605   7.504   6.970   3.075 -0.4769  0.4317  0.3979
  360MOL0     C49606   7.405   6.928   3.175  0.0559 -0.2742 -0.9338
  360MOL0     C49607   7.324   6.909   3.259 -0.3947 -0.6708  0.7611
  360MOL0     C49608   7.506   6.732   2.479  0.4313 -0.0642  0.8398
  360MOL0     C49609   7.515   6.645   2.371 -0.4709 -1.2740 -0.2416
  360MOL0     C49610   7.391   6.594   2.305 -0.1505  0.7631 -0.5942
  360MOL0     H49611   7.639   6.155   2.298 -0.7694  7.7812  0.7601
  360MOL0     H49612   7.658   5.946   2.136  0.2988 -0.8062 -2.3488
  360MOL0     H49613   7.750   5.988   1.699 -3.0962  0.5932 -3.6160
  360MOL0     H49614   7.596   6.019   1.782  1.7175  1.1421  2.4500
  360MOL0     H49615   7.596   5.754   1.816 -0.7676  3.4541  0.5644
  360MOL0     H49616   7.622   5.803   1.645  0.7579 -0.7202 -0.9599
  360MOL0     H49617   7.845   5.733   1.638 -0.8301 -1.8211  0.6564
  360MOL0     H49618   7.866   5.756   1.807  2.1226 -0.9129 -1.0846
  360MOL0     H49619   7.727   5.569   1.859 -1.8695  1.7105 -0.7000
  360MOL0     H49620   7.702   5.553   1.687  0.4194  3.6569 -1.4090
  360MOL0     H49621   7.983   5.548   1.831 -1.0830  0.5056 -0.3722
  360MOL0     H49622   7.978   5.530   1.662  0.4307  2.1908  1.9380
  360MOL0     H49623   8.033   5.346   1.717 -0.3996  1.9392 -0.8237
  360MOL0     H49624   7.920   5.324   1.861  2.5693  0.2277 -0.2564
  360MOL0     H49625   7.869   5.288   1.557 -0.4739  1.0889 -0.0779
  360MOL0     H49626   7.732   5.340   1.656 -1.1239 -1.6907  3.3535
  360MOL0     H49627   7.907   5.107   1.726  0.1322  0.7496 -0.2577
  360MOL0     H49628   7.736   5.153   1.776  0.3561  3.3064 -0.4150
  360MOL0     H49629   7.912   4.990   1.473  0.2052 -0.8732 -2.9172
  360MOL0     H49630   7.749   4.728   1.351  0.0523 -1.5259 -0.8556
  360MOL0     H49631   7.831   4.841   1.262  0.8070 -0.0458  0.6814
  360MOL0     H49632   7.517   4.813   1.248  0.5788  1.2014  0.5190
  360MOL0     H49633   7.605   4.909   1.132 -1.5551 -0.7659 -2.8338
  360MOL0     H49634   7.718   4.694   1.067  2.1846  0.5962  2.7380
  360MOL0     H49635   7.644   4.603   1.185  2.4569  2.6863  1.5620
  360MOL0     H49636   7.511   4.770   0.960  1.0416 -0.5638 -0.4333
  360MOL0     H49637   7.521   4.594   0.962  1.3719 -1.7872  1.3348
  360MOL0     H49638   7.170   4.731   1.179 -3.0079  2.6768  0.4995
  360MOL0     H49639   6.952   4.772   1.198  0.1903  2.0595 -0.5151
  360MOL0     H49640   6.844   4.671   1.097 -3.1526  3.5745  1.4429
  360MOL0     H49641   6.859   4.841   1.062  1.3469  1.0163 -2.9252
  360MOL0     H49642   6.914   4.529   0.451  1.7574  1.6981 -1.9961
  360MOL0     H49643   6.730   4.538   0.265  0.6200 -0.8035  0.0612
  360MOL0     H49644   6.398   4.509   0.327 -0.7802  0.7073 -0.0449
  360MOL0     H49645   6.360   4.656   0.402  1.7552 -0.0850  0.7401
  360MOL0     H49646   6.311   4.573   0.110 -2.6717  0.7901 -0.6905
  360MOL0     H49647   6.198   4.616   0.228  0.4619 -1.5826  0.5682
  360MOL0     H49648   6.398   4.799   0.068 -1.3864  1.0160 -2.6162
  360MOL0     H49649   6.313   4.876   0.206 -1.4692 -0.7873  0.7635
  360MOL0     H49650   6.105   4.769   0.066  1.8770 -3.0218  1.0638
  360MOL0     H49651   6.221   4.723  -0.050 -1.2947 -0.8471 -0.0271
  360MOL0     H49652   6.121   5.000   0.027  0.4956 -0.4167  1.0634
  360MOL0     H49653   6.275   5.005  -0.049  0.9889 -1.6391 -0.4599
  360MOL0     H49654   6.022   4.882  -0.160 -0.0503  1.9827  0.7396
  360MOL0     H49655   6.194   4.836  -0.216  2.0504 -0.5273  0.1468
  360MOL0     H49656   6.083   5.127  -0.188 -2.7532  2.9516 -3.0925
  360MOL0     H49657   6.038   5.041  -0.320 -0.6767 -2.0361  2.0980
  360MOL0     H49658   6.244   5.098  -0.420  0.8004 -0.5222 -0.8627
  360MOL0     H49659   6.337   5.005  -0.298  0.1675  0.1040  4.3300
  360MOL0     H49660   6.512   4.816   0.493 -2.0486 -2.5331 -1.7785
  360MOL0     H49661   6.657   4.791   0.676  0.6086 -2.1799  2.2512
  360MOL0     H49662   7.145   4.589   0.715 -0.8142  1.9769 -0.1503
  360MOL0     H49663   7.348   4.590   0.829  0.4893 -1.4584  0.1906
  360MOL0     H49664   7.818   6.199   1.838 -0.8890  0.2558 -0.5742
  360MOL0     H49665   7.825   6.395   2.017  1.6465 -0.4681 -0.5158
  360MOL0     H49666   7.859   6.614   2.363  0.3132  3.5668 -1.4144
  360MOL0     H49667   7.834   6.786   2.533 -0.1131 -1.2887  0.5165
  360MOL0     H49668   7.464   6.993   2.636 -1.9662  0.7544 -0.2248
  360MOL0     H49669   7.421   6.838   2.718 -1.5941  2.9181  5.1232
  360MOL0     H49670   7.475   7.068   2.822  0.5342  1.1356  1.2307
  360MOL0     H49671   7.638   6.998   2.848  0.4255 -0.2226 -1.6784
  360MOL0     H49672   7.368   6.884   2.945 -1.0457  3.9394  0.1045
  360MOL0     H49673   7.533   6.802   2.942 -1.5400 -1.6291 -0.7866
  360MOL0     H49674   7.477   7.076   3.067 -1.5942  0.1432  0.1287
  360MOL0     H49675   7.606   6.948   3.108 -0.7523  0.8889  1.5954
  360MOL0     H49676   7.240   6.875   3.315 -1.3260  1.3054  0.6480
  360MOL0     H49677   7.406   6.751   2.516  0.2077 -3.4924  2.2856
  360MOL0     H49678   7.302   6.639   2.349  1.1163  2.4350  0.4143
  360MOL0     H49679   7.395   6.624   2.200  0.8830 -1.7478 -1.3396
  360MOL0     H49680   7.372   6.487   2.315 -0.3306  0.9328  1.2137
  361MOL0     O49681   2.100   8.674   3.939  0.3814 -0.4984  0.5505
  361MOL0     C49682   2.140   8.573   3.987 -0.6579 -0.0894  0.2341
  361MOL0     O49683   2.074   8.450   4.001 -0.5256 -0.2512 -0.2912
  361MOL0     C49684   1.943   8.439   3.980 -0.3704 -0.2776 -0.5420
  361MOL0     C49685   1.836   8.532   3.957 -0.4029  0.7304 -0.5684
  361MOL0     C49686   1.703   8.490   3.975  1.3464  0.5351  0.6223
  361MOL0     C49687   1.686   8.348   3.984  0.4790 -0.4007 -1.0096
  361MOL0     O49688   1.552   8.323   4.005  0.2475  0.1092 -0.0188
  361MOL0     C49689   1.503   8.190   4.000 -0.3910  0.4114 -0.3712
  361MOL0     C49690   1.359   8.172   3.971 -0.8296  0.3835  0.2642
  361MOL0     C49691   1.306   8.034   4.007  0.1918  0.6869 -0.0254
  361MOL0     C49692   1.160   8.027   3.959  0.2346  0.2803  0.4389
  361MOL0     C49693   1.084   7.909   4.013  0.4500  0.5223  0.1051
  361MOL0     C49694   1.156   7.766   3.989 -0.3803  0.1762 -0.4311
  361MOL0     C49695   1.146   7.737   3.840 -0.0806 -0.5116  0.9542
  361MOL0     C49696   1.246   7.624   3.819 -0.3066 -0.0038  0.0374
  361MOL0     N49697   1.223   7.537   3.696 -0.5988 -0.3279 -0.5977
  361MOL0     C49698   1.293   7.554   3.579 -0.0618 -0.1115  0.2559
  361MOL0     C49699   1.247   7.462   3.485 -0.2245 -0.2456 -0.2389
  361MOL0     C49700   1.295   7.442   3.344 -0.2133  0.0049  0.1317
  361MOL0     C49701   1.201   7.498   3.237 -0.4017  0.8580 -0.4107
  361MOL0     C49702   1.179   7.645   3.232  0.1269 -0.3170 -0.2310
  361MOL0     C49703   1.080   7.669   3.122  0.6338  0.3659 -0.2264
  361MOL0     O49704   1.088   7.803   3.089  0.7257  0.1671 -0.5249
  361MOL0     C49705   1.014   7.853   2.983  0.8628 -0.5093  0.1680
  361MOL0     C49706   1.047   7.979   2.931  0.2209 -0.0818 -0.5840
  361MOL0     C49707   0.970   8.033   2.815  0.2283  0.1066 -0.8223
  361MOL0     C49708   1.034   8.160   2.758 -0.1366  0.2954  0.1514
  361MOL0     C49709   0.875   7.944   2.754 -0.2621 -0.3996 -0.3305
  361MOL0     C49710   0.808   7.973   2.636 -0.5045 -0.8205 -0.7216
  361MOL0     O49711   0.798   7.883   2.540 -0.3894 -0.5589  0.3246
  361MOL0     C49712   0.710   7.894   2.434  0.4472 -0.0795  0.0611
  361MOL0     C49713   0.714   8.002   2.344  0.7196  0.1957 -0.8899
  361MOL0     C49714   0.620   8.013   2.235  0.3897  1.1445 -0.7565
  361MOL0     C49715   0.503   7.931   2.230  0.6128  0.1384 -0.9613
  361MOL0     O49716   0.412   7.958   2.134 -0.5654 -1.2062 -0.3424
  361MOL0     C49717   0.269   7.934   2.151  1.3283 -0.0196 -0.2443
  361MOL0     C49718   0.207   7.933   2.011 -0.4131 -0.2194  0.2503
  361MOL0     C49719   0.190   8.062   1.927 -0.3312 -0.3431  0.0614
  361MOL0     C49720   0.087   8.037   1.816  0.3517  1.1388 -0.0017
  361MOL0     C49721   0.063   8.168   1.733 -0.7846 -0.1660 -0.4321
  361MOL0     C49722   0.182   8.232   1.657  0.1307  0.5377  0.0325
  361MOL0     C49723   0.136   8.350   1.589 -0.8885  0.4436 -0.5665
  361MOL0     C49724   0.195   8.366   1.448 -0.1089 -0.2342  0.1001
  361MOL0    Cl49725   0.369   8.368   1.439 -0.3222 -0.2172  0.7896
  361MOL0     C49726   0.499   7.825   2.319  0.7579 -0.0812  0.7257
  361MOL0     C49727   0.594   7.811   2.420 -0.0155  0.0725 -0.0398
  361MOL0     O49728   0.757   8.084   2.625 -0.0827  0.8472 -0.1130
  361MOL0     C49729   0.835   7.832   2.823  0.6195 -0.2589 -0.1567
  361MOL0     C49730   0.905   7.783   2.931  0.5735 -0.0170 -1.1165
  361MOL0     N49731   1.156   7.389   3.556 -0.6781 -0.7632 -0.3294
  361MOL0     N49732   1.132   7.437   3.675 -0.2440 -0.7069 -0.1875
  361MOL0     C49733   1.784   8.255   4.009  0.2483 -0.3746 -0.9453
  361MOL0     C49734   1.918   8.299   4.011 -0.2422 -0.0159  0.2657
  361MOL0     C49735   2.282   8.566   4.048 -0.2559 -0.5374 -0.3354
  361MOL0     C49736   2.287   8.514   4.172  0.3558  0.7528 -0.8796
  361MOL0     C49737   2.400   8.495   4.242 -1.4756  0.0543  0.0660
  361MOL0     C49738   2.526   8.539   4.200  0.4207 -0.2441 -1.1464
  361MOL0     O49739   2.628   8.510   4.283 -0.0784  0.3148 -0.3663
  361MOL0     C49740   2.759   8.569   4.261  0.2443  0.7702  0.3636
  361MOL0     C49741   2.843   8.503   4.372 -0.9397 -0.2713  0.1463
  361MOL0     C49742   2.997   8.527   4.387  0.9348  0.1189 -0.0604
  361MOL0     C49743   3.068   8.522   4.251  0.0258 -0.3787 -0.2611
  361MOL0     C49744   3.053   8.393   4.188  0.2171 -0.2001 -0.0938
  361MOL0     C49745   3.064   8.286   4.137  0.5763 -0.5241  0.2607
  361MOL0     C49746   2.526   8.607   4.078 -0.4779 -0.5488 -0.2283
  361MOL0     C49747   2.403   8.622   4.010  0.4178 -0.5885  0.9193
  361MOL0     C49748   2.404   8.708   3.882 -0.7990  0.3221  0.3004
  361MOL0     H49749   1.870   8.634   3.941  0.2921  0.8365  1.4023
  361MOL0     H49750   1.615   8.552   3.961  1.7988  0.8527 -1.0153
  361MOL0     H49751   1.526   8.149   4.099 -3.1133 -1.2296 -0.3235
  361MOL0     H49752   1.557   8.137   3.921 -0.6506 -0.2302 -0.1208
  361MOL0     H49753   1.298   8.245   4.026 -1.6000 -1.4190  1.9128
  361MOL0     H49754   1.349   8.182   3.862 -0.3016 -2.1356 -0.0768
  361MOL0     H49755   1.365   7.950   3.969  1.6688  2.0770 -0.9169
  361MOL0     H49756   1.300   8.017   4.115  3.8929  0.8763  0.3215
  361MOL0     H49757   1.099   8.109   3.997 -1.3367 -0.2355 -0.8794
  361MOL0     H49758   1.152   8.049   3.852  0.7989  1.0037  0.5399
  361MOL0     H49759   0.985   7.917   3.968 -0.4653 -4.0151  0.8067
  361MOL0     H49760   1.079   7.912   4.123  0.1149 -0.6004  0.1254
  361MOL0     H49761   1.257   7.759   4.032 -0.4986 -1.1332 -0.3044
  361MOL0     H49762   1.104   7.688   4.045  0.5540 -1.2750 -1.4853
  361MOL0     H49763   1.190   7.823   3.788  0.0468 -1.1195  0.0243
  361MOL0     H49764   1.049   7.715   3.794  0.4125 -0.0928 -0.3462
  361MOL0     H49765   1.346   7.668   3.810 -0.2843 -0.3408 -1.8644
  361MOL0     H49766   1.253   7.559   3.907  0.5858 -1.0653 -0.7831
  361MOL0     H49767   1.352   7.642   3.556 -1.7391  0.4665 -2.1690
  361MOL0     H49768   1.322   7.337   3.328  0.1138  0.0837  0.1673
  361MOL0     H49769   1.392   7.492   3.338 -1.8258  3.8909  2.3814
  361MOL0     H49770   1.235   7.482   3.135 -0.8300  3.0859 -0.9430
  361MOL0     H49771   1.099   7.459   3.247 -1.2203  2.8903 -0.3397
  361MOL0     H49772   1.140   7.687   3.325 -5.2595 -3.4068 -0.6945
  361MOL0     H49773   1.269   7.702   3.205  0.4943  0.1402  1.8060
  361MOL0     H49774   1.099   7.604   3.036  1.5044 -1.1987  1.0968
  361MOL0     H49775   0.983   7.646   3.167  1.3967  1.0089  1.8780
  361MOL0     H49776   1.135   8.031   2.967  0.0564  0.2621 -0.6737
  361MOL0     H49777   1.131   8.186   2.802 -0.8905  1.3082  1.2958
  361MOL0     H49778   0.969   8.244   2.785  1.5586  3.2820 -3.9874
  361MOL0     H49779   1.043   8.156   2.649  2.1524 -0.4313  0.2989
  361MOL0     H49780   0.796   8.071   2.360 -0.2583  2.0004 -3.1559
  361MOL0     H49781   0.634   8.087   2.156  2.3533  1.3872 -0.2359
  361MOL0     H49782   0.251   7.837   2.198 -1.3486 -0.4922 -2.0421
  361MOL0     H49783   0.222   8.012   2.212  1.9832  1.7872 -1.9673
  361MOL0     H49784   0.261   7.859   1.952  5.0313  1.9385  1.9619
  361MOL0     H49785   0.100   7.922   2.033 -0.6516  1.0597 -0.2492
  361MOL0     H49786   0.287   8.077   1.880 -0.4352  0.1391 -0.0041
  361MOL0     H49787   0.162   8.149   1.986 -0.7270 -1.2951  1.3394
  361MOL0     H49788  -0.004   7.997   1.863  1.5371 -3.2426 -0.9256
  361MOL0     H49789   0.117   7.962   1.742  0.6692  2.8094 -1.6288
  361MOL0     H49790  -0.023   8.156   1.668 -0.5034 -2.4867 -0.4625
  361MOL0     H49791   0.036   8.243   1.808 -1.0664 -0.4019 -0.2970
  361MOL0     H49792   0.224   8.153   1.594  1.1318  0.2121  1.0584
  361MOL0     H49793   0.262   8.244   1.731  0.6961  2.8787 -0.8717
  361MOL0     H49794   0.167   8.442   1.639 -3.5747  0.9336  0.3454
  361MOL0     H49795   0.028   8.343   1.572 -0.8967 -2.8366  0.1658
  361MOL0     H49796   0.160   8.463   1.412 -1.8445 -0.4617  1.0362
  361MOL0     H49797   0.157   8.282   1.389 -2.8856  0.7778  0.3069
  361MOL0     H49798   0.414   7.757   2.321  0.5501 -0.0895 -2.9502
  361MOL0     H49799   0.564   7.742   2.498  1.5126 -1.6298 -0.8793
  361MOL0     H49800   0.750   7.779   2.782  0.0939  0.9664 -0.7073
  361MOL0     H49801   0.857   7.690   2.961 -5.5953  2.9279 -0.3198
  361MOL0     H49802   1.755   8.158   4.047  1.2087  0.4455  2.2151
  361MOL0     H49803   1.992   8.224   4.035 -0.4904 -0.4024 -0.1367
  361MOL0     H49804   2.199   8.479   4.225  1.2120  2.5090  1.8963
  361MOL0     H49805   2.397   8.439   4.335 -4.1997 -1.7718 -0.9949
  361MOL0     H49806   2.785   8.533   4.161  0.4457  0.4378  0.5361
  361MOL0     H49807   2.757   8.677   4.280 -0.0136  0.5248  1.7928
  361MOL0     H49808   2.827   8.396   4.361  0.7759 -0.3053 -3.1513
  361MOL0     H49809   2.806   8.535   4.470  2.9887 -1.6926  2.2752
  361MOL0     H49810   3.023   8.617   4.444  2.9198  0.2014 -1.0077
  361MOL0     H49811   3.026   8.436   4.440  0.5453 -0.6838 -1.1913
  361MOL0     H49812   3.174   8.544   4.269 -0.8819  4.8205  0.5164
  361MOL0     H49813   3.030   8.595   4.179  0.6263 -0.9948 -1.2091
  361MOL0     H49814   3.068   8.192   4.086  1.7184  0.6978 -2.0709
  361MOL0     H49815   2.618   8.650   4.038 -1.7204 -1.4918 -4.6624
  361MOL0     H49816   2.505   8.713   3.841  0.5583 -2.0856  3.0006
  361MOL0     H49817   2.347   8.644   3.813 -0.2178 -1.3849  1.3316
  361MOL0     H49818   2.348   8.800   3.896  1.0543  1.5263  0.1035
  362MOL0     O49819  11.121   4.467   2.508 -0.8915  0.7702  0.8076
  362MOL0     C49820  11.170   4.396   2.420 -0.0382 -0.8545  0.0742
  362MOL0     O49821  11.148   4.268   2.389 -0.2362  0.6351  0.2844
  362MOL0     C49822  11.038   4.205   2.437  0.2515  0.0530  0.2152
  362MOL0     C49823  10.915   4.265   2.464  1.2201  0.4388  0.4502
  362MOL0     C49824  10.801   4.189   2.492 -0.4195  0.9086  0.6733
  362MOL0     C49825  10.808   4.054   2.528  0.6290 -0.2612 -0.1989
  362MOL0     O49826  10.706   3.982   2.590  0.7904  0.3580  0.1226
  362MOL0     C49827  10.582   4.048   2.630  0.1560  0.4282 -0.4434
  362MOL0     C49828  10.493   3.950   2.711  0.1150  0.1235 -0.0902
  362MOL0     C49829  10.429   4.018   2.839 -0.0740 -0.6613  0.2833
  362MOL0     C49830  10.528   4.061   2.942 -0.0783  0.3361  0.7619
  362MOL0     C49831  10.467   4.127   3.064  0.4441 -0.4089  0.2779
  362MOL0     C49832  10.566   4.176   3.169  1.1012 -0.2640 -0.5683
  362MOL0     C49833  10.501   4.240   3.295 -0.3574  0.7358  0.4043
  362MOL0     C49834  10.597   4.229   3.410  0.2167 -0.3869  0.0126
  362MOL0     N49835  10.556   4.287   3.537 -1.2400  0.5112 -0.4846
  362MOL0     C49836  10.488   4.405   3.539 -0.1426  0.7803 -0.0765
  362MOL0     C49837  10.426   4.406   3.666 -0.0805  0.0728 -0.3998
  362MOL0     C49838  10.338   4.519   3.719  0.1698  0.1550  0.3355
  362MOL0     C49839  10.421   4.621   3.796 -0.4467  0.4090  0.2724
  362MOL0     C49840  10.329   4.695   3.891  0.0384  0.5348  0.0694
  362MOL0     C49841  10.385   4.840   3.918 -0.2743  0.7830 -0.1281
  362MOL0     O49842  10.289   4.909   3.997  0.0488  0.4025 -0.3923
  362MOL0     C49843  10.260   4.864   4.120  1.0189 -0.6903  0.3295
  362MOL0     C49844  10.129   4.892   4.170 -0.0196  1.0498  0.5446
  362MOL0     C49845  10.085   4.831   4.289  0.2932 -0.6633  0.1501
  362MOL0     C49846   9.939   4.845   4.327 -0.2656  0.0089  0.5409
  362MOL0     C49847  10.176   4.784   4.381 -0.7068 -0.2652  0.0494
  362MOL0     C49848  10.131   4.748   4.521 -0.2453 -0.4437  0.0861
  362MOL0     O49849  10.174   4.626   4.558 -0.5713  0.1086 -0.0120
  362MOL0     C49850  10.141   4.591   4.688 -0.4800  0.9225 -0.1528
  362MOL0     C49851  10.002   4.561   4.721 -0.6067  0.8638  0.0105
  362MOL0     C49852   9.973   4.538   4.856  0.2456  0.1219  0.5787
  362MOL0     C49853  10.082   4.540   4.950  0.3695 -0.5599 -0.8694
  362MOL0     O49854  10.037   4.491   5.073  0.0606 -1.0743 -0.0735
  362MOL0     C49855  10.127   4.469   5.174 -0.4456 -0.6348  0.1840
  362MOL0     C49856  10.142   4.589   5.262 -0.7355 -0.1659 -0.5336
  362MOL0     C49857  10.223   4.567   5.383 -0.1935 -1.2002  0.1586
  362MOL0     C49858  10.370   4.585   5.352  0.0447  1.2501 -0.5384
  362MOL0     C49859  10.447   4.611   5.482 -0.3706 -0.3972 -0.1218
  362MOL0     C49860  10.599   4.630   5.441  0.2262  0.2843 -0.2579
  362MOL0     C49861  10.694   4.622   5.561 -0.5478  0.3697  0.6957
  362MOL0     C49862  10.842   4.601   5.524  0.0968  0.3289  0.3558
  362MOL0    Cl49863  10.873   4.458   5.422 -0.4174  0.0945  0.1464
  362MOL0     C49864  10.209   4.569   4.921 -0.5138 -0.8662  0.3293
  362MOL0     C49865  10.240   4.594   4.789 -0.1284 -0.2487  0.9884
  362MOL0     O49866  10.071   4.835   4.584 -0.3891  0.2976 -0.0011
  362MOL0     C49867  10.303   4.753   4.330  0.1305 -0.0628  0.3080
  362MOL0     C49868  10.343   4.784   4.202 -0.0216  0.8588 -0.1683
  362MOL0     N49869  10.462   4.285   3.738 -0.5559 -0.8276  0.0103
  362MOL0     N49870  10.554   4.229   3.662  0.5879 -0.2845 -0.3098
  362MOL0     C49871  10.934   3.979   2.499  0.8549 -0.4058  0.5057
  362MOL0     C49872  11.042   4.062   2.449 -0.0552  0.1683 -0.0273
  362MOL0     C49873  11.298   4.456   2.370  0.5123 -0.0591 -0.9948
  362MOL0     C49874  11.391   4.361   2.334 -1.1605  0.1591  0.3697
  362MOL0     C49875  11.525   4.398   2.316  0.6153 -0.2812  0.0609
  362MOL0     C49876  11.555   4.534   2.311 -0.4163 -0.8204  0.0971
  362MOL0     O49877  11.686   4.548   2.284 -0.0072  0.7913 -0.3234
  362MOL0     C49878  11.752   4.673   2.327  0.5124  0.6939  0.3237
  362MOL0     C49879  11.850   4.722   2.226  0.1583 -0.9543  0.7977
  362MOL0     C49880  11.959   4.622   2.197  0.1481 -0.4457 -0.3471
  362MOL0     C49881  11.932   4.530   2.076 -0.8344 -0.5524  0.4880
  362MOL0     C49882  12.058   4.463   2.027  0.8641  0.9162 -0.9629
  362MOL0     C49883  12.140   4.392   1.970 -0.0449  0.3511  0.2116
  362MOL0     C49884  11.455   4.633   2.331 -0.0850  0.7322  0.4906
  362MOL0     C49885  11.323   4.596   2.347  1.7566  0.4020 -0.1759
  362MOL0     C49886  11.221   4.707   2.363  0.0922  0.3664  0.1881
  362MOL0     H49887  10.895   4.371   2.454  0.9838  0.3757  0.2375
  362MOL0     H49888  10.705   4.238   2.503 -0.6605  0.1516  2.0911
  362MOL0     H49889  10.533   4.060   2.533 -0.5958 -3.5038 -0.6988
  362MOL0     H49890  10.592   4.143   2.682 -2.7576 -0.4703  2.0407
  362MOL0     H49891  10.422   3.906   2.641  1.9628 -0.3088 -1.7935
  362MOL0     H49892  10.555   3.867   2.747 -1.1071 -0.3362  1.0082
  362MOL0     H49893  10.360   4.099   2.814 -1.8165 -1.8137  1.1860
  362MOL0     H49894  10.356   3.945   2.874 -0.5470 -2.3534 -3.7491
  362MOL0     H49895  10.583   3.976   2.983  1.9340  2.3687  2.5902
  362MOL0     H49896  10.595   4.140   2.908  0.9501 -0.0136  1.8952
  362MOL0     H49897  10.388   4.066   3.108  0.3869 -0.6138 -0.1058
  362MOL0     H49898  10.415   4.207   3.012  2.3175 -0.9405 -2.6796
  362MOL0     H49899  10.622   4.085   3.193 -1.3969 -1.7719 -0.0755
  362MOL0     H49900  10.628   4.251   3.119 -1.9136  2.0170 -1.1992
  362MOL0     H49901  10.405   4.192   3.318  0.6099 -0.8135  1.4165
  362MOL0     H49902  10.484   4.343   3.262 -2.1553  0.0169 -1.1348
  362MOL0     H49903  10.623   4.124   3.424  0.6766 -0.5248 -1.6474
  362MOL0     H49904  10.685   4.289   3.384 -0.6278  1.4914  1.2643
  362MOL0     H49905  10.471   4.478   3.461 -2.7956  0.9700  0.5843
  362MOL0     H49906  10.249   4.478   3.767  0.7741 -3.4051 -1.2726
  362MOL0     H49907  10.288   4.569   3.635 -1.4992 -0.5339  0.8748
  362MOL0     H49908  10.509   4.575   3.842  1.6284  1.4896 -2.3594
  362MOL0     H49909  10.457   4.690   3.720 -1.5884  0.8800  0.1282
  362MOL0     H49910  10.234   4.708   3.839  1.6351  0.3670 -3.1548
  362MOL0     H49911  10.323   4.642   3.986 -0.1220 -2.4944 -1.5003
  362MOL0     H49912  10.475   4.833   3.980 -0.5605 -3.5402  0.1462
  362MOL0     H49913  10.395   4.896   3.825 -1.8373  1.0464 -0.1538
  362MOL0     H49914  10.059   4.933   4.098 -2.8305 -1.9323  1.3206
  362MOL0     H49915   9.901   4.767   4.394 -0.5160  0.1787  0.6003
  362MOL0     H49916   9.881   4.830   4.236 -0.8831  1.3407  0.6752
  362MOL0     H49917   9.911   4.942   4.370  1.7116  0.2267  1.4332
  362MOL0     H49918   9.922   4.565   4.647 -0.0769 -1.3212 -0.7338
  362MOL0     H49919   9.872   4.526   4.894  0.7209 -0.2499  1.7736
  362MOL0     H49920  10.082   4.387   5.229  0.1652 -0.0166  1.6568
  362MOL0     H49921  10.225   4.435   5.138  0.0307  2.0279 -1.3340
  362MOL0     H49922  10.182   4.674   5.206  2.2895 -1.2784 -0.2724
  362MOL0     H49923  10.041   4.612   5.296  0.4200  0.1147  3.1880
  362MOL0     H49924  10.207   4.464   5.416  0.7145 -1.4702 -0.2168
  362MOL0     H49925  10.209   4.636   5.466  2.5420 -0.2562 -0.0561
  362MOL0     H49926  10.372   4.682   5.301 -1.9935  2.2046  1.0158
  362MOL0     H49927  10.420   4.502   5.302 -2.2363 -3.3012  3.8992
  362MOL0     H49928  10.410   4.688   5.550 -0.5684 -0.3600 -0.2707
  362MOL0     H49929  10.444   4.517   5.538 -0.7508  0.6223  1.6398
  362MOL0     H49930  10.626   4.722   5.388  3.8947 -0.4179  0.1513
  362MOL0     H49931  10.628   4.543   5.380  3.6908  2.7554 -2.5428
  362MOL0     H49932  10.665   4.537   5.624  0.9744 -3.3603 -3.1907
  362MOL0     H49933  10.689   4.718   5.613  0.8888  0.7144  0.2381
  362MOL0     H49934  10.904   4.613   5.613 -0.3822  1.4872  0.5636
  362MOL0     H49935  10.853   4.693   5.466 -0.2576 -1.4742 -2.8228
  362MOL0     H49936  10.290   4.592   4.990 -0.0339 -2.9002  0.4908
  362MOL0     H49937  10.342   4.628   4.771  1.6055 -3.8858  2.9441
  362MOL0     H49938  10.383   4.698   4.379  3.1462  3.5862 -0.0479
  362MOL0     H49939  10.447   4.759   4.180  0.4829  2.1102  0.6346
  362MOL0     H49940  10.935   3.871   2.498  1.3733 -0.4016 -0.5919
  362MOL0     H49941  11.137   4.015   2.428 -0.2609  0.1320 -0.9559
  362MOL0     H49942  11.364   4.260   2.305 -0.7507 -0.1584  1.0739
  362MOL0     H49943  11.595   4.317   2.299  0.5760 -0.3547  0.2438
  362MOL0     H49944  11.686   4.756   2.356  0.8254  0.5279  1.5844
  362MOL0     H49945  11.806   4.643   2.417  0.5280  0.8131  0.3545
  362MOL0     H49946  11.887   4.815   2.270 -0.4589 -0.6723  0.7318
  362MOL0     H49947  11.804   4.753   2.132  1.3624 -1.3823  0.0398
  362MOL0     H49948  12.049   4.679   2.173  1.2558 -0.2385  3.6319
  362MOL0     H49949  11.984   4.564   2.286  2.7331 -2.1221 -2.0413
  362MOL0     H49950  11.879   4.591   2.002 -4.5823 -3.6965  0.2186
  362MOL0     H49951  11.865   4.453   2.117  0.0339 -2.0821 -0.8362
  362MOL0     H49952  12.195   4.325   1.908 -0.8752 -1.4732  1.3670
  362MOL0     H49953  11.476   4.739   2.325  2.1969  0.2416 -2.9307
  362MOL0     H49954  11.211   4.748   2.464 -3.4541 -1.2864  0.6826
  362MOL0     H49955  11.236   4.789   2.291  0.8202  0.1105  0.0423
  362MOL0     H49956  11.124   4.659   2.343  0.1123  0.4469 -0.1160
  363MOL0     O49957   4.354   0.820   4.338 -0.0323  0.4027 -0.3244
  363MOL0     C49958   4.314   0.721   4.277  0.1618  0.3593  0.2974
  363MOL0     O49959   4.368   0.594   4.280 -0.1969  0.1889  0.2523
  363MOL0     C49960   4.493   0.580   4.340 -0.6516  0.1022  0.0747
  363MOL0     C49961   4.515   0.526   4.472  0.2067  0.5992 -0.6101
  363MOL0     C49962   4.645   0.517   4.524  0.3532 -1.0258 -0.7452
  363MOL0     C49963   4.757   0.562   4.443 -1.8550  0.6213  0.0105
  363MOL0     O49964   4.890   0.533   4.463  0.2347 -0.1312 -0.1505
  363MOL0     C49965   4.923   0.483   4.597 -0.9357  0.6583 -0.2908
  363MOL0     C49966   4.961   0.329   4.588  0.5590  1.5358  0.0893
  363MOL0     C49967   4.835   0.236   4.544  0.1841 -0.5687  0.5938
  363MOL0     C49968   4.879   0.089   4.585  0.1008 -1.2483 -0.1355
  363MOL0     C49969   4.775  -0.017   4.548  0.1400  0.0843 -0.2875
  363MOL0     C49970   4.756  -0.024   4.399  0.3902 -1.1415 -0.0413
  363MOL0     C49971   4.679  -0.155   4.357  0.1948 -0.2863  0.2364
  363MOL0     C49972   4.529  -0.128   4.374 -0.0555 -0.0451 -0.0474
  363MOL0     N49973   4.461  -0.256   4.361 -0.5180 -0.1088  0.0172
  363MOL0     C49974   4.337  -0.279   4.304  0.8119  0.0470  0.3477
  363MOL0     C49975   4.304  -0.408   4.326 -0.5619 -0.3854 -1.2463
  363MOL0     C49976   4.178  -0.496   4.301 -0.2848 -0.3339 -0.2240
  363MOL0     C49977   4.174  -0.542   4.154 -0.1403  0.5886  0.0273
  363MOL0     C49978   4.292  -0.637   4.134 -0.2511  0.9767  0.2272
  363MOL0     C49979   4.264  -0.749   4.034 -0.2508  0.3454 -0.0225
  363MOL0     O49980   4.220  -0.857   4.116  0.0601  0.0273 -0.1124
  363MOL0     C49981   4.183  -0.978   4.056  0.1158 -0.5549 -0.6776
  363MOL0     C49982   4.199  -1.004   3.923  0.8367  0.4378  0.3496
  363MOL0     C49983   4.171  -1.128   3.866 -0.2836 -0.0256  1.0410
  363MOL0     C49984   4.210  -1.133   3.720 -0.1476 -0.6290  0.9310
  363MOL0     C49985   4.119  -1.234   3.934 -0.7623  0.8005  0.1767
  363MOL0     C49986   4.108  -1.374   3.890  0.5160  0.1644  0.5629
  363MOL0     O49987   3.992  -1.436   3.928  0.1996 -0.7169  0.3076
  363MOL0     C49988   3.990  -1.575   3.922  0.5254 -0.4033 -0.3356
  363MOL0     C49989   3.869  -1.640   3.872 -0.3382  0.7548 -0.6616
  363MOL0     C49990   3.863  -1.780   3.859 -0.3344  0.1407  0.5177
  363MOL0     C49991   3.967  -1.860   3.908  0.3915  1.0558 -0.5350
  363MOL0     O49992   3.946  -1.993   3.919 -1.0733 -0.7020 -0.5383
  363MOL0     C49993   4.056  -2.076   3.854 -0.3203 -0.2076 -0.2437
  363MOL0     C49994   4.013  -2.217   3.844  0.4102  0.2806  0.1426
  363MOL0     C49995   4.126  -2.309   3.804  0.5343 -0.1964  0.0565
  363MOL0     C49996   4.098  -2.453   3.860  0.1787 -1.5351  0.3603
  363MOL0     C49997   4.048  -2.541   3.749 -1.3579  0.7556 -0.4821
  363MOL0     C49998   4.157  -2.633   3.680  0.2118  0.0097  0.4567
  363MOL0     C49999   4.124  -2.684   3.534 -0.6098 -0.0193  1.2868
  363MOL0     C50000   4.237  -2.786   3.503 -0.8054 -0.4527  0.3699
  363MOL0    Cl50001   4.404  -2.714   3.500  0.8424 -0.7669  0.1526
  363MOL0     C50002   4.079  -1.797   3.959  0.2549 -0.4219 -0.7384
  363MOL0     C50003   4.092  -1.661   3.953 -0.2197 -0.4754 -0.9327
  363MOL0     O50004   4.193  -1.427   3.823 -0.2505 -0.4779 -0.1639
  363MOL0     C50005   4.098  -1.215   4.075  0.1271 -0.5432  1.1812
  363MOL0     C50006   4.130  -1.088   4.131 -0.8793  0.2185  0.7965
  363MOL0     N50007   4.418  -0.456   4.398  0.1949 -0.3346 -0.0852
  363MOL0     N50008   4.496  -0.369   4.423 -0.1895  0.3928  1.3410
  363MOL0     C50009   4.733   0.623   4.320  0.5528  0.0160  0.2849
  363MOL0     C50010   4.606   0.627   4.271  0.3504 -1.0339  0.0056
  363MOL0     C50011   4.180   0.722   4.210  0.8326 -0.4795 -0.0206
  363MOL0     C50012   4.155   0.642   4.096  0.8403 -0.5771  0.2274
  363MOL0     C50013   4.023   0.634   4.039 -0.0253 -0.8769 -0.9628
  363MOL0     C50014   3.924   0.720   4.079 -1.2028  0.2238  0.5163
  363MOL0     O50015   3.792   0.703   4.037  0.8908 -0.6722  0.3003
  363MOL0     C50016   3.681   0.783   4.094 -0.7761  0.1046  0.1045
  363MOL0     C50017   3.554   0.746   4.031  0.4398  0.7141  0.5867
  363MOL0     C50018   3.431   0.829   4.080 -0.0726 -0.1814 -0.0578
  363MOL0     C50019   3.463   0.981   4.090  0.4601 -0.5734  0.9738
  363MOL0     C50020   3.340   1.044   4.141 -0.0432  0.9546  0.9464
  363MOL0     C50021   3.232   1.088   4.179 -0.2309 -0.0278 -0.4424
  363MOL0     C50022   3.965   0.832   4.163 -0.0663  0.1893  0.6072
  363MOL0     C50023   4.086   0.826   4.230  0.4049 -0.3378 -0.9848
  363MOL0     C50024   4.110   0.941   4.333 -0.4317 -0.1435  0.8369
  363MOL0     H50025   4.434   0.480   4.527  0.8733 -0.9905 -0.8728
  363MOL0     H50026   4.636   0.484   4.627 -1.8907 -0.1593 -0.6026
  363MOL0     H50027   4.843   0.485   4.671 -2.6834  0.1623 -2.0665
  363MOL0     H50028   5.007   0.546   4.628 -0.7921 -0.4773  1.7611
  363MOL0     H50029   5.040   0.316   4.513  1.0090 -0.1057  0.8121
  363MOL0     H50030   4.996   0.299   4.687 -2.1305 -1.2134  0.3506
  363MOL0     H50031   4.745   0.272   4.593 -0.1440  2.1602 -1.7308
  363MOL0     H50032   4.827   0.244   4.435  3.5052 -1.9802  0.1102
  363MOL0     H50033   4.975   0.073   4.536  0.1382 -2.2185  0.2148
  363MOL0     H50034   4.903   0.086   4.692  0.3007  2.7511  0.0834
  363MOL0     H50035   4.673  -0.002   4.586 -0.7186 -0.0436 -2.3965
  363MOL0     H50036   4.816  -0.113   4.581 -0.3609 -0.2067 -0.4927
  363MOL0     H50037   4.701   0.063   4.360  1.2424  0.3278  1.8754
  363MOL0     H50038   4.853  -0.023   4.348  1.2556  0.0801  1.5502
  363MOL0     H50039   4.700  -0.241   4.421 -1.4557 -2.5667 -2.0516
  363MOL0     H50040   4.703  -0.189   4.256  0.8574  0.8437 -0.0041
  363MOL0     H50041   4.517  -0.099   4.479 -0.7697 -1.0969  0.1817
  363MOL0     H50042   4.482  -0.055   4.308  0.8671 -1.3554 -2.2318
  363MOL0     H50043   4.289  -0.197   4.251  1.0182 -0.5162 -0.7334
  363MOL0     H50044   4.087  -0.437   4.316 -0.9925 -0.7324 -2.5615
  363MOL0     H50045   4.163  -0.583   4.366 -1.5144  1.3104  1.8252
  363MOL0     H50046   4.079  -0.593   4.134  2.2868 -5.6178  2.0168
  363MOL0     H50047   4.185  -0.447   4.101 -3.0587  0.1917 -1.4858
  363MOL0     H50048   4.369  -0.569   4.097 -1.7133  1.4109 -2.2647
  363MOL0     H50049   4.328  -0.684   4.226 -0.9828  3.1741  1.7106
  363MOL0     H50050   4.189  -0.734   3.956 -2.6914 -1.5795  1.7955
  363MOL0     H50051   4.355  -0.778   3.981 -2.3741 -2.4277 -2.5186
  363MOL0     H50052   4.242  -0.924   3.863 -1.7462  1.8020  0.2011
  363MOL0     H50053   4.154  -1.051   3.674 -0.3959 -2.6978 -2.9007
  363MOL0     H50054   4.194  -1.223   3.659  3.7919 -0.5446 -0.4989
  363MOL0     H50055   4.318  -1.124   3.710 -0.3648  2.2149  0.4674
  363MOL0     H50056   3.792  -1.567   3.853 -0.4339  0.6388 -0.7214
  363MOL0     H50057   3.776  -1.831   3.817  0.4502  0.9076 -2.2604
  363MOL0     H50058   4.065  -2.045   3.750 -0.7380 -0.9796 -0.5150
  363MOL0     H50059   4.150  -2.082   3.910 -1.1840  0.2383  1.3125
  363MOL0     H50060   3.970  -2.243   3.942 -0.4609  3.1246  0.5997
  363MOL0     H50061   3.939  -2.233   3.766  0.9771 -1.1130 -0.1478
  363MOL0     H50062   4.217  -2.271   3.850  0.5455 -1.5656  1.2505
  363MOL0     H50063   4.142  -2.311   3.696  0.8325  0.5659  0.0839
  363MOL0     H50064   4.011  -2.458   3.926  1.3192  1.0061  2.2285
  363MOL0     H50065   4.179  -2.498   3.917  1.7260 -0.6824 -1.0733
  363MOL0     H50066   3.973  -2.606   3.795  0.9878 -0.6326  1.6526
  363MOL0     H50067   3.991  -2.488   3.672 -2.6528 -0.9788 -0.7908
  363MOL0     H50068   4.159  -2.721   3.746 -0.1710  1.6608  2.8024
  363MOL0     H50069   4.252  -2.581   3.694  0.2383  0.1344 -0.1496
  363MOL0     H50070   4.125  -2.605   3.459  1.7361  0.2821  1.5748
  363MOL0     H50071   4.026  -2.731   3.521 -0.5182  0.6763 -4.4893
  363MOL0     H50072   4.231  -2.849   3.414  3.3778 -0.0675 -0.3774
  363MOL0     H50073   4.233  -2.851   3.591  0.9432 -2.8535 -1.1823
  363MOL0     H50074   4.168  -1.856   3.981 -1.2828 -2.0207  1.5817
  363MOL0     H50075   4.187  -1.624   3.991 -1.1018 -0.0698  1.0163
  363MOL0     H50076   4.052  -1.294   4.133  1.2828 -0.7163  1.8928
  363MOL0     H50077   4.111  -1.071   4.236 -1.0674  0.0967  0.7837
  363MOL0     H50078   4.808   0.664   4.253  1.9639 -2.2468  0.3722
  363MOL0     H50079   4.600   0.681   4.177 -0.5455 -0.7458  0.2209
  363MOL0     H50080   4.234   0.580   4.054  1.5965  0.5689 -0.0908
  363MOL0     H50081   4.008   0.565   3.956 -4.8925  0.7055 -1.7630
  363MOL0     H50082   3.665   0.767   4.201 -0.1387  0.7940  0.3102
  363MOL0     H50083   3.703   0.887   4.067 -2.6146  0.1776 -1.2618
  363MOL0     H50084   3.527   0.641   4.050 -1.2765  0.2805 -3.2699
  363MOL0     H50085   3.575   0.761   3.925  0.7789  1.7847  0.8001
  363MOL0     H50086   3.343   0.812   4.018  0.0456  1.2230 -0.6348
  363MOL0     H50087   3.411   0.787   4.180 -0.7702 -0.7969 -0.4470
  363MOL0     H50088   3.468   1.020   3.988 -1.8631  0.2369  1.1059
  363MOL0     H50089   3.549   1.025   4.139  1.0548 -0.9655  0.3052
  363MOL0     H50090   3.144   1.137   4.215  0.9871  1.1300  1.1161
  363MOL0     H50091   3.893   0.903   4.201  0.9172  1.5640 -0.0389
  363MOL0     H50092   4.017   0.997   4.351 -2.3268 -2.8336 -0.0128
  363MOL0     H50093   4.143   0.919   4.435  1.0540 -0.1631  0.3812
  363MOL0     H50094   4.172   1.019   4.287 -0.3163 -1.6353 -1.6901
  364MOL0     O50095   2.609   4.488   6.168 -0.8525 -0.0539 -0.4477
  364MOL0     C50096   2.674   4.444   6.068 -0.0556 -0.2782  0.3329
  364MOL0     O50097   2.783   4.366   6.083 -0.0367 -0.3968  1.1573
  364MOL0     C50098   2.877   4.401   5.994  0.6003 -0.1929  0.2901
  364MOL0     C50099   2.933   4.532   5.986 -0.2739  0.5311  0.1657
  364MOL0     C50100   3.043   4.557   5.898 -0.5153  0.6662  0.0008
  364MOL0     C50101   3.086   4.453   5.804 -0.7462 -0.2642  0.3632
  364MOL0     O50102   3.198   4.465   5.726 -0.1800 -0.1451 -0.7744
  364MOL0     C50103   3.226   4.588   5.664  1.2593 -0.5013  0.2015
  364MOL0     C50104   3.328   4.565   5.563  0.4835 -0.1216  0.9364
  364MOL0     C50105   3.446   4.491   5.622 -0.5883  0.5671  0.1089
  364MOL0     C50106   3.576   4.513   5.538  0.2063 -0.5041 -0.7442
  364MOL0     C50107   3.704   4.451   5.600  0.3132  0.0808  1.1104
  364MOL0     C50108   3.771   4.386   5.479 -0.5333  0.3589  0.3914
  364MOL0     C50109   3.897   4.309   5.511  0.0748 -0.4915 -0.5902
  364MOL0     C50110   4.017   4.407   5.511 -0.3053 -0.2496  0.1311
  364MOL0     N50111   4.071   4.450   5.379 -1.0077  0.6845  0.4081
  364MOL0     C50112   4.013   4.547   5.301  0.3887 -0.0285  0.5135
  364MOL0     C50113   4.052   4.513   5.171  0.7422  0.3520 -0.0390
  364MOL0     C50114   4.006   4.578   5.048 -0.4277  0.8553  0.1483
  364MOL0     C50115   3.871   4.516   4.998 -0.7306 -0.2295 -0.4591
  364MOL0     C50116   3.856   4.361   4.991 -1.1789 -1.0950  0.8256
  364MOL0     C50117   3.967   4.303   4.910 -0.0869 -0.5965  0.0973
  364MOL0     O50118   3.958   4.158   4.912  0.1697 -0.8185 -0.3650
  364MOL0     C50119   4.073   4.100   4.949  0.1302  0.9755 -1.0573
  364MOL0     C50120   4.144   4.024   4.858 -0.9377  1.3567  0.1930
  364MOL0     C50121   4.245   3.943   4.893 -0.4005 -0.6922  0.5648
  364MOL0     C50122   4.300   3.856   4.788  0.3616  0.7274  0.8019
  364MOL0     C50123   4.304   3.958   5.023  0.0248  0.4204  0.2695
  364MOL0     C50124   4.418   3.872   5.057 -0.1156 -0.8419  1.0359
  364MOL0     O50125   4.392   3.807   5.170  0.0408 -0.7616  1.1555
  364MOL0     C50126   4.488   3.741   5.251  0.4995 -1.2912  0.8874
  364MOL0     C50127   4.515   3.610   5.235  0.1259  1.0074 -0.2364
  364MOL0     C50128   4.593   3.543   5.331  0.4392  1.0974  0.6189
  364MOL0     C50129   4.644   3.601   5.450 -0.5960 -0.1968 -0.4146
  364MOL0     O50130   4.712   3.529   5.551 -0.1452  0.0595  0.0393
  364MOL0     C50131   4.653   3.403   5.575 -0.1126 -0.3196 -0.0719
  364MOL0     C50132   4.692   3.341   5.704 -0.6292  0.5188 -0.4455
  364MOL0     C50133   4.619   3.400   5.823 -0.7661 -0.7416  0.0066
  364MOL0     C50134   4.705   3.420   5.946  0.4711  0.5948 -0.5678
  364MOL0     C50135   4.621   3.461   6.071 -0.2449  0.5793 -1.1622
  364MOL0     C50136   4.534   3.353   6.149 -0.0666 -0.7266 -0.3967
  364MOL0     C50137   4.428   3.424   6.231  0.1340  0.1774  0.0589
  364MOL0     C50138   4.377   3.353   6.358 -0.7803 -0.2832  0.5285
  364MOL0    Cl50139   4.458   3.425   6.505  0.1199 -0.1534  0.4801
  364MOL0     C50140   4.616   3.734   5.466 -0.2315 -0.9350  0.0992
  364MOL0     C50141   4.542   3.804   5.366 -0.1930  0.6655  0.2714
  364MOL0     O50142   4.517   3.855   4.987 -0.1400 -0.7750 -1.0861
  364MOL0     C50143   4.243   4.038   5.114 -1.5912  1.0255 -0.1775
  364MOL0     C50144   4.127   4.105   5.080 -0.4583 -0.7597 -0.1352
  364MOL0     N50145   4.156   4.412   5.182  1.0150  0.8297 -0.6154
  364MOL0     N50146   4.177   4.391   5.313 -0.5769  0.1513 -0.7342
  364MOL0     C50147   3.033   4.325   5.822  0.0671  0.4203 -0.5705
  364MOL0     C50148   2.926   4.302   5.911  0.1859  0.6471 -0.0820
  364MOL0     C50149   2.609   4.486   5.943 -0.5049  0.5320  0.1370
  364MOL0     C50150   2.573   4.628   5.928 -0.4235 -0.3186 -0.1877
  364MOL0     C50151   2.483   4.660   5.824  0.2499 -0.8386  0.0434
  364MOL0     C50152   2.430   4.579   5.731 -0.4981  0.8962 -0.1753
  364MOL0     O50153   2.326   4.624   5.656  1.1439  0.1140 -0.7044
  364MOL0     C50154   2.350   4.626   5.521 -0.5552  0.1059  0.2129
  364MOL0     C50155   2.362   4.773   5.484 -0.6938  0.2765  0.9146
  364MOL0     C50156   2.249   4.870   5.505 -0.3497 -0.3823 -0.2576
  364MOL0     C50157   2.232   4.963   5.397  0.1045 -0.8951  0.3884
  364MOL0     C50158   2.165   4.907   5.277  0.4775  0.7445 -0.0305
  364MOL0     C50159   2.110   4.884   5.173 -0.2065 -0.4644 -0.1470
  364MOL0     C50160   2.468   4.445   5.744 -0.0266 -0.7641  0.6859
  364MOL0     C50161   2.557   4.398   5.842 -0.7448  0.4001 -0.4260
  364MOL0     C50162   2.568   4.248   5.840 -0.3375  1.2619 -0.4169
  364MOL0     H50163   2.892   4.611   6.049 -2.3226  1.2199 -1.8967
  364MOL0     H50164   3.075   4.660   5.885 -0.4301  0.9665  2.3049
  364MOL0     H50165   3.250   4.663   5.739  0.0097  0.2548 -0.1150
  364MOL0     H50166   3.131   4.615   5.616  0.8197 -3.3628 -0.7030
  364MOL0     H50167   3.287   4.510   5.478  3.2193 -2.5699  1.0257
  364MOL0     H50168   3.374   4.656   5.525  1.3120 -0.8147  0.2329
  364MOL0     H50169   3.455   4.540   5.720 -5.0115  1.3134  0.3606
  364MOL0     H50170   3.413   4.387   5.634  1.1677 -0.7824 -4.7105
  364MOL0     H50171   3.552   4.485   5.435  2.9408 -0.0943 -1.5948
  364MOL0     H50172   3.601   4.619   5.536 -0.0639 -0.4441 -0.9487
  364MOL0     H50173   3.682   4.373   5.673 -1.7987  0.1411  0.6149
  364MOL0     H50174   3.772   4.522   5.649  4.1779 -4.1964  2.5927
  364MOL0     H50175   3.702   4.317   5.430  0.5687  0.0406 -0.7478
  364MOL0     H50176   3.792   4.461   5.402  0.2479 -0.8909 -0.6498
  364MOL0     H50177   3.915   4.237   5.431 -2.6025 -1.0638 -0.7722
  364MOL0     H50178   3.872   4.249   5.599 -5.6707  0.0535 -1.5061
  364MOL0     H50179   4.015   4.498   5.572  4.4466  0.5509 -0.5403
  364MOL0     H50180   4.099   4.355   5.562  1.2297  0.7068 -1.2493
  364MOL0     H50181   3.925   4.609   5.318 -1.9326 -2.5627 -1.3527
  364MOL0     H50182   4.087   4.564   4.975 -0.2015 -2.1124  0.8445
  364MOL0     H50183   4.010   4.686   5.069  1.2724  1.1181 -1.2878
  364MOL0     H50184   3.807   4.544   5.082  1.3129  0.2652  1.0331
  364MOL0     H50185   3.830   4.570   4.912 -1.3337  0.4204  0.2173
  364MOL0     H50186   3.858   4.318   5.091  1.4121  0.0493  1.3548
  364MOL0     H50187   3.760   4.338   4.943 -0.5414  0.8229 -1.6367
  364MOL0     H50188   3.955   4.352   4.813  0.2029  0.8153  0.7544
  364MOL0     H50189   4.065   4.348   4.923 -1.7142  2.7023  2.6814
  364MOL0     H50190   4.109   4.034   4.756  0.3373  0.8342 -0.3246
  364MOL0     H50191   4.405   3.867   4.761  1.2446 -3.0226  2.1258
  364MOL0     H50192   4.240   3.841   4.698  1.0915  1.5701  0.1541
  364MOL0     H50193   4.312   3.754   4.825 -1.9930 -0.3452 -1.1869
  364MOL0     H50194   4.467   3.547   5.161 -1.0101  1.3430  0.1874
  364MOL0     H50195   4.609   3.436   5.313 -2.9955  0.4198  1.0230
  364MOL0     H50196   4.545   3.400   5.555 -0.1863 -3.1287  0.2315
  364MOL0     H50197   4.692   3.342   5.493  0.3267  0.9087 -0.7983
  364MOL0     H50198   4.662   3.236   5.699 -3.4899  1.0462  2.1770
  364MOL0     H50199   4.800   3.351   5.708 -0.7945  3.3711 -1.0134
  364MOL0     H50200   4.542   3.323   5.836 -0.8154 -0.7991 -0.6118
  364MOL0     H50201   4.565   3.494   5.807 -1.3453 -0.8770  1.0296
  364MOL0     H50202   4.775   3.503   5.947 -1.2118  2.0716  0.0109
  364MOL0     H50203   4.747   3.325   5.980 -0.1562  0.8795  1.1174
  364MOL0     H50204   4.697   3.497   6.141  2.9155 -1.1912 -3.3805
  364MOL0     H50205   4.554   3.537   6.032 -2.4528  0.9465  2.8623
  364MOL0     H50206   4.601   3.290   6.207  0.9602  1.9741  1.5730
  364MOL0     H50207   4.474   3.297   6.077 -2.5266 -0.5622  1.4215
  364MOL0     H50208   4.350   3.447   6.158  0.8096 -2.8932 -1.7948
  364MOL0     H50209   4.463   3.518   6.275  2.1879 -0.7395  0.4698
  364MOL0     H50210   4.419   3.253   6.347  1.5310  0.8551 -2.5105
  364MOL0     H50211   4.269   3.356   6.375 -1.1468  1.5195 -1.7245
  364MOL0     H50212   4.639   3.777   5.563 -2.1279  0.1651  0.1100
  364MOL0     H50213   4.516   3.907   5.390 -0.6320 -0.3121  5.2162
  364MOL0     H50214   4.276   4.034   5.217 -1.0704 -2.1249 -0.3708
  364MOL0     H50215   4.077   4.172   5.149 -0.5854 -1.9034  0.9208
  364MOL0     H50216   3.087   4.244   5.773  3.0115  0.8673  1.6728
  364MOL0     H50217   2.883   4.203   5.897  2.3429 -0.5592  1.1397
  364MOL0     H50218   2.598   4.706   5.999  0.6800  0.8284 -1.7789
  364MOL0     H50219   2.444   4.761   5.832  0.1881 -0.9404  1.2455
  364MOL0     H50220   2.444   4.581   5.488 -0.6749  1.1733 -1.7008
  364MOL0     H50221   2.269   4.578   5.466 -1.5582  0.6072  1.2163
  364MOL0     H50222   2.386   4.774   5.377 -2.2442 -1.7610  0.4674
  364MOL0     H50223   2.449   4.808   5.538 -0.6198 -0.4011  1.2502
  364MOL0     H50224   2.165   4.806   5.533 -1.5526  1.4928  0.6416
  364MOL0     H50225   2.272   4.935   5.590  1.6711  1.4471 -2.0573
  364MOL0     H50226   2.329   5.011   5.378  2.1647 -2.4137  5.4070
  364MOL0     H50227   2.167   5.044   5.432 -0.2384 -1.1121  0.2598
  364MOL0     H50228   2.063   4.861   5.080 -1.8503  4.3265 -0.8181
  364MOL0     H50229   2.416   4.376   5.679 -1.6696 -0.7483  1.9321
  364MOL0     H50230   2.666   4.225   5.796 -0.1707 -1.2324  1.0868
  364MOL0     H50231   2.566   4.204   5.940 -2.6055  1.5933 -0.2669
  364MOL0     H50232   2.493   4.203   5.774  0.7270 -4.7063  1.7978
  365MOL0     O50233   2.922   8.547   2.737 -0.4513  0.4202 -0.1184
  365MOL0     C50234   2.880   8.555   2.857 -0.1044  0.1398  0.1277
  365MOL0     O50235   2.899   8.462   2.951 -0.3302 -0.1462 -0.3710
  365MOL0     C50236   2.953   8.338   2.924  0.6404 -0.7696  0.3273
  365MOL0     C50237   2.907   8.242   3.010 -0.0138 -0.1256  0.5958
  365MOL0     C50238   2.950   8.110   2.983  0.0586 -0.1973 -0.0488
  365MOL0     C50239   3.031   8.070   2.876 -0.5144 -0.4588  0.3136
  365MOL0     O50240   3.069   7.941   2.857 -0.0373 -0.2599 -0.4702
  365MOL0     C50241   3.078   7.846   2.968 -1.0654 -0.3066 -0.6293
  365MOL0     C50242   3.106   7.712   2.899  0.0580 -0.0195 -0.3831
  365MOL0     C50243   2.978   7.646   2.847  0.4228  0.1194 -0.0634
  365MOL0     C50244   2.889   7.580   2.959  0.1968  0.2121  0.6700
  365MOL0     C50245   2.951   7.448   3.005 -0.1767  0.7502 -0.0253
  365MOL0     C50246   2.945   7.329   2.901  1.1459 -0.0938 -0.1897
  365MOL0     C50247   2.975   7.203   2.975 -0.1810  0.1228  0.2637
  365MOL0     C50248   2.922   7.063   2.929 -0.8077  0.8287  0.3591
  365MOL0     N50249   2.977   7.022   2.802 -0.2368  0.3229 -0.1511
  365MOL0     C50250   2.902   6.957   2.707  0.1456 -0.5110  1.1002
  365MOL0     C50251   2.982   6.918   2.614 -0.3234 -0.3925  0.8680
  365MOL0     C50252   2.946   6.840   2.489  0.6204  0.6886 -0.6884
  365MOL0     C50253   2.944   6.922   2.362  0.0022  0.2335 -0.7456
  365MOL0     C50254   2.854   7.045   2.362  1.2068 -0.4169  0.5993
  365MOL0     C50255   2.917   7.177   2.392  0.4749 -0.0489 -0.2416
  365MOL0     O50256   2.817   7.270   2.428 -0.2917  0.0639 -0.4067
  365MOL0     C50257   2.845   7.403   2.460 -0.8284 -0.1621  0.3403
  365MOL0     C50258   2.950   7.472   2.408  0.4559  0.1917 -0.2274
  365MOL0     C50259   2.956   7.615   2.406 -0.1451 -0.0161  0.2275
  365MOL0     C50260   3.085   7.665   2.342  0.0207 -0.2471  0.0732
  365MOL0     C50261   2.849   7.691   2.466  0.2238  0.6396  0.4038
  365MOL0     C50262   2.839   7.835   2.448 -0.7445  0.4866 -0.6956
  365MOL0     O50263   2.725   7.898   2.496  0.1661 -0.7415 -0.2478
  365MOL0     C50264   2.713   8.027   2.474 -0.4645 -1.3537  0.5304
  365MOL0     C50265   2.683   8.088   2.350  0.0871  1.4171 -0.1809
  365MOL0     C50266   2.671   8.218   2.323 -0.8606  1.3617  0.2015
  365MOL0     C50267   2.677   8.306   2.425 -0.0293 -0.3596 -0.5016
  365MOL0     O50268   2.656   8.443   2.407  0.3424  0.2485 -0.7348
  365MOL0     C50269   2.614   8.510   2.294  0.8875 -0.3059 -0.0009
  365MOL0     C50270   2.546   8.647   2.318 -0.3379 -0.1003 -0.3975
  365MOL0     C50271   2.548   8.739   2.194  0.0324  0.2436 -0.2870
  365MOL0     C50272   2.471   8.866   2.229 -0.2198  0.0281  0.5897
  365MOL0     C50273   2.516   8.973   2.116 -0.5370  0.4039  0.3240
  365MOL0     C50274   2.436   9.106   2.114 -0.4298  0.1960 -0.1349
  365MOL0     C50275   2.498   9.172   1.995  0.5715  0.5243 -0.0767
  365MOL0     C50276   2.445   9.317   1.987 -0.1781 -0.2706 -0.4475
  365MOL0    Cl50277   2.268   9.318   1.950  0.3119  0.4548 -0.0974
  365MOL0     C50278   2.716   8.259   2.548  0.0272  0.5537  0.3685
  365MOL0     C50279   2.736   8.120   2.577  0.1585  0.3784  0.2368
  365MOL0     O50280   2.933   7.894   2.392 -0.5746  0.6334 -0.1003
  365MOL0     C50281   2.750   7.615   2.530 -0.4571  0.2081 -0.0114
  365MOL0     C50282   2.748   7.475   2.522  0.7033 -0.0393 -0.7469
  365MOL0     N50283   3.114   6.955   2.655 -0.1740  0.1316  1.0396
  365MOL0     N50284   3.111   7.013   2.769  0.2294 -0.4942 -0.2470
  365MOL0     C50285   3.070   8.169   2.794 -0.2681 -0.0953 -0.9081
  365MOL0     C50286   3.043   8.307   2.825 -0.4173 -0.2641  0.3242
  365MOL0     C50287   2.831   8.689   2.901 -0.4289  0.8331 -0.5335
  365MOL0     C50288   2.872   8.736   3.034 -0.0682 -0.5041 -0.5107
  365MOL0     C50289   2.836   8.869   3.071 -0.3671 -0.0868 -0.3596
  365MOL0     C50290   2.753   8.947   2.993 -0.2520 -0.0383 -0.2526
  365MOL0     O50291   2.733   9.071   3.042  0.2855  0.1755 -0.1934
  365MOL0     C50292   2.630   9.159   2.988  0.9780  0.5760 -1.0333
  365MOL0     C50293   2.669   9.221   2.857  0.7744 -0.4427 -0.9654
  365MOL0     C50294   2.710   9.366   2.870 -0.2153 -0.4644 -0.6961
  365MOL0     C50295   2.610   9.463   2.936 -0.6298 -0.1742  0.8463
  365MOL0     C50296   2.492   9.451   2.848  1.2089 -0.2081  0.4238
  365MOL0     C50297   2.390   9.472   2.778  1.3056  1.2050  0.5198
  365MOL0     C50298   2.700   8.891   2.868  0.0682 -0.6347 -0.5278
  365MOL0     C50299   2.741   8.768   2.823  0.0880 -0.5910 -0.5997
  365MOL0     C50300   2.680   8.723   2.692 -0.2527 -0.2520 -1.1524
  365MOL0     H50301   2.841   8.277   3.090  2.2776  3.9291  0.9670
  365MOL0     H50302   2.899   8.041   3.049 -1.7298  2.6207  1.7208
  365MOL0     H50303   2.980   7.843   3.016 -1.5802  1.1988 -1.5057
  365MOL0     H50304   3.153   7.886   3.037 -3.7069  2.7494  0.7146
  365MOL0     H50305   3.171   7.733   2.813 -0.6526  3.4157 -0.2211
  365MOL0     H50306   3.168   7.652   2.967  2.2907  0.5245 -1.8375
  365MOL0     H50307   2.926   7.724   2.791  0.5390 -0.6363 -1.2531
  365MOL0     H50308   3.003   7.566   2.777 -2.4572  0.5248 -1.6779
  365MOL0     H50309   2.868   7.642   3.047 -0.3591 -0.6578  1.1654
  365MOL0     H50310   2.797   7.550   2.908  0.7078 -1.9795  0.9281
  365MOL0     H50311   2.882   7.417   3.084  0.5398  3.6211  1.8978
  365MOL0     H50312   3.048   7.450   3.054  0.2522 -1.0210 -0.7394
  365MOL0     H50313   2.841   7.319   2.868  1.5656 -1.5915 -1.1802
  365MOL0     H50314   3.011   7.343   2.815 -0.3190  1.0010 -1.1848
  365MOL0     H50315   2.924   7.212   3.071 -0.6137 -1.1660  0.1786
  365MOL0     H50316   3.080   7.211   3.004 -0.9107  0.8456  2.8898
  365MOL0     H50317   2.944   6.986   3.003 -2.6104  1.1365  1.2604
  365MOL0     H50318   2.813   7.057   2.917 -0.6882  2.0660 -1.9582
  365MOL0     H50319   2.798   6.926   2.714 -0.2368 -0.3178 -2.2977
  365MOL0     H50320   2.846   6.795   2.491  0.0159  1.4980 -4.5948
  365MOL0     H50321   3.022   6.761   2.492  0.7430  0.8074 -0.6652
  365MOL0     H50322   3.048   6.942   2.334  0.5426 -1.7100 -0.3146
  365MOL0     H50323   2.907   6.859   2.280  0.1175  0.0723 -0.6743
  365MOL0     H50324   2.815   7.042   2.260  4.9913  0.4632 -1.0819
  365MOL0     H50325   2.773   7.044   2.435  0.1894  1.8225 -0.4033
  365MOL0     H50326   2.976   7.162   2.483 -2.1536 -2.1290  1.2685
  365MOL0     H50327   2.970   7.217   2.306 -0.5717 -0.9870 -1.3626
  365MOL0     H50328   3.030   7.424   2.353  1.5667 -2.5269  3.3581
  365MOL0     H50329   3.063   7.738   2.264  0.4305 -1.5259 -1.3056
  365MOL0     H50330   3.150   7.588   2.298  0.8237 -0.2501  1.2065
  365MOL0     H50331   3.148   7.714   2.416 -1.2716 -2.7035  3.0381
  365MOL0     H50332   2.669   8.014   2.271 -0.4915 -1.8896  2.7614
  365MOL0     H50333   2.647   8.257   2.225 -0.2100  1.8563  0.2325
  365MOL0     H50334   2.702   8.521   2.230  1.7736 -0.5788  1.1349
  365MOL0     H50335   2.528   8.458   2.253 -1.2771  3.9760 -1.5435
  365MOL0     H50336   2.440   8.626   2.337 -0.3620  1.2518  1.2020
  365MOL0     H50337   2.591   8.704   2.400 -0.3678  0.6380 -0.8911
  365MOL0     H50338   2.506   8.690   2.106 -2.1920  3.6542 -1.3420
  365MOL0     H50339   2.654   8.764   2.184  0.1217 -0.8321 -2.4557
  365MOL0     H50340   2.503   8.912   2.323 -1.7446  2.9998 -0.2339
  365MOL0     H50341   2.363   8.854   2.214 -0.3905  1.0836  0.8696
  365MOL0     H50342   2.621   8.994   2.140 -0.8994 -0.6603  3.2990
  365MOL0     H50343   2.504   8.918   2.023 -1.3295  2.1326 -0.6389
  365MOL0     H50344   2.462   9.170   2.199  4.0777  1.8355 -2.4104
  365MOL0     H50345   2.328   9.095   2.098 -0.1714 -1.1791 -1.1995
  365MOL0     H50346   2.479   9.112   1.905 -0.8091  0.8148 -0.0068
  365MOL0     H50347   2.604   9.190   2.015  0.0353  3.0733  0.8311
  365MOL0     H50348   2.492   9.368   1.904 -1.0119  1.9458  0.3738
  365MOL0     H50349   2.459   9.370   2.082 -4.4559  2.0850 -0.8740
  365MOL0     H50350   2.733   8.330   2.629  1.4373  1.2186 -0.4677
  365MOL0     H50351   2.768   8.080   2.673  1.5129 -0.5820 -0.5849
  365MOL0     H50352   2.667   7.663   2.580  0.8215  1.5583  0.9076
  365MOL0     H50353   2.653   7.432   2.554 -0.0463  1.3273 -1.0396
  365MOL0     H50354   3.136   8.127   2.719  1.5717 -0.1986  0.6984
  365MOL0     H50355   3.095   8.381   2.765 -0.3776  1.3272  2.2124
  365MOL0     H50356   2.915   8.672   3.109 -2.9244 -1.1201  0.7609
  365MOL0     H50357   2.869   8.919   3.162  4.4142 -2.1382 -0.6468
  365MOL0     H50358   2.537   9.105   2.967  0.7790  0.6894 -0.4583
  365MOL0     H50359   2.604   9.230   3.066  1.3109  0.3181 -0.6860
  365MOL0     H50360   2.575   9.221   2.801 -0.3307  1.4607  0.7395
  365MOL0     H50361   2.745   9.171   2.796 -2.2558 -3.1680 -2.9030
  365MOL0     H50362   2.806   9.371   2.924  0.8393  0.2884 -2.5542
  365MOL0     H50363   2.734   9.391   2.767 -2.9258  1.2318 -1.0041
  365MOL0     H50364   2.652   9.563   2.924 -2.7235  0.6161 -0.3997
  365MOL0     H50365   2.600   9.462   3.045 -1.3637 -0.6521  0.7806
  365MOL0     H50366   2.301   9.500   2.726  1.6276  2.8211  0.7865
  365MOL0     H50367   2.644   8.956   2.802  2.8628  1.3492 -1.0944
  365MOL0     H50368   2.595   8.791   2.681  3.7008  5.7747  0.4933
  365MOL0     H50369   2.746   8.724   2.605 -1.3043  2.2458 -2.0193
  365MOL0     H50370   2.657   8.618   2.713 -1.2454  0.2658  0.5199
  366MOL0     O50371   5.391   1.774   9.183  0.1763 -0.2086 -0.4246
  366MOL0     C50372   5.464   1.745   9.088  0.2450  0.9063  0.0992
  366MOL0     O50373   5.602   1.710   9.096  0.3081 -0.0168  0.0423
  366MOL0     C50374   5.682   1.708   9.215 -0.6572  1.0280 -0.8190
  366MOL0     C50375   5.702   1.585   9.281 -0.8064  0.0758 -1.3474
  366MOL0     C50376   5.789   1.580   9.395  0.8497  0.1090 -0.2316
  366MOL0     C50377   5.835   1.693   9.447 -0.5707  0.0616  0.1418
  366MOL0     O50378   5.900   1.674   9.570  0.7433 -1.1029  0.0119
  366MOL0     C50379   5.853   1.759   9.668  1.0852  0.1494  0.3212
  366MOL0     C50380   5.941   1.751   9.791 -0.1522  0.0823  0.4778
  366MOL0     C50381   6.092   1.782   9.761  0.5893  0.2935  0.4919
  366MOL0     C50382   6.172   1.654   9.750  0.2523  0.5622 -1.1105
  366MOL0     C50383   6.319   1.693   9.764  0.7131  0.3394 -0.8075
  366MOL0     C50384   6.403   1.558   9.787  0.0645 -0.1619 -0.2919
  366MOL0     C50385   6.554   1.593   9.794 -0.0267 -0.8704 -0.4802
  366MOL0     C50386   6.587   1.695   9.907  0.8218  0.0152 -0.5005
  366MOL0     N50387   6.727   1.690   9.953  0.2647  0.6864  0.0834
  366MOL0     C50388   6.802   1.573   9.979 -0.6552 -0.1410  0.0637
  366MOL0     C50389   6.914   1.617  10.038  0.8238 -0.1333  0.1169
  366MOL0     C50390   7.034   1.541  10.077 -0.8845  0.1206 -0.9003
  366MOL0     C50391   7.110   1.493   9.956 -0.1225  0.2652 -0.3669
  366MOL0     C50392   7.236   1.416   9.996  0.4147 -1.5378  0.9808
  366MOL0     C50393   7.295   1.331   9.888  0.0424 -0.2573  0.8965
  366MOL0     O50394   7.195   1.220   9.879 -0.5946 -0.2376  0.4369
  366MOL0     C50395   7.188   1.139   9.774  1.2499 -0.1631 -0.3917
  366MOL0     C50396   7.082   1.050   9.779  0.4742 -0.5749 -0.0458
  366MOL0     C50397   7.054   0.955   9.684 -0.1870 -1.2893 -0.0386
  366MOL0     C50398   6.944   0.858   9.712  0.2511  0.0071 -0.2925
  366MOL0     C50399   7.144   0.951   9.574  0.2673  1.0290 -0.3942
  366MOL0     C50400   7.115   0.863   9.444 -0.5774 -0.4662  0.8141
  366MOL0     O50401   7.000   0.787   9.435 -0.5299  0.7336 -0.0593
  366MOL0     C50402   6.986   0.734   9.307  0.9022  0.9287  0.2000
  366MOL0     C50403   6.902   0.809   9.226 -0.4512 -0.2332  0.8864
  366MOL0     C50404   6.879   0.772   9.091  0.1988  0.8378  0.7773
  366MOL0     C50405   6.939   0.648   9.039 -0.4636 -0.4402 -0.2299
  366MOL0     O50406   6.915   0.613   8.909 -0.1082  0.5120  0.6327
  366MOL0     C50407   7.002   0.519   8.839  1.0663  0.0754  0.1557
  366MOL0     C50408   6.940   0.456   8.714  1.0240 -0.2377 -0.4212
  366MOL0     C50409   6.812   0.381   8.718 -0.4536  0.5975 -0.0570
  366MOL0     C50410   6.814   0.250   8.803  0.1241 -0.8758  0.1740
  366MOL0     C50411   6.675   0.196   8.784  0.9641  0.5004 -0.0761
  366MOL0     C50412   6.639   0.061   8.839  0.3626 -0.2102  0.6390
  366MOL0     C50413   6.492   0.031   8.802 -0.0891 -0.5237  0.1540
  366MOL0     C50414   6.455  -0.120   8.804 -0.0701 -0.4041 -0.7066
  366MOL0    Cl50415   6.556  -0.210   8.675  0.1670  0.2805 -0.1938
  366MOL0     C50416   7.019   0.573   9.132 -0.3722 -0.3929 -0.1123
  366MOL0     C50417   7.046   0.621   9.256 -0.5272 -0.1530  0.0989
  366MOL0     O50418   7.195   0.876   9.352 -0.3363  0.6590 -0.6130
  366MOL0     C50419   7.264   1.020   9.584  0.7352 -0.2464  0.0869
  366MOL0     C50420   7.275   1.128   9.669  0.8273  0.1682  0.0975
  366MOL0     N50421   6.893   1.759  10.054  0.6206 -0.2064 -1.0840
  366MOL0     N50422   6.782   1.800  10.011 -0.2676  0.5192  0.1738
  366MOL0     C50423   5.820   1.817   9.378 -0.5526 -0.0030  1.2263
  366MOL0     C50424   5.750   1.823   9.257  0.5996 -0.6371 -0.3884
  366MOL0     C50425   5.401   1.732   8.961  0.5381 -0.1342  0.1483
  366MOL0     C50426   5.452   1.636   8.872 -0.3960 -0.0076  1.0565
  366MOL0     C50427   5.406   1.626   8.742  0.5129  0.5780 -0.4118
  366MOL0     C50428   5.303   1.701   8.694  0.3842 -0.2808  0.4547
  366MOL0     O50429   5.269   1.676   8.565 -0.0957  0.1120  0.0550
  366MOL0     C50430   5.155   1.743   8.503  0.1670 -0.0409  1.0995
  366MOL0     C50431   5.139   1.729   8.341 -0.7255 -0.3735  0.2171
  366MOL0     C50432   5.278   1.757   8.276 -0.2063  0.2397 -0.4888
  366MOL0     C50433   5.284   1.756   8.125 -1.1283  0.4029 -1.0553
  366MOL0     C50434   5.164   1.811   8.075  0.2717 -0.2395  0.7300
  366MOL0     C50435   5.068   1.853   8.018 -0.9070 -0.6108 -0.3962
  366MOL0     C50436   5.244   1.795   8.785 -1.0411 -0.2630 -0.2414
  366MOL0     C50437   5.288   1.808   8.913  1.1360 -0.6801 -0.8979
  366MOL0     C50438   5.212   1.914   9.002  0.6835  1.3823  0.3117
  366MOL0     H50439   5.652   1.496   9.245 -0.2185 -1.0728  0.5543
  366MOL0     H50440   5.804   1.489   9.452  1.9083  1.0338  1.0377
  366MOL0     H50441   5.751   1.727   9.689  0.8312  0.2383 -0.7385
  366MOL0     H50442   5.866   1.862   9.633  1.7354 -0.3346 -0.9541
  366MOL0     H50443   5.904   1.823   9.864 -1.6926  2.7851 -2.6829
  366MOL0     H50444   5.933   1.649   9.831  0.8529 -1.1831 -2.2787
  366MOL0     H50445   6.107   1.834   9.665 -1.3212  0.4438  0.2240
  366MOL0     H50446   6.110   1.851   9.843 -5.2334  0.9478  1.7007
  366MOL0     H50447   6.143   1.597   9.839 -2.2276  2.7797 -0.3719
  366MOL0     H50448   6.146   1.601   9.658  2.8957  0.4769 -1.8908
  366MOL0     H50449   6.328   1.751   9.857  1.0065 -0.6052 -0.2267
  366MOL0     H50450   6.347   1.754   9.677  1.5793 -1.1372 -1.6027
  366MOL0     H50451   6.356   1.513   9.875 -0.3947 -1.8663 -1.3711
  366MOL0     H50452   6.385   1.494   9.701  1.3112 -0.5449 -0.2982
  366MOL0     H50453   6.593   1.632   9.699  1.1329 -2.4957 -0.7149
  366MOL0     H50454   6.609   1.499   9.801 -0.1371 -0.9009 -0.0102
  366MOL0     H50455   6.563   1.798   9.881 -2.3878  0.0933  2.1090
  366MOL0     H50456   6.524   1.683   9.996 -0.8963 -0.7406 -1.7699
  366MOL0     H50457   6.781   1.469   9.955  1.2617 -1.3796  3.0922
  366MOL0     H50458   7.008   1.444  10.122 -4.5375  1.3992  0.0987
  366MOL0     H50459   7.094   1.607  10.140  0.2144 -1.4113 -0.2815
  366MOL0     H50460   7.047   1.425   9.897  0.8189  0.7183 -1.9719
  366MOL0     H50461   7.138   1.580   9.896  2.4924  0.5245  1.1040
  366MOL0     H50462   7.318   1.483  10.022  0.5648 -0.8841 -0.9943
  366MOL0     H50463   7.218   1.361  10.089 -1.6557 -2.0963  0.3089
  366MOL0     H50464   7.286   1.385   9.793 -4.4920 -1.4266  0.4309
  366MOL0     H50465   7.398   1.297   9.899  0.9432  2.1348  0.5185
  366MOL0     H50466   7.009   1.065   9.858 -0.6595  0.4440 -1.2389
  366MOL0     H50467   6.864   0.878   9.640  2.1070  1.8298 -1.9925
  366MOL0     H50468   6.913   0.874   9.815  1.4870 -2.1777  0.4931
  366MOL0     H50469   6.992   0.760   9.702  1.7273  0.1529  3.6738
  366MOL0     H50470   6.861   0.899   9.271  1.9427  1.2470  0.3240
  366MOL0     H50471   6.807   0.828   9.033  0.6553 -0.0060 -0.6347
  366MOL0     H50472   7.093   0.572   8.810 -0.5646  0.7872 -4.3817
  366MOL0     H50473   7.027   0.437   8.908 -3.6295 -2.3571 -0.6508
  366MOL0     H50474   6.930   0.532   8.636 -2.8878 -2.2947 -2.2724
  366MOL0     H50475   7.011   0.383   8.674 -0.1413 -2.3897  1.2036
  366MOL0     H50476   6.784   0.361   8.614  1.5170 -2.5136 -0.0975
  366MOL0     H50477   6.735   0.450   8.753 -1.1078 -1.0102  1.8613
  366MOL0     H50478   6.828   0.271   8.909  1.1520 -1.1656  0.1034
  366MOL0     H50479   6.895   0.188   8.765  0.3991  1.2463 -3.2364
  366MOL0     H50480   6.607   0.263   8.837  1.3812 -0.5875  1.8930
  366MOL0     H50481   6.660   0.196   8.675  2.4378  0.0269 -0.3006
  366MOL0     H50482   6.647   0.059   8.948 -1.1238 -1.8116  0.7732
  366MOL0     H50483   6.697  -0.023   8.799  2.2476  0.2593  2.2069
  366MOL0     H50484   6.466   0.066   8.701 -2.6209 -3.4694 -0.3660
  366MOL0     H50485   6.429   0.097   8.863 -0.9314  1.7703 -2.9010
  366MOL0     H50486   6.351  -0.135   8.773 -0.1659  2.3757 -2.1157
  366MOL0     H50487   6.486  -0.160   8.901  3.2174 -4.1826 -3.0083
  366MOL0     H50488   7.084   0.492   9.102  4.4379  3.5372 -1.7342
  366MOL0     H50489   7.122   0.585   9.325  0.5939  1.4257 -0.2580
  366MOL0     H50490   7.332   1.016   9.499 -2.0608 -0.1269 -2.3070
  366MOL0     H50491   7.355   1.200   9.659 -0.8518  2.3393  1.1820
  366MOL0     H50492   5.871   1.900   9.424  0.1387  2.6764 -3.6698
  366MOL0     H50493   5.749   1.908   9.189 -2.1300 -0.6370 -0.4489
  366MOL0     H50494   5.535   1.569   8.890  0.3725  0.6070 -0.0253
  366MOL0     H50495   5.440   1.545   8.678 -1.6041 -0.9555  0.2890
  366MOL0     H50496   5.061   1.708   8.545  1.2894 -1.9253  2.1474
  366MOL0     H50497   5.175   1.846   8.535  1.4442 -0.1280  0.6278
  366MOL0     H50498   5.068   1.807   8.313 -1.2777 -1.0500 -0.3362
  366MOL0     H50499   5.127   1.621   8.326  0.6154 -0.8480  2.2390
  366MOL0     H50500   5.293   1.859   8.312 -0.9167  0.2762 -0.2692
  366MOL0     H50501   5.354   1.697   8.326  1.1401  1.1292 -1.3858
  366MOL0     H50502   5.287   1.650   8.099 -0.7547 -0.0707  0.8035
  366MOL0     H50503   5.370   1.810   8.084 -1.1813  0.4080 -1.1597
  366MOL0     H50504   4.979   1.885   7.968 -1.6118 -3.6013 -1.3156
  366MOL0     H50505   5.157   1.837   8.736 -1.3406 -0.8461 -0.2075
  366MOL0     H50506   5.142   1.862   9.068  0.0983  0.7072 -0.8199
  366MOL0     H50507   5.278   1.969   9.071  0.4495  0.0288  1.6470
  366MOL0     H50508   5.159   1.991   8.945 -1.1863  2.3757  3.1650
  367MOL0     O50509   3.415   0.073  11.421 -0.2160  0.3326  0.8429
  367MOL0     C50510   3.425  -0.042  11.451 -0.9895  0.8134  0.6267
  367MOL0     O50511   3.536  -0.097  11.509  0.2655 -0.1666  0.1429
  367MOL0     C50512   3.654  -0.025  11.521  0.5169  0.5645  0.6040
  367MOL0     C50513   3.660   0.095  11.595 -0.3653 -0.6036  0.9216
  367MOL0     C50514   3.779   0.176  11.599 -0.3961 -0.1009  0.3152
  367MOL0     C50515   3.895   0.132  11.544 -0.2307  0.6012 -0.4335
  367MOL0     O50516   4.024   0.186  11.541  1.0121  0.8153  0.0179
  367MOL0     C50517   4.048   0.294  11.620 -0.3450  0.5126  0.0963
  367MOL0     C50518   4.194   0.261  11.673 -0.5448 -0.2191 -0.4543
  367MOL0     C50519   4.292   0.275  11.553  0.2206  0.3525  0.1122
  367MOL0     C50520   4.440   0.274  11.582  0.2447  0.4274  0.3597
  367MOL0     C50521   4.510   0.338  11.465  0.4768 -0.6660  0.4179
  367MOL0     C50522   4.519   0.486  11.487 -0.8738 -0.2658 -0.0290
  367MOL0     C50523   4.550   0.568  11.350 -0.0902 -0.0470 -0.7792
  367MOL0     C50524   4.560   0.720  11.360 -0.9273 -0.4119 -0.3254
  367MOL0     N50525   4.677   0.753  11.455 -0.1138 -0.0683 -0.4278
  367MOL0     C50526   4.675   0.753  11.589  0.7976  0.0973  0.0805
  367MOL0     C50527   4.808   0.747  11.621  1.1678  0.9252 -0.1784
  367MOL0     C50528   4.876   0.740  11.753 -0.3410 -0.0080 -0.1055
  367MOL0     C50529   4.955   0.609  11.777  0.1604  0.0598 -0.4682
  367MOL0     C50530   4.885   0.479  11.796 -0.1138  0.3207  0.8702
  367MOL0     C50531   4.916   0.418  11.931  0.2421  0.1271 -0.1568
  367MOL0     O50532   4.867   0.502  12.039 -0.8814  0.2242 -0.1398
  367MOL0     C50533   4.910   0.470  12.168 -0.2823  0.3321 -0.0826
  367MOL0     C50534   4.838   0.517  12.274 -0.5794  0.4424 -0.0414
  367MOL0     C50535   4.868   0.480  12.401  0.3262 -0.7247  0.2356
  367MOL0     C50536   4.776   0.547  12.509 -0.1090 -0.7029  0.8087
  367MOL0     C50537   4.978   0.399  12.444 -0.3844 -0.3498 -0.4468
  367MOL0     C50538   5.024   0.390  12.590  0.2137  0.2060 -0.0312
  367MOL0     O50539   4.966   0.469  12.689  0.1210 -0.3963  0.3590
  367MOL0     C50540   5.030   0.505  12.796  0.4005 -0.2441 -0.7579
  367MOL0     C50541   5.166   0.518  12.802  0.2891  0.9206 -0.5023
  367MOL0     C50542   5.240   0.563  12.919  1.1410 -0.4973  0.1711
  367MOL0     C50543   5.163   0.595  13.028  0.5830 -0.8699  0.8777
  367MOL0     O50544   5.204   0.631  13.151  1.1113  0.2702  0.4101
  367MOL0     C50545   5.345   0.637  13.172  0.4228 -0.6574 -0.2471
  367MOL0     C50546   5.367   0.622  13.319 -0.0956 -0.7892 -0.2234
  367MOL0     C50547   5.520   0.624  13.343 -0.0293  0.3845 -0.3253
  367MOL0     C50548   5.572   0.765  13.374  0.4788 -0.3062  0.3311
  367MOL0     C50549   5.733   0.772  13.380  0.3696 -0.3284  0.1682
  367MOL0     C50550   5.777   0.908  13.428 -0.3325  0.4727  0.5797
  367MOL0     C50551   5.905   0.936  13.352 -0.5991  1.0433 -0.0626
  367MOL0     C50552   5.977   1.053  13.419 -0.7171  0.4559 -0.5610
  367MOL0    Cl50553   6.106   1.099  13.319 -0.3412 -0.2609 -0.0310
  367MOL0     C50554   5.021   0.592  13.027  0.2793 -0.8992 -0.9067
  367MOL0     C50555   4.956   0.556  12.908 -0.7670  0.3077 -0.3395
  367MOL0     O50556   5.109   0.314  12.605 -0.6578 -0.2461 -1.1580
  367MOL0     C50557   5.042   0.345  12.339 -0.4251  0.9742  0.0322
  367MOL0     C50558   5.017   0.377  12.200 -0.1358 -0.7296 -0.7529
  367MOL0     N50559   4.879   0.728  11.509  0.2485 -0.1538 -0.1161
  367MOL0     N50560   4.803   0.740  11.410  0.0340  0.0005  0.3657
  367MOL0     C50561   3.884   0.009  11.473  0.3715 -0.1502  0.6081
  367MOL0     C50562   3.765  -0.064  11.448  0.3086  1.1597 -0.7512
  367MOL0     C50563   3.306  -0.137  11.441  0.8470 -0.1861  0.1988
  367MOL0     C50564   3.327  -0.270  11.465  0.2870 -0.4296 -0.9025
  367MOL0     C50565   3.244  -0.372  11.436  0.8195 -0.5379  0.5611
  367MOL0     C50566   3.114  -0.335  11.383 -0.0953 -1.2089 -0.0912
  367MOL0     O50567   3.028  -0.445  11.364 -0.5459  0.2234 -0.6876
  367MOL0     C50568   2.983  -0.459  11.227  0.0694 -0.8215  0.8349
  367MOL0     C50569   2.844  -0.516  11.235 -0.2196  0.2815 -0.0598
  367MOL0     C50570   2.758  -0.433  11.329 -0.5310 -0.6754  0.8154
  367MOL0     C50571   2.626  -0.385  11.276 -0.4483  0.2158 -0.3820
  367MOL0     C50572   2.554  -0.476  11.181  0.6215 -1.1289 -0.0126
  367MOL0     C50573   2.504  -0.542  11.096 -0.1676 -0.9054 -0.6844
  367MOL0     C50574   3.080  -0.203  11.375  0.0828 -0.4482  0.1437
  367MOL0     C50575   3.177  -0.101  11.396 -0.2385  0.3061  0.4830
  367MOL0     C50576   3.138   0.041  11.373 -0.1582 -0.7869 -0.6543
  367MOL0     H50577   3.572   0.146  11.634  0.8179  2.2241  0.1318
  367MOL0     H50578   3.762   0.277  11.635  0.2659 -0.7551  2.6449
  367MOL0     H50579   3.972   0.280  11.698 -2.5691 -2.5051 -2.3483
  367MOL0     H50580   4.040   0.390  11.569 -4.7463  0.4584  0.3145
  367MOL0     H50581   4.202   0.325  11.761 -0.9671 -0.3486 -0.3220
  367MOL0     H50582   4.204   0.157  11.703 -2.8606 -1.3136 -3.0268
  367MOL0     H50583   4.268   0.198  11.479  0.7115  0.1911  0.1221
  367MOL0     H50584   4.283   0.375  11.508  1.5602  0.1993 -0.5322
  367MOL0     H50585   4.465   0.322  11.677 -0.6561 -0.3272  0.9899
  367MOL0     H50586   4.476   0.172  11.596  0.0936 -0.3821 -3.8532
  367MOL0     H50587   4.469   0.322  11.365 -1.7949  2.5105  0.6922
  367MOL0     H50588   4.611   0.296  11.461 -0.9133 -4.2676 -1.6432
  367MOL0     H50589   4.420   0.526  11.508 -0.4717  0.9874 -0.3580
  367MOL0     H50590   4.589   0.510  11.567 -1.9919  0.2241  0.8254
  367MOL0     H50591   4.470   0.539  11.282 -0.0135 -1.1745 -0.4014
  367MOL0     H50592   4.641   0.524  11.309  3.5424  3.3458  2.7206
  367MOL0     H50593   4.574   0.766  11.262  1.8641  2.5395  1.2640
  367MOL0     H50594   4.466   0.757  11.402 -0.6164  1.0633 -0.8761
  367MOL0     H50595   4.595   0.769  11.661 -0.7423 -2.0762 -1.0506
  367MOL0     H50596   4.802   0.745  11.833  0.9072 -1.6168  1.2361
  367MOL0     H50597   4.947   0.820  11.777 -0.4824 -0.2196  1.0936
  367MOL0     H50598   5.022   0.592  11.692  0.3990 -1.5971  0.0200
  367MOL0     H50599   5.031   0.627  11.853  1.8983  5.6974 -2.9773
  367MOL0     H50600   4.781   0.470  11.764 -0.3868 -1.7060  2.1014
  367MOL0     H50601   4.935   0.413  11.725 -0.8815 -0.1623  0.7625
  367MOL0     H50602   4.878   0.316  11.938  2.4037 -0.7643 -0.6596
  367MOL0     H50603   5.024   0.399  11.932 -0.3205 -3.8295  1.7060
  367MOL0     H50604   4.759   0.588  12.251 -2.9784 -2.0444  0.1437
  367MOL0     H50605   4.687   0.593  12.466 -0.2423 -2.2292 -0.6951
  367MOL0     H50606   4.827   0.619  12.573  0.1555 -1.5723  1.5935
  367MOL0     H50607   4.748   0.465  12.576 -0.3498 -0.5949  0.8387
  367MOL0     H50608   5.227   0.497  12.714  1.9805 -0.1075  0.8663
  367MOL0     H50609   5.347   0.560  12.933  1.0659  0.5364  1.1318
  367MOL0     H50610   5.400   0.556  13.123 -1.1792 -1.2573 -1.1365
  367MOL0     H50611   5.376   0.728  13.121  3.1219 -1.2276  0.2512
  367MOL0     H50612   5.321   0.706  13.372 -1.6264 -1.6414 -0.1554
  367MOL0     H50613   5.324   0.525  13.346  2.5767 -2.0072 -0.0682
  367MOL0     H50614   5.574   0.570  13.264  0.5181  1.2543 -0.5558
  367MOL0     H50615   5.531   0.565  13.434 -0.2453  0.5537 -0.1883
  367MOL0     H50616   5.525   0.812  13.461 -1.8413 -2.5002  0.3625
  367MOL0     H50617   5.532   0.834  13.300  0.6660  0.6023  1.0512
  367MOL0     H50618   5.769   0.698  13.452  0.2028 -0.2673  0.3161
  367MOL0     H50619   5.773   0.747  13.281 -2.3821 -0.9409 -0.8900
  367MOL0     H50620   5.795   0.922  13.535  2.9949  1.6924 -0.0108
  367MOL0     H50621   5.700   0.984  13.413  0.2680  2.0383  4.4120
  367MOL0     H50622   5.885   0.948  13.245  0.4608 -0.6868 -0.5056
  367MOL0     H50623   5.978   0.855  13.350  0.9509  2.4010 -0.5611
  367MOL0     H50624   5.998   1.028  13.524 -0.0657 -0.7888 -0.9694
  367MOL0     H50625   5.910   1.140  13.419 -0.2243  0.8700 -1.9797
  367MOL0     H50626   4.964   0.627  13.112 -0.2776 -4.9945  0.6126
  367MOL0     H50627   4.848   0.553  12.899 -0.5811 -1.4528 -3.9848
  367MOL0     H50628   5.124   0.277  12.363  0.9895  3.0563  1.5493
  367MOL0     H50629   5.066   0.312  12.129  3.4554 -0.2781  1.0596
  367MOL0     H50630   3.966  -0.025  11.410 -0.3990 -2.7617  0.8853
  367MOL0     H50631   3.768  -0.157  11.392  0.5975  0.8332 -0.2019
  367MOL0     H50632   3.426  -0.296  11.500 -0.5337 -1.3230  0.8748
  367MOL0     H50633   3.269  -0.478  11.441  4.3930  0.1055 -0.8689
  367MOL0     H50634   2.975  -0.368  11.167  1.6834 -1.0505  0.2155
  367MOL0     H50635   3.044  -0.531  11.170  0.3900 -0.8807  1.2493
  367MOL0     H50636   2.836  -0.620  11.269 -1.0817 -0.1627 -1.5398
  367MOL0     H50637   2.803  -0.522  11.134  0.3594 -0.4141 -0.2632
  367MOL0     H50638   2.735  -0.498  11.413 -4.3584  0.9812  1.2403
  367MOL0     H50639   2.815  -0.345  11.361  1.6697 -2.1476  1.1750
  367MOL0     H50640   2.655  -0.296  11.219  2.1688 -0.7322 -0.7056
  367MOL0     H50641   2.561  -0.357  11.359 -2.0746 -2.7602 -0.4992
  367MOL0     H50642   2.467  -0.615  11.026  0.3343 -0.8420 -1.0267
  367MOL0     H50643   2.981  -0.174  11.340 -0.8003 -1.0514  2.0478
  367MOL0     H50644   3.038   0.041  11.328 -0.1894 -1.2503 -0.5897
  367MOL0     H50645   3.127   0.088  11.472 -1.2460 -3.8204  0.8071
  367MOL0     H50646   3.209   0.089  11.306 -1.1013 -0.5859 -1.5417
  368MOL0     O50647  10.974   2.811   9.834  0.6732  0.4205  0.5568
  368MOL0     C50648  10.978   2.938   9.856  0.1269  0.6919  0.3240
  368MOL0     O50649  11.031   2.993   9.968 -0.2787 -0.0815  0.4318
  368MOL0     C50650  11.058   2.901  10.070 -0.6633 -0.3788  0.6122
  368MOL0     C50651  10.944   2.858  10.145  0.2547  0.0831 -0.0508
  368MOL0     C50652  10.959   2.764  10.254  0.1418 -0.4360 -0.5249
  368MOL0     C50653  11.081   2.696  10.281 -0.8804 -0.9023  0.7231
  368MOL0     O50654  11.099   2.591  10.369 -0.5914 -0.3114  0.5347
  368MOL0     C50655  10.986   2.545  10.432  0.5769  0.6654 -0.3278
  368MOL0     C50656  11.024   2.421  10.508 -0.2236 -0.3865 -0.1181
  368MOL0     C50657  10.896   2.343  10.557  0.5866 -0.5966 -0.2546
  368MOL0     C50658  10.912   2.303  10.707  0.3393  0.5700  0.2785
  368MOL0     C50659  10.801   2.212  10.756  0.0571  0.3803  0.1972
  368MOL0     C50660  10.839   2.066  10.782  0.1427 -0.8413  0.0856
  368MOL0     C50661  10.725   1.965  10.785 -0.3545  0.9979 -0.0155
  368MOL0     C50662  10.611   2.012  10.879  0.4366 -0.3289  0.3116
  368MOL0     N50663  10.520   1.897  10.896  0.5812 -0.6285 -0.0414
  368MOL0     C50664  10.539   1.788  10.984  0.9430  0.5325 -0.0587
  368MOL0     C50665  10.429   1.710  10.951 -0.2228 -0.5170  0.8725
  368MOL0     C50666  10.402   1.569  10.998 -0.4473  0.5808 -0.5558
  368MOL0     C50667  10.522   1.484  10.936  0.8572  0.7297 -0.8467
  368MOL0     C50668  10.534   1.355  11.027  0.4546 -0.2905  0.4030
  368MOL0     C50669  10.634   1.256  10.973  0.4659 -0.3118 -0.3975
  368MOL0     O50670  10.774   1.272  11.017  0.1242  1.1924 -0.5884
  368MOL0     C50671  10.836   1.386  10.984  0.2675  0.0459 -0.2593
  368MOL0     C50672  10.859   1.498  11.070  0.0766 -0.2943  0.7355
  368MOL0     C50673  10.933   1.616  11.024 -0.4369 -0.0411 -0.7272
  368MOL0     C50674  10.950   1.730  11.129 -0.5111  0.1272 -0.1326
  368MOL0     C50675  10.989   1.619  10.892  0.5684 -0.2846  1.0187
  368MOL0     C50676  11.069   1.717  10.829  0.2820 -1.1945  0.2987
  368MOL0     O50677  11.105   1.705  10.692 -0.4314  0.7928 -0.3094
  368MOL0     C50678  11.204   1.782  10.645  0.0371  0.1606  0.1628
  368MOL0     C50679  11.182   1.912  10.605 -0.2477 -0.4430  0.3538
  368MOL0     C50680  11.285   1.984  10.552 -0.6043 -0.6365  1.1280
  368MOL0     C50681  11.419   1.936  10.551 -0.3322  0.3920  0.0213
  368MOL0     O50682  11.531   2.003  10.510 -0.4531  0.0357  0.4009
  368MOL0     C50683  11.529   2.139  10.462  1.0507 -0.3868  0.5831
  368MOL0     C50684  11.670   2.166  10.410  0.6740 -0.2485  0.5599
  368MOL0     C50685  11.700   2.317  10.406  0.9989 -0.2673  0.6375
  368MOL0     C50686  11.638   2.379  10.274 -0.5497 -0.7491  0.0674
  368MOL0     C50687  11.668   2.534  10.271 -0.5218 -0.1920  0.3214
  368MOL0     C50688  11.817   2.585  10.282  0.2774  0.2954  0.1808
  368MOL0     C50689  11.907   2.539  10.178  1.1010  0.6447 -0.1130
  368MOL0     C50690  12.053   2.553  10.211 -0.5159  0.1495  0.1601
  368MOL0    Cl50691  12.113   2.718  10.208 -0.0319  0.2165  0.1049
  368MOL0     C50692  11.440   1.805  10.590  0.8517  0.3571 -1.0560
  368MOL0     C50693  11.339   1.732  10.633 -0.5796  0.9246 -0.9781
  368MOL0     O50694  11.108   1.805  10.906  0.4017  0.6280  0.0065
  368MOL0     C50695  10.955   1.506  10.806 -0.3039  0.2113  0.4880
  368MOL0     C50696  10.882   1.394  10.857 -0.2528  0.5470  0.3245
  368MOL0     N50697  10.359   1.772  10.846  0.7164  0.7079  0.3165
  368MOL0     N50698  10.409   1.885  10.815 -0.7309 -0.1642  0.4078
  368MOL0     C50699  11.191   2.738  10.202 -0.3855 -0.2088  1.1315
  368MOL0     C50700  11.177   2.837  10.103 -0.8728 -0.1098  0.0688
  368MOL0     C50701  10.900   3.027   9.770 -0.0385  0.5061 -0.0980
  368MOL0     C50702  10.903   3.164   9.811 -0.2882 -0.0775  0.9428
  368MOL0     C50703  10.845   3.263   9.727  0.3353  0.2053 -0.4140
  368MOL0     C50704  10.793   3.229   9.600  0.4154 -0.1742  0.2233
  368MOL0     O50705  10.741   3.330   9.522 -0.4014 -0.5155  0.7997
  368MOL0     C50706  10.810   3.342   9.393  0.0602  0.7559 -0.1080
  368MOL0     C50707  10.926   3.438   9.415 -0.6856  0.7477 -0.4940
  368MOL0     C50708  10.888   3.583   9.432 -0.0733 -0.8193  0.1025
  368MOL0     C50709  11.016   3.664   9.443  0.5688  0.5281  0.3615
  368MOL0     C50710  10.998   3.802   9.480  0.3559 -0.4515  0.8207
  368MOL0     C50711  10.993   3.922   9.520  0.6263  0.8268 -0.6663
  368MOL0     C50712  10.770   3.094   9.575  0.3482  0.3419  0.5346
  368MOL0     C50713  10.833   2.992   9.650 -0.1826 -0.2747  0.4671
  368MOL0     C50714  10.815   2.853   9.595 -0.5684 -0.9754 -0.2000
  368MOL0     H50715  10.842   2.892  10.135  0.1249 -0.8556 -2.3039
  368MOL0     H50716  10.870   2.727  10.305  0.1656  1.8041  1.3336
  368MOL0     H50717  10.918   2.508  10.355 -0.2164  1.5274 -0.0607
  368MOL0     H50718  10.929   2.622  10.484  0.6780  0.4632  0.0908
  368MOL0     H50719  11.070   2.350  10.438 -1.0843 -1.0386 -0.0428
  368MOL0     H50720  11.100   2.435  10.585  0.2734  3.4102 -1.1105
  368MOL0     H50721  10.807   2.406  10.556  0.9284 -0.0264  1.5969
  368MOL0     H50722  10.877   2.256  10.493 -1.1649 -1.3770  1.2393
  368MOL0     H50723  11.010   2.255  10.717  0.0385 -0.6948 -2.0302
  368MOL0     H50724  10.901   2.393  10.768 -4.1668  2.7221 -3.0767
  368MOL0     H50725  10.718   2.226  10.687  2.9369  1.3000 -3.3511
  368MOL0     H50726  10.773   2.255  10.853  3.0963 -2.3284  2.5139
  368MOL0     H50727  10.917   2.037  10.711 -0.5404  1.4653 -1.7554
  368MOL0     H50728  10.875   2.066  10.885 -1.0927  2.0359  0.6414
  368MOL0     H50729  10.751   1.862  10.813 -0.0295 -0.2558 -4.2870
  368MOL0     H50730  10.680   1.953  10.686  1.9947 -1.9062 -0.8930
  368MOL0     H50731  10.648   2.046  10.976  2.1061  2.2505 -1.1235
  368MOL0     H50732  10.548   2.092  10.838 -1.2955 -1.2205  1.0949
  368MOL0     H50733  10.622   1.759  11.047  0.8112  2.3716  1.0225
  368MOL0     H50734  10.313   1.518  10.959  0.8172 -1.6987 -0.6448
  368MOL0     H50735  10.386   1.563  11.106 -2.1098 -1.3807 -0.8276
  368MOL0     H50736  10.510   1.454  10.832  3.5199  0.3125 -1.0871
  368MOL0     H50737  10.612   1.545  10.950 -1.3894  4.1781  0.0044
  368MOL0     H50738  10.550   1.383  11.132  2.9444 -0.9100  0.2569
  368MOL0     H50739  10.440   1.300  11.032  0.4477 -0.4474 -1.0322
  368MOL0     H50740  10.608   1.153  10.998  0.8188  0.1527  2.1231
  368MOL0     H50741  10.619   1.268  10.866  0.7728 -2.3599 -0.7160
  368MOL0     H50742  10.832   1.502  11.175  3.0497 -1.6877  1.6701
  368MOL0     H50743  10.926   1.831  11.094 -0.0515 -0.2063 -1.4662
  368MOL0     H50744  11.050   1.731  11.174 -1.9584 -0.4742  3.4391
  368MOL0     H50745  10.881   1.706  11.210  2.2269 -1.3717  1.8998
  368MOL0     H50746  11.095   1.974  10.626 -2.7211 -3.1016 -1.2058
  368MOL0     H50747  11.269   2.090  10.533 -0.4774 -0.9629 -1.1899
  368MOL0     H50748  11.456   2.148  10.382 -0.3951 -1.6488  1.7064
  368MOL0     H50749  11.514   2.209  10.545 -0.3162  1.4294 -1.1088
  368MOL0     H50750  11.740   2.116  10.478  1.7150 -1.3886 -1.2537
  368MOL0     H50751  11.674   2.134  10.305 -2.5327  0.9945 -0.0629
  368MOL0     H50752  11.808   2.331  10.392  0.9978  0.8379  1.6046
  368MOL0     H50753  11.677   2.365  10.502  0.3970 -3.4241  2.1844
  368MOL0     H50754  11.530   2.358  10.276 -0.8292  0.4578 -0.7924
  368MOL0     H50755  11.676   2.334  10.181 -3.5744  0.7989 -2.1027
  368MOL0     H50756  11.624   2.568  10.176 -0.1718 -1.6956 -0.4179
  368MOL0     H50757  11.618   2.572  10.360 -1.6098 -1.4795  0.3058
  368MOL0     H50758  11.853   2.551  10.379  2.1636 -0.5595 -0.7692
  368MOL0     H50759  11.808   2.694  10.284  3.7166  0.6838  0.1601
  368MOL0     H50760  11.905   2.607  10.092 -0.3948 -0.8020 -1.2860
  368MOL0     H50761  11.886   2.438  10.140 -2.7854 -0.2903  3.7014
  368MOL0     H50762  12.120   2.491  10.151 -2.2468 -1.8880  0.2136
  368MOL0     H50763  12.074   2.524  10.314  0.6508 -0.3572 -0.1970
  368MOL0     H50764  11.538   1.759  10.593  1.7497  2.1716  2.3174
  368MOL0     H50765  11.372   1.638  10.678  1.9473  2.0184 -0.3393
  368MOL0     H50766  10.978   1.508  10.700 -0.6964  0.1607  0.4004
  368MOL0     H50767  10.858   1.302  10.804 -0.0830  0.3658  0.5560
  368MOL0     H50768  11.285   2.687  10.221  1.1287  2.2736  0.7010
  368MOL0     H50769  11.269   2.887  10.075 -1.5999 -1.0778 -4.9965
  368MOL0     H50770  10.957   3.193   9.901 -1.8379  1.2217  1.5007
  368MOL0     H50771  10.859   3.369   9.745 -0.1543 -0.0587  1.6995
  368MOL0     H50772  10.848   3.244   9.360 -2.2969 -0.8564  1.6229
  368MOL0     H50773  10.747   3.389   9.317 -1.1395 -2.5717 -1.3724
  368MOL0     H50774  10.975   3.414   9.320 -2.2330 -3.5861 -0.3967
  368MOL0     H50775  10.986   3.393   9.494 -2.0396  0.1670  0.2232
  368MOL0     H50776  10.828   3.608   9.343  0.4247  2.9736  0.6632
  368MOL0     H50777  10.826   3.586   9.522 -0.8987 -3.1840 -0.3094
  368MOL0     H50778  11.063   3.668   9.345 -1.1013 -2.8111 -0.7545
  368MOL0     H50779  11.079   3.615   9.519 -0.4284  1.6357  1.9570
  368MOL0     H50780  10.974   4.019   9.562 -3.6458 -0.6608  1.4611
  368MOL0     H50781  10.731   3.063   9.479  0.1645  0.6515  0.5093
  368MOL0     H50782  10.809   2.853   9.486 -2.4811 -1.0631 -0.1208
  368MOL0     H50783  10.896   2.783   9.617 -0.4434 -0.8595 -0.2924
  368MOL0     H50784  10.719   2.821   9.637 -0.8504  0.5378  0.3741
  369MOL0     O50785   4.701   7.882   1.013 -0.0159  0.6294  0.2409
  369MOL0     C50786   4.689   7.936   1.124  1.2960 -0.2694  0.2515
  369MOL0     O50787   4.784   7.991   1.199  0.5175  0.4335 -0.3852
  369MOL0     C50788   4.916   7.973   1.189 -0.0025  0.1623  0.6203
  369MOL0     C50789   4.977   8.005   1.307 -0.3584  0.3441  0.3232
  369MOL0     C50790   5.111   7.981   1.330 -0.5170  0.0055  0.3723
  369MOL0     C50791   5.186   7.932   1.224 -0.2730  0.1022 -0.2807
  369MOL0     O50792   5.324   7.907   1.236 -0.2540 -0.4565  0.0557
  369MOL0     C50793   5.373   7.790   1.295  0.3520 -1.2409  1.0298
  369MOL0     C50794   5.315   7.735   1.424  0.2369 -1.1204 -0.4535
  369MOL0     C50795   5.379   7.600   1.455 -0.1202 -0.3718 -0.6699
  369MOL0     C50796   5.515   7.613   1.541 -0.4277 -0.3617  0.1646
  369MOL0     C50797   5.650   7.638   1.470 -0.0480 -0.1477  0.7653
  369MOL0     C50798   5.764   7.564   1.537 -0.6676 -0.2518 -1.3745
  369MOL0     C50799   5.906   7.591   1.487  0.4710 -0.1954  0.7671
  369MOL0     C50800   6.008   7.496   1.556 -0.4445  0.9382  0.5223
  369MOL0     N50801   5.985   7.355   1.520 -0.9198 -0.1304 -0.0747
  369MOL0     C50802   5.897   7.267   1.583  0.1148  0.0635 -0.3799
  369MOL0     C50803   5.869   7.162   1.495 -0.3285 -0.5291 -0.3648
  369MOL0     C50804   5.790   7.039   1.529  1.0194  0.1928 -0.6796
  369MOL0     C50805   5.643   7.064   1.515  0.0655 -0.0500 -0.7044
  369MOL0     C50806   5.595   7.068   1.367 -0.8631  0.4905 -0.6806
  369MOL0     C50807   5.471   7.158   1.340  0.2095  0.3928  0.1710
  369MOL0     O50808   5.359   7.126   1.432 -0.7221 -0.0918  0.0060
  369MOL0     C50809   5.245   7.196   1.408  0.1212  0.9378 -0.2332
  369MOL0     C50810   5.230   7.287   1.307 -0.1126  0.7841  0.3149
  369MOL0     C50811   5.108   7.354   1.286 -0.3477  0.7446  0.3220
  369MOL0     C50812   5.101   7.452   1.172 -0.1835  0.7686 -0.0568
  369MOL0     C50813   4.999   7.321   1.372 -0.4316 -1.2579  0.2615
  369MOL0     C50814   4.865   7.383   1.347  0.9828 -0.5717  0.4881
  369MOL0     O50815   4.763   7.302   1.382  0.0917  0.6074 -0.8929
  369MOL0     C50816   4.632   7.329   1.347  0.0005  0.0252  0.0485
  369MOL0     C50817   4.550   7.414   1.424 -0.8440  0.1742  1.0044
  369MOL0     C50818   4.424   7.447   1.378 -0.3122  0.5128 -0.8581
  369MOL0     C50819   4.376   7.402   1.251  0.1247 -0.3535 -0.2765
  369MOL0     O50820   4.257   7.436   1.196 -0.5903  0.7244  0.4466
  369MOL0     C50821   4.155   7.515   1.260  0.3925  0.2055  0.4715
  369MOL0     C50822   4.060   7.437   1.348 -0.4174  0.6518 -0.2288
  369MOL0     C50823   3.967   7.347   1.262 -0.6778 -0.3219 -0.0898
  369MOL0     C50824   4.032   7.209   1.206 -0.1599 -1.1388  0.3909
  369MOL0     C50825   4.042   7.236   1.049 -0.6605  0.0176 -0.2348
  369MOL0     C50826   4.132   7.142   0.970 -0.0746  0.0590  0.0095
  369MOL0     C50827   4.135   7.176   0.815  0.3534 -0.2039 -1.1060
  369MOL0     C50828   4.221   7.083   0.728  0.1349 -0.8489 -0.2698
  369MOL0    Cl50829   4.159   7.087   0.564 -0.4445  0.4436 -0.3437
  369MOL0     C50830   4.448   7.308   1.176 -0.4627  0.2340 -0.7384
  369MOL0     C50831   4.573   7.267   1.229  0.5264 -0.6297  0.5349
  369MOL0     O50832   4.857   7.498   1.302 -0.0703  0.3000  0.4789
  369MOL0     C50833   5.015   7.231   1.478  0.0257  0.3816 -0.0821
  369MOL0     C50834   5.139   7.173   1.499  0.1328  0.3739  1.0248
  369MOL0     N50835   5.942   7.190   1.377  0.0661 -0.1765 -0.3420
  369MOL0     N50836   6.011   7.303   1.397  0.3786 -0.1901  0.1684
  369MOL0     C50837   5.122   7.898   1.102 -0.3533 -0.4828 -0.3756
  369MOL0     C50838   4.988   7.915   1.085 -0.3168  0.2354 -0.1344
  369MOL0     C50839   4.554   7.963   1.164  0.1457  0.0139 -0.8669
  369MOL0     C50840   4.522   8.092   1.205  0.5035 -0.5770  0.2085
  369MOL0     C50841   4.388   8.123   1.251 -0.5885 -0.5570 -0.1822
  369MOL0     C50842   4.296   8.029   1.250 -0.4223  0.8773  0.2744
  369MOL0     O50843   4.163   8.053   1.280 -0.4215 -0.7842 -0.7218
  369MOL0     C50844   4.151   8.101   1.423 -1.2892 -0.0784  1.1345
  369MOL0     C50845   4.007   8.127   1.469 -0.5718  0.0137 -0.3217
  369MOL0     C50846   3.930   8.215   1.368 -0.8611 -0.0458 -0.6864
  369MOL0     C50847   3.809   8.286   1.411  0.5172 -0.0382  0.6399
  369MOL0     C50848   3.819   8.364   1.533  1.0295 -1.3935  0.1573
  369MOL0     C50849   3.796   8.421   1.641  0.1536  0.4429  1.0234
  369MOL0     C50850   4.329   7.892   1.224 -0.4747  0.6780 -0.2788
  369MOL0     C50851   4.456   7.857   1.184  0.5010 -0.3515 -0.4005
  369MOL0     C50852   4.491   7.717   1.164 -0.3149 -0.5154  0.7271
  369MOL0     H50853   4.924   8.063   1.382 -1.2215 -1.0655  0.8448
  369MOL0     H50854   5.163   8.016   1.418  2.7680  0.0823 -1.4454
  369MOL0     H50855   5.476   7.825   1.313  0.3774 -0.3843 -0.6421
  369MOL0     H50856   5.371   7.712   1.219  2.4353  1.7323 -2.4070
  369MOL0     H50857   5.323   7.810   1.504 -0.6703 -1.6720  0.1749
  369MOL0     H50858   5.207   7.718   1.425  0.5321 -3.2874  0.7121
  369MOL0     H50859   5.320   7.549   1.532  0.9758  0.5180  0.8061
  369MOL0     H50860   5.405   7.530   1.375  0.4726 -2.0199  0.8764
  369MOL0     H50861   5.506   7.696   1.611 -1.5410 -1.1725  1.0346
  369MOL0     H50862   5.521   7.514   1.586  5.5139 -2.0302 -3.2523
  369MOL0     H50863   5.665   7.746   1.459 -1.4068 -0.2154 -3.4455
  369MOL0     H50864   5.655   7.609   1.364  1.7188  2.7533 -0.0565
  369MOL0     H50865   5.758   7.589   1.643 -0.5649 -2.0842 -0.9088
  369MOL0     H50866   5.743   7.457   1.529 -0.5701 -0.5935  1.8620
  369MOL0     H50867   5.938   7.694   1.502  0.6860  0.0664 -1.1666
  369MOL0     H50868   5.911   7.565   1.380  1.6653 -1.4451  1.0928
  369MOL0     H50869   6.114   7.515   1.537 -0.0336 -1.0378  0.5988
  369MOL0     H50870   5.999   7.496   1.665  0.9874 -1.5690  0.7223
  369MOL0     H50871   5.859   7.286   1.683 -0.4576 -2.7392  0.0209
  369MOL0     H50872   5.813   7.022   1.634 -1.6052  1.1716  0.1216
  369MOL0     H50873   5.810   6.952   1.465  3.0951  0.1233  0.0092
  369MOL0     H50874   5.586   6.993   1.575  1.8629  0.6782  2.0154
  369MOL0     H50875   5.615   7.159   1.561 -2.1154 -2.0188  2.3392
  369MOL0     H50876   5.671   7.074   1.289 -1.2207 -2.3103 -1.3646
  369MOL0     H50877   5.574   6.962   1.348  1.0898 -0.1494  0.4359
  369MOL0     H50878   5.494   7.265   1.349 -2.8748  1.4653 -2.5797
  369MOL0     H50879   5.439   7.134   1.239 -0.1033 -0.8099  0.5353
  369MOL0     H50880   5.318   7.318   1.252 -0.4814  1.9926  0.3700
  369MOL0     H50881   5.076   7.553   1.207  0.2611 -0.0566  2.9583
  369MOL0     H50882   5.026   7.418   1.101 -1.5917  1.8992  0.8320
  369MOL0     H50883   5.202   7.454   1.131 -1.7780  0.4546 -4.5639
  369MOL0     H50884   4.600   7.455   1.512  0.3128  2.3005 -0.5311
  369MOL0     H50885   4.364   7.511   1.442 -0.1594 -0.7542  0.5834
  369MOL0     H50886   4.194   7.607   1.305  0.4801  0.4594 -0.1208
  369MOL0     H50887   4.097   7.564   1.181 -0.2234 -1.6490 -0.2747
  369MOL0     H50888   4.123   7.388   1.423 -1.5473  2.1504  1.8062
  369MOL0     H50889   4.000   7.507   1.408 -1.1555  1.9503 -2.3809
  369MOL0     H50890   3.933   7.406   1.176  2.2672 -0.3658 -1.3879
  369MOL0     H50891   3.876   7.319   1.316 -0.9083 -1.2420 -0.9219
  369MOL0     H50892   3.954   7.134   1.225 -3.0002  2.0273  2.4244
  369MOL0     H50893   4.131   7.193   1.250  0.4755  2.5065  0.5355
  369MOL0     H50894   3.948   7.217   0.997  0.8819 -1.3603 -2.7590
  369MOL0     H50895   4.079   7.337   1.032 -1.5998 -0.1179 -3.9840
  369MOL0     H50896   4.101   7.038   0.982  0.6457  0.0086  1.5614
  369MOL0     H50897   4.237   7.142   0.999  0.3906 -3.1585 -1.2620
  369MOL0     H50898   4.159   7.283   0.809 -0.5174  0.0712  0.0568
  369MOL0     H50899   4.027   7.166   0.800 -0.1807 -1.8101  2.6303
  369MOL0     H50900   4.225   6.984   0.772 -1.4225 -0.8104  0.0144
  369MOL0     H50901   4.321   7.128   0.731  1.7673 -4.2265  1.1358
  369MOL0     H50902   4.423   7.266   1.078  0.4134 -0.7442 -0.5552
  369MOL0     H50903   4.633   7.203   1.165  1.4050 -0.7061  1.3910
  369MOL0     H50904   4.930   7.201   1.537  2.1474 -2.5545  1.7879
  369MOL0     H50905   5.148   7.107   1.584 -0.6380  2.2286  2.6141
  369MOL0     H50906   5.183   7.856   1.023  1.7452 -0.0036  0.9122
  369MOL0     H50907   4.955   7.896   0.983  4.9847  2.4978 -2.6535
  369MOL0     H50908   4.594   8.173   1.198 -1.3110  1.1796  0.7906
  369MOL0     H50909   4.375   8.226   1.282  2.4790  0.5586 -2.0611
  369MOL0     H50910   4.201   8.029   1.489  0.1154 -2.8113 -2.5366
  369MOL0     H50911   4.203   8.197   1.429  0.5029 -1.0027  1.2772
  369MOL0     H50912   4.006   8.171   1.569  0.7818  1.7958 -1.0315
  369MOL0     H50913   3.952   8.033   1.477  0.7867 -0.9501 -1.6496
  369MOL0     H50914   3.994   8.299   1.337 -2.5499  1.8871  0.7712
  369MOL0     H50915   3.906   8.158   1.278 -1.6024  1.8520 -1.7559
  369MOL0     H50916   3.742   8.202   1.432  1.3773  0.0495  4.3103
  369MOL0     H50917   3.773   8.360   1.339 -0.2959 -0.1749  0.8945
  369MOL0     H50918   3.781   8.435   1.746 -0.8115 -1.1314  1.1292
  369MOL0     H50919   4.259   7.811   1.238 -1.5750  1.5422 -0.6671
  369MOL0     H50920   4.555   7.679   1.245 -0.8961  0.1213  1.4984
  369MOL0     H50921   4.398   7.662   1.149 -0.9503  0.3340  1.4482
  369MOL0     H50922   4.542   7.707   1.068 -3.5894  0.3193 -1.2099
  370MOL0     O50923   1.133  10.554   3.454  0.2757  0.3050  0.4851
  370MOL0     C50924   1.128  10.434   3.423 -0.4091 -0.6925  0.1146
  370MOL0     O50925   1.164  10.327   3.502  0.0510 -1.1660 -0.7307
  370MOL0     C50926   1.197  10.334   3.635 -0.9575 -0.1277  0.0721
  370MOL0     C50927   1.147  10.226   3.724  0.1197  0.0841 -0.9193
  370MOL0     C50928   1.155  10.245   3.858  0.1323 -0.6477 -0.2936
  370MOL0     C50929   1.216  10.359   3.913  0.4588  0.0670  0.2278
  370MOL0     O50930   1.222  10.374   4.051 -0.7257  0.0097  0.7577
  370MOL0     C50931   1.110  10.444   4.101  0.1675 -0.7155  0.2288
  370MOL0     C50932   1.056  10.383   4.236 -0.2566  0.3181 -0.3014
  370MOL0     C50933   0.956  10.275   4.214 -0.7077  0.0545  0.5539
  370MOL0     C50934   0.943  10.182   4.334  0.3507  0.2739  0.3790
  370MOL0     C50935   0.831  10.080   4.315  0.1340 -0.0331  0.1273
  370MOL0     C50936   0.822   9.995   4.446 -0.2763 -0.1455 -0.3008
  370MOL0     C50937   0.706   9.905   4.445 -0.2142  0.1357  0.2510
  370MOL0     C50938   0.703   9.817   4.578 -0.2234 -0.0851  0.4582
  370MOL0     N50939   0.610   9.704   4.569  0.5222 -0.2396 -0.0856
  370MOL0     C50940   0.635   9.582   4.507 -0.0880 -0.8676  0.5543
  370MOL0     C50941   0.517   9.518   4.496 -0.2985  0.4881  0.0161
  370MOL0     C50942   0.508   9.369   4.456 -0.3510 -0.9413  0.6472
  370MOL0     C50943   0.518   9.369   4.296  0.5832  0.2094 -0.5696
  370MOL0     C50944   0.652   9.395   4.230  0.7744 -0.2563 -0.7613
  370MOL0     C50945   0.756   9.310   4.285 -0.1440  0.6887 -0.4535
  370MOL0     O50946   0.715   9.174   4.253 -0.2262 -0.3484  0.0041
  370MOL0     C50947   0.793   9.086   4.326  0.4438  0.9766  0.6844
  370MOL0     C50948   0.742   8.995   4.427 -0.7078 -0.2692 -0.2911
  370MOL0     C50949   0.818   8.901   4.487 -0.5881 -0.0929 -1.1931
  370MOL0     C50950   0.742   8.813   4.582  0.2411  1.0415  0.2195
  370MOL0     C50951   0.951   8.877   4.448  0.2284 -0.4909  0.2652
  370MOL0     C50952   1.056   8.778   4.505 -0.5155 -0.3182 -0.3682
  370MOL0     O50953   1.194   8.806   4.495 -0.1955  0.1544 -0.2452
  370MOL0     C50954   1.285   8.722   4.547 -0.0585  0.6506  0.7173
  370MOL0     C50955   1.399   8.795   4.579  0.4634  0.6580  1.2069
  370MOL0     C50956   1.500   8.729   4.646  0.9172  0.2515  0.3457
  370MOL0     C50957   1.491   8.591   4.676 -0.2526 -1.1304  0.0733
  370MOL0     O50958   1.608   8.552   4.732  0.1710 -0.4706  0.1841
  370MOL0     C50959   1.634   8.414   4.722 -0.9674 -0.4312 -0.1315
  370MOL0     C50960   1.689   8.359   4.582  1.1544  0.1647 -0.0471
  370MOL0     C50961   1.809   8.441   4.540 -0.2722 -0.4039  0.1993
  370MOL0     C50962   1.892   8.367   4.433  0.5877  0.1219  0.2057
  370MOL0     C50963   2.046   8.363   4.466  0.1045 -1.1606  0.7387
  370MOL0     C50964   2.133   8.264   4.375  0.4369 -0.0987  0.7196
  370MOL0     C50965   2.146   8.128   4.452  0.3238 -1.2680 -0.5742
  370MOL0     C50966   2.179   8.020   4.352  0.4559  0.4079 -0.6337
  370MOL0    Cl50967   2.027   7.998   4.277  0.0851  0.2177  0.2038
  370MOL0     C50968   1.378   8.511   4.634  0.5063 -0.1367  0.0121
  370MOL0     C50969   1.268   8.579   4.576 -1.1213  0.1918 -0.2112
  370MOL0     O50970   1.009   8.695   4.582 -0.4261  0.0682  0.3615
  370MOL0     C50971   1.005   8.963   4.346  0.4926  0.1632 -0.6418
  370MOL0     C50972   0.921   9.061   4.285  0.1974 -0.3876  0.0247
  370MOL0     N50973   0.421   9.592   4.565 -0.5697 -0.3081 -0.4231
  370MOL0     N50974   0.474   9.698   4.608  0.3012  0.0004  0.0792
  370MOL0     C50975   1.283  10.443   3.832 -0.0392  0.4263 -0.1143
  370MOL0     C50976   1.273  10.438   3.693 -0.3308  0.8607  0.6182
  370MOL0     C50977   1.123  10.407   3.281 -0.3447  0.1197  0.4876
  370MOL0     C50978   0.997  10.379   3.225  0.7134 -0.6071 -0.5023
  370MOL0     C50979   0.989  10.333   3.093  0.1767 -0.4960  0.2462
  370MOL0     C50980   1.106  10.336   3.014  1.0222  0.3297 -0.2554
  370MOL0     O50981   1.088  10.272   2.890 -0.9942 -0.8918  0.4558
  370MOL0     C50982   1.209  10.230   2.826 -0.7028  0.1620  1.2250
  370MOL0     C50983   1.194  10.129   2.728 -0.5855 -0.4768  0.3606
  370MOL0     C50984   1.063  10.109   2.640 -0.2544 -0.3943 -0.4570
  370MOL0     C50985   1.082  10.038   2.517 -0.8453  0.3080  1.2879
  370MOL0     C50986   0.956  10.048   2.453 -0.6934  0.2912 -0.3342
  370MOL0     C50987   0.846  10.056   2.406 -0.1831 -0.7529  0.0987
  370MOL0     C50988   1.226  10.378   3.070  1.1941 -0.0749  0.2718
  370MOL0     C50989   1.239  10.402   3.204  0.5389  0.6418  0.5888
  370MOL0     C50990   1.378  10.427   3.259  0.1025  0.6210  0.1232
  370MOL0     H50991   1.125  10.127   3.686 -0.9680  0.4941 -1.3942
  370MOL0     H50992   1.128  10.166   3.927  0.1572 -3.0555 -2.8714
  370MOL0     H50993   1.027  10.449   4.030 -2.1013  2.1972  2.8053
  370MOL0     H50994   1.141  10.549   4.105 -3.2045  0.5516 -2.2066
  370MOL0     H50995   1.145  10.349   4.291 -0.6632  1.4798  1.1612
  370MOL0     H50996   1.022  10.463   4.303  1.3878 -0.3067  1.3877
  370MOL0     H50997   0.858  10.320   4.195 -0.5614  1.3797  2.5992
  370MOL0     H50998   0.983  10.223   4.121 -3.0580  2.5385 -1.7449
  370MOL0     H50999   1.043  10.139   4.336  1.1660  1.9205 -1.3641
  370MOL0     H51000   0.909  10.236   4.423 -1.0668  1.6194 -0.9079
  370MOL0     H51001   0.844  10.021   4.223  1.2291 -0.9920  0.8623
  370MOL0     H51002   0.735  10.125   4.289  0.7275 -0.0626 -2.3735
  370MOL0     H51003   0.916   9.940   4.461 -1.0730 -0.6751  4.5976
  370MOL0     H51004   0.817  10.061   4.534 -0.0046 -1.1000  0.4503
  370MOL0     H51005   0.726   9.843   4.357 -1.3526  4.0774 -3.1211
  370MOL0     H51006   0.605   9.947   4.438  0.0338  0.6522 -0.2821
  370MOL0     H51007   0.806   9.782   4.593  0.6156  2.2270  0.4419
  370MOL0     H51008   0.673   9.885   4.658  2.1014 -1.1762  2.3712
  370MOL0     H51009   0.728   9.555   4.457 -2.2529  0.6512 -5.1095
  370MOL0     H51010   0.410   9.325   4.479  0.6629 -3.4626  0.4221
  370MOL0     H51011   0.588   9.310   4.500  0.9750 -0.4938 -1.0614
  370MOL0     H51012   0.472   9.279   4.255 -0.5343  0.1730  0.6981
  370MOL0     H51013   0.447   9.450   4.273 -2.2347 -0.9514  3.1114
  370MOL0     H51014   0.639   9.376   4.123  3.2470 -0.4210 -1.0939
  370MOL0     H51015   0.675   9.502   4.231 -0.0594 -0.0724 -0.5234
  370MOL0     H51016   0.854   9.326   4.239  0.5297 -3.8574 -1.0610
  370MOL0     H51017   0.763   9.325   4.393 -2.5449 -2.1264  0.2313
  370MOL0     H51018   0.641   9.010   4.464  0.1455 -0.0303  2.1074
  370MOL0     H51019   0.784   8.816   4.683  2.6121 -4.3801 -0.2462
  370MOL0     H51020   0.750   8.710   4.548 -2.1718  1.6638 -2.5839
  370MOL0     H51021   0.637   8.841   4.572  0.0341 -0.0565 -0.8091
  370MOL0     H51022   1.419   8.900   4.563 -1.9072  0.7449 -2.4825
  370MOL0     H51023   1.597   8.774   4.663  2.1147 -2.3621  0.8654
  370MOL0     H51024   1.709   8.394   4.799 -1.7920 -1.3950  0.4491
  370MOL0     H51025   1.542   8.364   4.755 -2.7410  2.3833 -0.4426
  370MOL0     H51026   1.696   8.251   4.596  2.3647  0.3699  1.1467
  370MOL0     H51027   1.610   8.388   4.512  2.2458  2.9277 -0.2432
  370MOL0     H51028   1.869   8.466   4.628  0.7502 -1.5843 -0.1369
  370MOL0     H51029   1.779   8.541   4.507 -1.5444 -0.6907  0.4417
  370MOL0     H51030   1.876   8.398   4.329  1.3380  0.1340  0.0885
  370MOL0     H51031   1.853   8.266   4.446  1.2726 -0.1604  0.0975
  370MOL0     H51032   2.083   8.465   4.453  0.4738 -0.9339  3.0860
  370MOL0     H51033   2.058   8.345   4.573 -1.7556  1.7561  1.5636
  370MOL0     H51034   2.235   8.293   4.348  1.0424 -1.4479  1.4669
  370MOL0     H51035   2.082   8.252   4.279  1.8511 -0.5298 -0.0080
  370MOL0     H51036   2.059   8.102   4.513  0.2672  0.9846  0.4251
  370MOL0     H51037   2.221   8.132   4.532 -0.5256 -3.2309  0.3860
  370MOL0     H51038   2.201   7.922   4.395 -2.7911 -0.6206 -1.0747
  370MOL0     H51039   2.255   8.064   4.286  0.8037 -0.6855 -0.9849
  370MOL0     H51040   1.381   8.402   4.636 -2.2285 -0.2836  0.2693
  370MOL0     H51041   1.193   8.519   4.526  0.3746 -2.7757  0.8073
  370MOL0     H51042   1.098   8.946   4.292  1.3223  1.9154  0.1513
  370MOL0     H51043   0.965   9.113   4.200 -0.1175 -1.4783 -0.8227
  370MOL0     H51044   1.321  10.529   3.886 -1.9207  1.6088 -0.5891
  370MOL0     H51045   1.315  10.524   3.642  3.1020  0.1196  1.9308
  370MOL0     H51046   0.903  10.387   3.279  0.6005  1.7836 -0.9424
  370MOL0     H51047   0.894  10.307   3.048  0.4035 -0.2518 -0.3782
  370MOL0     H51048   1.259  10.311   2.772 -2.0051 -1.8968 -3.6357
  370MOL0     H51049   1.270  10.175   2.898  0.3680 -1.8417 -1.1075
  370MOL0     H51050   1.218  10.037   2.782 -1.7748  0.2071  2.1707
  370MOL0     H51051   1.287  10.150   2.676  1.0986 -1.9441  2.6257
  370MOL0     H51052   0.977  10.087   2.704  0.8323  2.4193  2.2090
  370MOL0     H51053   1.036  10.209   2.605 -1.4137 -0.2919  0.6428
  370MOL0     H51054   1.119   9.936   2.534  0.3086  0.7500  1.4781
  370MOL0     H51055   1.158  10.081   2.452 -1.6095  1.2190  0.9756
  370MOL0     H51056   0.744  10.058   2.371  0.4417 -0.4891 -1.8514
  370MOL0     H51057   1.312  10.393   3.007  0.2718  0.2692 -0.9363
  370MOL0     H51058   1.382  10.443   3.367  0.4513  0.1615  0.1874
  370MOL0     H51059   1.445  10.340   3.250 -1.8393 -0.8352 -1.0129
  370MOL0     H51060   1.436  10.501   3.202  3.8504  0.0386  2.7823
  371MOL0     O51061   7.020   8.645   4.336  0.0952 -0.1921  0.8099
  371MOL0     C51062   6.921   8.701   4.384  0.6601  1.0527 -0.2884
  371MOL0     O51063   6.916   8.804   4.468  0.0680 -0.5299  0.0561
  371MOL0     C51064   7.039   8.840   4.526  0.4661 -0.2792 -0.4813
  371MOL0     C51065   7.046   8.813   4.670 -0.4805  0.1040  1.1766
  371MOL0     C51066   7.168   8.828   4.729  0.4515 -0.2405 -0.1858
  371MOL0     C51067   7.272   8.894   4.662  0.8013  0.8365 -0.6902
  371MOL0     O51068   7.392   8.917   4.730 -0.5041  0.4396  0.1665
  371MOL0     C51069   7.413   8.856   4.857 -0.3967 -0.4824 -0.6315
  371MOL0     C51070   7.557   8.883   4.907  0.1044  0.1127 -0.3489
  371MOL0     C51071   7.586   8.816   5.045  0.1276  0.2392  0.4261
  371MOL0     C51072   7.718   8.877   5.107 -0.1624  0.2178 -0.5666
  371MOL0     C51073   7.758   8.818   5.242  1.0205 -1.2875 -0.1462
  371MOL0     C51074   7.883   8.897   5.299 -0.3231 -0.2186  0.6680
  371MOL0     C51075   7.932   8.831   5.432 -0.3331 -0.2963 -1.1986
  371MOL0     C51076   8.047   8.908   5.514  0.1922  0.9654  0.1457
  371MOL0     N51077   8.014   9.044   5.530  0.2546  0.0135  1.3930
  371MOL0     C51078   8.053   9.150   5.446 -0.3293  0.2318  0.0397
  371MOL0     C51079   8.035   9.268   5.513  1.0704  0.4319 -0.9431
  371MOL0     C51080   8.037   9.404   5.459  0.7354  0.2485  0.2545
  371MOL0     C51081   8.180   9.455   5.466  0.4635 -0.3107 -0.7725
  371MOL0     C51082   8.205   9.593   5.402 -0.2125 -1.2695  0.7610
  371MOL0     C51083   8.138   9.616   5.269 -0.2536  0.1331 -0.2353
  371MOL0     O51084   8.184   9.526   5.166 -0.3646 -0.9380  0.2228
  371MOL0     C51085   8.104   9.462   5.076  0.1212 -0.2517 -0.7464
  371MOL0     C51086   8.106   9.329   5.063 -0.0563  0.8501 -0.4758
  371MOL0     C51087   8.018   9.263   4.974 -0.2849 -0.0741  0.2981
  371MOL0     C51088   8.029   9.120   4.954  1.1000 -0.4666  0.5542
  371MOL0     C51089   7.928   9.339   4.894 -0.6318  0.5315  0.4289
  371MOL0     C51090   7.824   9.276   4.806 -0.8568  0.1990 -0.4932
  371MOL0     O51091   7.859   9.224   4.689 -0.0352  0.6565  0.8039
  371MOL0     C51092   7.767   9.201   4.598 -1.1254  0.1258  0.4079
  371MOL0     C51093   7.816   9.151   4.468  0.1043 -0.6041 -0.3059
  371MOL0     C51094   7.727   9.127   4.364  0.8008  0.3183 -0.0928
  371MOL0     C51095   7.583   9.136   4.380 -0.6381 -1.1282  0.2964
  371MOL0     O51096   7.489   9.124   4.283  0.7680 -0.2524  0.3224
  371MOL0     C51097   7.518   9.181   4.155  0.2251 -0.1879 -0.2701
  371MOL0     C51098   7.448   9.087   4.054 -0.7161 -0.5812  0.2558
  371MOL0     C51099   7.518   9.089   3.925  0.5073  0.4708 -0.3274
  371MOL0     C51100   7.516   8.955   3.851 -0.0718  0.3035 -0.2309
  371MOL0     C51101   7.625   8.950   3.737  0.5124  0.2859  0.0447
  371MOL0     C51102   7.604   8.829   3.649 -0.0153 -0.1986 -0.2821
  371MOL0     C51103   7.656   8.831   3.494  0.5565 -0.0255 -0.7938
  371MOL0     C51104   7.601   8.716   3.406 -0.6204  1.1102 -0.2950
  371MOL0    Cl51105   7.656   8.550   3.470  0.1492  0.2525  0.0472
  371MOL0     C51106   7.539   9.192   4.503 -0.1197 -1.6519  1.1206
  371MOL0     C51107   7.628   9.238   4.600  0.8603 -0.9670  0.6304
  371MOL0     O51108   7.719   9.268   4.872 -0.2809 -0.1452  0.1160
  371MOL0     C51109   7.936   9.479   4.891  0.5182  0.4069 -0.7370
  371MOL0     C51110   8.018   9.538   4.991 -0.7802  0.3799 -1.2917
  371MOL0     N51111   8.000   9.233   5.636 -0.1257 -0.1968 -0.3560
  371MOL0     N51112   7.979   9.104   5.644 -0.5453 -0.2258 -0.2532
  371MOL0     C51113   7.257   8.939   4.535  0.8233  0.4765  0.2990
  371MOL0     C51114   7.141   8.904   4.464  0.1619 -0.9385  0.5423
  371MOL0     C51115   6.790   8.623   4.371  0.4730  0.0080 -0.5087
  371MOL0     C51116   6.678   8.668   4.449 -0.1829  0.3487  0.0550
  371MOL0     C51117   6.566   8.584   4.471  0.7309  0.2389 -0.0819
  371MOL0     C51118   6.553   8.471   4.392 -0.1412  0.0772  0.8379
  371MOL0     O51119   6.453   8.386   4.400  1.0367 -0.3470  1.3548
  371MOL0     C51120   6.321   8.417   4.441 -0.4439  0.8117  0.5808
  371MOL0     C51121   6.305   8.396   4.597 -0.0337  0.0411  0.8139
  371MOL0     C51122   6.333   8.254   4.653 -0.7579  0.3364  0.1417
  371MOL0     C51123   6.250   8.136   4.611 -0.0786  0.2931  0.3303
  371MOL0     C51124   6.305   8.006   4.630 -0.6940  0.0428 -0.3457
  371MOL0     C51125   6.365   7.903   4.633  0.0264 -0.5962  0.7361
  371MOL0     C51126   6.654   8.442   4.297  0.2202 -0.3635 -0.8860
  371MOL0     C51127   6.774   8.513   4.285  0.8581  0.6618  0.4771
  371MOL0     C51128   6.868   8.460   4.189 -0.3175 -0.5219  0.2137
  371MOL0     H51129   6.957   8.761   4.704 -1.2777 -1.6816 -3.0344
  371MOL0     H51130   7.170   8.795   4.833 -0.6009  0.7222  0.1688
  371MOL0     H51131   7.412   8.746   4.855 -1.0056 -0.5802  1.6995
  371MOL0     H51132   7.343   8.884   4.936 -0.6533 -1.2574 -0.5688
  371MOL0     H51133   7.624   8.856   4.825  1.5914  2.7346 -0.1059
  371MOL0     H51134   7.575   8.991   4.913  0.6211  0.0136 -0.0028
  371MOL0     H51135   7.509   8.834   5.121  1.2349  0.8043  1.4611
  371MOL0     H51136   7.598   8.708   5.044  0.6756  0.1964  3.1875
  371MOL0     H51137   7.805   8.862   5.042  1.8268  0.0476  1.9909
  371MOL0     H51138   7.710   8.985   5.120 -0.5779 -0.1484  3.5987
  371MOL0     H51139   7.768   8.710   5.253 -1.7183 -1.4363  2.1597
  371MOL0     H51140   7.674   8.838   5.310 -1.6241 -0.7760 -3.3338
  371MOL0     H51141   7.966   8.890   5.228 -0.0622 -0.5182  0.9936
  371MOL0     H51142   7.852   9.001   5.313 -0.8285 -0.5461  2.2048
  371MOL0     H51143   7.962   8.729   5.404  1.8301  0.6734 -2.7242
  371MOL0     H51144   7.841   8.819   5.490  0.1023 -0.1296 -0.4764
  371MOL0     H51145   8.061   8.867   5.615  4.7477  3.2781  0.7278
  371MOL0     H51146   8.143   8.891   5.464  0.2394 -1.1544  0.8528
  371MOL0     H51147   8.075   9.145   5.340  0.0004 -0.6303  0.1374
  371MOL0     H51148   7.976   9.465   5.526 -1.6892 -1.1903 -0.4972
  371MOL0     H51149   8.000   9.398   5.356  0.9397 -1.2425  0.2508
  371MOL0     H51150   8.211   9.455   5.571  2.0013  1.6816 -1.1608
  371MOL0     H51151   8.244   9.386   5.410 -1.8583 -2.2219 -1.2485
  371MOL0     H51152   8.187   9.676   5.471 -1.1297 -1.7987  1.1787
  371MOL0     H51153   8.313   9.602   5.389 -0.2174  3.7503  1.9436
  371MOL0     H51154   8.029   9.617   5.269 -0.3692 -2.8440 -0.3968
  371MOL0     H51155   8.183   9.711   5.239  3.2414 -1.0322  0.7341
  371MOL0     H51156   8.186   9.281   5.118 -0.4349  0.8486  0.0787
  371MOL0     H51157   8.117   9.086   5.010  1.7966  1.6918  0.8469
  371MOL0     H51158   8.051   9.099   4.849  0.6599 -2.0539  0.7433
  371MOL0     H51159   7.942   9.061   4.983  0.2915 -0.0347 -0.8932
  371MOL0     H51160   7.922   9.147   4.443  0.5317  4.1768 -0.2644
  371MOL0     H51161   7.775   9.087   4.275 -0.0164  1.1672 -0.9460
  371MOL0     H51162   7.471   9.279   4.163  1.6692  0.4905  0.3136
  371MOL0     H51163   7.626   9.184   4.136  0.5944 -4.4811  0.1130
  371MOL0     H51164   7.432   8.983   4.083  0.2635 -0.8975 -0.2869
  371MOL0     H51165   7.351   9.135   4.036  1.6139  4.6081 -0.1180
  371MOL0     H51166   7.624   9.113   3.938 -0.1928  3.7496 -0.0392
  371MOL0     H51167   7.482   9.175   3.868  0.2402 -1.1998 -2.8535
  371MOL0     H51168   7.420   8.944   3.800  0.0107  1.1913 -0.5952
  371MOL0     H51169   7.539   8.874   3.921 -0.9557  0.3538  0.1253
  371MOL0     H51170   7.622   9.042   3.677  3.1928  1.0534  0.9296
  371MOL0     H51171   7.728   8.958   3.773 -0.1407  4.1304  1.6023
  371MOL0     H51172   7.497   8.811   3.650  0.0607 -0.7277 -1.0839
  371MOL0     H51173   7.671   8.759   3.701 -1.4175 -1.9160 -0.7171
  371MOL0     H51174   7.765   8.836   3.500  0.6616 -2.6277  3.3789
  371MOL0     H51175   7.611   8.919   3.449  0.5563 -0.1476 -1.0340
  371MOL0     H51176   7.631   8.714   3.300  3.0243 -5.6828  0.3223
  371MOL0     H51177   7.492   8.711   3.414 -0.6570 -1.5489 -1.5381
  371MOL0     H51178   7.432   9.210   4.503  0.0549 -0.2278 -1.2953
  371MOL0     H51179   7.579   9.296   4.677 -2.8640 -2.4129 -0.4271
  371MOL0     H51180   7.877   9.540   4.824 -2.2415 -1.1644  0.1161
  371MOL0     H51181   8.017   9.646   5.000 -3.5286  0.4218 -1.1554
  371MOL0     H51182   7.332   9.001   4.486  0.2347 -1.7950 -3.9959
  371MOL0     H51183   7.135   8.944   4.364  2.1020  1.6834  1.3667
  371MOL0     H51184   6.679   8.768   4.489  0.4506  1.1094 -1.7634
  371MOL0     H51185   6.492   8.611   4.546  1.9659 -2.2863  2.2000
  371MOL0     H51186   6.295   8.520   4.414 -1.9573  0.1954 -0.4294
  371MOL0     H51187   6.255   8.341   4.399  0.3650  1.0808 -1.2819
  371MOL0     H51188   6.203   8.427   4.625 -0.1087 -0.0578  0.6532
  371MOL0     H51189   6.382   8.453   4.650  1.3894  0.8225 -1.9128
  371MOL0     H51190   6.435   8.221   4.630 -1.2080 -1.7429  0.8959
  371MOL0     H51191   6.319   8.257   4.761  0.8438  1.7601  0.3511
  371MOL0     H51192   6.226   8.135   4.504 -2.0949  1.8600  0.7110
  371MOL0     H51193   6.161   8.134   4.674 -0.6637  0.2822 -0.4744
  371MOL0     H51194   6.394   7.800   4.626 -0.2410 -0.7697  1.9841
  371MOL0     H51195   6.636   8.350   4.241 -0.5484 -1.5152  1.1477
  371MOL0     H51196   6.825   8.391   4.116 -1.5533 -0.4048  0.8057
  371MOL0     H51197   6.915   8.547   4.142  0.2612 -1.3141 -0.6954
  371MOL0     H51198   6.945   8.402   4.241  1.3846  1.7476  0.3711
  372MOL0     O51199   8.068   1.659   7.205  0.4183  0.3389  0.0274
  372MOL0     C51200   8.173   1.637   7.143 -0.1955 -0.8236  0.1173
  372MOL0     O51201   8.172   1.596   7.018  0.4120  0.1541 -0.0165
  372MOL0     C51202   8.289   1.540   6.975 -0.8081  0.1993  0.1599
  372MOL0     C51203   8.323   1.415   7.020 -0.1813  0.4995  0.3195
  372MOL0     C51204   8.435   1.346   6.978 -1.5601  0.2854  0.9553
  372MOL0     C51205   8.530   1.412   6.900  0.4339 -0.1856 -0.2630
  372MOL0     O51206   8.657   1.355   6.893  0.0945  0.5414 -0.5199
  372MOL0     C51207   8.753   1.414   6.978 -0.8345  0.4773  0.2705
  372MOL0     C51208   8.732   1.386   7.126 -0.4840  0.0511 -0.4848
  372MOL0     C51209   8.675   1.505   7.205 -0.5390 -0.8896  0.0305
  372MOL0     C51210   8.679   1.497   7.362 -0.5202  0.0406 -0.4648
  372MOL0     C51211   8.632   1.351   7.391 -0.3669  0.6740  0.9597
  372MOL0     C51212   8.585   1.349   7.539 -0.2524  1.0296  0.4335
  372MOL0     C51213   8.712   1.370   7.627  0.7846  0.4958  0.2715
  372MOL0     C51214   8.675   1.360   7.767  0.8447  0.5384  1.4455
  372MOL0     N51215   8.797   1.379   7.850 -0.6604 -0.1151  0.1147
  372MOL0     C51216   8.902   1.297   7.850 -0.2243  0.8769  0.4003
  372MOL0     C51217   8.958   1.325   7.973  0.0349  0.6461 -0.0618
  372MOL0     C51218   9.042   1.225   8.051  0.7541 -0.5605  0.1470
  372MOL0     C51219   9.150   1.135   7.990 -0.2289  0.0789  0.7008
  372MOL0     C51220   9.225   1.191   7.872  0.2292  0.4321  0.6091
  372MOL0     C51221   9.376   1.166   7.869 -1.2017 -0.1329  1.4979
  372MOL0     O51222   9.447   1.263   7.783  0.0117  0.7027 -0.1849
  372MOL0     C51223   9.572   1.231   7.739 -0.0598  0.2990 -0.6354
  372MOL0     C51224   9.618   1.297   7.623  0.7670  0.3426  1.0017
  372MOL0     C51225   9.725   1.255   7.551  0.3810 -0.7780  0.4568
  372MOL0     C51226   9.764   1.334   7.426  0.4290 -0.5101  0.6538
  372MOL0     C51227   9.800   1.153   7.597 -1.2712  0.1095 -0.1806
  372MOL0     C51228   9.923   1.088   7.530  0.0602 -1.1901  0.2406
  372MOL0     O51229  10.037   1.066   7.592  0.4774  0.0056  0.1231
  372MOL0     C51230  10.156   1.035   7.532  0.4435  0.7767  0.0581
  372MOL0     C51231  10.240   0.948   7.601  0.4012  0.4706 -0.1894
  372MOL0     C51232  10.368   0.919   7.556  0.4709 -0.3241 -0.3691
  372MOL0     C51233  10.423   0.967   7.441  0.2787  0.1975  0.5365
  372MOL0     O51234  10.554   0.940   7.411 -0.4791  0.7312 -0.3549
  372MOL0     C51235  10.582   0.916   7.276 -0.9586  0.7735 -0.2512
  372MOL0     C51236  10.720   0.836   7.261  0.7789 -0.8159  0.2856
  372MOL0     C51237  10.848   0.924   7.280 -0.8221 -0.6280 -0.6196
  372MOL0     C51238  10.964   0.851   7.218 -0.4450  0.0709  0.4399
  372MOL0     C51239  11.092   0.925   7.258  0.1676 -0.0198  0.2417
  372MOL0     C51240  11.209   0.894   7.152 -0.0653  0.3512 -0.1093
  372MOL0     C51241  11.338   0.962   7.196 -0.3800 -0.2301  0.4389
  372MOL0     C51242  11.340   1.111   7.201  0.1585  0.0714 -0.0743
  372MOL0    Cl51243  11.513   1.173   7.233 -0.2912 -0.0615  0.0689
  372MOL0     C51244  10.337   1.059   7.368 -0.1680  0.1310 -0.2882
  372MOL0     C51245  10.210   1.099   7.417  0.2688  0.3656 -0.6661
  372MOL0     O51246   9.892   1.053   7.416 -0.6165  0.2994  0.7106
  372MOL0     C51247   9.766   1.086   7.716 -0.0487  0.3217  0.4855
  372MOL0     C51248   9.653   1.125   7.790 -0.6426  0.5586 -0.3455
  372MOL0     N51249   8.905   1.442   8.020 -0.2788 -0.3356 -0.2052
  372MOL0     N51250   8.820   1.488   7.939  0.8250 -0.5499 -0.8956
  372MOL0     C51251   8.497   1.547   6.853  0.5290  0.2211  0.0076
  372MOL0     C51252   8.378   1.607   6.892  0.4377  0.6011  0.2864
  372MOL0     C51253   8.286   1.700   7.215  0.0747 -0.7797 -0.0637
  372MOL0     C51254   8.344   1.817   7.166  0.2302  0.7198  0.7600
  372MOL0     C51255   8.434   1.906   7.228 -0.2188 -0.3988  0.4194
  372MOL0     C51256   8.474   1.862   7.349  0.7319  0.0239 -0.3598
  372MOL0     O51257   8.555   1.928   7.437 -0.3003  0.9868  0.2020
  372MOL0     C51258   8.612   2.053   7.403  0.6328 -0.2678  0.9036
  372MOL0     C51259   8.745   2.071   7.479  0.6875  0.6222  0.5757
  372MOL0     C51260   8.871   2.019   7.440 -0.0175  0.2328  0.4185
  372MOL0     C51261   8.923   2.028   7.296 -0.0078 -0.1912 -0.3431
  372MOL0     C51262   9.060   1.980   7.292 -0.6129 -0.8092  0.3648
  372MOL0     C51263   9.174   1.953   7.276  0.8300  0.4420  1.2258
  372MOL0     C51264   8.414   1.744   7.409 -0.8099 -0.3184 -0.4035
  372MOL0     C51265   8.320   1.668   7.350  1.2266 -0.3429 -0.1731
  372MOL0     C51266   8.246   1.554   7.415  0.3555  0.5276 -0.2944
  372MOL0     H51267   8.257   1.371   7.094 -1.5918  3.5920  1.0657
  372MOL0     H51268   8.456   1.248   7.019 -0.5469  0.1555  0.1739
  372MOL0     H51269   8.756   1.522   6.960 -0.8317  0.1012 -2.2831
  372MOL0     H51270   8.855   1.381   6.955 -1.8145 -3.0280  0.4806
  372MOL0     H51271   8.681   1.289   7.116 -0.2145  0.1405 -3.3604
  372MOL0     H51272   8.824   1.361   7.180 -0.4785  0.9373 -0.0611
  372MOL0     H51273   8.725   1.599   7.185  2.5711 -2.0688  1.6802
  372MOL0     H51274   8.572   1.505   7.166 -0.6395 -2.5748  0.1958
  372MOL0     H51275   8.781   1.521   7.394  0.9099  0.3983 -4.7070
  372MOL0     H51276   8.615   1.574   7.407  0.8422  1.4008 -0.7482
  372MOL0     H51277   8.708   1.278   7.362 -2.3037 -0.5527 -1.4406
  372MOL0     H51278   8.551   1.326   7.322  0.1025 -0.7327  0.8876
  372MOL0     H51279   8.505   1.421   7.556 -1.6477 -0.5350  0.7924
  372MOL0     H51280   8.543   1.251   7.563  1.0217  0.4252  0.2762
  372MOL0     H51281   8.762   1.465   7.605 -0.7213  1.2090 -0.2583
  372MOL0     H51282   8.774   1.284   7.602 -3.5725 -2.5465 -1.2698
  372MOL0     H51283   8.604   1.438   7.796 -0.5339 -0.2348  0.3033
  372MOL0     H51284   8.632   1.263   7.793  4.7797 -2.1409 -0.9195
  372MOL0     H51285   8.902   1.207   7.789 -1.0241  0.5746  0.8303
  372MOL0     H51286   8.963   1.154   8.078 -1.1346  1.1776 -0.5415
  372MOL0     H51287   9.083   1.276   8.139 -2.2710  3.8303 -0.6364
  372MOL0     H51288   9.229   1.121   8.064  4.1360 -1.6109 -3.6728
  372MOL0     H51289   9.111   1.041   7.948  0.8551  0.1270 -0.4782
  372MOL0     H51290   9.185   1.172   7.772 -1.6099  3.1718  0.6909
  372MOL0     H51291   9.204   1.299   7.873 -2.7354  0.0142 -1.7665
  372MOL0     H51292   9.420   1.180   7.968 -1.2221  2.4535  1.2155
  372MOL0     H51293   9.397   1.067   7.826  4.3139  1.4311 -0.2067
  372MOL0     H51294   9.543   1.374   7.602  0.1799 -0.1790  1.1690
  372MOL0     H51295   9.870   1.321   7.405  0.8889 -0.7946  2.8919
  372MOL0     H51296   9.743   1.439   7.449 -1.2133  0.3109 -3.6273
  372MOL0     H51297   9.698   1.305   7.344  1.3126  1.3926 -0.8346
  372MOL0     H51298  10.204   0.925   7.701  1.6877  2.7580  0.8831
  372MOL0     H51299  10.438   0.866   7.620  0.8950  3.6101  2.7755
  372MOL0     H51300  10.501   0.861   7.227 -0.5365  0.3521 -0.4835
  372MOL0     H51301  10.594   1.013   7.228 -0.4309  1.3924  1.0608
  372MOL0     H51302  10.721   0.740   7.312  1.0313 -0.8287  0.2588
  372MOL0     H51303  10.720   0.802   7.157  1.8922 -0.2514  0.0818
  372MOL0     H51304  10.858   0.937   7.389  1.9179  3.5749 -1.1298
  372MOL0     H51305  10.836   1.027   7.246 -0.4156  0.0013  1.0332
  372MOL0     H51306  10.948   0.831   7.111 -1.6263 -2.2351  0.9962
  372MOL0     H51307  10.967   0.752   7.263 -0.3214 -0.0484  0.1723
  372MOL0     H51308  11.080   1.030   7.233  1.4090  0.0080 -0.3352
  372MOL0     H51309  11.115   0.909   7.364 -1.0726  2.7832  1.0055
  372MOL0     H51310  11.185   0.931   7.052  3.0664 -2.3962 -2.0852
  372MOL0     H51311  11.226   0.786   7.144 -2.3654 -0.0647 -0.0550
  372MOL0     H51312  11.416   0.951   7.120 -0.6526  0.1065  0.1065
  372MOL0     H51313  11.374   0.925   7.292  0.5548  1.4001  0.7459
  372MOL0     H51314  11.272   1.160   7.270  0.5136  1.6720 -0.8193
  372MOL0     H51315  11.297   1.129   7.102 -0.8335 -1.8962 -0.0553
  372MOL0     H51316  10.386   1.108   7.284  2.2581  1.6719  1.8597
  372MOL0     H51317  10.167   1.186   7.368 -0.0139  0.0121 -1.0482
  372MOL0     H51318   9.829   1.001   7.742  1.7264  1.0813 -1.0586
  372MOL0     H51319   9.613   1.068   7.873 -1.4729  2.5983  0.7308
  372MOL0     H51320   8.558   1.600   6.780  1.8398  0.1640  1.0250
  372MOL0     H51321   8.357   1.710   6.867  4.2501  1.3141 -0.7281
  372MOL0     H51322   8.336   1.841   7.060  3.0168 -0.5915  0.1622
  372MOL0     H51323   8.481   1.990   7.178 -0.1037  1.7626  3.8392
  372MOL0     H51324   8.631   2.051   7.295  0.1024 -0.3493  0.8106
  372MOL0     H51325   8.541   2.131   7.431 -1.1617 -2.4482  2.8172
  372MOL0     H51326   8.720   2.038   7.580 -2.9372  0.5112 -0.2394
  372MOL0     H51327   8.748   2.181   7.481  0.8380  0.6416 -0.2710
  372MOL0     H51328   8.952   2.058   7.502 -1.5314 -1.6517  3.8791
  372MOL0     H51329   8.856   1.912   7.456  1.2428 -0.0672 -0.2734
  372MOL0     H51330   8.936   2.134   7.270  1.5404  0.9255  4.0481
  372MOL0     H51331   8.851   1.979   7.229 -2.1553  2.1664  0.0940
  372MOL0     H51332   9.277   1.947   7.246  0.2899  0.3525 -0.7178
  372MOL0     H51333   8.421   1.733   7.517 -5.3317  3.3327  0.5798
  372MOL0     H51334   8.246   1.464   7.353 -3.9048  0.9202 -1.2082
  372MOL0     H51335   8.267   1.540   7.521 -0.7131  1.5132  0.0649
  372MOL0     H51336   8.138   1.573   7.409  0.5743  1.5821 -1.1427
  373MOL0     O51337   4.468   2.075   4.971 -1.0507 -0.2823  0.1854
  373MOL0     C51338   4.521   1.995   4.901  0.2474  0.0949  0.3787
  373MOL0     O51339   4.451   1.902   4.828 -0.9936  0.2836  0.8538
  373MOL0     C51340   4.319   1.925   4.806 -0.2648 -0.5240  0.4068
  373MOL0     C51341   4.290   1.985   4.688  0.8296 -0.5841 -0.0968
  373MOL0     C51342   4.153   2.010   4.642  0.2496  0.0369  0.4783
  373MOL0     C51343   4.050   1.982   4.733 -0.6820  0.7073  0.8356
  373MOL0     O51344   3.921   2.023   4.703 -0.4160 -0.1443  0.9049
  373MOL0     C51345   3.891   2.141   4.757  0.0162 -0.4046 -1.1161
  373MOL0     C51346   3.778   2.124   4.867 -0.4045 -0.0672  0.3790
  373MOL0     C51347   3.811   2.203   4.994  0.4725  0.0883 -0.4648
  373MOL0     C51348   3.830   2.351   4.970  0.6225  1.0328  0.3762
  373MOL0     C51349   3.709   2.427   4.915  0.6036  0.2660  0.0054
  373MOL0     C51350   3.616   2.465   5.021  0.2909  0.4466 -0.3696
  373MOL0     C51351   3.509   2.561   4.988 -0.7001  0.1457 -0.5970
  373MOL0     C51352   3.478   2.660   5.103 -0.1266  0.5890  0.6234
  373MOL0     N51353   3.350   2.716   5.083  0.8687 -0.4089 -0.2543
  373MOL0     C51354   3.318   2.852   5.077  0.5347 -0.9567 -0.7798
  373MOL0     C51355   3.199   2.860   5.011 -0.2192 -0.5531 -0.0738
  373MOL0     C51356   3.111   2.980   4.973 -0.5421 -0.5984  0.6153
  373MOL0     C51357   3.065   3.059   5.090 -0.6238 -0.6317 -0.5111
  373MOL0     C51358   2.957   2.986   5.170 -0.2600  0.0361  1.0639
  373MOL0     C51359   2.933   3.043   5.312 -0.3298 -0.1660  0.2236
  373MOL0     O51360   3.055   3.052   5.380  0.1628  0.2450 -0.1381
  373MOL0     C51361   3.019   3.060   5.514  0.2365  0.1252 -0.7010
  373MOL0     C51362   2.946   3.174   5.573 -0.5439  0.3728 -0.4760
  373MOL0     C51363   2.908   3.174   5.710  0.3482 -0.3661 -1.0131
  373MOL0     C51364   2.839   3.292   5.775  0.5748 -0.1668 -1.0074
  373MOL0     C51365   2.936   3.051   5.787  0.5106  0.0402 -0.1585
  373MOL0     C51366   2.894   3.034   5.929  0.9428  0.9341  0.0863
  373MOL0     O51367   2.867   3.141   6.016  0.0288 -0.1574  0.1792
  373MOL0     C51368   2.791   3.130   6.130 -0.1801  0.4599 -0.1804
  373MOL0     C51369   2.685   3.034   6.152 -0.4671  0.2861 -0.5313
  373MOL0     C51370   2.605   3.047   6.262 -0.0253 -0.5734 -0.1888
  373MOL0     C51371   2.623   3.152   6.349  0.2443  0.1558 -0.4559
  373MOL0     O51372   2.543   3.155   6.459 -0.0799 -0.4990 -0.2617
  373MOL0     C51373   2.492   3.287   6.483  0.9087  0.1165  0.2906
  373MOL0     C51374   2.340   3.270   6.524  0.9120  0.2201  0.7413
  373MOL0     C51375   2.313   3.163   6.629  0.2850 -0.0124  0.4473
  373MOL0     C51376   2.162   3.161   6.652 -1.1556 -0.1626 -0.1221
  373MOL0     C51377   2.098   3.032   6.720  0.1606  0.7533  0.5795
  373MOL0     C51378   1.943   3.015   6.689 -0.0131 -0.7808 -0.1989
  373MOL0     C51379   1.891   2.881   6.747 -0.3444 -0.0499 -0.3853
  373MOL0     C51380   1.744   2.886   6.752 -0.4210 -0.1362  0.6740
  373MOL0    Cl51381   1.672   2.901   6.591  0.0733  0.4362  0.8812
  373MOL0     C51382   2.732   3.245   6.342  0.2915 -0.3836  0.7243
  373MOL0     C51383   2.816   3.229   6.230 -0.2955  0.3672 -0.0659
  373MOL0     O51384   2.880   2.914   5.957  0.4092  0.6947 -0.2500
  373MOL0     C51385   3.014   2.949   5.724  0.2202  0.2212 -1.0119
  373MOL0     C51386   3.057   2.951   5.589  0.3247 -0.4990 -0.7348
  373MOL0     N51387   3.158   2.727   4.986 -0.0696  0.1727  0.1887
  373MOL0     N51388   3.238   2.645   5.041  0.0610  0.4460 -0.3729
  373MOL0     C51389   4.080   1.913   4.852 -0.3273  0.4782  0.0573
  373MOL0     C51390   4.216   1.886   4.884 -0.1670  0.9023 -0.6305
  373MOL0     C51391   4.673   1.970   4.897  0.4668  0.4724  0.3946
  373MOL0     C51392   4.724   1.966   4.771  0.2584 -0.8042  0.3359
  373MOL0     C51393   4.860   1.960   4.749  0.4336 -0.8614 -0.6889
  373MOL0     C51394   4.952   1.969   4.858 -0.1040 -0.6409 -0.1889
  373MOL0     O51395   5.088   1.974   4.836  0.2261  0.1790  0.2080
  373MOL0     C51396   5.134   2.068   4.730  0.0193  1.3850  0.3492
  373MOL0     C51397   5.257   2.010   4.647 -0.8253 -0.0267 -0.7936
  373MOL0     C51398   5.256   2.066   4.504 -0.6224 -0.4700  0.4435
  373MOL0     C51399   5.306   2.208   4.503  0.8756  0.7457  0.3992
  373MOL0     C51400   5.242   2.285   4.399 -0.5816  0.6082  0.1250
  373MOL0     C51401   5.199   2.342   4.304 -0.0973  0.3015 -0.5295
  373MOL0     C51402   4.893   1.959   4.985 -0.5661  0.0497 -0.1163
  373MOL0     C51403   4.757   1.964   5.010  0.8805  0.1392 -1.0348
  373MOL0     C51404   4.700   1.960   5.150  0.7865 -0.1814  1.3171
  373MOL0     H51405   4.369   2.007   4.617 -0.2861  1.5069 -0.8013
  373MOL0     H51406   4.126   2.057   4.548  1.3984 -1.4430 -0.6454
  373MOL0     H51407   3.863   2.212   4.679 -1.1736  0.9210  0.4571
  373MOL0     H51408   3.975   2.185   4.811 -0.7083 -1.2398  0.8040
  373MOL0     H51409   3.692   2.171   4.818 -0.7462  2.5207  3.2067
  373MOL0     H51410   3.745   2.021   4.886  0.7344 -0.0669  2.6753
  373MOL0     H51411   3.736   2.191   5.073  2.5107 -2.6491  1.2532
  373MOL0     H51412   3.892   2.167   5.058 -2.0040  0.3365  3.0954
  373MOL0     H51413   3.865   2.387   5.068 -1.7112 -1.8443  2.4712
  373MOL0     H51414   3.917   2.365   4.905  1.1228 -4.3330 -0.5709
  373MOL0     H51415   3.653   2.361   4.848  2.5621 -1.6470  0.1214
  373MOL0     H51416   3.750   2.513   4.861  0.9331 -1.7325 -3.1895
  373MOL0     H51417   3.561   2.375   5.051 -0.7879  1.0980 -0.3501
  373MOL0     H51418   3.680   2.500   5.103 -1.2338  0.5941  0.8060
  373MOL0     H51419   3.425   2.497   4.959  0.8561 -2.9833  1.2470
  373MOL0     H51420   3.541   2.627   4.906  0.5421 -1.4847 -1.4868
  373MOL0     H51421   3.476   2.615   5.202  0.9923  1.9129  1.2773
  373MOL0     H51422   3.552   2.740   5.104  2.2889 -1.5056  0.2731
  373MOL0     H51423   3.374   2.937   5.115  3.2646 -2.5927 -0.8736
  373MOL0     H51424   3.019   2.962   4.916 -0.6438  3.4519 -0.8407
  373MOL0     H51425   3.174   3.037   4.904 -0.4977 -2.6485 -1.1514
  373MOL0     H51426   3.150   3.092   5.152 -2.2152  0.9839  0.9151
  373MOL0     H51427   3.030   3.157   5.059  3.1621  1.9671  2.3894
  373MOL0     H51428   2.871   2.995   5.104  1.4716 -1.2450 -1.5578
  373MOL0     H51429   2.974   2.878   5.171  1.0966 -0.0794 -4.0743
  373MOL0     H51430   2.896   3.142   5.283 -2.5922 -1.8900 -3.3880
  373MOL0     H51431   2.856   3.000   5.378  0.4024 -1.5459  0.2088
  373MOL0     H51432   2.920   3.260   5.512 -0.6369 -1.2473 -2.8527
  373MOL0     H51433   2.899   3.319   5.862 -1.6274  1.0205  0.2406
  373MOL0     H51434   2.740   3.264   5.813  0.0658  1.2874 -1.2077
  373MOL0     H51435   2.829   3.379   5.710  0.7754 -0.0275 -0.8538
  373MOL0     H51436   2.657   2.960   6.077 -1.6184 -0.6902  0.8254
  373MOL0     H51437   2.527   2.972   6.270 -0.6580 -0.0112 -0.8775
  373MOL0     H51438   2.546   3.341   6.560 -0.5056  3.3309 -0.7668
  373MOL0     H51439   2.494   3.351   6.394 -1.1767  0.8009  0.6690
  373MOL0     H51440   2.304   3.367   6.560  0.1327  0.2825 -0.1723
  373MOL0     H51441   2.281   3.246   6.435  2.2275 -0.0801 -0.0676
  373MOL0     H51442   2.369   3.187   6.720  2.5328  2.2651 -1.3760
  373MOL0     H51443   2.335   3.060   6.600 -1.6042 -0.4794  0.4999
  373MOL0     H51444   2.122   3.155   6.550  1.9539 -1.9191 -1.3937
  373MOL0     H51445   2.120   3.251   6.698  1.5711  0.4024  1.4760
  373MOL0     H51446   2.150   2.941   6.686 -1.2876  0.0757  0.0797
  373MOL0     H51447   2.116   3.045   6.827 -0.0564 -0.1287  0.7330
  373MOL0     H51448   1.950   3.010   6.580  3.7674 -4.0347 -0.0600
  373MOL0     H51449   1.884   3.097   6.730 -1.9738 -2.2002 -0.0426
  373MOL0     H51450   1.926   2.875   6.851 -1.3990  0.5126  0.0226
  373MOL0     H51451   1.918   2.793   6.689  4.6981  1.1441 -0.3271
  373MOL0     H51452   1.716   2.962   6.825 -2.9089 -2.1293  1.9544
  373MOL0     H51453   1.712   2.785   6.781  1.0829 -0.6496  0.6385
  373MOL0     H51454   2.740   3.320   6.420  0.8883 -0.1646  0.4570
  373MOL0     H51455   2.877   3.316   6.205  0.0069 -0.6164 -3.1784
  373MOL0     H51456   3.050   2.868   5.786  0.0390  2.4336  2.2704
  373MOL0     H51457   3.126   2.871   5.563 -1.1827 -3.5694  3.5765
  373MOL0     H51458   4.002   1.883   4.921 -0.6387 -0.1406 -0.5563
  373MOL0     H51459   4.239   1.843   4.981 -1.3396  0.6459 -0.4561
  373MOL0     H51460   4.657   1.964   4.686 -1.4120 -1.4370  1.6226
  373MOL0     H51461   4.887   1.966   4.644  0.3249 -2.3223 -0.8287
  373MOL0     H51462   5.063   2.121   4.667  0.3549 -1.1776 -2.3943
  373MOL0     H51463   5.190   2.150   4.777  1.7947 -0.2812  1.3002
  373MOL0     H51464   5.240   1.902   4.635 -3.1034  0.3392 -1.2300
  373MOL0     H51465   5.351   2.028   4.700 -1.5117  1.1012  0.0613
  373MOL0     H51466   5.324   2.013   4.437 -2.5216 -1.0348 -1.1219
  373MOL0     H51467   5.153   2.059   4.466 -0.9453  3.9941 -0.0491
  373MOL0     H51468   5.411   2.195   4.473  0.7619  1.7314 -0.5051
  373MOL0     H51469   5.293   2.247   4.604  0.7251 -2.9385  1.9594
  373MOL0     H51470   5.162   2.408   4.229 -0.4798  2.9086  1.8005
  373MOL0     H51471   4.968   1.968   5.063  2.1772 -2.1309 -2.2427
  373MOL0     H51472   4.615   1.892   5.162 -0.8822  2.0338  2.9335
  373MOL0     H51473   4.773   1.939   5.229  1.9354 -0.5638  0.1929
  373MOL0     H51474   4.669   2.062   5.172  1.4313  0.5744 -1.0040
  374MOL0     O51475   4.905   4.636   9.393 -0.2386  0.5436 -0.4877
  374MOL0     C51476   4.957   4.523   9.379  0.7056  0.0456 -0.6477
  374MOL0     O51477   5.048   4.484   9.282 -0.2034  0.0320 -0.6154
  374MOL0     C51478   5.094   4.583   9.206  0.0603  0.1129  0.0429
  374MOL0     C51479   5.043   4.616   9.083 -0.6061  0.2014 -0.3999
  374MOL0     C51480   5.103   4.724   9.014 -0.2021  0.5970 -0.4715
  374MOL0     C51481   5.221   4.786   9.060 -0.8662 -1.0891 -0.8870
  374MOL0     O51482   5.297   4.873   8.988 -0.3942  0.3230  1.2586
  374MOL0     C51483   5.292   5.008   9.048 -0.6016  1.1153  0.5067
  374MOL0     C51484   5.231   5.094   8.958 -0.0325 -0.5388  0.5241
  374MOL0     C51485   5.317   5.164   8.850 -0.4887 -0.5919  0.5217
  374MOL0     C51486   5.224   5.225   8.744  0.9693  0.1105 -0.6793
  374MOL0     C51487   5.317   5.276   8.626 -0.3484 -0.6562 -0.5552
  374MOL0     C51488   5.250   5.290   8.493  0.2450 -0.4011  0.3917
  374MOL0     C51489   5.356   5.278   8.379  0.0459  1.0040 -1.0494
  374MOL0     C51490   5.453   5.389   8.349 -0.8498  0.1801  0.0382
  374MOL0     N51491   5.379   5.511   8.343 -0.6901 -0.4491  0.2736
  374MOL0     C51492   5.329   5.558   8.228  1.5829  0.4267  0.4322
  374MOL0     C51493   5.277   5.676   8.259 -0.2647 -0.7493  0.1043
  374MOL0     C51494   5.181   5.756   8.166  0.8126  0.4431 -0.5854
  374MOL0     C51495   5.071   5.844   8.248  0.1708 -0.4339  0.3460
  374MOL0     C51496   4.950   5.904   8.169 -0.1374  0.5130 -0.0844
  374MOL0     C51497   4.989   6.036   8.097  0.3054 -0.2364  0.0048
  374MOL0     O51498   5.042   6.136   8.182 -0.4263 -0.2767  0.2554
  374MOL0     C51499   4.959   6.217   8.254 -0.4184 -0.5865  1.3867
  374MOL0     C51500   4.827   6.196   8.293  0.8164  0.6364 -1.1216
  374MOL0     C51501   4.759   6.297   8.367 -0.0721 -0.4143  0.3330
  374MOL0     C51502   4.615   6.275   8.408  1.1040 -0.6601  0.0954
  374MOL0     C51503   4.835   6.410   8.417  0.5914 -0.7617  0.3944
  374MOL0     C51504   4.772   6.517   8.497 -0.0915 -0.3220 -0.2542
  374MOL0     O51505   4.840   6.566   8.611 -0.4609 -0.5421 -0.0148
  374MOL0     C51506   4.793   6.686   8.662 -0.2005  0.5185  0.2629
  374MOL0     C51507   4.659   6.720   8.701 -0.4181 -0.0442  0.9607
  374MOL0     C51508   4.633   6.850   8.748  0.8650  0.5333 -0.2124
  374MOL0     C51509   4.723   6.946   8.765 -0.0986  0.7834  0.0526
  374MOL0     O51510   4.682   7.070   8.799  0.6721  0.3167 -0.1680
  374MOL0     C51511   4.770   7.183   8.798  0.1523 -0.4208 -0.5170
  374MOL0     C51512   4.727   7.293   8.883  0.6779 -0.4123  0.1531
  374MOL0     C51513   4.845   7.399   8.898 -0.1336  0.8101 -0.2996
  374MOL0     C51514   4.936   7.374   9.024  0.4539 -0.3123 -0.1840
  374MOL0     C51515   5.025   7.498   9.038 -0.6500  0.5552 -0.0682
  374MOL0     C51516   5.067   7.516   9.185 -0.1853  0.2489 -1.1950
  374MOL0     C51517   5.130   7.389   9.251  0.2202  0.3593  0.2648
  374MOL0     C51518   5.166   7.422   9.393  0.2798 -0.5701 -0.6727
  374MOL0    Cl51519   5.314   7.531   9.392 -0.5530  0.1919  0.5916
  374MOL0     C51520   4.862   6.908   8.743 -1.1189 -0.4942 -0.1440
  374MOL0     C51521   4.898   6.780   8.696  0.0912  0.2850 -0.2555
  374MOL0     O51522   4.668   6.567   8.452  0.5148 -0.2205 -0.1789
  374MOL0     C51523   4.965   6.422   8.361  0.8489 -0.3628  0.1849
  374MOL0     C51524   5.031   6.334   8.284 -0.1758  0.2852  0.2433
  374MOL0     N51525   5.301   5.701   8.390 -0.5151  0.1057 -0.5239
  374MOL0     N51526   5.373   5.600   8.446  0.9505  0.9386  0.6938
  374MOL0     C51527   5.267   4.744   9.183  0.1418 -0.6988  0.0772
  374MOL0     C51528   5.201   4.649   9.260 -0.0149 -0.2053  0.2743
  374MOL0     C51529   4.929   4.418   9.481 -0.5480 -0.8043 -0.1674
  374MOL0     C51530   5.021   4.312   9.492 -0.7300  0.1186  0.2277
  374MOL0     C51531   5.014   4.211   9.589  1.8513  0.0715  0.4791
  374MOL0     C51532   4.900   4.222   9.675  0.4792 -1.0484  0.3337
  374MOL0     O51533   4.877   4.136   9.780 -0.3616  0.5351  0.4635
  374MOL0     C51534   4.864   3.997   9.739 -0.5667  0.0724 -0.1612
  374MOL0     C51535   4.836   3.922   9.872  0.5802 -0.0239  0.8926
  374MOL0     C51536   4.830   3.771   9.847 -1.3650  1.5503 -0.0963
  374MOL0     C51537   4.691   3.694   9.845 -0.1220  0.0219  0.0599
  374MOL0     C51538   4.594   3.737   9.948  0.2012  0.3352  0.3379
  374MOL0     C51539   4.496   3.779  10.019 -0.5851 -0.8094  1.0295
  374MOL0     C51540   4.806   4.327   9.671 -0.1855 -0.8192  0.2585
  374MOL0     C51541   4.822   4.423   9.567  0.1154 -0.2345 -1.4947
  374MOL0     C51542   4.718   4.540   9.564  0.8678 -0.8585 -0.3505
  374MOL0     H51543   4.957   4.561   9.047  0.6916 -2.1150 -0.2072
  374MOL0     H51544   5.073   4.740   8.911  1.7259 -0.5431 -1.2651
  374MOL0     H51545   5.387   5.047   9.085 -0.5429 -0.4757  2.2407
  374MOL0     H51546   5.237   4.995   9.142  1.9304  1.1495  2.1076
  374MOL0     H51547   5.158   5.035   8.903 -2.9253  0.5133  2.9819
  374MOL0     H51548   5.177   5.173   9.011  1.6629  3.1020 -2.6684
  374MOL0     H51549   5.364   5.250   8.899 -0.6606  0.9692 -1.9131
  374MOL0     H51550   5.395   5.105   8.800  0.4595 -2.2932  3.7291
  374MOL0     H51551   5.137   5.163   8.722  0.4136  0.6901 -0.1561
  374MOL0     H51552   5.174   5.315   8.781  0.9696 -0.8589  1.9068
  374MOL0     H51553   5.402   5.207   8.616  1.7586  1.5171  1.3340
  374MOL0     H51554   5.353   5.374   8.657 -2.8460  1.0299 -2.5846
  374MOL0     H51555   5.173   5.216   8.470 -1.3914  1.3350  0.0311
  374MOL0     H51556   5.194   5.382   8.477  1.9129  0.5655 -0.0559
  374MOL0     H51557   5.316   5.259   8.279  1.8168  1.1239 -1.8228
  374MOL0     H51558   5.422   5.192   8.395  3.1155  2.8699 -2.7096
  374MOL0     H51559   5.524   5.405   8.430 -1.3666  3.1469 -0.0043
  374MOL0     H51560   5.519   5.376   8.263 -1.3814 -0.8035 -0.2299
  374MOL0     H51561   5.314   5.508   8.133  3.3558 -1.8458  1.2547
  374MOL0     H51562   5.131   5.698   8.088 -0.0737  1.0776 -0.5150
  374MOL0     H51563   5.227   5.837   8.110 -1.8006  1.3994 -1.5291
  374MOL0     H51564   5.023   5.772   8.315 -1.4195  0.4092  0.1692
  374MOL0     H51565   5.129   5.919   8.303  0.1848  1.6227 -2.2507
  374MOL0     H51566   4.914   5.829   8.098  1.0210  1.3574 -1.6193
  374MOL0     H51567   4.861   5.920   8.231 -1.2510 -1.4030 -1.0883
  374MOL0     H51568   5.071   6.013   8.028  1.4513 -2.7799  2.0246
  374MOL0     H51569   4.906   6.090   8.051 -2.1900  2.3649  6.4087
  374MOL0     H51570   4.773   6.106   8.266 -0.0002 -0.9865  4.6223
  374MOL0     H51571   4.542   6.340   8.358 -1.2349 -1.6389  2.0428
  374MOL0     H51572   4.607   6.286   8.516 -2.2443 -1.9832  0.1070
  374MOL0     H51573   4.602   6.170   8.383  2.1802 -0.4439 -1.5467
  374MOL0     H51574   4.581   6.648   8.680 -0.5720  1.0936 -3.2043
  374MOL0     H51575   4.534   6.884   8.775  1.2661  0.1545  1.8661
  374MOL0     H51576   4.877   7.171   8.818  0.5672  3.3747  0.2210
  374MOL0     H51577   4.761   7.228   8.698  0.5533  0.8780  0.0121
  374MOL0     H51578   4.651   7.355   8.834  3.2122  2.4499 -0.4631
  374MOL0     H51579   4.685   7.270   8.982 -0.4975 -0.9807 -0.4470
  374MOL0     H51580   4.791   7.494   8.905 -0.9931  0.4732 -2.0874
  374MOL0     H51581   4.912   7.400   8.812  0.1129 -1.6178 -0.1991
  374MOL0     H51582   4.991   7.280   9.021  0.8858 -0.0526 -3.0368
  374MOL0     H51583   4.873   7.368   9.114 -0.9496 -3.1611 -1.2182
  374MOL0     H51584   5.114   7.495   8.975 -0.6328 -1.0518 -0.0166
  374MOL0     H51585   4.962   7.585   9.016 -1.9660 -1.0367 -3.0847
  374MOL0     H51586   4.991   7.551   9.256 -1.4005 -0.0465 -2.3111
  374MOL0     H51587   5.135   7.600   9.171 -2.0973  2.0274 -0.2816
  374MOL0     H51588   5.214   7.350   9.193  0.4794  0.1323  0.7849
  374MOL0     H51589   5.054   7.312   9.266  1.5309 -1.5495 -2.1375
  374MOL0     H51590   5.191   7.329   9.445 -3.8921 -0.0780  2.8044
  374MOL0     H51591   5.079   7.468   9.442  1.6174 -1.1268  2.4490
  374MOL0     H51592   4.942   6.976   8.766 -1.0104 -0.1812 -1.3502
  374MOL0     H51593   4.997   6.742   8.677 -1.4737 -3.8724 -1.1274
  374MOL0     H51594   5.018   6.516   8.375 -2.0038  1.4298  0.0550
  374MOL0     H51595   5.133   6.351   8.250  1.4480 -5.4268  1.1579
  374MOL0     H51596   5.353   4.796   9.224 -0.1580  0.6380 -0.9106
  374MOL0     H51597   5.236   4.633   9.362  0.8172  2.4003  0.4894
  374MOL0     H51598   5.106   4.311   9.425  0.8009  2.6859  1.9741
  374MOL0     H51599   5.087   4.134   9.608  0.7244 -1.6615 -1.7236
  374MOL0     H51600   4.792   3.975   9.660 -0.2706  1.1861 -0.7699
  374MOL0     H51601   4.961   3.949   9.722  1.6623  2.3411  4.3278
  374MOL0     H51602   4.746   3.960   9.921 -1.1178 -2.6152 -0.0025
  374MOL0     H51603   4.912   3.948   9.945  0.7322 -2.4677  1.7090
  374MOL0     H51604   4.880   3.756   9.751  1.6405  2.3817  1.2161
  374MOL0     H51605   4.887   3.723   9.927 -1.5531 -0.1306 -0.9366
  374MOL0     H51606   4.703   3.586   9.853 -5.4136 -1.2343 -3.4277
  374MOL0     H51607   4.639   3.710   9.750  0.8081 -1.0429 -0.6573
  374MOL0     H51608   4.412   3.809  10.079 -2.7008 -3.7241 -0.2553
  374MOL0     H51609   4.738   4.340   9.754  2.6463 -0.5341  2.7123
  374MOL0     H51610   4.639   4.528   9.639 -0.6550  0.1703 -1.7188
  374MOL0     H51611   4.770   4.632   9.590 -0.8533 -0.3178  1.4791
  374MOL0     H51612   4.676   4.543   9.463  1.9779 -1.9582 -0.8689
  375MOL0     O51613  11.382   0.926  10.086 -0.1516 -0.7013  0.0668
  375MOL0     C51614  11.354   0.812  10.108 -0.5624 -0.0244 -0.2261
  375MOL0     O51615  11.364   0.716  10.008  0.1119 -0.1591  0.2150
  375MOL0     C51616  11.383   0.749   9.880  0.5197 -0.5613 -0.7403
  375MOL0     C51617  11.486   0.824   9.838  0.0479 -0.2598  1.0558
  375MOL0     C51618  11.499   0.844   9.701 -1.1150  0.0019  0.7727
  375MOL0     C51619  11.412   0.778   9.611  1.4191  1.0213  0.1433
  375MOL0     O51620  11.427   0.796   9.474 -0.0899  0.4395 -0.3859
  375MOL0     C51621  11.432   0.677   9.395  0.1542 -0.0875  0.0751
  375MOL0     C51622  11.513   0.556   9.441  1.0796  0.4712 -0.4397
  375MOL0     C51623  11.659   0.583   9.446 -0.8332  0.3586 -0.0057
  375MOL0     C51624  11.721   0.668   9.335  0.1617  0.5499  0.2603
  375MOL0     C51625  11.873   0.641   9.328  0.6211 -0.2111  0.1120
  375MOL0     C51626  11.969   0.746   9.276  1.1422  0.2500 -0.0544
  375MOL0     C51627  12.120   0.700   9.278  0.4791  0.0885 -0.3044
  375MOL0     C51628  12.209   0.804   9.227 -0.1958 -0.7004 -0.2545
  375MOL0     N51629  12.215   0.797   9.083  0.5577  0.3311  0.5353
  375MOL0     C51630  12.152   0.870   8.996  0.4107 -0.5816  0.1806
  375MOL0     C51631  12.227   0.864   8.877  0.5746  0.9795 -0.6109
  375MOL0     C51632  12.183   0.928   8.749 -0.3581 -0.3210 -1.2638
  375MOL0     C51633  12.197   0.828   8.630 -0.3823 -1.0624 -0.4067
  375MOL0     C51634  12.137   0.909   8.510 -0.9888 -0.0162 -0.1196
  375MOL0     C51635  12.126   0.820   8.388 -0.5490 -1.0026  0.1600
  375MOL0     O51636  12.069   0.897   8.276 -0.6260  0.2055 -0.2012
  375MOL0     C51637  11.941   0.866   8.234  0.1983  0.6641 -0.1840
  375MOL0     C51638  11.862   0.969   8.192  0.5660 -1.0356  1.4605
  375MOL0     C51639  11.726   0.950   8.155  0.5393 -0.3983 -0.4937
  375MOL0     C51640  11.636   1.083   8.148 -0.7948 -0.0407 -0.1457
  375MOL0     C51641  11.671   0.822   8.139  0.6038  0.0507 -0.0743
  375MOL0     C51642  11.537   0.790   8.100  0.2272  0.1148 -0.6091
  375MOL0     O51643  11.481   0.679   8.172  0.9551  0.6223 -1.0866
  375MOL0     C51644  11.353   0.640   8.140 -1.0894  0.2249 -0.2604
  375MOL0     C51645  11.341   0.591   8.004 -1.2399  0.4907 -0.3090
  375MOL0     C51646  11.229   0.525   7.950 -0.7293  0.5881  0.5231
  375MOL0     C51647  11.118   0.515   8.037 -0.0089  0.1199 -0.4936
  375MOL0     O51648  11.002   0.467   7.986 -0.7692  0.1782  0.5564
  375MOL0     C51649  10.900   0.428   8.069 -0.4684 -0.6638 -0.2219
  375MOL0     C51650  10.912   0.324   8.173 -0.3783  0.3105  0.6021
  375MOL0     C51651  10.975   0.196   8.118  0.0522 -0.5094  0.0257
  375MOL0     C51652  10.959   0.059   8.212 -0.5937 -0.5871 -0.1163
  375MOL0     C51653  11.049  -0.049   8.152 -0.5164 -0.2699 -0.9243
  375MOL0     C51654  11.020  -0.178   8.226 -0.1599 -0.1300  0.2090
  375MOL0     C51655  11.075  -0.306   8.169  0.1018  0.5474  1.0135
  375MOL0     C51656  11.202  -0.359   8.244  0.7136 -0.6714  0.8115
  375MOL0    Cl51657  11.182  -0.381   8.422 -0.1861 -0.3913  0.5214
  375MOL0     C51658  11.115   0.574   8.166 -0.5137  0.3743 -0.4315
  375MOL0     C51659  11.233   0.637   8.224  0.7259  0.3425  0.6807
  375MOL0     O51660  11.493   0.841   8.000  0.1788 -0.2640  0.3859
  375MOL0     C51661  11.756   0.715   8.173 -0.5301  0.1872  0.8631
  375MOL0     C51662  11.895   0.736   8.209  1.5311  0.3899 -1.1897
  375MOL0     N51663  12.344   0.784   8.902 -0.0414 -0.2926 -0.0028
  375MOL0     N51664  12.324   0.740   9.019 -0.8287  0.6178  0.0850
  375MOL0     C51665  11.302   0.707   9.656  0.0415  0.0458 -0.4409
  375MOL0     C51666  11.291   0.689   9.794 -1.2617  0.1966  0.4253
  375MOL0     C51667  11.310   0.780  10.240  1.0048 -0.2603 -0.6364
  375MOL0     C51668  11.340   0.658  10.297  0.6591  0.7835 -0.0902
  375MOL0     C51669  11.322   0.641  10.438 -0.6948  0.7271  0.1700
  375MOL0     C51670  11.261   0.742  10.520  0.1987  0.2204  0.5168
  375MOL0     O51671  11.264   0.745  10.659  0.2323  0.0940 -0.1007
  375MOL0     C51672  11.253   0.623  10.721 -0.0462  0.4464 -0.8661
  375MOL0     C51673  11.233   0.639  10.873  0.2860 -0.8220  0.0807
  375MOL0     C51674  11.361   0.647  10.959 -1.0159  0.7012  0.2405
  375MOL0     C51675  11.374   0.525  11.061  0.0779  0.1750  1.8191
  375MOL0     C51676  11.299   0.558  11.185  0.0266  0.6260  0.0405
  375MOL0     C51677  11.222   0.577  11.277  0.5488 -0.6520 -0.2652
  375MOL0     C51678  11.203   0.847  10.448  0.1295  0.4048 -0.5084
  375MOL0     C51679  11.221   0.866  10.315 -0.0269 -0.5082 -1.1513
  375MOL0     C51680  11.159   0.984  10.239  0.4410  0.3243  0.3307
  375MOL0     H51681  11.561   0.880   9.892  3.9443  1.2000 -4.8598
  375MOL0     H51682  11.572   0.905   9.650 -1.8331  1.0739  1.0011
  375MOL0     H51683  11.474   0.712   9.300  0.2996 -1.5375 -0.4186
  375MOL0     H51684  11.328   0.652   9.373 -0.3655  0.5217  1.6860
  375MOL0     H51685  11.470   0.521   9.535 -1.4463  1.8903 -0.9676
  375MOL0     H51686  11.499   0.471   9.373  0.2515  1.1267 -1.1161
  375MOL0     H51687  11.686   0.616   9.547 -0.4443 -1.0787  0.3819
  375MOL0     H51688  11.697   0.480   9.439  0.0877  0.7762 -1.7460
  375MOL0     H51689  11.678   0.632   9.242  0.6467 -1.0879  0.6221
  375MOL0     H51690  11.689   0.772   9.346 -2.0996  0.2961 -2.7315
  375MOL0     H51691  11.879   0.543   9.280  0.9245 -0.7184  1.1531
  375MOL0     H51692  11.915   0.624   9.428  2.1293  0.3270 -0.4144
  375MOL0     H51693  11.946   0.774   9.173  0.3955 -1.5484 -0.4148
  375MOL0     H51694  11.946   0.828   9.344  0.4435  1.7081 -1.9473
  375MOL0     H51695  12.137   0.607   9.222  0.7697 -1.4383  2.1664
  375MOL0     H51696  12.138   0.675   9.383  1.8212 -1.0766 -0.7716
  375MOL0     H51697  12.175   0.906   9.252  1.0651  0.7775 -3.9611
  375MOL0     H51698  12.314   0.792   9.257  0.2267 -0.3859 -1.5632
  375MOL0     H51699  12.062   0.926   9.018  1.8769  1.0147  2.3891
  375MOL0     H51700  12.240   1.021   8.740  0.8192 -1.0173 -1.2922
  375MOL0     H51701  12.081   0.957   8.773  0.7268  1.8373  1.3390
  375MOL0     H51702  12.305   0.811   8.619 -0.2183  0.7909 -2.3049
  375MOL0     H51703  12.144   0.736   8.655  1.1314 -1.0548  3.4729
  375MOL0     H51704  12.040   0.934   8.556  1.2328 -0.9343  5.9748
  375MOL0     H51705  12.188   1.005   8.495  0.2583 -0.7460 -0.6292
  375MOL0     H51706  12.219   0.770   8.362  0.2417  0.7043 -0.4790
  375MOL0     H51707  12.061   0.738   8.420 -0.7497 -0.4805  1.1438
  375MOL0     H51708  11.907   1.068   8.190 -1.2853  0.3066 -6.5561
  375MOL0     H51709  11.533   1.061   8.119 -2.1787 -0.0801  4.0163
  375MOL0     H51710  11.680   1.154   8.078 -1.9844  0.4550 -0.4112
  375MOL0     H51711  11.632   1.145   8.238 -3.7416  0.2610 -0.4053
  375MOL0     H51712  11.428   0.586   7.940 -2.8109  1.4725 -2.6923
  375MOL0     H51713  11.228   0.504   7.844  1.4178  1.9722  0.1663
  375MOL0     H51714  10.857   0.521   8.106 -0.9311 -0.8923 -0.1789
  375MOL0     H51715  10.827   0.386   7.999  1.4631 -1.5345 -1.8119
  375MOL0     H51716  10.959   0.368   8.261 -3.2268  1.3567  1.6947
  375MOL0     H51717  10.808   0.305   8.198 -0.8283  2.3407  0.5134
  375MOL0     H51718  11.081   0.219   8.104  0.5621 -2.3271  0.6532
  375MOL0     H51719  10.942   0.159   8.020  2.0628 -3.1248  0.2329
  375MOL0     H51720  10.852   0.035   8.210 -1.0926  1.4442 -2.6889
  375MOL0     H51721  10.988   0.076   8.316 -0.7673 -0.8190 -0.0261
  375MOL0     H51722  11.046  -0.052   8.043 -4.0553  0.0468 -0.9464
  375MOL0     H51723  11.151  -0.018   8.179 -0.2992  0.9361 -2.9454
  375MOL0     H51724  10.912  -0.192   8.220 -0.3325  0.9693  0.4759
  375MOL0     H51725  11.051  -0.179   8.331 -0.0478 -1.4403  0.1704
  375MOL0     H51726  11.109  -0.296   8.065  1.1348 -0.0245  1.2835
  375MOL0     H51727  11.001  -0.384   8.188 -1.5823  1.2824 -1.8568
  375MOL0     H51728  11.278  -0.281   8.240 -0.7356  0.9062  2.2242
  375MOL0     H51729  11.253  -0.444   8.198  3.8255  2.2186 -1.5408
  375MOL0     H51730  11.029   0.580   8.232 -1.5931  3.8326 -1.9427
  375MOL0     H51731  11.234   0.669   8.328  0.4678 -3.3072  1.9694
  375MOL0     H51732  11.711   0.617   8.176  1.1196 -0.5779  2.3693
  375MOL0     H51733  11.951   0.645   8.230  1.8719  0.7884 -0.3059
  375MOL0     H51734  11.253   0.651   9.578  0.2691  0.9461 -1.2465
  375MOL0     H51735  11.211   0.619   9.815 -2.4736  1.2687 -0.4742
  375MOL0     H51736  11.380   0.574  10.241  0.2058 -0.4362  1.3395
  375MOL0     H51737  11.345   0.542  10.477 -1.0911  0.1221 -1.0812
  375MOL0     H51738  11.170   0.562  10.685  0.9389 -1.0447 -0.6802
  375MOL0     H51739  11.339   0.555  10.715 -0.1392 -0.3368  3.4039
  375MOL0     H51740  11.174   0.550  10.898  0.0403  0.0683  2.9441
  375MOL0     H51741  11.182   0.733  10.892 -2.6616 -2.5865  1.6189
  375MOL0     H51742  11.454   0.657  10.903 -1.1021  0.7999  0.1116
  375MOL0     H51743  11.352   0.737  11.020 -2.7146  2.8925 -2.9439
  375MOL0     H51744  11.479   0.512  11.088  0.6748 -0.3965 -0.5353
  375MOL0     H51745  11.332   0.437  11.011  1.1793  0.4134  0.3985
  375MOL0     H51746  11.163   0.574  11.367  1.9927 -0.8772  0.7093
  375MOL0     H51747  11.138   0.904  10.515  0.0337 -0.9722  0.6038
  375MOL0     H51748  11.237   1.060  10.234  2.3450 -1.5582  0.2476
  375MOL0     H51749  11.142   0.961  10.134  0.8346  1.3169  0.0373
  375MOL0     H51750  11.065   1.013  10.287 -0.1452 -1.1343  0.1084
  376MOL0     O51751   9.826  10.376   3.604  0.4716  0.2175  0.2034
  376MOL0     C51752   9.859  10.388   3.716 -0.3923 -0.3827 -1.2379
  376MOL0     O51753   9.982  10.360   3.773 -0.3663  0.4059 -0.0756
  376MOL0     C51754  10.049  10.261   3.704  0.5413  0.0069 -0.8091
  376MOL0     C51755  10.080  10.140   3.773 -0.2130 -0.3068  0.1826
  376MOL0     C51756  10.153  10.044   3.712  0.1817  0.5898  1.1217
  376MOL0     C51757  10.213  10.066   3.591  0.1790  0.0982  0.4384
  376MOL0     O51758  10.299   9.961   3.562 -0.3883  0.4671 -0.7295
  376MOL0     C51759  10.401   9.994   3.469 -0.8544  0.6109 -0.4482
  376MOL0     C51760  10.522   9.899   3.489  0.1880 -0.4227  0.4242
  376MOL0     C51761  10.604   9.928   3.613  0.3253  0.1044  0.4580
  376MOL0     C51762  10.730   9.832   3.622  0.6972 -0.2586  0.0905
  376MOL0     C51763  10.809   9.846   3.752 -0.4866 -0.5978 -0.4715
  376MOL0     C51764  10.913   9.733   3.762 -0.6537 -0.3694  0.3764
  376MOL0     C51765  10.969   9.743   3.910 -0.7372 -0.0113 -0.0354
  376MOL0     C51766  11.099   9.666   3.928 -0.0882  0.0867 -0.7282
  376MOL0     N51767  11.134   9.660   4.071 -0.8097  0.2872  0.9299
  376MOL0     C51768  11.160   9.777   4.140 -0.0438  0.0986  0.0959
  376MOL0     C51769  11.171   9.725   4.263 -0.4890 -0.0531 -0.2458
  376MOL0     C51770  11.211   9.796   4.385 -0.5826  0.3032 -0.1640
  376MOL0     C51771  11.083   9.867   4.423 -0.5531 -0.5094  0.2450
  376MOL0     C51772  11.067   9.893   4.572  0.5681 -0.9301 -0.0490
  376MOL0     C51773  11.195   9.983   4.624  0.7230  1.0604  0.7471
  376MOL0     O51774  11.184  10.106   4.565  0.2138 -0.4553  0.3027
  376MOL0     C51775  11.107  10.207   4.614 -0.0025  0.5024 -1.4920
  376MOL0     C51776  11.010  10.267   4.525  0.3863 -0.0596 -0.5086
  376MOL0     C51777  10.910  10.351   4.557  0.0567 -0.5020  0.0548
  376MOL0     C51778  10.807  10.374   4.445 -0.3856 -0.9283  0.2496
  376MOL0     C51779  10.913  10.391   4.693 -0.0487 -0.7622 -0.0260
  376MOL0     C51780  10.804  10.476   4.749  0.9705 -0.1264  0.1068
  376MOL0     O51781  10.677  10.466   4.712  0.5370 -0.4534  0.2945
  376MOL0     C51782  10.598  10.570   4.678 -0.4851 -0.1653  0.1948
  376MOL0     C51783  10.488  10.529   4.599 -0.2903 -0.5285  0.0779
  376MOL0     C51784  10.402  10.625   4.554  0.6326  0.3819 -0.6624
  376MOL0     C51785  10.416  10.766   4.589 -0.4048 -1.5481  0.1949
  376MOL0     O51786  10.326  10.855   4.540  1.1278 -0.1069 -0.2166
  376MOL0     C51787  10.359  10.994   4.518 -0.6972  0.3399  0.0468
  376MOL0     C51788  10.233  11.070   4.444 -0.6186  0.4006 -0.8035
  376MOL0     C51789  10.266  11.217   4.415 -0.0031 -0.3690 -0.0412
  376MOL0     C51790  10.261  11.302   4.546  0.4668  0.1336 -0.9483
  376MOL0     C51791  10.333  11.437   4.536  0.4034 -0.7716  0.1021
  376MOL0     C51792  10.282  11.549   4.448  0.3377 -0.1280 -0.7483
  376MOL0     C51793  10.390  11.655   4.441 -0.8666  0.0929 -0.8632
  376MOL0     C51794  10.415  11.749   4.570  0.3282 -0.5236 -0.1364
  376MOL0    Cl51795  10.262  11.814   4.644  0.2634  0.4317  0.3480
  376MOL0     C51796  10.524  10.801   4.676 -1.8491 -0.3014 -0.1762
  376MOL0     C51797  10.609  10.702   4.723 -0.3120  0.2306 -1.0885
  376MOL0     O51798  10.838  10.563   4.826 -0.6788 -0.4844 -0.6213
  376MOL0     C51799  11.017  10.347   4.784 -0.0364  0.2489 -0.5027
  376MOL0     C51800  11.110  10.249   4.746 -0.1094 -0.1247 -0.5928
  376MOL0     N51801  11.154   9.593   4.260 -0.2143  0.6331 -0.7858
  376MOL0     N51802  11.123   9.557   4.148  0.4464  0.5047 -0.4030
  376MOL0     C51803  10.199  10.183   3.520  0.5136  0.2558 -0.1791
  376MOL0     C51804  10.115  10.274   3.581  0.8766 -0.3546 -0.2751
  376MOL0     C51805   9.759  10.444   3.801  0.0570  0.0011 -0.2492
  376MOL0     C51806   9.626  10.403   3.776 -0.6227 -0.1285 -1.6775
  376MOL0     C51807   9.522  10.444   3.862 -0.2297  0.1413 -0.5714
  376MOL0     C51808   9.542  10.534   3.970  0.2836 -0.3963 -0.1178
  376MOL0     O51809   9.438  10.594   4.038 -0.6223 -0.2303  0.0952
  376MOL0     C51810   9.301  10.553   4.034 -0.1682 -0.2970  0.5266
  376MOL0     C51811   9.220  10.618   3.923 -1.0607  0.1650 -0.2477
  376MOL0     C51812   9.088  10.557   3.875 -0.4098 -0.1525 -0.0388
  376MOL0     C51813   9.103  10.410   3.837 -0.8111 -0.6587  0.4407
  376MOL0     C51814   9.158  10.385   3.699 -0.2466 -0.0770 -0.6359
  376MOL0     C51815   9.188  10.369   3.583  0.5569 -0.3374 -0.6687
  376MOL0     C51816   9.677  10.573   3.988  0.2615 -0.0359  0.0960
  376MOL0     C51817   9.783  10.538   3.904  1.2449  0.2000  0.1094
  376MOL0     C51818   9.920  10.588   3.944 -0.7650  0.3650 -0.5338
  376MOL0     H51819  10.081  10.126   3.880  4.6131 -0.6198  0.2910
  376MOL0     H51820  10.179   9.947   3.752 -0.1175 -1.1312 -2.4520
  376MOL0     H51821  10.444  10.094   3.481  3.7696 -1.2393  0.6269
  376MOL0     H51822  10.366   9.977   3.367  2.3096  0.0924 -1.5806
  376MOL0     H51823  10.483   9.797   3.484  0.0485 -0.3717  0.4553
  376MOL0     H51824  10.588   9.917   3.403 -1.9336  2.0954 -0.8141
  376MOL0     H51825  10.650  10.027   3.616  7.2969 -2.5808  0.3841
  376MOL0     H51826  10.544   9.892   3.697  1.4051 -5.3892 -0.7053
  376MOL0     H51827  10.702   9.730   3.594  1.6474 -0.4162 -0.3106
  376MOL0     H51828  10.798   9.857   3.540 -0.2950 -0.7330 -0.9066
  376MOL0     H51829  10.747   9.849   3.842 -1.2577  3.0244 -0.9712
  376MOL0     H51830  10.859   9.942   3.767 -0.9135 -0.5982  1.0900
  376MOL0     H51831  10.875   9.635   3.731  0.1968  0.0964 -2.4168
  376MOL0     H51832  10.999   9.757   3.698  1.3758 -2.4322  2.1096
  376MOL0     H51833  10.889   9.704   3.973 -0.7689  0.4665  0.2211
  376MOL0     H51834  10.992   9.848   3.932 -1.2323 -0.2028  1.4790
  376MOL0     H51835  11.081   9.560   3.905 -5.0151  0.7579 -0.9278
  376MOL0     H51836  11.172   9.705   3.857 -1.0042  2.1918 -0.5814
  376MOL0     H51837  11.170   9.882   4.113 -0.2641  1.0260  3.2389
  376MOL0     H51838  11.294   9.864   4.362  2.7410 -3.7939 -1.5684
  376MOL0     H51839  11.253   9.734   4.464  1.2991  1.3216 -0.2925
  376MOL0     H51840  11.081   9.965   4.373  1.6922 -0.0877  0.8865
  376MOL0     H51841  10.994   9.812   4.390  0.1855 -1.1593 -0.7252
  376MOL0     H51842  10.973   9.944   4.594  0.4358 -0.1540 -2.1853
  376MOL0     H51843  11.071   9.800   4.631  2.0349  0.2193  1.8005
  376MOL0     H51844  11.193   9.985   4.733 -1.4860 -0.4741  0.8064
  376MOL0     H51845  11.282   9.928   4.584  0.7231  0.1713  1.9015
  376MOL0     H51846  11.014  10.233   4.421 -1.9277 -0.1371 -0.6254
  376MOL0     H51847  10.791  10.479   4.419  1.9656 -0.7512 -0.8115
  376MOL0     H51848  10.714  10.323   4.469 -0.2173  0.2535  4.0452
  376MOL0     H51849  10.837  10.326   4.351  1.8520 -0.4266  0.6514
  376MOL0     H51850  10.476  10.424   4.574  1.7406 -0.9057  0.5028
  376MOL0     H51851  10.308  10.605   4.504 -1.0809  4.1513  0.6474
  376MOL0     H51852  10.379  11.059   4.603  1.3120 -0.3321  0.1515
  376MOL0     H51853  10.444  10.993   4.449 -0.5562 -0.9572  0.2144
  376MOL0     H51854  10.205  11.023   4.350 -0.6547  3.2966 -2.3350
  376MOL0     H51855  10.155  11.078   4.521  1.8170 -1.5976  2.1101
  376MOL0     H51856  10.198  11.247   4.335 -0.6051  0.4610  0.7461
  376MOL0     H51857  10.364  11.226   4.368  1.9735  0.9779  3.8572
  376MOL0     H51858  10.310  11.242   4.623 -0.7998 -4.4765 -3.3271
  376MOL0     H51859  10.155  11.320   4.568  0.3234 -1.4039 -0.2012
  376MOL0     H51860  10.338  11.484   4.634 -1.9290 -1.7372  0.7530
  376MOL0     H51861  10.434  11.403   4.510 -0.9327 -3.2686 -2.4770
  376MOL0     H51862  10.191  11.598   4.484  1.6765  0.8693  1.4844
  376MOL0     H51863  10.263  11.517   4.345 -0.8101  1.2452 -1.0029
  376MOL0     H51864  10.359  11.721   4.359 -0.3315 -0.9323 -1.9269
  376MOL0     H51865  10.488  11.610   4.421 -0.4229  0.6121  0.0626
  376MOL0     H51866  10.477  11.837   4.552  1.2971 -1.3098 -0.7123
  376MOL0     H51867  10.472  11.681   4.635 -1.3204 -0.5069  1.4186
  376MOL0     H51868  10.547  10.905   4.698 -1.1047 -0.1911 -1.3653
  376MOL0     H51869  10.684  10.730   4.795 -0.1600 -2.0951 -0.2563
  376MOL0     H51870  11.021  10.398   4.880 -0.3229  2.1392 -1.4300
  376MOL0     H51871  11.181  10.212   4.819 -3.1708 -0.7168  2.3336
  376MOL0     H51872  10.232  10.221   3.423  2.1930  1.9891  0.9912
  376MOL0     H51873  10.086  10.364   3.528 -2.7164 -0.3223  1.4635
  376MOL0     H51874   9.585  10.364   3.683 -0.3283  0.1722 -1.9347
  376MOL0     H51875   9.420  10.413   3.843 -0.2529  0.8460 -1.6546
  376MOL0     H51876   9.290  10.444   4.034  0.7187 -0.4426  2.7908
  376MOL0     H51877   9.257  10.578   4.131  0.2630 -1.2297  0.9741
  376MOL0     H51878   9.282  10.626   3.833 -1.0998 -0.8066 -0.3659
  376MOL0     H51879   9.198  10.721   3.953 -0.9699 -0.5198  2.4303
  376MOL0     H51880   9.007  10.562   3.949 -0.6290  3.8292 -0.3650
  376MOL0     H51881   9.042  10.611   3.792 -1.7972  0.2047  0.9255
  376MOL0     H51882   9.004  10.365   3.828 -0.1951 -2.1754  0.8749
  376MOL0     H51883   9.161  10.355   3.912 -0.0380 -0.8335 -0.2772
  376MOL0     H51884   9.215  10.357   3.480 -1.7261 -0.2321 -1.3433
  376MOL0     H51885   9.693  10.652   4.060  0.4436 -1.6725  1.9685
  376MOL0     H51886   9.921  10.675   4.011  0.7964 -0.6928  0.8814
  376MOL0     H51887   9.969  10.507   3.997  0.6945  1.1749 -0.5912
  376MOL0     H51888   9.972  10.613   3.851 -1.6599  2.8762 -0.4522
  377MOL0     O51889   5.038  10.184   1.347 -1.5627  0.5560  0.3821
  377MOL0     C51890   5.056  10.296   1.299  1.3720  0.1322  0.0132
  377MOL0     O51891   5.135  10.390   1.356  0.4887 -0.2554  0.6896
  377MOL0     C51892   5.209  10.365   1.465 -0.6339 -0.0437 -0.7478
  377MOL0     C51893   5.332  10.305   1.445 -0.5203  0.7723  0.2240
  377MOL0     C51894   5.413  10.285   1.555  0.3275 -0.9687 -0.4766
  377MOL0     C51895   5.383  10.335   1.686 -0.1035 -0.4430  0.4537
  377MOL0     O51896   5.460  10.316   1.802 -0.2502 -0.9772 -0.1629
  377MOL0     C51897   5.605  10.295   1.781 -0.3276  0.3765  0.2337
  377MOL0     C51898   5.686  10.255   1.901 -0.2231  0.0819 -0.1688
  377MOL0     C51899   5.607  10.162   1.997  0.5654 -0.2589  0.0880
  377MOL0     C51900   5.701  10.108   2.100  0.4656  0.8622  0.2578
  377MOL0     C51901   5.641   9.999   2.189  0.9075 -0.3499 -0.0888
  377MOL0     C51902   5.666   9.856   2.147  0.4078 -0.2566 -0.1746
  377MOL0     C51903   5.616   9.763   2.259  0.4083  0.0538  0.5325
  377MOL0     C51904   5.662   9.621   2.241  0.1081 -0.3319  0.8879
  377MOL0     N51905   5.621   9.539   2.357 -0.1694  0.0882  0.0990
  377MOL0     C51906   5.509   9.551   2.426  0.1169 -0.2941  0.7439
  377MOL0     C51907   5.507   9.463   2.523  0.3364  0.7229 -0.3423
  377MOL0     C51908   5.409   9.427   2.627 -0.1834  0.2278  0.3711
  377MOL0     C51909   5.317   9.307   2.584  0.6497 -0.0841  0.3311
  377MOL0     C51910   5.232   9.251   2.707 -0.6467 -0.2006 -0.7316
  377MOL0     C51911   5.121   9.155   2.686 -0.5552 -0.5206  0.8463
  377MOL0     O51912   5.018   9.216   2.605 -0.5398  0.4777  0.4568
  377MOL0     C51913   5.006   9.182   2.475 -0.2585  0.4512 -0.7592
  377MOL0     C51914   5.115   9.110   2.408 -0.1694 -0.5133  0.5080
  377MOL0     C51915   5.087   9.050   2.292 -0.8872 -0.1503 -0.7720
  377MOL0     C51916   5.200   8.948   2.247 -0.7646  0.0497  0.6345
  377MOL0     C51917   4.973   9.069   2.213 -0.5513  0.0484 -0.4362
  377MOL0     C51918   4.946   9.007   2.081 -0.4408 -1.2430  0.2958
  377MOL0     O51919   4.815   8.980   2.044  0.2150 -0.4066  0.4727
  377MOL0     C51920   4.801   8.943   1.908 -1.1368  0.8350  0.1787
  377MOL0     C51921   4.833   9.035   1.803  0.1732 -0.4873 -0.6486
  377MOL0     C51922   4.815   8.999   1.671 -0.9286  0.7923  0.6782
  377MOL0     C51923   4.750   8.883   1.638  0.3414  0.2103 -0.2159
  377MOL0     O51924   4.719   8.859   1.503 -0.1667  0.1806 -0.0697
  377MOL0     C51925   4.581   8.860   1.473 -0.3360  0.3231  0.0781
  377MOL0     C51926   4.569   8.859   1.318 -0.5145 -0.4431 -0.6583
  377MOL0     C51927   4.424   8.879   1.303  0.2761 -0.4364  1.2407
  377MOL0     C51928   4.374   8.868   1.160 -1.2445 -0.0415 -0.7385
  377MOL0     C51929   4.226   8.886   1.140  0.4374 -0.0864  0.5333
  377MOL0     C51930   4.180   9.038   1.148  0.4550  0.6306 -0.5050
  377MOL0     C51931   4.093   9.084   1.267 -0.5905  0.0586  0.6887
  377MOL0     C51932   4.049   9.214   1.244 -0.0338 -0.8174  0.5074
  377MOL0    Cl51933   4.171   9.346   1.208  0.3390  0.1355  0.5339
  377MOL0     C51934   4.704   8.801   1.734 -0.2420 -0.5701 -0.3288
  377MOL0     C51935   4.740   8.817   1.870  0.2060 -0.7452 -0.3669
  377MOL0     O51936   5.052   8.996   2.010 -0.3726  0.4166 -0.1684
  377MOL0     C51937   4.877   9.147   2.277  1.1107 -0.5515  0.1394
  377MOL0     C51938   4.891   9.203   2.404  0.0953 -0.2956 -1.3375
  377MOL0     N51939   5.630   9.393   2.516 -0.0722 -1.1382 -0.5704
  377MOL0     N51940   5.694   9.439   2.413 -0.4266  0.5714 -0.0741
  377MOL0     C51941   5.263  10.411   1.699 -1.2855  0.0432 -0.9512
  377MOL0     C51942   5.180  10.424   1.590 -0.2747  0.2103  0.6202
  377MOL0     C51943   4.959  10.342   1.195 -0.0454 -1.1184  0.5110
  377MOL0     C51944   4.915  10.472   1.194  1.0101 -0.8570  0.2297
  377MOL0     C51945   4.827  10.522   1.090 -0.6313 -0.3776 -0.3710
  377MOL0     C51946   4.780  10.439   0.993  0.5469 -0.6419  0.7636
  377MOL0     O51947   4.703  10.484   0.890 -0.3941 -0.1239 -0.3985
  377MOL0     C51948   4.745  10.576   0.789 -0.6613 -0.5476  0.1488
  377MOL0     C51949   4.676  10.711   0.814  0.7374 -0.9529 -0.1158
  377MOL0     C51950   4.525  10.690   0.782  0.4130  0.1290  0.4915
  377MOL0     C51951   4.497  10.749   0.646  0.6735  0.8577 -0.2658
  377MOL0     C51952   4.573  10.694   0.530  0.4224 -0.0324 -0.7434
  377MOL0     C51953   4.641  10.651   0.443  0.1792 -0.2676 -1.2217
  377MOL0     C51954   4.824  10.310   0.987 -0.2714 -0.9031 -0.2081
  377MOL0     C51955   4.921  10.260   1.084  0.8044 -0.7990 -0.5154
  377MOL0     C51956   4.970  10.120   1.073 -0.2943 -0.1958  0.0309
  377MOL0     H51957   5.359  10.272   1.345  2.1881 -3.1408  1.9756
  377MOL0     H51958   5.510  10.243   1.531  1.1633  0.7558 -0.2784
  377MOL0     H51959   5.658  10.379   1.735  0.8788  1.0715  2.7448
  377MOL0     H51960   5.601  10.207   1.716  0.5504 -0.5968  1.4581
  377MOL0     H51961   5.774  10.201   1.864 -0.0817  1.1123 -1.4030
  377MOL0     H51962   5.724  10.331   1.970 -1.4928 -2.3852  3.5552
  377MOL0     H51963   5.523  10.215   2.043  0.4688 -1.7168  1.7104
  377MOL0     H51964   5.567  10.070   1.953  0.2213 -0.6647  1.1920
  377MOL0     H51965   5.792  10.060   2.060 -0.2418 -0.1048 -0.2468
  377MOL0     H51966   5.731  10.184   2.172 -1.5230  3.2369 -1.2693
  377MOL0     H51967   5.534  10.013   2.205  0.9589  1.0829 -0.8506
  377MOL0     H51968   5.697  10.006   2.282  0.0944  2.4965  0.2900
  377MOL0     H51969   5.629   9.832   2.047  1.8922  3.7538 -1.9162
  377MOL0     H51970   5.773   9.839   2.131 -0.0447 -3.0150 -0.7510
  377MOL0     H51971   5.507   9.762   2.255  0.3733 -2.7354 -1.7616
  377MOL0     H51972   5.659   9.797   2.354 -2.5948  1.1185  1.6223
  377MOL0     H51973   5.615   9.571   2.156 -0.3729 -1.6111  1.8785
  377MOL0     H51974   5.767   9.624   2.213 -0.2575 -0.7932 -0.6455
  377MOL0     H51975   5.434   9.627   2.408  0.1556 -0.2999  0.5573
  377MOL0     H51976   5.347   9.516   2.640 -0.4395 -0.0222  0.9115
  377MOL0     H51977   5.455   9.388   2.719 -2.2871 -1.3140  0.8343
  377MOL0     H51978   5.247   9.346   2.510 -0.8755  1.1447  2.3127
  377MOL0     H51979   5.377   9.229   2.536  2.1848  0.4693  1.2460
  377MOL0     H51980   5.296   9.209   2.786 -3.3830 -0.9197  1.2659
  377MOL0     H51981   5.178   9.337   2.747  0.9950  0.7498 -0.4732
  377MOL0     H51982   5.153   9.061   2.640 -0.1697 -1.4776  2.9119
  377MOL0     H51983   5.072   9.130   2.781 -1.9831 -3.3627 -0.5109
  377MOL0     H51984   5.211   9.097   2.457  0.6508  1.3681 -0.4978
  377MOL0     H51985   5.150   8.857   2.214 -1.0815  0.6500 -0.5897
  377MOL0     H51986   5.275   8.924   2.323  1.0000  4.7915  0.7277
  377MOL0     H51987   5.252   8.983   2.158  2.0465 -0.8934  1.7954
  377MOL0     H51988   4.868   9.134   1.828 -4.1231  0.5525  2.3350
  377MOL0     H51989   4.832   9.074   1.594  0.5400 -1.8974 -1.7655
  377MOL0     H51990   4.561   8.762   1.516  1.4508  0.8565  2.2819
  377MOL0     H51991   4.518   8.930   1.529 -1.5538  0.4690 -1.3906
  377MOL0     H51992   4.618   8.943   1.268 -0.7817 -0.5100 -1.0321
  377MOL0     H51993   4.603   8.765   1.275 -1.2678  0.2086 -2.7999
  377MOL0     H51994   4.401   8.974   1.353  0.3918  0.4072 -0.2275
  377MOL0     H51995   4.369   8.800   1.354  0.5830 -1.7435 -0.3835
  377MOL0     H51996   4.410   8.775   1.115  1.0669  0.3273  0.1929
  377MOL0     H51997   4.436   8.933   1.097  2.7480 -2.5772  0.2027
  377MOL0     H51998   4.205   8.844   1.041 -0.6792 -0.2239  0.8214
  377MOL0     H51999   4.177   8.835   1.223 -0.3651  0.9048  0.6881
  377MOL0     H52000   4.136   9.060   1.050 -0.4250  0.7341 -0.0998
  377MOL0     H52001   4.276   9.087   1.166  2.3539 -3.4749  1.9317
  377MOL0     H52002   4.154   9.079   1.359  0.9651 -0.1523 -0.3097
  377MOL0     H52003   4.012   9.011   1.279 -1.3674  1.0945  2.0765
  377MOL0     H52004   3.981   9.254   1.319 -1.3538 -1.5691 -0.2407
  377MOL0     H52005   3.973   9.212   1.165  1.5487  4.1335 -1.5161
  377MOL0     H52006   4.657   8.706   1.708  2.2801 -2.3675  1.2154
  377MOL0     H52007   4.719   8.747   1.950  0.6327  0.9302  1.2863
  377MOL0     H52008   4.780   9.166   2.232  0.3676 -3.1528  0.4894
  377MOL0     H52009   4.811   9.263   2.446  2.5813  2.8681 -0.7633
  377MOL0     H52010   5.251  10.451   1.799  1.6650 -0.2960 -0.3549
  377MOL0     H52011   5.096  10.493   1.591 -0.0101  0.6194 -1.6431
  377MOL0     H52012   4.951  10.556   1.253 -2.6945  0.0015  1.4982
  377MOL0     H52013   4.792  10.625   1.090  1.3165  0.3344 -0.5947
  377MOL0     H52014   4.850  10.601   0.803 -0.8736 -0.4588  1.8263
  377MOL0     H52015   4.732  10.526   0.693 -2.0923 -0.0442  0.0502
  377MOL0     H52016   4.733  10.783   0.755  1.1429  0.1633  1.5700
  377MOL0     H52017   4.689  10.744   0.918  1.6856  0.3226 -0.6056
  377MOL0     H52018   4.492  10.586   0.784  0.7074  0.0413  1.5995
  377MOL0     H52019   4.465  10.750   0.851  2.1760  0.7538  1.5522
  377MOL0     H52020   4.502  10.858   0.653  0.6784  0.9180 -1.1279
  377MOL0     H52021   4.393  10.721   0.627  1.4132 -3.0909  0.4685
  377MOL0     H52022   4.714  10.603   0.381 -0.1081 -2.2253 -0.1108
  377MOL0     H52023   4.784  10.252   0.904 -3.1217 -0.5449  0.8017
  377MOL0     H52024   5.054  10.101   1.140 -1.1164 -1.5191  0.7220
  377MOL0     H52025   4.891  10.064   1.124 -0.5571  3.0547  3.5756
  377MOL0     H52026   4.989  10.072   0.976  2.5739  2.2101 -0.7438
  378MOL0     O52027   4.630  10.452  10.073 -0.6127 -0.2617 -0.4586
  378MOL0     C52028   4.677  10.462   9.960 -0.0834 -1.0184 -0.2503
  378MOL0     O52029   4.642  10.390   9.856 -0.0414  0.1735 -0.8766
  378MOL0     C52030   4.571  10.274   9.877  0.2817 -0.1220  0.5753
  378MOL0     C52031   4.622  10.165   9.953 -0.9521  1.3366 -0.6046
  378MOL0     C52032   4.561  10.040   9.968 -0.3841  0.6754  0.2085
  378MOL0     C52033   4.433  10.031   9.926  0.3317  0.5063  0.3614
  378MOL0     O52034   4.348   9.933   9.967  0.0358  0.2059  0.0884
  378MOL0     C52035   4.383   9.798   9.929  0.6289 -0.2541 -0.0768
  378MOL0     C52036   4.431   9.729  10.057  0.1776  0.8939 -0.8877
  378MOL0     C52037   4.475   9.585  10.025 -0.6861  0.2559  0.3797
  378MOL0     C52038   4.627   9.573   9.994 -0.1250 -0.0875  1.1107
  378MOL0     C52039   4.727   9.557  10.107  0.2339  0.9626 -0.1617
  378MOL0     C52040   4.697   9.420  10.178  0.8349  0.3296  0.0223
  378MOL0     C52041   4.844   9.367  10.228 -0.0959 -0.6593 -0.3079
  378MOL0     C52042   4.831   9.231  10.294  0.5277  0.0051 -0.2800
  378MOL0     N52043   4.951   9.147  10.305  0.9699  0.1364 -0.0314
  378MOL0     C52044   5.076   9.202  10.334 -0.7264 -0.4932 -0.0112
  378MOL0     C52045   5.157   9.092  10.325  0.5693  0.5825  0.3094
  378MOL0     C52046   5.302   9.059  10.354  0.5844 -0.4216  0.8157
  378MOL0     C52047   5.346   9.119  10.487  0.1760 -0.0321 -0.5280
  378MOL0     C52048   5.276   9.050  10.615 -0.2873  0.0057 -0.1323
  378MOL0     C52049   5.256   9.149  10.732  0.4952  0.6624 -0.1154
  378MOL0     O52050   5.375   9.224  10.772 -0.0667  0.1234 -0.0145
  378MOL0     C52051   5.376   9.291  10.896  0.3806  0.5447 -0.3544
  378MOL0     C52052   5.454   9.261  11.000  0.2037  0.6594  1.0047
  378MOL0     C52053   5.482   9.344  11.110 -0.2955  0.4998  0.3440
  378MOL0     C52054   5.592   9.295  11.208 -0.1292 -0.4171  0.5722
  378MOL0     C52055   5.404   9.464  11.131 -0.1689  0.8823 -0.1313
  378MOL0     C52056   5.434   9.569  11.246 -0.2592  0.5377 -0.2182
  378MOL0     O52057   5.357   9.677  11.241  0.2068 -0.0630  0.1473
  378MOL0     C52058   5.356   9.755  11.360  0.1547  0.0275 -0.0713
  378MOL0     C52059   5.452   9.853  11.380  0.6636 -0.4826 -0.6773
  378MOL0     C52060   5.453   9.927  11.494  0.2174 -0.7438  0.1393
  378MOL0     C52061   5.368   9.912  11.604  0.5984  0.2005  1.3303
  378MOL0     O52062   5.391   9.998  11.707  0.1977 -0.5272 -0.2347
  378MOL0     C52063   5.297  10.026  11.815  0.5606  0.2129  1.4452
  378MOL0     C52064   5.349  10.142  11.902  0.7806 -0.0865  0.1692
  378MOL0     C52065   5.471  10.097  11.998  0.0140 -0.0644  0.6475
  378MOL0     C52066   5.527  10.219  12.065  0.1931  0.1539 -0.0067
  378MOL0     C52067   5.618  10.167  12.173 -0.5757 -1.0736 -0.9418
  378MOL0     C52068   5.651  10.276  12.275 -0.3983  0.0079  0.5382
  378MOL0     C52069   5.748  10.221  12.378 -0.5799 -0.1111 -0.1771
  378MOL0     C52070   5.812  10.329  12.469 -0.0860 -0.4699 -0.0577
  378MOL0    Cl52071   5.938  10.262  12.576  0.3818  0.0153  0.3397
  378MOL0     C52072   5.276   9.805  11.580 -0.3504  1.2020  0.8704
  378MOL0     C52073   5.265   9.737  11.458 -0.2379 -0.5045  0.2355
  378MOL0     O52074   5.515   9.539  11.330  0.4214  0.2497 -0.5722
  378MOL0     C52075   5.300   9.480  11.042 -0.2221  0.6787 -0.9706
  378MOL0     C52076   5.291   9.404  10.927  0.7444  0.7435 -0.1015
  378MOL0     N52077   5.083   8.989  10.280  0.2611  0.2912  0.4061
  378MOL0     N52078   4.959   9.017  10.276  0.3554 -0.2652  0.0751
  378MOL0     C52079   4.375  10.135   9.848  0.3004 -0.3506 -0.1922
  378MOL0     C52080   4.444  10.257   9.823  0.0934 -1.0458  0.3970
  378MOL0     C52081   4.753  10.588   9.938  0.4339  0.8550 -0.5299
  378MOL0     C52082   4.719  10.664   9.827  0.5632 -0.4707 -0.8037
  378MOL0     C52083   4.789  10.787   9.795 -0.5016  0.5250  0.6485
  378MOL0     C52084   4.882  10.835   9.887  0.4493  0.3063  1.0577
  378MOL0     O52085   4.941  10.951   9.846  0.3021 -0.4404  0.2599
  378MOL0     C52086   5.013  11.019   9.947 -0.4137 -0.3350 -0.1840
  378MOL0     C52087   5.048  11.155   9.874  0.4645  0.0383 -0.0021
  378MOL0     C52088   5.090  11.250   9.991 -1.2890 -0.7804  0.6685
  378MOL0     C52089   5.135  11.382   9.926  0.1800 -0.2553  0.2075
  378MOL0     C52090   5.047  11.464   9.841  0.3625 -0.3741  0.0223
  378MOL0     C52091   4.982  11.553   9.783  0.0793  0.5973 -0.4028
  378MOL0     C52092   4.921  10.751   9.993  0.1413 -0.4695  0.3517
  378MOL0     C52093   4.853  10.631  10.022 -0.8174  0.6120  0.3872
  378MOL0     C52094   4.906  10.565  10.149  1.0908  0.2615  0.1170
  378MOL0     H52095   4.722  10.190   9.988 -0.7609  2.9912 -2.2190
  378MOL0     H52096   4.617   9.965  10.023 -1.8906 -0.2853  0.4975
  378MOL0     H52097   4.456   9.787   9.848  2.1207  0.5885  1.0974
  378MOL0     H52098   4.296   9.743   9.891  0.0059  2.3151 -2.6997
  378MOL0     H52099   4.519   9.785  10.091  1.4427 -0.6271 -1.5364
  378MOL0     H52100   4.349   9.718  10.128  0.9381  0.2558 -0.0840
  378MOL0     H52101   4.446   9.521  10.109  0.3348  0.8897  1.2312
  378MOL0     H52102   4.431   9.562   9.927  3.7467  1.0183 -2.0269
  378MOL0     H52103   4.641   9.501   9.913  0.9773 -0.1759  1.3621
  378MOL0     H52104   4.656   9.671   9.955 -1.5795  0.3389  1.0337
  378MOL0     H52105   4.740   9.630  10.187  0.2713  0.9687 -0.1748
  378MOL0     H52106   4.826   9.565  10.062  1.1736  1.0485  1.8163
  378MOL0     H52107   4.631   9.449  10.260 -0.3693  2.6770 -1.6705
  378MOL0     H52108   4.643   9.351  10.113  0.6376  1.0431 -0.5857
  378MOL0     H52109   4.892   9.446  10.287 -1.3868  0.9460 -1.3357
  378MOL0     H52110   4.914   9.360  10.143  0.8067  0.7373  0.2780
  378MOL0     H52111   4.797   9.257  10.394  0.1907  2.3821 -0.9491
  378MOL0     H52112   4.758   9.167  10.243  0.2528 -0.2158  0.3857
  378MOL0     H52113   5.112   9.296  10.373  2.2585 -1.6290  0.1816
  378MOL0     H52114   5.370   9.099  10.278  2.6324 -0.6811  2.3997
  378MOL0     H52115   5.308   8.950  10.360 -2.3626 -0.7544 -0.7546
  378MOL0     H52116   5.454   9.103  10.494  0.5034  1.6771 -1.1303
  378MOL0     H52117   5.323   9.226  10.489 -3.5507 -0.6721 -1.1893
  378MOL0     H52118   5.178   9.013  10.583 -0.1254 -2.7540  2.2286
  378MOL0     H52119   5.348   8.972  10.637 -0.0092  0.4104  0.4087
  378MOL0     H52120   5.187   9.222  10.688  0.5134  2.4707  2.6003
  378MOL0     H52121   5.215   9.100  10.820 -0.7766 -0.9520 -1.5528
  378MOL0     H52122   5.511   9.171  10.977  0.7709  1.1237  0.5860
  378MOL0     H52123   5.669   9.369  11.233  3.2498 -3.6009  0.5375
  378MOL0     H52124   5.653   9.213  11.169 -0.8404 -1.1222  0.9226
  378MOL0     H52125   5.541   9.245  11.290  1.0110 -1.3723  0.7249
  378MOL0     H52126   5.525   9.887  11.308  1.9316  0.8441  1.1401
  378MOL0     H52127   5.521  10.011  11.494 -0.9756  0.3080  1.9591
  378MOL0     H52128   5.202  10.050  11.767  1.5467  0.3194 -0.5514
  378MOL0     H52129   5.291   9.937  11.878  3.5829  0.6336  2.4723
  378MOL0     H52130   5.386  10.218  11.833 -1.0446  1.2386  0.5836
  378MOL0     H52131   5.268  10.192  11.955  0.0273  0.8461 -1.7632
  378MOL0     H52132   5.553  10.040  11.953  0.3650 -0.4451  1.7376
  378MOL0     H52133   5.424  10.030  12.069  0.6226  1.6073  2.7405
  378MOL0     H52134   5.447  10.280  12.108 -1.4894 -2.2267  0.4036
  378MOL0     H52135   5.573  10.292  11.997  1.7934  1.2356  2.1223
  378MOL0     H52136   5.560  10.090  12.226 -2.9590 -0.9479 -3.1643
  378MOL0     H52137   5.711  10.120  12.140  0.7893  0.2025  0.8864
  378MOL0     H52138   5.558  10.316  12.314 -0.9923 -0.7405 -0.0677
  378MOL0     H52139   5.707  10.353  12.221  0.8521 -0.4824  1.0869
  378MOL0     H52140   5.834  10.177  12.327 -0.1414 -0.9229  1.2065
  378MOL0     H52141   5.690  10.155  12.443 -2.4515 -2.2277 -3.6682
  378MOL0     H52142   5.742  10.371  12.542  0.4749  1.5343 -0.6005
  378MOL0     H52143   5.851  10.403  12.398 -0.7556 -0.0172  0.0362
  378MOL0     H52144   5.194   9.798  11.651 -0.3658  2.1938  0.9599
  378MOL0     H52145   5.188   9.664  11.437 -1.6555  1.2976 -1.1247
  378MOL0     H52146   5.227   9.558  11.060  0.4221  1.0632  0.1494
  378MOL0     H52147   5.197   9.425  10.875 -0.7645  2.2805  2.9671
  378MOL0     H52148   4.272  10.121   9.817  0.2331  2.9715 -1.9285
  378MOL0     H52149   4.399  10.344   9.776  0.4595  0.9285  3.4302
  378MOL0     H52150   4.638  10.626   9.765  1.9747 -0.7252 -2.5913
  378MOL0     H52151   4.782  10.836   9.699  0.1211 -0.8041 -0.0989
  378MOL0     H52152   4.949  11.037  10.034 -1.8486 -2.1083 -0.8242
  378MOL0     H52153   5.103  10.970   9.985 -0.3371 -0.3583 -0.3933
  378MOL0     H52154   4.969  11.196   9.811  0.2249  1.1796  0.9896
  378MOL0     H52155   5.128  11.128   9.804 -2.4614 -0.5829 -3.3781
  378MOL0     H52156   5.007  11.264  10.061  0.6802 -1.9389  3.4603
  378MOL0     H52157   5.182  11.208  10.033  0.6640 -1.8046 -4.0157
  378MOL0     H52158   5.227  11.352   9.875  1.0454  3.2085 -0.5254
  378MOL0     H52159   5.152  11.458  10.003 -3.1357  0.1809  0.6864
  378MOL0     H52160   4.933  11.627   9.723  0.0642  0.2541 -0.8146
  378MOL0     H52161   5.009  10.777  10.051  1.1567  2.6529 -2.2371
  378MOL0     H52162   4.926  10.637  10.229  1.9845 -0.6656  0.7551
  378MOL0     H52163   4.840  10.489  10.192  2.5828 -0.9575  0.3485
  378MOL0     H52164   4.987  10.499  10.118  1.2193 -0.8684  2.5680
  379MOL0     O52165   0.527   0.368   0.161 -0.5171 -0.7329 -0.0901
  379MOL0     C52166   0.582   0.469   0.211 -0.6227  0.8943  0.5867
  379MOL0     O52167   0.707   0.470   0.272 -0.1330 -0.9983  0.4182
  379MOL0     C52168   0.794   0.369   0.241  0.2226 -0.1189 -1.4957
  379MOL0     C52169   0.817   0.321   0.108  0.0033 -0.0912 -0.4542
  379MOL0     C52170   0.896   0.216   0.077 -0.5492 -0.5436  0.4710
  379MOL0     C52171   0.987   0.174   0.175  0.2458  0.3079  0.3008
  379MOL0     O52172   1.079   0.073   0.144 -0.7113  0.2404  0.0056
  379MOL0     C52173   1.037  -0.057   0.124 -0.5430 -0.4606  0.1917
  379MOL0     C52174   1.159  -0.155   0.124 -0.2706  0.5366 -0.0346
  379MOL0     C52175   1.251  -0.161  -0.007 -0.0299 -0.0219  1.1399
  379MOL0     C52176   1.180  -0.250  -0.118  0.1881  0.1884  0.1592
  379MOL0     C52177   1.273  -0.264  -0.237 -0.2626 -0.2098  0.4897
  379MOL0     C52178   1.183  -0.325  -0.350 -0.3833  0.2821  0.3898
  379MOL0     C52179   1.269  -0.406  -0.451  0.2036  0.8303  0.3885
  379MOL0     C52180   1.206  -0.449  -0.584  0.0221 -0.3928 -0.2214
  379MOL0     N52181   1.303  -0.544  -0.653 -0.5114 -0.7141  0.0709
  379MOL0     C52182   1.347  -0.667  -0.616 -0.1179  0.4290  0.0455
  379MOL0     C52183   1.461  -0.688  -0.689  0.8668  0.1272 -0.0989
  379MOL0     C52184   1.531  -0.824  -0.695 -0.0202  0.3881  0.3110
  379MOL0     C52185   1.450  -0.948  -0.702  0.5820  1.2263  1.1308
  379MOL0     C52186   1.325  -0.953  -0.796 -0.2480  0.2886 -0.9428
  379MOL0     C52187   1.364  -0.926  -0.936 -0.0376  0.3960 -0.1127
  379MOL0     O52188   1.252  -0.882  -1.032 -0.3219  0.1786  0.3690
  379MOL0     C52189   1.197  -0.770  -0.999  0.6575  0.8857  0.5440
  379MOL0     C52190   1.066  -0.771  -0.950 -0.0760  0.6653 -0.7651
  379MOL0     C52191   0.989  -0.659  -0.934 -0.7588 -0.6545  0.5722
  379MOL0     C52192   0.836  -0.678  -0.912 -0.0331  0.8539 -0.3301
  379MOL0     C52193   1.048  -0.532  -0.965 -0.3884 -0.1524  0.1577
  379MOL0     C52194   0.989  -0.394  -0.935 -0.4073 -0.4091  0.4833
  379MOL0     O52195   1.082  -0.293  -0.885 -0.0621 -0.2306  0.5151
  379MOL0     C52196   1.061  -0.156  -0.878  0.5541  1.1033 -0.3543
  379MOL0     C52197   1.172  -0.091  -0.833  0.8427  0.2090  0.4775
  379MOL0     C52198   1.156   0.046  -0.797 -0.4523  0.5083 -0.8423
  379MOL0     C52199   1.031   0.109  -0.808  0.2649  0.1681 -0.0031
  379MOL0     O52200   1.018   0.239  -0.774  0.1650 -0.1653 -0.2934
  379MOL0     C52201   1.131   0.323  -0.783  0.3698  0.4715 -0.9422
  379MOL0     C52202   1.092   0.470  -0.772  0.5033  0.1876  0.3134
  379MOL0     C52203   1.030   0.479  -0.633 -0.4164  0.6174 -0.9190
  379MOL0     C52204   0.921   0.580  -0.619 -0.6998 -0.6175 -0.0814
  379MOL0     C52205   0.872   0.602  -0.474  0.7441 -0.0757 -0.3109
  379MOL0     C52206   0.965   0.662  -0.369 -0.3076  0.0197  0.1230
  379MOL0     C52207   0.973   0.811  -0.384 -0.1356  1.2525  0.4206
  379MOL0     C52208   1.062   0.886  -0.286  0.5030  1.1511  0.0661
  379MOL0    Cl52209   1.120   1.045  -0.351 -0.0013 -0.3157  0.1548
  379MOL0     C52210   0.919   0.039  -0.853 -0.2854  0.0163  0.5901
  379MOL0     C52211   0.939  -0.091  -0.893  1.0976  0.4567  0.9602
  379MOL0     O52212   0.866  -0.373  -0.949 -0.2417  0.1804  0.2002
  379MOL0     C52213   1.189  -0.538  -1.009  1.0143 -0.2585 -0.2269
  379MOL0     C52214   1.267  -0.651  -1.012 -0.4626  0.1121  0.0897
  379MOL0     N52215   1.481  -0.578  -0.765 -0.5115 -0.3155  0.4099
  379MOL0     N52216   1.393  -0.490  -0.739  0.5811 -0.6091 -0.0691
  379MOL0     C52217   0.991   0.240   0.305  0.2745 -0.8370  1.5393
  379MOL0     C52218   0.890   0.332   0.333  0.7151 -0.2904 -0.6006
  379MOL0     C52219   0.497   0.587   0.224  1.0987 -0.3348 -0.0186
  379MOL0     C52220   0.407   0.630   0.117 -0.0810 -1.0516  0.2432
  379MOL0     C52221   0.323   0.738   0.136  0.0888 -0.0629 -0.1250
  379MOL0     C52222   0.320   0.818   0.246  0.3043  0.2651 -0.2208
  379MOL0     O52223   0.265   0.946   0.243  0.2606  1.1798 -0.9174
  379MOL0     C52224   0.194   0.982   0.357  0.1562 -0.3841 -0.1222
  379MOL0     C52225   0.094   0.874   0.419 -0.9358 -0.3739  0.1493
  379MOL0     C52226  -0.025   0.939   0.501 -0.0625 -0.2488  0.1706
  379MOL0     C52227  -0.124   0.832   0.541 -0.8350  0.7045  0.4038
  379MOL0     C52228  -0.108   0.762   0.665  0.1949  0.5452 -0.9007
  379MOL0     C52229  -0.077   0.711   0.772  0.9978  0.3394  0.0886
  379MOL0     C52230   0.416   0.794   0.344  0.3788 -0.5628 -0.0854
  379MOL0     C52231   0.505   0.677   0.331  0.2093 -0.9016 -0.4161
  379MOL0     C52232   0.611   0.672   0.447  0.0326 -0.3115 -0.0802
  379MOL0     H52233   0.761   0.362   0.025  3.8321  0.9037 -2.7716
  379MOL0     H52234   0.885   0.186  -0.026 -0.8201 -0.6475  0.5286
  379MOL0     H52235   0.983  -0.062   0.029  0.9305  2.3569 -0.9149
  379MOL0     H52236   0.960  -0.072   0.201 -0.9653 -0.7016 -0.2712
  379MOL0     H52237   1.228  -0.106   0.194 -3.0499  1.6399  2.1200
  379MOL0     H52238   1.127  -0.257   0.145 -0.0664  0.8947  2.2910
  379MOL0     H52239   1.264  -0.061  -0.050  0.6933 -0.7719 -0.4603
  379MOL0     H52240   1.348  -0.206   0.015  0.1577  1.0352  2.6013
  379MOL0     H52241   1.150  -0.353  -0.096  0.1689  0.4501  1.4647
  379MOL0     H52242   1.095  -0.189  -0.148  2.0769  4.1272  2.0774
  379MOL0     H52243   1.361  -0.321  -0.207 -1.7183 -3.2606 -0.5446
  379MOL0     H52244   1.322  -0.171  -0.267  2.2391 -1.3291  0.8021
  379MOL0     H52245   1.095  -0.381  -0.320 -4.7981  5.2330 -1.7578
  379MOL0     H52246   1.151  -0.236  -0.405  3.4098  0.1537 -2.4406
  379MOL0     H52247   1.300  -0.498  -0.401  1.7042  0.5481 -0.9551
  379MOL0     H52248   1.355  -0.348  -0.488 -0.6940  0.4019 -2.7087
  379MOL0     H52249   1.108  -0.494  -0.567  0.0292  0.4370  2.3809
  379MOL0     H52250   1.184  -0.363  -0.647 -4.0663 -0.4420  0.8808
  379MOL0     H52251   1.293  -0.731  -0.546 -0.7661  1.3371  0.3929
  379MOL0     H52252   1.593  -0.828  -0.605 -0.0494  0.5428  0.3397
  379MOL0     H52253   1.596  -0.827  -0.783  1.1491  0.3393  1.1432
  379MOL0     H52254   1.509  -1.036  -0.729  1.1795  1.9653 -0.0485
  379MOL0     H52255   1.400  -0.961  -0.605 -2.3339 -1.4952 -0.5347
  379MOL0     H52256   1.283  -1.054  -0.791 -1.4633  0.8089 -0.1981
  379MOL0     H52257   1.245  -0.885  -0.765  1.8904  1.9304  1.4472
  379MOL0     H52258   1.445  -0.852  -0.942  1.1401 -0.8515 -0.0037
  379MOL0     H52259   1.416  -1.013  -0.978  2.0477  0.0761  2.8711
  379MOL0     H52260   1.029  -0.870  -0.926 -1.6380  1.7495  1.7711
  379MOL0     H52261   0.780  -0.586  -0.891  0.3779  1.2402 -0.9048
  379MOL0     H52262   0.818  -0.733  -0.819 -1.0605  0.7114 -0.6050
  379MOL0     H52263   0.788  -0.731  -0.995 -0.6649 -0.4204  0.8109
  379MOL0     H52264   1.264  -0.147  -0.821  1.0415 -0.1586 -2.2390
  379MOL0     H52265   1.253   0.089  -0.772 -0.4279 -0.1984  0.3559
  379MOL0     H52266   1.198   0.300  -0.699  0.4094 -1.6290 -1.4968
  379MOL0     H52267   1.183   0.301  -0.876  0.7988  0.8508 -0.7952
  379MOL0     H52268   1.171   0.546  -0.778  0.5906  0.0763  0.0291
  379MOL0     H52269   1.016   0.492  -0.848  1.8114  2.9353 -0.3386
  379MOL0     H52270   1.111   0.514  -0.569  0.9488  3.6910 -3.9758
  379MOL0     H52271   0.989   0.386  -0.594 -1.8480  1.6649  0.1862
  379MOL0     H52272   0.833   0.543  -0.672 -1.1938 -0.1595  0.4077
  379MOL0     H52273   0.944   0.678  -0.662 -0.9517 -0.6526 -0.2988
  379MOL0     H52274   0.790   0.673  -0.475  1.7211  1.2493  2.4323
  379MOL0     H52275   0.850   0.502  -0.434 -2.2491  0.5644 -0.1178
  379MOL0     H52276   1.063   0.618  -0.386 -0.9421 -0.5527 -2.4338
  379MOL0     H52277   0.926   0.635  -0.270 -2.6498  0.6566 -0.5537
  379MOL0     H52278   0.871   0.851  -0.373 -1.0207 -0.7487 -0.1297
  379MOL0     H52279   1.011   0.828  -0.485  0.4464  2.6058  0.8488
  379MOL0     H52280   1.140   0.816  -0.256 -0.6516  1.1576  3.5238
  379MOL0     H52281   0.996   0.908  -0.201  0.8490 -2.5746  1.4908
  379MOL0     H52282   0.820   0.082  -0.863 -0.6080 -0.8042  0.1165
  379MOL0     H52283   0.848  -0.139  -0.930  1.2034  0.3500  0.8340
  379MOL0     H52284   1.251  -0.450  -1.021 -0.8900  0.9623 -1.7031
  379MOL0     H52285   1.375  -0.647  -1.027 -0.2891 -0.3055  1.1750
  379MOL0     H52286   1.058   0.215   0.386  1.6600 -1.3654  0.2729
  379MOL0     H52287   0.899   0.372   0.434 -2.4361 -0.1883 -0.2529
  379MOL0     H52288   0.389   0.580   0.023  0.2949  0.2664 -0.5448
  379MOL0     H52289   0.247   0.762   0.062  3.5682  4.1319 -2.8342
  379MOL0     H52290   0.255   1.035   0.430 -2.5281  0.7100  1.4782
  379MOL0     H52291   0.127   1.067   0.335  0.4198  1.0151  3.6664
  379MOL0     H52292   0.143   0.802   0.486 -1.0714  0.6798  1.4403
  379MOL0     H52293   0.046   0.818   0.339  0.8728  1.0806 -2.0798
  379MOL0     H52294   0.007   1.005   0.582  1.3850 -1.8162  0.9518
  379MOL0     H52295  -0.082   1.007   0.437  2.1111  2.6494  1.1007
  379MOL0     H52296  -0.138   0.761   0.458  0.5771  1.4455 -0.4915
  379MOL0     H52297  -0.221   0.883   0.538 -0.7804  0.8807  1.2929
  379MOL0     H52298  -0.029   0.663   0.855  1.1253  0.1396 -0.1006
  379MOL0     H52299   0.420   0.852   0.436 -3.0915 -1.4697  0.8130
  379MOL0     H52300   0.709   0.680   0.398 -0.8233 -2.7367 -2.4126
  379MOL0     H52301   0.591   0.764   0.502  2.6425  0.1154  0.3016
  379MOL0     H52302   0.598   0.578   0.500 -1.4667  0.8032  1.6427
  380MOL0     O52303   3.220   0.304  10.011  0.4297  0.7483  0.6804
  380MOL0     C52304   3.219   0.340   9.896 -0.1098  0.2078  0.6248
  380MOL0     O52305   3.210   0.255   9.798 -0.0102 -0.6390  0.1876
  380MOL0     C52306   3.172   0.126   9.812  0.5714 -0.3734  0.6746
  380MOL0     C52307   3.229   0.040   9.900 -0.2952 -0.3818  0.9352
  380MOL0     C52308   3.187  -0.093   9.910 -0.0904 -1.4076  0.6183
  380MOL0     C52309   3.071  -0.145   9.832 -0.1799 -0.4031  0.5302
  380MOL0     O52310   3.035  -0.277   9.826  0.4921 -0.1066  0.1767
  380MOL0     C52311   3.140  -0.371   9.864 -0.6006  0.4444 -0.1894
  380MOL0     C52312   3.097  -0.512   9.872  0.0205  0.4806  1.1101
  380MOL0     C52313   3.037  -0.541   9.732  0.2717 -0.1091 -0.1339
  380MOL0     C52314   2.991  -0.692   9.725 -0.1264  0.0019  0.5275
  380MOL0     C52315   2.875  -0.733   9.631 -0.3559 -0.0185  0.5575
  380MOL0     C52316   2.920  -0.704   9.483  0.1120  0.7833 -0.4724
  380MOL0     C52317   3.007  -0.818   9.426 -0.0436 -0.5673 -0.2475
  380MOL0     C52318   2.949  -0.964   9.436  0.5829 -0.4276  0.8091
  380MOL0     N52319   3.041  -1.036   9.337  0.0775 -0.1905 -0.4904
  380MOL0     C52320   3.001  -1.082   9.220 -0.6529  0.4410 -0.0769
  380MOL0     C52321   3.119  -1.128   9.167 -0.5623 -0.6675 -0.4450
  380MOL0     C52322   3.147  -1.181   9.023 -0.5816 -0.4571 -0.0447
  380MOL0     C52323   3.139  -1.339   9.022  0.2469  0.6824  0.1922
  380MOL0     C52324   3.102  -1.371   8.873 -0.6952 -0.0030 -0.5139
  380MOL0     C52325   3.209  -1.344   8.771 -0.2171 -0.1509 -0.6538
  380MOL0     O52326   3.244  -1.199   8.748 -0.2086  0.1630  0.1221
  380MOL0     C52327   3.230  -1.147   8.619  1.1233  0.3231 -0.3393
  380MOL0     C52328   3.173  -1.019   8.602  0.1087 -0.4484  0.2985
  380MOL0     C52329   3.149  -0.963   8.469  0.3461  1.0466  0.6760
  380MOL0     C52330   3.081  -0.828   8.454 -0.3417  0.4114  0.6841
  380MOL0     C52331   3.166  -1.044   8.353  0.5332 -0.2307  0.8287
  380MOL0     C52332   3.149  -0.993   8.220  0.5612 -0.3874  0.0788
  380MOL0     O52333   3.052  -1.054   8.135  0.8638 -0.5743 -0.0537
  380MOL0     C52334   3.057  -1.041   7.996 -0.0569  0.5883 -0.3109
  380MOL0     C52335   3.180  -1.061   7.923  0.2926  1.0438 -0.2571
  380MOL0     C52336   3.187  -1.043   7.786  0.2878  0.5617  0.5636
  380MOL0     C52337   3.078  -0.992   7.711 -0.9259 -0.0432  1.4331
  380MOL0     O52338   3.087  -0.968   7.574 -1.0765 -0.1381  0.5294
  380MOL0     C52339   3.187  -1.029   7.493  0.4005  0.7309  0.2429
  380MOL0     C52340   3.140  -1.059   7.355 -0.1324  0.6833  0.3004
  380MOL0     C52341   3.165  -0.937   7.263 -0.1201  0.1200  0.1824
  380MOL0     C52342   3.088  -0.967   7.128  0.4548  0.2370  0.8165
  380MOL0     C52343   3.119  -0.860   7.028  0.7865 -0.2661  0.6502
  380MOL0     C52344   3.052  -0.894   6.896 -0.4717 -1.0184  0.6034
  380MOL0     C52345   3.089  -0.779   6.797  0.1511  0.2841 -0.0289
  380MOL0     C52346   3.037  -0.801   6.654  0.4430  0.3870  0.2496
  380MOL0    Cl52347   2.865  -0.807   6.636 -0.1127 -0.4488 -0.0381
  380MOL0     C52348   2.961  -0.955   7.784 -0.0617  0.2447 -0.8355
  380MOL0     C52349   2.948  -0.982   7.930  0.1074 -0.1402  0.3086
  380MOL0     O52350   3.218  -0.893   8.198  0.6525  0.1394  0.1017
  380MOL0     C52351   3.226  -1.171   8.370 -0.0916  0.5007  0.2427
  380MOL0     C52352   3.266  -1.216   8.501  0.5787  0.1227  0.2097
  380MOL0     N52353   3.222  -1.098   9.254  0.6105 -0.1657  0.4456
  380MOL0     N52354   3.175  -1.050   9.362 -0.2932 -0.4072  0.3655
  380MOL0     C52355   3.010  -0.047   9.745  0.2760 -1.2725 -0.2386
  380MOL0     C52356   3.059   0.085   9.738 -0.1828 -0.6524  0.0780
  380MOL0     C52357   3.247   0.477   9.868 -0.7031 -1.1820 -1.3201
  380MOL0     C52358   3.311   0.496   9.746 -1.7813 -1.0651  0.2326
  380MOL0     C52359   3.358   0.622   9.705  0.4421  0.7943 -0.0680
  380MOL0     C52360   3.327   0.740   9.780  0.3939  0.6890  1.3057
  380MOL0     O52361   3.369   0.854   9.724 -1.4217 -1.0480  0.3104
  380MOL0     C52362   3.356   0.978   9.797  0.3258  0.2360 -0.6345
  380MOL0     C52363   3.442   0.978   9.930  0.6250  0.1964 -0.3297
  380MOL0     C52364   3.410   1.112  10.010 -0.6030  0.4389 -0.5466
  380MOL0     C52365   3.460   1.106  10.155 -0.9179 -0.3652 -0.1493
  380MOL0     C52366   3.424   1.227  10.226 -0.7087 -1.0484 -1.0192
  380MOL0     C52367   3.387   1.335  10.274  0.0784  0.1252  0.4886
  380MOL0     C52368   3.248   0.718   9.889 -0.1714 -0.3452  0.6412
  380MOL0     C52369   3.214   0.593   9.942  0.0702 -0.0964  0.7684
  380MOL0     C52370   3.138   0.583  10.065  0.7151 -0.9263 -0.0044
  380MOL0     H52371   3.324   0.068   9.946  0.2140  0.0170 -0.3154
  380MOL0     H52372   3.251  -0.151   9.975  0.0956  0.5586  2.2892
  380MOL0     H52373   3.171  -0.348   9.966 -1.0557 -1.7161  0.4734
  380MOL0     H52374   3.222  -0.363   9.792  0.6216 -2.7815  0.7150
  380MOL0     H52375   3.179  -0.578   9.899 -0.3147  0.0964  1.1980
  380MOL0     H52376   3.015  -0.534   9.942  1.8467 -1.9411  2.6340
  380MOL0     H52377   2.952  -0.477   9.707  0.2119 -0.1636 -0.0717
  380MOL0     H52378   3.107  -0.525   9.650 -1.7626 -2.0087 -2.3946
  380MOL0     H52379   3.071  -0.765   9.709 -0.2913  0.0970 -0.9100
  380MOL0     H52380   2.959  -0.715   9.827  1.6489 -0.8670  0.9308
  380MOL0     H52381   2.791  -0.667   9.654 -0.5245 -1.5755  5.5698
  380MOL0     H52382   2.856  -0.841   9.639  1.6976 -0.9333 -3.9619
  380MOL0     H52383   2.833  -0.696   9.417  0.6946 -3.3713 -2.0532
  380MOL0     H52384   2.984  -0.615   9.483  0.9073  0.2414 -1.9264
  380MOL0     H52385   3.092  -0.836   9.492 -0.8576 -1.1122  0.6772
  380MOL0     H52386   3.037  -0.793   9.324 -2.3066 -1.6290 -1.2391
  380MOL0     H52387   2.952  -1.002   9.539  1.7507 -2.0579  0.2154
  380MOL0     H52388   2.848  -0.953   9.397  0.2459  1.1422  2.0401
  380MOL0     H52389   2.901  -1.084   9.177 -0.1070 -2.7389 -1.4879
  380MOL0     H52390   3.249  -1.148   9.006  0.5054 -2.3973  2.1402
  380MOL0     H52391   3.080  -1.135   8.949 -0.1835  1.0717  0.5218
  380MOL0     H52392   3.234  -1.382   9.054 -0.0390 -0.7157 -0.7877
  380MOL0     H52393   3.056  -1.363   9.088  1.9798 -0.2969  2.1561
  380MOL0     H52394   3.077  -1.477   8.864 -1.7925  0.3073 -1.3373
  380MOL0     H52395   3.013  -1.314   8.845  0.9657  2.7327 -0.6028
  380MOL0     H52396   3.302  -1.387   8.810 -0.2625  0.2515 -0.0954
  380MOL0     H52397   3.187  -1.397   8.678  1.1132 -1.1484 -0.4364
  380MOL0     H52398   3.153  -0.964   8.693 -0.1286 -0.3691  0.2002
  380MOL0     H52399   3.146  -0.753   8.408 -1.2808  0.3534 -0.7915
  380MOL0     H52400   3.066  -0.807   8.561  3.0333  0.4792  1.2508
  380MOL0     H52401   2.987  -0.832   8.399  0.4851 -0.8670 -0.7184
  380MOL0     H52402   3.264  -1.096   7.982 -3.6611 -3.1365  3.6920
  380MOL0     H52403   3.285  -1.064   7.744  0.3441 -0.7074  1.2888
  380MOL0     H52404   3.261  -0.950   7.479  0.2632  0.8802  0.3727
  380MOL0     H52405   3.230  -1.122   7.532  2.5190  0.2024 -2.8889
  380MOL0     H52406   3.217  -1.134   7.334 -2.3123 -1.2175 -1.4578
  380MOL0     H52407   3.038  -1.098   7.350  0.2956 -1.0462  2.7300
  380MOL0     H52408   3.273  -0.933   7.245  0.3075  0.5546  2.4563
  380MOL0     H52409   3.128  -0.851   7.321  2.9812  1.1471  0.8457
  380MOL0     H52410   2.982  -0.989   7.139 -0.6384  2.2403 -3.6771
  380MOL0     H52411   3.134  -1.056   7.084 -1.2408 -0.0905 -0.3829
  380MOL0     H52412   3.098  -0.758   7.062 -1.9101  0.2918 -2.2945
  380MOL0     H52413   3.225  -0.856   7.005  0.9142  0.4719  1.3406
  380MOL0     H52414   2.943  -0.900   6.883 -0.5187  2.8910 -4.3317
  380MOL0     H52415   3.080  -0.989   6.850 -1.3130  1.0274 -5.0752
  380MOL0     H52416   3.198  -0.788   6.791  0.0164 -0.8590 -1.5720
  380MOL0     H52417   3.064  -0.683   6.844  1.5082 -0.1388  1.6783
  380MOL0     H52418   3.073  -0.899   6.620  2.6405  0.0579  3.1817
  380MOL0     H52419   3.071  -0.719   6.590 -1.6423  1.3522  0.2961
  380MOL0     H52420   2.880  -0.901   7.736 -0.7600  0.3544  0.4105
  380MOL0     H52421   2.854  -0.959   7.979  1.4023  4.5641  1.0831
  380MOL0     H52422   3.241  -1.239   8.286 -1.8409  1.2599 -0.7420
  380MOL0     H52423   3.321  -1.309   8.504  1.0775  0.4442  2.2940
  380MOL0     H52424   2.928  -0.077   9.680 -0.0306 -0.3971 -0.2715
  380MOL0     H52425   3.009   0.162   9.680 -1.0721 -1.9617 -0.9516
  380MOL0     H52426   3.323   0.413   9.676  4.8228 -1.5988  1.3022
  380MOL0     H52427   3.411   0.634   9.611 -0.0534  0.9338 -0.3391
  380MOL0     H52428   3.395   1.062   9.739 -0.7247  1.0578 -0.1861
  380MOL0     H52429   3.250   0.988   9.821  1.0035  1.7205  2.1395
  380MOL0     H52430   3.550   0.967   9.917  0.1606 -3.7582 -2.1790
  380MOL0     H52431   3.413   0.893   9.992  0.3144  0.1138 -0.5876
  380MOL0     H52432   3.459   1.202   9.971  0.8430  0.4426  1.1402
  380MOL0     H52433   3.301   1.123  10.006 -0.5905  0.3786 -3.9786
  380MOL0     H52434   3.564   1.075  10.169 -1.3282 -1.4187  0.6819
  380MOL0     H52435   3.397   1.032  10.204  2.2167 -1.0788  3.2669
  380MOL0     H52436   3.349   1.430  10.306 -0.7030  0.7269 -1.9844
  380MOL0     H52437   3.211   0.802   9.946 -0.2210 -0.9454  1.5167
  380MOL0     H52438   3.036   0.558  10.033  1.0037  0.9389 -2.7454
  380MOL0     H52439   3.190   0.502  10.115  5.4332  0.8123 -1.5242
  380MOL0     H52440   3.120   0.673  10.125 -1.8667 -1.9917  0.9645
  381MOL0     O52441   2.650   6.020   3.389  0.5917  0.5252 -0.4249
  381MOL0     C52442   2.607   5.932   3.464  1.1151  0.9188 -0.1724
  381MOL0     O52443   2.493   5.861   3.432  1.0619 -0.0921  0.1212
  381MOL0     C52444   2.417   5.895   3.321  1.3028 -0.0196 -0.4248
  381MOL0     C52445   2.290   5.967   3.329 -0.9160  0.4820  0.3723
  381MOL0     C52446   2.225   6.013   3.213  1.1489  1.1152 -0.8277
  381MOL0     C52447   2.277   5.980   3.090  0.3394  0.0142 -0.2934
  381MOL0     O52448   2.199   6.003   2.970 -0.3240  0.1027 -0.0052
  381MOL0     C52449   2.117   6.123   2.972 -0.1706  1.3917  0.4840
  381MOL0     C52450   2.095   6.168   2.827  0.4802 -0.6114 -0.2861
  381MOL0     C52451   2.222   6.235   2.762  0.4601 -0.7839  0.4306
  381MOL0     C52452   2.344   6.139   2.747 -0.0502 -0.3714  0.3375
  381MOL0     C52453   2.460   6.190   2.675 -0.2124 -1.0683  0.3442
  381MOL0     C52454   2.439   6.184   2.525  0.0575  0.2038  1.2025
  381MOL0     C52455   2.569   6.253   2.451 -0.2951 -0.8239  0.9395
  381MOL0     C52456   2.559   6.237   2.299  0.6521 -0.1707 -0.1655
  381MOL0     N52457   2.456   6.317   2.230  0.7539  0.2312  0.4613
  381MOL0     C52458   2.345   6.269   2.178  0.5186 -0.2857  0.1158
  381MOL0     C52459   2.273   6.382   2.140 -0.2113 -0.5075  0.7400
  381MOL0     C52460   2.133   6.383   2.078 -0.3187 -0.4300  0.2715
  381MOL0     C52461   2.052   6.517   2.052  0.4536  0.4347 -0.2096
  381MOL0     C52462   2.001   6.578   2.171 -0.3389 -1.1844  0.7862
  381MOL0     C52463   1.916   6.693   2.135 -0.0441 -0.0122 -0.5891
  381MOL0     O52464   1.991   6.807   2.082  0.1358 -0.1926 -0.1518
  381MOL0     C52465   2.063   6.885   2.174  0.0651  0.6006 -0.6015
  381MOL0     C52466   2.010   6.995   2.235  0.2994 -0.6783  0.2165
  381MOL0     C52467   2.091   7.060   2.323 -0.0440  0.2366 -0.6239
  381MOL0     C52468   2.004   7.168   2.391 -0.2553 -0.0600 -0.6631
  381MOL0     C52469   2.225   7.025   2.355 -0.1528  0.8228  0.3126
  381MOL0     C52470   2.309   7.093   2.458 -0.9628 -0.5054  1.1521
  381MOL0     O52471   2.401   7.020   2.513 -0.0859  0.4191 -0.2298
  381MOL0     C52472   2.451   7.071   2.632  0.3034  0.1824  0.3923
  381MOL0     C52473   2.390   7.038   2.752 -0.7727  0.5134  1.0808
  381MOL0     C52474   2.435   7.096   2.876 -0.2323  0.0715 -0.1453
  381MOL0     C52475   2.544   7.181   2.877  1.0182  0.1348  0.3401
  381MOL0     O52476   2.602   7.244   2.980 -0.1008  0.3994  0.4903
  381MOL0     C52477   2.530   7.298   3.093  0.3456 -0.2099  0.4571
  381MOL0     C52478   2.515   7.448   3.096  0.1229 -0.6573 -0.3712
  381MOL0     C52479   2.516   7.512   3.235  1.0634 -0.5328  0.8149
  381MOL0     C52480   2.487   7.664   3.225  0.0838 -0.7748  0.3311
  381MOL0     C52481   2.501   7.743   3.355 -0.6272 -0.8241 -0.2896
  381MOL0     C52482   2.419   7.691   3.472 -0.6492 -0.0100  0.1257
  381MOL0     C52483   2.423   7.804   3.580  0.0429  1.0836 -0.9503
  381MOL0     C52484   2.337   7.804   3.706  0.3505 -0.5320 -0.3613
  381MOL0    Cl52485   2.183   7.734   3.658 -0.0305 -0.6712  0.5358
  381MOL0     C52486   2.603   7.209   2.751  0.7656  0.3642  0.1003
  381MOL0     C52487   2.555   7.154   2.634  0.7945 -0.2019  0.2919
  381MOL0     O52488   2.273   7.211   2.491 -0.1921  0.5717 -0.1742
  381MOL0     C52489   2.273   6.904   2.305  0.2000  0.4104  1.2532
  381MOL0     C52490   2.191   6.838   2.197 -0.2339  0.9325 -0.7393
  381MOL0     N52491   2.349   6.495   2.174 -0.0477 -0.2429 -0.0911
  381MOL0     N52492   2.456   6.452   2.226 -0.1893 -0.2935 -0.0402
  381MOL0     C52493   2.402   5.915   3.084  0.5601  0.7759 -0.7428
  381MOL0     C52494   2.472   5.875   3.192  0.5127 -0.7766 -0.5827
  381MOL0     C52495   2.698   5.873   3.564 -1.0612 -0.7839  0.3833
  381MOL0     C52496   2.728   5.729   3.561 -0.5620  1.0042 -0.7043
  381MOL0     C52497   2.821   5.682   3.653  0.1159  0.2849  0.4162
  381MOL0     C52498   2.888   5.758   3.748  0.7229 -0.3584  0.6240
  381MOL0     O52499   2.989   5.703   3.827  0.3973 -0.5561  0.0674
  381MOL0     C52500   3.046   5.773   3.931 -0.3347 -0.3514  0.3572
  381MOL0     C52501   2.975   5.746   4.071  0.3121 -0.2873 -0.7385
  381MOL0     C52502   2.907   5.615   4.077 -0.4354 -0.1103 -0.7862
  381MOL0     C52503   2.828   5.614   4.215 -0.9320  1.0006 -0.6062
  381MOL0     C52504   2.774   5.485   4.244  1.2206 -0.4471  0.0141
  381MOL0     C52505   2.725   5.381   4.279  0.3746  0.4957 -0.3701
  381MOL0     C52506   2.857   5.893   3.745  0.9161  0.2806  0.9845
  381MOL0     C52507   2.760   5.953   3.657 -0.2914  0.4438 -0.4813
  381MOL0     C52508   2.745   6.100   3.667  0.3441 -0.7015  0.2847
  381MOL0     H52509   2.231   5.984   3.418 -3.3057 -0.8109 -0.8683
  381MOL0     H52510   2.131   6.065   3.234 -0.2252 -0.6725 -2.2749
  381MOL0     H52511   2.183   6.199   3.015 -2.5112  3.4407  0.6897
  381MOL0     H52512   2.028   6.127   3.036 -1.5343  1.3025 -1.3056
  381MOL0     H52513   2.063   6.086   2.763  2.1046 -0.9098 -0.7701
  381MOL0     H52514   2.018   6.245   2.830  0.5343 -0.4905 -1.5449
  381MOL0     H52515   2.198   6.275   2.663  1.5637  0.8516  0.7944
  381MOL0     H52516   2.236   6.323   2.825 -0.8897 -2.6859  3.6251
  381MOL0     H52517   2.382   6.115   2.847  0.2888 -0.9581  0.0720
  381MOL0     H52518   2.311   6.042   2.708  1.0275 -1.3061  1.6374
  381MOL0     H52519   2.546   6.131   2.707  3.2907  2.4955 -1.6164
  381MOL0     H52520   2.484   6.293   2.704  1.0009 -0.3995 -2.5946
  381MOL0     H52521   2.449   6.082   2.486 -2.6660  0.7601 -1.3105
  381MOL0     H52522   2.344   6.218   2.482 -0.0905 -2.2393 -0.6266
  381MOL0     H52523   2.668   6.218   2.481  1.2397  2.0264 -0.4228
  381MOL0     H52524   2.560   6.361   2.465 -4.1965 -0.3337 -3.2003
  381MOL0     H52525   2.637   6.276   2.232  0.8956  0.6008  0.5411
  381MOL0     H52526   2.554   6.130   2.278  0.2796 -0.3068  0.6011
  381MOL0     H52527   2.307   6.168   2.164  0.6101 -0.9506  3.7097
  381MOL0     H52528   2.067   6.332   2.148 -0.2736 -1.7156 -0.5807
  381MOL0     H52529   2.156   6.328   1.986  3.4716 -3.5679  2.7383
  381MOL0     H52530   2.128   6.584   2.013  0.9482 -0.2897 -0.4980
  381MOL0     H52531   1.975   6.502   1.976  0.5071 -0.8885 -0.0255
  381MOL0     H52532   1.938   6.502   2.219 -1.7869 -1.3895 -1.2679
  381MOL0     H52533   2.079   6.613   2.239  0.5105 -0.3727 -0.5671
  381MOL0     H52534   1.843   6.665   2.058 -1.1269  4.0682 -1.3050
  381MOL0     H52535   1.870   6.741   2.222  1.1998 -0.0664  0.1192
  381MOL0     H52536   1.906   7.023   2.218  0.2192  1.4176  3.2620
  381MOL0     H52537   1.994   7.257   2.329 -3.8978  0.4522  0.4328
  381MOL0     H52538   2.040   7.204   2.488 -1.0147 -0.0765 -0.3616
  381MOL0     H52539   1.903   7.132   2.414  0.6232 -1.1191  1.9372
  381MOL0     H52540   2.315   6.960   2.755  0.3093 -0.5324  1.6714
  381MOL0     H52541   2.382   7.083   2.969 -0.1222  2.1032  0.2464
  381MOL0     H52542   2.433   7.251   3.115 -0.4675  2.1121  2.1757
  381MOL0     H52543   2.599   7.266   3.171  1.5207  2.0803  0.4616
  381MOL0     H52544   2.597   7.495   3.041  1.5781  1.4987  3.2555
  381MOL0     H52545   2.419   7.469   3.048  1.4711  3.8504 -1.5663
  381MOL0     H52546   2.614   7.496   3.281  0.2161  1.7841  3.7228
  381MOL0     H52547   2.444   7.468   3.305  1.0994  0.3454  1.4205
  381MOL0     H52548   2.387   7.684   3.185  0.7420  0.5876 -0.7441
  381MOL0     H52549   2.552   7.696   3.143  0.4846 -1.6366  0.3055
  381MOL0     H52550   2.608   7.734   3.375 -1.0415 -1.7084  1.9160
  381MOL0     H52551   2.486   7.851   3.348  0.6579 -0.4501  1.7654
  381MOL0     H52552   2.457   7.596   3.510 -0.4635  0.5794  1.4609
  381MOL0     H52553   2.318   7.686   3.431  0.1178 -0.4815 -1.8064
  381MOL0     H52554   2.394   7.903   3.544 -2.7506  1.1192  1.0378
  381MOL0     H52555   2.524   7.805   3.621 -0.7779 -1.4088  1.4496
  381MOL0     H52556   2.323   7.906   3.743 -0.9162  0.7278 -3.8960
  381MOL0     H52557   2.377   7.742   3.787 -0.7860  2.2646  2.5528
  381MOL0     H52558   2.695   7.266   2.742  2.7943 -2.1377  2.8437
  381MOL0     H52559   2.587   7.201   2.542 -2.8707  0.5544 -0.7678
  381MOL0     H52560   2.376   6.874   2.324  0.9808  2.1691  0.0659
  381MOL0     H52561   2.227   6.748   2.148 -2.0572  0.9150 -2.1499
  381MOL0     H52562   2.446   5.888   2.988  1.2182 -2.5484  0.3474
  381MOL0     H52563   2.566   5.822   3.189  0.4570 -1.0356  1.4520
  381MOL0     H52564   2.684   5.661   3.489  1.3213 -1.8299  0.6653
  381MOL0     H52565   2.829   5.574   3.651 -2.0241 -0.0367  3.1231
  381MOL0     H52566   3.138   5.718   3.954 -0.9180 -0.8194  1.6117
  381MOL0     H52567   3.063   5.879   3.910 -2.7064  0.0868  0.3783
  381MOL0     H52568   2.898   5.822   4.085 -0.7239 -1.2090 -1.2842
  381MOL0     H52569   3.041   5.741   4.158 -2.1334 -1.7838  1.1606
  381MOL0     H52570   2.831   5.613   3.998 -2.3189  3.3455  0.6944
  381MOL0     H52571   2.981   5.535   4.066 -2.4734 -2.1439 -0.4694
  381MOL0     H52572   2.745   5.686   4.221 -0.9626  0.9582 -0.5200
  381MOL0     H52573   2.897   5.631   4.298 -1.9250 -1.4307  0.8216
  381MOL0     H52574   2.683   5.291   4.319 -1.1763  1.3011 -0.1247
  381MOL0     H52575   2.920   5.951   3.812  1.3881 -1.4110  2.0894
  381MOL0     H52576   2.786   6.154   3.753 -1.9846 -0.5833  1.3984
  381MOL0     H52577   2.786   6.144   3.575  0.5633  2.6957  1.8540
  381MOL0     H52578   2.636   6.112   3.671  0.3491  0.6209 -1.7546
  382MOL0     O52579  10.374   3.279  10.077 -0.1759  0.2882 -0.1714
  382MOL0     C52580  10.345   3.351   9.990  0.0339 -0.1198  0.3429
  382MOL0     O52581  10.316   3.310   9.870  0.3956  1.0287  0.2184
  382MOL0     C52582  10.333   3.176   9.832 -0.9456 -0.0239 -1.3701
  382MOL0     C52583  10.230   3.092   9.792 -0.9055 -1.4046 -1.2128
  382MOL0     C52584  10.256   2.956   9.756 -0.4377 -0.8054  0.2196
  382MOL0     C52585  10.385   2.909   9.764  0.5011  0.7901  0.9725
  382MOL0     O52586  10.433   2.780   9.740  0.4563 -0.7369  0.7667
  382MOL0     C52587  10.339   2.677   9.769 -0.4800 -0.7477  1.1257
  382MOL0     C52588  10.401   2.546   9.708  1.3373 -0.2758  0.1666
  382MOL0     C52589  10.305   2.425   9.714 -0.6775 -0.4829 -0.9076
  382MOL0     C52590  10.326   2.358   9.852  0.2287  0.0373  0.5033
  382MOL0     C52591  10.235   2.229   9.880 -0.2736 -0.5270  0.3103
  382MOL0     C52592  10.288   2.154  10.000  0.3086  0.0745 -0.0042
  382MOL0     C52593  10.226   2.020  10.014 -0.7457 -0.0696  0.5030
  382MOL0     C52594  10.077   1.995  10.019  0.2717 -0.9916 -0.5173
  382MOL0     N52595  10.006   2.006   9.890 -0.0076  0.8650  0.4499
  382MOL0     C52596  10.035   1.950   9.774 -0.3824 -0.6863 -1.8827
  382MOL0     C52597   9.927   1.977   9.689 -0.0548 -0.4687 -0.0043
  382MOL0     C52598   9.931   1.928   9.549  0.8406  1.2406  0.2131
  382MOL0     C52599   9.827   1.999   9.455  0.4150  0.6120  0.2188
  382MOL0     C52600   9.829   1.938   9.318 -0.2284 -0.4740 -0.3994
  382MOL0     C52601   9.716   1.993   9.229 -0.7667  0.5662 -0.8439
  382MOL0     O52602   9.672   2.123   9.266 -0.8012  0.4316  0.5684
  382MOL0     C52603   9.738   2.228   9.214  0.2705 -0.2571 -0.6934
  382MOL0     C52604   9.660   2.346   9.218  0.9678  0.5741 -0.7059
  382MOL0     C52605   9.707   2.471   9.168  0.0503  0.9648  0.1112
  382MOL0     C52606   9.613   2.586   9.200  0.3157  0.3375 -0.5388
  382MOL0     C52607   9.826   2.477   9.093  0.2670  0.1482  0.5493
  382MOL0     C52608   9.861   2.599   9.025  0.0130 -0.3449  0.4631
  382MOL0     O52609   9.787   2.618   8.908 -0.7534 -0.0202 -0.6103
  382MOL0     C52610   9.791   2.746   8.862  0.1641 -0.8599 -0.7455
  382MOL0     C52611   9.856   2.784   8.744 -0.1070 -0.9553  0.1185
  382MOL0     C52612   9.824   2.909   8.690 -0.0571 -0.4122 -0.2270
  382MOL0     C52613   9.757   3.010   8.765  0.1009  0.6129  0.0206
  382MOL0     O52614   9.721   3.124   8.704  0.7647 -0.5445 -0.3019
  382MOL0     C52615   9.712   3.237   8.795 -0.1610 -0.7205 -0.9598
  382MOL0     C52616   9.670   3.363   8.706  0.3823  0.3510 -0.4311
  382MOL0     C52617   9.528   3.355   8.644  0.4706 -0.1303  0.2407
  382MOL0     C52618   9.492   3.492   8.586  0.5239 -1.1839  0.3215
  382MOL0     C52619   9.365   3.504   8.502 -0.5496  0.4046 -0.1590
  382MOL0     C52620   9.387   3.423   8.374  0.5190  0.2562  0.0391
  382MOL0     C52621   9.269   3.408   8.280 -0.3537 -1.1711 -0.2423
  382MOL0     C52622   9.144   3.354   8.354 -0.0739 -0.7973 -0.9610
  382MOL0    Cl52623   9.167   3.181   8.424  0.1939 -0.3899 -0.1377
  382MOL0     C52624   9.704   2.966   8.886 -0.3062 -1.3883  0.5060
  382MOL0     C52625   9.713   2.842   8.932  0.5263  0.2087 -0.1806
  382MOL0     O52626   9.963   2.660   9.060  0.3881 -0.5115 -0.5582
  382MOL0     C52627   9.910   2.363   9.107 -0.0741 -0.6688 -0.0242
  382MOL0     C52628   9.856   2.232   9.156  0.2879  0.0380 -0.2031
  382MOL0     N52629   9.836   2.043   9.764 -0.4680 -0.2342 -0.4785
  382MOL0     N52630   9.890   2.060   9.881  0.6759  0.7340  0.2819
  382MOL0     C52631  10.484   2.993   9.809  0.1742 -0.4550  0.6299
  382MOL0     C52632  10.469   3.124   9.832  0.0372 -0.2512  0.0893
  382MOL0     C52633  10.381   3.500  10.002 -0.5900  0.6943 -0.1618
  382MOL0     C52634  10.425   3.566   9.890  0.2410  0.2117 -0.0257
  382MOL0     C52635  10.470   3.701   9.900  0.6533 -0.6097 -0.2866
  382MOL0     C52636  10.476   3.770  10.018  0.2890  0.7248  0.3985
  382MOL0     O52637  10.545   3.887  10.053  0.5976 -0.1345 -0.4779
  382MOL0     C52638  10.600   3.966   9.936  0.0063 -0.8346  0.1818
  382MOL0     C52639  10.751   3.940   9.926  0.1165  0.4326  0.3754
  382MOL0     C52640  10.819   4.029   9.825 -0.3616 -0.3534 -0.1852
  382MOL0     C52641  10.784   4.180   9.835 -0.8889 -1.3649 -0.4409
  382MOL0     C52642  10.891   4.268   9.806 -0.0676  0.7467 -0.6407
  382MOL0     C52643  10.997   4.322   9.780  0.6573  0.0786  0.6343
  382MOL0     C52644  10.428   3.701  10.126 -0.2893 -0.3032  1.0470
  382MOL0     C52645  10.378   3.567  10.125 -0.5501  0.4953  0.1202
  382MOL0     C52646  10.330   3.519  10.259 -0.4924  0.5852 -0.1305
  382MOL0     H52647  10.128   3.128   9.789 -2.0498 -4.3161 -0.4429
  382MOL0     H52648  10.182   2.891   9.711 -1.9590 -0.0184  1.4873
  382MOL0     H52649  10.246   2.686   9.712 -1.0262 -0.5513  2.0329
  382MOL0     H52650  10.315   2.669   9.875  0.1571 -0.9111  1.2626
  382MOL0     H52651  10.433   2.569   9.606  1.3641 -0.4953  0.1246
  382MOL0     H52652  10.489   2.533   9.771 -0.7889  0.0127  3.4271
  382MOL0     H52653  10.200   2.442   9.686 -1.9019 -1.8348  2.3426
  382MOL0     H52654  10.342   2.349   9.644  0.2421 -0.5376 -0.3670
  382MOL0     H52655  10.432   2.335   9.854  0.5979  1.5736 -0.0047
  382MOL0     H52656  10.300   2.434   9.926 -0.7008  0.3716 -0.1314
  382MOL0     H52657  10.238   2.158   9.797  3.3030 -1.8381  1.3797
  382MOL0     H52658  10.131   2.260   9.896  0.0565  0.4948  0.5864
  382MOL0     H52659  10.396   2.137   9.996  0.2469 -0.0794 -1.5136
  382MOL0     H52660  10.269   2.209  10.092  4.5372  2.1759 -0.1469
  382MOL0     H52661  10.260   1.966  10.103  0.6485 -2.5027 -1.3660
  382MOL0     H52662  10.260   1.945   9.942 -0.5649  0.2518  0.2483
  382MOL0     H52663  10.065   1.899  10.070  3.4199 -0.8915  0.6620
  382MOL0     H52664  10.030   2.069  10.084  0.5322 -1.2408 -0.0360
  382MOL0     H52665  10.121   1.891   9.742  0.4390 -0.0989 -0.8110
  382MOL0     H52666   9.903   1.822   9.555  3.9287  0.4375  2.6971
  382MOL0     H52667  10.033   1.939   9.511 -0.4571  1.0730 -3.8109
  382MOL0     H52668   9.723   1.992   9.489  0.5026  2.2663  0.9098
  382MOL0     H52669   9.851   2.105   9.449  2.4964  0.3941  2.9319
  382MOL0     H52670   9.928   1.960   9.277 -0.2575 -2.3003 -1.5768
  382MOL0     H52671   9.823   1.829   9.323  0.6698 -0.4911  0.9060
  382MOL0     H52672   9.740   1.984   9.123  2.7889 -1.1781 -0.0198
  382MOL0     H52673   9.628   1.932   9.251  1.0699 -1.8408  0.2432
  382MOL0     H52674   9.575   2.340   9.285  1.8755 -2.6088  0.3472
  382MOL0     H52675   9.526   2.607   9.136  1.6027  5.6956 -0.9656
  382MOL0     H52676   9.670   2.679   9.203  2.4742 -0.9411  0.7882
  382MOL0     H52677   9.586   2.576   9.306  1.5478  0.4742 -0.2008
  382MOL0     H52678   9.919   2.715   8.689  1.6843 -0.1117  1.0506
  382MOL0     H52679   9.854   2.938   8.590 -1.1250 -0.0868 -0.4678
  382MOL0     H52680   9.641   3.226   8.878 -3.7945  0.7808 -3.5818
  382MOL0     H52681   9.811   3.252   8.838 -0.5929  1.8534 -0.7448
  382MOL0     H52682   9.684   3.452   8.769  2.4463  1.2692 -2.0636
  382MOL0     H52683   9.742   3.368   8.624  0.2515  0.4470 -0.5397
  382MOL0     H52684   9.461   3.335   8.728  2.5992 -0.9209  1.8407
  382MOL0     H52685   9.521   3.275   8.570 -2.3340 -1.8863  2.1572
  382MOL0     H52686   9.575   3.525   8.523  0.3513  2.6417  1.8639
  382MOL0     H52687   9.492   3.561   8.670  1.9304  1.3231 -1.6009
  382MOL0     H52688   9.276   3.466   8.553 -1.2581 -2.5762 -3.2779
  382MOL0     H52689   9.348   3.605   8.464  2.7193  1.9169  1.9044
  382MOL0     H52690   9.424   3.321   8.387 -0.8051 -0.0408  1.9206
  382MOL0     H52691   9.464   3.478   8.320 -1.1293  1.9072 -0.7565
  382MOL0     H52692   9.301   3.342   8.199 -0.8190  1.2659 -2.5361
  382MOL0     H52693   9.259   3.508   8.237  0.8115 -0.2892  1.4327
  382MOL0     H52694   9.058   3.350   8.287  1.3239 -1.5332 -2.8068
  382MOL0     H52695   9.105   3.425   8.427  2.8629  0.3411 -0.3505
  382MOL0     H52696   9.629   3.013   8.949 -5.1216 -4.4074 -2.2994
  382MOL0     H52697   9.656   2.803   9.016  1.9374 -2.3775 -0.3248
  382MOL0     H52698  10.012   2.369   9.072  0.3801 -0.1408  1.3458
  382MOL0     H52699   9.922   2.145   9.150 -0.3021 -0.3865 -0.6312
  382MOL0     H52700  10.585   2.955   9.818  1.7323  2.2200 -2.9560
  382MOL0     H52701  10.550   3.194   9.851  3.6679 -3.0829 -3.0800
  382MOL0     H52702  10.430   3.512   9.796  1.1022 -0.7752  0.5657
  382MOL0     H52703  10.513   3.733   9.805  0.3330  2.5924  0.5360
  382MOL0     H52704  10.544   3.937   9.847 -1.7972  1.5284  0.4388
  382MOL0     H52705  10.579   4.072   9.952 -1.6444 -1.3424  1.8213
  382MOL0     H52706  10.755   3.837   9.891  1.3481  0.5635  0.0798
  382MOL0     H52707  10.785   3.956  10.028 -0.9311  0.6197  0.7098
  382MOL0     H52708  10.925   4.016   9.849 -0.3276  0.1362 -0.0614
  382MOL0     H52709  10.802   3.998   9.722  1.7277  2.3049 -1.4531
  382MOL0     H52710  10.750   4.202   9.936 -0.5147  0.4112 -0.6720
  382MOL0     H52711  10.718   4.217   9.755  1.7209 -0.2297 -2.2011
  382MOL0     H52712  11.093   4.367   9.763 -0.3842  3.3599  2.6260
  382MOL0     H52713  10.447   3.756  10.218 -2.4000  0.6060  0.9955
  382MOL0     H52714  10.405   3.449  10.298  0.3777  1.3396 -0.3999
  382MOL0     H52715  10.309   3.593  10.338 -1.0994 -1.5652  1.8310
  382MOL0     H52716  10.229   3.481  10.243 -0.7863  2.0336 -2.1611
  383MOL0     O52717   0.323  11.518   6.739  0.2545 -0.4714  0.0800
  383MOL0     C52718   0.419  11.451   6.713 -0.9648 -1.7826  1.1417
  383MOL0     O52719   0.547  11.496   6.715 -0.2335  0.2731  0.5676
  383MOL0     C52720   0.580  11.618   6.760 -0.1355 -0.5564 -0.2254
  383MOL0     C52721   0.513  11.745   6.757  0.0155  0.0966  0.1074
  383MOL0     C52722   0.566  11.852   6.830  0.4185 -0.7784  0.6113
  383MOL0     C52723   0.691  11.843   6.883 -0.2104  0.0979  0.6695
  383MOL0     O52724   0.773  11.944   6.929  0.4216  0.0652  0.5672
  383MOL0     C52725   0.736  12.085   6.908 -1.0684 -0.0355  0.4700
  383MOL0     C52726   0.869  12.166   6.914 -0.2771  0.5399  0.1371
  383MOL0     C52727   0.971  12.117   7.021  1.5007 -0.2517  0.4673
  383MOL0     C52728   1.097  12.215   7.008  0.3654  0.3458 -0.6266
  383MOL0     C52729   1.193  12.192   7.128 -1.1505  0.2147  0.5092
  383MOL0     C52730   1.307  12.294   7.141 -0.3238 -0.5319  0.2516
  383MOL0     C52731   1.270  12.436   7.206 -0.3316 -0.3381  0.0247
  383MOL0     C52732   1.385  12.510   7.266 -0.0592  0.4366 -0.3680
  383MOL0     N52733   1.486  12.573   7.180  0.3831  0.2560  0.2157
  383MOL0     C52734   1.552  12.682   7.236  0.6536  1.1642  0.3702
  383MOL0     C52735   1.607  12.731   7.126 -0.0387  1.0554  0.0624
  383MOL0     C52736   1.711  12.836   7.124 -0.0680  0.6027 -0.2885
  383MOL0     C52737   1.840  12.766   7.091  0.4931 -0.1500 -0.2633
  383MOL0     C52738   1.950  12.865   7.095  0.3758 -0.7661  0.1094
  383MOL0     C52739   2.012  12.901   7.234 -0.7995 -0.1656  0.5171
  383MOL0     O52740   2.125  12.998   7.226  0.1484  0.6821  1.3850
  383MOL0     C52741   2.169  13.064   7.332  0.1738 -0.2179  0.7479
  383MOL0     C52742   2.286  13.136   7.326 -0.6150  1.0368  0.2439
  383MOL0     C52743   2.367  13.176   7.427 -0.6558 -0.5177  0.5879
  383MOL0     C52744   2.495  13.246   7.386  1.0107 -0.2119  1.0420
  383MOL0     C52745   2.331  13.162   7.567  0.5875  0.0132 -0.2627
  383MOL0     C52746   2.403  13.217   7.691  0.7980 -0.2263  0.2191
  383MOL0     O52747   2.354  13.159   7.802 -0.0496  0.0999 -0.1761
  383MOL0     C52748   2.401  13.200   7.921 -0.6807 -0.2568 -0.3778
  383MOL0     C52749   2.326  13.266   8.015 -0.3039 -0.5844 -0.0630
  383MOL0     C52750   2.373  13.301   8.150 -0.3315  0.2161  0.5162
  383MOL0     C52751   2.510  13.278   8.180  0.2703  0.1465  0.4062
  383MOL0     O52752   2.560  13.342   8.289 -0.4098  0.0912 -0.8119
  383MOL0     C52753   2.650  13.268   8.365 -0.0975  0.3614  0.4713
  383MOL0     C52754   2.685  13.337   8.488 -1.4317 -0.2273 -0.9323
  383MOL0     C52755   2.762  13.244   8.588 -0.0038 -0.2087  0.4190
  383MOL0     C52756   2.907  13.232   8.550 -0.0238  0.0350  0.0208
  383MOL0     C52757   2.999  13.155   8.651 -0.8905  1.2391  0.5297
  383MOL0     C52758   3.136  13.124   8.575  0.1506  0.7289  0.6287
  383MOL0     C52759   3.206  13.015   8.656 -0.5143 -1.4840 -0.0241
  383MOL0     C52760   3.352  12.980   8.613  0.1408 -0.1048  1.0366
  383MOL0    Cl52761   3.382  12.820   8.681  0.1851  0.2872 -0.0523
  383MOL0     C52762   2.582  13.210   8.084  0.9847 -1.2073 -0.3808
  383MOL0     C52763   2.533  13.177   7.956  0.1466 -0.0709  0.8538
  383MOL0     O52764   2.474  13.318   7.684 -0.9162 -0.1233 -0.2836
  383MOL0     C52765   2.208  13.086   7.572 -0.0064  0.8295  0.0629
  383MOL0     C52766   2.130  13.045   7.459 -1.2449  0.6879 -0.0440
  383MOL0     N52767   1.572  12.665   7.010 -0.4579 -0.3639  0.3705
  383MOL0     N52768   1.497  12.569   7.047  0.5037 -0.0993 -0.0525
  383MOL0     C52769   0.768  11.728   6.871 -1.0433  0.6092  0.1033
  383MOL0     C52770   0.710  11.620   6.815  0.1380 -1.1778 -0.0927
  383MOL0     C52771   0.405  11.312   6.669  0.4384 -0.4440  0.1009
  383MOL0     C52772   0.279  11.257   6.678  0.2382  0.4073 -0.3597
  383MOL0     C52773   0.255  11.123   6.656  0.0027 -0.7961 -0.1290
  383MOL0     C52774   0.363  11.043   6.620 -0.2072  0.5595  0.3307
  383MOL0     O52775   0.356  10.911   6.589 -0.9750 -0.3798  0.0736
  383MOL0     C52776   0.230  10.856   6.554  0.1287 -0.0043  0.2402
  383MOL0     C52777   0.248  10.752   6.445  0.1541 -0.0794  0.4854
  383MOL0     C52778   0.265  10.791   6.306 -0.0003  0.1034  0.7462
  383MOL0     C52779   0.256  10.669   6.211  1.1874 -0.1299 -0.5185
  383MOL0     C52780   0.356  10.551   6.210  0.3541 -0.1764  0.0738
  383MOL0     C52781   0.444  10.466   6.205 -0.3738  0.7862  0.2007
  383MOL0     C52782   0.486  11.088   6.595 -0.4757 -0.3011 -1.0594
  383MOL0     C52783   0.512  11.228   6.626  0.2459 -0.3052 -0.0103
  383MOL0     C52784   0.653  11.276   6.612  0.2312  0.5088  0.7001
  383MOL0     H52785   0.414  11.769   6.718  1.3201  1.6097 -2.5503
  383MOL0     H52786   0.504  11.940   6.845 -1.3389 -1.4026 -2.2559
  383MOL0     H52787   0.677  12.111   6.996 -1.7018  1.3596 -0.3305
  383MOL0     H52788   0.678  12.110   6.818 -2.4150  0.8381  1.5398
  383MOL0     H52789   0.920  12.144   6.820  3.0513  4.1747  0.8207
  383MOL0     H52790   0.849  12.274   6.919  0.6794  0.7107  0.5652
  383MOL0     H52791   0.932  12.110   7.122  0.9146 -3.0304  0.1342
  383MOL0     H52792   1.006  12.016   6.994  2.0346  0.2379 -0.7774
  383MOL0     H52793   1.156  12.196   6.917 -0.3278  2.4074 -1.5790
  383MOL0     H52794   1.065  12.320   7.008  0.6066  0.4213 -0.2223
  383MOL0     H52795   1.237  12.096   7.098  1.2919  2.0531 -2.4743
  383MOL0     H52796   1.137  12.177   7.220  1.5408  3.3025  2.9193
  383MOL0     H52797   1.389  12.247   7.196  4.0068  2.1704 -3.2250
  383MOL0     H52798   1.356  12.310   7.044 -1.0701  0.9359  0.0884
  383MOL0     H52799   1.204  12.422   7.292  0.9640  1.0984  1.3261
  383MOL0     H52800   1.211  12.498   7.137 -0.0020 -2.8901 -2.7504
  383MOL0     H52801   1.347  12.593   7.325  1.2318 -1.1297  2.9164
  383MOL0     H52802   1.430  12.444   7.341 -1.3451 -0.6922 -0.5422
  383MOL0     H52803   1.555  12.711   7.340 -0.4138  2.0365  0.1839
  383MOL0     H52804   1.728  12.868   7.227 -1.0629 -1.4103  0.5704
  383MOL0     H52805   1.685  12.926   7.069 -1.8324  2.8582  3.7377
  383MOL0     H52806   1.850  12.683   7.161 -0.2274  0.2464  0.3139
  383MOL0     H52807   1.833  12.735   6.986  4.0738  2.0589 -1.3621
  383MOL0     H52808   2.030  12.829   7.030 -0.7501  1.7048 -2.9013
  383MOL0     H52809   1.921  12.954   7.038  4.1625 -0.4912 -1.6856
  383MOL0     H52810   1.944  12.943   7.309 -4.9044  4.1093 -4.7716
  383MOL0     H52811   2.049  12.805   7.271  0.4800  1.0424  2.5946
  383MOL0     H52812   2.311  13.157   7.222 -0.6313 -0.4816 -0.0950
  383MOL0     H52813   2.568  13.228   7.465  0.5073  0.7465  1.7472
  383MOL0     H52814   2.481  13.353   7.366  0.3991 -0.4308  0.2480
  383MOL0     H52815   2.528  13.208   7.289  0.9969  2.6717 -0.1925
  383MOL0     H52816   2.228  13.296   7.979 -0.2219 -1.8146 -1.4217
  383MOL0     H52817   2.317  13.350   8.230 -0.0920  0.3965  0.5747
  383MOL0     H52818   2.609  13.168   8.385 -2.8429  0.2782 -4.2379
  383MOL0     H52819   2.739  13.250   8.304 -1.5534  0.7127 -1.8603
  383MOL0     H52820   2.743  13.426   8.464  0.1337 -0.6372  1.0755
  383MOL0     H52821   2.597  13.374   8.541 -3.9758 -0.6127 -4.4817
  383MOL0     H52822   2.715  13.146   8.581 -0.2830 -0.1043  0.8352
  383MOL0     H52823   2.771  13.299   8.682 -0.8002  0.0557  0.3432
  383MOL0     H52824   2.944  13.332   8.525 -0.9019 -0.4348 -3.8008
  383MOL0     H52825   2.916  13.178   8.456 -0.5376 -0.2190  0.1144
  383MOL0     H52826   3.025  13.202   8.746 -0.6966  0.9449  0.6260
  383MOL0     H52827   2.953  13.059   8.676  1.1570  0.0708  0.0231
  383MOL0     H52828   3.190  13.219   8.567 -2.3917  2.0804 -4.4815
  383MOL0     H52829   3.113  13.089   8.474  0.7581  0.5831  0.5343
  383MOL0     H52830   3.151  12.921   8.656  1.3262 -2.8068  4.2095
  383MOL0     H52831   3.209  13.029   8.764 -3.1797  1.0774 -0.1482
  383MOL0     H52832   3.420  13.041   8.673  2.2790  0.0044 -1.3337
  383MOL0     H52833   3.369  12.991   8.506 -2.9831  0.5826  0.5013
  383MOL0     H52834   2.685  13.186   8.107  0.6296  0.9262  4.7431
  383MOL0     H52835   2.596  13.136   7.878  2.0057  1.3402  1.5435
  383MOL0     H52836   2.175  13.064   7.673 -0.4173  1.2188  0.0172
  383MOL0     H52837   2.045  12.985   7.490 -0.9522  0.3141  0.0355
  383MOL0     H52838   0.872  11.728   6.905 -1.4736 -0.3666  1.5315
  383MOL0     H52839   0.765  11.527   6.808  2.5929  0.1876  0.1047
  383MOL0     H52840   0.193  11.320   6.699  0.3374  0.2408  0.6177
  383MOL0     H52841   0.156  11.081   6.670  0.2103 -0.6005  2.2300
  383MOL0     H52842   0.181  10.801   6.635  0.1741 -0.8156 -0.2766
  383MOL0     H52843   0.167  10.938   6.517  1.4783  0.6991 -0.5552
  383MOL0     H52844   0.152  10.700   6.453 -0.5563  1.3341  1.5906
  383MOL0     H52845   0.329  10.681   6.467  0.4368 -0.5512 -1.8034
  383MOL0     H52846   0.192  10.869   6.280  2.9944  2.3954 -1.5455
  383MOL0     H52847   0.362  10.832   6.278  1.2284 -3.6172 -1.0821
  383MOL0     H52848   0.247  10.711   6.111  0.6276  3.5892  0.9396
  383MOL0     H52849   0.163  10.615   6.228 -0.5469  2.2849 -1.8255
  383MOL0     H52850   0.517  10.389   6.186 -0.9972  0.5252 -1.2457
  383MOL0     H52851   0.555  11.015   6.555 -1.7057 -2.2729  0.2597
  383MOL0     H52852   0.725  11.208   6.566  1.2251  3.1599 -1.9279
  383MOL0     H52853   0.655  11.361   6.544 -0.0402 -1.7838 -2.3958
  383MOL0     H52854   0.702  11.307   6.705 -0.3152 -0.9306  1.5056
  384MOL0     O52855   8.273   7.534   9.994 -0.9580 -0.0389 -0.5563
  384MOL0     C52856   8.189   7.610  10.028  1.2231 -0.1138  0.1931
  384MOL0     O52857   8.217   7.721  10.092 -0.2213  0.6012 -0.4178
  384MOL0     C52858   8.220   7.829  10.015 -0.7997 -0.4418 -0.1442
  384MOL0     C52859   8.305   7.829   9.894  0.1722 -0.6520  0.9318
  384MOL0     C52860   8.316   7.945   9.809  0.0083  0.0319  0.6329
  384MOL0     C52861   8.260   8.061   9.857 -0.0176  0.0720 -1.0333
  384MOL0     O52862   8.275   8.172   9.768  0.0359  0.0290  0.1110
  384MOL0     C52863   8.227   8.302   9.790 -0.2267 -0.0463 -0.1194
  384MOL0     C52864   8.243   8.382   9.650  0.0989  0.2666  0.1054
  384MOL0     C52865   8.163   8.328   9.536  1.2059  0.5705 -0.0114
  384MOL0     C52866   8.175   8.431   9.417  0.4148 -0.2785 -0.0654
  384MOL0     C52867   8.110   8.387   9.289  0.1973  0.5949 -0.5730
  384MOL0     C52868   7.958   8.381   9.309 -0.4785  0.1070 -0.2373
  384MOL0     C52869   7.886   8.308   9.187  0.8754 -0.6512  0.5428
  384MOL0     C52870   7.742   8.264   9.229 -0.9600  0.8233 -0.2703
  384MOL0     N52871   7.647   8.372   9.234  0.3079 -0.7062 -0.0534
  384MOL0     C52872   7.579   8.415   9.343 -0.5314  1.1644 -0.4924
  384MOL0     C52873   7.483   8.499   9.294 -0.2608 -0.4278  0.4679
  384MOL0     C52874   7.380   8.571   9.374  0.1702  0.1523  0.1789
  384MOL0     C52875   7.247   8.496   9.381  0.3369  0.7485  0.1141
  384MOL0     C52876   7.234   8.400   9.497 -0.3110 -0.5846 -0.8010
  384MOL0     C52877   7.092   8.352   9.507  0.4008  0.8080  0.0834
  384MOL0     O52878   7.051   8.260   9.412  0.6013 -0.1814 -0.3741
  384MOL0     C52879   6.934   8.187   9.446  0.1495 -1.5386 -0.7524
  384MOL0     C52880   6.853   8.158   9.344 -0.2451  0.1512 -0.3204
  384MOL0     C52881   6.721   8.106   9.357  0.5258 -0.0889 -0.0539
  384MOL0     C52882   6.651   8.080   9.223 -0.5026 -0.8458 -0.7747
  384MOL0     C52883   6.679   8.062   9.481 -0.4786 -0.6704 -0.9647
  384MOL0     C52884   6.557   7.978   9.508  0.4605  0.4047  0.4467
  384MOL0     O52885   6.475   7.942   9.401  0.0092  0.1871  0.4356
  384MOL0     C52886   6.393   7.835   9.440  0.4924  0.1542  0.1734
  384MOL0     C52887   6.439   7.706   9.464  0.3219  0.6309 -0.8315
  384MOL0     C52888   6.357   7.592   9.484 -0.2320 -0.7988  1.0907
  384MOL0     C52889   6.222   7.609   9.452  0.0849 -0.3141 -0.1471
  384MOL0     O52890   6.135   7.507   9.416  0.0920 -0.2259  0.3756
  384MOL0     C52891   6.169   7.374   9.423 -0.3681  0.3039  0.0660
  384MOL0     C52892   6.251   7.326   9.296 -0.1865 -0.2875  0.9306
  384MOL0     C52893   6.202   7.189   9.247 -0.0303 -1.0175  0.5835
  384MOL0     C52894   6.060   7.200   9.195 -0.2127  0.2399 -0.7562
  384MOL0     C52895   6.013   7.092   9.103 -0.4742 -0.0093 -0.3727
  384MOL0     C52896   5.978   6.961   9.166 -0.1766  0.3165 -0.7611
  384MOL0     C52897   5.897   6.874   9.071  0.3257  0.8864  0.0349
  384MOL0     C52898   5.828   6.757   9.142 -0.2424  0.6868 -0.0057
  384MOL0    Cl52899   5.673   6.798   9.214 -0.6237  0.1172 -0.1651
  384MOL0     C52900   6.167   7.734   9.438 -0.7029  0.3508 -0.3087
  384MOL0     C52901   6.254   7.845   9.424  0.2253  0.5579  0.0499
  384MOL0     O52902   6.545   7.930   9.626 -0.0559  0.6008  0.1000
  384MOL0     C52903   6.764   8.097   9.594  0.1572  0.1621 -0.1744
  384MOL0     C52904   6.885   8.159   9.574 -0.5727 -0.3268 -0.5820
  384MOL0     N52905   7.483   8.501   9.153 -0.5861 -0.4966  0.4260
  384MOL0     N52906   7.589   8.433   9.125  0.5394  0.4395  0.3233
  384MOL0     C52907   8.197   8.066   9.984 -0.7587 -0.5712 -1.2292
  384MOL0     C52908   8.168   7.950  10.059 -0.9500 -0.5435 -0.4350
  384MOL0     C52909   8.055   7.576  10.005  1.1885  0.3789 -0.5905
  384MOL0     C52910   7.958   7.610  10.097  0.2968 -0.2056  0.2922
  384MOL0     C52911   7.823   7.570  10.085 -0.2207 -0.6061  1.1060
  384MOL0     C52912   7.775   7.490   9.983  1.1373  0.3109  0.0313
  384MOL0     O52913   7.644   7.464   9.962 -0.1520  0.1357  0.3355
  384MOL0     C52914   7.558   7.449  10.070  0.5113 -1.3374  0.0428
  384MOL0     C52915   7.438   7.535  10.058  0.5198 -0.0136  0.5103
  384MOL0     C52916   7.462   7.686  10.036 -0.6629  0.1235  0.5154
  384MOL0     C52917   7.363   7.778  10.103  0.4142  0.6483 -0.1274
  384MOL0     C52918   7.224   7.751  10.066 -0.0918  0.8509  0.0632
  384MOL0     C52919   7.115   7.736  10.019 -0.5724  0.9334  0.4658
  384MOL0     C52920   7.874   7.455   9.885 -0.8566  0.2582  1.1669
  384MOL0     C52921   8.006   7.501   9.900  0.2880 -0.0383  0.9171
  384MOL0     C52922   8.103   7.470   9.779  0.5407  0.1297  0.3393
  384MOL0     H52923   8.343   7.729   9.871 -1.3053 -1.2858  1.1680
  384MOL0     H52924   8.363   7.931   9.712  0.9859 -1.8301  1.3411
  384MOL0     H52925   8.289   8.360   9.859 -1.3381  0.3898  0.5191
  384MOL0     H52926   8.123   8.296   9.821 -0.6093  3.1149 -0.5044
  384MOL0     H52927   8.198   8.481   9.657  0.2877  0.3035  0.9461
  384MOL0     H52928   8.346   8.375   9.615 -0.1207 -1.5360 -0.3012
  384MOL0     H52929   8.191   8.226   9.509 -1.0198  0.6574 -3.1530
  384MOL0     H52930   8.061   8.324   9.575  1.0036 -1.2142 -0.6357
  384MOL0     H52931   8.138   8.525   9.458 -2.0648 -0.1639 -2.3010
  384MOL0     H52932   8.282   8.424   9.396  0.3218  0.7122 -0.9221
  384MOL0     H52933   8.161   8.295   9.262  2.3629  0.6797  2.6944
  384MOL0     H52934   8.109   8.461   9.208 -0.8043 -0.7098 -1.8093
  384MOL0     H52935   7.935   8.332   9.404  1.7802  2.7991  1.9000
  384MOL0     H52936   7.913   8.480   9.323 -0.1714 -0.1292  3.3821
  384MOL0     H52937   7.937   8.216   9.156  0.4004 -0.7351  0.0087
  384MOL0     H52938   7.878   8.381   9.106  0.2841 -2.2335 -0.8684
  384MOL0     H52939   7.711   8.205   9.142  0.8213  0.2766 -0.5788
  384MOL0     H52940   7.747   8.208   9.323  0.7498  2.8748  0.9537
  384MOL0     H52941   7.597   8.384   9.445  1.8023  1.5995 -0.7201
  384MOL0     H52942   7.370   8.668   9.325 -0.0624 -1.1500 -2.5175
  384MOL0     H52943   7.409   8.578   9.479 -1.8999  1.3224  0.7190
  384MOL0     H52944   7.160   8.563   9.377 -0.0569  0.2060 -0.8699
  384MOL0     H52945   7.230   8.454   9.282 -0.8898  0.3663  0.4666
  384MOL0     H52946   7.311   8.324   9.487 -1.5270 -1.8339 -0.9231
  384MOL0     H52947   7.250   8.472   9.578  1.8152  1.4784 -2.9115
  384MOL0     H52948   7.090   8.314   9.610  4.8272 -0.5996 -0.1537
  384MOL0     H52949   7.021   8.435   9.498 -2.4649 -1.1757  2.3304
  384MOL0     H52950   6.890   8.195   9.249  0.8816 -1.5804 -0.6014
  384MOL0     H52951   6.696   8.134   9.138  2.4266 -0.5966  0.8152
  384MOL0     H52952   6.551   8.124   9.234  0.8478  2.3150 -0.1030
  384MOL0     H52953   6.651   7.972   9.210  0.7353 -0.6679 -2.7276
  384MOL0     H52954   6.546   7.688   9.454  0.5991 -1.0937  3.2043
  384MOL0     H52955   6.420   7.506   9.506  0.6793 -0.3339  0.3699
  384MOL0     H52956   6.237   7.368   9.509  2.1752  0.5906 -1.7912
  384MOL0     H52957   6.080   7.313   9.442 -1.3431  2.0087  1.1888
  384MOL0     H52958   6.247   7.390   9.207  1.3179 -2.8114 -1.0898
  384MOL0     H52959   6.359   7.321   9.310  0.0137  0.8630 -0.0466
  384MOL0     H52960   6.209   7.119   9.331 -1.1958  1.2369  2.6732
  384MOL0     H52961   6.268   7.146   9.170  1.0324  2.4839 -0.6620
  384MOL0     H52962   6.064   7.291   9.135 -2.0704  0.5232 -0.5062
  384MOL0     H52963   5.996   7.205   9.284 -0.9208 -1.5726 -1.1067
  384MOL0     H52964   5.931   7.144   9.053  0.9743  2.8998  0.0761
  384MOL0     H52965   6.083   7.074   9.022 -0.3279  0.1543 -0.2846
  384MOL0     H52966   5.912   6.969   9.253 -0.9681  0.1964 -1.3388
  384MOL0     H52967   6.071   6.916   9.201 -0.7054 -1.3408 -1.3826
  384MOL0     H52968   5.965   6.837   8.994 -2.9455 -1.6122 -1.9328
  384MOL0     H52969   5.812   6.933   9.034 -0.1288  0.0405 -0.2901
  384MOL0     H52970   5.899   6.724   9.218  2.2150  3.6012 -0.8764
  384MOL0     H52971   5.823   6.662   9.088  0.4012 -0.3425  1.7011
  384MOL0     H52972   6.059   7.734   9.429 -0.6483  1.0916 -1.0304
  384MOL0     H52973   6.217   7.938   9.381  2.4296  1.1504 -0.7105
  384MOL0     H52974   6.748   8.057   9.694 -0.5063 -4.1526 -1.8072
  384MOL0     H52975   6.946   8.175   9.662 -0.5216 -2.0941 -0.2584
  384MOL0     H52976   8.171   8.162  10.027  3.0141 -1.1907  3.1372
  384MOL0     H52977   8.098   7.953  10.142 -1.3155  2.4253 -0.7380
  384MOL0     H52978   7.974   7.670  10.186 -0.0186 -0.6480  0.6491
  384MOL0     H52979   7.760   7.609  10.165 -0.1020 -0.4381  1.1171
  384MOL0     H52980   7.503   7.357  10.088 -0.1583 -0.6329  1.8002
  384MOL0     H52981   7.599   7.468  10.170 -3.6771  0.6994  1.6159
  384MOL0     H52982   7.383   7.514  10.151 -2.4553 -1.7576 -1.4850
  384MOL0     H52983   7.374   7.489   9.982 -0.2173 -2.3098  2.3938
  384MOL0     H52984   7.559   7.716  10.078 -0.7509  1.1289  0.0262
  384MOL0     H52985   7.466   7.706   9.929  2.4767 -0.3263  0.4538
  384MOL0     H52986   7.386   7.882  10.075 -0.6588  1.2257  0.9944
  384MOL0     H52987   7.361   7.785  10.212 -2.4602  1.0077 -0.1139
  384MOL0     H52988   7.023   7.707   9.973  1.3155 -4.6240 -0.6719
  384MOL0     H52989   7.855   7.413   9.787  1.7832  1.3734  0.0873
  384MOL0     H52990   8.056   7.436   9.686  3.6292  1.8443 -2.0590
  384MOL0     H52991   8.150   7.561   9.741  0.4483 -0.0574 -0.2416
  384MOL0     H52992   8.188   7.406   9.806  1.2291  0.7756 -0.2251
  385MOL0     O52993  10.794   5.422   0.151 -0.7874  0.1130  0.3376
  385MOL0     C52994  10.868   5.436   0.248  0.3727  0.9262  0.2212
  385MOL0     O52995  10.821   5.483   0.366  0.3741  0.5905 -0.1367
  385MOL0     C52996  10.686   5.489   0.396  0.4143  0.1362 -0.1513
  385MOL0     C52997  10.594   5.389   0.368  0.9629  0.9017 -0.4955
  385MOL0     C52998  10.466   5.396   0.431 -0.2491 -0.7975  0.6846
  385MOL0     C52999  10.436   5.486   0.528  0.0873  0.1858 -0.2454
  385MOL0     O53000  10.306   5.500   0.584  0.4816 -0.0667  0.3145
  385MOL0     C53001  10.241   5.629   0.565  0.8912  0.9490 -0.0238
  385MOL0     C53002  10.095   5.623   0.595  0.3065 -0.3640  0.1936
  385MOL0     C53003  10.031   5.574   0.728 -0.5482  0.5748  0.3244
  385MOL0     C53004  10.031   5.419   0.756  0.6540 -0.9984 -0.7607
  385MOL0     C53005  10.026   5.389   0.907  0.3053 -0.5570  0.1312
  385MOL0     C53006  10.055   5.241   0.934  0.1107  0.3424 -0.6301
  385MOL0     C53007   9.950   5.141   0.891 -1.7517  1.2721  0.4829
  385MOL0     C53008   9.972   4.999   0.962 -0.3081  0.8341  0.6211
  385MOL0     N53009   9.875   4.897   0.917  0.5415 -0.3943  0.3482
  385MOL0     C53010   9.743   4.895   0.941 -0.3412  0.4956 -0.2760
  385MOL0     C53011   9.697   4.768   0.920  0.1309  0.0027  0.0247
  385MOL0     C53012   9.552   4.717   0.937 -0.1065 -0.2278  0.8665
  385MOL0     C53013   9.540   4.644   1.074 -1.3103 -0.1047  0.7341
  385MOL0     C53014   9.398   4.596   1.096  0.1986  0.3611 -0.8082
  385MOL0     C53015   9.376   4.452   1.097 -0.1910  0.6434  0.9616
  385MOL0     O53016   9.442   4.372   1.201  0.2262 -0.1920 -0.0469
  385MOL0     C53017   9.471   4.242   1.172 -0.0675 -0.8924  1.0323
  385MOL0     C53018   9.396   4.164   1.083 -0.1920  0.8681 -0.8856
  385MOL0     C53019   9.424   4.028   1.051 -0.4052  0.0116 -0.2422
  385MOL0     C53020   9.337   3.963   0.939 -0.0915  0.9160  0.2596
  385MOL0     C53021   9.543   3.972   1.111 -0.7219 -0.3249  0.4069
  385MOL0     C53022   9.593   3.829   1.084  0.6159  0.2714  0.4654
  385MOL0     O53023   9.494   3.740   1.057 -0.1932 -0.0209 -0.2189
  385MOL0     C53024   9.526   3.603   1.039 -0.3856 -0.2746 -0.9400
  385MOL0     C53025   9.461   3.544   0.935 -0.3150  0.3592 -0.2529
  385MOL0     C53026   9.488   3.410   0.918  0.7940  0.4173  0.6975
  385MOL0     C53027   9.556   3.337   1.013 -0.8891 -0.0357  0.7531
  385MOL0     O53028   9.570   3.200   0.998  0.3030  0.4053 -0.2737
  385MOL0     C53029   9.557   3.110   1.109  0.2081  0.1249  0.1391
  385MOL0     C53030   9.414   3.104   1.163  0.4012 -0.4071 -0.1949
  385MOL0     C53031   9.401   3.183   1.305  0.6694  0.2885  0.4715
  385MOL0     C53032   9.288   3.291   1.305  0.3901  0.2246 -0.1703
  385MOL0     C53033   9.295   3.411   1.400 -0.0455  0.1228  0.9822
  385MOL0     C53034   9.311   3.382   1.547  0.8586 -0.0790 -0.5360
  385MOL0     C53035   9.178   3.325   1.606  1.1695 -0.5420 -0.1541
  385MOL0     C53036   9.180   3.295   1.758  0.2471 -0.3447 -0.0923
  385MOL0    Cl53037   9.029   3.234   1.816  0.5590 -0.2637 -0.6101
  385MOL0     C53038   9.623   3.407   1.114  0.0716 -0.2729  0.4979
  385MOL0     C53039   9.612   3.540   1.131  0.4253  0.1051  0.5806
  385MOL0     O53040   9.719   3.810   1.080  0.3940  0.1329 -0.5064
  385MOL0     C53041   9.628   4.056   1.187  0.4609 -0.3749  0.6888
  385MOL0     C53042   9.587   4.185   1.220 -0.1768 -0.4703  0.0241
  385MOL0     N53043   9.806   4.696   0.892  0.4975  0.4723  0.0510
  385MOL0     N53044   9.912   4.778   0.877 -0.6463 -0.5138  0.7464
  385MOL0     C53045  10.524   5.587   0.554 -0.9187 -0.5900  0.4654
  385MOL0     C53046  10.650   5.586   0.493 -0.5899  0.0208  1.1992
  385MOL0     C53047  11.014   5.416   0.225 -0.1353 -0.6479  0.5083
  385MOL0     C53048  11.058   5.324   0.120 -0.2112 -1.4321 -0.4826
  385MOL0     C53049  11.188   5.312   0.084 -0.2223  0.3755  1.0567
  385MOL0     C53050  11.283   5.393   0.145  0.2826  0.2658 -0.3966
  385MOL0     O53051  11.408   5.386   0.092 -0.5189  0.5021 -0.2696
  385MOL0     C53052  11.501   5.287   0.132  0.6919 -0.0019  0.1390
  385MOL0     C53053  11.558   5.325   0.266  0.3964 -0.1166 -0.1164
  385MOL0     C53054  11.642   5.209   0.324 -0.0853 -0.2754  0.1720
  385MOL0     C53055  11.627   5.187   0.479 -0.1683 -0.1358  0.9871
  385MOL0     C53056  11.727   5.267   0.552 -0.1635 -0.4724  0.2455
  385MOL0     C53057  11.810   5.333   0.616  1.0207 -0.2245 -0.6002
  385MOL0     C53058  11.240   5.498   0.238 -0.4553 -0.4550  0.3892
  385MOL0     C53059  11.111   5.511   0.272  0.6429 -0.1735 -0.6209
  385MOL0     C53060  11.066   5.635   0.359 -0.2978 -0.0780 -0.0022
  385MOL0     H53061  10.611   5.297   0.312  2.1882  0.1335  1.0431
  385MOL0     H53062  10.388   5.323   0.414  1.4541 -2.3227 -1.2379
  385MOL0     H53063  10.256   5.664   0.463 -2.3136  2.4844 -0.1008
  385MOL0     H53064  10.285   5.712   0.623  1.1116 -0.4302  1.8783
  385MOL0     H53065  10.063   5.726   0.579  0.8029 -0.4966 -2.1317
  385MOL0     H53066  10.058   5.569   0.507  1.4789  2.9267 -2.5832
  385MOL0     H53067  10.082   5.619   0.814  0.6805 -1.5234  0.7801
  385MOL0     H53068   9.929   5.610   0.742 -0.4342  0.1581  2.6597
  385MOL0     H53069   9.938   5.392   0.704  0.3289  0.8738 -1.2209
  385MOL0     H53070  10.127   5.382   0.719  1.9069 -0.9450  2.1955
  385MOL0     H53071   9.930   5.430   0.940 -0.8266 -1.7918 -1.4649
  385MOL0     H53072  10.111   5.442   0.952  2.0792 -1.0298 -2.4285
  385MOL0     H53073  10.149   5.219   0.884 -1.4771 -1.1216 -3.2090
  385MOL0     H53074  10.086   5.233   1.038  2.5855  1.1070 -1.2612
  385MOL0     H53075   9.963   5.125   0.783 -4.3435  1.1930  0.1035
  385MOL0     H53076   9.849   5.177   0.915 -1.8595  2.2889 -1.3167
  385MOL0     H53077  10.070   4.956   0.941 -0.3478  0.8382  0.4189
  385MOL0     H53078   9.952   5.009   1.069  0.2116 -1.9284  1.0494
  385MOL0     H53079   9.689   4.977   0.989 -1.2507  0.2921 -0.9241
  385MOL0     H53080   9.530   4.638   0.865 -2.4657 -1.1779  2.5047
  385MOL0     H53081   9.476   4.795   0.935  2.0687  2.0528 -2.4941
  385MOL0     H53082   9.618   4.568   1.066  1.7121  2.1501  4.6007
  385MOL0     H53083   9.553   4.715   1.156 -2.2318 -1.1732  1.8502
  385MOL0     H53084   9.368   4.628   1.195  0.9585 -0.9719 -0.1145
  385MOL0     H53085   9.330   4.644   1.025 -1.4662 -0.5929  0.0810
  385MOL0     H53086   9.270   4.434   1.116  0.4023 -3.2483  1.3492
  385MOL0     H53087   9.386   4.408   0.997 -2.5842  1.4593  0.3052
  385MOL0     H53088   9.319   4.211   1.022  0.1629 -1.2367 -3.1135
  385MOL0     H53089   9.273   4.039   0.893  0.9658  1.9701  0.4667
  385MOL0     H53090   9.280   3.875   0.968  2.4667 -0.7834  0.4965
  385MOL0     H53091   9.406   3.920   0.865 -2.9646  0.0289 -2.1338
  385MOL0     H53092   9.398   3.595   0.861 -1.2211 -1.0769 -0.5018
  385MOL0     H53093   9.442   3.361   0.833  1.5300  0.7362  0.0992
  385MOL0     H53094   9.569   3.009   1.069 -0.2140  0.3300 -0.5259
  385MOL0     H53095   9.631   3.124   1.188 -1.5317  0.9561  1.6786
  385MOL0     H53096   9.335   3.147   1.101 -0.3229 -1.8029 -0.2812
  385MOL0     H53097   9.382   2.999   1.175  0.0890 -0.3513 -0.5241
  385MOL0     H53098   9.498   3.228   1.331  1.0527 -1.3212  2.0903
  385MOL0     H53099   9.376   3.115   1.387 -0.7149 -1.0692 -1.0030
  385MOL0     H53100   9.194   3.236   1.311 -0.2915  1.4485  0.9795
  385MOL0     H53101   9.290   3.341   1.207 -1.6748  1.0506  0.1621
  385MOL0     H53102   9.383   3.461   1.360  1.0278 -1.2985  1.4766
  385MOL0     H53103   9.208   3.474   1.379  0.7213  0.6485 -0.8083
  385MOL0     H53104   9.325   3.476   1.601 -4.7323 -1.5256  4.6988
  385MOL0     H53105   9.387   3.304   1.555 -1.4287 -2.4354 -0.0137
  385MOL0     H53106   9.147   3.243   1.541  0.7624 -1.7486  1.5032
  385MOL0     H53107   9.102   3.403   1.593  1.4557 -0.3695 -0.8686
  385MOL0     H53108   9.187   3.394   1.804 -1.5505 -0.1330 -0.2209
  385MOL0     H53109   9.258   3.221   1.781  0.5495 -0.1311 -0.4343
  385MOL0     H53110   9.694   3.352   1.176  2.7291  1.2820 -0.9501
  385MOL0     H53111   9.672   3.581   1.212  0.3056 -1.5661  1.5481
  385MOL0     H53112   9.722   4.005   1.204  1.3197  0.6110 -0.7973
  385MOL0     H53113   9.642   4.238   1.297  0.7776  1.1233 -1.6578
  385MOL0     H53114  10.503   5.673   0.616  1.2610  1.7201 -1.7739
  385MOL0     H53115  10.724   5.660   0.520 -0.3283 -0.1214  0.8725
  385MOL0     H53116  10.990   5.247   0.084  0.1930 -2.1126  0.1901
  385MOL0     H53117  11.221   5.242   0.008  2.0939  0.1259  2.2058
  385MOL0     H53118  11.464   5.184   0.139  0.5392  0.1396  1.6194
  385MOL0     H53119  11.578   5.287   0.054 -0.4482  0.3405 -1.0300
  385MOL0     H53120  11.481   5.351   0.339  0.6524 -1.0483  0.5162
  385MOL0     H53121  11.632   5.404   0.252  2.8330 -2.1076  0.6364
  385MOL0     H53122  11.604   5.118   0.278 -0.2141  0.0330 -0.3376
  385MOL0     H53123  11.747   5.217   0.293 -0.5363 -0.7172 -1.5756
  385MOL0     H53124  11.637   5.078   0.483 -0.1863 -0.2466 -1.0768
  385MOL0     H53125  11.527   5.218   0.511 -0.1332 -0.0105  0.9758
  385MOL0     H53126  11.894   5.353   0.679  0.6275 -0.0385 -0.1252
  385MOL0     H53127  11.314   5.567   0.278  0.0489 -0.4110 -0.5956
  385MOL0     H53128  10.998   5.696   0.299  1.9256  1.4266 -1.1382
  385MOL0     H53129  11.023   5.603   0.454  0.2810 -1.1949 -0.0966
  385MOL0     H53130  11.152   5.699   0.382 -1.8192  2.5893 -1.3187
  386MOL0     O53131   3.637   1.886   2.913 -0.0324  0.0198  0.3251
  386MOL0     C53132   3.709   1.808   2.980  1.1636  0.5079  0.4954
  386MOL0     O53133   3.731   1.670   2.933  0.4375 -0.3583 -0.3208
  386MOL0     C53134   3.679   1.624   2.814 -0.5427  0.0117  0.4042
  386MOL0     C53135   3.599   1.508   2.811  0.1167  1.0527 -0.4782
  386MOL0     C53136   3.531   1.473   2.696  0.1470  0.7198  0.5846
  386MOL0     C53137   3.531   1.554   2.582 -0.1070 -0.2167  0.5085
  386MOL0     O53138   3.454   1.512   2.476  0.7028 -0.6659  0.0772
  386MOL0     C53139   3.451   1.579   2.345 -0.0816 -0.1946  0.6402
  386MOL0     C53140   3.369   1.506   2.242 -0.2085  0.0835 -0.5006
  386MOL0     C53141   3.450   1.379   2.195 -0.3491 -0.4263 -0.5752
  386MOL0     C53142   3.365   1.308   2.083 -0.3144 -0.4310  0.5832
  386MOL0     C53143   3.401   1.174   2.038 -0.1885  1.0151  0.1709
  386MOL0     C53144   3.377   1.070   2.145 -0.4224 -0.2724 -0.7609
  386MOL0     C53145   3.362   0.930   2.082  0.5775  0.5503 -0.0815
  386MOL0     C53146   3.503   0.858   2.065 -0.6035 -0.3857  0.5335
  386MOL0     N53147   3.474   0.742   1.981  0.1791 -0.7359 -0.6349
  386MOL0     C53148   3.444   0.612   2.019  0.4765  0.2624  0.8959
  386MOL0     C53149   3.446   0.533   1.905  0.3563 -0.2474  0.5632
  386MOL0     C53150   3.422   0.383   1.894 -0.3077 -0.2285 -0.4237
  386MOL0     C53151   3.451   0.307   2.015  0.1093 -0.1199  0.2375
  386MOL0     C53152   3.431   0.155   2.010  0.0982 -0.3538  0.0483
  386MOL0     C53153   3.426   0.084   2.149 -0.1628 -0.7364 -0.5740
  386MOL0     O53154   3.307   0.128   2.221 -0.0056  0.1529  0.3086
  386MOL0     C53155   3.312   0.103   2.357  0.9606 -0.3830  0.6112
  386MOL0     C53156   3.327  -0.025   2.406  1.1556 -0.0885 -0.6566
  386MOL0     C53157   3.309  -0.050   2.537 -0.6303  0.0437 -0.2477
  386MOL0     C53158   3.319  -0.204   2.575  1.5787 -1.0564 -0.1062
  386MOL0     C53159   3.265   0.055   2.630 -0.4152 -0.6276 -0.2860
  386MOL0     C53160   3.232   0.037   2.773  0.6709  0.0794  0.1695
  386MOL0     O53161   3.156  -0.080   2.818 -0.3466  0.3583 -0.2718
  386MOL0     C53162   3.092  -0.047   2.934  0.5213 -0.1017 -0.4642
  386MOL0     C53163   3.131  -0.131   3.039  0.2624  0.2137 -0.7655
  386MOL0     C53164   3.074  -0.109   3.167  0.1346  0.3146  0.2715
  386MOL0     C53165   2.976  -0.015   3.190 -0.1032  0.3762 -0.9049
  386MOL0     O53166   2.922  -0.016   3.323 -0.8079  0.5094 -0.1574
  386MOL0     C53167   2.803   0.053   3.365 -0.0748 -0.0315 -0.0222
  386MOL0     C53168   2.796   0.034   3.515  0.4402 -0.2860 -0.0388
  386MOL0     C53169   2.900   0.109   3.612  0.1437  0.3328  0.8573
  386MOL0     C53170   2.908   0.258   3.600 -0.5623 -0.5469  0.4761
  386MOL0     C53171   3.026   0.317   3.676 -0.1572 -1.0354  0.1770
  386MOL0     C53172   3.169   0.273   3.634  0.0983  1.0314 -0.1799
  386MOL0     C53173   3.273   0.381   3.636  0.1376  0.2160 -0.2575
  386MOL0     C53174   3.322   0.433   3.768  0.5066  0.0762 -0.2469
  386MOL0    Cl53175   3.426   0.322   3.856  0.1399  0.9160  0.3311
  386MOL0     C53176   2.928   0.064   3.084  0.6040 -0.0840 -0.0310
  386MOL0     C53177   2.986   0.047   2.948 -0.7751 -0.3277 -1.1113
  386MOL0     O53178   3.259   0.130   2.846  0.1658  0.0160  0.2270
  386MOL0     C53179   3.256   0.187   2.569 -0.2552 -0.4654 -0.6108
  386MOL0     C53180   3.286   0.210   2.435  0.5906  0.5848  0.7189
  386MOL0     N53181   3.455   0.624   1.803  0.7002 -0.6029 -0.4988
  386MOL0     N53182   3.474   0.749   1.843  1.0948  0.8947  0.1843
  386MOL0     C53183   3.623   1.666   2.580  1.0252  0.3650 -0.1820
  386MOL0     C53184   3.682   1.700   2.698 -1.7359 -1.6447 -0.0619
  386MOL0     C53185   3.786   1.854   3.096 -0.4972 -0.2483  0.2955
  386MOL0     C53186   3.890   1.772   3.133 -0.1017  0.1831  0.0679
  386MOL0     C53187   3.974   1.813   3.234  0.3978 -0.3922 -0.0728
  386MOL0     C53188   3.946   1.925   3.314 -0.0801 -0.5623  0.0183
  386MOL0     O53189   4.013   1.969   3.423 -0.3285  0.6029 -0.3739
  386MOL0     C53190   4.119   1.881   3.469  0.6945  0.0676  0.1568
  386MOL0     C53191   4.205   1.949   3.576  0.1316  0.6836  0.0162
  386MOL0     C53192   4.158   1.956   3.718  0.8641 -0.2051  0.3372
  386MOL0     C53193   4.042   2.064   3.728  0.3023 -0.3674 -0.8222
  386MOL0     C53194   4.106   2.197   3.746 -0.7732  1.0306 -1.0113
  386MOL0     C53195   4.155   2.303   3.749 -0.7368 -0.2898 -0.3004
  386MOL0     C53196   3.849   2.010   3.274  0.7063 -0.6210  0.0130
  386MOL0     C53197   3.768   1.980   3.167  0.3919 -0.2247  0.0527
  386MOL0     C53198   3.634   2.057   3.146  0.1609 -0.3341 -0.3968
  386MOL0     H53199   3.579   1.440   2.892 -0.3820 -1.5425 -2.6478
  386MOL0     H53200   3.466   1.387   2.696  0.5387  0.4184  0.4628
  386MOL0     H53201   3.554   1.601   2.315 -0.6866  1.9905 -0.0503
  386MOL0     H53202   3.392   1.670   2.357 -0.9121 -0.7023  0.4576
  386MOL0     H53203   3.274   1.474   2.288 -0.0884 -0.4203 -0.5961
  386MOL0     H53204   3.341   1.563   2.153  1.1183 -0.6403 -1.4156
  386MOL0     H53205   3.554   1.399   2.168  0.3603 -3.3059 -0.3244
  386MOL0     H53206   3.457   1.311   2.280  0.9991  0.8196  0.3616
  386MOL0     H53207   3.262   1.288   2.113 -0.3437 -2.3281 -0.5768
  386MOL0     H53208   3.336   1.368   1.996 -1.9284 -0.6763  0.9218
  386MOL0     H53209   3.502   1.158   1.999  0.1366  1.2573  0.8938
  386MOL0     H53210   3.340   1.153   1.949  2.6577  2.7207 -2.3909
  386MOL0     H53211   3.468   1.077   2.206 -0.6256 -2.1544 -0.1714
  386MOL0     H53212   3.292   1.103   2.206 -0.1310  2.5094 -1.7406
  386MOL0     H53213   3.315   0.934   1.983  0.9420  0.3245 -0.2646
  386MOL0     H53214   3.307   0.867   2.152 -1.0051  2.2266  0.2600
  386MOL0     H53215   3.573   0.931   2.025 -2.7232  1.5345  0.1280
  386MOL0     H53216   3.546   0.821   2.158  1.0625 -1.0886 -0.4705
  386MOL0     H53217   3.430   0.563   2.114 -0.2089 -0.3047  0.5132
  386MOL0     H53218   3.504   0.360   1.824  0.2574  0.2572  0.0655
  386MOL0     H53219   3.324   0.352   1.858  1.1967 -3.0585 -2.4712
  386MOL0     H53220   3.545   0.346   2.056 -0.7736  1.3535  0.9556
  386MOL0     H53221   3.376   0.335   2.090  0.1007 -0.9804  0.5603
  386MOL0     H53222   3.340   0.143   1.951  0.8398 -0.6140 -1.0968
  386MOL0     H53223   3.508   0.105   1.950 -1.6518 -1.5268 -1.3282
  386MOL0     H53224   3.410  -0.024   2.142  2.1460 -1.1928  0.4334
  386MOL0     H53225   3.520   0.106   2.201 -1.0740 -0.0878  0.8704
  386MOL0     H53226   3.339  -0.115   2.346  2.6866  0.9708 -2.0449
  386MOL0     H53227   3.422  -0.216   2.612  1.7019  3.7552  1.8220
  386MOL0     H53228   3.308  -0.267   2.487 -0.4906  1.0965 -1.5095
  386MOL0     H53229   3.242  -0.231   2.648  0.9489 -1.8789 -1.0356
  386MOL0     H53230   3.201  -0.211   3.021 -1.7877 -0.8922 -5.1327
  386MOL0     H53231   3.104  -0.175   3.247 -1.0291 -0.0160  0.4626
  386MOL0     H53232   2.811   0.157   3.333  1.8161 -0.9227 -2.7643
  386MOL0     H53233   2.717   0.015   3.310 -0.3975 -0.5974  0.8414
  386MOL0     H53234   2.696   0.065   3.546 -0.0363  0.1869 -1.9197
  386MOL0     H53235   2.799  -0.074   3.535  1.2842 -0.1696  0.5004
  386MOL0     H53236   2.998   0.066   3.588  0.9717 -0.9418  5.4934
  386MOL0     H53237   2.879   0.088   3.717 -1.1533  0.1584  0.5884
  386MOL0     H53238   2.822   0.302   3.651  0.4641  2.3727 -0.0974
  386MOL0     H53239   2.913   0.293   3.496  0.8774 -0.0596  0.6869
  386MOL0     H53240   3.032   0.426   3.672  0.4822 -1.0640  0.0972
  386MOL0     H53241   3.029   0.295   3.783 -3.1205  1.0974  0.8143
  386MOL0     H53242   3.164   0.221   3.538 -1.2815 -0.0975  0.4655
  386MOL0     H53243   3.201   0.200   3.708 -3.2305  1.4738  1.9175
  386MOL0     H53244   3.223   0.460   3.580 -0.8914 -1.0619 -1.1874
  386MOL0     H53245   3.363   0.363   3.576  1.6210  0.4808  1.7788
  386MOL0     H53246   3.229   0.435   3.827 -1.9213 -0.4692 -3.7316
  386MOL0     H53247   3.377   0.527   3.759 -0.0006  0.3857 -0.1569
  386MOL0     H53248   2.843   0.130   3.097 -2.3671 -3.5980 -0.1612
  386MOL0     H53249   2.961   0.108   2.862  1.3082 -0.6541 -1.9868
  386MOL0     H53250   3.226   0.275   2.626  0.3819 -1.6658  1.6858
  386MOL0     H53251   3.293   0.313   2.401  2.6103  0.1222 -0.4333
  386MOL0     H53252   3.629   1.716   2.484 -1.2961 -1.3854 -1.3389
  386MOL0     H53253   3.741   1.791   2.694 -1.8268 -1.5663  0.3798
  386MOL0     H53254   3.904   1.676   3.084 -1.5734  0.8262 -1.7506
  386MOL0     H53255   4.043   1.740   3.276  2.3944  0.3977 -1.7867
  386MOL0     H53256   4.082   1.789   3.515 -1.3266  0.1897 -1.0988
  386MOL0     H53257   4.173   1.854   3.378  0.7053  1.8505 -0.4101
  386MOL0     H53258   4.217   2.052   3.539  0.0771  1.3162  1.6617
  386MOL0     H53259   4.294   1.886   3.582 -0.6595 -0.5723 -0.9747
  386MOL0     H53260   4.134   1.860   3.764  1.6411 -0.3214  0.5125
  386MOL0     H53261   4.238   1.987   3.786  1.8819  0.0274 -0.9261
  386MOL0     H53262   3.978   2.049   3.815 -0.5427 -1.4670 -1.5941
  386MOL0     H53263   3.987   2.055   3.633  1.1243 -1.9151 -1.1807
  386MOL0     H53264   4.208   2.394   3.769  1.1037 -1.2553 -0.5191
  386MOL0     H53265   3.841   2.111   3.311 -0.3327 -0.6159 -0.1866
  386MOL0     H53266   3.551   1.986   3.156  2.3923 -3.4706 -2.3011
  386MOL0     H53267   3.629   2.140   3.217 -3.4034 -0.4919 -0.2553
  386MOL0     H53268   3.608   2.103   3.051 -2.2762 -5.0050 -2.3496
  387MOL0     O53269   1.377   9.419   4.129  0.5378 -0.6377  0.1755
  387MOL0     C53270   1.469   9.363   4.185 -0.2693 -0.0641 -0.8888
  387MOL0     O53271   1.524   9.240   4.174  0.1331  1.1151 -0.0838
  387MOL0     C53272   1.452   9.144   4.106 -0.5286  0.9046  0.2487
  387MOL0     C53273   1.317   9.127   4.119  0.1889 -0.2000  0.6530
  387MOL0     C53274   1.255   9.028   4.042 -0.0641  0.5751  0.0126
  387MOL0     C53275   1.333   8.943   3.963 -0.3347  0.3910 -0.2637
  387MOL0     O53276   1.254   8.844   3.911  0.0196 -0.0720 -0.3163
  387MOL0     C53277   1.304   8.749   3.823 -0.1291  0.3965  0.1573
  387MOL0     C53278   1.212   8.631   3.838  1.5991  0.3511  0.2156
  387MOL0     C53279   1.061   8.664   3.814  0.2209  0.0880 -0.5897
  387MOL0     C53280   0.998   8.530   3.838  0.0679  1.2512  0.1649
  387MOL0     C53281   0.845   8.537   3.808 -0.2867  0.4460  0.6989
  387MOL0     C53282   0.782   8.391   3.802  0.4187  0.4238 -0.4639
  387MOL0     C53283   0.748   8.331   3.937 -0.0733 -0.6263  1.0655
  387MOL0     C53284   0.621   8.236   3.951  0.9316  0.5530 -0.6967
  387MOL0     N53285   0.644   8.107   3.880 -0.1463  0.3480 -0.0807
  387MOL0     C53286   0.688   8.097   3.755 -0.2944 -0.3461  0.7032
  387MOL0     C53287   0.689   7.960   3.730 -0.0240 -0.5439 -0.0600
  387MOL0     C53288   0.718   7.897   3.601 -0.0562 -0.8855 -0.2953
  387MOL0     C53289   0.831   7.795   3.604 -0.4112 -0.2024  0.4239
  387MOL0     C53290   0.848   7.690   3.484  0.7020  0.0719 -0.1408
  387MOL0     C53291   0.721   7.600   3.460  0.4046 -0.4126 -0.2571
  387MOL0     O53292   0.734   7.524   3.344 -0.1676 -0.2255  0.0063
  387MOL0     C53293   0.674   7.572   3.225  0.3230 -0.3170 -0.8717
  387MOL0     C53294   0.622   7.704   3.214 -0.6626  0.6780  0.1779
  387MOL0     C53295   0.572   7.747   3.089  0.5565 -0.3977  0.5291
  387MOL0     C53296   0.520   7.894   3.075 -0.1547  0.6446  0.1482
  387MOL0     C53297   0.559   7.648   2.982  0.6010  0.3843 -0.6489
  387MOL0     C53298   0.504   7.669   2.849  0.3363 -0.2801 -0.4880
  387MOL0     O53299   0.471   7.558   2.766  0.6564 -0.4980 -0.6606
  387MOL0     C53300   0.410   7.576   2.644  0.0306 -0.2544 -0.1190
  387MOL0     C53301   0.285   7.651   2.632  0.3169 -0.6159  0.6933
  387MOL0     C53302   0.209   7.638   2.516  1.6597 -0.1345 -0.1123
  387MOL0     C53303   0.238   7.540   2.421  0.1736  0.2514 -0.1007
  387MOL0     O53304   0.166   7.520   2.306  0.2542 -0.2184 -0.2059
  387MOL0     C53305   0.024   7.549   2.319  0.1809  0.0185  0.5458
  387MOL0     C53306  -0.038   7.508   2.193 -0.2666  0.3560 -0.0090
  387MOL0     C53307  -0.187   7.532   2.176  0.8332 -0.5110 -1.1210
  387MOL0     C53308  -0.226   7.683   2.222  0.0009  0.6972 -0.1966
  387MOL0     C53309  -0.372   7.711   2.188 -0.1375 -0.9929  0.2173
  387MOL0     C53310  -0.477   7.634   2.273 -0.1782  0.2037  1.1598
  387MOL0     C53311  -0.611   7.675   2.221 -0.2110 -1.0328  0.1140
  387MOL0     C53312  -0.710   7.714   2.331 -0.4110  0.6618 -0.1534
  387MOL0    Cl53313  -0.674   7.883   2.406  0.1988  0.4271 -0.3510
  387MOL0     C53314   0.355   7.463   2.439 -0.0018 -0.4503  0.0469
  387MOL0     C53315   0.442   7.481   2.547  0.5720  0.1891 -0.0280
  387MOL0     O53316   0.497   7.784   2.814  0.7515 -0.8607  0.1145
  387MOL0     C53317   0.595   7.514   3.010 -0.5607 -0.9351  0.5127
  387MOL0     C53318   0.663   7.481   3.127 -1.3220  0.0017  0.8811
  387MOL0     N53319   0.660   7.894   3.846  0.6230 -1.7700 -0.5122
  387MOL0     N53320   0.629   7.985   3.936  0.5837 -0.0103 -0.3070
  387MOL0     C53321   1.473   8.960   3.942 -1.1566 -0.2957  0.1084
  387MOL0     C53322   1.528   9.059   4.022  1.1196  0.2076  0.3054
  387MOL0     C53323   1.539   9.443   4.291 -0.3292 -0.4528  0.6361
  387MOL0     C53324   1.569   9.581   4.253 -0.2369  0.0914  0.3044
  387MOL0     C53325   1.641   9.651   4.342 -0.7584  0.6307  0.6686
  387MOL0     C53326   1.693   9.590   4.461  0.5837 -0.1087  0.4291
  387MOL0     O53327   1.776   9.639   4.554 -0.5113  0.6588  0.3305
  387MOL0     C53328   1.803   9.779   4.551 -0.8282 -0.0987  0.0126
  387MOL0     C53329   1.842   9.812   4.691 -0.4185  0.1326  0.0990
  387MOL0     C53330   1.731   9.812   4.797  0.2948  0.2768 -0.3333
  387MOL0     C53331   1.787   9.789   4.934 -0.0055 -0.2797 -0.7767
  387MOL0     C53332   1.671   9.804   5.011 -0.0517 -0.8018 -0.1103
  387MOL0     C53333   1.579   9.808   5.092 -0.1757  0.1015 -0.3905
  387MOL0     C53334   1.661   9.460   4.491  0.3896  0.3921  0.7056
  387MOL0     C53335   1.574   9.388   4.412 -0.7300  0.2659 -0.2728
  387MOL0     C53336   1.545   9.249   4.460  1.0084 -0.1121 -0.5121
  387MOL0     H53337   1.260   9.170   4.201  0.7825  1.1220  0.3881
  387MOL0     H53338   1.148   9.013   4.050  0.0337 -3.2832 -2.8111
  387MOL0     H53339   1.406   8.722   3.853  0.5619  1.4320 -1.1549
  387MOL0     H53340   1.295   8.802   3.728 -0.3789  2.7399  1.4079
  387MOL0     H53341   1.242   8.550   3.770 -3.3803 -1.9016  0.2256
  387MOL0     H53342   1.228   8.583   3.935  2.0566  2.8598  1.4357
  387MOL0     H53343   1.016   8.737   3.881 -3.2870 -1.3298 -1.1815
  387MOL0     H53344   1.047   8.688   3.708  0.2653 -2.9592 -1.3698
  387MOL0     H53345   1.049   8.451   3.782 -1.0749  0.3922  0.2992
  387MOL0     H53346   1.010   8.497   3.942 -2.3571  2.7446  0.9980
  387MOL0     H53347   0.826   8.587   3.713 -2.9324  1.9468  1.9173
  387MOL0     H53348   0.796   8.612   3.870 -1.3682 -0.7006  1.2634
  387MOL0     H53349   0.694   8.402   3.737  0.4281  0.2224 -0.5094
  387MOL0     H53350   0.844   8.324   3.742 -0.2683 -0.5385 -0.1215
  387MOL0     H53351   0.728   8.413   4.007 -2.0092 -0.9221  0.9190
  387MOL0     H53352   0.842   8.285   3.969  0.3830  0.1286  0.8341
  387MOL0     H53353   0.606   8.221   4.058  2.5600  0.8234 -0.4094
  387MOL0     H53354   0.533   8.285   3.907 -0.6939 -1.5148  0.0500
  387MOL0     H53355   0.702   8.176   3.681 -1.2058 -1.6250 -0.9255
  387MOL0     H53356   0.728   7.976   3.526 -4.6767  1.0408  0.7289
  387MOL0     H53357   0.624   7.843   3.582 -3.3709  3.4086  1.8927
  387MOL0     H53358   0.934   7.830   3.613  0.3546 -2.4608  1.1048
  387MOL0     H53359   0.807   7.730   3.688  0.2035 -0.2030  0.6009
  387MOL0     H53360   0.894   7.741   3.399 -0.2256  3.5110  1.2139
  387MOL0     H53361   0.925   7.622   3.521  2.2781  3.3237  3.3116
  387MOL0     H53362   0.729   7.539   3.550  2.1450  1.4648  0.9340
  387MOL0     H53363   0.618   7.637   3.462 -0.1512 -1.6402 -2.4002
  387MOL0     H53364   0.625   7.779   3.292  1.0987  0.6722  0.1338
  387MOL0     H53365   0.580   7.937   2.994  0.6481 -0.3973  0.1672
  387MOL0     H53366   0.538   7.956   3.163  3.4075  0.8292 -0.5451
  387MOL0     H53367   0.416   7.889   3.042  0.2719 -0.8887 -1.1219
  387MOL0     H53368   0.258   7.730   2.700 -2.9401 -0.1234 -1.0110
  387MOL0     H53369   0.123   7.704   2.508  0.6643 -1.4177 -0.3373
  387MOL0     H53370  -0.037   7.507   2.399  0.1577  1.2676  1.2116
  387MOL0     H53371   0.026   7.658   2.326 -0.0243  0.1389 -0.9234
  387MOL0     H53372   0.018   7.566   2.119 -0.9197 -2.7983 -3.2538
  387MOL0     H53373  -0.013   7.402   2.178 -1.0613  0.1492  0.0848
  387MOL0     H53374  -0.233   7.463   2.247  1.3587 -0.0613 -0.3273
  387MOL0     H53375  -0.233   7.525   2.077 -3.2427  3.5096  0.1213
  387MOL0     H53376  -0.167   7.752   2.162 -0.6812  2.4988  1.0871
  387MOL0     H53377  -0.200   7.711   2.325 -0.3241 -0.3212  0.1751
  387MOL0     H53378  -0.384   7.820   2.190 -1.1289 -1.0834 -0.3107
  387MOL0     H53379  -0.382   7.685   2.082  2.2610  0.5959 -0.4710
  387MOL0     H53380  -0.478   7.651   2.381 -0.3811 -1.1696  1.3925
  387MOL0     H53381  -0.464   7.527   2.255  1.3962  0.4846  0.4873
  387MOL0     H53382  -0.661   7.594   2.167 -1.3743  0.0634 -0.4970
  387MOL0     H53383  -0.613   7.747   2.139 -1.6589 -1.8611 -0.6179
  387MOL0     H53384  -0.705   7.638   2.410 -0.9767  1.2908  0.5067
  387MOL0     H53385  -0.815   7.711   2.303 -0.7919 -1.2314  1.2818
  387MOL0     H53386   0.383   7.398   2.357 -2.2436  0.6040 -1.6810
  387MOL0     H53387   0.529   7.418   2.560  1.4394  1.9468  3.9045
  387MOL0     H53388   0.597   7.441   2.930  2.8034  1.6650 -2.0875
  387MOL0     H53389   0.698   7.379   3.135 -2.0239 -0.2563  0.7109
  387MOL0     H53390   1.532   8.902   3.871 -0.6526 -0.7099  0.8469
  387MOL0     H53391   1.636   9.067   4.015  1.1112  2.3064  1.7281
  387MOL0     H53392   1.547   9.622   4.156  0.3001  0.1899  0.2178
  387MOL0     H53393   1.678   9.749   4.313 -0.1988  0.4906  0.9032
  387MOL0     H53394   1.885   9.794   4.480  0.7220  2.9955  2.2336
  387MOL0     H53395   1.730   9.853   4.520  1.2912  2.2986  0.4178
  387MOL0     H53396   1.903   9.902   4.702 -0.0276 -0.4065  3.4001
  387MOL0     H53397   1.917   9.740   4.725 -0.6224  0.2629  0.8550
  387MOL0     H53398   1.684   9.910   4.805 -2.0501 -0.9224  2.1201
  387MOL0     H53399   1.656   9.735   4.778  0.9503 -0.8759  1.5023
  387MOL0     H53400   1.855   9.872   4.954 -2.2450  1.0646  1.9396
  387MOL0     H53401   1.828   9.688   4.942 -3.6666 -1.9299 -0.7726
  387MOL0     H53402   1.501   9.804   5.165 -0.3435 -1.5940 -0.6255
  387MOL0     H53403   1.695   9.429   4.590  0.8146  1.1866  0.8182
  387MOL0     H53404   1.441   9.243   4.426  0.4482  2.4603  0.5328
  387MOL0     H53405   1.601   9.164   4.419 -0.7333 -1.1703 -0.8398
  387MOL0     H53406   1.554   9.252   4.569 -1.9451 -2.5651 -0.0752
  388MOL0     O53407  10.186   8.027   0.056 -0.1214 -0.6814 -0.6610
  388MOL0     C53408  10.185   7.974  -0.051  0.2889 -0.5273 -0.2209
  388MOL0     O53409  10.134   7.847  -0.075 -0.2538  0.3601  0.7121
  388MOL0     C53410  10.134   7.746   0.022  0.1148  0.8542  0.5379
  388MOL0     C53411  10.019   7.661   0.012 -0.2830  0.0444 -0.7453
  388MOL0     C53412  10.006   7.557   0.104 -0.1877  0.0712  1.2873
  388MOL0     C53413  10.102   7.523   0.199 -0.9267  0.2731 -0.1179
  388MOL0     O53414  10.098   7.419   0.291 -0.5901 -0.2062  0.6525
  388MOL0     C53415   9.999   7.323   0.260  0.3474 -0.3325  0.4767
  388MOL0     C53416   9.870   7.377   0.331  0.0188  0.8049 -0.7622
  388MOL0     C53417   9.763   7.277   0.305 -0.3772  0.1273  0.2226
  388MOL0     C53418   9.620   7.325   0.331 -0.5909  0.9799 -0.0977
  388MOL0     C53419   9.570   7.271   0.461 -0.2211 -0.2503 -0.0227
  388MOL0     C53420   9.417   7.336   0.479 -1.2378 -0.3942 -0.3062
  388MOL0     C53421   9.350   7.256   0.591 -0.9403  0.2395  0.0082
  388MOL0     C53422   9.404   7.244   0.735  0.3152  0.2066  0.2072
  388MOL0     N53423   9.351   7.130   0.807 -0.3564 -0.2829  0.0383
  388MOL0     C53424   9.236   7.136   0.879  0.3703 -0.6473  1.3045
  388MOL0     C53425   9.230   7.010   0.924 -1.8603  0.4516  0.1914
  388MOL0     C53426   9.122   6.950   0.993 -0.0735  0.5252  0.0171
  388MOL0     C53427   9.098   7.028   1.120 -0.0205 -0.2113  0.0657
  388MOL0     C53428   8.987   6.962   1.196 -0.0516 -0.1730  0.3862
  388MOL0     C53429   8.854   6.959   1.108  1.0664  0.2175  0.8720
  388MOL0     O53430   8.809   7.095   1.095  0.2553 -0.2922  0.3801
  388MOL0     C53431   8.745   7.127   0.979 -0.0806  0.9651  0.1254
  388MOL0     C53432   8.670   7.044   0.897  0.4364 -0.1288 -0.0048
  388MOL0     C53433   8.614   7.076   0.775 -0.1010 -0.2721  1.5060
  388MOL0     C53434   8.559   6.956   0.700  0.4236  0.4598  0.2896
  388MOL0     C53435   8.621   7.218   0.729  0.5465  0.7033 -0.3875
  388MOL0     C53436   8.590   7.256   0.590  0.4317 -0.7723 -0.3571
  388MOL0     O53437   8.647   7.372   0.539 -0.8481 -0.0009  0.8992
  388MOL0     C53438   8.630   7.388   0.404 -1.3427  0.7106  0.6107
  388MOL0     C53439   8.676   7.288   0.313 -0.8920 -0.2107 -0.3442
  388MOL0     C53440   8.665   7.296   0.176 -0.9772 -0.4443 -0.1513
  388MOL0     C53441   8.603   7.414   0.125  0.2460 -0.8229  0.1631
  388MOL0     O53442   8.565   7.429  -0.012  0.4781  0.0292 -0.8985
  388MOL0     C53443   8.528   7.310  -0.080 -0.1928 -0.5707  0.5305
  388MOL0     C53444   8.448   7.321  -0.206 -1.0707 -0.1436  0.0343
  388MOL0     C53445   8.454   7.188  -0.280 -0.7386 -0.0341 -0.1525
  388MOL0     C53446   8.469   7.214  -0.424 -0.6024  0.5029  0.5515
  388MOL0     C53447   8.427   7.083  -0.507  0.2468 -0.7705 -0.3585
  388MOL0     C53448   8.498   7.063  -0.641 -0.1915  0.5086  0.5686
  388MOL0     C53449   8.464   7.161  -0.753  0.7502  0.5071  0.2546
  388MOL0     C53450   8.554   7.140  -0.865 -1.2029  0.0193  0.9069
  388MOL0    Cl53451   8.525   7.253  -1.012  0.4758  0.2868  0.3345
  388MOL0     C53452   8.561   7.520   0.217  0.9488  0.9389  0.8020
  388MOL0     C53453   8.570   7.496   0.352  0.2217  1.0825 -0.2081
  388MOL0     O53454   8.497   7.202   0.533 -0.4247  0.5758  0.6434
  388MOL0     C53455   8.702   7.291   0.811 -0.5813  1.2656 -0.5513
  388MOL0     C53456   8.753   7.255   0.936 -0.4893  0.1372 -0.3787
  388MOL0     N53457   9.346   6.934   0.903  0.1489 -0.5572  0.0640
  388MOL0     N53458   9.420   7.017   0.834 -0.6284 -0.0631  0.4842
  388MOL0     C53459  10.212   7.612   0.211  0.5353 -0.0161 -0.7697
  388MOL0     C53460  10.220   7.728   0.128 -0.2365  0.0865  0.6780
  388MOL0     C53461  10.219   8.055  -0.171 -0.4290 -0.5356  0.6029
  388MOL0     C53462  10.140   8.038  -0.288  0.5756 -0.0630  1.1991
  388MOL0     C53463  10.155   8.121  -0.402 -0.0165 -0.8296  0.6521
  388MOL0     C53464  10.259   8.223  -0.400  0.4919  0.3930  0.3034
  388MOL0     O53465  10.291   8.311  -0.500  1.0554 -0.0179  0.7879
  388MOL0     C53466  10.290   8.235  -0.632 -0.0740 -0.7824 -0.5584
  388MOL0     C53467  10.179   8.278  -0.728  0.1719 -0.5635  0.3343
  388MOL0     C53468  10.218   8.396  -0.816 -0.8868  0.6703 -0.2414
  388MOL0     C53469  10.286   8.517  -0.746  0.5395 -0.8026 -0.4576
  388MOL0     C53470  10.184   8.599  -0.670 -0.2543 -0.1863 -0.1503
  388MOL0     C53471  10.098   8.677  -0.621 -0.7152 -0.0426  0.3490
  388MOL0     C53472  10.330   8.237  -0.284  0.3020  0.4886  0.0496
  388MOL0     C53473  10.318   8.153  -0.168  0.0716  0.1436 -0.7466
  388MOL0     C53474  10.418   8.162  -0.051 -0.5146  0.5711  0.0363
  388MOL0     H53475   9.945   7.663  -0.067  1.3025 -2.3797 -2.4016
  388MOL0     H53476   9.919   7.497   0.079  0.6122 -0.2589 -0.9532
  388MOL0     H53477  10.031   7.221   0.281  0.2754 -0.4584 -0.0019
  388MOL0     H53478   9.958   7.315   0.158 -0.6025 -0.1996  0.8338
  388MOL0     H53479   9.896   7.386   0.437  1.9704 -2.0906 -0.8814
  388MOL0     H53480   9.841   7.474   0.289 -0.5892  1.2131  0.5729
  388MOL0     H53481   9.753   7.245   0.200  0.8126 -0.7023  0.3481
  388MOL0     H53482   9.783   7.189   0.367  1.4334 -0.3212 -0.9246
  388MOL0     H53483   9.613   7.433   0.319 -1.8456  0.8829 -0.3671
  388MOL0     H53484   9.559   7.290   0.247  4.1045 -0.9721 -3.1736
  388MOL0     H53485   9.637   7.300   0.542  3.4870 -0.7166 -2.6746
  388MOL0     H53486   9.563   7.162   0.462  0.0618 -0.3352 -2.2353
  388MOL0     H53487   9.411   7.440   0.515  3.0487  0.3266 -1.1252
  388MOL0     H53488   9.353   7.324   0.392 -0.9084  2.8659 -1.1455
  388MOL0     H53489   9.349   7.157   0.546  1.1450  0.2781 -0.1925
  388MOL0     H53490   9.248   7.295   0.584 -0.8828  0.0557 -2.7570
  388MOL0     H53491   9.513   7.232   0.731  0.2470 -2.2246  2.4997
  388MOL0     H53492   9.376   7.338   0.783 -0.5246 -0.4447  1.0282
  388MOL0     H53493   9.154   7.206   0.876  0.4175 -0.5810 -1.9326
  388MOL0     H53494   9.145   6.845   1.017  0.8354  0.7318  0.0688
  388MOL0     H53495   9.040   6.954   0.921 -0.3686 -2.5996  0.0429
  388MOL0     H53496   9.191   7.045   1.175  0.7406  2.0233 -1.7934
  388MOL0     H53497   9.064   7.126   1.085 -1.2519 -0.5350  0.3024
  388MOL0     H53498   9.019   6.859   1.211 -0.4936 -0.5555 -1.1799
  388MOL0     H53499   8.968   7.004   1.295  2.8483  1.8532  0.2280
  388MOL0     H53500   8.866   6.905   1.014 -0.3782 -0.6945  1.1722
  388MOL0     H53501   8.774   6.905   1.160  0.6328  1.5287  1.6190
  388MOL0     H53502   8.659   6.943   0.936 -0.9758  0.8149  2.2442
  388MOL0     H53503   8.452   6.977   0.690  0.7747  2.5099  0.4848
  388MOL0     H53504   8.576   6.858   0.746 -0.4053  1.1520  2.1721
  388MOL0     H53505   8.598   6.951   0.598 -1.8026  1.4353 -0.6700
  388MOL0     H53506   8.741   7.211   0.354  0.6867  1.9515  1.4767
  388MOL0     H53507   8.710   7.229   0.104  5.1730 -0.6326  3.2154
  388MOL0     H53508   8.621   7.255  -0.101 -0.4140 -0.8826  0.3608
  388MOL0     H53509   8.477   7.244  -0.009 -1.8832  1.3575  1.2046
  388MOL0     H53510   8.348   7.359  -0.182 -0.7677 -1.0159  3.0935
  388MOL0     H53511   8.504   7.390  -0.270  2.2627 -3.3398 -0.8009
  388MOL0     H53512   8.363   7.132  -0.256  1.5792 -3.1979  2.1074
  388MOL0     H53513   8.537   7.122  -0.255 -0.5822  0.2656  0.1337
  388MOL0     H53514   8.571   7.242  -0.453 -0.6083  1.2446  1.2044
  388MOL0     H53515   8.402   7.296  -0.452  0.6188  1.9498  1.6799
  388MOL0     H53516   8.450   6.992  -0.450 -0.0368 -1.2260 -0.9637
  388MOL0     H53517   8.318   7.081  -0.516 -0.3548  0.3224  4.2623
  388MOL0     H53518   8.481   6.960  -0.672  0.4058 -0.6191  3.6841
  388MOL0     H53519   8.604   7.074  -0.618  0.1055 -1.2298  0.1646
  388MOL0     H53520   8.487   7.259  -0.709  0.0475  1.3231 -1.1537
  388MOL0     H53521   8.360   7.159  -0.784  0.7791  1.1733  0.0959
  388MOL0     H53522   8.538   7.036  -0.894 -0.9238 -0.2214  1.6134
  388MOL0     H53523   8.654   7.170  -0.833  1.7503 -2.7187 -4.4295
  388MOL0     H53524   8.513   7.610   0.180  0.5526 -0.5947 -2.8779
  388MOL0     H53525   8.532   7.577   0.414  0.1837 -1.1106  2.8986
  388MOL0     H53526   8.725   7.390   0.772 -1.4842  1.0108 -1.8054
  388MOL0     H53527   8.805   7.329   0.996 -0.6237 -0.6789  0.7803
  388MOL0     H53528  10.295   7.613   0.280 -0.6484  2.2919  0.7462
  388MOL0     H53529  10.308   7.791   0.128  0.3680 -0.7334  1.6972
  388MOL0     H53530  10.051   7.976  -0.285  0.7744 -0.3367  1.7193
  388MOL0     H53531  10.075   8.119  -0.475  1.8431 -0.7578 -1.4876
  388MOL0     H53532  10.385   8.266  -0.676 -0.9998  0.4976 -1.7695
  388MOL0     H53533  10.285   8.126  -0.634 -2.1410 -0.7236 -0.7298
  388MOL0     H53534  10.092   8.317  -0.674  0.3028  0.3560 -0.0904
  388MOL0     H53535  10.158   8.197  -0.798  1.9748 -1.7784  1.1025
  388MOL0     H53536  10.293   8.347  -0.879 -1.7400 -0.9343 -0.0582
  388MOL0     H53537  10.140   8.421  -0.887 -1.2469 -1.4792 -0.6751
  388MOL0     H53538  10.336   8.581  -0.820 -0.1951 -0.6833 -0.8537
  388MOL0     H53539  10.365   8.473  -0.683 -0.3199 -2.5029 -0.5185
  388MOL0     H53540  10.020   8.729  -0.570 -2.0778 -0.8218 -0.8372
  388MOL0     H53541  10.405   8.314  -0.273  0.5380  0.2539  0.0979
  388MOL0     H53542  10.368   8.222   0.027 -2.5934 -0.6278 -0.2887
  388MOL0     H53543  10.440   8.065  -0.005 -0.4033 -0.8003 -2.7153
  388MOL0     H53544  10.508   8.219  -0.073  0.0088  0.6916  2.2617
  389MOL0     O53545   5.397   0.020   0.774  0.2025  1.3410 -0.7661
  389MOL0     C53546   5.430   0.134   0.804  0.1604 -0.0435  0.0560
  389MOL0     O53547   5.415   0.252   0.730  1.0744  0.4443  0.0092
  389MOL0     C53548   5.387   0.248   0.595 -0.1291 -0.8852 -0.8328
  389MOL0     C53549   5.390   0.143   0.506  0.1511 -0.0541  0.0967
  389MOL0     C53550   5.370   0.170   0.368  0.0500 -0.5329  0.9232
  389MOL0     C53551   5.348   0.303   0.316 -0.4162  1.0117  0.3757
  389MOL0     O53552   5.314   0.324   0.192 -0.2859  0.1181 -0.4444
  389MOL0     C53553   5.328   0.454   0.125  0.4436 -0.0191 -0.0045
  389MOL0     C53554   5.317   0.413  -0.027  0.7176 -0.7195 -0.0208
  389MOL0     C53555   5.322   0.525  -0.130 -0.0621  0.5478 -0.0185
  389MOL0     C53556   5.299   0.480  -0.280 -0.4778 -0.3948 -0.1861
  389MOL0     C53557   5.301   0.612  -0.373 -0.1620 -0.0948  0.7831
  389MOL0     C53558   5.175   0.693  -0.386  0.2844 -0.2021  0.0950
  389MOL0     C53559   5.187   0.789  -0.510 -0.0967  0.1564 -0.3379
  389MOL0     C53560   5.076   0.899  -0.506  0.5450 -0.5592  0.0773
  389MOL0     N53561   5.136   1.015  -0.435  0.0667  0.2099  0.2404
  389MOL0     C53562   5.131   1.041  -0.290 -0.4825  1.0144  0.4169
  389MOL0     C53563   5.174   1.167  -0.276  0.1111 -0.3457 -0.2019
  389MOL0     C53564   5.216   1.249  -0.151 -0.3220  0.0711 -0.0380
  389MOL0     C53565   5.100   1.237  -0.051  0.3791 -0.0558  0.0963
  389MOL0     C53566   5.075   1.357   0.051  0.3651  0.2277 -0.1968
  389MOL0     C53567   4.944   1.345   0.143 -0.5511  0.3248 -0.9873
  389MOL0     O53568   4.975   1.230   0.223  0.6305  0.8138 -0.2762
  389MOL0     C53569   4.883   1.201   0.326 -0.2102 -0.6642  0.1298
  389MOL0     C53570   4.859   1.065   0.355 -0.0072  0.2543 -0.5013
  389MOL0     C53571   4.767   1.030   0.455  0.2254 -0.6165 -0.1514
  389MOL0     C53572   4.741   0.881   0.474  1.2249 -0.1072 -0.1355
  389MOL0     C53573   4.692   1.133   0.523  0.1815  0.1708 -0.6288
  389MOL0     C53574   4.581   1.115   0.628 -0.0787  0.3941 -1.2803
  389MOL0     O53575   4.490   1.008   0.615  1.0471 -0.1224  0.2225
  389MOL0     C53576   4.405   0.998   0.724  0.2364  0.4970 -0.1240
  389MOL0     C53577   4.280   1.060   0.730  0.0103 -0.1384  0.1028
  389MOL0     C53578   4.191   1.038   0.839 -0.1274 -0.8658 -0.0137
  389MOL0     C53579   4.213   0.940   0.929 -0.8283  0.6141  0.5297
  389MOL0     O53580   4.118   0.895   1.019 -0.5304 -0.7023 -0.3674
  389MOL0     C53581   3.987   0.943   0.993  0.4542  0.4281 -0.5001
  389MOL0     C53582   3.877   0.857   1.059  0.2716  0.7580  0.4081
  389MOL0     C53583   3.881   0.808   1.205  0.6625 -0.1376  0.6389
  389MOL0     C53584   3.841   0.917   1.306  0.4312 -0.0626  0.0791
  389MOL0     C53585   3.799   0.852   1.432 -0.2390  0.6947 -0.7468
  389MOL0     C53586   3.768   0.961   1.534  0.6687 -0.3200  0.0645
  389MOL0     C53587   3.671   0.920   1.647  0.6996 -0.0309 -0.6790
  389MOL0     C53588   3.633   1.036   1.736 -0.3401  0.1235 -1.2563
  389MOL0    Cl53589   3.754   1.074   1.865 -0.3659 -0.1516  0.0576
  389MOL0     C53590   4.342   0.874   0.918 -0.9131  0.1227 -0.6650
  389MOL0     C53591   4.441   0.912   0.827  0.0829  0.0016 -0.0657
  389MOL0     O53592   4.591   1.195   0.727  0.9619 -0.0699  0.4785
  389MOL0     C53593   4.736   1.263   0.510 -0.1810  0.5542  0.7101
  389MOL0     C53594   4.827   1.301   0.411 -0.1171 -0.0171  0.0013
  389MOL0     N53595   5.200   1.216  -0.411  0.8788 -0.2153 -0.2535
  389MOL0     N53596   5.159   1.129  -0.504  0.6056 -0.6743 -0.5643
  389MOL0     C53597   5.342   0.400   0.410  0.1437  0.4747  0.4224
  389MOL0     C53598   5.362   0.380   0.548 -1.1772  0.1918 -0.0960
  389MOL0     C53599   5.485   0.160   0.942  0.9252  1.1801  0.0959
  389MOL0     C53600   5.413   0.099   1.051  0.6409 -0.1739  0.1937
  389MOL0     C53601   5.431   0.145   1.178 -0.6945 -0.4563  0.0269
  389MOL0     C53602   5.539   0.221   1.208  0.6332 -0.4467  0.5622
  389MOL0     O53603   5.590   0.250   1.328 -0.3120 -0.8486 -0.5792
  389MOL0     C53604   5.505   0.273   1.438  0.1804 -0.2013  0.5691
  389MOL0     C53605   5.510   0.158   1.532  0.3763 -0.4450 -0.3056
  389MOL0     C53606   5.643   0.153   1.613 -0.7857  0.3942  0.3552
  389MOL0     C53607   5.634   0.254   1.731  0.0242  0.4828 -0.4418
  389MOL0     C53608   5.758   0.328   1.738 -0.0657  0.5962 -0.6865
  389MOL0     C53609   5.849   0.406   1.723 -1.0152  0.1370  0.4038
  389MOL0     C53610   5.616   0.270   1.104 -0.0688  0.9152 -0.5897
  389MOL0     C53611   5.595   0.243   0.976 -0.5780  0.5596  0.3195
  389MOL0     C53612   5.676   0.319   0.876 -0.0861  0.2711 -0.6372
  389MOL0     H53613   5.395   0.037   0.528  1.2725 -0.7864 -3.1685
  389MOL0     H53614   5.356   0.091   0.295  2.1975 -1.4635  1.4212
  389MOL0     H53615   5.428   0.496   0.141  0.1023  1.2771 -1.1144
  389MOL0     H53616   5.250   0.520   0.163  2.1180 -0.2135  4.4604
  389MOL0     H53617   5.399   0.349  -0.063  3.1682  2.1942  0.0094
  389MOL0     H53618   5.223   0.357  -0.025  1.0282 -1.2806  2.5958
  389MOL0     H53619   5.232   0.583  -0.106 -0.7635 -0.2269 -0.6942
  389MOL0     H53620   5.402   0.599  -0.126 -0.9545  1.8542 -3.2893
  389MOL0     H53621   5.377   0.413  -0.316 -1.1310 -2.2371  1.6356
  389MOL0     H53622   5.210   0.420  -0.302  0.7341 -2.6258  0.7477
  389MOL0     H53623   5.334   0.577  -0.471 -1.1886 -1.0208  0.7465
  389MOL0     H53624   5.386   0.666  -0.329  1.2864 -0.6172 -1.2105
  389MOL0     H53625   5.095   0.620  -0.402  0.6083 -0.1785 -1.7794
  389MOL0     H53626   5.163   0.746  -0.291  1.8796  1.0362 -0.3631
  389MOL0     H53627   5.162   0.743  -0.606 -3.2940  0.6065  0.1569
  389MOL0     H53628   5.282   0.843  -0.514  0.6584 -0.9339  1.5690
  389MOL0     H53629   5.048   0.924  -0.609  1.0963  1.8056  0.4302
  389MOL0     H53630   4.986   0.864  -0.455  0.5083  2.0361  2.0385
  389MOL0     H53631   5.128   0.973  -0.205 -0.2764  1.1094  0.4999
  389MOL0     H53632   5.219   1.354  -0.182  2.0051  0.1250  0.1990
  389MOL0     H53633   5.307   1.216  -0.100  0.1014 -1.4094 -1.6272
  389MOL0     H53634   5.006   1.212  -0.101  1.4272 -1.2666 -1.3477
  389MOL0     H53635   5.114   1.148   0.011 -1.5920 -1.2061 -1.0103
  389MOL0     H53636   5.156   1.362   0.125 -0.4442 -2.0099  0.9167
  389MOL0     H53637   5.074   1.456   0.003  1.7272  0.7320  0.7402
  389MOL0     H53638   4.946   1.439   0.200  1.2319  0.2641 -0.8939
  389MOL0     H53639   4.847   1.327   0.097  0.1387 -1.4644 -1.8545
  389MOL0     H53640   4.922   1.001   0.294  1.0404  1.2487 -0.4951
  389MOL0     H53641   4.702   0.860   0.574  3.0750 -1.6307  0.3151
  389MOL0     H53642   4.837   0.829   0.473  1.5651  0.5138 -0.3634
  389MOL0     H53643   4.680   0.831   0.398 -1.9562 -0.9060  2.7049
  389MOL0     H53644   4.243   1.135   0.661  0.5421  1.6572  1.6660
  389MOL0     H53645   4.106   1.106   0.841  2.3478  2.5035  0.7906
  389MOL0     H53646   3.979   1.044   1.032  2.1079  0.2308  0.4312
  389MOL0     H53647   3.979   0.936   0.884  0.9218 -2.0112 -0.4434
  389MOL0     H53648   3.784   0.915   1.058  1.0754  2.4230 -3.9797
  389MOL0     H53649   3.867   0.767   0.997 -0.7621  0.3861  1.0959
  389MOL0     H53650   3.976   0.765   1.238 -0.8488 -3.4347  1.0476
  389MOL0     H53651   3.814   0.723   1.218 -1.1323  1.3829  2.1004
  389MOL0     H53652   3.755   0.974   1.270  0.8176  0.2280 -0.4068
  389MOL0     H53653   3.928   0.982   1.317  0.9703 -0.5655 -1.0248
  389MOL0     H53654   3.714   0.784   1.420 -1.4689  2.0408 -0.0418
  389MOL0     H53655   3.885   0.803   1.478 -2.2755 -1.5475  0.9284
  389MOL0     H53656   3.725   1.044   1.478  2.8444  1.7029  1.2221
  389MOL0     H53657   3.859   1.004   1.578  0.6320  2.5320 -2.3419
  389MOL0     H53658   3.730   0.846   1.702  2.1760  0.0610 -2.0942
  389MOL0     H53659   3.582   0.873   1.603 -0.9209 -1.3872  3.5905
  389MOL0     H53660   3.539   0.998   1.778  1.6002 -3.1377  0.4666
  389MOL0     H53661   3.610   1.129   1.682 -3.5306  0.7153  0.8545
  389MOL0     H53662   4.375   0.788   0.976 -1.7436 -1.0804 -1.9301
  389MOL0     H53663   4.531   0.851   0.828 -0.0699 -0.4026 -3.0678
  389MOL0     H53664   4.703   1.343   0.577  0.2356  1.7798 -0.5067
  389MOL0     H53665   4.840   1.407   0.395 -0.0524 -0.2253 -1.5116
  389MOL0     H53666   5.334   0.503   0.376  0.8097  0.1147 -0.8914
  389MOL0     H53667   5.363   0.466   0.614  2.2497 -0.8922  1.4667
  389MOL0     H53668   5.325   0.043   1.021 -2.8428  3.8238  1.9645
  389MOL0     H53669   5.362   0.114   1.256 -0.4519  1.7342  1.2143
  389MOL0     H53670   5.542   0.367   1.479  1.2487 -1.5812  2.9714
  389MOL0     H53671   5.405   0.300   1.405  1.3502  3.4460 -0.4313
  389MOL0     H53672   5.494   0.065   1.477  2.9137 -1.6001  0.7296
  389MOL0     H53673   5.424   0.173   1.599  0.7193  2.5751 -0.4245
  389MOL0     H53674   5.673   0.062   1.667  0.4888  2.0324  2.5498
  389MOL0     H53675   5.726   0.179   1.547 -0.1451 -3.8547 -0.8306
  389MOL0     H53676   5.625   0.209   1.830  1.9879  3.7981  1.4335
  389MOL0     H53677   5.554   0.327   1.718 -0.4558 -0.1331 -1.0695
  389MOL0     H53678   5.925   0.477   1.698 -1.3777 -0.3739 -2.4402
  389MOL0     H53679   5.707   0.320   1.135  0.6913 -2.4256  3.7029
  389MOL0     H53680   5.662   0.301   0.769 -0.0648 -0.0182 -0.5933
  389MOL0     H53681   5.675   0.427   0.894  0.9008  0.2254 -0.2938
  389MOL0     H53682   5.776   0.285   0.903 -0.0386  1.8017  1.3442
  390MOL0     O53683   6.134   3.903   8.607 -0.0431  0.0501 -0.0491
  390MOL0     C53684   6.188   3.887   8.500 -0.4886 -0.6841  0.0080
  390MOL0     O53685   6.287   3.963   8.463 -0.5797  0.0788  0.1500
  390MOL0     C53686   6.373   4.034   8.545  0.0591 -0.0150  0.8592
  390MOL0     C53687   6.444   4.133   8.471  0.0978 -1.0331 -1.0002
  390MOL0     C53688   6.527   4.220   8.550  0.4705 -0.0864 -0.3021
  390MOL0     C53689   6.545   4.210   8.685  0.7409  0.8108  0.6758
  390MOL0     O53690   6.653   4.272   8.750  0.4382 -0.7311  0.4115
  390MOL0     C53691   6.611   4.345   8.862 -0.0748  0.0952  0.5182
  390MOL0     C53692   6.698   4.471   8.871  0.4788  0.9397  0.2613
  390MOL0     C53693   6.730   4.491   9.017  0.1580  0.0038  0.3089
  390MOL0     C53694   6.868   4.430   9.048  0.4084  0.4610 -0.4764
  390MOL0     C53695   6.898   4.438   9.195  0.7366  0.6758 -0.0742
  390MOL0     C53696   6.922   4.579   9.260 -0.9846  0.8587 -0.1854
  390MOL0     C53697   7.056   4.637   9.218  0.4734 -0.3833 -0.0582
  390MOL0     C53698   7.037   4.783   9.226 -0.2275  0.1719 -0.6530
  390MOL0     N53699   7.120   4.833   9.332 -0.2045  0.0728 -0.2026
  390MOL0     C53700   7.167   4.961   9.339 -0.4906 -0.2902  0.3985
  390MOL0     C53701   7.217   4.974   9.463 -0.7064 -0.1315 -0.8318
  390MOL0     C53702   7.269   5.101   9.524  0.8740  0.7571  0.2961
  390MOL0     C53703   7.185   5.161   9.638  0.8744 -0.5067 -0.9190
  390MOL0     C53704   7.183   5.095   9.775 -0.5750 -0.9150 -0.0487
  390MOL0     C53705   7.124   5.205   9.875  1.0126 -0.0747  0.5407
  390MOL0     O53706   7.124   5.168  10.020 -0.1101  0.9199  0.3302
  390MOL0     C53707   7.213   5.225  10.108 -0.4145 -0.3205 -0.6060
  390MOL0     C53708   7.348   5.230  10.084 -0.4106 -0.3000  1.1822
  390MOL0     C53709   7.450   5.268  10.177 -0.2676 -0.4073 -0.3036
  390MOL0     C53710   7.591   5.229  10.151  0.3510 -0.1357 -0.0175
  390MOL0     C53711   7.412   5.312  10.304  0.3751  0.0043  0.1424
  390MOL0     C53712   7.503   5.358  10.404 -0.0349  0.2004 -1.1789
  390MOL0     O53713   7.615   5.419  10.374  0.0589  0.3283  0.7062
  390MOL0     C53714   7.677   5.493  10.466  0.5389  0.6506  0.2190
  390MOL0     C53715   7.746   5.425  10.575 -0.5222  0.2575 -0.0535
  390MOL0     C53716   7.827   5.489  10.669  0.3322  0.2126  0.7971
  390MOL0     C53717   7.835   5.629  10.651  0.4691 -0.6733 -1.8895
  390MOL0     O53718   7.906   5.690  10.761  0.1094  0.2099  0.9587
  390MOL0     C53719   7.834   5.741  10.871  0.2394  0.4933 -2.2985
  390MOL0     C53720   7.898   5.818  10.983 -0.0333  0.9433  0.5955
  390MOL0     C53721   7.802   5.863  11.091 -0.0531 -0.2316  0.4379
  390MOL0     C53722   7.733   5.768  11.183  0.2932 -1.4283  0.3100
  390MOL0     C53723   7.667   5.830  11.311  0.8902  0.6677  0.2586
  390MOL0     C53724   7.763   5.929  11.389  0.6867 -0.4615  0.4136
  390MOL0     C53725   7.855   5.866  11.512  0.1728 -0.4820  0.6072
  390MOL0     C53726   7.777   5.775  11.605  0.0114  0.6192 -0.7461
  390MOL0    Cl53727   7.882   5.687  11.715  0.3249 -0.2817  0.3362
  390MOL0     C53728   7.771   5.705  10.552  0.0990  0.5915  0.2797
  390MOL0     C53729   7.691   5.635  10.460 -0.3300  0.4914  0.8240
  390MOL0     O53730   7.471   5.339  10.519 -0.3188 -0.0605 -0.2081
  390MOL0     C53731   7.267   5.300  10.335  0.7774  0.4121  0.6282
  390MOL0     C53732   7.165   5.267  10.233 -0.6188  0.3824 -0.3859
  390MOL0     N53733   7.198   4.861   9.535 -0.0366  0.3112  0.1878
  390MOL0     N53734   7.152   4.776   9.447  0.5891 -0.1076  0.0545
  390MOL0     C53735   6.480   4.109   8.746 -0.0229  0.8166  0.4960
  390MOL0     C53736   6.393   4.021   8.682 -0.8795 -0.3472 -0.4646
  390MOL0     C53737   6.130   3.780   8.414 -0.5241  0.1114 -0.5697
  390MOL0     C53738   6.047   3.686   8.478  0.5819 -0.1917  1.0391
  390MOL0     C53739   6.007   3.556   8.422 -1.2198  0.9950 -0.4980
  390MOL0     C53740   6.059   3.526   8.290  0.3727 -0.2038  0.6291
  390MOL0     O53741   6.024   3.407   8.235 -1.0885 -0.0779  0.4092
  390MOL0     C53742   5.882   3.392   8.210 -0.0291 -0.0063 -0.0759
  390MOL0     C53743   5.853   3.250   8.162  0.2473 -0.2492 -0.0626
  390MOL0     C53744   5.913   3.142   8.257  0.1111 -0.1668  0.0959
  390MOL0     C53745   5.895   3.002   8.213  0.9529 -0.4204 -0.7721
  390MOL0     C53746   5.959   2.976   8.082 -1.1775  0.3369 -0.1489
  390MOL0     C53747   6.007   2.976   7.972 -0.1310  0.1131 -0.2061
  390MOL0     C53748   6.133   3.620   8.216  0.3848  1.2081 -0.5594
  390MOL0     C53749   6.171   3.744   8.275 -0.8364 -0.0697 -0.5654
  390MOL0     C53750   6.269   3.830   8.180  0.2131 -0.3687 -1.1574
  390MOL0     H53751   6.438   4.135   8.363 -1.2747 -2.9865 -1.0193
  390MOL0     H53752   6.583   4.290   8.489  1.3798 -0.1683  0.4213
  390MOL0     H53753   6.618   4.283   8.952 -4.5688  0.2613  1.1847
  390MOL0     H53754   6.506   4.373   8.850 -0.1546  0.0807  1.1860
  390MOL0     H53755   6.788   4.448   8.812  2.1014  0.2199  2.8055
  390MOL0     H53756   6.648   4.560   8.834  1.3578  0.8461 -1.2297
  390MOL0     H53757   6.732   4.600   9.031  2.5046 -0.0670  0.9531
  390MOL0     H53758   6.647   4.452   9.077 -1.2178  2.1077 -0.1072
  390MOL0     H53759   6.868   4.328   9.009  1.0474  0.3211 -0.1183
  390MOL0     H53760   6.954   4.471   8.994  0.0895  0.7335 -0.7870
  390MOL0     H53761   6.984   4.376   9.220 -0.2046 -1.3691 -1.6614
  390MOL0     H53762   6.803   4.411   9.242 -0.8490  4.2649 -0.8544
  390MOL0     H53763   6.842   4.645   9.226  1.2682  3.2219 -1.2465
  390MOL0     H53764   6.914   4.564   9.368  3.9365  3.3109  0.7903
  390MOL0     H53765   7.088   4.606   9.118  0.7950  0.6850 -0.3056
  390MOL0     H53766   7.133   4.600   9.286  1.3689  1.0185 -0.2656
  390MOL0     H53767   7.093   4.820   9.140  1.1905 -0.1484  0.1109
  390MOL0     H53768   6.936   4.825   9.231 -0.5962 -0.6042 -1.3868
  390MOL0     H53769   7.150   5.040   9.267 -1.8411  0.9037  1.9547
  390MOL0     H53770   7.278   5.166   9.437  1.5084 -2.5276 -2.3067
  390MOL0     H53771   7.371   5.093   9.564  0.1723 -1.2734  1.8765
  390MOL0     H53772   7.224   5.262   9.654 -2.0524  0.6003 -0.0938
  390MOL0     H53773   7.082   5.164   9.601 -0.2892 -3.9072  1.6216
  390MOL0     H53774   7.116   5.008   9.779  2.6697 -3.6563 -0.7971
  390MOL0     H53775   7.274   5.043   9.804 -0.3218  0.4277  1.7629
  390MOL0     H53776   7.183   5.297   9.862 -1.0755  1.8879  3.5010
  390MOL0     H53777   7.022   5.225   9.841  0.2920 -2.9968  0.7644
  390MOL0     H53778   7.388   5.183   9.995 -2.3810 -1.0692  0.6524
  390MOL0     H53779   7.597   5.164  10.063 -1.5228 -0.8612  0.3266
  390MOL0     H53780   7.616   5.176  10.244 -1.8224 -0.9209  0.1869
  390MOL0     H53781   7.665   5.306  10.129 -0.1377  0.7895  1.4300
  390MOL0     H53782   7.750   5.316  10.579 -1.5559  0.2424  1.5821
  390MOL0     H53783   7.877   5.447  10.755 -2.7434 -0.5646  2.3677
  390MOL0     H53784   7.742   5.795  10.845 -1.4760 -0.9569  0.2723
  390MOL0     H53785   7.798   5.651  10.923  3.4082 -0.8065 -2.1204
  390MOL0     H53786   7.973   5.749  11.022  0.2736  0.1600 -1.2603
  390MOL0     H53787   7.953   5.903  10.940  1.2886  0.0826  0.5375
  390MOL0     H53788   7.731   5.932  11.044 -0.5676  0.3430  1.9737
  390MOL0     H53789   7.866   5.932  11.146  0.4613  0.2411 -0.7357
  390MOL0     H53790   7.801   5.690  11.218  1.0253 -1.1677 -0.5140
  390MOL0     H53791   7.655   5.717  11.124 -1.1288 -1.0138  1.7582
  390MOL0     H53792   7.579   5.892  11.291  0.3875 -0.2925 -0.6059
  390MOL0     H53793   7.623   5.758  11.380  0.0019  0.8688 -0.0775
  390MOL0     H53794   7.708   6.006  11.444  0.0042 -0.9235  0.3947
  390MOL0     H53795   7.825   5.986  11.319  1.1254 -0.0919  1.1005
  390MOL0     H53796   7.883   5.945  11.582  0.3225  0.5552 -0.5965
  390MOL0     H53797   7.941   5.807  11.479  0.5628 -0.6473  1.8480
  390MOL0     H53798   7.726   5.698  11.547  0.9441  0.0796 -0.8705
  390MOL0     H53799   7.704   5.827  11.667 -3.2032 -1.6227 -2.3764
  390MOL0     H53800   7.780   5.811  10.530  0.1505 -0.1183 -3.9952
  390MOL0     H53801   7.647   5.694  10.380 -1.6566  0.7001  1.6840
  390MOL0     H53802   7.234   5.327  10.435 -1.8181 -1.2265  0.2930
  390MOL0     H53803   7.059   5.279  10.254 -0.7143  3.6475 -2.1141
  390MOL0     H53804   6.487   4.094   8.853  2.0944  3.5926  0.8536
  390MOL0     H53805   6.342   3.947   8.743  1.8930 -1.2883  0.8772
  390MOL0     H53806   6.013   3.711   8.578 -2.8783  0.4946 -0.1654
  390MOL0     H53807   5.953   3.495   8.493 -0.1778  0.5554 -0.0525
  390MOL0     H53808   5.824   3.413   8.300 -1.1749  2.9844 -1.3913
  390MOL0     H53809   5.857   3.458   8.126 -0.1706 -2.3677 -2.0087
  390MOL0     H53810   5.899   3.237   8.064  2.9649  1.3512  0.8814
  390MOL0     H53811   5.744   3.239   8.160  0.1586  0.6550 -1.0920
  390MOL0     H53812   6.021   3.155   8.240 -0.5131  2.2980 -2.7328
  390MOL0     H53813   5.884   3.158   8.362 -0.2583 -1.4335  0.2107
  390MOL0     H53814   5.789   2.980   8.207  0.3416  2.2789 -1.3345
  390MOL0     H53815   5.934   2.933   8.288 -1.7411 -0.2329  0.9126
  390MOL0     H53816   6.036   2.969   7.869 -0.2491 -1.2458 -0.1636
  390MOL0     H53817   6.158   3.592   8.114 -0.6175  2.1319 -1.0671
  390MOL0     H53818   6.260   3.808   8.074 -2.8375  0.6486 -1.2190
  390MOL0     H53819   6.245   3.935   8.199  2.1543 -0.0555 -0.2304
  390MOL0     H53820   6.373   3.811   8.210 -0.6804 -2.3388  1.0804
  391MOL0     O53821   2.478   4.017   3.451  0.4459  0.5277  0.2363
  391MOL0     C53822   2.579   4.037   3.518  0.7468 -0.0633  0.0567
  391MOL0     O53823   2.662   4.143   3.513  0.3946 -0.6540  0.1455
  391MOL0     C53824   2.661   4.254   3.424  0.8117 -0.3294  0.3683
  391MOL0     C53825   2.755   4.354   3.440  0.4374 -1.1773 -0.3839
  391MOL0     C53826   2.763   4.475   3.362  0.3226  0.4457  0.0608
  391MOL0     C53827   2.679   4.492   3.253  0.2332  0.5752 -0.5365
  391MOL0     O53828   2.688   4.611   3.185  0.0079 -0.0386 -0.3264
  391MOL0     C53829   2.589   4.640   3.094 -0.1838 -0.3998  0.5180
  391MOL0     C53830   2.650   4.662   2.949 -1.0575 -0.0200  1.1264
  391MOL0     C53831   2.705   4.517   2.905 -1.0163 -0.3448 -0.1832
  391MOL0     C53832   2.807   4.517   2.792  0.2998  0.6633  0.9208
  391MOL0     C53833   2.792   4.380   2.721 -0.3822 -0.6481  0.5451
  391MOL0     C53834   2.892   4.367   2.605  0.0734  0.1929  0.2483
  391MOL0     C53835   3.012   4.304   2.654  0.1287 -0.8354 -0.2496
  391MOL0     C53836   3.112   4.276   2.545 -0.1285  0.0133 -0.3780
  391MOL0     N53837   3.199   4.162   2.568 -0.5601  0.4290 -0.0889
  391MOL0     C53838   3.296   4.137   2.663  0.7356  0.4664  0.3831
  391MOL0     C53839   3.318   4.002   2.649  0.3112 -0.9955 -0.0952
  391MOL0     C53840   3.411   3.928   2.743  0.3641  0.1787  0.0893
  391MOL0     C53841   3.518   3.864   2.656 -0.3907 -0.3851 -0.3319
  391MOL0     C53842   3.481   3.771   2.549 -0.7546 -0.4530 -0.0427
  391MOL0     C53843   3.375   3.667   2.588 -0.2305  0.6358  0.1107
  391MOL0     O53844   3.427   3.578   2.691 -0.7815 -0.0682  0.1561
  391MOL0     C53845   3.446   3.443   2.662  0.5204 -0.7849 -0.5706
  391MOL0     C53846   3.519   3.370   2.752 -0.3393  1.2525  0.9616
  391MOL0     C53847   3.532   3.231   2.749  0.0580 -0.1171 -0.3323
  391MOL0     C53848   3.619   3.185   2.864  0.1213  0.0263  1.4096
  391MOL0     C53849   3.475   3.152   2.638  0.6177  0.3349 -0.6550
  391MOL0     C53850   3.476   3.003   2.626 -0.7975 -0.1308  0.3242
  391MOL0     O53851   3.388   2.946   2.533  0.5260 -0.6442  0.4761
  391MOL0     C53852   3.416   2.819   2.488 -0.0241 -0.6926  0.2195
  391MOL0     C53853   3.309   2.725   2.466  0.4832  0.6436 -0.2407
  391MOL0     C53854   3.320   2.601   2.401  0.2379  0.3140 -0.5054
  391MOL0     C53855   3.447   2.567   2.351 -1.5618  0.3166  1.1465
  391MOL0     O53856   3.463   2.453   2.277  0.1479  0.2043 -0.6885
  391MOL0     C53857   3.590   2.426   2.204 -0.8635 -0.7083  0.1467
  391MOL0     C53858   3.588   2.310   2.107 -0.0949  0.1365  0.0685
  391MOL0     C53859   3.553   2.176   2.160 -0.3332  0.3345 -0.2814
  391MOL0     C53860   3.557   2.075   2.040 -0.7239  0.9584 -0.3060
  391MOL0     C53861   3.559   1.929   2.076 -0.1940  0.0549 -0.5772
  391MOL0     C53862   3.560   1.858   1.947 -0.1997 -0.2338  0.9010
  391MOL0     C53863   3.568   1.709   1.966 -0.4788  0.1780 -0.8086
  391MOL0     C53864   3.640   1.647   1.850 -0.1078  0.3288 -0.9074
  391MOL0    Cl53865   3.632   1.467   1.869  0.0546  0.1115  0.1871
  391MOL0     C53866   3.551   2.661   2.374  0.5690  0.0601  0.4840
  391MOL0     C53867   3.540   2.781   2.443  0.8522  0.0751 -0.4051
  391MOL0     O53868   3.565   2.942   2.690 -0.7271 -0.3746 -0.4026
  391MOL0     C53869   3.414   3.230   2.534  0.1150  0.4129 -1.1623
  391MOL0     C53870   3.392   3.372   2.554  0.2428  0.9903 -0.4164
  391MOL0     N53871   3.238   3.946   2.546 -0.0020  0.3624 -0.1719
  391MOL0     N53872   3.175   4.047   2.503 -0.3207  0.4297  0.1680
  391MOL0     C53873   2.594   4.387   3.231  0.4672 -0.4411 -0.3417
  391MOL0     C53874   2.579   4.272   3.311 -0.0352 -0.7549 -0.2463
  391MOL0     C53875   2.609   3.944   3.620 -0.1967  0.2878  0.4210
  391MOL0     C53876   2.674   3.990   3.736  1.2243  0.1597  0.3299
  391MOL0     C53877   2.682   3.899   3.853 -0.3993 -0.1966  0.5876
  391MOL0     C53878   2.662   3.758   3.828  1.6827 -0.0378  0.5159
  391MOL0     O53879   2.664   3.659   3.923 -0.2147  0.0811  0.1466
  391MOL0     C53880   2.723   3.694   4.047 -0.1931 -0.0447  0.1633
  391MOL0     C53881   2.610   3.747   4.131  0.1720 -0.1844  1.2254
  391MOL0     C53882   2.529   3.630   4.188  0.1232  0.0527 -0.1765
  391MOL0     C53883   2.580   3.568   4.319 -0.6895 -0.5433  0.3117
  391MOL0     C53884   2.648   3.443   4.294  0.8001  0.0282 -0.8049
  391MOL0     C53885   2.707   3.344   4.258  0.1572 -0.1902  0.0962
  391MOL0     C53886   2.611   3.715   3.705 -0.2700  0.4080 -0.4294
  391MOL0     C53887   2.580   3.804   3.604 -0.0860  0.9353  0.2332
  391MOL0     C53888   2.496   3.735   3.502  0.1363 -0.5984 -0.5019
  391MOL0     H53889   2.822   4.345   3.525  0.2779 -3.0299 -0.4034
  391MOL0     H53890   2.831   4.555   3.390 -0.0218 -0.4025  3.9688
  391MOL0     H53891   2.532   4.725   3.134 -0.3368 -1.2887  2.2664
  391MOL0     H53892   2.510   4.565   3.084 -0.0530 -0.7482  1.9025
  391MOL0     H53893   2.572   4.709   2.888  1.0802  4.1116  1.2111
  391MOL0     H53894   2.733   4.732   2.940  2.6245 -4.2133 -1.5297
  391MOL0     H53895   2.761   4.467   2.984 -4.1082 -1.4650  1.4422
  391MOL0     H53896   2.613   4.462   2.888 -0.1082 -1.3198 -2.4166
  391MOL0     H53897   2.790   4.603   2.727 -0.8886 -0.1309  0.1498
  391MOL0     H53898   2.912   4.526   2.821  0.8900 -1.0104 -0.5462
  391MOL0     H53899   2.688   4.369   2.691  0.3225  1.3081 -3.1671
  391MOL0     H53900   2.796   4.295   2.790 -0.2280  0.4082  1.8957
  391MOL0     H53901   2.855   4.297   2.530  1.8874  0.1792 -0.6955
  391MOL0     H53902   2.904   4.465   2.558  1.6949 -0.0776  0.0382
  391MOL0     H53903   2.980   4.205   2.688 -0.4149  0.0095  1.8429
  391MOL0     H53904   3.058   4.355   2.738 -1.3633  0.7031 -0.3211
  391MOL0     H53905   3.064   4.271   2.447  0.8208  1.0293 -0.9207
  391MOL0     H53906   3.183   4.359   2.543  3.5479 -2.8085 -3.5948
  391MOL0     H53907   3.352   4.200   2.731  1.3040  1.6606 -1.1258
  391MOL0     H53908   3.363   3.852   2.805  0.5592  1.6919  2.2173
  391MOL0     H53909   3.459   3.977   2.829  0.0551  0.0811  0.3213
  391MOL0     H53910   3.579   3.943   2.611  2.0545 -0.7951  1.9855
  391MOL0     H53911   3.592   3.817   2.722 -0.6730  1.8229  1.7000
  391MOL0     H53912   3.438   3.838   2.475  1.6132  0.3592 -0.7712
  391MOL0     H53913   3.573   3.733   2.502  0.2173  1.1691  0.4558
  391MOL0     H53914   3.282   3.711   2.625 -1.3747 -1.4367 -0.1558
  391MOL0     H53915   3.352   3.607   2.500 -0.6200 -1.7121  1.7309
  391MOL0     H53916   3.563   3.425   2.835  0.5838  1.1949  0.5337
  391MOL0     H53917   3.677   3.264   2.911  2.6571 -0.6455 -0.3862
  391MOL0     H53918   3.694   3.109   2.838  1.5253  2.0152 -0.6631
  391MOL0     H53919   3.545   3.143   2.933  1.6194  0.5350  3.4085
  391MOL0     H53920   3.210   2.764   2.484 -0.1805 -0.1471 -1.9946
  391MOL0     H53921   3.234   2.545   2.368  2.1557 -0.9533 -3.7742
  391MOL0     H53922   3.610   2.513   2.140 -0.0262 -1.2073 -0.2787
  391MOL0     H53923   3.681   2.410   2.261 -0.2335  0.1394 -0.5962
  391MOL0     H53924   3.515   2.325   2.027 -0.0165 -1.7732 -0.4269
  391MOL0     H53925   3.681   2.295   2.050 -1.2439 -2.7195 -1.2848
  391MOL0     H53926   3.457   2.168   2.214  1.0358 -4.8245  2.0069
  391MOL0     H53927   3.630   2.159   2.236 -0.1021  0.7359 -0.4263
  391MOL0     H53928   3.655   2.096   1.995 -0.7321  2.5957  0.3624
  391MOL0     H53929   3.485   2.109   1.965  2.2990  0.1686 -3.8755
  391MOL0     H53930   3.651   1.905   2.131  1.0181 -0.0607 -2.5804
  391MOL0     H53931   3.473   1.905   2.139  1.5978 -1.4548  1.4583
  391MOL0     H53932   3.648   1.892   1.891 -0.9346  0.1279 -0.0536
  391MOL0     H53933   3.479   1.895   1.884  0.1383 -2.1089 -0.7613
  391MOL0     H53934   3.470   1.663   1.983 -1.1831  1.5318 -1.0308
  391MOL0     H53935   3.623   1.689   2.058  1.7162  1.1208 -1.8415
  391MOL0     H53936   3.744   1.680   1.846  0.7980 -1.4277  3.2731
  391MOL0     H53937   3.585   1.662   1.757 -2.2392 -0.9192  0.0789
  391MOL0     H53938   3.649   2.639   2.333  0.5822 -0.6357  0.8753
  391MOL0     H53939   3.630   2.840   2.450  0.8475 -0.1196  3.6651
  391MOL0     H53940   3.377   3.190   2.441  1.0992 -0.6310 -1.1234
  391MOL0     H53941   3.313   3.405   2.489  0.3451  1.6396 -0.2151
  391MOL0     H53942   2.529   4.387   3.144 -1.5375  1.5543  1.0353
  391MOL0     H53943   2.508   4.193   3.286 -0.2680 -0.8079  0.5476
  391MOL0     H53944   2.697   4.095   3.751  2.4204  0.1571 -1.2225
  391MOL0     H53945   2.723   3.956   3.935  1.4932 -0.7410  0.0634
  391MOL0     H53946   2.769   3.606   4.094 -5.2177 -3.0034  0.3586
  391MOL0     H53947   2.796   3.775   4.046 -1.2954  0.9929 -1.3814
  391MOL0     H53948   2.540   3.802   4.068 -0.4903 -1.6558  0.6113
  391MOL0     H53949   2.633   3.820   4.209  0.9690 -0.5967  1.3868
  391MOL0     H53950   2.430   3.671   4.210 -0.0221 -1.3216  1.9368
  391MOL0     H53951   2.513   3.567   4.100 -2.5161  1.6233 -0.9414
  391MOL0     H53952   2.492   3.569   4.384  0.5182 -3.3239  2.1555
  391MOL0     H53953   2.659   3.627   4.367 -2.1784  1.4921  0.3940
  391MOL0     H53954   2.775   3.266   4.228  0.7285 -0.7558  2.6117
  391MOL0     H53955   2.588   3.609   3.695 -0.5001  0.5865 -2.0179
  391MOL0     H53956   2.514   3.628   3.487 -3.4680 -1.0132 -3.0783
  391MOL0     H53957   2.391   3.744   3.534 -0.2592 -1.6620 -1.4119
  391MOL0     H53958   2.502   3.786   3.406 -1.5293  0.9726  0.1648
  392MOL0     O53959  11.336   1.995   6.477 -0.9109 -0.1710 -0.0825
  392MOL0     C53960  11.248   1.988   6.389  0.7945 -1.4652  0.5563
  392MOL0     O53961  11.178   2.097   6.348  0.4312  0.5690  0.9180
  392MOL0     C53962  11.185   2.208   6.428 -0.0037 -0.1480 -0.3229
  392MOL0     C53963  11.282   2.306   6.406 -0.3333 -0.4366 -0.6183
  392MOL0     C53964  11.310   2.399   6.513 -0.1003 -0.6231 -0.2613
  392MOL0     C53965  11.235   2.397   6.638 -0.7718  0.0625  0.7869
  392MOL0     O53966  11.276   2.487   6.730  0.2833  1.2115 -0.4666
  392MOL0     C53967  11.229   2.466   6.859 -0.7261 -0.2526 -0.7261
  392MOL0     C53968  11.107   2.555   6.866  0.0025 -0.5466 -0.0500
  392MOL0     C53969  11.126   2.709   6.864 -0.4001  0.0770  0.1941
  392MOL0     C53970  11.028   2.772   6.969  1.1459  0.5173  1.2563
  392MOL0     C53971  11.036   2.933   6.969  0.6262  0.3318 -0.5042
  392MOL0     C53972  10.976   2.982   7.103 -0.1693 -0.6169  0.1995
  392MOL0     C53973  11.033   3.112   7.177 -0.2299 -0.5538 -0.3313
  392MOL0     C53974  11.182   3.114   7.200  0.2945  0.9390  0.8575
  392MOL0     N53975  11.226   2.996   7.274 -0.2720  0.1422  0.0198
  392MOL0     C53976  11.318   2.902   7.236 -0.4906 -0.2424 -0.7215
  392MOL0     C53977  11.354   2.831   7.343  0.2761 -0.6083 -0.6144
  392MOL0     C53978  11.473   2.740   7.347  1.1529 -0.2735 -0.7110
  392MOL0     C53979  11.596   2.825   7.387 -0.3241  0.1520  0.5672
  392MOL0     C53980  11.707   2.739   7.466  0.9303 -0.4131  0.1206
  392MOL0     C53981  11.831   2.830   7.485 -1.0133  0.1456 -0.2219
  392MOL0     O53982  11.822   2.904   7.615 -0.5714 -0.1930  0.2364
  392MOL0     C53983  11.923   3.003   7.638  0.3035  0.5037 -0.5616
  392MOL0     C53984  12.035   3.021   7.548  0.1030 -0.3425 -0.4623
  392MOL0     C53985  12.135   3.120   7.587  0.1621  0.3458 -0.2559
  392MOL0     C53986  12.257   3.126   7.492  0.6273 -0.2926  0.7826
  392MOL0     C53987  12.117   3.203   7.697 -0.3625 -0.4273  0.2593
  392MOL0     C53988  12.222   3.305   7.726  0.5633  0.9478  0.4592
  392MOL0     O53989  12.268   3.297   7.850  0.6589 -0.7590  0.2220
  392MOL0     C53990  12.368   3.385   7.894  0.1209  0.0729  0.1050
  392MOL0     C53991  12.339   3.523   7.920 -0.0305  0.3331 -0.7348
  392MOL0     C53992  12.447   3.603   7.947  0.3907  0.3186  0.0338
  392MOL0     C53993  12.579   3.564   7.952  0.4793  0.3905 -0.8139
  392MOL0     O53994  12.669   3.653   7.985 -0.8013  0.9145 -0.3146
  392MOL0     C53995  12.684   3.676   8.128  0.4095 -1.2294  0.3307
  392MOL0     C53996  12.756   3.559   8.201 -0.5392  0.4263 -0.4666
  392MOL0     C53997  12.752   3.577   8.353 -0.0233  0.1065  0.7343
  392MOL0     C53998  12.798   3.447   8.431  0.1416 -0.2854  0.1351
  392MOL0     C53999  12.945   3.432   8.458 -0.0109  0.9141  0.4051
  392MOL0     C54000  12.981   3.352   8.587 -0.6873  0.0842 -0.1107
  392MOL0     C54001  13.137   3.373   8.614  0.4179  0.3233  0.4791
  392MOL0     C54002  13.198   3.277   8.712 -0.0382 -0.3568 -1.1872
  392MOL0    Cl54003  13.106   3.303   8.860 -0.0028  0.1232 -0.1048
  392MOL0     C54004  12.610   3.427   7.929 -1.0128 -0.3873  0.1325
  392MOL0     C54005  12.503   3.341   7.904  0.4014 -0.6320  1.2523
  392MOL0     O54006  12.252   3.393   7.646 -0.6058  0.7840 -0.0024
  392MOL0     C54007  11.999   3.184   7.776  0.7888  0.5493  0.4256
  392MOL0     C54008  11.909   3.081   7.749  0.5189 -0.2979 -0.7079
  392MOL0     N54009  11.277   2.874   7.449  0.3677 -0.2382 -0.5155
  392MOL0     N54010  11.197   2.971   7.405 -0.3144  0.1252  0.5077
  392MOL0     C54011  11.138   2.297   6.649 -0.0800 -0.2400 -0.2676
  392MOL0     C54012  11.119   2.196   6.560  0.8695 -0.1922 -0.0940
  392MOL0     C54013  11.225   1.871   6.302 -0.1890  0.8175 -0.0138
  392MOL0     C54014  11.125   1.879   6.201  0.2400  0.7644 -0.6077
  392MOL0     C54015  11.101   1.761   6.122  0.2922 -0.7627  0.1421
  392MOL0     C54016  11.165   1.643   6.139 -0.7054 -1.2229  0.0470
  392MOL0     O54017  11.170   1.525   6.069  0.8007 -0.9288 -0.0301
  392MOL0     C54018  11.072   1.512   5.967  0.3249  0.4530  0.5319
  392MOL0     C54019  11.151   1.536   5.841  0.6397 -0.4103 -1.8597
  392MOL0     C54020  11.096   1.473   5.716  0.6774 -0.0480 -0.5588
  392MOL0     C54021  11.182   1.490   5.586  0.4272 -0.0460  0.2417
  392MOL0     C54022  11.231   1.624   5.569 -0.7674 -0.1615 -0.2425
  392MOL0     C54023  11.273   1.738   5.549  0.0510 -0.1708 -0.5597
  392MOL0     C54024  11.263   1.645   6.242  0.2460  1.6228 -0.3770
  392MOL0     C54025  11.301   1.753   6.320  0.5961 -0.5534  0.7364
  392MOL0     C54026  11.408   1.722   6.430 -0.4153 -0.3172  0.4551
  392MOL0     H54027  11.342   2.315   6.316 -1.5430  2.4479 -1.2629
  392MOL0     H54028  11.395   2.464   6.494  0.2396  0.2226  3.4138
  392MOL0     H54029  11.306   2.494   6.932  1.4177 -0.6894 -2.7011
  392MOL0     H54030  11.209   2.362   6.882  0.8776 -0.8307 -1.7263
  392MOL0     H54031  11.034   2.538   6.787 -0.2312  0.0951  0.0242
  392MOL0     H54032  11.054   2.527   6.958  1.5599 -0.9333  0.7649
  392MOL0     H54033  11.230   2.731   6.889  0.0017 -0.3291 -1.0533
  392MOL0     H54034  11.110   2.752   6.764 -0.6669  0.3705  0.3630
  392MOL0     H54035  10.929   2.750   6.928  2.1127 -1.1198 -0.3355
  392MOL0     H54036  11.050   2.731   7.068  2.5113  0.5709  0.9902
  392MOL0     H54037  10.987   2.981   6.883  0.3490  0.8869 -0.0444
  392MOL0     H54038  11.142   2.958   6.976  1.0518 -1.3319 -0.6029
  392MOL0     H54039  10.868   2.985   7.089 -0.3041 -1.2089  1.0280
  392MOL0     H54040  10.984   2.911   7.186  0.0770  2.6208  3.1852
  392MOL0     H54041  10.982   3.110   7.274  0.7801 -1.1053  0.2005
  392MOL0     H54042  11.003   3.204   7.125  2.1229  0.3148 -0.2542
  392MOL0     H54043  11.240   3.116   7.107 -2.6199  0.8072 -1.0659
  392MOL0     H54044  11.210   3.201   7.260  0.0536 -0.0088  2.3850
  392MOL0     H54045  11.383   2.894   7.149  0.4932  2.8393 -0.4133
  392MOL0     H54046  11.481   2.691   7.249  0.6373 -2.0283  0.0771
  392MOL0     H54047  11.445   2.657   7.414 -0.9344 -0.3653 -1.6251
  392MOL0     H54048  11.640   2.859   7.293 -1.1926 -1.8882 -0.6429
  392MOL0     H54049  11.556   2.910   7.443  0.5835  1.4598 -0.6777
  392MOL0     H54050  11.679   2.709   7.567  3.8055  2.1272  1.8560
  392MOL0     H54051  11.748   2.656   7.407 -3.3371 -0.7798 -2.7650
  392MOL0     H54052  11.912   2.756   7.486  0.0933  1.3168 -0.1944
  392MOL0     H54053  11.839   2.895   7.398 -0.5835 -0.3638 -0.5658
  392MOL0     H54054  12.062   2.953   7.469  2.3290 -2.8797  2.2332
  392MOL0     H54055  12.262   3.220   7.436 -3.0949  0.3081  1.1452
  392MOL0     H54056  12.260   3.052   7.412  4.4785 -1.9279  2.2188
  392MOL0     H54057  12.348   3.100   7.546  0.9480  0.3436  0.5565
  392MOL0     H54058  12.237   3.559   7.906 -0.8578 -1.3931  0.5256
  392MOL0     H54059  12.417   3.703   7.977 -1.4298 -0.2778  0.3365
  392MOL0     H54060  12.744   3.767   8.133  0.3954 -1.2667  1.6739
  392MOL0     H54061  12.587   3.692   8.176 -0.4372 -4.9426  0.1779
  392MOL0     H54062  12.702   3.466   8.182  1.0418 -0.9829  1.5319
  392MOL0     H54063  12.861   3.547   8.173  0.1424  2.9285  0.6987
  392MOL0     H54064  12.648   3.602   8.377  0.0222  4.8844 -2.6670
  392MOL0     H54065  12.807   3.664   8.390 -0.6170  1.5018 -1.4614
  392MOL0     H54066  12.751   3.358   8.387  1.3999  0.0584 -2.0667
  392MOL0     H54067  12.734   3.438   8.519 -2.5643  0.7103 -1.5925
  392MOL0     H54068  12.987   3.381   8.370 -2.6355 -1.9858  0.6601
  392MOL0     H54069  12.989   3.532   8.457  0.0632  0.8827  0.5066
  392MOL0     H54070  12.943   3.251   8.571 -4.6948  1.6085 -1.5553
  392MOL0     H54071  12.933   3.408   8.668  1.6333  3.3926 -0.7735
  392MOL0     H54072  13.153   3.478   8.642 -1.4905  0.2758  1.9639
  392MOL0     H54073  13.188   3.350   8.520  1.0854 -0.7997  1.0953
  392MOL0     H54074  13.297   3.305   8.747 -1.8309 -0.2677  4.9200
  392MOL0     H54075  13.201   3.170   8.688  0.5900 -1.0442  1.6193
  392MOL0     H54076  12.713   3.394   7.925 -0.5741  0.8421  0.7897
  392MOL0     H54077  12.513   3.234   7.885 -0.4505 -0.3889 -0.7414
  392MOL0     H54078  11.995   3.241   7.868  3.0026  3.4295 -1.0974
  392MOL0     H54079  11.829   3.051   7.817  1.0763  1.1799  0.6458
  392MOL0     H54080  11.084   2.299   6.743  0.4470  0.2376  0.0373
  392MOL0     H54081  11.050   2.113   6.572 -1.2079  1.1684 -1.9200
  392MOL0     H54082  11.065   1.966   6.179  0.2738  1.2189  0.9873
  392MOL0     H54083  11.030   1.771   6.039 -2.2375 -1.2897  2.1060
  392MOL0     H54084  11.028   1.412   5.974  0.8167  0.0278 -1.7890
  392MOL0     H54085  10.987   1.580   5.965  0.2840  0.4456  1.4198
  392MOL0     H54086  11.242   1.479   5.861 -0.9813 -2.2851  0.8589
  392MOL0     H54087  11.165   1.644   5.836 -1.1207  0.1010  1.2366
  392MOL0     H54088  11.084   1.368   5.745 -3.1312  0.8075  1.7542
  392MOL0     H54089  10.994   1.513   5.708 -0.8561 -2.7068  2.9261
  392MOL0     H54090  11.123   1.465   5.498  0.3038 -2.0566  0.8437
  392MOL0     H54091  11.251   1.406   5.600 -0.1500 -0.3643  1.3232
  392MOL0     H54092  11.307   1.834   5.514 -0.8003  0.1703 -0.4872
  392MOL0     H54093  11.327   1.558   6.251  1.1618  2.5465  4.0255
  392MOL0     H54094  11.365   1.740   6.529 -3.3101  1.8202 -1.0115
  392MOL0     H54095  11.444   1.620   6.415  1.9002  0.2379  1.8308
  392MOL0     H54096  11.494   1.789   6.419 -0.0392 -0.7338  0.8378
  393MOL0     O54097   9.098   6.970   6.108  0.3819  0.3223  0.7112
  393MOL0     C54098   9.029   7.072   6.093 -0.2952  1.1900 -0.3207
  393MOL0     O54099   8.919   7.086   6.013 -0.1630  0.0591  0.5926
  393MOL0     C54100   8.887   6.991   5.917  0.4117 -0.0238  0.0143
  393MOL0     C54101   8.912   7.016   5.778 -0.8113 -0.0807  0.4607
  393MOL0     C54102   8.850   6.938   5.682  0.3437  0.3531  0.1787
  393MOL0     C54103   8.773   6.813   5.721 -0.3618 -0.3764 -0.2422
  393MOL0     O54104   8.702   6.731   5.637 -0.3137  0.1743  0.4475
  393MOL0     C54105   8.777   6.675   5.531  0.3346  0.5917 -0.4749
  393MOL0     C54106   8.728   6.529   5.502 -0.3513 -0.1966 -0.2716
  393MOL0     C54107   8.786   6.427   5.595 -0.8923 -0.1481  0.0571
  393MOL0     C54108   8.723   6.291   5.570 -0.3742  0.8999  0.0534
  393MOL0     C54109   8.799   6.179   5.640 -0.7416 -0.9445  0.5848
  393MOL0     C54110   8.747   6.040   5.593  1.0336 -0.5944  0.4577
  393MOL0     C54111   8.802   5.914   5.666  0.4763 -0.3594  0.3819
  393MOL0     C54112   8.769   5.897   5.817 -0.6712 -0.9241  1.2068
  393MOL0     N54113   8.822   5.770   5.875  0.1095 -0.7735  0.9205
  393MOL0     C54114   8.920   5.695   5.823 -0.9124 -0.4348 -0.1786
  393MOL0     C54115   8.913   5.577   5.882 -0.0035  1.1428  0.4854
  393MOL0     C54116   8.992   5.447   5.843 -0.0541 -0.1188  0.2024
  393MOL0     C54117   8.889   5.376   5.757 -0.2638 -0.1873 -0.6218
  393MOL0     C54118   8.946   5.248   5.692  0.7500  0.3933  0.1119
  393MOL0     C54119   9.023   5.161   5.780 -0.3201 -0.0079 -0.5720
  393MOL0     O54120   8.972   5.157   5.916 -0.4739 -0.3723  0.4821
  393MOL0     C54121   9.029   5.072   6.007  1.0510  0.6403  0.3442
  393MOL0     C54122   9.125   4.966   5.979  0.4882  0.0933 -1.1606
  393MOL0     C54123   9.195   4.901   6.089 -0.6118 -0.9014 -0.2641
  393MOL0     C54124   9.280   4.788   6.057  0.5505  0.1401 -0.1153
  393MOL0     C54125   9.173   4.938   6.225 -0.8086  0.1031 -0.3845
  393MOL0     C54126   9.244   4.872   6.335 -1.1503  1.2153 -0.0593
  393MOL0     O54127   9.288   4.959   6.431 -0.0271 -0.1057 -0.0709
  393MOL0     C54128   9.381   4.931   6.530 -0.9709 -0.3635  0.0952
  393MOL0     C54129   9.504   4.884   6.482  0.4204  0.0246 -0.4650
  393MOL0     C54130   9.608   4.854   6.565  0.9656  0.2800 -0.1900
  393MOL0     C54131   9.601   4.891   6.700  0.7120  0.6845  0.3894
  393MOL0     O54132   9.705   4.846   6.773 -0.2522 -0.2252 -0.4132
  393MOL0     C54133   9.697   4.838   6.913 -0.4241  0.9323  0.1119
  393MOL0     C54134   9.598   4.721   6.936 -1.2174  0.7103  0.5160
  393MOL0     C54135   9.608   4.677   7.081  0.6698  1.7588  0.5049
  393MOL0     C54136   9.494   4.579   7.104  0.1426  1.5024 -0.1452
  393MOL0     C54137   9.491   4.501   7.236 -0.1771  0.1440  0.2879
  393MOL0     C54138   9.446   4.593   7.345 -0.0416 -0.7902 -0.4606
  393MOL0     C54139   9.335   4.539   7.437  0.8861  0.4041  0.3575
  393MOL0     C54140   9.281   4.641   7.534  0.0803  0.8827 -0.1398
  393MOL0    Cl54141   9.139   4.563   7.621 -0.0396 -0.1929 -0.3286
  393MOL0     C54142   9.480   4.944   6.748  0.2353 -0.3774 -0.4458
  393MOL0     C54143   9.365   4.956   6.669 -0.3765 -0.0072  0.5515
  393MOL0     O54144   9.255   4.751   6.340  0.6180  0.0876 -0.0210
  393MOL0     C54145   9.084   5.043   6.255  0.3974  0.2375 -0.1376
  393MOL0     C54146   9.013   5.102   6.149 -0.6876  0.2501 -0.3326
  393MOL0     N54147   8.798   5.581   5.962  0.7441 -0.1016 -0.0260
  393MOL0     N54148   8.758   5.703   5.969 -0.6095 -0.4664  0.0867
  393MOL0     C54149   8.742   6.793   5.852  0.3671  0.7048  0.8229
  393MOL0     C54150   8.807   6.878   5.949 -0.1131 -0.1562  1.4338
  393MOL0     C54151   9.055   7.175   6.192  0.9622 -0.4218  0.2941
  393MOL0     C54152   9.170   7.255   6.179  0.0951 -0.4282 -0.1172
  393MOL0     C54153   9.188   7.366   6.257  0.4561 -0.0020 -0.4120
  393MOL0     C54154   9.084   7.419   6.339 -0.0078  0.6260  0.0877
  393MOL0     O54155   9.104   7.539   6.406 -0.6673  0.4324  1.3675
  393MOL0     C54156   9.081   7.665   6.336 -0.6578  0.6491  0.4198
  393MOL0     C54157   9.209   7.751   6.338  0.1884 -1.1842 -0.9567
  393MOL0     C54158   9.193   7.884   6.257  0.4695  0.2137 -0.7706
  393MOL0     C54159   9.190   7.856   6.108  1.3535  0.4909 -0.5805
  393MOL0     C54160   9.331   7.830   6.068 -0.7584  0.6717 -1.2367
  393MOL0     C54161   9.445   7.817   6.034 -0.0396 -0.6951 -0.3676
  393MOL0     C54162   8.970   7.346   6.348 -0.9112 -0.4998 -0.4769
  393MOL0     C54163   8.957   7.228   6.274  0.5711  0.4811 -1.1544
  393MOL0     C54164   8.824   7.157   6.288  0.1931  0.1847 -0.2018
  393MOL0     H54165   8.970   7.104   5.751  1.1408 -1.3990  0.1410
  393MOL0     H54166   8.859   6.957   5.576  1.9433 -2.4500 -0.2822
  393MOL0     H54167   8.886   6.680   5.534  0.5694 -1.8981 -1.5537
  393MOL0     H54168   8.743   6.715   5.435 -1.7409 -2.9282 -1.4363
  393MOL0     H54169   8.620   6.537   5.517 -0.1915  0.1240  0.8174
  393MOL0     H54170   8.738   6.509   5.395 -3.0700  4.6176 -1.7085
  393MOL0     H54171   8.894   6.434   5.577 -0.9225 -2.0831 -1.1931
  393MOL0     H54172   8.770   6.454   5.699 -0.5697  0.9302 -0.1540
  393MOL0     H54173   8.622   6.293   5.613  0.8177  1.0262  3.0101
  393MOL0     H54174   8.703   6.269   5.464 -1.0119  0.5955  0.2318
  393MOL0     H54175   8.783   6.193   5.748 -0.5272  4.4839  0.1730
  393MOL0     H54176   8.908   6.186   5.626 -0.5401 -3.5478  0.3852
  393MOL0     H54177   8.638   6.033   5.603  0.8866  0.8080 -0.0294
  393MOL0     H54178   8.773   6.019   5.489 -1.5138  0.0548 -0.3847
  393MOL0     H54179   8.910   5.912   5.651  0.1833 -2.2968 -2.0655
  393MOL0     H54180   8.763   5.831   5.607  1.5279  0.3674 -1.3935
  393MOL0     H54181   8.809   5.981   5.873 -2.7828  0.7811  0.2907
  393MOL0     H54182   8.663   5.894   5.842 -0.9905  0.1939  0.0943
  393MOL0     H54183   8.992   5.720   5.746 -0.7717  2.9469  0.8877
  393MOL0     H54184   9.028   5.389   5.928  2.1023 -0.4768 -0.8984
  393MOL0     H54185   9.078   5.460   5.777 -2.5521 -0.6470 -3.4231
  393MOL0     H54186   8.814   5.324   5.817 -1.2703  0.1932 -1.5055
  393MOL0     H54187   8.833   5.431   5.680  1.0927 -0.4993 -1.8797
  393MOL0     H54188   8.854   5.195   5.663  1.9639 -0.9472 -1.5218
  393MOL0     H54189   8.996   5.272   5.598  1.5404 -3.5250 -0.6572
  393MOL0     H54190   9.024   5.062   5.733  0.5033 -0.9407  1.2975
  393MOL0     H54191   9.128   5.193   5.784 -0.9070  2.8496  6.3090
  393MOL0     H54192   9.151   4.929   5.880  6.1246  3.1795 -1.2498
  393MOL0     H54193   9.326   4.806   5.959 -5.3038 -0.3423 -3.4022
  393MOL0     H54194   9.223   4.697   6.037  2.6420 -0.8899 -1.8984
  393MOL0     H54195   9.360   4.761   6.127  0.6181  1.0122  0.1622
  393MOL0     H54196   9.524   4.867   6.376  1.4229 -0.4226 -0.2136
  393MOL0     H54197   9.692   4.800   6.524 -0.7244 -2.8539  0.1528
  393MOL0     H54198   9.793   4.802   6.950 -0.8278 -0.2984  0.0256
  393MOL0     H54199   9.663   4.937   6.945  1.4698  1.5073  0.4728
  393MOL0     H54200   9.497   4.757   6.915  0.5737  4.7779 -2.5919
  393MOL0     H54201   9.616   4.639   6.866  1.2194  2.3625 -0.9594
  393MOL0     H54202   9.621   4.768   7.141  4.3671  0.2571  2.3383
  393MOL0     H54203   9.701   4.626   7.108 -0.7005  0.7485  3.7079
  393MOL0     H54204   9.510   4.502   7.028 -2.7952  0.5355  0.0947
  393MOL0     H54205   9.401   4.629   7.078  0.6092  1.6843 -1.5479
  393MOL0     H54206   9.414   4.423   7.232  0.1758 -0.1627 -0.8009
  393MOL0     H54207   9.580   4.444   7.262 -1.5475 -1.6188  1.3500
  393MOL0     H54208   9.410   4.685   7.299 -0.8871 -0.7676  0.2210
  393MOL0     H54209   9.532   4.611   7.411 -0.1718 -1.5340 -0.0725
  393MOL0     H54210   9.373   4.457   7.499  0.7873  0.3929  0.4041
  393MOL0     H54211   9.257   4.504   7.369  0.9791  2.9306 -1.1612
  393MOL0     H54212   9.246   4.725   7.474 -0.8929 -0.1971 -1.1358
  393MOL0     H54213   9.358   4.681   7.601  2.1464 -1.4047 -0.9811
  393MOL0     H54214   9.473   4.975   6.852 -2.0464  4.9632 -1.8445
  393MOL0     H54215   9.277   5.008   6.704  0.8985  2.0209  0.9184
  393MOL0     H54216   9.068   5.066   6.360  2.0476 -2.0877  0.7011
  393MOL0     H54217   8.946   5.184   6.171 -1.6720  0.5319 -3.7887
  393MOL0     H54218   8.667   6.722   5.885 -1.0950  1.1273 -1.3525
  393MOL0     H54219   8.786   6.858   6.054  1.9182 -3.0136  1.4037
  393MOL0     H54220   9.250   7.220   6.114 -0.9509 -1.3092 -0.9518
  393MOL0     H54221   9.286   7.413   6.257  0.8721 -0.7212  2.1460
  393MOL0     H54222   9.041   7.647   6.236  3.3491 -0.5994 -1.1565
  393MOL0     H54223   9.010   7.727   6.392 -0.0758  2.2440 -0.5393
  393MOL0     H54224   9.291   7.698   6.288  0.7775 -1.6010  0.3964
  393MOL0     H54225   9.228   7.774   6.443  3.4397  0.6171 -1.8123
  393MOL0     H54226   9.090   7.913   6.281 -0.0017 -2.9633  1.7534
  393MOL0     H54227   9.268   7.958   6.288  2.1070 -0.9018 -1.9622
  393MOL0     H54228   9.132   7.938   6.064 -0.6239  0.1971  1.3130
  393MOL0     H54229   9.134   7.762   6.100 -0.1556  1.2215  0.6666
  393MOL0     H54230   9.550   7.818   6.017  0.1804  2.4615  0.4316
  393MOL0     H54231   8.897   7.395   6.411 -0.3921  3.3647 -2.5802
  393MOL0     H54232   8.824   7.049   6.302 -1.9508  0.0312 -0.9176
  393MOL0     H54233   8.771   7.180   6.380 -2.9196 -1.1470 -1.5165
  393MOL0     H54234   8.752   7.172   6.207  0.1354  0.8425 -0.0407
  394MOL0     O54235   1.222   2.422   3.102  0.0014  0.3988  0.8594
  394MOL0     C54236   1.226   2.299   3.091  0.3948 -0.1776  0.9838
  394MOL0     O54237   1.271   2.227   2.986 -0.5968 -0.2499 -0.5917
  394MOL0     C54238   1.326   2.289   2.878  0.3943  0.2696  0.7670
  394MOL0     C54239   1.456   2.332   2.873 -0.8614 -0.3234 -0.0270
  394MOL0     C54240   1.506   2.358   2.738 -0.1579 -1.2662 -0.2814
  394MOL0     C54241   1.432   2.359   2.625 -0.5059  0.5483 -0.6198
  394MOL0     O54242   1.486   2.350   2.502 -0.4305 -0.1835  0.2222
  394MOL0     C54243   1.618   2.400   2.495  0.8655 -0.1589  0.2118
  394MOL0     C54244   1.641   2.445   2.350  0.7250  0.1877  0.2884
  394MOL0     C54245   1.757   2.548   2.343  0.0002  0.4040 -0.6001
  394MOL0     C54246   1.774   2.603   2.198 -0.3217  0.3957 -1.5035
  394MOL0     C54247   1.871   2.720   2.186 -0.8291 -0.3265  0.4483
  394MOL0     C54248   2.009   2.712   2.267 -0.2901 -0.1626  0.1900
  394MOL0     C54249   2.105   2.600   2.209 -0.6890  0.7576  0.5734
  394MOL0     C54250   2.181   2.634   2.076 -0.5814 -0.8010  0.1980
  394MOL0     N54251   2.275   2.755   2.091  0.7532  0.2681  0.3196
  394MOL0     C54252   2.252   2.885   2.055 -0.3246 -0.3291 -0.8973
  394MOL0     C54253   2.359   2.953   2.115 -0.7005 -0.1712  0.7893
  394MOL0     C54254   2.381   3.102   2.105  0.3045  0.2007  0.1298
  394MOL0     C54255   2.461   3.129   1.980  0.3308  0.6861 -0.1121
  394MOL0     C54256   2.438   3.274   1.927 -0.8168  1.0479 -0.2007
  394MOL0     C54257   2.294   3.311   1.922 -0.4209 -0.4232 -0.4976
  394MOL0     O54258   2.280   3.424   1.836 -0.3015 -0.0530  0.5738
  394MOL0     C54259   2.161   3.493   1.826 -0.3607  0.0932 -0.1399
  394MOL0     C54260   2.051   3.446   1.882 -0.4020 -0.0421 -1.1699
  394MOL0     C54261   1.934   3.511   1.874 -0.0268 -0.0529  0.1558
  394MOL0     C54262   1.830   3.476   1.972  0.5253 -0.0997  0.0817
  394MOL0     C54263   1.925   3.629   1.782 -0.0423  0.3351 -0.2659
  394MOL0     C54264   1.799   3.702   1.755  0.2162  0.6306 -0.0227
  394MOL0     O54265   1.818   3.828   1.687  0.1970  1.0413  0.1130
  394MOL0     C54266   1.706   3.895   1.646 -1.4247 -0.7401 -1.4884
  394MOL0     C54267   1.607   3.858   1.551  0.7113 -0.5892 -0.6309
  394MOL0     C54268   1.512   3.941   1.509 -0.2555 -0.0255 -0.0046
  394MOL0     C54269   1.502   4.077   1.568 -0.2294  0.0273  0.8871
  394MOL0     O54270   1.401   4.161   1.524 -0.2370  0.3830  0.4385
  394MOL0     C54271   1.335   4.251   1.617 -0.3097  0.4579 -0.2136
  394MOL0     C54272   1.259   4.355   1.542  0.3473 -0.4079 -0.1323
  394MOL0     C54273   1.216   4.467   1.642 -0.7060 -0.0024 -0.6642
  394MOL0     C54274   1.070   4.493   1.650 -0.3643  0.6413 -0.0165
  394MOL0     C54275   1.052   4.602   1.750 -0.2372  0.3522  0.1803
  394MOL0     C54276   0.909   4.651   1.742  0.6376 -0.8626  0.3369
  394MOL0     C54277   0.876   4.752   1.859 -0.4735  0.5509 -1.3197
  394MOL0     C54278   0.860   4.678   1.997  1.1867 -0.9994 -0.4225
  394MOL0    Cl54279   0.697   4.729   2.069 -0.0979  0.1488 -0.7269
  394MOL0     C54280   1.576   4.106   1.679 -0.1673  0.7775 -0.9850
  394MOL0     C54281   1.684   4.018   1.713 -0.0524  0.6229  0.4121
  394MOL0     O54282   1.698   3.644   1.793 -0.0103 -0.4858  0.6187
  394MOL0     C54283   2.036   3.668   1.705 -0.0679 -0.4805 -0.4545
  394MOL0     C54284   2.158   3.597   1.728 -0.7763  1.0345  0.7486
  394MOL0     N54285   2.449   2.855   2.170  0.3812  0.0574  0.0717
  394MOL0     N54286   2.391   2.742   2.161  0.7049 -0.9104 -0.1056
  394MOL0     C54287   1.295   2.341   2.642 -0.7063  0.1562  0.7344
  394MOL0     C54288   1.240   2.302   2.767 -0.1063  0.4439 -0.4365
  394MOL0     C54289   1.168   2.223   3.212  0.3891 -0.6211  1.1184
  394MOL0     C54290   1.147   2.289   3.336 -0.5542 -0.8746  0.5871
  394MOL0     C54291   1.087   2.224   3.445  0.6185 -0.7751 -0.6219
  394MOL0     C54292   1.048   2.092   3.441 -0.6061 -0.6034  0.8802
  394MOL0     O54293   0.979   2.043   3.545 -0.5477  0.1370  0.1739
  394MOL0     C54294   0.921   1.912   3.538  0.5338  1.0607 -0.3035
  394MOL0     C54295   0.843   1.870   3.667 -0.5751 -0.4094  0.0884
  394MOL0     C54296   0.703   1.919   3.669 -0.8620 -0.4147 -0.1859
  394MOL0     C54297   0.609   1.857   3.778 -0.2352  0.8938  0.2180
  394MOL0     C54298   0.602   1.709   3.783  0.1368 -1.1828 -1.5170
  394MOL0     C54299   0.605   1.588   3.770  0.0470 -0.9336 -0.3464
  394MOL0     C54300   1.082   2.021   3.326 -0.1887  0.5868 -1.0008
  394MOL0     C54301   1.131   2.086   3.207  0.1475  0.2152 -0.2030
  394MOL0     C54302   1.167   1.995   3.087  1.0586  0.0147 -0.0775
  394MOL0     H54303   1.529   2.334   2.953 -0.9540 -0.7926  0.0743
  394MOL0     H54304   1.615   2.357   2.730 -0.0632  1.0209  0.0201
  394MOL0     H54305   1.682   2.312   2.507 -1.9877 -3.1137 -3.6919
  394MOL0     H54306   1.626   2.490   2.556 -0.2774 -0.9341  1.5722
  394MOL0     H54307   1.680   2.359   2.296  1.8572 -0.2391  1.7056
  394MOL0     H54308   1.545   2.480   2.313 -0.1130 -0.5574  1.6667
  394MOL0     H54309   1.725   2.631   2.407  1.1020  0.7954 -0.5496
  394MOL0     H54310   1.846   2.503   2.388 -0.0309  0.8607 -0.0664
  394MOL0     H54311   1.795   2.523   2.127 -3.0729 -0.9926 -0.9236
  394MOL0     H54312   1.675   2.643   2.173 -0.1131  3.1410  1.4449
  394MOL0     H54313   1.830   2.810   2.233  1.2880 -0.2923  2.4266
  394MOL0     H54314   1.887   2.735   2.079  0.5604  0.0076  0.6780
  394MOL0     H54315   2.053   2.812   2.266 -1.4446  0.3845  1.2365
  394MOL0     H54316   2.004   2.683   2.372 -0.9576 -0.1219  0.1743
  394MOL0     H54317   2.038   2.517   2.188  0.9250 -0.5155  0.2501
  394MOL0     H54318   2.180   2.568   2.282 -0.2478  0.8646  0.1691
  394MOL0     H54319   2.245   2.553   2.041  1.1698  0.6430 -0.0638
  394MOL0     H54320   2.109   2.648   1.995 -2.2413 -3.2335  1.1301
  394MOL0     H54321   2.166   2.932   2.009 -0.1737  0.5622 -0.2831
  394MOL0     H54322   2.423   3.137   2.200  0.0009 -0.6345  0.5826
  394MOL0     H54323   2.282   3.149   2.102  0.1436 -0.1525 -0.1703
  394MOL0     H54324   2.563   3.106   2.011  0.1880  1.4639  0.9918
  394MOL0     H54325   2.423   3.056   1.907 -0.3522 -3.5007  3.9582
  394MOL0     H54326   2.494   3.332   2.001  0.6718 -1.4003  0.7124
  394MOL0     H54327   2.490   3.284   1.831  2.7168 -4.0628  0.7897
  394MOL0     H54328   2.232   3.232   1.880  0.8677 -1.6705 -0.1424
  394MOL0     H54329   2.269   3.351   2.021 -0.9389 -4.3017  1.1059
  394MOL0     H54330   2.059   3.360   1.947  1.5704  0.2879 -0.9441
  394MOL0     H54331   1.776   3.557   2.023  0.7210 -0.8208  1.4758
  394MOL0     H54332   1.870   3.408   2.048  0.9236 -1.2016 -1.0906
  394MOL0     H54333   1.759   3.416   1.915  0.7316 -1.9662  1.6804
  394MOL0     H54334   1.608   3.768   1.490 -0.4044 -0.1506 -1.3128
  394MOL0     H54335   1.446   3.899   1.433  2.5915 -1.0628 -2.0639
  394MOL0     H54336   1.276   4.181   1.676  0.5515  0.4529  0.6595
  394MOL0     H54337   1.416   4.305   1.665  1.5592 -1.3613 -1.1411
  394MOL0     H54338   1.325   4.395   1.463  0.7014 -4.7312 -2.3468
  394MOL0     H54339   1.174   4.303   1.496 -0.4812  1.2725 -0.5892
  394MOL0     H54340   1.278   4.552   1.610  0.4122 -1.8355 -3.8384
  394MOL0     H54341   1.253   4.449   1.743  2.8908 -1.5126 -2.0818
  394MOL0     H54342   1.016   4.403   1.681 -0.5339  0.4853 -0.7498
  394MOL0     H54343   1.030   4.522   1.553  0.6363 -1.5469 -1.1524
  394MOL0     H54344   1.062   4.559   1.850 -0.7214  0.0545  0.1058
  394MOL0     H54345   1.122   4.685   1.740 -0.2082  0.4876  1.3995
  394MOL0     H54346   0.832   4.574   1.747 -2.3528  1.9787  1.9521
  394MOL0     H54347   0.891   4.700   1.646 -0.0344  0.0701  0.9144
  394MOL0     H54348   0.776   4.790   1.837 -0.6141  0.2269 -1.2522
  394MOL0     H54349   0.939   4.841   1.860 -1.1070  1.0626  1.6003
  394MOL0     H54350   0.950   4.699   2.055 -0.6800  2.4022  1.5930
  394MOL0     H54351   0.862   4.572   1.973  3.2291 -1.7861  2.6494
  394MOL0     H54352   1.565   4.205   1.724 -1.4436  1.4578 -2.6543
  394MOL0     H54353   1.755   4.044   1.791  1.1712 -0.2273 -0.3823
  394MOL0     H54354   2.048   3.753   1.639  1.0650 -0.4601 -0.2448
  394MOL0     H54355   2.253   3.616   1.680 -1.3077 -0.3166 -0.9153
  394MOL0     H54356   1.235   2.361   2.553  5.8298  0.0150 -4.5169
  394MOL0     H54357   1.137   2.266   2.772  0.8825 -2.6048 -0.0507
  394MOL0     H54358   1.188   2.390   3.336 -2.2254 -0.1574 -0.7223
  394MOL0     H54359   1.078   2.279   3.538 -2.4549 -0.7213 -0.8503
  394MOL0     H54360   0.842   1.908   3.462  0.8381  0.1760 -0.5910
  394MOL0     H54361   0.997   1.834   3.528 -0.9073 -0.5245  0.5918
  394MOL0     H54362   0.894   1.897   3.760 -1.2566 -0.9628  0.6377
  394MOL0     H54363   0.837   1.761   3.664 -1.5442 -0.3417 -1.1497
  394MOL0     H54364   0.698   2.028   3.677 -1.6265 -0.4911  0.5255
  394MOL0     H54365   0.656   1.892   3.573 -1.4305 -1.0828  0.2704
  394MOL0     H54366   0.503   1.876   3.754 -0.5013  0.8688  1.3429
  394MOL0     H54367   0.642   1.892   3.875  0.1156 -2.5658  1.4970
  394MOL0     H54368   0.646   1.491   3.750 -0.0661 -0.7875 -1.3364
  394MOL0     H54369   1.058   1.915   3.322  0.6884  0.2588  1.2016
  394MOL0     H54370   1.114   1.899   3.093 -0.9818  1.0933  0.0132
  394MOL0     H54371   1.113   2.033   3.000  1.6792 -1.0511 -0.9490
  394MOL0     H54372   1.275   1.982   3.079  1.1427  0.5810  0.0953
  395MOL0     O54373   0.553   3.525   2.445 -0.6066 -0.7112 -0.1475
  395MOL0     C54374   0.556   3.406   2.464 -0.6375 -0.4293  0.4660
  395MOL0     O54375   0.665   3.338   2.507  0.3466  1.5822 -0.8029
  395MOL0     C54376   0.761   3.391   2.586 -0.2485  0.5288  0.0559
  395MOL0     C54377   0.827   3.511   2.549 -0.5141  0.3750  0.1452
  395MOL0     C54378   0.919   3.569   2.628  0.3480  0.1644  0.4725
  395MOL0     C54379   0.946   3.515   2.752  0.2542 -0.0808 -0.9367
  395MOL0     O54380   1.042   3.581   2.835  0.1467 -0.5783  0.4219
  395MOL0     C54381   1.057   3.541   2.973 -0.1931 -0.2007 -0.7526
  395MOL0     C54382   1.118   3.652   3.046 -0.2915  0.0882  0.5252
  395MOL0     C54383   1.025   3.784   3.032 -0.5270  0.1803 -0.4212
  395MOL0     C54384   1.047   3.889   3.148 -1.2663  0.8361  0.0192
  395MOL0     C54385   0.990   4.024   3.117 -0.1722 -0.6634 -0.4298
  395MOL0     C54386   0.987   4.102   3.251  0.8496 -0.2792  0.2378
  395MOL0     C54387   1.121   4.178   3.282  0.0116 -0.9442 -0.0198
  395MOL0     C54388   1.131   4.234   3.416  0.9082 -0.5337  0.6561
  395MOL0     N54389   1.047   4.348   3.457  0.3283  0.2304  0.1506
  395MOL0     C54390   1.022   4.464   3.379  0.6629  0.0264  0.5582
  395MOL0     C54391   0.966   4.545   3.463 -0.6837 -0.0164  0.8765
  395MOL0     C54392   0.901   4.676   3.453 -0.2671 -0.2169  0.8603
  395MOL0     C54393   0.975   4.783   3.363 -1.0127 -0.4515  0.4412
  395MOL0     C54394   1.116   4.804   3.414 -0.2481  0.6035 -0.9710
  395MOL0     C54395   1.224   4.763   3.310  1.3543 -0.2589  1.0822
  395MOL0     O54396   1.187   4.827   3.190  0.5061 -0.3799  0.0702
  395MOL0     C54397   1.227   4.778   3.069 -0.4129 -0.5876 -0.3029
  395MOL0     C54398   1.174   4.844   2.960 -0.0282  0.2134 -0.7148
  395MOL0     C54399   1.193   4.808   2.833 -1.0000  0.5238  0.2532
  395MOL0     C54400   1.139   4.907   2.740  0.1704 -0.5428  0.2290
  395MOL0     C54401   1.268   4.690   2.795 -0.5576 -0.3940 -0.4146
  395MOL0     C54402   1.281   4.625   2.659 -0.2529 -0.7077 -0.2033
  395MOL0     O54403   1.173   4.636   2.589  0.5122  0.7389  0.0198
  395MOL0     C54404   1.147   4.587   2.467 -1.0455  0.7671 -1.2099
  395MOL0     C54405   1.237   4.535   2.372 -1.1886  0.7677 -0.9445
  395MOL0     C54406   1.189   4.485   2.247 -0.3517  0.1750 -0.6977
  395MOL0     C54407   1.050   4.480   2.223  0.1702 -0.4852 -0.0757
  395MOL0     O54408   1.005   4.441   2.106  0.0092 -0.6228 -0.4952
  395MOL0     C54409   1.026   4.305   2.072  0.3827  0.3385  0.9190
  395MOL0     C54410   0.887   4.265   2.017 -0.7944  0.0908 -0.2077
  395MOL0     C54411   0.896   4.124   1.973  0.2958  0.6238  0.0943
  395MOL0     C54412   0.768   4.079   1.899  0.6071  0.0787 -0.6904
  395MOL0     C54413   0.778   3.928   1.854 -0.3726 -1.0044 -0.6691
  395MOL0     C54414   0.662   3.906   1.764 -0.2315  0.2449 -0.3199
  395MOL0     C54415   0.520   3.912   1.834 -0.8074 -0.4103  0.4589
  395MOL0     C54416   0.428   3.827   1.744  0.5789 -1.0110  0.3378
  395MOL0    Cl54417   0.249   3.817   1.793  0.2692  0.1635 -0.0727
  395MOL0     C54418   0.970   4.553   2.316  0.4142 -0.0187  0.1390
  395MOL0     C54419   1.016   4.596   2.439  0.6148  0.6098  0.0606
  395MOL0     O54420   1.378   4.550   2.625 -0.1627 -0.2966 -0.2022
  395MOL0     C54421   1.333   4.631   2.903 -0.1876 -0.2132 -0.5907
  395MOL0     C54422   1.309   4.666   3.034  0.2152 -0.6359 -0.4529
  395MOL0     N54423   0.975   4.493   3.591 -0.7886  0.4490  0.4515
  395MOL0     N54424   1.022   4.369   3.582 -1.2093 -0.1097 -0.5429
  395MOL0     C54425   0.875   3.404   2.801 -0.3243  0.0838 -0.1871
  395MOL0     C54426   0.785   3.331   2.716 -0.1259 -0.2526 -0.5369
  395MOL0     C54427   0.449   3.315   2.415  0.5128 -0.7896  0.5216
  395MOL0     C54428   0.436   3.183   2.463 -0.8099  0.6568  0.7400
  395MOL0     C54429   0.331   3.100   2.423 -0.0211 -0.7047 -0.7198
  395MOL0     C54430   0.241   3.145   2.335 -0.1411  0.2936 -1.5397
  395MOL0     O54431   0.159   3.044   2.293 -0.0021  0.3368 -0.3905
  395MOL0     C54432   0.035   3.068   2.208  0.7944  0.1165  0.3881
  395MOL0     C54433  -0.047   2.939   2.182  0.4564 -0.6068 -0.1861
  395MOL0     C54434  -0.162   2.970   2.074  0.3849  0.3954  0.5536
  395MOL0     C54435  -0.111   2.987   1.927 -0.1832  2.0332 -0.2917
  395MOL0     C54436  -0.021   2.881   1.872 -0.1362 -0.3843 -0.6323
  395MOL0     C54437   0.071   2.813   1.839  0.1445  0.0974 -0.4239
  395MOL0     C54438   0.247   3.279   2.282  0.3851 -0.0928 -0.5988
  395MOL0     C54439   0.356   3.357   2.326  1.6662 -0.6436  0.5793
  395MOL0     C54440   0.351   3.496   2.262  0.2554 -0.5378 -0.8574
  395MOL0     H54441   0.825   3.555   2.450  0.2915  1.1975  0.4854
  395MOL0     H54442   0.962   3.668   2.615 -0.3457  0.9112  3.2223
  395MOL0     H54443   1.121   3.452   2.978  1.0629  0.6494 -1.2940
  395MOL0     H54444   0.957   3.528   3.014 -1.3303  2.4748 -2.4297
  395MOL0     H54445   1.126   3.626   3.152  0.1462  1.1667  0.7748
  395MOL0     H54446   1.218   3.660   3.003 -0.9132  0.0875 -0.9775
  395MOL0     H54447   1.044   3.819   2.930  1.2354 -0.9152 -0.5020
  395MOL0     H54448   0.917   3.768   3.035 -1.0997  2.5037 -3.4257
  395MOL0     H54449   1.005   3.858   3.245  1.4076  2.4644  1.8250
  395MOL0     H54450   1.153   3.907   3.168 -0.9097  1.7580 -2.3564
  395MOL0     H54451   0.887   4.013   3.083 -0.1124  2.4883 -1.9609
  395MOL0     H54452   1.059   4.073   3.049  1.7448 -1.5295  0.7941
  395MOL0     H54453   0.910   4.179   3.256  0.7397 -0.3198 -0.6046
  395MOL0     H54454   0.965   4.038   3.337 -1.2413 -0.5111 -0.4113
  395MOL0     H54455   1.124   4.261   3.211  1.7098 -1.1831 -0.2543
  395MOL0     H54456   1.201   4.104   3.281  0.3715 -0.5725  0.5012
  395MOL0     H54457   1.124   4.161   3.497 -0.0892 -0.4580  0.6496
  395MOL0     H54458   1.235   4.268   3.419  0.7420  0.1791 -0.7093
  395MOL0     H54459   1.037   4.480   3.272  1.9981 -3.4580  0.0960
  395MOL0     H54460   0.894   4.719   3.553 -1.5432 -2.0996  1.6358
  395MOL0     H54461   0.796   4.667   3.424  0.0833  0.6710 -0.8080
  395MOL0     H54462   0.974   4.749   3.259  2.2781  0.2125  0.0989
  395MOL0     H54463   0.912   4.871   3.380 -1.5185 -0.6165 -0.4877
  395MOL0     H54464   1.136   4.908   3.441 -2.4089  0.0734  3.6928
  395MOL0     H54465   1.138   4.741   3.501  2.0647  3.3006  0.5703
  395MOL0     H54466   1.318   4.803   3.348 -0.4340  3.0828  2.4357
  395MOL0     H54467   1.221   4.653   3.304  0.4212 -0.2747  1.5175
  395MOL0     H54468   1.108   4.927   2.984 -0.1959  0.6297 -2.4833
  395MOL0     H54469   1.035   4.884   2.715  0.6264 -1.0291 -1.3062
  395MOL0     H54470   1.198   4.901   2.648 -1.1659  0.3186 -0.7311
  395MOL0     H54471   1.143   5.007   2.785  1.1141 -1.0505  1.3186
  395MOL0     H54472   1.342   4.537   2.399 -0.8607  1.9765 -2.2395
  395MOL0     H54473   1.267   4.461   2.175  1.8483  5.5505 -0.6116
  395MOL0     H54474   1.099   4.302   1.990 -0.1733 -3.7324  0.3667
  395MOL0     H54475   1.056   4.241   2.157 -2.2516  2.6475  3.8315
  395MOL0     H54476   0.812   4.274   2.096  0.5633  0.7876  1.0483
  395MOL0     H54477   0.881   4.328   1.927  3.3377  2.6022  1.0226
  395MOL0     H54478   0.914   4.063   2.062 -0.7748 -0.2625 -0.2746
  395MOL0     H54479   0.983   4.116   1.908  3.5670 -1.2570  4.2284
  395MOL0     H54480   0.746   4.142   1.812 -1.5751  2.6830  1.5738
  395MOL0     H54481   0.689   4.104   1.970  1.1109  0.9448 -0.4180
  395MOL0     H54482   0.874   3.900   1.810  0.7770  0.0676  1.0235
  395MOL0     H54483   0.766   3.877   1.949 -1.9236  3.2318  1.6995
  395MOL0     H54484   0.669   3.807   1.718 -1.1513  0.3449 -0.7037
  395MOL0     H54485   0.663   3.970   1.675 -0.1872  0.6032 -0.0658
  395MOL0     H54486   0.476   4.012   1.844  2.1454  1.0441  0.0412
  395MOL0     H54487   0.534   3.853   1.926 -2.5080 -2.6796 -0.6494
  395MOL0     H54488   0.476   3.730   1.732  2.3918  0.1559 -3.3321
  395MOL0     H54489   0.411   3.853   1.639 -0.1765 -2.7113  0.0031
  395MOL0     H54490   0.863   4.559   2.295  1.1556  1.9159 -4.2653
  395MOL0     H54491   0.945   4.639   2.509 -1.0127  1.1478 -1.8413
  395MOL0     H54492   1.377   4.532   2.898 -2.7669 -1.4411 -0.4855
  395MOL0     H54493   1.363   4.627   3.119 -0.4579  0.1788  0.3793
  395MOL0     H54494   0.888   3.373   2.904 -1.3329  1.9760  0.5575
  395MOL0     H54495   0.731   3.240   2.743 -2.4234  0.5710 -2.0289
  395MOL0     H54496   0.514   3.147   2.530  2.6128  2.6883 -1.8105
  395MOL0     H54497   0.329   2.996   2.452 -1.1822 -0.3803  0.4705
  395MOL0     H54498  -0.024   3.151   2.247  4.2628  3.3124 -0.5664
  395MOL0     H54499   0.065   3.107   2.110  1.9452  0.8349  1.0111
  395MOL0     H54500  -0.094   2.911   2.277  1.2101  2.3440  1.1887
  395MOL0     H54501   0.024   2.857   2.167  2.7513  0.6923  2.6130
  395MOL0     H54502  -0.229   2.884   2.076  2.6147 -1.4542  2.8492
  395MOL0     H54503  -0.221   3.058   2.101 -1.7572 -0.2081 -1.7796
  395MOL0     H54504  -0.069   3.085   1.901  2.3013  0.4760 -2.7601
  395MOL0     H54505  -0.192   2.971   1.855  0.6905  0.0413 -0.8828
  395MOL0     H54506   0.157   2.749   1.842 -0.8000 -1.2273  2.7674
  395MOL0     H54507   0.188   3.313   2.197  2.5871  0.1091 -2.1423
  395MOL0     H54508   0.441   3.521   2.205 -0.1060  0.2531 -1.0925
  395MOL0     H54509   0.276   3.504   2.182 -0.0192  0.7168 -0.5024
  395MOL0     H54510   0.324   3.571   2.337 -0.0276  1.4250 -2.8125
  396MOL0     O54511  11.081   3.000   3.998  0.7047  0.4587 -0.2420
  396MOL0     C54512  11.098   3.042   3.884 -0.1229 -0.4550  0.3018
  396MOL0     O54513  11.221   3.067   3.830  0.3674 -0.1505  0.5153
  396MOL0     C54514  11.335   3.056   3.899 -0.3257  0.5761  0.2807
  396MOL0     C54515  11.407   2.940   3.876  0.2027 -0.1305  0.3113
  396MOL0     C54516  11.530   2.904   3.941  0.5244 -0.4058  0.3118
  396MOL0     C54517  11.581   2.997   4.043 -0.0738 -1.0322 -0.3545
  396MOL0     O54518  11.701   2.994   4.107  0.3277 -1.1450  0.2331
  396MOL0     C54519  11.799   2.911   4.042 -0.3175 -0.7488  0.5387
  396MOL0     C54520  11.942   2.953   4.083  0.1373  0.5019  0.2643
  396MOL0     C54521  11.976   2.884   4.225  0.0803  0.4221  0.1210
  396MOL0     C54522  12.110   2.924   4.261  0.1248 -0.2052 -0.4272
  396MOL0     C54523  12.131   2.889   4.407  0.1816  0.1498 -0.1403
  396MOL0     C54524  12.268   2.933   4.465 -1.1357 -0.0312 -0.0147
  396MOL0     C54525  12.272   2.928   4.619 -0.1809  0.1779 -0.2569
  396MOL0     C54526  12.426   2.921   4.655  0.1643 -0.2489 -0.0835
  396MOL0     N54527  12.483   2.790   4.610 -0.3526  0.6368  0.1799
  396MOL0     C54528  12.439   2.665   4.651  0.5672  0.2745  0.9787
  396MOL0     C54529  12.522   2.571   4.609 -0.5097  0.1353 -0.1720
  396MOL0     C54530  12.554   2.427   4.636  0.4417 -0.4905  0.4700
  396MOL0     C54531  12.687   2.393   4.705  0.7337 -0.8309 -0.4511
  396MOL0     C54532  12.713   2.250   4.738 -0.3504  0.3415 -0.2048
  396MOL0     C54533  12.607   2.190   4.834 -0.4218  0.9531 -0.6267
  396MOL0     O54534  12.652   2.068   4.886 -0.1466 -0.5295 -0.0070
  396MOL0     C54535  12.562   1.990   4.958 -0.2966  0.9450 -0.6687
  396MOL0     C54536  12.603   1.862   4.995  0.4397  0.0751  0.7206
  396MOL0     C54537  12.519   1.764   5.051 -0.1391 -0.1879 -0.8465
  396MOL0     C54538  12.588   1.623   5.066  2.1119 -0.0759 -0.1691
  396MOL0     C54539  12.381   1.799   5.095 -0.3878  0.1401  0.3593
  396MOL0     C54540  12.280   1.721   5.159  0.0654  0.1372 -0.0539
  396MOL0     O54541  12.156   1.787   5.176 -1.1665 -0.4615  1.1502
  396MOL0     C54542  12.061   1.719   5.241  0.6651 -0.2980 -0.4757
  396MOL0     C54543  11.975   1.619   5.188  0.5927  0.0473 -0.8188
  396MOL0     C54544  11.881   1.542   5.264 -0.1870  0.9400 -1.0169
  396MOL0     C54545  11.878   1.564   5.407  0.3649 -0.6987  0.4657
  396MOL0     O54546  11.798   1.498   5.494  0.4647  0.4758 -1.1188
  396MOL0     C54547  11.689   1.415   5.437  0.5814 -0.4009 -0.8278
  396MOL0     C54548  11.595   1.367   5.555 -0.2292 -0.6927 -0.2071
  396MOL0     C54549  11.491   1.271   5.500 -0.0041 -0.3764  0.0513
  396MOL0     C54550  11.424   1.166   5.600  0.6696  0.5869  0.8462
  396MOL0     C54551  11.312   1.083   5.526 -0.1164  0.2978 -1.3472
  396MOL0     C54552  11.234   1.006   5.640  0.7929 -0.1491 -0.3728
  396MOL0     C54553  11.320   0.876   5.664 -0.3188  0.2046  0.6033
  396MOL0     C54554  11.291   0.804   5.786  0.9099 -0.7454  0.3061
  396MOL0    Cl54555  11.115   0.790   5.812  0.2199 -0.1997  0.1196
  396MOL0     C54556  11.973   1.649   5.457  0.0376  0.4157  0.0066
  396MOL0     C54557  12.053   1.735   5.377 -0.4610  1.0937  0.2337
  396MOL0     O54558  12.296   1.600   5.178 -0.2466 -0.1430 -0.4605
  396MOL0     C54559  12.349   1.934   5.063 -0.3249  0.1973  0.1590
  396MOL0     C54560  12.431   2.024   4.997 -0.2103 -0.6727  0.9513
  396MOL0     N54561  12.625   2.641   4.556 -0.3741  0.5476  0.4225
  396MOL0     N54562  12.597   2.769   4.553  0.0025 -0.2193  0.2763
  396MOL0     C54563  11.498   3.116   4.068  0.2862 -0.4644  0.7946
  396MOL0     C54564  11.375   3.137   4.003 -0.0980  0.4374 -0.6416
  396MOL0     C54565  10.967   3.083   3.802 -1.8254 -0.4044  0.0718
  396MOL0     C54566  10.998   3.129   3.675 -0.0351  0.3185  0.4983
  396MOL0     C54567  10.901   3.164   3.578 -0.1694  0.3813  0.8582
  396MOL0     C54568  10.767   3.149   3.618 -0.8193 -0.2409  0.0658
  396MOL0     O54569  10.664   3.201   3.538 -0.1822  0.0189 -0.2219
  396MOL0     C54570  10.680   3.244   3.397  0.2730 -0.3931 -0.1374
  396MOL0     C54571  10.570   3.350   3.381  1.1343 -0.3932  0.9227
  396MOL0     C54572  10.430   3.289   3.348 -0.5267  0.3872  0.5198
  396MOL0     C54573  10.360   3.226   3.473 -0.3035 -0.1688  0.3673
  396MOL0     C54574  10.341   3.077   3.478 -0.2657  0.2729  0.1050
  396MOL0     C54575  10.307   2.960   3.497 -1.1382 -0.7888  0.5647
  396MOL0     C54576  10.731   3.071   3.730 -0.4657 -0.0048 -1.1739
  396MOL0     C54577  10.827   3.051   3.832  0.0209  1.0517 -0.4551
  396MOL0     C54578  10.780   2.982   3.959 -0.1891 -0.1416  0.2804
  396MOL0     H54579  11.373   2.876   3.796 -1.7351  2.1498 -0.7874
  396MOL0     H54580  11.581   2.815   3.907  1.5457  0.7849 -1.4250
  396MOL0     H54581  11.784   2.925   3.935 -2.1586  1.7207  1.0299
  396MOL0     H54582  11.785   2.806   4.068  3.5071 -1.3663  0.6528
  396MOL0     H54583  12.005   2.908   4.007  1.7629 -2.9102  3.2946
  396MOL0     H54584  11.972   3.058   4.078  1.2429  0.1436 -1.0333
  396MOL0     H54585  11.906   2.907   4.306 -0.8218 -0.4689 -0.3758
  396MOL0     H54586  11.973   2.775   4.218 -2.2471  0.1559  3.1978
  396MOL0     H54587  12.180   2.861   4.205 -0.0471  0.8898 -1.9494
  396MOL0     H54588  12.131   3.031   4.259  3.7631 -0.6844  2.0134
  396MOL0     H54589  12.120   2.780   4.404  2.9012 -0.2779  1.7254
  396MOL0     H54590  12.056   2.937   4.471  1.6497  0.0047  1.7642
  396MOL0     H54591  12.352   2.879   4.420  0.3736  2.2744 -0.1117
  396MOL0     H54592  12.276   3.034   4.426  1.9580  0.4532  1.5129
  396MOL0     H54593  12.221   2.839   4.658 -0.0570 -0.3444 -1.2549
  396MOL0     H54594  12.234   3.022   4.660 -1.9174  0.0180 -1.4047
  396MOL0     H54595  12.493   2.998   4.616 -0.7069 -0.5642 -2.3954
  396MOL0     H54596  12.433   2.917   4.764 -2.2429 -2.5860  0.0979
  396MOL0     H54597  12.358   2.656   4.722  2.4162 -0.3678  3.1344
  396MOL0     H54598  12.547   2.375   4.540  3.1241  1.0218 -0.6569
  396MOL0     H54599  12.474   2.390   4.701  1.2129  0.3049  1.9070
  396MOL0     H54600  12.767   2.420   4.636  1.3629 -1.6766 -0.0613
  396MOL0     H54601  12.702   2.455   4.794  1.7435  2.3214 -2.6468
  396MOL0     H54602  12.716   2.187   4.648  1.6116 -1.9483  1.3323
  396MOL0     H54603  12.815   2.247   4.776 -0.1854  1.5659 -0.4929
  396MOL0     H54604  12.600   2.254   4.923 -0.1571  0.7146 -0.4330
  396MOL0     H54605  12.509   2.174   4.788 -1.6147  0.9319  1.7914
  396MOL0     H54606  12.708   1.843   4.975 -0.0559 -2.0940  0.0171
  396MOL0     H54607  12.670   1.627   5.139 -1.3616  0.4808  4.1495
  396MOL0     H54608  12.615   1.587   4.967 -0.4430  1.6338 -1.6037
  396MOL0     H54609  12.516   1.551   5.106  2.0827 -1.0994 -1.9606
  396MOL0     H54610  11.994   1.600   5.083  2.7025  3.0163 -1.1151
  396MOL0     H54611  11.815   1.463   5.229  0.5114  0.5892 -1.5761
  396MOL0     H54612  11.620   1.462   5.367  0.0322  0.6263  0.3569
  396MOL0     H54613  11.742   1.330   5.394 -3.6182 -1.9943 -3.4205
  396MOL0     H54614  11.652   1.317   5.634  0.0970 -2.3414 -1.4236
  396MOL0     H54615  11.545   1.457   5.590  2.3518  1.8039 -2.3948
  396MOL0     H54616  11.535   1.205   5.425  3.9872  1.5659  0.4192
  396MOL0     H54617  11.409   1.327   5.455 -1.5067 -1.1762  1.6547
  396MOL0     H54618  11.381   1.207   5.692  2.8666  1.2450  1.6549
  396MOL0     H54619  11.514   1.116   5.636  1.2858  0.5000 -0.7382
  396MOL0     H54620  11.243   1.148   5.471  0.8376 -0.1313 -3.1335
  396MOL0     H54621  11.360   1.025   5.447  2.2344  0.7234 -0.3371
  396MOL0     H54622  11.137   0.970   5.606 -0.9029  0.9860  2.8339
  396MOL0     H54623  11.227   1.053   5.738  1.6051 -2.8778  1.1143
  396MOL0     H54624  11.426   0.900   5.666  0.2870 -1.9390 -1.6440
  396MOL0     H54625  11.300   0.811   5.578  0.1161 -0.0347  0.6805
  396MOL0     H54626  11.348   0.840   5.872 -1.8058  2.4266  0.9794
  396MOL0     H54627  11.339   0.706   5.775  1.1859 -0.6007  0.2142
  396MOL0     H54628  11.986   1.659   5.564  1.3486 -3.1389  0.2973
  396MOL0     H54629  12.120   1.811   5.418 -0.5156  1.9459 -1.1993
  396MOL0     H54630  12.247   1.973   5.070 -1.0279 -1.4493 -0.3400
  396MOL0     H54631  12.396   2.126   5.000  2.5621  0.3472  1.3657
  396MOL0     H54632  11.531   3.167   4.157 -1.9586 -1.7173  2.4474
  396MOL0     H54633  11.311   3.216   4.040 -3.0959 -1.4842 -1.3761
  396MOL0     H54634  11.100   3.158   3.652 -0.4285  3.0065  1.8407
  396MOL0     H54635  10.938   3.209   3.486  0.7284  3.0043  2.3961
  396MOL0     H54636  10.779   3.283   3.375  1.7485 -2.9553  1.4020
  396MOL0     H54637  10.654   3.164   3.326  0.8427 -1.0518  0.3815
  396MOL0     H54638  10.579   3.412   3.291  2.3373  0.5895  1.6846
  396MOL0     H54639  10.568   3.402   3.477 -4.6431 -0.2663  1.0725
  396MOL0     H54640  10.358   3.356   3.301 -4.0533 -4.3335 -1.6809
  396MOL0     H54641  10.445   3.217   3.267 -1.1397  0.1144  0.6440
  396MOL0     H54642  10.265   3.280   3.480  0.4722  1.0747  4.7748
  396MOL0     H54643  10.402   3.253   3.570 -1.9252 -0.8226  1.3113
  396MOL0     H54644  10.267   2.865   3.525  5.3565 -3.3301  3.2568
  396MOL0     H54645  10.627   3.045   3.745 -0.5934  0.7667 -0.6658
  396MOL0     H54646  10.671   2.987   3.958 -0.1609  0.4440  0.1991
  396MOL0     H54647  10.811   2.877   3.955  2.7051  0.6263  0.2724
  396MOL0     H54648  10.818   3.039   4.043  0.3373 -1.3826  0.9166
  397MOL0     O54649   2.936   1.361   4.079  0.7976  0.5147 -1.0164
  397MOL0     C54650   2.916   1.394   3.964 -0.2315  1.2980 -0.1406
  397MOL0     O54651   2.825   1.320   3.884 -0.2052 -1.1475  0.7229
  397MOL0     C54652   2.754   1.221   3.938  0.3035 -0.6047  1.5327
  397MOL0     C54653   2.633   1.265   3.983 -0.7535 -0.7952  0.0456
  397MOL0     C54654   2.536   1.184   4.037 -0.4514 -0.3131 -0.5187
  397MOL0     C54655   2.559   1.046   4.035  0.5625 -0.2180 -0.3542
  397MOL0     O54656   2.458   0.970   4.098  0.7541  0.0336  0.6337
  397MOL0     C54657   2.452   0.822   4.084  0.5232  0.1501 -0.2656
  397MOL0     C54658   2.300   0.804   4.040 -0.6435  1.0685 -0.2101
  397MOL0     C54659   2.257   0.651   4.033  0.0944 -0.1152 -0.3975
  397MOL0     C54660   2.104   0.647   4.024 -0.3708  0.3679  0.2405
  397MOL0     C54661   2.063   0.510   4.007  0.4872  0.5845  0.3282
  397MOL0     C54662   1.914   0.483   4.030  0.6730 -0.6414 -0.0900
  397MOL0     C54663   1.848   0.509   4.175 -1.0159  0.5047 -1.4038
  397MOL0     C54664   1.926   0.465   4.302  0.0538  0.4131  0.2944
  397MOL0     N54665   1.833   0.444   4.416  0.1550  0.2369  0.9416
  397MOL0     C54666   1.735   0.353   4.425  0.1885 -0.2711  0.3271
  397MOL0     C54667   1.681   0.364   4.548 -0.3402  0.2606  0.3131
  397MOL0     C54668   1.543   0.309   4.578  0.3788 -0.1987  0.6522
  397MOL0     C54669   1.564   0.209   4.683 -0.4690 -0.0683  0.3919
  397MOL0     C54670   1.419   0.160   4.725 -0.8049  0.0016  0.2950
  397MOL0     C54671   1.412   0.031   4.805 -0.1295 -0.7721  0.0310
  397MOL0     O54672   1.455  -0.082   4.725 -0.1468  0.0332 -0.2193
  397MOL0     C54673   1.533  -0.179   4.795  0.0727  0.5388 -0.0814
  397MOL0     C54674   1.648  -0.226   4.733 -1.2517 -1.1215 -0.7048
  397MOL0     C54675   1.736  -0.324   4.797  0.5631 -0.6004  0.0950
  397MOL0     C54676   1.864  -0.358   4.728  0.0853 -0.0255  0.3267
  397MOL0     C54677   1.701  -0.391   4.914 -0.7968  0.0646  0.6499
  397MOL0     C54678   1.767  -0.503   4.972 -0.9110 -0.7212 -0.0192
  397MOL0     O54679   1.774  -0.518   5.103  0.4998 -0.4698 -0.4653
  397MOL0     C54680   1.750  -0.647   5.133  0.6188 -0.2751 -0.3863
  397MOL0     C54681   1.858  -0.726   5.171  0.2855  0.9105 -0.5610
  397MOL0     C54682   1.834  -0.854   5.227  0.5723  0.8072  0.1633
  397MOL0     C54683   1.705  -0.906   5.222  0.3495  0.4940  1.0107
  397MOL0     O54684   1.703  -1.039   5.257  0.1372 -0.2710  0.1659
  397MOL0     C54685   1.577  -1.106   5.273 -0.0728 -0.8805 -0.6413
  397MOL0     C54686   1.614  -1.250   5.317  0.0074 -0.0014  0.0785
  397MOL0     C54687   1.661  -1.331   5.196 -0.9698 -0.9965 -0.9727
  397MOL0     C54688   1.741  -1.445   5.256 -0.7929 -0.3796 -1.1102
  397MOL0     C54689   1.808  -1.522   5.146  1.6323  0.6854  0.3385
  397MOL0     C54690   1.923  -1.460   5.071 -0.0981 -0.2661  0.3243
  397MOL0     C54691   2.019  -1.376   5.169 -0.5916 -0.1148 -0.2019
  397MOL0     C54692   2.153  -1.346   5.098 -0.6954 -0.1781  0.2260
  397MOL0    Cl54693   2.244  -1.499   5.078 -0.5224  0.2380  0.0183
  397MOL0     C54694   1.599  -0.828   5.178 -1.2009  0.3747  0.2736
  397MOL0     C54695   1.619  -0.698   5.139  0.3375 -0.1366  1.1016
  397MOL0     O54696   1.814  -0.578   4.891  0.0750 -0.0292  0.2782
  397MOL0     C54697   1.578  -0.347   4.971  0.2967  0.2648  0.5234
  397MOL0     C54698   1.497  -0.249   4.915  0.6626 -0.1508 -0.6480
  397MOL0     N54699   1.749   0.458   4.616 -0.1001 -0.0079 -0.3531
  397MOL0     N54700   1.844   0.506   4.542  0.3461 -0.3542  0.6545
  397MOL0     C54701   2.681   1.000   3.988 -0.2097  0.2036  0.2953
  397MOL0     C54702   2.776   1.087   3.937  0.5491  0.4729 -0.8616
  397MOL0     C54703   2.994   1.516   3.907 -0.2082  0.5520  0.2230
  397MOL0     C54704   2.927   1.612   3.829  0.9694 -0.8128  0.3058
  397MOL0     C54705   3.001   1.707   3.766 -0.2093 -0.1009  0.1619
  397MOL0     C54706   3.133   1.725   3.802  0.0668 -0.2535  0.2199
  397MOL0     O54707   3.206   1.831   3.749 -0.4784 -0.0721 -0.1920
  397MOL0     C54708   3.352   1.843   3.768 -0.0202  0.0736  1.0310
  397MOL0     C54709   3.420   1.910   3.651 -0.1162 -0.7469  0.3586
  397MOL0     C54710   3.571   1.921   3.669  0.1251 -0.5197 -0.3761
  397MOL0     C54711   3.645   1.998   3.562  0.3128  0.1466 -0.0211
  397MOL0     C54712   3.578   2.124   3.530 -0.5863  0.5332  0.2778
  397MOL0     C54713   3.539   2.232   3.485  0.5313 -0.9527 -0.1879
  397MOL0     C54714   3.195   1.635   3.890  0.0623  0.7906 -0.7535
  397MOL0     C54715   3.126   1.525   3.946 -0.4503  0.1152 -0.2426
  397MOL0     C54716   3.215   1.427   4.026 -0.3046 -0.9080  0.0401
  397MOL0     H54717   2.595   1.366   3.974  0.1708 -0.3844  0.5986
  397MOL0     H54718   2.437   1.217   4.066 -1.5405 -3.2606 -0.5182
  397MOL0     H54719   2.466   0.781   4.184  0.8976 -0.9217 -0.7482
  397MOL0     H54720   2.531   0.777   4.024  2.2978  2.5912  0.1022
  397MOL0     H54721   2.233   0.863   4.103 -0.1594  3.4452 -1.8113
  397MOL0     H54722   2.281   0.859   3.948 -4.5992 -0.4812 -0.5109
  397MOL0     H54723   2.295   0.598   3.946  0.4354 -2.4967  1.1219
  397MOL0     H54724   2.298   0.592   4.116 -0.9121 -1.6057 -0.9272
  397MOL0     H54725   2.066   0.688   4.118 -0.6551  1.4999 -0.3414
  397MOL0     H54726   2.074   0.699   3.932  2.5653  0.9352 -0.5210
  397MOL0     H54727   2.128   0.444   4.066 -0.4150 -0.6383 -0.0048
  397MOL0     H54728   2.091   0.487   3.904  0.7458 -2.5966  0.9984
  397MOL0     H54729   1.859   0.554   3.967 -1.1149  1.9860  3.9422
  397MOL0     H54730   1.896   0.379   4.003 -2.0042 -0.4262  0.5637
  397MOL0     H54731   1.747   0.469   4.185 -1.5224  2.1985  0.9473
  397MOL0     H54732   1.843   0.618   4.172 -0.0491  0.5393 -2.0281
  397MOL0     H54733   1.987   0.376   4.293 -1.8646 -0.9783  0.3725
  397MOL0     H54734   1.978   0.554   4.338  0.4178  0.9391 -1.4208
  397MOL0     H54735   1.700   0.306   4.334  5.1127  0.3838 -2.2417
  397MOL0     H54736   1.499   0.264   4.488  0.1240  1.5605 -0.1320
  397MOL0     H54737   1.483   0.393   4.616  0.7009 -0.0757  0.8938
  397MOL0     H54738   1.626   0.132   4.637  2.2047  0.8429  2.2819
  397MOL0     H54739   1.619   0.252   4.767  1.3030 -2.3916  0.5195
  397MOL0     H54740   1.377   0.241   4.785  1.2296  1.3784 -0.0548
  397MOL0     H54741   1.368   0.149   4.629  1.3602 -1.9023 -0.7455
  397MOL0     H54742   1.488   0.055   4.880  2.1360  1.9425 -2.8599
  397MOL0     H54743   1.313   0.014   4.848  0.0040 -0.8619  0.3067
  397MOL0     H54744   1.679  -0.200   4.632  1.1109 -3.5414 -0.6970
  397MOL0     H54745   1.949  -0.361   4.798  0.3390  1.1710  0.0904
  397MOL0     H54746   1.896  -0.275   4.665  1.9669 -2.5863 -2.3581
  397MOL0     H54747   1.862  -0.438   4.654  2.0503  1.1384 -1.0947
  397MOL0     H54748   1.957  -0.691   5.144  2.2959 -2.4781  1.6068
  397MOL0     H54749   1.916  -0.920   5.253 -0.3811 -0.3326  0.4112
  397MOL0     H54750   1.523  -1.067   5.359  2.1980  0.4094  0.2910
  397MOL0     H54751   1.522  -1.109   5.178 -0.6766 -0.6686 -0.2979
  397MOL0     H54752   1.690  -1.238   5.396 -0.6866  0.3618  0.7051
  397MOL0     H54753   1.528  -1.293   5.369 -1.0487  0.4312 -1.2519
  397MOL0     H54754   1.727  -1.280   5.125  3.9248 -1.4578  2.7093
  397MOL0     H54755   1.573  -1.369   5.142 -0.1900  0.6967 -3.6038
  397MOL0     H54756   1.667  -1.505   5.309  0.0683  1.5991  2.6931
  397MOL0     H54757   1.816  -1.398   5.321 -0.0206 -1.4553 -1.1792
  397MOL0     H54758   1.838  -1.617   5.192  0.2661 -0.9853 -1.9448
  397MOL0     H54759   1.739  -1.550   5.065 -0.3381  4.1680  0.6538
  397MOL0     H54760   1.878  -1.400   4.992  0.0782 -1.0444 -0.3757
  397MOL0     H54761   1.978  -1.543   5.026  0.5168  0.3978 -0.1605
  397MOL0     H54762   2.041  -1.447   5.249 -2.2084 -0.3028  0.1090
  397MOL0     H54763   1.972  -1.285   5.207  1.0738 -0.2585  2.5158
  397MOL0     H54764   2.210  -1.283   5.166 -0.8500 -3.2341  3.4565
  397MOL0     H54765   2.151  -1.292   5.002  0.1752 -0.8333 -0.1756
  397MOL0     H54766   1.498  -0.867   5.168 -0.2365 -1.7940 -2.1336
  397MOL0     H54767   1.549  -0.624   5.101 -0.2629 -1.4178 -0.4088
  397MOL0     H54768   1.537  -0.407   5.051 -2.4732  0.2240 -0.8212
  397MOL0     H54769   1.411  -0.204   4.964  1.7926  0.5251  0.7786
  397MOL0     H54770   2.691   0.895   4.013 -1.7858  0.5674  2.8217
  397MOL0     H54771   2.872   1.048   3.904  0.7583  1.6580 -1.6881
  397MOL0     H54772   2.820   1.608   3.811  0.0734  1.1467  4.1004
  397MOL0     H54773   2.956   1.781   3.701  0.1903  1.6766  1.8243
  397MOL0     H54774   3.377   1.891   3.863 -1.8837 -0.0361  1.6121
  397MOL0     H54775   3.394   1.742   3.763  2.9029  1.0831  2.4336
  397MOL0     H54776   3.372   2.004   3.624  3.5831  1.5183  0.9543
  397MOL0     H54777   3.415   1.842   3.566  1.3187 -0.8288  0.3232
  397MOL0     H54778   3.602   1.951   3.770  2.1034 -2.6642 -0.2469
  397MOL0     H54779   3.607   1.817   3.669  2.2719  0.1653  0.9994
  397MOL0     H54780   3.672   1.938   3.475  0.7308  1.0901 -0.5664
  397MOL0     H54781   3.738   2.037   3.605  1.4833 -0.5081 -1.8342
  397MOL0     H54782   3.501   2.327   3.452 -0.4988 -2.2977 -3.1769
  397MOL0     H54783   3.296   1.658   3.921 -0.8067  2.3011  1.1775
  397MOL0     H54784   3.322   1.448   4.016 -0.1689 -1.5341  0.0876
  397MOL0     H54785   3.191   1.415   4.132  0.1345 -2.1641  0.0182
  397MOL0     H54786   3.195   1.329   3.980  0.0118  0.1057 -2.4059
  398MOL0     O54787   0.550  10.830  10.894 -0.1599 -0.8124 -0.0641
  398MOL0     C54788   0.496  10.748  10.814  0.1600 -0.4890 -0.6641
  398MOL0     O54789   0.428  10.634  10.852 -0.5282 -0.4475 -0.1229
  398MOL0     C54790   0.414  10.610  10.992 -0.1285 -0.4992 -0.1660
  398MOL0     C54791   0.510  10.541  11.061 -0.2372  0.5726  0.1288
  398MOL0     C54792   0.508  10.522  11.196 -0.1195 -0.2658 -0.3995
  398MOL0     C54793   0.405  10.579  11.266 -0.1960  0.3730 -0.3175
  398MOL0     O54794   0.386  10.572  11.408 -0.5640 -1.0345 -0.4885
  398MOL0     C54795   0.501  10.533  11.482  0.3335  0.3865 -0.3848
  398MOL0     C54796   0.463  10.537  11.635 -0.0611 -0.8764 -0.0686
  398MOL0     C54797   0.579  10.496  11.735  0.1785  0.8527  0.2150
  398MOL0     C54798   0.531  10.488  11.882  1.1012 -0.9520  0.2980
  398MOL0     C54799   0.645  10.432  11.977 -0.1133 -1.0336  0.5270
  398MOL0     C54800   0.768  10.532  11.994  0.1565 -1.2817 -0.0327
  398MOL0     C54801   0.864  10.467  12.099  0.9431  0.5347 -0.7151
  398MOL0     C54802   0.979  10.571  12.134  0.2986  0.1663 -0.5648
  398MOL0     N54803   1.064  10.606  12.023  0.2627  0.5628  0.4130
  398MOL0     C54804   1.166  10.528  11.968 -0.2692 -0.6224  0.1918
  398MOL0     C54805   1.232  10.614  11.890  0.3314  0.8063  0.2922
  398MOL0     C54806   1.340  10.594  11.796 -0.7763  0.4367 -0.0784
  398MOL0     C54807   1.472  10.624  11.871 -0.1388  0.4003 -0.9922
  398MOL0     C54808   1.563  10.726  11.795  0.0694 -0.0336  0.6102
  398MOL0     C54809   1.627  10.669  11.665 -0.6175  0.8013 -0.3415
  398MOL0     O54810   1.740  10.598  11.724 -0.1336 -0.5127  1.2459
  398MOL0     C54811   1.852  10.611  11.649  0.7982 -1.2904  0.0130
  398MOL0     C54812   1.874  10.571  11.515 -0.4562  0.3164  0.3675
  398MOL0     C54813   1.995  10.589  11.437 -0.2727  0.3701 -0.2755
  398MOL0     C54814   1.998  10.538  11.293  0.1984  0.5898  0.1686
  398MOL0     C54815   2.113  10.640  11.509 -0.6129  0.6965  0.0323
  398MOL0     C54816   2.251  10.621  11.456 -0.5382 -0.2893 -0.2251
  398MOL0     O54817   2.346  10.721  11.490  0.5271 -0.0584  0.4979
  398MOL0     C54818   2.472  10.723  11.422  1.2885 -0.1441 -0.4968
  398MOL0     C54819   2.594  10.689  11.489  1.2455  0.1482  1.2993
  398MOL0     C54820   2.718  10.718  11.423 -0.6386 -0.1307 -0.4221
  398MOL0     C54821   2.720  10.757  11.289 -0.9143 -0.1294 -0.7228
  398MOL0     O54822   2.849  10.770  11.236 -0.4118 -0.2265  0.6304
  398MOL0     C54823   2.860  10.756  11.094 -0.5814 -0.6382  1.0746
  398MOL0     C54824   3.000  10.782  11.068 -0.4855  0.5037  0.7086
  398MOL0     C54825   3.071  10.643  11.094  0.0506 -0.6558 -0.2660
  398MOL0     C54826   3.206  10.616  11.024 -0.1374  0.8976 -0.2272
  398MOL0     C54827   3.289  10.490  11.063 -0.6263  0.7596  0.5887
  398MOL0     C54828   3.212  10.359  11.046 -0.3759  0.1420  0.4687
  398MOL0     C54829   3.296  10.231  11.074 -0.7471 -0.6636  0.9439
  398MOL0     C54830   3.376  10.217  11.203 -0.5918 -0.8083 -0.3179
  398MOL0    Cl54831   3.306  10.105  11.313  0.5359  0.0420  0.1998
  398MOL0     C54832   2.599  10.771  11.227 -0.1656  0.0461 -0.1218
  398MOL0     C54833   2.473  10.764  11.288 -0.6969  0.2879 -1.0389
  398MOL0     O54834   2.282  10.519  11.395 -0.6164  0.2767 -0.5672
  398MOL0     C54835   2.087  10.689  11.640  0.8382 -0.9688  0.6697
  398MOL0     C54836   1.959  10.678  11.702  0.2457  0.4234  0.0650
  398MOL0     N54837   1.195  10.742  11.916 -0.7094  0.0483 -0.5344
  398MOL0     N54838   1.088  10.735  11.989  0.1176 -0.4577 -0.2218
  398MOL0     C54839   0.309  10.647  11.199 -1.0692  0.1770  0.0649
  398MOL0     C54840   0.306  10.672  11.061  0.1561  0.3859  0.1372
  398MOL0     C54841   0.486  10.796  10.672  1.0259  0.7479 -0.6577
  398MOL0     C54842   0.516  10.925  10.629  0.5340 -0.4416 -0.9863
  398MOL0     C54843   0.500  10.971  10.500 -0.5659  1.0205  0.7103
  398MOL0     C54844   0.450  10.887  10.402  0.1183 -0.5344 -0.3548
  398MOL0     O54845   0.432  10.911  10.271  0.4294  0.5723 -0.3772
  398MOL0     C54846   0.448  11.045  10.221  0.1621  0.4513 -0.7825
  398MOL0     C54847   0.441  11.059  10.079 -0.2790 -0.3316  0.5154
  398MOL0     C54848   0.577  11.010  10.010  0.4003 -0.3334 -0.7655
  398MOL0     C54849   0.563  11.030   9.857  0.4200  0.7995 -1.1634
  398MOL0     C54850   0.646  10.929   9.790  0.4999  0.6283 -0.6061
  398MOL0     C54851   0.728  10.853   9.745  0.5120 -0.2208 -0.9036
  398MOL0     C54852   0.428  10.752  10.436 -0.2284 -0.1280  0.3021
  398MOL0     C54853   0.444  10.707  10.567 -0.5428  0.1961 -0.0713
  398MOL0     C54854   0.434  10.563  10.581  0.6586 -0.4108 -0.2667
  398MOL0     H54855   0.605  10.517  11.015  1.7909  4.0170  2.0616
  398MOL0     H54856   0.576  10.458  11.250  0.2373 -0.7285 -1.3673
  398MOL0     H54857   0.585  10.599  11.458  1.4457 -1.3676 -1.5814
  398MOL0     H54858   0.537  10.432  11.462 -2.7607 -1.1993  1.3290
  398MOL0     H54859   0.427  10.636  11.666  1.3636  0.1256 -1.4429
  398MOL0     H54860   0.378  10.471  11.655  0.2583 -0.7944  1.7815
  398MOL0     H54861   0.611  10.398  11.699 -4.2918 -0.5108 -0.6775
  398MOL0     H54862   0.654  10.572  11.712  2.1767 -1.0096  0.2557
  398MOL0     H54863   0.497  10.589  11.909  2.2480 -0.5085  0.1366
  398MOL0     H54864   0.446  10.419  11.884  0.0357  0.2446 -1.1172
  398MOL0     H54865   0.685  10.336  11.943  1.8664 -0.3033  0.6480
  398MOL0     H54866   0.604  10.415  12.077 -0.8172 -0.3686  0.3639
  398MOL0     H54867   0.825  10.538  11.901 -1.8363 -0.2094 -1.2404
  398MOL0     H54868   0.729  10.630  12.020 -0.1413 -1.3559 -0.1967
  398MOL0     H54869   0.905  10.372  12.064  0.0072 -0.8615  1.7133
  398MOL0     H54870   0.801  10.458  12.188  2.6569  0.3581  0.5235
  398MOL0     H54871   0.936  10.666  12.166  4.3725  2.0627 -0.0945
  398MOL0     H54872   1.046  10.531  12.211  2.4752  3.3272 -0.6575
  398MOL0     H54873   1.187  10.422  11.979 -0.0449 -0.5675  0.3033
  398MOL0     H54874   1.336  10.667  11.715  1.9477  1.5073  0.6321
  398MOL0     H54875   1.335  10.491  11.759 -2.4933  0.7283 -0.7453
  398MOL0     H54876   1.447  10.664  11.970  0.8704  0.8779 -0.9122
  398MOL0     H54877   1.529  10.532  11.890  1.4419  1.9946  3.3024
  398MOL0     H54878   1.486  10.801  11.772 -0.1063 -0.3103  0.2858
  398MOL0     H54879   1.642  10.751  11.866 -0.3763 -2.4498  2.0801
  398MOL0     H54880   1.564  10.591  11.621 -0.3860  0.2677  0.2628
  398MOL0     H54881   1.675  10.741  11.598  0.7708 -0.6003 -0.9120
  398MOL0     H54882   1.778  10.539  11.477 -0.4919  1.2285 -0.3336
  398MOL0     H54883   2.051  10.442  11.296  1.3804  1.2145  3.1275
  398MOL0     H54884   2.057  10.600  11.225  1.7210 -1.0664 -0.0953
  398MOL0     H54885   1.897  10.534  11.252  1.3626  3.3642 -3.4324
  398MOL0     H54886   2.586  10.669  11.596 -0.6870 -0.7555  1.0261
  398MOL0     H54887   2.811  10.722  11.479 -1.0633  0.6288  0.2485
  398MOL0     H54888   2.829  10.658  11.055  4.3123 -1.3454 -1.8884
  398MOL0     H54889   2.811  10.841  11.046  2.1653  0.1114 -0.6222
  398MOL0     H54890   3.011  10.793  10.959 -1.0077 -0.8837  0.4937
  398MOL0     H54891   3.030  10.875  11.116 -1.4873  0.9921  0.4120
  398MOL0     H54892   2.999  10.567  11.064  0.6245 -1.9258  1.4353
  398MOL0     H54893   3.086  10.643  11.202 -1.9876  3.5602  0.2274
  398MOL0     H54894   3.269  10.704  11.038  0.9870 -0.0962  1.2543
  398MOL0     H54895   3.180  10.602  10.919 -2.5483 -1.6113  0.5545
  398MOL0     H54896   3.383  10.501  11.009 -0.4685  0.7610  0.8638
  398MOL0     H54897   3.319  10.504  11.167  2.1841 -2.3732  0.3649
  398MOL0     H54898   3.180  10.359  10.941  1.7590  1.6189 -0.2816
  398MOL0     H54899   3.134  10.364  11.122 -1.5922  0.2482 -0.7528
  398MOL0     H54900   3.353  10.197  10.988 -4.1030 -3.0615 -0.5805
  398MOL0     H54901   3.209  10.165  11.090 -1.7152 -0.0315 -1.2933
  398MOL0     H54902   3.375  10.312  11.258 -0.3656  1.6825 -4.2495
  398MOL0     H54903   3.481  10.195  11.183 -1.0319 -2.5941 -0.8121
  398MOL0     H54904   2.596  10.809  11.126  5.2167 -0.6953 -0.8731
  398MOL0     H54905   2.377  10.793  11.245 -1.7653  1.2670  1.7631
  398MOL0     H54906   2.170  10.729  11.698  2.3987  1.9310 -3.1264
  398MOL0     H54907   1.947  10.719  11.802 -3.0766 -0.9722  0.3737
  398MOL0     H54908   0.223  10.694  11.247 -0.9697  0.2420  0.1797
  398MOL0     H54909   0.235  10.738  11.012 -0.4260  1.3992  2.2067
  398MOL0     H54910   0.555  11.005  10.690  0.9816 -0.5731 -1.0938
  398MOL0     H54911   0.539  11.068  10.469 -0.3366 -0.6869 -6.0320
  398MOL0     H54912   0.359  11.095  10.262 -2.2073 -3.3628 -0.8269
  398MOL0     H54913   0.541  11.076  10.269  0.5778 -3.0305  1.0014
  398MOL0     H54914   0.428  11.168  10.074 -2.0625 -0.5508 -1.8840
  398MOL0     H54915   0.353  11.004  10.045  1.6354 -2.6824 -0.9357
  398MOL0     H54916   0.662  11.066  10.051 -0.0150 -0.7548  0.7393
  398MOL0     H54917   0.599  10.908  10.041  0.3119  0.7694  3.5152
  398MOL0     H54918   0.602  11.128   9.828  4.4512  0.3490  1.8440
  398MOL0     H54919   0.463  10.999   9.827 -0.9942 -0.5835  4.0250
  398MOL0     H54920   0.804  10.798   9.693 -0.1858 -4.0866  1.7285
  398MOL0     H54921   0.397  10.673  10.368 -1.8470  0.2453  0.5523
  398MOL0     H54922   0.446  10.508  10.487 -1.0203 -2.0912  0.4275
  398MOL0     H54923   0.505  10.519  10.652  0.0559  0.2684  0.7838
  398MOL0     H54924   0.336  10.539  10.623  1.1207  1.2320  1.9251
  399MOL0     O54925   6.935   7.753   8.121 -0.4899 -0.3825 -0.5696
  399MOL0     C54926   6.814   7.790   8.123 -0.7228 -0.4993 -0.0767
  399MOL0     O54927   6.722   7.717   8.178  0.7185 -0.5090  0.5915
  399MOL0     C54928   6.747   7.619   8.275 -0.0730 -0.0662 -1.3924
  399MOL0     C54929   6.648   7.524   8.299 -0.2604  1.0153 -0.4431
  399MOL0     C54930   6.665   7.422   8.390  0.1336  0.5208  0.4264
  399MOL0     C54931   6.773   7.410   8.474  0.9325  0.5678  0.2861
  399MOL0     O54932   6.762   7.316   8.570 -0.6071 -0.0304 -0.3336
  399MOL0     C54933   6.859   7.325   8.675 -0.2222  0.6941  0.0013
  399MOL0     C54934   6.868   7.451   8.767 -0.0070 -0.0814 -0.4374
  399MOL0     C54935   6.737   7.493   8.831  0.1519 -0.0330 -0.6825
  399MOL0     C54936   6.760   7.631   8.906  0.3859  1.2202 -0.1201
  399MOL0     C54937   6.642   7.684   8.999 -0.2714 -0.3094  0.8049
  399MOL0     C54938   6.515   7.715   8.917 -1.1727  1.0992  0.7546
  399MOL0     C54939   6.407   7.763   9.010 -0.2980  0.0503 -0.5633
  399MOL0     C54940   6.270   7.754   8.947  1.0853 -0.6933  0.2345
  399MOL0     N54941   6.143   7.759   9.035  0.0940 -0.2266  0.7691
  399MOL0     C54942   6.109   7.655   9.114 -0.2700 -0.0680  0.9802
  399MOL0     C54943   5.983   7.669   9.136 -0.1467 -0.5701 -0.1731
  399MOL0     C54944   5.885   7.576   9.211  0.2456 -0.6593  0.3354
  399MOL0     C54945   5.769   7.552   9.112  0.1770  0.1688  0.3298
  399MOL0     C54946   5.807   7.480   8.980  0.3000 -0.7622  0.4217
  399MOL0     C54947   5.677   7.432   8.911 -0.1276 -0.0073 -0.1146
  399MOL0     O54948   5.721   7.410   8.780  0.3775 -0.1061  0.4048
  399MOL0     C54949   5.693   7.300   8.711  0.4251 -0.4703 -0.2387
  399MOL0     C54950   5.787   7.213   8.674  0.0134  0.3997  0.6421
  399MOL0     C54951   5.763   7.085   8.616 -0.3979  0.8310  0.6506
  399MOL0     C54952   5.878   6.992   8.606  0.6703 -0.1483 -0.2103
  399MOL0     C54953   5.634   7.049   8.573  0.1091  0.4371 -0.0872
  399MOL0     C54954   5.592   6.934   8.497 -0.4857  0.2544 -0.7261
  399MOL0     O54955   5.471   6.934   8.443 -0.0838  0.1146  0.4503
  399MOL0     C54956   5.446   6.822   8.360 -0.5078 -0.0541 -0.1636
  399MOL0     C54957   5.351   6.742   8.410  0.2453 -0.4171  0.3577
  399MOL0     C54958   5.313   6.623   8.343 -1.3958  0.4099  0.6565
  399MOL0     C54959   5.375   6.597   8.223  0.1722  0.6651 -0.2108
  399MOL0     O54960   5.338   6.487   8.149 -0.1423 -0.8128 -0.3969
  399MOL0     C54961   5.454   6.407   8.126  0.2909  0.1502  0.9030
  399MOL0     C54962   5.412   6.260   8.098  0.5484  0.1801 -0.3367
  399MOL0     C54963   5.307   6.236   7.992  1.1492 -1.0094  0.8630
  399MOL0     C54964   5.366   6.227   7.846  0.3862  0.5391 -0.2441
  399MOL0     C54965   5.403   6.079   7.812 -0.3751  0.6877  0.3413
  399MOL0     C54966   5.547   6.069   7.753  0.2951 -0.2078 -0.1212
  399MOL0     C54967   5.594   5.928   7.721 -0.9549  1.8419 -0.2283
  399MOL0     C54968   5.608   5.843   7.848 -0.8430 -0.8781  0.3906
  399MOL0    Cl54969   5.682   5.688   7.814  0.4801  0.4030  0.0171
  399MOL0     C54970   5.463   6.688   8.168 -0.1738 -0.6511  0.2817
  399MOL0     C54971   5.511   6.791   8.240  0.6558 -0.3182  0.2446
  399MOL0     O54972   5.671   6.838   8.496 -0.1833  0.0362 -0.4556
  399MOL0     C54973   5.535   7.152   8.597 -0.4989  0.1573  0.9393
  399MOL0     C54974   5.569   7.263   8.668  0.0592  0.0453 -0.1763
  399MOL0     N54975   5.934   7.788   9.080 -0.2112 -0.0617 -0.9063
  399MOL0     N54976   6.033   7.840   9.015 -0.1182  0.0295  0.2669
  399MOL0     C54977   6.878   7.505   8.450 -0.5156 -0.8688  0.1897
  399MOL0     C54978   6.864   7.612   8.356  0.0993 -0.2971 -0.6142
  399MOL0     C54979   6.781   7.909   8.049 -0.4891 -0.4173 -0.9741
  399MOL0     C54980   6.645   7.951   8.056 -0.4057 -0.6284 -0.4063
  399MOL0     C54981   6.608   8.075   8.002 -0.6142 -0.0742 -0.3549
  399MOL0     C54982   6.696   8.156   7.932 -0.2870  0.8684  0.3701
  399MOL0     O54983   6.664   8.267   7.855 -0.1045  0.1163 -0.4209
  399MOL0     C54984   6.708   8.387   7.909  0.1017 -0.5943 -0.6047
  399MOL0     C54985   6.661   8.503   7.830  0.0727 -0.5983 -0.5931
  399MOL0     C54986   6.697   8.501   7.683 -0.4482  0.0855  0.3738
  399MOL0     C54987   6.684   8.640   7.629 -0.2943  0.5368 -0.8524
  399MOL0     C54988   6.755   8.661   7.503  0.0501  1.1959 -0.0374
  399MOL0     C54989   6.795   8.662   7.387 -0.4168  0.6283  0.6910
  399MOL0     C54990   6.830   8.111   7.928 -0.5596 -0.1531  0.9514
  399MOL0     C54991   6.880   7.991   7.978  0.4138  0.3879 -0.8322
  399MOL0     C54992   7.031   7.966   7.967  0.2495 -0.2253 -0.8696
  399MOL0     H54993   6.550   7.526   8.251 -0.8239  2.3522  0.6841
  399MOL0     H54994   6.589   7.344   8.392  0.4522  0.1339 -0.9537
  399MOL0     H54995   6.960   7.294   8.649 -0.2148  0.7204 -0.0016
  399MOL0     H54996   6.816   7.247   8.738  0.3026 -0.2854 -0.8163
  399MOL0     H54997   6.923   7.421   8.856 -1.7092  0.5816  0.8896
  399MOL0     H54998   6.911   7.533   8.709 -2.7198  0.9648 -1.1271
  399MOL0     H54999   6.665   7.499   8.749  0.9593 -1.4172 -1.5367
  399MOL0     H55000   6.703   7.423   8.908  1.7957  2.0331  2.1123
  399MOL0     H55001   6.844   7.612   8.973  1.2480 -1.4153 -1.8013
  399MOL0     H55002   6.793   7.708   8.836  0.1390 -1.6266 -3.6616
  399MOL0     H55003   6.666   7.776   9.054  0.7601  0.4707 -0.8843
  399MOL0     H55004   6.619   7.615   9.081 -2.0566 -1.1267 -0.3319
  399MOL0     H55005   6.539   7.801   8.855 -1.1488 -1.4895 -3.1497
  399MOL0     H55006   6.499   7.626   8.855 -0.1760  1.0560  0.5492
  399MOL0     H55007   6.435   7.867   9.023 -3.8529  1.2836 -1.4899
  399MOL0     H55008   6.410   7.699   9.099 -0.0017 -3.6807 -2.9952
  399MOL0     H55009   6.270   7.846   8.889  1.5815 -0.0747  1.1811
  399MOL0     H55010   6.259   7.663   8.888  0.2318  0.0544 -0.8031
  399MOL0     H55011   6.170   7.571   9.146  0.1748 -1.2470 -2.5395
  399MOL0     H55012   5.842   7.621   9.300 -0.3857 -2.2083  0.8558
  399MOL0     H55013   5.937   7.491   9.256  0.5473  1.4877  4.5400
  399MOL0     H55014   5.699   7.489   9.167  1.4515 -0.2076  1.5648
  399MOL0     H55015   5.724   7.642   9.070 -2.9568 -2.0242 -1.5203
  399MOL0     H55016   5.860   7.540   8.906 -1.8231 -1.8255 -2.1153
  399MOL0     H55017   5.866   7.389   8.996  1.1109 -0.3560 -0.2421
  399MOL0     H55018   5.641   7.339   8.955 -1.8247 -0.2926 -1.9817
  399MOL0     H55019   5.591   7.497   8.930 -1.4453 -0.9866 -2.3507
  399MOL0     H55020   5.887   7.248   8.700 -0.2685  1.1961  0.7014
  399MOL0     H55021   5.963   7.030   8.664 -0.1553 -0.2157  1.0872
  399MOL0     H55022   5.905   6.979   8.501 -2.8824  1.9574 -1.5657
  399MOL0     H55023   5.863   6.895   8.653  4.0579 -0.4453  0.4946
  399MOL0     H55024   5.301   6.765   8.503 -1.2289  0.3740 -0.5922
  399MOL0     H55025   5.242   6.552   8.385 -2.2148 -1.0865 -2.8564
  399MOL0     H55026   5.494   6.448   8.033 -1.1483 -5.0203 -2.4322
  399MOL0     H55027   5.524   6.409   8.210  0.9844 -1.9618  0.4493
  399MOL0     H55028   5.494   6.201   8.056 -0.3541  0.9032 -3.2852
  399MOL0     H55029   5.377   6.227   8.197  0.1829  0.3392 -0.4129
  399MOL0     H55030   5.234   6.317   7.987  0.9663 -1.2198 -1.6911
  399MOL0     H55031   5.247   6.153   8.031  2.3973 -2.3923 -0.0808
  399MOL0     H55032   5.448   6.298   7.827  1.2663 -0.9907 -2.6555
  399MOL0     H55033   5.294   6.265   7.773  0.3945  2.2297  0.5810
  399MOL0     H55034   5.392   6.020   7.903 -0.7156 -0.1341 -0.2192
  399MOL0     H55035   5.344   6.041   7.728  1.0261  0.6738 -0.6634
  399MOL0     H55036   5.617   6.120   7.819 -0.9569  2.0441 -0.4094
  399MOL0     H55037   5.556   6.127   7.661 -1.5251 -0.4971 -0.5178
  399MOL0     H55038   5.699   5.939   7.692 -0.5139  1.6402  1.2046
  399MOL0     H55039   5.545   5.872   7.641  0.2416 -2.6937  1.8879
  399MOL0     H55040   5.502   5.817   7.862 -0.7881 -1.1226  0.3632
  399MOL0     H55041   5.646   5.893   7.938 -0.1248 -0.8489  0.0767
  399MOL0     H55042   5.513   6.666   8.075 -1.2370  0.2551 -0.5299
  399MOL0     H55043   5.609   6.834   8.222  0.8240 -0.5968  0.4867
  399MOL0     H55044   5.438   7.138   8.550  1.3776 -1.3344 -2.9054
  399MOL0     H55045   5.484   7.330   8.682 -0.0624  0.3970 -2.2712
  399MOL0     H55046   6.974   7.505   8.501  0.8733 -0.9800 -2.2697
  399MOL0     H55047   6.942   7.687   8.359 -0.7964  0.6625 -0.5193
  399MOL0     H55048   6.568   7.897   8.109 -2.4202 -0.4148 -2.9039
  399MOL0     H55049   6.503   8.099   7.989 -0.2008  3.8139  1.7527
  399MOL0     H55050   6.671   8.403   8.011  0.1078  0.2688 -0.7269
  399MOL0     H55051   6.817   8.392   7.913  0.1312  2.2280 -2.3966
  399MOL0     H55052   6.708   8.586   7.883 -0.3377  0.4278 -1.8049
  399MOL0     H55053   6.553   8.513   7.847  0.5055  2.5853  0.8681
  399MOL0     H55054   6.800   8.466   7.675 -1.1898 -2.1502  0.0880
  399MOL0     H55055   6.639   8.432   7.621  1.9408 -0.0599 -1.8846
  399MOL0     H55056   6.730   8.706   7.703 -1.6572 -0.0092  0.5297
  399MOL0     H55057   6.580   8.674   7.627  0.1514  2.0891  0.2858
  399MOL0     H55058   6.847   8.652   7.294 -0.4891  1.9935  0.4960
  399MOL0     H55059   6.900   8.167   7.868 -1.6691 -0.6041 -0.8772
  399MOL0     H55060   7.081   7.963   8.064  1.5599 -0.0061 -1.5238
  399MOL0     H55061   7.038   7.876   7.904 -0.3533 -1.9456  1.3645
  399MOL0     H55062   7.079   8.049   7.914  1.5918  0.7132  1.6462
  400MOL0     O55063   8.823  11.610  11.229 -0.1653  0.2615  0.6166
  400MOL0     C55064   8.811  11.715  11.168 -0.0709 -0.9680 -0.0376
  400MOL0     O55065   8.876  11.756  11.054  0.3507  0.1028  0.5904
  400MOL0     C55066   8.980  11.682  10.999 -0.0639  0.1526 -0.5108
  400MOL0     C55067   9.012  11.710  10.868 -0.2279 -0.8358  0.4025
  400MOL0     C55068   9.119  11.638  10.812 -0.7201  0.4005  0.1998
  400MOL0     C55069   9.193  11.541  10.876  0.7933 -0.3765  0.0270
  400MOL0     O55070   9.298  11.489  10.806  0.1187 -0.0551  0.1186
  400MOL0     C55071   9.369  11.385  10.873 -0.7751 -0.1585 -0.0949
  400MOL0     C55072   9.487  11.336  10.784 -0.0967  0.8595  0.6780
  400MOL0     C55073   9.526  11.198  10.836 -0.3355  1.4123 -0.3112
  400MOL0     C55074   9.658  11.215  10.923 -0.5576 -0.0197  0.0633
  400MOL0     C55075   9.684  11.090  11.015 -0.2399 -0.9090  0.2191
  400MOL0     C55076   9.782  11.116  11.129  0.2541  1.0176  0.8007
  400MOL0     C55077   9.914  11.178  11.065 -0.7115 -0.0459 -0.2453
  400MOL0     C55078  10.036  11.154  11.162  0.8879 -0.4172  0.2647
  400MOL0     N55079  10.138  11.245  11.130 -0.3111 -0.6446 -0.4132
  400MOL0     C55080  10.235  11.286  11.217  0.5698  0.0518  1.0863
  400MOL0     C55081  10.317  11.357  11.140  0.2320  0.0652 -0.0223
  400MOL0     C55082  10.435  11.431  11.199 -0.2886  0.4555  0.3766
  400MOL0     C55083  10.406  11.574  11.227 -0.0697  0.2069  0.4151
  400MOL0     C55084  10.371  11.639  11.094 -0.1862  1.1233 -0.5662
  400MOL0     C55085  10.403  11.786  11.075 -0.3026 -0.2859 -0.2691
  400MOL0     O55086  10.546  11.792  11.054  0.3405 -0.1030 -0.7360
  400MOL0     C55087  10.592  11.908  11.007 -0.2762 -0.0623  0.1053
  400MOL0     C55088  10.722  11.898  10.960  0.1264  0.2991  0.4015
  400MOL0     C55089  10.785  12.010  10.912  0.4341 -0.3226 -0.5737
  400MOL0     C55090  10.935  11.972  10.870  0.5214  0.5464  0.6721
  400MOL0     C55091  10.715  12.131  10.897  0.3749 -0.6041  0.4807
  400MOL0     C55092  10.764  12.248  10.821  0.1661  0.2465  0.1039
  400MOL0     O55093  10.688  12.357  10.810 -0.3105 -0.7740 -0.1158
  400MOL0     C55094  10.740  12.472  10.747 -0.0298 -0.1961 -1.9342
  400MOL0     C55095  10.687  12.518  10.627  0.1430 -0.1296  0.1283
  400MOL0     C55096  10.742  12.637  10.557 -0.7229  0.0902  0.2055
  400MOL0     C55097  10.830  12.711  10.622 -0.1474  0.6209  0.0213
  400MOL0     O55098  10.879  12.829  10.573 -0.0334  0.2370 -0.7785
  400MOL0     C55099  10.844  12.871  10.442 -0.5783 -0.5429 -0.2036
  400MOL0     C55100  10.885  13.009  10.416 -0.1178 -0.0523 -0.3777
  400MOL0     C55101  10.778  13.115  10.483 -0.5729  0.4343  0.3421
  400MOL0     C55102  10.809  13.254  10.419  0.4566 -0.0241  0.0106
  400MOL0     C55103  10.764  13.271  10.268 -0.5007  0.3004 -0.0196
  400MOL0     C55104  10.696  13.415  10.254  1.1460  0.2669  0.1933
  400MOL0     C55105  10.788  13.540  10.265  0.0426  0.2170 -0.9268
  400MOL0     C55106  10.731  13.666  10.289  0.6510 -0.3984 -0.1187
  400MOL0    Cl55107  10.660  13.672  10.449  0.1682  0.0514 -0.0071
  400MOL0     C55108  10.889  12.670  10.748 -0.0157 -0.6287  0.6536
  400MOL0     C55109  10.843  12.549  10.812  0.7342  0.1367  0.0133
  400MOL0     O55110  10.877  12.240  10.777  0.6658 -0.2824  0.3232
  400MOL0     C55111  10.581  12.140  10.944  0.2790 -0.4462 -0.1667
  400MOL0     C55112  10.524  12.029  11.009 -0.6669 -0.2876  0.0691
  400MOL0     N55113  10.280  11.351  11.009  0.6557  0.6916 -0.4865
  400MOL0     N55114  10.170  11.286  11.004  0.3476 -0.1852  0.0811
  400MOL0     C55115   9.154  11.522  11.009  0.1455  0.4856  0.1390
  400MOL0     C55116   9.052  11.584  11.072 -0.5671  0.3845  0.5731
  400MOL0     C55117   8.738  11.835  11.228  0.1265  1.0460 -0.2272
  400MOL0     C55118   8.795  11.959  11.211 -0.0886 -0.1937  0.3302
  400MOL0     C55119   8.740  12.082  11.252 -0.1551  0.0918 -0.7180
  400MOL0     C55120   8.631  12.075  11.341  0.3293  0.2683 -0.7405
  400MOL0     O55121   8.579  12.185  11.400  0.1968  0.4098 -0.1253
  400MOL0     C55122   8.650  12.302  11.384 -0.7947  0.1364  0.7204
  400MOL0     C55123   8.608  12.418  11.479  0.8298 -0.1676  0.3800
  400MOL0     C55124   8.620  12.376  11.625 -0.5549 -0.8487 -0.5671
  400MOL0     C55125   8.570  12.482  11.724  0.7764  0.2226 -0.0728
  400MOL0     C55126   8.423  12.511  11.706 -0.1270 -0.8922 -0.2072
  400MOL0     C55127   8.318  12.566  11.706  0.2404 -0.2126  0.4346
  400MOL0     C55128   8.575  11.954  11.370 -0.5877  0.5458  1.3181
  400MOL0     C55129   8.617  11.830  11.303  0.2209 -0.6371 -0.7549
  400MOL0     C55130   8.548  11.707  11.334 -0.0583  0.0809  0.4806
  400MOL0     H55131   8.964  11.792  10.816 -1.4646 -0.3948  2.1368
  400MOL0     H55132   9.144  11.667  10.711 -1.1947  0.8232  0.2001
  400MOL0     H55133   9.301  11.305  10.902  1.3358 -1.5970  1.1545
  400MOL0     H55134   9.426  11.435  10.952  0.7969  1.9477 -2.4185
  400MOL0     H55135   9.452  11.341  10.680 -0.0649  0.4747  0.6485
  400MOL0     H55136   9.576  11.399  10.801  1.5220 -0.7480 -1.2454
  400MOL0     H55137   9.443  11.146  10.884  0.1390 -0.0926 -1.0714
  400MOL0     H55138   9.557  11.138  10.750 -3.3238 -0.7734  0.0053
  400MOL0     H55139   9.743  11.245  10.860 -0.6259 -0.9693 -0.5036
  400MOL0     H55140   9.642  11.295  10.995 -0.5489  0.2198 -0.1985
  400MOL0     H55141   9.719  11.006  10.955 -2.1928  0.6099 -3.3649
  400MOL0     H55142   9.585  11.061  11.052 -0.9746  1.8198  0.6728
  400MOL0     H55143   9.738  11.188  11.199  1.0540  1.8174  0.5155
  400MOL0     H55144   9.802  11.023  11.183  3.8392  1.2652  0.1424
  400MOL0     H55145   9.896  11.285  11.049 -1.4677 -0.1398 -0.0769
  400MOL0     H55146   9.938  11.126  10.972  1.5000 -2.1069  1.3288
  400MOL0     H55147  10.005  11.161  11.267 -1.6698 -3.7147 -0.1094
  400MOL0     H55148  10.087  11.057  11.173 -0.8345 -1.2215  1.7651
  400MOL0     H55149  10.234  11.268  11.324 -1.1614 -2.1996  0.7695
  400MOL0     H55150  10.519  11.430  11.129 -1.0226  0.5389 -0.5246
  400MOL0     H55151  10.463  11.378  11.291 -1.3932 -1.8066 -0.5080
  400MOL0     H55152  10.321  11.584  11.295  0.7124  1.6514  1.2451
  400MOL0     H55153  10.488  11.631  11.272  0.3702 -1.5620  1.9961
  400MOL0     H55154  10.405  11.590  11.002  1.1513 -0.5566  0.7407
  400MOL0     H55155  10.265  11.617  11.084  0.8936 -6.6972 -1.7959
  400MOL0     H55156  10.339  11.825  10.995 -2.4666 -1.4410  0.8156
  400MOL0     H55157  10.374  11.836  11.168  0.0312 -3.8846  1.9547
  400MOL0     H55158  10.770  11.805  10.987 -0.1055  1.0979  4.2658
  400MOL0     H55159  11.002  12.027  10.936  0.9645 -0.2047  0.8553
  400MOL0     H55160  10.952  12.000  10.765 -1.4186 -2.2828 -0.5415
  400MOL0     H55161  10.969  11.869  10.881 -0.5962  0.3140  2.2935
  400MOL0     H55162  10.611  12.452  10.587  0.4665  0.0344 -0.7864
  400MOL0     H55163  10.707  12.667  10.458 -1.1664 -1.5947 -0.1842
  400MOL0     H55164  10.885  12.804  10.367  1.3754  0.4244 -0.0669
  400MOL0     H55165  10.735  12.860  10.443 -0.4520 -2.0301  1.3437
  400MOL0     H55166  10.982  13.029  10.464  1.2125 -1.4293 -2.3449
  400MOL0     H55167  10.879  13.029  10.309 -0.4797  1.1640 -0.1550
  400MOL0     H55168  10.785  13.120  10.592 -2.8666 -1.4246  0.6659
  400MOL0     H55169  10.674  13.092  10.456 -1.1441  2.1389  0.9138
  400MOL0     H55170  10.913  13.283  10.438  0.5249 -1.2252  1.7180
  400MOL0     H55171  10.752  13.324  10.482 -0.5556  0.3559 -1.3017
  400MOL0     H55172  10.859  13.269  10.213 -0.7457  2.4564 -0.6210
  400MOL0     H55173  10.686  13.203  10.232  0.7204  0.2014 -2.7598
  400MOL0     H55174  10.609  13.425  10.320 -0.9620 -3.3283 -1.7338
  400MOL0     H55175  10.648  13.419  10.156 -1.8832 -1.0163  1.5003
  400MOL0     H55176  10.843  13.550  10.171  0.5213 -4.7926 -1.4480
  400MOL0     H55177  10.857  13.518  10.348 -1.5503 -2.2227 -0.1520
  400MOL0     H55178  10.648  13.685  10.221  0.9879  1.1328 -0.1385
  400MOL0     H55179  10.795  13.755  10.290 -0.5544  0.5522 -1.9780
  400MOL0     H55180  10.968  12.734  10.787  0.3897  0.7866 -2.1969
  400MOL0     H55181  10.874  12.521  10.912  2.5320 -0.9050 -0.7967
  400MOL0     H55182  10.524  12.232  10.940  4.1769  2.2005 -0.7090
  400MOL0     H55183  10.421  12.044  11.037 -0.3382  2.8890 -0.1186
  400MOL0     H55184   9.219  11.458  11.067  1.8218  1.4016 -0.6618
  400MOL0     H55185   9.048  11.559  11.177  1.5971  0.9388  0.8245
  400MOL0     H55186   8.883  11.969  11.148 -0.2928 -2.8132 -0.4814
  400MOL0     H55187   8.790  12.173  11.221  0.9413 -0.8154 -1.7322
  400MOL0     H55188   8.753  12.275  11.407 -0.3975 -1.2695 -2.1944
  400MOL0     H55189   8.644  12.344  11.282  2.0659 -1.3732 -0.1643
  400MOL0     H55190   8.506  12.440  11.447  0.2141 -0.1821  2.2342
  400MOL0     H55191   8.666  12.505  11.447  0.9219 -1.1512 -2.3988
  400MOL0     H55192   8.583  12.277  11.650  0.7300 -0.6355  2.7007
  400MOL0     H55193   8.727  12.376  11.648 -0.2816  1.6777 -1.4531
  400MOL0     H55194   8.644  12.562  11.727  0.3511  0.5973  0.6009
  400MOL0     H55195   8.587  12.438  11.822  0.5411 -0.7635 -0.4591
  400MOL0     H55196   8.220  12.607  11.707  0.9518  1.6290  2.0310
  400MOL0     H55197   8.486  11.947  11.433 -1.9023 -0.2191 -0.5285
  400MOL0     H55198   8.582  11.648  11.419 -1.5200 -1.3120  0.1459
  400MOL0     H55199   8.439  11.706  11.327 -0.1019  1.7786  0.5351
  400MOL0     H55200   8.575  11.642  11.250  2.3000  2.1425 -0.5117
  401MOL0     O55201  10.505   6.243   9.163  0.2285  0.9406 -0.2009
  401MOL0     C55202  10.440   6.335   9.203 -1.9070  1.6563 -0.0985
  401MOL0     O55203  10.387   6.334   9.324  0.6359 -0.2523  0.5915
  401MOL0     C55204  10.380   6.224   9.399 -0.5418  0.5857 -0.0064
  401MOL0     C55205  10.389   6.228   9.542 -0.9466  0.2266  0.9060
  401MOL0     C55206  10.381   6.106   9.619 -0.6937 -0.0834  0.1905
  401MOL0     C55207  10.350   5.985   9.559 -0.1257  1.0459  0.0449
  401MOL0     O55208  10.322   5.875   9.639  0.0612 -0.4883 -0.8390
  401MOL0     C55209  10.180   5.838   9.661 -0.5389  0.5606 -0.5059
  401MOL0     C55210  10.146   5.871   9.810 -0.1862  0.4063  0.4454
  401MOL0     C55211  10.233   5.774   9.901  0.2403  0.6355 -0.1443
  401MOL0     C55212  10.175   5.768  10.042 -0.3191 -0.0338  0.5125
  401MOL0     C55213  10.274   5.706  10.144  0.1962  0.1896  0.8905
  401MOL0     C55214  10.205   5.705  10.277 -0.5316  0.7899  0.0109
  401MOL0     C55215  10.112   5.579  10.301 -0.3457 -0.2738  0.2536
  401MOL0     C55216  10.062   5.589  10.435  0.2842  0.1693 -0.3338
  401MOL0     N55217   9.992   5.473  10.477  0.3640  0.9367  0.0938
  401MOL0     C55218  10.035   5.377  10.557 -0.1377  0.2928 -0.7460
  401MOL0     C55219   9.928   5.294  10.579 -0.3642  0.1209 -1.0130
  401MOL0     C55220   9.924   5.167  10.667  0.6689 -0.2928  0.2053
  401MOL0     C55221   9.857   5.182  10.803 -0.4371 -0.0264  0.2707
  401MOL0     C55222   9.868   5.052  10.879 -0.1516 -0.5417 -0.3995
  401MOL0     C55223   9.822   5.044  11.024 -0.2935 -0.4826  0.0637
  401MOL0     O55224   9.865   5.162  11.098 -0.6390  0.4299 -0.0633
  401MOL0     C55225   9.811   5.171  11.225 -0.2977 -0.4077  0.6579
  401MOL0     C55226   9.816   5.283  11.289 -0.6221 -1.0399  0.4561
  401MOL0     C55227   9.761   5.303  11.414  0.3085  0.3046 -0.2911
  401MOL0     C55228   9.773   5.439  11.482  0.1064 -0.4711  0.3591
  401MOL0     C55229   9.694   5.199  11.478  0.2243  0.2087 -0.6981
  401MOL0     C55230   9.612   5.220  11.601  0.0073  0.8503  0.4130
  401MOL0     O55231   9.550   5.101  11.644 -0.2952  0.5644  0.6699
  401MOL0     C55232   9.438   5.114  11.731 -0.8110  0.5649 -0.0484
  401MOL0     C55233   9.307   5.145  11.685  0.2391  0.1504 -0.6457
  401MOL0     C55234   9.208   5.161  11.782  0.1132  0.8839  0.5615
  401MOL0     C55235   9.244   5.155  11.919  0.9969 -0.0658 -0.3228
  401MOL0     O55236   9.145   5.200  12.003  0.2151  0.8360  0.8594
  401MOL0     C55237   9.158   5.153  12.137 -0.2321 -0.3239 -0.8544
  401MOL0     C55238   9.025   5.114  12.197 -0.3200  0.1346  0.8564
  401MOL0     C55239   8.961   4.979  12.170 -0.1238 -1.0636  0.5077
  401MOL0     C55240   8.950   4.944  12.023  0.3067 -0.3551  0.1676
  401MOL0     C55241   8.854   4.825  12.006 -0.7201 -0.5262  0.8165
  401MOL0     C55242   8.828   4.795  11.861 -0.0686  0.3867 -0.1649
  401MOL0     C55243   8.953   4.747  11.772  0.3442  0.9906 -0.4906
  401MOL0     C55244   8.931   4.773  11.621 -0.0172 -0.0685 -0.6966
  401MOL0    Cl55245   8.855   4.618  11.581 -0.4722 -0.0077 -0.2761
  401MOL0     C55246   9.370   5.115  11.964 -0.3952  0.8465  0.0711
  401MOL0     C55247   9.465   5.101  11.865 -0.7833 -0.2740  0.4458
  401MOL0     O55248   9.598   5.328  11.652  0.4355 -0.1897  0.7841
  401MOL0     C55249   9.695   5.069  11.417  0.1594 -1.3401  0.0346
  401MOL0     C55250   9.757   5.057  11.293 -0.5339  0.5479 -0.3776
  401MOL0     N55251   9.814   5.344  10.516  0.4628 -0.2689 -0.0796
  401MOL0     N55252   9.857   5.457  10.459 -0.1815 -1.2260 -0.3329
  401MOL0     C55253  10.347   5.973   9.418 -0.0532 -0.8107 -0.5118
  401MOL0     C55254  10.349   6.093   9.340 -0.6520 -0.7612 -0.5976
  401MOL0     C55255  10.432   6.468   9.124  0.9995  0.3000  0.4772
  401MOL0     C55256  10.370   6.576   9.181 -0.3014  0.2234 -0.1320
  401MOL0     C55257  10.361   6.699   9.108 -0.1827  0.8523  0.7468
  401MOL0     C55258  10.390   6.709   8.970 -0.0285 -0.0778 -0.5308
  401MOL0     O55259  10.337   6.814   8.910  0.4492  0.2155  0.0449
  401MOL0     C55260  10.363   6.856   8.781 -0.2919  0.9555  0.7760
  401MOL0     C55261  10.273   6.959   8.741  0.1065 -0.4893 -0.8043
  401MOL0     C55262  10.274   6.997   8.591  0.3433 -0.0486 -0.2184
  401MOL0     C55263  10.140   7.068   8.551  0.0046 -0.0344 -0.9239
  401MOL0     C55264  10.153   7.155   8.438 -0.7032  0.3434  0.3307
  401MOL0     C55265  10.189   7.240   8.355 -0.1652  0.1084  0.6218
  401MOL0     C55266  10.451   6.598   8.917  0.0042 -0.0525  0.6315
  401MOL0     C55267  10.465   6.478   8.989  0.2607  0.4431  0.0316
  401MOL0     C55268  10.507   6.355   8.905  0.3110  1.0877 -0.0515
  401MOL0     H55269  10.376   6.326   9.588  1.1357  0.3444  1.3572
  401MOL0     H55270  10.372   6.090   9.725  0.5790 -4.6615 -0.2027
  401MOL0     H55271  10.167   5.731   9.647  2.0813  0.4145 -2.5127
  401MOL0     H55272  10.105   5.891   9.601  0.8519  0.1202 -2.7250
  401MOL0     H55273  10.178   5.972   9.836 -3.2037  1.5205  0.1902
  401MOL0     H55274  10.044   5.847   9.840 -0.0776 -1.9977 -0.8529
  401MOL0     H55275  10.236   5.673   9.858 -1.1214  0.8285 -0.7555
  401MOL0     H55276  10.339   5.802   9.898  1.1929 -2.5153  0.3405
  401MOL0     H55277  10.135   5.867  10.067 -2.8561 -0.1078 -2.5762
  401MOL0     H55278  10.083   5.710  10.039 -2.0620  2.5276  1.1658
  401MOL0     H55279  10.370   5.756  10.161 -0.7099  1.5275  2.2444
  401MOL0     H55280  10.282   5.602  10.111 -0.6893  0.1974  0.6239
  401MOL0     H55281  10.284   5.727  10.349  1.1738 -1.2807 -1.1214
  401MOL0     H55282  10.141   5.793  10.266  0.8368  1.5163 -3.9269
  401MOL0     H55283  10.172   5.488  10.288  0.7918 -0.0017  2.9342
  401MOL0     H55284  10.032   5.579  10.226  1.1795 -1.7607 -1.4792
  401MOL0     H55285  10.146   5.597  10.505 -0.8207 -1.8579  1.3288
  401MOL0     H55286   9.991   5.671  10.442 -3.0709 -2.3842 -1.9513
  401MOL0     H55287  10.137   5.371  10.595 -0.7446  0.9794  1.1081
  401MOL0     H55288  10.031   5.146  10.670  0.7240 -0.1769 -0.8031
  401MOL0     H55289   9.873   5.089  10.609  0.2948 -3.3834  4.2047
  401MOL0     H55290   9.898   5.265  10.861  4.1773 -0.8922 -1.3589
  401MOL0     H55291   9.748   5.193  10.792 -1.6147 -5.5920  2.6437
  401MOL0     H55292   9.807   4.979  10.826 -0.2360  2.8118 -5.6940
  401MOL0     H55293   9.975   5.028  10.879  1.1342  3.8867  2.4974
  401MOL0     H55294   9.713   5.048  11.013 -0.6606 -0.1072  3.0793
  401MOL0     H55295   9.858   4.945  11.054 -1.3886 -2.4251 -4.2466
  401MOL0     H55296   9.846   5.376  11.243 -1.8592 -0.5875  0.5092
  401MOL0     H55297   9.849   5.496  11.429 -1.8821  1.5552 -0.4969
  401MOL0     H55298   9.811   5.436  11.584 -1.4645 -0.2991  0.9836
  401MOL0     H55299   9.675   5.488  11.488  0.9906  1.6157 -1.2748
  401MOL0     H55300   9.290   5.163  11.579  2.2480  1.5734 -0.7799
  401MOL0     H55301   9.109   5.188  11.747  0.4646 -1.1951 -2.4239
  401MOL0     H55302   9.224   5.068  12.157  1.1393  0.6661 -0.9878
  401MOL0     H55303   9.189   5.238  12.198 -2.4005  0.8183 -1.2324
  401MOL0     H55304   9.027   5.102  12.306 -2.9724 -2.5546  0.7626
  401MOL0     H55305   8.950   5.183  12.158 -1.2968 -1.9044 -1.1562
  401MOL0     H55306   8.857   4.983  12.205 -0.5155  2.3033 -0.7065
  401MOL0     H55307   9.005   4.900  12.233  1.5556  0.7340  1.7011
  401MOL0     H55308   9.047   4.923  11.977  0.8182  1.2311  0.4674
  401MOL0     H55309   8.910   5.031  11.971  0.6423 -0.8809 -0.9993
  401MOL0     H55310   8.901   4.741  12.058  1.2784  0.0047 -0.0647
  401MOL0     H55311   8.755   4.849  12.047  0.2444  2.0613  1.8425
  401MOL0     H55312   8.790   4.887  11.817 -2.6157  0.3290  1.6774
  401MOL0     H55313   8.759   4.712  11.844  2.2607 -1.4036 -1.4849
  401MOL0     H55314   8.984   4.648  11.805 -0.0508  1.2176  0.5978
  401MOL0     H55315   9.035   4.818  11.783 -0.0717  1.4239 -0.1386
  401MOL0     H55316   9.033   4.794  11.585  1.2959 -0.5219  2.3942
  401MOL0     H55317   8.863   4.855  11.598  1.4360  0.7319 -2.4218
  401MOL0     H55318   9.400   5.101  12.067 -2.3768 -1.2643  0.4551
  401MOL0     H55319   9.569   5.076  11.887 -1.1439 -0.0008  2.7547
  401MOL0     H55320   9.668   4.975  11.462 -0.9192 -0.6595  0.8430
  401MOL0     H55321   9.750   4.965  11.236 -4.2685  1.4670 -1.6934
  401MOL0     H55322  10.336   5.876   9.370 -2.6393 -0.2107 -1.2591
  401MOL0     H55323  10.327   6.090   9.234 -4.0820  1.3971 -0.1124
  401MOL0     H55324  10.336   6.570   9.284  1.9043 -3.0134  0.5662
  401MOL0     H55325  10.309   6.778   9.162 -0.2512  0.3802  1.3881
  401MOL0     H55326  10.456   6.906   8.753 -1.4989  1.4567 -3.0195
  401MOL0     H55327  10.360   6.776   8.706  0.3205  0.2089  1.5351
  401MOL0     H55328  10.292   7.054   8.791 -1.2031  0.7309 -2.4901
  401MOL0     H55329  10.174   6.944   8.787 -0.8166  3.9856 -0.8431
  401MOL0     H55330  10.348   7.069   8.552  1.0296 -2.0849 -2.9854
  401MOL0     H55331  10.279   6.905   8.533  0.4789  1.5567 -2.9326
  401MOL0     H55332  10.108   7.139   8.628 -2.1773  1.6176 -3.1580
  401MOL0     H55333  10.058   6.998   8.531  1.1941 -1.0251 -2.5821
  401MOL0     H55334  10.211   7.316   8.283  0.9025  0.5538  1.4105
  401MOL0     H55335  10.481   6.609   8.814 -1.0977 -0.4252  0.2582
  401MOL0     H55336  10.604   6.328   8.947  0.5764  2.7869  0.4980
  401MOL0     H55337  10.438   6.272   8.924  1.3127  0.4315  0.7722
  401MOL0     H55338  10.513   6.365   8.796  1.4189 -2.4162 -0.4252
  402MOL0     O55339   0.233  10.510   0.710  0.1490  0.9582  0.5014
  402MOL0     C55340   0.269  10.424   0.635 -0.2966  0.5241 -0.4130
  402MOL0     O55341   0.398  10.366   0.643 -0.6181  0.9995 -0.7082
  402MOL0     C55342   0.488  10.423   0.731 -0.6189  0.6060  1.1158
  402MOL0     C55343   0.556  10.340   0.816 -0.0345  0.2296  0.9904
  402MOL0     C55344   0.642  10.388   0.907 -0.1642  0.8283 -0.2664
  402MOL0     C55345   0.691  10.516   0.908 -0.5354  0.4226  0.4308
  402MOL0     O55346   0.793  10.543   1.003  0.7522  0.0103 -0.4721
  402MOL0     C55347   0.841  10.677   1.030  0.8521  0.4500  1.1222
  402MOL0     C55348   0.955  10.715   0.932 -0.2172 -0.2244 -0.7661
  402MOL0     C55349   1.036  10.596   0.883  0.5444 -0.3380 -0.4380
  402MOL0     C55350   1.160  10.640   0.807  0.2425  1.4338  0.5031
  402MOL0     C55351   1.254  10.515   0.786  0.0064 -0.5604 -0.2558
  402MOL0     C55352   1.375  10.555   0.692  0.1231 -1.0811 -0.1294
  402MOL0     C55353   1.467  10.674   0.753 -0.6696  0.3980 -0.3839
  402MOL0     C55354   1.447  10.810   0.687 -0.0109 -0.2485 -0.0009
  402MOL0     N55355   1.538  10.909   0.732 -0.0949 -0.3597 -0.4070
  402MOL0     C55356   1.545  10.948   0.863 -0.6857  0.8174 -0.4698
  402MOL0     C55357   1.662  11.022   0.872  0.4073 -0.4146 -0.6430
  402MOL0     C55358   1.710  11.069   1.006 -0.5963 -0.2408  0.3566
  402MOL0     C55359   1.839  11.148   0.999  0.5975 -0.4551  0.1783
  402MOL0     C55360   1.807  11.298   0.968 -0.2764  0.4051  0.2459
  402MOL0     C55361   1.926  11.386   1.004 -0.0063  0.1509  1.1675
  402MOL0     O55362   1.873  11.516   0.988 -0.3566 -0.6088  0.1428
  402MOL0     C55363   1.862  11.585   0.871  0.0178 -1.2325 -0.0012
  402MOL0     C55364   1.775  11.698   0.867 -0.5746  0.5855 -0.2364
  402MOL0     C55365   1.771  11.792   0.758  0.7851  0.5821 -0.9880
  402MOL0     C55366   1.663  11.893   0.763  0.2232  0.5940 -0.2708
  402MOL0     C55367   1.856  11.766   0.645  0.7935 -0.2339  0.0030
  402MOL0     C55368   1.848  11.849   0.520 -1.0611  0.0856  0.3071
  402MOL0     O55369   1.921  11.804   0.417 -0.4281  0.3047  0.2584
  402MOL0     C55370   1.971  11.887   0.319 -0.1917 -0.2588  0.1656
  402MOL0     C55371   1.974  12.027   0.308  0.3005  0.4225 -0.7425
  402MOL0     C55372   2.022  12.093   0.193 -1.2134 -0.4532  0.5152
  402MOL0     C55373   2.081  12.032   0.079  0.3132 -0.1929 -0.2041
  402MOL0     O55374   2.131  12.085  -0.034  0.2946  0.0557 -0.4358
  402MOL0     C55375   2.128  12.230  -0.053  0.5907  0.3855  0.0396
  402MOL0     C55376   2.147  12.256  -0.195 -0.1073  0.1689  0.4907
  402MOL0     C55377   2.292  12.289  -0.211  0.5212 -0.3624 -0.0018
  402MOL0     C55378   2.342  12.246  -0.358  0.1055 -0.7623 -0.4313
  402MOL0     C55379   2.300  12.356  -0.463 -1.0054 -1.0753  0.2861
  402MOL0     C55380   2.419  12.455  -0.485  0.7669 -0.0928 -0.3628
  402MOL0     C55381   2.382  12.571  -0.571  0.6871 -0.1101  0.3012
  402MOL0     C55382   2.273  12.671  -0.534  0.3665  0.3481 -0.1151
  402MOL0    Cl55383   2.261  12.825  -0.648  0.0116 -0.3161 -0.0916
  402MOL0     C55384   2.088  11.891   0.101  0.0158  0.1322 -0.0291
  402MOL0     C55385   2.022  11.827   0.210  0.1218 -0.1320  0.4152
  402MOL0     O55386   1.759  11.936   0.503  0.4188  0.2445 -0.4733
  402MOL0     C55387   1.942  11.656   0.642  0.7391 -0.4338 -1.0441
  402MOL0     C55388   1.939  11.569   0.749 -0.9733 -0.3936 -0.7788
  402MOL0     N55389   1.713  11.030   0.741 -0.4308  0.0291 -0.2899
  402MOL0     N55390   1.644  10.957   0.665  1.1257 -0.5593  0.0189
  402MOL0     C55391   0.630  10.606   0.826 -0.2327 -0.3277 -0.6317
  402MOL0     C55392   0.527  10.557   0.738 -0.2757  0.0145  0.8340
  402MOL0     C55393   0.177  10.370   0.530  0.3957 -0.3118 -0.3319
  402MOL0     C55394   0.129  10.237   0.541 -0.4118 -0.6274  0.1033
  402MOL0     C55395   0.047  10.178   0.449  0.0156  0.2272  0.9016
  402MOL0     C55396   0.011  10.242   0.334  0.3270  0.1514 -0.0125
  402MOL0     O55397  -0.045  10.172   0.234  0.6448  1.2672  0.1193
  402MOL0     C55398  -0.171  10.215   0.182 -0.7153 -0.1722  0.2329
  402MOL0     C55399  -0.255  10.095   0.180  0.7334 -0.3463 -0.5408
  402MOL0     C55400  -0.398  10.136   0.172  0.9383 -0.1915  0.1033
  402MOL0     C55401  -0.502  10.060   0.082 -0.6024  0.9779  0.0467
  402MOL0     C55402  -0.504   9.916   0.115  0.2390 -1.1506 -0.6925
  402MOL0     C55403  -0.521   9.799   0.134  0.1055 -0.3759  0.1536
  402MOL0     C55404   0.051  10.382   0.326  0.9618 -0.0521  0.2189
  402MOL0     C55405   0.126  10.449   0.421 -0.1992  0.7453 -0.1487
  402MOL0     C55406   0.164  10.588   0.391 -0.7764  0.1327 -0.3929
  402MOL0     H55407   0.522  10.237   0.821  0.5240  0.1072  3.4186
  402MOL0     H55408   0.677  10.326   0.988  1.5631 -2.2618 -3.1318
  402MOL0     H55409   0.882  10.682   1.131  0.1534  3.7140  1.3651
  402MOL0     H55410   0.762  10.752   1.024  1.6924  1.2704 -1.3057
  402MOL0     H55411   0.903  10.759   0.846 -0.7471  2.6687  0.9219
  402MOL0     H55412   1.027  10.787   0.971 -0.2226  0.2820 -1.6629
  402MOL0     H55413   1.063  10.541   0.974 -0.9213  0.8447  0.7664
  402MOL0     H55414   0.975  10.531   0.820 -0.6123 -1.8944  2.1058
  402MOL0     H55415   1.136  10.691   0.713  1.0338  0.0373 -0.4885
  402MOL0     H55416   1.204  10.708   0.881  1.8131 -3.6688  4.8670
  402MOL0     H55417   1.190  10.436   0.746 -3.3654  2.4401 -1.3269
  402MOL0     H55418   1.291  10.490   0.885  3.0480  0.0855 -1.1184
  402MOL0     H55419   1.436  10.469   0.666  0.8666 -0.4955 -0.3683
  402MOL0     H55420   1.332  10.601   0.602  3.2764  0.7752 -0.8383
  402MOL0     H55421   1.568  10.637   0.730 -0.7062 -0.4172  0.6898
  402MOL0     H55422   1.464  10.673   0.862 -0.4225  0.3118 -0.3776
  402MOL0     H55423   1.467  10.802   0.579 -0.0581 -0.7113  0.0222
  402MOL0     H55424   1.349  10.850   0.713  1.1215  0.0768  4.6793
  402MOL0     H55425   1.485  10.932   0.952  1.7109  1.8061  1.4460
  402MOL0     H55426   1.724  10.986   1.076  1.9009 -0.4590 -0.3096
  402MOL0     H55427   1.632  11.138   1.039 -0.3528 -0.6684  1.9179
  402MOL0     H55428   1.893  11.158   1.093 -2.6777  2.6140  1.9504
  402MOL0     H55429   1.898  11.104   0.918 -0.1450  1.1825 -1.3116
  402MOL0     H55430   1.774  11.309   0.864  0.7295 -0.8716 -0.2387
  402MOL0     H55431   1.730  11.333   1.037  1.3554  0.4496  2.1321
  402MOL0     H55432   1.947  11.362   1.108 -2.9366 -2.0654  1.3462
  402MOL0     H55433   2.015  11.354   0.948 -1.1500 -2.5946  0.8007
  402MOL0     H55434   1.710  11.719   0.951  2.8022  3.3310  1.9955
  402MOL0     H55435   1.690  11.984   0.818 -0.8197 -0.3925  1.9789
  402MOL0     H55436   1.588  11.857   0.833 -2.5160  4.9822 -0.5975
  402MOL0     H55437   1.612  11.910   0.668  0.6327  1.6637 -0.3147
  402MOL0     H55438   1.937  12.078   0.397 -0.2427 -1.6251  0.2564
  402MOL0     H55439   2.030  12.200   0.202 -0.8862 -0.5269  1.1576
  402MOL0     H55440   2.040  12.281  -0.014  0.9776  2.0061 -1.1036
  402MOL0     H55441   2.204  12.283   0.005  2.5245  0.4307 -2.3550
  402MOL0     H55442   2.126  12.174  -0.265  2.3019  0.1592 -0.3259
  402MOL0     H55443   2.082  12.336  -0.232 -0.4695  0.4607  1.7154
  402MOL0     H55444   2.349  12.230  -0.138 -2.2438 -1.8967  1.0795
  402MOL0     H55445   2.310  12.396  -0.195 -0.0694 -0.0190 -1.5219
  402MOL0     H55446   2.312  12.143  -0.374  2.9891 -1.8894  0.6994
  402MOL0     H55447   2.447  12.215  -0.356 -0.0259 -1.2305  1.5807
  402MOL0     H55448   2.284  12.304  -0.558  0.5350 -1.4171  0.1980
  402MOL0     H55449   2.209  12.412  -0.438 -0.9004 -0.0945 -1.3808
  402MOL0     H55450   2.504  12.406  -0.533 -1.0904  0.2931 -4.4515
  402MOL0     H55451   2.456  12.487  -0.387 -2.7733 -1.3825  1.5570
  402MOL0     H55452   2.362  12.537  -0.673 -2.5789  0.3098  0.6986
  402MOL0     H55453   2.471  12.636  -0.574  0.8429 -0.2519  1.5190
  402MOL0     H55454   2.278  12.707  -0.431  0.9792  1.8278 -0.6338
  402MOL0     H55455   2.179  12.616  -0.537  1.8275 -2.4578  1.5287
  402MOL0     H55456   2.113  11.832   0.013 -1.9584 -1.6339  0.5262
  402MOL0     H55457   2.017  11.719   0.220 -0.0544  0.0626  3.3669
  402MOL0     H55458   2.015  11.640   0.564  0.3085  1.9483 -2.0183
  402MOL0     H55459   2.008  11.486   0.748 -0.9125 -0.5583  2.8645
  402MOL0     H55460   0.668  10.707   0.813 -1.3464 -0.0614 -2.0799
  402MOL0     H55461   0.475  10.628   0.674  1.1917 -0.0044 -0.4536
  402MOL0     H55462   0.156  10.173   0.625  0.4673 -4.5436 -2.8834
  402MOL0     H55463   0.021  10.073   0.457  0.2919  0.1629  0.9752
  402MOL0     H55464  -0.217  10.296   0.239  2.0187  1.8451 -0.2436
  402MOL0     H55465  -0.166  10.245   0.077  0.2715 -0.8666  0.0734
  402MOL0     H55466  -0.234  10.032   0.267  0.2580  1.3001  0.8301
  402MOL0     H55467  -0.233  10.045   0.085 -2.1645 -0.1891 -1.4016
  402MOL0     H55468  -0.439  10.147   0.273 -3.1322  2.8887 -1.5614
  402MOL0     H55469  -0.410  10.242   0.147  1.1934 -0.5736 -1.7190
  402MOL0     H55470  -0.473  10.066  -0.023 -1.1033 -0.8293 -0.2345
  402MOL0     H55471  -0.601  10.106   0.088 -0.9603  0.1378  0.7557
  402MOL0     H55472  -0.556   9.698   0.135 -0.8790 -0.0573 -0.6961
  402MOL0     H55473   0.016  10.423   0.232  0.7808  1.9103  1.0883
  402MOL0     H55474   0.158  10.648   0.482 -2.0329 -1.1961  0.4496
  402MOL0     H55475   0.255  10.604   0.333 -0.6914  2.2524  0.2491
  402MOL0     H55476   0.089  10.631   0.325  1.0152  2.0361 -1.2786
  403MOL0     O55477   7.499   3.324   2.238 -0.2143  0.1515 -0.3176
  403MOL0     C55478   7.539   3.326   2.355 -0.1708 -1.2240 -0.1574
  403MOL0     O55479   7.643   3.261   2.408  0.0401  0.0556 -0.1830
  403MOL0     C55480   7.690   3.138   2.352  0.1899  0.4546 -0.6712
  403MOL0     C55481   7.639   3.011   2.394  0.5691 -0.3020 -0.9270
  403MOL0     C55482   7.686   2.892   2.353  0.0336  0.4064  1.2504
  403MOL0     C55483   7.794   2.886   2.270 -0.4289 -0.3679  0.3016
  403MOL0     O55484   7.827   2.753   2.244  0.1908 -0.1413  0.2299
  403MOL0     C55485   7.877   2.722   2.110 -0.1024  0.5204 -0.6128
  403MOL0     C55486   7.869   2.577   2.112 -0.0825 -0.4632  0.8291
  403MOL0     C55487   7.920   2.495   1.990 -1.2843  0.1552  0.4301
  403MOL0     C55488   7.876   2.347   2.001  0.7596 -0.5021  0.5648
  403MOL0     C55489   7.937   2.243   1.914 -0.3981  0.5674  0.5204
  403MOL0     C55490   7.944   2.281   1.771  0.6594 -0.4146  0.3001
  403MOL0     C55491   7.992   2.169   1.670  0.4175 -0.3651  0.5269
  403MOL0     C55492   7.991   2.203   1.525  0.3179  0.0047 -0.0789
  403MOL0     N55493   8.073   2.314   1.492 -0.4690 -1.1308  0.6980
  403MOL0     C55494   8.048   2.445   1.520 -0.7470  0.8963  0.3801
  403MOL0     C55495   8.154   2.511   1.473  0.0481  1.1181 -0.0553
  403MOL0     C55496   8.173   2.656   1.462 -0.1086  0.7116 -0.5091
  403MOL0     C55497   8.085   2.707   1.359 -0.1174 -0.3872 -0.2132
  403MOL0     C55498   8.158   2.823   1.287  0.4242  0.1739  0.2795
  403MOL0     C55499   8.143   2.946   1.375  0.3867 -0.7067 -0.7963
  403MOL0     O55500   8.242   3.027   1.320 -0.1787 -1.1518  0.2503
  403MOL0     C55501   8.265   3.150   1.361 -0.3851  0.4569 -0.6108
  403MOL0     C55502   8.371   3.229   1.294  0.5537  0.7288  0.1645
  403MOL0     C55503   8.393   3.361   1.341  1.0687  0.8616  0.4400
  403MOL0     C55504   8.501   3.450   1.274  0.0665  0.3753 -0.2303
  403MOL0     C55505   8.309   3.419   1.444 -0.4509  0.9592 -0.4167
  403MOL0     C55506   8.319   3.558   1.487 -0.2279 -0.3288  0.4512
  403MOL0     O55507   8.438   3.613   1.512 -0.7827 -0.9982  0.9125
  403MOL0     C55508   8.450   3.754   1.520 -0.5247 -0.1450  0.0499
  403MOL0     C55509   8.467   3.820   1.397 -0.6601  1.4600 -0.2610
  403MOL0     C55510   8.466   3.956   1.385  0.3916 -0.5979  0.6071
  403MOL0     C55511   8.468   4.029   1.503 -0.9286  0.5486  0.7451
  403MOL0     O55512   8.459   4.159   1.483  0.4884  0.6620  0.7490
  403MOL0     C55513   8.329   4.209   1.444 -0.9787  1.5801 -0.5008
  403MOL0     C55514   8.352   4.347   1.405  0.2724 -0.0411  0.5603
  403MOL0     C55515   8.394   4.449   1.516  0.0999  0.5923  0.5798
  403MOL0     C55516   8.304   4.441   1.632 -0.3411  0.3317 -0.4249
  403MOL0     C55517   8.325   4.549   1.740  0.9280 -0.2942  0.8418
  403MOL0     C55518   8.246   4.502   1.868 -0.7953 -0.8928 -0.1563
  403MOL0     C55519   8.269   4.594   1.985 -0.0723  0.6656  0.0059
  403MOL0     C55520   8.230   4.540   2.123  0.3033 -0.0217  0.0733
  403MOL0    Cl55521   8.341   4.423   2.191 -0.3084 -0.3785  0.6140
  403MOL0     C55522   8.479   3.965   1.629 -0.5989 -0.0615 -0.3358
  403MOL0     C55523   8.451   3.829   1.630 -0.5323  1.1432 -0.3967
  403MOL0     O55524   8.212   3.619   1.498 -0.7531 -0.1991  0.0729
  403MOL0     C55525   8.221   3.334   1.510 -0.1693 -0.3715 -0.2524
  403MOL0     C55526   8.200   3.208   1.472  0.8585  0.8210 -0.2266
  403MOL0     N55527   8.251   2.421   1.433  0.4926 -0.2937  0.7811
  403MOL0     N55528   8.204   2.300   1.445  0.7598 -0.0345  0.4470
  403MOL0     C55529   7.846   3.005   2.210  0.6056  0.4000 -0.3594
  403MOL0     C55530   7.795   3.131   2.261 -0.3078 -0.2332 -0.9783
  403MOL0     C55531   7.474   3.425   2.438  0.4995 -0.4528  0.3073
  403MOL0     C55532   7.557   3.506   2.516 -0.1783 -0.2015 -0.0257
  403MOL0     C55533   7.498   3.598   2.604 -0.2988  0.1638 -0.4700
  403MOL0     C55534   7.357   3.601   2.616  0.3636 -0.5750  0.2954
  403MOL0     O55535   7.296   3.694   2.694  0.1507  0.0099  0.5893
  403MOL0     C55536   7.288   3.820   2.638 -1.0630 -0.7270 -0.0984
  403MOL0     C55537   7.190   3.913   2.703  0.8736 -0.4633 -0.1644
  403MOL0     C55538   7.222   3.944   2.848  0.2061  0.0071  1.2230
  403MOL0     C55539   7.109   4.023   2.910 -0.1275 -0.3069 -0.2518
  403MOL0     C55540   7.143   4.176   2.893 -0.4526  0.7500 -0.2637
  403MOL0     C55541   7.173   4.299   2.909  0.1502 -0.3832 -0.1345
  403MOL0     C55542   7.274   3.529   2.534 -0.9599  0.5143  0.7459
  403MOL0     C55543   7.334   3.436   2.445  0.1844  1.3549  0.5551
  403MOL0     C55544   7.237   3.383   2.347  0.0828 -0.2491 -0.4182
  403MOL0     H55545   7.556   3.009   2.465  1.1559 -1.4774 -0.2571
  403MOL0     H55546   7.634   2.801   2.380 -3.1560  2.1740  1.5801
  403MOL0     H55547   7.980   2.753   2.089 -0.7222  3.9387  0.7539
  403MOL0     H55548   7.807   2.757   2.033 -0.0851 -3.4622 -2.7075
  403MOL0     H55549   7.924   2.525   2.191  3.5274  0.5239 -0.8548
  403MOL0     H55550   7.761   2.558   2.121 -0.1372 -0.0536  1.0736
  403MOL0     H55551   7.892   2.533   1.891  2.0301 -0.0310 -0.7211
  403MOL0     H55552   8.030   2.492   1.993 -1.2925 -2.1272  0.1749
  403MOL0     H55553   7.886   2.322   2.107 -3.2535 -3.1007  0.5532
  403MOL0     H55554   7.768   2.364   1.988  0.8353  0.4560  1.0985
  403MOL0     H55555   7.892   2.144   1.927 -0.0987  0.1634 -1.3085
  403MOL0     H55556   8.041   2.226   1.944  0.5983 -3.1940 -3.9309
  403MOL0     H55557   7.841   2.301   1.739  0.4987 -0.1853  0.9449
  403MOL0     H55558   8.002   2.372   1.755  2.8805 -1.5216  1.6304
  403MOL0     H55559   7.932   2.080   1.693 -2.8956  2.3116  3.3886
  403MOL0     H55560   8.095   2.135   1.681  0.0850 -2.0798 -1.1674
  403MOL0     H55561   8.025   2.116   1.468 -0.9130  0.2895 -1.2965
  403MOL0     H55562   7.887   2.212   1.492  0.2102 -3.4535 -1.0597
  403MOL0     H55563   7.967   2.486   1.579 -1.5550  0.1664 -0.2136
  403MOL0     H55564   8.278   2.668   1.433 -0.4172 -3.8758 -4.9376
  403MOL0     H55565   8.145   2.706   1.555  0.2491 -0.1632  0.0826
  403MOL0     H55566   8.064   2.625   1.289  0.2691 -1.2470  0.6581
  403MOL0     H55567   7.993   2.748   1.400  0.4818  0.7723  0.0201
  403MOL0     H55568   8.265   2.810   1.272  1.2005  2.4353  3.1906
  403MOL0     H55569   8.106   2.845   1.193 -4.7851 -1.1375  2.5142
  403MOL0     H55570   8.049   3.000   1.364  0.8169  0.8112  2.1305
  403MOL0     H55571   8.158   2.928   1.482  1.2310 -1.5751 -1.0418
  403MOL0     H55572   8.418   3.184   1.207  0.2769  0.3348  0.2165
  403MOL0     H55573   8.570   3.481   1.353 -3.1068 -1.2032  3.5178
  403MOL0     H55574   8.457   3.541   1.231 -1.2865 -0.6136 -1.0519
  403MOL0     H55575   8.557   3.398   1.197 -0.4735 -1.2635  0.4414
  403MOL0     H55576   8.478   3.766   1.303 -0.8939  0.0204  0.5046
  403MOL0     H55577   8.463   4.005   1.288  1.1616 -0.5222  0.6148
  403MOL0     H55578   8.296   4.157   1.353  1.6100  0.2070 -0.7485
  403MOL0     H55579   8.264   4.208   1.532  0.0933  2.7319  0.3202
  403MOL0     H55580   8.433   4.351   1.331 -1.4643  0.1396 -1.4423
  403MOL0     H55581   8.260   4.381   1.356 -0.7090 -0.9500  1.7259
  403MOL0     H55582   8.400   4.547   1.468  3.2874  0.6750  0.9044
  403MOL0     H55583   8.495   4.418   1.544 -0.8815 -1.1126  2.5138
  403MOL0     H55584   8.313   4.340   1.674 -0.8681  0.3519 -0.2504
  403MOL0     H55585   8.200   4.461   1.604  0.2022  0.1232 -2.7635
  403MOL0     H55586   8.431   4.572   1.749  0.4949  2.6286 -0.4045
  403MOL0     H55587   8.271   4.638   1.708 -1.6408 -1.0890  2.5405
  403MOL0     H55588   8.278   4.402   1.900  2.7272  0.2533  0.4112
  403MOL0     H55589   8.140   4.503   1.842 -1.1364 -0.8340  1.1427
  403MOL0     H55590   8.189   4.667   1.966 -1.5599 -1.2782 -1.6883
  403MOL0     H55591   8.372   4.631   1.989 -0.9174  3.6637 -2.2011
  403MOL0     H55592   8.142   4.477   2.107  1.2742 -1.3159 -0.3966
  403MOL0     H55593   8.213   4.615   2.200 -2.2130  0.3425 -0.7308
  403MOL0     H55594   8.485   4.029   1.717 -0.4395  2.1640 -1.8853
  403MOL0     H55595   8.442   3.796   1.733 -1.3906  1.7046 -0.2802
  403MOL0     H55596   8.167   3.390   1.586  0.3576  1.2942 -1.0619
  403MOL0     H55597   8.119   3.154   1.521  1.7148 -0.5253 -0.2325
  403MOL0     H55598   7.934   3.000   2.147  1.0462  0.1422  0.2581
  403MOL0     H55599   7.854   3.215   2.226  1.6433 -0.8989  0.4935
  403MOL0     H55600   7.664   3.496   2.502 -0.0596  2.3913 -1.4440
  403MOL0     H55601   7.567   3.660   2.660 -1.8275 -0.3421  2.1358
  403MOL0     H55602   7.388   3.865   2.636 -1.9736  1.4273 -1.6600
  403MOL0     H55603   7.263   3.815   2.532  2.1511 -3.7340 -0.9063
  403MOL0     H55604   7.092   3.864   2.707  0.5572  0.0018 -1.8222
  403MOL0     H55605   7.177   4.008   2.651  1.3308  0.6890  1.7296
  403MOL0     H55606   7.229   3.844   2.892 -1.4751 -0.9074 -0.4246
  403MOL0     H55607   7.323   3.986   2.851  0.6036 -0.8132  0.0274
  403MOL0     H55608   7.111   4.005   3.017  1.0259  2.8232  0.3634
  403MOL0     H55609   7.013   3.996   2.864  0.3219 -1.0772 -0.7668
  403MOL0     H55610   7.187   4.404   2.923 -3.5054  0.1054  0.9294
  403MOL0     H55611   7.168   3.552   2.529 -1.8103 -3.1442 -1.8700
  403MOL0     H55612   7.213   3.469   2.283 -1.3890 -0.1271  0.2414
  403MOL0     H55613   7.264   3.299   2.283 -1.6281 -0.2531 -1.1893
  403MOL0     H55614   7.147   3.350   2.401  0.8341  0.1364  1.1156
  404MOL0     O55615   8.693   6.086  11.249  0.3557 -0.5962 -0.1333
  404MOL0     C55616   8.693   6.207  11.232 -0.8219  0.4896 -0.4241
  404MOL0     O55617   8.740   6.268  11.116  0.6043  0.1189  0.2165
  404MOL0     C55618   8.716   6.208  10.992 -0.0653 -0.6306 -0.0857
  404MOL0     C55619   8.805   6.105  10.965 -0.1346 -0.7975  0.3349
  404MOL0     C55620   8.793   6.046  10.842 -0.0507 -0.5724  0.1893
  404MOL0     C55621   8.688   6.076  10.759  0.5573  0.0884 -1.3691
  404MOL0     O55622   8.683   6.009  10.638 -0.0211  0.5831 -0.5210
  404MOL0     C55623   8.580   5.906  10.612 -1.1371  0.8985 -1.8275
  404MOL0     C55624   8.599   5.844  10.477 -0.0586  0.0194  0.2867
  404MOL0     C55625   8.496   5.741  10.434 -0.1291  0.5905  0.3118
  404MOL0     C55626   8.518   5.602  10.503  0.1122 -0.2813 -0.6236
  404MOL0     C55627   8.646   5.535  10.460 -0.2338  1.0973 -1.3856
  404MOL0     C55628   8.670   5.387  10.508 -0.7829 -0.4299 -0.7382
  404MOL0     C55629   8.566   5.282  10.468 -0.2745 -0.2381  0.7248
  404MOL0     C55630   8.451   5.264  10.580 -0.9474 -0.5651  0.8133
  404MOL0     N55631   8.491   5.215  10.711 -0.2670  0.6747  0.5868
  404MOL0     C55632   8.558   5.098  10.746  0.1048 -0.9803 -0.0281
  404MOL0     C55633   8.602   5.124  10.875  0.1512 -0.6139 -0.6753
  404MOL0     C55634   8.690   5.039  10.947 -0.0262  0.6281 -0.0508
  404MOL0     C55635   8.631   5.017  11.092 -0.7228 -0.1803  0.1754
  404MOL0     C55636   8.704   4.888  11.149  0.3652  0.1833 -0.3584
  404MOL0     C55637   8.645   4.861  11.287 -0.1582  0.5051  0.2830
  404MOL0     O55638   8.692   4.953  11.385 -0.0022 -0.4608 -0.9165
  404MOL0     C55639   8.603   5.008  11.465  0.8912  0.4225 -0.2205
  404MOL0     C55640   8.616   5.146  11.485  0.1353  0.3459  0.3736
  404MOL0     C55641   8.531   5.218  11.569  0.4670 -0.1770  0.4252
  404MOL0     C55642   8.511   5.361  11.531  0.9125 -0.8263  0.8818
  404MOL0     C55643   8.457   5.144  11.665  0.1001 -0.1591 -0.6429
  404MOL0     C55644   8.375   5.212  11.772 -0.0548  0.5874  0.0914
  404MOL0     O55645   8.295   5.126  11.851 -0.3593 -0.3826 -0.1665
  404MOL0     C55646   8.238   5.191  11.962  0.9957  0.4700 -0.5496
  404MOL0     C55647   8.136   5.282  11.943  0.0061 -0.6176 -1.0163
  404MOL0     C55648   8.057   5.312  12.053 -0.6009 -0.2574  0.2559
  404MOL0     C55649   8.071   5.250  12.177 -0.2024 -0.4777  0.2436
  404MOL0     O55650   7.978   5.292  12.271 -0.0776  0.4998 -0.6451
  404MOL0     C55651   7.941   5.190  12.364  0.2514 -0.0096 -0.5052
  404MOL0     C55652   7.825   5.235  12.442 -0.6037 -0.2410 -0.2121
  404MOL0     C55653   7.810   5.157  12.570  0.0921 -0.1022  0.7746
  404MOL0     C55654   7.902   5.221  12.684  0.4685 -0.1602 -0.2450
  404MOL0     C55655   7.901   5.161  12.829  0.6618 -0.8012  0.7666
  404MOL0     C55656   8.014   5.226  12.907  0.1111  0.0552 -0.0537
  404MOL0     C55657   8.003   5.376  12.913  0.2542 -0.8230  0.2444
  404MOL0     C55658   8.105   5.441  13.014  0.5157  0.9848  0.0103
  404MOL0    Cl55659   8.273   5.400  12.964 -0.0565 -0.3355 -0.0092
  404MOL0     C55660   8.179   5.164  12.198 -0.0371  0.9661  0.9364
  404MOL0     C55661   8.252   5.123  12.092 -0.1795 -0.5563 -0.2274
  404MOL0     O55662   8.399   5.331  11.799  0.6517 -0.1605 -0.1077
  404MOL0     C55663   8.453   5.002  11.648 -0.1665  0.1363 -1.1970
  404MOL0     C55664   8.523   4.931  11.553 -0.6723 -0.7365  0.5302
  404MOL0     N55665   8.557   5.251  10.911 -0.4348 -0.2740 -0.9304
  404MOL0     N55666   8.502   5.302  10.806 -0.4180  0.1335  0.2071
  404MOL0     C55667   8.604   6.188  10.785  0.1214  1.3210 -0.1539
  404MOL0     C55668   8.614   6.255  10.905  0.4376  0.3928 -0.9095
  404MOL0     C55669   8.636   6.294  11.340 -1.2558 -0.3801  0.2485
  404MOL0     C55670   8.608   6.427  11.305 -0.7145  0.0317  0.0719
  404MOL0     C55671   8.536   6.507  11.397 -0.1631  0.1322  1.1330
  404MOL0     C55672   8.498   6.459  11.525 -0.6606 -0.4944  0.6610
  404MOL0     O55673   8.442   6.552  11.607  0.5922  0.2160 -0.6196
  404MOL0     C55674   8.394   6.521  11.741  0.5830  0.5789  0.4363
  404MOL0     C55675   8.251   6.461  11.708 -0.2800  0.4894 -0.0468
  404MOL0     C55676   8.152   6.442  11.824  0.3261  0.8155  0.8235
  404MOL0     C55677   8.200   6.362  11.949  0.3948 -0.7847 -0.2587
  404MOL0     C55678   8.282   6.245  11.922 -0.8666  1.0333 -0.0428
  404MOL0     C55679   8.351   6.149  11.892  0.0751  0.0233 -0.1837
  404MOL0     C55680   8.520   6.329  11.554  0.4427  0.3270 -0.2955
  404MOL0     C55681   8.583   6.246  11.464 -1.1913  1.3987 -0.0967
  404MOL0     C55682   8.600   6.096  11.500 -0.6637 -0.1606 -0.0507
  404MOL0     H55683   8.887   6.083  11.033  1.5906 -0.3459 -1.4747
  404MOL0     H55684   8.845   5.952  10.826 -1.6225 -1.2922 -0.8914
  404MOL0     H55685   8.479   5.950  10.614 -2.1052 -1.0780 -3.3111
  404MOL0     H55686   8.584   5.834  10.694 -0.9855  2.7819 -0.0842
  404MOL0     H55687   8.589   5.920  10.399 -1.3607 -1.0286 -0.6075
  404MOL0     H55688   8.700   5.803  10.462 -0.4404 -0.5922 -0.6830
  404MOL0     H55689   8.404   5.788  10.470  0.1230  1.7487 -0.4924
  404MOL0     H55690   8.493   5.739  10.324  3.9941  3.0392 -0.0502
  404MOL0     H55691   8.512   5.618  10.611 -1.9664  0.9482 -0.8746
  404MOL0     H55692   8.428   5.546  10.479 -1.1228  1.0325  0.7253
  404MOL0     H55693   8.724   5.597  10.506 -0.8222  0.8668 -0.0432
  404MOL0     H55694   8.671   5.542  10.354 -0.8387  3.2377 -1.4371
  404MOL0     H55695   8.763   5.350  10.462 -0.4022 -2.1987  1.3016
  404MOL0     H55696   8.684   5.391  10.616  1.0329 -0.1185 -0.9494
  404MOL0     H55697   8.608   5.181  10.458  0.1060  0.0824 -6.3114
  404MOL0     H55698   8.523   5.296  10.368 -1.7570 -1.1555  1.2044
  404MOL0     H55699   8.397   5.359  10.582  0.5509  0.4318 -1.6078
  404MOL0     H55700   8.378   5.196  10.535  0.2888 -1.2247 -0.2637
  404MOL0     H55701   8.578   5.022  10.670  0.4005 -0.2356 -0.7116
  404MOL0     H55702   8.780   5.097  10.966 -0.2469  1.0325 -0.2285
  404MOL0     H55703   8.699   4.947  10.887 -3.2189  2.5988 -4.0849
  404MOL0     H55704   8.635   5.104  11.158  0.0292 -1.1690  1.4601
  404MOL0     H55705   8.522   5.008  11.086 -0.5858 -2.6815  0.6064
  404MOL0     H55706   8.667   4.804  11.089 -1.1124 -0.8636  1.8598
  404MOL0     H55707   8.812   4.892  11.137  0.3705 -0.6228 -0.6146
  404MOL0     H55708   8.537   4.860  11.270 -0.4655 -0.9254  1.9429
  404MOL0     H55709   8.677   4.761  11.319  1.0680  0.2723 -1.5280
  404MOL0     H55710   8.681   5.194  11.412 -0.8334  0.2025 -0.5938
  404MOL0     H55711   8.414   5.406  11.556  2.1146  1.0471  2.4478
  404MOL0     H55712   8.525   5.377  11.424  0.2687 -0.2573  0.8775
  404MOL0     H55713   8.582   5.419  11.590  0.9630 -1.4745  1.4690
  404MOL0     H55714   8.112   5.344  11.857 -0.4416 -0.1179 -0.5414
  404MOL0     H55715   7.992   5.399  12.053  0.4193  0.5648  1.9860
  404MOL0     H55716   7.923   5.089  12.326  0.7683 -0.6568  0.9079
  404MOL0     H55717   8.028   5.176  12.429  0.3443 -2.1057 -1.0356
  404MOL0     H55718   7.837   5.341  12.464  1.7195 -0.4039 -0.4919
  404MOL0     H55719   7.737   5.222  12.378 -1.8781  4.2011  0.3570
  404MOL0     H55720   7.837   5.051  12.577 -0.3706 -0.2622  0.2564
  404MOL0     H55721   7.712   5.178  12.614 -0.9804  1.8598 -2.1869
  404MOL0     H55722   7.877   5.327  12.695  1.2048  0.0133 -0.1736
  404MOL0     H55723   8.003   5.219  12.641  1.2783  2.0280  1.3765
  404MOL0     H55724   7.807   5.189  12.878 -0.2535  2.6747 -2.5104
  404MOL0     H55725   7.897   5.052  12.819  0.3019 -0.6216 -1.9119
  404MOL0     H55726   8.110   5.200  12.860  0.4923  2.8356 -1.0403
  404MOL0     H55727   8.024   5.184  13.007  0.7098 -1.7582 -0.8332
  404MOL0     H55728   7.905   5.409  12.949  0.8115  0.1972  0.8862
  404MOL0     H55729   8.029   5.415  12.814  2.3539  0.0670  1.0854
  404MOL0     H55730   8.080   5.398  13.112 -1.5943  0.1839 -0.8293
  404MOL0     H55731   8.102   5.550  13.009  0.8815  0.9453 -1.5280
  404MOL0     H55732   8.191   5.116  12.295  3.4429 -0.7798 -0.1943
  404MOL0     H55733   8.317   5.037  12.107  0.1144 -0.3521 -0.3244
  404MOL0     H55734   8.387   4.952  11.718  2.7474 -0.2226  1.4816
  404MOL0     H55735   8.528   4.822  11.550 -1.0082 -0.7336 -1.2368
  404MOL0     H55736   8.533   6.207  10.706 -1.7315 -2.5048  0.3554
  404MOL0     H55737   8.553   6.341  10.933 -2.9455 -3.1566  4.5694
  404MOL0     H55738   8.631   6.471  11.208  0.3068  0.5301  0.5221
  404MOL0     H55739   8.519   6.613  11.383 -3.6920 -0.2988  1.3327
  404MOL0     H55740   8.455   6.456  11.804  2.5859  2.8662  1.0061
  404MOL0     H55741   8.384   6.612  11.800  1.1639  1.1684 -0.3493
  404MOL0     H55742   8.268   6.366  11.657  1.4893  0.7929 -0.0603
  404MOL0     H55743   8.204   6.529  11.636 -2.5170  1.0161  1.7835
  404MOL0     H55744   8.113   6.540  11.856 -0.9144  2.3333 -4.3642
  404MOL0     H55745   8.074   6.384  11.775  0.5997  1.6090 -0.6172
  404MOL0     H55746   8.117   6.322  12.008 -1.3802  0.2845 -1.9026
  404MOL0     H55747   8.256   6.431  12.013 -1.2526 -0.5694  1.0295
  404MOL0     H55748   8.414   6.063  11.882  0.0732 -0.0983  0.7218
  404MOL0     H55749   8.482   6.277  11.641 -0.4406 -1.3788 -1.6233
  404MOL0     H55750   8.579   6.079  11.606  0.2886  5.1231  1.2769
  404MOL0     H55751   8.543   6.024  11.442  0.9892 -2.3670  0.9005
  404MOL0     H55752   8.703   6.062  11.486 -0.2522  1.0917 -0.2318
  405MOL0     O55753   1.141   3.845   4.412  0.1044 -0.1492  0.3574
  405MOL0     C55754   1.067   3.925   4.456  0.6898 -0.3872  0.2803
  405MOL0     O55755   1.058   3.948   4.585  0.1504  0.3818 -0.1711
  405MOL0     C55756   1.087   3.845   4.668  0.0107  0.7050  0.1871
  405MOL0     C55757   0.997   3.741   4.699  0.2653 -0.5537 -0.8123
  405MOL0     C55758   1.029   3.652   4.805 -0.4585  0.1258 -0.1372
  405MOL0     C55759   1.149   3.660   4.872 -0.0970 -0.0926 -0.3348
  405MOL0     O55760   1.176   3.572   4.969  0.4497  0.5014  0.6328
  405MOL0     C55761   1.146   3.435   4.936 -0.4664  1.3367  0.5314
  405MOL0     C55762   1.126   3.361   5.064  1.1917 -0.3416 -0.6734
  405MOL0     C55763   1.075   3.227   5.029 -0.0314 -0.0640  0.2361
  405MOL0     C55764   1.039   3.146   5.152  0.2203  0.5127 -0.6832
  405MOL0     C55765   0.941   3.031   5.125 -0.6256  0.7825 -0.8274
  405MOL0     C55766   1.015   2.907   5.070  0.0148  0.0611 -0.2806
  405MOL0     C55767   0.929   2.788   5.043  0.5967 -0.1495 -0.2452
  405MOL0     C55768   1.001   2.668   4.978  0.4801 -0.0668 -0.5535
  405MOL0     N55769   0.928   2.552   5.034  0.2415 -0.4725 -0.4063
  405MOL0     C55770   0.936   2.498   5.165 -0.1076 -0.5203 -0.7195
  405MOL0     C55771   0.835   2.413   5.179 -0.0561 -0.6079 -0.0092
  405MOL0     C55772   0.817   2.330   5.303 -0.1744  0.2041 -0.0187
  405MOL0     C55773   0.764   2.414   5.416  0.9492  0.0799  0.0883
  405MOL0     C55774   0.623   2.478   5.404  0.4033  0.4775  0.3730
  405MOL0     C55775   0.517   2.379   5.344 -0.3630 -1.1718 -0.3659
  405MOL0     O55776   0.480   2.287   5.440 -0.3816 -0.2502  0.0357
  405MOL0     C55777   0.373   2.201   5.418  0.5857 -0.1310  0.5094
  405MOL0     C55778   0.330   2.117   5.523 -0.5869  0.7427  0.3177
  405MOL0     C55779   0.206   2.053   5.507 -0.5084 -0.1403  0.0935
  405MOL0     C55780   0.146   2.021   5.642  0.0307  0.5425  0.4648
  405MOL0     C55781   0.141   2.035   5.386 -0.3441  0.4505 -0.6675
  405MOL0     C55782   0.011   1.971   5.364 -1.1790 -0.3512  0.0274
  405MOL0     O55783  -0.038   1.975   5.234  0.4311  0.2501 -0.4292
  405MOL0     C55784  -0.171   1.945   5.214 -0.5194  0.5391 -0.1543
  405MOL0     C55785  -0.278   2.021   5.165  0.4765 -0.0224 -0.4000
  405MOL0     C55786  -0.409   1.968   5.146  0.5284 -0.1466  0.2513
  405MOL0     C55787  -0.430   1.831   5.172 -0.2477  0.2308 -0.1241
  405MOL0     O55788  -0.560   1.798   5.145  0.2782 -0.6191  0.1152
  405MOL0     C55789  -0.610   1.692   5.231 -0.5351  0.5380  0.5843
  405MOL0     C55790  -0.764   1.691   5.238  0.6320 -0.6851 -0.9905
  405MOL0     C55791  -0.838   1.828   5.276 -0.5822 -0.4335 -0.5885
  405MOL0     C55792  -0.780   1.875   5.415 -1.1646 -1.3125  0.2770
  405MOL0     C55793  -0.850   2.001   5.470  0.6347  0.0719 -0.5090
  405MOL0     C55794  -0.982   1.973   5.552 -0.5015 -0.6056  0.2760
  405MOL0     C55795  -1.028   2.098   5.624 -0.3458 -0.5508 -1.5250
  405MOL0     C55796  -1.149   2.076   5.720 -0.4343  0.8187 -0.8537
  405MOL0    Cl55797  -1.119   2.194   5.856  0.4925 -0.4494 -0.4517
  405MOL0     C55798  -0.322   1.745   5.213 -0.4706  0.4572 -0.5324
  405MOL0     C55799  -0.201   1.808   5.237 -0.2473  0.1599 -0.9175
  405MOL0     O55800  -0.030   1.908   5.461 -0.3766  0.3286  0.3726
  405MOL0     C55801   0.200   2.107   5.280 -0.1948 -0.3738 -0.2139
  405MOL0     C55802   0.304   2.191   5.294 -0.1662  0.0564 -0.8795
  405MOL0     N55803   0.769   2.406   5.059 -0.4427  0.1490 -0.0257
  405MOL0     N55804   0.823   2.493   4.971  0.4075  0.6604  0.6057
  405MOL0     C55805   1.240   3.764   4.840 -0.2820  1.0631 -0.3313
  405MOL0     C55806   1.206   3.856   4.743 -0.4202  0.2314  2.0466
  405MOL0     C55807   0.991   4.014   4.359  0.3219 -0.8659 -0.2108
  405MOL0     C55808   1.015   4.003   4.217  1.7101  0.3630 -0.9062
  405MOL0     C55809   0.958   4.093   4.125  0.8596  0.1817 -0.2162
  405MOL0     C55810   0.868   4.186   4.166  0.5816 -1.0610  0.0118
  405MOL0     O55811   0.814   4.288   4.095 -0.5066 -0.5027  0.3866
  405MOL0     C55812   0.763   4.275   3.969 -0.4492 -1.1946 -0.8306
  405MOL0     C55813   0.617   4.317   3.962 -0.0350 -0.0747 -0.0059
  405MOL0     C55814   0.618   4.472   3.934  0.1350 -0.2834 -0.6881
  405MOL0     C55815   0.649   4.511   3.785 -0.2070 -1.1096  0.7791
  405MOL0     C55816   0.680   4.646   3.786  0.3861  0.3354  0.1028
  405MOL0     C55817   0.702   4.766   3.776  0.4575  0.0988 -0.2904
  405MOL0     C55818   0.837   4.194   4.299 -0.5873 -0.5430  0.1738
  405MOL0     C55819   0.903   4.121   4.395  0.0496 -0.8963  0.3871
  405MOL0     C55820   0.885   4.171   4.538  0.0376  0.6801 -1.2164
  405MOL0     H55821   0.899   3.722   4.655 -0.0529  0.8088 -0.7476
  405MOL0     H55822   0.956   3.577   4.829  4.5780 -5.0020  1.4389
  405MOL0     H55823   1.230   3.386   4.886 -0.0334  0.8454  1.7147
  405MOL0     H55824   1.058   3.427   4.872  0.6880  1.2751 -1.1147
  405MOL0     H55825   1.224   3.346   5.111  1.5589 -0.5539 -1.4815
  405MOL0     H55826   1.052   3.403   5.132  1.5363  1.8735 -1.5942
  405MOL0     H55827   0.982   3.240   4.972 -0.7075 -0.0335  1.3174
  405MOL0     H55828   1.153   3.181   4.968 -2.1333 -0.8503 -2.0247
  405MOL0     H55829   1.128   3.120   5.210 -0.7693  1.2691  1.2707
  405MOL0     H55830   0.973   3.211   5.210 -3.1616 -2.1369 -1.2414
  405MOL0     H55831   0.860   3.049   5.055  0.2899  1.9832 -1.6115
  405MOL0     H55832   0.903   2.993   5.221 -3.2334 -1.1633 -2.4976
  405MOL0     H55833   1.080   2.928   4.985 -0.8875  0.1616 -0.9543
  405MOL0     H55834   1.087   2.896   5.152 -1.0196  0.5947  0.7241
  405MOL0     H55835   0.840   2.804   4.981  1.3435 -3.0127 -2.2710
  405MOL0     H55836   0.895   2.758   5.142 -1.8864 -3.7654 -1.9694
  405MOL0     H55837   0.996   2.661   4.869  2.9216 -0.2661 -0.7248
  405MOL0     H55838   1.106   2.663   5.011  0.1236 -0.3600  0.6029
  405MOL0     H55839   1.014   2.530   5.234  1.0743 -2.8308 -0.9007
  405MOL0     H55840   0.911   2.285   5.335  2.7353  1.4157 -5.6060
  405MOL0     H55841   0.748   2.251   5.271 -2.3098  1.6773  0.7801
  405MOL0     H55842   0.748   2.371   5.515 -0.2041  2.0569  0.8068
  405MOL0     H55843   0.833   2.498   5.430  1.2025 -0.0429 -0.3997
  405MOL0     H55844   0.571   2.513   5.494 -0.0759  0.2090  0.2053
  405MOL0     H55845   0.627   2.556   5.328 -0.4589  1.8356  1.6685
  405MOL0     H55846   0.442   2.448   5.303 -1.7995 -0.9048  2.4509
  405MOL0     H55847   0.565   2.320   5.264  4.6426 -0.2068  1.5948
  405MOL0     H55848   0.377   2.115   5.621  0.4973 -0.1972 -0.1976
  405MOL0     H55849   0.207   2.065   5.722  0.2431  1.0964  0.0087
  405MOL0     H55850   0.165   1.914   5.636  0.6869  0.7230 -2.3751
  405MOL0     H55851   0.044   2.055   5.662  0.3514  0.3400  2.6811
  405MOL0     H55852  -0.255   2.125   5.141 -0.2229 -0.1736 -1.8849
  405MOL0     H55853  -0.485   2.041   5.121  2.7262  1.5026 -2.1448
  405MOL0     H55854  -0.580   1.593   5.194  1.2696  0.9393  0.8623
  405MOL0     H55855  -0.576   1.703   5.335  1.2316  1.5440 -0.0475
  405MOL0     H55856  -0.787   1.666   5.134  1.8736 -1.2921 -1.1380
  405MOL0     H55857  -0.796   1.613   5.307 -1.3256  1.0644  0.2109
  405MOL0     H55858  -0.946   1.815   5.287 -0.1794 -2.3341  2.3498
  405MOL0     H55859  -0.819   1.891   5.189  0.7670 -0.3856 -0.2893
  405MOL0     H55860  -0.671   1.885   5.403 -0.9513 -4.4345 -1.6333
  405MOL0     H55861  -0.784   1.796   5.491  0.8108 -0.9700  0.8063
  405MOL0     H55862  -0.782   2.066   5.524 -0.5139  0.8079  0.0928
  405MOL0     H55863  -0.888   2.059   5.385 -0.3910  1.8841  1.0908
  405MOL0     H55864  -0.971   1.899   5.632  0.1766  0.0059  0.7574
  405MOL0     H55865  -1.058   1.942   5.479 -0.3866 -0.4442  0.0846
  405MOL0     H55866  -1.064   2.175   5.555 -1.1378 -0.1660 -0.6942
  405MOL0     H55867  -0.942   2.128   5.684 -0.5528  1.2694 -2.0736
  405MOL0     H55868  -1.148   1.980   5.772  0.1186  0.4055 -1.6056
  405MOL0     H55869  -1.239   2.080   5.659 -0.0840  2.2703 -1.3346
  405MOL0     H55870  -0.342   1.643   5.242 -0.1954  0.3964 -0.5507
  405MOL0     H55871  -0.130   1.742   5.286  0.2711  1.3898  0.0237
  405MOL0     H55872   0.154   2.112   5.182 -2.1090 -1.9972  0.5358
  405MOL0     H55873   0.341   2.251   5.212 -0.0834 -2.4145 -2.7611
  405MOL0     H55874   1.322   3.774   4.911 -0.4105  1.8892 -0.2905
  405MOL0     H55875   1.277   3.935   4.716 -1.1927  0.6105  1.0422
  405MOL0     H55876   1.077   3.921   4.182 -0.0737 -1.1948 -0.5726
  405MOL0     H55877   0.981   4.096   4.019  0.0125  3.4753 -0.4141
  405MOL0     H55878   0.823   4.327   3.894  0.9796 -1.1848  0.2691
  405MOL0     H55879   0.762   4.168   3.944 -3.3759 -1.3236 -0.4924
  405MOL0     H55880   0.564   4.294   4.055 -1.8560  0.0844 -0.9543
  405MOL0     H55881   0.573   4.261   3.879 -1.9943  1.8024 -0.3408
  405MOL0     H55882   0.520   4.503   3.972  0.5598 -2.1867  2.2531
  405MOL0     H55883   0.688   4.519   4.004  1.8756 -0.5372 -2.1972
  405MOL0     H55884   0.570   4.488   3.714  0.8997  1.3431 -1.4375
  405MOL0     H55885   0.745   4.468   3.756 -0.6512 -1.5112 -0.1066
  405MOL0     H55886   0.727   4.871   3.781  2.1715 -0.3229  2.2407
  405MOL0     H55887   0.766   4.267   4.338  0.9867  0.9137  0.4514
  405MOL0     H55888   0.818   4.256   4.553  0.4219  1.2470 -2.5687
  405MOL0     H55889   0.849   4.085   4.595  1.9587  0.4426 -0.2888
  405MOL0     H55890   0.970   4.199   4.600 -1.0497  1.0753  0.1646
  406MOL0     O55891   4.379   4.279   2.633 -0.3532  0.2859 -0.2679
  406MOL0     C55892   4.420   4.380   2.578  0.4573 -0.3875 -0.0950
  406MOL0     O55893   4.392   4.414   2.436  0.0395 -0.1995  0.4050
  406MOL0     C55894   4.299   4.340   2.364  0.2390 -1.1408  0.9997
  406MOL0     C55895   4.175   4.293   2.420 -0.5267  0.4823  0.0673
  406MOL0     C55896   4.076   4.228   2.338 -0.3930 -0.1033  0.1714
  406MOL0     C55897   4.095   4.248   2.195 -0.5782  0.6570 -0.0865
  406MOL0     O55898   4.000   4.224   2.099 -0.3762 -0.5421  0.2191
  406MOL0     C55899   3.868   4.244   2.137  0.7998 -0.8554  0.1162
  406MOL0     C55900   3.792   4.287   2.004 -0.4546 -0.4445 -0.2525
  406MOL0     C55901   3.749   4.172   1.920  1.2742  1.2046  0.0170
  406MOL0     C55902   3.653   4.202   1.805 -0.0812 -1.0268  0.4995
  406MOL0     C55903   3.715   4.297   1.699  0.6084  0.7709 -0.6573
  406MOL0     C55904   3.615   4.341   1.599 -0.2650 -0.5648 -1.3628
  406MOL0     C55905   3.664   4.437   1.486 -0.0053  0.1164  0.3042
  406MOL0     C55906   3.760   4.553   1.522  0.2336  0.9822  0.4298
  406MOL0     N55907   3.709   4.675   1.572  0.1784 -0.9215  0.6281
  406MOL0     C55908   3.607   4.746   1.508 -0.6256  0.0644 -0.1948
  406MOL0     C55909   3.618   4.870   1.563 -0.1836 -0.6392 -0.2728
  406MOL0     C55910   3.529   4.981   1.516 -0.7566 -1.0063  0.3048
  406MOL0     C55911   3.521   5.004   1.367 -0.5140 -0.2008  0.5336
  406MOL0     C55912   3.441   5.124   1.320  0.4668  0.1998  1.1018
  406MOL0     C55913   3.518   5.259   1.303  0.0098 -0.6727 -0.2774
  406MOL0     O55914   3.461   5.338   1.201 -0.2775  0.2465 -0.4588
  406MOL0     C55915   3.325   5.386   1.213 -0.9478 -0.6833 -0.1484
  406MOL0     C55916   3.260   5.385   1.335 -0.1511  0.6858 -0.0169
  406MOL0     C55917   3.123   5.409   1.336  0.5788 -0.1009  0.1138
  406MOL0     C55918   3.059   5.406   1.475  0.3732  0.2660 -0.9108
  406MOL0     C55919   3.056   5.464   1.221 -0.3602 -0.0950  0.7647
  406MOL0     C55920   2.913   5.498   1.225  0.4087 -0.2869  0.1201
  406MOL0     O55921   2.877   5.598   1.137  0.0216 -0.6402 -0.0711
  406MOL0     C55922   2.747   5.632   1.108 -0.0767 -0.6552  0.0225
  406MOL0     C55923   2.642   5.549   1.085  0.3157 -1.1488  0.5774
  406MOL0     C55924   2.514   5.592   1.040 -0.0621  0.0323 -0.0710
  406MOL0     C55925   2.498   5.732   1.033 -0.2292 -0.6290 -0.7269
  406MOL0     O55926   2.371   5.776   1.022  0.1256  0.6140  0.3647
  406MOL0     C55927   2.275   5.727   1.108 -0.7879 -1.1992 -0.3668
  406MOL0     C55928   2.296   5.782   1.250  0.5178  0.2115 -0.6282
  406MOL0     C55929   2.269   5.932   1.258  0.1939  0.6610  0.3697
  406MOL0     C55930   2.265   5.983   1.401 -0.7171  0.7338  0.3958
  406MOL0     C55931   2.204   6.118   1.403 -0.6407  0.4944  0.1750
  406MOL0     C55932   2.212   6.167   1.547 -0.1526 -0.1744 -0.9026
  406MOL0     C55933   2.357   6.177   1.608 -0.0585  0.1511 -0.3431
  406MOL0     C55934   2.381   6.232   1.749  1.2776  0.1447 -0.1871
  406MOL0    Cl55935   2.413   6.405   1.759 -0.1376  0.2965  0.1544
  406MOL0     C55936   2.604   5.820   1.040 -0.7709 -0.0122  0.3669
  406MOL0     C55937   2.727   5.769   1.085 -0.6616  0.1834 -0.3567
  406MOL0     O55938   2.839   5.423   1.286 -0.3208  0.3147  0.5284
  406MOL0     C55939   3.120   5.442   1.091 -0.8316  0.1828  0.3007
  406MOL0     C55940   3.254   5.407   1.093  1.2221  0.3935 -0.4563
  406MOL0     N55941   3.711   4.877   1.655  0.0623 -0.6163  0.0950
  406MOL0     N55942   3.760   4.759   1.671  0.4351 -0.0407  0.6184
  406MOL0     C55943   4.211   4.299   2.142  0.2560 -1.0616  0.3463
  406MOL0     C55944   4.308   4.348   2.226  0.2060  0.7596  0.0449
  406MOL0     C55945   4.498   4.470   2.662 -1.0509 -0.3452  0.3678
  406MOL0     C55946   4.491   4.594   2.614 -0.1172 -0.7863  0.5173
  406MOL0     C55947   4.540   4.706   2.697 -0.6573 -0.2556 -0.7366
  406MOL0     C55948   4.605   4.678   2.822  0.0573 -0.7477  0.3310
  406MOL0     O55949   4.655   4.788   2.895  0.0942  0.2834  0.2217
  406MOL0     C55950   4.679   4.919   2.829 -0.5738  0.7672  0.4420
  406MOL0     C55951   4.822   4.958   2.881  0.8136  0.3804  0.1440
  406MOL0     C55952   4.937   4.871   2.836 -0.5141 -0.4626  0.2273
  406MOL0     C55953   5.070   4.952   2.844 -1.0791 -0.0490  0.1310
  406MOL0     C55954   5.115   4.965   2.993 -0.4664  0.0227  0.2472
  406MOL0     C55955   5.165   4.966   3.103 -1.7249 -0.6465  0.2749
  406MOL0     C55956   4.612   4.546   2.868  0.5459 -0.7458 -0.0476
  406MOL0     C55957   4.556   4.442   2.789 -0.1050 -0.1150  0.8296
  406MOL0     C55958   4.579   4.301   2.842  0.1011  0.3707  0.0338
  406MOL0     H55959   4.165   4.300   2.528  2.1239 -2.2950  0.6280
  406MOL0     H55960   3.989   4.172   2.373 -0.3012 -0.6191 -0.4075
  406MOL0     H55961   3.865   4.329   2.205 -0.5895 -0.5003 -0.3386
  406MOL0     H55962   3.821   4.161   2.191 -1.7825  1.1837  1.1792
  406MOL0     H55963   3.707   4.346   2.038 -0.1782  0.0038 -0.3331
  406MOL0     H55964   3.864   4.348   1.948  0.6925 -1.1643  0.4072
  406MOL0     H55965   3.843   4.130   1.883 -0.3604 -1.0606 -1.8968
  406MOL0     H55966   3.712   4.095   1.988  1.8675 -1.1337 -2.1443
  406MOL0     H55967   3.613   4.106   1.772 -2.9317 -0.5099  2.1129
  406MOL0     H55968   3.570   4.248   1.860 -1.9213 -2.9150 -0.5507
  406MOL0     H55969   3.793   4.253   1.636  0.3752  2.6078 -2.3061
  406MOL0     H55970   3.755   4.386   1.748 -0.3717  0.3298  1.0248
  406MOL0     H55971   3.582   4.255   1.540 -0.4339 -0.1405 -1.9037
  406MOL0     H55972   3.530   4.374   1.660 -0.0658 -3.4017  0.6002
  406MOL0     H55973   3.578   4.474   1.430  0.7454 -0.4264 -1.2733
  406MOL0     H55974   3.712   4.374   1.411 -1.1403 -0.6785  0.2307
  406MOL0     H55975   3.836   4.524   1.595 -2.3584 -3.8493  1.6291
  406MOL0     H55976   3.803   4.582   1.426 -2.0268 -0.8721 -1.2903
  406MOL0     H55977   3.555   4.710   1.420 -1.8365 -1.2077  1.0104
  406MOL0     H55978   3.576   5.071   1.557 -0.9866 -0.2393 -1.0538
  406MOL0     H55979   3.430   4.955   1.555 -0.1629 -0.9891  1.8991
  406MOL0     H55980   3.611   4.994   1.306  0.8818  1.6479  2.1683
  406MOL0     H55981   3.450   4.925   1.341 -1.1022 -0.6603  3.2497
  406MOL0     H55982   3.401   5.108   1.220 -1.3172  1.0638  1.6411
  406MOL0     H55983   3.350   5.140   1.378 -1.0096  2.4420 -1.6012
  406MOL0     H55984   3.506   5.318   1.395 -0.7189 -2.9903  1.2207
  406MOL0     H55985   3.624   5.250   1.277  0.1324  2.5108 -1.2756
  406MOL0     H55986   3.324   5.358   1.418  1.1268 -3.8641 -2.1566
  406MOL0     H55987   3.015   5.503   1.502 -0.7632 -0.1070 -1.3693
  406MOL0     H55988   3.134   5.375   1.549 -0.8169 -0.9912 -0.1968
  406MOL0     H55989   2.978   5.333   1.472 -1.0967  1.8027 -0.1537
  406MOL0     H55990   2.670   5.448   1.113 -0.3744 -1.3970  0.4010
  406MOL0     H55991   2.441   5.513   1.029  1.4140 -1.3805 -0.1091
  406MOL0     H55992   2.185   5.781   1.077  0.6938  1.5124 -0.2260
  406MOL0     H55993   2.268   5.618   1.100 -2.9715 -0.9729 -3.1366
  406MOL0     H55994   2.234   5.726   1.320 -0.9866  0.5056 -1.6596
  406MOL0     H55995   2.399   5.759   1.278  0.4031  1.3347  0.8544
  406MOL0     H55996   2.179   5.966   1.206  0.7907  0.1115 -1.0454
  406MOL0     H55997   2.340   5.998   1.208 -0.4778  0.1497 -1.3139
  406MOL0     H55998   2.367   5.986   1.441 -0.3502 -1.2530 -0.2606
  406MOL0     H55999   2.209   5.916   1.467 -0.4075  2.0206  2.0158
  406MOL0     H56000   2.260   6.187   1.339  0.2533  0.3077  0.7342
  406MOL0     H56001   2.102   6.130   1.365  0.0408  2.1405 -1.3159
  406MOL0     H56002   2.149   6.094   1.600  0.2236 -1.2459 -1.9159
  406MOL0     H56003   2.169   6.268   1.548 -0.4723 -0.2881 -2.0704
  406MOL0     H56004   2.425   6.223   1.536 -2.4279  0.6175 -2.4270
  406MOL0     H56005   2.392   6.073   1.617 -0.9005 -0.2114 -1.0951
  406MOL0     H56006   2.457   6.167   1.792 -0.0876 -1.3929  0.0151
  406MOL0     H56007   2.286   6.224   1.803  1.0591 -0.3510 -0.6268
  406MOL0     H56008   2.600   5.927   1.022  2.1915  0.2615  0.8376
  406MOL0     H56009   2.807   5.840   1.100 -1.9635  1.1785  2.6655
  406MOL0     H56010   3.063   5.428   0.999 -0.2654 -4.7047  0.4654
  406MOL0     H56011   3.294   5.386   0.994  1.3782 -1.5896 -0.0113
  406MOL0     H56012   4.216   4.302   2.034  0.7440  0.5082  0.3914
  406MOL0     H56013   4.401   4.389   2.188 -1.3142  1.0267 -3.8762
  406MOL0     H56014   4.458   4.612   2.512 -0.7146 -0.6834  0.7244
  406MOL0     H56015   4.528   4.811   2.670  0.6710  0.6559  1.8667
  406MOL0     H56016   4.699   4.915   2.722 -0.8651  2.9725  0.2443
  406MOL0     H56017   4.590   4.982   2.840 -1.5717 -0.5458  0.0901
  406MOL0     H56018   4.826   4.962   2.990  3.0473  0.6121  0.1034
  406MOL0     H56019   4.824   5.060   2.841 -0.4968  0.8595  1.2281
  406MOL0     H56020   4.960   4.780   2.891  1.6573 -0.4082 -0.4835
  406MOL0     H56021   4.917   4.847   2.731  1.4200 -2.1089  0.1756
  406MOL0     H56022   5.059   5.059   2.821  0.0306  0.1178  0.3049
  406MOL0     H56023   5.149   4.906   2.784 -1.6508 -2.7904  1.3305
  406MOL0     H56024   5.196   4.945   3.204 -1.1738 -3.1735 -0.3517
  406MOL0     H56025   4.649   4.515   2.965 -0.8437 -2.9099 -0.1490
  406MOL0     H56026   4.493   4.279   2.906 -0.3757 -0.1689 -0.7698
  406MOL0     H56027   4.585   4.224   2.764 -3.4585 -1.3224  1.1875
  406MOL0     H56028   4.661   4.285   2.912  1.8179  1.6505 -1.5683
  407MOL0     O56029   3.351   7.336   9.735 -0.1441  0.4983 -0.2487
  407MOL0     C56030   3.432   7.339   9.828  0.2412  1.0281 -0.2200
  407MOL0     O56031   3.432   7.254   9.941  0.4081  0.5798 -0.2730
  407MOL0     C56032   3.373   7.135   9.927  0.1175 -0.6942  0.0541
  407MOL0     C56033   3.407   7.054   9.825 -0.4566 -0.1141  0.9730
  407MOL0     C56034   3.361   6.923   9.822  0.4954  0.1280  0.2401
  407MOL0     C56035   3.290   6.869   9.939  1.0063 -0.7994 -0.1813
  407MOL0     O56036   3.221   6.745   9.946 -0.0315  0.5343  0.1214
  407MOL0     C56037   3.285   6.637   9.868  0.5842 -1.2711 -0.3150
  407MOL0     C56038   3.390   6.564   9.945 -0.0049  0.1760  0.1171
  407MOL0     C56039   3.528   6.620   9.944 -0.5044 -0.1598 -0.5408
  407MOL0     C56040   3.640   6.535  10.004  0.5964 -0.0427 -1.0272
  407MOL0     C56041   3.759   6.627  10.032  0.1370 -0.8090 -0.5422
  407MOL0     C56042   3.889   6.548  10.058 -0.8405  0.0558 -0.5292
  407MOL0     C56043   4.009   6.633  10.093  0.0961 -0.6227  0.6506
  407MOL0     C56044   4.097   6.684   9.966 -0.4488 -0.5023 -0.0111
  407MOL0     N56045   4.153   6.581   9.879 -0.2103 -0.2438  0.7815
  407MOL0     C56046   4.186   6.603   9.744 -0.5017  0.2920 -0.8627
  407MOL0     C56047   4.219   6.477   9.703 -0.3280  0.5517  0.5693
  407MOL0     C56048   4.255   6.461   9.557  0.5149  0.6443  1.1609
  407MOL0     C56049   4.370   6.364   9.549 -0.0532 -0.9414  0.2284
  407MOL0     C56050   4.499   6.389   9.621 -0.0663  0.8570 -0.6781
  407MOL0     C56051   4.588   6.493   9.550 -0.1628  0.5213  0.0500
  407MOL0     O56052   4.527   6.622   9.537  0.9563  0.0614  0.2854
  407MOL0     C56053   4.493   6.693   9.647 -0.3571  0.2662  0.7288
  407MOL0     C56054   4.415   6.798   9.628  0.3091  0.1182 -0.2624
  407MOL0     C56055   4.393   6.897   9.726  0.0600  0.3654  0.5249
  407MOL0     C56056   4.280   6.998   9.687  0.1173 -0.0964 -0.3408
  407MOL0     C56057   4.454   6.893   9.848  0.2109 -0.2358 -0.2681
  407MOL0     C56058   4.449   6.998   9.949  0.6086  0.0645 -0.1431
  407MOL0     O56059   4.341   7.095   9.956  0.6167  0.7961  0.2158
  407MOL0     C56060   4.348   7.192  10.050 -0.4068 -0.3487 -0.1052
  407MOL0     C56061   4.464   7.267  10.047 -0.4426  0.0767 -0.1892
  407MOL0     C56062   4.485   7.377  10.122  0.1744 -0.0182 -0.6018
  407MOL0     C56063   4.387   7.406  10.219 -1.1906 -0.8495 -0.2789
  407MOL0     O56064   4.392   7.499  10.321 -0.6369 -0.2603  0.3332
  407MOL0     C56065   4.521   7.559  10.346 -0.7588 -0.6080 -0.6493
  407MOL0     C56066   4.542   7.553  10.502  0.0780 -0.0660  0.3446
  407MOL0     C56067   4.553   7.408  10.548 -0.7150 -0.1031 -0.4992
  407MOL0     C56068   4.662   7.367  10.655 -0.0706 -0.6876  0.1020
  407MOL0     C56069   4.641   7.229  10.700 -0.6848  0.7595 -0.6022
  407MOL0     C56070   4.775   7.174  10.754  0.0256  1.2491 -0.2028
  407MOL0     C56071   4.802   7.230  10.903  0.0471  1.2586  0.0965
  407MOL0     C56072   4.905   7.142  10.982 -0.3350  0.0249  0.1961
  407MOL0    Cl56073   4.844   6.977  10.976 -0.0109 -0.7930 -0.1361
  407MOL0     C56074   4.265   7.334  10.221  0.0241 -1.4119 -0.0638
  407MOL0     C56075   4.238   7.223  10.137 -0.0981 -0.6831 -0.7869
  407MOL0     O56076   4.540   6.988  10.027  0.1664  0.2899 -0.2145
  407MOL0     C56077   4.533   6.776   9.877 -0.0995 -0.4627 -0.7037
  407MOL0     C56078   4.550   6.674   9.772 -0.9317  0.0190 -0.5411
  407MOL0     N56079   4.206   6.392   9.809 -0.4807 -0.0659 -0.0477
  407MOL0     N56080   4.169   6.457   9.914 -0.4736  0.7857  0.1160
  407MOL0     C56081   3.251   6.954  10.044  0.0585  0.0856 -0.2305
  407MOL0     C56082   3.286   7.091  10.028  0.2529  0.6103 -1.0871
  407MOL0     C56083   3.551   7.442   9.819  1.3312  0.0218  0.1987
  407MOL0     C56084   3.634   7.437   9.927 -0.8103 -0.1363  0.6815
  407MOL0     C56085   3.734   7.534   9.940  0.2071  0.4174 -0.1062
  407MOL0     C56086   3.760   7.638   9.845  0.2993  0.7951  1.0176
  407MOL0     O56087   3.855   7.732   9.867 -0.3242 -0.1295  0.8909
  407MOL0     C56088   3.875   7.850   9.793  0.2541 -1.2357 -0.2304
  407MOL0     C56089   3.961   7.953   9.875  0.1314 -1.0232 -0.1680
  407MOL0     C56090   4.034   8.050   9.776  0.1022 -0.8466 -0.1378
  407MOL0     C56091   4.131   8.153   9.836  0.3188  0.0214  0.2670
  407MOL0     C56092   4.059   8.260   9.889 -0.5213  0.0669  0.4139
  407MOL0     C56093   4.013   8.370   9.908 -0.4692  0.1234 -0.1306
  407MOL0     C56094   3.669   7.640   9.731 -0.6180  1.3385 -0.4522
  407MOL0     C56095   3.576   7.535   9.719 -0.1879  0.3396  1.7671
  407MOL0     C56096   3.491   7.539   9.594  0.0502 -0.7340 -0.7149
  407MOL0     H56097   3.475   7.086   9.748  0.0174 -1.0232  1.0042
  407MOL0     H56098   3.384   6.870   9.731  2.8587 -0.4420  1.0943
  407MOL0     H56099   3.326   6.667   9.770  2.1501 -0.9642  0.4046
  407MOL0     H56100   3.201   6.571   9.845 -0.3001 -0.0784 -0.6196
  407MOL0     H56101   3.363   6.562  10.050  0.3731  1.9009  0.2786
  407MOL0     H56102   3.397   6.459   9.915  2.1880 -0.4852  2.5403
  407MOL0     H56103   3.547   6.639   9.838 -5.0736  5.3581 -0.8639
  407MOL0     H56104   3.518   6.717   9.993 -0.0125 -0.8189  0.9274
  407MOL0     H56105   3.604   6.487  10.095 -2.0208  1.4782 -1.1535
  407MOL0     H56106   3.661   6.459   9.928  2.6451 -0.5364 -0.0346
  407MOL0     H56107   3.734   6.697  10.111 -0.4607  1.3924 -2.5493
  407MOL0     H56108   3.781   6.676   9.936  0.4226 -4.0932 -2.2816
  407MOL0     H56109   3.876   6.495  10.153 -0.5532  0.3442 -0.3230
  407MOL0     H56110   3.911   6.493   9.966  0.8546 -0.1287 -0.0446
  407MOL0     H56111   4.076   6.563  10.143  1.0602 -0.0741  0.1489
  407MOL0     H56112   3.972   6.722  10.145 -2.3258  0.1009 -2.0190
  407MOL0     H56113   4.043   6.758   9.906  1.7112  0.5371 -0.7650
  407MOL0     H56114   4.174   6.743  10.016 -1.8619 -0.9071  2.8925
  407MOL0     H56115   4.186   6.697   9.689  0.9368  0.6984 -0.2295
  407MOL0     H56116   4.276   6.561   9.520 -1.0308  1.9480  3.5179
  407MOL0     H56117   4.179   6.420   9.490 -0.5316  1.3119  1.9122
  407MOL0     H56118   4.338   6.263   9.574 -0.8952 -1.5135 -2.7470
  407MOL0     H56119   4.383   6.347   9.441 -0.8996 -1.8626  0.2668
  407MOL0     H56120   4.483   6.404   9.728  2.2334  2.6566 -0.5114
  407MOL0     H56121   4.556   6.296   9.626  0.6817  1.3700  1.3218
  407MOL0     H56122   4.687   6.500   9.598 -1.5821 -0.5281  3.3985
  407MOL0     H56123   4.608   6.459   9.448  2.2138  2.7459 -0.3368
  407MOL0     H56124   4.363   6.804   9.533 -0.1918  2.6002  0.0791
  407MOL0     H56125   4.280   7.008   9.578  1.8817  1.6757 -0.2369
  407MOL0     H56126   4.315   7.098   9.714 -2.6969  0.4575  1.6802
  407MOL0     H56127   4.185   6.968   9.731  0.2380 -2.3387 -1.4706
  407MOL0     H56128   4.541   7.247   9.974 -0.0194 -1.7928  0.6976
  407MOL0     H56129   4.577   7.433  10.107  0.3322 -0.3387 -0.8469
  407MOL0     H56130   4.609   7.502  10.315 -0.4332 -2.4346  3.1143
  407MOL0     H56131   4.508   7.661  10.306 -3.2096 -0.9701 -0.9079
  407MOL0     H56132   4.633   7.608  10.528  3.6476 -4.5246 -1.2468
  407MOL0     H56133   4.464   7.607  10.557  0.0419  0.3085 -0.0723
  407MOL0     H56134   4.573   7.337  10.468  2.0007  1.3996 -1.2770
  407MOL0     H56135   4.452   7.389  10.585 -0.8651  0.3590 -0.6686
  407MOL0     H56136   4.640   7.425  10.744 -0.4912 -2.2912  1.0875
  407MOL0     H56137   4.765   7.388  10.627  0.6879 -3.5090  0.4388
  407MOL0     H56138   4.563   7.216  10.775 -2.5454 -1.3329 -2.7428
  407MOL0     H56139   4.624   7.171  10.609 -3.4875 -0.4899  0.6180
  407MOL0     H56140   4.863   7.200  10.695 -0.9101 -2.0836 -3.5091
  407MOL0     H56141   4.750   7.067  10.750 -2.5810  1.8088 -1.5690
  407MOL0     H56142   4.714   7.259  10.960 -1.8244 -2.5230 -0.5694
  407MOL0     H56143   4.851   7.327  10.890 -2.7698  2.5941 -1.5308
  407MOL0     H56144   4.908   7.169  11.088 -0.1794 -1.4691  0.6020
  407MOL0     H56145   5.004   7.153  10.937 -0.1863  1.0573  0.7403
  407MOL0     H56146   4.185   7.358  10.290 -0.4537  1.8641 -1.5635
  407MOL0     H56147   4.153   7.157  10.124  0.3760 -1.3522 -0.5652
  407MOL0     H56148   4.573   6.773   9.977  1.6228 -2.2410 -1.3962
  407MOL0     H56149   4.627   6.598   9.772 -0.1377  0.7966 -1.2614
  407MOL0     H56150   3.192   6.910  10.123 -4.4235  0.1493 -3.1788
  407MOL0     H56151   3.248   7.152  10.109 -1.3826 -3.4169  1.5395
  407MOL0     H56152   3.650   7.343   9.978  3.0760 -1.4003 -2.4061
  407MOL0     H56153   3.804   7.524  10.022  1.1576  0.9147 -0.8426
  407MOL0     H56154   3.919   7.821   9.697 -0.8906 -1.2604 -0.7674
  407MOL0     H56155   3.776   7.897   9.782  1.6190  1.7832 -0.6543
  407MOL0     H56156   4.047   7.906   9.922  1.6767  0.3321 -1.5286
  407MOL0     H56157   3.900   8.007   9.948  3.2747  2.7610 -0.0164
  407MOL0     H56158   4.103   7.984   9.722  0.2816 -0.6408 -0.1636
  407MOL0     H56159   3.966   8.098   9.705 -1.8061 -2.2384  0.6747
  407MOL0     H56160   4.198   8.173   9.753 -1.7200 -3.5616 -2.5342
  407MOL0     H56161   4.187   8.101   9.915 -2.0397  0.4834  2.3847
  407MOL0     H56162   3.992   8.474   9.897  0.6186  0.2887 -0.8741
  407MOL0     H56163   3.671   7.721   9.659 -3.4986  1.8261 -0.0825
  407MOL0     H56164   3.541   7.608   9.524 -1.0149  2.4228  1.4057
  407MOL0     H56165   3.474   7.440   9.550 -1.4736 -1.6622  1.7701
  407MOL0     H56166   3.397   7.590   9.617  0.3845 -1.2774  2.2331
  408MOL0     O56167   7.578   0.833   7.714 -0.2010  0.6766 -0.8635
  408MOL0     C56168   7.573   0.798   7.836 -0.7591 -0.4478  0.4623
  408MOL0     O56169   7.548   0.676   7.880  0.1508  0.4593 -0.7298
  408MOL0     C56170   7.501   0.579   7.797 -0.6031  0.1179  0.5093
  408MOL0     C56171   7.556   0.452   7.803  0.0239  0.2644  0.2093
  408MOL0     C56172   7.523   0.360   7.711  0.4134  0.0084  0.2232
  408MOL0     C56173   7.412   0.374   7.626  0.3959  1.6792  0.5747
  408MOL0     O56174   7.368   0.268   7.548  0.0933 -0.3431  0.2669
  408MOL0     C56175   7.465   0.189   7.481  0.5819 -0.2217 -0.1272
  408MOL0     C56176   7.381   0.116   7.379 -0.6562 -0.3174 -0.0148
  408MOL0     C56177   7.298   0.011   7.452 -0.2813 -0.3374  0.3882
  408MOL0     C56178   7.260  -0.105   7.355  1.1793 -0.4555  0.0058
  408MOL0     C56179   7.170  -0.211   7.422 -0.3890 -0.6521  0.2150
  408MOL0     C56180   7.188  -0.354   7.361 -0.3760  0.2230 -0.3661
  408MOL0     C56181   7.168  -0.370   7.211 -1.6388 -0.0281  1.5995
  408MOL0     C56182   7.018  -0.353   7.175  0.2071 -0.4131  0.6532
  408MOL0     N56183   6.958  -0.475   7.131 -0.4991  0.0852  0.4172
  408MOL0     C56184   7.008  -0.539   7.020  0.0924 -1.3065 -0.2292
  408MOL0     C56185   6.912  -0.617   6.982 -0.5597  0.0489  0.1108
  408MOL0     C56186   6.908  -0.705   6.854 -0.2273  0.7996  0.1298
  408MOL0     C56187   7.034  -0.783   6.835 -0.2342  0.4295 -0.0092
  408MOL0     C56188   7.039  -0.861   6.705 -0.2000  0.2485  0.3420
  408MOL0     C56189   6.947  -0.811   6.599  0.4067  0.5783 -1.0442
  408MOL0     O56190   6.955  -0.875   6.477  0.1118  0.7338 -1.1866
  408MOL0     C56191   7.011  -0.813   6.364 -0.3023 -0.1170 -0.0070
  408MOL0     C56192   7.069  -0.684   6.345 -0.3123  0.2055 -0.3907
  408MOL0     C56193   7.150  -0.642   6.238 -0.1131  0.6655  0.5596
  408MOL0     C56194   7.228  -0.506   6.256 -0.4128 -0.5963 -0.1732
  408MOL0     C56195   7.157  -0.730   6.128 -0.1220 -0.4542  0.9321
  408MOL0     C56196   7.236  -0.707   6.005 -0.4785  0.4001 -0.6041
  408MOL0     O56197   7.276  -0.583   5.986 -0.4963  0.6751  0.3954
  408MOL0     C56198   7.366  -0.559   5.887 -0.8612 -0.8353 -0.2490
  408MOL0     C56199   7.505  -0.549   5.907  0.2728 -0.3033 -0.5579
  408MOL0     C56200   7.590  -0.517   5.808  0.0258 -0.3695  0.2713
  408MOL0     C56201   7.545  -0.476   5.682  0.7454 -0.2950 -0.2408
  408MOL0     O56202   7.646  -0.463   5.592 -0.7805 -0.5756  0.7916
  408MOL0     C56203   7.628  -0.474   5.450  0.8797 -0.6207  1.1490
  408MOL0     C56204   7.582  -0.617   5.404  0.4129 -0.8729 -0.8129
  408MOL0     C56205   7.619  -0.627   5.253 -0.3233 -0.1383  0.5639
  408MOL0     C56206   7.576  -0.765   5.203 -0.0372  0.0305 -0.3452
  408MOL0     C56207   7.646  -0.815   5.079  0.4438  0.6406  0.8047
  408MOL0     C56208   7.583  -0.939   5.031  0.3131  0.6376  0.3468
  408MOL0     C56209   7.670  -1.002   4.919 -0.7973  0.8272 -0.0909
  408MOL0     C56210   7.617  -1.135   4.855  0.0864 -0.2446 -0.8297
  408MOL0    Cl56211   7.609  -1.273   4.969 -0.1056  0.3273  0.0129
  408MOL0     C56212   7.403  -0.479   5.655  0.1165 -1.0333 -0.0474
  408MOL0     C56213   7.329  -0.519   5.756 -0.0236  0.3066 -0.1739
  408MOL0     O56214   7.249  -0.802   5.927 -0.0278 -0.1140 -0.0829
  408MOL0     C56215   7.106  -0.852   6.153  1.0841  0.4207  0.5210
  408MOL0     C56216   7.042  -0.897   6.264  0.4777 -0.2858  0.0853
  408MOL0     N56217   6.815  -0.620   7.082  0.0607 -0.7506 -0.2638
  408MOL0     N56218   6.844  -0.529   7.170  0.1647  0.3716 -0.3059
  408MOL0     C56219   7.352   0.500   7.624  0.0708  0.3673 -0.3335
  408MOL0     C56220   7.402   0.601   7.700  0.1684  0.2550  0.9970
  408MOL0     C56221   7.588   0.899   7.949  0.1878  0.0030  0.0131
  408MOL0     C56222   7.512   0.881   8.062 -0.5282 -0.4313 -0.3144
  408MOL0     C56223   7.510   0.967   8.161  0.7081 -0.9897 -1.0493
  408MOL0     C56224   7.585   1.089   8.160  0.0588  0.2870  0.2091
  408MOL0     O56225   7.582   1.168   8.267  1.0586  0.3442  0.5436
  408MOL0     C56226   7.667   1.280   8.287  1.2588  0.0966 -0.4564
  408MOL0     C56227   7.592   1.402   8.232 -0.7166  0.5357 -0.2368
  408MOL0     C56228   7.450   1.403   8.304  0.1738 -0.7518  0.1117
  408MOL0     C56229   7.391   1.551   8.312  0.3176  0.1448 -0.7407
  408MOL0     C56230   7.378   1.630   8.187  0.5787 -0.2287 -0.6592
  408MOL0     C56231   7.372   1.687   8.078 -0.6292 -0.9916 -0.7405
  408MOL0     C56232   7.664   1.113   8.044  0.1549  0.2007 -1.0544
  408MOL0     C56233   7.658   1.021   7.943  0.0760 -0.3926 -0.1492
  408MOL0     C56234   7.744   1.041   7.821 -0.4702  0.2260 -0.2902
  408MOL0     H56235   7.634   0.425   7.874  2.1567  0.2682 -2.0139
  408MOL0     H56236   7.584   0.271   7.707 -2.5274 -2.1280 -1.4091
  408MOL0     H56237   7.521   0.117   7.542  0.4130  1.0426  1.6073
  408MOL0     H56238   7.537   0.254   7.430  0.6240  0.9003  1.2951
  408MOL0     H56239   7.312   0.190   7.337 -0.7052  0.9284  2.1118
  408MOL0     H56240   7.435   0.076   7.294 -2.6803  1.2736 -2.1893
  408MOL0     H56241   7.361  -0.034   7.530  1.1253 -1.6553 -1.4217
  408MOL0     H56242   7.206   0.059   7.487 -0.2702 -0.3293  0.4059
  408MOL0     H56243   7.199  -0.074   7.270 -0.9095 -1.7976  0.9223
  408MOL0     H56244   7.352  -0.147   7.312  2.1399  0.4089  1.1534
  408MOL0     H56245   7.069  -0.179   7.395 -0.1008  1.2913  1.2645
  408MOL0     H56246   7.191  -0.210   7.529  0.2455  1.0838  0.1109
  408MOL0     H56247   7.283  -0.401   7.389 -0.6602 -0.1455 -0.0151
  408MOL0     H56248   7.101  -0.413   7.391 -1.0137  1.4780  0.3222
  408MOL0     H56249   7.210  -0.465   7.177 -1.1926  0.6874  0.0941
  408MOL0     H56250   7.234  -0.305   7.153 -0.2598 -2.0342  0.8056
  408MOL0     H56251   6.960  -0.317   7.261  1.2404  1.2593  0.6745
  408MOL0     H56252   6.998  -0.275   7.102 -2.3867 -0.4351  1.2065
  408MOL0     H56253   7.098  -0.514   6.966 -0.5416  0.6052 -0.4644
  408MOL0     H56254   6.903  -0.623   6.782 -0.6964  1.4585  0.8875
  408MOL0     H56255   6.821  -0.772   6.857 -1.0417  1.6574 -2.2228
  408MOL0     H56256   7.115  -0.709   6.838 -1.6999  2.1934 -1.3607
  408MOL0     H56257   7.044  -0.852   6.920  1.0408  2.1683  1.3362
  408MOL0     H56258   7.143  -0.870   6.672  0.4659  3.9125  1.0702
  408MOL0     H56259   7.012  -0.965   6.725  2.3546 -0.3627  1.0971
  408MOL0     H56260   6.848  -0.848   6.629  2.0715 -4.1977 -0.6145
  408MOL0     H56261   6.967  -0.704   6.598  0.0398  0.6838  0.3429
  408MOL0     H56262   7.055  -0.627   6.436 -1.3936 -2.2925  1.1075
  408MOL0     H56263   7.212  -0.447   6.166  0.5129  1.2399  0.8000
  408MOL0     H56264   7.336  -0.520   6.264 -0.2729  0.9700  1.4628
  408MOL0     H56265   7.192  -0.462   6.350 -1.1049 -0.6904 -0.3911
  408MOL0     H56266   7.538  -0.556   6.010 -4.4249 -5.3077  1.0983
  408MOL0     H56267   7.697  -0.527   5.821  0.1293 -1.3292 -1.1152
  408MOL0     H56268   7.551  -0.401   5.422  2.2960  0.6520  0.4628
  408MOL0     H56269   7.716  -0.437   5.396 -0.9745  2.3797 -0.1231
  408MOL0     H56270   7.627  -0.690   5.472  2.0580  2.8460  2.5100
  408MOL0     H56271   7.474  -0.608   5.417  0.6464  0.0320  0.7367
  408MOL0     H56272   7.721  -0.605   5.220 -0.2829 -0.1492  0.6813
  408MOL0     H56273   7.556  -0.555   5.200  0.2246 -1.0159 -1.3633
  408MOL0     H56274   7.471  -0.751   5.176  0.1368 -1.0709 -1.7001
  408MOL0     H56275   7.583  -0.836   5.286 -2.0425  3.1032  2.7432
  408MOL0     H56276   7.647  -0.738   5.000  2.5886 -0.4210 -0.2929
  408MOL0     H56277   7.750  -0.841   5.100 -0.3472 -1.6938  2.1716
  408MOL0     H56278   7.487  -0.913   4.986  1.1908  1.3724 -1.1620
  408MOL0     H56279   7.569  -1.013   5.111 -0.2971  2.5806  2.1481
  408MOL0     H56280   7.757  -1.046   4.969 -3.3901 -3.1816  1.4047
  408MOL0     H56281   7.694  -0.927   4.843 -0.2670 -0.0892 -0.8467
  408MOL0     H56282   7.675  -1.150   4.763  1.0746  1.7517 -0.5845
  408MOL0     H56283   7.513  -1.133   4.821 -0.0948 -5.0095 -1.2256
  408MOL0     H56284   7.364  -0.452   5.557 -1.6430  1.8036  1.3188
  408MOL0     H56285   7.222  -0.502   5.744 -0.1692  0.3453  1.0252
  408MOL0     H56286   7.112  -0.921   6.070  1.4351  1.5298 -0.4113
  408MOL0     H56287   7.017  -1.002   6.259 -2.6248  0.4107 -2.6429
  408MOL0     H56288   7.267   0.513   7.558  0.1023  2.4414 -0.0362
  408MOL0     H56289   7.334   0.685   7.688 -2.4007 -1.9189 -1.0462
  408MOL0     H56290   7.436   0.803   8.056 -0.7719 -0.1070 -1.9370
  408MOL0     H56291   7.443   0.942   8.242 -1.6145  0.1872 -2.5048
  408MOL0     H56292   7.682   1.294   8.394 -0.1251 -2.1858  0.0956
  408MOL0     H56293   7.762   1.267   8.234  1.6631 -0.5151  0.4033
  408MOL0     H56294   7.579   1.399   8.123  0.7000  1.8482 -0.4758
  408MOL0     H56295   7.645   1.496   8.251 -0.1021 -0.0554  1.0934
  408MOL0     H56296   7.383   1.345   8.240 -0.7818 -1.0915  1.3930
  408MOL0     H56297   7.440   1.368   8.407  3.0635  0.7134  0.9855
  408MOL0     H56298   7.449   1.622   8.372 -1.4040 -1.2094  2.8735
  408MOL0     H56299   7.287   1.536   8.344 -0.3121 -0.4011 -2.8902
  408MOL0     H56300   7.373   1.724   7.977 -1.0084 -0.3761 -0.5267
  408MOL0     H56301   7.722   1.204   8.035 -3.2308  2.4115 -2.3147
  408MOL0     H56302   7.816   1.123   7.816  0.1517 -0.3369 -0.7345
  408MOL0     H56303   7.806   0.955   7.794  1.7512  1.3812  0.9040
  408MOL0     H56304   7.681   1.062   7.734  0.6778  0.6848 -1.0443
  409MOL0     O56305   9.188   1.835   0.620  0.2065 -0.2216 -0.2016
  409MOL0     C56306   9.085   1.886   0.586 -0.0326  0.2625  0.5047
  409MOL0     O56307   8.998   1.833   0.498  0.1868  0.1234  0.4888
  409MOL0     C56308   9.028   1.719   0.431  0.1400  0.4503 -0.3760
  409MOL0     C56309   9.121   1.725   0.323 -0.2968  0.6965 -0.8930
  409MOL0     C56310   9.144   1.615   0.246 -0.2937 -0.7866 -0.1021
  409MOL0     C56311   9.068   1.498   0.266 -0.0113  0.0501  0.1931
  409MOL0     O56312   9.108   1.388   0.189  0.4821  1.2600 -0.0234
  409MOL0     C56313   9.014   1.276   0.164  0.7232 -0.1908  0.0745
  409MOL0     C56314   8.900   1.330   0.068 -0.1067 -0.3247  0.7274
  409MOL0     C56315   8.851   1.209  -0.010  0.1583 -0.9703 -0.3682
  409MOL0     C56316   8.839   1.215  -0.168 -0.2553  0.2018  1.0520
  409MOL0     C56317   8.964   1.261  -0.234 -0.7065 -1.0320  0.1932
  409MOL0     C56318   8.961   1.220  -0.379 -0.7069  0.5444 -0.5706
  409MOL0     C56319   9.107   1.232  -0.444  0.1259 -0.0226 -0.4942
  409MOL0     C56320   9.121   1.170  -0.584  0.5334  0.1699 -0.8047
  409MOL0     N56321   9.256   1.187  -0.645  0.2473 -0.7435  0.0601
  409MOL0     C56322   9.330   1.306  -0.642 -0.1559 -0.5640  0.4657
  409MOL0     C56323   9.425   1.277  -0.736  0.4018 -0.8274  0.4429
  409MOL0     C56324   9.523   1.383  -0.789  0.6805 -0.2697  0.5536
  409MOL0     C56325   9.552   1.344  -0.934  0.0375 -0.3805  0.2105
  409MOL0     C56326   9.636   1.446  -1.003  0.1111 -0.3932 -0.1052
  409MOL0     C56327   9.700   1.386  -1.133  0.3135  0.1211 -0.0992
  409MOL0     O56328   9.821   1.318  -1.114  1.1761 -0.4616 -0.6563
  409MOL0     C56329   9.870   1.250  -1.214  0.4191  0.6182 -0.3398
  409MOL0     C56330   9.988   1.178  -1.187  0.3697  0.6944  0.1420
  409MOL0     C56331  10.042   1.092  -1.283  0.3432 -0.1960  0.8982
  409MOL0     C56332  10.141   0.989  -1.255 -0.0697 -0.2356 -0.0202
  409MOL0     C56333   9.980   1.087  -1.414 -0.6139  0.1802  0.2467
  409MOL0     C56334  10.024   0.999  -1.528  0.5803 -0.0076  0.3122
  409MOL0     O56335  10.160   0.985  -1.546 -0.5705  0.3570 -0.3279
  409MOL0     C56336  10.220   0.931  -1.662 -0.9030 -0.1684  0.4042
  409MOL0     C56337  10.173   0.927  -1.790  0.6251 -0.3699  0.0587
  409MOL0     C56338  10.236   0.858  -1.898 -0.3437 -1.3611 -0.6599
  409MOL0     C56339  10.348   0.772  -1.867  0.0571  1.4618 -0.2107
  409MOL0     O56340  10.404   0.685  -1.957 -0.1754  0.7076  0.2849
  409MOL0     C56341  10.346   0.667  -2.083  0.3278 -1.0974 -1.0019
  409MOL0     C56342  10.399   0.547  -2.153  2.8257 -0.0421  0.6395
  409MOL0     C56343  10.366   0.405  -2.092  1.0774 -0.7999  0.4957
  409MOL0     C56344  10.446   0.354  -1.977  0.5433 -0.0767  1.1207
  409MOL0     C56345  10.421   0.211  -1.953 -0.1100  0.7160  0.0446
  409MOL0     C56346  10.553   0.134  -1.954  0.3731 -0.5271 -0.8358
  409MOL0     C56347  10.515  -0.015  -1.949 -0.5656 -0.1347 -0.3571
  409MOL0     C56348  10.624  -0.110  -1.906  0.7479 -0.3939  0.3176
  409MOL0    Cl56349  10.664  -0.081  -1.731 -0.2785 -0.0185  0.1281
  409MOL0     C56350  10.403   0.778  -1.739  0.7065 -0.4533  0.0437
  409MOL0     C56351  10.334   0.849  -1.644  0.0322  0.0400  0.1183
  409MOL0     O56352   9.937   0.950  -1.596 -0.2550  0.2088 -0.3803
  409MOL0     C56353   9.866   1.164  -1.439  1.0321 -0.2555  0.0260
  409MOL0     C56354   9.807   1.239  -1.336 -0.1055 -0.2136 -0.3779
  409MOL0     N56355   9.418   1.144  -0.778 -0.6825 -0.3918  0.0901
  409MOL0     N56356   9.318   1.091  -0.713 -0.0584  0.1389 -0.3926
  409MOL0     C56357   8.988   1.486   0.385  0.2945  0.5144  0.0790
  409MOL0     C56358   8.961   1.600   0.469 -0.3841  0.1765 -0.6531
  409MOL0     C56359   9.041   2.023   0.628  0.1964 -0.7505 -0.8153
  409MOL0     C56360   8.944   2.089   0.556 -0.3047 -0.0709  0.4116
  409MOL0     C56361   8.894   2.208   0.604  0.0633  0.4983  0.0585
  409MOL0     C56362   8.937   2.281   0.718 -0.5418 -0.4284 -0.6038
  409MOL0     O56363   8.873   2.405   0.744 -0.1509 -0.5944 -0.3518
  409MOL0     C56364   8.930   2.497   0.840  0.2357  0.4382  0.0558
  409MOL0     C56365   8.832   2.615   0.866 -0.8707  0.1938  0.2608
  409MOL0     C56366   8.698   2.566   0.919  0.4865 -0.2526  0.4005
  409MOL0     C56367   8.684   2.480   1.049  0.2248 -1.0924  1.0254
  409MOL0     C56368   8.533   2.452   1.071 -0.8655 -0.0828 -0.2087
  409MOL0     C56369   8.414   2.432   1.070 -0.2762 -0.5550  0.0919
  409MOL0     C56370   9.040   2.217   0.784 -0.7542  1.1814 -0.5098
  409MOL0     C56371   9.088   2.083   0.750  0.0304 -0.0481 -0.8825
  409MOL0     C56372   9.186   2.026   0.847 -0.2015  0.7697 -0.3305
  409MOL0     H56373   9.158   1.825   0.304 -2.2411  2.1433  2.1217
  409MOL0     H56374   9.204   1.625   0.155  1.0586  1.8554  0.9765
  409MOL0     H56375   8.980   1.248   0.264  2.2563  0.1168  0.7141
  409MOL0     H56376   9.068   1.194   0.116 -0.4933  0.0117 -1.7461
  409MOL0     H56377   8.821   1.368   0.132  0.0368 -0.1332  0.7914
  409MOL0     H56378   8.935   1.410   0.001 -1.2591  0.3461  0.9122
  409MOL0     H56379   8.916   1.122   0.002  0.9377 -0.2066  1.1288
  409MOL0     H56380   8.754   1.177   0.030 -1.3187  0.8458 -2.2726
  409MOL0     H56381   8.817   1.118  -0.213  4.3267 -0.4919 -0.1731
  409MOL0     H56382   8.759   1.281  -0.203 -0.3051 -1.5687 -2.5894
  409MOL0     H56383   9.047   1.215  -0.180 -1.5954 -0.7295  1.8946
  409MOL0     H56384   8.964   1.371  -0.233 -0.4179 -1.0157 -0.7735
  409MOL0     H56385   8.933   1.115  -0.387 -0.1498  0.2878  0.5474
  409MOL0     H56386   8.889   1.292  -0.419 -3.3292 -1.2360  0.6958
  409MOL0     H56387   9.175   1.176  -0.380  1.0510 -1.3364 -2.5260
  409MOL0     H56388   9.143   1.335  -0.448  0.2744 -0.1034 -1.3224
  409MOL0     H56389   9.087   1.066  -0.587  1.0718 -0.0274 -0.2967
  409MOL0     H56390   9.051   1.224  -0.649 -3.2420 -0.8949  2.0505
  409MOL0     H56391   9.316   1.408  -0.607  0.9161  0.3420 -1.5724
  409MOL0     H56392   9.609   1.384  -0.720  2.5079  2.3899 -1.5487
  409MOL0     H56393   9.485   1.485  -0.789 -0.5893 -0.7290 -0.0048
  409MOL0     H56394   9.612   1.252  -0.939  0.4699 -0.1731  1.2254
  409MOL0     H56395   9.457   1.326  -0.984  0.7081  0.3643 -1.4115
  409MOL0     H56396   9.572   1.532  -1.023  0.2661  0.2332  1.8858
  409MOL0     H56397   9.703   1.487  -0.927  0.5285 -1.3956  0.0936
  409MOL0     H56398   9.626   1.312  -1.163 -0.6128  0.5955  0.9437
  409MOL0     H56399   9.708   1.474  -1.199 -1.3598  0.5545  0.2327
  409MOL0     H56400  10.021   1.160  -1.085  0.3282 -2.5784 -0.3322
  409MOL0     H56401  10.117   0.952  -1.155  1.4778  0.8546  0.7993
  409MOL0     H56402  10.244   1.024  -1.244  0.0073  0.3305 -2.1176
  409MOL0     H56403  10.131   0.895  -1.311  0.2661  0.8814 -2.0722
  409MOL0     H56404  10.092   0.993  -1.818  1.6244 -0.0404 -2.2550
  409MOL0     H56405  10.191   0.864  -1.997  1.9673  2.2837 -1.7009
  409MOL0     H56406  10.239   0.656  -2.065  0.0459  2.2112 -0.0089
  409MOL0     H56407  10.364   0.757  -2.143  0.5081 -0.6095 -0.2290
  409MOL0     H56408  10.348   0.550  -2.249  0.7629  0.6340  1.6884
  409MOL0     H56409  10.503   0.572  -2.173  2.3984  2.1241  0.8984
  409MOL0     H56410  10.369   0.335  -2.176  0.3086  1.3796 -1.4778
  409MOL0     H56411  10.264   0.406  -2.053  0.5224  2.3338 -0.6698
  409MOL0     H56412  10.420   0.407  -1.885  0.9788 -0.9150  1.7360
  409MOL0     H56413  10.546   0.375  -2.016 -0.7108 -0.8571 -3.0055
  409MOL0     H56414  10.356   0.203  -1.865 -2.8844  2.7949 -1.6635
  409MOL0     H56415  10.378   0.158  -2.038 -1.0303  0.4370  0.6615
  409MOL0     H56416  10.614   0.159  -1.867  1.3561  0.3296 -1.7362
  409MOL0     H56417  10.613   0.167  -2.040  2.6008 -3.0933 -0.4174
  409MOL0     H56418  10.481  -0.037  -2.051  0.5089  2.6142 -1.4185
  409MOL0     H56419  10.428  -0.017  -1.883 -1.1660  1.4682 -1.0479
  409MOL0     H56420  10.708  -0.118  -1.975 -0.3060  1.7725 -1.3661
  409MOL0     H56421  10.569  -0.205  -1.914 -2.6901  1.0304  3.6814
  409MOL0     H56422  10.486   0.711  -1.720 -0.0427 -1.3749  0.1472
  409MOL0     H56423  10.378   0.842  -1.545 -0.1140 -1.8059  0.0866
  409MOL0     H56424   9.809   1.152  -1.530 -1.9859  1.7201  1.4552
  409MOL0     H56425   9.709   1.283  -1.354 -0.8663 -0.6938  2.2110
  409MOL0     H56426   8.924   1.399   0.400 -1.9687  1.4966 -2.9004
  409MOL0     H56427   8.890   1.596   0.550 -2.1448  0.5063 -2.1047
  409MOL0     H56428   8.908   2.052   0.461  1.3801 -2.3653  0.5974
  409MOL0     H56429   8.807   2.260   0.565 -1.3612  1.3060  3.8899
  409MOL0     H56430   8.941   2.439   0.932  1.4331 -2.2948 -1.6894
  409MOL0     H56431   9.026   2.539   0.809  0.9061  0.5829  2.1294
  409MOL0     H56432   8.817   2.686   0.784 -1.4927  2.8352  2.5109
  409MOL0     H56433   8.874   2.682   0.942 -0.8616  0.2640  0.1942
  409MOL0     H56434   8.627   2.647   0.933  0.0361 -0.3299 -1.2141
  409MOL0     H56435   8.662   2.504   0.836  5.6057 -1.7078 -1.0857
  409MOL0     H56436   8.734   2.537   1.128  1.2820 -0.7564  0.1436
  409MOL0     H56437   8.744   2.390   1.034 -0.4988 -1.2768 -1.0390
  409MOL0     H56438   8.308   2.422   1.053 -0.3721  2.0946 -1.5111
  409MOL0     H56439   9.073   2.261   0.878 -4.1236 -0.5634  1.6805
  409MOL0     H56440   9.228   2.109   0.904 -1.6090 -0.1451  2.1805
  409MOL0     H56441   9.137   1.957   0.916  1.5007  2.0916  2.3664
  409MOL0     H56442   9.263   1.962   0.801 -2.3659 -2.0524 -0.3529
  410MOL0     O56443   7.443   2.530   0.027  0.7564  0.3821  0.7774
  410MOL0     C56444   7.469   2.445   0.105 -0.5982  0.2377 -0.2775
  410MOL0     O56445   7.401   2.430   0.223 -0.4089 -0.1639  0.4049
  410MOL0     C56446   7.291   2.504   0.237  0.0962  0.4713  0.2002
  410MOL0     C56447   7.174   2.446   0.184  0.3766 -0.6098  0.5690
  410MOL0     C56448   7.044   2.505   0.202 -1.1629  0.1556  0.2971
  410MOL0     C56449   7.040   2.628   0.287  0.8192  1.1066  0.3290
  410MOL0     O56450   6.922   2.695   0.313  0.0339 -0.5555  0.0155
  410MOL0     C56451   6.799   2.626   0.281  0.7133  0.2234 -0.0255
  410MOL0     C56452   6.687   2.719   0.318 -0.0966  1.3675 -0.6098
  410MOL0     C56453   6.546   2.659   0.280 -0.3829  0.5646  0.2656
  410MOL0     C56454   6.438   2.710   0.379 -0.3976  0.3478 -0.2636
  410MOL0     C56455   6.306   2.623   0.368 -0.3547  0.6704 -0.5773
  410MOL0     C56456   6.189   2.698   0.423  0.0683  0.2288  0.0370
  410MOL0     C56457   6.184   2.724   0.565  0.5559  1.2512  0.0153
  410MOL0     C56458   6.133   2.605   0.642  0.8376 -0.0001  0.0750
  410MOL0     N56459   6.149   2.604   0.793 -0.2161 -0.2930  0.5678
  410MOL0     C56460   6.115   2.715   0.874 -0.2484  0.1943 -0.4643
  410MOL0     C56461   6.156   2.692   1.000  0.2819  0.2505 -0.3334
  410MOL0     C56462   6.143   2.790   1.107 -0.5726  0.8092 -0.0509
  410MOL0     C56463   6.022   2.735   1.191 -0.1599 -0.1768  0.5214
  410MOL0     C56464   5.978   2.839   1.285 -0.1216  0.1324  0.3485
  410MOL0     C56465   5.860   2.777   1.360  0.2080 -0.3674 -0.4898
  410MOL0     O56466   5.747   2.768   1.270 -0.6502  0.1147 -0.4279
  410MOL0     C56467   5.625   2.720   1.318 -0.6670 -0.5445 -0.5154
  410MOL0     C56468   5.526   2.717   1.230  0.2534 -0.5059 -0.3184
  410MOL0     C56469   5.399   2.662   1.268  0.4735  0.3099  0.1345
  410MOL0     C56470   5.292   2.667   1.151 -0.3803  1.1320  0.2353
  410MOL0     C56471   5.376   2.616   1.405 -0.5102 -0.7800 -0.0771
  410MOL0     C56472   5.245   2.561   1.444  0.2040 -0.4481 -1.0052
  410MOL0     O56473   5.236   2.529   1.581  0.0718 -0.3568  0.3144
  410MOL0     C56474   5.136   2.444   1.628  0.4479 -0.5807  0.0675
  410MOL0     C56475   5.066   2.353   1.549  0.0300 -0.3186 -0.0752
  410MOL0     C56476   4.956   2.282   1.596  0.3156  0.0580  0.5038
  410MOL0     C56477   4.918   2.292   1.731 -0.0862  0.5953 -0.5045
  410MOL0     O56478   4.803   2.230   1.779  0.2943  0.4871  0.2813
  410MOL0     C56479   4.686   2.306   1.754 -0.4406 -0.0064  0.5948
  410MOL0     C56480   4.558   2.235   1.789 -0.8785 -0.4277 -0.8224
  410MOL0     C56481   4.550   2.224   1.950 -0.2212  1.2691 -0.6153
  410MOL0     C56482   4.449   2.116   1.984 -0.1788  1.1696 -0.4564
  410MOL0     C56483   4.415   2.109   2.130 -0.2404 -0.2530 -0.5457
  410MOL0     C56484   4.356   1.971   2.174 -0.1862  1.0593  0.5069
  410MOL0     C56485   4.319   1.965   2.325  0.9452 -0.1575 -0.1324
  410MOL0     C56486   4.211   2.071   2.353 -0.0805 -0.3220 -0.0723
  410MOL0    Cl56487   4.060   2.041   2.263 -0.2728 -0.5015 -0.2471
  410MOL0     C56488   4.999   2.376   1.819 -0.1464  0.1812  0.5941
  410MOL0     C56489   5.111   2.445   1.764 -0.6053  0.5234  0.4025
  410MOL0     O56490   5.154   2.548   1.358 -0.8185 -0.0723 -0.0508
  410MOL0     C56491   5.479   2.641   1.496 -0.6669 -0.1836  0.1479
  410MOL0     C56492   5.602   2.687   1.451  0.2662 -0.3785  0.2179
  410MOL0     N56493   6.222   2.573   0.997 -0.6396 -0.5445  0.7738
  410MOL0     N56494   6.209   2.514   0.876 -0.0236 -0.1917 -0.0245
  410MOL0     C56495   7.157   2.675   0.339  0.3501 -0.2714 -1.1583
  410MOL0     C56496   7.284   2.610   0.323  0.1818 -0.9585  0.0782
  410MOL0     C56497   7.579   2.348   0.090  0.6721 -0.5741  0.2859
  410MOL0     C56498   7.674   2.373  -0.011  0.4519 -0.3893 -0.0832
  410MOL0     C56499   7.785   2.293  -0.032  0.1015  1.0150 -0.5203
  410MOL0     C56500   7.796   2.172   0.035  0.6224  0.3931 -1.1516
  410MOL0     O56501   7.897   2.072   0.032  0.3838  0.1299 -0.9510
  410MOL0     C56502   8.011   2.105  -0.039  0.3500  0.0753 -0.4866
  410MOL0     C56503   8.134   2.037   0.016  0.2921 -0.5094 -0.1177
  410MOL0     C56504   8.113   1.881   0.050  0.2463 -0.6054  0.6992
  410MOL0     C56505   8.247   1.833   0.109 -0.1648  0.1449 -0.3296
  410MOL0     C56506   8.233   1.685   0.100  0.8353  0.7205  0.2552
  410MOL0     C56507   8.214   1.563   0.092 -0.4488  0.2258 -0.2068
  410MOL0     C56508   7.699   2.134   0.124 -0.6284  0.0093 -0.4412
  410MOL0     C56509   7.601   2.225   0.168 -0.4733  0.1910  0.1031
  410MOL0     C56510   7.507   2.172   0.276  0.1635  0.2094 -0.7552
  410MOL0     H56511   7.182   2.347   0.139  0.8442 -0.3368  0.0329
  410MOL0     H56512   6.958   2.457   0.158 -2.2263  1.9929  0.2355
  410MOL0     H56513   6.806   2.533   0.337 -0.3343 -0.0740 -0.3601
  410MOL0     H56514   6.787   2.621   0.172 -2.6688 -0.7098  0.2698
  410MOL0     H56515   6.706   2.739   0.424 -1.4282 -0.1279 -0.0458
  410MOL0     H56516   6.703   2.819   0.277  1.3924  1.0872 -0.7797
  410MOL0     H56517   6.513   2.687   0.180 -1.2704 -0.7850  0.1538
  410MOL0     H56518   6.558   2.550   0.292  1.3110  1.0023  4.2888
  410MOL0     H56519   6.473   2.713   0.483 -0.9536 -0.0382 -0.0592
  410MOL0     H56520   6.417   2.815   0.354 -2.3262 -0.2127 -1.2256
  410MOL0     H56521   6.317   2.535   0.432 -0.4800  1.0080 -0.0777
  410MOL0     H56522   6.282   2.603   0.264  1.8943 -0.9607 -0.8570
  410MOL0     H56523   6.170   2.794   0.374 -1.4325 -0.0103  0.1145
  410MOL0     H56524   6.097   2.648   0.393 -0.1493  1.7599 -2.0877
  410MOL0     H56525   6.109   2.802   0.583 -2.1396 -0.9094 -1.0830
  410MOL0     H56526   6.282   2.743   0.609  1.1074 -3.4650  1.3909
  410MOL0     H56527   6.029   2.582   0.617  1.1864 -0.5407 -0.9321
  410MOL0     H56528   6.192   2.517   0.614  2.0561  1.1748 -1.1132
  410MOL0     H56529   6.068   2.807   0.842  1.7380  2.0174  1.4906
  410MOL0     H56530   6.127   2.892   1.071  0.2392  0.4244 -1.5909
  410MOL0     H56531   6.230   2.792   1.173 -0.4156 -2.7593  0.0839
  410MOL0     H56532   5.938   2.699   1.130 -0.0708  2.0841 -1.0179
  410MOL0     H56533   6.066   2.643   1.232  2.4378 -0.0571 -1.7628
  410MOL0     H56534   6.062   2.857   1.353 -0.3522 -0.3826  0.7704
  410MOL0     H56535   5.956   2.933   1.234  0.5372 -0.9415 -2.0754
  410MOL0     H56536   5.885   2.677   1.397  0.0680 -0.5655 -0.9156
  410MOL0     H56537   5.842   2.839   1.448 -0.2617 -1.6367  0.3479
  410MOL0     H56538   5.555   2.738   1.127  0.0055 -2.0338 -0.7387
  410MOL0     H56539   5.327   2.718   1.061 -3.6102  2.7095 -0.2626
  410MOL0     H56540   5.206   2.725   1.183 -0.7371  1.7963 -1.8005
  410MOL0     H56541   5.263   2.565   1.125  0.1622  1.3293 -1.2315
  410MOL0     H56542   5.076   2.352   1.441 -1.0028 -0.6110 -0.1783
  410MOL0     H56543   4.910   2.202   1.540  1.4558 -0.7384  0.6646
  410MOL0     H56544   4.698   2.403   1.804  0.2575 -0.6681  1.7698
  410MOL0     H56545   4.682   2.324   1.647 -0.3719  3.3210  1.0467
  410MOL0     H56546   4.479   2.301   1.752  0.1885  2.3581  1.4871
  410MOL0     H56547   4.536   2.140   1.738 -1.7509 -0.3754 -0.5664
  410MOL0     H56548   4.509   2.315   1.995 -2.2015  0.8463 -1.4616
  410MOL0     H56549   4.643   2.194   1.999 -0.6916 -1.6765 -1.3426
  410MOL0     H56550   4.492   2.019   1.955  2.1939  1.8309  0.6222
  410MOL0     H56551   4.363   2.111   1.917  1.3690 -2.6093 -2.5077
  410MOL0     H56552   4.503   2.131   2.192 -1.5005  0.8062  0.9433
  410MOL0     H56553   4.351   2.195   2.151  2.9894  1.9819  1.1526
  410MOL0     H56554   4.421   1.885   2.153 -0.9118  0.9143 -1.2760
  410MOL0     H56555   4.267   1.946   2.116  0.2210 -0.2540  0.4118
  410MOL0     H56556   4.405   1.984   2.389 -1.1850  1.4422  2.4809
  410MOL0     H56557   4.269   1.870   2.348 -0.0721 -0.5443 -3.3378
  410MOL0     H56558   4.246   2.172   2.327 -0.2840 -0.9083 -2.9797
  410MOL0     H56559   4.177   2.070   2.457  0.2460 -1.7501  0.0406
  410MOL0     H56560   4.968   2.410   1.917  1.4887  1.5398  0.6811
  410MOL0     H56561   5.162   2.513   1.833 -2.6440 -0.7294  3.3542
  410MOL0     H56562   5.452   2.605   1.595  1.8585 -0.9531  0.6258
  410MOL0     H56563   5.680   2.707   1.524 -0.4291 -0.4087  0.9913
  410MOL0     H56564   7.153   2.771   0.390  0.4581  0.4301 -2.4312
  410MOL0     H56565   7.369   2.632   0.386 -0.0906  0.7641 -0.1012
  410MOL0     H56566   7.672   2.458  -0.079  3.1863 -0.9743 -1.0319
  410MOL0     H56567   7.866   2.311  -0.103  1.4531 -2.3320 -0.0165
  410MOL0     H56568   7.995   2.077  -0.144  0.6803  0.3868 -0.6239
  410MOL0     H56569   8.027   2.212  -0.022 -2.4234  0.6265 -0.9208
  410MOL0     H56570   8.161   2.096   0.104 -0.9463 -0.4144  0.2142
  410MOL0     H56571   8.207   2.030  -0.065  1.9499 -0.8785  1.3426
  410MOL0     H56572   8.039   1.872   0.130 -1.6284 -1.0001 -0.9976
  410MOL0     H56573   8.073   1.822  -0.033 -3.7786 -0.8285  2.5670
  410MOL0     H56574   8.275   1.857   0.212  3.0910 -2.9460 -0.3301
  410MOL0     H56575   8.325   1.850   0.034  0.9196 -3.5140 -0.2191
  410MOL0     H56576   8.200   1.457   0.086  1.2151 -0.2270  2.3021
  410MOL0     H56577   7.715   2.035   0.165 -2.3326  1.2454  3.7377
  410MOL0     H56578   7.408   2.144   0.237  0.0594 -0.4415 -0.0518
  410MOL0     H56579   7.553   2.091   0.335  2.2795  1.8240 -0.0644
  410MOL0     H56580   7.492   2.244   0.357 -0.0450  1.5865 -1.9942
  411MOL0     O56581  10.876   7.433   2.867 -0.5201 -0.7840  0.3578
  411MOL0     C56582  10.970   7.486   2.802  0.1126  0.0922  0.7674
  411MOL0     O56583  10.987   7.621   2.794 -0.1710  0.4371  0.0978
  411MOL0     C56584  10.893   7.701   2.855 -0.5577 -0.9136 -0.2437
  411MOL0     C56585  10.857   7.682   2.991 -0.2442 -0.8575 -0.6181
  411MOL0     C56586  10.774   7.768   3.048  0.2044 -0.0018 -0.3133
  411MOL0     C56587  10.709   7.866   2.969  0.3076 -0.2560 -0.5135
  411MOL0     O56588  10.610   7.934   3.027  0.0589  0.0114  0.0032
  411MOL0     C56589  10.514   7.863   3.102  0.1274  0.0419  0.1765
  411MOL0     C56590  10.373   7.925   3.118  0.4388  0.3012 -0.0335
  411MOL0     C56591  10.286   7.829   3.200  0.4832  0.2349 -0.9257
  411MOL0     C56592  10.147   7.888   3.237  0.1025  0.3325  0.2652
  411MOL0     C56593  10.071   7.836   3.362 -0.1480 -1.1935  0.0321
  411MOL0     C56594  10.128   7.905   3.477 -0.2729  0.0044 -0.0497
  411MOL0     C56595  10.046   8.027   3.530 -0.0262 -0.2408  0.1367
  411MOL0     C56596  10.139   8.130   3.604  0.3761  0.5115 -0.1651
  411MOL0     N56597  10.068   8.253   3.631 -0.0451 -0.1134  0.0107
  411MOL0     C56598  10.051   8.360   3.541  0.2143 -0.5194  0.8951
  411MOL0     C56599   9.974   8.443   3.611 -0.1985 -0.3264 -1.1579
  411MOL0     C56600   9.919   8.579   3.573 -0.0150 -0.3180 -0.0326
  411MOL0     C56601   9.805   8.569   3.463 -0.2870  0.0463 -0.2631
  411MOL0     C56602   9.675   8.488   3.506 -0.4009 -0.3949  0.5951
  411MOL0     C56603   9.605   8.548   3.634 -0.8444 -0.6078 -0.4373
  411MOL0     O56604   9.510   8.452   3.672 -0.2096 -0.9160  0.3535
  411MOL0     C56605   9.384   8.464   3.625  0.1796 -0.4225 -0.6484
  411MOL0     C56606   9.326   8.370   3.540 -0.1158  0.3223  0.0798
  411MOL0     C56607   9.192   8.386   3.497 -0.2320  0.9032  0.1598
  411MOL0     C56608   9.144   8.279   3.401  0.8606 -0.5537  0.0058
  411MOL0     C56609   9.113   8.493   3.541 -0.5505  0.4965 -0.7271
  411MOL0     C56610   8.968   8.511   3.509 -0.1533 -0.6986  0.7841
  411MOL0     O56611   8.913   8.641   3.545  0.6113 -0.2783  0.1524
  411MOL0     C56612   8.778   8.659   3.519 -0.9545 -0.7152 -1.2815
  411MOL0     C56613   8.693   8.621   3.617  0.9837 -0.2856 -0.2759
  411MOL0     C56614   8.554   8.609   3.595 -0.4372  0.4695  0.1334
  411MOL0     C56615   8.503   8.664   3.473 -0.0553  0.4269 -0.8407
  411MOL0     O56616   8.371   8.655   3.460  0.1786  0.4591  0.2642
  411MOL0     C56617   8.308   8.765   3.407 -0.3027 -0.0856 -0.4043
  411MOL0     C56618   8.201   8.799   3.506  0.3230 -0.3097  0.3135
  411MOL0     C56619   8.231   8.897   3.623  0.6464  0.5976 -0.3354
  411MOL0     C56620   8.229   8.817   3.753 -0.0814 -0.0586 -0.7207
  411MOL0     C56621   8.248   8.901   3.881  0.1895  0.9296 -0.3581
  411MOL0     C56622   8.321   8.816   3.984 -0.7487  0.4705 -1.2786
  411MOL0     C56623   8.472   8.823   3.971  1.1016  0.4421 -0.1949
  411MOL0     C56624   8.549   8.728   4.056 -1.1266 -0.4982 -0.4250
  411MOL0    Cl56625   8.540   8.566   3.976  0.0492 -0.0493  0.3600
  411MOL0     C56626   8.589   8.713   3.379  0.2969  0.6747  0.7495
  411MOL0     C56627   8.730   8.708   3.398 -1.0736 -0.2573  0.1728
  411MOL0     O56628   8.905   8.437   3.445 -0.3266 -0.5683  0.0569
  411MOL0     C56629   9.181   8.579   3.629 -0.0728 -0.7246 -0.0908
  411MOL0     C56630   9.306   8.565   3.677 -0.1779 -0.2072 -0.3383
  411MOL0     N56631   9.951   8.386   3.744  0.0329 -0.4151  0.5889
  411MOL0     N56632  10.019   8.283   3.754 -0.7906  0.6420  0.3119
  411MOL0     C56633  10.731   7.868   2.834 -0.0578 -0.0039 -0.3392
  411MOL0     C56634  10.839   7.795   2.774  1.0506 -0.1033 -0.0511
  411MOL0     C56635  11.077   7.409   2.737  0.0287  0.9840  0.0586
  411MOL0     C56636  11.149   7.459   2.624 -0.6304 -0.2618  0.6033
  411MOL0     C56637  11.252   7.383   2.572  0.0509 -0.4306  0.6693
  411MOL0     C56638  11.299   7.266   2.641  0.2651 -0.2595  0.2233
  411MOL0     O56639  11.425   7.217   2.611 -0.0329  0.0911 -0.1799
  411MOL0     C56640  11.496   7.250   2.486  0.3742  0.3282 -1.1479
  411MOL0     C56641  11.579   7.125   2.457 -0.1515  0.4261  0.7581
  411MOL0     C56642  11.666   7.060   2.568 -0.0503 -0.3552 -1.1052
  411MOL0     C56643  11.769   7.162   2.621 -0.2328 -0.7280  0.3701
  411MOL0     C56644  11.890   7.160   2.544  0.6259 -0.3494  1.6532
  411MOL0     C56645  11.974   7.163   2.458 -0.5631  0.7504 -0.4632
  411MOL0     C56646  11.227   7.213   2.743  0.1469 -0.1877 -0.5817
  411MOL0     C56647  11.116   7.285   2.795  0.1157 -0.6481 -0.7732
  411MOL0     C56648  11.067   7.232   2.932  0.5053  0.9636  0.7060
  411MOL0     H56649  10.895   7.591   3.037 -1.1135 -1.4085 -0.9731
  411MOL0     H56650  10.754   7.749   3.153  0.0731 -3.5021 -0.8392
  411MOL0     H56651  10.562   7.853   3.200 -0.1644 -2.0440  0.1595
  411MOL0     H56652  10.504   7.771   3.044 -1.7401  0.4545 -0.2162
  411MOL0     H56653  10.380   8.018   3.173  0.2299  0.6863 -0.6430
  411MOL0     H56654  10.321   7.932   3.022 -1.5511 -0.1977  0.9568
  411MOL0     H56655  10.266   7.735   3.148  0.4172  0.7632 -1.8792
  411MOL0     H56656  10.335   7.811   3.296  1.6540  1.1807 -1.3120
  411MOL0     H56657  10.170   7.995   3.246  1.5285  0.2387 -1.5310
  411MOL0     H56658  10.086   7.874   3.147 -1.2509  1.6586  0.9290
  411MOL0     H56659  10.089   7.728   3.373 -1.6059 -1.2916  2.1870
  411MOL0     H56660   9.966   7.864   3.349 -0.4837 -2.8819 -1.2640
  411MOL0     H56661  10.145   7.831   3.556  0.9910  1.6897  1.3469
  411MOL0     H56662  10.233   7.934   3.463  0.2783 -1.7839  0.0924
  411MOL0     H56663   9.973   7.996   3.605  2.3639  0.2701  2.8528
  411MOL0     H56664   9.993   8.077   3.448 -0.2532 -4.2550 -2.3994
  411MOL0     H56665  10.164   8.089   3.702 -4.1455 -2.4383  0.0773
  411MOL0     H56666  10.232   8.149   3.551  1.4805  1.2045  1.9252
  411MOL0     H56667  10.083   8.387   3.441 -1.9985 -1.8560 -0.2472
  411MOL0     H56668   9.998   8.640   3.529  1.5977  0.8159  4.0455
  411MOL0     H56669   9.893   8.628   3.667  4.2430  1.1138  0.5685
  411MOL0     H56670   9.761   8.663   3.428 -0.1942  0.6463  1.1858
  411MOL0     H56671   9.846   8.527   3.370  1.0103 -0.4673  0.5135
  411MOL0     H56672   9.599   8.493   3.427  0.3871 -4.5425 -0.6637
  411MOL0     H56673   9.692   8.380   3.510 -2.3210 -0.9812 -3.0674
  411MOL0     H56674   9.686   8.555   3.708 -1.6910  1.9356  0.3614
  411MOL0     H56675   9.577   8.654   3.626 -0.7806 -0.3545  2.0137
  411MOL0     H56676   9.388   8.294   3.493 -2.1084 -1.4071  0.0794
  411MOL0     H56677   9.100   8.321   3.310 -0.7898  0.2356  1.1230
  411MOL0     H56678   9.066   8.217   3.445  0.8014  0.5832  1.5723
  411MOL0     H56679   9.221   8.209   3.367  1.1365 -1.6119  2.5848
  411MOL0     H56680   8.736   8.577   3.706 -0.0223 -3.8055 -1.3691
  411MOL0     H56681   8.488   8.553   3.660 -0.4376  0.9961  0.5987
  411MOL0     H56682   8.372   8.848   3.377 -0.1204 -0.8491 -2.2331
  411MOL0     H56683   8.260   8.737   3.313 -1.1207 -0.9555  0.2437
  411MOL0     H56684   8.126   8.853   3.449 -1.0820 -1.6353  0.8458
  411MOL0     H56685   8.159   8.703   3.537 -0.1607 -1.0572 -2.3821
  411MOL0     H56686   8.161   8.980   3.633  1.3538  1.1356  0.3054
  411MOL0     H56687   8.330   8.934   3.594  1.3963 -2.2326 -1.7265
  411MOL0     H56688   8.293   8.729   3.761  2.0919  1.5862  1.1736
  411MOL0     H56689   8.124   8.785   3.757  0.4788 -2.2744 -2.1237
  411MOL0     H56690   8.308   8.992   3.869 -1.1983  1.7018 -1.9084
  411MOL0     H56691   8.147   8.917   3.921 -0.5244 -0.2927 -1.5540
  411MOL0     H56692   8.277   8.716   3.979 -1.0885  0.6440 -1.8084
  411MOL0     H56693   8.296   8.848   4.086  3.2074  0.1206 -0.0387
  411MOL0     H56694   8.503   8.922   4.007  0.5566  1.6881 -2.9502
  411MOL0     H56695   8.513   8.829   3.870 -0.2245  1.2843 -0.7104
  411MOL0     H56696   8.512   8.718   4.158 -1.1431 -0.8923 -0.4660
  411MOL0     H56697   8.657   8.743   4.061 -1.0291 -1.3065  0.1645
  411MOL0     H56698   8.556   8.723   3.276 -0.3230  0.7055  0.9496
  411MOL0     H56699   8.807   8.734   3.326 -1.0945 -2.3814 -0.6737
  411MOL0     H56700   9.127   8.656   3.683 -1.8072 -0.2419 -2.3807
  411MOL0     H56701   9.330   8.637   3.755  0.2820 -0.8485  0.1264
  411MOL0     H56702  10.668   7.942   2.786  0.5856  0.4524 -0.4884
  411MOL0     H56703  10.871   7.795   2.670 -0.8288 -0.3097 -0.6601
  411MOL0     H56704  11.130   7.558   2.584  3.5396 -0.2926 -2.1445
  411MOL0     H56705  11.312   7.422   2.490 -1.6394 -0.9295 -0.8777
  411MOL0     H56706  11.419   7.273   2.412 -1.6311 -2.2565 -0.0108
  411MOL0     H56707  11.561   7.337   2.496 -2.0464  2.2110 -0.8118
  411MOL0     H56708  11.645   7.153   2.374  0.3261 -1.6700  0.3470
  411MOL0     H56709  11.508   7.053   2.416 -0.0669  0.4454  0.5728
  411MOL0     H56710  11.598   7.041   2.652 -1.9692  0.6618 -2.3607
  411MOL0     H56711  11.722   6.976   2.526  1.9350  0.5295 -0.3489
  411MOL0     H56712  11.800   7.151   2.725  0.3868  0.0047  0.2651
  411MOL0     H56713  11.721   7.258   2.601 -0.2358 -0.4749  1.5231
  411MOL0     H56714  12.044   7.144   2.379 -0.0449 -1.1019  0.3863
  411MOL0     H56715  11.278   7.134   2.798  1.7102  0.7476 -0.6293
  411MOL0     H56716  10.959   7.221   2.942  0.1486  3.5010  0.1795
  411MOL0     H56717  11.109   7.132   2.949 -4.0391 -0.9935  1.7335
  411MOL0     H56718  11.113   7.301   3.003  2.7100 -0.6225  0.9312
  412MOL0     O56719   3.070   0.496   9.083 -0.2831 -0.1459  0.1373
  412MOL0     C56720   3.000   0.530   9.176  0.9164  0.1051 -0.6941
  412MOL0     O56721   3.015   0.488   9.310  0.0183  0.4359  0.4896
  412MOL0     C56722   3.130   0.419   9.341 -0.0489  0.2070  0.6002
  412MOL0     C56723   3.255   0.473   9.330 -0.4429 -0.6782 -0.6393
  412MOL0     C56724   3.361   0.403   9.391 -0.2684  0.7426  0.1739
  412MOL0     C56725   3.341   0.278   9.460 -0.7497 -0.5382  1.0582
  412MOL0     O56726   3.448   0.219   9.524 -0.7212 -0.0113 -0.3681
  412MOL0     C56727   3.576   0.278   9.557 -0.5274  0.1502  0.3456
  412MOL0     C56728   3.647   0.193   9.664  1.2172 -0.3086  0.5877
  412MOL0     C56729   3.589   0.231   9.805 -0.0896 -0.1048  1.0377
  412MOL0     C56730   3.670   0.359   9.859 -0.9941  0.1844 -0.4295
  412MOL0     C56731   3.657   0.368  10.015  0.5235 -0.2011 -1.0752
  412MOL0     C56732   3.732   0.491  10.070 -0.1459  0.0604 -0.8698
  412MOL0     C56733   3.693   0.625   9.999  0.5612 -1.7078 -0.1585
  412MOL0     C56734   3.740   0.757  10.060  0.6739  0.4767 -1.6999
  412MOL0     N56735   3.676   0.795  10.184  0.8234  0.7534  0.9809
  412MOL0     C56736   3.729   0.857  10.294  0.3132 -0.3718  0.0629
  412MOL0     C56737   3.636   0.865  10.393 -0.2262 -0.6212 -0.1610
  412MOL0     C56738   3.632   0.934  10.525  0.7430  0.4118  0.1429
  412MOL0     C56739   3.683   1.079  10.512 -1.1011 -0.6112 -0.9106
  412MOL0     C56740   3.636   1.155  10.635 -0.4039 -0.8671  0.2501
  412MOL0     C56741   3.474   1.177  10.653 -0.0973 -0.0034 -0.5489
  412MOL0     O56742   3.443   1.219  10.788 -0.5440  0.1472  0.8703
  412MOL0     C56743   3.375   1.341  10.783  0.3316  1.1050 -0.5102
  412MOL0     C56744   3.438   1.450  10.734  0.4237  1.1860 -0.1036
  412MOL0     C56745   3.376   1.574  10.742 -0.1400 -0.6718  0.7503
  412MOL0     C56746   3.461   1.700  10.716 -0.0616  0.6690 -0.2954
  412MOL0     C56747   3.235   1.590  10.771  0.6533  0.3309  0.3929
  412MOL0     C56748   3.146   1.710  10.757  1.6286  0.5145 -0.0329
  412MOL0     O56749   3.023   1.684  10.800 -0.2622 -0.8424 -0.8619
  412MOL0     C56750   2.930   1.785  10.788  1.2342  0.1888 -0.8002
  412MOL0     C56751   2.876   1.858  10.898 -0.5413  0.7069  0.1390
  412MOL0     C56752   2.790   1.959  10.875 -0.8088 -0.7981  0.2382
  412MOL0     C56753   2.762   2.006  10.749  0.6751  0.2710  0.5014
  412MOL0     O56754   2.674   2.114  10.729  0.1250 -0.3492  0.4913
  412MOL0     C56755   2.634   2.194  10.836  0.1840 -1.1212  0.0862
  412MOL0     C56756   2.562   2.315  10.779  0.8157 -0.3647  0.4454
  412MOL0     C56757   2.658   2.442  10.753  0.5910  0.7726 -0.2390
  412MOL0     C56758   2.614   2.518  10.635 -0.7930 -0.3780  0.7086
  412MOL0     C56759   2.700   2.644  10.628 -0.6676  0.4637 -0.1728
  412MOL0     C56760   2.645   2.744  10.519  1.0899  0.2142 -0.2745
  412MOL0     C56761   2.659   2.708  10.371 -0.8270 -0.5147  0.1396
  412MOL0     C56762   2.802   2.712  10.317 -0.4109  0.0350  0.0071
  412MOL0    Cl56763   2.802   2.705  10.141  0.2063  0.2875  0.1378
  412MOL0     C56764   2.804   1.929  10.642  0.6140 -0.2592 -0.4278
  412MOL0     C56765   2.883   1.818  10.659  0.8084 -0.6463 -0.3812
  412MOL0     O56766   3.194   1.819  10.719  0.4181 -0.1391  0.0381
  412MOL0     C56767   3.180   1.478  10.832 -0.3325  0.9361  0.7903
  412MOL0     C56768   3.256   1.354  10.840  0.6384  0.0119 -0.2707
  412MOL0     N56769   3.528   0.806  10.333 -0.0410  0.5037 -0.2505
  412MOL0     N56770   3.553   0.760  10.215 -1.1375  0.4427 -0.0489
  412MOL0     C56771   3.214   0.226   9.456 -0.2685  0.5104  0.0834
  412MOL0     C56772   3.105   0.296   9.395  0.1782  0.0145  0.1309
  412MOL0     C56773   2.894   0.636   9.157 -0.0801  0.2052 -0.1342
  412MOL0     C56774   2.863   0.728   9.257 -0.8567  0.4002 -0.3250
  412MOL0     C56775   2.773   0.829   9.242  0.0679 -0.1728 -0.6263
  412MOL0     C56776   2.694   0.838   9.121  0.5633  0.4887 -0.1492
  412MOL0     O56777   2.599   0.941   9.122  0.8754 -0.0427 -0.0245
  412MOL0     C56778   2.522   0.972   9.004 -0.3209  0.0071  0.1102
  412MOL0     C56779   2.619   1.047   8.901 -0.8959 -0.4634  0.5764
  412MOL0     C56780   2.655   1.189   8.952 -0.6326  0.0484  0.2894
  412MOL0     C56781   2.757   1.248   8.857  0.1111 -0.7010  0.7382
  412MOL0     C56782   2.800   1.377   8.908 -0.8142  0.8065 -0.4961
  412MOL0     C56783   2.839   1.480   8.956 -0.4351  0.9246 -0.5467
  412MOL0     C56784   2.716   0.740   9.018 -0.5288  0.0429 -0.2634
  412MOL0     C56785   2.819   0.641   9.034 -0.0256 -0.4261 -0.2535
  412MOL0     C56786   2.842   0.561   8.905 -0.4884 -0.1018  0.2451
  412MOL0     H56787   3.282   0.572   9.295 -0.6567  0.1557  1.4270
  412MOL0     H56788   3.457   0.450   9.412  0.1832  0.3974 -1.0313
  412MOL0     H56789   3.557   0.376   9.601 -1.5178 -0.6760  1.8196
  412MOL0     H56790   3.635   0.283   9.465 -0.7913  0.3186  0.1843
  412MOL0     H56791   3.632   0.086   9.644  2.5862 -0.3124 -0.6677
  412MOL0     H56792   3.756   0.207   9.671  1.2637 -1.4296  5.2512
  412MOL0     H56793   3.482   0.253   9.808 -0.0094  0.1978  1.7586
  412MOL0     H56794   3.608   0.147   9.872 -1.8159 -0.2729  1.3513
  412MOL0     H56795   3.777   0.341   9.840 -1.0506  1.6156 -2.3509
  412MOL0     H56796   3.643   0.450   9.805  1.4369  0.4846 -1.2586
  412MOL0     H56797   3.682   0.276  10.066 -1.0176 -1.1767 -1.9900
  412MOL0     H56798   3.551   0.379  10.039 -0.3032  1.7353 -4.7337
  412MOL0     H56799   3.701   0.503  10.175 -1.4550 -0.5167 -1.1714
  412MOL0     H56800   3.840   0.478  10.062  0.1191  1.5406 -0.1242
  412MOL0     H56801   3.586   0.641   9.987  0.4969 -2.4377 -0.6367
  412MOL0     H56802   3.738   0.618   9.899  3.2216 -2.9556  1.0175
  412MOL0     H56803   3.848   0.756  10.078  0.4803 -2.2987  0.0491
  412MOL0     H56804   3.709   0.832   9.987  0.7132  2.1125 -0.1001
  412MOL0     H56805   3.835   0.881  10.299  0.3452  0.2247 -2.2596
  412MOL0     H56806   3.683   0.894  10.614 -0.2504  0.8968  0.9542
  412MOL0     H56807   3.528   0.938  10.559  0.6195 -2.5123  0.3106
  412MOL0     H56808   3.793   1.078  10.516 -1.1085 -3.1094  2.4395
  412MOL0     H56809   3.652   1.125  10.418 -4.1585 -0.4348  0.0997
  412MOL0     H56810   3.680   1.106  10.722  0.6139 -2.8474 -1.2889
  412MOL0     H56811   3.674   1.257  10.625 -5.8294  1.3771 -1.8851
  412MOL0     H56812   3.458   1.255  10.579  0.5593  1.9718  1.2836
  412MOL0     H56813   3.420   1.085  10.629 -1.8684  0.9965 -0.4963
  412MOL0     H56814   3.543   1.437  10.711  0.3579  1.7740 -0.7771
  412MOL0     H56815   3.450   1.768  10.801 -1.7157  0.2081 -0.1069
  412MOL0     H56816   3.433   1.752  10.625 -0.3232  1.6758  0.3482
  412MOL0     H56817   3.566   1.667  10.710  0.5027  1.9819  1.5840
  412MOL0     H56818   2.920   1.824  10.991 -4.3704 -4.0369  0.5989
  412MOL0     H56819   2.757   2.013  10.962  0.1183 -2.7833  1.9070
  412MOL0     H56820   2.567   2.140  10.904 -1.2703  0.3255 -0.1209
  412MOL0     H56821   2.725   2.233  10.881  0.3145  0.4569 -1.4505
  412MOL0     H56822   2.502   2.291  10.691  0.7626  2.2978 -0.3426
  412MOL0     H56823   2.497   2.332  10.866 -1.5209 -2.5520 -0.7455
  412MOL0     H56824   2.756   2.401  10.727 -0.5157  0.2611 -4.2783
  412MOL0     H56825   2.669   2.509  10.838  1.4598 -0.7839  0.9274
  412MOL0     H56826   2.508   2.540  10.651 -0.7850 -0.3769  0.7637
  412MOL0     H56827   2.631   2.450  10.552  3.1460 -2.7417  3.1326
  412MOL0     H56828   2.692   2.698  10.723 -3.5774  0.8871 -0.5589
  412MOL0     H56829   2.807   2.632  10.614 -0.5639  1.1495 -0.0305
  412MOL0     H56830   2.693   2.840  10.539 -1.8511  1.4723  1.4507
  412MOL0     H56831   2.538   2.754  10.542  1.2176  1.5303 -0.1824
  412MOL0     H56832   2.603   2.791  10.326 -3.9790 -0.4561  3.6631
  412MOL0     H56833   2.627   2.610  10.336  0.4968 -0.1267 -2.3730
  412MOL0     H56834   2.861   2.630  10.360  0.3639  0.4094 -0.3265
  412MOL0     H56835   2.856   2.800  10.352  4.0546 -3.3625  2.8001
  412MOL0     H56836   2.767   1.956  10.544  2.7485  0.2143 -1.1657
  412MOL0     H56837   2.913   1.766  10.569 -0.6874 -1.3075 -0.5385
  412MOL0     H56838   3.082   1.467  10.878 -1.1670 -0.9846 -1.2679
  412MOL0     H56839   3.202   1.267  10.877 -1.5197  1.0934 -0.7225
  412MOL0     H56840   3.204   0.126   9.497  1.2680 -1.7522 -4.3743
  412MOL0     H56841   3.001   0.265   9.400 -0.4457  1.6019 -1.6389
  412MOL0     H56842   2.914   0.715   9.352  2.3559 -1.3924 -2.0657
  412MOL0     H56843   2.757   0.898   9.324  1.9338  1.1301 -1.2908
  412MOL0     H56844   2.468   0.883   8.971 -2.0607  0.2414  2.1178
  412MOL0     H56845   2.449   1.037   9.054 -1.6649 -3.2864  2.8689
  412MOL0     H56846   2.573   1.059   8.802 -0.0169 -1.5392  0.0033
  412MOL0     H56847   2.704   0.979   8.892 -0.0028  0.6006  0.7394
  412MOL0     H56848   2.564   1.249   8.964  0.2286  2.1806 -2.6127
  412MOL0     H56849   2.694   1.174   9.052  0.3173 -3.3070 -0.4641
  412MOL0     H56850   2.711   1.268   8.760  1.3968  2.0958  0.6029
  412MOL0     H56851   2.833   1.176   8.824 -0.0432  0.0858 -1.5127
  412MOL0     H56852   2.874   1.562   9.016 -0.4035 -0.1034  0.8750
  412MOL0     H56853   2.641   0.746   8.939 -2.3090 -3.2907  0.9756
  412MOL0     H56854   2.950   0.566   8.894  0.0518 -1.0199  3.7994
  412MOL0     H56855   2.796   0.464   8.925  0.6616 -0.6756  0.1789
  412MOL0     H56856   2.784   0.587   8.816 -0.9766 -2.7983 -0.3062
  413MOL0     O56857  11.313   0.260   9.279  0.9942  0.4217 -0.5885
  413MOL0     C56858  11.262   0.147   9.289 -0.1558  0.2829 -0.4130
  413MOL0     O56859  11.228   0.085   9.401  0.3628 -0.1850 -0.3729
  413MOL0     C56860  11.221   0.162   9.510 -0.4592  0.9882 -0.1015
  413MOL0     C56861  11.330   0.227   9.578  0.2254  0.2505  0.4957
  413MOL0     C56862  11.311   0.299   9.697  0.0465 -0.1109  0.3776
  413MOL0     C56863  11.185   0.307   9.757  0.2288  0.4790 -0.0023
  413MOL0     O56864  11.168   0.363   9.881  0.7973  0.4240 -0.4957
  413MOL0     C56865  11.272   0.341   9.982  0.7527 -0.7844 -0.1032
  413MOL0     C56866  11.212   0.283  10.115  0.2357 -0.0980  0.2761
  413MOL0     C56867  11.111   0.375  10.193  0.0296 -0.1134  0.2558
  413MOL0     C56868  11.113   0.336  10.348  0.4416 -0.2285  0.7229
  413MOL0     C56869  11.083   0.188  10.387  0.4233 -0.5079 -0.0647
  413MOL0     C56870  11.000   0.168  10.522 -0.1336  0.6591  1.4874
  413MOL0     C56871  10.850   0.168  10.487  0.2431 -0.2569 -0.2430
  413MOL0     C56872  10.751   0.151  10.607  1.0840  0.9729  0.6373
  413MOL0     N56873  10.751   0.031  10.689 -0.0961 -0.5930  0.2500
  413MOL0     C56874  10.685  -0.091  10.656  0.8785  0.7204 -0.7425
  413MOL0     C56875  10.738  -0.175  10.748 -1.0882 -0.9172  0.0477
  413MOL0     C56876  10.722  -0.327  10.745  0.1121  0.7891 -0.0964
  413MOL0     C56877  10.668  -0.374  10.884  0.6231 -0.2641 -0.2789
  413MOL0     C56878  10.641  -0.524  10.890 -0.1552  1.3714  0.3906
  413MOL0     C56879  10.581  -0.568  11.023  0.3286  0.0077 -0.1126
  413MOL0     O56880  10.537  -0.711  11.020 -0.8566  0.7078  0.8307
  413MOL0     C56881  10.417  -0.745  10.979  0.2124 -1.1510 -0.9296
  413MOL0     C56882  10.385  -0.875  10.991  0.5611  0.6829 -0.6031
  413MOL0     C56883  10.261  -0.923  10.944  0.4386  0.1364  0.7766
  413MOL0     C56884  10.223  -1.068  10.966 -1.6144 -0.4483  0.0620
  413MOL0     C56885  10.179  -0.835  10.873 -0.2819 -0.0061 -0.0051
  413MOL0     C56886  10.056  -0.877  10.799 -1.3197 -0.6668  0.1111
  413MOL0     O56887   9.960  -0.783  10.792 -0.1952 -1.0340 -0.0030
  413MOL0     C56888   9.830  -0.793  10.741  0.5952  1.0767 -0.0373
  413MOL0     C56889   9.742  -0.916  10.752  1.2519 -0.6038  1.3982
  413MOL0     C56890   9.608  -0.910  10.720  0.5448 -0.0380 -0.7099
  413MOL0     C56891   9.549  -0.799  10.654  0.2696 -0.0466  0.9774
  413MOL0     O56892   9.410  -0.794  10.628 -0.8055 -0.4892  0.5247
  413MOL0     C56893   9.377  -0.872  10.512  0.8880 -0.7292 -0.4129
  413MOL0     C56894   9.225  -0.882  10.497  0.7825 -0.4077 -0.4386
  413MOL0     C56895   9.136  -0.902  10.626 -0.6298 -0.0877  0.6780
  413MOL0     C56896   8.984  -0.894  10.583 -0.2406 -0.6078 -0.5176
  413MOL0     C56897   8.890  -0.985  10.675  1.2780 -0.0559 -0.4214
  413MOL0     C56898   8.738  -0.978  10.655  0.4740  0.5698 -0.0605
  413MOL0     C56899   8.687  -0.834  10.617  0.5158  0.2627  0.2181
  413MOL0     C56900   8.536  -0.800  10.645 -0.4690 -0.3927  0.7215
  413MOL0    Cl56901   8.513  -0.744  10.814 -0.3831 -0.2058  0.5638
  413MOL0     C56902   9.634  -0.690  10.632  0.5532  0.4107  0.0144
  413MOL0     C56903   9.772  -0.685  10.672 -0.2160  0.6422  0.9167
  413MOL0     O56904  10.056  -0.982  10.736  0.3424  0.2231  0.6008
  413MOL0     C56905  10.212  -0.701  10.864  0.4274  0.0173 -0.4573
  413MOL0     C56906  10.330  -0.662  10.912 -0.4132 -0.4185  0.7540
  413MOL0     N56907  10.817  -0.104  10.839  0.4428  0.0126 -0.4931
  413MOL0     N56908  10.834   0.018  10.801  0.0470  0.4380  0.8635
  413MOL0     C56909  11.087   0.227   9.702 -0.1978 -0.3860 -0.3452
  413MOL0     C56910  11.100   0.157   9.583 -0.7040 -0.2611 -0.3804
  413MOL0     C56911  11.233   0.086   9.158 -0.0316 -1.4450  0.3893
  413MOL0     C56912  11.315   0.120   9.044 -0.4342 -0.0580  0.2095
  413MOL0     C56913  11.292   0.057   8.919 -0.1575 -0.1144 -1.0290
  413MOL0     C56914  11.211  -0.053   8.909 -0.1186 -0.3470  0.4250
  413MOL0     O56915  11.207  -0.121   8.795 -0.1987  0.8818  0.4348
  413MOL0     C56916  11.294  -0.236   8.802  0.9861  0.5769  0.7511
  413MOL0     C56917  11.433  -0.197   8.748  0.5129 -0.1452  1.1304
  413MOL0     C56918  11.403  -0.173   8.596  0.1293 -0.7545 -0.6784
  413MOL0     C56919  11.524  -0.117   8.517 -1.4144  0.0587 -0.4417
  413MOL0     C56920  11.600  -0.002   8.554  0.1907  0.0187  0.2820
  413MOL0     C56921  11.648   0.098   8.601 -0.3078  0.3002 -0.3031
  413MOL0     C56922  11.142  -0.100   9.021 -0.7055 -0.7492 -0.5927
  413MOL0     C56923  11.144  -0.032   9.145 -0.8774  0.4520  0.2344
  413MOL0     C56924  11.064  -0.089   9.254 -0.4959 -0.1324 -0.9207
  413MOL0     H56925  11.430   0.225   9.536  0.3768  2.1728  0.6859
  413MOL0     H56926  11.390   0.365   9.734 -0.8266 -0.3083  2.7644
  413MOL0     H56927  11.307   0.441  10.012 -1.1083 -0.1703  0.1908
  413MOL0     H56928  11.356   0.292   9.932  0.6283 -2.2618  1.0717
  413MOL0     H56929  11.153   0.198  10.080  2.9139 -1.0518 -2.2701
  413MOL0     H56930  11.297   0.250  10.176 -1.8154  0.1091  3.4785
  413MOL0     H56931  11.163   0.471  10.187  1.6235 -0.8944  0.8084
  413MOL0     H56932  11.010   0.389  10.154  0.6864  0.0759 -1.4307
  413MOL0     H56933  11.214   0.358  10.382 -0.4017 -1.5809  4.5237
  413MOL0     H56934  11.033   0.405  10.374 -2.0649  0.3927 -6.4403
  413MOL0     H56935  11.181   0.141  10.380  0.8878  0.6439 -3.2906
  413MOL0     H56936  11.034   0.140  10.302 -0.0763 -0.3811  0.1474
  413MOL0     H56937  11.045   0.077  10.563  0.3642  1.0910  1.9017
  413MOL0     H56938  11.009   0.259  10.581  1.2070  1.4119  0.1887
  413MOL0     H56939  10.823   0.086  10.420  3.2721 -2.1667  0.6880
  413MOL0     H56940  10.838   0.264  10.436 -0.4639  0.2150  0.7691
  413MOL0     H56941  10.746   0.241  10.668 -0.0977  1.4983 -0.1944
  413MOL0     H56942  10.646   0.146  10.576  0.2101  0.6755  3.3361
  413MOL0     H56943  10.617  -0.116  10.576  0.9697 -2.1958 -0.0168
  413MOL0     H56944  10.814  -0.382  10.724 -0.6793 -1.2717  1.5561
  413MOL0     H56945  10.650  -0.348  10.665 -0.2654  2.4987 -0.2441
  413MOL0     H56946  10.741  -0.346  10.961 -0.2739  0.2158  0.4229
  413MOL0     H56947  10.578  -0.318  10.910 -0.0313  0.7987 -4.2511
  413MOL0     H56948  10.583  -0.557  10.803  1.7249  1.5197 -0.9788
  413MOL0     H56949  10.735  -0.578  10.878 -2.1434 -2.2195 -0.7618
  413MOL0     H56950  10.654  -0.561  11.103  1.0613 -0.2843 -0.7463
  413MOL0     H56951  10.502  -0.496  11.046  1.0406  0.3065  1.5494
  413MOL0     H56952  10.455  -0.947  11.032 -2.4636 -0.5140  2.9732
  413MOL0     H56953  10.288  -1.108  11.045  1.1019  0.9142 -1.3234
  413MOL0     H56954  10.243  -1.125  10.875  0.4904 -1.9603  1.3646
  413MOL0     H56955  10.117  -1.071  10.992 -2.1301 -0.5635 -1.9073
  413MOL0     H56956   9.787  -1.004  10.798 -0.4426 -0.7397  2.9287
  413MOL0     H56957   9.543  -0.992  10.751  0.8551  1.6679  5.9802
  413MOL0     H56958   9.417  -0.838  10.416  0.0401 -2.7123 -1.5225
  413MOL0     H56959   9.417  -0.971  10.537 -3.5446 -2.8604 -0.7929
  413MOL0     H56960   9.191  -0.791  10.448  2.9746  1.6239  1.5683
  413MOL0     H56961   9.212  -0.969  10.431  1.3042  0.7505 -2.1427
  413MOL0     H56962   9.158  -0.834  10.709  0.9938  2.1935 -1.4639
  413MOL0     H56963   9.167  -1.000  10.661 -0.0475 -0.4041 -0.6324
  413MOL0     H56964   8.979  -0.937  10.482 -0.7693  0.0465 -0.7789
  413MOL0     H56965   8.945  -0.793  10.572  0.3982  0.1132  2.7678
  413MOL0     H56966   8.929  -1.086  10.656  0.0541 -0.5837 -0.2473
  413MOL0     H56967   8.908  -0.951  10.777  2.2559 -1.9065  0.0631
  413MOL0     H56968   8.707  -1.017  10.752  0.3081 -1.4961 -0.8867
  413MOL0     H56969   8.708  -1.048  10.577 -1.0290  0.5028  0.5354
  413MOL0     H56970   8.707  -0.847  10.510  3.4714 -1.4772  0.8687
  413MOL0     H56971   8.748  -0.751  10.652  0.2825 -0.4991  2.5784
  413MOL0     H56972   8.469  -0.882  10.617  1.5785 -0.9236 -3.4556
  413MOL0     H56973   8.510  -0.712  10.584 -1.7418 -0.2562  1.4175
  413MOL0     H56974   9.586  -0.608  10.580 -0.4701 -1.0474 -1.4630
  413MOL0     H56975   9.837  -0.599  10.659  0.0241 -0.0395 -4.1076
  413MOL0     H56976  10.159  -0.627  10.805 -2.0944  1.4084  3.2391
  413MOL0     H56977  10.361  -0.561  10.886 -0.1662 -0.0585  2.3708
  413MOL0     H56978  10.986   0.234   9.742 -0.7005 -1.2714 -1.4137
  413MOL0     H56979  11.015   0.106   9.537 -0.5150 -2.1326  1.2516
  413MOL0     H56980  11.377   0.208   9.060 -1.7607  0.1943  6.5231
  413MOL0     H56981  11.329   0.083   8.821 -3.9451  2.9297 -1.8887
  413MOL0     H56982  11.306  -0.279   8.902  1.9155 -0.0120  0.3993
  413MOL0     H56983  11.257  -0.321   8.743  1.6377  1.7460 -1.4417
  413MOL0     H56984  11.504  -0.281   8.758  1.3995  0.1756 -1.6806
  413MOL0     H56985  11.467  -0.108   8.803 -1.5460  1.5536 -0.2113
  413MOL0     H56986  11.370  -0.270   8.558 -0.1171 -1.8919  2.1854
  413MOL0     H56987  11.317  -0.105   8.594  1.7068  1.3914  0.1032
  413MOL0     H56988  11.476  -0.087   8.424 -3.7361  0.7034  0.8788
  413MOL0     H56989  11.587  -0.202   8.492 -2.5790 -1.1190  0.4806
  413MOL0     H56990  11.673   0.197   8.634 -1.2082  1.2137 -2.2057
  413MOL0     H56991  11.075  -0.185   9.025 -0.2748 -1.1791  4.7549
  413MOL0     H56992  11.126  -0.120   9.339 -2.2398  0.4383  0.6210
  413MOL0     H56993  11.001  -0.010   9.296  1.9612  2.5800 -1.9788
  413MOL0     H56994  11.003  -0.176   9.228 -1.6456  0.8663 -1.5947
  414MOL0     O56995   4.797   8.333  10.876  0.1495 -0.1198 -0.7580
  414MOL0     C56996   4.816   8.352  10.998 -0.2466 -0.8190 -0.1625
  414MOL0     O56997   4.805   8.477  11.064 -0.2221  0.0639  0.1754
  414MOL0     C56998   4.798   8.582  10.987  0.2541 -0.5213  0.4712
  414MOL0     C56999   4.906   8.629  10.904 -0.0125  0.6734  0.5255
  414MOL0     C57000   4.890   8.729  10.815  0.0928 -0.4092 -0.9265
  414MOL0     C57001   4.777   8.803  10.797  0.1067 -0.8541 -0.2696
  414MOL0     O57002   4.773   8.902  10.690  0.3646  0.5570 -0.0066
  414MOL0     C57003   4.638   8.953  10.674  0.0623  0.2551  0.3046
  414MOL0     C57004   4.642   9.056  10.567  0.3148  0.2798 -0.2956
  414MOL0     C57005   4.505   9.065  10.505 -0.3314 -0.5570  0.2295
  414MOL0     C57006   4.503   9.186  10.404 -0.2323 -0.2314  0.2411
  414MOL0     C57007   4.373   9.197  10.332 -0.0505 -0.0071 -0.9319
  414MOL0     C57008   4.272   9.289  10.388  0.0151 -0.2580  0.7676
  414MOL0     C57009   4.152   9.320  10.303 -0.5851 -0.0831  0.4348
  414MOL0     C57010   4.194   9.421  10.200 -0.2375 -0.5615 -0.7440
  414MOL0     N57011   4.088   9.445  10.113 -0.0917 -1.5664 -0.2828
  414MOL0     C57012   4.082   9.393   9.988 -0.0720 -0.5427 -0.6894
  414MOL0     C57013   3.961   9.439   9.935  0.6297  1.0814 -0.1660
  414MOL0     C57014   3.906   9.390   9.799  1.0181 -0.5825 -0.2590
  414MOL0     C57015   3.914   9.495   9.688  0.8791 -0.6790 -0.0987
  414MOL0     C57016   3.966   9.442   9.553 -0.1515 -0.5791 -0.7106
  414MOL0     C57017   3.862   9.354   9.480  0.2922 -0.1529  0.1251
  414MOL0     O57018   3.903   9.297   9.356 -0.8724  0.2328  0.2109
  414MOL0     C57019   3.943   9.378   9.261  0.5647  0.2948  0.3979
  414MOL0     C57020   4.019   9.316   9.156 -0.1533  0.1204  0.3506
  414MOL0     C57021   4.054   9.373   9.039  0.5182 -0.1462  0.9421
  414MOL0     C57022   4.135   9.288   8.951 -0.7807 -0.7119  0.0298
  414MOL0     C57023   4.018   9.511   9.020  0.3135  0.8855 -0.2439
  414MOL0     C57024   4.073   9.584   8.919  1.3557 -0.2134  0.3953
  414MOL0     O57025   4.208   9.559   8.902 -0.3706  0.1749  0.5103
  414MOL0     C57026   4.268   9.629   8.795 -0.9000 -0.7374 -0.5479
  414MOL0     C57027   4.205   9.626   8.667  0.5957  0.2985  0.4231
  414MOL0     C57028   4.246   9.701   8.561 -0.3781  0.5883  0.2189
  414MOL0     C57029   4.339   9.805   8.576  0.6759 -0.4123 -0.4188
  414MOL0     O57030   4.375   9.888   8.482  0.2662  0.1775  0.5673
  414MOL0     C57031   4.274   9.981   8.444  0.0416  1.0994  0.2496
  414MOL0     C57032   4.241   9.981   8.291 -0.0484  0.5576 -1.0179
  414MOL0     C57033   4.361  10.028   8.215  0.9300  0.0050  0.1387
  414MOL0     C57034   4.404  10.173   8.231 -0.8549  0.4859 -0.1332
  414MOL0     C57035   4.559  10.196   8.214  0.4577  0.5294 -0.8989
  414MOL0     C57036   4.587  10.338   8.154 -0.0798 -0.0050  0.4387
  414MOL0     C57037   4.725  10.393   8.198  0.5098 -0.5192  0.4492
  414MOL0     C57038   4.771  10.506   8.106  0.0375  1.5430 -0.8083
  414MOL0    Cl57039   4.669  10.641   8.140  0.6224 -0.0522  0.2910
  414MOL0     C57040   4.394   9.812   8.711  0.5369  0.2477  0.2858
  414MOL0     C57041   4.372   9.721   8.816  0.3588  0.0700 -0.9467
  414MOL0     O57042   4.010   9.672   8.861  0.1133  0.8085 -0.0042
  414MOL0     C57043   3.946   9.579   9.125 -0.0029 -0.4612  0.6845
  414MOL0     C57044   3.916   9.513   9.244 -0.1319 -0.1123 -0.4205
  414MOL0     N57045   3.905   9.527  10.027 -0.3155 -0.0769 -0.1843
  414MOL0     N57046   3.984   9.527  10.133  1.2710  0.0759  0.3432
  414MOL0     C57047   4.671   8.756  10.872  0.1861  0.1471  0.6320
  414MOL0     C57048   4.678   8.656  10.961  1.3840  0.3929 -0.4677
  414MOL0     C57049   4.864   8.235  11.071 -0.0661 -0.6099  0.9588
  414MOL0     C57050   4.795   8.118  11.053  0.3759 -0.0206  0.7591
  414MOL0     C57051   4.825   8.007  11.124  0.0546  0.2576 -0.6102
  414MOL0     C57052   4.923   8.005  11.232  0.9212  0.4358  0.8054
  414MOL0     O57053   4.961   7.902  11.313 -0.0089  0.0150 -0.1258
  414MOL0     C57054   4.883   7.782  11.310 -0.2203  0.4867 -0.6767
  414MOL0     C57055   4.969   7.668  11.366  0.0682  0.6939 -0.2977
  414MOL0     C57056   4.882   7.552  11.402  0.1718 -0.8242 -0.2034
  414MOL0     C57057   4.846   7.458  11.298 -0.3532  0.4492  0.0478
  414MOL0     C57058   4.758   7.510  11.193 -0.3683  1.0084  0.5443
  414MOL0     C57059   4.694   7.555  11.102  0.1461  0.1865 -0.0118
  414MOL0     C57060   4.998   8.122  11.250  0.2543 -0.0874 -0.1580
  414MOL0     C57061   4.969   8.234  11.167 -0.7426  0.5631 -1.0613
  414MOL0     C57062   5.064   8.346  11.192  0.7199  0.7989 -1.1959
  414MOL0     H57063   5.001   8.576  10.892 -0.8472 -0.8293  0.2410
  414MOL0     H57064   4.968   8.762  10.747 -1.4490 -1.4940 -3.3782
  414MOL0     H57065   4.597   9.000  10.764  0.9446 -0.9434  1.3674
  414MOL0     H57066   4.583   8.869  10.630  2.6671 -2.2276  1.5122
  414MOL0     H57067   4.671   9.147  10.620 -3.6254  0.6500  1.5633
  414MOL0     H57068   4.705   9.035  10.480 -1.9437  0.6771 -2.1563
  414MOL0     H57069   4.479   8.968  10.463  0.9216 -0.6520 -0.3822
  414MOL0     H57070   4.431   9.091  10.581 -0.1113  0.2246  0.1848
  414MOL0     H57071   4.523   9.284  10.447 -5.8183  0.2028  2.7258
  414MOL0     H57072   4.570   9.159  10.322 -0.8493 -1.5055  0.1218
  414MOL0     H57073   4.322   9.100  10.325  0.3786 -0.4498  1.2970
  414MOL0     H57074   4.392   9.222  10.227 -0.7358 -1.1226 -1.3367
  414MOL0     H57075   4.229   9.240  10.476  0.6150  1.8813  2.3499
  414MOL0     H57076   4.329   9.378  10.417  3.7555 -2.4124  0.6672
  414MOL0     H57077   4.071   9.354  10.368 -2.0723 -0.6226 -1.0654
  414MOL0     H57078   4.114   9.229  10.257 -1.8654  1.5530 -1.9674
  414MOL0     H57079   4.242   9.510  10.241  0.9276 -1.0889 -0.9105
  414MOL0     H57080   4.279   9.378  10.147 -0.1284  0.4476 -1.4147
  414MOL0     H57081   4.146   9.310   9.961 -0.1248 -0.9485  0.3815
  414MOL0     H57082   3.799   9.369   9.814  0.8621  0.2191 -0.2344
  414MOL0     H57083   3.946   9.292   9.770 -1.3768 -1.5258 -0.6755
  414MOL0     H57084   3.813   9.531   9.665  0.8432 -1.5268 -1.3556
  414MOL0     H57085   3.957   9.589   9.723  0.0496 -0.7564  1.1984
  414MOL0     H57086   3.997   9.528   9.492 -0.8108 -1.0829 -1.7881
  414MOL0     H57087   4.051   9.374   9.567  0.9737  0.7451 -0.8637
  414MOL0     H57088   3.846   9.266   9.543 -0.2219 -0.7706 -0.8351
  414MOL0     H57089   3.765   9.406   9.479  1.5295  2.3277  0.7468
  414MOL0     H57090   4.046   9.217   9.193 -0.2281  1.0269  3.0851
  414MOL0     H57091   4.107   9.182   8.955 -0.8881 -0.6982 -0.2514
  414MOL0     H57092   4.239   9.306   8.976  0.0649 -0.9765 -2.8785
  414MOL0     H57093   4.140   9.310   8.844  0.3153  1.4838  0.4896
  414MOL0     H57094   4.131   9.550   8.645  0.9713  0.1758 -0.4251
  414MOL0     H57095   4.193   9.703   8.466 -1.4893 -0.1818  0.8115
  414MOL0     H57096   4.180   9.956   8.494  0.4152  0.8865  0.8429
  414MOL0     H57097   4.305  10.081   8.476  2.0027  0.6899 -0.2249
  414MOL0     H57098   4.199   9.893   8.241 -0.4487  0.4949 -0.5712
  414MOL0     H57099   4.155  10.047   8.275 -1.2763 -1.0954 -1.5024
  414MOL0     H57100   4.340  10.010   8.109  0.2187  3.1940 -0.3643
  414MOL0     H57101   4.454   9.974   8.238  1.6420  1.2182  0.1794
  414MOL0     H57102   4.383  10.211   8.332  1.9632  2.1851 -0.0903
  414MOL0     H57103   4.349  10.241   8.167 -0.4311  0.1756 -0.8354
  414MOL0     H57104   4.599  10.197   8.316  0.3586  0.3391 -0.8573
  414MOL0     H57105   4.610  10.116   8.160 -1.7428 -1.4521 -0.2135
  414MOL0     H57106   4.508  10.400   8.198  0.3497 -0.2695  1.6248
  414MOL0     H57107   4.577  10.333   8.045 -2.3164 -1.0825  0.6355
  414MOL0     H57108   4.799  10.313   8.190  0.6617 -0.5207  1.6876
  414MOL0     H57109   4.718  10.428   8.302  1.2225  1.1574 -0.0304
  414MOL0     H57110   4.777  10.470   8.003  0.1263  1.3782 -0.7470
  414MOL0     H57111   4.867  10.544   8.140 -1.0700  2.3832  1.6129
  414MOL0     H57112   4.470   9.886   8.731 -0.2110  1.0888  0.1024
  414MOL0     H57113   4.427   9.717   8.909  0.0555  0.4871 -0.7481
  414MOL0     H57114   3.933   9.686   9.115 -2.0594 -0.8638 -2.7778
  414MOL0     H57115   3.870   9.576   9.319 -0.6910 -1.5841  0.5353
  414MOL0     H57116   4.575   8.806  10.864  1.4390  2.5647 -0.1682
  414MOL0     H57117   4.591   8.629  11.020  1.8343  0.3538  0.1943
  414MOL0     H57118   4.717   8.118  10.978 -0.5457 -2.6981  1.6141
  414MOL0     H57119   4.765   7.918  11.110  0.6857 -0.6592  1.9619
  414MOL0     H57120   4.793   7.786  11.373  1.5132  1.3649  1.9404
  414MOL0     H57121   4.853   7.766  11.206  2.3663  2.2747 -1.7942
  414MOL0     H57122   5.038   7.709  11.440 -0.0640 -0.9584  0.7840
  414MOL0     H57123   5.031   7.651  11.277  2.5761  1.8109  1.1504
  414MOL0     H57124   4.951   7.491  11.461  1.5825  0.2791 -0.6599
  414MOL0     H57125   4.796   7.590  11.458  1.1030  0.2641  0.5474
  414MOL0     H57126   4.793   7.376  11.348  0.2015  0.3780  0.5182
  414MOL0     H57127   4.935   7.421  11.246 -0.2626  0.0932  0.4496
  414MOL0     H57128   4.640   7.586  11.015  1.3165 -0.3546 -0.9566
  414MOL0     H57129   5.077   8.119  11.325 -0.4277 -1.3245  0.5368
  414MOL0     H57130   5.141   8.342  11.114 -1.0403  2.6623 -3.1762
  414MOL0     H57131   5.017   8.444  11.181  0.6051  0.8147 -0.6212
  414MOL0     H57132   5.118   8.338  11.287 -1.0225 -0.7570 -0.2766
  415MOL0     O57133  10.881   7.198   7.033 -0.2249  0.5288  0.1653
  415MOL0     C57134  10.764   7.212   6.989 -0.1942 -0.1926 -0.4949
  415MOL0     O57135  10.654   7.201   7.054  0.0561 -1.3144 -0.4618
  415MOL0     C57136  10.656   7.228   7.189 -1.4304 -0.2411  0.4134
  415MOL0     C57137  10.539   7.197   7.257  0.1284  0.4569 -0.0070
  415MOL0     C57138  10.520   7.212   7.400  0.1748 -0.5197 -0.6172
  415MOL0     C57139  10.608   7.286   7.476 -0.9878 -0.1665  0.1555
  415MOL0     O57140  10.608   7.314   7.605  0.2540 -0.6037 -0.4532
  415MOL0     C57141  10.594   7.202   7.694  1.0723  0.5371 -0.0738
  415MOL0     C57142  10.695   7.100   7.665 -0.0909  0.6219 -0.4998
  415MOL0     C57143  10.675   6.966   7.756  0.0524  0.0790  0.5989
  415MOL0     C57144  10.794   6.880   7.740  1.2790  1.0596  0.1417
  415MOL0     C57145  10.803   6.797   7.602 -0.1572 -1.5543 -0.8356
  415MOL0     C57146  10.869   6.661   7.618  0.0722  0.4732 -0.2261
  415MOL0     C57147  10.878   6.585   7.479 -0.5163  1.0570 -0.5187
  415MOL0     C57148  10.905   6.427   7.507 -1.0491 -0.1392  0.0490
  415MOL0     N57149  10.873   6.327   7.402 -0.0258 -0.8771 -0.0419
  415MOL0     C57150  10.756   6.298   7.332 -0.2726  0.2069 -0.3577
  415MOL0     C57151  10.787   6.180   7.264 -0.0514 -0.8457 -0.3847
  415MOL0     C57152  10.710   6.121   7.152  0.2074 -0.9481  0.2843
  415MOL0     C57153  10.685   6.228   7.042  0.2114 -0.0487 -0.0852
  415MOL0     C57154  10.681   6.175   6.898 -0.0646 -0.7301  0.9550
  415MOL0     C57155  10.636   6.274   6.790 -0.0764  0.1093  0.1400
  415MOL0     O57156  10.494   6.278   6.790 -0.0796  0.8127 -0.1890
  415MOL0     C57157  10.419   6.398   6.787 -1.1658  0.4941 -0.7587
  415MOL0     C57158  10.280   6.395   6.806  0.6482  0.5890 -0.1142
  415MOL0     C57159  10.195   6.507   6.814 -0.1418 -0.5304  0.4758
  415MOL0     C57160  10.053   6.490   6.858  0.2486 -0.1535  0.2210
  415MOL0     C57161  10.259   6.635   6.801 -0.3358 -0.8432 -0.1012
  415MOL0     C57162  10.190   6.766   6.816  0.5893  0.0980 -0.8991
  415MOL0     O57163  10.245   6.854   6.905 -0.8422  0.0774 -0.5399
  415MOL0     C57164  10.181   6.976   6.923  0.3494 -0.4706 -0.2022
  415MOL0     C57165  10.219   7.091   6.859  0.6498  0.1032 -0.3007
  415MOL0     C57166  10.144   7.207   6.884 -0.1495 -0.2745 -0.2868
  415MOL0     C57167  10.050   7.213   6.993 -0.9945  0.2244  0.1233
  415MOL0     O57168   9.978   7.323   7.031  0.5994 -0.6682 -0.0274
  415MOL0     C57169  10.031   7.449   7.000 -0.6467  0.1678  0.6452
  415MOL0     C57170   9.958   7.549   7.074  0.5003 -0.2365  0.3720
  415MOL0     C57171   9.966   7.531   7.227 -0.3625 -0.1327  0.2457
  415MOL0     C57172  10.109   7.537   7.286 -0.3231  0.4965 -0.0151
  415MOL0     C57173  10.106   7.544   7.432 -0.3596 -1.0681  0.4336
  415MOL0     C57174  10.249   7.521   7.474  0.2676  0.2402  0.5409
  415MOL0     C57175  10.270   7.556   7.627  0.3893 -0.3706  0.4265
  415MOL0     C57176  10.214   7.690   7.679 -0.5554 -0.2105  0.5999
  415MOL0    Cl57177  10.258   7.738   7.853 -0.1395  0.3675 -0.0795
  415MOL0     C57178  10.026   7.099   7.065 -1.2887  0.6680  0.3104
  415MOL0     C57179  10.077   6.977   7.021 -0.2975  0.9838  0.4903
  415MOL0     O57180  10.094   6.790   6.747  0.4841 -0.5023 -0.2314
  415MOL0     C57181  10.397   6.635   6.783 -0.2185 -0.6403  0.5646
  415MOL0     C57182  10.479   6.518   6.772  0.1954  0.5795  0.6628
  415MOL0     N57183  10.906   6.141   7.313  1.1764 -0.2274 -0.4850
  415MOL0     N57184  10.956   6.222   7.398  0.2606  0.7343  0.6821
  415MOL0     C57185  10.731   7.322   7.412 -0.1478 -0.7364 -1.2927
  415MOL0     C57186  10.752   7.293   7.276  0.3264  0.5611  0.5255
  415MOL0     C57187  10.740   7.217   6.845 -0.2419  0.7032 -0.8911
  415MOL0     C57188  10.642   7.310   6.802 -0.3526  0.1809  0.4163
  415MOL0     C57189  10.620   7.321   6.665 -1.5173  0.7840  0.1374
  415MOL0     C57190  10.700   7.256   6.577 -0.4689  0.1539  0.3257
  415MOL0     O57191  10.666   7.261   6.452  0.6704  0.3707  0.5983
  415MOL0     C57192  10.676   7.148   6.358  0.5130  0.4631  0.4692
  415MOL0     C57193  10.700   7.195   6.218  0.5687 -1.2177  0.0992
  415MOL0     C57194  10.819   7.282   6.208 -0.7190 -0.6011 -0.3566
  415MOL0     C57195  10.946   7.209   6.223  0.8409 -0.2255 -0.7678
  415MOL0     C57196  10.990   7.161   6.092 -0.3701  0.8479 -0.1984
  415MOL0     C57197  11.022   7.150   5.978  0.3712 -0.1231 -0.1829
  415MOL0     C57198  10.797   7.172   6.622 -0.6034 -0.5015 -0.7339
  415MOL0     C57199  10.812   7.143   6.757  0.5271 -0.2332  1.0143
  415MOL0     C57200  10.934   7.063   6.786  0.4351  0.7406 -1.2383
  415MOL0     H57201  10.461   7.137   7.212 -3.3221  2.6086  2.5165
  415MOL0     H57202  10.427   7.179   7.445 -0.4475  1.3389 -0.4454
  415MOL0     H57203  10.492   7.168   7.674  1.2938  1.1764 -2.6619
  415MOL0     H57204  10.609   7.223   7.800  1.9190 -2.2668  0.4499
  415MOL0     H57205  10.676   7.064   7.563  0.5108  3.9136 -1.8961
  415MOL0     H57206  10.799   7.133   7.667  1.1412 -2.8157  0.5373
  415MOL0     H57207  10.664   6.986   7.863 -0.5274 -4.1420  1.4886
  415MOL0     H57208  10.590   6.910   7.715  0.0072  0.4707  0.1512
  415MOL0     H57209  10.885   6.940   7.733  1.7321  0.1757 -2.3988
  415MOL0     H57210  10.786   6.816   7.828 -5.4966  0.3816 -0.4127
  415MOL0     H57211  10.852   6.861   7.529 -0.5986 -0.3044 -0.0693
  415MOL0     H57212  10.705   6.796   7.554 -1.9220  2.9755  2.0222
  415MOL0     H57213  10.968   6.680   7.661 -0.5938  2.3453  0.6006
  415MOL0     H57214  10.809   6.595   7.682 -1.6772  0.3532 -1.9127
  415MOL0     H57215  10.970   6.623   7.433  1.2362 -1.0205  1.0074
  415MOL0     H57216  10.789   6.608   7.421 -2.1531 -1.4142  0.8230
  415MOL0     H57217  11.013   6.423   7.526 -0.8444  0.2952 -0.9315
  415MOL0     H57218  10.848   6.401   7.596 -1.1171  2.2035  0.7649
  415MOL0     H57219  10.677   6.371   7.318  0.7719  1.7490  1.2754
  415MOL0     H57220  10.619   6.087   7.202 -0.1427 -1.8071 -0.8936
  415MOL0     H57221  10.763   6.035   7.109  0.6864 -1.0776  1.0982
  415MOL0     H57222  10.602   6.296   7.064  2.1784  2.8304 -0.9403
  415MOL0     H57223  10.768   6.300   7.037 -0.6002  0.9670  0.5446
  415MOL0     H57224  10.781   6.144   6.866  0.0480  0.0998  0.4487
  415MOL0     H57225  10.608   6.095   6.890 -0.6786 -0.0888 -0.2435
  415MOL0     H57226  10.683   6.372   6.804  1.5712 -0.6076 -0.1480
  415MOL0     H57227  10.675   6.247   6.691 -0.2565 -0.3295  0.1908
  415MOL0     H57228  10.245   6.298   6.839 -0.7467  1.2551  0.4347
  415MOL0     H57229  10.035   6.391   6.816  0.5953  0.2282 -0.8538
  415MOL0     H57230   9.994   6.566   6.806  0.4079  0.2188  0.5704
  415MOL0     H57231  10.050   6.503   6.967 -3.9218 -2.3409  0.5588
  415MOL0     H57232  10.302   7.101   6.790  1.5247 -1.3314  0.5159
  415MOL0     H57233  10.175   7.303   6.843 -3.7652  0.6706 -1.1239
  415MOL0     H57234  10.136   7.466   7.025 -0.8817  1.4905  0.8147
  415MOL0     H57235  10.031   7.461   6.892  3.6027 -1.1060  0.3460
  415MOL0     H57236  10.004   7.645   7.049 -1.6193  0.2123 -2.2354
  415MOL0     H57237   9.855   7.539   7.037  1.1989  0.0324 -1.8116
  415MOL0     H57238   9.917   7.438   7.255 -2.3708  0.9490  0.5253
  415MOL0     H57239   9.909   7.611   7.275  0.6367  0.2361  0.8524
  415MOL0     H57240  10.156   7.632   7.258  0.3785  0.8616  2.2373
  415MOL0     H57241  10.167   7.447   7.267  1.4588  0.7031  3.5723
  415MOL0     H57242  10.064   7.643   7.454 -0.6691 -0.9220 -0.7507
  415MOL0     H57243  10.048   7.463   7.478  3.2059 -3.0068  1.9523
  415MOL0     H57244  10.326   7.569   7.412 -1.0380  1.2354 -0.3680
  415MOL0     H57245  10.260   7.412   7.480 -1.5872  0.1234  4.1901
  415MOL0     H57246  10.379   7.554   7.641  0.4313  2.1063  0.8602
  415MOL0     H57247  10.224   7.474   7.682 -0.6467 -0.4340 -0.5033
  415MOL0     H57248  10.105   7.676   7.677 -0.2423 -3.0471 -0.4869
  415MOL0     H57249  10.248   7.777   7.623  1.1676  0.9257  3.2081
  415MOL0     H57250   9.964   7.089   7.153 -0.3551 -0.9329  0.8225
  415MOL0     H57251  10.051   6.883   7.068 -1.6104 -0.4009 -2.7223
  415MOL0     H57252  10.443   6.733   6.774 -3.1089  0.6107 -2.7454
  415MOL0     H57253  10.585   6.542   6.762  0.0155  0.5318 -1.8306
  415MOL0     H57254  10.794   7.387   7.472 -1.2052 -2.3051  1.7839
  415MOL0     H57255  10.849   7.321   7.236 -0.1011 -1.5165 -2.2732
  415MOL0     H57256  10.572   7.366   6.864  0.0578  2.7759 -1.2971
  415MOL0     H57257  10.526   7.366   6.632 -1.8503 -0.4936 -0.7542
  415MOL0     H57258  10.749   7.073   6.390 -3.5697 -4.2262  0.0837
  415MOL0     H57259  10.582   7.092   6.354  0.6598  0.2775 -2.5637
  415MOL0     H57260  10.615   7.250   6.177  0.1773 -0.4795  1.7924
  415MOL0     H57261  10.703   7.108   6.153 -1.0620 -0.2947 -1.2914
  415MOL0     H57262  10.813   7.332   6.111 -5.3687 -2.7807 -1.4479
  415MOL0     H57263  10.823   7.361   6.285  0.9182 -2.8692  2.0872
  415MOL0     H57264  10.947   7.123   6.290  2.7145 -0.3370 -0.8936
  415MOL0     H57265  11.021   7.283   6.254 -1.5433  1.8445  0.4595
  415MOL0     H57266  11.058   7.140   5.877  2.0601  1.0617  0.2501
  415MOL0     H57267  10.856   7.123   6.545 -2.4941  0.7871 -3.1339
  415MOL0     H57268  10.907   7.008   6.877 -3.1197  1.0766 -1.9825
  415MOL0     H57269  10.953   6.984   6.713 -1.3900 -1.7861  0.8342
  415MOL0     H57270  11.016   7.134   6.800 -1.9199  2.9692  4.1984
  416MOL0     O57271   8.045   1.213   9.608  0.4649  0.0287  0.2947
  416MOL0     C57272   8.131   1.215   9.517  0.6493 -0.1162  0.1644
  416MOL0     O57273   8.194   1.108   9.469  0.1108  0.3958 -0.1689
  416MOL0     C57274   8.148   0.985   9.484  0.2484  0.8799  0.6087
  416MOL0     C57275   8.240   0.889   9.456  0.7510  0.7498  0.5790
  416MOL0     C57276   8.200   0.758   9.456  1.0055  0.7991 -0.1800
  416MOL0     C57277   8.070   0.719   9.480  1.1902  0.9363  0.2893
  416MOL0     O57278   8.048   0.586   9.504  0.5555  0.3132 -0.0974
  416MOL0     C57279   8.012   0.511   9.391 -0.8660  0.4651 -0.7239
  416MOL0     C57280   8.133   0.456   9.313  0.4096  0.3724  0.1521
  416MOL0     C57281   8.082   0.393   9.174 -0.1836 -0.6714 -0.6932
  416MOL0     C57282   8.191   0.406   9.069  1.2440 -0.1743  0.0337
  416MOL0     C57283   8.322   0.349   9.125  0.2354 -0.0337  1.4200
  416MOL0     C57284   8.432   0.364   9.023  0.4465 -0.3813 -0.7950
  416MOL0     C57285   8.545   0.263   9.055  0.0369 -0.3753 -0.7163
  416MOL0     C57286   8.651   0.249   8.950 -0.8122  0.4083  0.4577
  416MOL0     N57287   8.602   0.218   8.813 -0.0845 -0.3745 -0.6184
  416MOL0     C57288   8.657   0.262   8.695 -0.9976  0.3078 -0.0543
  416MOL0     C57289   8.608   0.190   8.596  0.0452  1.0372 -0.3205
  416MOL0     C57290   8.637   0.201   8.452  0.9528  0.3976 -0.0549
  416MOL0     C57291   8.544   0.298   8.375  1.0252 -0.0636  0.0207
  416MOL0     C57292   8.415   0.227   8.317  0.1210  0.1845  0.1156
  416MOL0     C57293   8.335   0.331   8.235 -0.2744 -0.6533 -0.2379
  416MOL0     O57294   8.403   0.351   8.113  0.4312  0.5640  0.0625
  416MOL0     C57295   8.377   0.279   7.995 -0.3883  0.0877 -0.5382
  416MOL0     C57296   8.390   0.343   7.874  0.0982  0.0518  0.8403
  416MOL0     C57297   8.391   0.281   7.751 -0.4494  0.0886  0.3030
  416MOL0     C57298   8.405   0.370   7.638  0.4989 -0.4914  0.0468
  416MOL0     C57299   8.373   0.140   7.748 -1.0743 -0.9498 -0.0191
  416MOL0     C57300   8.387   0.056   7.625  0.3748 -0.2373 -0.2092
  416MOL0     O57301   8.338  -0.077   7.636 -0.6238 -0.2461  0.2584
  416MOL0     C57302   8.343  -0.158   7.525 -0.6558  0.1059  0.3371
  416MOL0     C57303   8.455  -0.228   7.485 -0.8557  0.5745  0.4797
  416MOL0     C57304   8.446  -0.309   7.372  0.6712  0.3344  0.1795
  416MOL0     C57305   8.336  -0.345   7.299 -0.2131  0.1942  0.4308
  416MOL0     O57306   8.349  -0.436   7.188 -0.8820  0.3540 -0.2402
  416MOL0     C57307   8.252  -0.435   7.085 -0.2183  0.7610  0.2069
  416MOL0     C57308   8.287  -0.525   6.965 -0.2043 -0.9957 -0.0122
  416MOL0     C57309   8.363  -0.457   6.856 -0.5480  0.0936 -0.3349
  416MOL0     C57310   8.404  -0.549   6.740 -0.6559 -0.0055 -0.2350
  416MOL0     C57311   8.489  -0.478   6.631  0.2596  0.3536  0.5703
  416MOL0     C57312   8.522  -0.575   6.524 -0.5006  0.5569  0.6380
  416MOL0     C57313   8.539  -0.475   6.402  0.1628 -0.2792  0.8316
  416MOL0     C57314   8.545  -0.535   6.273 -0.0608  0.0170 -0.2685
  416MOL0    Cl57315   8.539  -0.403   6.155  0.1486 -0.2416 -0.2384
  416MOL0     C57316   8.225  -0.270   7.342 -0.3765  0.0478  0.5850
  416MOL0     C57317   8.225  -0.180   7.449 -0.8767  0.7281 -0.7332
  416MOL0     O57318   8.447   0.100   7.522 -0.0895  0.0474  0.1808
  416MOL0     C57319   8.344   0.078   7.877 -0.0934 -0.8708 -1.3032
  416MOL0     C57320   8.346   0.140   7.998  0.0612 -0.3934  0.3775
  416MOL0     N57321   8.519   0.097   8.649 -0.4920  0.9986 -0.4083
  416MOL0     N57322   8.534   0.108   8.780 -0.2831  0.4600  0.6882
  416MOL0     C57323   7.977   0.815   9.498  1.0310  0.0684  0.4315
  416MOL0     C57324   8.016   0.954   9.499  0.4868  0.1907  0.5199
  416MOL0     C57325   8.186   1.337   9.463 -0.0831 -0.4463  0.6877
  416MOL0     C57326   8.322   1.347   9.428  0.0333 -0.2915 -0.2458
  416MOL0     C57327   8.376   1.468   9.388 -0.2570 -0.1503  0.2170
  416MOL0     C57328   8.294   1.577   9.352  0.8446  0.1800  0.1616
  416MOL0     O57329   8.348   1.694   9.313 -0.1662 -0.0902  0.2046
  416MOL0     C57330   8.287   1.772   9.213 -0.4661 -0.7069  0.5230
  416MOL0     C57331   8.399   1.877   9.176 -0.0454  0.3126 -0.0410
  416MOL0     C57332   8.474   1.840   9.056  0.2817 -1.1328  0.2764
  416MOL0     C57333   8.590   1.744   9.100  0.3495  0.0682 -0.4246
  416MOL0     C57334   8.667   1.696   8.989 -0.4116  0.4173  0.5642
  416MOL0     C57335   8.741   1.657   8.901 -0.2732  0.5954 -0.5646
  416MOL0     C57336   8.159   1.554   9.365 -0.7742  0.7175 -1.2152
  416MOL0     C57337   8.102   1.444   9.432 -0.0845 -0.2512  0.5445
  416MOL0     C57338   7.954   1.440   9.447 -0.2378  0.0564 -0.2956
  416MOL0     H57339   8.344   0.916   9.438  0.9843 -0.5233 -0.0950
  416MOL0     H57340   8.273   0.678   9.442  0.7069  0.7212 -1.4332
  416MOL0     H57341   7.952   0.572   9.323  1.2804  1.7068 -1.6188
  416MOL0     H57342   7.955   0.422   9.418 -2.2031  1.5099  0.0529
  416MOL0     H57343   8.199   0.539   9.286 -1.4575  1.0903 -2.6310
  416MOL0     H57344   8.186   0.376   9.366 -0.5793  1.9307  3.7895
  416MOL0     H57345   8.050   0.289   9.161  1.8802 -1.3104 -0.9450
  416MOL0     H57346   8.001   0.458   9.138  0.5371  1.0791  0.6686
  416MOL0     H57347   8.170   0.349   8.978  0.2933  2.5911 -1.5943
  416MOL0     H57348   8.195   0.509   9.033 -2.8445 -0.1138 -0.7038
  416MOL0     H57349   8.307   0.250   9.170  2.0448  0.3081  2.8837
  416MOL0     H57350   8.349   0.408   9.213  2.9990 -0.8112  1.1841
  416MOL0     H57351   8.398   0.335   8.923 -0.2350 -0.8367 -0.4368
  416MOL0     H57352   8.470   0.466   9.024  3.8815 -1.5030 -0.7403
  416MOL0     H57353   8.513   0.159   9.065 -0.2689 -0.4301 -2.0402
  416MOL0     H57354   8.585   0.291   9.153 -1.4068  2.7240 -0.8951
  416MOL0     H57355   8.704   0.344   8.938 -2.8720  1.5961  0.2880
  416MOL0     H57356   8.720   0.174   8.990  0.0709  3.0725  4.6581
  416MOL0     H57357   8.731   0.341   8.698 -1.2348  0.5208  0.3540
  416MOL0     H57358   8.635   0.101   8.409  3.0330  0.1518  0.3147
  416MOL0     H57359   8.743   0.228   8.445  0.4454  3.1295  1.1054
  416MOL0     H57360   8.516   0.383   8.437  1.0390 -0.2726  0.3197
  416MOL0     H57361   8.591   0.340   8.286 -1.2969  1.6778 -0.4654
  416MOL0     H57362   8.435   0.133   8.265  0.2544 -0.2194  0.8748
  416MOL0     H57363   8.352   0.199   8.402 -0.7877  2.5719  0.3201
  416MOL0     H57364   8.236   0.288   8.218  0.9180 -3.9403  0.3843
  416MOL0     H57365   8.307   0.419   8.294 -0.8375 -0.1583 -1.2076
  416MOL0     H57366   8.401   0.451   7.878  0.5690  0.3683 -3.8055
  416MOL0     H57367   8.504   0.363   7.593  1.3691 -1.6982  2.0247
  416MOL0     H57368   8.369   0.467   7.675 -0.0910 -0.4478 -0.6092
  416MOL0     H57369   8.346   0.332   7.554 -0.1584  1.3092 -0.3527
  416MOL0     H57370   8.555  -0.224   7.525 -0.1001  0.7277 -1.3291
  416MOL0     H57371   8.529  -0.371   7.338 -0.3759 -1.3874  0.6021
  416MOL0     H57372   8.160  -0.480   7.124 -0.6397 -1.7405 -3.2165
  416MOL0     H57373   8.235  -0.335   7.044  1.4005  1.2760  0.6881
  416MOL0     H57374   8.347  -0.613   6.991  0.7184 -0.1939  0.6510
  416MOL0     H57375   8.193  -0.562   6.923 -0.4907 -2.5857  1.9092
  416MOL0     H57376   8.446  -0.400   6.899  1.4615 -1.7678 -1.5277
  416MOL0     H57377   8.294  -0.378   6.827 -0.1742  0.2920 -0.6965
  416MOL0     H57378   8.323  -0.610   6.699 -0.0249 -0.3308 -1.0339
  416MOL0     H57379   8.477  -0.625   6.771 -1.7731 -0.5891  1.0769
  416MOL0     H57380   8.440  -0.387   6.594  1.5279  1.5475  1.7311
  416MOL0     H57381   8.587  -0.441   6.662  1.9242  0.9849 -4.5111
  416MOL0     H57382   8.438  -0.640   6.499  1.9347 -3.3494  1.7284
  416MOL0     H57383   8.609  -0.638   6.542 -1.4371 -0.3212  2.3431
  416MOL0     H57384   8.611  -0.393   6.414  2.1466 -1.6523 -0.9379
  416MOL0     H57385   8.444  -0.421   6.399 -0.0913 -0.5883  2.5057
  416MOL0     H57386   8.456  -0.597   6.259  1.0915 -1.9891  0.6706
  416MOL0     H57387   8.631  -0.601   6.257 -0.8067 -1.4567  1.3447
  416MOL0     H57388   8.140  -0.303   7.283  0.4159  1.8479 -1.7032
  416MOL0     H57389   8.141  -0.126   7.491  0.0949 -0.4830  3.2452
  416MOL0     H57390   8.345  -0.030   7.873 -2.0212 -0.9963  0.2779
  416MOL0     H57391   8.344   0.098   8.097  0.9288 -4.6258 -1.1914
  416MOL0     H57392   7.880   0.770   9.518  1.9062 -0.2919  4.8462
  416MOL0     H57393   7.931   1.019   9.516  0.1746  0.0764 -0.5291
  416MOL0     H57394   8.382   1.258   9.446 -0.5670 -0.7855 -0.6612
  416MOL0     H57395   8.482   1.478   9.370 -0.5136 -0.6753 -1.8186
  416MOL0     H57396   8.260   1.723   9.120 -0.2220  1.3456 -0.7004
  416MOL0     H57397   8.191   1.811   9.249 -1.6936 -5.5673  3.4677
  416MOL0     H57398   8.468   1.904   9.257 -0.3562  0.6010  0.1317
  416MOL0     H57399   8.342   1.968   9.159 -0.2093 -0.2057 -2.6202
  416MOL0     H57400   8.416   1.794   8.976  0.8324 -0.6452 -0.4175
  416MOL0     H57401   8.524   1.933   9.028  0.4824 -1.3057  0.0544
  416MOL0     H57402   8.538   1.659   9.145 -2.8185  1.1429 -1.7631
  416MOL0     H57403   8.658   1.789   9.174 -0.1647  1.1473 -0.5895
  416MOL0     H57404   8.815   1.636   8.826  0.8209  0.2460  0.5781
  416MOL0     H57405   8.097   1.637   9.333 -1.2905  1.4788  1.4661
  416MOL0     H57406   7.912   1.429   9.548 -0.2018  0.2748 -0.2573
  416MOL0     H57407   7.907   1.523   9.394  2.4839  1.9010 -0.0166
  416MOL0     H57408   7.922   1.349   9.396  1.7759 -1.7574  1.4944
  417MOL0     O57409   0.455   8.943   6.716 -0.2672 -0.3225 -0.1282
  417MOL0     C57410   0.369   9.031   6.726  0.0166  0.5031 -0.0605
  417MOL0     O57411   0.235   9.016   6.716 -0.1526  0.1698  0.1345
  417MOL0     C57412   0.178   8.892   6.722  0.0494 -1.6237  0.3968
  417MOL0     C57413   0.230   8.767   6.766 -0.1577  0.5290  0.7370
  417MOL0     C57414   0.163   8.646   6.750 -1.1435  0.2809 -0.5794
  417MOL0     C57415   0.047   8.647   6.691 -0.1517  1.0998 -0.3459
  417MOL0     O57416  -0.026   8.526   6.685  0.4928  0.7208 -0.8693
  417MOL0     C57417  -0.041   8.467   6.558 -0.3872 -0.2293  0.1885
  417MOL0     C57418  -0.150   8.351   6.549 -0.9529  1.3842  0.5194
  417MOL0     C57419  -0.266   8.341   6.651 -0.7661 -0.2783  0.6167
  417MOL0     C57420  -0.369   8.452   6.612  0.4242 -0.1725 -0.9875
  417MOL0     C57421  -0.509   8.397   6.670  0.0589 -0.4629 -0.2967
  417MOL0     C57422  -0.590   8.525   6.659 -0.4745  0.4570  0.0449
  417MOL0     C57423  -0.733   8.499   6.712 -0.3549  0.2572 -0.0478
  417MOL0     C57424  -0.797   8.628   6.755  0.6553  0.2755 -0.7710
  417MOL0     N57425  -0.942   8.605   6.782  0.4060  0.9326 -0.1140
  417MOL0     C57426  -0.990   8.563   6.905 -0.1593 -0.7971  0.2315
  417MOL0     C57427  -1.111   8.509   6.875  0.7658  0.1788 -0.0050
  417MOL0     C57428  -1.189   8.419   6.973  0.3235 -0.4504 -0.0314
  417MOL0     C57429  -1.303   8.486   7.045 -0.3886  0.0132  0.1024
  417MOL0     C57430  -1.263   8.602   7.128 -0.7492  0.6857 -0.2840
  417MOL0     C57431  -1.377   8.680   7.197  0.1852 -0.3233  0.4595
  417MOL0     O57432  -1.493   8.684   7.103  0.1351 -0.3852 -0.3217
  417MOL0     C57433  -1.616   8.721   7.162 -0.7439 -0.1940 -0.1244
  417MOL0     C57434  -1.724   8.736   7.080  0.0508  0.6448 -0.6959
  417MOL0     C57435  -1.853   8.790   7.114 -1.0181  0.4450  0.4084
  417MOL0     C57436  -1.963   8.768   7.004  0.2140 -0.0550 -0.3135
  417MOL0     C57437  -1.871   8.828   7.251 -0.4677 -0.2451  0.3598
  417MOL0     C57438  -2.005   8.892   7.294 -0.3912  0.1393 -0.2985
  417MOL0     O57439  -2.005   8.915   7.428  0.0430  0.0031 -0.4758
  417MOL0     C57440  -2.105   8.983   7.493 -0.3516 -0.3620 -0.2366
  417MOL0     C57441  -2.240   8.983   7.468  0.1912  0.1202  0.2463
  417MOL0     C57442  -2.329   9.066   7.552 -0.2277 -0.6618  0.3561
  417MOL0     C57443  -2.282   9.138   7.669 -0.2512 -0.4567  0.8492
  417MOL0     O57444  -2.370   9.216   7.737 -0.2846 -0.2949 -0.5000
  417MOL0     C57445  -2.340   9.325   7.833 -0.9395 -0.9706  0.3784
  417MOL0     C57446  -2.411   9.306   7.967 -0.0146  0.5545  0.4999
  417MOL0     C57447  -2.327   9.230   8.073 -1.1390  0.9022  0.2966
  417MOL0     C57448  -2.389   9.246   8.211 -0.9557 -0.0313 -0.3969
  417MOL0     C57449  -2.293   9.308   8.315 -0.4598  0.0336  0.4274
  417MOL0     C57450  -2.282   9.451   8.272 -0.0124 -0.1840  0.3095
  417MOL0     C57451  -2.200   9.543   8.365 -1.1673 -0.1254 -0.5438
  417MOL0     C57452  -2.040   9.523   8.367 -0.3952 -1.0570 -0.2180
  417MOL0    Cl57453  -1.940   9.645   8.456 -0.5461  0.3344  0.0752
  417MOL0     C57454  -2.148   9.110   7.705 -0.1174  1.1006  0.9526
  417MOL0     C57455  -2.060   9.043   7.607  0.0605  0.3648 -0.0418
  417MOL0     O57456  -2.075   8.951   7.212 -0.0176  1.0352 -0.2826
  417MOL0     C57457  -1.756   8.819   7.337  0.1521 -1.0551  0.7116
  417MOL0     C57458  -1.632   8.768   7.293 -0.5826 -0.2863  0.1695
  417MOL0     N57459  -1.127   8.513   6.739  0.0480 -0.2096  0.0805
  417MOL0     N57460  -1.030   8.585   6.680 -0.5049  0.0567 -0.4397
  417MOL0     C57461  -0.019   8.767   6.656 -0.0769  0.1571 -0.1896
  417MOL0     C57462   0.046   8.887   6.683 -0.3871  0.9916  1.2316
  417MOL0     C57463   0.415   9.171   6.764  0.1631  0.3168  0.8504
  417MOL0     C57464   0.319   9.261   6.815  0.1132 -0.1810 -1.5477
  417MOL0     C57465   0.357   9.391   6.844  0.3101  0.0416  0.2272
  417MOL0     C57466   0.494   9.424   6.845 -0.5392 -0.0904  0.1646
  417MOL0     O57467   0.544   9.546   6.883  0.5408 -0.2127  0.5448
  417MOL0     C57468   0.450   9.642   6.938 -0.0793  0.6986 -0.4381
  417MOL0     C57469   0.524   9.769   6.984 -1.4932 -0.4537 -0.1521
  417MOL0     C57470   0.625   9.732   7.085  0.1378  0.5384 -0.8664
  417MOL0     C57471   0.735   9.834   7.124 -0.1406 -0.5360  0.7010
  417MOL0     C57472   0.850   9.837   7.034 -0.3901  0.5914 -0.5602
  417MOL0     C57473   0.948   9.843   6.966 -0.9354 -0.9874  0.1117
  417MOL0     C57474   0.582   9.323   6.815 -0.3704 -0.7464 -0.3451
  417MOL0     C57475   0.546   9.209   6.762 -1.1598 -0.5323  0.0180
  417MOL0     C57476   0.659   9.121   6.713 -0.2460 -0.3480  0.0549
  417MOL0     H57477   0.327   8.762   6.815 -0.6122  0.6995  1.6782
  417MOL0     H57478   0.206   8.553   6.785  0.0218  1.9946  3.0016
  417MOL0     H57479   0.055   8.445   6.511 -1.9549  0.0996 -3.4545
  417MOL0     H57480  -0.080   8.549   6.497 -0.8663 -0.4184  0.2431
  417MOL0     H57481  -0.182   8.348   6.445 -0.7328 -0.1793  0.4688
  417MOL0     H57482  -0.089   8.263   6.571 -1.6251  1.1119  1.3857
  417MOL0     H57483  -0.289   8.234   6.656 -1.0293 -0.2712 -0.2119
  417MOL0     H57484  -0.231   8.364   6.752  1.5297 -0.2358 -0.1245
  417MOL0     H57485  -0.335   8.548   6.651  0.5279 -0.1999 -1.0117
  417MOL0     H57486  -0.385   8.451   6.504 -2.6990 -1.6849 -0.6282
  417MOL0     H57487  -0.500   8.374   6.777 -2.5844  5.4192  1.6215
  417MOL0     H57488  -0.538   8.310   6.610 -0.1060  0.1857 -1.1748
  417MOL0     H57489  -0.544   8.605   6.717 -3.1017  2.9544 -1.0979
  417MOL0     H57490  -0.592   8.551   6.553 -5.7663  1.4423  0.1112
  417MOL0     H57491  -0.729   8.430   6.797 -2.3347 -1.8053 -1.5179
  417MOL0     H57492  -0.786   8.443   6.633 -3.3403  1.1480  1.2036
  417MOL0     H57493  -0.752   8.656   6.851  2.8706 -1.3609 -1.2424
  417MOL0     H57494  -0.789   8.714   6.687 -1.1071  2.5594  1.6641
  417MOL0     H57495  -0.937   8.567   7.000  0.6029 -2.6138 -0.0747
  417MOL0     H57496  -1.115   8.372   7.039 -2.0737 -3.5777  0.6936
  417MOL0     H57497  -1.234   8.337   6.916 -1.6297 -0.7799  1.8606
  417MOL0     H57498  -1.367   8.515   6.962 -0.5434 -2.3162 -0.6506
  417MOL0     H57499  -1.352   8.412   7.109 -1.2049 -1.3202 -1.9875
  417MOL0     H57500  -1.180   8.583   7.197 -1.3214  0.5891  0.3959
  417MOL0     H57501  -1.226   8.677   7.058  0.4816  0.1903 -0.1764
  417MOL0     H57502  -1.401   8.621   7.287  2.4803  2.4283  3.0950
  417MOL0     H57503  -1.354   8.782   7.229 -0.0206 -0.2494  0.3739
  417MOL0     H57504  -1.698   8.715   6.977  1.9635 -2.5306  0.2800
  417MOL0     H57505  -1.932   8.677   6.951  1.3696  2.0800 -3.5974
  417MOL0     H57506  -1.971   8.853   6.936  1.2063  1.4315  1.3327
  417MOL0     H57507  -2.064   8.766   7.044  1.6382 -0.5858  3.6929
  417MOL0     H57508  -2.278   8.949   7.372  1.2289 -0.2491 -0.0402
  417MOL0     H57509  -2.433   9.083   7.527 -0.2015  0.1592  0.7838
  417MOL0     H57510  -2.231   9.332   7.844 -1.0641 -0.3890  1.4627
  417MOL0     H57511  -2.373   9.420   7.789  1.0400 -1.0436 -1.4307
  417MOL0     H57512  -2.432   9.405   8.008  2.9929  1.3007  0.4532
  417MOL0     H57513  -2.503   9.251   7.948 -0.4984  0.6437  2.3756
  417MOL0     H57514  -2.224   9.265   8.078 -0.6379 -0.3952 -0.3424
  417MOL0     H57515  -2.311   9.126   8.041  1.7007  1.5893 -0.8233
  417MOL0     H57516  -2.414   9.146   8.247  0.6033 -0.1552  0.4186
  417MOL0     H57517  -2.481   9.305   8.204 -0.5815  0.4738 -1.2465
  417MOL0     H57518  -2.338   9.296   8.414  0.3410 -1.5131  0.6480
  417MOL0     H57519  -2.197   9.254   8.320 -1.5936 -2.2065 -0.4987
  417MOL0     H57520  -2.383   9.491   8.274  0.5901  1.4265  1.3720
  417MOL0     H57521  -2.235   9.456   8.173  1.3584 -2.3574  0.7799
  417MOL0     H57522  -2.238   9.524   8.466  3.4577 -0.5758  1.3837
  417MOL0     H57523  -2.208   9.647   8.332 -2.0123  0.7545  2.1590
  417MOL0     H57524  -2.009   9.528   8.263 -3.0358  1.8784 -1.0140
  417MOL0     H57525  -1.996   9.428   8.399  3.9341  0.2560 -1.5656
  417MOL0     H57526  -2.097   9.145   7.794 -0.1873  2.3910  0.5022
  417MOL0     H57527  -1.957   9.024   7.635 -0.6763 -1.9576  1.4083
  417MOL0     H57528  -1.753   8.856   7.439  1.8849 -0.8424  0.6275
  417MOL0     H57529  -1.559   8.756   7.372  0.1559 -2.5823 -0.7751
  417MOL0     H57530  -0.115   8.768   6.605  0.3206  0.6810 -0.9427
  417MOL0     H57531  -0.020   8.972   6.674 -0.5620  0.9270  1.8290
  417MOL0     H57532   0.218   9.224   6.828 -0.3677  1.3878 -0.5092
  417MOL0     H57533   0.277   9.458   6.872  0.1704  0.1028 -0.3128
  417MOL0     H57534   0.376   9.667   6.862  0.7247  0.2756 -1.3828
  417MOL0     H57535   0.401   9.599   7.026  0.9915  2.8010  1.2729
  417MOL0     H57536   0.445   9.830   7.029 -0.2581 -0.0597  1.6306
  417MOL0     H57537   0.576   9.823   6.905 -1.7773 -2.9896 -2.2065
  417MOL0     H57538   0.572   9.698   7.175  1.5640 -0.1302 -0.2339
  417MOL0     H57539   0.683   9.644   7.054  2.7961  1.8630  0.0548
  417MOL0     H57540   0.767   9.822   7.228  0.6529  1.5545  0.7425
  417MOL0     H57541   0.684   9.930   7.123  3.9339  1.8649  1.3094
  417MOL0     H57542   1.025   9.827   6.893 -0.3159 -0.2285  0.5776
  417MOL0     H57543   0.687   9.340   6.839 -0.7553  0.1591  0.7788
  417MOL0     H57544   0.639   9.092   6.609  0.0985 -1.4276  0.2760
  417MOL0     H57545   0.749   9.184   6.711 -0.1770 -0.4637 -0.9218
  417MOL0     H57546   0.689   9.028   6.762  1.6830 -0.9585 -2.0827
  418MOL0     O57547   3.149   0.494   5.982 -0.1915 -0.1279  0.3142
  418MOL0     C57548   3.098   0.412   6.051 -0.0322 -0.2565  0.1853
  418MOL0     O57549   3.116   0.278   6.045  0.3642  1.1428  0.3936
  418MOL0     C57550   3.198   0.229   5.949  0.9264  0.8237 -0.1857
  418MOL0     C57551   3.197   0.253   5.810 -0.2447  0.4682  0.0101
  418MOL0     C57552   3.285   0.196   5.725  0.3295  0.6975  0.4174
  418MOL0     C57553   3.387   0.109   5.765 -0.7130 -0.0718 -0.6986
  418MOL0     O57554   3.459   0.058   5.666  0.0850 -0.3270  0.9208
  418MOL0     C57555   3.573  -0.026   5.687 -0.0195  0.1240 -0.1103
  418MOL0     C57556   3.705   0.049   5.728  0.0498 -0.3676  1.2157
  418MOL0     C57557   3.728   0.164   5.639  0.0390  0.1704  0.6228
  418MOL0     C57558   3.870   0.200   5.587  0.8722 -0.0827 -1.1819
  418MOL0     C57559   3.918   0.110   5.481  0.7014  0.4747 -0.5198
  418MOL0     C57560   4.054   0.148   5.419 -0.5950  1.1731 -0.5616
  418MOL0     C57561   4.135   0.021   5.385  0.2269  0.5517  0.6258
  418MOL0     C57562   4.269   0.053   5.300 -0.0882 -0.6983 -0.0936
  418MOL0     N57563   4.377   0.094   5.392  0.4507  0.0828  0.3012
  418MOL0     C57564   4.429   0.012   5.489  0.7958  0.1981  0.5729
  418MOL0     C57565   4.487   0.094   5.578  0.2606  0.1380  0.1534
  418MOL0     C57566   4.552   0.048   5.712  0.1723  0.1340  0.1768
  418MOL0     C57567   4.468   0.080   5.842 -0.3803  0.0974  0.1924
  418MOL0     C57568   4.466   0.236   5.881 -0.9409  1.3399 -0.7042
  418MOL0     C57569   4.351   0.268   5.981  0.4648 -0.2051 -0.2683
  418MOL0     O57570   4.407   0.280   6.110  0.4932 -0.4404 -0.0550
  418MOL0     C57571   4.353   0.342   6.207  0.2443  0.1822 -0.3823
  418MOL0     C57572   4.233   0.414   6.206 -0.8559 -0.0222  0.1864
  418MOL0     C57573   4.178   0.469   6.324  0.4170 -0.6711 -0.1896
  418MOL0     C57574   4.044   0.548   6.304 -0.6849 -0.4072 -0.3607
  418MOL0     C57575   4.261   0.458   6.437  1.3553 -0.3368 -0.6936
  418MOL0     C57576   4.216   0.515   6.577  0.1459 -0.0969 -0.1894
  418MOL0     O57577   4.314   0.579   6.649 -0.1531 -0.5477  0.4119
  418MOL0     C57578   4.306   0.620   6.781  0.2015 -0.3315  0.9812
  418MOL0     C57579   4.402   0.714   6.815  0.5741  0.4031 -0.8140
  418MOL0     C57580   4.424   0.753   6.945  1.2094 -0.3683 -0.5567
  418MOL0     C57581   4.344   0.697   7.048 -0.4565 -0.9692  0.2066
  418MOL0     O57582   4.380   0.724   7.174 -0.8311  0.9509  0.1625
  418MOL0     C57583   4.316   0.717   7.299  1.0491  0.2906  0.5888
  418MOL0     C57584   4.323   0.573   7.355 -0.1321  0.5918 -0.5289
  418MOL0     C57585   4.256   0.564   7.497  0.3486  0.2737  0.8601
  418MOL0     C57586   4.245   0.412   7.533  0.1569  0.1023  0.4512
  418MOL0     C57587   4.131   0.376   7.634  0.4876 -0.4247  0.6454
  418MOL0     C57588   4.161   0.233   7.690  0.3159  0.6850  0.5147
  418MOL0     C57589   4.052   0.169   7.782  0.4204  0.5208 -0.8655
  418MOL0     C57590   4.092   0.031   7.819  0.2669  0.8104 -0.0884
  418MOL0    Cl57591   4.067  -0.061   7.661  0.0659 -0.2801  0.2275
  418MOL0     C57592   4.250   0.610   7.015  0.7721  1.0885  0.0585
  418MOL0     C57593   4.219   0.570   6.878  0.7079  0.9666  0.9994
  418MOL0     O57594   4.106   0.492   6.619  0.2010  0.7595  0.1656
  418MOL0     C57595   4.375   0.380   6.444 -0.1517 -0.4912  0.0773
  418MOL0     C57596   4.419   0.325   6.331 -0.3970 -0.2525 -0.3333
  418MOL0     N57597   4.473   0.228   5.539 -0.1862  0.5909  0.0995
  418MOL0     N57598   4.417   0.219   5.419 -0.4894 -0.7528  0.8258
  418MOL0     C57599   3.396   0.075   5.905  0.6235 -0.4601  0.4016
  418MOL0     C57600   3.306   0.147   5.994  0.0109  0.0471 -0.0607
  418MOL0     C57601   2.988   0.465   6.124 -0.7865 -0.2075  0.3071
  418MOL0     C57602   2.866   0.408   6.104  0.4785 -0.5262  0.7015
  418MOL0     C57603   2.751   0.449   6.167 -0.7968  0.6584  0.0623
  418MOL0     C57604   2.765   0.543   6.265 -0.8518 -0.9214 -0.4704
  418MOL0     O57605   2.649   0.595   6.327 -0.4985 -0.3699  0.0723
  418MOL0     C57606   2.599   0.720   6.273  0.9449  0.4579 -0.2331
  418MOL0     C57607   2.448   0.684   6.232 -0.4272  0.1338  1.0469
  418MOL0     C57608   2.369   0.810   6.183  0.6879 -0.0991 -0.1164
  418MOL0     C57609   2.238   0.770   6.092 -0.1751 -0.5032  0.4948
  418MOL0     C57610   2.212   0.887   6.011 -0.8147  0.1346  0.0774
  418MOL0     C57611   2.178   0.987   5.951 -0.0677  0.7465  0.5674
  418MOL0     C57612   2.891   0.607   6.292 -0.0656  0.5241 -0.0646
  418MOL0     C57613   3.003   0.567   6.225  0.2548  0.2477 -0.5006
  418MOL0     C57614   3.144   0.622   6.272  0.1768  0.3945  0.5300
  418MOL0     H57615   3.116   0.310   5.765 -1.0863 -0.8107 -0.1457
  418MOL0     H57616   3.284   0.218   5.619  0.4032  0.6474  0.4070
  418MOL0     H57617   3.575  -0.068   5.586 -1.8355  1.5059 -0.7688
  418MOL0     H57618   3.566  -0.110   5.757  1.4355  1.1178  1.2930
  418MOL0     H57619   3.693   0.078   5.833 -1.7019 -1.9748  1.5151
  418MOL0     H57620   3.795  -0.011   5.717  2.0346  2.5818  0.0060
  418MOL0     H57621   3.663   0.168   5.552 -1.4155 -1.0364  1.5982
  418MOL0     H57622   3.693   0.250   5.697 -1.4937  0.3224 -0.4844
  418MOL0     H57623   3.876   0.302   5.547  4.9606 -0.2381 -1.3736
  418MOL0     H57624   3.939   0.181   5.670 -3.5752 -3.1315  2.3075
  418MOL0     H57625   3.835   0.107   5.410 -0.7399  0.4219  1.0890
  418MOL0     H57626   3.923   0.008   5.522  1.0749  1.4792  2.1570
  418MOL0     H57627   4.036   0.214   5.334 -1.1305  0.7545 -0.7771
  418MOL0     H57628   4.113   0.207   5.490 -0.0509 -1.9043  1.7278
  418MOL0     H57629   4.070  -0.040   5.322  1.7722 -0.1514 -0.3657
  418MOL0     H57630   4.158  -0.037   5.474  1.9646  1.2249  0.6583
  418MOL0     H57631   4.294  -0.029   5.232 -0.1773 -0.0592 -0.9099
  418MOL0     H57632   4.248   0.137   5.234 -1.1360 -0.0295  1.0487
  418MOL0     H57633   4.414  -0.094   5.507 -0.5354 -0.0315 -1.5334
  418MOL0     H57634   4.654   0.086   5.726  0.6545 -0.8886 -0.4620
  418MOL0     H57635   4.560  -0.060   5.695  0.4975  0.1677  0.0991
  418MOL0     H57636   4.369   0.035   5.831 -0.3095  0.1427 -0.7152
  418MOL0     H57637   4.506   0.023   5.927 -0.8821  0.4392  0.6539
  418MOL0     H57638   4.555   0.287   5.918 -1.6923  2.3980 -0.2777
  418MOL0     H57639   4.432   0.296   5.795 -5.5474 -0.9102 -0.7525
  418MOL0     H57640   4.297   0.358   5.951  0.4426  0.2899  1.1723
  418MOL0     H57641   4.274   0.190   5.982  0.0139  0.2271  0.3719
  418MOL0     H57642   4.179   0.427   6.113  2.3767  0.3720 -1.7746
  418MOL0     H57643   4.052   0.657   6.299 -0.7570 -0.3933 -0.1858
  418MOL0     H57644   3.977   0.537   6.389 -1.3343 -1.1113 -0.9514
  418MOL0     H57645   3.994   0.528   6.209  2.6263  3.1330 -3.2164
  418MOL0     H57646   4.471   0.762   6.747 -0.1797  2.6721 -0.0468
  418MOL0     H57647   4.501   0.824   6.974  0.0363  1.7220 -2.2128
  418MOL0     H57648   4.361   0.785   7.371  0.3431  2.8200 -1.2178
  418MOL0     H57649   4.217   0.759   7.281  1.2465  0.0340 -1.3717
  418MOL0     H57650   4.273   0.515   7.277 -0.0736  1.4074 -1.1957
  418MOL0     H57651   4.426   0.536   7.365  1.0451  3.8910  1.2542
  418MOL0     H57652   4.156   0.608   7.490  0.3662  0.1525 -0.7007
  418MOL0     H57653   4.309   0.618   7.575  0.5233 -0.8568  1.5481
  418MOL0     H57654   4.340   0.390   7.583  0.8940  0.8741 -0.5698
  418MOL0     H57655   4.230   0.346   7.447 -0.9454 -1.4041  1.7264
  418MOL0     H57656   4.145   0.454   7.710  1.9116 -0.0810  0.0501
  418MOL0     H57657   4.035   0.386   7.583 -0.3335  4.1705  2.5960
  418MOL0     H57658   4.251   0.245   7.752  0.6647 -1.7398  0.5759
  418MOL0     H57659   4.182   0.165   7.607  1.4676 -0.8520  1.9798
  418MOL0     H57660   3.953   0.176   7.737 -0.7043  2.4845  1.7018
  418MOL0     H57661   4.056   0.226   7.875  0.1497 -0.4215 -0.2684
  418MOL0     H57662   4.026  -0.010   7.897  0.3326  1.0832  0.1110
  418MOL0     H57663   4.197   0.012   7.840  0.8738  2.1883 -1.6828
  418MOL0     H57664   4.196   0.566   7.098 -1.3783  1.1865 -1.1885
  418MOL0     H57665   4.146   0.497   6.848  0.9232  1.6845 -1.4680
  418MOL0     H57666   4.426   0.364   6.538 -0.4455 -4.3961 -0.2660
  418MOL0     H57667   4.501   0.255   6.313 -2.4825 -2.7170 -0.7805
  418MOL0     H57668   3.458  -0.006   5.941  0.8779 -0.7450 -0.6361
  418MOL0     H57669   3.318   0.127   6.100  0.9976 -0.5944 -0.2745
  418MOL0     H57670   2.856   0.329   6.030 -0.4793 -1.0958  1.4017
  418MOL0     H57671   2.655   0.404   6.144  1.0777 -2.3279 -3.0067
  418MOL0     H57672   2.608   0.803   6.343 -0.7328 -0.3005  0.9420
  418MOL0     H57673   2.644   0.734   6.174 -2.5620 -4.8832 -3.0999
  418MOL0     H57674   2.391   0.643   6.316 -1.0158  2.0100  1.6169
  418MOL0     H57675   2.452   0.609   6.153 -0.9399  2.8063 -1.6954
  418MOL0     H57676   2.325   0.852   6.274 -0.3494 -3.5060  1.0894
  418MOL0     H57677   2.435   0.889   6.146  0.3739  0.2009 -0.0478
  418MOL0     H57678   2.151   0.749   6.156  0.4618 -1.7636  0.9717
  418MOL0     H57679   2.265   0.687   6.026  2.0737  1.1765 -0.8515
  418MOL0     H57680   2.146   1.065   5.884  0.1220  0.9832  0.7528
  418MOL0     H57681   2.882   0.687   6.365 -3.1012  1.1433 -0.9462
  418MOL0     H57682   3.213   0.637   6.189 -0.8726 -0.1682 -0.4698
  418MOL0     H57683   3.126   0.716   6.325  0.5718  0.6065  0.2942
  418MOL0     H57684   3.191   0.550   6.339 -0.1006 -0.4921 -0.2085
  419MOL0     O57685   2.120   6.010   5.952  0.4028 -0.4412 -0.5663
  419MOL0     C57686   2.242   6.005   5.956 -0.4047  0.8291 -0.2671
  419MOL0     O57687   2.310   5.906   5.910  0.2044  0.2882 -0.5739
  419MOL0     C57688   2.250   5.785   5.905 -0.5245 -0.1733 -1.2640
  419MOL0     C57689   2.257   5.697   6.023  0.0716  0.0355  0.6168
  419MOL0     C57690   2.198   5.570   6.021  0.5847 -0.2095  0.0137
  419MOL0     C57691   2.155   5.521   5.894  0.2900  0.2624 -0.3868
  419MOL0     O57692   2.122   5.389   5.871  0.2144 -0.0202 -1.0749
  419MOL0     C57693   2.060   5.316   5.980  0.6833  0.0157 -0.3407
  419MOL0     C57694   1.919   5.361   6.009 -0.4840 -0.2895  0.1368
  419MOL0     C57695   1.845   5.252   6.094  0.3323  0.5891  0.7078
  419MOL0     C57696   1.731   5.307   6.166 -0.2874 -0.2444 -0.5816
  419MOL0     C57697   1.610   5.208   6.201  0.2464  0.1561  0.9569
  419MOL0     C57698   1.488   5.247   6.115 -0.5212  0.9852  0.1336
  419MOL0     C57699   1.365   5.173   6.167  1.6985  0.0257 -0.5097
  419MOL0     C57700   1.229   5.239   6.139  0.6784  0.7726 -0.4258
  419MOL0     N57701   1.221   5.265   5.997  0.2947  0.1774 -0.1393
  419MOL0     C57702   1.158   5.373   5.928 -0.4995  1.0329 -0.4857
  419MOL0     C57703   1.182   5.350   5.794  0.4537  0.5265  0.3878
  419MOL0     C57704   1.108   5.427   5.687 -0.4532 -0.6420  0.4590
  419MOL0     C57705   1.146   5.576   5.688 -0.3709 -0.4612 -0.5661
  419MOL0     C57706   1.074   5.635   5.572 -0.0559 -0.4868 -0.6304
  419MOL0     C57707   1.079   5.790   5.581 -0.1632 -0.7228  0.8342
  419MOL0     O57708   1.000   5.836   5.690 -0.0572  0.5741 -0.3021
  419MOL0     C57709   1.000   5.968   5.718  0.5903  0.2805 -0.5597
  419MOL0     C57710   0.957   6.010   5.847 -0.6407 -0.6949  0.0833
  419MOL0     C57711   0.967   6.144   5.896  0.7068 -0.7419 -0.2582
  419MOL0     C57712   0.927   6.157   6.036  0.4801 -0.1518 -0.7466
  419MOL0     C57713   1.016   6.243   5.818  0.0638 -0.2443  0.4897
  419MOL0     C57714   1.039   6.376   5.872 -0.1063 -0.1448  0.0267
  419MOL0     O57715   1.138   6.378   5.964 -0.1916  0.9608 -0.1977
  419MOL0     C57716   1.167   6.499   6.016  0.3455  0.0626 -0.8660
  419MOL0     C57717   1.101   6.536   6.135  0.1410 -0.2996  0.3298
  419MOL0     C57718   1.139   6.665   6.190 -0.8252  0.7235 -1.3790
  419MOL0     C57719   1.222   6.750   6.119 -0.5753  1.0430 -0.0812
  419MOL0     O57720   1.261   6.872   6.164  0.1217 -0.3114  0.6749
  419MOL0     C57721   1.403   6.882   6.192 -0.0992  0.9114  0.1558
  419MOL0     C57722   1.436   6.974   6.308  0.7309 -0.0024 -0.1123
  419MOL0     C57723   1.381   6.933   6.440 -0.3756  0.9480  0.0088
  419MOL0     C57724   1.367   7.050   6.547 -1.3316  0.0481  0.7176
  419MOL0     C57725   1.503   7.076   6.612 -0.5933 -0.2091 -0.7439
  419MOL0     C57726   1.476   7.202   6.719 -0.1747  0.2962  0.8114
  419MOL0     C57727   1.605   7.261   6.774  0.3704 -0.6691  0.2912
  419MOL0     C57728   1.695   7.161   6.834  0.3855 -0.7361  0.5379
  419MOL0    Cl57729   1.593   7.056   6.942 -0.4017  0.1203 -0.1210
  419MOL0     C57730   1.287   6.713   5.994 -0.0248  0.6203  0.5657
  419MOL0     C57731   1.255   6.582   5.947 -0.7143 -0.0518  0.6998
  419MOL0     O57732   0.997   6.471   5.809 -0.6060 -0.8819  0.2245
  419MOL0     C57733   1.039   6.211   5.683  0.1717 -0.5268  0.5417
  419MOL0     C57734   1.022   6.078   5.628 -0.9221  0.7959 -0.1901
  419MOL0     N57735   1.251   5.232   5.781  0.0750 -0.5085  0.7802
  419MOL0     N57736   1.274   5.179   5.903 -0.2003 -0.9490 -0.3222
  419MOL0     C57737   2.164   5.594   5.778  0.4755 -0.5423 -0.1747
  419MOL0     C57738   2.209   5.731   5.784 -0.2030 -0.1775  0.4261
  419MOL0     C57739   2.314   6.129   6.011 -0.9387  0.7281 -0.3776
  419MOL0     C57740   2.332   6.227   5.917 -0.0818  0.2830 -0.6087
  419MOL0     C57741   2.394   6.346   5.952  0.2224 -0.4493  1.2984
  419MOL0     C57742   2.449   6.371   6.074 -0.4792  0.5272 -0.3710
  419MOL0     O57743   2.494   6.499   6.114 -0.4424  1.0900  0.4395
  419MOL0     C57744   2.412   6.606   6.060  0.2670 -0.2813 -0.7181
  419MOL0     C57745   2.434   6.728   6.148  0.1240 -0.1348  1.4067
  419MOL0     C57746   2.359   6.729   6.284 -0.5664 -0.5899 -0.2152
  419MOL0     C57747   2.397   6.851   6.365  0.4278  0.0519 -0.0474
  419MOL0     C57748   2.543   6.872   6.366 -0.6030 -0.8991 -0.0983
  419MOL0     C57749   2.658   6.897   6.371  0.7411  0.6590 -0.4575
  419MOL0     C57750   2.423   6.276   6.176  0.0484 -0.2687  0.0422
  419MOL0     C57751   2.356   6.156   6.144 -0.1684  0.9905  0.1713
  419MOL0     C57752   2.333   6.053   6.253  0.2925  0.2765  0.0797
  419MOL0     H57753   2.285   5.716   6.126  0.4915 -3.1853  1.1982
  419MOL0     H57754   2.197   5.520   6.117 -0.0529 -0.8675 -0.3304
  419MOL0     H57755   2.120   5.309   6.071  1.9808  2.8590 -0.8825
  419MOL0     H57756   2.063   5.214   5.941 -0.3258 -0.8238  1.6465
  419MOL0     H57757   1.906   5.462   6.049 -1.0460  0.4238 -1.7404
  419MOL0     H57758   1.858   5.361   5.918 -3.4692 -1.4575  2.0044
  419MOL0     H57759   1.802   5.176   6.029  0.1223  2.1823 -1.1060
  419MOL0     H57760   1.914   5.199   6.161  1.7746 -0.1235 -1.2492
  419MOL0     H57761   1.769   5.366   6.250  0.7989 -1.7998  0.0736
  419MOL0     H57762   1.686   5.382   6.100  2.5174  1.3273 -0.9001
  419MOL0     H57763   1.591   5.219   6.308  2.4829 -1.9344  1.6669
  419MOL0     H57764   1.634   5.103   6.182  0.7948 -0.7465  5.5326
  419MOL0     H57765   1.460   5.352   6.132 -1.2930  0.4740  2.3981
  419MOL0     H57766   1.513   5.234   6.009  1.2028 -1.4335  0.7598
  419MOL0     H57767   1.376   5.164   6.276  1.7380 -2.4787 -0.6676
  419MOL0     H57768   1.369   5.067   6.140  0.5940 -0.5083  1.2704
  419MOL0     H57769   1.146   5.171   6.162 -0.8751  3.6143  3.2735
  419MOL0     H57770   1.233   5.332   6.195  2.7211  0.4571  0.0306
  419MOL0     H57771   1.102   5.449   5.983 -2.5547 -1.0140  0.4287
  419MOL0     H57772   1.004   5.396   5.701 -0.5367 -1.2061 -1.2326
  419MOL0     H57773   1.130   5.384   5.589 -3.2010 -1.2985  0.0617
  419MOL0     H57774   1.109   5.618   5.782  2.6520 -2.6938  1.8655
  419MOL0     H57775   1.252   5.599   5.679 -0.1118  0.3233  2.9688
  419MOL0     H57776   1.122   5.602   5.479  3.8695  1.8591  0.3178
  419MOL0     H57777   0.969   5.605   5.576 -0.0411 -0.4137  1.2887
  419MOL0     H57778   1.177   5.836   5.562 -0.5621 -0.4183 -0.6022
  419MOL0     H57779   1.025   5.820   5.491  2.9405  2.0677 -0.3001
  419MOL0     H57780   0.922   5.931   5.912 -0.9537  0.4193  1.3088
  419MOL0     H57781   1.000   6.201   6.105  0.0681 -0.2978 -0.2167
  419MOL0     H57782   0.882   6.073   6.089  1.3904  1.9047  3.8121
  419MOL0     H57783   0.846   6.231   6.036  2.9419  2.8148  0.8979
  419MOL0     H57784   1.027   6.474   6.186 -0.2021  1.7608  2.5286
  419MOL0     H57785   1.117   6.697   6.291 -0.2159  2.9403 -1.9092
  419MOL0     H57786   1.436   6.779   6.208 -2.5702 -0.0579 -0.4488
  419MOL0     H57787   1.453   6.918   6.101 -0.4916 -1.4743 -1.0751
  419MOL0     H57788   1.545   6.973   6.308  0.7379 -0.3635  1.0977
  419MOL0     H57789   1.401   7.077   6.291  3.0338  1.1596  1.5444
  419MOL0     H57790   1.446   6.853   6.476 -0.1690  0.9633 -0.3170
  419MOL0     H57791   1.286   6.880   6.430  0.5731 -1.7193  3.3209
  419MOL0     H57792   1.296   7.028   6.626  0.2861  2.0333  2.8501
  419MOL0     H57793   1.332   7.138   6.492  2.2170 -0.0403 -2.0994
  419MOL0     H57794   1.537   6.990   6.671 -0.2184 -0.2270 -0.9876
  419MOL0     H57795   1.572   7.086   6.528  2.6113  4.2258  1.9651
  419MOL0     H57796   1.402   7.160   6.788 -2.0549  2.4525  0.1816
  419MOL0     H57797   1.430   7.283   6.662 -3.6449 -2.9439 -1.4459
  419MOL0     H57798   1.574   7.339   6.844  2.1122  2.5799 -2.3231
  419MOL0     H57799   1.649   7.315   6.690 -0.6813  1.1559  0.8620
  419MOL0     H57800   1.785   7.207   6.876 -0.6320  3.2753 -1.1769
  419MOL0     H57801   1.728   7.100   6.748  2.3581  1.7988 -0.6306
  419MOL0     H57802   1.343   6.773   5.923 -1.4178  1.7363  0.3616
  419MOL0     H57803   1.310   6.541   5.863 -0.0640  0.3728  0.9132
  419MOL0     H57804   1.069   6.286   5.611 -1.9409 -1.3327 -1.3014
  419MOL0     H57805   1.060   6.061   5.528 -0.2613  1.1907 -0.0177
  419MOL0     H57806   2.144   5.541   5.685 -0.0172 -3.9024  1.6667
  419MOL0     H57807   2.210   5.796   5.697 -1.6625  1.2981  1.4367
  419MOL0     H57808   2.306   6.216   5.812  0.9653 -0.4795 -0.7975
  419MOL0     H57809   2.403   6.415   5.869  1.2879 -1.2276  0.7379
  419MOL0     H57810   2.432   6.631   5.956 -0.0942  1.0044 -0.4960
  419MOL0     H57811   2.305   6.599   6.082  0.1634  3.6141  1.0063
  419MOL0     H57812   2.413   6.807   6.076 -0.0619 -2.2968 -1.0373
  419MOL0     H57813   2.542   6.727   6.169  0.2678 -1.9871  0.7528
  419MOL0     H57814   2.250   6.733   6.269 -0.2267  0.1765 -3.0998
  419MOL0     H57815   2.380   6.630   6.324 -0.5646 -0.8892 -0.9507
  419MOL0     H57816   2.359   6.846   6.468  2.1894  0.6427  0.6591
  419MOL0     H57817   2.345   6.937   6.323 -1.1110  0.5788  2.6917
  419MOL0     H57818   2.762   6.917   6.386  1.1198 -2.2512  1.7568
  419MOL0     H57819   2.459   6.274   6.279  2.8831  1.1710 -0.8416
  419MOL0     H57820   2.338   6.115   6.343 -0.6946 -2.0314  1.8049
  419MOL0     H57821   2.232   6.011   6.248  1.6973 -3.6750  1.4475
  419MOL0     H57822   2.404   5.970   6.256 -1.8053 -1.6125 -0.2715
  420MOL0     O57823   4.053  10.213   0.918 -0.2551  0.1146 -0.1337
  420MOL0     C57824   3.943  10.247   0.962  0.2634  0.4637  0.6221
  420MOL0     O57825   3.915  10.351   1.046 -0.4959  0.0057  0.0340
  420MOL0     C57826   4.025  10.423   1.086  0.0090 -0.1890  0.1472
  420MOL0     C57827   4.083  10.521   1.009 -0.4498 -1.0322  0.2474
  420MOL0     C57828   4.183  10.603   1.066 -0.1176  0.7841 -0.2329
  420MOL0     C57829   4.235  10.585   1.194 -0.1357 -1.1910 -0.4389
  420MOL0     O57830   4.342  10.651   1.256 -0.1066 -0.1223  0.8575
  420MOL0     C57831   4.418  10.746   1.188 -0.3787 -1.2119  0.2364
  420MOL0     C57832   4.564  10.757   1.249  0.0298  0.6929 -0.4230
  420MOL0     C57833   4.561  10.755   1.404 -0.2633  0.2361  1.0193
  420MOL0     C57834   4.694  10.809   1.453  0.1079 -0.2792  0.6851
  420MOL0     C57835   4.708  10.808   1.602  0.0336  0.0070  0.4993
  420MOL0     C57836   4.734  10.680   1.672  0.2260 -0.5422 -0.2314
  420MOL0     C57837   4.850  10.604   1.618  0.4048 -0.2667  0.8067
  420MOL0     C57838   4.866  10.482   1.703  0.1191 -0.5009  0.1374
  420MOL0     N57839   4.956  10.477   1.822  0.1375  0.7052  0.0966
  420MOL0     C57840   4.965  10.358   1.885 -0.0095 -0.1646 -0.5114
  420MOL0     C57841   5.070  10.377   1.967 -0.4124 -0.7168  0.3774
  420MOL0     C57842   5.134  10.253   2.020  0.7351 -0.0149 -0.6227
  420MOL0     C57843   5.088  10.202   2.157  0.5704  0.9680  0.4874
  420MOL0     C57844   4.950  10.120   2.150  0.2299  0.6971 -0.8310
  420MOL0     C57845   4.896  10.087   2.289 -1.3768  0.1886 -0.0861
  420MOL0     O57846   4.763  10.065   2.301  0.4997  0.1277 -0.9574
  420MOL0     C57847   4.700   9.957   2.241 -0.5001 -0.1872  1.3447
  420MOL0     C57848   4.767   9.835   2.205 -0.6502  0.7182 -0.7948
  420MOL0     C57849   4.707   9.717   2.150 -0.0395 -0.1029 -0.9181
  420MOL0     C57850   4.793   9.594   2.129 -0.1156  0.6604  0.0712
  420MOL0     C57851   4.562   9.717   2.128 -0.1899 -0.5645 -0.4510
  420MOL0     C57852   4.477   9.611   2.068  0.8386 -0.1045 -1.0188
  420MOL0     O57853   4.515   9.479   2.081  0.4955  0.1772  0.1121
  420MOL0     C57854   4.460   9.380   1.997  0.1902  0.5356 -0.4675
  420MOL0     C57855   4.557   9.299   1.943 -0.5732 -0.2386 -0.5162
  420MOL0     C57856   4.527   9.209   1.839 -0.9962 -0.0965 -0.4969
  420MOL0     C57857   4.399   9.177   1.798  1.4651 -1.2626 -0.1669
  420MOL0     O57858   4.396   9.082   1.698  0.4145  0.3052  0.5665
  420MOL0     C57859   4.281   8.989   1.689 -0.3392  0.8091 -0.9310
  420MOL0     C57860   4.314   8.849   1.749  0.4004 -0.9592  0.6324
  420MOL0     C57861   4.361   8.851   1.903 -0.0877 -0.6035  0.0752
  420MOL0     C57862   4.370   8.715   1.964  0.0260 -0.3272 -0.1454
  420MOL0     C57863   4.230   8.664   2.007 -0.4634 -0.2717  0.1788
  420MOL0     C57864   4.216   8.515   1.994 -0.4267  0.3767 -0.1994
  420MOL0     C57865   4.062   8.475   1.994  0.4368  0.6257 -0.4091
  420MOL0     C57866   4.052   8.314   1.987 -0.9060 -0.8564 -0.6131
  420MOL0    Cl57867   4.087   8.265   1.816 -0.0287  0.0329 -0.6240
  420MOL0     C57868   4.290   9.231   1.882  0.1581 -0.5436  0.1884
  420MOL0     C57869   4.325   9.349   1.962  1.0063 -0.0955  0.1458
  420MOL0     O57870   4.371   9.650   2.025 -0.0625 -0.6129  0.3773
  420MOL0     C57871   4.500   9.833   2.174 -0.7430 -1.2578  0.0240
  420MOL0     C57872   4.559   9.952   2.237 -0.0286 -0.2411 -0.6511
  420MOL0     N57873   5.101  10.513   1.965  0.6331  0.8740  0.5373
  420MOL0     N57874   5.022  10.572   1.881 -0.1325 -0.3265  0.0801
  420MOL0     C57875   4.183  10.474   1.267 -1.2926  0.3734  0.6800
  420MOL0     C57876   4.082  10.390   1.216 -0.3327 -1.2522 -0.6104
  420MOL0     C57877   3.835  10.159   0.919  0.0513 -0.1927 -0.0277
  420MOL0     C57878   3.845  10.019   0.904  0.4067  0.1443  0.2333
  420MOL0     C57879   3.752   9.934   0.843  0.3138  0.4116 -0.2164
  420MOL0     C57880   3.634   9.991   0.797  0.6139  0.1108 -0.1982
  420MOL0     O57881   3.547   9.901   0.747 -0.7348 -0.3596  0.2050
  420MOL0     C57882   3.427   9.936   0.685  0.2175 -0.9091  1.9607
  420MOL0     C57883   3.441   9.925   0.526 -0.5359 -0.1380  0.0278
  420MOL0     C57884   3.510  10.051   0.460  0.3934  1.0812  0.0661
  420MOL0     C57885   3.565  10.016   0.322  0.7935 -0.0111 -0.3375
  420MOL0     C57886   3.458  10.014   0.221  1.0374 -0.8751 -0.5629
  420MOL0     C57887   3.348  10.022   0.167 -0.4854  0.5862  0.5833
  420MOL0     C57888   3.621  10.127   0.803 -0.1178  0.1344 -0.0437
  420MOL0     C57889   3.717  10.212   0.860 -1.1329 -0.0101  0.4936
  420MOL0     C57890   3.685  10.356   0.893  0.5540  0.2540 -0.4573
  420MOL0     H57891   4.041  10.519   0.909 -3.2396 -1.6576  1.3324
  420MOL0     H57892   4.208  10.688   1.003 -1.7583  1.5980  0.1518
  420MOL0     H57893   4.378  10.848   1.187  0.7854 -0.6881  1.6361
  420MOL0     H57894   4.421  10.698   1.090 -0.4398 -0.6519 -0.0458
  420MOL0     H57895   4.612  10.662   1.224 -0.3030  0.2448  0.6071
  420MOL0     H57896   4.618  10.842   1.207  4.1544 -1.5519 -0.1481
  420MOL0     H57897   4.485  10.815   1.454 -1.4353 -2.4265  2.6165
  420MOL0     H57898   4.550  10.652   1.437  2.2293  0.6114  3.3890
  420MOL0     H57899   4.783  10.762   1.412 -0.3940  0.5820 -1.5122
  420MOL0     H57900   4.694  10.910   1.411  1.7803 -0.0518  1.1619
  420MOL0     H57901   4.621  10.853   1.651 -1.7042 -0.2634 -2.1362
  420MOL0     H57902   4.791  10.872   1.633  0.0989  1.7166 -2.7843
  420MOL0     H57903   4.760  10.705   1.775  1.3830 -2.5268  0.0036
  420MOL0     H57904   4.638  10.629   1.669  0.1415 -0.4988  1.0200
  420MOL0     H57905   4.943  10.661   1.619 -0.6205  1.6614 -1.8585
  420MOL0     H57906   4.823  10.560   1.522  0.7520 -0.3667  0.7539
  420MOL0     H57907   4.766  10.457   1.742 -1.5357  4.1035 -0.5774
  420MOL0     H57908   4.898  10.400   1.637 -0.5952 -2.9883  2.6657
  420MOL0     H57909   4.922  10.263   1.855  0.6356 -1.5101  2.4394
  420MOL0     H57910   5.240  10.266   1.997  0.3999 -0.3810 -2.5132
  420MOL0     H57911   5.121  10.171   1.950  0.1608  0.0124 -0.5558
  420MOL0     H57912   5.168  10.136   2.189  0.7193  1.7750  1.8258
  420MOL0     H57913   5.069  10.279   2.233 -3.3538  1.1275 -0.4373
  420MOL0     H57914   4.871  10.174   2.096 -2.1660 -1.6543  0.0651
  420MOL0     H57915   4.970  10.024   2.101  1.0024 -1.0094  2.5250
  420MOL0     H57916   4.955  10.005   2.330  0.1587  0.6921 -1.2268
  420MOL0     H57917   4.916  10.175   2.351 -0.4182 -0.4442  0.5218
  420MOL0     H57918   4.872   9.827   2.230 -1.3185 -2.0471  1.8722
  420MOL0     H57919   4.898   9.621   2.139 -0.0246  1.1586 -1.7286
  420MOL0     H57920   4.786   9.579   2.020  0.2742  0.3134  0.0964
  420MOL0     H57921   4.775   9.500   2.180  4.8720  0.3315  1.7228
  420MOL0     H57922   4.660   9.318   1.973  0.4193  0.9203 -4.1371
  420MOL0     H57923   4.605   9.165   1.779 -0.0887 -0.0538  0.6285
  420MOL0     H57924   4.192   9.038   1.729 -0.5126 -1.5716  1.9606
  420MOL0     H57925   4.277   8.972   1.581  0.6105 -1.1446 -0.7146
  420MOL0     H57926   4.230   8.781   1.733 -1.0024  0.5033  1.5371
  420MOL0     H57927   4.403   8.810   1.699 -0.3323  1.5663 -3.0036
  420MOL0     H57928   4.285   8.906   1.959 -2.2702 -0.7968 -2.4682
  420MOL0     H57929   4.459   8.897   1.914  1.9128 -4.1952 -0.9720
  420MOL0     H57930   4.435   8.722   2.052  0.1184 -0.2919 -0.2158
  420MOL0     H57931   4.427   8.648   1.899  0.1359  0.7125 -1.1574
  420MOL0     H57932   4.208   8.703   2.107 -2.2262  2.8642 -1.2831
  420MOL0     H57933   4.173   8.722   1.933  3.3253 -0.8317 -3.5931
  420MOL0     H57934   4.278   8.467   2.071  2.4015  3.1270 -0.5310
  420MOL0     H57935   4.252   8.500   1.892 -1.2155  3.5754 -1.0788
  420MOL0     H57936   4.000   8.517   1.914  0.1436  2.0028  0.5095
  420MOL0     H57937   4.016   8.503   2.090  0.6819 -0.3726  0.0140
  420MOL0     H57938   3.949   8.288   2.012  0.1070 -3.2005  1.5586
  420MOL0     H57939   4.122   8.272   2.060  1.2283  1.2068 -1.3492
  420MOL0     H57940   4.184   9.220   1.862 -0.0719  0.8957  0.5108
  420MOL0     H57941   4.243   9.408   2.002  1.3738  0.9983 -0.6539
  420MOL0     H57942   4.392   9.842   2.181 -0.5489  1.4457  0.5642
  420MOL0     H57943   4.501  10.037   2.271  1.4152  0.9179 -0.9843
  420MOL0     H57944   4.227  10.448   1.363 -1.8582 -0.0368  0.8359
  420MOL0     H57945   4.036  10.308   1.270 -2.3306 -1.3138 -2.2804
  420MOL0     H57946   3.937   9.977   0.943 -0.3853 -2.7144 -0.6907
  420MOL0     H57947   3.781   9.829   0.844 -3.5175 -0.8353 -1.1285
  420MOL0     H57948   3.360   9.852   0.708 -4.2214  1.9924  0.8406
  420MOL0     H57949   3.365  10.019   0.719 -0.4294 -0.0624 -1.0189
  420MOL0     H57950   3.346   9.887   0.487 -1.0510 -3.0054  3.5470
  420MOL0     H57951   3.488   9.832   0.492 -2.0702 -0.9127 -0.0631
  420MOL0     H57952   3.434  10.128   0.450 -0.5068  0.4334  1.5319
  420MOL0     H57953   3.599  10.084   0.515  1.1990 -1.7925  0.6672
  420MOL0     H57954   3.626   9.925   0.318  0.0864 -0.5061  0.0071
  420MOL0     H57955   3.618  10.101   0.279  0.3113  0.1248 -0.6780
  420MOL0     H57956   3.254  10.025   0.118 -1.0189 -0.5799  1.4793
  420MOL0     H57957   3.533  10.182   0.770  0.0212 -0.5523 -1.6510
  420MOL0     H57958   3.586  10.384   0.856  0.3078 -0.4384 -0.3450
  420MOL0     H57959   3.699  10.359   1.001  1.9873  0.6075 -0.6266
  420MOL0     H57960   3.764  10.421   0.854 -0.1555  0.3236 -1.8738
  421MOL0     O57961   9.711   5.061   8.612  0.1717 -0.2813 -0.8192
  421MOL0     C57962   9.796   4.982   8.582 -0.2277  0.1422  0.3562
  421MOL0     O57963   9.910   5.009   8.509  0.3994 -0.3062 -0.8668
  421MOL0     C57964   9.946   5.141   8.513 -0.0835  0.3660 -0.4729
  421MOL0     C57965  10.010   5.182   8.398  0.4003  1.1160  0.8496
  421MOL0     C57966  10.040   5.309   8.373  0.1749 -1.5409 -0.0781
  421MOL0     C57967  10.018   5.406   8.468  0.5448 -0.5115 -0.8540
  421MOL0     O57968  10.056   5.534   8.459 -0.2312  0.3794  0.2922
  421MOL0     C57969  10.172   5.557   8.378 -0.3621 -0.4770  0.4026
  421MOL0     C57970  10.197   5.709   8.364 -0.0830 -0.7141 -0.0405
  421MOL0     C57971  10.334   5.747   8.292 -0.8427  0.3347 -0.1593
  421MOL0     C57972  10.327   5.697   8.146  0.3614  0.2843 -0.5923
  421MOL0     C57973  10.454   5.741   8.074 -0.1879 -0.9046 -0.2355
  421MOL0     C57974  10.440   5.729   7.913  0.2655  0.1306 -0.5784
  421MOL0     C57975  10.314   5.785   7.839  0.3391  0.4446 -0.7149
  421MOL0     C57976  10.351   5.828   7.694  0.3723  0.2288  0.0286
  421MOL0     N57977  10.416   5.721   7.615 -0.1298 -0.3497 -0.8424
  421MOL0     C57978  10.387   5.588   7.617  0.3799  0.3397 -0.6790
  421MOL0     C57979  10.497   5.525   7.588 -0.0720  1.1027  0.2263
  421MOL0     C57980  10.509   5.373   7.577  0.0134  0.5978  0.1814
  421MOL0     C57981  10.554   5.314   7.717  0.0157 -0.1490 -0.2670
  421MOL0     C57982  10.449   5.252   7.810 -0.0593  0.4753 -0.8233
  421MOL0     C57983  10.317   5.324   7.853  0.1619 -0.0841  0.6374
  421MOL0     O57984  10.220   5.219   7.883  0.1009  1.3882 -0.6585
  421MOL0     C57985  10.105   5.261   7.938  0.3346  0.1449  0.1051
  421MOL0     C57986  10.050   5.394   7.944 -0.8775  0.1002 -1.1922
  421MOL0     C57987   9.923   5.415   8.011 -0.2356  0.2955 -0.1149
  421MOL0     C57988   9.865   5.556   8.028  0.1361  0.1837 -0.4506
  421MOL0     C57989   9.858   5.302   8.070  0.5688 -0.8796  0.5889
  421MOL0     C57990   9.727   5.323   8.131  0.9961  0.3567  0.2313
  421MOL0     O57991   9.733   5.397   8.234  0.0240 -0.5097  0.7116
  421MOL0     C57992   9.617   5.430   8.295  0.1485 -0.3919 -0.5139
  421MOL0     C57993   9.530   5.531   8.255 -0.4838 -0.1611  0.0193
  421MOL0     C57994   9.432   5.570   8.348 -0.0545  0.7573  0.9126
  421MOL0     C57995   9.389   5.483   8.449  0.3106  0.3538  0.3510
  421MOL0     O57996   9.292   5.512   8.533  0.0955 -0.5362  0.5021
  421MOL0     C57997   9.281   5.455   8.663  0.6569  0.4779  0.2839
  421MOL0     C57998   9.370   5.543   8.761 -0.3976 -0.7067  0.4179
  421MOL0     C57999   9.294   5.663   8.806 -0.1180  0.6907  0.1587
  421MOL0     C58000   9.185   5.634   8.918 -0.5841  0.2921  0.9789
  421MOL0     C58001   9.121   5.756   8.967  0.3626 -0.2456 -0.4428
  421MOL0     C58002   9.088   5.764   9.115  0.0138  0.5206 -1.3302
  421MOL0     C58003   9.022   5.897   9.145 -0.1023  0.1503  0.7959
  421MOL0     C58004   8.986   5.931   9.291  0.2589 -0.0330  0.1104
  421MOL0    Cl58005   9.110   6.029   9.365 -0.5092 -0.0338 -0.4386
  421MOL0     C58006   9.478   5.379   8.477 -0.2726  1.2174  0.1242
  421MOL0     C58007   9.591   5.355   8.404 -0.4707 -0.3412 -0.0971
  421MOL0     O58008   9.620   5.268   8.082  0.4083 -0.2724  0.2593
  421MOL0     C58009   9.914   5.175   8.063  0.0491 -0.2715  0.7661
  421MOL0     C58010  10.036   5.155   7.996  0.0523  1.0194  1.2867
  421MOL0     N58011  10.593   5.620   7.566 -0.1620 -0.7025  0.4070
  421MOL0     N58012  10.550   5.734   7.586  0.8310  0.2346 -0.3350
  421MOL0     C58013   9.949   5.371   8.584 -0.4913  0.2761  0.5821
  421MOL0     C58014   9.919   5.239   8.610 -1.5389  0.6057  0.2845
  421MOL0     C58015   9.761   4.843   8.633  0.4635  0.2703  0.1698
  421MOL0     C58016   9.619   4.818   8.668  0.0575 -0.1894 -0.0234
  421MOL0     C58017   9.580   4.700   8.729 -0.8942 -0.0804 -0.2136
  421MOL0     C58018   9.673   4.590   8.744  1.0597 -0.0329  1.0076
  421MOL0     O58019   9.622   4.473   8.779 -0.5343 -0.1719 -0.1584
  421MOL0     C58020   9.712   4.358   8.802  0.0638 -0.2190 -0.0884
  421MOL0     C58021   9.635   4.229   8.826 -0.8218  1.2860 -0.1722
  421MOL0     C58022   9.562   4.239   8.965 -0.1238 -0.0372  0.1843
  421MOL0     C58023   9.504   4.106   9.017 -0.4176  0.5889  0.5483
  421MOL0     C58024   9.407   4.052   8.919  0.4959 -0.3923  0.3655
  421MOL0     C58025   9.328   3.978   8.853 -0.8882 -1.0601  0.4385
  421MOL0     C58026   9.807   4.619   8.719 -0.5329 -0.0741  0.5253
  421MOL0     C58027   9.854   4.740   8.661 -0.3890 -0.0121 -0.0570
  421MOL0     C58028  10.004   4.764   8.654  0.0937  0.1460 -0.2325
  421MOL0     H58029  10.018   5.107   8.320 -1.1959  2.9986 -1.2628
  421MOL0     H58030  10.067   5.331   8.271 -3.9439 -1.9639 -1.4346
  421MOL0     H58031  10.151   5.525   8.275  0.9092 -1.1068  0.3283
  421MOL0     H58032  10.262   5.511   8.419 -0.9396  0.6474  3.1324
  421MOL0     H58033  10.107   5.739   8.310  1.1585  1.7024 -0.8935
  421MOL0     H58034  10.193   5.769   8.455  1.2470  0.0916 -0.4863
  421MOL0     H58035  10.338   5.856   8.283  1.8088  0.2638 -0.5857
  421MOL0     H58036  10.418   5.707   8.349 -1.2493  0.3997  0.4982
  421MOL0     H58037  10.311   5.589   8.139 -4.1870  0.3702  3.4213
  421MOL0     H58038  10.239   5.738   8.095 -0.6604 -1.7628 -0.5337
  421MOL0     H58039  10.539   5.681   8.105  1.5599  1.8818  0.7653
  421MOL0     H58040  10.484   5.843   8.101  0.2766 -1.2133  0.4285
  421MOL0     H58041  10.531   5.760   7.861  1.4816  1.4898  2.1498
  421MOL0     H58042  10.443   5.620   7.906  1.4582  0.1159 -0.0104
  421MOL0     H58043  10.275   5.881   7.875  0.0627  1.0334 -2.5002
  421MOL0     H58044  10.227   5.719   7.839 -0.1574  1.0871 -0.4088
  421MOL0     H58045  10.268   5.869   7.636 -0.6399 -3.6075 -1.5510
  421MOL0     H58046  10.427   5.905   7.710  0.0085  0.7916 -0.8700
  421MOL0     H58047  10.286   5.555   7.638 -0.4562  2.5526 -1.0146
  421MOL0     H58048  10.589   5.354   7.505  2.1478  1.3218  2.2428
  421MOL0     H58049  10.417   5.325   7.540 -0.2371  3.2675 -3.1231
  421MOL0     H58050  10.636   5.242   7.703  0.8430 -0.3288  3.9419
  421MOL0     H58051  10.602   5.391   7.778  2.2530 -0.0239 -2.0610
  421MOL0     H58052  10.413   5.169   7.749 -2.3511  1.1548 -0.5306
  421MOL0     H58053  10.498   5.214   7.900 -0.0199  1.4160 -0.4339
  421MOL0     H58054  10.323   5.404   7.927  5.1481  0.1197  0.3093
  421MOL0     H58055  10.281   5.359   7.756  0.3283 -0.6610  0.3629
  421MOL0     H58056  10.096   5.474   7.886  2.4741 -1.0407 -0.3300
  421MOL0     H58057   9.886   5.596   8.128  3.2605 -2.9785  0.3620
  421MOL0     H58058   9.762   5.567   7.994  0.5148  3.5598 -0.8961
  421MOL0     H58059   9.929   5.623   7.969  2.2913  1.3509  2.8956
  421MOL0     H58060   9.559   5.586   8.165  0.2803 -0.8415 -0.1621
  421MOL0     H58061   9.378   5.661   8.327  0.2049  0.4422 -1.3356
  421MOL0     H58062   9.176   5.462   8.695  1.1261 -0.7923  2.2675
  421MOL0     H58063   9.303   5.348   8.662  0.0040  0.3208  1.3588
  421MOL0     H58064   9.416   5.494   8.847  0.7598  1.7882  1.3325
  421MOL0     H58065   9.457   5.578   8.704  0.4209 -0.4949  1.7476
  421MOL0     H58066   9.242   5.704   8.719  1.7730 -1.2572 -2.0381
  421MOL0     H58067   9.363   5.743   8.834  0.7927  0.4950 -1.3922
  421MOL0     H58068   9.237   5.574   8.993 -0.4750 -0.8537 -0.0036
  421MOL0     H58069   9.109   5.570   8.874  1.3572 -0.9185 -0.7770
  421MOL0     H58070   9.176   5.844   8.933 -0.9033  1.5890  1.9368
  421MOL0     H58071   9.033   5.780   8.907  0.0321 -0.4042 -0.0285
  421MOL0     H58072   9.174   5.747   9.180 -1.5598 -0.8525  0.5372
  421MOL0     H58073   9.016   5.684   9.134  0.0132  0.4244 -1.7228
  421MOL0     H58074   8.931   5.905   9.085  1.4298  0.5672 -1.6417
  421MOL0     H58075   9.082   5.978   9.101  0.0501 -0.3132  0.1369
  421MOL0     H58076   8.964   5.841   9.348 -3.0932  0.4124 -0.2723
  421MOL0     H58077   8.898   5.996   9.287 -1.1865 -1.9448 -3.1059
  421MOL0     H58078   9.467   5.313   8.563  0.9457  0.8789  0.0283
  421MOL0     H58079   9.672   5.287   8.426 -0.0329  0.4774  0.8911
  421MOL0     H58080   9.849   5.095   8.097 -0.5782  0.3326  1.0000
  421MOL0     H58081  10.082   5.056   8.002 -2.4728 -0.2154  1.5095
  421MOL0     H58082   9.924   5.451   8.653 -0.1754 -1.3085  2.6311
  421MOL0     H58083   9.874   5.219   8.706  0.2302  0.3888  1.1140
  421MOL0     H58084   9.546   4.896   8.654 -3.0449 -2.3240  2.6651
  421MOL0     H58085   9.473   4.681   8.733 -1.4152  2.2029 -1.6864
  421MOL0     H58086   9.753   4.350   8.701 -2.9611  1.9447 -1.6641
  421MOL0     H58087   9.783   4.354   8.885 -0.1025 -0.4348  0.0441
  421MOL0     H58088   9.702   4.143   8.828 -1.8464  0.4061 -1.6084
  421MOL0     H58089   9.558   4.216   8.749 -0.9896 -2.2827  0.4466
  421MOL0     H58090   9.632   4.284   9.036  0.8858 -0.1186 -0.7181
  421MOL0     H58091   9.484   4.314   8.953  0.9098  0.7681 -2.2337
  421MOL0     H58092   9.461   4.129   9.115  3.2227 -2.6672  3.2522
  421MOL0     H58093   9.587   4.036   9.034 -1.8463 -0.6403  3.1347
  421MOL0     H58094   9.257   3.925   8.793 -2.6110  0.5016  0.9697
  421MOL0     H58095   9.883   4.543   8.726 -1.9278 -1.4063  2.0502
  421MOL0     H58096  10.039   4.807   8.748 -3.0832  2.8647 -0.1161
  421MOL0     H58097  10.044   4.666   8.626 -3.2090 -1.3051 -0.3450
  421MOL0     H58098  10.034   4.824   8.568 -0.8665 -1.7575 -1.9700
  422MOL0     O58099   0.265   2.519   4.721 -0.5644 -0.2179  0.2661
  422MOL0     C58100   0.222   2.630   4.720  1.2960 -0.1282 -0.0636
  422MOL0     O58101   0.131   2.667   4.621  0.7789  0.6186  0.3318
  422MOL0     C58102   0.075   2.586   4.527 -0.2227 -0.0649 -0.8036
  422MOL0     C58103   0.113   2.606   4.399  0.3956  1.0344 -0.0826
  422MOL0     C58104   0.060   2.532   4.296 -0.4992  0.4192  0.4231
  422MOL0     C58105  -0.058   2.468   4.322 -0.1705  0.0828  0.1211
  422MOL0     O58106  -0.114   2.410   4.208  0.4406 -0.0278  0.8725
  422MOL0     C58107  -0.247   2.442   4.168 -0.1919 -0.0694 -0.2076
  422MOL0     C58108  -0.230   2.540   4.058  1.0389  0.4453 -0.2457
  422MOL0     C58109  -0.373   2.567   3.991 -0.1961 -0.4625 -0.3286
  422MOL0     C58110  -0.480   2.582   4.095 -0.6479  0.5137  0.2211
  422MOL0     C58111  -0.598   2.655   4.032  0.6424  0.0227  0.0056
  422MOL0     C58112  -0.697   2.698   4.151 -0.3910 -0.0890 -0.0136
  422MOL0     C58113  -0.670   2.829   4.226 -0.5034  0.4740  0.2612
  422MOL0     C58114  -0.747   2.821   4.355  0.1829  0.8750 -0.7077
  422MOL0     N58115  -0.696   2.729   4.466 -0.1112 -0.1665  0.7202
  422MOL0     C58116  -0.570   2.684   4.477 -0.4871  0.0306 -0.5477
  422MOL0     C58117  -0.564   2.609   4.588 -0.2813  0.6864  0.6671
  422MOL0     C58118  -0.443   2.531   4.642  0.2803  0.1746 -0.6235
  422MOL0     C58119  -0.466   2.504   4.790 -0.5410 -0.1030  0.6035
  422MOL0     C58120  -0.446   2.628   4.886 -0.1203  0.5542 -0.6014
  422MOL0     C58121  -0.296   2.635   4.903 -0.4668 -0.7209  0.2063
  422MOL0     O58122  -0.246   2.535   4.977 -0.4334  0.3537  0.1233
  422MOL0     C58123  -0.141   2.560   5.058 -0.4230 -0.1407 -0.0703
  422MOL0     C58124  -0.115   2.463   5.155  1.3477 -1.3944  0.5316
  422MOL0     C58125  -0.010   2.476   5.246 -0.9799 -0.7687 -0.7894
  422MOL0     C58126  -0.007   2.376   5.357  0.9306  0.6080 -0.2980
  422MOL0     C58127   0.074   2.592   5.238 -0.4183  1.0399 -0.2470
  422MOL0     C58128   0.179   2.626   5.341  0.6806 -0.3349 -0.1578
  422MOL0     O58129   0.152   2.602   5.472  0.3466 -0.4101  0.6596
  422MOL0     C58130   0.252   2.606   5.562 -0.3230  1.1313 -0.4374
  422MOL0     C58131   0.310   2.492   5.620 -0.0991 -0.2670 -0.3884
  422MOL0     C58132   0.401   2.509   5.725  0.5357 -0.7695  0.3005
  422MOL0     C58133   0.442   2.638   5.760  0.6664  0.7564 -0.2090
  422MOL0     O58134   0.533   2.662   5.863 -0.0983 -0.4149 -0.1676
  422MOL0     C58135   0.581   2.564   5.949  0.7996  1.2298  0.1905
  422MOL0     C58136   0.677   2.626   6.058 -0.1069 -0.9420  0.1519
  422MOL0     C58137   0.608   2.726   6.151 -0.2479 -0.5440 -0.5012
  422MOL0     C58138   0.479   2.668   6.207 -0.5116  0.7402  0.0046
  422MOL0     C58139   0.418   2.769   6.299  0.0762  0.7946  1.5516
  422MOL0     C58140   0.476   2.782   6.430  0.4500 -0.4092 -0.0993
  422MOL0     C58141   0.428   2.669   6.531 -0.1392  1.1377  0.9867
  422MOL0     C58142   0.543   2.621   6.613  0.4935 -0.0678  0.1233
  422MOL0    Cl58143   0.626   2.496   6.506  0.6077 -0.4203  0.5025
  422MOL0     C58144   0.400   2.748   5.692  0.4903  0.4431  0.0176
  422MOL0     C58145   0.309   2.724   5.591  1.1454  0.1807  0.4480
  422MOL0     O58146   0.284   2.675   5.292 -0.4542  0.6496 -0.3876
  422MOL0     C58147   0.057   2.693   5.139  0.0337 -0.4849  0.2707
  422MOL0     C58148  -0.042   2.661   5.041 -0.6376 -0.7684  0.9519
  422MOL0     N58149  -0.697   2.584   4.612 -0.0737  0.0734 -0.7812
  422MOL0     N58150  -0.777   2.656   4.546 -0.3598 -0.5175  0.0411
  422MOL0     C58151  -0.122   2.472   4.450  0.0475 -0.4200  0.0473
  422MOL0     C58152  -0.055   2.530   4.561  0.2583  0.8023 -0.1726
  422MOL0     C58153   0.286   2.737   4.795  0.6427 -0.9034 -0.7032
  422MOL0     C58154   0.241   2.861   4.763 -0.6503 -0.4699  0.0681
  422MOL0     C58155   0.289   2.975   4.835  0.5053  0.1567 -0.1134
  422MOL0     C58156   0.380   2.957   4.933 -0.0355 -0.0852 -1.2710
  422MOL0     O58157   0.459   3.056   4.982  1.2097 -0.0302  0.1240
  422MOL0     C58158   0.465   3.177   4.922 -0.3075  0.4720 -0.4477
  422MOL0     C58159   0.595   3.250   4.958  0.6059  0.1680  0.5691
  422MOL0     C58160   0.592   3.397   4.932  0.6073 -0.7871  0.2698
  422MOL0     C58161   0.732   3.453   4.961 -0.4691 -0.6112  0.2508
  422MOL0     C58162   0.751   3.486   5.103 -0.6642 -0.0250  0.3850
  422MOL0     C58163   0.760   3.520   5.220 -0.8436 -0.3503 -0.4888
  422MOL0     C58164   0.415   2.830   4.973 -0.3126 -0.0065 -0.0451
  422MOL0     C58165   0.369   2.715   4.903 -0.4243  0.7145 -0.7671
  422MOL0     C58166   0.401   2.578   4.965  0.9258 -0.1154 -0.2624
  422MOL0     H58167   0.195   2.669   4.365  2.3781 -0.0127  2.4427
  422MOL0     H58168   0.112   2.519   4.202 -1.5347  0.7693 -0.2078
  422MOL0     H58169  -0.302   2.486   4.251 -2.2135  0.7985 -1.9244
  422MOL0     H58170  -0.292   2.345   4.144 -0.1101 -0.3041  0.5509
  422MOL0     H58171  -0.200   2.636   4.102 -0.0916  0.3830  0.6851
  422MOL0     H58172  -0.157   2.513   3.981  1.3377  0.8724 -0.1181
  422MOL0     H58173  -0.367   2.656   3.928 -3.6540  0.3510  0.2641
  422MOL0     H58174  -0.393   2.482   3.925  2.7509 -1.0241 -0.6316
  422MOL0     H58175  -0.501   2.488   4.146 -0.6718  1.2136  1.5377
  422MOL0     H58176  -0.448   2.651   4.174 -0.6187  0.7235  0.0300
  422MOL0     H58177  -0.640   2.586   3.958 -0.3513  1.2537 -0.6039
  422MOL0     H58178  -0.578   2.748   3.978  0.1821  1.1827  1.7452
  422MOL0     H58179  -0.799   2.714   4.115 -0.0969  2.9265  0.2637
  422MOL0     H58180  -0.698   2.618   4.226  0.7055 -1.1974 -1.1339
  422MOL0     H58181  -0.705   2.914   4.166  3.0591  1.3505 -0.8314
  422MOL0     H58182  -0.561   2.839   4.234 -0.3701 -1.3302  1.2185
  422MOL0     H58183  -0.740   2.921   4.401 -0.6449  0.3253  0.6920
  422MOL0     H58184  -0.849   2.787   4.340  1.0181 -2.3680  0.2229
  422MOL0     H58185  -0.477   2.699   4.424 -0.0538 -2.4461 -0.5767
  422MOL0     H58186  -0.352   2.591   4.632 -0.3612  1.4031  0.5457
  422MOL0     H58187  -0.437   2.435   4.590 -1.8319 -0.1478 -0.3774
  422MOL0     H58188  -0.564   2.462   4.814 -1.6391  0.7470 -2.0299
  422MOL0     H58189  -0.405   2.415   4.809 -1.8060 -1.2440 -0.3864
  422MOL0     H58190  -0.479   2.727   4.852 -1.8221 -0.4546 -2.0850
  422MOL0     H58191  -0.493   2.606   4.982 -0.1261 -1.1175 -0.9522
  422MOL0     H58192  -0.236   2.627   4.812  2.1430  0.7857  1.6791
  422MOL0     H58193  -0.283   2.733   4.951 -1.7032 -1.1120  1.4095
  422MOL0     H58194  -0.191   2.386   5.163 -0.3009  0.3333  4.0876
  422MOL0     H58195  -0.038   2.276   5.324  1.4222  0.3489  0.0072
  422MOL0     H58196  -0.064   2.408   5.444  0.7814 -0.9541  0.2185
  422MOL0     H58197   0.096   2.361   5.392  0.9496 -0.1503 -0.6579
  422MOL0     H58198   0.275   2.395   5.587  1.2083 -1.1344  0.6780
  422MOL0     H58199   0.442   2.423   5.777  3.9020  1.1524  1.2009
  422MOL0     H58200   0.506   2.505   6.001  4.7899 -2.5621  2.3644
  422MOL0     H58201   0.634   2.497   5.881 -1.7131  0.6603 -1.2964
  422MOL0     H58202   0.722   2.539   6.106 -0.2413 -1.7468 -1.1130
  422MOL0     H58203   0.756   2.685   6.011  0.3503  0.1711  2.1793
  422MOL0     H58204   0.574   2.805   6.083 -0.0473 -1.4465 -1.6719
  422MOL0     H58205   0.683   2.751   6.227  2.2110 -1.6104 -2.4527
  422MOL0     H58206   0.496   2.577   6.264 -3.1887 -0.6108 -1.2055
  422MOL0     H58207   0.410   2.644   6.126 -1.1366  0.0785  0.7201
  422MOL0     H58208   0.410   2.870   6.259 -0.2565 -0.5597 -2.2588
  422MOL0     H58209   0.313   2.737   6.302  0.6678 -1.8293 -0.8849
  422MOL0     H58210   0.428   2.875   6.463  0.4980 -0.4383  0.0497
  422MOL0     H58211   0.584   2.797   6.431  0.4312  0.8002  4.3423
  422MOL0     H58212   0.398   2.581   6.473  0.4506  1.3956  0.2814
  422MOL0     H58213   0.341   2.705   6.587 -0.9059  2.0159 -0.6922
  422MOL0     H58214   0.512   2.585   6.712 -1.8237 -0.4026 -0.6617
  422MOL0     H58215   0.621   2.697   6.622  1.1962 -0.6729 -0.6087
  422MOL0     H58216   0.440   2.846   5.712  1.3236  0.2676 -0.6944
  422MOL0     H58217   0.258   2.813   5.556  1.1901 -0.5577 -1.5900
  422MOL0     H58218   0.104   2.790   5.134  5.5640 -2.8472 -2.2529
  422MOL0     H58219  -0.032   2.729   4.957 -1.5779 -0.6900  0.8961
  422MOL0     H58220  -0.212   2.417   4.473 -0.2676 -1.9696 -4.1046
  422MOL0     H58221  -0.092   2.521   4.662  0.5727  0.9659 -0.0436
  422MOL0     H58222   0.181   2.893   4.678  0.3746  0.4464 -0.3372
  422MOL0     H58223   0.256   3.074   4.804 -1.3220 -0.8515 -1.5725
  422MOL0     H58224   0.477   3.150   4.817  3.3075 -2.1151  0.4121
  422MOL0     H58225   0.380   3.239   4.954  0.9333  0.3624  3.6269
  422MOL0     H58226   0.684   3.205   4.912  0.6083  0.1923  0.5500
  422MOL0     H58227   0.598   3.232   5.066  0.2469  1.4286  0.8005
  422MOL0     H58228   0.566   3.411   4.826  1.9238 -1.8881 -0.2392
  422MOL0     H58229   0.514   3.439   4.995  0.8944  3.9413 -2.0894
  422MOL0     H58230   0.751   3.533   4.888  0.7726 -0.0882  1.1240
  422MOL0     H58231   0.811   3.380   4.942 -2.7044 -3.2046  0.3459
  422MOL0     H58232   0.758   3.545   5.324  2.1322 -1.7123  0.0114
  422MOL0     H58233   0.485   2.819   5.056 -2.2999  1.1499  1.9055
  422MOL0     H58234   0.483   2.525   4.915  0.8013 -0.7760  0.2097
  422MOL0     H58235   0.428   2.584   5.071  1.0796 -2.3167 -0.1239
  422MOL0     H58236   0.316   2.509   4.967  2.1426 -1.8263  3.9412
  423MOL0     O58237   7.639   5.200   7.597  0.4683 -0.1928 -0.8050
  423MOL0     C58238   7.557   5.286   7.581 -0.4367 -0.1264  0.6390
  423MOL0     O58239   7.426   5.283   7.613 -0.7876 -0.5631 -0.0558
  423MOL0     C58240   7.370   5.158   7.641 -0.4121 -0.6960 -0.0358
  423MOL0     C58241   7.269   5.109   7.561 -1.2379  0.2065  0.5771
  423MOL0     C58242   7.222   4.974   7.578 -2.2589 -0.3719  0.6196
  423MOL0     C58243   7.278   4.884   7.673 -0.2758  0.8632 -0.0019
  423MOL0     O58244   7.250   4.750   7.649  0.1295  0.0820  0.7971
  423MOL0     C58245   7.287   4.635   7.726 -0.7335 -0.0386  0.3306
  423MOL0     C58246   7.231   4.631   7.875 -0.8265 -0.0878  0.5660
  423MOL0     C58247   7.308   4.548   7.971  0.5660  0.2643  0.9217
  423MOL0     C58248   7.340   4.409   7.909 -0.6480 -0.6578 -0.0316
  423MOL0     C58249   7.408   4.324   8.013 -0.5570  0.1716  0.2299
  423MOL0     C58250   7.463   4.202   7.955  0.3993 -0.1819  0.9267
  423MOL0     C58251   7.489   4.097   8.067  0.2718  0.3813 -0.2274
  423MOL0     C58252   7.486   3.952   8.009 -0.5966 -0.0453  0.2666
  423MOL0     N58253   7.577   3.934   7.888  0.3056 -0.1505 -0.4116
  423MOL0     C58254   7.713   3.961   7.884 -0.1878  0.0194 -0.0485
  423MOL0     C58255   7.745   3.943   7.754 -0.7742 -0.1122  0.5568
  423MOL0     C58256   7.894   3.947   7.709  0.0326  0.3249  0.2222
  423MOL0     C58257   7.969   3.822   7.756 -0.9394 -1.2516 -0.0549
  423MOL0     C58258   7.951   3.717   7.647 -0.1561  0.2372  0.2534
  423MOL0     C58259   8.053   3.725   7.535  0.8536  0.3655  0.2446
  423MOL0     O58260   8.183   3.659   7.554 -0.1140  1.4732  0.5712
  423MOL0     C58261   8.272   3.658   7.447  0.3815 -0.1805 -0.7435
  423MOL0     C58262   8.243   3.654   7.316 -0.4104 -0.1668 -0.0165
  423MOL0     C58263   8.344   3.655   7.226  0.0673  0.5002  1.1074
  423MOL0     C58264   8.306   3.646   7.080  0.9691 -0.3160 -1.1803
  423MOL0     C58265   8.478   3.658   7.259 -0.4423  1.0373  0.3918
  423MOL0     C58266   8.593   3.654   7.163 -0.6685  0.0585  0.4538
  423MOL0     O58267   8.709   3.627   7.218 -0.1510 -0.5281 -0.9992
  423MOL0     C58268   8.829   3.615   7.155 -0.1982 -0.4296 -0.1289
  423MOL0     C58269   8.928   3.693   7.201 -0.2627 -0.9922  1.2278
  423MOL0     C58270   9.057   3.686   7.145  1.0862  0.0274 -0.8329
  423MOL0     C58271   9.089   3.604   7.038 -0.2832 -0.1710 -0.5170
  423MOL0     O58272   9.207   3.595   6.971 -0.1286  0.5500  0.2528
  423MOL0     C58273   9.332   3.594   7.038  1.0248  0.8834  0.3222
  423MOL0     C58274   9.449   3.547   6.956 -0.3056  0.0775  0.1564
  423MOL0     C58275   9.571   3.550   7.048  0.5661 -0.4435  0.1733
  423MOL0     C58276   9.687   3.525   6.952  0.7389  0.0670 -0.7632
  423MOL0     C58277   9.807   3.495   7.039  0.2569 -0.3661 -0.5906
  423MOL0     C58278   9.921   3.441   6.952 -0.4375  0.3221  0.0417
  423MOL0     C58279  10.035   3.395   7.046  0.4846  0.3092  0.5808
  423MOL0     C58280  10.160   3.358   6.979  0.0483 -0.1271  0.1180
  423MOL0    Cl58281  10.228   3.489   6.878  0.0327 -0.2562  0.4172
  423MOL0     C58282   8.992   3.512   6.991 -1.2669 -0.0971 -0.1563
  423MOL0     C58283   8.865   3.527   7.047  0.5109  0.0634 -0.0494
  423MOL0     O58284   8.576   3.680   7.042 -0.2881  0.0465  0.0870
  423MOL0     C58285   8.504   3.666   7.400  0.1240 -0.0340  0.8283
  423MOL0     C58286   8.401   3.663   7.493  0.5713  0.2565  1.0521
  423MOL0     N58287   7.629   3.921   7.677 -0.1818  0.0033 -0.0162
  423MOL0     N58288   7.526   3.920   7.753 -0.0586 -0.1082  0.6851
  423MOL0     C58289   7.383   4.937   7.749 -0.2551  0.3484  0.7993
  423MOL0     C58290   7.426   5.070   7.736 -0.1756 -0.3668 -0.9125
  423MOL0     C58291   7.597   5.411   7.514 -0.4683  0.2949  0.0024
  423MOL0     C58292   7.511   5.524   7.514  0.0630  0.7968 -0.0229
  423MOL0     C58293   7.547   5.630   7.441  0.5725 -0.5719 -0.2235
  423MOL0     C58294   7.671   5.644   7.380  1.1350 -0.1093  0.2474
  423MOL0     O58295   7.737   5.755   7.339  0.5038  0.0083  0.3479
  423MOL0     C58296   7.662   5.878   7.311  0.0264  0.5261 -0.6454
  423MOL0     C58297   7.587   5.871   7.178  0.4155  0.7302 -0.1024
  423MOL0     C58298   7.688   5.889   7.065  1.0846 -0.3891  0.2031
  423MOL0     C58299   7.605   5.880   6.931  0.5601 -0.2843  0.9234
  423MOL0     C58300   7.687   5.839   6.809 -0.3444 -0.0198 -0.9653
  423MOL0     C58301   7.754   5.806   6.711  1.3757  0.4820  1.0775
  423MOL0     C58302   7.758   5.543   7.389  0.3926  0.2505  0.6113
  423MOL0     C58303   7.719   5.419   7.445 -0.0423 -0.3283  0.0438
  423MOL0     C58304   7.817   5.305   7.437 -0.2683  0.1266  0.2342
  423MOL0     H58305   7.228   5.168   7.480  0.5001 -0.4669 -0.8404
  423MOL0     H58306   7.146   4.929   7.514 -0.1949 -1.6681 -1.0567
  423MOL0     H58307   7.397   4.629   7.723 -0.5921  1.7534 -2.0974
  423MOL0     H58308   7.254   4.543   7.677  0.1303 -0.9670  1.4323
  423MOL0     H58309   7.235   4.735   7.905 -0.6702 -0.3808  1.5834
  423MOL0     H58310   7.128   4.594   7.867 -0.0567 -2.6185  1.2215
  423MOL0     H58311   7.402   4.597   7.999  0.0106  0.6932  2.0768
  423MOL0     H58312   7.249   4.528   8.061 -0.3273 -0.8739  0.1211
  423MOL0     H58313   7.248   4.354   7.888  0.6615 -2.5739 -1.1343
  423MOL0     H58314   7.398   4.419   7.817  0.1419 -1.6496  0.3344
  423MOL0     H58315   7.327   4.299   8.082 -1.7222  2.0999 -0.3636
  423MOL0     H58316   7.482   4.371   8.077  1.2443 -0.1584 -1.4919
  423MOL0     H58317   7.402   4.168   7.870  0.6718  0.3020  0.5294
  423MOL0     H58318   7.556   4.226   7.902 -0.5580  1.8430  0.0566
  423MOL0     H58319   7.406   4.093   8.139 -0.0011 -0.4907 -0.5695
  423MOL0     H58320   7.579   4.120   8.124  0.3797  4.0803 -1.6366
  423MOL0     H58321   7.506   3.897   8.102  0.3712  0.5715  0.4277
  423MOL0     H58322   7.381   3.935   7.980 -0.3181 -1.0077 -0.2059
  423MOL0     H58323   7.780   3.975   7.968 -0.7318  0.3435  0.3481
  423MOL0     H58324   7.945   4.020   7.773 -0.1844 -0.4256  1.2730
  423MOL0     H58325   7.897   3.968   7.601 -3.1141  0.4766  0.0756
  423MOL0     H58326   8.077   3.841   7.757 -1.1370 -0.0286  1.3146
  423MOL0     H58327   7.933   3.789   7.854 -1.1150 -0.0355  0.3010
  423MOL0     H58328   7.978   3.621   7.691 -0.4543 -1.0677 -2.2335
  423MOL0     H58329   7.846   3.702   7.618  0.0812 -1.9931  0.4138
  423MOL0     H58330   8.004   3.683   7.447  0.9124  0.4322  0.1800
  423MOL0     H58331   8.070   3.829   7.506 -1.3339  0.6320 -0.2751
  423MOL0     H58332   8.140   3.642   7.284 -0.0580  1.5576 -1.9403
  423MOL0     H58333   8.309   3.746   7.035 -0.1049  0.6661  0.7737
  423MOL0     H58334   8.200   3.619   7.077  0.4959  1.4725 -2.4831
  423MOL0     H58335   8.360   3.571   7.022  1.8049  0.2103 -1.1026
  423MOL0     H58336   8.909   3.757   7.286  1.4071  0.4638  0.5624
  423MOL0     H58337   9.122   3.740   7.213 -0.9915  1.1109  0.4025
  423MOL0     H58338   9.348   3.699   7.067  0.8380  1.2896 -1.0092
  423MOL0     H58339   9.318   3.546   7.135 -1.3148  2.3151  0.7779
  423MOL0     H58340   9.419   3.451   6.912  1.8063  0.5633 -2.5396
  423MOL0     H58341   9.463   3.603   6.864 -2.0702  1.2140  0.5233
  423MOL0     H58342   9.559   3.475   7.127 -1.2417 -0.5785 -0.1894
  423MOL0     H58343   9.588   3.649   7.092 -2.6255  0.9056 -1.2887
  423MOL0     H58344   9.710   3.615   6.894  6.2786  0.7000  1.7975
  423MOL0     H58345   9.675   3.435   6.890  4.7924 -1.0919 -0.1501
  423MOL0     H58346   9.834   3.582   7.100 -0.4148 -1.8679  1.9629
  423MOL0     H58347   9.775   3.419   7.111 -2.0375  3.0796  2.3987
  423MOL0     H58348   9.949   3.524   6.887 -2.4793  2.7150  1.9890
  423MOL0     H58349   9.878   3.361   6.891 -2.8677  0.2898  1.6563
  423MOL0     H58350   9.998   3.306   7.097  0.0669  0.6102  0.8099
  423MOL0     H58351  10.055   3.474   7.120  0.1279  1.7648 -0.8102
  423MOL0     H58352  10.150   3.273   6.912 -1.6671 -0.4462  0.7144
  423MOL0     H58353  10.228   3.330   7.060  0.3061  2.9046  1.0791
  423MOL0     H58354   9.011   3.444   6.909 -2.1087 -0.9525  0.3379
  423MOL0     H58355   8.792   3.459   7.004  1.0891 -1.2171  0.9433
  423MOL0     H58356   8.602   3.684   7.443 -0.3078 -1.4957  2.5404
  423MOL0     H58357   8.410   3.668   7.601 -0.7305 -1.4756  1.2749
  423MOL0     H58358   7.444   4.870   7.808  0.6066 -0.9686 -1.4503
  423MOL0     H58359   7.518   5.104   7.784 -0.4052 -0.0285 -0.7023
  423MOL0     H58360   7.420   5.541   7.571  0.5294  0.5091  0.8283
  423MOL0     H58361   7.486   5.719   7.445  0.4576 -0.6959  1.1206
  423MOL0     H58362   7.594   5.890   7.395  1.9266 -1.3145  1.2909
  423MOL0     H58363   7.731   5.963   7.314  2.7558 -1.5579 -0.2483
  423MOL0     H58364   7.513   5.951   7.178  1.7282  1.9842 -0.8604
  423MOL0     H58365   7.528   5.780   7.163  2.8823 -0.6693 -2.2302
  423MOL0     H58366   7.739   5.986   7.072 -0.0272  0.1481  1.4991
  423MOL0     H58367   7.765   5.812   7.068  1.1089 -0.3893 -0.2801
  423MOL0     H58368   7.561   5.977   6.906 -0.3772 -0.4681  1.8112
  423MOL0     H58369   7.529   5.802   6.944 -0.1788 -0.4393 -3.0455
  423MOL0     H58370   7.799   5.775   6.619 -2.2024  4.0394 -2.2856
  423MOL0     H58371   7.851   5.557   7.335  2.0538 -2.2125  2.5606
  423MOL0     H58372   7.775   5.205   7.419 -1.0494  0.5436 -0.2979
  423MOL0     H58373   7.894   5.323   7.362  0.6549  1.1577  1.3762
  423MOL0     H58374   7.873   5.310   7.531 -2.8267  0.0711  1.8439
  424MOL0     O58375   5.981   7.609   7.930  0.3024  0.1873 -0.2116
  424MOL0     C58376   6.092   7.649   7.967  0.6631  0.2122  0.4781
  424MOL0     O58377   6.208   7.616   7.912  0.2233  0.4876  0.5514
  424MOL0     C58378   6.231   7.526   7.808  0.5318  0.9655 -0.1635
  424MOL0     C58379   6.348   7.458   7.807 -0.2811 -0.4172  0.1850
  424MOL0     C58380   6.367   7.358   7.713  0.4260  0.1527 -0.2671
  424MOL0     C58381   6.274   7.316   7.616 -0.5610  0.1232  0.0301
  424MOL0     O58382   6.294   7.222   7.521 -0.2125  0.3875  0.9303
  424MOL0     C58383   6.423   7.181   7.483 -0.7388  0.3705 -0.6071
  424MOL0     C58384   6.417   7.113   7.341  0.0610  0.2086 -0.6352
  424MOL0     C58385   6.559   7.093   7.281  0.4846  0.4974 -0.0957
  424MOL0     C58386   6.624   6.974   7.349  1.5643  0.0505  0.7095
  424MOL0     C58387   6.589   6.840   7.272  0.7666  0.5494 -0.3686
  424MOL0     C58388   6.675   6.730   7.352 -0.0241  0.0945 -0.1233
  424MOL0     C58389   6.677   6.584   7.287  0.0066  0.3383  0.0389
  424MOL0     C58390   6.534   6.530   7.260 -0.2142  0.8374  0.7582
  424MOL0     N58391   6.487   6.544   7.124 -0.0223  0.5258 -0.3288
  424MOL0     C58392   6.578   6.544   7.017 -1.0693  0.3507  0.0367
  424MOL0     C58393   6.509   6.623   6.927 -1.0316  0.1941 -0.0001
  424MOL0     C58394   6.572   6.664   6.799 -0.1749 -0.8876 -0.2217
  424MOL0     C58395   6.662   6.788   6.802  0.1026  0.2209  0.3615
  424MOL0     C58396   6.590   6.923   6.819  0.3231  0.1910  0.5130
  424MOL0     C58397   6.702   7.037   6.816 -0.2603 -1.3396 -0.3535
  424MOL0     O58398   6.780   7.048   6.694  0.0646  1.0430 -0.1853
  424MOL0     C58399   6.745   7.096   6.574  0.5355  0.4458 -0.1123
  424MOL0     C58400   6.843   7.104   6.482  0.7166  0.6264 -0.9599
  424MOL0     C58401   6.816   7.151   6.355  0.2398 -0.1323 -0.1582
  424MOL0     C58402   6.930   7.124   6.253  0.1584  0.1747  0.1715
  424MOL0     C58403   6.688   7.189   6.319  0.0045  0.0321 -0.3679
  424MOL0     C58404   6.660   7.242   6.183  0.3303 -0.6753 -0.4078
  424MOL0     O58405   6.748   7.213   6.077  0.0551  0.4889  0.1602
  424MOL0     C58406   6.720   7.235   5.939  1.3921  1.1999 -0.1053
  424MOL0     C58407   6.798   7.164   5.850 -0.4018 -0.1128  0.2581
  424MOL0     C58408   6.785   7.172   5.712  0.2734 -1.6382  0.1797
  424MOL0     C58409   6.697   7.262   5.652 -0.2491  0.5526  0.2489
  424MOL0     O58410   6.662   7.266   5.515  0.1240 -0.1663 -0.3711
  424MOL0     C58411   6.634   7.388   5.457 -0.4364 -0.3986 -0.2983
  424MOL0     C58412   6.625   7.377   5.301  0.0013  0.0500 -0.1438
  424MOL0     C58413   6.749   7.323   5.218  0.2521  0.1719  0.2019
  424MOL0     C58414   6.839   7.444   5.190 -0.2470  0.0632 -0.2501
  424MOL0     C58415   6.981   7.398   5.152 -0.5016  0.6736 -0.5884
  424MOL0     C58416   7.087   7.505   5.157 -0.3621  0.3276 -0.4545
  424MOL0     C58417   7.073   7.603   5.046  0.2777  0.4785 -0.0219
  424MOL0     C58418   7.139   7.738   5.059 -1.1973 -0.2378 -0.2277
  424MOL0    Cl58419   7.074   7.837   4.924 -0.1384  0.0161  0.3196
  424MOL0     C58420   6.619   7.333   5.742 -0.3410  1.0540  0.1716
  424MOL0     C58421   6.618   7.319   5.881  0.3513  0.2228 -0.5975
  424MOL0     O58422   6.564   7.310   6.171  0.2049 -0.7905 -0.2603
  424MOL0     C58423   6.595   7.182   6.418 -0.2539 -0.0475  1.8603
  424MOL0     C58424   6.617   7.132   6.541  0.3823  0.3961  0.1646
  424MOL0     N58425   6.390   6.664   6.988 -0.1359 -0.3770  0.0946
  424MOL0     N58426   6.380   6.619   7.101 -0.1478  0.4989 -1.2109
  424MOL0     C58427   6.151   7.378   7.629  0.7664 -0.6161 -0.0495
  424MOL0     C58428   6.123   7.484   7.727 -1.2022 -0.3398  0.0088
  424MOL0     C58429   6.095   7.755   8.068 -0.3511  1.0756  0.8401
  424MOL0     C58430   5.985   7.859   8.059 -0.6792  0.2057 -0.4529
  424MOL0     C58431   5.990   7.964   8.151  0.3639 -1.2032  0.0191
  424MOL0     C58432   6.098   7.976   8.248  0.2141 -0.0478  0.0952
  424MOL0     O58433   6.103   8.083   8.333 -0.7680  0.0481  0.1288
  424MOL0     C58434   5.992   8.175   8.352  0.4271  0.2794 -0.4796
  424MOL0     C58435   6.017   8.270   8.469 -0.9423 -0.2006  0.8898
  424MOL0     C58436   5.884   8.335   8.523  0.5402  0.0967  0.0567
  424MOL0     C58437   5.884   8.351   8.674 -0.1623  0.2247 -0.6009
  424MOL0     C58438   5.965   8.460   8.712 -0.2148  0.1660  0.6669
  424MOL0     C58439   6.034   8.547   8.757  0.6683 -0.5100  0.0505
  424MOL0     C58440   6.189   7.870   8.258  0.2599  0.8519  0.6463
  424MOL0     C58441   6.192   7.761   8.167  0.2590 -0.7416  0.1831
  424MOL0     C58442   6.304   7.654   8.176  0.0949 -0.0084 -0.1426
  424MOL0     H58443   6.432   7.493   7.867 -3.2995 -0.8549  5.1747
  424MOL0     H58444   6.469   7.319   7.710  1.4731  2.7051 -2.7079
  424MOL0     H58445   6.475   7.125   7.561 -2.4355 -1.2233 -0.5525
  424MOL0     H58446   6.482   7.272   7.470 -0.0478 -0.1868 -1.4365
  424MOL0     H58447   6.342   7.033   7.336 -2.5213  2.3509  0.9891
  424MOL0     H58448   6.365   7.184   7.277 -0.3256 -2.5095 -3.6157
  424MOL0     H58449   6.542   7.071   7.175  1.8144 -1.0044 -0.0269
  424MOL0     H58450   6.615   7.187   7.288  3.4230 -0.7488 -3.5920
  424MOL0     H58451   6.729   6.999   7.364  1.8491  0.1666 -1.2287
  424MOL0     H58452   6.580   6.964   7.449 -1.1069  2.1018 -0.1299
  424MOL0     H58453   6.625   6.850   7.169  3.1857  1.6044  0.5183
  424MOL0     H58454   6.481   6.820   7.266  0.2266  3.2680 -1.0383
  424MOL0     H58455   6.773   6.777   7.363 -0.3013  0.6292  0.1446
  424MOL0     H58456   6.640   6.718   7.455 -2.6136 -0.1392 -0.9462
  424MOL0     H58457   6.727   6.519   7.360  0.1544  0.0163 -0.3473
  424MOL0     H58458   6.736   6.579   7.195 -0.6798 -2.7635 -0.3427
  424MOL0     H58459   6.527   6.423   7.277 -0.9373  0.8486  0.5333
  424MOL0     H58460   6.462   6.563   7.335 -1.2503 -4.4877  2.4830
  424MOL0     H58461   6.673   6.491   7.016 -1.7376 -0.8874  0.3617
  424MOL0     H58462   6.491   6.657   6.726 -1.3318 -0.7665  1.0030
  424MOL0     H58463   6.642   6.585   6.770  0.1176  0.4887 -3.6325
  424MOL0     H58464   6.728   6.782   6.888  1.5517  1.2053 -0.6510
  424MOL0     H58465   6.728   6.801   6.716 -0.2492 -0.5357 -0.0367
  424MOL0     H58466   6.535   6.943   6.727  1.3178  0.7260  0.0141
  424MOL0     H58467   6.521   6.928   6.904  0.4973  0.3585  0.6459
  424MOL0     H58468   6.644   7.129   6.824  1.2875 -0.4049  0.9443
  424MOL0     H58469   6.767   7.028   6.904 -0.3156  1.2203  0.0375
  424MOL0     H58470   6.946   7.080   6.508  1.4918  1.2119 -3.1608
  424MOL0     H58471   6.916   7.022   6.216  0.5104  0.2040 -0.0553
  424MOL0     H58472   7.026   7.131   6.306 -0.6777  1.2762  1.6182
  424MOL0     H58473   6.950   7.190   6.168  1.8364 -2.2079 -1.4222
  424MOL0     H58474   6.873   7.099   5.895 -0.1005  0.9467  1.3405
  424MOL0     H58475   6.849   7.099   5.662 -1.7453 -3.8643  0.6539
  424MOL0     H58476   6.534   7.422   5.487 -2.0505 -4.0005 -1.0536
  424MOL0     H58477   6.712   7.453   5.495  1.5996 -1.7446 -1.9478
  424MOL0     H58478   6.547   7.305   5.275  1.8867 -3.2928  2.5890
  424MOL0     H58479   6.592   7.474   5.262 -0.7626 -0.7913 -1.6783
  424MOL0     H58480   6.708   7.279   5.126  1.3551 -0.7328  0.1164
  424MOL0     H58481   6.801   7.235   5.255 -3.0768 -1.5756  1.0993
  424MOL0     H58482   6.859   7.496   5.285 -0.3509  2.3046 -1.3907
  424MOL0     H58483   6.783   7.503   5.118 -1.5084 -0.7104  0.0696
  424MOL0     H58484   7.020   7.319   5.216 -0.0694 -0.2217 -1.9159
  424MOL0     H58485   6.993   7.345   5.057  0.1226  0.0397 -0.1606
  424MOL0     H58486   7.188   7.465   5.150 -0.3499  0.4906 -1.3265
  424MOL0     H58487   7.072   7.558   5.252  0.5385 -3.6627  2.1264
  424MOL0     H58488   6.966   7.628   5.038  0.1501  0.1043  0.4637
  424MOL0     H58489   7.095   7.537   4.962 -0.6500 -2.2648  1.7585
  424MOL0     H58490   7.247   7.721   5.046 -1.2805  0.4504 -2.0218
  424MOL0     H58491   7.119   7.773   5.161  1.9915  1.3122 -0.0121
  424MOL0     H58492   6.538   7.398   5.710 -0.9851  0.8671  1.3776
  424MOL0     H58493   6.574   7.399   5.940  1.4936  0.9351 -0.6869
  424MOL0     H58494   6.492   7.210   6.395 -0.0662 -0.3755  0.5417
  424MOL0     H58495   6.541   7.121   6.617  0.2216  1.6186  0.2056
  424MOL0     H58496   6.075   7.344   7.559 -2.5549 -2.1999  3.9377
  424MOL0     H58497   6.028   7.537   7.729 -0.5821  0.8687 -1.3646
  424MOL0     H58498   5.894   7.862   8.000  0.3903 -1.6315 -2.3688
  424MOL0     H58499   5.911   8.037   8.169  1.1375 -0.5189  0.7224
  424MOL0     H58500   5.953   8.219   8.260  2.7470 -3.6755 -3.6625
  424MOL0     H58501   5.906   8.119   8.392  1.2464 -0.3810  0.4165
  424MOL0     H58502   6.086   8.346   8.431  1.8567 -1.9099  2.1991
  424MOL0     H58503   6.067   8.214   8.549  1.1560 -0.5482 -0.5626
  424MOL0     H58504   5.870   8.431   8.473 -2.2513 -0.3319 -0.1569
  424MOL0     H58505   5.791   8.281   8.502 -0.3157  1.6138 -0.2233
  424MOL0     H58506   5.902   8.254   8.722 -2.0965  0.6608  1.1684
  424MOL0     H58507   5.781   8.378   8.700 -0.1931  0.2867 -0.7860
  424MOL0     H58508   6.090   8.635   8.783  0.5749 -0.5807  0.5057
  424MOL0     H58509   6.261   7.858   8.338  2.0445 -1.6345 -1.1751
  424MOL0     H58510   6.281   7.559   8.126 -1.0194  0.5344 -0.6922
  424MOL0     H58511   6.404   7.688   8.147  1.4547 -2.5167  1.2823
  424MOL0     H58512   6.319   7.632   8.282  1.2697 -0.9306 -0.4778
  425MOL0     O58513   3.267  10.229   9.945 -0.4113 -0.0173 -0.2173
  425MOL0     C58514   3.264  10.293   9.839  0.1324 -0.5877 -0.7886
  425MOL0     O58515   3.213  10.420   9.825  0.3665 -0.1889  0.1043
  425MOL0     C58516   3.196  10.507   9.936 -0.2921 -0.0882 -0.2375
  425MOL0     C58517   3.231  10.637   9.898 -0.3573 -0.6401 -1.0620
  425MOL0     C58518   3.200  10.750   9.981 -0.3692 -0.2633 -0.1396
  425MOL0     C58519   3.141  10.734  10.108  0.5363 -0.8225  0.5477
  425MOL0     O58520   3.111  10.843  10.187  0.1251  0.1541  0.3814
  425MOL0     C58521   3.209  10.854  10.292  0.3068  0.3415  0.3338
  425MOL0     C58522   3.339  10.918  10.227 -0.3124 -0.4627  0.0245
  425MOL0     C58523   3.444  10.953  10.330  0.4158  0.7902 -0.4150
  425MOL0     C58524   3.410  11.088  10.385 -0.1821  0.1417 -0.5475
  425MOL0     C58525   3.522  11.146  10.459  0.1081 -0.6405 -0.3425
  425MOL0     C58526   3.602  11.232  10.363 -0.1307  0.1079 -0.4231
  425MOL0     C58527   3.539  11.366  10.311 -0.1258  0.0310  0.0494
  425MOL0     C58528   3.598  11.419  10.184 -0.1239 -0.5852 -0.0653
  425MOL0     N58529   3.571  11.343  10.064  0.0005  0.7284 -0.0203
  425MOL0     C58530   3.637  11.368   9.945 -0.3393 -0.0541  1.4680
  425MOL0     C58531   3.576  11.302   9.848  0.1515 -0.3126 -0.6417
  425MOL0     C58532   3.621  11.304   9.704 -0.8625 -0.6274 -0.2617
  425MOL0     C58533   3.510  11.343   9.617 -0.1363 -0.2956  0.3657
  425MOL0     C58534   3.567  11.350   9.476  1.4207 -0.0188 -0.3885
  425MOL0     C58535   3.459  11.399   9.378  0.0985  0.3249  0.0729
  425MOL0     O58536   3.318  11.388   9.412 -0.1856  0.0635 -0.1514
  425MOL0     C58537   3.217  11.451   9.345  0.1363  0.2253  0.2038
  425MOL0     C58538   3.231  11.540   9.230 -1.1290  0.1416  0.2355
  425MOL0     C58539   3.130  11.614   9.179  0.4274 -0.6654 -0.2656
  425MOL0     C58540   3.161  11.713   9.075 -0.3474  0.0489  0.5703
  425MOL0     C58541   3.009  11.618   9.245  0.8119  0.0900 -0.6921
  425MOL0     C58542   2.891  11.716   9.211 -1.1014  0.1122  0.5375
  425MOL0     O58543   2.799  11.741   9.300 -0.2361  0.9301 -0.4411
  425MOL0     C58544   2.681  11.817   9.285  0.0480  0.5096 -0.2359
  425MOL0     C58545   2.674  11.934   9.210  0.3385  0.8833 -0.3335
  425MOL0     C58546   2.548  11.992   9.192 -0.1295  0.5725  0.5270
  425MOL0     C58547   2.435  11.935   9.247 -0.8650 -1.0019  0.2584
  425MOL0     O58548   2.315  11.998   9.243 -0.8804  0.7169  0.6216
  425MOL0     C58549   2.273  12.075   9.128  0.4967 -0.4349  0.2015
  425MOL0     C58550   2.115  12.074   9.122  0.4073 -0.1954  0.2940
  425MOL0     C58551   2.035  12.207   9.170  0.4253  0.3189  0.5401
  425MOL0     C58552   2.031  12.322   9.079 -0.8319 -0.9681  1.7097
  425MOL0     C58553   1.954  12.314   8.942  0.0132  0.6022 -0.0133
  425MOL0     C58554   1.837  12.418   8.939 -0.2004  0.2988 -0.3821
  425MOL0     C58555   1.774  12.454   8.805 -0.6376 -0.5003  0.4388
  425MOL0     C58556   1.836  12.561   8.718 -0.6586  0.5586  0.7514
  425MOL0    Cl58557   1.723  12.571   8.572 -0.0230  0.0082 -0.1155
  425MOL0     C58558   2.446  11.830   9.333 -0.7006  0.0919  0.3124
  425MOL0     C58559   2.568  11.770   9.352  0.4256  0.1027  0.0635
  425MOL0     O58560   2.880  11.741   9.091 -0.5480 -0.0035 -0.0141
  425MOL0     C58561   2.990  11.542   9.359  0.4149 -0.1453  0.0740
  425MOL0     C58562   3.086  11.454   9.400 -0.5172 -0.0028 -0.0335
  425MOL0     N58563   3.459  11.244   9.899 -0.4280  0.2808 -0.4228
  425MOL0     N58564   3.466  11.265  10.034  0.5154  0.8989 -0.7443
  425MOL0     C58565   3.117  10.601  10.147  0.5328 -0.9041 -0.1660
  425MOL0     C58566   3.140  10.493  10.058 -0.0011  0.6372 -0.2107
  425MOL0     C58567   3.278  10.221   9.701 -0.1931  0.8831 -0.6253
  425MOL0     C58568   3.235  10.287   9.586  0.1812 -0.1538 -0.1683
  425MOL0     C58569   3.275  10.243   9.456 -0.3563 -1.1749  0.4974
  425MOL0     C58570   3.353  10.122   9.448 -0.1144 -0.3968  0.4508
  425MOL0     O58571   3.403  10.055   9.345 -0.2802 -0.1237  0.2230
  425MOL0     C58572   3.426  10.123   9.218 -0.0124 -0.0329 -0.3357
  425MOL0     C58573   3.562  10.076   9.149 -0.9134  0.1082  0.3077
  425MOL0     C58574   3.671  10.172   9.175  0.5287  1.6912  0.3655
  425MOL0     C58575   3.773  10.137   9.060  0.4619  1.0534  1.1027
  425MOL0     C58576   3.906  10.074   9.101  0.5238 -0.3427 -0.1082
  425MOL0     C58577   4.004  10.021   9.146 -0.7744  0.3928 -0.0733
  425MOL0     C58578   3.370  10.039   9.567  0.8820 -0.3530  0.2912
  425MOL0     C58579   3.340  10.092   9.691  0.9952 -0.6436  0.4633
  425MOL0     C58580   3.381  10.005   9.809 -0.3574 -0.7600  0.7618
  425MOL0     H58581   3.266  10.654   9.797 -2.5406 -1.6948 -2.0552
  425MOL0     H58582   3.223  10.847   9.938  0.0191 -0.9249 -1.4673
  425MOL0     H58583   3.232  10.757  10.335  0.9898  0.9161  1.2856
  425MOL0     H58584   3.181  10.907  10.384 -0.3274 -1.0520  0.9809
  425MOL0     H58585   3.390  10.853  10.156 -1.0786 -2.6505  1.3664
  425MOL0     H58586   3.310  11.008  10.173  3.8086  1.0679  0.0091
  425MOL0     H58587   3.442  10.888  10.418  1.9898 -0.7857 -1.4864
  425MOL0     H58588   3.544  10.931  10.293  0.7122 -0.1718  0.8714
  425MOL0     H58589   3.397  11.160  10.304  1.1083 -0.5563 -1.4134
  425MOL0     H58590   3.315  11.077  10.440 -2.8012 -0.8305 -4.8273
  425MOL0     H58591   3.575  11.081  10.530  0.7127 -1.0169 -1.1275
  425MOL0     H58592   3.477  11.216  10.530  0.6571 -0.0805 -0.5391
  425MOL0     H58593   3.686  11.269  10.423 -0.7918  1.6911 -0.4413
  425MOL0     H58594   3.634  11.159  10.288  2.0187  0.0463  0.4641
  425MOL0     H58595   3.563  11.425  10.401  1.7197  0.2726 -0.5580
  425MOL0     H58596   3.430  11.359  10.310 -0.3072  1.8742  1.3112
  425MOL0     H58597   3.560  11.519  10.162  2.9617  0.4364 -1.1482
  425MOL0     H58598   3.705  11.435  10.197  0.1374  0.1589 -2.6139
  425MOL0     H58599   3.732  11.420   9.938  0.0668 -0.8494  0.9476
  425MOL0     H58600   3.646  11.204   9.668  0.8210  0.0216 -1.0206
  425MOL0     H58601   3.705  11.374   9.704 -1.0152 -0.4399 -0.9049
  425MOL0     H58602   3.425  11.278   9.641  1.2348 -1.9508  0.9450
  425MOL0     H58603   3.483  11.444   9.651 -1.9487 -1.3519  2.3053
  425MOL0     H58604   3.651  11.421   9.476 -0.3930  2.4352  3.1486
  425MOL0     H58605   3.608  11.255   9.440 -0.0692 -0.5204 -0.8326
  425MOL0     H58606   3.477  11.505   9.358 -0.1669  0.2959 -0.3285
  425MOL0     H58607   3.488  11.346   9.287  1.8246  3.5692 -1.4582
  425MOL0     H58608   3.326  11.543   9.177 -2.1695  2.2685 -1.6742
  425MOL0     H58609   3.150  11.814   9.117  2.6473  3.0306 -4.7551
  425MOL0     H58610   3.100  11.701   8.986 -0.8204 -1.1736  1.0373
  425MOL0     H58611   3.266  11.700   9.047 -0.1220 -2.1857  2.1407
  425MOL0     H58612   2.762  11.972   9.158  1.4770 -0.5625  0.4686
  425MOL0     H58613   2.543  12.090   9.145 -1.3158  0.9748  1.4488
  425MOL0     H58614   2.297  12.181   9.137  0.1551 -0.0263 -2.6114
  425MOL0     H58615   2.321  12.041   9.036 -1.4684 -0.3603 -0.9013
  425MOL0     H58616   2.089  12.062   9.016 -1.6568  2.9003  0.3185
  425MOL0     H58617   2.070  11.991   9.175 -1.0584  2.2702  3.2195
  425MOL0     H58618   2.067  12.234   9.272 -0.9118 -0.0390  1.0756
  425MOL0     H58619   1.933  12.170   9.183  0.6393 -0.4522  0.0814
  425MOL0     H58620   2.132  12.352   9.050 -1.6191  2.6456  2.2346
  425MOL0     H58621   1.993  12.407   9.138 -3.1273 -0.2446 -0.6179
  425MOL0     H58622   2.027  12.322   8.862  0.9493  0.0917  0.7734
  425MOL0     H58623   1.915  12.212   8.940  2.0469 -0.1923 -1.9589
  425MOL0     H58624   1.881  12.503   8.991  0.9096 -1.1936  1.2476
  425MOL0     H58625   1.766  12.378   9.013 -0.2468  2.0128  0.5450
  425MOL0     H58626   1.665  12.459   8.806 -0.6071  0.3372  1.7494
  425MOL0     H58627   1.804  12.366   8.747  4.1646  1.5249 -0.5709
  425MOL0     H58628   1.939  12.537   8.691 -2.1211 -2.1754 -3.2916
  425MOL0     H58629   1.836  12.662   8.760 -3.4982  2.3551 -2.9411
  425MOL0     H58630   2.363  11.805   9.398 -3.0884 -1.1305 -2.9452
  425MOL0     H58631   2.573  11.674   9.404  1.1760  0.6922  1.1308
  425MOL0     H58632   2.897  11.534   9.416 -1.6759 -3.4227 -3.3491
  425MOL0     H58633   3.069  11.388   9.484 -1.3805  1.4696  1.0115
  425MOL0     H58634   3.077  10.574  10.244 -0.4548 -1.1169 -0.6264
  425MOL0     H58635   3.099  10.396  10.082 -3.8287  0.9004 -4.4502
  425MOL0     H58636   3.184  10.383   9.585 -0.6274 -0.5772 -1.6002
  425MOL0     H58637   3.247  10.281   9.359  0.3658  0.2523  0.8312
  425MOL0     H58638   3.343  10.091   9.154 -1.4660  1.7435  0.5719
  425MOL0     H58639   3.441  10.230   9.233 -1.2310  0.7967 -4.0284
  425MOL0     H58640   3.529  10.066   9.045 -1.4189 -2.8649  0.6593
  425MOL0     H58641   3.603   9.980   9.182 -1.0254 -0.4428 -1.0895
  425MOL0     H58642   3.629  10.273   9.161 -1.4251  0.7867 -0.6656
  425MOL0     H58643   3.719  10.168   9.273  0.7427  0.4323  0.2214
  425MOL0     H58644   3.803  10.228   9.006  2.6621  0.5602  1.3886
  425MOL0     H58645   3.724  10.083   8.979  0.9512 -0.0575  1.5356
  425MOL0     H58646   4.095   9.974   9.176 -1.6982 -1.6606 -0.3835
  425MOL0     H58647   3.419   9.944   9.551 -0.3032 -0.6064 -2.3392
  425MOL0     H58648   3.442  10.071   9.870 -0.9881  1.5983 -1.0181
  425MOL0     H58649   3.293   9.974   9.867 -1.9725  0.5285 -0.8480
  425MOL0     H58650   3.442   9.916   9.792  3.1168  1.7860 -1.3741
  426MOL0     O58651   6.185   3.277   9.311  0.1571 -0.2312  1.6256
  426MOL0     C58652   6.180   3.164   9.254 -0.9326  0.3454  0.3684
  426MOL0     O58653   6.232   3.124   9.140  0.2234 -0.6946  1.3144
  426MOL0     C58654   6.312   3.217   9.061 -0.1108  0.6359 -0.2442
  426MOL0     C58655   6.402   3.310   9.117  0.1910 -0.2046  0.3395
  426MOL0     C58656   6.457   3.404   9.032  0.3981 -0.4730 -0.3680
  426MOL0     C58657   6.429   3.403   8.895  0.0173 -0.2556  0.3168
  426MOL0     O58658   6.484   3.507   8.822 -0.2591  0.0176 -0.8647
  426MOL0     C58659   6.487   3.515   8.682 -0.9703  0.2853 -0.6577
  426MOL0     C58660   6.557   3.630   8.632 -0.5001 -0.4718 -0.0097
  426MOL0     C58661   6.713   3.616   8.637 -0.1596 -0.2327  0.1014
  426MOL0     C58662   6.772   3.678   8.513  0.6218 -0.6412  0.7678
  426MOL0     C58663   6.917   3.674   8.507 -0.4065 -0.7265 -0.2862
  426MOL0     C58664   6.968   3.533   8.477  0.1577 -0.2614 -0.6714
  426MOL0     C58665   7.104   3.524   8.409 -0.3775 -0.4929 -0.1456
  426MOL0     C58666   7.105   3.524   8.259 -0.4973  0.0605 -0.6352
  426MOL0     N58667   7.239   3.545   8.207  0.3024  0.0290 -0.9161
  426MOL0     C58668   7.336   3.454   8.215 -1.3003  1.3746  0.3442
  426MOL0     C58669   7.454   3.524   8.199  0.4876 -0.0358 -0.1676
  426MOL0     C58670   7.589   3.465   8.177 -0.2072  0.3760 -0.6879
  426MOL0     C58671   7.653   3.513   8.047  0.0568  0.3747  0.2139
  426MOL0     C58672   7.765   3.415   7.997 -0.6429  0.5201  0.0354
  426MOL0     C58673   7.850   3.479   7.885 -1.7487 -0.3207 -0.1564
  426MOL0     O58674   7.953   3.386   7.837 -0.2337 -0.2418  0.4915
  426MOL0     C58675   7.922   3.288   7.754  0.7488 -0.1983  1.4498
  426MOL0     C58676   7.791   3.242   7.728 -0.5860  0.8581  0.3275
  426MOL0     C58677   7.772   3.132   7.638  0.7451  1.2214  0.5951
  426MOL0     C58678   7.633   3.090   7.581  0.7150  0.3294  1.1815
  426MOL0     C58679   7.890   3.072   7.590  1.1430 -0.6093  0.6903
  426MOL0     C58680   7.880   2.974   7.480 -0.2789  0.4532 -0.7541
  426MOL0     O58681   7.888   3.040   7.356  0.2621 -0.0849  0.0089
  426MOL0     C58682   7.904   2.959   7.253  0.3075  0.6263  0.1384
  426MOL0     C58683   8.030   2.902   7.240 -0.8125  0.6223  0.1669
  426MOL0     C58684   8.064   2.831   7.121  1.2977 -0.4271  0.6506
  426MOL0     C58685   7.968   2.821   7.016  0.0647 -0.7913 -1.1335
  426MOL0     O58686   7.989   2.756   6.903 -0.5786 -0.3481  0.1439
  426MOL0     C58687   8.107   2.665   6.897  1.0501 -1.0868 -0.5731
  426MOL0     C58688   8.109   2.583   6.771 -0.0453  0.3767 -0.4442
  426MOL0     C58689   7.991   2.489   6.749  0.7269 -0.7594  0.1073
  426MOL0     C58690   8.024   2.385   6.649 -0.0730 -0.2854  0.4268
  426MOL0     C58691   7.911   2.290   6.615  0.1502  0.1754 -0.2781
  426MOL0     C58692   7.962   2.165   6.556  0.3039 -0.3354  0.5472
  426MOL0     C58693   7.840   2.063   6.540  1.0170 -0.2960 -0.3991
  426MOL0     C58694   7.864   1.957   6.431 -0.0615 -0.3078 -0.2207
  426MOL0    Cl58695   7.704   1.872   6.392 -0.0853 -0.5796  0.0284
  426MOL0     C58696   7.850   2.889   7.032  0.0884 -0.3637  1.3681
  426MOL0     C58697   7.818   2.959   7.145  0.7951  0.8260  0.0543
  426MOL0     O58698   7.861   2.851   7.502 -0.4180 -0.0216  0.5125
  426MOL0     C58699   8.020   3.126   7.612  0.3853  1.0190  0.3693
  426MOL0     C58700   8.039   3.239   7.697 -1.0588  1.0065  0.5300
  426MOL0     N58701   7.421   3.658   8.180  0.3708  0.4064  0.3729
  426MOL0     N58702   7.291   3.673   8.200 -0.9826  1.0329  0.2930
  426MOL0     C58703   6.363   3.302   8.839  0.0727  0.3775 -0.4989
  426MOL0     C58704   6.298   3.211   8.923  0.2935  0.1631 -0.5173
  426MOL0     C58705   6.109   3.054   9.340 -0.0088  0.6198  0.0461
  426MOL0     C58706   6.089   2.930   9.270 -0.4420  0.2789  0.2077
  426MOL0     C58707   6.019   2.828   9.318  0.2071  0.9317 -0.2556
  426MOL0     C58708   5.961   2.835   9.443 -0.4584 -0.3352  0.4232
  426MOL0     O58709   5.879   2.727   9.484 -0.4628 -0.5261  0.1989
  426MOL0     C58710   5.849   2.706   9.619  0.6846 -0.4752 -0.0393
  426MOL0     C58711   5.732   2.776   9.670  0.0622  1.2179 -0.7884
  426MOL0     C58712   5.692   2.691   9.796 -0.1167 -0.1370 -0.1706
  426MOL0     C58713   5.683   2.761   9.923 -0.4243  0.0704 -0.0757
  426MOL0     C58714   5.813   2.783   9.978 -0.1908  0.2359  0.5249
  426MOL0     C58715   5.913   2.830  10.026 -0.6446 -0.1625 -0.8399
  426MOL0     C58716   5.991   2.955   9.520  0.3437  0.2574 -0.4574
  426MOL0     C58717   6.056   3.066   9.470 -0.2700  1.2371 -0.2107
  426MOL0     C58718   6.064   3.192   9.555  1.1539 -0.5398 -0.7385
  426MOL0     H58719   6.434   3.311   9.221 -1.5469 -0.5719  0.8945
  426MOL0     H58720   6.516   3.486   9.073  1.3702 -1.3010 -0.0789
  426MOL0     H58721   6.386   3.504   8.642  0.1035 -0.7904 -3.2766
  426MOL0     H58722   6.547   3.433   8.641  1.2085  0.7729  1.3516
  426MOL0     H58723   6.517   3.649   8.532 -4.4759 -0.8846  1.2851
  426MOL0     H58724   6.536   3.717   8.697  2.1325  0.4040 -0.2298
  426MOL0     H58725   6.754   3.662   8.727  2.8972 -0.7225 -0.9379
  426MOL0     H58726   6.729   3.509   8.648 -1.4336 -0.3164  1.5068
  426MOL0     H58727   6.736   3.631   8.421 -0.6287  1.8694 -0.1110
  426MOL0     H58728   6.735   3.779   8.495  0.8221 -1.0990 -3.0021
  426MOL0     H58729   6.963   3.701   8.603  2.0447 -1.5725 -1.1436
  426MOL0     H58730   6.952   3.744   8.431  3.3310  0.8630  2.5756
  426MOL0     H58731   6.969   3.473   8.569  1.7204  0.0984 -0.4218
  426MOL0     H58732   6.890   3.498   8.409 -1.4176 -0.3178  1.0496
  426MOL0     H58733   7.150   3.430   8.441  2.2242  0.2138 -1.5533
  426MOL0     H58734   7.168   3.606   8.443 -1.0641  0.8181 -1.9149
  426MOL0     H58735   7.079   3.420   8.239  1.4777 -0.6269  0.0970
  426MOL0     H58736   7.025   3.578   8.207 -0.6258 -0.2692 -0.7778
  426MOL0     H58737   7.334   3.351   8.247  1.0510  1.0815 -0.2452
  426MOL0     H58738   7.580   3.356   8.170  2.6852 -0.4168  3.8609
  426MOL0     H58739   7.657   3.472   8.262 -0.8008  1.4961 -0.2909
  426MOL0     H58740   7.582   3.528   7.965  1.8968  0.9304 -1.3532
  426MOL0     H58741   7.688   3.612   8.078 -0.4959  0.1862  1.5469
  426MOL0     H58742   7.827   3.385   8.081  0.5754  1.9498 -0.3059
  426MOL0     H58743   7.716   3.319   7.978 -4.0449  1.2021  3.9096
  426MOL0     H58744   7.775   3.501   7.809 -2.0641  0.6501  0.4159
  426MOL0     H58745   7.902   3.572   7.909  1.7956 -1.8921 -1.1085
  426MOL0     H58746   7.698   3.284   7.767  0.0278  1.7357  0.8970
  426MOL0     H58747   7.624   3.112   7.474  2.0565 -2.1193  0.4937
  426MOL0     H58748   7.553   3.138   7.639 -1.6304  0.0530 -1.5974
  426MOL0     H58749   7.607   2.984   7.579 -4.3234  1.2557  1.8246
  426MOL0     H58750   8.097   2.912   7.324  0.5223 -4.3101 -0.0105
  426MOL0     H58751   8.168   2.798   7.118  2.3851  2.6440 -0.8703
  426MOL0     H58752   8.198   2.726   6.892 -1.6792  3.9605  3.0684
  426MOL0     H58753   8.107   2.602   6.987  2.9021  0.0932  0.3160
  426MOL0     H58754   8.124   2.647   6.683  4.5144  1.0863  0.6226
  426MOL0     H58755   8.185   2.505   6.777 -3.3406 -3.0685  0.3054
  426MOL0     H58756   7.922   2.557   6.698 -1.5916 -1.0727  2.6327
  426MOL0     H58757   7.950   2.457   6.845  0.0912  0.7604  0.3699
  426MOL0     H58758   8.111   2.325   6.675  0.3463 -0.2502 -0.8357
  426MOL0     H58759   8.057   2.445   6.563  0.5423 -1.3925 -0.1373
  426MOL0     H58760   7.853   2.263   6.704  1.5088 -0.1243  0.5339
  426MOL0     H58761   7.845   2.338   6.542  1.8255  0.8898 -1.3605
  426MOL0     H58762   8.048   2.127   6.611  1.5741  1.1506 -0.3562
  426MOL0     H58763   8.001   2.197   6.459  0.2383  1.8084  1.1707
  426MOL0     H58764   7.747   2.119   6.529  2.0086  1.3330 -0.7704
  426MOL0     H58765   7.825   1.995   6.624  0.2760 -4.8737 -3.8390
  426MOL0     H58766   7.941   1.883   6.457  1.0046 -0.6908 -3.8623
  426MOL0     H58767   7.904   1.999   6.338 -3.5488  2.3991 -0.6758
  426MOL0     H58768   7.787   2.886   6.945 -0.3823 -0.3932  1.7089
  426MOL0     H58769   7.733   3.027   7.141  2.0021  2.3626 -0.3478
  426MOL0     H58770   8.108   3.090   7.558 -1.8771 -0.5179 -2.5593
  426MOL0     H58771   8.137   3.285   7.704 -0.9757  0.6616  2.0719
  426MOL0     H58772   6.337   3.285   8.735  0.5024 -0.6697 -0.4469
  426MOL0     H58773   6.230   3.133   8.890 -0.8941  0.3562  1.2882
  426MOL0     H58774   6.124   2.930   9.167  3.3502 -1.6064  1.3077
  426MOL0     H58775   6.004   2.743   9.252 -0.6281 -0.7697  2.0148
  426MOL0     H58776   5.828   2.599   9.607  3.2887 -0.8562 -2.0992
  426MOL0     H58777   5.935   2.703   9.685  1.1624 -3.5639 -0.6592
  426MOL0     H58778   5.656   2.758   9.593  0.0773  0.3853 -0.6167
  426MOL0     H58779   5.746   2.881   9.695  0.2757  1.0465 -0.1643
  426MOL0     H58780   5.590   2.655   9.780 -0.2150 -0.7706  1.6335
  426MOL0     H58781   5.751   2.600   9.812 -1.4003 -0.9836 -0.1385
  426MOL0     H58782   5.623   2.705   9.995 -1.3189  0.5538 -0.4375
  426MOL0     H58783   5.628   2.854   9.910  0.4559  0.4346 -1.4291
  426MOL0     H58784   6.006   2.876  10.050 -0.8794  1.2498 -2.4955
  426MOL0     H58785   5.946   2.974   9.617 -1.8773 -3.3536 -0.6043
  426MOL0     H58786   6.122   3.159   9.642 -0.6347 -1.7862  0.0729
  426MOL0     H58787   6.109   3.284   9.518 -1.1820  0.7163 -0.6518
  426MOL0     H58788   5.958   3.209   9.576  1.6591 -1.1404  3.0814
  427MOL0     O58789   5.030   7.670   0.656 -0.0779  0.6389 -0.1984
  427MOL0     C58790   4.997   7.779   0.694 -0.4740 -0.9911  0.2371
  427MOL0     O58791   4.888   7.806   0.767  0.2215 -0.6251 -0.4222
  427MOL0     C58792   4.806   7.705   0.788  0.2323  0.2671  0.1038
  427MOL0     C58793   4.832   7.617   0.895  0.1716 -0.6617 -0.0631
  427MOL0     C58794   4.759   7.493   0.907 -0.3056 -0.3849  0.4643
  427MOL0     C58795   4.662   7.459   0.817  2.0246  0.0767 -0.6801
  427MOL0     O58796   4.575   7.344   0.840 -0.8378 -0.0651 -0.3554
  427MOL0     C58797   4.648   7.216   0.836 -0.2975 -0.4086  0.5370
  427MOL0     C58798   4.652   7.191   0.686 -0.5649  0.3098 -0.0774
  427MOL0     C58799   4.795   7.163   0.635  0.3864  0.4187 -0.0154
  427MOL0     C58800   4.806   7.172   0.478 -0.1292 -0.0917 -0.7418
  427MOL0     C58801   4.791   7.316   0.428  0.7970 -0.3821  0.0741
  427MOL0     C58802   4.796   7.308   0.275  0.1547 -0.2210 -0.1151
  427MOL0     C58803   4.748   7.445   0.212  1.0079  0.6953  0.7213
  427MOL0     C58804   4.841   7.558   0.250 -0.5484 -0.3733 -1.0153
  427MOL0     N58805   4.806   7.686   0.181 -0.9708 -0.5235  0.0943
  427MOL0     C58806   4.733   7.788   0.236  1.2158 -0.5804  0.4774
  427MOL0     C58807   4.729   7.869   0.125 -0.2721  0.7625 -1.0322
  427MOL0     C58808   4.657   7.998   0.115 -0.6017 -1.2879  0.5542
  427MOL0     C58809   4.759   8.095   0.147  0.6795 -0.9037  0.6472
  427MOL0     C58810   4.799   8.123   0.296  0.5894  0.1770  0.2684
  427MOL0     C58811   4.681   8.139   0.393  0.0280  0.3328  0.9333
  427MOL0     O58812   4.641   8.016   0.457 -0.3845 -0.1500  0.1085
  427MOL0     C58813   4.525   8.022   0.520 -0.2793 -0.2147  0.2016
  427MOL0     C58814   4.512   8.001   0.656  0.6907 -0.7537  0.3151
  427MOL0     C58815   4.389   8.018   0.734 -0.8486  0.4414  0.2072
  427MOL0     C58816   4.386   7.974   0.878  0.2720 -0.9971  0.8048
  427MOL0     C58817   4.283   8.074   0.663  0.0866 -0.3839  0.4551
  427MOL0     C58818   4.162   8.122   0.726  1.1529 -0.0764 -0.5110
  427MOL0     O58819   4.176   8.207   0.836 -0.5340  0.8066  0.6667
  427MOL0     C58820   4.060   8.270   0.862  0.0746  0.1548  0.3263
  427MOL0     C58821   3.972   8.223   0.960 -0.2839 -0.1210  0.0083
  427MOL0     C58822   3.838   8.281   0.982 -0.6311 -1.2417 -0.3415
  427MOL0     C58823   3.804   8.396   0.902 -0.3437 -0.3246  0.0086
  427MOL0     O58824   3.690   8.475   0.924  0.7702  0.2161  0.6261
  427MOL0     C58825   3.567   8.397   0.929  0.3137 -0.2864  0.5136
  427MOL0     C58826   3.468   8.459   1.030 -1.0175 -0.2454  0.4744
  427MOL0     C58827   3.524   8.426   1.170  0.2819 -0.9725  0.1998
  427MOL0     C58828   3.407   8.463   1.273  0.0154  0.3072 -0.3006
  427MOL0     C58829   3.456   8.404   1.402 -0.7530 -0.4856 -0.5517
  427MOL0     C58830   3.364   8.435   1.522  1.0095  0.2369  0.6168
  427MOL0     C58831   3.231   8.352   1.528 -0.6776 -0.7691  0.8371
  427MOL0     C58832   3.128   8.431   1.606 -0.3978 -0.8193 -0.6259
  427MOL0    Cl58833   3.160   8.472   1.781  0.0514 -0.1932  0.0351
  427MOL0     C58834   3.901   8.448   0.811  0.0987  0.9846 -0.2754
  427MOL0     C58835   4.018   8.380   0.793 -0.4343  1.3274  1.1680
  427MOL0     O58836   4.053   8.078   0.679  0.6612 -0.6435  0.1795
  427MOL0     C58837   4.293   8.101   0.522 -0.1911  0.5204 -0.5430
  427MOL0     C58838   4.409   8.062   0.458 -0.5334  0.5658 -0.2617
  427MOL0     N58839   4.810   7.828   0.025 -0.7106 -0.9265 -0.5311
  427MOL0     N58840   4.856   7.720   0.057 -0.0562 -0.5317  0.1190
  427MOL0     C58841   4.644   7.541   0.701 -1.3192  0.4126 -0.6866
  427MOL0     C58842   4.730   7.654   0.685 -0.4122 -0.5091 -0.0509
  427MOL0     C58843   5.088   7.895   0.681 -0.8143 -0.2465 -0.0033
  427MOL0     C58844   5.229   7.867   0.703  0.2095 -1.1042  0.1072
  427MOL0     C58845   5.315   7.979   0.709  0.5854  0.8157  0.1596
  427MOL0     C58846   5.274   8.112   0.697 -1.1634  0.1882 -1.1576
  427MOL0     O58847   5.349   8.225   0.709  0.0984 -1.0313  0.0914
  427MOL0     C58848   5.490   8.214   0.699  0.4992 -0.0633  0.1448
  427MOL0     C58849   5.519   8.182   0.553  0.2391 -0.0832 -0.2269
  427MOL0     C58850   5.484   8.300   0.465 -1.0907 -0.6506 -0.4676
  427MOL0     C58851   5.543   8.265   0.323  0.5231 -0.0192 -0.1318
  427MOL0     C58852   5.500   8.378   0.240  0.3590  0.0020  0.2721
  427MOL0     C58853   5.459   8.450   0.160 -0.1953  0.0004 -0.6442
  427MOL0     C58854   5.141   8.128   0.673  0.3948 -0.6566  0.8827
  427MOL0     C58855   5.040   8.030   0.667 -0.5678  0.5111 -1.0824
  427MOL0     C58856   4.898   8.072   0.656  0.1030  0.2461 -0.6551
  427MOL0     H58857   4.911   7.651   0.961 -2.4230 -1.3867  3.7823
  427MOL0     H58858   4.765   7.445   1.004 -1.4985  1.0632  1.2940
  427MOL0     H58859   4.605   7.130   0.888 -1.0369 -0.1350  0.3866
  427MOL0     H58860   4.745   7.222   0.887 -0.9097 -1.1742  1.8534
  427MOL0     H58861   4.591   7.103   0.665  1.8288 -2.0245  1.9842
  427MOL0     H58862   4.619   7.280   0.632  1.0382  0.8847 -0.1564
  427MOL0     H58863   4.857   7.238   0.684 -0.6079  2.8717 -2.2912
  427MOL0     H58864   4.823   7.061   0.662 -2.4058 -1.1646 -2.4040
  427MOL0     H58865   4.895   7.128   0.432 -0.2822 -0.1393 -0.9874
  427MOL0     H58866   4.723   7.118   0.432  0.4822 -1.6389 -0.0862
  427MOL0     H58867   4.855   7.388   0.480 -2.2077  1.1948  1.8265
  427MOL0     H58868   4.690   7.347   0.457  0.0230 -2.0495 -0.7440
  427MOL0     H58869   4.897   7.286   0.240  0.0135  1.0495 -1.4160
  427MOL0     H58870   4.732   7.226   0.240  0.1371  0.6946 -2.4163
  427MOL0     H58871   4.646   7.456   0.250 -0.4553 -1.8431 -2.1001
  427MOL0     H58872   4.741   7.454   0.103  1.5732 -0.8489  0.5291
  427MOL0     H58873   4.837   7.567   0.359 -1.4977  1.4431 -1.1563
  427MOL0     H58874   4.942   7.529   0.219 -0.5794 -0.8947 -0.6328
  427MOL0     H58875   4.687   7.802   0.333  1.9093 -0.9265  0.8626
  427MOL0     H58876   4.561   8.008   0.168 -0.8546  3.5620 -0.2970
  427MOL0     H58877   4.627   8.016   0.011 -0.2741  0.6834  0.7595
  427MOL0     H58878   4.844   8.059   0.089 -1.1062 -6.7939  0.9976
  427MOL0     H58879   4.718   8.193   0.121 -2.6127 -2.1134  0.8578
  427MOL0     H58880   4.862   8.046   0.341 -1.7643 -0.3549  2.8538
  427MOL0     H58881   4.860   8.213   0.303  0.5142  0.1921  0.7061
  427MOL0     H58882   4.696   8.214   0.471  1.5164 -1.5544  2.5737
  427MOL0     H58883   4.605   8.184   0.329 -1.1579 -0.7211  1.5603
  427MOL0     H58884   4.600   7.976   0.715  2.7940  1.0439 -1.8280
  427MOL0     H58885   4.288   7.952   0.921 -0.5973 -1.0994 -1.1172
  427MOL0     H58886   4.436   8.044   0.946  3.1655 -0.8847 -1.2591
  427MOL0     H58887   4.451   7.886   0.886  5.2934  2.5136  5.0867
  427MOL0     H58888   4.003   8.137   1.018  1.6987 -0.6194 -1.6956
  427MOL0     H58889   3.781   8.237   1.063  0.7903 -1.2611  0.6975
  427MOL0     H58890   3.523   8.387   0.829 -1.6215  2.4602  0.9975
  427MOL0     H58891   3.588   8.295   0.963 -0.6331  0.3438  3.2593
  427MOL0     H58892   3.468   8.567   1.018 -1.0805  0.1747  3.4262
  427MOL0     H58893   3.371   8.408   1.033 -1.3888  0.4317  0.0926
  427MOL0     H58894   3.608   8.494   1.187 -2.1601  2.2462  0.4391
  427MOL0     H58895   3.548   8.320   1.184 -2.3229 -1.8726 -1.5439
  427MOL0     H58896   3.312   8.417   1.246 -1.1673  2.7277 -0.4931
  427MOL0     H58897   3.386   8.570   1.268 -0.5407  0.2374  0.2964
  427MOL0     H58898   3.481   8.297   1.398 -1.8375 -0.7643 -0.0606
  427MOL0     H58899   3.555   8.443   1.429 -0.9417 -0.1257 -0.3729
  427MOL0     H58900   3.339   8.542   1.529  1.5453  0.3597  0.7266
  427MOL0     H58901   3.416   8.400   1.611 -3.8306  0.5515  3.9284
  427MOL0     H58902   3.253   8.249   1.556  2.5902 -1.2408 -2.7449
  427MOL0     H58903   3.191   8.338   1.427  0.5850  2.4642 -0.2458
  427MOL0     H58904   3.037   8.371   1.596 -0.1567 -1.1791 -0.6591
  427MOL0     H58905   3.115   8.530   1.560  0.7928 -1.2271 -1.9084
  427MOL0     H58906   3.866   8.531   0.750 -4.0222 -0.7442 -0.5930
  427MOL0     H58907   4.089   8.424   0.725 -0.7985 -0.2680 -0.3261
  427MOL0     H58908   4.221   8.150   0.458 -0.9087 -0.0477 -0.1873
  427MOL0     H58909   4.403   8.084   0.351 -2.7024  0.3477 -0.2270
  427MOL0     H58910   4.582   7.508   0.619 -0.9420 -1.1907 -0.3458
  427MOL0     H58911   4.739   7.717   0.597  1.0622 -1.4689 -0.6406
  427MOL0     H58912   5.267   7.770   0.735 -3.3821 -1.1085  5.7763
  427MOL0     H58913   5.420   7.955   0.720  0.9842  0.9828 -2.6072
  427MOL0     H58914   5.552   8.302   0.718  2.0505 -1.0225 -0.3241
  427MOL0     H58915   5.529   8.138   0.766  0.4822  0.6124  0.9376
  427MOL0     H58916   5.470   8.087   0.526  0.9963 -0.0091 -1.9921
  427MOL0     H58917   5.627   8.165   0.555  0.4834  1.4016  1.8322
  427MOL0     H58918   5.377   8.321   0.460 -0.9901 -0.1993 -0.9444
  427MOL0     H58919   5.530   8.390   0.508  1.7283 -2.4371  0.5532
  427MOL0     H58920   5.504   8.177   0.270  0.2048  0.3898 -0.5861
  427MOL0     H58921   5.651   8.245   0.325  0.5751 -0.4096 -2.7919
  427MOL0     H58922   5.417   8.518   0.088 -2.5147 -1.1322 -0.4456
  427MOL0     H58923   5.092   8.225   0.680 -0.8334 -1.2227  0.4542
  427MOL0     H58924   4.890   8.176   0.621 -0.3720  0.5211  0.2599
  427MOL0     H58925   4.846   8.004   0.589  2.8920  0.1098 -2.9049
  427MOL0     H58926   4.844   8.057   0.749 -0.8488  2.0347 -0.8774
  428MOL0     O58927   6.747   5.220   0.227 -0.5418 -0.0056 -0.0816
  428MOL0     C58928   6.639   5.178   0.193  0.1505 -0.7825 -0.1557
  428MOL0     O58929   6.609   5.048   0.156  0.4943 -0.2377 -0.3439
  428MOL0     C58930   6.713   4.960   0.161  0.4304  0.3415 -0.8215
  428MOL0     C58931   6.782   4.935   0.284 -0.5337  0.1358 -0.7975
  428MOL0     C58932   6.903   4.866   0.286  0.6641 -0.4234 -0.5241
  428MOL0     C58933   6.943   4.798   0.169 -0.6068  0.1202  0.9056
  428MOL0     O58934   7.066   4.722   0.175  0.1367 -0.4705  0.8022
  428MOL0     C58935   7.155   4.722   0.064 -0.9673  0.5236 -0.0669
  428MOL0     C58936   7.275   4.641   0.097 -0.1661  1.1834  0.0328
  428MOL0     C58937   7.382   4.633  -0.018  0.2301  0.7711 -0.0514
  428MOL0     C58938   7.515   4.573   0.027 -0.8964 -0.5106 -0.7750
  428MOL0     C58939   7.643   4.658   0.004 -0.6574  0.0599 -0.1226
  428MOL0     C58940   7.647   4.715  -0.142 -0.8125 -0.2487  0.1231
  428MOL0     C58941   7.781   4.786  -0.177  0.0378 -1.1250  0.0200
  428MOL0     C58942   7.888   4.694  -0.212 -0.0753  0.0499  0.2988
  428MOL0     N58943   8.008   4.768  -0.240  0.0957 -1.0278  0.1198
  428MOL0     C58944   8.037   4.889  -0.307 -0.9428 -0.8303  0.4528
  428MOL0     C58945   8.167   4.926  -0.271 -1.1394 -0.1001  1.9521
  428MOL0     C58946   8.250   5.055  -0.302  0.0482 -0.8732 -0.1292
  428MOL0     C58947   8.203   5.130  -0.426  0.2790 -0.0697  0.2633
  428MOL0     C58948   8.309   5.232  -0.465 -0.2278 -0.7462 -0.3623
  428MOL0     C58949   8.274   5.332  -0.571  0.8858  0.0642 -0.0509
  428MOL0     O58950   8.233   5.244  -0.677  0.4083 -0.1398 -0.0320
  428MOL0     C58951   8.190   5.299  -0.797  1.0252  0.8628 -0.0464
  428MOL0     C58952   8.131   5.210  -0.890  0.5722 -0.0184  0.8262
  428MOL0     C58953   8.108   5.241  -1.021  0.1756  0.0463  1.1870
  428MOL0     C58954   8.053   5.141  -1.122 -0.5937  0.4397 -0.2529
  428MOL0     C58955   8.138   5.377  -1.066 -0.4054 -0.0203 -1.0830
  428MOL0     C58956   8.122   5.435  -1.193  0.7168  0.1172 -1.0961
  428MOL0     O58957   8.139   5.355  -1.303  0.3727 -0.3232  0.3091
  428MOL0     C58958   8.099   5.402  -1.423 -1.4641 -0.3331  0.1961
  428MOL0     C58959   7.965   5.412  -1.465 -1.1531  0.9111 -0.7471
  428MOL0     C58960   7.929   5.488  -1.572  0.8782 -0.4086 -0.4343
  428MOL0     C58961   8.021   5.559  -1.648 -0.6802  0.9686  0.1559
  428MOL0     O58962   7.975   5.643  -1.750 -0.0276 -0.4724 -0.6465
  428MOL0     C58963   8.042   5.689  -1.859 -0.2284 -0.7594 -0.3431
  428MOL0     C58964   7.934   5.708  -1.971 -0.0026  0.8673  1.2146
  428MOL0     C58965   7.814   5.786  -1.936 -0.4923  0.7987 -0.1946
  428MOL0     C58966   7.713   5.814  -2.052 -0.5191 -0.2378 -0.8108
  428MOL0     C58967   7.585   5.880  -2.005 -0.3528  0.5898  0.4492
  428MOL0     C58968   7.481   5.777  -1.957 -0.2760 -0.3394 -0.6380
  428MOL0     C58969   7.339   5.831  -1.966  0.1768 -0.8557  0.0978
  428MOL0     C58970   7.236   5.743  -1.912 -0.7913  0.2831  0.5145
  428MOL0    Cl58971   7.125   5.854  -1.826  0.0718  0.1054 -0.0733
  428MOL0     C58972   8.155   5.542  -1.610 -0.0302  0.7490  0.2554
  428MOL0     C58973   8.195   5.466  -1.500  0.5072  0.5477 -0.6336
  428MOL0     O58974   8.109   5.562  -1.194  0.4332  0.4812 -0.2768
  428MOL0     C58975   8.174   5.468  -0.960  0.4539 -0.0024  0.4208
  428MOL0     C58976   8.214   5.424  -0.832 -0.0366  0.8270 -0.5202
  428MOL0     N58977   8.202   4.831  -0.175  0.2139  0.2782  0.7477
  428MOL0     N58978   8.113   4.734  -0.169 -0.8447 -0.1329  0.2598
  428MOL0     C58979   6.867   4.807   0.046  1.0144 -0.3556  0.2017
  428MOL0     C58980   6.749   4.886   0.044 -0.6903 -0.6568 -0.4992
  428MOL0     C58981   6.529   5.288   0.175 -0.6444 -0.4155 -0.2942
  428MOL0     C58982   6.387   5.259   0.194 -0.2115  0.1527 -0.4818
  428MOL0     C58983   6.288   5.358   0.171  0.5243  0.4789  0.5023
  428MOL0     C58984   6.317   5.483   0.130  0.0686 -0.3994  0.2811
  428MOL0     O58985   6.201   5.558   0.117 -0.2214 -0.7463  0.5254
  428MOL0     C58986   6.225   5.670   0.027 -0.1045  0.5068  0.1513
  428MOL0     C58987   6.097   5.734  -0.011  0.8744 -0.0550  0.1974
  428MOL0     C58988   5.999   5.639  -0.095 -0.0373  0.2214  0.0437
  428MOL0     C58989   5.849   5.687  -0.084  0.1575  0.1081 -1.2656
  428MOL0     C58990   5.771   5.682  -0.199 -0.1765 -0.0965 -1.1194
  428MOL0     C58991   5.688   5.679  -0.286  0.8037  0.2377  1.0726
  428MOL0     C58992   6.453   5.516   0.113  0.7487  0.0884 -0.1949
  428MOL0     C58993   6.561   5.422   0.133  0.3451 -0.0203  0.0909
  428MOL0     C58994   6.699   5.473   0.100  0.3503 -0.1994 -0.1172
  428MOL0     H58995   6.755   4.992   0.372  1.0006 -1.3723  0.7467
  428MOL0     H58996   6.959   4.861   0.378 -1.6933 -2.6783  0.9296
  428MOL0     H58997   7.182   4.826   0.041  1.7392 -0.4680 -1.8876
  428MOL0     H58998   7.114   4.673  -0.025  3.1755  0.8507 -2.4208
  428MOL0     H58999   7.324   4.694   0.180 -2.9081  1.5501  1.5278
  428MOL0     H59000   7.242   4.548   0.144  2.1429  1.4562  2.4355
  428MOL0     H59001   7.345   4.568  -0.098 -0.1518 -2.4240  2.5062
  428MOL0     H59002   7.402   4.738  -0.043  2.2391  0.6985  1.0054
  428MOL0     H59003   7.522   4.569   0.136  0.6571 -0.6374 -0.8661
  428MOL0     H59004   7.534   4.471  -0.007  1.0558 -0.2818 -0.4842
  428MOL0     H59005   7.722   4.583   0.006 -1.3722 -0.7049  1.6727
  428MOL0     H59006   7.647   4.736   0.081 -1.3399 -1.4490  1.5006
  428MOL0     H59007   7.633   4.633  -0.213  2.1004 -0.0953 -0.7636
  428MOL0     H59008   7.569   4.788  -0.164 -0.0427  0.6053  0.1247
  428MOL0     H59009   7.802   4.840  -0.084 -1.5453 -1.5709  0.6772
  428MOL0     H59010   7.760   4.856  -0.258  0.2020 -1.3069 -0.1787
  428MOL0     H59011   7.906   4.622  -0.132  1.1650 -1.7939 -1.5170
  428MOL0     H59012   7.860   4.637  -0.301  3.4831 -3.8412  1.3482
  428MOL0     H59013   7.970   4.949  -0.368  1.9522  1.6118 -0.5720
  428MOL0     H59014   8.351   5.016  -0.319  1.2729  1.9994  0.0143
  428MOL0     H59015   8.254   5.124  -0.217 -1.7724  0.6563 -1.2027
  428MOL0     H59016   8.185   5.056  -0.504 -2.6006  0.9260 -0.1220
  428MOL0     H59017   8.129   5.207  -0.404  1.5935  1.1236  0.6838
  428MOL0     H59018   8.358   5.275  -0.377  2.0344  1.9226 -2.7160
  428MOL0     H59019   8.399   5.184  -0.503  1.3167 -0.4823  2.6145
  428MOL0     H59020   8.199   5.407  -0.543  1.9820  0.7267  1.2596
  428MOL0     H59021   8.365   5.390  -0.592 -1.4470  2.7808 -4.1650
  428MOL0     H59022   8.120   5.107  -0.857  1.3109 -0.7358 -1.0384
  428MOL0     H59023   8.117   5.132  -1.210 -1.2419 -1.8550 -0.5361
  428MOL0     H59024   7.953   5.171  -1.157 -1.0783 -1.1602 -0.3104
  428MOL0     H59025   8.059   5.041  -1.078  2.7566  0.8976  0.6072
  428MOL0     H59026   7.893   5.354  -1.408 -0.2872  0.0086 -0.5339
  428MOL0     H59027   7.822   5.502  -1.583  0.9080 -0.4251 -0.7768
  428MOL0     H59028   8.088   5.786  -1.839  1.9579 -1.3228 -2.2025
  428MOL0     H59029   8.123   5.619  -1.883  0.6423  0.1555 -0.1043
  428MOL0     H59030   7.981   5.756  -2.057  1.9997 -1.1617  1.0947
  428MOL0     H59031   7.894   5.610  -1.999  0.5991  0.0702  3.0048
  428MOL0     H59032   7.844   5.877  -1.882 -2.6501  3.5514 -3.1978
  428MOL0     H59033   7.747   5.725  -1.874 -1.1437  1.1651 -0.5217
  428MOL0     H59034   7.677   5.720  -2.094  1.9309 -3.8486  4.1721
  428MOL0     H59035   7.763   5.870  -2.131 -0.8520  1.4866  0.1424
  428MOL0     H59036   7.599   5.948  -1.921  2.6643 -1.1178  1.4808
  428MOL0     H59037   7.544   5.934  -2.091  0.0189  1.6885  0.9493
  428MOL0     H59038   7.509   5.735  -1.860  2.4962 -0.5105 -1.4125
  428MOL0     H59039   7.485   5.697  -2.033  0.9957  0.4899 -1.4954
  428MOL0     H59040   7.314   5.862  -2.068 -1.7833  0.8799  1.0305
  428MOL0     H59041   7.343   5.924  -1.908 -0.6082  2.3070 -4.4039
  428MOL0     H59042   7.265   5.679  -1.829 -3.9326  1.1146  2.4207
  428MOL0     H59043   7.183   5.682  -1.986  1.9724 -0.6013 -0.8578
  428MOL0     H59044   8.225   5.601  -1.668  1.7407 -1.2724  0.2290
  428MOL0     H59045   8.298   5.466  -1.466  0.0350 -0.1855  0.8633
  428MOL0     H59046   8.188   5.574  -0.979  2.5550 -0.1573  0.8159
  428MOL0     H59047   8.261   5.495  -0.765  0.6339  0.9038 -1.0546
  428MOL0     H59048   6.880   4.740  -0.039  0.7944 -1.0236  0.6784
  428MOL0     H59049   6.707   4.896  -0.055 -0.9736 -0.3951 -0.3541
  428MOL0     H59050   6.361   5.155   0.210 -0.2562  0.4740  1.7679
  428MOL0     H59051   6.183   5.331   0.171  0.0059  2.2424 -1.0112
  428MOL0     H59052   6.286   5.745   0.078 -1.6843  2.0762 -0.1691
  428MOL0     H59053   6.273   5.630  -0.063 -0.5570 -3.4719  1.5137
  428MOL0     H59054   6.118   5.824  -0.069 -0.4269 -0.5172 -1.0488
  428MOL0     H59055   6.049   5.748   0.086 -1.6167 -3.3723 -0.3868
  428MOL0     H59056   6.034   5.639  -0.198  1.8315 -0.2715  0.6461
  428MOL0     H59057   6.021   5.536  -0.065  2.1173  0.9837  1.2942
  428MOL0     H59058   5.857   5.789  -0.044  2.6986 -0.7260  0.6188
  428MOL0     H59059   5.808   5.632   0.001 -0.7681  1.4853 -0.7913
  428MOL0     H59060   5.619   5.670  -0.368  1.3123  0.7378  0.5821
  428MOL0     H59061   6.462   5.621   0.087  0.2663 -0.0916 -1.1331
  428MOL0     H59062   6.754   5.416   0.024  2.7065  2.9688 -0.9823
  428MOL0     H59063   6.687   5.574   0.061 -1.2660 -0.1874  0.3172
  428MOL0     H59064   6.760   5.474   0.191  1.4625  1.0132 -0.8599
  429MOL0     O59065   8.392   2.391   7.640 -0.0938 -0.3737  0.5485
  429MOL0     C59066   8.360   2.336   7.750 -0.7920 -0.0738 -0.1917
  429MOL0     O59067   8.291   2.225   7.776  0.1345 -0.2159 -0.0840
  429MOL0     C59068   8.198   2.168   7.684 -0.4263 -0.1950 -0.0048
  429MOL0     C59069   8.063   2.202   7.687 -0.2453  0.2299 -0.7963
  429MOL0     C59070   7.978   2.147   7.588 -0.0825 -0.9798  0.5010
  429MOL0     C59071   8.027   2.049   7.491 -0.6158 -0.4338  0.1415
  429MOL0     O59072   7.948   1.996   7.397  0.4146 -0.6793  0.5395
  429MOL0     C59073   7.823   1.944   7.447  0.0979  0.1623  0.0452
  429MOL0     C59074   7.712   2.003   7.355 -0.4588  0.3252 -0.2298
  429MOL0     C59075   7.597   1.907   7.376  0.6656 -0.6491 -1.1337
  429MOL0     C59076   7.460   1.939   7.299 -0.0582 -0.1381 -0.5906
  429MOL0     C59077   7.356   1.836   7.351  0.2193  0.0350 -0.6604
  429MOL0     C59078   7.219   1.827   7.280  0.7029 -0.3389 -0.9280
  429MOL0     C59079   7.126   1.958   7.287  0.8641  0.3415 -0.1687
  429MOL0     C59080   6.982   1.914   7.243  0.0664  0.3793  0.9060
  429MOL0     N59081   6.902   2.035   7.236 -0.7169 -0.3204  0.8048
  429MOL0     C59082   6.913   2.128   7.139 -0.6172  0.0911  0.0805
  429MOL0     C59083   6.833   2.233   7.167 -1.0884  0.1315  1.1795
  429MOL0     C59084   6.817   2.369   7.097 -0.3467 -0.5229  0.0101
  429MOL0     C59085   6.774   2.352   6.947  0.2711  0.7537 -0.8005
  429MOL0     C59086   6.752   2.489   6.889  0.4270  0.7072  0.0746
  429MOL0     C59087   6.611   2.543   6.916  0.5971 -0.0491  0.2559
  429MOL0     O59088   6.601   2.683   6.899 -0.7440  0.5849 -0.1557
  429MOL0     C59089   6.476   2.735   6.908 -0.4766 -1.1192  0.1759
  429MOL0     C59090   6.352   2.673   6.946  0.6157 -0.0439 -0.4619
  429MOL0     C59091   6.233   2.741   6.944  0.8192 -0.9347 -0.0820
  429MOL0     C59092   6.111   2.655   6.971  0.2970  0.9803 -0.1278
  429MOL0     C59093   6.229   2.877   6.890  0.8889 -0.0568 -0.8978
  429MOL0     C59094   6.097   2.950   6.880  0.4625  0.4051  0.8038
  429MOL0     O59095   6.122   3.063   6.821 -0.4162 -0.4329  0.5499
  429MOL0     C59096   6.026   3.157   6.817  0.2271  0.2894  0.0959
  429MOL0     C59097   5.889   3.127   6.786  0.5520  0.0403  0.2017
  429MOL0     C59098   5.792   3.232   6.793  0.2738 -0.6530  0.1540
  429MOL0     C59099   5.832   3.371   6.815  0.0486 -0.2077  0.7504
  429MOL0     O59100   5.735   3.468   6.804 -0.1282  0.3407  0.4036
  429MOL0     C59101   5.762   3.563   6.704  0.5382 -0.4262  1.2853
  429MOL0     C59102   5.685   3.690   6.729  0.7239 -0.4819  0.1805
  429MOL0     C59103   5.538   3.690   6.673 -0.6274  0.5512  0.0765
  429MOL0     C59104   5.532   3.778   6.548  0.1888 -0.3802 -0.0340
  429MOL0     C59105   5.386   3.829   6.505 -0.2608  0.1277 -0.5989
  429MOL0     C59106   5.295   3.886   6.615  0.3562 -0.3425 -0.2977
  429MOL0     C59107   5.200   3.784   6.676  0.5135  0.9131  0.0586
  429MOL0     C59108   5.084   3.836   6.760  0.5945 -0.0398  0.3811
  429MOL0    Cl59109   5.127   3.943   6.900  0.0780  0.0497 -0.3791
  429MOL0     C59110   5.969   3.397   6.842  0.1630 -0.3077 -0.0895
  429MOL0     C59111   6.065   3.293   6.838 -0.4184  0.5778  0.0483
  429MOL0     O59112   5.996   2.923   6.947  0.5091  0.3705  0.2114
  429MOL0     C59113   6.358   2.938   6.855 -0.6401 -0.7566 -0.8819
  429MOL0     C59114   6.477   2.871   6.869  1.1228  0.1816 -0.5123
  429MOL0     N59115   6.785   2.202   7.294  0.6634 -0.4618 -0.6427
  429MOL0     N59116   6.814   2.081   7.328 -0.2526  0.0513  0.3202
  429MOL0     C59117   8.160   2.009   7.506  0.8813  0.4689 -0.2725
  429MOL0     C59118   8.241   2.068   7.595 -0.1360 -0.3511  0.1175
  429MOL0     C59119   8.396   2.425   7.862 -0.1551  1.0207 -0.3547
  429MOL0     C59120   8.291   2.447   7.947  0.0504 -0.3623 -0.0841
  429MOL0     C59121   8.322   2.528   8.062 -0.7143 -0.5770  0.3205
  429MOL0     C59122   8.439   2.593   8.086  0.7555  0.9977 -0.7805
  429MOL0     O59123   8.456   2.678   8.190 -1.2264  0.4325  0.5939
  429MOL0     C59124   8.583   2.681   8.253 -0.4350 -0.9072  0.7032
  429MOL0     C59125   8.561   2.692   8.408 -0.2643 -0.3965  0.1179
  429MOL0     C59126   8.486   2.575   8.480  0.8064 -0.1326  0.5136
  429MOL0     C59127   8.418   2.608   8.608 -0.9155  0.1236 -1.2273
  429MOL0     C59128   8.502   2.692   8.688 -0.2137 -0.1326 -0.3169
  429MOL0     C59129   8.571   2.768   8.758  0.0076  0.9006  0.2691
  429MOL0     C59130   8.536   2.566   7.988  0.6723 -1.6487 -0.0095
  429MOL0     C59131   8.522   2.480   7.885  1.1898 -0.7532  0.0958
  429MOL0     C59132   8.642   2.462   7.788  0.2895  0.0803 -0.3390
  429MOL0     H59133   8.016   2.271   7.756 -2.8324  0.3540 -2.5403
  429MOL0     H59134   7.872   2.168   7.576 -0.4096 -1.8092  1.8004
  429MOL0     H59135   7.785   1.975   7.545 -1.8667 -1.1911 -0.2285
  429MOL0     H59136   7.832   1.836   7.453 -0.8785 -0.3447 -4.2247
  429MOL0     H59137   7.687   2.106   7.382 -2.5438  0.3196 -1.8428
  429MOL0     H59138   7.748   1.997   7.251 -1.0085  1.2530 -0.4878
  429MOL0     H59139   7.631   1.809   7.342 -2.3414 -1.9066 -0.8743
  429MOL0     H59140   7.567   1.898   7.481  2.5812  0.1470 -0.4770
  429MOL0     H59141   7.430   2.040   7.326  3.4406  1.4050 -1.9231
  429MOL0     H59142   7.466   1.943   7.190  0.2501  1.9063 -0.5339
  429MOL0     H59143   7.340   1.831   7.459 -2.5771 -0.8206 -1.0294
  429MOL0     H59144   7.404   1.741   7.326  1.9017  0.8013 -0.4072
  429MOL0     H59145   7.237   1.797   7.177 -1.2672 -0.0670 -1.3979
  429MOL0     H59146   7.173   1.748   7.339  0.6630  1.5892  1.8322
  429MOL0     H59147   7.162   2.048   7.237 -0.8149  1.1977  0.0808
  429MOL0     H59148   7.119   1.999   7.388 -0.5064  2.3293 -0.9993
  429MOL0     H59149   6.985   1.863   7.147 -2.9346  0.7136  0.5688
  429MOL0     H59150   6.933   1.840   7.307  0.4168 -2.0554 -1.4645
  429MOL0     H59151   6.983   2.135   7.055  1.0446  3.1816  1.5555
  429MOL0     H59152   6.916   2.415   7.091 -1.4856  2.3388  1.2953
  429MOL0     H59153   6.757   2.438   7.158  1.7628  0.0962  1.4824
  429MOL0     H59154   6.855   2.298   6.897 -1.2241 -1.7551 -0.7166
  429MOL0     H59155   6.688   2.284   6.947  0.7492  0.1069  0.6264
  429MOL0     H59156   6.829   2.564   6.911  0.0056  0.6592  1.8742
  429MOL0     H59157   6.747   2.476   6.780 -1.3120 -3.3787  0.4941
  429MOL0     H59158   6.546   2.491   6.846  0.7807  0.4391 -0.2789
  429MOL0     H59159   6.584   2.530   7.022  4.2943 -0.1060  1.3495
  429MOL0     H59160   6.361   2.568   6.972 -1.4221 -1.0399 -3.3263
  429MOL0     H59161   6.019   2.690   6.922  1.3402  1.8340 -1.5268
  429MOL0     H59162   6.103   2.673   7.079  2.3866  0.0043  0.2462
  429MOL0     H59163   6.123   2.548   6.954  0.2044  1.0189 -0.4469
  429MOL0     H59164   5.855   3.024   6.782  2.6216 -0.6804 -0.0256
  429MOL0     H59165   5.690   3.221   6.758 -0.1867  1.8483  0.4790
  429MOL0     H59166   5.868   3.589   6.704  0.6315 -0.2445 -2.2729
  429MOL0     H59167   5.741   3.521   6.605  1.6192 -0.1798  0.9457
  429MOL0     H59168   5.683   3.707   6.837  2.8108  2.8569 -0.1623
  429MOL0     H59169   5.745   3.775   6.695 -0.8946 -0.1318 -1.9448
  429MOL0     H59170   5.464   3.722   6.748 -0.3311  0.0458  0.5872
  429MOL0     H59171   5.504   3.590   6.646  1.7095  0.1981 -1.8754
  429MOL0     H59172   5.582   3.726   6.466  0.1860  0.3750 -0.5167
  429MOL0     H59173   5.601   3.860   6.568  2.0221 -2.4091  2.8298
  429MOL0     H59174   5.410   3.910   6.435 -2.0506  0.4902 -0.8344
  429MOL0     H59175   5.339   3.744   6.454  0.5277 -2.1545  2.1949
  429MOL0     H59176   5.231   3.964   6.572 -0.1343  0.3740  1.6328
  429MOL0     H59177   5.358   3.929   6.693  0.2910 -2.2668  0.9036
  429MOL0     H59178   5.269   3.723   6.736  0.1812  1.4821  1.0310
  429MOL0     H59179   5.154   3.721   6.600  1.3157  2.1518 -1.5286
  429MOL0     H59180   5.020   3.755   6.795  1.1919 -1.8426 -2.3361
  429MOL0     H59181   5.022   3.879   6.681  0.9472 -0.3343 -0.0636
  429MOL0     H59182   5.997   3.501   6.857 -1.6761  0.5535 -2.1328
  429MOL0     H59183   6.171   3.311   6.858 -0.4063  0.7208 -0.1489
  429MOL0     H59184   6.355   3.037   6.811  1.0518 -0.1623  0.2485
  429MOL0     H59185   6.557   2.929   6.825 -1.1420  1.9178 -2.5882
  429MOL0     H59186   8.190   1.929   7.440 -1.0283 -0.3074 -0.2440
  429MOL0     H59187   8.345   2.036   7.595 -0.0482 -0.0706 -0.0813
  429MOL0     H59188   8.195   2.398   7.934  1.3170 -2.2595 -3.6472
  429MOL0     H59189   8.248   2.543   8.139  0.8478  0.3256  1.6990
  429MOL0     H59190   8.640   2.591   8.228 -1.3737 -1.7846  1.6259
  429MOL0     H59191   8.630   2.774   8.220 -0.5011 -1.8081 -2.1548
  429MOL0     H59192   8.502   2.779   8.439 -1.5656 -1.6318  1.2696
  429MOL0     H59193   8.659   2.692   8.456 -1.4919  0.0949  2.8215
  429MOL0     H59194   8.421   2.524   8.408  0.0880  1.2811  0.1229
  429MOL0     H59195   8.560   2.498   8.505  0.6005 -0.7260 -0.6188
  429MOL0     H59196   8.395   2.515   8.661 -1.0293  1.3214  0.9302
  429MOL0     H59197   8.323   2.649   8.572 -2.5899 -1.5989  0.8829
  429MOL0     H59198   8.618   2.821   8.838 -0.2048  1.7730 -0.1766
  429MOL0     H59199   8.631   2.618   7.994 -0.6277  1.1607 -1.8451
  429MOL0     H59200   8.738   2.489   7.832  0.4918 -3.3492  1.6895
  429MOL0     H59201   8.649   2.357   7.757 -0.2218 -0.2995  0.7676
  429MOL0     H59202   8.625   2.503   7.688 -1.6528 -1.2765 -0.6200
  430MOL0     O59203   4.199   5.307   6.993 -1.2859  0.4601  0.3636
  430MOL0     C59204   4.249   5.199   6.965  0.0452  0.4053 -0.5205
  430MOL0     O59205   4.384   5.192   6.939 -0.1402  0.1625  0.2311
  430MOL0     C59206   4.477   5.242   7.027  1.3558 -0.9871  0.0302
  430MOL0     C59207   4.605   5.209   7.007  0.4333 -0.2662  0.7429
  430MOL0     C59208   4.709   5.251   7.092 -0.5045  0.2996 -0.7338
  430MOL0     C59209   4.681   5.323   7.212  1.6853 -0.1160 -0.3369
  430MOL0     O59210   4.764   5.356   7.309  0.9168  0.7869  0.2582
  430MOL0     C59211   4.907   5.325   7.300 -0.3102 -0.3083  0.0080
  430MOL0     C59212   4.932   5.184   7.346 -0.9453 -0.3136  0.2104
  430MOL0     C59213   5.067   5.163   7.415 -0.0499 -0.2339  0.8795
  430MOL0     C59214   5.103   5.026   7.388 -0.2586  0.5696 -0.6791
  430MOL0     C59215   5.247   4.992   7.424 -0.4956  0.5995  0.1642
  430MOL0     C59216   5.289   4.845   7.377 -0.0673  0.0930  0.5470
  430MOL0     C59217   5.427   4.791   7.407  0.8184  0.4049  0.2595
  430MOL0     C59218   5.458   4.761   7.549 -0.1736 -0.5768  0.4939
  430MOL0     N59219   5.608   4.746   7.557  0.8272 -0.7416 -0.3672
  430MOL0     C59220   5.704   4.848   7.567 -0.4050  0.3132  0.0636
  430MOL0     C59221   5.816   4.793   7.516  0.2445 -0.0335 -0.0930
  430MOL0     C59222   5.951   4.863   7.497 -0.6706  0.1880 -0.1744
  430MOL0     C59223   5.952   4.953   7.365  0.2207  0.1773 -0.7710
  430MOL0     C59224   5.821   5.031   7.351  0.6088 -0.9778  0.3590
  430MOL0     C59225   5.835   5.149   7.263 -0.8004  0.2492  0.2053
  430MOL0     O59226   5.912   5.101   7.144 -0.1211  0.9983  0.1391
  430MOL0     C59227   5.975   5.194   7.064 -0.1296  0.5291  0.1425
  430MOL0     C59228   5.953   5.333   7.072 -0.1491 -0.5923 -1.1317
  430MOL0     C59229   6.031   5.431   6.999  0.4340  0.1525 -0.0567
  430MOL0     C59230   5.981   5.572   7.008  1.0750  0.9269 -0.4599
  430MOL0     C59231   6.134   5.391   6.910  0.3681  0.1584  1.5831
  430MOL0     C59232   6.229   5.481   6.830  1.5469 -0.8146 -0.0801
  430MOL0     O59233   6.326   5.428   6.751  0.5362 -0.3350 -0.7288
  430MOL0     C59234   6.415   5.505   6.688 -0.0449  0.3656  0.9699
  430MOL0     C59235   6.519   5.560   6.768  0.7003  0.3515  0.6702
  430MOL0     C59236   6.624   5.633   6.698 -0.1254 -0.5892  0.5391
  430MOL0     C59237   6.627   5.637   6.555  0.3202 -0.5172 -0.0684
  430MOL0     O59238   6.713   5.718   6.489 -0.2925 -0.3094 -0.0856
  430MOL0     C59239   6.856   5.709   6.512 -0.4648 -0.2359 -0.5182
  430MOL0     C59240   6.931   5.574   6.479 -0.0585  0.0975 -1.2865
  430MOL0     C59241   7.083   5.574   6.509 -0.4874 -0.0748 -0.5781
  430MOL0     C59242   7.126   5.523   6.650 -0.5598 -0.3315  0.8211
  430MOL0     C59243   7.098   5.621   6.769  0.0789  0.3751  0.6420
  430MOL0     C59244   7.171   5.757   6.750  0.3278  0.5153 -0.6129
  430MOL0     C59245   7.163   5.840   6.873  0.6630  0.4256 -0.3160
  430MOL0     C59246   7.244   5.965   6.839 -0.0990 -0.3750 -0.2002
  430MOL0    Cl59247   7.217   6.055   6.988  0.5079 -0.1830 -0.1611
  430MOL0     C59248   6.519   5.574   6.483 -0.4153 -0.3381  0.0580
  430MOL0     C59249   6.420   5.506   6.548  0.0495 -0.9159  0.0255
  430MOL0     O59250   6.218   5.596   6.852  0.8348 -0.4420 -0.2924
  430MOL0     C59251   6.160   5.251   6.908 -0.4445  0.9407  0.7683
  430MOL0     C59252   6.085   5.157   6.981 -0.2046 -0.3554  0.3999
  430MOL0     N59253   5.791   4.660   7.487 -0.9459 -0.8624 -0.5155
  430MOL0     N59254   5.663   4.640   7.501 -0.6802  1.0295  0.1505
  430MOL0     C59255   4.549   5.357   7.230  0.1379 -0.4036 -0.4940
  430MOL0     C59256   4.442   5.315   7.147  0.7314 -1.3457  0.5920
  430MOL0     C59257   4.154   5.089   6.931 -0.5942 -0.1046 -0.2119
  430MOL0     C59258   4.043   5.079   7.004  0.5599 -0.3132  0.5555
  430MOL0     C59259   3.950   4.980   6.983  0.2306 -0.2699  0.1607
  430MOL0     C59260   3.961   4.888   6.876 -0.8330 -0.7053 -0.9690
  430MOL0     O59261   3.882   4.786   6.838  0.2558  0.2045  0.2152
  430MOL0     C59262   3.815   4.730   6.950  0.2032  0.0425 -0.1146
  430MOL0     C59263   3.785   4.582   6.923 -0.1482  0.4677 -0.9202
  430MOL0     C59264   3.885   4.480   6.968 -0.7311  0.3269 -0.1351
  430MOL0     C59265   4.041   4.498   6.957  0.5833  0.2700 -0.0943
  430MOL0     C59266   4.111   4.482   7.083  0.4726  0.3333 -1.5050
  430MOL0     C59267   4.158   4.474   7.192  0.8832 -0.0817 -0.2519
  430MOL0     C59268   4.070   4.906   6.794 -0.0227 -0.1083  0.1785
  430MOL0     C59269   4.172   5.001   6.824  0.4960  0.2655  1.0006
  430MOL0     C59270   4.291   5.007   6.739 -0.0638 -0.1795  0.7799
  430MOL0     H59271   4.633   5.149   6.921  0.6725  0.3438  0.3971
  430MOL0     H59272   4.811   5.223   7.070 -1.3289 -1.2714 -2.9098
  430MOL0     H59273   4.952   5.388   7.376 -0.0001 -0.7227  0.1757
  430MOL0     H59274   4.952   5.343   7.202  1.3119 -2.6276  0.2398
  430MOL0     H59275   4.855   5.161   7.420 -1.2481  4.0978  1.5644
  430MOL0     H59276   4.924   5.116   7.261 -1.8531  0.3407 -0.2365
  430MOL0     H59277   5.134   5.233   7.365 -1.1390 -0.1256 -0.4796
  430MOL0     H59278   5.066   5.183   7.523 -2.1109 -1.0451  1.0458
  430MOL0     H59279   5.034   4.966   7.449  1.0965  1.3297  1.7536
  430MOL0     H59280   5.094   4.996   7.283 -3.4081 -1.2440 -0.0465
  430MOL0     H59281   5.257   4.985   7.533  0.1092  1.7621  0.1987
  430MOL0     H59282   5.322   5.059   7.380  0.9655  0.0462  1.7130
  430MOL0     H59283   5.227   4.768   7.424  2.1644 -2.7133 -0.7899
  430MOL0     H59284   5.275   4.827   7.270  0.5405 -3.1797  0.9152
  430MOL0     H59285   5.498   4.853   7.352 -2.4485  2.2398 -2.2652
  430MOL0     H59286   5.441   4.698   7.351 -0.2562  0.9997 -1.0343
  430MOL0     H59287   5.451   4.842   7.622  3.1204 -1.9785  2.5959
  430MOL0     H59288   5.405   4.674   7.589 -2.5889  0.4735 -0.2275
  430MOL0     H59289   5.692   4.946   7.613  0.3541  0.0430  0.8692
  430MOL0     H59290   6.033   4.791   7.507 -2.1357 -1.2124  3.2242
  430MOL0     H59291   5.967   4.940   7.574 -1.8039  2.2695 -1.9088
  430MOL0     H59292   6.038   5.019   7.351  2.1064 -1.6072  1.4775
  430MOL0     H59293   5.951   4.873   7.290 -1.2763  1.3215 -2.0429
  430MOL0     H59294   5.749   4.968   7.297 -0.7147  1.2383 -0.6124
  430MOL0     H59295   5.775   5.063   7.445 -2.3079  1.2344 -1.6314
  430MOL0     H59296   5.733   5.179   7.239 -0.7734  0.3363  0.1979
  430MOL0     H59297   5.884   5.230   7.318 -1.7326  2.2144 -1.6836
  430MOL0     H59298   5.871   5.363   7.136  0.4384 -0.9209 -0.2079
  430MOL0     H59299   6.038   5.623   7.086  1.4500  0.7992 -0.6486
  430MOL0     H59300   5.878   5.560   7.045  2.1154  0.3039  2.5502
  430MOL0     H59301   5.975   5.634   6.919  2.2097  2.2974  0.3706
  430MOL0     H59302   6.516   5.548   6.876 -1.1849  0.6084  0.6713
  430MOL0     H59303   6.693   5.703   6.743 -2.9713  1.4556  2.0474
  430MOL0     H59304   6.887   5.790   6.445 -0.6021 -0.6857 -1.1421
  430MOL0     H59305   6.888   5.744   6.610  0.5792 -2.6099  0.0482
  430MOL0     H59306   6.891   5.483   6.527  0.6581  0.3951 -0.0924
  430MOL0     H59307   6.915   5.580   6.371 -1.6623  4.3373 -0.9848
  430MOL0     H59308   7.128   5.673   6.501 -4.1731  2.0810  2.2747
  430MOL0     H59309   7.129   5.523   6.424  0.6967  0.7325 -0.4343
  430MOL0     H59310   7.235   5.514   6.646 -0.4327 -0.1511  2.7864
  430MOL0     H59311   7.078   5.426   6.662  0.2590 -0.9648 -0.7092
  430MOL0     H59312   6.990   5.626   6.783 -0.4081 -1.3188 -1.8699
  430MOL0     H59313   7.135   5.580   6.863  0.0581 -2.1455 -0.3651
  430MOL0     H59314   7.121   5.800   6.663 -1.8709 -1.8660 -0.6502
  430MOL0     H59315   7.275   5.751   6.716  1.0622  0.9686  1.4552
  430MOL0     H59316   7.212   5.786   6.955 -0.5270  3.5724  2.7240
  430MOL0     H59317   7.059   5.865   6.898  1.1553 -0.6268  3.4773
  430MOL0     H59318   7.192   6.020   6.761  0.8207  0.9439  0.0847
  430MOL0     H59319   7.351   5.950   6.823  0.9098  2.8105  2.4295
  430MOL0     H59320   6.515   5.588   6.375 -1.1152 -0.0505  0.1146
  430MOL0     H59321   6.337   5.457   6.499  0.2773  0.0526 -1.4092
  430MOL0     H59322   6.244   5.204   6.858  1.1913  1.9845  2.3606
  430MOL0     H59323   6.097   5.050   6.968 -2.2349 -0.5037 -0.5832
  430MOL0     H59324   4.541   5.382   7.336  0.7102 -0.8835 -0.3268
  430MOL0     H59325   4.342   5.332   7.186  0.0794 -2.5115 -0.4825
  430MOL0     H59326   4.028   5.157   7.077 -0.0286  0.0097  0.1033
  430MOL0     H59327   3.859   5.002   7.038 -2.2787  2.9183 -4.5931
  430MOL0     H59328   3.870   4.743   7.044  0.9090 -0.0080 -0.5133
  430MOL0     H59329   3.713   4.769   6.957 -0.8702 -2.2698 -1.7093
  430MOL0     H59330   3.763   4.565   6.818 -0.4924 -1.7377 -0.5348
  430MOL0     H59331   3.687   4.572   6.970  1.5590 -1.2033  2.7344
  430MOL0     H59332   3.861   4.446   7.069 -0.8080  1.8302  0.3645
  430MOL0     H59333   3.872   4.390   6.907 -2.4711  0.7907 -0.5090
  430MOL0     H59334   4.057   4.596   6.912  0.6998  1.7897  2.9651
  430MOL0     H59335   4.082   4.418   6.894  0.2798 -0.7727  0.9761
  430MOL0     H59336   4.209   4.458   7.286 -0.7851 -0.9998  0.5402
  430MOL0     H59337   4.081   4.834   6.714  1.2612 -0.5979  0.7559
  430MOL0     H59338   4.279   4.926   6.667 -4.1469  1.2915 -0.5225
  430MOL0     H59339   4.301   5.095   6.675  1.7493 -1.7186 -1.1770
  430MOL0     H59340   4.391   5.010   6.783  2.0136  0.2353 -3.4186
  431MOL0     O59341   5.744   0.658   1.403  0.0135 -0.0090  0.5142
  431MOL0     C59342   5.831   0.728   1.352 -1.0030 -0.5830  0.7715
  431MOL0     O59343   5.957   0.684   1.312 -1.1078  0.2597 -0.6934
  431MOL0     C59344   5.994   0.548   1.328 -0.2028 -0.0297 -0.0970
  431MOL0     C59345   6.113   0.510   1.380  0.0968 -0.1562  0.0336
  431MOL0     C59346   6.157   0.383   1.409  0.2193 -0.3012 -0.3580
  431MOL0     C59347   6.073   0.281   1.375  0.7572  0.3369  0.1305
  431MOL0     O59348   6.110   0.154   1.410 -0.2938 -1.4347 -0.1504
  431MOL0     C59349   6.059   0.100   1.539 -0.2438 -0.6481  0.1776
  431MOL0     C59350   6.160   0.140   1.657  0.2008 -0.3084  0.2569
  431MOL0     C59351   6.308   0.093   1.628 -0.0649 -0.3556 -0.4272
  431MOL0     C59352   6.403   0.131   1.748  0.4482 -0.3056 -0.1808
  431MOL0     C59353   6.525   0.047   1.749 -1.1250  0.1459  0.1438
  431MOL0     C59354   6.622   0.058   1.624  0.8447 -0.8152 -0.3622
  431MOL0     C59355   6.686   0.199   1.596  1.8401  1.1176 -0.4574
  431MOL0     C59356   6.792   0.200   1.484 -0.0198  0.6440  0.6823
  431MOL0     N59357   6.734   0.138   1.362 -0.0078  0.5328 -0.5999
  431MOL0     C59358   6.754   0.004   1.331 -0.0549  0.2610  0.2239
  431MOL0     C59359   6.692  -0.016   1.207 -0.3404 -0.9625  1.1394
  431MOL0     C59360   6.676  -0.144   1.129  0.9221 -0.3555 -0.1056
  431MOL0     C59361   6.685  -0.137   0.966 -0.1584 -0.5717 -0.7697
  431MOL0     C59362   6.829  -0.097   0.927  0.3076 -0.5356  0.9097
  431MOL0     C59363   6.870  -0.141   0.789 -0.0639 -1.3457 -0.4463
  431MOL0     O59364   7.011  -0.120   0.764  0.2535  0.7836  0.4729
  431MOL0     C59365   7.060  -0.156   0.638 -0.2226  0.5751 -0.8129
  431MOL0     C59366   6.982  -0.214   0.538  0.1669 -0.3718  0.4773
  431MOL0     C59367   7.031  -0.247   0.422 -0.2492  0.8412  0.3846
  431MOL0     C59368   6.936  -0.299   0.317  0.0772  0.2477  0.2035
  431MOL0     C59369   7.176  -0.231   0.397  0.4385  0.4393  0.1498
  431MOL0     C59370   7.246  -0.290   0.284  0.8699 -0.3778  0.1349
  431MOL0     O59371   7.351  -0.219   0.240 -0.6493 -0.1908  0.5308
  431MOL0     C59372   7.414  -0.277   0.133 -0.5539  0.9022  0.0283
  431MOL0     C59373   7.392  -0.245  -0.001 -0.6555  0.2410 -0.0352
  431MOL0     C59374   7.468  -0.307  -0.103  0.7100 -0.4049  0.0795
  431MOL0     C59375   7.580  -0.388  -0.073  0.5359  0.1842 -0.6130
  431MOL0     O59376   7.670  -0.448  -0.157  0.5799 -0.4278 -0.3086
  431MOL0     C59377   7.636  -0.471  -0.305 -0.0813 -0.0002  0.4644
  431MOL0     C59378   7.607  -0.617  -0.319  0.4422  0.7131  0.0772
  431MOL0     C59379   7.606  -0.666  -0.461 -0.0588  0.0924  0.1954
  431MOL0     C59380   7.483  -0.624  -0.541  0.2507 -0.9569 -0.1358
  431MOL0     C59381   7.480  -0.719  -0.667 -0.0444 -0.7357 -0.5137
  431MOL0     C59382   7.375  -0.677  -0.769  0.5018  0.6049  0.1393
  431MOL0     C59383   7.403  -0.536  -0.822 -0.2877  0.0451  0.4866
  431MOL0     C59384   7.301  -0.513  -0.935  0.1771  0.1061  0.3343
  431MOL0    Cl59385   7.356  -0.373  -1.032 -0.3434 -0.2050  0.0107
  431MOL0     C59386   7.609  -0.418   0.063  0.3641 -0.8391  0.9256
  431MOL0     C59387   7.526  -0.362   0.161  0.8271 -0.4875 -0.0431
  431MOL0     O59388   7.203  -0.389   0.231 -0.5558  0.0518  0.1259
  431MOL0     C59389   7.254  -0.155   0.496  0.3861  0.2112 -0.1892
  431MOL0     C59390   7.192  -0.125   0.620  0.1886 -0.1338  0.6175
  431MOL0     N59391   6.624   0.108   1.176  0.4283  0.0924  0.7438
  431MOL0     N59392   6.651   0.193   1.270 -0.6813  0.0882  1.0621
  431MOL0     C59393   5.948   0.305   1.317  1.0571 -1.0182  0.8283
  431MOL0     C59394   5.907   0.440   1.299  1.0850  0.7017 -0.9947
  431MOL0     C59395   5.816   0.873   1.322 -0.5359  0.0545 -0.4628
  431MOL0     C59396   5.937   0.948   1.323  1.1210 -0.3616 -0.0718
  431MOL0     C59397   5.929   1.091   1.325  0.2587  0.6057  0.4479
  431MOL0     C59398   5.806   1.156   1.315  0.1208  0.3698  0.1967
  431MOL0     O59399   5.787   1.299   1.327 -0.2220  0.1255 -0.1640
  431MOL0     C59400   5.900   1.384   1.319  0.0396 -0.8404  0.3376
  431MOL0     C59401   5.977   1.397   1.450 -0.3026  0.6410 -0.4983
  431MOL0     C59402   5.910   1.482   1.563 -0.2733 -0.4690 -0.7869
  431MOL0     C59403   6.022   1.532   1.661  0.2559 -0.6942  0.2093
  431MOL0     C59404   5.958   1.577   1.784 -0.4163  0.2429 -0.9489
  431MOL0     C59405   5.882   1.601   1.878  0.7021 -0.5068 -0.4586
  431MOL0     C59406   5.694   1.085   1.319 -0.6337  0.5530 -0.4875
  431MOL0     C59407   5.697   0.945   1.310  0.7417  1.0967 -0.3300
  431MOL0     C59408   5.567   0.870   1.306 -0.1601  0.7962  0.6144
  431MOL0     H59409   6.178   0.590   1.414 -0.0236  0.2277 -0.6195
  431MOL0     H59410   6.253   0.351   1.450 -1.1534 -5.8515 -0.5786
  431MOL0     H59411   6.049  -0.008   1.529 -0.1752 -0.4469 -3.8605
  431MOL0     H59412   5.957   0.139   1.545 -0.6953 -1.0310 -2.9616
  431MOL0     H59413   6.167   0.249   1.660  0.7366 -0.2344 -1.7448
  431MOL0     H59414   6.122   0.107   1.754 -2.9368  2.4051  0.1300
  431MOL0     H59415   6.313  -0.015   1.614 -3.3672 -1.1707  3.0309
  431MOL0     H59416   6.337   0.140   1.533  0.2398  0.1872 -0.0745
  431MOL0     H59417   6.416   0.239   1.757 -4.1281  0.4570 -0.3226
  431MOL0     H59418   6.356   0.104   1.844  0.9474 -0.8890 -0.0905
  431MOL0     H59419   6.496  -0.057   1.760 -3.6772  0.6657 -1.0197
  431MOL0     H59420   6.573   0.084   1.840 -3.9146  0.9125  1.4013
  431MOL0     H59421   6.713  -0.003   1.634  2.0135  1.2721  3.5415
  431MOL0     H59422   6.556   0.030   1.541 -2.6503  5.0186 -0.0402
  431MOL0     H59423   6.736   0.244   1.683 -0.4234  3.0103 -0.0045
  431MOL0     H59424   6.600   0.256   1.560  0.1823 -1.4491 -0.7603
  431MOL0     H59425   6.822   0.304   1.472  0.8147  0.1818 -1.8339
  431MOL0     H59426   6.878   0.144   1.522 -0.2389  1.0231  1.7759
  431MOL0     H59427   6.809  -0.068   1.391 -0.5767 -3.7503 -3.5956
  431MOL0     H59428   6.570  -0.156   1.156  0.6096  0.4250 -0.9399
  431MOL0     H59429   6.728  -0.233   1.166 -1.9746 -2.8748 -1.5432
  431MOL0     H59430   6.648  -0.218   0.903 -0.5128  0.4828 -1.9706
  431MOL0     H59431   6.626  -0.050   0.935  1.7428  1.4187  0.8625
  431MOL0     H59432   6.841   0.011   0.937 -1.2896 -0.2373 -0.1027
  431MOL0     H59433   6.890  -0.138   1.009  0.5043  1.1483  1.6483
  431MOL0     H59434   6.846  -0.244   0.763  2.7782 -1.8646 -1.4208
  431MOL0     H59435   6.818  -0.074   0.720 -1.6557 -1.9931  0.0846
  431MOL0     H59436   6.875  -0.218   0.553 -0.2722  0.6619 -1.9408
  431MOL0     H59437   6.841  -0.328   0.362  0.4645  0.6074  1.2749
  431MOL0     H59438   6.971  -0.385   0.260  0.2478 -0.5665  1.5023
  431MOL0     H59439   6.910  -0.219   0.247 -3.3780 -1.3432 -0.5265
  431MOL0     H59440   7.300  -0.204  -0.042 -1.6204 -2.6839 -1.0393
  431MOL0     H59441   7.435  -0.299  -0.206 -1.6604  0.3758  0.8423
  431MOL0     H59442   7.556  -0.411  -0.351  0.0421  0.4609  0.8479
  431MOL0     H59443   7.724  -0.457  -0.368  1.4858  0.8490  2.7225
  431MOL0     H59444   7.679  -0.670  -0.258 -1.2342  1.2782  2.7065
  431MOL0     H59445   7.505  -0.631  -0.280  1.0034 -1.4129  0.9180
  431MOL0     H59446   7.614  -0.776  -0.463  2.5583  0.2249 -1.6875
  431MOL0     H59447   7.695  -0.635  -0.516  1.5843 -3.2791  0.6454
  431MOL0     H59448   7.500  -0.521  -0.576  3.1418 -0.1950  2.9854
  431MOL0     H59449   7.397  -0.623  -0.474 -0.8314 -1.8059 -1.4586
  431MOL0     H59450   7.578  -0.720  -0.714  0.2902 -0.7062  0.1717
  431MOL0     H59451   7.448  -0.820  -0.638  0.3181 -0.8228 -0.4184
  431MOL0     H59452   7.284  -0.672  -0.709  0.1210 -0.1065 -0.3629
  431MOL0     H59453   7.366  -0.752  -0.848  2.9882  1.5553 -1.1794
  431MOL0     H59454   7.502  -0.531  -0.868 -0.0012  1.2536  1.1744
  431MOL0     H59455   7.401  -0.456  -0.747  2.5701  2.0961 -1.4015
  431MOL0     H59456   7.208  -0.484  -0.885  0.3482  1.1265  0.0906
  431MOL0     H59457   7.288  -0.595  -1.007 -0.0410  2.5145 -2.5578
  431MOL0     H59458   7.679  -0.499   0.081  1.2494 -0.5729 -1.1181
  431MOL0     H59459   7.548  -0.407   0.257  0.4616 -0.1781  0.1922
  431MOL0     H59460   7.346  -0.103   0.473 -0.8229  1.1765 -3.4945
  431MOL0     H59461   7.242  -0.062   0.693  0.3424 -0.4986  0.8313
  431MOL0     H59462   5.880   0.226   1.288 -2.0891  0.4804  3.4594
  431MOL0     H59463   5.812   0.462   1.252  1.8183  2.1834 -1.8551
  431MOL0     H59464   6.035   0.903   1.339  2.3904  2.5904  1.3381
  431MOL0     H59465   6.023   1.145   1.329  1.7016 -1.4167 -2.2870
  431MOL0     H59466   5.976   1.336   1.257 -0.4751 -1.0885 -0.1066
  431MOL0     H59467   5.864   1.482   1.284 -0.4761 -0.4309  1.9253
  431MOL0     H59468   6.075   1.441   1.430  1.0094  0.1027  3.7400
  431MOL0     H59469   6.008   1.300   1.488 -2.4951  0.9334  2.3609
  431MOL0     H59470   5.842   1.560   1.528  1.5963  3.5716  3.5855
  431MOL0     H59471   5.847   1.414   1.622  1.1660  0.5192  2.0801
  431MOL0     H59472   6.070   1.623   1.624 -1.6534 -0.2221 -1.2811
  431MOL0     H59473   6.105   1.464   1.681  3.0270  1.7982 -1.7763
  431MOL0     H59474   5.816   1.608   1.962 -0.5148 -0.8118 -1.3588
  431MOL0     H59475   5.602   1.141   1.311  1.4970  4.1762 -1.9236
  431MOL0     H59476   5.543   0.825   1.403 -1.0720 -1.7236 -0.6907
  431MOL0     H59477   5.488   0.943   1.282 -0.0361  0.8771  0.4550
  431MOL0     H59478   5.569   0.797   1.225  1.6210  0.8138  0.6184
  432MOL0     O59479   5.908   4.821   5.016  0.7107  0.7931  0.1601
  432MOL0     C59480   5.831   4.749   4.960 -0.8625  0.0974  0.2514
  432MOL0     O59481   5.855   4.622   4.905 -0.5056 -0.0440  0.0397
  432MOL0     C59482   5.980   4.573   4.876  0.2336 -0.4882  0.2283
  432MOL0     C59483   6.027   4.572   4.739 -0.3233 -0.1790 -0.6888
  432MOL0     C59484   6.160   4.542   4.711 -0.7408  0.4864  0.0398
  432MOL0     C59485   6.240   4.485   4.820 -0.2579  0.2118 -0.1308
  432MOL0     O59486   6.364   4.452   4.776  0.5673  0.0346 -0.3213
  432MOL0     C59487   6.449   4.386   4.867  0.2618 -0.5203  0.2922
  432MOL0     C59488   6.556   4.307   4.789 -0.4420 -0.0470  0.1251
  432MOL0     C59489   6.475   4.199   4.713  0.0607 -0.4501  0.6944
  432MOL0     C59490   6.550   4.114   4.613  0.8467  0.4582 -0.9256
  432MOL0     C59491   6.677   4.036   4.654  0.3726 -0.0408  0.0290
  432MOL0     C59492   6.641   3.900   4.717 -0.2458  1.0054  0.0636
  432MOL0     C59493   6.745   3.795   4.733 -0.5242  0.8447  0.2200
  432MOL0     C59494   6.862   3.782   4.648  0.4658 -0.2605 -0.1571
  432MOL0     N59495   6.923   3.652   4.665  0.7270  0.5254  0.0235
  432MOL0     C59496   6.926   3.557   4.569 -0.7585  0.0117 -0.0183
  432MOL0     C59497   7.001   3.467   4.631 -0.1464  0.8558 -0.1685
  432MOL0     C59498   7.040   3.351   4.552  0.6881  0.0810  0.5404
  432MOL0     C59499   7.174   3.369   4.483  0.2680 -0.2860 -0.1110
  432MOL0     C59500   7.282   3.264   4.512  0.1350  0.8140 -0.2018
  432MOL0     C59501   7.400   3.263   4.414 -0.2598 -0.1079 -1.4169
  432MOL0     O59502   7.473   3.147   4.426  0.3509 -0.3941  1.0304
  432MOL0     C59503   7.546   3.113   4.541 -0.3155  0.6251 -0.0620
  432MOL0     C59504   7.619   3.200   4.623 -0.1515 -0.4969  0.0622
  432MOL0     C59505   7.699   3.154   4.734  0.2118 -0.1531 -0.1768
  432MOL0     C59506   7.808   3.257   4.777  0.3985  0.0517 -0.0890
  432MOL0     C59507   7.683   3.016   4.780  0.6092  0.4583 -0.9994
  432MOL0     C59508   7.747   2.947   4.903 -0.7591  0.6572 -0.4881
  432MOL0     O59509   7.704   2.825   4.930  0.0178  0.5474 -0.0867
  432MOL0     C59510   7.776   2.745   5.015 -0.3336 -0.8415 -0.0582
  432MOL0     C59511   7.787   2.771   5.149  0.1665 -0.5896 -0.1371
  432MOL0     C59512   7.850   2.682   5.234  0.3039 -0.6441 -0.4403
  432MOL0     C59513   7.907   2.560   5.192 -0.9384  0.4687  0.2078
  432MOL0     O59514   7.971   2.468   5.270  0.2578  0.0192  1.1019
  432MOL0     C59515   8.066   2.514   5.370 -0.0621 -1.1679  0.5450
  432MOL0     C59516   8.119   2.401   5.453  0.0821 -0.1856  0.5309
  432MOL0     C59517   8.011   2.333   5.539  0.8026 -0.0830 -0.1289
  432MOL0     C59518   8.083   2.217   5.617  0.5181 -0.0325 -0.0173
  432MOL0     C59519   8.017   2.164   5.728  0.9249  0.1540 -1.4175
  432MOL0     C59520   8.108   2.093   5.826  1.6662 -0.6055 -0.1917
  432MOL0     C59521   8.024   2.044   5.948 -0.0845  0.0044  0.1922
  432MOL0     C59522   8.108   1.950   6.030 -0.2575  0.2960  0.0984
  432MOL0    Cl59523   8.123   1.789   5.949  0.0468 -0.1188 -0.1807
  432MOL0     C59524   7.891   2.530   5.054  0.1271  0.6565  0.0657
  432MOL0     C59525   7.825   2.625   4.973 -0.7984  0.0881  1.1454
  432MOL0     O59526   7.828   3.013   4.980  0.6848  0.9020 -0.1780
  432MOL0     C59527   7.600   2.927   4.696  0.0692  0.0800 -0.0637
  432MOL0     C59528   7.540   2.973   4.582  0.2902  0.5385 -0.0922
  432MOL0     N59529   7.045   3.517   4.758  0.1011  1.4159  0.2767
  432MOL0     N59530   6.985   3.625   4.782  0.0217  0.3157  0.3621
  432MOL0     C59531   6.196   4.468   4.952  0.3123  0.3252  0.0692
  432MOL0     C59532   6.064   4.521   4.975  0.6026 -0.1582  0.6369
  432MOL0     C59533   5.696   4.799   4.949 -0.9204  0.0283 -0.0799
  432MOL0     C59534   5.679   4.934   4.956 -0.0651  0.0809 -1.1795
  432MOL0     C59535   5.556   4.997   4.948 -0.7308  0.0007 -0.7910
  432MOL0     C59536   5.443   4.929   4.940 -0.1398 -0.0623 -0.2637
  432MOL0     O59537   5.329   5.004   4.964 -0.3598  0.7653 -0.0846
  432MOL0     C59538   5.216   4.928   5.003  0.4755 -0.9078  0.1620
  432MOL0     C59539   5.122   5.017   5.076 -1.1262  0.0668 -0.9024
  432MOL0     C59540   5.065   5.123   4.979 -0.3051  1.4489  0.1367
  432MOL0     C59541   4.980   5.231   5.045  0.8168  0.2946  0.1490
  432MOL0     C59542   4.979   5.339   4.944 -0.8626 -0.7206 -0.6680
  432MOL0     C59543   4.991   5.438   4.870 -0.2286  0.2995 -0.0549
  432MOL0     C59544   5.453   4.788   4.927 -0.5493 -0.0442  0.0074
  432MOL0     C59545   5.577   4.721   4.935  0.1357 -0.1427  1.0817
  432MOL0     C59546   5.579   4.568   4.927 -0.5443 -0.1329  0.5998
  432MOL0     H59547   5.951   4.603   4.668  0.1799  0.4276 -0.9662
  432MOL0     H59548   6.204   4.540   4.611 -0.3029 -2.8464  0.1974
  432MOL0     H59549   6.398   4.321   4.939 -0.6517 -0.5679 -0.3879
  432MOL0     H59550   6.485   4.473   4.922  0.9086 -0.1085 -0.7517
  432MOL0     H59551   6.625   4.373   4.735  3.8014 -2.8282  1.6032
  432MOL0     H59552   6.632   4.261   4.853  0.1407 -0.5358 -0.8893
  432MOL0     H59553   6.431   4.116   4.769  1.6235 -2.9483 -1.5656
  432MOL0     H59554   6.399   4.241   4.647  0.6648 -2.8350 -1.6769
  432MOL0     H59555   6.477   4.044   4.570  1.5304  0.5048 -2.2245
  432MOL0     H59556   6.583   4.183   4.535  0.1517  1.1875 -0.5849
  432MOL0     H59557   6.746   4.092   4.717  1.9747 -0.2290 -1.4656
  432MOL0     H59558   6.735   4.008   4.565  1.7495 -1.5723  1.3541
  432MOL0     H59559   6.605   3.918   4.819 -0.7840 -0.5484  0.1716
  432MOL0     H59560   6.556   3.861   4.661  1.5444 -0.3352 -1.8718
  432MOL0     H59561   6.696   3.697   4.731  0.5859  0.2706 -2.2761
  432MOL0     H59562   6.786   3.796   4.835  1.7659  3.2940 -0.6361
  432MOL0     H59563   6.826   3.790   4.545 -1.9485  1.2685  0.7219
  432MOL0     H59564   6.935   3.863   4.663  0.6387  1.0403 -5.6865
  432MOL0     H59565   6.873   3.568   4.475 -0.7723  1.2253  0.1061
  432MOL0     H59566   6.954   3.325   4.490  0.8031 -4.0553  1.8061
  432MOL0     H59567   7.051   3.275   4.630  1.1449 -0.3014  0.1100
  432MOL0     H59568   7.158   3.378   4.375 -0.0109  1.5108  0.0555
  432MOL0     H59569   7.218   3.464   4.512 -0.6163  0.7062 -1.8589
  432MOL0     H59570   7.318   3.274   4.615 -0.5761 -0.9446  0.2550
  432MOL0     H59571   7.243   3.163   4.502  3.3140 -0.5249 -0.4360
  432MOL0     H59572   7.367   3.288   4.312 -0.3847 -0.8299 -1.5585
  432MOL0     H59573   7.450   3.357   4.440 -1.5245 -0.0877  1.1640
  432MOL0     H59574   7.624   3.302   4.587 -5.0940 -0.0675 -0.1027
  432MOL0     H59575   7.904   3.204   4.781  0.0281 -0.5670  1.7149
  432MOL0     H59576   7.787   3.303   4.874 -0.0468  0.8569 -0.5599
  432MOL0     H59577   7.818   3.340   4.708  1.7407 -0.0809 -0.0736
  432MOL0     H59578   7.740   2.863   5.182  0.0712  0.6220 -3.3456
  432MOL0     H59579   7.871   2.713   5.336  0.2633 -1.0723 -0.3006
  432MOL0     H59580   8.152   2.567   5.327 -0.6789 -1.5508 -1.2579
  432MOL0     H59581   8.021   2.594   5.429  1.2731 -0.1796  0.2677
  432MOL0     H59582   8.181   2.332   5.395 -0.8832 -0.3954 -0.2779
  432MOL0     H59583   8.190   2.453   5.518 -0.4959  1.1919  0.1008
  432MOL0     H59584   7.926   2.283   5.490  1.2634 -1.7332  0.6995
  432MOL0     H59585   7.972   2.411   5.605 -1.4773 -0.7965 -0.5236
  432MOL0     H59586   8.186   2.237   5.645  1.0389 -2.4717  0.0283
  432MOL0     H59587   8.084   2.130   5.550 -0.6954 -0.3087  0.2919
  432MOL0     H59588   7.962   2.242   5.783 -1.4952  1.5982 -5.4649
  432MOL0     H59589   7.932   2.103   5.697  1.0573 -2.2906  2.3423
  432MOL0     H59590   8.185   2.166   5.850  0.8085  1.4540 -3.2175
  432MOL0     H59591   8.148   2.004   5.777  1.3875  0.6021 -2.7514
  432MOL0     H59592   7.934   1.988   5.921  0.0510  0.7025 -1.9174
  432MOL0     H59593   8.001   2.139   5.998  3.7703  1.5913 -0.7353
  432MOL0     H59594   8.050   1.939   6.121  0.5161  1.2943  0.7412
  432MOL0     H59595   8.203   1.994   6.065 -0.2659 -0.2187  0.7811
  432MOL0     H59596   7.925   2.431   5.025  2.5133  1.1424  0.9715
  432MOL0     H59597   7.794   2.608   4.870  1.0274 -3.0256  0.9887
  432MOL0     H59598   7.570   2.823   4.710 -0.4962 -0.5001 -4.1272
  432MOL0     H59599   7.465   2.924   4.520 -1.2660  0.8170  1.4863
  432MOL0     H59600   6.254   4.431   5.036  1.3947 -2.4825 -1.7761
  432MOL0     H59601   6.034   4.524   5.079  2.9704 -0.1003  1.3780
  432MOL0     H59602   5.768   4.993   4.940  0.6589 -0.6796 -0.1333
  432MOL0     H59603   5.545   5.105   4.942 -5.6980 -0.2926 -1.3001
  432MOL0     H59604   5.169   4.901   4.908 -1.0952  0.9997  0.3248
  432MOL0     H59605   5.225   4.843   5.071 -2.8520 -0.8837  0.7774
  432MOL0     H59606   5.174   5.072   5.155 -3.7395  1.4522 -0.0279
  432MOL0     H59607   5.039   4.961   5.119  1.1179 -1.1169  2.2126
  432MOL0     H59608   5.156   5.170   4.943  2.4240 -1.6878  2.3655
  432MOL0     H59609   5.004   5.068   4.906 -0.4539  0.4833  0.9620
  432MOL0     H59610   5.012   5.261   5.145 -2.4466 -4.4906  3.1062
  432MOL0     H59611   4.885   5.178   5.062 -1.2758  3.0728 -1.8786
  432MOL0     H59612   4.989   5.528   4.813 -0.0348 -0.8116 -1.9230
  432MOL0     H59613   5.359   4.733   4.927 -2.4568  2.9714  0.5271
  432MOL0     H59614   5.627   4.543   4.832  0.5347  4.1336 -0.1877
  432MOL0     H59615   5.654   4.538   5.002  0.5659  1.2577  0.1026
  432MOL0     H59616   5.484   4.515   4.941 -0.1691 -2.3724 -3.6165
  433MOL0     O59617   0.107  10.152  10.549 -0.3022 -0.1531  0.2536
  433MOL0     C59618   0.177  10.120  10.457  0.8032  0.3567  0.7224
  433MOL0     O59619   0.314  10.111  10.461  0.0341  1.0142 -0.5818
  433MOL0     C59620   0.404  10.139  10.562  0.2558  0.6739  0.1633
  433MOL0     C59621   0.381  10.144  10.694 -0.2179  0.7714 -0.8448
  433MOL0     C59622   0.486  10.192  10.784 -0.7448 -0.8726  0.0815
  433MOL0     C59623   0.619  10.217  10.736  0.8972 -1.0862  0.0028
  433MOL0     O59624   0.727  10.263  10.819  0.6893  0.2667  1.1452
  433MOL0     C59625   0.728  10.227  10.955  0.1792  0.8502 -0.4375
  433MOL0     C59626   0.869  10.265  11.010  0.1558  0.3007  0.0085
  433MOL0     C59627   0.877  10.414  11.061 -0.0942  0.0994 -0.3775
  433MOL0     C59628   0.936  10.512  10.957  0.6485 -0.0058  0.6406
  433MOL0     C59629   0.969  10.654  11.008 -0.2008  0.2197  0.1244
  433MOL0     C59630   0.848  10.721  11.067  1.6368 -0.4568 -0.9426
  433MOL0     C59631   0.881  10.857  11.134  0.5334 -1.0201 -0.1457
  433MOL0     C59632   0.877  10.843  11.278  0.6656 -0.9467 -1.3769
  433MOL0     N59633   0.910  10.956  11.369 -0.1318  0.0172  0.2150
  433MOL0     C59634   0.821  11.049  11.408  0.3291 -0.5637  1.0384
  433MOL0     C59635   0.880  11.116  11.507 -0.1493 -0.6296 -0.3851
  433MOL0     C59636   0.828  11.224  11.591  0.2329 -0.0365 -0.5655
  433MOL0     C59637   0.685  11.185  11.663 -0.0214  0.2495  0.8156
  433MOL0     C59638   0.639  11.272  11.775 -0.9804 -0.5772  0.0579
  433MOL0     C59639   0.484  11.250  11.783  0.0586  0.6510  0.0461
  433MOL0     O59640   0.446  11.119  11.815  0.2911 -0.0590 -0.0125
  433MOL0     C59641   0.364  11.035  11.731  0.2545  0.4538 -0.7698
  433MOL0     C59642   0.343  11.061  11.597 -0.1627  1.3717 -0.1932
  433MOL0     C59643   0.245  10.986  11.525 -0.6483  1.2686 -0.8800
  433MOL0     C59644   0.210  11.057  11.394 -0.3512  0.4828 -0.2324
  433MOL0     C59645   0.183  10.878  11.578  0.1438 -0.8540 -0.5515
  433MOL0     C59646   0.085  10.794  11.504 -0.5873 -1.1214 -0.0681
  433MOL0     O59647   0.032  10.687  11.580 -0.3724  0.6869 -0.2950
  433MOL0     C59648  -0.049  10.592  11.529  0.0538 -0.3914 -0.2613
  433MOL0     C59649  -0.185  10.610  11.503  0.6823  0.5234  0.5979
  433MOL0     C59650  -0.256  10.513  11.427  0.5299 -0.1456 -0.0699
  433MOL0     C59651  -0.191  10.391  11.396  0.6845 -0.0040 -0.0045
  433MOL0     O59652  -0.263  10.286  11.337  0.1831 -0.2310 -0.4429
  433MOL0     C59653  -0.234  10.146  11.381 -0.4205  1.3638  0.6711
  433MOL0     C59654  -0.315  10.044  11.291 -0.1616 -0.3091 -0.4456
  433MOL0     C59655  -0.323   9.912  11.358 -0.4888  0.1196  0.1578
  433MOL0     C59656  -0.408   9.805  11.294  0.5661 -0.0750  0.0859
  433MOL0     C59657  -0.399   9.672  11.372 -0.4820  0.2825 -0.1062
  433MOL0     C59658  -0.501   9.565  11.325  0.6209 -0.3503  1.5374
  433MOL0     C59659  -0.486   9.427  11.392  0.4009 -1.1908  0.4272
  433MOL0     C59660  -0.599   9.385  11.474  0.1947 -0.3698 -0.8421
  433MOL0    Cl59661  -0.648   9.473  11.624 -0.1949  0.3085  0.3347
  433MOL0     C59662  -0.058  10.370  11.423 -1.5950 -0.1742 -0.5757
  433MOL0     C59663   0.019  10.473  11.480  0.0985  0.0036  0.3212
  433MOL0     O59664   0.067  10.808  11.383  0.1634 -0.0460  0.5269
  433MOL0     C59665   0.213  10.848  11.709  0.0580 -0.5889 -0.7915
  433MOL0     C59666   0.298  10.922  11.790  1.3558 -0.6258 -0.2664
  433MOL0     N59667   0.987  11.044  11.542 -0.0900 -0.9206 -0.1489
  433MOL0     N59668   1.006  10.941  11.464  0.7846 -0.0391  0.1701
  433MOL0     C59669   0.627  10.229  10.597 -0.6293 -0.5713 -0.1401
  433MOL0     C59670   0.521  10.195  10.514  1.0303  1.9741 -0.1011
  433MOL0     C59671   0.102  10.070  10.338  0.0944  0.6337  0.1537
  433MOL0     C59672  -0.034  10.029  10.342 -0.2277 -0.0151 -0.6742
  433MOL0     C59673  -0.114  10.003  10.234 -1.3254  0.3482 -0.1354
  433MOL0     C59674  -0.059  10.018  10.105 -0.1672  0.3303 -0.5655
  433MOL0     O59675  -0.142   9.964  10.004 -0.6793  0.7962 -1.0837
  433MOL0     C59676  -0.085   9.951   9.875  0.3409 -0.2080  0.1555
  433MOL0     C59677  -0.206   9.906   9.791 -0.2757  0.2622  0.1227
  433MOL0     C59678  -0.337   9.990   9.760 -0.8662  0.0893  0.2324
  433MOL0     C59679  -0.402  10.065   9.871 -0.0624 -0.4303 -0.3309
  433MOL0     C59680  -0.526  10.131   9.824 -0.8734 -0.8291 -0.4162
  433MOL0     C59681  -0.611  10.177   9.752 -0.5896  0.1977  0.0294
  433MOL0     C59682   0.079  10.055  10.093 -0.7380 -1.2871  0.1682
  433MOL0     C59683   0.162  10.081  10.207 -0.2819 -0.9518  0.4875
  433MOL0     C59684   0.308  10.137  10.179  1.3249  0.1676  0.3989
  433MOL0     H59685   0.292  10.106  10.742 -0.4881  0.9653 -1.1966
  433MOL0     H59686   0.460  10.206  10.888  0.3803 -1.4764  0.4596
  433MOL0     H59687   0.725  10.118  10.965  0.7002  0.4831 -3.4131
  433MOL0     H59688   0.655  10.289  11.010 -0.1190  0.3140 -0.2222
  433MOL0     H59689   0.888  10.192  11.089 -1.1194 -0.3411 -0.2572
  433MOL0     H59690   0.945  10.238  10.935 -0.4794 -0.2016 -0.4624
  433MOL0     H59691   0.780  10.450  11.095 -0.5664 -2.3438  1.0638
  433MOL0     H59692   0.948  10.417  11.145 -0.3820 -2.1414 -0.0038
  433MOL0     H59693   1.037  10.473  10.942  0.1608 -1.2663  0.4899
  433MOL0     H59694   0.894  10.508  10.856  3.1196  3.1193 -0.6873
  433MOL0     H59695   1.018  10.710  10.927 -1.8310  0.6162 -0.6388
  433MOL0     H59696   1.044  10.630  11.084  1.4756 -1.1283 -1.8489
  433MOL0     H59697   0.779  10.740  10.984 -1.0150  0.8429  1.3893
  433MOL0     H59698   0.798  10.659  11.142 -2.8044  1.6623 -1.8091
  433MOL0     H59699   0.804  10.927  11.100 -2.2618 -3.6238  0.4029
  433MOL0     H59700   0.977  10.897  11.101 -0.2819  2.8437  1.5991
  433MOL0     H59701   0.777  10.815  11.311  0.0819  0.9992 -1.3453
  433MOL0     H59702   0.952  10.764  11.288  0.0506 -1.7697 -2.9244
  433MOL0     H59703   0.724  11.071  11.364  0.7054 -0.0867  0.4174
  433MOL0     H59704   0.791  11.304  11.526  0.0698 -0.3888 -0.9102
  433MOL0     H59705   0.897  11.258  11.668 -3.1963 -1.2797  3.4282
  433MOL0     H59706   0.611  11.168  11.585  4.7301 -2.4136 -3.7214
  433MOL0     H59707   0.696  11.087  11.711 -0.8270 -0.2751 -0.0371
  433MOL0     H59708   0.690  11.243  11.867  3.9872  0.1642 -2.1718
  433MOL0     H59709   0.664  11.376  11.751  3.4900 -1.4405  0.1289
  433MOL0     H59710   0.447  11.324  11.854 -4.6108  0.4945 -1.8784
  433MOL0     H59711   0.429  11.285  11.696  0.7004 -1.7213 -1.4034
  433MOL0     H59712   0.394  11.140  11.543  2.8619 -2.3929 -3.5452
  433MOL0     H59713   0.224  11.164  11.411 -0.2262  0.4491 -0.1239
  433MOL0     H59714   0.107  11.043  11.360 -0.3435  0.5314 -0.2758
  433MOL0     H59715   0.275  11.032  11.310 -0.5159 -0.1411 -0.1812
  433MOL0     H59716  -0.244  10.696  11.532 -3.7384 -2.2750  0.6598
  433MOL0     H59717  -0.363  10.525  11.414  0.6054 -0.9651 -1.6657
  433MOL0     H59718  -0.128  10.123  11.368 -0.7300  0.7223 -0.9931
  433MOL0     H59719  -0.249  10.123  11.486  0.1688 -0.5585  0.3782
  433MOL0     H59720  -0.416  10.085  11.276 -1.3094 -1.0641  3.8419
  433MOL0     H59721  -0.264  10.040  11.194  0.3250  1.0226 -0.2665
  433MOL0     H59722  -0.363   9.928  11.459  0.5169 -1.7291  0.8934
  433MOL0     H59723  -0.227   9.859  11.360  0.9641  2.5641  2.7857
  433MOL0     H59724  -0.391   9.789  11.187 -0.3681  2.8853 -0.6025
  433MOL0     H59725  -0.509   9.846  11.291  0.1790 -1.0780 -2.4379
  433MOL0     H59726  -0.300   9.624  11.369 -0.5607 -0.3059  3.1385
  433MOL0     H59727  -0.424   9.691  11.477 -2.8944 -0.7005 -0.4267
  433MOL0     H59728  -0.501   9.556  11.216  1.2549  2.4572  1.2418
  433MOL0     H59729  -0.607   9.594  11.334  0.5614  0.6288 -1.3655
  433MOL0     H59730  -0.401   9.429  11.461  0.2599 -1.8680  0.6287
  433MOL0     H59731  -0.468   9.354  11.313 -1.7004  1.6587 -2.9383
  433MOL0     H59732  -0.558   9.288  11.503  1.6344  0.4625  0.0496
  433MOL0     H59733  -0.678   9.371  11.401  0.6024 -2.3129 -0.9602
  433MOL0     H59734   0.008  10.286  11.405 -2.4791 -1.4523  1.7170
  433MOL0     H59735   0.126  10.465  11.496 -0.0586  1.0430  2.1311
  433MOL0     H59736   0.164  10.764  11.757 -0.7330 -0.4509 -1.3374
  433MOL0     H59737   0.307  10.895  11.895 -0.6087 -0.6225 -0.0563
  433MOL0     H59738   0.724  10.273  10.576 -0.3467 -1.2004 -0.1799
  433MOL0     H59739   0.531  10.197  10.406 -0.7257 -2.6705 -0.5582
  433MOL0     H59740  -0.087  10.049  10.434  1.7681  2.1903  0.1005
  433MOL0     H59741  -0.217   9.978  10.257  0.1889 -3.9011  3.3573
  433MOL0     H59742  -0.050  10.046   9.835  1.3785 -2.0194 -3.6503
  433MOL0     H59743  -0.012   9.871   9.867  1.5685  0.6026  2.2942
  433MOL0     H59744  -0.239   9.811   9.832  1.4663 -0.7120 -0.5985
  433MOL0     H59745  -0.166   9.883   9.692 -2.2478 -1.1417 -0.3972
  433MOL0     H59746  -0.313  10.073   9.693 -4.4047  3.0025  2.1793
  433MOL0     H59747  -0.403   9.920   9.708  0.3937  0.1310 -1.5123
  433MOL0     H59748  -0.320  10.135   9.890  2.2351 -2.8067 -0.8303
  433MOL0     H59749  -0.413  10.012   9.966 -0.9873  0.6063  0.1592
  433MOL0     H59750  -0.675  10.216   9.676  1.2047 -0.3801 -1.8743
  433MOL0     H59751   0.120  10.059   9.993 -2.9431 -0.8129 -0.7828
  433MOL0     H59752   0.331  10.131  10.073 -0.4629 -2.3006  0.0699
  433MOL0     H59753   0.313  10.243  10.207  1.2693 -0.0627  1.3054
  433MOL0     H59754   0.383  10.082  10.237  1.2127 -1.6095 -1.0693
  434MOL0     O59755  10.230   4.720  10.830 -0.6025 -0.2211  0.4890
  434MOL0     C59756  10.118   4.694  10.874  0.3613 -0.5629 -0.5055
  434MOL0     O59757  10.028   4.632  10.800  0.0369 -0.3342  0.0999
  434MOL0     C59758  10.038   4.640  10.661 -0.4070  0.3330 -0.3530
  434MOL0     C59759  10.003   4.752  10.587 -0.9775  0.4965 -0.2651
  434MOL0     C59760  10.004   4.761  10.448 -0.4325  0.3365  0.8109
  434MOL0     C59761  10.049   4.650  10.380 -0.7172  0.2256 -0.3021
  434MOL0     O59762  10.072   4.639  10.246  0.4611  0.8119 -0.4822
  434MOL0     C59763   9.955   4.670  10.161 -0.2006 -0.5302 -0.0357
  434MOL0     C59764   9.951   4.588  10.028 -0.4889  0.3036 -0.9100
  434MOL0     C59765   9.971   4.432  10.037  0.3507 -1.0150 -0.0667
  434MOL0     C59766   9.848   4.368  10.100 -0.3773 -0.1853 -0.0255
  434MOL0     C59767   9.865   4.212  10.097 -0.0321  0.3892 -0.0819
  434MOL0     C59768   9.731   4.156  10.152  0.2594 -0.4700  0.3294
  434MOL0     C59769   9.726   4.008  10.142 -0.0795  0.6201  0.3826
  434MOL0     C59770   9.603   3.942  10.195  1.3245  0.0236  0.0660
  434MOL0     N59771   9.587   3.796  10.166  0.4113  0.0958  0.3717
  434MOL0     C59772   9.695   3.711  10.193 -0.0267  0.3543  0.2652
  434MOL0     C59773   9.663   3.594  10.126  0.5350  0.8859 -1.0175
  434MOL0     C59774   9.721   3.457  10.094 -0.0501  1.1149  0.4949
  434MOL0     C59775   9.839   3.480   9.998 -0.5097  0.8367 -0.2032
  434MOL0     C59776   9.806   3.433   9.856 -1.1322  0.1464 -0.8835
  434MOL0     C59777   9.867   3.296   9.825 -0.1527 -0.1519  0.0974
  434MOL0     O59778   9.920   3.273   9.699 -0.5792 -0.4100 -0.1131
  434MOL0     C59779   9.843   3.312   9.592 -0.1366  0.9415 -0.2962
  434MOL0     C59780   9.893   3.365   9.475  0.0008 -0.2895  0.7129
  434MOL0     C59781   9.806   3.402   9.359 -1.0609  0.1995  0.5986
  434MOL0     C59782   9.875   3.477   9.253 -0.4510 -0.8925  0.6859
  434MOL0     C59783   9.672   3.361   9.355 -0.5870 -0.8068 -0.3247
  434MOL0     C59784   9.572   3.394   9.245  0.6605  0.4185 -0.0899
  434MOL0     O59785   9.439   3.383   9.278 -0.3707 -0.0012  0.0110
  434MOL0     C59786   9.356   3.398   9.177 -0.9023 -0.4359  0.3536
  434MOL0     C59787   9.261   3.294   9.164 -0.4569  0.1742 -0.2330
  434MOL0     C59788   9.147   3.313   9.082 -0.4368  0.2501 -0.1808
  434MOL0     C59789   9.128   3.424   9.005 -0.3172 -0.8649  0.0622
  434MOL0     O59790   9.019   3.451   8.929 -0.3615 -0.3509  0.3325
  434MOL0     C59791   8.914   3.351   8.910  0.3888  0.4058 -0.3786
  434MOL0     C59792   8.800   3.410   8.818  0.4641 -1.6070  0.3291
  434MOL0     C59793   8.706   3.481   8.915  0.3859 -0.4535  0.3777
  434MOL0     C59794   8.598   3.570   8.860  0.4548  0.0498  0.8458
  434MOL0     C59795   8.599   3.707   8.932 -0.2589 -0.8609 -0.1986
  434MOL0     C59796   8.466   3.781   8.910  1.0181  0.1549 -1.0738
  434MOL0     C59797   8.459   3.895   9.016 -0.5384 -0.1146 -0.5839
  434MOL0     C59798   8.360   4.004   9.021  1.1023 -0.0610 -0.0304
  434MOL0    Cl59799   8.189   3.938   9.029  0.0823  0.0234 -0.0076
  434MOL0     C59800   9.224   3.520   9.003 -0.6125 -0.5401 -0.6136
  434MOL0     C59801   9.332   3.514   9.101  0.9264 -0.7858 -1.0363
  434MOL0     O59802   9.606   3.417   9.129  0.2649  0.0662 -0.4510
  434MOL0     C59803   9.625   3.303   9.473  0.0331 -0.3461 -0.1154
  434MOL0     C59804   9.700   3.286   9.585  0.0363  0.2245  0.4057
  434MOL0     N59805   9.544   3.617  10.067  0.1665  0.2527  0.5478
  434MOL0     N59806   9.501   3.733  10.080  0.1549  0.2668  0.3761
  434MOL0     C59807  10.080   4.531  10.451 -0.2594  0.8284 -0.0793
  434MOL0     C59808  10.066   4.520  10.588 -0.5052  0.1103 -0.5728
  434MOL0     C59809  10.090   4.714  11.021  0.0422  0.3916  0.5501
  434MOL0     C59810   9.963   4.672  11.065 -0.9602  0.8048  0.0984
  434MOL0     C59811   9.923   4.702  11.193  0.1981  0.9439 -0.0331
  434MOL0     C59812  10.003   4.764  11.290 -0.9115  0.4039 -0.1741
  434MOL0     O59813   9.965   4.791  11.419 -0.3427  0.9461 -0.8461
  434MOL0     C59814   9.849   4.720  11.468  0.3861  0.4754 -0.4506
  434MOL0     C59815   9.811   4.777  11.605 -0.5059  0.7432 -0.4810
  434MOL0     C59816   9.892   4.726  11.718  0.1334  0.0984  0.5701
  434MOL0     C59817   9.876   4.576  11.737 -0.3363  0.2806  0.7062
  434MOL0     C59818   9.746   4.530  11.798  0.1934 -0.9668  0.2864
  434MOL0     C59819   9.644   4.485  11.833  0.2717  0.1493  0.1367
  434MOL0     C59820  10.129   4.793  11.246  0.0085 -0.1455  0.0220
  434MOL0     C59821  10.177   4.766  11.121  0.0878  0.6834  0.1990
  434MOL0     C59822  10.320   4.805  11.103 -0.6556  0.7090  0.4973
  434MOL0     H59823   9.978   4.837  10.648  1.1135 -0.1275  1.5945
  434MOL0     H59824   9.983   4.856  10.402 -1.6493 -0.3507 -0.0905
  434MOL0     H59825   9.954   4.778  10.149 -2.7751 -0.2368  1.8642
  434MOL0     H59826   9.868   4.659  10.227  1.1366  2.2930  2.3897
  434MOL0     H59827   9.864   4.608   9.964 -1.5674 -2.4466 -0.4402
  434MOL0     H59828  10.038   4.630   9.977  0.3852 -0.5961 -0.1871
  434MOL0     H59829  10.004   4.390   9.942  1.9796  2.6221 -1.2955
  434MOL0     H59830  10.055   4.434  10.108 -0.3362  3.3695  0.9196
  434MOL0     H59831   9.849   4.398  10.205 -3.5419 -1.6302  0.5397
  434MOL0     H59832   9.757   4.405  10.051 -0.8449 -0.0402  0.9350
  434MOL0     H59833   9.952   4.191  10.160  0.4628  1.5674 -0.3410
  434MOL0     H59834   9.873   4.178   9.993 -0.5096 -5.0729  1.3634
  434MOL0     H59835   9.703   4.190  10.252  1.4089  0.2563  0.4156
  434MOL0     H59836   9.657   4.190  10.079  2.0937  3.4833  0.0908
  434MOL0     H59837   9.807   3.961  10.199  1.9550 -0.2944 -3.0097
  434MOL0     H59838   9.749   3.963  10.045  3.9343 -0.4670  1.6812
  434MOL0     H59839   9.592   3.956  10.303 -1.0964 -3.9620  0.5070
  434MOL0     H59840   9.527   3.994  10.135  2.3553 -1.7347 -2.9818
  434MOL0     H59841   9.791   3.720  10.244 -1.0998  0.4384  2.3846
  434MOL0     H59842   9.635   3.396  10.062 -0.0203 -0.7063  3.4977
  434MOL0     H59843   9.750   3.404  10.185 -1.1917 -1.6791 -0.6364
  434MOL0     H59844   9.859   3.587   9.986  0.1021  0.6589 -0.7931
  434MOL0     H59845   9.933   3.442  10.039 -2.2959 -2.5122  1.1595
  434MOL0     H59846   9.697   3.435   9.844 -1.2897  1.5767  0.3969
  434MOL0     H59847   9.839   3.509   9.785  0.3533  0.3568 -0.0009
  434MOL0     H59848   9.943   3.288   9.903 -4.0449 -1.1985  4.2024
  434MOL0     H59849   9.802   3.215   9.860  3.6367 -2.1975  3.3327
  434MOL0     H59850  10.000   3.368   9.461  0.1943  0.9524  2.2963
  434MOL0     H59851   9.887   3.421   9.159  4.9202 -2.1089  1.7968
  434MOL0     H59852   9.976   3.516   9.264 -0.1397 -0.8700 -1.6289
  434MOL0     H59853   9.816   3.566   9.228  2.2223  0.2390 -2.3636
  434MOL0     H59854   9.275   3.205   9.224 -0.1090  0.2345 -0.2182
  434MOL0     H59855   9.068   3.238   9.084  4.2283 -5.3235  1.6938
  434MOL0     H59856   8.972   3.273   8.861  0.5453 -0.0881  0.5758
  434MOL0     H59857   8.880   3.305   9.003  0.6422 -0.5121 -0.7390
  434MOL0     H59858   8.839   3.468   8.734  0.1389 -0.7107  0.7844
  434MOL0     H59859   8.747   3.325   8.774  1.3467 -1.7642 -0.4709
  434MOL0     H59860   8.768   3.551   8.971 -0.3112 -1.1385  2.0829
  434MOL0     H59861   8.666   3.420   8.996 -0.5082  1.3416  1.3571
  434MOL0     H59862   8.504   3.515   8.867  0.3117  0.0481 -0.8131
  434MOL0     H59863   8.616   3.591   8.754 -0.6328  1.6566  0.9336
  434MOL0     H59864   8.614   3.689   9.039  2.8554 -0.6214 -0.4988
  434MOL0     H59865   8.677   3.777   8.899  0.3749 -2.0050 -1.1924
  434MOL0     H59866   8.378   3.720   8.935  1.1154  0.8098  1.0584
  434MOL0     H59867   8.461   3.806   8.804  2.0785  0.2652 -1.1052
  434MOL0     H59868   8.554   3.948   8.997  0.4402 -1.3933  0.5938
  434MOL0     H59869   8.473   3.861   9.119  5.2982  1.1835 -0.5501
  434MOL0     H59870   8.373   4.068   8.933  1.1233  0.3313  0.2577
  434MOL0     H59871   8.367   4.076   9.103 -1.9273  1.0608 -0.6497
  434MOL0     H59872   9.209   3.612   8.947  2.5082  0.0144 -0.7122
  434MOL0     H59873   9.395   3.601   9.121 -0.2826 -0.0918 -0.0823
  434MOL0     H59874   9.521   3.272   9.477 -0.9028  1.6389 -4.2074
  434MOL0     H59875   9.646   3.259   9.674 -0.4174  0.6098  0.2485
  434MOL0     H59876  10.135   4.446  10.412 -2.3031 -0.9170  0.6435
  434MOL0     H59877  10.091   4.432  10.646 -0.9855  1.0230  1.0781
  434MOL0     H59878   9.895   4.624  10.995  0.2006  1.3510 -1.4649
  434MOL0     H59879   9.819   4.672  11.200 -0.0088 -0.0355 -4.2151
  434MOL0     H59880   9.764   4.747  11.405 -1.0267 -0.5741  0.9394
  434MOL0     H59881   9.862   4.612  11.462  1.4398  0.6211 -1.1540
  434MOL0     H59882   9.704   4.756  11.621 -0.1928 -0.5119  0.0726
  434MOL0     H59883   9.820   4.886  11.603 -2.1510  0.9204 -0.1482
  434MOL0     H59884   9.995   4.760  11.703 -0.3458  0.7365 -1.6131
  434MOL0     H59885   9.863   4.779  11.810 -0.1286 -1.2303  1.2802
  434MOL0     H59886   9.954   4.537  11.803 -0.4472 -0.9888  0.1284
  434MOL0     H59887   9.897   4.526  11.642 -0.9764  0.8660  0.2475
  434MOL0     H59888   9.550   4.447  11.869 -0.4571  0.9143 -0.9143
  434MOL0     H59889  10.197   4.848  11.310  0.6599 -2.8349  1.7885
  434MOL0     H59890  10.324   4.912  11.082 -1.0326  0.2771 -2.0742
  434MOL0     H59891  10.380   4.791  11.194  0.5876  2.3319 -0.0337
  434MOL0     H59892  10.368   4.741  11.028 -0.3990  0.1324  1.1408
  435MOL0     O59893   6.350  11.209   5.904 -0.1419  0.8806  0.2035
  435MOL0     C59894   6.342  11.123   5.817  1.0445  0.1693 -0.5635
  435MOL0     O59895   6.284  11.000   5.853  0.4524  0.2756  0.2004
  435MOL0     C59896   6.322  10.889   5.800 -0.4171  1.0323  0.5964
  435MOL0     C59897   6.255  10.829   5.699  0.9560 -0.6162 -0.5288
  435MOL0     C59898   6.300  10.701   5.652 -0.1945  0.3601 -0.2606
  435MOL0     C59899   6.422  10.646   5.696 -0.8744 -0.8779  0.6226
  435MOL0     O59900   6.474  10.541   5.624 -0.2144  0.3599  0.1452
  435MOL0     C59901   6.588  10.469   5.672 -0.2008 -0.3790  0.1184
  435MOL0     C59902   6.578  10.314   5.650 -0.0548 -1.2763 -0.9459
  435MOL0     C59903   6.687  10.248   5.560 -0.8486 -0.8584  0.3028
  435MOL0     C59904   6.633  10.209   5.428  0.7464  0.1169  0.0565
  435MOL0     C59905   6.740  10.133   5.347 -0.3427  0.5972 -0.2819
  435MOL0     C59906   6.676  10.076   5.224  0.1616  0.8954 -0.4220
  435MOL0     C59907   6.778   9.998   5.136  0.4339 -0.2210 -0.5017
  435MOL0     C59908   6.725   9.968   4.997  0.4191 -0.2102 -1.0602
  435MOL0     N59909   6.611   9.875   5.011 -0.2683 -0.0202  0.3536
  435MOL0     C59910   6.489   9.902   4.963 -0.7173  0.3989  1.0070
  435MOL0     C59911   6.414   9.789   5.007 -0.6879 -0.3640  0.2058
  435MOL0     C59912   6.273   9.760   4.974  0.2044  0.6996  0.0704
  435MOL0     C59913   6.172   9.796   5.090 -0.3549  1.1401 -0.4481
  435MOL0     C59914   6.124   9.946   5.068  1.0400 -0.4520  0.5247
  435MOL0     C59915   5.985   9.955   5.130 -0.2103 -0.6420  0.4934
  435MOL0     O59916   6.012   9.976   5.266 -0.5697  0.3651 -0.2983
  435MOL0     C59917   5.904   9.936   5.343  0.0544  0.1359 -0.0714
  435MOL0     C59918   5.886   9.798   5.361 -0.3522  0.2514  0.5973
  435MOL0     C59919   5.783   9.737   5.438 -0.0517  0.2932  0.1977
  435MOL0     C59920   5.795   9.582   5.455 -0.5750 -0.7170 -0.0456
  435MOL0     C59921   5.695   9.826   5.502  0.4247 -0.1102 -0.8571
  435MOL0     C59922   5.583   9.780   5.597 -0.1092  0.2918 -0.3883
  435MOL0     O59923   5.495   9.874   5.647 -0.0094 -0.4899  0.2845
  435MOL0     C59924   5.407   9.843   5.745  0.1183 -0.0918 -0.1358
  435MOL0     C59925   5.435   9.755   5.850  0.3017  0.0093 -0.1615
  435MOL0     C59926   5.330   9.725   5.937 -1.4615  0.0481 -0.4771
  435MOL0     C59927   5.212   9.797   5.933 -0.1737 -0.4001 -0.2019
  435MOL0     O59928   5.109   9.762   6.022  0.5607  0.5874 -0.1935
  435MOL0     C59929   5.097   9.857   6.137  0.4016  0.2889  0.4334
  435MOL0     C59930   5.052   9.989   6.088 -0.1240 -0.8101 -0.4520
  435MOL0     C59931   5.026  10.084   6.205  0.2915 -0.7851  0.2890
  435MOL0     C59932   4.957  10.210   6.142  0.0549  0.4584 -0.3192
  435MOL0     C59933   4.961  10.322   6.245 -0.5680  0.6217 -0.5990
  435MOL0     C59934   4.858  10.295   6.368  0.1709  0.6603 -0.3252
  435MOL0     C59935   4.835  10.418   6.464 -0.9183 -0.1638  0.0308
  435MOL0     C59936   4.950  10.425   6.564 -0.4672 -0.0166  0.2674
  435MOL0    Cl59937   5.104  10.485   6.495 -0.2247 -0.8334  0.2296
  435MOL0     C59938   5.182   9.883   5.834 -1.2677 -0.0726 -0.5176
  435MOL0     C59939   5.286   9.912   5.740  0.4451  0.1374  0.2322
  435MOL0     O59940   5.579   9.663   5.611  0.4212 -0.0842  0.1179
  435MOL0     C59941   5.709   9.972   5.493  1.0780  0.3640 -0.7066
  435MOL0     C59942   5.814  10.030   5.412  0.4778  0.0475  0.3855
  435MOL0     N59943   6.500   9.697   5.062 -0.2878  0.2459  0.5401
  435MOL0     N59944   6.616   9.746   5.063 -0.1193 -0.1625 -0.3848
  435MOL0     C59945   6.494  10.716   5.799 -0.3539 -0.2410 -0.8250
  435MOL0     C59946   6.440  10.833   5.854 -0.4303 -0.2887 -0.7836
  435MOL0     C59947   6.392  11.153   5.683 -0.2793 -0.7425  0.0702
  435MOL0     C59948   6.307  11.131   5.577 -0.1256 -0.2880 -1.2896
  435MOL0     C59949   6.342  11.156   5.455  0.1255  0.2856 -0.0984
  435MOL0     C59950   6.466  11.210   5.424  0.0008  0.5530  0.1135
  435MOL0     O59951   6.507  11.264   5.307 -0.4157  0.4581  0.2027
  435MOL0     C59952   6.416  11.278   5.195 -0.3131 -0.4337 -0.2826
  435MOL0     C59953   6.480  11.367   5.087 -0.1302  0.4861 -0.0215
  435MOL0     C59954   6.437  11.332   4.945 -0.9820  0.1317 -1.0188
  435MOL0     C59955   6.494  11.427   4.844 -0.0240  0.2816  0.6452
  435MOL0     C59956   6.447  11.571   4.846 -1.8271  0.4466 -0.3617
  435MOL0     C59957   6.404  11.679   4.861  0.4402 -0.0107 -0.5244
  435MOL0     C59958   6.566  11.219   5.521  0.0620 -0.2348 -0.2322
  435MOL0     C59959   6.523  11.187   5.656  0.2385  0.3628 -0.1327
  435MOL0     C59960   6.637  11.178   5.762  0.1059 -0.3040  1.3166
  435MOL0     H59961   6.163  10.866   5.655 -0.0975  0.1355  2.1303
  435MOL0     H59962   6.253  10.639   5.577 -3.6622  0.4013  1.6603
  435MOL0     H59963   6.587  10.473   5.781  2.6481 -2.6354  0.3490
  435MOL0     H59964   6.686  10.507   5.641 -1.4539  1.3310 -2.0495
  435MOL0     H59965   6.583  10.271   5.750 -1.5733  1.7732  0.5856
  435MOL0     H59966   6.474  10.291   5.622 -0.5635 -0.5392  0.2718
  435MOL0     H59967   6.775  10.308   5.532  0.1020 -3.3965 -2.7212
  435MOL0     H59968   6.737  10.166   5.612 -0.9398 -2.5053 -2.0594
  435MOL0     H59969   6.536  10.159   5.435 -1.2964  2.9058 -4.0653
  435MOL0     H59970   6.614  10.300   5.370 -1.1381 -0.0509  0.3355
  435MOL0     H59971   6.772  10.049   5.409 -2.2104  0.1195  0.0980
  435MOL0     H59972   6.828  10.190   5.315 -1.0762  0.3118 -3.1025
  435MOL0     H59973   6.594  10.009   5.251 -1.2496  0.7462 -4.4313
  435MOL0     H59974   6.630  10.157   5.168 -0.2188 -0.3635 -1.9874
  435MOL0     H59975   6.799   9.899   5.175 -0.1621  0.4495  1.6354
  435MOL0     H59976   6.875  10.046   5.116  1.2856 -2.9909 -4.0882
  435MOL0     H59977   6.707  10.055   4.934  0.4218  0.8870  0.4019
  435MOL0     H59978   6.814   9.917   4.958  2.0347 -0.1200  2.1390
  435MOL0     H59979   6.452   9.985   4.904  5.3114  3.5430  0.8852
  435MOL0     H59980   6.270   9.651   4.967 -0.2128  0.7446 -0.5256
  435MOL0     H59981   6.249   9.796   4.874  0.7458 -0.6137 -0.5480
  435MOL0     H59982   6.092   9.725   5.068 -1.5001  1.4368  2.3867
  435MOL0     H59983   6.209   9.768   5.189 -3.1731 -3.3026 -0.3855
  435MOL0     H59984   6.196  10.018   5.110  1.2928  1.7586 -3.2435
  435MOL0     H59985   6.119   9.969   4.961  1.0891  0.6302  0.7422
  435MOL0     H59986   5.934  10.043   5.092  0.6371 -0.7641 -0.9966
  435MOL0     H59987   5.931   9.864   5.101 -0.8147 -0.6079  1.4728
  435MOL0     H59988   5.966   9.738   5.318  0.9608 -0.3651  3.6020
  435MOL0     H59989   5.702   9.525   5.468 -0.6611 -0.2761  1.4436
  435MOL0     H59990   5.853   9.567   5.546  2.6031  2.3441 -1.3380
  435MOL0     H59991   5.845   9.538   5.368  3.4337  1.1275  1.1329
  435MOL0     H59992   5.538   9.721   5.857 -0.2232 -2.2375 -1.9520
  435MOL0     H59993   5.362   9.677   6.029  1.1591 -0.5434 -1.5973
  435MOL0     H59994   5.017   9.813   6.197 -2.7320  0.9013 -2.9229
  435MOL0     H59995   5.182   9.870   6.204  0.4566  0.3283  0.3564
  435MOL0     H59996   5.126  10.036   6.024  0.0213 -1.2148 -0.5842
  435MOL0     H59997   4.961   9.984   6.027  1.1747  1.7889 -2.7939
  435MOL0     H59998   5.128  10.099   6.241  0.9838 -0.4060 -1.7339
  435MOL0     H59999   4.962  10.038   6.281 -1.1794 -1.9588 -1.5762
  435MOL0     H60000   4.858  10.173   6.116 -0.0568 -4.3189  4.9154
  435MOL0     H60001   5.011  10.235   6.050 -0.7878  2.3473 -0.3579
  435MOL0     H60002   5.063  10.325   6.286  0.0439 -5.9068 -0.4913
  435MOL0     H60003   4.927  10.408   6.187 -1.3236 -1.0372 -2.7384
  435MOL0     H60004   4.880  10.209   6.432 -0.9723  0.7589  0.2363
  435MOL0     H60005   4.767  10.265   6.315 -0.3436  2.1225 -0.3184
  435MOL0     H60006   4.736  10.416   6.510 -2.9654  2.0579 -3.7378
  435MOL0     H60007   4.844  10.513   6.410  0.4693 -0.7463 -0.8336
  435MOL0     H60008   4.962  10.320   6.593 -2.2931 -0.4292 -0.3326
  435MOL0     H60009   4.929  10.478   6.657  0.4305  0.4609  0.2120
  435MOL0     H60010   5.089   9.938   5.832  0.1308  2.4737  0.1539
  435MOL0     H60011   5.277   9.982   5.657  3.5965  1.1911  0.6555
  435MOL0     H60012   5.651  10.044   5.550  2.1554  0.8622 -0.2066
  435MOL0     H60013   5.814  10.137   5.396 -2.5811 -0.1572 -1.8381
  435MOL0     H60014   6.583  10.680   5.850 -0.0465  0.9448 -0.4854
  435MOL0     H60015   6.489  10.890   5.933  1.3143 -3.3260  0.4787
  435MOL0     H60016   6.203  11.104   5.590 -0.5874  2.2314  1.3972
  435MOL0     H60017   6.263  11.137   5.383 -0.0184  0.7688 -0.0750
  435MOL0     H60018   6.394  11.180   5.153  1.0361 -0.5829 -0.6928
  435MOL0     H60019   6.324  11.323   5.234  0.2244 -0.2738  0.8315
  435MOL0     H60020   6.589  11.360   5.090 -0.1098  0.2965 -0.8676
  435MOL0     H60021   6.443  11.468   5.108 -2.1902 -0.1356 -0.4248
  435MOL0     H60022   6.459  11.226   4.929  0.1005  0.2688 -0.4942
  435MOL0     H60023   6.328  11.342   4.946 -0.8935  1.3312  0.3911
  435MOL0     H60024   6.449  11.396   4.749  0.3411 -1.4255  0.9882
  435MOL0     H60025   6.604  11.428   4.842  0.0090  2.7470  0.5732
  435MOL0     H60026   6.379  11.783   4.866  0.6114  0.2955 -3.6709
  435MOL0     H60027   6.665  11.255   5.496 -0.1944  3.3150  2.9723
  435MOL0     H60028   6.720  11.119   5.724 -0.0587 -0.5844  1.3924
  435MOL0     H60029   6.669  11.277   5.796 -1.2945 -0.4788  3.3893
  435MOL0     H60030   6.593  11.130   5.851 -1.3581 -1.5414 -0.0143
  436MOL0     O60031   7.468   1.444   5.888 -0.0691  0.5939 -0.2489
  436MOL0     C60032   7.572   1.458   5.831 -0.1908  0.4242  0.6693
  436MOL0     O60033   7.696   1.479   5.881 -0.0859 -0.2292 -0.8834
  436MOL0     C60034   7.730   1.460   6.017  0.3646 -0.7830 -0.2807
  436MOL0     C60035   7.759   1.340   6.070 -0.7952  0.5063  0.1672
  436MOL0     C60036   7.768   1.318   6.208 -0.3546 -0.0474  0.6969
  436MOL0     C60037   7.753   1.425   6.297  0.5545 -0.5017 -0.3028
  436MOL0     O60038   7.769   1.414   6.434  0.6884  0.1961 -0.2729
  436MOL0     C60039   7.793   1.525   6.514 -0.3512 -0.6425  0.6616
  436MOL0     C60040   7.818   1.466   6.647  0.3424 -1.1058 -0.0886
  436MOL0     C60041   7.871   1.561   6.743 -0.0071 -0.6276  0.6761
  436MOL0     C60042   7.775   1.637   6.832  0.3640 -0.2819 -0.4278
  436MOL0     C60043   7.843   1.716   6.948  0.7791  0.1961  0.7712
  436MOL0     C60044   7.927   1.838   6.890  0.3134 -0.4465 -0.2114
  436MOL0     C60045   8.003   1.912   6.991  0.0107  0.4443  0.1388
  436MOL0     C60046   8.081   2.029   6.914 -0.0340  0.4000 -0.6159
  436MOL0     N60047   8.136   2.129   6.997 -0.2805  0.3070 -0.2783
  436MOL0     C60048   8.140   2.136   7.136  0.6496  0.7727  1.0894
  436MOL0     C60049   8.199   2.256   7.175 -1.1297 -0.4013  0.3461
  436MOL0     C60050   8.204   2.317   7.313 -0.2688 -1.2419 -0.3461
  436MOL0     C60051   8.067   2.384   7.345  0.3830 -0.1247 -0.4695
  436MOL0     C60052   8.034   2.512   7.278  0.6299  0.7245  0.3585
  436MOL0     C60053   7.904   2.567   7.324 -0.5413  0.4418  0.3255
  436MOL0     O60054   7.785   2.487   7.298  0.7759  0.3044 -0.0677
  436MOL0     C60055   7.748   2.462   7.174  0.0057  0.0632 -0.9580
  436MOL0     C60056   7.746   2.330   7.129 -0.2464 -0.7028 -0.1987
  436MOL0     C60057   7.698   2.298   7.002  0.5786 -0.6899 -0.8775
  436MOL0     C60058   7.692   2.150   6.973 -0.1923  0.6960  0.4033
  436MOL0     C60059   7.658   2.405   6.913  0.3869  0.4314 -0.1107
  436MOL0     C60060   7.615   2.385   6.774 -0.1944 -0.1917 -0.6924
  436MOL0     O60061   7.528   2.290   6.747  0.2376  0.0364 -0.9306
  436MOL0     C60062   7.477   2.265   6.619 -0.2685 -0.2231 -0.2804
  436MOL0     C60063   7.457   2.131   6.587 -0.1153 -0.3574 -0.3018
  436MOL0     C60064   7.389   2.099   6.474  0.5378  0.4471 -0.2141
  436MOL0     C60065   7.349   2.202   6.382  0.0359  0.2917  0.8953
  436MOL0     O60066   7.288   2.194   6.256  0.2035  0.2785 -0.5904
  436MOL0     C60067   7.217   2.064   6.233  0.2254 -0.0365  0.4181
  436MOL0     C60068   7.142   2.095   6.102 -0.1287  0.9571 -0.5862
  436MOL0     C60069   7.218   2.125   5.975 -0.4591  0.1361 -0.2049
  436MOL0     C60070   7.202   2.283   5.935  0.6627 -0.3847  0.3250
  436MOL0     C60071   7.059   2.333   5.901 -0.5903  0.1373  0.6366
  436MOL0     C60072   6.990   2.275   5.771 -0.1226 -0.0968  0.5814
  436MOL0     C60073   6.835   2.258   5.770 -1.0477 -0.3254 -0.5866
  436MOL0     C60074   6.780   2.180   5.647 -0.4919  0.2631 -0.5966
  436MOL0    Cl60075   6.825   2.021   5.624  0.5329  0.4480  0.2895
  436MOL0     C60076   7.374   2.334   6.408 -0.1040  0.7068  0.4375
  436MOL0     C60077   7.440   2.363   6.528 -0.0238  0.2583 -0.0028
  436MOL0     O60078   7.654   2.468   6.695  0.4324  0.2715  0.8745
  436MOL0     C60079   7.662   2.540   6.960  0.4890  0.0530 -0.1605
  436MOL0     C60080   7.716   2.564   7.089  1.0835  0.6079  0.6788
  436MOL0     N60081   8.231   2.311   7.050 -0.4986 -0.0858  0.1413
  436MOL0     N60082   8.198   2.239   6.951  0.3047  0.3734 -0.0188
  436MOL0     C60083   7.716   1.552   6.238 -1.0560  0.2139  0.7168
  436MOL0     C60084   7.704   1.567   6.101 -1.2060 -0.1120  0.9701
  436MOL0     C60085   7.564   1.448   5.681  0.2265 -0.4595 -0.6249
  436MOL0     C60086   7.679   1.480   5.607 -0.3035 -0.0771 -0.4212
  436MOL0     C60087   7.685   1.475   5.469  1.3136  0.8045 -0.1302
  436MOL0     C60088   7.568   1.463   5.393 -0.4059 -0.0566  0.7225
  436MOL0     O60089   7.571   1.475   5.257  0.3702  0.0954  0.2227
  436MOL0     C60090   7.476   1.564   5.192  1.2599 -0.1153  0.0645
  436MOL0     C60091   7.508   1.631   5.058  0.7674  0.6799 -0.1542
  436MOL0     C60092   7.654   1.681   5.062  0.4738 -0.5115 -0.5223
  436MOL0     C60093   7.696   1.741   4.928 -0.5742  0.0202 -0.2268
  436MOL0     C60094   7.666   1.644   4.819 -0.0543 -0.3058 -0.1161
  436MOL0     C60095   7.654   1.544   4.747 -0.2542  0.4625  0.6306
  436MOL0     C60096   7.455   1.444   5.464 -0.1629 -0.1184  0.4925
  436MOL0     C60097   7.448   1.432   5.605 -0.1553  0.6984  0.1372
  436MOL0     C60098   7.314   1.408   5.664 -0.5799 -0.1457 -0.3578
  436MOL0     H60099   7.774   1.261   5.997  2.9434  0.9835  0.2206
  436MOL0     H60100   7.802   1.226   6.254  0.9918  0.4010  0.6533
  436MOL0     H60101   7.702   1.586   6.513 -0.1435 -0.3233 -0.1153
  436MOL0     H60102   7.881   1.584   6.483 -1.8294  0.8289 -0.9922
  436MOL0     H60103   7.732   1.412   6.689 -0.7221  0.0304 -0.7276
  436MOL0     H60104   7.889   1.385   6.630  1.6834  0.0251 -0.0730
  436MOL0     H60105   7.928   1.511   6.822 -2.5428 -0.1843  2.8895
  436MOL0     H60106   7.941   1.630   6.692 -0.8616  0.0056  0.3363
  436MOL0     H60107   7.733   1.712   6.764  0.6742  0.4202  0.1369
  436MOL0     H60108   7.692   1.579   6.873  1.0720 -1.2621 -0.3169
  436MOL0     H60109   7.898   1.654   7.018  1.2322  1.3165  1.4367
  436MOL0     H60110   7.764   1.760   7.010  1.7196 -0.6584  2.6256
  436MOL0     H60111   8.004   1.823   6.814 -0.7796  2.1974 -1.9938
  436MOL0     H60112   7.851   1.899   6.841  0.0399  0.2085  0.9859
  436MOL0     H60113   8.075   1.859   7.053 -1.5012 -0.0067  1.6031
  436MOL0     H60114   7.930   1.962   7.057  0.9003  0.7548  0.9069
  436MOL0     H60115   8.164   1.988   6.855  1.6421 -1.2804  2.5939
  436MOL0     H60116   8.014   2.072   6.839  2.6634  0.1006 -3.3893
  436MOL0     H60117   8.106   2.065   7.211  1.4226  0.1193  0.8308
  436MOL0     H60118   8.277   2.397   7.328 -0.5301 -1.1241  0.2971
  436MOL0     H60119   8.238   2.232   7.371  1.0919 -1.4882 -1.4441
  436MOL0     H60120   7.994   2.306   7.320 -4.1933  2.9280  1.9360
  436MOL0     H60121   8.052   2.399   7.452 -2.4764  1.9765 -1.0453
  436MOL0     H60122   8.116   2.583   7.291  2.0241 -1.0431  1.9024
  436MOL0     H60123   8.025   2.487   7.172 -0.7161 -1.4387  0.9021
  436MOL0     H60124   7.922   2.581   7.431  0.8094  1.4142 -0.0022
  436MOL0     H60125   7.884   2.670   7.295 -0.3825  0.2592 -0.4579
  436MOL0     H60126   7.796   2.257   7.191  3.0473  0.7717 -0.8825
  436MOL0     H60127   7.599   2.103   7.007 -0.2100  1.4868  1.5185
  436MOL0     H60128   7.782   2.105   7.016  0.0338  1.1090  0.3642
  436MOL0     H60129   7.698   2.122   6.868  1.2518  1.6802  0.1938
  436MOL0     H60130   7.489   2.051   6.652 -2.3958  0.6098  2.2399
  436MOL0     H60131   7.380   1.993   6.452  1.1619  0.5141 -0.8193
  436MOL0     H60132   7.289   1.982   6.237 -1.2667 -1.6378 -2.2096
  436MOL0     H60133   7.156   2.041   6.320  0.4479 -0.6936  0.4056
  436MOL0     H60134   7.090   2.000   6.092  1.6617  0.0040 -1.0916
  436MOL0     H60135   7.069   2.172   6.132 -1.3577 -0.2367 -0.3950
  436MOL0     H60136   7.175   2.065   5.893 -2.2682  0.3488  0.5293
  436MOL0     H60137   7.323   2.095   5.977 -1.1861 -2.6627  0.2382
  436MOL0     H60138   7.270   2.297   5.850 -1.7211 -0.6037 -1.7493
  436MOL0     H60139   7.252   2.339   6.014  0.6254 -0.6892  0.5661
  436MOL0     H60140   6.994   2.318   5.988 -2.0475 -4.9626 -0.9608
  436MOL0     H60141   7.070   2.441   5.888  0.8152  0.2436  2.3261
  436MOL0     H60142   7.034   2.179   5.742 -2.7964 -1.2424  0.0730
  436MOL0     H60143   7.007   2.353   5.696  1.3495  0.7491  1.7295
  436MOL0     H60144   6.800   2.361   5.773  0.3955  0.1500  1.2701
  436MOL0     H60145   6.801   2.208   5.862  1.5246 -0.3387  0.4368
  436MOL0     H60146   6.820   2.231   5.558  2.2049  1.3716  1.1193
  436MOL0     H60147   6.671   2.177   5.654 -0.5426  1.5155 -0.5266
  436MOL0     H60148   7.337   2.407   6.337  0.2282 -2.4897 -3.3499
  436MOL0     H60149   7.445   2.469   6.552 -1.1601  0.7636 -1.7376
  436MOL0     H60150   7.644   2.623   6.893  0.3016  1.3206  1.3902
  436MOL0     H60151   7.699   2.664   7.127  0.1555  0.6243  0.2565
  436MOL0     H60152   7.688   1.637   6.299  1.4306 -0.0427  2.3372
  436MOL0     H60153   7.666   1.659   6.058 -1.5670 -0.0216  1.4631
  436MOL0     H60154   7.775   1.510   5.649  0.3574 -0.8255 -1.3339
  436MOL0     H60155   7.778   1.501   5.419  0.0578  0.5284 -2.7530
  436MOL0     H60156   7.376   1.520   5.185  2.1429 -1.8898 -3.3940
  436MOL0     H60157   7.468   1.642   5.269 -0.5798  0.7669 -0.9533
  436MOL0     H60158   7.444   1.719   5.045  0.1215  0.0706 -1.2567
  436MOL0     H60159   7.494   1.553   4.983  1.9264 -1.2304  1.5324
  436MOL0     H60160   7.664   1.766   5.131 -4.4935  1.6361 -1.9935
  436MOL0     H60161   7.722   1.602   5.093  0.4449 -0.0753  0.7223
  436MOL0     H60162   7.804   1.758   4.935 -0.6478  0.5432 -0.2552
  436MOL0     H60163   7.649   1.839   4.909 -1.8973 -0.7525 -1.1332
  436MOL0     H60164   7.655   1.448   4.698 -0.5751  1.3069 -1.1267
  436MOL0     H60165   7.374   1.412   5.399  2.1605 -1.5116 -1.9220
  436MOL0     H60166   7.241   1.424   5.584  2.1062  6.1463 -2.2055
  436MOL0     H60167   7.314   1.310   5.713 -2.5500 -0.5111 -1.0075
  436MOL0     H60168   7.301   1.492   5.732 -4.1660  1.3156 -2.5710
  437MOL0     O60169   5.845   3.495   1.337 -0.7511 -0.3949  0.6390
  437MOL0     C60170   5.922   3.404   1.323 -0.7330 -0.0395 -0.2526
  437MOL0     O60171   5.950   3.307   1.426 -0.6725  0.0961 -0.8676
  437MOL0     C60172   5.871   3.287   1.537  0.6353  0.4300 -0.0659
  437MOL0     C60173   5.745   3.242   1.506  0.1290 -0.6323  0.5095
  437MOL0     C60174   5.654   3.225   1.598  0.8735 -0.2524 -0.8857
  437MOL0     C60175   5.691   3.227   1.733 -1.2598  0.6249  0.0673
  437MOL0     O60176   5.607   3.188   1.839 -0.1354 -0.8804  0.5774
  437MOL0     C60177   5.626   3.228   1.974  0.0075  0.7058  0.3085
  437MOL0     C60178   5.546   3.132   2.063  0.1723  0.4507 -0.0127
  437MOL0     C60179   5.562   3.171   2.217 -0.5687 -0.0689  0.7706
  437MOL0     C60180   5.437   3.111   2.276 -0.3275  0.2226  0.6387
  437MOL0     C60181   5.434   3.117   2.432 -0.3371 -0.0201 -0.0304
  437MOL0     C60182   5.367   3.238   2.491 -0.5468 -0.2358 -0.5369
  437MOL0     C60183   5.391   3.368   2.427 -0.5167 -0.0114 -1.2124
  437MOL0     C60184   5.322   3.483   2.496 -0.0054  0.1622  0.3742
  437MOL0     N60185   5.431   3.569   2.558  0.1839  0.7672 -1.2119
  437MOL0     C60186   5.486   3.554   2.685  0.1937 -0.2077  0.3311
  437MOL0     C60187   5.546   3.669   2.715 -0.5588 -0.4432  0.6818
  437MOL0     C60188   5.639   3.721   2.826  0.1153 -0.1425  0.0658
  437MOL0     C60189   5.754   3.623   2.853 -0.7114  0.1706 -0.7720
  437MOL0     C60190   5.816   3.633   2.997 -0.1317 -0.2641 -1.2195
  437MOL0     C60191   5.904   3.763   3.018 -0.6024 -0.5036  0.1218
  437MOL0     O60192   5.973   3.758   3.143 -0.2145  0.5355  0.1631
  437MOL0     C60193   6.087   3.834   3.146  0.4670 -0.2065 -0.6474
  437MOL0     C60194   6.098   3.952   3.076 -0.7031  0.0342 -0.0859
  437MOL0     C60195   6.214   4.028   3.082  0.3328  0.4754 -0.3491
  437MOL0     C60196   6.220   4.164   3.015 -0.9726  1.0477 -1.3379
  437MOL0     C60197   6.316   3.981   3.172  0.5559 -0.4722 -0.5894
  437MOL0     C60198   6.459   4.035   3.181  0.0659  0.2000  0.2121
  437MOL0     O60199   6.472   4.166   3.160 -0.8345 -0.2681  1.0009
  437MOL0     C60200   6.599   4.227   3.176  0.2299  0.1021 -0.2868
  437MOL0     C60201   6.724   4.185   3.119 -0.1273 -0.0313 -0.5124
  437MOL0     C60202   6.842   4.239   3.170  0.3241 -0.8272 -0.4871
  437MOL0     C60203   6.846   4.350   3.256  0.0698  0.2039 -0.4666
  437MOL0     O60204   6.964   4.383   3.303 -0.4610 -0.2763 -0.7128
  437MOL0     C60205   7.050   4.463   3.218 -0.2554 -0.3928  0.3209
  437MOL0     C60206   7.191   4.492   3.279 -0.2641  0.1883 -0.2522
  437MOL0     C60207   7.286   4.379   3.338 -0.6806 -0.2129 -0.1353
  437MOL0     C60208   7.354   4.308   3.229  0.4419  0.2282 -0.5438
  437MOL0     C60209   7.426   4.174   3.270 -0.5044 -0.9041  0.2991
  437MOL0     C60210   7.476   4.093   3.152 -0.4753 -0.6100  0.3760
  437MOL0     C60211   7.567   3.985   3.210  0.0403  0.1192  0.3734
  437MOL0     C60212   7.589   3.872   3.102  0.5044 -0.1259 -0.5705
  437MOL0    Cl60213   7.696   3.949   2.987 -0.4500  0.0830 -0.3339
  437MOL0     C60214   6.729   4.401   3.304  0.0701  0.0731 -0.0364
  437MOL0     C60215   6.606   4.341   3.263  0.0353 -0.7168  0.3367
  437MOL0     O60216   6.549   3.969   3.232  0.7226  0.4120 -0.2417
  437MOL0     C60217   6.289   3.868   3.252 -0.8526 -0.1525  0.7550
  437MOL0     C60218   6.174   3.797   3.244 -0.1381  0.2362 -0.1918
  437MOL0     N60219   5.546   3.745   2.604 -0.1460 -0.7261  0.6137
  437MOL0     N60220   5.483   3.682   2.505  0.6199  0.5270  0.1266
  437MOL0     C60221   5.820   3.271   1.762 -0.5084 -0.2622  0.2511
  437MOL0     C60222   5.915   3.311   1.665  1.2062 -0.5922 -0.0140
  437MOL0     C60223   6.010   3.386   1.202 -0.0302 -0.2954 -0.1822
  437MOL0     C60224   6.112   3.283   1.202  0.3783  0.2113 -0.4016
  437MOL0     C60225   6.178   3.255   1.086 -1.1273  0.1374  1.1832
  437MOL0     C60226   6.152   3.321   0.964 -0.2338  0.4442  0.6884
  437MOL0     O60227   6.218   3.276   0.846  0.7647 -0.4566 -0.7137
  437MOL0     C60228   6.363   3.311   0.858  0.2879 -0.0060 -0.3705
  437MOL0     C60229   6.391   3.418   0.753 -0.2382  0.4586  0.0336
  437MOL0     C60230   6.531   3.460   0.760  0.4102 -0.2733 -0.3175
  437MOL0     C60231   6.628   3.361   0.701  0.0438  0.6671 -0.5415
  437MOL0     C60232   6.760   3.426   0.681 -0.3523 -0.0663  0.0642
  437MOL0     C60233   6.868   3.487   0.656  0.7213 -0.3286  0.4949
  437MOL0     C60234   6.050   3.420   0.968  1.4272  0.9524  0.3594
  437MOL0     C60235   5.991   3.464   1.083  0.2571  0.4890 -0.1482
  437MOL0     C60236   5.887   3.575   1.061  1.0264  0.2335  0.2818
  437MOL0     H60237   5.707   3.224   1.406 -1.0272 -0.9520  0.9899
  437MOL0     H60238   5.553   3.194   1.576  0.6221 -2.3731  2.4571
  437MOL0     H60239   5.595   3.331   1.990  2.9870  1.5285  1.5317
  437MOL0     H60240   5.732   3.220   2.002  0.4561 -1.0894 -1.6221
  437MOL0     H60241   5.439   3.133   2.037 -0.2924  1.9493  1.7086
  437MOL0     H60242   5.574   3.028   2.049  0.3206  0.2833  1.4535
  437MOL0     H60243   5.653   3.137   2.267 -0.0752  0.0652 -0.0189
  437MOL0     H60244   5.565   3.279   2.232 -3.8593  0.9096 -3.6895
  437MOL0     H60245   5.345   3.151   2.233 -0.0806  2.0832  1.6884
  437MOL0     H60246   5.434   3.006   2.247  4.0022  0.1619 -0.1871
  437MOL0     H60247   5.541   3.123   2.457  0.1568  4.0919 -2.2564
  437MOL0     H60248   5.390   3.022   2.463  0.1789 -0.8530 -1.7296
  437MOL0     H60249   5.258   3.230   2.495 -0.4549 -0.9590  1.3491
  437MOL0     H60250   5.406   3.249   2.593  1.5796  3.6876 -1.5456
  437MOL0     H60251   5.356   3.364   2.324 -0.3556 -2.3404 -1.2400
  437MOL0     H60252   5.497   3.394   2.425 -0.4018 -0.2243  0.3944
  437MOL0     H60253   5.279   3.556   2.426  0.8095  0.2081 -0.0883
  437MOL0     H60254   5.242   3.462   2.567 -0.5656 -1.1871 -0.6292
  437MOL0     H60255   5.465   3.466   2.746 -2.5613  0.5003  0.5172
  437MOL0     H60256   5.578   3.736   2.915  0.1917 -1.0713  0.2865
  437MOL0     H60257   5.675   3.817   2.787 -0.5570  0.3686  0.6852
  437MOL0     H60258   5.731   3.517   2.842 -0.7777  0.0090  0.7342
  437MOL0     H60259   5.824   3.637   2.770  0.6509 -0.7502  0.1775
  437MOL0     H60260   5.729   3.626   3.062 -0.0760  2.4420 -0.7114
  437MOL0     H60261   5.886   3.555   3.029  0.4196  0.1437 -1.4033
  437MOL0     H60262   5.972   3.769   2.932 -1.9567 -4.0579 -1.4003
  437MOL0     H60263   5.841   3.852   3.018  0.3667  0.1950 -0.0226
  437MOL0     H60264   6.019   3.980   3.006  0.2343  0.0342 -1.1719
  437MOL0     H60265   6.292   4.162   2.932  2.6151 -0.2397  1.5599
  437MOL0     H60266   6.243   4.245   3.084  2.7743 -2.0590  1.5438
  437MOL0     H60267   6.122   4.187   2.972 -1.8085 -3.0183 -2.0460
  437MOL0     H60268   6.736   4.098   3.055 -3.4089 -2.2085  1.4924
  437MOL0     H60269   6.936   4.195   3.138  0.0391 -3.2818  1.7390
  437MOL0     H60270   7.064   4.414   3.121 -0.2223 -1.4906  0.8694
  437MOL0     H60271   7.003   4.560   3.198 -0.3049 -0.9427 -2.6783
  437MOL0     H60272   7.244   4.571   3.225 -2.8268  3.2032  1.2709
  437MOL0     H60273   7.158   4.547   3.369  0.2118 -0.2911  0.2227
  437MOL0     H60274   7.235   4.306   3.402 -2.4646  1.7437  0.7828
  437MOL0     H60275   7.366   4.424   3.398 -0.2743 -0.1739 -0.6939
  437MOL0     H60276   7.426   4.374   3.180  1.6174 -1.0798 -0.6381
  437MOL0     H60277   7.274   4.291   3.156 -0.6624 -0.3671  0.7489
  437MOL0     H60278   7.515   4.202   3.328 -2.3496 -1.4009  3.5666
  437MOL0     H60279   7.352   4.117   3.326 -2.4723  0.1456 -1.1164
  437MOL0     H60280   7.530   4.145   3.073  2.5807 -0.7755  2.1998
  437MOL0     H60281   7.384   4.060   3.103  1.5822 -0.5850 -3.9627
  437MOL0     H60282   7.525   3.937   3.299 -2.7218  0.7027 -0.5299
  437MOL0     H60283   7.670   4.018   3.232  1.4390 -2.5828 -1.5433
  437MOL0     H60284   7.501   3.836   3.049  0.3963 -1.7620  0.6397
  437MOL0     H60285   7.628   3.778   3.144 -2.1305 -2.2028 -2.4679
  437MOL0     H60286   6.731   4.483   3.375 -0.1946  1.6755 -1.7949
  437MOL0     H60287   6.512   4.375   3.306  1.0603  0.4334  1.7831
  437MOL0     H60288   6.360   3.832   3.326  0.7770 -2.5773 -1.7832
  437MOL0     H60289   6.163   3.717   3.315  0.9317 -0.6849 -1.0257
  437MOL0     H60290   5.850   3.288   1.865  0.5461 -3.9038  0.6851
  437MOL0     H60291   6.010   3.348   1.702  0.2756  2.2780 -0.2677
  437MOL0     H60292   6.141   3.227   1.290 -2.4384 -1.0997 -0.1805
  437MOL0     H60293   6.248   3.174   1.102  1.3946  2.6389  3.8494
  437MOL0     H60294   6.380   3.357   0.956 -0.5322 -2.2481  0.8884
  437MOL0     H60295   6.424   3.222   0.846  1.2288  0.7516 -1.3657
  437MOL0     H60296   6.327   3.498   0.790  0.1383 -0.4496  2.9448
  437MOL0     H60297   6.357   3.391   0.653 -2.9975 -0.9625  1.2431
  437MOL0     H60298   6.554   3.560   0.723  3.3878 -0.8143 -0.2445
  437MOL0     H60299   6.568   3.466   0.863 -2.6560  2.4091  0.7665
  437MOL0     H60300   6.594   3.331   0.601  0.3135  3.9047 -1.7526
  437MOL0     H60301   6.635   3.280   0.773  1.9149 -0.0312 -1.4423
  437MOL0     H60302   6.954   3.530   0.610  0.5662 -1.8055 -1.2301
  437MOL0     H60303   6.030   3.468   0.873 -1.6531 -1.0644 -0.1609
  437MOL0     H60304   5.893   3.609   0.957 -1.8366 -0.8962 -0.3321
  437MOL0     H60305   5.786   3.535   1.068 -0.5231  3.7100  0.0165
  437MOL0     H60306   5.903   3.653   1.136  0.0264  1.1393 -0.4185
  438MOL0     O60307   2.062   7.305   0.891  0.0007  0.0106  0.5045
  438MOL0     C60308   1.995   7.343   0.796  0.7374  0.5322 -0.0477
  438MOL0     O60309   1.959   7.464   0.769  0.8223  0.1778  0.6467
  438MOL0     C60310   1.978   7.562   0.861  0.3239 -0.3912  0.3374
  438MOL0     C60311   2.072   7.647   0.820 -0.2894  1.1900 -0.3402
  438MOL0     C60312   2.115   7.752   0.898  0.3596  0.3710  0.5412
  438MOL0     C60313   2.069   7.765   1.030 -0.1240 -0.2941 -0.0699
  438MOL0     O60314   2.114   7.871   1.106 -0.5240 -0.0630  0.4708
  438MOL0     C60315   2.014   7.968   1.136  0.3489  0.8133  0.1098
  438MOL0     C60316   2.074   8.100   1.088 -0.4188  1.2632  0.3623
  438MOL0     C60317   1.990   8.221   1.112 -0.3062  0.4664 -0.7820
  438MOL0     C60318   2.086   8.340   1.108 -0.1942  0.8166  0.3247
  438MOL0     C60319   2.017   8.476   1.111  0.4048 -0.4541 -0.0367
  438MOL0     C60320   1.909   8.476   1.224  0.0461  0.6449 -0.2776
  438MOL0     C60321   1.859   8.617   1.265 -0.1155 -0.1064  0.7031
  438MOL0     C60322   1.817   8.628   1.421 -0.7600 -0.1234 -0.0403
  438MOL0     N60323   1.708   8.541   1.479 -0.6833 -0.6497  0.3307
  438MOL0     C60324   1.726   8.409   1.497 -0.8573 -0.5050 -0.2037
  438MOL0     C60325   1.605   8.357   1.513  0.2638  0.1523  0.4460
  438MOL0     C60326   1.558   8.213   1.533  0.1474 -0.7804  1.3953
  438MOL0     C60327   1.492   8.194   1.664 -0.0249 -0.6968  0.6104
  438MOL0     C60328   1.343   8.192   1.653  0.1506  0.0048  0.1928
  438MOL0     C60329   1.262   8.182   1.788  0.2393 -0.9842 -0.4036
  438MOL0     O60330   1.334   8.267   1.884  0.6906  0.4536  0.7635
  438MOL0     C60331   1.266   8.384   1.909  0.0019  0.8448  1.0741
  438MOL0     C60332   1.260   8.476   1.808  0.6632 -0.2795  0.6135
  438MOL0     C60333   1.187   8.599   1.818  0.9389  0.5676 -0.6506
  438MOL0     C60334   1.178   8.687   1.707  0.3696  0.0496 -0.6094
  438MOL0     C60335   1.119   8.624   1.944  0.6761 -0.3563 -0.2690
  438MOL0     C60336   1.023   8.735   1.973  0.0642  0.5864 -0.1122
  438MOL0     O60337   1.033   8.799   2.091 -0.0673  0.3923  0.7931
  438MOL0     C60338   0.951   8.901   2.124  0.3181  0.4448 -0.8667
  438MOL0     C60339   0.966   9.030   2.067  0.2096  0.7157  0.3764
  438MOL0     C60340   0.869   9.126   2.101  0.6925 -0.0652 -1.1646
  438MOL0     C60341   0.754   9.098   2.177 -0.2510  0.5530 -0.9621
  438MOL0     O60342   0.675   9.207   2.181 -0.4888  0.6471  0.4558
  438MOL0     C60343   0.542   9.177   2.135  1.0834  0.8638 -0.0260
  438MOL0     C60344   0.545   9.151   1.982  0.0809 -0.5122 -0.5163
  438MOL0     C60345   0.412   9.103   1.934  0.2583  1.0705 -0.5393
  438MOL0     C60346   0.358   8.959   1.976  0.7095 -0.3669  0.2624
  438MOL0     C60347   0.428   8.841   1.908  0.3170 -0.7960 -0.4367
  438MOL0     C60348   0.417   8.705   1.992 -0.0581  0.2363 -0.2731
  438MOL0     C60349   0.473   8.585   1.913  0.1025 -0.4187 -0.0574
  438MOL0     C60350   0.401   8.455   1.956  0.2587 -0.0028 -0.1583
  438MOL0    Cl60351   0.217   8.469   1.989 -0.2867  0.0301  0.4087
  438MOL0     C60352   0.738   8.974   2.241  0.4553 -0.4909  0.4210
  438MOL0     C60353   0.841   8.880   2.213 -1.5302  0.4037  0.6099
  438MOL0     O60354   0.939   8.766   1.888  0.7770 -0.4017  0.5175
  438MOL0     C60355   1.144   8.542   2.044  0.2789 -0.5961  0.1828
  438MOL0     C60356   1.218   8.422   2.032 -0.0988 -0.2189  0.4085
  438MOL0     N60357   1.511   8.463   1.509  0.5598 -0.6530  0.2811
  438MOL0     N60358   1.574   8.567   1.474  0.3644  0.1741 -0.5539
  438MOL0     C60359   1.974   7.678   1.080  0.0756 -0.2433 -0.3495
  438MOL0     C60360   1.930   7.566   0.998 -0.3548  0.2307  0.4545
  438MOL0     C60361   1.972   7.239   0.696  0.1120 -0.3036  0.2965
  438MOL0     C60362   1.984   7.281   0.568  0.5159  1.0969  0.3592
  438MOL0     C60363   1.979   7.193   0.456  0.1234 -0.0090 -1.4802
  438MOL0     C60364   1.929   7.065   0.477 -0.1517  0.8319 -0.5550
  438MOL0     O60365   1.913   6.974   0.382 -0.1701  0.0809 -0.0507
  438MOL0     C60366   1.778   6.957   0.334 -0.6869 -0.1751 -0.2776
  438MOL0     C60367   1.748   7.067   0.238 -0.1582  0.3751  1.1307
  438MOL0     C60368   1.653   7.016   0.118 -0.4169 -0.0025 -0.1088
  438MOL0     C60369   1.665   7.108  -0.010 -0.1240  0.3322 -0.0212
  438MOL0     C60370   1.572   7.089  -0.116 -0.1990 -0.0398  0.5202
  438MOL0     C60371   1.510   7.081  -0.219  0.7491 -0.1490 -0.5193
  438MOL0     C60372   1.919   7.019   0.612  0.6091  0.4587 -0.6960
  438MOL0     C60373   1.945   7.103   0.723 -0.7721  0.2807  0.2716
  438MOL0     C60374   1.945   7.026   0.853  0.3809  0.5657  0.2133
  438MOL0     H60375   2.127   7.632   0.728 -0.9902 -0.3214 -0.5506
  438MOL0     H60376   2.199   7.813   0.868 -0.8921  1.5884 -0.6421
  438MOL0     H60377   1.992   7.970   1.243 -2.0937  0.6567 -0.3190
  438MOL0     H60378   1.915   7.940   1.099  0.2054 -1.4132  1.9905
  438MOL0     H60379   2.173   8.107   1.134  2.0011 -1.3830 -3.7652
  438MOL0     H60380   2.097   8.091   0.981  0.4485 -1.5587  0.7150
  438MOL0     H60381   1.916   8.223   1.032 -2.2287  1.3358  0.9442
  438MOL0     H60382   1.946   8.217   1.211  0.7109 -1.7706 -0.3588
  438MOL0     H60383   2.151   8.337   1.196  1.3538  1.6453 -0.7392
  438MOL0     H60384   2.142   8.334   1.015 -3.6896  2.2270 -2.1065
  438MOL0     H60385   1.973   8.493   1.012 -0.4167  1.8891  0.6727
  438MOL0     H60386   2.093   8.550   1.137  2.2580 -3.8128  6.1015
  438MOL0     H60387   1.825   8.422   1.180  2.5320 -2.7024 -1.3024
  438MOL0     H60388   1.951   8.422   1.309 -1.4740 -1.1671 -0.6209
  438MOL0     H60389   1.770   8.644   1.207  0.3075  1.3334  0.6673
  438MOL0     H60390   1.937   8.687   1.233  1.3120 -2.8274 -2.3901
  438MOL0     H60391   1.901   8.622   1.490 -2.6472  0.0117  2.4106
  438MOL0     H60392   1.776   8.729   1.433 -1.7723 -0.4384 -0.7371
  438MOL0     H60393   1.813   8.347   1.516 -1.1958 -0.5402  1.3603
  438MOL0     H60394   1.648   8.151   1.524  1.7590  1.0934  3.4744
  438MOL0     H60395   1.485   8.196   1.453  0.4509 -3.7546  1.6483
  438MOL0     H60396   1.533   8.101   1.704  1.5186  1.0840  3.5212
  438MOL0     H60397   1.511   8.271   1.740  2.0592 -0.7005  0.1504
  438MOL0     H60398   1.308   8.282   1.602  0.5304  0.6092  0.9863
  438MOL0     H60399   1.318   8.111   1.584 -4.6091  1.6444 -0.4028
  438MOL0     H60400   1.155   8.205   1.789  0.3574 -0.0621 -2.8625
  438MOL0     H60401   1.274   8.079   1.823 -1.5457 -0.2453  2.8087
  438MOL0     H60402   1.304   8.466   1.709 -1.0909  0.7870 -0.3416
  438MOL0     H60403   1.184   8.785   1.755 -2.0044 -1.7560  3.9195
  438MOL0     H60404   1.077   8.676   1.667 -0.2923 -1.9473  1.4504
  438MOL0     H60405   1.252   8.685   1.626  0.0661  0.0199 -0.8923
  438MOL0     H60406   1.055   9.049   2.007 -0.6677  1.9114 -0.5984
  438MOL0     H60407   0.895   9.227   2.073  1.4115 -0.0382 -0.4486
  438MOL0     H60408   0.484   9.098   2.183  0.4404 -0.0591 -2.1912
  438MOL0     H60409   0.486   9.261   2.175  2.4487  0.0991  3.9568
  438MOL0     H60410   0.568   9.245   1.932  1.2969 -0.1117  0.7291
  438MOL0     H60411   0.626   9.080   1.963  2.1537  0.9978  1.9435
  438MOL0     H60412   0.411   9.111   1.825  1.4170 -1.1422 -0.7633
  438MOL0     H60413   0.346   9.183   1.968  0.2231 -1.0250  5.5283
  438MOL0     H60414   0.254   8.953   1.943 -0.0834  1.2755  2.1934
  438MOL0     H60415   0.359   8.936   2.083 -0.2609 -1.2831  0.0921
  438MOL0     H60416   0.381   8.840   1.810 -0.1662 -1.1021 -0.2075
  438MOL0     H60417   0.535   8.850   1.890  0.0579  1.3122 -1.1863
  438MOL0     H60418   0.310   8.688   2.010 -0.9693  2.4927 -2.8157
  438MOL0     H60419   0.470   8.719   2.087 -0.1077  0.3553 -0.2615
  438MOL0     H60420   0.580   8.577   1.934  0.0809  3.0740  2.0960
  438MOL0     H60421   0.448   8.596   1.807 -0.1869  2.3158  0.2217
  438MOL0     H60422   0.459   8.420   2.041  2.1899  3.3983  0.1133
  438MOL0     H60423   0.418   8.371   1.888  0.9659 -1.2971  1.5381
  438MOL0     H60424   0.664   8.965   2.320 -0.3936  2.5974  0.0938
  438MOL0     H60425   0.836   8.774   2.235 -0.9171 -0.0442 -1.1872
  438MOL0     H60426   1.115   8.576   2.143  1.2588  0.3003  0.1747
  438MOL0     H60427   1.233   8.345   2.106 -2.3613 -2.9266 -1.7236
  438MOL0     H60428   1.941   7.687   1.183 -0.2291  1.7888 -0.5718
  438MOL0     H60429   1.852   7.497   1.028  0.1536 -0.8042 -0.5369
  438MOL0     H60430   2.007   7.387   0.561  1.4490  0.8102 -1.6196
  438MOL0     H60431   1.993   7.220   0.351  1.7725  2.1288 -0.7739
  438MOL0     H60432   1.772   6.855   0.293  3.0038 -0.6306  0.0246
  438MOL0     H60433   1.701   6.953   0.412  1.5803 -1.1517  2.0418
  438MOL0     H60434   1.839   7.117   0.203 -1.4642  1.1393 -1.3477
  438MOL0     H60435   1.700   7.143   0.300  1.6274  0.5096  2.4198
  438MOL0     H60436   1.666   6.909   0.100  2.3844  0.3050 -0.3655
  438MOL0     H60437   1.548   7.034   0.141 -0.4020 -0.9558  0.7686
  438MOL0     H60438   1.763   7.088  -0.053 -0.6494 -3.2422  0.1994
  438MOL0     H60439   1.656   7.216   0.007 -4.3807 -0.1973  2.5352
  438MOL0     H60440   1.482   7.054  -0.319 -0.4833 -0.3266 -0.1333
  438MOL0     H60441   1.877   6.921   0.633 -0.1275  1.4359  3.2616
  438MOL0     H60442   1.961   6.922   0.824  0.8834  0.6937  0.0312
  438MOL0     H60443   2.020   7.069   0.920  1.7464  2.0851 -2.1461
  438MOL0     H60444   1.844   7.025   0.895  0.4216  1.3562  0.3490
  439MOL0     O60445   5.703   8.543   7.043  0.1033  0.0984  0.0360
  439MOL0     C60446   5.742   8.485   7.143 -0.8575 -0.5863  0.2755
  439MOL0     O60447   5.664   8.407   7.213  0.4937  0.0469 -0.4348
  439MOL0     C60448   5.580   8.320   7.153 -0.3264 -0.6118 -0.0758
  439MOL0     C60449   5.632   8.200   7.088 -0.3466 -0.2382  0.3760
  439MOL0     C60450   5.543   8.104   7.041  0.8239 -0.8431 -1.1050
  439MOL0     C60451   5.406   8.114   7.063  0.4021  0.8857  0.0444
  439MOL0     O60452   5.335   7.999   7.031 -0.2140 -0.1725 -0.6977
  439MOL0     C60453   5.192   8.017   7.028  0.4104 -0.0618 -0.4519
  439MOL0     C60454   5.114   7.895   6.981  0.5200  0.1003  0.7066
  439MOL0     C60455   5.155   7.760   7.044  0.0361  0.0012 -1.1572
  439MOL0     C60456   5.256   7.674   6.961  0.6301  0.6174 -0.6835
  439MOL0     C60457   5.309   7.559   7.047 -0.1498 -0.2376  0.7667
  439MOL0     C60458   5.204   7.442   7.057  0.4021 -0.3172 -0.9443
  439MOL0     C60459   5.254   7.328   7.144  0.5994  0.7323 -0.2910
  439MOL0     C60460   5.188   7.186   7.114  0.6267 -1.1623  0.2724
  439MOL0     N60461   5.056   7.184   7.187  0.4381 -0.2308  0.2611
  439MOL0     C60462   4.938   7.247   7.161  0.2059  0.4356 -0.6430
  439MOL0     C60463   4.859   7.215   7.265 -0.9092  0.5886  0.1502
  439MOL0     C60464   4.731   7.289   7.274  0.4854  0.4041 -0.1404
  439MOL0     C60465   4.723   7.436   7.241  0.3669 -0.0475  0.1075
  439MOL0     C60466   4.584   7.470   7.195  0.4700 -0.3673  0.1117
  439MOL0     C60467   4.542   7.616   7.222 -0.6944 -0.2923 -0.4040
  439MOL0     O60468   4.623   7.701   7.147  0.2809 -0.3096 -0.8328
  439MOL0     C60469   4.601   7.733   7.016  0.1509 -0.8180  0.0711
  439MOL0     C60470   4.703   7.756   6.931 -0.6375  0.1679 -0.4231
  439MOL0     C60471   4.698   7.803   6.799  1.2323 -0.4034  0.0667
  439MOL0     C60472   4.828   7.839   6.735 -0.6726 -0.5578  0.3836
  439MOL0     C60473   4.562   7.807   6.746 -0.3403 -1.4547 -1.2994
  439MOL0     C60474   4.530   7.842   6.604  0.9279 -0.7281 -0.8196
  439MOL0     O60475   4.605   7.779   6.511 -0.0501  0.1944  0.7320
  439MOL0     C60476   4.590   7.825   6.383 -0.3926 -0.7796  0.4631
  439MOL0     C60477   4.497   7.768   6.300 -1.4530  0.2200  0.4010
  439MOL0     C60478   4.479   7.813   6.167 -0.1081  0.7308 -0.0744
  439MOL0     C60479   4.564   7.911   6.106  1.5520  0.1964 -0.1572
  439MOL0     O60480   4.541   7.929   5.972  0.2616  0.4069  0.1431
  439MOL0     C60481   4.625   8.032   5.906 -0.0622 -0.9021  0.0059
  439MOL0     C60482   4.607   8.016   5.753 -0.5787  0.1172  0.0944
  439MOL0     C60483   4.468   8.072   5.699 -0.3406  0.4902 -0.1051
  439MOL0     C60484   4.466   8.074   5.548 -1.0351  0.1370 -0.1412
  439MOL0     C60485   4.344   8.120   5.488 -0.1100 -0.4582  0.2580
  439MOL0     C60486   4.310   8.265   5.539  0.8102 -0.5871  0.3639
  439MOL0     C60487   4.409   8.386   5.505  0.7680 -0.4722  0.0909
  439MOL0     C60488   4.362   8.529   5.529  0.6451  0.5271  0.4695
  439MOL0    Cl60489   4.205   8.551   5.425 -0.2500 -0.0166 -0.2230
  439MOL0     C60490   4.653   7.975   6.193 -0.4980  0.4651 -0.2446
  439MOL0     C60491   4.669   7.929   6.325 -0.7740  0.6101 -0.3556
  439MOL0     O60492   4.439   7.920   6.575  0.1068  0.2597  0.2465
  439MOL0     C60493   4.452   7.796   6.832 -0.4152 -0.1915 -0.4442
  439MOL0     C60494   4.473   7.756   6.962 -0.4724 -0.0742 -0.0473
  439MOL0     N60495   4.921   7.125   7.350  0.3919 -0.0775  1.1415
  439MOL0     N60496   5.038   7.116   7.302 -0.2277  0.1201 -0.1130
  439MOL0     C60497   5.357   8.224   7.147  0.3045  0.0062 -0.1520
  439MOL0     C60498   5.444   8.321   7.191  0.5364  0.2999 -0.2350
  439MOL0     C60499   5.879   8.520   7.193  0.6342  0.3119 -0.6769
  439MOL0     C60500   5.973   8.416   7.200  1.0947  0.2498 -0.1668
  439MOL0     C60501   6.093   8.417   7.254 -0.2835 -1.1668 -0.1373
  439MOL0     C60502   6.135   8.540   7.316  0.8064 -0.0018  0.1412
  439MOL0     O60503   6.250   8.563   7.382  0.2667 -0.6900 -0.3707
  439MOL0     C60504   6.373   8.519   7.330  0.1846 -0.2589  0.7384
  439MOL0     C60505   6.423   8.612   7.218 -1.1762 -1.0237 -0.5279
  439MOL0     C60506   6.447   8.760   7.270  0.8183  0.0468  0.5320
  439MOL0     C60507   6.475   8.861   7.157 -0.4850 -0.4049  0.2679
  439MOL0     C60508   6.368   8.900   7.066 -0.5116  0.6601  0.1630
  439MOL0     C60509   6.275   8.935   6.994  0.5049  0.0286 -0.4116
  439MOL0     C60510   6.046   8.653   7.302  0.0827  0.3211 -0.5698
  439MOL0     C60511   5.920   8.647   7.253  0.1026  0.3522 -0.0980
  439MOL0     C60512   5.816   8.756   7.249  0.2722  0.8206 -0.2165
  439MOL0     H60513   5.737   8.178   7.076 -0.8746 -2.1376 -1.2115
  439MOL0     H60514   5.568   8.013   6.987  2.0025  0.3993 -2.7610
  439MOL0     H60515   5.168   8.108   6.973 -0.8099  0.4952  0.9017
  439MOL0     H60516   5.160   8.038   7.131  1.7875  3.0091 -0.5695
  439MOL0     H60517   5.010   7.911   7.009 -0.4996  0.0031 -2.5368
  439MOL0     H60518   5.130   7.900   6.873 -1.2054  0.0383  0.4200
  439MOL0     H60519   5.202   7.767   7.142 -0.0003  3.6723 -1.2436
  439MOL0     H60520   5.060   7.706   7.049 -2.1854  3.5788 -0.5730
  439MOL0     H60521   5.209   7.629   6.872  3.3849 -5.9650  0.5556
  439MOL0     H60522   5.346   7.729   6.935  1.5799 -0.1599  0.7991
  439MOL0     H60523   5.344   7.596   7.143  0.9158  1.9162 -0.3640
  439MOL0     H60524   5.396   7.521   6.992  0.4963  0.6744  1.1398
  439MOL0     H60525   5.110   7.481   7.098  0.1530 -4.5655  3.4276
  439MOL0     H60526   5.191   7.408   6.954  3.3901  1.4399 -2.0460
  439MOL0     H60527   5.241   7.367   7.245 -2.6226  2.4903 -1.2471
  439MOL0     H60528   5.363   7.312   7.147  0.7929  2.0231  2.2134
  439MOL0     H60529   5.172   7.179   7.006  3.3867  5.7094 -1.1264
  439MOL0     H60530   5.253   7.102   7.136 -1.1299 -3.1037 -1.5185
  439MOL0     H60531   4.917   7.311   7.076  0.0191  0.3109 -0.6900
  439MOL0     H60532   4.682   7.283   7.372 -2.4259  0.5949 -1.5038
  439MOL0     H60533   4.659   7.247   7.204 -3.0203 -0.9907  3.8780
  439MOL0     H60534   4.741   7.493   7.332 -1.9795  0.3454  0.3779
  439MOL0     H60535   4.798   7.471   7.170  0.0383  0.5049  0.0314
  439MOL0     H60536   4.556   7.451   7.091 -0.0640  1.6176 -0.1397
  439MOL0     H60537   4.506   7.413   7.246 -0.9701  1.3372 -0.1157
  439MOL0     H60538   4.434   7.624   7.213 -1.2486 -3.4878  1.8037
  439MOL0     H60539   4.569   7.631   7.327  1.4875 -1.4922 -0.7229
  439MOL0     H60540   4.796   7.743   6.985 -2.1026 -0.2570  2.1619
  439MOL0     H60541   4.905   7.763   6.750 -0.9733 -0.7330  1.0712
  439MOL0     H60542   4.867   7.928   6.783 -0.5632 -1.0858  1.2920
  439MOL0     H60543   4.808   7.853   6.628  1.5696  1.1165  0.1217
  439MOL0     H60544   4.439   7.686   6.340  2.3999 -3.2192 -0.3567
  439MOL0     H60545   4.401   7.756   6.118 -1.3873  2.6348 -0.3694
  439MOL0     H60546   4.591   8.131   5.937 -4.0726 -2.2621  0.4820
  439MOL0     H60547   4.727   8.005   5.935  0.5025 -0.0410 -1.0976
  439MOL0     H60548   4.672   8.089   5.704 -4.7099  2.1229 -2.9320
  439MOL0     H60549   4.622   7.912   5.722 -2.6357 -0.1701 -0.0645
  439MOL0     H60550   4.459   8.174   5.738 -0.7030  0.5369 -0.3067
  439MOL0     H60551   4.377   8.026   5.739 -1.0336  0.5442 -1.5775
  439MOL0     H60552   4.497   7.978   5.506 -1.9774 -0.6029  0.7974
  439MOL0     H60553   4.536   8.156   5.527  0.5040 -1.3516 -1.1207
  439MOL0     H60554   4.345   8.123   5.379  0.8116  4.6962  0.1312
  439MOL0     H60555   4.255   8.064   5.517 -0.7134  0.3552 -0.0070
  439MOL0     H60556   4.295   8.278   5.646  1.4267 -0.4818  0.4385
  439MOL0     H60557   4.212   8.289   5.496  2.1818  0.1684 -2.6616
  439MOL0     H60558   4.436   8.391   5.399 -1.3923  1.9831 -0.4525
  439MOL0     H60559   4.496   8.376   5.571 -0.9923  0.1314  2.6705
  439MOL0     H60560   4.443   8.593   5.495  1.9899 -0.7505  1.1636
  439MOL0     H60561   4.341   8.544   5.636 -2.9956  0.3039 -0.0882
  439MOL0     H60562   4.714   8.055   6.155 -0.5161  0.1603 -0.9353
  439MOL0     H60563   4.744   7.982   6.384  1.7623 -1.7396 -1.2434
  439MOL0     H60564   4.348   7.810   6.804 -0.3199  1.1633 -0.1424
  439MOL0     H60565   4.393   7.737   7.033  0.6852 -0.2596  1.2568
  439MOL0     H60566   5.255   8.234   7.180  0.0863  2.3588 -1.3148
  439MOL0     H60567   5.401   8.401   7.251 -1.1493  0.8932 -2.1116
  439MOL0     H60568   5.953   8.319   7.154  2.0246 -0.6544  1.2466
  439MOL0     H60569   6.160   8.331   7.253 -0.5113 -1.3745  1.0930
  439MOL0     H60570   6.451   8.511   7.406  1.5488 -1.7027 -0.7366
  439MOL0     H60571   6.357   8.416   7.296 -1.4872 -0.9759  3.3580
  439MOL0     H60572   6.341   8.614   7.146 -1.5878 -1.7127 -0.0945
  439MOL0     H60573   6.515   8.570   7.177  0.5337  1.5382  0.4656
  439MOL0     H60574   6.353   8.802   7.310  0.6215  0.1522 -0.0356
  439MOL0     H60575   6.534   8.753   7.335  0.9927 -2.1893  0.1299
  439MOL0     H60576   6.571   8.842   7.108 -0.0170  3.2726 -0.5276
  439MOL0     H60577   6.486   8.956   7.211 -1.5883 -1.8822  3.3112
  439MOL0     H60578   6.196   8.948   6.923 -0.1988  1.4757  0.5951
  439MOL0     H60579   6.077   8.752   7.334  3.5603 -0.1652 -1.9300
  439MOL0     H60580   5.859   8.854   7.273  0.3814  0.3827  1.4914
  439MOL0     H60581   5.776   8.767   7.147 -1.1092  1.9809  0.4137
  439MOL0     H60582   5.724   8.731   7.303 -1.5756  0.7990 -3.1110
  440MOL0     O60583   3.888   4.554   8.824 -0.2496  0.0805  0.6919
  440MOL0     C60584   3.921   4.598   8.932 -0.2127  0.9588  0.6397
  440MOL0     O60585   3.831   4.632   9.024 -0.2118  1.4004 -0.9394
  440MOL0     C60586   3.701   4.612   9.021  0.3896  0.6172  1.4363
  440MOL0     C60587   3.646   4.487   8.985 -0.5085 -0.5079  0.0130
  440MOL0     C60588   3.512   4.446   9.008  0.8884  0.3191  0.0018
  440MOL0     C60589   3.430   4.545   9.066 -0.8664  0.0326 -0.0140
  440MOL0     O60590   3.292   4.519   9.081 -0.7623 -0.1881  0.0861
  440MOL0     C60591   3.199   4.638   9.071 -0.1800  0.3992 -0.0454
  440MOL0     C60592   3.121   4.667   9.202  0.1325 -0.5174  0.6599
  440MOL0     C60593   3.044   4.560   9.261  0.0920 -1.1763 -0.5522
  440MOL0     C60594   3.130   4.479   9.349  0.4290  0.1864 -0.4943
  440MOL0     C60595   3.053   4.359   9.432  0.0781 -0.3016  0.1153
  440MOL0     C60596   3.156   4.283   9.516 -0.5843 -0.2590  0.8084
  440MOL0     C60597   3.094   4.190   9.628  0.4018 -0.7812 -0.1995
  440MOL0     C60598   3.199   4.156   9.730  0.0916  0.1945  0.6563
  440MOL0     N60599   3.155   4.044   9.806  0.8846  0.5171 -0.5819
  440MOL0     C60600   3.074   3.942   9.773 -0.1240  0.2461  0.8754
  440MOL0     C60601   3.096   3.839   9.861  0.2142  0.1935  0.3645
  440MOL0     C60602   3.011   3.707   9.886 -0.6353 -0.9432  0.0646
  440MOL0     C60603   3.089   3.596   9.965  0.0931  0.2159  1.4179
  440MOL0     C60604   3.127   3.633  10.110 -0.8796  0.5990 -0.1988
  440MOL0     C60605   3.245   3.539  10.161  0.2144 -0.4624 -0.2613
  440MOL0     O60606   3.267   3.555  10.309  0.9765  0.7047  0.4721
  440MOL0     C60607   3.342   3.453  10.362  0.3069 -0.2382 -0.9361
  440MOL0     C60608   3.413   3.354  10.292  1.1790  0.0165  0.0240
  440MOL0     C60609   3.462   3.247  10.366 -0.4400  0.3300  0.8745
  440MOL0     C60610   3.535   3.133  10.291 -0.4547 -1.0457  0.4497
  440MOL0     C60611   3.444   3.235  10.504  1.0344  0.3505 -0.1399
  440MOL0     C60612   3.477   3.121  10.584 -0.5747 -0.7903 -0.1519
  440MOL0     O60613   3.525   3.134  10.717 -0.2324 -0.7173  0.4090
  440MOL0     C60614   3.598   3.042  10.790  0.3156  0.5018 -0.3361
  440MOL0     C60615   3.640   3.080  10.921  1.0603  0.2673 -0.0469
  440MOL0     C60616   3.696   2.990  11.012  0.1115 -0.7450 -0.6048
  440MOL0     C60617   3.722   2.861  10.977  0.0763 -0.2543  0.4168
  440MOL0     O60618   3.756   2.755  11.051 -0.5935 -0.9747 -0.0145
  440MOL0     C60619   3.812   2.777  11.175 -0.6174  0.2260  1.0139
  440MOL0     C60620   3.830   2.638  11.248  0.0255  0.0930  0.9762
  440MOL0     C60621   3.861   2.660  11.398 -0.4923  0.2034  0.8105
  440MOL0     C60622   3.994   2.738  11.420 -0.3232  0.7632 -0.5277
  440MOL0     C60623   4.008   2.762  11.567 -0.2876 -0.0852 -0.2150
  440MOL0     C60624   3.962   2.899  11.620 -0.3782 -0.2581 -0.3205
  440MOL0     C60625   4.051   3.010  11.577  0.2108  0.3229  0.2026
  440MOL0     C60626   3.973   3.144  11.565  1.0011  1.3518 -0.8741
  440MOL0    Cl60627   3.874   3.161  11.407 -0.2481  0.6491 -0.1560
  440MOL0     C60628   3.697   2.831  10.842  0.2507 -0.3831 -0.9080
  440MOL0     C60629   3.628   2.911  10.756  0.0504  0.4956  0.2620
  440MOL0     O60630   3.454   3.012  10.538  0.2466 -0.2437  0.8066
  440MOL0     C60631   3.387   3.344  10.571  0.0271  0.7961 -0.0099
  440MOL0     C60632   3.333   3.449  10.502 -0.6506  0.0676 -0.7756
  440MOL0     N60633   3.199   3.888   9.949  0.5892  0.1599 -0.7327
  440MOL0     N60634   3.236   4.001   9.906  0.5561 -0.6026 -0.7710
  440MOL0     C60635   3.479   4.676   9.098  0.4588 -1.2415  0.9714
  440MOL0     C60636   3.614   4.705   9.079 -1.2614 -0.7969  0.9016
  440MOL0     C60637   4.067   4.575   8.965  1.1418 -0.9640 -0.5024
  440MOL0     C60638   4.088   4.542   9.106 -0.0566 -0.1401  0.6745
  440MOL0     C60639   4.217   4.503   9.153 -0.1288 -1.1441 -0.3695
  440MOL0     C60640   4.326   4.506   9.067  0.1737  0.9558  0.3381
  440MOL0     O60641   4.442   4.445   9.124 -0.6524 -1.0777  0.1300
  440MOL0     C60642   4.562   4.478   9.054  0.0466  0.9373  0.4789
  440MOL0     C60643   4.697   4.476   9.134 -0.0467  0.2220  0.0872
  440MOL0     C60644   4.726   4.343   9.204 -0.3447 -0.5755 -0.6526
  440MOL0     C60645   4.711   4.211   9.132  0.6349  0.4513 -0.8295
  440MOL0     C60646   4.769   4.218   9.000  0.5163 -0.1969  0.9327
  440MOL0     C60647   4.806   4.241   8.886 -0.4015 -0.0580 -0.2472
  440MOL0     C60648   4.309   4.546   8.933 -1.1418  0.0934 -0.0873
  440MOL0     C60649   4.184   4.577   8.881  0.5877  0.2810 -0.5300
  440MOL0     C60650   4.181   4.625   8.737  0.0623 -0.5173 -0.0870
  440MOL0     H60651   3.721   4.413   8.962 -1.1634 -1.1762 -0.0083
  440MOL0     H60652   3.474   4.352   8.971  0.4980  0.2720  0.5217
  440MOL0     H60653   3.131   4.619   8.987  1.9767 -0.7363 -1.6433
  440MOL0     H60654   3.240   4.731   9.031 -0.4300 -0.0080 -1.2899
  440MOL0     H60655   3.189   4.712   9.275  0.0062  0.3346  0.2655
  440MOL0     H60656   3.061   4.751   9.165  1.4631 -0.4370 -1.5165
  440MOL0     H60657   2.956   4.593   9.317  3.6011  1.1710  4.3562
  440MOL0     H60658   3.006   4.507   9.174 -1.5205  0.0803 -0.6646
  440MOL0     H60659   3.218   4.438   9.297  0.8198  0.8093 -0.3287
  440MOL0     H60660   3.175   4.547   9.422 -0.1335 -2.3997  2.4273
  440MOL0     H60661   2.996   4.289   9.371  1.2085  0.0371 -1.3716
  440MOL0     H60662   2.990   4.427   9.491  1.1973  3.0693 -2.2493
  440MOL0     H60663   3.221   4.231   9.446 -1.6265  0.6138 -0.8679
  440MOL0     H60664   3.216   4.367   9.552 -1.6438  0.2548  1.4446
  440MOL0     H60665   3.054   4.106   9.571  3.0591 -1.0809 -1.7864
  440MOL0     H60666   3.020   4.245   9.687  0.0702 -1.9180  0.4576
  440MOL0     H60667   3.295   4.133   9.684  0.1402 -0.2020  0.9506
  440MOL0     H60668   3.226   4.243   9.791  0.5808  1.6699 -1.5620
  440MOL0     H60669   3.003   3.945   9.690 -0.6704 -1.1526  1.2629
  440MOL0     H60670   2.991   3.660   9.790  2.4523  0.4455 -1.3920
  440MOL0     H60671   2.914   3.724   9.933 -1.4846 -1.3791 -1.4712
  440MOL0     H60672   3.026   3.507   9.973  1.0438 -0.6396 -0.2887
  440MOL0     H60673   3.173   3.571   9.900  0.5771  0.6801  1.8506
  440MOL0     H60674   3.165   3.735  10.121 -1.4579  1.3172 -3.5770
  440MOL0     H60675   3.040   3.610  10.172  1.5468 -3.1118  2.2869
  440MOL0     H60676   3.219   3.435  10.141 -2.8959  0.3536 -1.0548
  440MOL0     H60677   3.337   3.554  10.102 -0.2680  1.3801 -0.6149
  440MOL0     H60678   3.428   3.365  10.185  1.6822  0.6016  0.1539
  440MOL0     H60679   3.603   3.168  10.213 -0.6745  3.1578  1.8823
  440MOL0     H60680   3.455   3.070  10.253  0.5527 -1.2875 -1.4000
  440MOL0     H60681   3.601   3.084  10.364  1.2387 -0.4535 -0.6229
  440MOL0     H60682   3.617   3.176  10.966 -0.4806 -0.3130  0.4553
  440MOL0     H60683   3.727   3.027  11.109  1.1652  2.2402 -1.9600
  440MOL0     H60684   3.911   2.817  11.151 -0.8769  1.4858  1.9555
  440MOL0     H60685   3.765   2.858  11.232 -2.4619 -0.2908  0.2943
  440MOL0     H60686   3.738   2.579  11.240  0.1893 -0.0347 -0.1086
  440MOL0     H60687   3.906   2.580  11.196  1.3221 -0.2214  3.1379
  440MOL0     H60688   3.868   2.562  11.446  0.3375  1.7817  4.2690
  440MOL0     H60689   3.781   2.717  11.447 -3.1839 -2.1894 -0.5360
  440MOL0     H60690   3.983   2.839  11.379  2.6999  1.1429 -0.6337
  440MOL0     H60691   4.082   2.693  11.373 -0.5269  0.4561 -0.6129
  440MOL0     H60692   3.954   2.681  11.618  2.8521 -3.1673 -1.3819
  440MOL0     H60693   4.114   2.768  11.593 -1.0942  2.4516  3.2810
  440MOL0     H60694   3.960   2.922  11.727  0.3870  4.0599 -1.0595
  440MOL0     H60695   3.861   2.912  11.580  0.4649 -0.3383 -2.5872
  440MOL0     H60696   4.096   3.005  11.478  4.1864  3.5960  1.5600
  440MOL0     H60697   4.138   3.028  11.642 -0.3481  2.3376  0.4626
  440MOL0     H60698   4.039   3.231  11.569 -1.2480  3.1559 -0.6730
  440MOL0     H60699   3.912   3.158  11.654  1.3534  0.4220 -0.4822
  440MOL0     H60700   3.711   2.734  10.795  0.0065  0.4988 -2.8943
  440MOL0     H60701   3.618   2.878  10.653 -1.1367 -3.6883  1.5424
  440MOL0     H60702   3.363   3.323  10.675 -1.7724 -3.2585 -1.0290
  440MOL0     H60703   3.282   3.530  10.554 -2.3577 -1.1780 -0.4352
  440MOL0     H60704   3.421   4.755   9.144  1.4910  1.6531 -2.2799
  440MOL0     H60705   3.656   4.792   9.128 -0.3184 -0.6880 -0.0755
  440MOL0     H60706   4.007   4.545   9.179  1.0332  0.5129  1.8982
  440MOL0     H60707   4.246   4.480   9.255  0.4287 -0.1316 -0.2829
  440MOL0     H60708   4.560   4.398   8.980 -1.8201  0.9084  0.5016
  440MOL0     H60709   4.562   4.581   9.018  2.7605  1.7750  2.5637
  440MOL0     H60710   4.703   4.561   9.202 -1.4981 -1.9978  3.2591
  440MOL0     H60711   4.771   4.483   9.054 -0.3354 -0.9269 -0.3117
  440MOL0     H60712   4.832   4.351   9.229 -0.8274  2.3762  0.9493
  440MOL0     H60713   4.678   4.345   9.302 -0.6287  0.7865 -0.7945
  440MOL0     H60714   4.603   4.196   9.127  0.3343  0.8027  2.4326
  440MOL0     H60715   4.761   4.131   9.188  0.2954  0.0856 -1.0426
  440MOL0     H60716   4.835   4.270   8.787 -0.7859  3.1853  0.4834
  440MOL0     H60717   4.391   4.544   8.862 -1.7040 -2.7579 -0.7748
  440MOL0     H60718   4.121   4.560   8.673  0.4493 -1.1222  0.1544
  440MOL0     H60719   4.137   4.726   8.739 -0.8246 -0.9012  1.3085
  440MOL0     H60720   4.280   4.644   8.696  1.1852 -0.2447  2.5753
  441MOL0     O60721   4.494   1.889   8.390 -0.3863  0.2657  0.3162
  441MOL0     C60722   4.378   1.859   8.346  0.7974 -0.3153 -0.7577
  441MOL0     O60723   4.338   1.839   8.216  0.0152  0.9460  0.0272
  441MOL0     C60724   4.427   1.844   8.108  0.8948 -0.2059  0.6311
  441MOL0     C60725   4.559   1.795   8.106  0.4987 -0.8467  0.3571
  441MOL0     C60726   4.641   1.804   7.996 -0.5190 -0.2800  0.8446
  441MOL0     C60727   4.585   1.847   7.874 -0.2744 -1.1309  0.6016
  441MOL0     O60728   4.649   1.855   7.748 -0.0470 -0.1930 -0.5713
  441MOL0     C60729   4.764   1.771   7.717 -0.6837 -0.6030  0.0761
  441MOL0     C60730   4.785   1.763   7.569  0.1529  0.2264 -0.6962
  441MOL0     C60731   4.832   1.894   7.510  0.5564  0.2597 -0.2372
  441MOL0     C60732   4.865   1.870   7.367  0.5011 -0.5357 -0.9854
  441MOL0     C60733   4.899   1.993   7.287  0.0519  0.3562 -0.3445
  441MOL0     C60734   4.778   2.057   7.224  0.4224 -1.0799 -0.3349
  441MOL0     C60735   4.796   2.194   7.170  0.7200 -0.7614 -0.4208
  441MOL0     C60736   4.822   2.323   7.249 -0.0963  0.6352 -0.6323
  441MOL0     N60737   4.722   2.328   7.358 -0.3957 -0.3033 -0.0644
  441MOL0     C60738   4.758   2.307   7.491 -0.4441  0.4133 -0.0273
  441MOL0     C60739   4.643   2.318   7.566 -0.3030 -0.7566  0.1392
  441MOL0     C60740   4.611   2.301   7.711  0.1450 -0.6881 -0.1071
  441MOL0     C60741   4.717   2.372   7.805  0.7999 -0.0235 -0.3834
  441MOL0     C60742   4.669   2.363   7.943  0.9314  0.1599 -0.8918
  441MOL0     C60743   4.630   2.228   8.000 -0.2692  0.3755  0.4648
  441MOL0     O60744   4.737   2.131   7.994  0.3841  0.1515  1.0162
  441MOL0     C60745   4.819   2.129   8.107  0.7229 -0.2758  0.6874
  441MOL0     C60746   4.774   2.073   8.217 -0.3372 -0.5468  0.1951
  441MOL0     C60747   4.853   2.054   8.333  0.9021 -0.3859 -0.0685
  441MOL0     C60748   4.803   1.951   8.439  0.2109 -1.1098 -0.2122
  441MOL0     C60749   4.981   2.114   8.341 -1.4463  0.4126  0.1877
  441MOL0     C60750   5.061   2.122   8.465 -0.0536 -0.0418 -0.0209
  441MOL0     O60751   5.190   2.167   8.445 -0.0600 -0.3361 -0.4008
  441MOL0     C60752   5.267   2.201   8.546 -0.3606  0.7285 -0.2002
  441MOL0     C60753   5.355   2.105   8.597  0.2022 -0.2366  0.1507
  441MOL0     C60754   5.428   2.130   8.719 -0.7842  0.5068 -0.3821
  441MOL0     C60755   5.425   2.255   8.771 -0.5476 -0.1979  0.2123
  441MOL0     O60756   5.500   2.289   8.890 -0.5465  0.3396 -0.4268
  441MOL0     C60757   5.501   2.185   8.992 -1.2891 -1.2330  1.0980
  441MOL0     C60758   5.549   2.236   9.123  0.4338 -0.1986 -0.4674
  441MOL0     C60759   5.575   2.134   9.230  0.2597 -0.3947  0.5576
  441MOL0     C60760   5.544   2.198   9.363  0.5244  0.3068 -0.3791
  441MOL0     C60761   5.600   2.127   9.497  0.1582 -0.4335  0.3161
  441MOL0     C60762   5.564   2.217   9.614 -0.4836  1.1895 -0.9245
  441MOL0     C60763   5.616   2.143   9.751 -0.2134  0.0376  0.2825
  441MOL0     C60764   5.557   2.222   9.867 -0.2867  0.0122  0.4496
  441MOL0    Cl60765   5.613   2.388   9.877  0.2971  0.1831  0.2556
  441MOL0     C60766   5.342   2.356   8.717 -0.6337  0.1159  1.0518
  441MOL0     C60767   5.261   2.328   8.605 -1.6769  0.4170 -0.8543
  441MOL0     O60768   5.008   2.119   8.572  0.3758 -0.1168 -0.5499
  441MOL0     C60769   5.035   2.165   8.221  0.8047 -0.6659 -0.4322
  441MOL0     C60770   4.950   2.181   8.106 -0.2962 -1.0061  0.3099
  441MOL0     N60771   4.543   2.321   7.461 -0.4003  0.0095 -0.3786
  441MOL0     N60772   4.589   2.327   7.343  0.5794 -0.1669  0.1063
  441MOL0     C60773   4.458   1.896   7.869  0.3762 -0.6351  1.4448
  441MOL0     C60774   4.375   1.890   7.987 -0.4672  0.2954  1.0044
  441MOL0     C60775   4.262   1.872   8.448 -0.5390 -1.0641  0.4769
  441MOL0     C60776   4.129   1.879   8.395  0.3626 -0.8083 -0.5580
  441MOL0     C60777   4.015   1.885   8.483 -0.8160  0.1972  0.3129
  441MOL0     C60778   4.032   1.904   8.626  0.1134  0.8751  0.4779
  441MOL0     O60779   3.921   1.901   8.706  0.2876 -0.7448 -0.3045
  441MOL0     C60780   3.909   1.988   8.822 -0.3293 -0.3322  0.7698
  441MOL0     C60781   3.871   2.137   8.788  0.7257 -0.1896  0.7297
  441MOL0     C60782   3.883   2.243   8.904  0.1857 -0.6811  0.3699
  441MOL0     C60783   4.023   2.287   8.942 -0.4756  0.6110  0.2474
  441MOL0     C60784   4.032   2.399   9.032  0.2973 -0.0929 -0.3712
  441MOL0     C60785   4.034   2.483   9.121  0.7391  0.9299  0.7342
  441MOL0     C60786   4.159   1.898   8.674  0.4310 -0.0499  0.5609
  441MOL0     C60787   4.268   1.889   8.591  0.4407  0.8329 -1.0355
  441MOL0     C60788   4.401   1.899   8.665 -0.1347 -0.1838  0.8996
  441MOL0     H60789   4.598   1.753   8.198  0.6947  3.0663  2.2967
  441MOL0     H60790   4.740   1.761   8.001  1.0615  2.7553 -1.2018
  441MOL0     H60791   4.750   1.668   7.748 -2.1347  0.1473  2.1022
  441MOL0     H60792   4.852   1.800   7.776  0.7705  1.0545 -2.6445
  441MOL0     H60793   4.848   1.684   7.528 -0.5051  1.1428 -3.6633
  441MOL0     H60794   4.680   1.748   7.545 -1.1304  0.0721  4.0248
  441MOL0     H60795   4.756   1.973   7.513  0.3826  0.0804  0.0987
  441MOL0     H60796   4.929   1.919   7.552  0.3455  0.4329  0.1529
  441MOL0     H60797   4.951   1.802   7.362  1.0573  0.2658 -3.1944
  441MOL0     H60798   4.779   1.828   7.314  0.5379  0.0434 -1.5193
  441MOL0     H60799   4.961   1.967   7.201  0.5519 -2.5263  0.7793
  441MOL0     H60800   4.946   2.072   7.347 -0.8923  1.3081 -0.8289
  441MOL0     H60801   4.734   1.990   7.150 -1.5970 -0.0789 -0.0874
  441MOL0     H60802   4.694   2.052   7.294 -0.0857 -0.9936 -0.9339
  441MOL0     H60803   4.705   2.218   7.115  1.8972  0.9937 -1.7210
  441MOL0     H60804   4.872   2.184   7.092  3.4220  1.0415  1.7879
  441MOL0     H60805   4.918   2.317   7.301 -2.1520 -1.8293  3.3726
  441MOL0     H60806   4.824   2.412   7.186  0.3597  1.2877  0.2779
  441MOL0     H60807   4.852   2.286   7.541 -1.2022  0.4515  1.4613
  441MOL0     H60808   4.623   2.197   7.741  0.8467  0.1280  2.7474
  441MOL0     H60809   4.512   2.345   7.726 -0.4643 -2.5882  2.0423
  441MOL0     H60810   4.816   2.328   7.791  2.7062  3.8078 -0.3944
  441MOL0     H60811   4.726   2.478   7.780  3.2045 -0.5917 -2.4269
  441MOL0     H60812   4.750   2.402   8.005  0.3436 -0.8276  0.5291
  441MOL0     H60813   4.582   2.430   7.950 -0.5747 -1.6531 -1.4572
  441MOL0     H60814   4.616   2.245   8.107 -0.9678 -3.0340  1.0016
  441MOL0     H60815   4.535   2.188   7.963 -0.4813  0.3954  0.9715
  441MOL0     H60816   4.687   2.008   8.220 -1.4385  0.8340 -0.7074
  441MOL0     H60817   4.728   1.882   8.401  0.5658 -2.2085  1.0082
  441MOL0     H60818   4.769   2.010   8.524  0.2323 -0.6560 -0.5125
  441MOL0     H60819   4.888   1.884   8.457 -0.2916 -1.8942 -0.6700
  441MOL0     H60820   5.362   2.012   8.541 -0.1504  1.5490 -3.1674
  441MOL0     H60821   5.498   2.051   8.746 -2.2833 -0.7930 -0.1770
  441MOL0     H60822   5.397   2.149   9.001 -0.8349 -2.6899  0.8804
  441MOL0     H60823   5.572   2.115   8.946 -1.7393 -1.2670  0.4306
  441MOL0     H60824   5.641   2.292   9.102 -2.0249  3.5796 -2.1746
  441MOL0     H60825   5.487   2.321   9.150 -0.4541 -0.8074 -0.5332
  441MOL0     H60826   5.680   2.112   9.251  0.1889  0.1122  1.5097
  441MOL0     H60827   5.526   2.037   9.220  0.3584 -0.2540 -1.8428
  441MOL0     H60828   5.436   2.207   9.375  0.4529 -0.1212 -0.6734
  441MOL0     H60829   5.585   2.299   9.373 -2.6814  1.6213  0.9009
  441MOL0     H60830   5.548   2.032   9.510 -0.1215 -0.1600  1.2322
  441MOL0     H60831   5.707   2.105   9.496 -0.2552 -2.6774 -0.2711
  441MOL0     H60832   5.455   2.228   9.615 -0.6722 -0.3159 -1.9472
  441MOL0     H60833   5.600   2.319   9.604 -1.3356  1.4766 -1.1995
  441MOL0     H60834   5.725   2.138   9.759 -0.3151  0.0736  2.1484
  441MOL0     H60835   5.578   2.041   9.745  2.1518 -0.9337  0.9043
  441MOL0     H60836   5.576   2.183   9.968 -1.3980 -0.6970  0.4065
  441MOL0     H60837   5.450   2.211   9.847 -0.6246 -0.5238  2.2973
  441MOL0     H60838   5.321   2.451   8.766  2.5779  1.3866  0.2281
  441MOL0     H60839   5.197   2.405   8.562  1.8242  3.3062 -1.3946
  441MOL0     H60840   5.135   2.207   8.217  0.4314  0.1831 -1.5098
  441MOL0     H60841   4.997   2.233   8.022 -1.3892  0.9918  0.8581
  441MOL0     H60842   4.414   1.933   7.777  1.3618 -1.6636  0.5167
  441MOL0     H60843   4.276   1.932   7.980 -1.0292 -0.6134  2.9813
  441MOL0     H60844   4.102   1.883   8.290 -4.3186 -0.8336  0.4127
  441MOL0     H60845   3.923   1.899   8.428 -0.7167  3.0131  0.7282
  441MOL0     H60846   3.836   1.932   8.881  1.1892 -4.5065 -0.9855
  441MOL0     H60847   4.002   1.991   8.879 -2.0505  0.3894  3.7752
  441MOL0     H60848   3.763   2.146   8.772  0.8996  1.2795  0.1172
  441MOL0     H60849   3.920   2.170   8.695 -0.4620 -0.3550  0.0187
  441MOL0     H60850   3.831   2.338   8.884 -0.5114 -1.1490 -0.1171
  441MOL0     H60851   3.827   2.195   8.985 -1.8950 -1.0840 -1.2061
  441MOL0     H60852   4.096   2.305   8.862  0.6688  0.2997  1.1771
  441MOL0     H60853   4.067   2.202   8.995  3.8138  2.1800 -0.3372
  441MOL0     H60854   4.021   2.562   9.193 -1.4692  0.1057  1.3202
  441MOL0     H60855   4.164   1.909   8.782  0.5157  2.5622  0.3622
  441MOL0     H60856   4.458   1.809   8.640 -0.6333 -0.0222 -0.8957
  441MOL0     H60857   4.449   1.990   8.627 -2.5415  0.1118 -1.6951
  441MOL0     H60858   4.386   1.911   8.773 -2.5686  2.3743  0.3823
  442MOL0     O60859   3.664   7.666   7.152  0.0317 -0.5358  0.6559
  442MOL0     C60860   3.701   7.646   7.033 -0.0027  0.7228 -0.1184
  442MOL0     O60861   3.610   7.599   6.940  0.5491  1.2066 -0.3704
  442MOL0     C60862   3.652   7.500   6.856 -0.5261  0.1086  0.4077
  442MOL0     C60863   3.635   7.505   6.718  0.0324 -0.1447  0.0315
  442MOL0     C60864   3.660   7.400   6.636  0.3093  1.3104  0.1695
  442MOL0     C60865   3.712   7.278   6.681 -0.7401  0.2832  0.5847
  442MOL0     O60866   3.752   7.170   6.603  0.0306  0.4003 -0.7664
  442MOL0     C60867   3.823   7.208   6.490 -0.9096 -0.6130 -0.3015
  442MOL0     C60868   3.836   7.098   6.380 -0.0902 -1.1402  0.6183
  442MOL0     C60869   3.701   7.058   6.326 -0.3251 -0.4980  0.3671
  442MOL0     C60870   3.719   6.951   6.213  0.4971 -0.2556 -0.8327
  442MOL0     C60871   3.593   6.919   6.128  0.0027  0.0826  0.0042
  442MOL0     C60872   3.611   6.775   6.083 -0.0709 -0.0518  0.3144
  442MOL0     C60873   3.508   6.731   5.978 -0.6849  0.4529  0.4249
  442MOL0     C60874   3.541   6.587   5.944  0.1259  0.7359  0.1349
  442MOL0     N60875   3.423   6.509   5.915  0.2852 -0.2154  0.2329
  442MOL0     C60876   3.347   6.540   5.797 -1.0165 -0.0756 -0.4119
  442MOL0     C60877   3.225   6.487   5.830 -1.0742  0.1802 -0.6355
  442MOL0     C60878   3.090   6.502   5.764  0.5982  0.4827 -0.3841
  442MOL0     C60879   3.091   6.441   5.626 -0.6255 -0.2373 -0.9795
  442MOL0     C60880   2.967   6.465   5.543  0.7138 -0.2740  1.1596
  442MOL0     C60881   2.959   6.413   5.397 -0.1052 -0.6048 -0.4190
  442MOL0     O60882   3.074   6.456   5.320  0.1629  0.8846  0.1716
  442MOL0     C60883   3.091   6.581   5.282  1.6550 -0.5775  0.9644
  442MOL0     C60884   2.991   6.688   5.279 -0.5118  0.0898 -0.4946
  442MOL0     C60885   3.007   6.820   5.232  0.4666 -1.4832  0.6447
  442MOL0     C60886   2.873   6.896   5.210  0.6591 -0.2951  0.0748
  442MOL0     C60887   3.128   6.849   5.178 -0.5416 -0.3558 -0.0981
  442MOL0     C60888   3.157   6.982   5.104  0.7931 -0.1535 -0.6008
  442MOL0     O60889   3.106   7.097   5.177  0.6547 -0.8625 -1.1128
  442MOL0     C60890   3.123   7.222   5.116 -0.9455  0.0678  0.0395
  442MOL0     C60891   3.252   7.273   5.093 -0.2066  0.5986 -0.5968
  442MOL0     C60892   3.277   7.392   5.027 -0.5690 -0.8420 -1.0759
  442MOL0     C60893   3.165   7.462   4.977  0.7471  0.5439 -0.4815
  442MOL0     O60894   3.195   7.559   4.880  0.8432  0.2524 -0.0445
  442MOL0     C60895   3.129   7.684   4.885 -0.4381  0.9528  0.4281
  442MOL0     C60896   3.225   7.786   4.825  0.3636 -0.0803  0.2961
  442MOL0     C60897   3.353   7.792   4.908  0.0198  0.9676  0.3984
  442MOL0     C60898   3.438   7.908   4.859  0.6446 -0.0886  0.6913
  442MOL0     C60899   3.577   7.888   4.915  0.9180 -0.8772  1.2832
  442MOL0     C60900   3.678   7.996   4.868 -0.6622 -0.3678 -0.5862
  442MOL0     C60901   3.732   7.965   4.729 -0.1584 -0.1224 -0.1368
  442MOL0     C60902   3.863   8.047   4.701 -0.4064  0.0748 -0.3569
  442MOL0    Cl60903   3.814   8.228   4.699 -0.2971 -0.3222  0.0716
  442MOL0     C60904   3.033   7.428   5.017  0.4228  0.3402  0.6589
  442MOL0     C60905   3.012   7.303   5.081  0.7537 -0.6251 -0.5799
  442MOL0     O60906   3.197   6.990   4.989 -0.2066 -0.0095  0.1666
  442MOL0     C60907   3.225   6.756   5.171 -0.1470 -0.7657 -0.2043
  442MOL0     C60908   3.215   6.632   5.225 -0.2679  0.2570  1.1928
  442MOL0     N60909   3.238   6.419   5.954  0.2706  0.9412 -0.2940
  442MOL0     N60910   3.354   6.430   6.005 -0.3202  0.3503  0.3904
  442MOL0     C60911   3.727   7.276   6.816  0.1245 -0.0931  0.1829
  442MOL0     C60912   3.707   7.385   6.906 -0.1788  0.6106 -0.2694
  442MOL0     C60913   3.827   7.709   6.981  0.0594  0.1887  0.3689
  442MOL0     C60914   3.828   7.780   6.854  1.5982 -0.4338  0.0287
  442MOL0     C60915   3.938   7.839   6.816  0.0716  0.3502  0.2921
  442MOL0     C60916   4.048   7.855   6.895  0.3257 -1.0753  0.5819
  442MOL0     O60917   4.145   7.928   6.838 -0.3856  0.4925  0.4125
  442MOL0     C60918   4.196   8.024   6.921 -0.4746 -0.2802  0.1314
  442MOL0     C60919   4.294   8.116   6.835 -0.3597  0.3739  0.3045
  442MOL0     C60920   4.354   8.226   6.918  0.0263  0.4161  0.9807
  442MOL0     C60921   4.487   8.195   6.978 -0.0402 -0.8194 -0.0198
  442MOL0     C60922   4.588   8.192   6.884  0.3140 -0.4756  0.0243
  442MOL0     C60923   4.679   8.192   6.808 -0.4544 -0.5748  0.6333
  442MOL0     C60924   4.052   7.791   7.019  0.1361  0.7742 -0.4531
  442MOL0     C60925   3.942   7.722   7.062  1.8654  0.2053  1.0039
  442MOL0     C60926   3.970   7.652   7.199  0.5754  0.9442  1.3642
  442MOL0     H60927   3.616   7.597   6.663 -0.0846 -0.3264 -0.2332
  442MOL0     H60928   3.645   7.415   6.530  0.1830 -4.3827 -0.9340
  442MOL0     H60929   3.924   7.242   6.515  0.4138 -0.2920 -5.1230
  442MOL0     H60930   3.780   7.293   6.435  1.2954  1.1352  0.4934
  442MOL0     H60931   3.894   7.141   6.298 -0.4791 -0.9990  0.4189
  442MOL0     H60932   3.897   7.018   6.422  1.7598  0.8144  1.8750
  442MOL0     H60933   3.646   7.012   6.408  0.2988 -0.5239  0.7769
  442MOL0     H60934   3.645   7.142   6.283  1.5849  0.0662 -1.2017
  442MOL0     H60935   3.807   6.965   6.150  1.5092  1.2301  0.8150
  442MOL0     H60936   3.742   6.867   6.279  1.4743  1.1048  0.6363
  442MOL0     H60937   3.581   6.988   6.044  1.9977  1.8567  1.0689
  442MOL0     H60938   3.506   6.923   6.194 -0.2382  1.2311 -0.3557
  442MOL0     H60939   3.710   6.772   6.037  0.1400 -1.4019  0.8082
  442MOL0     H60940   3.621   6.712   6.171  3.0575  1.6819  1.3487
  442MOL0     H60941   3.511   6.777   5.879 -2.8686 -2.2161 -1.0143
  442MOL0     H60942   3.409   6.726   6.025 -0.7960 -2.7491  0.0219
  442MOL0     H60943   3.619   6.587   5.868  1.5204  2.3222  1.4936
  442MOL0     H60944   3.588   6.549   6.035 -1.8388  1.2308  1.4190
  442MOL0     H60945   3.363   6.592   5.703 -0.4439 -1.6068 -1.1922
  442MOL0     H60946   3.080   6.611   5.768  1.8590  0.5985  0.0490
  442MOL0     H60947   3.009   6.453   5.820  2.3701 -2.0259  0.1431
  442MOL0     H60948   3.180   6.488   5.583  0.4416 -1.7373 -0.5116
  442MOL0     H60949   3.111   6.334   5.625 -1.8314 -0.4768 -1.0010
  442MOL0     H60950   2.881   6.420   5.593  0.5613  2.7370  3.9222
  442MOL0     H60951   2.949   6.573   5.537  1.3722 -0.1855  0.6964
  442MOL0     H60952   2.961   6.304   5.396 -4.1426 -0.8165  0.0715
  442MOL0     H60953   2.859   6.437   5.359 -1.0332 -0.8250  1.7601
  442MOL0     H60954   2.892   6.667   5.317 -1.8249  2.9294 -2.0621
  442MOL0     H60955   2.815   6.865   5.123 -1.3159  0.6280  0.9929
  442MOL0     H60956   2.872   7.005   5.197 -0.4034 -0.5432 -2.4437
  442MOL0     H60957   2.812   6.876   5.299  0.2864 -3.2625 -0.7348
  442MOL0     H60958   3.348   7.229   5.122  1.7342  5.7233  2.0236
  442MOL0     H60959   3.382   7.417   5.011  0.3393 -1.4403  2.9562
  442MOL0     H60960   3.044   7.678   4.817  1.5710 -0.4333 -2.1338
  442MOL0     H60961   3.097   7.697   4.989 -2.0347  0.0453  0.0966
  442MOL0     H60962   3.239   7.764   4.719  2.9673 -0.5941  0.6690
  442MOL0     H60963   3.180   7.885   4.831  2.5044  0.9388  0.5979
  442MOL0     H60964   3.415   7.702   4.897 -2.0870 -0.8434  2.2859
  442MOL0     H60965   3.322   7.801   5.012  2.5160 -0.4770  1.3566
  442MOL0     H60966   3.400   8.003   4.898  1.1945  0.0152  0.9904
  442MOL0     H60967   3.446   7.905   4.749  2.5175  1.9522  0.7049
  442MOL0     H60968   3.565   7.886   5.024  0.9352 -1.3235  1.2798
  442MOL0     H60969   3.610   7.794   4.869  1.1127  0.6127 -1.8846
  442MOL0     H60970   3.755   8.017   4.943 -1.5231 -1.6180  0.6983
  442MOL0     H60971   3.638   8.098   4.858 -0.2283 -0.1663 -0.2945
  442MOL0     H60972   3.660   8.006   4.657  0.8044 -1.8402 -2.1781
  442MOL0     H60973   3.760   7.862   4.708  0.1989 -0.3595  1.3846
  442MOL0     H60974   3.899   8.025   4.600 -2.4324  2.1054 -1.6041
  442MOL0     H60975   3.947   8.030   4.770  0.3821  1.0083 -1.0515
  442MOL0     H60976   2.961   7.499   4.979  0.5725 -1.5691 -3.8826
  442MOL0     H60977   2.913   7.268   5.110 -0.1824  3.7289  2.4303
  442MOL0     H60978   3.321   6.788   5.131 -0.1875 -1.1105 -0.5804
  442MOL0     H60979   3.297   6.564   5.207  1.4251  2.8012 -1.4064
  442MOL0     H60980   3.756   7.183   6.865 -0.9730 -0.0118  1.0340
  442MOL0     H60981   3.713   7.370   7.013  2.3102 -3.6607 -0.7729
  442MOL0     H60982   3.759   7.769   6.770  0.9314  0.3914  0.4554
  442MOL0     H60983   3.938   7.877   6.714  0.2490  1.0122  0.5357
  442MOL0     H60984   4.105   8.069   6.960 -1.5257 -1.4103 -0.9395
  442MOL0     H60985   4.258   7.997   7.007 -0.7694  2.6101  1.3645
  442MOL0     H60986   4.240   8.157   6.750 -2.5033 -0.4985  1.1784
  442MOL0     H60987   4.378   8.057   6.798  1.6832  2.5520  1.1967
  442MOL0     H60988   4.368   8.307   6.846 -1.6322 -4.2522 -5.6197
  442MOL0     H60989   4.272   8.239   6.989 -2.7892  0.5895 -2.0324
  442MOL0     H60990   4.483   8.094   7.021  1.1583  0.0357  2.2228
  442MOL0     H60991   4.507   8.268   7.056  0.2994  0.3187 -1.1417
  442MOL0     H60992   4.753   8.198   6.730 -1.0605 -1.9371 -0.0922
  442MOL0     H60993   4.149   7.803   7.067  0.0174 -1.6490  0.5443
  442MOL0     H60994   3.933   7.709   7.284  1.6496  0.2443  2.3190
  442MOL0     H60995   3.940   7.548   7.215  3.4187 -0.3938 -1.0066
  442MOL0     H60996   4.074   7.644   7.231 -0.0579 -0.2129  3.2571
  443MOL0     O60997   3.541   0.855   0.715  0.6387  0.1366  0.5708
  443MOL0     C60998   3.489   0.928   0.623 -0.0780  0.1440  0.1867
  443MOL0     O60999   3.545   1.035   0.561 -0.5954  0.4107  0.6148
  443MOL0     C61000   3.681   1.058   0.548 -0.0264 -0.3386 -0.0629
  443MOL0     C61001   3.715   1.184   0.492 -0.8197  0.1965 -0.2319
  443MOL0     C61002   3.849   1.228   0.465  0.6636 -0.3780  0.2132
  443MOL0     C61003   3.953   1.140   0.505 -0.4264  0.3674 -0.4537
  443MOL0     O61004   4.089   1.166   0.486  0.0274 -0.4680  0.4897
  443MOL0     C61005   4.143   1.239   0.372  0.4413 -0.0356 -0.1424
  443MOL0     C61006   4.289   1.225   0.403 -0.8140  0.6281 -1.1551
  443MOL0     C61007   4.382   1.254   0.291  0.5551  0.6089 -0.8376
  443MOL0     C61008   4.403   1.135   0.192  0.6867 -1.0188 -0.4180
  443MOL0     C61009   4.479   1.181   0.069  0.3208 -0.5941  1.5940
  443MOL0     C61010   4.585   1.075   0.028  0.0254  0.2158  0.0042
  443MOL0     C61011   4.677   1.117  -0.086  0.4317  1.0218  0.2363
  443MOL0     C61012   4.598   1.133  -0.223  0.5903 -0.0713 -0.2163
  443MOL0     N61013   4.696   1.150  -0.332  0.7827  0.1104 -0.2796
  443MOL0     C61014   4.772   1.265  -0.362 -0.3081 -0.7140 -0.4649
  443MOL0     C61015   4.827   1.228  -0.485 -0.1812 -0.1676 -0.0851
  443MOL0     C61016   4.907   1.337  -0.559 -0.7602 -0.2138  0.0693
  443MOL0     C61017   4.942   1.300  -0.703 -0.1187  0.3442 -0.1513
  443MOL0     C61018   4.819   1.316  -0.794  0.6762  0.5023 -0.6893
  443MOL0     C61019   4.854   1.271  -0.932 -0.8663  0.0194  0.2861
  443MOL0     O61020   4.749   1.278  -1.027 -0.5044 -0.3323 -0.1719
  443MOL0     C61021   4.750   1.177  -1.119 -0.2653 -0.4830  0.8111
  443MOL0     C61022   4.648   1.082  -1.121  0.2132  0.3733 -0.1248
  443MOL0     C61023   4.648   0.970  -1.209 -1.2565 -0.0506 -1.7652
  443MOL0     C61024   4.538   0.875  -1.197 -0.2108  0.6968 -0.3795
  443MOL0     C61025   4.747   0.962  -1.308 -0.3473  1.1161 -0.2242
  443MOL0     C61026   4.747   0.866  -1.414  0.3335  0.7637  0.3082
  443MOL0     O61027   4.630   0.828  -1.486 -0.5289 -0.1366  0.2647
  443MOL0     C61028   4.626   0.714  -1.558  0.0979  0.4701  0.5782
  443MOL0     C61029   4.526   0.622  -1.541  1.4067  0.0680  0.3417
  443MOL0     C61030   4.525   0.506  -1.617 -0.0719  1.1532  0.1076
  443MOL0     C61031   4.625   0.477  -1.711  0.0493  1.2888  0.9624
  443MOL0     O61032   4.627   0.357  -1.776  0.3458 -0.2351  0.2584
  443MOL0     C61033   4.742   0.272  -1.783  0.0784 -0.5481  0.3948
  443MOL0     C61034   4.762   0.209  -1.646  0.7210  0.3299 -0.8687
  443MOL0     C61035   4.838   0.305  -1.549 -0.4190  0.4051  0.1724
  443MOL0     C61036   4.844   0.242  -1.408  0.1171  0.2446 -0.1620
  443MOL0     C61037   4.857   0.340  -1.294 -0.0881 -0.1590 -0.5300
  443MOL0     C61038   4.891   0.267  -1.163  0.2515 -0.7335 -0.8258
  443MOL0     C61039   4.946   0.365  -1.061  0.5775 -0.2027  0.0331
  443MOL0     C61040   5.094   0.370  -1.071 -0.0248 -0.4690 -0.6798
  443MOL0    Cl61041   5.177   0.405  -0.914 -0.0839  0.4749  0.2041
  443MOL0     C61042   4.724   0.569  -1.729 -0.8561  0.0965  0.0965
  443MOL0     C61043   4.729   0.686  -1.644 -0.0188 -0.1743  0.3418
  443MOL0     O61044   4.857   0.804  -1.417 -0.6258  0.2885  0.0952
  443MOL0     C61045   4.845   1.067  -1.319 -0.0026  0.3998  0.3350
  443MOL0     C61046   4.846   1.173  -1.228  0.5284 -0.0166 -0.1571
  443MOL0     N61047   4.773   1.104  -0.524 -0.3562 -0.0396 -0.0769
  443MOL0     N61048   4.697   1.060  -0.429  0.1273 -0.3198  0.5651
  443MOL0     C61049   3.914   1.019   0.564  0.0871  0.5151 -0.2324
  443MOL0     C61050   3.786   0.977   0.596  0.1937 -0.9549  0.6776
  443MOL0     C61051   3.353   0.893   0.574 -0.5346 -0.8707 -0.9101
  443MOL0     C61052   3.304   0.770   0.614  0.4682  0.3055 -0.2569
  443MOL0     C61053   3.175   0.731   0.592 -0.0929 -0.1938 -0.7506
  443MOL0     C61054   3.082   0.811   0.527  0.6307  0.1372 -0.2581
  443MOL0     O61055   2.954   0.778   0.513 -0.7603 -0.2414  0.1467
  443MOL0     C61056   2.883   0.807   0.633  0.8809 -0.4054 -0.5546
  443MOL0     C61057   2.756   0.724   0.621 -0.6643  0.0124 -0.3079
  443MOL0     C61058   2.671   0.723   0.755 -0.4258  0.0530  0.8903
  443MOL0     C61059   2.612   0.862   0.806 -1.4150  0.7519 -0.8167
  443MOL0     C61060   2.703   0.926   0.906 -0.0094  0.0557 -0.2662
  443MOL0     C61061   2.768   0.973   0.990 -0.2313 -0.4411  0.4445
  443MOL0     C61062   3.130   0.935   0.482  0.3888 -0.1944 -0.3754
  443MOL0     C61063   3.260   0.983   0.508  0.7541  0.2208  0.0546
  443MOL0     C61064   3.300   1.124   0.461 -0.3149  0.4496  0.8395
  443MOL0     H61065   3.625   1.236   0.462 -0.2547  0.4386 -1.5697
  443MOL0     H61066   3.872   1.322   0.416  1.9091 -0.8207 -0.0931
  443MOL0     H61067   4.114   1.343   0.358  3.5347  0.6611 -2.6398
  443MOL0     H61068   4.124   1.185   0.278  0.9064 -3.6182  1.6349
  443MOL0     H61069   4.309   1.292   0.487 -1.6323 -2.3654  1.6632
  443MOL0     H61070   4.311   1.131   0.455 -2.6661  1.9582  2.4155
  443MOL0     H61071   4.340   1.337   0.233 -0.6273  0.6855  0.0819
  443MOL0     H61072   4.477   1.299   0.321 -0.5592  2.2983  0.4385
  443MOL0     H61073   4.466   1.068   0.251 -0.7705 -0.7557  1.5297
  443MOL0     H61074   4.310   1.078   0.183  1.5995 -3.0923  2.0696
  443MOL0     H61075   4.536   1.275   0.069  3.6230 -2.3857 -0.7412
  443MOL0     H61076   4.414   1.198  -0.017  0.6876  3.2979  1.9064
  443MOL0     H61077   4.641   1.055   0.119  0.5061  2.4737  0.2638
  443MOL0     H61078   4.544   0.979  -0.004  0.7697 -1.0126  2.5099
  443MOL0     H61079   4.756   1.043  -0.097 -0.1898 -0.2431  3.3154
  443MOL0     H61080   4.730   1.210  -0.061 -1.4157  2.7940 -1.9474
  443MOL0     H61081   4.532   1.046  -0.230 -1.0771  0.8755  2.5294
  443MOL0     H61082   4.535   1.222  -0.217  2.3724  1.1873  5.0938
  443MOL0     H61083   4.771   1.359  -0.308 -0.5694 -0.3093 -1.1732
  443MOL0     H61084   5.001   1.357  -0.506 -2.1794 -0.0893  2.7156
  443MOL0     H61085   4.845   1.426  -0.556 -0.5113  0.1613 -2.9204
  443MOL0     H61086   5.029   1.362  -0.725  0.7927 -0.8744 -0.0289
  443MOL0     H61087   4.977   1.197  -0.704 -1.9036 -0.2902 -0.3766
  443MOL0     H61088   4.736   1.254  -0.757  0.8520  1.2359  1.0205
  443MOL0     H61089   4.792   1.422  -0.794  2.1965  0.9203 -0.3082
  443MOL0     H61090   4.937   1.335  -0.965 -0.6444 -0.7114 -0.6060
  443MOL0     H61091   4.896   1.171  -0.921 -0.5141  0.0886 -0.3579
  443MOL0     H61092   4.582   1.117  -1.043  0.2230  1.0339 -0.4070
  443MOL0     H61093   4.473   0.896  -1.111  1.1701 -1.6130  1.3534
  443MOL0     H61094   4.551   0.766  -1.196 -1.1679  0.5693 -0.5593
  443MOL0     H61095   4.472   0.899  -1.281  0.8778 -0.2617 -1.5552
  443MOL0     H61096   4.456   0.653  -1.464  1.9694  2.5974 -0.0706
  443MOL0     H61097   4.449   0.431  -1.601  0.6874  0.3332 -0.0142
  443MOL0     H61098   4.726   0.191  -1.855 -0.4238 -0.4106  0.3452
  443MOL0     H61099   4.825   0.319  -1.837 -0.8888  0.0851 -0.5854
  443MOL0     H61100   4.666   0.177  -1.604  0.8926 -1.0246 -1.4654
  443MOL0     H61101   4.813   0.114  -1.659 -0.8765 -1.0745  2.0704
  443MOL0     H61102   4.801   0.408  -1.546  1.0498  0.9542  0.0999
  443MOL0     H61103   4.942   0.324  -1.578 -0.2139  2.9253  2.2212
  443MOL0     H61104   4.927   0.171  -1.408  0.3123  0.4673  0.3364
  443MOL0     H61105   4.759   0.176  -1.396  0.5794 -0.9058 -2.5155
  443MOL0     H61106   4.945   0.404  -1.308  0.1915 -0.5372 -0.5189
  443MOL0     H61107   4.764   0.393  -1.272 -0.4740 -1.8638  2.4223
  443MOL0     H61108   4.969   0.193  -1.186 -0.6277 -1.0341 -3.0485
  443MOL0     H61109   4.808   0.212  -1.117 -0.6277 -0.0812 -1.5977
  443MOL0     H61110   4.913   0.328  -0.963  1.0496 -0.8055 -0.0242
  443MOL0     H61111   4.892   0.459  -1.073 -1.4858 -1.4389 -1.1964
  443MOL0     H61112   5.125   0.451  -1.138  2.4732 -1.8058 -1.2415
  443MOL0     H61113   5.137   0.282  -1.119 -2.3622 -1.0441 -1.8607
  443MOL0     H61114   4.798   0.555  -1.807  1.1137  1.1163  1.6577
  443MOL0     H61115   4.808   0.759  -1.658 -1.1209  1.0398  0.1325
  443MOL0     H61116   4.915   1.081  -1.400  1.4790 -3.1923  0.8046
  443MOL0     H61117   4.930   1.239  -1.247  0.3212  0.7089  1.3472
  443MOL0     H61118   3.999   0.965   0.605 -1.0032  1.2759  3.3513
  443MOL0     H61119   3.767   0.877   0.633  0.3451 -2.4229 -2.8030
  443MOL0     H61120   3.358   0.700   0.677 -0.1801 -0.1837 -0.2377
  443MOL0     H61121   3.147   0.635   0.636  0.9479  0.2697  1.0348
  443MOL0     H61122   2.923   0.792   0.733 -0.8861 -1.4955  0.0437
  443MOL0     H61123   2.858   0.912   0.644 -0.5464 -0.9680  2.8856
  443MOL0     H61124   2.778   0.623   0.585 -1.7985 -0.1600 -0.5757
  443MOL0     H61125   2.688   0.754   0.541 -1.2835 -5.1951 -2.1128
  443MOL0     H61126   2.590   0.652   0.735  1.6595 -2.1626 -0.2884
  443MOL0     H61127   2.738   0.678   0.830  2.1929 -1.1915 -1.9628
  443MOL0     H61128   2.517   0.852   0.859 -0.3273  0.7287  1.2347
  443MOL0     H61129   2.616   0.928   0.719 -1.9891 -0.0015 -1.4246
  443MOL0     H61130   2.841   1.010   1.060  2.0393 -2.2896 -0.8044
  443MOL0     H61131   3.052   0.998   0.440  0.5818  1.9847  2.2212
  443MOL0     H61132   3.316   1.185   0.551 -1.0246 -0.5170  1.6355
  443MOL0     H61133   3.379   1.127   0.385 -3.6203  0.2532 -2.8778
  443MOL0     H61134   3.220   1.186   0.422 -0.1383  0.2425  0.1321
  444MOL0     O61135  10.908   8.690   4.966  0.2503  0.6486  0.2283
  444MOL0     C61136  10.862   8.781   5.027  1.4403 -0.6397 -0.5867
  444MOL0     O61137  10.938   8.881   5.083 -0.3229 -0.0879 -0.5464
  444MOL0     C61138  11.074   8.876   5.119  0.0279  0.4810  0.5718
  444MOL0     C61139  11.156   8.764   5.133 -0.2206  0.4151 -0.3502
  444MOL0     C61140  11.284   8.782   5.186  0.7490  0.4714  0.0905
  444MOL0     C61141  11.340   8.913   5.207  0.7206  1.5331 -0.3513
  444MOL0     O61142  11.474   8.926   5.220 -0.5112 -0.6871 -0.1162
  444MOL0     C61143  11.536   9.054   5.199  0.4358  0.6194 -0.0641
  444MOL0     C61144  11.687   9.056   5.201  0.0042  0.1109  0.1290
  444MOL0     C61145  11.738   9.032   5.343 -0.4586 -0.6221 -0.0762
  444MOL0     C61146  11.864   8.939   5.318  0.1485 -0.1970  0.6783
  444MOL0     C61147  11.838   8.799   5.292 -0.1369  0.4547  0.8081
  444MOL0     C61148  11.751   8.711   5.396 -1.5313 -0.3343  0.1367
  444MOL0     C61149  11.722   8.573   5.347  0.2349  0.2454  0.9634
  444MOL0     C61150  11.844   8.489   5.307  0.2746  0.0597 -0.1387
  444MOL0     N61151  11.809   8.362   5.237  0.2070 -0.0347 -0.0841
  444MOL0     C61152  11.784   8.250   5.310  0.5626  0.2799  0.0259
  444MOL0     C61153  11.745   8.163   5.218  0.0837  0.1468  0.3883
  444MOL0     C61154  11.711   8.014   5.240 -0.5921 -1.0337 -0.6965
  444MOL0     C61155  11.792   7.927   5.140 -0.3401 -0.1414  0.3782
  444MOL0     C61156  11.945   7.964   5.155 -0.5787 -0.3236 -0.7040
  444MOL0     C61157  12.022   7.868   5.074 -0.2172  0.9177 -1.1538
  444MOL0     O61158  12.020   7.743   5.138  0.2376 -0.6506  0.0231
  444MOL0     C61159  12.062   7.623   5.092 -0.2030 -1.0076  0.9112
  444MOL0     C61160  12.030   7.519   5.178 -0.9449 -0.1943  1.0544
  444MOL0     C61161  12.056   7.392   5.142 -0.8404 -0.2730 -0.3652
  444MOL0     C61162  12.016   7.285   5.232  0.3121  0.4974  0.2064
  444MOL0     C61163  12.111   7.363   5.012 -0.6044  0.2448 -0.0624
  444MOL0     C61164  12.136   7.226   4.960  0.2526  0.9342 -0.5955
  444MOL0     O61165  12.033   7.162   4.912 -0.3559  0.2980 -0.1360
  444MOL0     C61166  12.046   7.024   4.883 -0.1549 -0.2977  0.0028
  444MOL0     C61167  11.955   6.981   4.794  0.3045  1.1488 -0.2034
  444MOL0     C61168  11.931   6.837   4.771 -0.7304  0.6380 -0.7532
  444MOL0     C61169  12.017   6.751   4.839  0.3805  0.0850 -0.6043
  444MOL0     O61170  11.991   6.613   4.852 -0.3120  0.1273 -0.2770
  444MOL0     C61171  11.921   6.552   4.741 -0.7355 -0.2152 -0.0663
  444MOL0     C61172  11.772   6.512   4.770 -0.7892 -0.5033 -0.8818
  444MOL0     C61173  11.773   6.406   4.890  0.2089  0.4940 -0.4670
  444MOL0     C61174  11.624   6.358   4.906  0.0249  0.0911 -0.5655
  444MOL0     C61175  11.606   6.234   4.995  0.0054  0.5704 -0.3005
  444MOL0     C61176  11.461   6.191   5.021 -0.1791 -0.8199 -0.9678
  444MOL0     C61177  11.401   6.270   5.136  0.3288 -0.5786 -0.6413
  444MOL0     C61178  11.249   6.283   5.135  0.3134 -0.5719 -0.3250
  444MOL0    Cl61179  11.189   6.376   4.985  0.7470 -0.2037  0.0629
  444MOL0     C61180  12.106   6.793   4.931 -0.1290  0.2914 -0.9691
  444MOL0     C61181  12.122   6.931   4.948  1.0894  0.1330  0.0466
  444MOL0     O61182  12.252   7.183   4.956 -0.8089 -0.3750  0.4047
  444MOL0     C61183  12.145   7.472   4.923 -0.6983  0.0473 -0.8700
  444MOL0     C61184  12.124   7.599   4.970 -0.1582 -1.2670 -0.8122
  444MOL0     N61185  11.727   8.230   5.093 -0.6829  0.1069 -0.1395
  444MOL0     N61186  11.789   8.338   5.102  0.4120 -0.0325  0.6608
  444MOL0     C61187  11.245   9.016   5.191 -0.2647 -0.1642 -0.1555
  444MOL0     C61188  11.116   9.004   5.149  0.4629 -0.1883 -0.1364
  444MOL0     C61189  10.717   8.782   5.046  0.4802  0.4204  0.5402
  444MOL0     C61190  10.657   8.669   5.092  0.1247 -0.0001 -0.0875
  444MOL0     C61191  10.510   8.654   5.108 -0.2385 -1.3350  0.3644
  444MOL0     C61192  10.431   8.760   5.075 -0.2487 -0.4035 -0.8511
  444MOL0     O61193  10.304   8.780   5.109  0.4262 -0.0642  0.4228
  444MOL0     C61194  10.233   8.696   5.196 -0.4980 -0.2829  0.8197
  444MOL0     C61195  10.175   8.574   5.135 -0.2443 -0.1480  0.5611
  444MOL0     C61196  10.095   8.600   5.013  0.2395 -0.4550 -0.3405
  444MOL0     C61197   9.996   8.491   4.982 -0.4994  0.3154 -0.5989
  444MOL0     C61198   9.886   8.479   5.075 -1.1730 -0.6810 -0.4793
  444MOL0     C61199   9.796   8.479   5.163 -0.7913  0.0870  0.2878
  444MOL0     C61200  10.498   8.867   5.015 -1.1553  0.1719  0.4624
  444MOL0     C61201  10.634   8.880   4.993  0.0062 -1.0132  0.4558
  444MOL0     C61202  10.688   9.011   4.940  0.5649  0.1239  0.0881
  444MOL0     H61203  11.118   8.666   5.109  0.6473 -0.2105  0.7420
  444MOL0     H61204  11.349   8.695   5.195  1.6956  1.1290 -0.1985
  444MOL0     H61205  11.503   9.127   5.273 -0.0234  0.5692 -0.2163
  444MOL0     H61206  11.505   9.093   5.102 -2.9242 -0.1739  0.5549
  444MOL0     H61207  11.712   8.972   5.137 -4.2680 -0.8775 -0.5813
  444MOL0     H61208  11.731   9.142   5.149 -0.9636  1.1546  0.9577
  444MOL0     H61209  11.773   9.122   5.393  0.9693 -0.7281 -0.8282
  444MOL0     H61210  11.665   8.988   5.411  1.0044 -2.0409  0.6373
  444MOL0     H61211  11.918   8.981   5.232 -0.2060 -0.7349  0.1851
  444MOL0     H61212  11.929   8.928   5.405  0.8796  0.9119  0.2960
  444MOL0     H61213  11.936   8.753   5.285  0.6889  2.1725  0.5817
  444MOL0     H61214  11.787   8.784   5.196  1.2315  2.9349 -0.4105
  444MOL0     H61215  11.813   8.706   5.486 -3.1452  1.0773  1.3971
  444MOL0     H61216  11.659   8.764   5.422 -0.1511  2.2984 -0.0127
  444MOL0     H61217  11.656   8.585   5.261  1.2945  2.0067  0.3641
  444MOL0     H61218  11.665   8.514   5.419 -2.1742  0.2697 -0.7999
  444MOL0     H61219  11.898   8.552   5.235 -1.4435  2.3203  0.4347
  444MOL0     H61220  11.905   8.468   5.396  0.4555  0.4408 -0.1682
  444MOL0     H61221  11.789   8.239   5.418  1.4914  1.1525  0.0861
  444MOL0     H61222  11.609   7.997   5.205  0.2346 -1.3415 -3.1865
  444MOL0     H61223  11.738   7.982   5.341  0.3768 -0.9363 -0.9090
  444MOL0     H61224  11.777   7.825   5.178  2.7407 -0.6048  0.6086
  444MOL0     H61225  11.758   7.925   5.036  0.9507 -0.9699 -0.0631
  444MOL0     H61226  11.958   8.068   5.125  0.8396 -0.1795  0.3133
  444MOL0     H61227  11.971   7.947   5.260  0.2718 -2.5489 -1.2085
  444MOL0     H61228  12.002   7.857   4.967  0.7787  0.5921 -1.3181
  444MOL0     H61229  12.125   7.906   5.068  1.8570 -3.2159  2.2274
  444MOL0     H61230  11.974   7.528   5.271 -1.9037 -0.1202  0.4808
  444MOL0     H61231  11.907   7.279   5.226  0.2900 -0.1632  1.0561
  444MOL0     H61232  12.044   7.308   5.336 -1.6748 -0.5660  1.0388
  444MOL0     H61233  12.058   7.189   5.202 -3.1351 -0.4192 -2.3257
  444MOL0     H61234  11.909   7.059   4.734  0.8441  0.5658 -1.4121
  444MOL0     H61235  11.848   6.792   4.718 -0.9019 -1.2419  1.0064
  444MOL0     H61236  11.934   6.605   4.646  0.4313  0.2264  0.3247
  444MOL0     H61237  11.976   6.460   4.715  0.3708  0.0956  1.0660
  444MOL0     H61238  11.720   6.602   4.804 -0.1865 -0.6821  0.6038
  444MOL0     H61239  11.732   6.459   4.684  0.4020 -0.8240 -1.2583
  444MOL0     H61240  11.811   6.436   4.988 -0.4838 -3.5556  1.2420
  444MOL0     H61241  11.832   6.318   4.864  0.0960  0.5907 -1.0626
  444MOL0     H61242  11.592   6.334   4.805 -0.6642  2.4887 -0.9865
  444MOL0     H61243  11.559   6.440   4.937 -2.8918 -1.1498 -2.9948
  444MOL0     H61244  11.656   6.159   4.933  2.8443  1.1186  1.1575
  444MOL0     H61245  11.665   6.255   5.085  1.1683 -1.4506 -0.5209
  444MOL0     H61246  11.454   6.085   5.046  3.2902 -0.7351  1.0564
  444MOL0     H61247  11.414   6.221   4.927 -0.9653  0.1264 -0.2925
  444MOL0     H61248  11.438   6.371   5.154  0.3401 -0.6464 -0.2825
  444MOL0     H61249  11.442   6.210   5.217  0.2047 -1.2691 -1.0808
  444MOL0     H61250  11.217   6.318   5.234 -1.0141 -0.5854 -0.7305
  444MOL0     H61251  11.216   6.182   5.106  1.8653 -0.9279 -0.9383
  444MOL0     H61252  12.166   6.724   4.990 -1.1804 -0.7136 -1.0470
  444MOL0     H61253  12.183   6.954   5.035 -0.2166  1.0373  0.7702
  444MOL0     H61254  12.197   7.457   4.830 -1.5605  0.0491 -1.3655
  444MOL0     H61255  12.164   7.686   4.920  2.1958 -1.5677  0.4029
  444MOL0     H61256  11.296   9.110   5.206  1.7540 -0.5580 -3.5402
  444MOL0     H61257  11.059   9.095   5.136  1.1727  0.0319 -1.9574
  444MOL0     H61258  10.721   8.586   5.120 -0.8613 -0.1244  2.0304
  444MOL0     H61259  10.481   8.558   5.149  0.9697 -1.2801  1.3883
  444MOL0     H61260  10.294   8.664   5.281 -1.0303 -2.1065  0.5578
  444MOL0     H61261  10.145   8.745   5.238  1.8054  4.1917  1.0943
  444MOL0     H61262  10.111   8.539   5.217 -2.7349  3.9317  0.6318
  444MOL0     H61263  10.245   8.493   5.108 -3.3192 -3.0211  0.5740
  444MOL0     H61264  10.054   8.699   5.035  1.8220 -0.3658  2.6790
  444MOL0     H61265  10.166   8.614   4.931  1.6355 -0.0903  0.8824
  444MOL0     H61266  10.045   8.394   4.975 -1.9725 -0.7403  2.1418
  444MOL0     H61267   9.947   8.514   4.886 -0.3446 -0.2225 -0.8085
  444MOL0     H61268   9.726   8.500   5.241 -0.3634  2.0974  0.1660
  444MOL0     H61269  10.429   8.945   4.981  0.7603  0.9003 -2.0857
  444MOL0     H61270  10.740   8.992   4.846 -1.1110 -1.3854 -0.5765
  444MOL0     H61271  10.603   9.075   4.916  0.5178  0.0846  0.1525
  444MOL0     H61272  10.744   9.072   5.012  0.9932  0.3821 -0.4539
  445MOL0     O61273   6.145   5.463   4.682  0.2588  0.3188  0.3232
  445MOL0     C61274   6.047   5.463   4.609  0.1646 -0.2172 -0.3985
  445MOL0     O61275   5.956   5.572   4.617  0.7979  0.4088 -0.3497
  445MOL0     C61276   5.957   5.664   4.720  0.3454  0.0570  0.2828
  445MOL0     C61277   5.868   5.641   4.826  0.1082 -0.2578 -0.3118
  445MOL0     C61278   5.871   5.727   4.936  0.2354 -1.1245  0.2021
  445MOL0     C61279   5.965   5.831   4.938 -0.2914 -0.1671 -0.3634
  445MOL0     O61280   5.979   5.899   5.060  0.3541 -0.0521 -0.6680
  445MOL0     C61281   5.868   5.972   5.101 -0.7825 -1.2377 -0.2608
  445MOL0     C61282   5.884   6.113   5.041  0.5489  1.2568 -0.0888
  445MOL0     C61283   5.977   6.186   5.146  0.0851  0.2872 -0.2098
  445MOL0     C61284   6.066   6.287   5.061 -0.4372  0.6517 -0.4674
  445MOL0     C61285   6.004   6.408   4.978  0.7544 -0.3572 -0.1300
  445MOL0     C61286   5.922   6.513   5.049 -0.1755  0.4288 -0.3652
  445MOL0     C61287   5.878   6.620   4.944  0.4064  0.2436 -0.2535
  445MOL0     C61288   5.805   6.733   5.005 -0.2017 -0.3743 -0.4777
  445MOL0     N61289   5.780   6.826   4.904  0.7689 -1.2569  0.8570
  445MOL0     C61290   5.651   6.860   4.858  0.5006  0.3541  0.2855
  445MOL0     C61291   5.671   6.965   4.775 -0.3644  0.5054 -0.4139
  445MOL0     C61292   5.552   7.032   4.707 -0.2849  0.0436 -0.0661
  445MOL0     C61293   5.567   7.000   4.560  0.0949  0.3111  0.8197
  445MOL0     C61294   5.615   7.118   4.471 -0.7032  0.1887 -0.9556
  445MOL0     C61295   5.757   7.159   4.517  0.0680 -0.2414  1.0886
  445MOL0     O61296   5.823   7.262   4.432  0.2573  0.0191 -0.1921
  445MOL0     C61297   5.958   7.292   4.469  0.9507 -0.0353  0.5833
  445MOL0     C61298   6.041   7.230   4.560 -0.5910  0.2790  0.1001
  445MOL0     C61299   6.179   7.250   4.567 -0.4451  0.1484 -0.3485
  445MOL0     C61300   6.258   7.182   4.675  0.4997 -0.0347  0.1834
  445MOL0     C61301   6.239   7.342   4.478  1.1797  0.4167  0.0610
  445MOL0     C61302   6.375   7.393   4.491 -0.1816  0.6580 -0.4057
  445MOL0     O61303   6.404   7.504   4.415  0.2290  0.5283 -0.0162
  445MOL0     C61304   6.512   7.572   4.458  0.0566 -0.5647 -0.3571
  445MOL0     C61305   6.560   7.658   4.354  0.3711 -0.6629 -0.1000
  445MOL0     C61306   6.682   7.731   4.389  0.4796 -0.3701  0.7473
  445MOL0     C61307   6.749   7.721   4.519  0.9998 -1.0425  0.7075
  445MOL0     O61308   6.862   7.788   4.542 -0.3608 -0.2369 -0.0145
  445MOL0     C61309   6.871   7.934   4.519 -0.2629  0.0250  0.4865
  445MOL0     C61310   6.832   8.004   4.651  0.4001 -0.0402  0.8482
  445MOL0     C61311   6.848   8.153   4.646  0.5614  0.1825 -0.0845
  445MOL0     C61312   6.987   8.186   4.700  0.6614 -0.5893  1.0490
  445MOL0     C61313   7.039   8.332   4.680  0.3497  1.0438 -0.4738
  445MOL0     C61314   7.187   8.347   4.702  0.1370  0.2216 -0.2437
  445MOL0     C61315   7.231   8.493   4.685 -0.3739  0.3196  0.3498
  445MOL0     C61316   7.330   8.497   4.566  0.1698  0.1791  0.8391
  445MOL0    Cl61317   7.461   8.375   4.557 -0.2076 -0.0590  0.2428
  445MOL0     C61318   6.682   7.647   4.610  0.3740  0.2337 -0.5294
  445MOL0     C61319   6.563   7.572   4.591 -0.1757  0.1252  0.4494
  445MOL0     O61320   6.460   7.321   4.543 -0.1618  0.3990 -0.4153
  445MOL0     C61321   6.153   7.413   4.390  0.2265 -0.3249  0.7573
  445MOL0     C61322   6.010   7.390   4.385  0.0817  0.7159  0.0747
  445MOL0     N61323   5.807   6.998   4.784  0.2708 -0.1889 -0.8113
  445MOL0     N61324   5.871   6.913   4.859  0.0784 -0.1848 -0.7859
  445MOL0     C61325   6.056   5.848   4.830  0.5842  0.2367 -0.0830
  445MOL0     C61326   6.054   5.756   4.727 -0.5640 -0.2722  0.0591
  445MOL0     C61327   6.050   5.384   4.479 -0.2587 -1.1455  0.1262
  445MOL0     C61328   5.931   5.367   4.399 -0.1584 -0.1015  0.3404
  445MOL0     C61329   5.927   5.309   4.275  0.6346  0.3907  0.1561
  445MOL0     C61330   6.039   5.253   4.226 -0.7354 -0.4432 -0.8593
  445MOL0     O61331   6.059   5.197   4.104  0.5529  0.3441 -0.6502
  445MOL0     C61332   6.106   5.283   4.007  0.5434  0.0096 -1.1247
  445MOL0     C61333   6.073   5.223   3.873  0.1621  0.4317 -0.2479
  445MOL0     C61334   5.926   5.181   3.849 -0.3468 -0.4805  0.4354
  445MOL0     C61335   5.837   5.303   3.814 -0.0254 -0.2221  0.2991
  445MOL0     C61336   5.701   5.254   3.809 -0.0903  0.5179 -0.3236
  445MOL0     C61337   5.587   5.229   3.814 -1.1272  0.2333 -0.2541
  445MOL0     C61338   6.156   5.250   4.309 -0.6412 -0.9736 -0.0300
  445MOL0     C61339   6.164   5.317   4.432 -0.2073  0.9208 -0.0997
  445MOL0     C61340   6.298   5.326   4.498  1.1191  0.0221 -0.4984
  445MOL0     H61341   5.808   5.551   4.826  0.3435 -0.4152 -0.0195
  445MOL0     H61342   5.801   5.705   5.015  0.4993 -2.7265  0.0172
  445MOL0     H61343   5.852   5.976   5.209  3.0086  0.0227  0.4281
  445MOL0     H61344   5.777   5.924   5.063 -1.6796  2.2165 -3.0167
  445MOL0     H61345   5.911   6.117   4.936  2.1011 -1.5654  0.0905
  445MOL0     H61346   5.788   6.164   5.043 -1.2228 -1.7697  2.4827
  445MOL0     H61347   5.909   6.234   5.217  2.0029  0.4931  1.5748
  445MOL0     H61348   6.036   6.118   5.207  0.8165 -0.9224 -2.1878
  445MOL0     H61349   6.144   6.325   5.127  1.8057  0.7539 -3.0069
  445MOL0     H61350   6.135   6.231   4.998  0.5668  0.0482  1.0969
  445MOL0     H61351   5.926   6.361   4.917 -2.3836  5.1650 -1.0544
  445MOL0     H61352   6.087   6.448   4.920  0.8000 -0.2154  0.0315
  445MOL0     H61353   5.834   6.458   5.084  1.5286 -1.5688  1.0422
  445MOL0     H61354   5.965   6.556   5.140  0.6040  0.1635 -0.6013
  445MOL0     H61355   5.810   6.578   4.869  1.4755  1.6809 -2.1273
  445MOL0     H61356   5.960   6.673   4.894  0.4603  1.7191  1.2872
  445MOL0     H61357   5.720   6.698   5.065  0.3692 -0.1848  0.4682
  445MOL0     H61358   5.870   6.782   5.078 -1.0591 -3.0299  2.2920
  445MOL0     H61359   5.552   6.821   4.879 -0.7741  2.0148 -2.1801
  445MOL0     H61360   5.552   7.142   4.706 -4.3375  0.2327  1.9566
  445MOL0     H61361   5.460   6.986   4.742 -0.7494 -0.4993 -1.8956
  445MOL0     H61362   5.625   6.909   4.544  1.5213  1.3941 -0.4927
  445MOL0     H61363   5.472   6.973   4.513  2.1142  1.1599 -4.5411
  445MOL0     H61364   5.622   7.081   4.369  0.2208 -2.3889 -0.0410
  445MOL0     H61365   5.556   7.210   4.467  1.9086  1.9165 -4.6991
  445MOL0     H61366   5.746   7.192   4.621  1.4438 -0.4903  1.3310
  445MOL0     H61367   5.815   7.066   4.521  0.0362 -0.2701  0.8867
  445MOL0     H61368   6.000   7.154   4.627 -0.7995 -0.1358 -0.4900
  445MOL0     H61369   6.329   7.249   4.723  0.6215  0.1118 -0.1998
  445MOL0     H61370   6.313   7.096   4.636  0.3981  1.0788 -2.5687
  445MOL0     H61371   6.188   7.153   4.755  0.3385  2.8390  1.2016
  445MOL0     H61372   6.513   7.657   4.256  0.9187 -0.4922 -0.3678
  445MOL0     H61373   6.724   7.777   4.300  0.1030 -4.0931 -1.5713
  445MOL0     H61374   6.974   7.960   4.495  0.4994 -2.0743  1.2422
  445MOL0     H61375   6.819   7.965   4.428 -1.3548 -2.2238  0.2680
  445MOL0     H61376   6.728   7.980   4.675  1.1978  0.2075  5.3788
  445MOL0     H61377   6.906   7.968   4.723  1.7573 -2.2462 -1.4572
  445MOL0     H61378   6.776   8.206   4.710  0.0940  2.4842 -2.3567
  445MOL0     H61379   6.824   8.187   4.545  0.3591  1.1179  0.2684
  445MOL0     H61380   7.056   8.116   4.653  0.2913  0.1388 -0.6768
  445MOL0     H61381   7.007   8.166   4.805  0.9278 -5.0305  0.3502
  445MOL0     H61382   7.018   8.369   4.579  4.0905  6.6200  0.3072
  445MOL0     H61383   6.983   8.401   4.744  1.8624  1.3433  0.5966
  445MOL0     H61384   7.234   8.280   4.630 -1.2962  0.7505 -1.7463
  445MOL0     H61385   7.211   8.314   4.803 -2.4814  0.6038  0.5861
  445MOL0     H61386   7.278   8.524   4.779  0.7023  0.6373 -0.2810
  445MOL0     H61387   7.141   8.552   4.664  1.0534  2.1372 -1.0324
  445MOL0     H61388   7.383   8.593   4.561 -1.9243  1.3550 -0.1058
  445MOL0     H61389   7.261   8.482   4.483  2.1757 -0.1713 -0.8626
  445MOL0     H61390   6.720   7.653   4.711  1.1063  2.3648 -0.8869
  445MOL0     H61391   6.498   7.524   4.663 -0.5113  0.7729  0.5926
  445MOL0     H61392   6.178   7.496   4.325 -1.9619  2.4122  3.1426
  445MOL0     H61393   5.951   7.440   4.309  0.1876  0.7280 -0.0005
  445MOL0     H61394   6.121   5.935   4.834 -0.1266  0.8965 -1.9716
  445MOL0     H61395   6.135   5.756   4.655  0.2319 -0.7346  0.9174
  445MOL0     H61396   5.835   5.408   4.429  1.1863  3.1773  0.5306
  445MOL0     H61397   5.839   5.304   4.212  1.3904 -0.4118 -0.8636
  445MOL0     H61398   6.054   5.377   4.025 -1.5737 -1.6721  2.9481
  445MOL0     H61399   6.214   5.298   4.019  0.4178  2.1899 -2.3029
  445MOL0     H61400   6.119   5.123   3.878 -2.9712 -1.3868 -3.2613
  445MOL0     H61401   6.116   5.286   3.795  0.9651 -1.2196 -1.1958
  445MOL0     H61402   5.919   5.100   3.776 -1.6274 -0.0350  0.0321
  445MOL0     H61403   5.890   5.137   3.944 -2.4350 -0.6927 -0.3920
  445MOL0     H61404   5.864   5.341   3.716 -0.2070 -2.2282 -0.5827
  445MOL0     H61405   5.840   5.384   3.888 -1.2312  0.2945 -0.1891
  445MOL0     H61406   5.482   5.209   3.819 -0.6406 -2.6125  0.3092
  445MOL0     H61407   6.240   5.202   4.260 -0.0273  0.5071 -0.4777
  445MOL0     H61408   6.379   5.284   4.438 -0.1168 -0.6622 -1.7435
  445MOL0     H61409   6.320   5.433   4.511 -1.0902  0.2515  2.6434
  445MOL0     H61410   6.291   5.264   4.588 -1.8325 -0.7163 -1.1469
  446MOL0     O61411  10.620   2.943   0.096  0.3593 -0.2186  0.2859
  446MOL0     C61412  10.682   3.034   0.156  0.5307  0.3576 -0.3560
  446MOL0     O61413  10.654   3.162   0.154 -0.1096 -1.2088 -0.1468
  446MOL0     C61414  10.555   3.212   0.069 -0.6107  0.0827 -0.4552
  446MOL0     C61415  10.430   3.152   0.058  0.1293  0.5054  0.2354
  446MOL0     C61416  10.333   3.199  -0.035  0.6572 -0.0007  0.7653
  446MOL0     C61417  10.364   3.309  -0.115 -1.1205 -0.7555  1.2432
  446MOL0     O61418  10.282   3.373  -0.212  0.3813 -0.1652 -0.4267
  446MOL0     C61419  10.185   3.280  -0.262 -0.1506 -0.5380 -0.0473
  446MOL0     C61420  10.119   3.340  -0.385 -1.2785  0.3716  0.4983
  446MOL0     C61421  10.151   3.278  -0.520  0.4787  0.6260 -0.5186
  446MOL0     C61422  10.052   3.313  -0.627 -0.1623  0.0653 -0.2838
  446MOL0     C61423  10.112   3.266  -0.760  1.0315 -0.0525  0.5634
  446MOL0     C61424  10.048   3.356  -0.861 -0.2213  0.5045  1.0776
  446MOL0     C61425  10.096   3.330  -1.006 -0.6736 -0.4076 -0.1160
  446MOL0     C61426  10.022   3.411  -1.107  0.1861  0.7831  0.4362
  446MOL0     N61427  10.055   3.556  -1.132  0.5341  0.2991 -0.5798
  446MOL0     C61428  10.112   3.647  -1.046  0.8113  0.4232  0.0765
  446MOL0     C61429  10.127   3.759  -1.117  0.4802  0.0586 -0.0212
  446MOL0     C61430  10.213   3.885  -1.073  0.4274  0.9716 -0.3733
  446MOL0     C61431  10.130   4.012  -1.112 -0.6984 -0.4849 -0.0280
  446MOL0     C61432  10.005   4.032  -1.023 -0.6341 -0.4980 -0.2405
  446MOL0     C61433   9.947   4.177  -1.038 -0.0813 -0.2834  0.0262
  446MOL0     O61434   9.807   4.176  -1.001  0.2795  0.0016 -0.4045
  446MOL0     C61435   9.751   4.298  -0.965  0.3680 -0.0524 -0.4973
  446MOL0     C61436   9.734   4.399  -1.064 -0.2885  0.7821 -0.1615
  446MOL0     C61437   9.685   4.526  -1.035  0.4680 -0.3501 -0.6630
  446MOL0     C61438   9.665   4.617  -1.162  0.2971 -0.0914  0.0557
  446MOL0     C61439   9.665   4.564  -0.904 -0.3881 -0.7194  0.2610
  446MOL0     C61440   9.646   4.708  -0.860 -0.4459 -0.2128  0.0254
  446MOL0     O61441   9.605   4.810  -0.953 -0.1770 -0.3199  0.4967
  446MOL0     C61442   9.544   4.927  -0.917  0.5037 -0.3966 -0.1314
  446MOL0     C61443   9.570   5.041  -1.000  0.1668 -0.3999  0.8448
  446MOL0     C61444   9.510   5.164  -0.959 -0.3814 -0.3922 -0.2000
  446MOL0     C61445   9.417   5.171  -0.851  0.1529  0.2997  0.0546
  446MOL0     O61446   9.364   5.300  -0.830 -0.5171  1.1461  0.1791
  446MOL0     C61447   9.250   5.312  -0.736  1.1498  0.0042 -0.2880
  446MOL0     C61448   9.195   5.455  -0.728  0.4387  0.0876  0.0235
  446MOL0     C61449   9.133   5.493  -0.866 -0.2961  0.3643 -0.5493
  446MOL0     C61450   9.057   5.624  -0.891  0.1662  0.5370 -0.2124
  446MOL0     C61451   9.035   5.655  -1.043 -0.8347  0.6940 -0.4867
  446MOL0     C61452   8.986   5.798  -1.073  0.1654  0.1678 -0.0718
  446MOL0     C61453   9.028   5.808  -1.222 -0.0206  0.6072  0.1310
  446MOL0     C61454   8.977   5.934  -1.280  0.8002  0.1790 -0.7183
  446MOL0    Cl61455   9.057   5.977  -1.438 -0.1154 -0.7794 -0.0477
  446MOL0     C61456   9.385   5.056  -0.783 -0.3503  0.1542  0.7740
  446MOL0     C61457   9.450   4.932  -0.817  0.3375 -0.0697 -0.5045
  446MOL0     O61458   9.659   4.727  -0.736  0.5678  0.7825 -0.2811
  446MOL0     C61459   9.679   4.455  -0.808  0.4811  0.4517 -0.2500
  446MOL0     C61460   9.726   4.324  -0.835  0.6402  0.0180 -0.6214
  446MOL0     N61461  10.057   3.745  -1.235 -0.2651  1.0771  0.4575
  446MOL0     N61462  10.022   3.623  -1.241  1.0836  0.5814  0.0221
  446MOL0     C61463  10.487   3.371  -0.104 -0.6056 -0.4570 -0.4185
  446MOL0     C61464  10.582   3.325  -0.013  0.3924  0.4813 -0.5760
  446MOL0     C61465  10.780   2.991   0.247  0.4584 -0.0495 -0.1558
  446MOL0     C61466  10.895   3.067   0.239 -0.0674  0.0452  0.4085
  446MOL0     C61467  10.997   3.029   0.334  0.1618 -0.5371 -0.2520
  446MOL0     C61468  10.981   2.926   0.424  0.4614 -0.5259  0.1966
  446MOL0     O61469  11.053   2.895   0.534  0.2191  0.0426 -0.0707
  446MOL0     C61470  11.177   2.962   0.571  0.0677 -0.2079 -0.3098
  446MOL0     C61471  11.157   3.003   0.713 -0.0526  0.4839 -0.8105
  446MOL0     C61472  11.299   3.046   0.773  0.1255  0.9465  0.4712
  446MOL0     C61473  11.286   3.026   0.925  0.5594  0.4633  1.0064
  446MOL0     C61474  11.195   3.123   0.980  0.1201  1.3050  0.0109
  446MOL0     C61475  11.145   3.215   1.048  1.0125  0.1480 -0.2321
  446MOL0     C61476  10.858   2.866   0.430  0.6340 -0.0593 -0.1245
  446MOL0     C61477  10.758   2.886   0.337 -0.0534 -0.6510 -0.0580
  446MOL0     C61478  10.627   2.806   0.348 -0.1150 -0.6175  0.1182
  446MOL0     H61479  10.397   3.068   0.119  0.0502  2.5385  3.2419
  446MOL0     H61480  10.232   3.161  -0.042  0.0285  1.4958  1.4095
  446MOL0     H61481  10.099   3.276  -0.194 -0.4860  2.8721 -0.0914
  446MOL0     H61482  10.234   3.184  -0.278  0.0253  0.0111 -3.5779
  446MOL0     H61483  10.010   3.328  -0.386 -1.0788 -2.9859  2.1771
  446MOL0     H61484  10.147   3.446  -0.388  2.1456 -0.2841  3.1591
  446MOL0     H61485  10.256   3.298  -0.544  0.5632  1.5465  0.5777
  446MOL0     H61486  10.143   3.169  -0.519 -0.8995  0.6722  2.3872
  446MOL0     H61487   9.958   3.256  -0.625 -1.6312  2.2233 -2.2620
  446MOL0     H61488  10.028   3.420  -0.622  3.5857  1.0179  0.8544
  446MOL0     H61489  10.069   3.168  -0.782  0.7345 -0.0752  1.2042
  446MOL0     H61490  10.220   3.252  -0.772  0.4578 -3.1677 -2.4321
  446MOL0     H61491   9.940   3.348  -0.847 -0.6084  3.2612  0.3084
  446MOL0     H61492  10.066   3.460  -0.834  2.1818 -0.3975  3.4456
  446MOL0     H61493  10.093   3.223  -1.031  3.8539  0.2098 -5.0669
  446MOL0     H61494  10.203   3.352  -1.013 -0.3464 -1.4602  1.0643
  446MOL0     H61495  10.044   3.362  -1.202 -0.0694  0.4083  0.5652
  446MOL0     H61496   9.916   3.414  -1.081  0.1825  1.5911  0.3568
  446MOL0     H61497  10.156   3.636  -0.947  3.6956  2.3462 -0.8771
  446MOL0     H61498  10.314   3.889  -1.117  0.6668 -3.9843 -0.7923
  446MOL0     H61499  10.231   3.876  -0.966 -0.2120  0.2455 -0.3215
  446MOL0     H61500  10.194   4.101  -1.108  0.6113 -1.2922 -1.7973
  446MOL0     H61501  10.092   4.015  -1.214 -0.3586  2.6332 -0.1576
  446MOL0     H61502   9.930   3.956  -1.049 -1.7274  1.0119 -1.7281
  446MOL0     H61503  10.043   4.021  -0.921  2.6968  0.5252 -1.2513
  446MOL0     H61504  10.003   4.245  -0.973  2.4302  1.6505 -3.7795
  446MOL0     H61505   9.959   4.220  -1.138 -1.2484  1.3722  0.5532
  446MOL0     H61506   9.765   4.384  -1.167  0.8718 -0.3049  0.3214
  446MOL0     H61507   9.748   4.682  -1.190 -1.6274  2.5817  0.2120
  446MOL0     H61508   9.584   4.690  -1.167  1.7335  1.6621  1.0499
  446MOL0     H61509   9.639   4.552  -1.246  0.3343  0.8470 -0.6895
  446MOL0     H61510   9.628   5.033  -1.091 -0.3535 -0.4358  0.5152
  446MOL0     H61511   9.538   5.253  -1.014 -1.6798  0.8687  1.0739
  446MOL0     H61512   9.170   5.259  -0.789  0.6780 -0.2769  0.6738
  446MOL0     H61513   9.274   5.260  -0.643  0.8429 -2.5656 -1.5509
  446MOL0     H61514   9.113   5.473  -0.658 -0.7441 -3.3042 -0.3279
  446MOL0     H61515   9.275   5.528  -0.712 -0.4598  1.3134 -0.9135
  446MOL0     H61516   9.068   5.415  -0.906 -0.6943  0.9220 -0.9963
  446MOL0     H61517   9.227   5.495  -0.921  0.9531 -3.3193  1.1340
  446MOL0     H61518   9.126   5.701  -0.856  2.7303 -2.2173  1.2701
  446MOL0     H61519   8.953   5.623  -0.857 -0.0315 -0.5844 -0.8077
  446MOL0     H61520   9.131   5.638  -1.092 -0.4343 -0.7999  0.7569
  446MOL0     H61521   8.984   5.572  -1.093  2.3551 -2.5663  1.2432
  446MOL0     H61522   9.041   5.868  -1.008 -0.7409  0.4918  0.3611
  446MOL0     H61523   8.879   5.810  -1.057  0.1261 -1.5849  1.3163
  446MOL0     H61524   9.005   5.720  -1.282  1.7129 -0.8312  1.4663
  446MOL0     H61525   9.137   5.821  -1.224  0.0044  0.4382  0.3193
  446MOL0     H61526   8.984   6.009  -1.201 -4.2305 -1.3581  1.6347
  446MOL0     H61527   8.869   5.932  -1.297  0.1046  1.6447  2.6745
  446MOL0     H61528   9.318   5.052  -0.698  0.4445 -0.4791  1.3820
  446MOL0     H61529   9.447   4.840  -0.759  3.3815 -0.4726 -0.8252
  446MOL0     H61530   9.664   4.463  -0.701 -0.9628 -0.0544 -0.3959
  446MOL0     H61531   9.738   4.248  -0.758  2.1518  0.7253 -0.1106
  446MOL0     H61532  10.514   3.451  -0.172 -1.3763  0.4331  0.2867
  446MOL0     H61533  10.676   3.378  -0.012  0.9413 -0.4610 -1.2791
  446MOL0     H61534  10.917   3.147   0.168 -0.7676 -2.6222 -3.0951
  446MOL0     H61535  11.085   3.092   0.344 -0.8874  0.8161  0.8182
  446MOL0     H61536  11.264   2.899   0.548  3.0096  3.8248 -1.2826
  446MOL0     H61537  11.203   3.053   0.515  0.8209 -1.5241 -2.2415
  446MOL0     H61538  11.130   2.914   0.772  4.6370 -0.6095  0.1679
  446MOL0     H61539  11.089   3.086   0.733 -1.6016 -1.3301  2.2716
  446MOL0     H61540  11.374   2.978   0.733  2.8597  2.8552  2.0374
  446MOL0     H61541  11.321   3.147   0.738 -0.9751 -0.2300 -4.2697
  446MOL0     H61542  11.386   3.029   0.971  1.7742 -5.5684 -0.2891
  446MOL0     H61543  11.251   2.924   0.944 -2.1479  1.4972  1.9101
  446MOL0     H61544  11.098   3.287   1.112  2.0677 -2.0534  3.2794
  446MOL0     H61545  10.839   2.806   0.519 -1.8483  0.4671 -0.2248
  446MOL0     H61546  10.550   2.884   0.352  0.3050 -0.2345  1.0898
  446MOL0     H61547  10.617   2.738   0.263 -1.2367 -0.4850  0.1212
  446MOL0     H61548  10.602   2.741   0.432 -0.2844 -2.6340 -1.4058
  447MOL0     O61549   4.518   1.387   4.717 -0.5317 -0.1663  0.4424
  447MOL0     C61550   4.603   1.469   4.748  0.6756  0.0023 -0.2487
  447MOL0     O61551   4.618   1.592   4.685  0.5027 -0.2623  0.5236
  447MOL0     C61552   4.538   1.619   4.577 -0.3749  0.4371  0.9633
  447MOL0     C61553   4.601   1.606   4.450  0.6812 -0.2197 -0.2394
  447MOL0     C61554   4.530   1.632   4.331 -1.2232 -1.6177  0.0118
  447MOL0     C61555   4.400   1.673   4.335 -0.4435  0.1937 -0.1935
  447MOL0     O61556   4.354   1.703   4.213 -0.1580  0.8236 -0.3607
  447MOL0     C61557   4.206   1.701   4.207  0.5325  0.0325  0.6770
  447MOL0     C61558   4.165   1.707   4.062 -0.7474 -0.1620  0.0434
  447MOL0     C61559   4.224   1.588   3.994  0.4519 -0.2591  1.1415
  447MOL0     C61560   4.332   1.617   3.885  0.5225 -0.2891 -0.1868
  447MOL0     C61561   4.372   1.503   3.792 -0.3743  0.8296 -0.2907
  447MOL0     C61562   4.332   1.535   3.646 -0.6999 -0.6045  0.5924
  447MOL0     C61563   4.396   1.435   3.557 -0.0869 -0.0276 -0.3022
  447MOL0     C61564   4.389   1.454   3.403  0.3584 -0.5783 -0.3873
  447MOL0     N61565   4.259   1.429   3.351  0.6631  0.4086 -0.3511
  447MOL0     C61566   4.236   1.333   3.253 -0.7111  0.5113 -0.0403
  447MOL0     C61567   4.122   1.375   3.207 -0.4982  0.0129  0.2545
  447MOL0     C61568   4.043   1.332   3.090  0.3212 -0.0676 -0.8392
  447MOL0     C61569   3.946   1.223   3.124 -0.0015  0.0838  0.4013
  447MOL0     C61570   3.826   1.250   3.216  0.0003 -0.2343 -0.1544
  447MOL0     C61571   3.717   1.336   3.164 -0.1889 -0.0401  0.1996
  447MOL0     O61572   3.610   1.357   3.254  1.1450 -0.9908 -0.2348
  447MOL0     C61573   3.644   1.426   3.367 -0.7187 -0.0082  0.5978
  447MOL0     C61574   3.585   1.386   3.485  0.2822  0.8097 -0.6849
  447MOL0     C61575   3.625   1.437   3.606 -0.8030  0.1600  0.2193
  447MOL0     C61576   3.546   1.391   3.729 -0.2063  0.0451 -0.1281
  447MOL0     C61577   3.725   1.535   3.615 -0.8368 -0.4553 -0.4553
  447MOL0     C61578   3.762   1.603   3.745  0.1269 -1.1385 -0.5101
  447MOL0     O61579   3.668   1.624   3.846  0.6242 -0.5256  0.5775
  447MOL0     C61580   3.722   1.675   3.958 -0.5320 -0.0396 -0.2838
  447MOL0     C61581   3.751   1.591   4.074 -0.3564 -0.7861  0.9143
  447MOL0     C61582   3.806   1.640   4.194  0.4091 -0.3028  0.0764
  447MOL0     C61583   3.829   1.779   4.201 -0.6690  0.7753  0.2071
  447MOL0     O61584   3.900   1.843   4.296  0.3172 -0.0325  0.3723
  447MOL0     C61585   3.830   1.854   4.417 -1.1699 -0.1191 -0.4944
  447MOL0     C61586   3.674   1.883   4.413  0.2204  0.5770 -0.4467
  447MOL0     C61587   3.619   1.915   4.549  1.5664  0.8456  0.1388
  447MOL0     C61588   3.469   1.944   4.529  0.0792  0.0494  0.8571
  447MOL0     C61589   3.420   2.020   4.647  0.8389  0.4135  0.3362
  447MOL0     C61590   3.261   2.025   4.668  1.3061  0.3531 -0.3310
  447MOL0     C61591   3.226   2.133   4.773  0.1503  0.6347  0.4328
  447MOL0     C61592   3.272   2.285   4.760  1.1392 -0.0514  1.6721
  447MOL0    Cl61593   3.173   2.366   4.620 -0.6257 -0.0094  0.3742
  447MOL0     C61594   3.808   1.856   4.089  0.0749 -0.5301 -0.7637
  447MOL0     C61595   3.748   1.810   3.975 -0.3982  0.1080  0.2539
  447MOL0     O61596   3.876   1.652   3.729  0.1753  0.7729 -0.5472
  447MOL0     C61597   3.789   1.562   3.491 -0.4244 -0.3879 -0.4396
  447MOL0     C61598   3.741   1.522   3.368  0.2103  0.5770 -1.0317
  447MOL0     N61599   4.069   1.490   3.271  0.0684  0.5470  0.2651
  447MOL0     N61600   4.153   1.521   3.359  0.2137 -0.8715  0.0459
  447MOL0     C61601   4.338   1.700   4.462 -0.5105 -0.1443 -0.2986
  447MOL0     C61602   4.413   1.669   4.577  1.9924 -0.9364  0.6294
  447MOL0     C61603   4.704   1.449   4.850  0.1294 -0.3368  0.1437
  447MOL0     C61604   4.805   1.552   4.866  1.1868  1.6153 -0.0542
  447MOL0     C61605   4.924   1.530   4.941 -0.5588  0.2812  0.5970
  447MOL0     C61606   4.943   1.409   5.007  0.5915 -0.5069 -0.6710
  447MOL0     O61607   5.035   1.359   5.089  0.4207 -0.8158 -0.1418
  447MOL0     C61608   5.163   1.415   5.102  0.2555 -0.1755  0.4731
  447MOL0     C61609   5.243   1.325   5.187 -0.0228  0.3982 -0.4613
  447MOL0     C61610   5.217   1.352   5.334 -0.4055 -0.6945 -0.1286
  447MOL0     C61611   5.324   1.275   5.419  0.8377  0.1718 -0.3415
  447MOL0     C61612   5.330   1.339   5.550  0.2094 -0.1082 -0.1358
  447MOL0     C61613   5.319   1.394   5.660  0.4230  0.3934 -0.4206
  447MOL0     C61614   4.830   1.324   5.002 -0.5190 -0.1088  0.0539
  447MOL0     C61615   4.717   1.339   4.933  0.6002  0.2557 -0.2421
  447MOL0     C61616   4.631   1.208   4.933  0.8427 -0.4278 -0.6251
  447MOL0     H61617   4.706   1.579   4.448  0.7022 -0.2043  0.5356
  447MOL0     H61618   4.583   1.623   4.236 -1.4929  1.0465 -0.4607
  447MOL0     H61619   4.159   1.777   4.269  0.2561  0.2129  0.2486
  447MOL0     H61620   4.167   1.604   4.241 -0.8767  0.6653  0.9222
  447MOL0     H61621   4.057   1.712   4.046 -0.4926  1.8327 -1.5989
  447MOL0     H61622   4.202   1.796   4.010  1.2738 -1.0957 -0.2282
  447MOL0     H61623   4.271   1.511   4.057  1.7219 -0.5535 -0.1140
  447MOL0     H61624   4.143   1.534   3.944 -1.0431  1.1803  1.9376
  447MOL0     H61625   4.295   1.704   3.828  0.6629  1.4549  2.2319
  447MOL0     H61626   4.419   1.658   3.938 -1.5415  1.1561  2.3248
  447MOL0     H61627   4.333   1.407   3.827 -0.1971  1.8896  3.1695
  447MOL0     H61628   4.480   1.487   3.792 -0.1667  1.6149 -3.3671
  447MOL0     H61629   4.223   1.537   3.633 -0.8787 -1.2902  1.8386
  447MOL0     H61630   4.368   1.633   3.612 -2.1903 -0.3429 -0.3177
  447MOL0     H61631   4.352   1.337   3.578  0.4888 -1.1339 -3.5729
  447MOL0     H61632   4.501   1.430   3.587  0.1070  1.3437 -0.6605
  447MOL0     H61633   4.404   1.559   3.380  0.9459 -0.4972  0.3051
  447MOL0     H61634   4.466   1.397   3.350  0.8564  0.2640 -0.5892
  447MOL0     H61635   4.304   1.254   3.225  1.2627  1.8887  0.6575
  447MOL0     H61636   4.107   1.301   3.007 -0.1514  0.3445 -1.3617
  447MOL0     H61637   3.989   1.424   3.066  0.4114 -0.1356 -1.2988
  447MOL0     H61638   3.910   1.177   3.032 -1.3514 -0.7775  1.3194
  447MOL0     H61639   3.997   1.139   3.173 -0.3253 -0.8420 -0.8022
  447MOL0     H61640   3.774   1.155   3.234 -0.1990 -0.0929  0.0115
  447MOL0     H61641   3.859   1.285   3.315  0.5073 -0.2444 -0.3153
  447MOL0     H61642   3.750   1.430   3.118  1.0672 -0.3418  0.4419
  447MOL0     H61643   3.683   1.284   3.074 -1.1093 -0.0738  0.5524
  447MOL0     H61644   3.518   1.302   3.476  2.4019 -1.0649  0.0590
  447MOL0     H61645   3.485   1.301   3.722  1.4734 -1.6035  3.6695
  447MOL0     H61646   3.478   1.475   3.745 -0.2122 -0.1922  1.1648
  447MOL0     H61647   3.618   1.379   3.811 -2.6154  1.4337  2.3365
  447MOL0     H61648   3.717   1.488   4.064 -0.2526 -0.7193 -0.2985
  447MOL0     H61649   3.808   1.572   4.279  0.7100  0.1799  0.4650
  447MOL0     H61650   3.849   1.777   4.492  1.4109  2.1445  1.3811
  447MOL0     H61651   3.870   1.944   4.466  0.6968  0.2703 -2.5821
  447MOL0     H61652   3.660   1.960   4.336 -1.4045 -1.6444 -2.5347
  447MOL0     H61653   3.629   1.789   4.379  1.6635  0.4703 -2.2160
  447MOL0     H61654   3.668   2.006   4.586  0.7460  1.6223 -0.6472
  447MOL0     H61655   3.630   1.839   4.628 -2.1233  1.1896  1.1579
  447MOL0     H61656   3.414   1.850   4.517  1.3582 -0.9892  2.6319
  447MOL0     H61657   3.438   1.999   4.440  1.2374 -2.4734 -1.2490
  447MOL0     H61658   3.460   1.985   4.742  0.5983  1.9322  1.0316
  447MOL0     H61659   3.460   2.120   4.629 -6.4004  3.9067 -0.0874
  447MOL0     H61660   3.232   1.923   4.695  2.2433  0.3366  0.6879
  447MOL0     H61661   3.222   2.065   4.574 -1.7605  0.9054  1.0580
  447MOL0     H61662   3.264   2.102   4.871 -3.9694  0.9768  2.3163
  447MOL0     H61663   3.118   2.143   4.783 -0.0712 -1.4469  0.4531
  447MOL0     H61664   3.381   2.287   4.745  0.8408  1.3587 -0.8958
  447MOL0     H61665   3.262   2.329   4.860  3.1413  1.8790  1.1241
  447MOL0     H61666   3.820   1.963   4.106  3.6243 -1.1845  1.9238
  447MOL0     H61667   3.737   1.887   3.899 -2.0429  2.8273  3.0360
  447MOL0     H61668   3.874   1.630   3.485 -1.5119  0.9462 -1.6044
  447MOL0     H61669   3.788   1.567   3.281  0.5728  0.6082 -0.8186
  447MOL0     H61670   4.252   1.764   4.476  0.2254  0.4627  1.7262
  447MOL0     H61671   4.367   1.696   4.671  0.8951  1.1469 -0.4509
  447MOL0     H61672   4.795   1.651   4.822  0.7464  0.6035 -2.3317
  447MOL0     H61673   4.995   1.612   4.934 -1.6457  1.0965 -2.4311
  447MOL0     H61674   5.216   1.420   5.006 -1.0145 -2.1391 -0.4061
  447MOL0     H61675   5.169   1.514   5.147  0.5394  0.9967 -2.0210
  447MOL0     H61676   5.348   1.356   5.176 -0.3761  1.5070 -0.9002
  447MOL0     H61677   5.233   1.222   5.153  0.5214 -0.0075  0.5394
  447MOL0     H61678   5.234   1.459   5.353 -2.2041 -0.6739  1.7319
  447MOL0     H61679   5.115   1.321   5.358 -0.2458 -1.0487  0.0963
  447MOL0     H61680   5.419   1.296   5.370 -0.8510 -1.2203 -4.7824
  447MOL0     H61681   5.301   1.168   5.426 -0.8395  0.3282 -2.3346
  447MOL0     H61682   5.292   1.425   5.758 -0.8539  0.4074 -0.7607
  447MOL0     H61683   4.842   1.234   5.061  0.9689  0.3588  0.5183
  447MOL0     H61684   4.637   1.170   4.830  2.9654 -0.3141 -0.5904
  447MOL0     H61685   4.665   1.130   5.001 -2.5927 -0.3382  1.3809
  447MOL0     H61686   4.528   1.219   4.966  2.4712  3.0776  4.5291
  448MOL0     O61687   4.596   7.877   3.547  0.6316  0.6504 -0.0295
  448MOL0     C61688   4.670   7.885   3.644 -0.4041 -0.8899 -0.3364
  448MOL0     O61689   4.635   7.939   3.765 -0.2770 -0.4068 -0.0126
  448MOL0     C61690   4.510   7.983   3.786 -0.7180  0.7034 -0.2895
  448MOL0     C61691   4.403   7.899   3.810  0.0065  0.3602 -0.0524
  448MOL0     C61692   4.275   7.944   3.853 -0.5896 -0.0585  0.6280
  448MOL0     C61693   4.259   8.080   3.859  0.6640  0.3878 -0.1839
  448MOL0     O61694   4.138   8.124   3.909 -0.4233  0.1046 -0.6743
  448MOL0     C61695   4.024   8.122   3.826 -0.2119 -0.4049  0.1756
  448MOL0     C61696   3.897   8.135   3.905 -0.8428 -0.6612 -0.3987
  448MOL0     C61697   3.779   8.094   3.812 -0.0254 -0.3604 -0.6009
  448MOL0     C61698   3.652   8.106   3.891 -0.5607 -0.3690 -0.2187
  448MOL0     C61699   3.540   8.038   3.807 -1.0023 -0.1144 -0.8482
  448MOL0     C61700   3.552   7.887   3.815  0.4965 -0.2562 -0.2591
  448MOL0     C61701   3.457   7.840   3.694 -0.0680 -0.4318 -0.0986
  448MOL0     C61702   3.526   7.709   3.635  0.9570  0.3680 -0.1360
  448MOL0     N61703   3.526   7.588   3.722  0.4536 -0.5227 -0.1168
  448MOL0     C61704   3.566   7.566   3.854  0.9275  0.1230  1.7528
  448MOL0     C61705   3.521   7.444   3.881  1.5741 -0.8461  0.2091
  448MOL0     C61706   3.516   7.359   4.005  0.0072 -0.0510  0.5891
  448MOL0     C61707   3.446   7.440   4.111  0.0360  1.1373  0.1889
  448MOL0     C61708   3.294   7.459   4.080  1.3100 -0.0289 -0.2829
  448MOL0     C61709   3.214   7.323   4.070  0.7324  0.5454  0.4082
  448MOL0     O61710   3.078   7.327   4.020  0.2523 -0.5752 -0.5948
  448MOL0     C61711   3.006   7.211   4.025 -0.2862  1.3233 -0.2221
  448MOL0     C61712   2.868   7.214   4.024  0.0715  0.0111  0.2489
  448MOL0     C61713   2.791   7.095   4.031  0.4954 -0.9382  0.2953
  448MOL0     C61714   2.637   7.104   4.022 -0.6201 -1.2962 -0.0571
  448MOL0     C61715   2.851   6.976   4.025  0.1598  1.0943  0.3457
  448MOL0     C61716   2.781   6.834   3.988 -0.2457  0.2648 -0.8092
  448MOL0     O61717   2.664   6.809   4.031 -0.5399  0.2882 -0.6649
  448MOL0     C61718   2.569   6.751   3.959  1.6694  1.0206 -0.2726
  448MOL0     C61719   2.473   6.683   4.025  0.1049  0.2814 -0.3594
  448MOL0     C61720   2.355   6.637   3.959  0.3233  0.0872 -0.7398
  448MOL0     C61721   2.337   6.670   3.823 -0.1257 -0.2768  0.2192
  448MOL0     O61722   2.236   6.638   3.741 -0.0640  0.5162 -0.5668
  448MOL0     C61723   2.124   6.576   3.808 -0.2486 -0.1811 -0.7153
  448MOL0     C61724   1.998   6.578   3.719  0.0823  0.2684  0.8518
  448MOL0     C61725   1.964   6.723   3.685  0.3707 -0.5487  0.6334
  448MOL0     C61726   1.828   6.728   3.615  0.9767  1.2961  0.3919
  448MOL0     C61727   1.712   6.711   3.708 -0.3185 -0.3512 -0.3149
  448MOL0     C61728   1.682   6.823   3.805 -0.5651  0.0026  0.8050
  448MOL0     C61729   1.552   6.792   3.874 -0.0673 -0.2505 -0.0534
  448MOL0     C61730   1.520   6.909   3.960  0.4798  0.2249 -0.4175
  448MOL0    Cl61731   1.654   6.960   4.065  0.6563 -0.3822 -0.0871
  448MOL0     C61732   2.439   6.751   3.763 -1.0528 -0.7663 -0.2479
  448MOL0     C61733   2.555   6.782   3.829 -1.1243 -0.8496 -0.3717
  448MOL0     O61734   2.848   6.750   3.933 -0.0838 -0.3814 -0.5082
  448MOL0     C61735   2.988   6.964   4.024 -0.6179 -0.5750 -0.3257
  448MOL0     C61736   3.070   7.080   4.017 -0.4398  0.4054  0.1872
  448MOL0     N61737   3.459   7.396   3.767  0.2191  0.9520  0.1675
  448MOL0     N61738   3.458   7.484   3.677 -0.0704  0.8171  0.0656
  448MOL0     C61739   4.355   8.175   3.832 -0.5440 -0.2819  0.6075
  448MOL0     C61740   4.484   8.123   3.795  0.3650  0.0177 -0.4079
  448MOL0     C61741   4.803   7.838   3.640 -0.9015  0.4192  0.3919
  448MOL0     C61742   4.911   7.924   3.676 -0.5784  0.0106  0.0181
  448MOL0     C61743   5.039   7.872   3.688 -0.5837 -0.3547 -0.5383
  448MOL0     C61744   5.062   7.744   3.653 -1.1851  0.6779  0.1653
  448MOL0     O61745   5.182   7.680   3.639 -0.4308 -0.0351  0.7083
  448MOL0     C61746   5.298   7.747   3.694  0.6227  0.2685  0.3006
  448MOL0     C61747   5.290   7.746   3.855  1.0715  0.5164  0.2833
  448MOL0     C61748   5.252   7.606   3.911 -0.2219  0.0419 -0.2829
  448MOL0     C61749   5.194   7.602   4.049 -0.8154 -0.0186 -1.0417
  448MOL0     C61750   5.259   7.695   4.146  0.6610  0.5998 -0.4257
  448MOL0     C61751   5.300   7.783   4.217 -0.4375  0.0245  0.5686
  448MOL0     C61752   4.958   7.660   3.622 -0.9000  0.2637  0.8372
  448MOL0     C61753   4.832   7.708   3.610 -0.1564  0.1891  0.3104
  448MOL0     C61754   4.718   7.609   3.581  0.3172  0.3036 -0.4191
  448MOL0     H61755   4.413   7.791   3.800 -3.6293 -0.1752  0.7551
  448MOL0     H61756   4.204   7.869   3.887 -0.8646  0.6190  1.6003
  448MOL0     H61757   4.006   8.030   3.769  0.2098  0.8719 -2.1589
  448MOL0     H61758   4.033   8.207   3.757 -0.2338  0.6825  1.4853
  448MOL0     H61759   3.911   8.063   3.986 -0.0319  4.0875  4.1623
  448MOL0     H61760   3.891   8.231   3.956  2.0319 -2.0794  3.0404
  448MOL0     H61761   3.780   8.170   3.733 -0.7749 -0.3753 -0.6313
  448MOL0     H61762   3.790   7.990   3.781 -3.1331 -1.2614  0.9801
  448MOL0     H61763   3.660   8.055   3.988  3.0206  2.6677  1.3203
  448MOL0     H61764   3.626   8.204   3.932 -0.0657 -2.0530  4.8557
  448MOL0     H61765   3.551   8.069   3.703 -2.6110 -1.8685 -1.5870
  448MOL0     H61766   3.443   8.067   3.850 -0.5327 -1.1897  1.0524
  448MOL0     H61767   3.658   7.862   3.825  1.5789  3.9947  1.0334
  448MOL0     H61768   3.497   7.851   3.903 -0.7212  1.5770 -0.2142
  448MOL0     H61769   3.433   7.914   3.618  0.5378  2.0806  2.0293
  448MOL0     H61770   3.363   7.809   3.741  0.9277  0.0694  2.3756
  448MOL0     H61771   3.469   7.687   3.544  1.5624  0.5216 -0.5581
  448MOL0     H61772   3.631   7.734   3.616  1.1848 -0.5897 -0.1956
  448MOL0     H61773   3.611   7.626   3.932  2.1782 -0.6866  1.6699
  448MOL0     H61774   3.624   7.358   4.024  0.6262 -1.4673 -2.3954
  448MOL0     H61775   3.482   7.258   3.984  3.0060 -0.9704 -0.4600
  448MOL0     H61776   3.463   7.388   4.206  1.6646 -1.5360 -1.4301
  448MOL0     H61777   3.494   7.538   4.117 -2.8367  2.9772 -3.0809
  448MOL0     H61778   3.242   7.514   4.159  0.5822 -1.7265  0.4751
  448MOL0     H61779   3.278   7.519   3.990  2.4513  0.1951 -0.3541
  448MOL0     H61780   3.270   7.274   3.989 -1.2093 -0.2146 -0.5481
  448MOL0     H61781   3.220   7.267   4.164 -0.5867  1.5961  1.1514
  448MOL0     H61782   2.818   7.310   4.032  1.0303  0.5153  0.3594
  448MOL0     H61783   2.608   7.092   3.918  0.5754 -0.2792 -0.5307
  448MOL0     H61784   2.590   7.195   4.059  1.7492 -0.3487  0.8023
  448MOL0     H61785   2.602   7.028   4.093 -0.6450  1.1304  2.7544
  448MOL0     H61786   2.489   6.659   4.130  2.3241  1.9942 -0.2424
  448MOL0     H61787   2.298   6.572   4.025  0.0012  1.7524  0.6906
  448MOL0     H61788   2.163   6.479   3.837 -1.2631  0.2786  2.5576
  448MOL0     H61789   2.085   6.620   3.900  1.0459 -1.8785  0.7044
  448MOL0     H61790   2.020   6.531   3.622  1.3563  0.3880  1.0624
  448MOL0     H61791   1.917   6.532   3.776 -1.8953  1.6655 -0.7294
  448MOL0     H61792   2.044   6.763   3.623  3.2892 -1.1670  3.7119
  448MOL0     H61793   1.961   6.794   3.769  2.4026 -1.7370  1.7878
  448MOL0     H61794   1.815   6.651   3.538  0.6745  0.1550  1.5448
  448MOL0     H61795   1.828   6.827   3.567  3.2262  1.2061  0.1000
  448MOL0     H61796   1.621   6.703   3.648 -0.4927 -1.0742  0.0294
  448MOL0     H61797   1.704   6.617   3.763 -1.3704  0.0933  0.3150
  448MOL0     H61798   1.692   6.919   3.755 -2.8364 -0.1356 -0.0150
  448MOL0     H61799   1.764   6.826   3.877  0.2410  0.5245 -0.1178
  448MOL0     H61800   1.567   6.699   3.930  0.2548 -0.7509 -0.9360
  448MOL0     H61801   1.467   6.782   3.804  0.6471 -3.3537 -0.6299
  448MOL0     H61802   1.437   6.888   4.028  1.7783 -3.3497  0.2628
  448MOL0     H61803   1.495   7.001   3.905  1.3200  0.9288  0.3431
  448MOL0     H61804   2.427   6.776   3.658 -0.3682  0.5795 -0.0286
  448MOL0     H61805   2.626   6.846   3.778  0.0430 -2.5366 -0.9694
  448MOL0     H61806   3.041   6.870   4.018  1.4567  0.3689  1.8420
  448MOL0     H61807   3.175   7.061   4.001 -0.6185  0.5669 -1.3356
  448MOL0     H61808   4.322   8.277   3.846 -0.1224  0.0959 -0.9550
  448MOL0     H61809   4.564   8.196   3.795 -0.3004  0.9462 -4.1952
  448MOL0     H61810   4.899   8.027   3.709  1.2778  0.3235 -0.2181
  448MOL0     H61811   5.108   7.954   3.705  0.8997 -1.2195 -2.0536
  448MOL0     H61812   5.388   7.693   3.663 -0.6030 -0.3631 -2.4933
  448MOL0     H61813   5.302   7.844   3.643 -2.3769 -1.5109 -3.9192
  448MOL0     H61814   5.225   7.830   3.879  0.5349 -0.1383  1.1569
  448MOL0     H61815   5.386   7.774   3.899  1.1789 -0.2467  0.5460
  448MOL0     H61816   5.176   7.568   3.842  1.3191  0.8969 -2.5412
  448MOL0     H61817   5.345   7.550   3.922 -0.0801  0.3785  0.2309
  448MOL0     H61818   5.200   7.505   4.098 -0.9026 -0.4124 -1.8014
  448MOL0     H61819   5.090   7.638   4.045 -0.4414  1.0648 -1.2739
  448MOL0     H61820   5.316   7.854   4.296  3.1988 -1.7930  1.7156
  448MOL0     H61821   4.980   7.556   3.600 -0.3087  0.1113  2.0768
  448MOL0     H61822   4.649   7.614   3.666  0.0071 -3.6394 -0.2620
  448MOL0     H61823   4.654   7.639   3.498 -3.0389 -0.8506  1.5303
  448MOL0     H61824   4.764   7.511   3.567 -0.1803 -0.0545  0.3559
  449MOL0     O61825   6.223   0.282   4.708 -0.3711 -0.1705  0.4072
  449MOL0     C61826   6.253   0.399   4.744  0.8742  0.3591 -0.2672
  449MOL0     O61827   6.178   0.481   4.825 -1.5319 -0.3536 -0.1927
  449MOL0     C61828   6.054   0.453   4.863  0.7845 -0.3742  0.1495
  449MOL0     C61829   6.002   0.324   4.877  0.2510 -0.7439 -0.1451
  449MOL0     C61830   5.875   0.307   4.922  0.6439  0.5509  0.2506
  449MOL0     C61831   5.785   0.417   4.941 -0.7163  0.7271  0.1660
  449MOL0     O61832   5.663   0.394   5.001 -0.5766  0.3051 -0.3817
  449MOL0     C61833   5.591   0.282   4.945 -0.6151  0.6263 -0.2634
  449MOL0     C61834   5.442   0.315   4.951 -0.0982 -0.0854 -0.5069
  449MOL0     C61835   5.352   0.199   4.921  0.1478  0.7979 -0.4096
  449MOL0     C61836   5.211   0.235   4.988  1.0807  0.0451 -0.2564
  449MOL0     C61837   5.112   0.123   4.964 -0.3541 -0.4493 -0.2397
  449MOL0     C61838   4.984   0.119   5.038  0.1617 -0.5780 -1.1017
  449MOL0     C61839   5.003   0.059   5.183  0.3431 -0.0186  0.2812
  449MOL0     C61840   4.882   0.103   5.266 -0.6744 -0.1673 -0.9190
  449MOL0     N61841   4.894   0.055   5.409  0.4989 -0.2682  0.5798
  449MOL0     C61842   4.954  -0.065   5.458  0.8535 -0.1458  0.4478
  449MOL0     C61843   4.961  -0.054   5.591 -0.3272  0.4999  0.1877
  449MOL0     C61844   5.020  -0.143   5.686 -0.1366 -0.5727 -0.6168
  449MOL0     C61845   5.037  -0.089   5.836  0.1048  0.1483 -0.8582
  449MOL0     C61846   4.924  -0.091   5.925  0.4886  0.1817  0.0187
  449MOL0     C61847   4.943  -0.203   6.037 -0.0323 -0.0416 -1.3413
  449MOL0     O61848   4.827  -0.232   6.106  0.1745  0.6082  0.6446
  449MOL0     C61849   4.842  -0.293   6.233 -0.2446  0.0741  0.2971
  449MOL0     C61850   4.784  -0.222   6.341  0.8937 -0.0883  0.4929
  449MOL0     C61851   4.778  -0.286   6.466  0.5915  0.1100 -0.2210
  449MOL0     C61852   4.711  -0.206   6.588  0.1152  0.2143  0.2118
  449MOL0     C61853   4.819  -0.423   6.477 -0.2381  0.1538  0.4158
  449MOL0     C61854   4.807  -0.501   6.592 -0.0002 -0.8925 -0.3182
  449MOL0     O61855   4.756  -0.629   6.573 -0.8713 -0.9762 -0.2941
  449MOL0     C61856   4.813  -0.722   6.654  0.1955  0.3617 -0.3286
  449MOL0     C61857   4.933  -0.788   6.603 -0.7672 -0.9927 -0.1814
  449MOL0     C61858   5.004  -0.869   6.697 -0.2764 -0.9510  0.8424
  449MOL0     C61859   4.958  -0.893   6.829  0.4852 -0.8694 -0.7554
  449MOL0     O61860   5.039  -0.951   6.924 -0.7590 -0.3793  0.2640
  449MOL0     C61861   5.006  -1.069   7.002  0.1105  0.5293  0.8948
  449MOL0     C61862   5.116  -1.150   7.056 -0.7926 -0.0653 -0.4764
  449MOL0     C61863   5.196  -1.093   7.179  0.4434  0.6715  0.3393
  449MOL0     C61864   5.112  -1.084   7.307  0.4190 -0.1089  0.6803
  449MOL0     C61865   5.192  -1.012   7.421 -0.1236 -0.1135 -0.0648
  449MOL0     C61866   5.121  -1.006   7.555  0.0788 -0.0885 -0.8943
  449MOL0     C61867   4.980  -0.933   7.534  0.0882  0.1013 -0.6259
  449MOL0     C61868   4.929  -0.869   7.657 -0.0639 -0.0509 -0.3898
  449MOL0    Cl61869   5.057  -0.749   7.718 -0.0816 -0.3123 -0.4647
  449MOL0     C61870   4.835  -0.835   6.868  0.2115  0.0990 -0.4821
  449MOL0     C61871   4.763  -0.752   6.780 -0.3112  0.2469 -0.3785
  449MOL0     O61872   4.862  -0.462   6.696 -0.5756 -0.0299 -0.0626
  449MOL0     C61873   4.865  -0.494   6.359 -0.4554 -0.4312  0.2632
  449MOL0     C61874   4.879  -0.422   6.245 -0.7456 -0.9066  0.5555
  449MOL0     N61875   4.915   0.071   5.627 -0.2341 -0.1579  0.4401
  449MOL0     N61876   4.873   0.135   5.526  0.7067  0.1186  0.4194
  449MOL0     C61877   5.831   0.546   4.927 -0.7266  0.3444 -0.1450
  449MOL0     C61878   5.963   0.566   4.875 -0.1433 -0.3234  0.3395
  449MOL0     C61879   6.382   0.466   4.718  0.2830 -0.4492 -0.5339
  449MOL0     C61880   6.438   0.550   4.828  0.7317 -0.1625 -0.0856
  449MOL0     C61881   6.576   0.592   4.822  0.1782  1.0932  0.5907
  449MOL0     C61882   6.662   0.539   4.733  0.7598 -0.2632  0.2398
  449MOL0     O61883   6.794   0.573   4.749 -0.8307 -0.0886  0.5075
  449MOL0     C61884   6.896   0.505   4.666 -0.1755 -1.2522 -0.3621
  449MOL0     C61885   7.031   0.521   4.734  0.1067 -0.0716 -0.0342
  449MOL0     C61886   7.058   0.674   4.742 -0.3122 -0.5274 -0.3470
  449MOL0     C61887   7.136   0.710   4.863  0.5098  0.3673 -0.0492
  449MOL0     C61888   7.054   0.737   4.973  0.5093  0.2153  0.8729
  449MOL0     C61889   6.979   0.778   5.055  0.2521  0.0482 -0.0144
  449MOL0     C61890   6.605   0.464   4.628 -0.4976 -0.0982  0.5175
  449MOL0     C61891   6.473   0.431   4.618 -0.1974 -0.2635  0.9420
  449MOL0     C61892   6.429   0.345   4.499 -0.1840 -0.1007  0.1638
  449MOL0     H61893   6.068   0.238   4.878 -0.0287 -0.9867  1.8432
  449MOL0     H61894   5.843   0.206   4.947 -2.5621  1.2324 -0.6724
  449MOL0     H61895   5.603   0.192   5.006 -3.7143  0.2045 -0.0874
  449MOL0     H61896   5.631   0.260   4.846  2.0108 -0.7458  1.0053
  449MOL0     H61897   5.425   0.374   5.042 -0.9310  0.3678 -0.9460
  449MOL0     H61898   5.430   0.389   4.872 -0.6986 -1.1958 -1.4811
  449MOL0     H61899   5.340   0.193   4.812  1.9630 -1.7181 -0.5405
  449MOL0     H61900   5.373   0.103   4.969 -1.9017  0.2970 -0.4102
  449MOL0     H61901   5.211   0.244   5.097  2.1780 -1.7190 -0.0728
  449MOL0     H61902   5.178   0.329   4.942  0.1849 -0.1255  0.0285
  449MOL0     H61903   5.169   0.032   4.985 -0.2956  0.2493  3.2696
  449MOL0     H61904   5.086   0.124   4.858  1.5969 -1.6639 -0.7893
  449MOL0     H61905   4.949   0.223   5.048 -1.7707 -1.3617  1.4409
  449MOL0     H61906   4.898   0.069   4.991 -1.4054 -0.1879  1.1666
  449MOL0     H61907   5.094   0.089   5.236 -0.3672  0.6240  1.1672
  449MOL0     H61908   4.991  -0.049   5.171  0.1502 -0.5884  4.3123
  449MOL0     H61909   4.864   0.211   5.261 -1.3423 -0.3162 -2.0771
  449MOL0     H61910   4.789   0.058   5.228 -0.6305 -0.4780 -0.6565
  449MOL0     H61911   4.971  -0.164   5.416 -3.4906 -1.5508  1.4927
  449MOL0     H61912   5.121  -0.164   5.649 -0.1064  1.4002 -1.7685
  449MOL0     H61913   4.962  -0.236   5.688 -0.9467 -0.0664  0.2821
  449MOL0     H61914   5.120  -0.143   5.882 -0.7753 -1.6880 -1.3388
  449MOL0     H61915   5.066   0.016   5.829  0.0857  0.3967  1.9097
  449MOL0     H61916   4.905   0.004   5.975 -1.9383  0.9056 -2.0583
  449MOL0     H61917   4.840  -0.126   5.864 -0.7122  1.5608  0.8282
  449MOL0     H61918   4.992  -0.291   5.993  1.4441  1.1056 -2.1071
  449MOL0     H61919   5.014  -0.162   6.109  0.1888  1.2989 -2.2880
  449MOL0     H61920   4.757  -0.119   6.322 -2.4970 -0.9493  0.0883
  449MOL0     H61921   4.775  -0.133   6.638 -1.3882  0.2315  2.2396
  449MOL0     H61922   4.685  -0.289   6.655  1.4641 -1.7711 -1.5719
  449MOL0     H61923   4.617  -0.159   6.557  1.4178  4.0970  1.6058
  449MOL0     H61924   4.979  -0.761   6.508  1.6220 -1.0944  0.8832
  449MOL0     H61925   5.098  -0.911   6.662 -0.3086 -0.1470 -0.2571
  449MOL0     H61926   4.938  -1.044   7.084  0.0830 -2.6819  1.9929
  449MOL0     H61927   4.945  -1.141   6.947 -1.6493  1.0774  2.0091
  449MOL0     H61928   5.082  -1.247   7.093  1.2757 -1.5578 -2.2355
  449MOL0     H61929   5.190  -1.177   6.980  4.2671  0.0299  3.7937
  449MOL0     H61930   5.224  -0.992   7.149  1.5664 -0.1105 -1.4068
  449MOL0     H61931   5.283  -1.160   7.185 -1.3830 -1.7151  2.0730
  449MOL0     H61932   5.077  -1.179   7.349 -1.5747  1.2605  2.3613
  449MOL0     H61933   5.025  -1.026   7.276  1.0201 -0.2744 -1.4119
  449MOL0     H61934   5.274  -1.084   7.423 -1.4179 -1.7279 -1.6169
  449MOL0     H61935   5.224  -0.908   7.406  1.1430  0.1874  3.7251
  449MOL0     H61936   5.190  -0.944   7.612 -0.1181  0.4829 -1.2632
  449MOL0     H61937   5.106  -1.103   7.602  1.2591  1.5967  3.4683
  449MOL0     H61938   4.914  -1.001   7.479  1.8391 -2.3303  0.1622
  449MOL0     H61939   4.992  -0.850   7.463 -2.5311  0.3715 -0.8425
  449MOL0     H61940   4.894  -0.936   7.737 -2.2021  1.5854  0.1455
  449MOL0     H61941   4.834  -0.815   7.647 -0.0741  0.8719  3.4335
  449MOL0     H61942   4.797  -0.852   6.969 -0.6884  1.9161 -0.4728
  449MOL0     H61943   4.677  -0.705   6.825 -1.2812 -1.5465 -0.2530
  449MOL0     H61944   4.890  -0.599   6.356 -0.1564 -0.4643  2.3799
  449MOL0     H61945   4.923  -0.466   6.156  0.6324  3.4821 -1.1916
  449MOL0     H61946   5.760   0.618   4.966  0.0056  1.2904 -0.5413
  449MOL0     H61947   6.015   0.661   4.869  0.0374  0.1741  5.5000
  449MOL0     H61948   6.390   0.596   4.914  0.2392  4.2688 -2.4138
  449MOL0     H61949   6.617   0.616   4.920  1.0704 -1.0386  0.7872
  449MOL0     H61950   6.867   0.401   4.648  0.5001 -1.3826 -0.7065
  449MOL0     H61951   6.900   0.570   4.578 -1.5527  2.8626  2.3507
  449MOL0     H61952   7.104   0.469   4.671  1.8209  0.0260  1.7821
  449MOL0     H61953   7.037   0.462   4.826  1.6566 -3.6990 -2.2408
  449MOL0     H61954   7.124   0.706   4.661  0.4515 -1.3644 -0.0848
  449MOL0     H61955   6.970   0.733   4.715 -0.8659 -0.9874  0.4222
  449MOL0     H61956   7.204   0.795   4.854 -1.1594  1.9471  1.3907
  449MOL0     H61957   7.194   0.627   4.903 -0.8723 -0.6656 -0.0984
  449MOL0     H61958   6.922   0.815   5.139  3.9370  1.4162  2.1262
  449MOL0     H61959   6.679   0.428   4.558  0.5099  0.9614  1.0055
  449MOL0     H61960   6.334   0.378   4.455 -0.4535  2.4106  2.3595
  449MOL0     H61961   6.498   0.344   4.415  0.1962  0.0492  0.4711
  449MOL0     H61962   6.422   0.246   4.547  0.1292  0.0750  0.5740
  450MOL0     O61963   3.728   0.152   1.649 -0.2309  0.4282  0.1503
  450MOL0     C61964   3.751   0.091   1.545 -0.7589  0.2518 -0.5548
  450MOL0     O61965   3.877   0.035   1.516 -0.2990  0.6269  0.2758
  450MOL0     C61966   3.979   0.044   1.619 -0.1481  0.3497  0.6477
  450MOL0     C61967   3.968  -0.037   1.726  0.3499  0.7102 -0.1352
  450MOL0     C61968   4.075  -0.055   1.821  0.5014 -0.5080  0.1316
  450MOL0     C61969   4.195   0.022   1.794 -0.1528  0.6289 -0.9236
  450MOL0     O61970   4.301   0.016   1.882 -0.4341 -0.4560 -0.4424
  450MOL0     C61971   4.373  -0.111   1.878  1.0311 -0.6752  0.4003
  450MOL0     C61972   4.526  -0.091   1.915  0.1010 -0.2133  0.1855
  450MOL0     C61973   4.529  -0.050   2.068  0.6497 -0.1109 -0.1217
  450MOL0     C61974   4.449  -0.151   2.159  0.1225 -0.9072 -0.4956
  450MOL0     C61975   4.457  -0.134   2.309  0.1242  0.0532 -0.6053
  450MOL0     C61976   4.597  -0.129   2.361 -0.8339 -0.7206  0.0643
  450MOL0     C61977   4.607  -0.116   2.514 -0.3084 -0.4116  0.5032
  450MOL0     C61978   4.748  -0.069   2.551  0.4740  0.0521 -0.1024
  450MOL0     N61979   4.786  -0.038   2.695 -0.1593 -1.3760  0.0015
  450MOL0     C61980   4.827  -0.123   2.789 -0.4658 -0.0262  0.2920
  450MOL0     C61981   4.848  -0.042   2.900  0.2304  0.5336 -0.4253
  450MOL0     C61982   4.889  -0.098   3.033  0.5083 -0.1481 -0.3594
  450MOL0     C61983   4.794  -0.196   3.090  0.5771 -0.0584  0.4031
  450MOL0     C61984   4.835  -0.247   3.218 -0.7035  0.7018  1.0470
  450MOL0     C61985   4.734  -0.334   3.300 -0.2747 -0.3317 -0.0458
  450MOL0     O61986   4.622  -0.255   3.342  0.8861 -0.2677  0.1921
  450MOL0     C61987   4.532  -0.296   3.438  0.5718  0.7093 -0.8061
  450MOL0     C61988   4.536  -0.417   3.506 -0.5974 -0.6243  0.4882
  450MOL0     C61989   4.450  -0.435   3.614 -0.5011  0.6641  0.1403
  450MOL0     C61990   4.464  -0.566   3.688 -0.0999  0.3712  0.5688
  450MOL0     C61991   4.346  -0.337   3.653 -0.0339  0.4355  0.4046
  450MOL0     C61992   4.261  -0.357   3.766  1.2991  1.0896 -0.1830
  450MOL0     O61993   4.186  -0.238   3.803 -0.4997 -0.3276 -0.5174
  450MOL0     C61994   4.088  -0.248   3.896 -0.1968 -0.3560 -0.2659
  450MOL0     C61995   3.981  -0.331   3.861 -0.3320  0.2029  0.7438
  450MOL0     C61996   3.877  -0.336   3.945 -0.0245 -0.4088  0.3712
  450MOL0     C61997   3.862  -0.254   4.054 -1.0780  0.4830 -0.2867
  450MOL0     O61998   3.741  -0.246   4.107 -0.4515 -0.4886 -0.3856
  450MOL0     C61999   3.725  -0.221   4.249 -0.6491  0.0156 -0.1596
  450MOL0     C62000   3.584  -0.192   4.277 -0.1215  0.4384  0.0244
  450MOL0     C62001   3.540  -0.057   4.217  0.0757 -0.6834 -0.6401
  450MOL0     C62002   3.592   0.052   4.328  0.2689 -0.0144  0.8836
  450MOL0     C62003   3.583   0.199   4.281 -0.7022 -0.4175 -0.1909
  450MOL0     C62004   3.442   0.255   4.285 -0.7841 -0.4267 -0.0120
  450MOL0     C62005   3.427   0.403   4.269  0.2332 -0.2599  0.2670
  450MOL0     C62006   3.274   0.433   4.247 -0.8047  0.1200  0.2713
  450MOL0    Cl62007   3.265   0.501   4.083  0.0692 -0.1663  0.4440
  450MOL0     C62008   3.981  -0.186   4.100 -0.8980  0.2031  0.1636
  450MOL0     C62009   4.086  -0.169   4.014 -0.8178 -0.3893  0.2442
  450MOL0     O62010   4.240  -0.468   3.816  0.6442  0.8883 -0.3676
  450MOL0     C62011   4.336  -0.220   3.573 -1.0506 -0.0596  0.0043
  450MOL0     C62012   4.421  -0.208   3.467 -0.7259 -0.1077 -0.3575
  450MOL0     N62013   4.822   0.088   2.873 -0.2929  0.2374  0.6560
  450MOL0     N62014   4.784   0.091   2.738  0.5767  0.3651 -0.2281
  450MOL0     C62015   4.198   0.118   1.699  0.4440 -0.5282  0.2437
  450MOL0     C62016   4.097   0.120   1.598  1.5636 -0.3505  0.6587
  450MOL0     C62017   3.659   0.094   1.428 -0.1579  0.1638  0.5219
  450MOL0     C62018   3.704   0.037   1.306 -0.9780 -0.3240 -0.5587
  450MOL0     C62019   3.624   0.026   1.192  0.0394 -0.1924  0.0124
  450MOL0     C62020   3.498   0.091   1.189 -0.3464  0.0879 -0.1268
  450MOL0     O62021   3.414   0.087   1.068  0.2363  0.0333 -0.4195
  450MOL0     C62022   3.275   0.131   1.074  1.0236  0.4149  0.4711
  450MOL0     C62023   3.172   0.037   1.132 -0.1510 -0.6085 -1.1457
  450MOL0     C62024   3.222  -0.113   1.123  0.5730 -0.2019 -0.1027
  450MOL0     C62025   3.104  -0.202   1.155 -0.6177  0.4310 -0.3479
  450MOL0     C62026   3.148  -0.337   1.173  0.0796 -0.3771 -0.0512
  450MOL0     C62027   3.182  -0.456   1.188 -0.3515  0.2391 -0.4662
  450MOL0     C62028   3.452   0.143   1.314 -0.0850 -0.0040 -0.1928
  450MOL0     C62029   3.526   0.150   1.429 -0.0286  0.8709  0.5601
  450MOL0     C62030   3.465   0.219   1.541  0.6107  0.2965 -0.7369
  450MOL0     H62031   3.879  -0.097   1.739 -0.9059  2.4549 -0.4285
  450MOL0     H62032   4.070  -0.136   1.893 -1.9456 -1.9990 -1.5538
  450MOL0     H62033   4.370  -0.145   1.774 -1.1426 -2.5071  0.9800
  450MOL0     H62034   4.335  -0.196   1.935  2.4420 -0.3637  1.8642
  450MOL0     H62035   4.586  -0.182   1.906  2.1464  0.8123  2.1917
  450MOL0     H62036   4.580  -0.011   1.863  1.9571  0.4533  2.8939
  450MOL0     H62037   4.633  -0.049   2.102  0.0921  0.2502  1.6810
  450MOL0     H62038   4.492   0.051   2.087  0.5573 -0.1821  0.0846
  450MOL0     H62039   4.348  -0.151   2.118  1.4472  0.3782 -4.2125
  450MOL0     H62040   4.497  -0.247   2.138 -0.3845 -1.5854  1.2771
  450MOL0     H62041   4.403  -0.216   2.357  1.7082  1.0123  3.2557
  450MOL0     H62042   4.399  -0.048   2.346 -2.3039 -1.7334 -0.0296
  450MOL0     H62043   4.655  -0.218   2.334  1.5696  0.0513  2.2866
  450MOL0     H62044   4.656  -0.049   2.315 -0.2136 -1.0745  0.2281
  450MOL0     H62045   4.604  -0.214   2.562  1.0449 -0.3062  0.8613
  450MOL0     H62046   4.522  -0.058   2.552 -1.2306 -0.3285 -1.5611
  450MOL0     H62047   4.827  -0.127   2.502  1.5961  1.6210 -0.2374
  450MOL0     H62048   4.758   0.030   2.507 -1.9382 -0.0917 -1.0996
  450MOL0     H62049   4.835  -0.231   2.791  2.9757  0.0533  3.3885
  450MOL0     H62050   4.909  -0.008   3.092 -3.1801  0.1857  0.6112
  450MOL0     H62051   4.980  -0.159   3.027 -0.4628 -1.6402 -0.3877
  450MOL0     H62052   4.695  -0.147   3.093  0.3517 -0.5820  2.1712
  450MOL0     H62053   4.796  -0.287   3.029  0.0407 -0.0590  0.3783
  450MOL0     H62054   4.931  -0.290   3.190 -2.0886  0.3138 -4.0339
  450MOL0     H62055   4.856  -0.163   3.284 -1.8824  3.1323 -1.4628
  450MOL0     H62056   4.692  -0.409   3.232  0.0107  0.8426 -1.5709
  450MOL0     H62057   4.796  -0.376   3.380  3.8138  1.1333 -2.1577
  450MOL0     H62058   4.618  -0.484   3.484  0.6155  0.2903  1.9870
  450MOL0     H62059   4.504  -0.564   3.790 -0.4575 -0.1926  0.7272
  450MOL0     H62060   4.520  -0.644   3.636 -1.2902 -1.5027  1.9698
  450MOL0     H62061   4.373  -0.627   3.691  1.9025 -2.9922 -0.9853
  450MOL0     H62062   3.977  -0.400   3.778  0.1410 -0.3182  1.1502
  450MOL0     H62063   3.792  -0.383   3.896  0.2408  1.3787 -1.9975
  450MOL0     H62064   3.754  -0.309   4.307 -2.8311  0.9646  2.5820
  450MOL0     H62065   3.780  -0.132   4.281 -2.1396  0.0213  2.6777
  450MOL0     H62066   3.527  -0.270   4.225 -1.4439  1.0038  0.5733
  450MOL0     H62067   3.562  -0.196   4.384 -0.4551 -1.4943 -0.0660
  450MOL0     H62068   3.431  -0.054   4.205  0.1749  0.1571 -1.4623
  450MOL0     H62069   3.579  -0.042   4.116  1.5227  1.9240  0.1979
  450MOL0     H62070   3.695   0.036   4.360  0.1126 -1.1752  0.8392
  450MOL0     H62071   3.526   0.050   4.415  0.4175  0.2208  1.0033
  450MOL0     H62072   3.638   0.261   4.353 -2.0979  1.8728 -0.9837
  450MOL0     H62073   3.629   0.220   4.184  1.5803 -2.5608  0.3500
  450MOL0     H62074   3.396   0.218   4.377 -2.7110 -2.5302 -1.6935
  450MOL0     H62075   3.381   0.208   4.207 -0.2265  0.4665 -1.0115
  450MOL0     H62076   3.485   0.450   4.189 -2.7073  1.0425 -1.2545
  450MOL0     H62077   3.459   0.448   4.364 -0.0668 -1.0912  0.7718
  450MOL0     H62078   3.221   0.501   4.315  2.3434  1.0330  2.0034
  450MOL0     H62079   3.221   0.338   4.261  2.7343 -2.0905 -0.1144
  450MOL0     H62080   3.985  -0.131   4.193 -2.8926  2.0948 -0.7566
  450MOL0     H62081   4.178  -0.113   4.027 -0.0194 -1.4825 -0.4961
  450MOL0     H62082   4.266  -0.139   3.593  1.6532  2.7289 -1.0072
  450MOL0     H62083   4.392  -0.116   3.417 -3.4155  1.3898  3.5388
  450MOL0     H62084   4.278   0.187   1.671 -3.1126  3.6522 -0.8037
  450MOL0     H62085   4.099   0.178   1.506 -0.6111 -0.3092  0.5788
  450MOL0     H62086   3.799  -0.015   1.309 -1.5797 -1.4556 -0.2596
  450MOL0     H62087   3.660  -0.021   1.101  0.6994 -1.5914  0.9586
  450MOL0     H62088   3.261   0.227   1.124 -1.4598  0.8882 -0.9597
  450MOL0     H62089   3.248   0.149   0.969 -1.1731 -1.3685  0.6552
  450MOL0     H62090   3.091   0.065   1.064  1.4875 -0.4349 -3.1303
  450MOL0     H62091   3.150   0.063   1.236  2.8438  2.2138 -1.0470
  450MOL0     H62092   3.257  -0.132   1.021 -0.8747 -0.0079 -0.6581
  450MOL0     H62093   3.311  -0.129   1.185 -0.7078 -2.4942  1.2886
  450MOL0     H62094   3.038  -0.201   1.067 -2.9226 -0.8641  1.2629
  450MOL0     H62095   3.064  -0.164   1.249  3.6257  1.5289  1.2419
  450MOL0     H62096   3.210  -0.558   1.205  1.9929  1.0560  1.1156
  450MOL0     H62097   3.356   0.193   1.310 -0.6940 -1.1045  0.3040
  450MOL0     H62098   3.422   0.148   1.613  3.0127  2.6816  3.4123
  450MOL0     H62099   3.534   0.283   1.596  0.8692 -0.9706  0.4824
  450MOL0     H62100   3.380   0.278   1.506 -2.0164 -1.5921  1.9315
  451MOL0     O62101   7.662   1.941  10.313  0.2266 -0.7054  0.1770
  451MOL0     C62102   7.636   2.055  10.275  0.0691 -0.6619 -0.1096
  451MOL0     O62103   7.695   2.171  10.312 -0.2348  1.1717  0.1363
  451MOL0     C62104   7.787   2.171  10.408 -0.8374 -0.9252 -0.9599
  451MOL0     C62105   7.923   2.199  10.367 -0.4715  0.1369  0.1746
  451MOL0     C62106   8.022   2.231  10.465 -0.8707  0.0663  0.6793
  451MOL0     C62107   7.983   2.236  10.605  0.1985 -0.4462  0.5804
  451MOL0     O62108   8.068   2.267  10.713  0.9065  0.0438 -0.8724
  451MOL0     C62109   8.202   2.284  10.684  0.5982  0.8378 -0.3317
  451MOL0     C62110   8.260   2.288  10.821  0.3488 -0.9411 -0.0921
  451MOL0     C62111   8.415   2.290  10.826  0.3211  0.8079  0.2564
  451MOL0     C62112   8.480   2.205  10.716  0.4962  0.6421 -0.8705
  451MOL0     C62113   8.622   2.201  10.746  0.3745  0.1191 -0.2831
  451MOL0     C62114   8.668   2.112  10.859 -0.1939 -0.1418  0.9028
  451MOL0     C62115   8.657   1.956  10.832 -0.1392 -0.1103  0.5932
  451MOL0     C62116   8.706   1.878  10.953 -0.4757 -0.5341  1.0075
  451MOL0     N62117   8.633   1.904  11.075  0.1870 -0.2279  0.2891
  451MOL0     C62118   8.520   1.836  11.094 -0.4317  0.3472 -0.7132
  451MOL0     C62119   8.491   1.873  11.227  0.5482  0.4534 -0.6475
  451MOL0     C62120   8.382   1.793  11.302  0.0392  0.0991  0.5538
  451MOL0     C62121   8.420   1.644  11.349  1.0234  0.1102 -0.4437
  451MOL0     C62122   8.507   1.655  11.470 -0.2160 -0.8348 -0.0295
  451MOL0     C62123   8.572   1.520  11.512  0.5521 -0.1883  0.2213
  451MOL0     O62124   8.465   1.438  11.559  1.1734  0.2882 -0.3411
  451MOL0     C62125   8.474   1.400  11.690  0.1786 -0.1648  0.1208
  451MOL0     C62126   8.533   1.476  11.794  0.4005  0.2543 -0.0522
  451MOL0     C62127   8.552   1.437  11.923 -0.0096 -0.2800 -0.0659
  451MOL0     C62128   8.607   1.546  12.016 -0.1048  0.6240  0.2858
  451MOL0     C62129   8.542   1.300  11.952  1.1150 -0.2417 -0.2925
  451MOL0     C62130   8.594   1.234  12.075 -0.8368  0.6933  0.0559
  451MOL0     O62131   8.552   1.108  12.104  1.1493 -0.3592 -0.8878
  451MOL0     C62132   8.619   1.044  12.211  0.1304 -0.7713 -0.1057
  451MOL0     C62133   8.700   0.934  12.196 -0.4114  0.3421 -0.1636
  451MOL0     C62134   8.763   0.870  12.300  0.5724  1.3119 -1.1251
  451MOL0     C62135   8.738   0.916  12.435  0.2809 -0.2618  0.4979
  451MOL0     O62136   8.775   0.847  12.543 -0.4466 -0.4493 -0.5384
  451MOL0     C62137   8.727   0.869  12.674  0.5845 -0.0605 -0.2129
  451MOL0     C62138   8.810   0.784  12.759 -0.0246  0.6081 -0.1207
  451MOL0     C62139   8.795   0.638  12.733 -0.2119 -0.5003 -0.0393
  451MOL0     C62140   8.893   0.554  12.819  0.4199  0.2966  0.1198
  451MOL0     C62141   8.878   0.406  12.798 -0.7020  0.9566  0.8652
  451MOL0     C62142   8.966   0.352  12.689  0.6893  1.1087 -0.4667
  451MOL0     C62143   9.111   0.353  12.735 -1.2513 -0.3038  0.4449
  451MOL0     C62144   9.197   0.257  12.666  0.2654 -0.6087  0.2050
  451MOL0    Cl62145   9.142   0.085  12.696  0.7248  0.3327 -0.0538
  451MOL0     C62146   8.635   1.013  12.444 -0.4227 -0.5166  0.4583
  451MOL0     C62147   8.581   1.076  12.335 -0.4205 -0.2044 -0.2835
  451MOL0     O62148   8.696   1.283  12.122  0.2321 -0.6108 -0.2524
  451MOL0     C62149   8.486   1.220  11.846  1.3788 -0.5437  0.2382
  451MOL0     C62150   8.456   1.272  11.720  0.1390 -0.1035  0.0462
  451MOL0     N62151   8.574   1.966  11.279  0.3683 -1.0455 -0.2594
  451MOL0     N62152   8.657   1.988  11.181 -0.3798 -0.0795 -0.7489
  451MOL0     C62153   7.848   2.189  10.636  0.0342 -0.8746 -0.3550
  451MOL0     C62154   7.752   2.170  10.543  0.9280 -0.9998  0.3769
  451MOL0     C62155   7.519   2.060  10.166 -0.3626  0.6066 -0.7898
  451MOL0     C62156   7.527   2.167  10.080  0.2267 -0.0351 -0.1726
  451MOL0     C62157   7.464   2.158   9.957  0.1480 -0.1787 -0.2943
  451MOL0     C62158   7.371   2.055   9.925  0.2648  0.2945  0.4251
  451MOL0     O62159   7.299   2.047   9.807 -0.0726 -0.2300 -0.0247
  451MOL0     C62160   7.169   2.099   9.826  0.0582  0.6785  0.5216
  451MOL0     C62161   7.109   2.122   9.687 -0.1486  0.8581 -0.0125
  451MOL0     C62162   7.205   2.192   9.592 -0.8515 -0.1920  0.3520
  451MOL0     C62163   7.155   2.178   9.444 -0.3981 -0.0244  0.7652
  451MOL0     C62164   7.258   2.248   9.360 -0.1392  0.0653 -0.6546
  451MOL0     C62165   7.348   2.306   9.298 -0.1621 -0.7782 -0.9279
  451MOL0     C62166   7.360   1.950  10.016 -0.5934 -1.2578 -0.0337
  451MOL0     C62167   7.426   1.962  10.143  0.5499 -0.1483 -0.0571
  451MOL0     C62168   7.386   1.847  10.230  0.6569 -0.7229  0.1214
  451MOL0     H62169   7.954   2.189  10.264  3.7064 -1.3742  1.3746
  451MOL0     H62170   8.121   2.245  10.422 -2.1011  1.9604 -1.7641
  451MOL0     H62171   8.236   2.376  10.636 -0.0848  1.5656  0.5375
  451MOL0     H62172   8.242   2.197  10.631 -2.5301 -2.0692  1.5958
  451MOL0     H62173   8.216   2.381  10.857 -0.3138 -0.8929 -0.9914
  451MOL0     H62174   8.226   2.203  10.882 -1.1975  1.1147  2.0907
  451MOL0     H62175   8.457   2.390  10.826  2.6292 -0.1042 -0.2747
  451MOL0     H62176   8.447   2.263  10.928  0.6773  0.4504  0.0539
  451MOL0     H62177   8.438   2.104  10.715  3.3384 -0.6204 -2.8059
  451MOL0     H62178   8.449   2.263  10.629 -2.2703  0.7735  0.0807
  451MOL0     H62179   8.658   2.302  10.769  1.6062 -0.0683 -1.2820
  451MOL0     H62180   8.670   2.157  10.659  3.3052 -0.2474  1.3771
  451MOL0     H62181   8.773   2.139  10.870 -0.5773  1.8792  0.0722
  451MOL0     H62182   8.607   2.136  10.947 -2.3656  1.9825 -1.0392
  451MOL0     H62183   8.713   1.935  10.741  0.0320  1.2698  0.3502
  451MOL0     H62184   8.551   1.930  10.823  0.2092 -1.5005  0.3541
  451MOL0     H62185   8.688   1.772  10.934 -0.5370 -0.7274  2.1104
  451MOL0     H62186   8.813   1.896  10.962 -0.7679  2.1713  0.1339
  451MOL0     H62187   8.480   1.761  11.027  3.4905 -2.1487 -0.5692
  451MOL0     H62188   8.298   1.784  11.232  0.9680 -0.1350 -0.5615
  451MOL0     H62189   8.360   1.846  11.395  0.8610 -0.3943  1.0448
  451MOL0     H62190   8.328   1.592  11.378 -2.9099  7.3201  2.8775
  451MOL0     H62191   8.474   1.589  11.272 -2.1104  0.1424 -2.8913
  451MOL0     H62192   8.597   1.712  11.446  0.4985 -1.4554  1.1145
  451MOL0     H62193   8.466   1.707  11.557 -0.5369  2.6908 -2.0769
  451MOL0     H62194   8.609   1.476  11.419 -3.2256 -0.9704 -1.0678
  451MOL0     H62195   8.654   1.537  11.583  1.2141  0.1678 -0.6141
  451MOL0     H62196   8.564   1.576  11.769  1.0452  0.1808  0.4028
  451MOL0     H62197   8.710   1.569  11.988  0.0223  0.2368  0.4308
  451MOL0     H62198   8.602   1.505  12.117 -0.1978 -1.2844 -0.4660
  451MOL0     H62199   8.545   1.636  12.009  0.9037  1.2651 -0.6855
  451MOL0     H62200   8.719   0.889  12.099 -1.5639  1.6207 -1.0233
  451MOL0     H62201   8.828   0.785  12.276 -1.2292 -0.0724 -1.3014
  451MOL0     H62202   8.748   0.975  12.688 -0.7372  0.9240 -4.3297
  451MOL0     H62203   8.619   0.852  12.684  0.3754 -1.5748 -3.7508
  451MOL0     H62204   8.917   0.804  12.770  0.8646 -3.1977 -0.5495
  451MOL0     H62205   8.778   0.799  12.862  2.2062 -2.4777  1.1624
  451MOL0     H62206   8.823   0.615  12.630 -2.7714 -0.7537 -0.7584
  451MOL0     H62207   8.694   0.597  12.734  0.3999 -2.3337 -2.5113
  451MOL0     H62208   8.858   0.575  12.920 -0.5110 -1.5377  0.2292
  451MOL0     H62209   8.997   0.587  12.825  0.7986 -0.9409  0.8084
  451MOL0     H62210   8.918   0.373  12.895  0.0624  2.5362  1.1215
  451MOL0     H62211   8.776   0.377  12.775 -0.4295  1.3074 -0.8920
  451MOL0     H62212   8.952   0.417  12.602 -1.4003  0.5806 -0.5946
  451MOL0     H62213   8.934   0.248  12.674  0.8219  0.1526  4.2422
  451MOL0     H62214   9.129   0.332  12.841  0.9759  1.1322  0.4165
  451MOL0     H62215   9.155   0.453  12.728 -1.6741 -0.2271 -1.9478
  451MOL0     H62216   9.300   0.250  12.703  0.4681 -0.7303 -0.3605
  451MOL0     H62217   9.206   0.276  12.558  2.1560  0.5027  0.5092
  451MOL0     H62218   8.587   1.038  12.538 -2.4458  0.1664 -0.6957
  451MOL0     H62219   8.502   1.147  12.358  0.8903  0.0461  4.5674
  451MOL0     H62220   8.477   1.115  11.873 -0.2532 -0.0450  1.8532
  451MOL0     H62221   8.422   1.207  11.640  0.4592 -0.1646 -0.0430
  451MOL0     H62222   7.815   2.171  10.738  1.3668  0.1694  0.2817
  451MOL0     H62223   7.646   2.163  10.563  0.4104 -1.3888 -2.1240
  451MOL0     H62224   7.591   2.250  10.111 -0.1601  0.8482 -1.6002
  451MOL0     H62225   7.480   2.233   9.880  0.2130  2.3597  2.0522
  451MOL0     H62226   7.113   2.022   9.881  1.7029  0.2210  1.6432
  451MOL0     H62227   7.158   2.185   9.893  0.8218 -0.9867  2.9171
  451MOL0     H62228   7.025   2.188   9.711 -0.0026  0.2847  2.3431
  451MOL0     H62229   7.068   2.033   9.639  3.9684 -1.1318 -0.2544
  451MOL0     H62230   7.208   2.296   9.623  0.7898  0.2874 -1.2142
  451MOL0     H62231   7.309   2.160   9.605 -0.5737  1.2967  2.2026
  451MOL0     H62232   7.056   2.224   9.433 -1.2213 -2.0738 -0.9257
  451MOL0     H62233   7.147   2.073   9.418  1.9820 -0.0848 -0.0327
  451MOL0     H62234   7.425   2.342   9.233  0.1764  0.8083  0.2880
  451MOL0     H62235   7.281   1.878   9.998 -3.2439  1.3552  0.3047
  451MOL0     H62236   7.283   1.810  10.218  0.0713  1.2086 -1.4443
  451MOL0     H62237   7.468   1.776  10.221  1.5054  0.2491  0.0208
  451MOL0     H62238   7.382   1.883  10.333 -0.3709 -0.1610 -0.1031
  452MOL0     O62239   4.767   2.353   9.143  0.5731  0.6433 -0.2276
  452MOL0     C62240   4.788   2.240   9.179  0.4423 -0.5530 -0.8988
  452MOL0     O62241   4.826   2.208   9.312  0.8659  0.1162 -0.2008
  452MOL0     C62242   4.824   2.303   9.414 -0.6415 -0.2265  0.5391
  452MOL0     C62243   4.943   2.377   9.435 -0.9323 -0.3058 -0.3652
  452MOL0     C62244   4.939   2.482   9.530  0.2777  0.0197  0.5902
  452MOL0     C62245   4.829   2.516   9.605 -0.2665  0.2330 -0.1421
  452MOL0     O62246   4.819   2.612   9.700 -0.3781  0.9100 -0.3179
  452MOL0     C62247   4.930   2.663   9.771 -0.2193  0.3115  0.4203
  452MOL0     C62248   4.870   2.738   9.890 -1.8920  0.5506 -0.7475
  452MOL0     C62249   4.806   2.863   9.838  1.0397 -0.3550 -0.4534
  452MOL0     C62250   4.705   2.910   9.938  0.5001  0.3843 -0.2768
  452MOL0     C62251   4.617   3.017   9.877  0.6339 -0.3136  0.4796
  452MOL0     C62252   4.516   3.047   9.982 -0.5069  1.3896 -0.9870
  452MOL0     C62253   4.393   3.129   9.945 -0.1988  1.0372 -0.0304
  452MOL0     C62254   4.405   3.232   9.836 -0.3317 -0.1114  0.1025
  452MOL0     N62255   4.320   3.349   9.857 -0.0370 -0.9469  0.5955
  452MOL0     C62256   4.347   3.481   9.843  0.9549 -1.0802  0.8505
  452MOL0     C62257   4.221   3.548   9.851 -1.0907  0.5164  0.5941
  452MOL0     C62258   4.202   3.688   9.836  0.6973 -0.9014 -0.3277
  452MOL0     C62259   4.076   3.734   9.909  0.2930 -0.3432 -0.8776
  452MOL0     C62260   4.055   3.881   9.912  0.4968  0.0275 -1.5408
  452MOL0     C62261   3.925   3.924   9.985 -0.0858 -0.2859 -1.7732
  452MOL0     O62262   3.921   4.069   9.985 -0.1982  0.3013  0.2987
  452MOL0     C62263   3.794   4.122  10.008  0.6024 -1.4615 -0.3569
  452MOL0     C62264   3.733   4.224   9.922  0.6566  0.2693  0.0617
  452MOL0     C62265   3.629   4.307   9.962 -0.2887 -0.0058  0.4693
  452MOL0     C62266   3.581   4.403   9.860  0.5659 -0.1685  0.3858
  452MOL0     C62267   3.565   4.288  10.085  0.1879 -0.4671  0.8344
  452MOL0     C62268   3.437   4.351  10.122 -0.5090  0.1786 -0.2718
  452MOL0     O62269   3.351   4.274  10.188  0.4141 -0.4241 -0.6107
  452MOL0     C62270   3.226   4.326  10.197  1.3599  0.4341 -0.1425
  452MOL0     C62271   3.182   4.415  10.303  0.3462  0.0290 -0.1240
  452MOL0     C62272   3.050   4.457  10.321  0.5780  1.4220  0.9372
  452MOL0     C62273   2.952   4.417  10.224 -0.1093 -0.0046  0.5350
  452MOL0     O62274   2.816   4.450  10.244 -0.0435 -0.2680  0.4003
  452MOL0     C62275   2.723   4.446  10.131 -1.5906 -0.6625  0.0089
  452MOL0     C62276   2.582   4.490  10.185  0.1399 -0.2248  0.1032
  452MOL0     C62277   2.537   4.369  10.266  0.5207 -0.6149  0.9845
  452MOL0     C62278   2.406   4.394  10.345 -0.0517  0.4331  0.6807
  452MOL0     C62279   2.384   4.298  10.445 -0.3599 -0.2709 -1.1199
  452MOL0     C62280   2.417   4.154  10.420 -0.6980  0.7451 -0.2399
  452MOL0     C62281   2.413   4.073  10.550 -0.2878 -0.1184  0.6492
  452MOL0     C62282   2.447   3.928  10.522 -0.0635 -0.3238  0.2654
  452MOL0    Cl62283   2.625   3.901  10.481  0.0600 -0.3025 -0.3975
  452MOL0     C62284   2.997   4.327  10.119 -0.5668 -0.0231 -0.6024
  452MOL0     C62285   3.123   4.272  10.118 -0.2451 -0.5607  0.4358
  452MOL0     O62286   3.425   4.466  10.091  0.2612 -0.6547  0.1060
  452MOL0     C62287   3.612   4.182  10.159  0.5639  0.2831  0.3707
  452MOL0     C62288   3.732   4.108  10.135 -0.2673  0.9433  0.1773
  452MOL0     N62289   4.129   3.458   9.903  0.0388  0.5196  0.6817
  452MOL0     N62290   4.187   3.349   9.898 -0.0351 -0.1255  0.1560
  452MOL0     C62291   4.714   2.446   9.569  0.3784 -0.2784 -0.2260
  452MOL0     C62292   4.711   2.331   9.477  0.3163 -0.4006 -0.8364
  452MOL0     C62293   4.757   2.127   9.080  0.4057 -0.3045  0.3807
  452MOL0     C62294   4.806   1.996   9.119 -0.2129 -0.6294  0.7362
  452MOL0     C62295   4.797   1.893   9.034 -0.6228 -0.6799  0.4717
  452MOL0     C62296   4.733   1.904   8.915 -1.1315  0.7632  0.3275
  452MOL0     O62297   4.724   1.807   8.820 -0.2880  0.4523  0.4992
  452MOL0     C62298   4.787   1.674   8.838 -0.4040  0.4929 -0.2040
  452MOL0     C62299   4.835   1.596   8.719 -1.2565  0.4622 -0.5327
  452MOL0     C62300   4.731   1.597   8.615  0.2147  0.0878 -0.1064
  452MOL0     C62301   4.747   1.473   8.524 -0.1056 -0.0562 -1.7315
  452MOL0     C62302   4.648   1.466   8.413  0.3037  0.9869  0.0889
  452MOL0     C62303   4.580   1.456   8.310  0.5783  0.2443 -0.2622
  452MOL0     C62304   4.681   2.018   8.876 -0.5856 -0.2901  0.3267
  452MOL0     C62305   4.687   2.136   8.959 -1.0582  1.3219 -1.0035
  452MOL0     C62306   4.630   2.264   8.913  0.2979 -0.3016 -1.2825
  452MOL0     H62307   5.041   2.366   9.391 -1.5221  1.0949 -2.1223
  452MOL0     H62308   5.036   2.512   9.570  1.4966 -2.7945 -0.0269
  452MOL0     H62309   4.994   2.730   9.712  1.5322 -1.2665  0.4463
  452MOL0     H62310   4.993   2.580   9.804  1.0802  0.9805 -0.2946
  452MOL0     H62311   4.807   2.680   9.958 -1.0952 -0.0542 -0.5188
  452MOL0     H62312   4.951   2.763   9.959 -0.6046 -2.9497 -0.8312
  452MOL0     H62313   4.882   2.940   9.816  0.7670 -0.4802 -1.9324
  452MOL0     H62314   4.761   2.844   9.741 -2.9812  0.8461  0.9829
  452MOL0     H62315   4.642   2.827   9.971  0.1983  1.5943  2.4741
  452MOL0     H62316   4.755   2.951  10.027  3.0937  1.2634 -2.0226
  452MOL0     H62317   4.571   2.975   9.787  2.7420  0.0521 -0.8396
  452MOL0     H62318   4.671   3.111   9.861 -0.7417  0.5451  0.7178
  452MOL0     H62319   4.479   2.956  10.029  1.2412  1.6874  1.1087
  452MOL0     H62320   4.573   3.086  10.066  2.1626 -3.9229  0.1002
  452MOL0     H62321   4.345   3.169  10.035  1.7752 -0.4672  1.7948
  452MOL0     H62322   4.324   3.051   9.911 -0.6285  2.2237 -2.0017
  452MOL0     H62323   4.508   3.265   9.817  0.1497 -0.6887  1.4919
  452MOL0     H62324   4.386   3.176   9.744  0.7608 -0.4998  0.0863
  452MOL0     H62325   4.435   3.539   9.817 -0.4631  2.3693  3.0814
  452MOL0     H62326   4.200   3.716   9.730 -0.3826 -3.2004 -0.9846
  452MOL0     H62327   4.288   3.739   9.879  0.8452 -1.8684  0.5611
  452MOL0     H62328   3.993   3.688   9.854 -0.0061 -1.0367  0.1247
  452MOL0     H62329   4.076   3.688  10.008 -0.5349  1.5419  0.0528
  452MOL0     H62330   4.145   3.922   9.959  0.0291  1.4616 -1.8501
  452MOL0     H62331   4.054   3.913   9.807  0.0652 -1.8998 -2.1803
  452MOL0     H62332   3.844   3.889   9.920  0.4589  1.0777 -3.2530
  452MOL0     H62333   3.919   3.877  10.083 -0.4039 -0.1131 -1.7056
  452MOL0     H62334   3.785   4.240   9.828  1.8898  2.0326  0.9854
  452MOL0     H62335   3.637   4.496   9.876 -1.3402  1.0006  0.7127
  452MOL0     H62336   3.472   4.417   9.865  0.5508  0.0599 -0.5131
  452MOL0     H62337   3.618   4.365   9.765  0.5631  1.4418 -0.2926
  452MOL0     H62338   3.256   4.455  10.372  1.3056 -0.7346 -0.6814
  452MOL0     H62339   3.028   4.517  10.409 -0.4725  2.4762 -0.0100
  452MOL0     H62340   2.753   4.524  10.061 -0.7132  0.2436  1.3454
  452MOL0     H62341   2.727   4.354  10.072 -0.5256 -1.2489  0.9628
  452MOL0     H62342   2.598   4.580  10.245  2.9609  1.6019 -3.0429
  452MOL0     H62343   2.513   4.509  10.103 -0.0758  2.0656  0.7326
  452MOL0     H62344   2.613   4.337  10.337  2.1859  0.6036 -0.1864
  452MOL0     H62345   2.516   4.290  10.192  0.8597  0.8465 -0.7437
  452MOL0     H62346   2.329   4.373  10.270  0.3234  1.7545 -0.1058
  452MOL0     H62347   2.392   4.494  10.386 -2.0508 -0.7505  3.1828
  452MOL0     H62348   2.455   4.328  10.523 -2.5252  5.0431 -0.7735
  452MOL0     H62349   2.284   4.316  10.488  1.2972  6.2929  1.2198
  452MOL0     H62350   2.514   4.141  10.372 -1.0499  3.5345 -1.9379
  452MOL0     H62351   2.338   4.110  10.358  1.2508 -3.7131  0.0401
  452MOL0     H62352   2.314   4.062  10.594 -0.3372  0.1445  0.6064
  452MOL0     H62353   2.493   4.107  10.617  1.6013  0.2620 -1.6423
  452MOL0     H62354   2.378   3.883  10.450  0.1494  0.0086 -0.1493
  452MOL0     H62355   2.426   3.868  10.611  0.0191 -0.4276  0.2154
  452MOL0     H62356   2.937   4.281  10.041  0.8756 -3.6101  0.1880
  452MOL0     H62357   3.169   4.205  10.046  2.9899  2.2678 -0.3875
  452MOL0     H62358   3.567   4.158  10.255  1.4769  2.0831  1.3055
  452MOL0     H62359   3.775   4.049  10.216 -2.1378  0.7534  1.0920
  452MOL0     H62360   4.618   2.463   9.617  0.3028 -3.7831  1.1861
  452MOL0     H62361   4.616   2.290   9.444  1.5528 -2.4045 -2.1352
  452MOL0     H62362   4.869   1.977   9.206  2.3364  0.6749 -0.7235
  452MOL0     H62363   4.849   1.799   9.049  0.8161 -0.2932 -1.5687
  452MOL0     H62364   4.876   1.668   8.902 -0.9634 -2.7141  0.4374
  452MOL0     H62365   4.706   1.613   8.880 -0.5515  1.2170  0.5983
  452MOL0     H62366   4.858   1.492   8.742  0.8210  1.0349  0.1853
  452MOL0     H62367   4.921   1.642   8.670 -1.8676 -0.8002 -2.9731
  452MOL0     H62368   4.640   1.610   8.674  1.8121  0.6025  2.4001
  452MOL0     H62369   4.741   1.688   8.557 -0.3755  0.7159  0.7489
  452MOL0     H62370   4.746   1.373   8.569  1.7541  0.6557  0.0470
  452MOL0     H62371   4.849   1.486   8.487  0.3222 -0.5738 -0.7796
  452MOL0     H62372   4.525   1.454   8.219 -0.6691 -3.3670  0.4278
  452MOL0     H62373   4.629   2.012   8.781 -1.4797 -1.6459  0.8768
  452MOL0     H62374   4.706   2.331   8.872 -1.1992  1.0702 -1.9430
  452MOL0     H62375   4.560   2.241   8.832 -0.9901 -3.9051  0.6850
  452MOL0     H62376   4.572   2.304   8.996  2.6478 -1.5000  1.0725
  453MOL0     O62377   5.054   8.105   7.579  0.3875 -0.5167 -1.0051
  453MOL0     C62378   4.989   8.104   7.478  0.3379 -0.7423  1.5041
  453MOL0     O62379   4.923   7.994   7.427 -0.0449  0.8112  0.5274
  453MOL0     C62380   4.965   7.867   7.481  0.0759  0.1667 -0.3591
  453MOL0     C62381   5.003   7.773   7.386  0.2733 -0.4290  0.0442
  453MOL0     C62382   5.025   7.643   7.427  0.3498  0.1486  0.5889
  453MOL0     C62383   5.020   7.602   7.558  0.0833 -0.3024 -0.1565
  453MOL0     O62384   5.026   7.471   7.596 -0.1268 -0.4798 -0.2244
  453MOL0     C62385   5.118   7.396   7.522  0.3422 -0.6184 -0.3139
  453MOL0     C62386   5.143   7.272   7.610 -0.1410 -1.5366  0.1982
  453MOL0     C62387   5.246   7.275   7.726  0.0891 -0.4384 -0.1298
  453MOL0     C62388   5.268   7.414   7.784  0.9645  0.0849  1.2747
  453MOL0     C62389   5.371   7.419   7.902 -0.1496  0.1609 -0.8131
  453MOL0     C62390   5.413   7.564   7.943 -0.0938 -0.5914  0.7478
  453MOL0     C62391   5.304   7.677   7.927 -0.2204  0.7209  0.9140
  453MOL0     C62392   5.350   7.811   7.982 -0.3217 -0.1359 -0.3980
  453MOL0     N62393   5.249   7.905   8.025  0.3121  0.7640 -0.1845
  453MOL0     C62394   5.209   8.005   7.937  0.4605 -0.4217  0.0964
  453MOL0     C62395   5.114   8.074   8.001  0.6626 -0.2353 -0.1634
  453MOL0     C62396   5.037   8.183   7.955  0.7105 -0.2154  0.1709
  453MOL0     C62397   5.038   8.298   8.059  0.2620  0.2678  0.2762
  453MOL0     C62398   5.172   8.352   8.115 -0.7957 -0.6997 -0.2938
  453MOL0     C62399   5.159   8.496   8.136  0.4956  0.3921 -1.2933
  453MOL0     O62400   5.095   8.506   8.263 -0.3235  0.7553  0.4052
  453MOL0     C62401   5.160   8.594   8.347 -1.0597  0.8320  1.3221
  453MOL0     C62402   5.184   8.544   8.475  0.0435  0.7434  0.3091
  453MOL0     C62403   5.253   8.628   8.566  0.0228  0.9596 -0.1782
  453MOL0     C62404   5.280   8.576   8.709  0.3667  0.5756 -0.7071
  453MOL0     C62405   5.269   8.764   8.544  0.1068  1.0978  0.4187
  453MOL0     C62406   5.317   8.855   8.645  0.7894 -0.6538 -0.2619
  453MOL0     O62407   5.393   8.957   8.600  0.2690 -0.2123  0.5267
  453MOL0     C62408   5.428   9.071   8.677 -0.1859 -0.0912 -0.2077
  453MOL0     C62409   5.322   9.137   8.753 -0.7571  0.5959 -0.1852
  453MOL0     C62410   5.354   9.237   8.852 -0.3381  0.6197 -1.2181
  453MOL0     C62411   5.485   9.286   8.870  0.6575  0.8396 -0.1417
  453MOL0     O62412   5.500   9.385   8.962  0.4758 -0.7354  0.0074
  453MOL0     C62413   5.616   9.470   8.960 -0.0955  0.2090 -0.2095
  453MOL0     C62414   5.577   9.608   9.006 -0.2698  0.4918 -0.7757
  453MOL0     C62415   5.492   9.691   8.909  0.0858 -0.5268  1.1958
  453MOL0     C62416   5.419   9.788   8.998  0.3662  0.7060 -0.1808
  453MOL0     C62417   5.324   9.865   8.922  0.5563 -0.1946  0.3968
  453MOL0     C62418   5.290   9.990   9.007 -0.2975  0.8709 -0.4444
  453MOL0     C62419   5.208  10.104   8.938 -0.0408 -0.1226 -0.1948
  453MOL0     C62420   5.293  10.183   8.838  0.3803  0.1553 -0.1634
  453MOL0    Cl62421   5.203  10.296   8.755  0.1425  0.1000  0.1320
  453MOL0     C62422   5.588   9.232   8.786 -1.1897  0.0963  0.2766
  453MOL0     C62423   5.555   9.123   8.693 -0.1446  0.1152 -0.9164
  453MOL0     O62424   5.277   8.843   8.761 -0.4838 -0.4848 -0.4358
  453MOL0     C62425   5.228   8.814   8.419  0.5120  0.1502 -0.1572
  453MOL0     C62426   5.189   8.725   8.317  0.9209 -0.7042 -0.1838
  453MOL0     N62427   5.094   8.014   8.121  0.3107 -0.1854 -0.6439
  453MOL0     N62428   5.185   7.921   8.136  0.4237  0.4870 -0.2582
  453MOL0     C62429   4.975   7.694   7.650  0.9016 -0.0617 -0.3695
  453MOL0     C62430   4.941   7.824   7.607  0.1626 -0.3774  0.3211
  453MOL0     C62431   4.967   8.225   7.386  0.4200 -0.1719  0.9265
  453MOL0     C62432   5.040   8.349   7.420 -0.2360  1.3812 -0.9376
  453MOL0     C62433   5.023   8.462   7.364  1.0096 -0.7788  0.6799
  453MOL0     C62434   4.934   8.484   7.265 -0.1894 -0.2565  0.5556
  453MOL0     O62435   4.900   8.610   7.205 -0.2671 -0.0332  0.4346
  453MOL0     C62436   4.878   8.722   7.299 -0.4630 -0.0870  0.5460
  453MOL0     C62437   4.881   8.844   7.218  0.9812 -1.3151  0.8807
  453MOL0     C62438   4.867   8.982   7.286  0.2129 -0.2125 -1.2812
  453MOL0     C62439   4.731   8.993   7.367  0.3404  0.4983 -0.4479
  453MOL0     C62440   4.710   9.127   7.422  0.2943 -1.2280  0.2883
  453MOL0     C62441   4.716   9.236   7.480 -0.0158  0.9025  0.7121
  453MOL0     C62442   4.874   8.373   7.216  0.0572 -0.1677 -1.0697
  453MOL0     C62443   4.878   8.239   7.274 -0.5086  1.2288 -0.3599
  453MOL0     C62444   4.780   8.140   7.230  0.0458  0.2737  0.7664
  453MOL0     H62445   5.017   7.803   7.283  1.4531 -1.7996 -0.2450
  453MOL0     H62446   5.053   7.584   7.340 -2.4155  1.3451 -1.2678
  453MOL0     H62447   5.213   7.443   7.495 -0.1868 -0.6363 -2.3017
  453MOL0     H62448   5.059   7.362   7.437 -1.3856 -2.3061  1.4377
  453MOL0     H62449   5.044   7.243   7.646 -1.4136  0.9903 -0.9994
  453MOL0     H62450   5.177   7.192   7.544  0.1836 -0.7753 -0.5719
  453MOL0     H62451   5.227   7.210   7.812 -2.3324 -0.0023 -0.2472
  453MOL0     H62452   5.341   7.244   7.683  0.7919  0.7077  0.5549
  453MOL0     H62453   5.301   7.485   7.707 -2.4384  1.1697  0.6376
  453MOL0     H62454   5.178   7.447   7.836 -0.3843  2.6287 -2.2806
  453MOL0     H62455   5.461   7.377   7.857  0.9594  2.3141 -0.7129
  453MOL0     H62456   5.335   7.358   7.985 -1.9043  0.2340 -1.4691
  453MOL0     H62457   5.444   7.568   8.047 -0.3942  0.0978  0.8153
  453MOL0     H62458   5.497   7.581   7.874  0.0263 -3.2375  0.1085
  453MOL0     H62459   5.223   7.650   7.995 -2.2179  5.0837  0.5870
  453MOL0     H62460   5.294   7.677   7.818  2.7150  3.0133  0.5156
  453MOL0     H62461   5.417   7.794   8.067  0.6352  2.2651 -0.6151
  453MOL0     H62462   5.403   7.859   7.899  1.0988 -0.4209  0.3081
  453MOL0     H62463   5.243   8.038   7.839 -1.1500  0.0711 -0.3461
  453MOL0     H62464   4.933   8.153   7.940 -0.1151  2.9487 -1.2358
  453MOL0     H62465   5.073   8.222   7.859 -1.6836  2.0437  0.0879
  453MOL0     H62466   4.981   8.380   8.015 -0.4491 -0.1853  0.3342
  453MOL0     H62467   4.986   8.255   8.145 -1.0794 -1.0464 -1.1158
  453MOL0     H62468   5.187   8.288   8.203 -2.7846 -3.7158 -1.9982
  453MOL0     H62469   5.252   8.334   8.042 -0.9346 -1.1536 -0.3378
  453MOL0     H62470   5.257   8.543   8.125  0.2645  2.1607  2.5472
  453MOL0     H62471   5.101   8.544   8.057  1.9477  2.5784 -1.1083
  453MOL0     H62472   5.163   8.443   8.508  3.5965  0.9312  3.8965
  453MOL0     H62473   5.286   8.467   8.712 -0.3434  0.5475  2.6055
  453MOL0     H62474   5.205   8.600   8.784  0.3032 -0.0061 -0.5794
  453MOL0     H62475   5.375   8.622   8.739  0.1755  0.9596 -0.6764
  453MOL0     H62476   5.225   9.089   8.747 -0.7912  0.6692 -0.2111
  453MOL0     H62477   5.278   9.282   8.915 -0.5998 -2.0195  0.5059
  453MOL0     H62478   5.689   9.426   9.029  0.8178  2.8532  0.6688
  453MOL0     H62479   5.652   9.479   8.857 -1.1607 -1.9722 -0.8316
  453MOL0     H62480   5.546   9.604   9.111 -0.2145  4.2096 -0.4888
  453MOL0     H62481   5.676   9.654   9.017 -1.6378  2.9955  5.1053
  453MOL0     H62482   5.412   9.635   8.859 -0.0127 -0.7162  1.5614
  453MOL0     H62483   5.561   9.744   8.843  1.3663  0.8751  3.5480
  453MOL0     H62484   5.492   9.852   9.048  0.0838  0.6404  0.3203
  453MOL0     H62485   5.356   9.737   9.072 -1.0603 -0.3791 -2.0360
  453MOL0     H62486   5.367   9.902   8.829  0.4619  2.0062  1.1802
  453MOL0     H62487   5.234   9.804   8.912  1.3463 -1.1994 -0.8498
  453MOL0     H62488   5.379  10.039   9.047  1.0134 -1.9496  0.2618
  453MOL0     H62489   5.248   9.953   9.101  0.6301  1.5468  0.2506
  453MOL0     H62490   5.178  10.185   9.005  0.0414  1.6902 -2.2241
  453MOL0     H62491   5.116  10.056   8.904 -1.8893 -0.8497  5.0186
  453MOL0     H62492   5.337  10.105   8.775  4.8257  0.7813  1.7916
  453MOL0     H62493   5.381  10.231   8.883  0.3052  3.6038 -3.2334
  453MOL0     H62494   5.690   9.267   8.792 -0.6588 -0.4438 -3.4269
  453MOL0     H62495   5.637   9.080   8.636  0.4372  0.7540 -0.5845
  453MOL0     H62496   5.239   8.921   8.403  0.3867  0.4234  1.4158
  453MOL0     H62497   5.174   8.781   8.226 -0.8396  0.9621  1.0491
  453MOL0     H62498   4.948   7.655   7.748 -3.0133 -0.1190 -1.3177
  453MOL0     H62499   4.900   7.895   7.678  1.3626  2.7609 -1.9169
  453MOL0     H62500   5.110   8.346   7.503 -1.1874 -3.0408 -0.0218
  453MOL0     H62501   5.086   8.544   7.397  3.8346 -1.1709 -3.0416
  453MOL0     H62502   4.786   8.713   7.357 -1.0785 -5.3473 -0.7399
  453MOL0     H62503   4.961   8.743   7.368 -0.5231  0.5480  0.4321
  453MOL0     H62504   4.796   8.831   7.149 -0.4171 -0.7084  2.4132
  453MOL0     H62505   4.961   8.858   7.144  0.8206  0.7037  1.0192
  453MOL0     H62506   4.946   9.001   7.359  0.4906  2.0268 -2.1017
  453MOL0     H62507   4.867   9.066   7.217 -2.2040 -0.7753 -2.0796
  453MOL0     H62508   4.724   8.927   7.454  0.4967 -2.0164 -2.2181
  453MOL0     H62509   4.646   8.957   7.308  0.1813 -0.7002  0.4835
  453MOL0     H62510   4.711   9.331   7.530 -1.9598  1.1748  0.0893
  453MOL0     H62511   4.794   8.397   7.147 -2.9180 -0.1048  2.1466
  453MOL0     H62512   4.702   8.179   7.163  1.8392 -1.1301 -2.3408
  453MOL0     H62513   4.822   8.059   7.170 -0.1561 -1.4621  2.8777
  453MOL0     H62514   4.734   8.086   7.313 -1.4552 -1.8224 -1.2892
  454MOL0     O62515   4.684   8.624   5.354 -0.9875  0.0276  0.5280
  454MOL0     C62516   4.653   8.707   5.438  0.4921 -0.9210  0.3878
  454MOL0     O62517   4.594   8.836   5.416  0.3679 -0.7536 -0.2016
  454MOL0     C62518   4.576   8.874   5.285  0.0770  1.0286  0.3711
  454MOL0     C62519   4.678   8.903   5.189  0.4510 -0.8571  1.8482
  454MOL0     C62520   4.646   8.952   5.058 -0.2028  0.7474 -0.9011
  454MOL0     C62521   4.506   8.952   5.024 -0.8917 -0.1010  0.1953
  454MOL0     O62522   4.477   8.998   4.897  0.4684 -0.0920  0.2876
  454MOL0     C62523   4.384   8.931   4.815  0.1337 -0.6016  0.1682
  454MOL0     C62524   4.312   9.041   4.739 -0.7459 -0.1870 -0.0622
  454MOL0     C62525   4.233   9.149   4.816  0.0928  0.0327 -0.3990
  454MOL0     C62526   4.088   9.094   4.841  0.0363  0.4570  0.6513
  454MOL0     C62527   4.009   9.184   4.938  0.2548  0.2528  0.4199
  454MOL0     C62528   3.876   9.141   4.959  1.3512 -0.2251 -0.2026
  454MOL0     C62529   3.790   9.099   4.835 -0.6604 -0.0823  0.6043
  454MOL0     C62530   3.755   9.230   4.759  0.6409 -0.3943  0.4221
  454MOL0     N62531   3.655   9.200   4.658 -0.0870  0.0068  0.0598
  454MOL0     C62532   3.532   9.148   4.703  0.1740 -0.4713 -0.3659
  454MOL0     C62533   3.454   9.141   4.592 -0.4262 -1.3978 -1.0380
  454MOL0     C62534   3.300   9.125   4.612  0.4735 -0.1374  0.3108
  454MOL0     C62535   3.269   8.988   4.671  0.6584  0.6798 -0.4732
  454MOL0     C62536   3.130   8.971   4.728 -0.2685  0.2440 -0.1391
  454MOL0     C62537   3.037   8.955   4.606  0.4051 -0.2532  0.3346
  454MOL0     O62538   2.901   8.954   4.650 -0.1697  0.2779  0.4825
  454MOL0     C62539   2.795   8.984   4.566  0.0177 -0.1504 -0.2648
  454MOL0     C62540   2.780   9.099   4.495  0.2584  0.2910 -0.2579
  454MOL0     C62541   2.685   9.110   4.396 -0.1015  0.2447  0.7247
  454MOL0     C62542   2.681   9.220   4.304  0.2573  0.2623 -0.3008
  454MOL0     C62543   2.611   8.992   4.366 -0.2323 -0.2929 -0.0526
  454MOL0     C62544   2.540   8.979   4.240 -0.5479  0.2124  0.5465
  454MOL0     O62545   2.443   9.071   4.216  0.4419  0.0555  0.0670
  454MOL0     C62546   2.375   9.086   4.098  0.6632  0.5464 -0.2644
  454MOL0     C62547   2.289   8.986   4.043 -0.3247  0.4829 -0.9577
  454MOL0     C62548   2.213   9.007   3.925  0.6488  0.1663  0.4279
  454MOL0     C62549   2.225   9.129   3.861 -0.0459 -0.2388 -0.2913
  454MOL0     O62550   2.157   9.167   3.752 -0.1146 -0.1880 -0.2416
  454MOL0     C62551   2.031   9.114   3.726  0.7057  0.0456  0.0828
  454MOL0     C62552   1.923   9.145   3.825  0.3781 -0.2197 -0.2339
  454MOL0     C62553   1.924   9.287   3.876 -0.5264 -0.3192  0.0798
  454MOL0     C62554   1.964   9.301   4.027  0.0838 -0.4374  0.4462
  454MOL0     C62555   1.943   9.446   4.066  1.3589 -0.3269 -0.7822
  454MOL0     C62556   1.926   9.467   4.221 -0.3358  0.5589  0.0322
  454MOL0     C62557   2.060   9.444   4.293  0.0322  0.0604  0.2037
  454MOL0     C62558   2.034   9.477   4.437  0.3306 -0.6635  0.7074
  454MOL0    Cl62559   1.961   9.346   4.539 -0.0337 -0.0088  0.0693
  454MOL0     C62560   2.308   9.225   3.919 -0.2825  0.0472 -0.6277
  454MOL0     C62561   2.381   9.209   4.028 -0.6883  0.6046  0.2432
  454MOL0     O62562   2.577   8.892   4.161  1.5178 -0.2301 -0.5558
  454MOL0     C62563   2.626   8.874   4.433  0.0584  0.0411  0.6445
  454MOL0     C62564   2.709   8.877   4.541  0.2390  0.1810  0.4538
  454MOL0     N62565   3.523   9.191   4.485 -0.6292 -0.0359  0.0774
  454MOL0     N62566   3.645   9.229   4.521 -0.0453 -0.0082 -0.3179
  454MOL0     C62567   4.412   8.900   5.114  0.7706  1.2620  0.1877
  454MOL0     C62568   4.447   8.864   5.241  0.6245  0.3103  0.0573
  454MOL0     C62569   4.680   8.664   5.577  0.3172 -0.1458  0.2090
  454MOL0     C62570   4.601   8.722   5.676  0.1941  0.0121 -0.7734
  454MOL0     C62571   4.615   8.679   5.811  0.1682  0.1991  0.7710
  454MOL0     C62572   4.711   8.585   5.854  0.7901  0.2199  0.4415
  454MOL0     O62573   4.719   8.564   5.992 -0.0431  0.0297 -0.1432
  454MOL0     C62574   4.825   8.486   6.045  0.7075 -0.4890  0.6074
  454MOL0     C62575   4.867   8.550   6.185 -0.8141  0.3681  0.1989
  454MOL0     C62576   4.799   8.489   6.312 -0.3305 -0.4178  0.5858
  454MOL0     C62577   4.650   8.535   6.321  0.5238 -0.2726 -0.0906
  454MOL0     C62578   4.600   8.510   6.454  0.0935  1.3008  1.2786
  454MOL0     C62579   4.550   8.493   6.561 -0.4956  0.3124  0.1074
  454MOL0     C62580   4.783   8.526   5.749 -0.6736  0.4894 -0.4210
  454MOL0     C62581   4.767   8.557   5.613  0.1369  0.5220 -1.4280
  454MOL0     C62582   4.860   8.482   5.513 -0.3496  0.4275  0.2411
  454MOL0     H62583   4.783   8.902   5.216 -0.0227 -0.2351  3.8744
  454MOL0     H62584   4.723   9.008   5.004 -0.2258  2.9775  1.2030
  454MOL0     H62585   4.313   8.865   4.864 -1.0152 -0.3642 -1.1193
  454MOL0     H62586   4.444   8.872   4.745  4.4960  3.5499 -0.0715
  454MOL0     H62587   4.384   9.105   4.686 -1.0541  0.8348  0.7148
  454MOL0     H62588   4.252   8.990   4.664 -2.2755  1.6756 -0.1945
  454MOL0     H62589   4.287   9.158   4.911  2.3093  4.6912 -1.7757
  454MOL0     H62590   4.229   9.249   4.773 -0.0810  0.1884 -0.0315
  454MOL0     H62591   4.036   9.091   4.745  2.8933  1.0386 -1.0289
  454MOL0     H62592   4.084   8.991   4.876 -3.2835 -0.1185 -1.1125
  454MOL0     H62593   4.002   9.289   4.907 -0.5243  0.5454  1.5104
  454MOL0     H62594   4.056   9.174   5.036 -1.6103  0.0272  1.3370
  454MOL0     H62595   3.877   9.058   5.031  0.0814  1.5009  1.9059
  454MOL0     H62596   3.820   9.224   5.003  1.4601 -0.5000  0.4719
  454MOL0     H62597   3.698   9.048   4.865 -1.4287 -1.7921 -3.9351
  454MOL0     H62598   3.851   9.032   4.774  0.6681  1.3469  0.3078
  454MOL0     H62599   3.718   9.308   4.826  0.4352 -1.0484  1.0930
  454MOL0     H62600   3.849   9.267   4.717 -0.3079  1.4284 -0.1794
  454MOL0     H62601   3.508   9.120   4.805 -2.7152 -2.2514 -1.4339
  454MOL0     H62602   3.258   9.111   4.513 -1.0111 -4.9251  1.3850
  454MOL0     H62603   3.253   9.210   4.662 -1.4459 -2.4132  2.6001
  454MOL0     H62604   3.277   8.921   4.585 -3.1140 -0.6944  0.0468
  454MOL0     H62605   3.344   8.962   4.746 -0.2693 -0.1764  0.1871
  454MOL0     H62606   3.115   8.890   4.800 -3.1583 -1.1255 -2.0827
  454MOL0     H62607   3.105   9.058   4.789 -1.2615  0.6516 -1.0906
  454MOL0     H62608   3.058   9.040   4.540 -0.9637  0.4816  0.8049
  454MOL0     H62609   3.061   8.860   4.557  0.7705  0.1976 -0.3790
  454MOL0     H62610   2.859   9.173   4.501  1.4085 -0.9110 -0.0310
  454MOL0     H62611   2.648   9.209   4.200  2.8539  0.8076 -1.2565
  454MOL0     H62612   2.782   9.254   4.280 -1.2210  5.5124 -0.2696
  454MOL0     H62613   2.646   9.311   4.353  0.7157  0.4731 -0.3583
  454MOL0     H62614   2.300   8.887   4.086  0.2386  0.7991 -0.3618
  454MOL0     H62615   2.140   8.932   3.897 -0.5797 -0.0875  3.8537
  454MOL0     H62616   1.996   9.158   3.633  2.2017  1.6189  0.2165
  454MOL0     H62617   2.027   9.006   3.712 -2.7297  0.2536 -1.5855
  454MOL0     H62618   1.821   9.127   3.790  0.4804 -1.2778 -0.0188
  454MOL0     H62619   1.928   9.079   3.912  0.3881 -0.2018 -0.2206
  454MOL0     H62620   1.824   9.330   3.867 -0.6656 -0.6869 -0.1692
  454MOL0     H62621   1.991   9.350   3.817  1.3600  0.6816  3.0350
  454MOL0     H62622   2.065   9.272   4.057  2.2846  3.8156 -1.9402
  454MOL0     H62623   1.896   9.247   4.094 -2.3171  0.3509 -1.2449
  454MOL0     H62624   2.028   9.511   4.044  0.9105  1.4348  2.1135
  454MOL0     H62625   1.853   9.486   4.017  0.3455  1.9545  2.5736
  454MOL0     H62626   1.843   9.415   4.269 -1.0103 -0.1858 -1.8515
  454MOL0     H62627   1.887   9.567   4.243  0.2714  1.1349 -1.3818
  454MOL0     H62628   2.137   9.510   4.250  2.2038  2.0691  6.2028
  454MOL0     H62629   2.097   9.342   4.291  0.1067  0.0220  2.0335
  454MOL0     H62630   1.967   9.563   4.446  0.1583 -0.8103  0.8301
  454MOL0     H62631   2.134   9.500   4.475  0.4345  1.0443 -0.4867
  454MOL0     H62632   2.339   9.319   3.873 -0.1562  0.5661  0.4813
  454MOL0     H62633   2.462   9.266   4.073 -0.1824 -2.5241  3.8379
  454MOL0     H62634   2.570   8.785   4.406  0.0815  0.0004  0.7329
  454MOL0     H62635   2.706   8.783   4.594 -1.1153 -0.7889 -1.2309
  454MOL0     H62636   4.305   8.911   5.096 -0.2668 -1.3097  3.5718
  454MOL0     H62637   4.371   8.842   5.315  1.8561  2.6636  2.1608
  454MOL0     H62638   4.542   8.809   5.650  3.7141  1.8176 -3.8879
  454MOL0     H62639   4.551   8.718   5.889 -2.0729  0.9856 -1.3408
  454MOL0     H62640   4.810   8.380   6.064  1.2853 -0.4302  1.4487
  454MOL0     H62641   4.911   8.494   5.978 -1.2044  0.5678 -1.8887
  454MOL0     H62642   4.855   8.658   6.172  1.3462  0.6694  0.3454
  454MOL0     H62643   4.976   8.543   6.191 -0.7188 -0.3769 -1.6142
  454MOL0     H62644   4.797   8.382   6.292  0.1728 -0.4858  0.9083
  454MOL0     H62645   4.861   8.523   6.396  2.3671  1.1734 -1.8575
  454MOL0     H62646   4.592   8.485   6.244  0.4524  0.0802 -0.2681
  454MOL0     H62647   4.644   8.642   6.302 -2.6215 -0.2578  0.5238
  454MOL0     H62648   4.515   8.478   6.661 -1.2187 -1.7918 -0.4032
  454MOL0     H62649   4.856   8.456   5.789 -0.8268  1.5891  1.9095
  454MOL0     H62650   4.907   8.551   5.443  0.2303  2.0600  2.1237
  454MOL0     H62651   4.942   8.455   5.580 -0.4415  0.1609  0.2486
  454MOL0     H62652   4.807   8.399   5.465 -0.4835 -0.4128  1.7530
  455MOL0     O62653  10.943   0.614  10.045 -0.0358 -0.6321  0.3347
  455MOL0     C62654  10.827   0.591  10.038  0.1243 -0.3003 -0.2762
  455MOL0     O62655  10.750   0.595   9.922  0.0242  0.8352  0.0458
  455MOL0     C62656  10.805   0.627   9.807 -0.5262  0.3663  0.5372
  455MOL0     C62657  10.919   0.552   9.769 -0.3874 -0.3669  0.3275
  455MOL0     C62658  10.984   0.576   9.649  0.3326  0.3077 -0.7884
  455MOL0     C62659  10.943   0.679   9.571 -0.3916 -0.1944  0.2094
  455MOL0     O62660  11.018   0.719   9.465 -0.3633  0.2567  0.4748
  455MOL0     C62661  10.973   0.672   9.338  0.6287  0.3034  0.4026
  455MOL0     C62662  11.012   0.528   9.319 -0.3039 -0.5738  0.4387
  455MOL0     C62663  10.920   0.472   9.215  0.8528  0.1809 -0.6849
  455MOL0     C62664  10.954   0.336   9.161 -0.0106 -0.4634 -1.4354
  455MOL0     C62665  10.875   0.291   9.036 -0.4499 -0.0125 -0.6920
  455MOL0     C62666  10.959   0.243   8.912  0.4262  0.8794 -0.5579
  455MOL0     C62667  10.852   0.185   8.812 -0.2923 -0.8650 -0.5358
  455MOL0     C62668  10.929   0.120   8.699  0.0376  0.2437 -0.1212
  455MOL0     N62669  11.002   0.218   8.626  0.4458 -0.5585  0.3224
  455MOL0     C62670  11.135   0.240   8.617 -0.0715  0.2092  0.8442
  455MOL0     C62671  11.158   0.364   8.566  0.4005  0.1276 -1.4253
  455MOL0     C62672  11.298   0.423   8.545 -0.1797  0.4250  1.2187
  455MOL0     C62673  11.393   0.331   8.469  0.5901  0.0346 -0.7958
  455MOL0     C62674  11.339   0.264   8.340 -0.5008  0.0242 -0.3030
  455MOL0     C62675  11.435   0.275   8.219  0.2509  1.1302  0.7370
  455MOL0     O62676  11.373   0.208   8.101  0.0799  0.5930  0.2720
  455MOL0     C62677  11.396   0.075   8.068 -0.3762  0.4901  0.2110
  455MOL0     C62678  11.474  -0.013   8.140 -0.1882  0.3091 -0.7793
  455MOL0     C62679  11.475  -0.148   8.100 -0.2964  0.3409 -0.9778
  455MOL0     C62680  11.544  -0.245   8.187 -0.2461  0.7846  0.2976
  455MOL0     C62681  11.428  -0.194   7.977  0.5648 -0.3620  0.3476
  455MOL0     C62682  11.453  -0.327   7.918  0.2267 -0.2275  0.1119
  455MOL0     O62683  11.523  -0.332   7.802  0.2955  0.2119 -0.2459
  455MOL0     C62684  11.539  -0.456   7.747 -1.1358  0.3254  0.0285
  455MOL0     C62685  11.432  -0.515   7.677 -0.5578 -0.6004 -0.3555
  455MOL0     C62686  11.464  -0.627   7.590 -0.4021  0.2956 -0.8951
  455MOL0     C62687  11.592  -0.675   7.581 -0.6330 -0.8719 -1.2402
  455MOL0     O62688  11.620  -0.780   7.507  0.6515  0.1482  0.6374
  455MOL0     C62689  11.676  -0.891   7.586  0.9295 -0.6486  0.2807
  455MOL0     C62690  11.631  -1.015   7.504  0.2781 -0.6517 -0.4849
  455MOL0     C62691  11.480  -1.056   7.496 -0.1331 -0.2765  0.3771
  455MOL0     C62692  11.382  -1.020   7.611 -0.2848  0.0812  0.6014
  455MOL0     C62693  11.246  -1.079   7.604  0.3227  0.2687  0.4149
  455MOL0     C62694  11.152  -1.059   7.720  0.2076 -0.7604  0.2020
  455MOL0     C62695  11.016  -1.116   7.682  0.4235  0.7376  0.7430
  455MOL0     C62696  10.935  -1.056   7.576 -0.6982 -0.1080 -0.6851
  455MOL0    Cl62697  10.757  -1.109   7.599 -0.1225  0.4330 -0.4270
  455MOL0     C62698  11.693  -0.618   7.666 -0.4168  0.3356  0.6946
  455MOL0     C62699  11.670  -0.503   7.739 -0.1688 -0.0570 -0.4254
  455MOL0     O62700  11.409  -0.424   7.986 -0.6660  0.1390  0.6622
  455MOL0     C62701  11.346  -0.096   7.904 -0.3340 -0.1616 -0.1242
  455MOL0     C62702  11.326   0.033   7.951  0.2183 -2.0431  0.2140
  455MOL0     N62703  11.036   0.431   8.568 -0.2873 -0.6062 -0.0788
  455MOL0     N62704  10.948   0.342   8.592 -0.9847  1.2028 -0.0695
  455MOL0     C62705  10.828   0.751   9.612 -0.8352  0.4334  0.6252
  455MOL0     C62706  10.759   0.720   9.725 -0.6589  0.1001  1.0150
  455MOL0     C62707  10.749   0.590  10.176  0.1904 -0.4924 -0.1075
  455MOL0     C62708  10.611   0.576  10.163 -0.8414 -0.2985  1.0048
  455MOL0     C62709  10.524   0.579  10.268 -0.9178 -0.5379 -1.1474
  455MOL0     C62710  10.562   0.607  10.402  0.1067  0.7173  0.5831
  455MOL0     O62711  10.470   0.602  10.511  0.4395 -0.6926 -0.1280
  455MOL0     C62712  10.360   0.510  10.501  0.4229  0.7064  0.1443
  455MOL0     C62713  10.252   0.534  10.602 -0.2525  0.3579  0.2225
  455MOL0     C62714  10.209   0.685  10.610  0.5463  0.0672  0.1120
  455MOL0     C62715  10.307   0.788  10.657 -1.0258 -0.0459  0.4059
  455MOL0     C62716  10.240   0.883  10.746 -0.3096 -0.7412 -0.8944
  455MOL0     C62717  10.172   0.951  10.823  0.1436  0.4121 -0.4328
  455MOL0     C62718  10.701   0.622  10.422  0.2104  0.0307 -0.0271
  455MOL0     C62719  10.786   0.628  10.309  0.1153 -0.3837  0.1093
  455MOL0     C62720  10.924   0.664  10.335 -0.9350 -0.1518 -0.3125
  455MOL0     H62721  10.964   0.468   9.821  5.1218  0.0923 -2.9257
  455MOL0     H62722  11.065   0.512   9.617  2.4936  3.3646 -1.9533
  455MOL0     H62723  11.008   0.729   9.251 -2.3671 -0.9232 -1.7918
  455MOL0     H62724  10.863   0.677   9.333  0.5296 -1.1703  0.7664
  455MOL0     H62725  11.118   0.529   9.289 -1.0551  0.5188 -2.6574
  455MOL0     H62726  11.003   0.467   9.408  4.3536 -5.7185 -1.9885
  455MOL0     H62727  10.816   0.453   9.245 -1.6505  3.1619 -5.9405
  455MOL0     H62728  10.905   0.541   9.132 -1.2706  0.2548 -0.3053
  455MOL0     H62729  11.063   0.338   9.151  0.2732  2.2305  1.0089
  455MOL0     H62730  10.935   0.261   9.239  2.1953  0.8094  0.4708
  455MOL0     H62731  10.806   0.373   9.015 -1.3156 -0.0939  1.5935
  455MOL0     H62732  10.809   0.210   9.068  0.1066 -0.0243  0.4978
  455MOL0     H62733  11.033   0.315   8.877  2.5691 -1.3042 -0.7487
  455MOL0     H62734  11.016   0.152   8.929 -1.7335 -0.7442 -1.4701
  455MOL0     H62735  10.793   0.269   8.774 -2.5148 -1.4521  1.3663
  455MOL0     H62736  10.795   0.103   8.858  0.6552 -0.2492  1.9024
  455MOL0     H62737  10.985   0.043   8.752 -0.9796  1.6899  3.3200
  455MOL0     H62738  10.857   0.079   8.627 -0.9226 -0.0259  0.9545
  455MOL0     H62739  11.205   0.159   8.636 -2.1243 -1.5652  1.2762
  455MOL0     H62740  11.345   0.469   8.633 -0.1341  2.6510  0.0984
  455MOL0     H62741  11.283   0.506   8.475 -0.4217 -0.5101  0.1447
  455MOL0     H62742  11.484   0.382   8.438 -0.9311  2.1514 -2.0579
  455MOL0     H62743  11.416   0.252   8.541  0.4129  0.0365 -0.7353
  455MOL0     H62744  11.339   0.155   8.352 -2.5635  0.0573  0.5125
  455MOL0     H62745  11.239   0.296   8.309  0.4130  2.5998 -0.8381
  455MOL0     H62746  11.437   0.377   8.180  3.8476  1.5682  1.6900
  455MOL0     H62747  11.536   0.239   8.241  0.3430  0.7460 -0.2544
  455MOL0     H62748  11.537   0.017   8.222  3.3199  0.6283 -3.3732
  455MOL0     H62749  11.468  -0.299   8.244  1.7138 -4.5685 -1.5349
  455MOL0     H62750  11.622  -0.198   8.248  1.2229  1.3149 -1.8874
  455MOL0     H62751  11.586  -0.322   8.121 -2.4565 -0.3981  0.1383
  455MOL0     H62752  11.332  -0.471   7.679 -1.2650 -2.1344 -0.2425
  455MOL0     H62753  11.389  -0.670   7.524 -2.2779  2.3683 -0.2220
  455MOL0     H62754  11.784  -0.886   7.597  1.0587 -2.4878  0.1767
  455MOL0     H62755  11.633  -0.889   7.686 -1.4977 -1.3435 -0.6450
  455MOL0     H62756  11.658  -0.993   7.400 -1.2217  3.2107 -0.2320
  455MOL0     H62757  11.678  -1.101   7.552  0.1483 -0.0706  0.7166
  455MOL0     H62758  11.473  -1.162   7.471  0.3400 -0.8211  2.3848
  455MOL0     H62759  11.436  -0.995   7.416 -0.9657 -0.1391  0.9208
  455MOL0     H62760  11.372  -0.911   7.615 -1.5191 -0.0159  0.6407
  455MOL0     H62761  11.430  -1.053   7.704  2.9970 -0.9839 -1.3295
  455MOL0     H62762  11.197  -1.050   7.510 -1.7864 -0.9512  1.0847
  455MOL0     H62763  11.261  -1.186   7.589  4.1157  0.5338  1.3415
  455MOL0     H62764  11.148  -0.951   7.737  1.5957 -0.8445  1.1651
  455MOL0     H62765  11.190  -1.107   7.810 -2.3325 -1.0627  1.1950
  455MOL0     H62766  10.960  -1.126   7.775 -2.5489  2.1212 -0.7711
  455MOL0     H62767  11.021  -1.218   7.642  0.4934  1.8627 -2.3827
  455MOL0     H62768  10.974  -1.086   7.479  0.1451 -1.1270 -0.0592
  455MOL0     H62769  10.937  -0.950   7.602  0.8637 -0.1721 -0.4729
  455MOL0     H62770  11.796  -0.651   7.657  0.2538  2.7886 -2.4535
  455MOL0     H62771  11.743  -0.458   7.805 -0.0388 -3.2845  1.8304
  455MOL0     H62772  11.313  -0.119   7.803 -3.1190  0.0085  0.6894
  455MOL0     H62773  11.253   0.098   7.905  0.6489 -0.1366  2.1030
  455MOL0     H62774  10.801   0.819   9.532  0.9194 -1.1653 -1.4826
  455MOL0     H62775  10.670   0.776   9.752 -1.6144 -1.7973  2.0174
  455MOL0     H62776  10.572   0.569  10.062  2.4191  1.9967 -0.5756
  455MOL0     H62777  10.417   0.576  10.249 -1.7661  1.2887  2.4282
  455MOL0     H62778  10.313   0.530  10.404  1.2384  0.9734 -0.2003
  455MOL0     H62779  10.394   0.405  10.504 -0.4815  0.4242  0.8195
  455MOL0     H62780  10.287   0.514  10.704 -0.7774 -1.9323  0.0250
  455MOL0     H62781  10.164   0.471  10.584 -1.1231  1.1210  1.7062
  455MOL0     H62782  10.145   0.708  10.524 -2.0588 -1.8140  1.4243
  455MOL0     H62783  10.130   0.672  10.685  2.4831 -3.8826  1.7501
  455MOL0     H62784  10.368   0.837  10.581  0.3704  0.1772  1.6342
  455MOL0     H62785  10.377   0.744  10.728  0.8924  2.3915  0.1601
  455MOL0     H62786  10.099   1.018  10.863 -0.6891  0.5787 -2.1795
  455MOL0     H62787  10.742   0.647  10.519  1.8665 -1.3814 -0.3028
  455MOL0     H62788  10.950   0.671  10.441 -2.7639  0.6478  0.1133
  455MOL0     H62789  10.991   0.596  10.281  0.7577  2.4402 -1.7179
  455MOL0     H62790  10.945   0.763  10.294 -1.0893 -0.5570 -1.4106
  456MOL0     O62791   3.995   5.910   9.887 -0.0165  0.4015 -0.2570
  456MOL0     C62792   4.114   5.909   9.902  0.5327 -0.2381  0.9782
  456MOL0     O62793   4.200   5.924   9.794 -0.0625 -0.0804  0.2681
  456MOL0     C62794   4.159   5.981   9.678 -0.2677 -0.5023  0.0773
  456MOL0     C62795   4.084   6.092   9.674  0.7349 -0.6869  0.4836
  456MOL0     C62796   4.046   6.154   9.548 -0.4846  0.8878 -0.1741
  456MOL0     C62797   4.066   6.074   9.431  0.3137 -0.0595 -0.0278
  456MOL0     O62798   4.019   6.120   9.306  0.3754 -0.3140  0.7016
  456MOL0     C62799   3.877   6.086   9.287 -1.1160  0.6624 -0.3459
  456MOL0     C62800   3.825   6.154   9.156 -0.5079 -0.0671 -0.9073
  456MOL0     C62801   3.759   6.287   9.183 -0.2853 -0.0313 -0.0379
  456MOL0     C62802   3.853   6.403   9.218  0.2455 -0.3188  0.1858
  456MOL0     C62803   3.788   6.546   9.222  0.8305  0.1119 -0.5281
  456MOL0     C62804   3.880   6.641   9.299  0.1001 -0.1734  0.1762
  456MOL0     C62805   4.003   6.670   9.206  0.2349 -0.4639 -0.4927
  456MOL0     C62806   4.116   6.716   9.297  0.3710 -0.8557  0.0808
  456MOL0     N62807   4.094   6.852   9.342  0.2091  0.7918 -0.3247
  456MOL0     C62808   4.105   6.967   9.268 -0.1396  1.0331 -0.0308
  456MOL0     C62809   4.072   7.061   9.357 -0.4259  0.0975 -0.2511
  456MOL0     C62810   4.059   7.214   9.355  1.0899  0.4040  0.5665
  456MOL0     C62811   4.202   7.276   9.371  0.7005  0.8521  0.3637
  456MOL0     C62812   4.202   7.426   9.384 -0.5834 -0.2130  0.4923
  456MOL0     C62813   4.340   7.486   9.368  0.6789  0.4880 -0.0400
  456MOL0     O62814   4.406   7.420   9.475 -0.1785  0.1997 -0.3928
  456MOL0     C62815   4.529   7.454   9.501  0.2600  0.7880  0.0682
  456MOL0     C62816   4.602   7.558   9.433 -0.5016 -0.1307  0.6738
  456MOL0     C62817   4.728   7.609   9.481  0.2491 -0.2656 -0.1601
  456MOL0     C62818   4.780   7.740   9.418 -0.2267  0.0367 -0.7053
  456MOL0     C62819   4.792   7.547   9.593  0.0056  0.6007  0.0209
  456MOL0     C62820   4.913   7.585   9.653  0.1106 -0.1923  0.4671
  456MOL0     O62821   4.944   7.718   9.643  0.7145  0.0821  0.1786
  456MOL0     C62822   5.060   7.745   9.707 -0.2523 -0.6911  0.3754
  456MOL0     C62823   5.061   7.865   9.781  0.7849 -0.9065  0.0784
  456MOL0     C62824   5.179   7.891   9.853  0.0196 -0.1568  0.1113
  456MOL0     C62825   5.303   7.825   9.841  1.0576 -0.0263  0.5227
  456MOL0     O62826   5.418   7.880   9.906  0.1027 -0.1851 -0.3256
  456MOL0     C62827   5.554   7.821   9.901  0.6084  1.1490 -0.0707
  456MOL0     C62828   5.643   7.907   9.985 -0.1963 -0.0232 -0.6232
  456MOL0     C62829   5.656   8.047   9.938 -0.3121 -0.1570  0.4983
  456MOL0     C62830   5.741   8.145  10.028 -0.7498 -0.0067 -0.2783
  456MOL0     C62831   5.714   8.290   9.995  0.2634 -0.1041  0.0817
  456MOL0     C62832   5.785   8.382  10.100  1.0362  0.7894  0.4787
  456MOL0     C62833   5.775   8.527  10.047 -0.2724  0.8414 -0.0003
  456MOL0     C62834   5.628   8.583  10.071 -0.2990  0.4808 -0.1625
  456MOL0    Cl62835   5.619   8.766  10.094  0.2092 -0.1430 -0.0767
  456MOL0     C62836   5.308   7.706   9.772  0.1301  0.9517 -0.6277
  456MOL0     C62837   5.190   7.669   9.701  0.0732  0.5260  0.0302
  456MOL0     O62838   4.986   7.501   9.711  1.0732  0.4197  0.4959
  456MOL0     C62839   4.731   7.431   9.648  0.1440 -0.2602 -0.5198
  456MOL0     C62840   4.597   7.397   9.608  0.6199  0.7750  0.2439
  456MOL0     N62841   4.043   6.999   9.480 -0.9914  0.8200  0.0044
  456MOL0     N62842   4.057   6.876   9.468  0.1005  0.3069  0.0068
  456MOL0     C62843   4.138   5.956   9.439  0.7274 -0.0710  0.6006
  456MOL0     C62844   4.179   5.906   9.566 -0.5949 -0.2108  0.5257
  456MOL0     C62845   4.175   5.854  10.027  0.0352 -1.0356  0.0681
  456MOL0     C62846   4.317   5.832  10.024 -0.2598  0.0849  0.0649
  456MOL0     C62847   4.374   5.787  10.138 -0.3892 -1.4366  0.2908
  456MOL0     C62848   4.312   5.788  10.259 -0.0029 -0.1767  0.0307
  456MOL0     O62849   4.394   5.741  10.357 -0.2799 -0.1344 -0.0111
  456MOL0     C62850   4.367   5.799  10.495 -0.9868 -0.1188  0.4670
  456MOL0     C62851   4.419   5.943  10.508 -0.1968 -0.7790 -0.3129
  456MOL0     C62852   4.415   5.992  10.654  0.4660 -0.0254 -0.4517
  456MOL0     C62853   4.453   6.140  10.677 -0.4907 -0.4891  0.4155
  456MOL0     C62854   4.348   6.224  10.628 -0.4547 -1.1706  0.0530
  456MOL0     C62855   4.253   6.298  10.604 -1.4833  0.6284  0.2910
  456MOL0     C62856   4.173   5.825  10.265  0.6453  0.4664  0.1015
  456MOL0     C62857   4.101   5.844  10.150  0.0174 -0.5260 -0.3796
  456MOL0     C62858   3.947   5.878  10.165 -0.2556 -0.7030  0.3699
  456MOL0     H62859   4.055   6.146   9.764  1.8771  0.5976  0.1156
  456MOL0     H62860   3.994   6.248   9.539 -0.3899  1.3139  2.6600
  456MOL0     H62861   3.832   6.134   9.375  1.3584  0.4427  1.1237
  456MOL0     H62862   3.842   5.983   9.284 -4.1562  1.6252 -1.7219
  456MOL0     H62863   3.904   6.158   9.080  0.4920  2.2295  0.1490
  456MOL0     H62864   3.744   6.088   9.123  1.6210 -2.3675 -1.8941
  456MOL0     H62865   3.706   6.319   9.093  0.2278  1.4871  0.1830
  456MOL0     H62866   3.678   6.269   9.256 -2.4268  0.6745 -2.1049
  456MOL0     H62867   3.904   6.377   9.312 -0.0063  1.1142  0.7493
  456MOL0     H62868   3.930   6.404   9.140  0.0634  2.2025 -0.0317
  456MOL0     H62869   3.687   6.545   9.262  1.5401 -1.8588  1.3959
  456MOL0     H62870   3.766   6.581   9.120  0.5295 -1.2431 -0.9358
  456MOL0     H62871   3.843   6.744   9.299  2.1179  0.5980 -0.8306
  456MOL0     H62872   3.922   6.592   9.388  0.5408 -2.2206 -1.0720
  456MOL0     H62873   3.984   6.748   9.132  0.7177  0.8230  0.7040
  456MOL0     H62874   4.051   6.587   9.152  2.4844 -0.5881  1.5356
  456MOL0     H62875   4.133   6.650   9.383  1.0754 -2.7484 -1.4365
  456MOL0     H62876   4.209   6.714   9.240  2.7715 -4.2881  3.5573
  456MOL0     H62877   4.125   6.986   9.163 -0.6317  0.8131 -0.1685
  456MOL0     H62878   4.003   7.240   9.445  1.5833 -0.0420  1.0115
  456MOL0     H62879   4.005   7.251   9.268 -2.2768 -1.2934  1.7713
  456MOL0     H62880   4.245   7.235   9.463  0.8607  1.4689  0.5653
  456MOL0     H62881   4.249   7.238   9.280  0.2063 -0.5071  0.6459
  456MOL0     H62882   4.124   7.459   9.314  0.2119  0.0253 -0.3105
  456MOL0     H62883   4.162   7.460   9.480  2.7648 -1.0621  2.3133
  456MOL0     H62884   4.379   7.468   9.268 -0.0402 -1.6431  0.0190
  456MOL0     H62885   4.327   7.594   9.385 -0.3723  0.1900  1.1890
  456MOL0     H62886   4.561   7.610   9.347 -3.2916 -3.7261 -0.4188
  456MOL0     H62887   4.796   7.817   9.495  1.0757 -2.7481  2.0201
  456MOL0     H62888   4.712   7.771   9.338  0.5657 -2.8561 -2.6664
  456MOL0     H62889   4.877   7.725   9.370  2.0511  0.6026  3.2454
  456MOL0     H62890   4.969   7.922   9.794  1.1957 -0.7307  2.9053
  456MOL0     H62891   5.162   7.983   9.907 -2.5803 -1.5885  1.9343
  456MOL0     H62892   5.542   7.725   9.952  0.0988  1.0560 -0.3541
  456MOL0     H62893   5.594   7.818   9.800 -1.4974 -0.3435 -0.9447
  456MOL0     H62894   5.612   7.904  10.090  1.3649 -1.2780 -0.1576
  456MOL0     H62895   5.746   7.870   9.981 -1.1663 -3.6706  2.0930
  456MOL0     H62896   5.557   8.091   9.921 -0.3667 -0.9054 -1.3487
  456MOL0     H62897   5.709   8.037   9.843  1.9279  2.2369  1.3617
  456MOL0     H62898   5.846   8.115  10.016 -0.5608  0.9836 -1.2168
  456MOL0     H62899   5.720   8.110  10.130 -2.6125 -1.6576 -1.1768
  456MOL0     H62900   5.742   8.298   9.890 -2.4212 -0.2453 -0.7221
  456MOL0     H62901   5.608   8.318  10.001  0.0454 -1.0778  1.0026
  456MOL0     H62902   5.887   8.345  10.112  1.4123  1.6567  0.0272
  456MOL0     H62903   5.725   8.368  10.190 -1.0849  1.4462 -0.7436
  456MOL0     H62904   5.807   8.530   9.942  0.3943 -1.2802  0.0887
  456MOL0     H62905   5.845   8.589  10.103 -1.7229  1.3207  1.3609
  456MOL0     H62906   5.590   8.534  10.162 -1.9550  1.5604 -0.2460
  456MOL0     H62907   5.556   8.557   9.993 -0.1105 -1.9980  0.3996
  456MOL0     H62908   5.390   7.636   9.765 -0.7822 -0.1797 -0.3800
  456MOL0     H62909   5.190   7.574   9.649  1.9059  1.4524 -1.7985
  456MOL0     H62910   4.770   7.375   9.732  0.9526  3.4283  1.7397
  456MOL0     H62911   4.540   7.317   9.655 -0.4332  2.0522  1.1972
  456MOL0     H62912   4.161   5.904   9.346 -1.9607  0.0766 -0.2337
  456MOL0     H62913   4.230   5.811   9.571 -3.1146 -1.7039 -0.0253
  456MOL0     H62914   4.380   5.849   9.938  0.1874  0.2687  0.4252
  456MOL0     H62915   4.482   5.781  10.129 -0.0542 -1.7251  3.4261
  456MOL0     H62916   4.261   5.806  10.520 -0.8238  3.2389  0.6245
  456MOL0     H62917   4.429   5.730  10.553  2.1666  0.2842 -2.1504
  456MOL0     H62918   4.347   6.016  10.469 -0.2202  0.3656  1.7555
  456MOL0     H62919   4.517   5.967  10.467 -1.3426  0.6440 -2.4018
  456MOL0     H62920   4.311   5.977  10.683  0.5559 -0.4832 -0.3589
  456MOL0     H62921   4.479   5.926  10.713  1.7716 -3.8249 -5.4282
  456MOL0     H62922   4.543   6.154  10.617 -0.3983 -0.0425  0.6612
  456MOL0     H62923   4.480   6.173  10.777  2.1616 -1.3986  0.0667
  456MOL0     H62924   4.180   6.376  10.593 -2.2232  0.1576  1.6184
  456MOL0     H62925   4.103   5.814  10.347 -2.8646 -1.1516 -2.8259
  456MOL0     H62926   3.889   5.792  10.129 -4.3586  0.6642  2.9807
  456MOL0     H62927   3.919   5.885  10.271 -3.0372  2.4105 -0.4099
  456MOL0     H62928   3.919   5.968  10.110  2.8971 -0.3018 -0.7588
  457MOL0     O62929   5.563   8.541  11.317  0.0898 -0.2558  0.1296
  457MOL0     C62930   5.648   8.598  11.248  0.7633  0.4830 -0.4967
  457MOL0     O62931   5.720   8.708  11.292 -0.6639  0.0045 -0.7131
  457MOL0     C62932   5.684   8.776  11.404 -0.0916 -0.8927 -0.7468
  457MOL0     C62933   5.676   8.725  11.539 -0.2231 -0.4688  0.6712
  457MOL0     C62934   5.625   8.799  11.649 -0.5648  0.9035  1.3957
  457MOL0     C62935   5.592   8.931  11.623  0.2588  0.7199  0.1094
  457MOL0     O62936   5.543   8.992  11.735 -0.8153  0.6866 -0.3642
  457MOL0     C62937   5.578   9.140  11.750 -0.5235  1.0960  0.5999
  457MOL0     C62938   5.729   9.158  11.788  0.3633  0.2215 -0.7078
  457MOL0     C62939   5.747   9.294  11.837  0.7306 -0.3482  0.0781
  457MOL0     C62940   5.893   9.305  11.885  0.4234 -0.1366 -0.6234
  457MOL0     C62941   5.909   9.449  11.944 -0.6154  0.4383  0.3088
  457MOL0     C62942   5.847   9.467  12.083 -0.0021  0.5069  0.4710
  457MOL0     C62943   5.933   9.580  12.149  0.1289  0.4472  0.0367
  457MOL0     C62944   6.046   9.528  12.244 -0.2560 -0.6444  0.2132
  457MOL0     N62945   6.103   9.641  12.321 -0.7232  0.7192 -0.5676
  457MOL0     C62946   6.186   9.743  12.284  0.2980 -0.1011 -0.6602
  457MOL0     C62947   6.243   9.801  12.399  0.3310 -0.0339  0.8859
  457MOL0     C62948   6.342   9.904  12.394 -0.8276 -0.4040 -0.5053
  457MOL0     C62949   6.286  10.026  12.466 -0.2695  0.7226 -0.0018
  457MOL0     C62950   6.384  10.147  12.484  0.7454 -0.6029  0.1029
  457MOL0     C62951   6.476  10.133  12.605 -0.0248 -0.0579 -0.3145
  457MOL0     O62952   6.524  10.257  12.652 -0.1462  1.3091  0.2592
  457MOL0     C62953   6.640  10.302  12.591  0.2236 -0.5101 -0.3063
  457MOL0     C62954   6.632  10.417  12.511 -0.3207 -0.6021 -0.3215
  457MOL0     C62955   6.738  10.457  12.427  1.2209  0.2508  0.1280
  457MOL0     C62956   6.736  10.600  12.363  0.9421 -0.1089  0.9539
  457MOL0     C62957   6.858  10.380  12.419 -0.4867  0.2547 -0.0734
  457MOL0     C62958   6.975  10.402  12.317  0.9731  0.7614  0.0726
  457MOL0     O62959   7.096  10.372  12.372 -0.0326  0.2235 -0.6841
  457MOL0     C62960   7.205  10.366  12.291  1.1236 -0.1292  0.3589
  457MOL0     C62961   7.252  10.466  12.218  0.3084 -0.0839 -0.2732
  457MOL0     C62962   7.377  10.446  12.155 -0.1250  0.6901  0.2154
  457MOL0     C62963   7.453  10.323  12.152 -0.0833 -1.2808 -0.7832
  457MOL0     O62964   7.574  10.296  12.090 -0.3279 -0.0688  0.3694
  457MOL0     C62965   7.632  10.386  11.999 -0.1304 -0.5235  0.3848
  457MOL0     C62966   7.621  10.335  11.858 -0.7686  0.1136 -0.2557
  457MOL0     C62967   7.485  10.355  11.791 -0.5679  0.9018 -1.0529
  457MOL0     C62968   7.466  10.264  11.670  0.1134  0.0987  0.7606
  457MOL0     C62969   7.339  10.311  11.589  0.5447  0.3016 -0.5202
  457MOL0     C62970   7.306  10.234  11.459  0.2440 -0.1514  0.3042
  457MOL0     C62971   7.188  10.294  11.391  0.9608 -0.1459 -0.2393
  457MOL0     C62972   7.170  10.231  11.251  1.1336 -0.7713  1.3679
  457MOL0    Cl62973   7.102  10.058  11.254  0.3773 -0.5137 -0.3518
  457MOL0     C62974   7.389  10.219  12.227 -0.6681 -1.1644 -0.1191
  457MOL0     C62975   7.276  10.243  12.298 -0.2024  0.2202  0.2640
  457MOL0     O62976   6.949  10.458  12.211  0.2025 -0.1684  0.3699
  457MOL0     C62977   6.857  10.263  12.499 -0.6472 -0.5416 -0.3413
  457MOL0     C62978   6.752  10.224  12.580  0.3412 -0.0494  0.2437
  457MOL0     N62979   6.186   9.729  12.504 -0.4787  0.3581 -0.0789
  457MOL0     N62980   6.102   9.639  12.458 -0.9698  0.5291 -0.3228
  457MOL0     C62981   5.618   8.994  11.498  0.2037  0.0524  0.6450
  457MOL0     C62982   5.666   8.916  11.389  0.7600 -0.3873 -0.3518
  457MOL0     C62983   5.701   8.529  11.118  0.4035 -0.0856  0.3162
  457MOL0     C62984   5.812   8.584  11.052  0.6823 -0.2814 -0.3063
  457MOL0     C62985   5.873   8.529  10.946 -1.0190 -0.4920  0.8394
  457MOL0     C62986   5.813   8.422  10.882 -0.2513  0.3409 -0.1158
  457MOL0     O62987   5.857   8.370  10.763 -0.9311  0.6618 -0.6591
  457MOL0     C62988   5.797   8.445  10.655 -1.0427  0.7698  0.0357
  457MOL0     C62989   5.916   8.483  10.565  0.8619 -0.7073 -0.4581
  457MOL0     C62990   5.877   8.600  10.471 -0.5100 -0.2541 -0.2623
  457MOL0     C62991   5.985   8.621  10.355  0.1794  0.5943  0.8742
  457MOL0     C62992   6.124   8.644  10.401  0.7659  1.2534  0.5958
  457MOL0     C62993   6.232   8.661  10.453  0.7087  0.2735  0.3445
  457MOL0     C62994   5.702   8.366  10.941  0.4749  0.1586  0.6196
  457MOL0     C62995   5.638   8.410  11.054 -0.3738  0.8751  0.5128
  457MOL0     C62996   5.536   8.324  11.119 -0.7053 -0.3314 -1.5520
  457MOL0     H62997   5.688   8.617  11.548 -1.9104 -1.0069 -2.0934
  457MOL0     H62998   5.620   8.747  11.744  0.1049  1.3917  1.7084
  457MOL0     H62999   5.518   9.179  11.833 -0.8119  1.0295  0.4202
  457MOL0     H63000   5.556   9.200  11.661 -2.3073 -0.2569  0.0792
  457MOL0     H63001   5.763   9.079  11.856  3.5250 -1.9650 -4.3787
  457MOL0     H63002   5.799   9.137  11.706  1.3437 -3.6371  0.8909
  457MOL0     H63003   5.723   9.367  11.759  0.3669  0.5520  1.0102
  457MOL0     H63004   5.682   9.323  11.919 -2.2528 -0.1057 -2.2192
  457MOL0     H63005   5.930   9.240  11.965  3.3374 -0.4911 -2.1410
  457MOL0     H63006   5.954   9.289  11.796 -1.6376  0.9048 -2.3061
  457MOL0     H63007   5.881   9.526  11.871 -2.6703  0.8568  1.4711
  457MOL0     H63008   6.015   9.476  11.950 -0.5534 -0.1926  3.1086
  457MOL0     H63009   5.741   9.492  12.087 -0.3396 -0.9045  0.7612
  457MOL0     H63010   5.855   9.378  12.146 -2.1867 -0.5512 -0.6098
  457MOL0     H63011   5.877   9.632  12.227  1.8216  2.4394  0.0167
  457MOL0     H63012   5.962   9.654  12.075  1.3396  0.9534  0.9793
  457MOL0     H63013   5.994   9.463  12.315  1.0491 -2.0642 -0.0743
  457MOL0     H63014   6.127   9.473  12.195 -0.2850  0.3430 -1.0123
  457MOL0     H63015   6.208   9.765  12.180 -2.7742  1.2258 -1.1526
  457MOL0     H63016   6.371   9.921  12.290 -0.7761 -4.3574 -1.3073
  457MOL0     H63017   6.433   9.876  12.447 -1.1199  2.2471  1.5964
  457MOL0     H63018   6.193  10.062  12.421 -2.0456  1.3311  3.7484
  457MOL0     H63019   6.257   9.982  12.561  1.2340  2.5766  1.4107
  457MOL0     H63020   6.449  10.166  12.398  2.6811 -1.1179  1.3969
  457MOL0     H63021   6.328  10.238  12.504 -1.0992 -2.1587  2.7229
  457MOL0     H63022   6.435  10.086  12.695  0.1274 -0.3507 -0.3994
  457MOL0     H63023   6.551  10.058  12.582 -1.8568 -2.3593  0.7208
  457MOL0     H63024   6.537  10.466  12.490 -1.6290 -3.3205 -1.1404
  457MOL0     H63025   6.646  10.650  12.400  1.4526  2.1076 -0.5900
  457MOL0     H63026   6.722  10.583  12.256  3.1230 -2.7541  0.9995
  457MOL0     H63027   6.818  10.671  12.371 -0.2372  1.5344 -0.7019
  457MOL0     H63028   7.209  10.565  12.206  0.4761  0.3318  2.0936
  457MOL0     H63029   7.407  10.526  12.089  1.1572 -2.3535 -3.2113
  457MOL0     H63030   7.580  10.482  11.987  0.5860 -0.2405 -0.6046
  457MOL0     H63031   7.735  10.406  12.030  0.6957 -3.4134 -0.2463
  457MOL0     H63032   7.691  10.390  11.795 -0.5262  1.6753  1.2869
  457MOL0     H63033   7.647  10.229  11.865 -0.5588  0.0139 -2.1158
  457MOL0     H63034   7.465  10.459  11.764 -0.4923  1.4435  0.8510
  457MOL0     H63035   7.405  10.344  11.865  1.2819  0.7654  1.0376
  457MOL0     H63036   7.468  10.158  11.696 -2.8589 -0.6235 -1.4072
  457MOL0     H63037   7.551  10.276  11.603  0.9976  2.1383  2.1456
  457MOL0     H63038   7.243  10.307  11.641  0.9192  3.8384  0.6975
  457MOL0     H63039   7.362  10.416  11.566 -1.5620  0.9704  0.1520
  457MOL0     H63040   7.277  10.134  11.492 -1.0413  1.0365  3.1549
  457MOL0     H63041   7.395  10.233  11.397  2.6863 -2.2097  3.5117
  457MOL0     H63042   7.190  10.403  11.383  0.3937 -0.1290 -0.2142
  457MOL0     H63043   7.099  10.269  11.451  3.5461 -2.2203  3.0996
  457MOL0     H63044   7.263  10.239  11.194  0.0462  1.1395 -0.2719
  457MOL0     H63045   7.106  10.294  11.190  0.9647 -3.0563 -0.9983
  457MOL0     H63046   7.419  10.116  12.214 -0.0440 -0.7969 -1.8737
  457MOL0     H63047   7.237  10.165  12.362  1.6025 -1.6276 -0.7501
  457MOL0     H63048   6.931  10.189  12.469 -3.3256 -3.7066  0.3713
  457MOL0     H63049   6.739  10.126  12.626  0.7272 -0.6545 -0.8827
  457MOL0     H63050   5.607   9.100  11.477  0.5690 -0.1656 -0.8288
  457MOL0     H63051   5.685   8.964  11.293 -2.2809 -2.2443 -2.0375
  457MOL0     H63052   5.840   8.683  11.089 -2.6913  0.7532 -0.2058
  457MOL0     H63053   5.956   8.570  10.890 -1.5098 -2.4711 -1.5107
  457MOL0     H63054   5.732   8.382  10.593  1.4073 -1.2374 -0.6993
  457MOL0     H63055   5.743   8.536  10.682 -2.3517  0.4379 -1.3411
  457MOL0     H63056   5.952   8.387  10.526  0.2700 -0.7781 -0.8490
  457MOL0     H63057   5.998   8.526  10.623 -1.2112  3.2285 -0.1348
  457MOL0     H63058   5.790   8.570  10.413 -0.5409 -2.5319  0.8519
  457MOL0     H63059   5.875   8.695  10.525 -2.7969  0.1187 -0.9226
  457MOL0     H63060   5.955   8.705  10.292 -2.4631  1.3859  2.9789
  457MOL0     H63061   5.992   8.530  10.294  0.6102  2.0863 -1.4165
  457MOL0     H63062   6.328   8.665  10.500  1.4990  2.0723 -1.3137
  457MOL0     H63063   5.668   8.275  10.894 -2.3751  0.7838  1.2691
  457MOL0     H63064   5.568   8.298  11.220  0.2946  2.7146 -0.9836
  457MOL0     H63065   5.440   8.375  11.126  0.6288  2.0740  0.9819
  457MOL0     H63066   5.524   8.227  11.070  1.2735 -0.5210 -1.7674
  458MOL0     O63067  10.361   7.455   6.419  0.2906 -0.5409 -0.2117
  458MOL0     C63068  10.393   7.542   6.335  0.5029  0.0190 -0.1711
  458MOL0     O63069  10.482   7.652   6.357  0.0022 -0.3705  0.1652
  458MOL0     C63070  10.522   7.674   6.486 -0.0297  0.0304 -0.3231
  458MOL0     C63071  10.434   7.721   6.581  0.2939 -0.3766 -0.1674
  458MOL0     C63072  10.473   7.735   6.710 -0.1371 -0.6631  0.1167
  458MOL0     C63073  10.605   7.723   6.741 -0.4963 -0.8002  0.0176
  458MOL0     O63074  10.644   7.755   6.865 -0.2563  0.6145  0.4453
  458MOL0     C63075  10.755   7.683   6.925  0.7471  0.4607 -0.0904
  458MOL0     C63076  10.771   7.733   7.067 -0.3975 -0.4549  0.7695
  458MOL0     C63077  10.659   7.673   7.152  0.4640 -0.3407 -0.0196
  458MOL0     C63078  10.693   7.694   7.300  0.1846 -0.1830  0.0429
  458MOL0     C63079  10.638   7.833   7.346 -0.3992 -0.2190 -0.6347
  458MOL0     C63080  10.672   7.854   7.495  0.3877 -0.0508 -0.3225
  458MOL0     C63081  10.599   7.757   7.587  1.3845 -0.0847 -0.4256
  458MOL0     C63082  10.671   7.731   7.718  0.3712  1.3051  0.4700
  458MOL0     N63083  10.797   7.650   7.702  0.8280 -0.1077  0.3969
  458MOL0     C63084  10.918   7.712   7.690  0.0021 -0.5766  0.6893
  458MOL0     C63085  11.005   7.613   7.739  0.1446  0.2981 -0.5436
  458MOL0     C63086  11.156   7.626   7.743  0.7667 -0.3237  0.4217
  458MOL0     C63087  11.216   7.574   7.871  0.3230  0.8790 -0.3236
  458MOL0     C63088  11.325   7.673   7.914 -1.3196 -0.1013  0.7509
  458MOL0     C63089  11.435   7.608   8.010  0.4863  0.1822 -0.4824
  458MOL0     O63090  11.520   7.514   7.942 -0.6662  0.9012  0.6697
  458MOL0     C63091  11.592   7.416   8.001 -0.1823 -1.0452  0.3609
  458MOL0     C63092  11.705   7.445   8.080  0.1721  0.7348 -1.0932
  458MOL0     C63093  11.784   7.350   8.144 -0.7131  1.1387  0.7806
  458MOL0     C63094  11.906   7.387   8.216  0.2528  0.2128  0.3146
  458MOL0     C63095  11.762   7.212   8.101 -0.1492 -1.3255  0.9019
  458MOL0     C63096  11.848   7.099   8.132 -0.5691 -0.0391  1.1593
  458MOL0     O63097  11.941   7.078   8.041 -0.4717  0.1515  0.8623
  458MOL0     C63098  12.019   6.969   8.028  1.1866 -0.1560 -0.5877
  458MOL0     C63099  12.063   6.949   7.899 -0.5901  0.1902 -1.2453
  458MOL0     C63100  12.137   6.834   7.869 -0.1317  0.4773  0.4360
  458MOL0     C63101  12.156   6.727   7.966  0.3438 -0.1109  0.1679
  458MOL0     O63102  12.217   6.602   7.962 -0.1994 -0.0438 -0.2294
  458MOL0     C63103  12.189   6.517   7.852  0.2217 -0.1492 -0.4517
  458MOL0     C63104  12.062   6.421   7.867 -0.1534  0.9374  0.0064
  458MOL0     C63105  12.081   6.306   7.978  0.6800 -0.9934  0.5833
  458MOL0     C63106  11.992   6.191   7.955  0.1636 -0.1566 -0.1673
  458MOL0     C63107  11.974   6.112   8.088  0.1340  0.9808 -0.0932
  458MOL0     C63108  12.110   6.041   8.127  0.3732 -0.0890  0.2173
  458MOL0     C63109  12.087   5.967   8.264 -0.1716 -0.3149  0.0291
  458MOL0     C63110  12.221   5.917   8.304  0.1524 -0.0670 -0.5340
  458MOL0    Cl63111  12.223   5.863   8.466 -0.1118  0.6029  0.2135
  458MOL0     C63112  12.111   6.755   8.093 -0.5588  0.0255  0.4093
  458MOL0     C63113  12.045   6.873   8.128  0.1652  0.6051 -0.0679
  458MOL0     O63114  11.831   7.035   8.233  0.0992  0.0671  0.1481
  458MOL0     C63115  11.649   7.180   8.026  0.8656 -0.3286 -0.8244
  458MOL0     C63116  11.573   7.283   7.966 -0.2410  0.0551  0.2119
  458MOL0     N63117  10.935   7.502   7.784  0.3173 -0.3600  0.1358
  458MOL0     N63118  10.808   7.528   7.759 -0.8064  0.5849  0.4192
  458MOL0     C63119  10.696   7.675   6.644  0.0687  0.6288 -0.1702
  458MOL0     C63120  10.652   7.643   6.515  0.3126  0.0709  0.9983
  458MOL0     C63121  10.359   7.527   6.191 -0.0095 -0.7026 -0.5450
  458MOL0     C63122  10.463   7.582   6.101  0.0350  0.0014  0.5684
  458MOL0     C63123  10.440   7.586   5.966 -0.9141  0.2660  0.1504
  458MOL0     C63124  10.332   7.513   5.916 -0.0145 -0.0727  1.3818
  458MOL0     O63125  10.327   7.506   5.780 -0.1296 -0.2684  0.9164
  458MOL0     C63126  10.213   7.444   5.717  0.7270  0.0676 -0.7255
  458MOL0     C63127  10.211   7.281   5.721  0.1111 -0.6094 -0.3537
  458MOL0     C63128  10.089   7.214   5.657  0.2448  0.7535 -0.4101
  458MOL0     C63129  10.092   7.061   5.680  0.2223 -0.6132 -0.1755
  458MOL0     C63130   9.987   6.999   5.599 -0.3419 -1.4222 -0.0300
  458MOL0     C63131   9.894   6.967   5.525 -0.1182 -0.9501  0.7401
  458MOL0     C63132  10.230   7.466   5.999  0.6580 -0.2126 -0.3123
  458MOL0     C63133  10.244   7.466   6.132  0.1242 -0.4379  0.8221
  458MOL0     C63134  10.122   7.429   6.215  0.8828 -0.0776  0.7809
  458MOL0     H63135  10.332   7.742   6.550 -0.6511 -1.7614  1.7700
  458MOL0     H63136  10.397   7.763   6.783 -2.1071  1.2926 -2.4796
  458MOL0     H63137  10.841   7.720   6.868 -0.7632 -1.8190 -4.2768
  458MOL0     H63138  10.748   7.574   6.918 -2.0301  0.5304  0.5066
  458MOL0     H63139  10.868   7.690   7.097  2.1177  0.7304 -4.5430
  458MOL0     H63140  10.784   7.841   7.080 -0.4822 -0.5684  1.8794
  458MOL0     H63141  10.562   7.718   7.128 -1.0019 -2.8225  0.8914
  458MOL0     H63142  10.642   7.566   7.137  2.3054 -0.4278 -2.0062
  458MOL0     H63143  10.664   7.615   7.369 -0.9083  0.2927  0.1513
  458MOL0     H63144  10.801   7.700   7.310  0.1405  0.6852  0.0835
  458MOL0     H63145  10.529   7.832   7.333 -0.6685 -0.3913  1.3216
  458MOL0     H63146  10.682   7.909   7.280  2.7168 -1.7280 -0.4515
  458MOL0     H63147  10.778   7.869   7.519  0.5919  0.0710 -1.2492
  458MOL0     H63148  10.625   7.953   7.504  3.9522  1.7480  0.1701
  458MOL0     H63149  10.575   7.661   7.540  0.6041 -0.2117  0.2066
  458MOL0     H63150  10.500   7.800   7.607  0.2775 -2.5341 -0.1986
  458MOL0     H63151  10.695   7.821   7.774 -0.0759  0.6469  1.7672
  458MOL0     H63152  10.597   7.675   7.778  0.2094  0.0072 -0.8879
  458MOL0     H63153  10.926   7.813   7.651 -3.4730 -0.0114  1.1003
  458MOL0     H63154  11.172   7.733   7.728  2.4358 -0.5459  0.4343
  458MOL0     H63155  11.202   7.567   7.663  2.2460  0.3358  0.7539
  458MOL0     H63156  11.137   7.567   7.947 -2.2896  1.5936 -2.7970
  458MOL0     H63157  11.259   7.474   7.864 -1.8963 -0.3094  1.4863
  458MOL0     H63158  11.380   7.717   7.830 -1.1579 -0.8196  0.4637
  458MOL0     H63159  11.284   7.750   7.979  0.4007  1.3494  0.1878
  458MOL0     H63160  11.501   7.690   8.038  0.0243 -0.4354  2.8349
  458MOL0     H63161  11.394   7.553   8.095  3.0277  1.8979  2.0109
  458MOL0     H63162  11.715   7.551   8.097 -1.0431  0.9091 -1.3812
  458MOL0     H63163  11.999   7.349   8.173 -2.1559 -2.5545 -2.9735
  458MOL0     H63164  11.883   7.374   8.322  0.4824 -1.4253  0.1806
  458MOL0     H63165  11.931   7.492   8.196  0.5838 -0.0993 -0.9768
  458MOL0     H63166  12.047   7.018   7.817 -0.9078  0.2725 -1.1165
  458MOL0     H63167  12.181   6.818   7.771  0.4930 -0.8962  0.9131
  458MOL0     H63168  12.171   6.573   7.760 -1.8080 -0.8225 -0.5267
  458MOL0     H63169  12.275   6.454   7.830 -0.8032 -1.0794 -2.0205
  458MOL0     H63170  11.976   6.485   7.887  0.8989  1.9666  1.5395
  458MOL0     H63171  12.036   6.362   7.779  0.2981 -2.4647  1.9900
  458MOL0     H63172  12.066   6.351   8.076 -1.4840 -0.8025  0.2136
  458MOL0     H63173  12.184   6.269   7.978  0.2618 -2.3723 -1.6326
  458MOL0     H63174  12.043   6.124   7.886 -2.4901 -3.3083  0.6558
  458MOL0     H63175  11.895   6.226   7.919 -0.0283  0.6383  1.0621
  458MOL0     H63176  11.938   6.167   8.175 -1.1553  0.9693 -0.6035
  458MOL0     H63177  11.892   6.043   8.068 -0.7118  1.2683  2.1702
  458MOL0     H63178  12.192   6.112   8.136  0.5326 -0.1983 -0.3166
  458MOL0     H63179  12.159   5.980   8.050  2.8093  1.2485  0.6235
  458MOL0     H63180  12.013   5.888   8.245 -1.0657  0.2066  1.1842
  458MOL0     H63181  12.052   6.048   8.328 -0.4933  0.8543 -1.5667
  458MOL0     H63182  12.301   5.992   8.292  0.7110 -0.3757  0.9954
  458MOL0     H63183  12.250   5.828   8.248  0.3717 -3.6841  4.6568
  458MOL0     H63184  12.117   6.679   8.170 -2.3947  0.0378  0.6182
  458MOL0     H63185  12.001   6.870   8.227  2.4650 -1.3470  0.9993
  458MOL0     H63186  11.624   7.078   8.000 -0.0849 -0.1558 -0.6536
  458MOL0     H63187  11.499   7.264   7.889 -2.4264  1.3797  1.8773
  458MOL0     H63188  10.802   7.669   6.667  0.6394 -0.4276 -2.7078
  458MOL0     H63189  10.707   7.592   6.436 -0.0032  1.7207 -0.3579
  458MOL0     H63190  10.550   7.629   6.146 -0.4827  0.9245  0.6398
  458MOL0     H63191  10.513   7.623   5.895 -0.4731  0.7881  0.8663
  458MOL0     H63192  10.124   7.486   5.765  2.1182  0.3007  1.8173
  458MOL0     H63193  10.214   7.472   5.611  2.1912  0.2996 -0.6744
  458MOL0     H63194  10.208   7.259   5.829 -0.7269  1.5669  0.1088
  458MOL0     H63195  10.302   7.237   5.680  1.3027  0.5367  0.9694
  458MOL0     H63196   9.999   7.243   5.713 -2.2339 -2.3117 -2.4618
  458MOL0     H63197  10.084   7.228   5.549  1.4462  1.7725 -0.3569
  458MOL0     H63198  10.062   7.050   5.785 -3.2134 -2.3920 -1.1961
  458MOL0     H63199  10.191   7.020   5.660 -0.3052 -3.1304  1.8489
  458MOL0     H63200   9.820   6.947   5.451  3.3726 -2.1009 -2.7661
  458MOL0     H63201  10.136   7.435   5.954  0.8191  1.6449 -2.0466
  458MOL0     H63202  10.098   7.512   6.283 -1.1492  2.4022 -2.6620
  458MOL0     H63203  10.036   7.396   6.156  0.3195 -1.8650  2.5052
  458MOL0     H63204  10.137   7.342   6.280  0.4591 -1.5678 -1.0359
  459MOL0     O63205   0.895   9.817  10.486 -0.2088  0.0043  0.2953
  459MOL0     C63206   0.973   9.884  10.546 -0.0489 -0.6479  0.2000
  459MOL0     O63207   1.035   9.847  10.664 -0.7563 -0.5420 -0.6016
  459MOL0     C63208   0.988   9.742  10.744 -1.1992 -0.4774 -0.9622
  459MOL0     C63209   1.028   9.620  10.716  0.3841  0.7796 -0.4902
  459MOL0     C63210   0.993   9.521  10.810 -0.1700  0.5319  0.6165
  459MOL0     C63211   0.921   9.540  10.920 -0.0508  0.0314 -0.1472
  459MOL0     O63212   0.900   9.435  11.016  0.5891  0.2230  0.5386
  459MOL0     C63213   0.817   9.463  11.126  1.4511  0.1545 -0.5187
  459MOL0     C63214   0.753   9.330  11.189  0.6904  0.0167  0.1888
  459MOL0     C63215   0.660   9.345  11.309 -0.1227 -0.0073  0.1042
  459MOL0     C63216   0.532   9.431  11.298  0.0288  0.7100 -0.2689
  459MOL0     C63217   0.460   9.434  11.428  0.0244  0.0500  0.0890
  459MOL0     C63218   0.323   9.493  11.426  0.0068  0.2720  1.8398
  459MOL0     C63219   0.254   9.494  11.564 -0.2079 -0.5038 -0.4770
  459MOL0     C63220   0.198   9.362  11.605  0.1669 -0.0756  0.6994
  459MOL0     N63221   0.160   9.358  11.747  0.5016 -0.1610 -0.5037
  459MOL0     C63222   0.207   9.286  11.847  0.4652 -0.0296 -0.6681
  459MOL0     C63223   0.110   9.262  11.928 -1.0197  0.1016 -0.3992
  459MOL0     C63224   0.126   9.172  12.043 -0.2288  0.7647  0.8156
  459MOL0     C63225   0.004   9.092  12.079  0.0261 -0.4602  0.5376
  459MOL0     C63226   0.023   9.003  12.210  0.1799  0.6230 -0.2935
  459MOL0     C63227  -0.101   8.916  12.216  0.6970 -0.1067 -0.8578
  459MOL0     O63228  -0.106   8.876  12.353 -0.3198  0.4190 -0.7167
  459MOL0     C63229  -0.207   8.789  12.403  0.3751 -0.0721  0.7548
  459MOL0     C63230  -0.232   8.776  12.541  0.1079  0.1451  0.3715
  459MOL0     C63231  -0.336   8.687  12.589  0.7571  0.0713 -0.7079
  459MOL0     C63232  -0.349   8.678  12.748  0.1750 -0.6565  1.1872
  459MOL0     C63233  -0.406   8.607  12.505  0.9643  0.3697  0.4266
  459MOL0     C63234  -0.517   8.515  12.549  0.6885 -0.1497 -0.5292
  459MOL0     O63235  -0.602   8.561  12.644 -0.5684  1.1054 -0.8304
  459MOL0     C63236  -0.661   8.465  12.729 -0.0589 -0.1688 -0.5826
  459MOL0     C63237  -0.784   8.487  12.789  0.2938 -0.0023  0.6611
  459MOL0     C63238  -0.856   8.395  12.866  0.0072 -0.6728  0.5591
  459MOL0     C63239  -0.793   8.275  12.891  1.1362 -0.1779  0.0902
  459MOL0     O63240  -0.853   8.179  12.966 -0.7518 -0.0073 -0.0835
  459MOL0     C63241  -0.861   8.212  13.113  0.2883  0.7312 -0.1501
  459MOL0     C63242  -0.771   8.133  13.202 -0.7329  0.8222 -0.4875
  459MOL0     C63243  -0.618   8.158  13.191 -0.1026  0.2834 -0.8953
  459MOL0     C63244  -0.533   8.054  13.265  0.1301  0.0885  1.3364
  459MOL0     C63245  -0.380   8.072  13.226  0.7095 -0.2420  1.0586
  459MOL0     C63246  -0.293   7.955  13.277 -0.8464 -0.2712 -0.2749
  459MOL0     C63247  -0.274   7.850  13.171  0.0314 -0.0542 -0.3753
  459MOL0     C63248  -0.166   7.748  13.229  0.6210 -0.2424  0.5091
  459MOL0    Cl63249  -0.190   7.714  13.403  0.2351 -0.1432  0.0371
  459MOL0     C63250  -0.677   8.240  12.832 -0.8167  0.5759 -0.0586
  459MOL0     C63251  -0.604   8.335  12.756  0.6421  0.3951  0.5814
  459MOL0     O63252  -0.550   8.422  12.480  0.5024  0.0434 -0.5065
  459MOL0     C63253  -0.395   8.624  12.370  1.3061  0.3348 -0.1770
  459MOL0     C63254  -0.296   8.710  12.317 -0.8579 -0.4774  0.5796
  459MOL0     N63255  -0.005   9.334  11.891 -0.2716  0.3430  0.6279
  459MOL0     N63256   0.035   9.390  11.786 -0.3220  0.3332  0.1727
  459MOL0     C63257   0.890   9.673  10.954 -0.2181  0.7824  0.5656
  459MOL0     C63258   0.915   9.773  10.858 -0.2977 -0.5349 -0.8009
  459MOL0     C63259   1.027  10.010  10.480 -0.5742 -0.0318  0.4612
  459MOL0     C63260   1.162  10.039  10.514  0.3039 -0.7669  0.0040
  459MOL0     C63261   1.219  10.157  10.470  0.3038  0.1684 -0.1799
  459MOL0     C63262   1.155  10.245  10.382 -0.2357 -0.2945  1.0386
  459MOL0     O63263   1.209  10.360  10.332 -0.5119 -0.0509  0.1437
  459MOL0     C63264   1.350  10.368  10.322  0.2599  0.7212 -0.7656
  459MOL0     C63265   1.371  10.505  10.271 -0.2100  0.3752  0.1089
  459MOL0     C63266   1.517  10.520  10.233  0.1359  0.0125  0.2484
  459MOL0     C63267   1.544  10.622  10.127 -0.5702  0.0299  0.0887
  459MOL0     C63268   1.690  10.635  10.130  0.5800  0.0477  0.2893
  459MOL0     C63269   1.812  10.637  10.125 -0.0009 -1.3619  0.0952
  459MOL0     C63270   1.023  10.210  10.344  0.2828 -0.8828  0.4593
  459MOL0     C63271   0.955  10.095  10.388  0.1813 -0.4577 -0.1813
  459MOL0     C63272   0.807  10.058  10.347 -0.1442 -0.5257 -0.4741
  459MOL0     H63273   1.097   9.606  10.633 -1.1173  5.9178 -3.1034
  459MOL0     H63274   1.029   9.420  10.790 -0.8219  1.0780 -4.6033
  459MOL0     H63275   0.734   9.526  11.092  3.1342  2.2055 -0.9923
  459MOL0     H63276   0.880   9.516  11.198 -2.2427  2.5486  1.2764
  459MOL0     H63277   0.705   9.273  11.109  3.7573  0.9582 -2.5613
  459MOL0     H63278   0.839   9.270  11.220 -0.6190 -2.2090 -0.2471
  459MOL0     H63279   0.632   9.241  11.329 -0.8290  0.0763 -0.3941
  459MOL0     H63280   0.731   9.367  11.388  1.1781 -1.1554 -0.6924
  459MOL0     H63281   0.565   9.529  11.261  2.0851 -0.2362 -1.1169
  459MOL0     H63282   0.460   9.397  11.223 -0.3093 -0.7567  0.7038
  459MOL0     H63283   0.514   9.501  11.496  0.8214 -1.2352  0.7644
  459MOL0     H63284   0.456   9.339  11.483 -3.1082  1.3001  2.3515
  459MOL0     H63285   0.326   9.596  11.391  1.7631 -0.0809  0.8683
  459MOL0     H63286   0.272   9.442  11.344  0.8100  3.4901 -0.8375
  459MOL0     H63287   0.170   9.563  11.567  1.1600  1.3325 -1.8079
  459MOL0     H63288   0.325   9.545  11.630 -2.8216  1.0189  1.3166
  459MOL0     H63289   0.103   9.352  11.551  0.2486 -1.3236  0.7548
  459MOL0     H63290   0.266   9.281  11.580  2.1646  1.7987 -0.2525
  459MOL0     H63291   0.303   9.234  11.845  0.5978  0.2358 -1.4535
  459MOL0     H63292   0.156   9.229  12.131  0.5547  1.8143 -0.1083
  459MOL0     H63293   0.208   9.105  12.017 -1.2826 -0.3973  0.3622
  459MOL0     H63294  -0.074   9.165  12.099  0.3755 -0.1827  0.9319
  459MOL0     H63295  -0.028   9.032  11.994 -1.7020  1.2959 -0.1064
  459MOL0     H63296   0.113   8.943  12.199 -0.4991 -0.6614  0.8783
  459MOL0     H63297   0.052   9.053  12.303  4.3183  1.3021 -1.7179
  459MOL0     H63298  -0.185   8.983  12.193  2.4829  1.9309 -1.8190
  459MOL0     H63299  -0.118   8.834  12.147 -4.6739  0.2102 -0.3346
  459MOL0     H63300  -0.171   8.834  12.609 -1.9799 -0.4815  2.9292
  459MOL0     H63301  -0.295   8.589  12.781  2.4771  0.2469  0.0781
  459MOL0     H63302  -0.454   8.690  12.775 -0.4858  2.9854 -2.0228
  459MOL0     H63303  -0.303   8.767  12.792 -3.0979  0.9425  1.6408
  459MOL0     H63304  -0.831   8.582  12.764  1.9085  0.7111  0.2410
  459MOL0     H63305  -0.953   8.430  12.900  0.4689  3.9456 -2.0298
  459MOL0     H63306  -0.844   8.318  13.134 -0.8720  0.7365  0.8071
  459MOL0     H63307  -0.961   8.186  13.148  0.9425  0.4823  1.6362
  459MOL0     H63308  -0.795   8.162  13.304 -1.1733 -1.1719  0.0238
  459MOL0     H63309  -0.798   8.027  13.199  0.0658  0.1440  5.4782
  459MOL0     H63310  -0.589   8.253  13.236  1.4093 -0.3085 -0.5527
  459MOL0     H63311  -0.602   8.159  13.082 -3.4982 -1.7312 -1.5591
  459MOL0     H63312  -0.580   7.962  13.229  1.5460 -0.7095  1.4398
  459MOL0     H63313  -0.538   8.077  13.372 -2.1787  3.7937  0.6114
  459MOL0     H63314  -0.368   8.077  13.118 -2.8465 -1.5173  0.4692
  459MOL0     H63315  -0.343   8.173  13.247 -1.6272  1.2728 -1.4946
  459MOL0     H63316  -0.321   7.917  13.376  1.9265  0.3080  0.8273
  459MOL0     H63317  -0.196   8.000  13.299  1.2283 -3.0275 -2.8656
  459MOL0     H63318  -0.235   7.892  13.078  2.7291  2.8354  1.8366
  459MOL0     H63319  -0.365   7.792  13.155  0.6721 -1.3366  0.4464
  459MOL0     H63320  -0.064   7.786  13.219  0.1000  0.6066 -2.2091
  459MOL0     H63321  -0.166   7.648  13.184 -0.1823 -0.1280  0.2567
  459MOL0     H63322  -0.617   8.156  12.867  0.9695  2.2921  1.1867
  459MOL0     H63323  -0.508   8.305  12.715 -0.6557 -0.2584 -2.2045
  459MOL0     H63324  -0.439   8.552  12.301  0.7475  1.5653 -1.1638
  459MOL0     H63325  -0.278   8.702  12.210  3.1666  1.2498  0.9502
  459MOL0     H63326   0.844   9.695  11.050 -2.0188 -1.1411  0.2211
  459MOL0     H63327   0.907   9.880  10.877  0.1903 -0.8169  1.2270
  459MOL0     H63328   1.220   9.970  10.574  3.0105 -0.9251 -2.5939
  459MOL0     H63329   1.313  10.182  10.518 -2.0604  1.1215  4.6438
  459MOL0     H63330   1.396  10.360  10.421 -1.8484 -3.3145  0.0943
  459MOL0     H63331   1.395  10.292  10.258  1.8607 -0.3615  1.4873
  459MOL0     H63332   1.339  10.577  10.346 -0.5186 -0.5360  0.8700
  459MOL0     H63333   1.308  10.517  10.182 -0.9019  2.0973  0.7983
  459MOL0     H63334   1.569  10.532  10.328 -1.8586 -0.7032  1.4937
  459MOL0     H63335   1.555  10.427  10.189 -1.3753  0.2834 -1.7820
  459MOL0     H63336   1.501  10.717  10.160 -2.9125  0.0339 -2.6180
  459MOL0     H63337   1.500  10.604  10.029  1.0857 -0.4153 -0.6047
  459MOL0     H63338   1.919  10.641  10.124 -0.0248  1.9303 -0.8477
  459MOL0     H63339   0.976  10.278  10.273  1.0957  2.0813  2.5773
  459MOL0     H63340   0.817   9.975  10.276  4.1147 -0.6684  0.0683
  459MOL0     H63341   0.759  10.026  10.439  2.3157  0.8951  1.4290
  459MOL0     H63342   0.751  10.143  10.304  1.8149 -0.2504 -2.7032
  460MOL0     O63343   5.706   4.150   6.037  0.6076 -0.2041  0.3191
  460MOL0     C63344   5.771   4.122   5.940  0.0542  0.3793 -0.5085
  460MOL0     O63345   5.805   3.999   5.907 -1.0413  0.8516 -0.1032
  460MOL0     C63346   5.750   3.892   5.966  0.2640  0.7100  0.3959
  460MOL0     C63347   5.725   3.782   5.885 -0.1489  0.9352 -0.5907
  460MOL0     C63348   5.672   3.658   5.930  0.5022 -0.6811  0.0073
  460MOL0     C63349   5.667   3.637   6.071 -0.4467 -0.2289 -1.4314
  460MOL0     O63350   5.631   3.517   6.120  0.7618  0.3004  0.6747
  460MOL0     C63351   5.715   3.452   6.217  1.4015 -0.2500  1.0295
  460MOL0     C63352   5.654   3.323   6.263 -0.1260 -0.1557  0.6514
  460MOL0     C63353   5.503   3.333   6.284  0.2703 -0.6246  0.1637
  460MOL0     C63354   5.477   3.424   6.404  0.1991  0.1955 -1.2466
  460MOL0     C63355   5.335   3.406   6.455 -0.6221 -0.2855 -0.2075
  460MOL0     C63356   5.229   3.459   6.358  0.7777 -0.1723 -0.8413
  460MOL0     C63357   5.148   3.342   6.302 -0.1485 -0.3840  0.8877
  460MOL0     C63358   5.063   3.377   6.175  0.3235  0.1226  0.2873
  460MOL0     N63359   5.025   3.244   6.126 -0.0303 -0.0573  0.5666
  460MOL0     C63360   4.919   3.172   6.172 -0.2905 -0.7236 -1.3433
  460MOL0     C63361   4.907   3.066   6.086  1.0678  0.0335 -0.4978
  460MOL0     C63362   4.801   2.957   6.088  0.3026 -0.3282 -0.4663
  460MOL0     C63363   4.759   2.919   5.944 -0.1219  0.1706  0.5796
  460MOL0     C63364   4.640   2.829   5.950 -0.4185  0.4560 -0.2890
  460MOL0     C63365   4.676   2.695   6.019  0.2001  0.7615 -0.1825
  460MOL0     O63366   4.803   2.642   5.974 -0.1310  0.2418 -0.0619
  460MOL0     C63367   4.836   2.524   6.038 -0.2383  0.1765 -0.3812
  460MOL0     C63368   4.855   2.410   5.960 -0.3797  0.8772  0.3350
  460MOL0     C63369   4.899   2.292   6.021 -0.1538  0.3946  0.3260
  460MOL0     C63370   4.931   2.174   5.938 -0.4933 -0.0967  0.3225
  460MOL0     C63371   4.911   2.280   6.165  0.2262 -0.2906  0.0439
  460MOL0     C63372   4.954   2.154   6.240 -0.0820  0.5064  0.1167
  460MOL0     O63373   4.979   2.179   6.370  0.1556  0.0508  0.0829
  460MOL0     C63374   4.999   2.078   6.463 -0.2393  0.3717 -0.4347
  460MOL0     C63375   5.126   2.010   6.460 -0.1042  0.3290  0.3719
  460MOL0     C63376   5.156   1.916   6.556  0.2378  0.0353 -0.8623
  460MOL0     C63377   5.067   1.905   6.664  0.3436  0.1300 -0.8066
  460MOL0     O63378   5.114   1.830   6.777  1.6740 -0.2159 -0.2487
  460MOL0     C63379   5.036   1.805   6.901 -0.0432 -0.0251 -0.5722
  460MOL0     C63380   4.943   1.685   6.879 -0.9672 -0.6841 -0.2982
  460MOL0     C63381   4.895   1.623   7.019 -0.0461  0.6075 -0.3291
  460MOL0     C63382   4.831   1.486   6.998 -0.6385  0.3721 -0.0553
  460MOL0     C63383   4.808   1.421   7.135  0.4057  1.2503 -0.0950
  460MOL0     C63384   4.719   1.296   7.123  0.0880 -0.6532 -0.1397
  460MOL0     C63385   4.680   1.253   7.265  0.2182  0.9341 -0.5423
  460MOL0     C63386   4.606   1.121   7.277  0.2763  0.0469  0.9781
  460MOL0    Cl63387   4.464   1.136   7.182 -0.0005 -0.0565 -0.2296
  460MOL0     C63388   4.940   1.960   6.670 -0.3182 -0.7294  0.9816
  460MOL0     C63389   4.901   2.047   6.562  0.9244 -0.3543 -0.5302
  460MOL0     O63390   4.971   2.037   6.189 -0.1059 -0.4606 -0.4929
  460MOL0     C63391   4.884   2.400   6.236  0.0301 -1.1788 -0.7497
  460MOL0     C63392   4.854   2.520   6.181 -0.0756 -0.6589  0.2300
  460MOL0     N63393   5.013   3.073   5.996  0.0240 -0.3274 -0.9037
  460MOL0     N63394   5.070   3.182   6.014 -0.2299 -0.2849  0.9211
  460MOL0     C63395   5.706   3.740   6.163 -0.1704 -0.6080 -0.0648
  460MOL0     C63396   5.728   3.868   6.108  0.0575 -0.2714 -0.5711
  460MOL0     C63397   5.834   4.229   5.872 -0.1868 -0.9260  0.7278
  460MOL0     C63398   5.883   4.327   5.958  0.4421 -1.0359 -1.0243
  460MOL0     C63399   5.934   4.449   5.909 -0.8359 -0.6792  0.2145
  460MOL0     C63400   5.969   4.454   5.775 -1.1308 -0.1975 -0.3574
  460MOL0     O63401   6.032   4.574   5.738 -0.3661  0.0144  0.5232
  460MOL0     C63402   5.957   4.666   5.648 -0.3521  1.0962  0.6718
  460MOL0     C63403   5.948   4.625   5.499 -0.5439  0.2821 -0.0723
  460MOL0     C63404   5.934   4.742   5.405 -0.0317  0.0550  0.4140
  460MOL0     C63405   5.790   4.781   5.396  0.7263  0.5737 -1.1414
  460MOL0     C63406   5.721   4.665   5.333  0.0968 -0.0225 -0.5318
  460MOL0     C63407   5.671   4.565   5.296 -0.2981  0.8754  0.1928
  460MOL0     C63408   5.939   4.341   5.691 -0.4298 -0.2261 -0.2229
  460MOL0     C63409   5.859   4.234   5.731 -0.0270 -0.7293 -0.3067
  460MOL0     C63410   5.827   4.131   5.625 -0.5885  0.2019  0.5165
  460MOL0     H63411   5.730   3.800   5.778 -2.3537  2.1268 -0.5352
  460MOL0     H63412   5.637   3.572   5.874 -0.3634 -0.5986  0.4052
  460MOL0     H63413   5.730   3.521   6.300 -2.8754  0.9670  0.9907
  460MOL0     H63414   5.814   3.424   6.180  1.4354  0.1770  0.7982
  460MOL0     H63415   5.655   3.263   6.172 -0.6626  0.9181 -0.0890
  460MOL0     H63416   5.717   3.280   6.342  4.0879  3.0551 -0.5897
  460MOL0     H63417   5.457   3.357   6.188 -0.2714 -0.2985  0.5021
  460MOL0     H63418   5.473   3.235   6.322 -2.4434  0.7526  1.8949
  460MOL0     H63419   5.545   3.400   6.485 -1.1057 -1.7722 -0.6600
  460MOL0     H63420   5.482   3.531   6.381 -0.5833  0.5627  0.1690
  460MOL0     H63421   5.332   3.461   6.550 -0.4502 -0.7379  0.0626
  460MOL0     H63422   5.322   3.304   6.491  1.4364  0.4672  3.1753
  460MOL0     H63423   5.165   3.531   6.411 -0.1120  0.1598 -2.3188
  460MOL0     H63424   5.259   3.514   6.269  1.0726 -0.8547 -1.1655
  460MOL0     H63425   5.075   3.310   6.378 -0.5084  0.8048  1.0665
  460MOL0     H63426   5.211   3.257   6.274  0.3194 -0.2641  1.5571
  460MOL0     H63427   4.978   3.442   6.199 -1.2320 -1.8144  0.2271
  460MOL0     H63428   5.125   3.424   6.097  1.1129  0.7364  1.2474
  460MOL0     H63429   4.858   3.197   6.258 -0.2551 -1.1902 -1.1805
  460MOL0     H63430   4.709   2.996   6.134  0.0998 -2.8887  1.5423
  460MOL0     H63431   4.845   2.868   6.133  0.9860  0.5297  0.6325
  460MOL0     H63432   4.737   3.004   5.879  3.8152 -0.1710 -1.5444
  460MOL0     H63433   4.841   2.873   5.888 -0.8495  0.1226 -0.4760
  460MOL0     H63434   4.560   2.884   5.999 -0.2192 -0.9567  1.7467
  460MOL0     H63435   4.604   2.804   5.849  2.0539  0.5862 -1.2714
  460MOL0     H63436   4.666   2.704   6.128  2.2472 -0.8655  0.2042
  460MOL0     H63437   4.599   2.622   5.993  0.1047 -0.6534  3.3781
  460MOL0     H63438   4.833   2.424   5.855 -2.0468 -1.6583  0.2712
  460MOL0     H63439   4.914   2.072   5.974 -1.3224 -0.2699 -0.5305
  460MOL0     H63440   5.037   2.181   5.913 -0.5735 -1.8519 -0.6215
  460MOL0     H63441   4.878   2.187   5.843  0.7575 -0.2245 -0.4159
  460MOL0     H63442   5.195   2.025   6.377  0.3248 -2.6856  0.0681
  460MOL0     H63443   5.244   1.853   6.555  0.9219  0.8221  1.9323
  460MOL0     H63444   5.106   1.781   6.981 -0.6894 -1.3155 -0.3732
  460MOL0     H63445   4.972   1.891   6.923 -1.0049 -1.3369  2.1296
  460MOL0     H63446   4.853   1.723   6.829 -0.7128  0.2799 -0.0409
  460MOL0     H63447   4.979   1.608   6.809 -0.2602 -1.6450  1.0680
  460MOL0     H63448   4.835   1.690   7.082  1.4158  1.9582 -0.2929
  460MOL0     H63449   4.986   1.608   7.078  0.4373  2.4573 -0.5506
  460MOL0     H63450   4.893   1.423   6.932  1.5221  0.6420  1.6039
  460MOL0     H63451   4.742   1.496   6.935 -0.1214  0.4846 -0.7884
  460MOL0     H63452   4.903   1.389   7.180  1.4719 -0.2910 -3.1484
  460MOL0     H63453   4.758   1.500   7.193 -1.5957  0.3573 -0.5215
  460MOL0     H63454   4.760   1.207   7.074 -1.7764 -1.3042 -0.5845
  460MOL0     H63455   4.626   1.326   7.075 -1.1216 -0.3939  2.2299
  460MOL0     H63456   4.635   1.330   7.328  1.1458 -1.3832  3.2655
  460MOL0     H63457   4.775   1.249   7.320  0.5989  2.0991 -1.0672
  460MOL0     H63458   4.588   1.089   7.380 -0.5911  0.3153  0.9165
  460MOL0     H63459   4.665   1.045   7.225  1.4851  0.8347  1.1603
  460MOL0     H63460   4.864   1.944   6.746 -1.0804  0.4688  0.4964
  460MOL0     H63461   4.802   2.091   6.569 -0.5636 -3.4846 -0.0317
  460MOL0     H63462   4.891   2.407   6.344 -1.6627  2.8094 -0.7383
  460MOL0     H63463   4.830   2.606   6.242 -1.0849  1.0548 -2.4080
  460MOL0     H63464   5.699   3.732   6.271 -2.5141  1.6294  0.0575
  460MOL0     H63465   5.757   3.952   6.172 -4.4574  1.0691  0.0602
  460MOL0     H63466   5.879   4.319   6.066  0.1315  1.8863 -0.7333
  460MOL0     H63467   5.968   4.531   5.970 -0.7959  0.1014 -0.8301
  460MOL0     H63468   5.859   4.689   5.691  1.1739  5.2255  2.4140
  460MOL0     H63469   6.002   4.765   5.659  0.7545  0.3756  3.4118
  460MOL0     H63470   5.873   4.545   5.501  1.2633 -1.5879 -1.8455
  460MOL0     H63471   6.036   4.564   5.474 -0.1668  1.6406 -2.3163
  460MOL0     H63472   5.994   4.827   5.439  0.5779 -0.4492  0.5960
  460MOL0     H63473   5.965   4.698   5.310  0.0553  0.1186  0.4136
  460MOL0     H63474   5.768   4.873   5.343 -0.3084  0.6137 -0.6651
  460MOL0     H63475   5.760   4.795   5.501  1.9479 -0.0340 -0.6889
  460MOL0     H63476   5.632   4.466   5.282 -1.0359  0.8739  1.9676
  460MOL0     H63477   5.958   4.357   5.586 -3.0579 -1.3316 -0.9434
  460MOL0     H63478   5.870   4.033   5.644  3.2553  1.4317 -0.7785
  460MOL0     H63479   5.720   4.109   5.631 -0.5503  0.4011  2.4523
  460MOL0     H63480   5.851   4.158   5.521  0.4978  1.8195  1.1359
  461MOL0     O63481   5.162   1.088   8.806 -0.0637 -0.8890 -0.8484
  461MOL0     C63482   5.056   1.125   8.832  0.1864 -0.8788 -0.2694
  461MOL0     O63483   4.939   1.071   8.781  0.4811 -0.0508  0.7785
  461MOL0     C63484   4.940   0.941   8.723 -0.0092  0.0422  0.7193
  461MOL0     C63485   4.956   0.828   8.797 -0.0152  0.3645 -0.6479
  461MOL0     C63486   4.936   0.704   8.733  0.3778  0.0182  0.0024
  461MOL0     C63487   4.888   0.683   8.604  0.8163 -1.0222  0.7536
  461MOL0     O63488   4.851   0.558   8.563  0.7808 -0.9683  0.2278
  461MOL0     C63489   4.785   0.541   8.444 -0.8926 -0.6190 -0.0761
  461MOL0     C63490   4.896   0.554   8.323  0.0145  0.6235 -0.1189
  461MOL0     C63491   4.841   0.490   8.194  0.7695  0.3827  0.0839
  461MOL0     C63492   4.948   0.490   8.079 -0.1303  0.5136  0.3876
  461MOL0     C63493   4.883   0.426   7.958 -0.1445  0.4189 -0.3344
  461MOL0     C63494   4.978   0.425   7.840 -0.0529  0.0054  0.8757
  461MOL0     C63495   4.884   0.422   7.713  0.4485 -0.2525  0.2131
  461MOL0     C63496   4.976   0.416   7.589  0.4662 -0.4169  0.3862
  461MOL0     N63497   5.017   0.270   7.558  0.0713 -0.3008 -0.2987
  461MOL0     C63498   4.941   0.185   7.476  0.6096 -0.1527 -0.3050
  461MOL0     C63499   5.003   0.062   7.488 -0.9230  0.1311  0.2200
  461MOL0     C63500   4.959  -0.062   7.418 -0.7084  0.0219 -1.3393
  461MOL0     C63501   4.939  -0.037   7.268 -0.1039 -0.0803  0.4549
  461MOL0     C63502   5.080   0.004   7.207  0.6451 -1.0471  0.1738
  461MOL0     C63503   5.093  -0.004   7.052  0.5782  0.1554 -0.3536
  461MOL0     O63504   5.001   0.099   7.016  0.0798  0.6063  0.0199
  461MOL0     C63505   4.964   0.084   6.886 -0.5427 -0.5824  0.1295
  461MOL0     C63506   4.839   0.140   6.860 -0.8349 -1.7445  0.7321
  461MOL0     C63507   4.798   0.172   6.732 -0.7735 -0.0006  0.2652
  461MOL0     C63508   4.666   0.254   6.714  0.1453  0.4788 -0.2912
  461MOL0     C63509   4.875   0.124   6.625  1.0819  0.3096  0.0992
  461MOL0     C63510   4.848   0.149   6.480  0.7130 -0.3356  0.5767
  461MOL0     O63511   4.956   0.192   6.410 -0.4776 -0.6717  0.3886
  461MOL0     C63512   4.957   0.227   6.275 -0.2328 -0.1169 -0.6206
  461MOL0     C63513   4.855   0.215   6.183  0.9311 -0.1910  0.3123
  461MOL0     C63514   4.872   0.266   6.052  0.9403  0.5389  0.4415
  461MOL0     C63515   4.990   0.332   6.011  1.6075 -1.3272 -0.0902
  461MOL0     O63516   5.016   0.378   5.880 -0.3968  0.1924  0.4403
  461MOL0     C63517   4.911   0.371   5.779 -0.5173 -0.1484 -0.5396
  461MOL0     C63518   4.790   0.476   5.810 -0.6671  0.4844 -0.5743
  461MOL0     C63519   4.824   0.620   5.781 -0.5630 -0.3477 -1.0319
  461MOL0     C63520   4.700   0.712   5.785  1.1006  0.9828  0.4736
  461MOL0     C63521   4.747   0.859   5.812  0.6720  1.0237 -0.5997
  461MOL0     C63522   4.738   0.902   5.959 -0.7557 -0.7270 -0.1240
  461MOL0     C63523   4.796   0.816   6.067  0.5189 -0.0334 -0.5775
  461MOL0     C63524   4.949   0.832   6.057  1.0123 -0.6447 -0.5709
  461MOL0    Cl63525   5.029   0.724   6.169  0.1388  0.1629  0.4139
  461MOL0     C63526   5.084   0.348   6.104  0.1087 -0.1925  0.3256
  461MOL0     C63527   5.065   0.305   6.233  0.3891 -0.5693 -0.8966
  461MOL0     O63528   4.749   0.107   6.423 -0.2392  0.4555  0.2621
  461MOL0     C63529   4.993   0.052   6.648 -1.2144 -0.0024  0.6210
  461MOL0     C63530   5.044   0.037   6.779 -0.1270 -0.2335 -0.3600
  461MOL0     N63531   5.111   0.078   7.567 -0.8657  0.2029 -0.0988
  461MOL0     N63532   5.118   0.197   7.610 -0.5447  0.6171 -0.1875
  461MOL0     C63533   4.870   0.807   8.535  0.0590  0.5904  0.8805
  461MOL0     C63534   4.896   0.928   8.593 -0.7334 -0.3836 -0.2060
  461MOL0     C63535   5.028   1.239   8.933 -0.4447  0.4677 -0.2559
  461MOL0     C63536   4.892   1.255   8.976  0.6899  0.4968  0.1131
  461MOL0     C63537   4.857   1.340   9.077  0.1972 -0.2838 -0.6934
  461MOL0     C63538   4.945   1.440   9.110  0.3190  0.7043 -1.4395
  461MOL0     O63539   4.915   1.549   9.187  1.1796  0.0726  0.0077
  461MOL0     C63540   4.776   1.557   9.224  0.5712 -0.5131  0.2289
  461MOL0     C63541   4.756   1.667   9.324 -0.5630  0.0967  0.2785
  461MOL0     C63542   4.604   1.717   9.318  0.2883 -0.0233 -0.2200
  461MOL0     C63543   4.571   1.836   9.411 -0.4981 -0.1970  0.1660
  461MOL0     C63544   4.584   1.782   9.550 -0.7144 -0.9752  0.0519
  461MOL0     C63545   4.607   1.724   9.658  0.4798  0.0705  0.2444
  461MOL0     C63546   5.075   1.439   9.072  0.5632  0.1383  0.7706
  461MOL0     C63547   5.125   1.335   8.985  0.3558  0.4494 -0.0268
  461MOL0     C63548   5.272   1.319   8.961 -0.2867 -0.9146 -0.2815
  461MOL0     H63549   4.983   0.818   8.902 -0.4302  0.0865 -0.5678
  461MOL0     H63550   4.928   0.616   8.796 -2.0026  1.5070  1.9960
  461MOL0     H63551   4.701   0.610   8.435 -0.4598 -0.2602 -1.8168
  461MOL0     H63552   4.739   0.442   8.433 -2.0483  0.0223 -1.2963
  461MOL0     H63553   4.920   0.658   8.298 -0.4690  0.9714  0.8130
  461MOL0     H63554   4.992   0.506   8.342  0.3331  0.6117 -1.6044
  461MOL0     H63555   4.813   0.384   8.203 -0.2368  0.6534  0.2819
  461MOL0     H63556   4.766   0.546   8.138  2.9058  1.0733 -2.2976
  461MOL0     H63557   4.977   0.593   8.052  1.9073  0.1256  0.8774
  461MOL0     H63558   5.040   0.437   8.105 -0.2269 -0.5393 -1.2720
  461MOL0     H63559   4.792   0.475   7.923 -1.3628 -1.6198 -0.1563
  461MOL0     H63560   4.877   0.321   7.988  3.8901  0.2508  0.4659
  461MOL0     H63561   5.048   0.508   7.835  2.2346 -1.8305 -3.9665
  461MOL0     H63562   5.044   0.338   7.849  3.0897  1.7220 -2.9326
  461MOL0     H63563   4.817   0.508   7.710 -1.5935 -1.6649  2.0322
  461MOL0     H63564   4.820   0.333   7.719  0.6632 -0.3461  1.2512
  461MOL0     H63565   4.932   0.462   7.500 -1.0056 -1.1000  0.7232
  461MOL0     H63566   5.067   0.475   7.600 -0.0109  0.3145  0.4733
  461MOL0     H63567   4.859   0.213   7.409  2.0244 -0.2094 -2.1427
  461MOL0     H63568   4.865  -0.094   7.464 -0.3311  0.4897 -0.2054
  461MOL0     H63569   5.041  -0.132   7.436  1.5024  3.0780  1.5708
  461MOL0     H63570   4.908  -0.133   7.226 -0.0690 -3.8651  7.5505
  461MOL0     H63571   4.870   0.045   7.247  0.7580  0.4044 -0.5971
  461MOL0     H63572   5.120   0.103   7.234  2.9726 -1.4244 -1.6089
  461MOL0     H63573   5.150  -0.073   7.241  1.5664  1.4774  5.0126
  461MOL0     H63574   5.193   0.021   7.016  2.1282 -3.5215  0.8809
  461MOL0     H63575   5.057  -0.104   7.024 -1.7682  0.7071  0.4795
  461MOL0     H63576   4.788   0.176   6.949 -2.2630 -0.8603 -0.3913
  461MOL0     H63577   4.579   0.200   6.751  1.1829 -1.6084 -0.7431
  461MOL0     H63578   4.645   0.267   6.608 -2.9060 -0.8400  0.0571
  461MOL0     H63579   4.671   0.349   6.768  1.9183  0.1960  0.1086
  461MOL0     H63580   4.755   0.177   6.196  0.0940  1.6874 -0.2618
  461MOL0     H63581   4.800   0.263   5.971  0.1083 -0.7551  1.1916
  461MOL0     H63582   4.960   0.399   5.684  4.1092  0.0991  1.6255
  461MOL0     H63583   4.878   0.266   5.779  0.1008 -0.3890 -2.5492
  461MOL0     H63584   4.697   0.447   5.760  0.5456 -2.1038 -1.4971
  461MOL0     H63585   4.770   0.471   5.918  1.9730 -2.8248 -0.0677
  461MOL0     H63586   4.868   0.630   5.681 -1.7294  0.3234 -1.5018
  461MOL0     H63587   4.899   0.658   5.852  0.3391 -5.8230  1.4232
  461MOL0     H63588   4.630   0.675   5.860  0.8931 -1.4442 -0.8023
  461MOL0     H63589   4.660   0.698   5.684 -1.4969 -2.4591  1.8001
  461MOL0     H63590   4.834   0.908   5.766 -0.1416  1.7077 -1.4598
  461MOL0     H63591   4.672   0.910   5.751  1.2901  5.0689  1.6966
  461MOL0     H63592   4.633   0.907   5.990 -0.2741  0.5054  1.4104
  461MOL0     H63593   4.778   1.002   5.972 -1.1937 -0.7081  1.2587
  461MOL0     H63594   4.770   0.710   6.061  3.2296 -0.7219 -2.1141
  461MOL0     H63595   4.765   0.850   6.166 -1.2126 -0.5153 -0.9203
  461MOL0     H63596   4.962   0.938   6.080 -1.2185 -0.1716 -1.1560
  461MOL0     H63597   4.994   0.819   5.958  1.0559 -0.5092 -0.5685
  461MOL0     H63598   5.171   0.409   6.084  0.2930  0.8824  3.7197
  461MOL0     H63599   5.136   0.320   6.314 -1.2206 -0.5022  0.5479
  461MOL0     H63600   5.055   0.029   6.561 -0.9068  5.1964 -0.8471
  461MOL0     H63601   5.145  -0.003   6.788 -0.3679 -0.4925  1.8005
  461MOL0     H63602   4.837   0.806   8.432 -1.1192 -0.6476  1.2280
  461MOL0     H63603   4.859   1.018   8.545 -2.9974  0.0536  2.1018
  461MOL0     H63604   4.820   1.184   8.936  1.7478  0.8420 -2.6562
  461MOL0     H63605   4.753   1.336   9.109  1.0854  0.2613  2.5716
  461MOL0     H63606   4.716   1.570   9.134 -2.6707  3.7007  2.6463
  461MOL0     H63607   4.745   1.474   9.290 -1.1458  0.5700  0.8388
  461MOL0     H63608   4.818   1.751   9.291  1.7936 -1.5379  0.2726
  461MOL0     H63609   4.798   1.637   9.420 -1.0997  2.8653  1.4710
  461MOL0     H63610   4.579   1.738   9.214 -0.6264 -1.1044 -0.2413
  461MOL0     H63611   4.540   1.631   9.341  1.3732 -0.9206 -0.4659
  461MOL0     H63612   4.466   1.869   9.408  0.4860  3.6322  2.0850
  461MOL0     H63613   4.634   1.924   9.403 -0.9795 -0.0129 -2.8668
  461MOL0     H63614   4.642   1.679   9.749  6.0665  0.7240 -1.1595
  461MOL0     H63615   5.146   1.513   9.108  0.8170  0.3178 -0.0608
  461MOL0     H63616   5.318   1.417   8.971 -3.9495  1.0051 -0.5547
  461MOL0     H63617   5.323   1.251   9.030  0.1348 -1.0119 -0.6807
  461MOL0     H63618   5.275   1.285   8.857 -3.5752 -3.2610  0.2033
  462MOL0     O63619  11.355   9.868  10.550  0.6371 -0.7750  0.2616
  462MOL0     C63620  11.355   9.908  10.668 -0.7143 -0.0316  0.4804
  462MOL0     O63621  11.349  10.036  10.706 -0.1060 -0.3147 -0.2105
  462MOL0     C63622  11.326  10.136  10.609 -0.9354  0.5221 -0.5113
  462MOL0     C63623  11.225  10.139  10.509  0.9008  0.9651  0.1035
  462MOL0     C63624  11.226  10.243  10.413  1.1092  0.5668  0.6231
  462MOL0     C63625  11.314  10.350  10.423 -0.2532  0.0352 -0.1470
  462MOL0     O63626  11.311  10.450  10.336 -0.4217 -0.8943  0.3829
  462MOL0     C63627  11.437  10.511  10.289 -0.4589 -0.1635 -0.2354
  462MOL0     C63628  11.493  10.426  10.168 -0.2262  0.0201 -0.1887
  462MOL0     C63629  11.630  10.469  10.114  0.7379 -0.1402  0.6375
  462MOL0     C63630  11.642  10.616  10.089  0.3416 -0.1442  0.2895
  462MOL0     C63631  11.752  10.671   9.992 -1.5518 -1.6829 -0.0057
  462MOL0     C63632  11.871  10.579   9.997 -0.2216 -0.6961  0.3831
  462MOL0     C63633  11.990  10.640   9.918  0.1102  0.7656 -0.1845
  462MOL0     C63634  12.108  10.539   9.921 -1.1328  0.7975 -0.2993
  462MOL0     N63635  12.156  10.524  10.064  0.0029  0.3549 -0.4853
  462MOL0     C63636  12.230  10.628  10.121  0.5580 -0.9714 -0.3587
  462MOL0     C63637  12.279  10.572  10.227  1.0088  0.4943 -1.1943
  462MOL0     C63638  12.392  10.616  10.317  0.0390 -0.9568 -0.5305
  462MOL0     C63639  12.467  10.726  10.249  0.3586 -0.3880  0.3900
  462MOL0     C63640  12.582  10.778  10.344  0.8918  0.6112  0.0252
  462MOL0     C63641  12.684  10.871  10.285  0.9627 -1.1188 -0.3008
  462MOL0     O63642  12.616  10.942  10.185 -0.0373  0.0884  0.1528
  462MOL0     C63643  12.588  11.082  10.208  0.1816  0.8694 -0.5102
  462MOL0     C63644  12.591  11.173  10.097 -0.3306 -0.2937  0.4139
  462MOL0     C63645  12.549  11.313  10.106 -1.3439  0.8518 -0.1973
  462MOL0     C63646  12.543  11.396   9.981 -0.8735 -0.4016 -1.0705
  462MOL0     C63647  12.499  11.358  10.231 -1.5197 -0.1297 -0.2067
  462MOL0     C63648  12.466  11.497  10.265 -0.1339 -0.2752  0.6083
  462MOL0     O63649  12.565  11.581  10.232 -0.3804  0.4944 -0.4525
  462MOL0     C63650  12.573  11.710  10.265  0.4574  0.6880 -0.4432
  462MOL0     C63651  12.554  11.750  10.400  0.0555  0.2681  0.0346
  462MOL0     C63652  12.560  11.886  10.441 -1.7025  0.9529  0.4138
  462MOL0     C63653  12.602  11.985  10.347 -0.1427 -0.0676 -0.5845
  462MOL0     O63654  12.622  12.118  10.364 -0.0193 -0.5966 -0.4276
  462MOL0     C63655  12.648  12.167  10.495  0.1627 -0.3111 -0.1058
  462MOL0     C63656  12.721  12.303  10.475 -0.2864  0.3908 -0.3904
  462MOL0     C63657  12.760  12.376  10.603 -0.3344 -0.3893  0.0122
  462MOL0     C63658  12.636  12.417  10.681 -0.5421 -0.6905 -0.4559
  462MOL0     C63659  12.686  12.520  10.795 -0.3620 -0.1296  0.0477
  462MOL0     C63660  12.579  12.627  10.840  0.0740 -0.2435  0.8587
  462MOL0     C63661  12.659  12.708  10.942  0.5336  0.8290  0.2029
  462MOL0     C63662  12.574  12.807  11.026 -1.1365 -1.0464  1.0418
  462MOL0    Cl63663  12.630  12.970  11.006 -0.3896 -0.2107  0.3788
  462MOL0     C63664  12.638  11.943  10.218  1.1013 -0.1921 -0.6838
  462MOL0     C63665  12.623  11.809  10.168  0.4300  0.2058  0.9540
  462MOL0     O63666  12.374  11.513  10.329  0.0948 -0.4960  0.5702
  462MOL0     C63667  12.507  11.266  10.341 -0.1504  0.0117 -0.0012
  462MOL0     C63668  12.552  11.134  10.331  0.2408 -0.2370 -0.2992
  462MOL0     N63669  12.228  10.447  10.242  0.4015  0.2171  1.0529
  462MOL0     N63670  12.165  10.406  10.136 -0.2693 -0.0630 -0.0451
  462MOL0     C63671  11.410  10.350  10.524  0.6144 -0.0229  0.3116
  462MOL0     C63672  11.416  10.242  10.624 -0.8161 -0.1510  0.9526
  462MOL0     C63673  11.362   9.798  10.770  0.3886 -0.0527  0.6347
  462MOL0     C63674  11.479   9.721  10.776 -0.3079 -0.2307 -1.3072
  462MOL0     C63675  11.481   9.599  10.859  0.1579 -1.1314 -0.1409
  462MOL0     C63676  11.368   9.574  10.945 -1.8465  0.0236  0.1610
  462MOL0     O63677  11.376   9.465  11.031  0.2751  0.1669 -0.7570
  462MOL0     C63678  11.322   9.355  10.958  0.1539 -0.6189  0.3333
  462MOL0     C63679  11.280   9.251  11.049  0.0717  0.9265 -0.5186
  462MOL0     C63680  11.388   9.193  11.144 -0.5163 -0.6653  0.0992
  462MOL0     C63681  11.456   9.295  11.238 -0.1210  0.1785 -1.5453
  462MOL0     C63682  11.512   9.235  11.363  0.4258 -0.4141 -0.6180
  462MOL0     C63683  11.546   9.170  11.460  0.1683  0.6519  0.0225
  462MOL0     C63684  11.249   9.654  10.938 -1.3192 -0.5071  0.0583
  462MOL0     C63685  11.245   9.765  10.846 -1.2947  0.2057 -0.1614
  462MOL0     C63686  11.117   9.835  10.839  0.1930 -0.0833  0.2527
  462MOL0     H63687  11.156  10.055  10.513  1.3135  0.6849  2.4479
  462MOL0     H63688  11.156  10.259  10.332  2.2735  2.1743 -0.1116
  462MOL0     H63689  11.516  10.531  10.363  2.1259  0.0201 -2.8540
  462MOL0     H63690  11.401  10.609  10.258 -1.2755 -0.2235  0.4936
  462MOL0     H63691  11.520  10.330  10.214 -1.0246 -0.0778  0.1021
  462MOL0     H63692  11.421  10.424  10.085  0.2588  1.9473 -0.6991
  462MOL0     H63693  11.716  10.441  10.175  1.7509 -0.0817 -0.6998
  462MOL0     H63694  11.651  10.412  10.022  2.2543  0.6855  0.4365
  462MOL0     H63695  11.544  10.639  10.047  0.3450  0.1565  0.4470
  462MOL0     H63696  11.659  10.660  10.187 -3.4873 -0.2721  1.1808
  462MOL0     H63697  11.778  10.775  10.016 -0.4558 -2.5150  2.8913
  462MOL0     H63698  11.716  10.672   9.889 -0.0919 -1.5610 -0.5450
  462MOL0     H63699  11.895  10.559  10.102 -6.8597 -1.9653  2.1156
  462MOL0     H63700  11.841  10.485   9.949  0.2179 -0.1507 -1.0065
  462MOL0     H63701  12.038  10.735   9.945  1.9790 -0.2404  0.2299
  462MOL0     H63702  11.961  10.646   9.813  2.1492  1.0735 -0.7795
  462MOL0     H63703  12.079  10.439   9.885 -0.3571  0.1287  0.8609
  462MOL0     H63704  12.191  10.585   9.866 -0.3209  0.7164  0.8286
  462MOL0     H63705  12.239  10.723  10.069 -2.8678 -0.8071 -0.9012
  462MOL0     H63706  12.466  10.540  10.345  0.2952 -1.5625 -2.6411
  462MOL0     H63707  12.353  10.651  10.413 -3.0224 -3.0009 -0.8798
  462MOL0     H63708  12.511  10.702  10.152 -0.0253 -2.4803  0.6804
  462MOL0     H63709  12.394  10.804  10.226  0.1680  0.4752  3.4398
  462MOL0     H63710  12.548  10.826  10.437 -1.3361  0.0473 -0.4297
  462MOL0     H63711  12.633  10.687  10.376  1.0318  0.2451 -1.1715
  462MOL0     H63712  12.723  10.930  10.368 -0.6924  0.9506 -0.9039
  462MOL0     H63713  12.774  10.821  10.250  0.9441 -0.2199 -1.7184
  462MOL0     H63714  12.617  11.150   9.994  0.9432  1.7618  0.2172
  462MOL0     H63715  12.546  11.502  10.010 -2.7813 -0.3212 -1.0440
  462MOL0     H63716  12.452  11.373   9.925 -1.3270 -0.9563 -0.1323
  462MOL0     H63717  12.620  11.367   9.908 -2.6466 -3.2854 -1.9383
  462MOL0     H63718  12.528  11.679  10.478 -1.7484 -1.3185 -1.9155
  462MOL0     H63719  12.536  11.905  10.545 -0.8461  0.0299  0.7965
  462MOL0     H63720  12.560  12.188  10.557  0.9738 -2.1617  1.7944
  462MOL0     H63721  12.699  12.093  10.557 -2.9302 -2.0695  0.5251
  462MOL0     H63722  12.804  12.307  10.404 -1.2271 -0.1040 -1.5544
  462MOL0     H63723  12.654  12.367  10.417  2.4383 -0.0446 -4.4069
  462MOL0     H63724  12.819  12.464  10.574  0.8756 -0.7374  1.2902
  462MOL0     H63725  12.818  12.302  10.659 -3.0378 -1.7557  1.1984
  462MOL0     H63726  12.588  12.330  10.728  3.2039 -2.2606  0.9515
  462MOL0     H63727  12.569  12.471  10.614 -0.9526  1.0817  1.2988
  462MOL0     H63728  12.712  12.460  10.883 -2.7936  2.0691  2.4947
  462MOL0     H63729  12.782  12.571  10.782  2.2364 -1.8230  7.4096
  462MOL0     H63730  12.487  12.577  10.871 -1.1521  0.3924 -1.4866
  462MOL0     H63731  12.550  12.695  10.759  0.8692  0.7158  1.3660
  462MOL0     H63732  12.744  12.763  10.904  0.2800  1.6970  0.8488
  462MOL0     H63733  12.702  12.637  11.013 -0.2781 -1.5933 -1.5760
  462MOL0     H63734  12.580  12.797  11.135 -0.5087 -0.2276  1.0891
  462MOL0     H63735  12.472  12.798  10.987 -0.2343 -0.3990 -1.6972
  462MOL0     H63736  12.694  12.012  10.156  3.1316 -1.6873 -0.6102
  462MOL0     H63737  12.664  11.789  10.070 -0.2216  4.8235 -0.4781
  462MOL0     H63738  12.468  11.291  10.440  0.3667  0.8642 -0.0027
  462MOL0     H63739  12.554  11.065  10.415 -0.1574  1.3204  1.0321
  462MOL0     H63740  11.487  10.425  10.539 -0.9690  1.1871  3.1664
  462MOL0     H63741  11.487  10.242  10.706 -0.9617 -2.7737  1.1894
  462MOL0     H63742  11.563   9.747  10.713 -2.1863  0.1012 -3.8041
  462MOL0     H63743  11.574   9.545  10.872 -0.1942 -1.4177  1.2865
  462MOL0     H63744  11.243   9.390  10.891 -0.2742  2.6088  2.3144
  462MOL0     H63745  11.405   9.314  10.901 -0.0278  0.2658 -0.6085
  462MOL0     H63746  11.252   9.168  10.983  1.1733 -0.7106  0.9764
  462MOL0     H63747  11.191   9.269  11.111 -0.8167 -1.4853 -0.9732
  462MOL0     H63748  11.345   9.108  11.197 -0.8856  0.6362  1.9743
  462MOL0     H63749  11.468   9.159  11.078 -0.6918 -0.9501  0.0347
  462MOL0     H63750  11.380   9.371  11.263  0.8313  1.2588 -1.8529
  462MOL0     H63751  11.548   9.336  11.197  0.8060  0.0669  0.3282
  462MOL0     H63752  11.585   9.112  11.541 -3.3070  1.7833  2.7471
  462MOL0     H63753  11.162   9.634  11.000 -2.2703 -0.8731 -1.3272
  462MOL0     H63754  11.044   9.754  10.827  3.2447 -3.1949  0.8486
  462MOL0     H63755  11.097   9.901  10.923  0.7473 -1.6533  1.6720
  462MOL0     H63756  11.092   9.896  10.752 -0.0374  0.1650  0.4946
  463MOL0     O63757   3.691   7.553  10.306 -0.4921  0.5512  0.1281
  463MOL0     C63758   3.769   7.459  10.311 -0.8487  0.3498 -0.6850
  463MOL0     O63759   3.905   7.477  10.334 -0.1698 -0.3007  0.8652
  463MOL0     C63760   3.961   7.603  10.346 -0.1595 -0.7031 -0.0016
  463MOL0     C63761   4.047   7.637  10.452  0.0991 -1.0138 -0.7635
  463MOL0     C63762   4.120   7.758  10.451  0.2828  1.3089 -0.3452
  463MOL0     C63763   4.110   7.846  10.349 -0.0840 -0.3354 -0.0261
  463MOL0     O63764   4.196   7.952  10.369 -0.6653 -0.6717 -0.3072
  463MOL0     C63765   4.212   8.049  10.265 -0.6399 -0.1898 -0.3913
  463MOL0     C63766   4.307   8.160  10.330  0.0217  0.6642  0.0715
  463MOL0     C63767   4.338   8.259  10.218 -0.6377  0.1391 -0.7059
  463MOL0     C63768   4.427   8.371  10.254  0.7355 -0.1670 -0.6489
  463MOL0     C63769   4.427   8.483  10.142  0.3730 -0.1821  0.3291
  463MOL0     C63770   4.521   8.465  10.016  0.1296 -0.6004 -0.3946
  463MOL0     C63771   4.572   8.601   9.970 -0.1578 -0.4564 -0.7364
  463MOL0     C63772   4.698   8.589   9.884  0.5253 -1.4801 -0.3261
  463MOL0     N63773   4.670   8.521   9.756 -0.6296 -0.3265 -1.2193
  463MOL0     C63774   4.752   8.424   9.696  0.1520  0.0318  0.0927
  463MOL0     C63775   4.702   8.412   9.577 -0.0157  0.8918  0.2114
  463MOL0     C63776   4.734   8.293   9.489 -0.0088 -0.3370  0.7464
  463MOL0     C63777   4.642   8.179   9.520 -0.3962 -0.2465  0.6184
  463MOL0     C63778   4.651   8.091   9.646 -0.3927  0.6307 -0.6771
  463MOL0     C63779   4.528   8.007   9.643  0.1130  0.4066  0.7572
  463MOL0     O63780   4.500   7.945   9.517  0.4624 -0.5469 -1.0449
  463MOL0     C63781   4.361   7.919   9.500  0.0911  0.0333  0.4003
  463MOL0     C63782   4.277   8.020   9.453  0.4752 -0.0276  0.1186
  463MOL0     C63783   4.143   7.989   9.418  0.4649  0.7975 -0.0832
  463MOL0     C63784   4.062   8.096   9.334  0.1127 -0.2681  0.4724
  463MOL0     C63785   4.088   7.861   9.458 -0.3234  0.1211  0.0166
  463MOL0     C63786   3.945   7.809   9.442  0.0525 -0.4918  0.0531
  463MOL0     O63787   3.921   7.686   9.498 -0.5154  0.3726 -0.0446
  463MOL0     C63788   3.851   7.600   9.417 -0.4311  0.3366 -0.4098
  463MOL0     C63789   3.836   7.481   9.492  0.5993  0.1848  0.1306
  463MOL0     C63790   3.766   7.367   9.430 -0.0516 -0.0013  0.0337
  463MOL0     C63791   3.710   7.373   9.298 -0.7622  0.4238  0.4201
  463MOL0     O63792   3.645   7.269   9.240 -0.0495  0.3506 -0.0453
  463MOL0     C63793   3.544   7.193   9.316 -0.6265 -0.8070  0.1129
  463MOL0     C63794   3.574   7.039   9.333  0.7469 -0.9450  0.9035
  463MOL0     C63795   3.530   6.971   9.201 -0.2178 -0.6865  0.5077
  463MOL0     C63796   3.645   6.973   9.092  1.3458 -0.2039 -1.0335
  463MOL0     C63797   3.628   6.874   8.978  0.5948 -0.4798  0.7142
  463MOL0     C63798   3.712   6.922   8.854 -0.0062 -0.9005 -1.1578
  463MOL0     C63799   3.680   6.821   8.743 -0.6115 -0.6191 -0.1446
  463MOL0     C63800   3.722   6.676   8.769  0.4610 -0.4030  0.8124
  463MOL0    Cl63801   3.894   6.647   8.795 -0.8184 -0.2017 -0.6433
  463MOL0     C63802   3.717   7.499   9.237 -0.6095 -0.7569  0.0180
  463MOL0     C63803   3.780   7.611   9.294 -0.1107 -0.0565  0.5309
  463MOL0     O63804   3.857   7.887   9.397  1.0218 -0.3379  0.1220
  463MOL0     C63805   4.174   7.772   9.524 -0.2936 -0.6049 -0.5957
  463MOL0     C63806   4.304   7.800   9.544 -1.1308 -0.0015  0.2526
  463MOL0     N63807   4.589   8.496   9.558 -0.0493  0.6618 -0.5058
  463MOL0     N63808   4.572   8.561   9.672  0.8203 -0.6118 -0.4401
  463MOL0     C63809   4.034   7.811  10.240  0.7292 -0.0565 -0.5705
  463MOL0     C63810   3.955   7.696  10.238  0.8913 -0.0015  0.1453
  463MOL0     C63811   3.721   7.317  10.310 -0.2834 -0.0375 -0.4200
  463MOL0     C63812   3.810   7.210  10.328 -0.5381 -0.6972 -0.0539
  463MOL0     C63813   3.776   7.073  10.324 -0.3354  0.2099 -0.3481
  463MOL0     C63814   3.644   7.036  10.299 -0.7110 -0.5317  0.3361
  463MOL0     O63815   3.636   6.909  10.286  0.0609  0.2773  0.4289
  463MOL0     C63816   3.504   6.849  10.266 -0.1666 -0.1899  0.1061
  463MOL0     C63817   3.395   6.878  10.370  0.2626  0.4577  0.2802
  463MOL0     C63818   3.305   6.750  10.398  0.0058 -0.3389 -1.3370
  463MOL0     C63819   3.181   6.776  10.490  1.2607  0.5681 -0.2363
  463MOL0     C63820   3.066   6.845  10.418  0.2604  0.7548 -1.0726
  463MOL0     C63821   2.995   6.887  10.331 -0.2114 -0.8811  0.2555
  463MOL0     C63822   3.546   7.138  10.287 -0.1042 -0.8018  0.1074
  463MOL0     C63823   3.581   7.277  10.283  0.0794  0.3687 -0.5290
  463MOL0     C63824   3.473   7.379  10.242 -0.3086 -0.9760 -1.1583
  463MOL0     H63825   4.067   7.568  10.533 -0.9692  1.2236  1.5302
  463MOL0     H63826   4.197   7.756  10.528 -0.9110 -3.2733  1.0852
  463MOL0     H63827   4.112   8.081  10.233 -0.7443 -2.2048 -2.3195
  463MOL0     H63828   4.263   7.998  10.182 -0.5725  0.7555 -0.9523
  463MOL0     H63829   4.254   8.196  10.419 -3.4640 -0.4319 -1.3944
  463MOL0     H63830   4.402   8.111  10.353 -1.5233 -3.0119 -0.5334
  463MOL0     H63831   4.376   8.201  10.134  0.2319  0.9327 -0.8785
  463MOL0     H63832   4.240   8.305  10.200 -1.6852 -1.4382  0.6685
  463MOL0     H63833   4.391   8.418  10.346 -1.2850  1.8296 -2.3382
  463MOL0     H63834   4.527   8.330  10.267 -0.5503 -2.9953  1.8609
  463MOL0     H63835   4.468   8.571  10.193  0.1737 -0.1363  0.4127
  463MOL0     H63836   4.323   8.511  10.123  0.0680 -0.8663  0.9482
  463MOL0     H63837   4.607   8.407  10.050  0.3339 -0.1370 -0.1130
  463MOL0     H63838   4.466   8.410   9.939  0.6672 -2.9294  0.7960
  463MOL0     H63839   4.590   8.662  10.058 -1.1891 -2.5490  1.0242
  463MOL0     H63840   4.494   8.650   9.911 -1.4241 -0.4688  0.8501
  463MOL0     H63841   4.729   8.694   9.876 -2.3387 -0.3710  1.5753
  463MOL0     H63842   4.777   8.530   9.932 -1.0240 -4.0865 -0.8121
  463MOL0     H63843   4.830   8.360   9.737 -0.9592 -2.9822 -2.0867
  463MOL0     H63844   4.837   8.263   9.510 -0.6959 -2.9711  0.7008
  463MOL0     H63845   4.748   8.323   9.385  0.4805 -1.7681  0.3625
  463MOL0     H63846   4.537   8.201   9.503 -0.6293 -1.4946  0.3093
  463MOL0     H63847   4.656   8.109   9.437 -3.5800 -1.3312  0.8832
  463MOL0     H63848   4.742   8.030   9.650 -1.5420 -1.1549 -0.7500
  463MOL0     H63849   4.641   8.148   9.739  0.7103 -1.2936  0.7012
  463MOL0     H63850   4.542   7.924   9.714 -2.1469 -2.5529 -1.9575
  463MOL0     H63851   4.438   8.063   9.671 -1.6696 -1.6937 -0.4205
  463MOL0     H63852   4.316   8.119   9.430 -1.0209  0.2653 -1.3220
  463MOL0     H63853   3.979   8.127   9.399  1.4687  3.6044  0.5812
  463MOL0     H63854   4.017   8.055   9.243 -0.2478  1.9660 -0.4190
  463MOL0     H63855   4.126   8.181   9.310  2.9947 -2.5125 -0.3175
  463MOL0     H63856   3.887   7.473   9.587  4.0457 -0.7999 -1.6279
  463MOL0     H63857   3.759   7.272   9.481  3.3333  0.6051  1.8953
  463MOL0     H63858   3.507   7.238   9.409 -3.6456 -0.5131 -1.0868
  463MOL0     H63859   3.454   7.209   9.255 -0.5959  3.5154  0.8593
  463MOL0     H63860   3.682   7.033   9.349  0.7338  0.2030  1.5509
  463MOL0     H63861   3.522   6.996   9.419  1.6157 -3.5550  0.2345
  463MOL0     H63862   3.448   7.022   9.150 -0.0185 -0.6897  0.1809
  463MOL0     H63863   3.491   6.869   9.211 -2.5026  0.0199 -0.4035
  463MOL0     H63864   3.731   6.941   9.151 -2.0425 -2.2849  3.3618
  463MOL0     H63865   3.658   7.075   9.054  0.0307  0.0062 -0.9608
  463MOL0     H63866   3.648   6.776   9.023  0.6250  0.6134  3.2889
  463MOL0     H63867   3.523   6.875   8.949  0.1261  0.7917  2.2753
  463MOL0     H63868   3.817   6.904   8.878 -0.0101  1.2411  0.8729
  463MOL0     H63869   3.693   7.028   8.832 -3.7580 -0.8391  1.3833
  463MOL0     H63870   3.732   6.854   8.653 -2.1377  0.6059 -0.6122
  463MOL0     H63871   3.573   6.816   8.725 -0.8753 -1.0368  1.3471
  463MOL0     H63872   3.707   6.612   8.682  2.5056 -0.6678  0.6126
  463MOL0     H63873   3.665   6.633   8.851 -1.6843  1.3252  0.3285
  463MOL0     H63874   3.664   7.518   9.144  1.3564 -0.2584 -1.0552
  463MOL0     H63875   3.779   7.707   9.244 -3.5919 -0.1457  0.2031
  463MOL0     H63876   4.156   7.673   9.564  0.7234 -0.6171 -0.1401
  463MOL0     H63877   4.364   7.724   9.593 -0.4181  1.0024  0.9926
  463MOL0     H63878   4.020   7.874  10.153 -0.8536 -0.0856 -0.3714
  463MOL0     H63879   3.910   7.665  10.144  2.7615  3.5345 -2.1210
  463MOL0     H63880   3.908   7.253  10.345 -0.8044 -0.4409  0.8868
  463MOL0     H63881   3.856   7.001  10.340  1.8023  1.9707 -2.3623
  463MOL0     H63882   3.462   6.888  10.172 -0.0814  0.8634  0.4864
  463MOL0     H63883   3.529   6.743  10.255  0.6741 -0.0773  0.8554
  463MOL0     H63884   3.333   6.963  10.341 -0.1545  0.1317  0.1969
  463MOL0     H63885   3.438   6.892  10.469 -0.7502 -3.7931  1.5191
  463MOL0     H63886   3.270   6.711  10.302 -1.0445 -0.4463 -0.9252
  463MOL0     H63887   3.364   6.669  10.441 -1.4053 -0.1698  1.1489
  463MOL0     H63888   3.225   6.830  10.574  2.2482 -2.8039  1.6149
  463MOL0     H63889   3.141   6.678  10.518 -1.7642  1.4893 -0.9131
  463MOL0     H63890   2.917   6.929  10.271  0.2295 -2.2602 -1.3581
  463MOL0     H63891   3.448   7.108  10.251 -0.9575  3.6691 -1.9248
  463MOL0     H63892   3.457   7.444  10.328 -0.9238  0.1080 -2.0713
  463MOL0     H63893   3.516   7.444  10.166 -1.8466  0.0093 -1.2210
  463MOL0     H63894   3.380   7.337  10.202 -0.9880  3.3120 -4.8991
  464MOL0     O63895   3.313  10.882  10.663  0.2765 -0.7641  0.7997
  464MOL0     C63896   3.319  10.954  10.761 -0.2375 -0.4727  0.2822
  464MOL0     O63897   3.445  10.979  10.828  0.3331 -0.1671 -0.4853
  464MOL0     C63898   3.554  10.890  10.814  0.1066  0.3959 -0.5760
  464MOL0     C63899   3.682  10.943  10.817 -0.2714 -0.4420 -0.0887
  464MOL0     C63900   3.794  10.855  10.814  0.0628  0.5253 -0.0906
  464MOL0     C63901   3.787  10.713  10.808 -0.1521  0.1850 -0.3152
  464MOL0     O63902   3.897  10.631  10.802 -0.5103 -0.7900 -0.3940
  464MOL0     C63903   3.987  10.640  10.912 -0.9396 -0.6593 -0.1303
  464MOL0     C63904   4.122  10.571  10.872  0.2727  0.8031 -0.6510
  464MOL0     C63905   4.121  10.423  10.854 -0.0388  0.6642  0.6241
  464MOL0     C63906   4.253  10.378  10.793 -0.5874 -0.6809  0.4473
  464MOL0     C63907   4.272  10.223  10.787  1.0486  0.2979 -0.5381
  464MOL0     C63908   4.415  10.181  10.768 -0.0385 -0.4943  0.2823
  464MOL0     C63909   4.457  10.046  10.834  0.1633 -0.3156 -0.7361
  464MOL0     C63910   4.594   9.986  10.788 -0.6258  0.8343 -0.9819
  464MOL0     N63911   4.650   9.886  10.878  0.3222 -0.0158 -0.1409
  464MOL0     C63912   4.742   9.901  10.979  0.6054  0.6096 -0.3274
  464MOL0     C63913   4.757   9.771  11.021 -0.5109  0.2135  0.8526
  464MOL0     C63914   4.853   9.722  11.122  0.4937 -1.0494  0.0692
  464MOL0     C63915   4.878   9.575  11.128 -0.0403  0.4853  0.0036
  464MOL0     C63916   4.968   9.528  11.244 -0.2804  0.9392 -0.3068
  464MOL0     C63917   4.949   9.582  11.388 -1.1283  1.1107 -0.0549
  464MOL0     O63918   4.813   9.570  11.413 -0.5485  0.0573 -0.6864
  464MOL0     C63919   4.764   9.609  11.543  0.4908  0.6228  0.7296
  464MOL0     C63920   4.625   9.622  11.555  0.7447  0.6217  0.2401
  464MOL0     C63921   4.567   9.668  11.679  1.2537 -0.8812 -0.3536
  464MOL0     C63922   4.422   9.717  11.664  0.1327 -0.3005 -0.3838
  464MOL0     C63923   4.647   9.676  11.793  0.5417  0.1637  0.3775
  464MOL0     C63924   4.581   9.693  11.927 -0.2613 -0.9028 -0.5751
  464MOL0     O63925   4.667   9.757  12.012 -0.4056  0.3887  0.0605
  464MOL0     C63926   4.625   9.829  12.114 -0.3236 -0.0011 -0.0694
  464MOL0     C63927   4.727   9.862  12.206  0.9075 -0.0913  0.4019
  464MOL0     C63928   4.705   9.960  12.314 -0.5091 -0.0760  0.7456
  464MOL0     C63929   4.579  10.025  12.320 -0.2531 -0.0310 -0.2636
  464MOL0     O63930   4.573  10.127  12.409  0.1243  0.4158  0.2725
  464MOL0     C63931   4.439  10.153  12.458  0.8525  0.7204 -0.0972
  464MOL0     C63932   4.443  10.238  12.585  1.0931  0.4371  0.5204
  464MOL0     C63933   4.524  10.168  12.700 -0.1844  0.3463  0.8085
  464MOL0     C63934   4.505  10.263  12.815  1.1402  0.9313  0.4940
  464MOL0     C63935   4.589  10.217  12.936 -0.2769 -1.0717 -0.4552
  464MOL0     C63936   4.559  10.299  13.054  0.4334 -0.1420 -0.5874
  464MOL0     C63937   4.426  10.274  13.130 -0.9907 -0.0941  0.2130
  464MOL0     C63938   4.394  10.384  13.223 -0.6096 -0.3108  0.5421
  464MOL0    Cl63939   4.514  10.403  13.356  0.4328 -0.1251  0.3049
  464MOL0     C63940   4.484  10.006  12.217  0.9898  0.2874  1.3093
  464MOL0     C63941   4.507   9.904  12.118 -0.1666  0.0355 -0.4056
  464MOL0     O63942   4.465   9.673  11.947 -0.3124  0.1830 -0.7354
  464MOL0     C63943   4.784   9.675  11.776 -0.3334 -0.5920 -0.3251
  464MOL0     C63944   4.846   9.647  11.650  1.0554  0.0537  0.5694
  464MOL0     N63945   4.673   9.691  10.940 -0.6979  0.1165  0.1040
  464MOL0     N63946   4.617   9.754  10.853 -0.1773  0.3399 -0.0523
  464MOL0     C63947   3.660  10.664  10.795  0.0339 -0.4394 -0.7336
  464MOL0     C63948   3.547  10.747  10.795  0.1892  0.1654  0.5315
  464MOL0     C63949   3.204  11.038  10.789 -1.0167 -0.2927 -0.6112
  464MOL0     C63950   3.227  11.164  10.860  0.1903  0.0190 -0.6616
  464MOL0     C63951   3.118  11.249  10.896 -0.6997 -0.8360 -0.2557
  464MOL0     C63952   2.988  11.218  10.862 -0.7998  0.7328 -0.2558
  464MOL0     O63953   2.877  11.292  10.892 -0.0193 -0.5986  0.3089
  464MOL0     C63954   2.743  11.246  10.855  0.3185 -0.4811  0.4039
  464MOL0     C63955   2.651  11.350  10.909  0.2771 -0.1115 -0.0946
  464MOL0     C63956   2.655  11.489  10.833  0.0154  0.4257 -0.1782
  464MOL0     C63957   2.770  11.578  10.888  0.6762  0.4955  0.3050
  464MOL0     C63958   2.739  11.710  10.835 -0.5322 -0.3717 -0.1358
  464MOL0     C63959   2.714  11.820  10.789 -0.0372 -0.0302 -0.6519
  464MOL0     C63960   2.975  11.096  10.800  0.1160  0.0405 -0.7020
  464MOL0     C63961   3.068  11.011  10.758 -0.7158  0.1465 -0.0935
  464MOL0     C63962   3.030  10.881  10.694 -0.0181  0.3012  0.7171
  464MOL0     H63963   3.688  11.052  10.818 -0.6557 -0.4105 -0.5962
  464MOL0     H63964   3.882  10.914  10.840 -0.0832  0.4850  0.5065
  464MOL0     H63965   3.943  10.594  11.000  1.0756 -0.6167  0.9711
  464MOL0     H63966   4.016  10.743  10.936 -0.8397 -0.0709 -2.5326
  464MOL0     H63967   4.151  10.608  10.773  0.9607  0.6518 -0.5154
  464MOL0     H63968   4.195  10.604  10.948 -0.0190 -0.3092  0.1430
  464MOL0     H63969   4.105  10.375  10.951  0.7261  1.2189  1.0337
  464MOL0     H63970   4.050  10.395  10.775  0.0527 -4.2745  1.9589
  464MOL0     H63971   4.272  10.422  10.695  2.1220  2.2731  2.0908
  464MOL0     H63972   4.330  10.432  10.849 -0.3998 -1.2415  0.7407
  464MOL0     H63973   4.205  10.183  10.710 -0.0710  1.0476  0.0302
  464MOL0     H63974   4.232  10.176  10.877  1.4103 -1.1961 -1.1108
  464MOL0     H63975   4.443  10.161  10.664 -1.9342 -1.2430 -0.1117
  464MOL0     H63976   4.483  10.253  10.815  2.1475 -2.0818 -0.2766
  464MOL0     H63977   4.375   9.977  10.811 -3.1116  2.5838  1.2046
  464MOL0     H63978   4.468  10.064  10.941  1.4646  1.7113 -1.1358
  464MOL0     H63979   4.581   9.952  10.685  1.5353  1.1433 -1.4147
  464MOL0     H63980   4.671  10.063  10.776  3.5088 -2.9626 -1.3206
  464MOL0     H63981   4.785   9.995  11.011  1.1616  0.9018 -1.8358
  464MOL0     H63982   4.798   9.735  11.217  0.9030  1.1176  0.0437
  464MOL0     H63983   4.947   9.775  11.139  1.1465 -1.5401 -1.8003
  464MOL0     H63984   4.778   9.533  11.143 -0.5743  1.4036 -0.8918
  464MOL0     H63985   4.906   9.528  11.033 -2.2029 -2.6012  0.7372
  464MOL0     H63986   4.940   9.423  11.248  1.1220  0.5873  2.0912
  464MOL0     H63987   5.073   9.552  11.226  0.2894 -1.4105 -0.3870
  464MOL0     H63988   5.009   9.523  11.459 -2.7590 -0.0687  0.4140
  464MOL0     H63989   4.984   9.685  11.394  1.2512  0.2947  1.6022
  464MOL0     H63990   4.568   9.604  11.465 -0.2015  1.1963  0.7094
  464MOL0     H63991   4.401   9.817  11.705 -0.2315  1.1613 -3.7641
  464MOL0     H63992   4.350   9.638  11.686 -2.5094  1.5550 -1.6995
  464MOL0     H63993   4.401   9.745  11.560  0.6200  1.7531  0.0107
  464MOL0     H63994   4.821   9.814  12.178  0.3763  0.2435 -2.2122
  464MOL0     H63995   4.779   9.997  12.384 -0.6235 -0.1205  0.8913
  464MOL0     H63996   4.375  10.202  12.385 -1.9563  2.4843  3.2184
  464MOL0     H63997   4.395  10.056  12.486  1.8282  1.0884  3.1884
  464MOL0     H63998   4.482  10.339  12.565  3.7000 -0.7159 -0.6508
  464MOL0     H63999   4.341  10.236  12.623  0.4361 -1.9921 -1.1394
  464MOL0     H64000   4.631  10.168  12.676 -0.0648  0.3303  1.3193
  464MOL0     H64001   4.492  10.066  12.721  0.8568  0.3584  2.7670
  464MOL0     H64002   4.400  10.256  12.844  0.8268 -3.3580 -0.9383
  464MOL0     H64003   4.526  10.365  12.780  2.7397  0.1207 -1.0885
  464MOL0     H64004   4.565  10.112  12.953  0.5554 -0.8254  3.2766
  464MOL0     H64005   4.696  10.231  12.924 -0.0382 -2.4873 -0.0442
  464MOL0     H64006   4.564  10.401  13.017  1.5603  0.6051  1.4439
  464MOL0     H64007   4.643  10.287  13.123 -0.2307 -2.6401 -0.1019
  464MOL0     H64008   4.440  10.178  13.179  0.7873 -0.6234 -1.1952
  464MOL0     H64009   4.343  10.247  13.064  1.8395 -2.3131 -2.8312
  464MOL0     H64010   4.295  10.371  13.268 -0.0225 -3.2105  1.2281
  464MOL0     H64011   4.384  10.477  13.166 -0.2447  0.0700  1.0919
  464MOL0     H64012   4.386  10.054  12.218 -0.2904 -2.0541  0.0222
  464MOL0     H64013   4.429   9.876  12.047 -2.8079  0.4695  2.1146
  464MOL0     H64014   4.852   9.687  11.860 -1.0437 -1.6444  0.4355
  464MOL0     H64015   4.954   9.655  11.641  1.1691 -1.5947  0.2492
  464MOL0     H64016   3.628  10.561  10.787 -0.0814 -0.6419  1.6640
  464MOL0     H64017   3.453  10.698  10.772  1.8094 -4.5827  2.6018
  464MOL0     H64018   3.324  11.192  10.898 -0.1410  0.0185  0.1985
  464MOL0     H64019   3.125  11.347  10.943  0.9833 -0.9061 -0.2927
  464MOL0     H64020   2.729  11.249  10.747  0.7466 -0.0202  0.3589
  464MOL0     H64021   2.712  11.148  10.894 -1.7607 -0.6431 -1.4996
  464MOL0     H64022   2.671  11.354  11.017 -2.6661 -1.5491  0.6059
  464MOL0     H64023   2.556  11.302  10.885 -0.2426  1.1822 -0.6811
  464MOL0     H64024   2.669  11.461  10.728 -1.1042  0.1446 -0.2616
  464MOL0     H64025   2.563  11.542  10.857  0.1673  0.8837 -0.5957
  464MOL0     H64026   2.870  11.545  10.857  2.7702  4.3722  2.1745
  464MOL0     H64027   2.789  11.596  10.994  1.8117  2.6377 -0.2025
  464MOL0     H64028   2.699  11.914  10.741 -1.0730  1.5676  2.5098
  464MOL0     H64029   2.873  11.060  10.786 -0.3171 -0.4496  2.8408
  464MOL0     H64030   2.922  10.868  10.686 -0.4859  3.2489  1.0604
  464MOL0     H64031   3.064  10.887  10.590  3.4009 -2.7053  1.4359
  464MOL0     H64032   3.089  10.799  10.736 -0.9952 -1.1168 -0.5797
  465MOL0     O64033  11.470   3.977   2.968  0.3654 -0.0048  0.8884
  465MOL0     C64034  11.530   4.065   3.030  0.4098 -0.2062  0.4319
  465MOL0     O64035  11.530   4.074   3.167  0.3618  0.6458 -0.5561
  465MOL0     C64036  11.483   3.964   3.241 -0.2070 -0.6634  0.1490
  465MOL0     C64037  11.525   3.839   3.217 -0.0240 -0.0479  0.0395
  465MOL0     C64038  11.495   3.740   3.306 -0.8659 -0.4702 -0.0537
  465MOL0     C64039  11.417   3.767   3.418  0.0290  0.2865  0.6779
  465MOL0     O64040  11.393   3.666   3.506  0.1793  0.3169 -0.0819
  465MOL0     C64041  11.296   3.677   3.604 -0.4730 -0.3619 -0.0810
  465MOL0     C64042  11.293   3.552   3.690  0.1857  0.6736 -0.5735
  465MOL0     C64043  11.207   3.580   3.816 -0.1807  0.1611  0.0537
  465MOL0     C64044  11.163   3.449   3.895 -0.6040  0.7549  0.3776
  465MOL0     C64045  11.073   3.469   4.021  0.1000  0.5429  0.3552
  465MOL0     C64046  11.127   3.537   4.145  0.1929 -0.5215 -0.2683
  465MOL0     C64047  11.006   3.535   4.239  0.1876 -0.2877 -0.1080
  465MOL0     C64048  11.055   3.610   4.366 -0.1296  0.2243  0.2871
  465MOL0     N64049  11.078   3.752   4.350  0.4173  1.1363  0.4404
  465MOL0     C64050  10.983   3.846   4.351  0.4550 -0.2331  1.2129
  465MOL0     C64051  11.051   3.968   4.343  0.1560  0.5419  0.6261
  465MOL0     C64052  10.988   4.104   4.372  1.0651 -0.0367  0.6084
  465MOL0     C64053  11.089   4.214   4.365  0.4555 -0.0284  0.4684
  465MOL0     C64054  11.017   4.351   4.385 -0.8680 -0.6916  0.4745
  465MOL0     C64055  10.977   4.387   4.535  0.7727 -0.0931  0.1072
  465MOL0     O64056  10.924   4.521   4.557 -0.0067 -0.3800  0.3727
  465MOL0     C64057  10.877   4.552   4.682 -0.8696 -0.7486  0.2731
  465MOL0     C64058  10.873   4.462   4.791 -0.2585  1.0801  0.9613
  465MOL0     C64059  10.816   4.495   4.915 -0.6273 -0.8963 -0.4498
  465MOL0     C64060  10.820   4.395   5.031  0.3815 -0.7664 -0.2358
  465MOL0     C64061  10.767   4.629   4.918 -0.0233  0.6927 -0.0276
  465MOL0     C64062  10.699   4.686   5.037  0.4368  0.2039  0.1287
  465MOL0     O64063  10.676   4.818   5.050  0.1547 -0.0075 -0.4260
  465MOL0     C64064  10.567   4.879   5.092  0.2633 -0.8376 -0.6514
  465MOL0     C64065  10.441   4.835   5.054  0.8772  0.3653 -0.4204
  465MOL0     C64066  10.322   4.897   5.104  0.1968 -1.1745  0.6802
  465MOL0     C64067  10.334   4.998   5.201  1.1781  0.5642 -0.3965
  465MOL0     O64068  10.212   5.042   5.250  0.7538  0.3504  0.6741
  465MOL0     C64069  10.211   5.050   5.394  0.2174 -0.2898 -0.1163
  465MOL0     C64070  10.203   5.198   5.440  0.9444  0.1561 -0.2767
  465MOL0     C64071  10.090   5.299   5.380  1.1546  1.0716  0.4210
  465MOL0     C64072   9.955   5.224   5.366  1.5433 -0.1918  0.0645
  465MOL0     C64073   9.864   5.297   5.269 -0.4542 -0.2108 -0.2539
  465MOL0     C64074   9.730   5.229   5.252 -0.0433  0.2556  0.3360
  465MOL0     C64075   9.641   5.269   5.127  0.0722 -0.5679  0.6966
  465MOL0     C64076   9.545   5.392   5.155  0.4129  0.7844  0.3296
  465MOL0    Cl64077   9.631   5.544   5.136  0.5033  0.7322  0.0805
  465MOL0     C64078  10.468   5.033   5.243  0.7418 -0.3720  0.0766
  465MOL0     C64079  10.579   4.968   5.205 -0.1369 -0.0362  0.4474
  465MOL0     O64080  10.643   4.599   5.106 -0.9403  0.3955 -0.6699
  465MOL0     C64081  10.766   4.716   4.805 -0.5503  0.3004 -1.0345
  465MOL0     C64082  10.829   4.675   4.689  0.0588 -1.0017  0.6773
  465MOL0     N64083  11.187   3.935   4.336 -0.0591 -0.2502  0.1533
  465MOL0     N64084  11.194   3.810   4.344 -0.4826 -0.4322  0.6888
  465MOL0     C64085  11.355   3.891   3.433 -0.4584 -0.0121  0.2801
  465MOL0     C64086  11.392   3.993   3.338  0.2652 -0.6716 -0.2622
  465MOL0     C64087  11.587   4.181   2.958 -0.3481  0.6831 -0.1186
  465MOL0     C64088  11.640   4.282   3.035  0.0010  0.0755 -0.5153
  465MOL0     C64089  11.668   4.410   2.970  0.0740 -0.1072  0.9294
  465MOL0     C64090  11.660   4.426   2.833  0.6068 -0.5529  1.3915
  465MOL0     O64091  11.677   4.544   2.766  0.4628  0.5423 -0.3460
  465MOL0     C64092  11.659   4.681   2.810 -0.9627  0.1614  0.8055
  465MOL0     C64093  11.559   4.760   2.721  0.1841 -0.9576  0.1298
  465MOL0     C64094  11.488   4.889   2.787 -0.7788 -0.1838  0.0808
  465MOL0     C64095  11.367   4.926   2.695 -0.0373  0.9086 -0.2515
  465MOL0     C64096  11.405   4.999   2.569 -0.8736 -0.4516  0.2939
  465MOL0     C64097  11.468   5.055   2.476  1.0180  0.7366 -0.7736
  465MOL0     C64098  11.624   4.320   2.751 -0.3483  0.4908  0.3965
  465MOL0     C64099  11.597   4.191   2.809 -0.7871  1.1465 -0.2310
  465MOL0     C64100  11.553   4.086   2.707 -0.2215  0.1295  0.5198
  465MOL0     H64101  11.600   3.819   3.141  2.4882 -2.5336  2.9018
  465MOL0     H64102  11.540   3.642   3.301  0.0132 -0.0824  0.1084
  465MOL0     H64103  11.198   3.688   3.557 -1.8070 -2.2558  2.0861
  465MOL0     H64104  11.325   3.763   3.665  2.4132 -2.3382  1.5465
  465MOL0     H64105  11.246   3.468   3.638 -1.3746  3.0960 -3.4045
  465MOL0     H64106  11.394   3.529   3.726  0.5766  0.1673 -1.9575
  465MOL0     H64107  11.262   3.652   3.878  0.9611 -1.4012  0.9619
  465MOL0     H64108  11.117   3.630   3.781 -0.7826 -1.0224 -0.1495
  465MOL0     H64109  11.123   3.381   3.819  0.3157 -1.0379  1.4214
  465MOL0     H64110  11.257   3.400   3.920 -0.2384 -0.4135 -2.8191
  465MOL0     H64111  11.040   3.372   4.059 -1.2884  1.3381  1.2513
  465MOL0     H64112  10.986   3.524   3.982 -0.1557 -0.5309 -0.6607
  465MOL0     H64113  11.216   3.487   4.184  0.0201 -0.8960 -0.3475
  465MOL0     H64114  11.156   3.640   4.124  2.7062 -0.6386  2.1295
  465MOL0     H64115  10.989   3.429   4.263  1.0685 -0.1349  1.3499
  465MOL0     H64116  10.920   3.575   4.186  2.0361  0.8550 -2.4376
  465MOL0     H64117  10.987   3.579   4.446 -0.0266 -2.6253 -0.6326
  465MOL0     H64118  11.152   3.570   4.399 -0.1707  2.0623  2.9595
  465MOL0     H64119  10.879   3.835   4.381 -0.6684  1.3699 -1.6649
  465MOL0     H64120  10.949   4.104   4.474 -1.1289  4.3817  0.0065
  465MOL0     H64121  10.914   4.122   4.294 -0.2257 -1.7077  1.3765
  465MOL0     H64122  11.165   4.205   4.442  1.2812  0.9649 -0.2143
  465MOL0     H64123  11.136   4.215   4.266 -0.4192 -1.6205 -0.0186
  465MOL0     H64124  11.078   4.432   4.345 -1.6691  0.5954  1.7319
  465MOL0     H64125  10.927   4.348   4.323  0.2004  1.2377 -1.2894
  465MOL0     H64126  10.903   4.316   4.572  1.7004 -0.9309  0.4068
  465MOL0     H64127  11.066   4.379   4.598  1.5536  3.1074 -0.4457
  465MOL0     H64128  10.895   4.356   4.781  1.2979  1.4802 -0.2815
  465MOL0     H64129  10.850   4.445   5.124 -1.2191 -3.1452  1.7314
  465MOL0     H64130  10.901   4.322   5.017  2.3298  1.3645 -0.6375
  465MOL0     H64131  10.727   4.341   5.051 -1.6607  2.0834 -1.5522
  465MOL0     H64132  10.435   4.756   4.980  6.0323  1.6115 -2.5630
  465MOL0     H64133  10.221   4.874   5.069 -1.2280  0.6126  3.2302
  465MOL0     H64134  10.121   5.012   5.442 -0.4869 -3.0776 -3.2806
  465MOL0     H64135  10.292   4.995   5.443 -0.4933 -0.2404  1.1492
  465MOL0     H64136  10.181   5.191   5.547  1.6324 -4.0184 -0.2118
  465MOL0     H64137  10.296   5.255   5.429 -0.2377  2.2129 -0.0232
  465MOL0     H64138  10.125   5.324   5.279 -0.9687  2.7049  0.0249
  465MOL0     H64139  10.067   5.394   5.430 -0.5584  0.7955  0.2209
  465MOL0     H64140   9.902   5.214   5.461 -2.0148 -0.8828 -1.7889
  465MOL0     H64141   9.972   5.123   5.328  2.2714  0.7067 -2.1595
  465MOL0     H64142   9.850   5.399   5.305  1.0084 -0.3346  0.7130
  465MOL0     H64143   9.897   5.313   5.166 -2.3656  0.1058 -0.8706
  465MOL0     H64144   9.684   5.246   5.350  1.4822  3.9527  0.5596
  465MOL0     H64145   9.737   5.120   5.240 -0.0308  0.3986 -1.1664
  465MOL0     H64146   9.579   5.196   5.074 -0.5566  1.7106 -1.9156
  465MOL0     H64147   9.707   5.309   5.049 -2.1828  1.5237 -0.2783
  465MOL0     H64148   9.498   5.396   5.253 -1.6006  1.9479 -0.6259
  465MOL0     H64149   9.465   5.400   5.082  1.4165 -0.6874 -0.9847
  465MOL0     H64150  10.477   5.103   5.326  1.2098 -0.0755 -0.2200
  465MOL0     H64151  10.678   4.999   5.239 -0.4567 -0.4120  1.7641
  465MOL0     H64152  10.737   4.819   4.818 -1.2445 -0.2204  3.0351
  465MOL0     H64153  10.825   4.738   4.600 -0.5386 -0.6629  0.9380
  465MOL0     H64154  11.293   3.911   3.519  0.9412 -0.6231  1.4691
  465MOL0     H64155  11.360   4.096   3.354  0.2868 -0.6219 -0.5297
  465MOL0     H64156  11.620   4.283   3.142 -1.3245 -1.0176 -0.7360
  465MOL0     H64157  11.685   4.500   3.027  1.5609  0.7812 -0.8082
  465MOL0     H64158  11.622   4.669   2.912 -2.0184 -1.4066  0.2835
  465MOL0     H64159  11.756   4.733   2.815 -1.6030  1.3222  1.7178
  465MOL0     H64160  11.470   4.699   2.703 -0.3225 -0.2639  0.2761
  465MOL0     H64161  11.606   4.784   2.625 -1.6160  1.9889 -0.1326
  465MOL0     H64162  11.445   4.865   2.885  0.1792 -2.4080  0.0245
  465MOL0     H64163  11.567   4.957   2.819  2.2352 -3.9114  1.2899
  465MOL0     H64164  11.304   4.999   2.748 -2.8554 -0.4619 -1.4792
  465MOL0     H64165  11.300   4.844   2.669 -2.7212  3.0312 -0.5133
  465MOL0     H64166  11.527   5.084   2.392  2.4783  0.6416  0.1825
  465MOL0     H64167  11.617   4.322   2.643 -1.9170 -1.1827  0.4249
  465MOL0     H64168  11.474   4.016   2.735  0.6591 -2.0365 -1.9203
  465MOL0     H64169  11.494   4.129   2.625 -0.7672 -0.1081  0.7840
  465MOL0     H64170  11.635   4.034   2.657  0.0051  0.2409  0.7756
  466MOL0     O64171   6.566   8.758   8.739 -0.0109  0.2785  0.3942
  466MOL0     C64172   6.453   8.714   8.699 -0.2111 -1.2562 -0.2791
  466MOL0     O64173   6.334   8.739   8.746  0.8277 -0.4176  0.3384
  466MOL0     C64174   6.327   8.830   8.849  0.4897 -1.2869  0.6433
  466MOL0     C64175   6.351   8.774   8.974  0.3755  1.0401 -1.3929
  466MOL0     C64176   6.330   8.841   9.084 -0.2219  0.3405 -0.5923
  466MOL0     C64177   6.294   8.975   9.084 -1.0884 -0.3610 -1.1074
  466MOL0     O64178   6.306   9.042   9.203 -0.7545 -0.4040  1.0273
  466MOL0     C64179   6.243   9.172   9.218  0.3308  0.2635  1.0605
  466MOL0     C64180   6.254   9.212   9.358 -0.2889  0.4163 -0.3967
  466MOL0     C64181   6.216   9.362   9.387 -0.2942  0.4784 -0.3463
  466MOL0     C64182   6.312   9.416   9.493  0.6104  0.1936 -0.5770
  466MOL0     C64183   6.312   9.355   9.629 -0.6985  0.6400  0.1820
  466MOL0     C64184   6.299   9.447   9.750 -0.1015  0.0510 -0.5097
  466MOL0     C64185   6.180   9.549   9.752 -0.0162 -0.3580 -0.4397
  466MOL0     C64186   6.236   9.692   9.787  0.5506  0.2499 -0.2557
  466MOL0     N64187   6.304   9.751   9.670 -0.6787  0.6461 -1.2411
  466MOL0     C64188   6.255   9.859   9.594  0.6362  0.4853 -0.6478
  466MOL0     C64189   6.345   9.902   9.507 -0.1935  1.0320 -0.4761
  466MOL0     C64190   6.331  10.024   9.413  0.9011 -0.4966  0.2068
  466MOL0     C64191   6.360   9.976   9.267  0.2205  0.2721 -0.6058
  466MOL0     C64192   6.517   9.963   9.253  0.3539 -0.4804  0.9670
  466MOL0     C64193   6.544   9.915   9.107  0.2669 -1.0187 -0.0489
  466MOL0     O64194   6.688   9.916   9.076  0.1875  0.4847  0.6000
  466MOL0     C64195   6.714   9.887   8.948  0.3306  0.1732 -0.8411
  466MOL0     C64196   6.624   9.871   8.847 -0.3996  0.5352 -0.2251
  466MOL0     C64197   6.651   9.833   8.717  0.3386  0.6310  0.3300
  466MOL0     C64198   6.533   9.818   8.628  1.1457  0.6777  0.2373
  466MOL0     C64199   6.783   9.822   8.683 -0.5506 -0.2194  0.3761
  466MOL0     C64200   6.830   9.783   8.550 -0.9335 -0.1523  1.1113
  466MOL0     O64201   6.964   9.816   8.521 -0.3906 -0.4785 -0.2411
  466MOL0     C64202   7.021   9.763   8.413 -0.3584 -0.0939  1.3550
  466MOL0     C64203   7.050   9.623   8.418 -0.4319  0.3811 -0.4506
  466MOL0     C64204   7.083   9.554   8.299  1.6065 -0.2745 -0.2717
  466MOL0     C64205   7.078   9.623   8.176 -1.3528 -0.4109 -0.1571
  466MOL0     O64206   7.097   9.556   8.057  0.6455 -0.4255 -0.1366
  466MOL0     C64207   7.212   9.468   8.047 -0.2106  0.6716  0.3457
  466MOL0     C64208   7.344   9.553   8.026  0.7775  0.3207 -0.3378
  466MOL0     C64209   7.334   9.600   7.881  0.3293  0.4266  1.0017
  466MOL0     C64210   7.447   9.700   7.873  1.7658  1.0049  0.4642
  466MOL0     C64211   7.462   9.769   7.746  0.6001 -0.3055  0.6203
  466MOL0     C64212   7.496   9.685   7.624  0.7506  0.5252  0.0301
  466MOL0     C64213   7.526   9.774   7.500 -0.2748  0.1854  0.5528
  466MOL0     C64214   7.574   9.692   7.386  0.3047  1.1581  1.3916
  466MOL0    Cl64215   7.755   9.681   7.405 -0.0675  0.2542 -0.0921
  466MOL0     C64216   7.054   9.758   8.174  0.9164 -0.1198  0.2666
  466MOL0     C64217   7.027   9.833   8.292 -0.0830  0.3356 -0.0530
  466MOL0     O64218   6.761   9.716   8.478  0.3135 -0.7160  0.7527
  466MOL0     C64219   6.880   9.868   8.776  0.2351 -0.2215 -0.4245
  466MOL0     C64220   6.844   9.894   8.909 -0.3513  0.4527  0.4379
  466MOL0     N64221   6.457   9.822   9.532  0.5390  0.1723 -0.9494
  466MOL0     N64222   6.428   9.727   9.628 -0.1723 -1.4717  0.0064
  466MOL0     C64223   6.268   9.033   8.960  0.2642 -0.1877 -0.0153
  466MOL0     C64224   6.278   8.961   8.841  0.2448  0.1357 -0.3955
  466MOL0     C64225   6.459   8.632   8.575  0.6998 -0.1489 -0.4755
  466MOL0     C64226   6.375   8.520   8.586 -0.6163  0.2629  0.4865
  466MOL0     C64227   6.378   8.421   8.485  0.6500 -0.9019  0.1987
  466MOL0     C64228   6.474   8.426   8.379  1.9548  0.2629  0.1817
  466MOL0     O64229   6.489   8.330   8.284  0.3878  0.0138  0.6350
  466MOL0     C64230   6.495   8.191   8.309 -1.3411  0.7102 -0.5592
  466MOL0     C64231   6.648   8.169   8.329 -0.6842  0.9359 -0.7335
  466MOL0     C64232   6.700   8.081   8.447 -0.1066 -0.5131  0.5907
  466MOL0     C64233   6.630   7.939   8.449 -1.3230 -0.0688 -0.2215
  466MOL0     C64234   6.524   7.936   8.542  0.3143  0.1916  0.0657
  466MOL0     C64235   6.436   7.930   8.626 -0.1807  0.5874 -0.5581
  466MOL0     C64236   6.547   8.540   8.367 -0.2238 -0.5595 -0.2061
  466MOL0     C64237   6.556   8.636   8.471 -0.4552 -0.5724 -0.0860
  466MOL0     C64238   6.647   8.761   8.447  0.1576  0.2912 -1.1112
  466MOL0     H64239   6.402   8.678   8.980  2.3798  1.9406 -2.8248
  466MOL0     H64240   6.350   8.790   9.178  0.3633 -3.5508 -2.6705
  466MOL0     H64241   6.138   9.160   9.188  0.5483 -0.6887  0.6287
  466MOL0     H64242   6.287   9.250   9.155  0.1671  0.6177  1.3839
  466MOL0     H64243   6.196   9.144   9.421 -0.2371 -0.0228 -0.8210
  466MOL0     H64244   6.360   9.204   9.387 -0.6325  0.9985  1.1375
  466MOL0     H64245   6.221   9.428   9.300  2.8973 -0.0613 -0.6943
  466MOL0     H64246   6.115   9.370   9.429 -2.4665  0.7670 -5.0319
  466MOL0     H64247   6.412   9.410   9.448 -1.5998 -0.2767 -6.1933
  466MOL0     H64248   6.291   9.523   9.501 -0.8305 -0.2261  3.9590
  466MOL0     H64249   6.414   9.317   9.639 -0.5251  1.3676  1.4066
  466MOL0     H64250   6.242   9.273   9.649  1.9183 -0.8993  4.4006
  466MOL0     H64251   6.293   9.372   9.829 -4.3408 -2.5762 -2.9525
  466MOL0     H64252   6.388   9.506   9.773 -0.6375  0.3560  0.8905
  466MOL0     H64253   6.102   9.525   9.825  1.7063 -1.5411  1.0877
  466MOL0     H64254   6.132   9.556   9.653  2.6222  0.8932 -1.7282
  466MOL0     H64255   6.154   9.761   9.809 -1.2823 -0.8437 -3.1016
  466MOL0     H64256   6.301   9.676   9.873  0.3022 -2.9245 -0.5324
  466MOL0     H64257   6.148   9.871   9.604 -0.3031 -4.0269 -2.5222
  466MOL0     H64258   6.387  10.118   9.428 -1.4080  1.0370 -0.2241
  466MOL0     H64259   6.229  10.063   9.423  1.0793 -0.1096  0.5449
  466MOL0     H64260   6.312   9.877   9.262 -2.8939  1.2342  3.8124
  466MOL0     H64261   6.307  10.047   9.203  0.4511  1.9743  0.9883
  466MOL0     H64262   6.570  10.054   9.281  1.3061 -0.7054 -0.0482
  466MOL0     H64263   6.545   9.883   9.324 -1.6391 -0.2203  2.1198
  466MOL0     H64264   6.494   9.819   9.089  1.1305 -1.5203  0.1295
  466MOL0     H64265   6.488   9.986   9.046 -3.3319 -3.3314  0.2945
  466MOL0     H64266   6.518   9.878   8.873 -0.4028  4.3570 -0.7521
  466MOL0     H64267   6.522   9.712   8.602  0.7833  0.2036  2.1477
  466MOL0     H64268   6.536   9.875   8.535 -0.3210  3.1191  1.5891
  466MOL0     H64269   6.445   9.866   8.670  2.6997  0.6701  3.8764
  466MOL0     H64270   7.072   9.572   8.512 -2.6214 -1.9131 -1.0411
  466MOL0     H64271   7.116   9.450   8.299  2.5973  0.0307  0.3938
  466MOL0     H64272   7.232   9.401   8.131  3.2237  1.7980  0.5851
  466MOL0     H64273   7.195   9.401   7.962 -1.0031 -0.7505  1.5673
  466MOL0     H64274   7.343   9.637   8.096 -0.6239 -1.2455  1.6009
  466MOL0     H64275   7.435   9.499   8.052 -0.7029 -0.4580  3.9374
  466MOL0     H64276   7.242   9.648   7.847  0.4313  0.4331  0.7338
  466MOL0     H64277   7.358   9.519   7.811  0.1850  3.2124 -2.5506
  466MOL0     H64278   7.536   9.645   7.906 -0.6273 -2.4395  1.6725
  466MOL0     H64279   7.427   9.783   7.941 -0.9559  0.2698  0.6682
  466MOL0     H64280   7.365   9.819   7.734 -0.6942 -2.9509 -0.8164
  466MOL0     H64281   7.532   9.850   7.765 -2.6841  2.7936  0.6200
  466MOL0     H64282   7.410   9.618   7.611  0.0795  0.8774  2.1858
  466MOL0     H64283   7.581   9.619   7.644  0.5833 -0.0104 -0.9763
  466MOL0     H64284   7.606   9.842   7.529 -0.5382  0.7697 -0.0663
  466MOL0     H64285   7.433   9.825   7.472  0.7372  0.8800 -1.8359
  466MOL0     H64286   7.556   9.747   7.293  3.2388  0.4916  0.3215
  466MOL0     H64287   7.523   9.596   7.381 -2.1667  2.2851  2.6873
  466MOL0     H64288   7.052   9.812   8.080  1.0772  0.4973  0.6096
  466MOL0     H64289   7.009   9.940   8.285  0.6218  0.3563 -4.2899
  466MOL0     H64290   6.986   9.870   8.753  0.3390  2.3301 -0.0433
  466MOL0     H64291   6.919   9.912   8.985 -0.7694 -3.0354  1.8636
  466MOL0     H64292   6.243   9.138   8.949  0.7363 -0.0128  0.5151
  466MOL0     H64293   6.242   9.017   8.756 -3.5180 -1.3790  0.0103
  466MOL0     H64294   6.303   8.509   8.666 -0.4952 -0.5629  0.4893
  466MOL0     H64295   6.305   8.341   8.482  0.4089 -0.7057 -3.4978
  466MOL0     H64296   6.432   8.161   8.393 -1.5330 -1.5205 -1.4458
  466MOL0     H64297   6.465   8.129   8.224 -1.2446  0.6851 -0.5751
  466MOL0     H64298   6.702   8.264   8.327  2.2931 -0.6433 -1.4655
  466MOL0     H64299   6.672   8.117   8.237 -0.9785 -1.0607  0.2594
  466MOL0     H64300   6.806   8.055   8.441 -0.2962 -1.8230  2.1586
  466MOL0     H64301   6.676   8.135   8.539 -0.4470 -1.8501  1.3215
  466MOL0     H64302   6.698   7.857   8.469 -3.5654 -2.6586 -2.3959
  466MOL0     H64303   6.592   7.910   8.350 -0.2429  1.8703 -1.2797
  466MOL0     H64304   6.346   7.925   8.684 -0.7338  1.4023 -1.3303
  466MOL0     H64305   6.618   8.551   8.285  1.3799  1.5635  1.3544
  466MOL0     H64306   6.734   8.748   8.512  1.0294  0.4132 -2.2194
  466MOL0     H64307   6.692   8.764   8.347 -1.3717 -2.0889 -1.9466
  466MOL0     H64308   6.590   8.853   8.463 -2.3825 -1.4182  0.2020
  467MOL0     O64309   9.540   0.763  11.416 -0.0596  0.8497 -0.8673
  467MOL0     C64310   9.607   0.693  11.339  0.6967 -1.0564  0.8435
  467MOL0     O64311   9.633   0.562  11.357 -0.2974  0.5266  0.8373
  467MOL0     C64312   9.582   0.506  11.476  0.4622 -0.3738  0.9872
  467MOL0     C64313   9.673   0.452  11.560  0.4544  0.8544  0.3652
  467MOL0     C64314   9.634   0.378  11.672 -0.2839  0.3680  1.1515
  467MOL0     C64315   9.504   0.336  11.676  0.0417  0.1093 -0.5662
  467MOL0     O64316   9.455   0.256  11.778 -0.0506  0.3600  0.5135
  467MOL0     C64317   9.549   0.150  11.822  0.8085  0.3305  0.9970
  467MOL0     C64318   9.477   0.084  11.933  0.1576 -0.5043 -0.2705
  467MOL0     C64319   9.490   0.184  12.061  0.6857 -0.1698 -0.0897
  467MOL0     C64320   9.400   0.164  12.175  0.8643 -0.6164 -0.6545
  467MOL0     C64321   9.412   0.030  12.241 -0.2752  0.1707 -0.1465
  467MOL0     C64322   9.334   0.039  12.382 -0.2063  0.0606  0.6363
  467MOL0     C64323   9.370  -0.088  12.474  0.3075  0.1362 -0.0661
  467MOL0     C64324   9.319  -0.220  12.423 -0.5660  0.7098  0.3016
  467MOL0     N64325   9.176  -0.216  12.378  0.9044 -1.4151 -0.6023
  467MOL0     C64326   9.105  -0.280  12.275  0.4269  0.9464 -0.4844
  467MOL0     C64327   8.972  -0.280  12.311  0.5471  0.3316 -0.2709
  467MOL0     C64328   8.860  -0.361  12.246  0.6255  0.0439 -0.2763
  467MOL0     C64329   8.792  -0.279  12.124  0.5006 -0.5250  0.3845
  467MOL0     C64330   8.694  -0.364  12.042 -0.6909  0.1316  0.6108
  467MOL0     C64331   8.750  -0.460  11.935 -0.6636  0.2915 -0.7760
  467MOL0     O64332   8.875  -0.395  11.892  0.3999 -0.0058 -0.5958
  467MOL0     C64333   8.999  -0.455  11.915  0.4301 -0.5501  0.2187
  467MOL0     C64334   9.091  -0.361  11.943 -0.4863  0.1741 -0.3185
  467MOL0     C64335   9.223  -0.407  11.971  0.0270 -0.4240 -1.2457
  467MOL0     C64336   9.332  -0.309  11.980 -1.3228 -0.3101  0.7411
  467MOL0     C64337   9.252  -0.544  11.979  0.2263 -0.9794  0.5246
  467MOL0     C64338   9.387  -0.585  12.026  0.1551  0.4774  0.0387
  467MOL0     O64339   9.461  -0.668  11.952  0.5319  0.5688 -1.1462
  467MOL0     C64340   9.596  -0.674  11.974 -0.6550  0.4850  1.3530
  467MOL0     C64341   9.679  -0.568  12.012  0.1866  0.5213  0.5724
  467MOL0     C64342   9.814  -0.596  12.050  0.5201 -0.0286  0.3319
  467MOL0     C64343   9.882  -0.713  12.016 -0.7259 -0.2699 -0.7045
  467MOL0     O64344  10.017  -0.714  12.051 -0.1854 -0.2913  0.7137
  467MOL0     C64345  10.099  -0.831  12.030  0.6927  0.2548  0.2920
  467MOL0     C64346  10.237  -0.808  12.088  0.5398 -0.7516 -0.1259
  467MOL0     C64347  10.316  -0.691  12.039 -0.7882 -0.4171  0.2335
  467MOL0     C64348  10.424  -0.640  12.139  1.1467  0.3165 -0.8213
  467MOL0     C64349  10.508  -0.525  12.079  0.2820 -0.4651  0.6125
  467MOL0     C64350  10.592  -0.464  12.189 -0.5066 -0.9879 -0.3528
  467MOL0     C64351  10.660  -0.332  12.146 -0.2614 -1.2748 -0.5101
  467MOL0     C64352  10.745  -0.278  12.266 -0.1470 -0.8460 -0.5852
  467MOL0    Cl64353  10.786  -0.110  12.225  0.0930  0.2523  0.3215
  467MOL0     C64354   9.802  -0.811  11.969 -0.1098  0.1555 -0.1616
  467MOL0     C64355   9.660  -0.794  11.945 -0.0017  0.5889  0.8145
  467MOL0     O64356   9.420  -0.544  12.140 -0.1341 -0.2569 -0.1045
  467MOL0     C64357   9.157  -0.637  11.945 -0.1011 -0.5154 -0.1805
  467MOL0     C64358   9.027  -0.593  11.911  0.3836  0.0649  0.2695
  467MOL0     N64359   8.963  -0.216  12.429 -0.2913  0.0686 -0.7778
  467MOL0     N64360   9.086  -0.190  12.473  0.8814  0.1130 -0.4105
  467MOL0     C64361   9.414   0.387  11.592 -0.2120  0.6612 -0.8087
  467MOL0     C64362   9.446   0.484  11.502  0.2718 -0.8949  0.3022
  467MOL0     C64363   9.653   0.763  11.218 -0.7927  0.6402  0.6239
  467MOL0     C64364   9.780   0.722  11.169  0.7177  0.7419 -0.6662
  467MOL0     C64365   9.839   0.786  11.064 -1.0015  0.9991  0.3173
  467MOL0     C64366   9.774   0.897  11.003  0.1532 -0.3596 -1.0175
  467MOL0     O64367   9.833   0.966  10.909  1.5373 -0.5245 -0.4769
  467MOL0     C64368   9.754   1.046  10.808 -0.3332  0.8911  0.3325
  467MOL0     C64369   9.727   0.971  10.680  0.2434 -0.0507 -0.2888
  467MOL0     C64370   9.833   0.869  10.627 -0.1775 -0.9108 -0.0854
  467MOL0     C64371   9.776   0.772  10.525  0.5404 -0.0183 -0.4234
  467MOL0     C64372   9.746   0.833  10.403 -0.6690  0.9902  0.1268
  467MOL0     C64373   9.716   0.858  10.288 -0.7856 -0.4333  1.1005
  467MOL0     C64374   9.645   0.928  11.048 -1.2804 -0.5895  1.1417
  467MOL0     C64375   9.586   0.866  11.151  1.4355  0.4038  0.8119
  467MOL0     C64376   9.442   0.917  11.174  0.2032 -0.3242 -0.2591
  467MOL0     H64377   9.780   0.455  11.542  0.6433  2.9722  1.4299
  467MOL0     H64378   9.719   0.349  11.732  0.7529 -2.2278 -1.3144
  467MOL0     H64379   9.640   0.193  11.866  1.0049  2.2305 -1.1196
  467MOL0     H64380   9.564   0.085  11.736 -1.2305  0.9650  0.1020
  467MOL0     H64381   9.370   0.079  11.912  0.1036 -1.0866  0.1359
  467MOL0     H64382   9.519  -0.016  11.949 -1.4986 -1.1550  0.2283
  467MOL0     H64383   9.591   0.184  12.104  0.6809 -0.2297 -0.0780
  467MOL0     H64384   9.485   0.287  12.026 -2.7096 -0.1583  0.0981
  467MOL0     H64385   9.395   0.242  12.252 -3.8596  1.0847 -2.3353
  467MOL0     H64386   9.295   0.173  12.144 -0.2240  1.7744  3.0539
  467MOL0     H64387   9.517   0.018  12.269  0.6921 -1.3566 -3.8522
  467MOL0     H64388   9.375  -0.046  12.173  0.7750 -3.0829  2.6351
  467MOL0     H64389   9.362   0.130  12.437 -2.0285  1.9972 -1.4472
  467MOL0     H64390   9.226   0.043  12.366  0.1123  2.1898 -1.4758
  467MOL0     H64391   9.343  -0.071  12.579 -1.0801  0.1860 -0.4192
  467MOL0     H64392   9.479  -0.100  12.473  0.6144  1.8713 -4.1020
  467MOL0     H64393   9.385  -0.224  12.337  1.0996  1.9169  1.4713
  467MOL0     H64394   9.329  -0.303  12.494  0.1055  2.3388  2.2208
  467MOL0     H64395   9.146  -0.336  12.192 -0.9558 -0.4565 -0.2677
  467MOL0     H64396   8.789  -0.382  12.327  0.4693  1.9333  0.1197
  467MOL0     H64397   8.901  -0.460  12.222  0.3314 -0.1351 -0.0408
  467MOL0     H64398   8.727  -0.201  12.165 -0.3427 -1.4318  0.8310
  467MOL0     H64399   8.869  -0.231  12.064  0.2358 -1.4357 -0.7222
  467MOL0     H64400   8.629  -0.422  12.109 -0.4157 -2.2512 -1.0406
  467MOL0     H64401   8.622  -0.300  11.992 -0.4894  1.4903  1.9877
  467MOL0     H64402   8.767  -0.560  11.977 -0.0863  1.0044  0.7462
  467MOL0     H64403   8.690  -0.479  11.845 -1.4898 -0.4406 -0.0895
  467MOL0     H64404   9.061  -0.257  11.942 -2.6292 -0.3409 -3.4970
  467MOL0     H64405   9.340  -0.265  12.080 -0.6047  0.2991  0.4307
  467MOL0     H64406   9.323  -0.233  11.902  0.8263 -2.8138 -2.1947
  467MOL0     H64407   9.430  -0.352  11.954 -1.6762  0.2179 -1.7546
  467MOL0     H64408   9.641  -0.474  12.050  0.7279  0.9791 -0.0133
  467MOL0     H64409   9.860  -0.511  12.099 -1.9308  1.1971  0.6805
  467MOL0     H64410  10.055  -0.917  12.081  0.8927  0.1449  0.2825
  467MOL0     H64411  10.116  -0.852  11.924  0.4763 -0.3265  0.3686
  467MOL0     H64412  10.226  -0.805  12.197 -0.6359  0.0734 -0.2490
  467MOL0     H64413  10.304  -0.894  12.070  1.2081  0.0934 -1.8620
  467MOL0     H64414  10.252  -0.605  12.015  0.3008  0.6545  1.0083
  467MOL0     H64415  10.363  -0.720  11.944 -1.7967 -0.1089 -0.3773
  467MOL0     H64416  10.480  -0.719  12.189  1.9173 -0.9678 -3.5428
  467MOL0     H64417  10.374  -0.589  12.222  1.6416  2.0497 -1.5318
  467MOL0     H64418  10.568  -0.556  11.993  0.5736 -0.6199  0.8735
  467MOL0     H64419  10.432  -0.465  12.028  0.1242 -2.5735 -1.8340
  467MOL0     H64420  10.670  -0.531  12.226  1.8136  0.0132 -2.9805
  467MOL0     H64421  10.524  -0.429  12.267 -0.9260 -1.6705 -0.4139
  467MOL0     H64422  10.586  -0.258  12.116 -0.6250 -0.7392  1.5785
  467MOL0     H64423  10.732  -0.345  12.065 -1.8498 -0.7428 -2.0573
  467MOL0     H64424  10.845  -0.322  12.270  2.3178  4.1120  0.2866
  467MOL0     H64425  10.690  -0.284  12.360 -0.3140 -0.1291 -0.6325
  467MOL0     H64426   9.852  -0.902  11.937  0.8148  0.8276 -0.6727
  467MOL0     H64427   9.603  -0.868  11.890  0.6161  0.1599  0.7270
  467MOL0     H64428   9.172  -0.744  11.941  0.0600 -0.5138  0.3323
  467MOL0     H64429   8.951  -0.664  11.881  1.2822  0.2251 -2.7415
  467MOL0     H64430   9.311   0.356  11.608  0.4350 -1.7215 -0.9305
  467MOL0     H64431   9.367   0.523  11.438 -1.0145 -1.9665  1.1691
  467MOL0     H64432   9.829   0.634  11.210 -2.7475 -1.8572 -1.5520
  467MOL0     H64433   9.933   0.753  11.019  0.2995  4.3598  0.2260
  467MOL0     H64434   9.654   1.078  10.838 -2.2119 -4.3272  0.6456
  467MOL0     H64435   9.820   1.129  10.780 -1.1741  1.3633 -0.2845
  467MOL0     H64436   9.716   1.040  10.596 -0.0660 -1.0016 -1.0436
  467MOL0     H64437   9.635   0.917  10.702  0.8974 -2.1428 -2.3106
  467MOL0     H64438   9.914   0.928  10.584 -2.0330  2.3614  0.5927
  467MOL0     H64439   9.864   0.809  10.714 -4.2140 -2.2030  0.6631
  467MOL0     H64440   9.681   0.723  10.549  1.4774 -3.1923 -2.5242
  467MOL0     H64441   9.841   0.684  10.520 -2.9055 -2.8657  0.1448
  467MOL0     H64442   9.686   0.872  10.186  1.1290  0.7170  0.6366
  467MOL0     H64443   9.595   1.013  11.003 -1.5474 -0.3435  1.8906
  467MOL0     H64444   9.366   0.882  11.104  0.8921 -1.8145 -0.2980
  467MOL0     H64445   9.407   0.892  11.275 -3.0759  0.6517 -1.0248
  467MOL0     H64446   9.443   1.026  11.178 -0.0096 -0.3340  0.2359
  468MOL0     O64447   0.822   1.327   3.250  0.3212  0.0120 -0.0490
  468MOL0     C64448   0.907   1.370   3.322 -0.6614  0.0883  0.2038
  468MOL0     O64449   0.940   1.502   3.326  0.0498 -0.4896 -0.4379
  468MOL0     C64450   0.863   1.607   3.281  0.6198 -0.3238 -0.1151
  468MOL0     C64451   0.914   1.691   3.183 -0.1748  0.5150 -0.4871
  468MOL0     C64452   0.835   1.806   3.132 -0.6423 -0.3600  0.4572
  468MOL0     C64453   0.710   1.817   3.179  0.4059 -0.0097  0.2085
  468MOL0     O64454   0.644   1.926   3.131 -1.3265 -0.6982  0.1994
  468MOL0     C64455   0.517   1.967   3.198  0.6977  0.1424 -0.1606
  468MOL0     C64456   0.450   2.078   3.101 -0.3011  0.5654  0.1356
  468MOL0     C64457   0.423   2.027   2.968  0.5264 -0.9371 -0.6180
  468MOL0     C64458   0.355   2.129   2.877 -0.5699 -0.7656 -0.7623
  468MOL0     C64459   0.208   2.162   2.916 -0.2920  0.4535  0.2250
  468MOL0     C64460   0.130   2.233   2.811 -0.0370 -0.2133 -0.1254
  468MOL0     C64461  -0.009   2.259   2.869  0.0340 -0.8655 -0.3358
  468MOL0     C64462  -0.104   2.323   2.781  0.1178  0.0384  0.7228
  468MOL0     N64463  -0.101   2.248   2.653 -0.2293 -0.1115 -0.1466
  468MOL0     C64464  -0.156   2.127   2.627 -0.2683 -1.1454 -0.3827
  468MOL0     C64465  -0.115   2.077   2.508  0.8310  0.3528  0.0029
  468MOL0     C64466  -0.148   1.941   2.454 -0.3398  0.7259 -0.3428
  468MOL0     C64467  -0.109   1.819   2.559  0.5621  0.4237  0.0613
  468MOL0     C64468   0.040   1.818   2.600  0.0292 -1.5917  0.0381
  468MOL0     C64469   0.108   1.686   2.629 -0.4504 -0.3614 -0.3722
  468MOL0     O64470   0.029   1.626   2.735  0.0517 -0.3320 -0.6623
  468MOL0     C64471   0.060   1.496   2.736 -0.8005 -0.3955 -1.1711
  468MOL0     C64472   0.179   1.444   2.782 -0.2816 -0.1721 -0.6698
  468MOL0     C64473   0.207   1.307   2.770 -1.1330  0.8290  0.0486
  468MOL0     C64474   0.345   1.266   2.807  0.1730  0.0464  0.2169
  468MOL0     C64475   0.113   1.221   2.715 -0.1304  0.3882  0.4978
  468MOL0     C64476   0.140   1.075   2.714 -0.7496 -1.0469  0.3899
  468MOL0     O64477   0.240   1.014   2.782 -0.0818  0.2761 -0.9688
  468MOL0     C64478   0.242   0.884   2.801 -0.4513 -0.0176 -0.1925
  468MOL0     C64479   0.256   0.797   2.694  0.9938 -0.3370  0.5151
  468MOL0     C64480   0.254   0.652   2.706  0.8442  1.0989  0.2657
  468MOL0     C64481   0.232   0.597   2.835  0.9680  0.2301  0.9836
  468MOL0     O64482   0.219   0.461   2.856  0.6849  0.1054  0.0864
  468MOL0     C64483   0.304   0.391   2.954 -0.2048 -0.7147  0.1425
  468MOL0     C64484   0.432   0.327   2.889  0.1668  1.1008 -0.2550
  468MOL0     C64485   0.534   0.422   2.821  0.1185  0.1641  1.1092
  468MOL0     C64486   0.635   0.487   2.920  0.0844  0.6758  0.2680
  468MOL0     C64487   0.748   0.566   2.840  0.2568  0.8735 -0.2282
  468MOL0     C64488   0.706   0.703   2.791 -0.3332 -0.6812  0.9982
  468MOL0     C64489   0.647   0.799   2.903 -0.3061  0.9253  0.0351
  468MOL0     C64490   0.663   0.949   2.883 -0.8581  0.0128 -0.3414
  468MOL0    Cl64491   0.824   0.999   2.877  0.1277 -0.4450  0.6118
  468MOL0     C64492   0.211   0.687   2.943  0.6352 -0.0112  0.1396
  468MOL0     C64493   0.226   0.829   2.930 -0.3030  0.0447  0.7659
  468MOL0     O64494   0.059   1.013   2.645  0.1791  0.3045  0.0728
  468MOL0     C64495  -0.013   1.273   2.677  0.0450  0.3895  0.6370
  468MOL0     C64496  -0.043   1.406   2.698  0.1267 -0.9944 -0.2540
  468MOL0     N64497  -0.033   2.178   2.450 -0.2187 -0.5424 -0.3022
  468MOL0     N64498  -0.028   2.275   2.543  1.0306  0.0777 -0.3747
  468MOL0     C64499   0.668   1.734   3.288  0.4213 -0.4647 -0.5186
  468MOL0     C64500   0.737   1.627   3.335  0.1432 -0.1687  0.7169
  468MOL0     C64501   0.999   1.276   3.404  0.9462  0.3417 -0.4040
  468MOL0     C64502   1.104   1.330   3.469 -1.8172  0.1401 -1.0499
  468MOL0     C64503   1.185   1.255   3.556 -0.1940 -0.0803  0.7721
  468MOL0     C64504   1.155   1.120   3.578 -0.5393  0.3284  0.7443
  468MOL0     O64505   1.226   1.039   3.668  0.4362  0.8939 -0.6607
  468MOL0     C64506   1.373   1.026   3.658  1.2069 -0.5288 -0.0484
  468MOL0     C64507   1.422   0.947   3.775  0.3450  0.3004 -0.0600
  468MOL0     C64508   1.473   1.015   3.896  0.3132 -0.8469 -0.3385
  468MOL0     C64509   1.605   1.094   3.865  0.4792 -1.1331  1.2469
  468MOL0     C64510   1.725   1.010   3.883 -0.3034 -0.4646  1.1752
  468MOL0     C64511   1.806   0.922   3.901 -0.2083 -0.5097 -1.0289
  468MOL0     C64512   1.042   1.065   3.522  0.3582  0.5797  0.5547
  468MOL0     C64513   0.967   1.144   3.429  0.5057 -0.0165  0.5438
  468MOL0     C64514   0.852   1.068   3.361 -0.5498 -1.7673  0.5719
  468MOL0     H64515   1.008   1.670   3.132 -1.3826 -1.2401 -2.1256
  468MOL0     H64516   0.878   1.873   3.058 -1.0336 -2.5701 -1.9141
  468MOL0     H64517   0.549   2.007   3.294  1.4062  1.4394 -0.9106
  468MOL0     H64518   0.453   1.880   3.216 -0.0871  1.1955  2.5743
  468MOL0     H64519   0.364   2.125   3.150 -0.4717  0.0437  0.3383
  468MOL0     H64520   0.518   2.164   3.090 -2.5870  2.4908  0.2800
  468MOL0     H64521   0.509   1.976   2.923  0.9542 -2.6099  1.8934
  468MOL0     H64522   0.352   1.945   2.979 -2.2213  1.3934  0.0559
  468MOL0     H64523   0.413   2.222   2.872 -0.7190 -0.6275  0.0185
  468MOL0     H64524   0.369   2.083   2.778  2.6221  0.6285 -1.0923
  468MOL0     H64525   0.218   2.238   2.994 -1.0624  2.3386 -1.4536
  468MOL0     H64526   0.171   2.067   2.957  2.7074 -1.0384 -0.2290
  468MOL0     H64527   0.184   2.324   2.782  1.8815 -1.8969 -2.1432
  468MOL0     H64528   0.120   2.173   2.721  3.9899 -3.1793  1.1287
  468MOL0     H64529   0.010   2.324   2.955 -0.1644 -4.4515  2.7023
  468MOL0     H64530  -0.049   2.176   2.928 -0.6455  0.7734  1.6605
  468MOL0     H64531  -0.205   2.322   2.825 -1.3577 -0.5731 -2.4357
  468MOL0     H64532  -0.076   2.423   2.746 -0.1680 -0.3660 -0.6892
  468MOL0     H64533  -0.219   2.077   2.700  0.0215 -1.9016 -0.6324
  468MOL0     H64534  -0.100   1.919   2.359 -1.9412  2.9567 -1.7644
  468MOL0     H64535  -0.257   1.940   2.444 -0.5665 -0.5673  1.7358
  468MOL0     H64536  -0.178   1.839   2.641 -0.5897 -1.1764 -0.4885
  468MOL0     H64537  -0.148   1.721   2.531 -0.8061  0.3526  2.0225
  468MOL0     H64538   0.086   1.859   2.510 -3.1568  2.0352 -0.1968
  468MOL0     H64539   0.055   1.887   2.683 -1.9378 -1.1854  0.1184
  468MOL0     H64540   0.110   1.625   2.538  0.0358 -0.2693 -0.4300
  468MOL0     H64541   0.205   1.707   2.676 -1.4784 -1.8724  2.6886
  468MOL0     H64542   0.244   1.504   2.845 -0.2579 -0.2929 -0.5783
  468MOL0     H64543   0.343   1.211   2.902 -0.8401 -0.1723  0.0844
  468MOL0     H64544   0.401   1.357   2.828 -0.6826  0.3365  1.3875
  468MOL0     H64545   0.399   1.206   2.733 -1.5372 -2.4254  0.8141
  468MOL0     H64546   0.275   0.843   2.597  5.4909 -1.5700  0.5678
  468MOL0     H64547   0.265   0.583   2.623  2.6526  1.1340  0.4188
  468MOL0     H64548   0.342   0.466   3.024  4.0778 -1.0147 -1.5535
  468MOL0     H64549   0.236   0.326   3.009 -0.1710  0.6025  1.8440
  468MOL0     H64550   0.489   0.268   2.962 -0.1945 -1.0926 -1.6486
  468MOL0     H64551   0.396   0.250   2.820 -1.5925  0.1835  1.5766
  468MOL0     H64552   0.488   0.504   2.766  2.1025  0.0295 -0.9279
  468MOL0     H64553   0.588   0.363   2.746 -1.0204 -0.0136  0.4012
  468MOL0     H64554   0.680   0.412   2.986 -2.6463  0.3028  1.8199
  468MOL0     H64555   0.584   0.552   2.991  2.1345  0.8414  1.6630
  468MOL0     H64556   0.829   0.575   2.912 -0.4919 -0.3575  0.8159
  468MOL0     H64557   0.792   0.501   2.764  4.1561  0.8497  1.8133
  468MOL0     H64558   0.634   0.708   2.709  1.6991  3.5919 -0.8814
  468MOL0     H64559   0.790   0.762   2.752  0.1639 -0.6836  2.0339
  468MOL0     H64560   0.680   0.770   3.003 -2.4189 -0.8866  0.3066
  468MOL0     H64561   0.539   0.780   2.911  0.0005 -1.6650 -0.9276
  468MOL0     H64562   0.620   1.006   2.966 -1.2428 -2.4751  1.2794
  468MOL0     H64563   0.611   0.974   2.790  0.6750  3.9755 -0.3208
  468MOL0     H64564   0.193   0.646   3.042  1.4506  1.4854  0.9486
  468MOL0     H64565   0.219   0.894   3.016  0.1494  0.2122  0.6767
  468MOL0     H64566  -0.082   1.203   2.633  1.1213 -1.2430  1.4321
  468MOL0     H64567  -0.140   1.452   2.684 -0.1727 -1.1195  1.2910
  468MOL0     H64568   0.575   1.771   3.330  2.2066  3.5881  0.3718
  468MOL0     H64569   0.696   1.555   3.405  2.1999  0.0050  2.1850
  468MOL0     H64570   1.134   1.435   3.471 -0.7115 -0.1636 -0.6983
  468MOL0     H64571   1.272   1.302   3.602  0.7413  1.4922 -2.3452
  468MOL0     H64572   1.392   0.966   3.568  3.2160  0.5572 -0.3912
  468MOL0     H64573   1.422   1.124   3.658 -0.8276  0.6930  3.8785
  468MOL0     H64574   1.496   0.868   3.757  0.8146  0.5563  0.7355
  468MOL0     H64575   1.339   0.887   3.814  3.4629 -3.7841  0.9796
  468MOL0     H64576   1.400   1.090   3.929 -0.0497 -0.4224 -2.0485
  468MOL0     H64577   1.487   0.949   3.982 -1.1775  1.6931  2.0403
  468MOL0     H64578   1.624   1.167   3.944  3.2278 -1.7140  1.2080
  468MOL0     H64579   1.609   1.143   3.768 -0.8433  3.1868  3.1553
  468MOL0     H64580   1.887   0.856   3.922 -1.9707 -2.0130  1.4695
  468MOL0     H64581   1.010   0.963   3.541 -0.2034  0.9908  1.9350
  468MOL0     H64582   0.841   0.962   3.384 -1.2366 -1.4913  1.5370
  468MOL0     H64583   0.756   1.108   3.395  0.2758  1.0368 -0.0862
  468MOL0     H64584   0.859   1.091   3.254 -0.6173 -0.0673  0.9110
  469MOL0     O64585   7.668  11.290   3.507 -0.5898 -0.7037  0.4312
  469MOL0     C64586   7.566  11.307   3.435 -0.7957  0.1182  0.0835
  469MOL0     O64587   7.535  11.236   3.332  0.5443  0.7434 -0.5844
  469MOL0     C64588   7.620  11.123   3.308  0.1009 -0.5006  0.6431
  469MOL0     C64589   7.728  11.148   3.237  0.9350  0.7923  0.5205
  469MOL0     C64590   7.813  11.045   3.217  0.2254  0.9885 -1.0156
  469MOL0     C64591   7.795  10.911   3.261 -0.6484 -0.4534 -0.2189
  469MOL0     O64592   7.890  10.825   3.216  0.6961  0.6450  0.2873
  469MOL0     C64593   7.856  10.680   3.256  0.1244 -0.0920 -0.2429
  469MOL0     C64594   7.956  10.564   3.237 -0.4724 -0.7468  0.1592
  469MOL0     C64595   7.937  10.517   3.081 -0.2827  0.4481  0.1920
  469MOL0     C64596   8.016  10.615   2.991  0.2856  0.2981  0.2189
  469MOL0     C64597   8.081  10.555   2.878  0.8025 -0.5570  0.3192
  469MOL0     C64598   8.183  10.654   2.825 -0.3772  0.1781 -0.1377
  469MOL0     C64599   8.285  10.585   2.729 -0.3888  0.1120 -0.1921
  469MOL0     C64600   8.358  10.690   2.653 -0.2711  0.4177  0.5686
  469MOL0     N64601   8.449  10.628   2.549  0.1660 -0.4423  0.1774
  469MOL0     C64602   8.525  10.701   2.460 -0.6046  0.9910 -0.4151
  469MOL0     C64603   8.571  10.602   2.375  0.6134  0.2260  0.5652
  469MOL0     C64604   8.634  10.630   2.243 -0.1370 -0.3689 -0.4248
  469MOL0     C64605   8.535  10.646   2.134  0.4234 -0.3387  0.4523
  469MOL0     C64606   8.601  10.656   1.997 -0.3505  0.5155 -0.6697
  469MOL0     C64607   8.504  10.596   1.893 -0.3104  0.4941  0.8706
  469MOL0     O64608   8.470  10.461   1.911  0.0714  0.5425 -0.5110
  469MOL0     C64609   8.385  10.388   1.826  0.0369  0.4032  0.0084
  469MOL0     C64610   8.333  10.426   1.698 -0.3867  0.6842 -0.0566
  469MOL0     C64611   8.230  10.350   1.634  0.2836  0.4705  0.0476
  469MOL0     C64612   8.156  10.432   1.532 -0.3426  0.8914 -0.8120
  469MOL0     C64613   8.189  10.222   1.690  0.3243  0.0647  0.9190
  469MOL0     C64614   8.085  10.140   1.636  0.1508  0.7695  0.4356
  469MOL0     O64615   7.978  10.126   1.715  0.4380  0.4127  0.0560
  469MOL0     C64616   7.864  10.048   1.672 -0.9320 -0.1461 -0.0348
  469MOL0     C64617   7.882   9.916   1.635  0.2629 -0.1189  0.1872
  469MOL0     C64618   7.780   9.831   1.600  0.3108  0.6811  0.1406
  469MOL0     C64619   7.644   9.870   1.622 -0.9408 -0.1992  0.5879
  469MOL0     O64620   7.548   9.781   1.608 -0.0702  1.1943  0.1180
  469MOL0     C64621   7.412   9.829   1.591 -0.8823 -0.0553 -0.1701
  469MOL0     C64622   7.336   9.715   1.536  0.3373 -0.5329 -0.3278
  469MOL0     C64623   7.324   9.610   1.640 -0.4770 -0.5435  0.6607
  469MOL0     C64624   7.234   9.495   1.596 -0.0978  0.9809  1.0859
  469MOL0     C64625   7.267   9.379   1.693  0.2889  0.0018  1.1160
  469MOL0     C64626   7.268   9.232   1.635  0.0545 -0.2704  0.7284
  469MOL0     C64627   7.140   9.202   1.558  0.1832 -0.3442 -0.0066
  469MOL0     C64628   7.007   9.217   1.626  0.8627  0.6322 -1.0427
  469MOL0    Cl64629   6.903   9.068   1.613 -0.1090 -0.3568  0.3874
  469MOL0     C64630   7.631   9.994   1.674 -0.1851  0.0216 -0.5803
  469MOL0     C64631   7.737  10.084   1.697  0.5700 -0.3416  0.6222
  469MOL0     O64632   8.092  10.123   1.511 -0.2876  0.5078 -0.0541
  469MOL0     C64633   8.247  10.175   1.812 -0.7250 -0.5065  0.8501
  469MOL0     C64634   8.340  10.255   1.872  0.1169  0.3513 -0.0353
  469MOL0     N64635   8.525  10.483   2.414  0.6799 -0.1067 -0.1308
  469MOL0     N64636   8.450  10.499   2.513 -1.3649  0.9755 -0.6255
  469MOL0     C64637   7.678  10.895   3.339 -0.5438 -0.1448 -0.5571
  469MOL0     C64638   7.594  10.996   3.364  0.7948 -0.4010 -0.1310
  469MOL0     C64639   7.468  11.420   3.465  0.2170 -0.1421 -1.2146
  469MOL0     C64640   7.446  11.441   3.605  0.5195  0.3900  0.2216
  469MOL0     C64641   7.346  11.538   3.636 -0.1830 -1.5030  0.7049
  469MOL0     C64642   7.259  11.599   3.545 -0.5600 -0.6199  0.5712
  469MOL0     O64643   7.178  11.696   3.605  0.2795 -0.2984  0.6169
  469MOL0     C64644   7.232  11.826   3.620  0.1465  1.1215  0.4892
  469MOL0     C64645   7.104  11.910   3.636 -0.3713  0.8334  0.0533
  469MOL0     C64646   7.035  11.900   3.778 -0.1131 -0.3427  1.3985
  469MOL0     C64647   6.912  11.986   3.771 -0.5996  0.7924  0.2075
  469MOL0     C64648   6.819  11.959   3.879 -0.5940 -0.3576  0.1266
  469MOL0     C64649   6.749  11.931   3.972 -0.4531 -0.8067  0.5640
  469MOL0     C64650   7.284  11.565   3.411 -0.0488 -0.4131  0.3676
  469MOL0     C64651   7.387  11.487   3.369  0.2995  0.5831 -0.2741
  469MOL0     C64652   7.401  11.467   3.226 -0.3168  0.4116  0.8385
  469MOL0     H64653   7.748  11.244   3.190 -0.5065  0.8628 -0.0155
  469MOL0     H64654   7.905  11.069   3.164  2.0213 -0.1406  1.3631
  469MOL0     H64655   7.752  10.661   3.227 -0.9289 -2.8442  4.4317
  469MOL0     H64656   7.837  10.682   3.363  2.9930 -0.1288  0.3527
  469MOL0     H64657   8.058  10.600   3.255  0.3177 -2.8582  0.2661
  469MOL0     H64658   7.929  10.480   3.302 -0.2087 -1.9394 -1.2132
  469MOL0     H64659   7.976  10.415   3.079  3.1378  1.6098 -1.5343
  469MOL0     H64660   7.829  10.521   3.067 -0.4054  1.4761  1.2397
  469MOL0     H64661   7.946  10.689   2.953  0.8427  2.5369  3.1909
  469MOL0     H64662   8.087  10.682   3.040 -0.9987  1.3611  0.6742
  469MOL0     H64663   8.003  10.518   2.811 -1.8601  0.6047  2.5828
  469MOL0     H64664   8.133  10.463   2.906 -0.8815 -1.3134  1.1329
  469MOL0     H64665   8.119  10.725   2.773 -1.6711  1.1181  2.5660
  469MOL0     H64666   8.246  10.699   2.903  0.1293 -0.0342 -0.4135
  469MOL0     H64667   8.241  10.521   2.652  1.5443 -1.3441 -0.1527
  469MOL0     H64668   8.350  10.522   2.789  1.1416  1.6005 -0.2131
  469MOL0     H64669   8.288  10.751   2.596 -1.1527 -0.0049  1.1838
  469MOL0     H64670   8.421  10.751   2.718  2.1132 -2.1288  0.8101
  469MOL0     H64671   8.538  10.809   2.456 -1.3824  1.1180  0.2373
  469MOL0     H64672   8.692  10.541   2.216  2.4283  1.2198 -0.3867
  469MOL0     H64673   8.711  10.707   2.247  2.3364 -2.7496  1.3125
  469MOL0     H64674   8.468  10.559   2.138 -0.5860  0.3577 -0.7494
  469MOL0     H64675   8.476  10.738   2.141  2.0263  0.8399 -0.7906
  469MOL0     H64676   8.619  10.762   1.976  3.2249  0.6578  2.2262
  469MOL0     H64677   8.690  10.593   1.992 -2.0252 -2.1475  0.9363
  469MOL0     H64678   8.407  10.645   1.905 -2.1318 -2.7284  0.4144
  469MOL0     H64679   8.542  10.609   1.791 -1.3870 -1.2711  0.1975
  469MOL0     H64680   8.344  10.528   1.665 -3.3351  1.6308  1.5351
  469MOL0     H64681   8.057  10.459   1.569 -0.1185 -0.6805  1.0518
  469MOL0     H64682   8.147  10.374   1.439 -3.0320 -0.5860  0.2458
  469MOL0     H64683   8.207  10.520   1.492  0.2702  0.4738 -0.9579
  469MOL0     H64684   7.981   9.877   1.615 -0.4317 -0.6720 -2.6960
  469MOL0     H64685   7.794   9.729   1.566  2.5835  1.5562 -1.7955
  469MOL0     H64686   7.369   9.867   1.684  0.3535  2.6381 -0.5804
  469MOL0     H64687   7.422   9.906   1.514 -0.5187 -0.8984 -0.9857
  469MOL0     H64688   7.242   9.768   1.518  0.9624  1.4911  1.8042
  469MOL0     H64689   7.385   9.691   1.441  0.9609  4.7373 -1.6469
  469MOL0     H64690   7.283   9.634   1.738  0.5723  0.3675  0.8863
  469MOL0     H64691   7.424   9.580   1.674 -0.4261  1.6813  2.7432
  469MOL0     H64692   7.260   9.481   1.491 -3.2918 -1.7222  0.4800
  469MOL0     H64693   7.129   9.527   1.603 -0.7228  1.8417 -5.4154
  469MOL0     H64694   7.367   9.395   1.734  1.0417 -1.5162 -0.0413
  469MOL0     H64695   7.195   9.397   1.774 -0.1581  1.6993  0.3813
  469MOL0     H64696   7.277   9.156   1.713 -0.4111 -1.1405 -0.0418
  469MOL0     H64697   7.360   9.228   1.576  0.4023  3.1431  0.8680
  469MOL0     H64698   7.134   9.097   1.528 -3.0730 -0.9071  2.1239
  469MOL0     H64699   7.138   9.259   1.464  0.6529 -1.2466 -0.5812
  469MOL0     H64700   6.944   9.298   1.587 -0.5247 -0.9702 -2.2981
  469MOL0     H64701   7.026   9.237   1.732 -0.7718 -0.5043 -0.4874
  469MOL0     H64702   7.533  10.026   1.709 -0.4729 -3.0123  1.8715
  469MOL0     H64703   7.705  10.179   1.739  0.1564 -2.1125  4.8317
  469MOL0     H64704   8.217  10.082   1.861  0.0647 -0.4431  1.4673
  469MOL0     H64705   8.379  10.217   1.966  2.6825 -0.4292 -1.3252
  469MOL0     H64706   7.646  10.803   3.387 -0.4326 -0.2368 -0.6620
  469MOL0     H64707   7.498  10.982   3.413  1.5658 -0.0487  1.5709
  469MOL0     H64708   7.502  11.371   3.665  3.1784 -0.1163 -2.6111
  469MOL0     H64709   7.325  11.568   3.739 -0.6565  0.1360  0.1664
  469MOL0     H64710   7.288  11.836   3.713  2.1427 -1.1917 -0.3716
  469MOL0     H64711   7.293  11.859   3.536  2.7310 -1.2548  1.2533
  469MOL0     H64712   7.029  11.884   3.562 -3.3574  1.1490  2.7351
  469MOL0     H64713   7.130  12.016   3.627  0.6688  0.4708 -1.5928
  469MOL0     H64714   7.011  11.795   3.790  2.7132 -1.1465  0.9106
  469MOL0     H64715   7.112  11.932   3.849  0.6487  2.3710 -0.4539
  469MOL0     H64716   6.864  11.975   3.674 -1.5697  2.4159  0.4615
  469MOL0     H64717   6.946  12.090   3.769  0.0597  0.5883 -1.8112
  469MOL0     H64718   6.696  11.888   4.055 -0.2419  2.2033  2.4276
  469MOL0     H64719   7.206  11.589   3.339 -2.2084 -0.9947  2.3776
  469MOL0     H64720   7.335  11.388   3.188  1.7236  0.5536 -3.5811
  469MOL0     H64721   7.362  11.548   3.165  1.2710 -0.0846 -0.9031
  469MOL0     H64722   7.504  11.448   3.196 -1.1291  0.5104 -2.3760
  470MOL0     O64723   2.948   0.255   0.921  0.6074  0.2177 -0.2640
  470MOL0     C64724   2.832   0.300   0.914 -0.3052  0.8761 -0.7419
  470MOL0     O64725   2.732   0.251   0.829  0.0871  0.6674  0.1088
  470MOL0     C64726   2.768   0.142   0.754 -0.5454 -0.4592  0.6439
  470MOL0     C64727   2.723   0.145   0.623  0.3455  0.9787 -0.3387
  470MOL0     C64728   2.739   0.031   0.530  0.1875  0.1658 -0.0279
  470MOL0     C64729   2.818  -0.068   0.567 -0.4076 -0.0696 -0.5142
  470MOL0     O64730   2.831  -0.167   0.476  0.2752  0.1514  0.1656
  470MOL0     C64731   2.932  -0.269   0.489 -0.0488  0.1105 -0.2717
  470MOL0     C64732   2.931  -0.381   0.379 -0.0507  0.3998  0.7652
  470MOL0     C64733   2.793  -0.428   0.330  0.7338 -0.2085 -0.7622
  470MOL0     C64734   2.804  -0.522   0.211  0.1330 -0.0322  0.2936
  470MOL0     C64735   2.665  -0.557   0.148  0.3588  0.0207  0.6282
  470MOL0     C64736   2.593  -0.677   0.227  0.1768 -0.3617  0.1104
  470MOL0     C64737   2.454  -0.705   0.169  0.7002 -0.6915  0.4050
  470MOL0     C64738   2.372  -0.583   0.135  0.3162  0.0236  0.1654
  470MOL0     N64739   2.225  -0.607   0.155 -0.7756  0.8112  0.9597
  470MOL0     C64740   2.123  -0.560   0.070  0.0228 -0.0108  0.0296
  470MOL0     C64741   2.007  -0.597   0.127 -1.1414 -0.0070 -1.2226
  470MOL0     C64742   1.867  -0.577   0.066 -0.3448  1.0561  0.6855
  470MOL0     C64743   1.775  -0.525   0.174  0.7911 -1.0249  0.2457
  470MOL0     C64744   1.626  -0.509   0.123 -0.4444  1.4983  1.5396
  470MOL0     C64745   1.526  -0.536   0.239  1.1648 -0.1503 -1.1040
  470MOL0     O64746   1.395  -0.575   0.191  0.1802 -1.0297 -0.3931
  470MOL0     C64747   1.289  -0.537   0.270 -0.1904  0.0955 -0.0999
  470MOL0     C64748   1.302  -0.516   0.407 -0.5589  0.0079  0.5978
  470MOL0     C64749   1.185  -0.525   0.484 -0.9294 -1.0067 -0.2456
  470MOL0     C64750   1.224  -0.515   0.632 -0.3795  0.1581  0.0527
  470MOL0     C64751   1.056  -0.547   0.425 -0.0675  1.0269  0.7161
  470MOL0     C64752   0.930  -0.547   0.511  0.2741  1.1364  0.8704
  470MOL0     O64753   0.821  -0.479   0.459  0.6188 -0.6203  0.1949
  470MOL0     C64754   0.693  -0.527   0.487 -0.9098 -0.6783 -0.2464
  470MOL0     C64755   0.645  -0.647   0.448 -0.2959 -0.1339 -0.3976
  470MOL0     C64756   0.532  -0.700   0.504  0.1334  2.1045 -0.3007
  470MOL0     C64757   0.466  -0.644   0.605  0.8065  0.4609 -0.0375
  470MOL0     O64758   0.370  -0.715   0.675 -0.1671  0.5518  0.4650
  470MOL0     C64759   0.258  -0.643   0.726 -0.3295  0.0055  0.4576
  470MOL0     C64760   0.122  -0.706   0.693 -0.3647  0.0131 -0.3967
  470MOL0     C64761   0.033  -0.627   0.597 -0.1714 -0.0717 -0.1912
  470MOL0     C64762  -0.085  -0.713   0.572  1.0973  0.4208 -0.2126
  470MOL0     C64763  -0.140  -0.681   0.434  0.2257  1.3563 -0.5187
  470MOL0     C64764  -0.261  -0.769   0.404  1.2567  0.9674  1.0929
  470MOL0     C64765  -0.327  -0.747   0.267 -0.6049 -1.3594  0.6918
  470MOL0     C64766  -0.450  -0.829   0.233  0.7080  0.3572  0.1190
  470MOL0    Cl64767  -0.382  -0.987   0.181 -0.2518 -0.0555  0.3495
  470MOL0     C64768   0.510  -0.509   0.642  0.0185  0.2303  0.3228
  470MOL0     C64769   0.620  -0.452   0.581 -0.5162  0.8856 -0.8137
  470MOL0     O64770   0.944  -0.589   0.627 -0.4796 -0.5570  0.7972
  470MOL0     C64771   1.057  -0.545   0.286  1.2344  0.0020 -0.4685
  470MOL0     C64772   1.171  -0.543   0.210  1.5925  0.2782  0.2754
  470MOL0     N64773   2.040  -0.677   0.239  0.0443  0.5245 -0.8615
  470MOL0     N64774   2.158  -0.668   0.264 -0.3099 -0.2025 -0.4193
  470MOL0     C64775   2.872  -0.072   0.699  0.5962 -1.7095  0.3266
  470MOL0     C64776   2.837   0.024   0.791  0.2803 -0.7266 -0.2049
  470MOL0     C64777   2.782   0.415   0.990 -0.5166 -0.3305 -0.3694
  470MOL0     C64778   2.652   0.400   1.031  0.2195 -0.5481 -0.4119
  470MOL0     C64779   2.592   0.497   1.109 -0.4821 -0.1164 -0.1186
  470MOL0     C64780   2.647   0.615   1.156  0.3534 -0.2422  0.1250
  470MOL0     O64781   2.565   0.707   1.221 -0.1938  0.3290  0.4042
  470MOL0     C64782   2.631   0.822   1.284  0.4373  0.0365  0.9981
  470MOL0     C64783   2.706   0.788   1.415 -0.7743 -0.4990  0.2379
  470MOL0     C64784   2.605   0.704   1.506 -0.3252  0.5475  0.9477
  470MOL0     C64785   2.476   0.768   1.537  0.4598 -0.9416  0.0610
  470MOL0     C64786   2.492   0.897   1.597  0.1448 -0.3271  0.3256
  470MOL0     C64787   2.520   1.004   1.649  0.5490 -0.0642 -0.0172
  470MOL0     C64788   2.783   0.624   1.109 -0.8753 -1.0279 -0.2719
  470MOL0     C64789   2.850   0.535   1.018 -0.9940  0.8332  0.4637
  470MOL0     C64790   2.991   0.578   0.974 -0.1982 -0.1282 -0.4666
  470MOL0     H64791   2.659   0.227   0.591 -2.0956 -0.4849  0.5302
  470MOL0     H64792   2.694   0.015   0.432  0.8519  5.0355 -1.4115
  470MOL0     H64793   2.915  -0.328   0.579 -2.7961 -0.3107 -0.9830
  470MOL0     H64794   3.032  -0.226   0.486  0.2484 -0.3069 -5.1042
  470MOL0     H64795   2.981  -0.342   0.290  0.8780  0.2529  1.2055
  470MOL0     H64796   2.981  -0.475   0.403 -2.5815 -0.8684  1.3514
  470MOL0     H64797   2.745  -0.486   0.409  0.0012 -0.3716 -1.3177
  470MOL0     H64798   2.741  -0.336   0.302  1.5994 -0.0009 -1.7288
  470MOL0     H64799   2.861  -0.473   0.132  0.4194 -1.7780 -0.6296
  470MOL0     H64800   2.864  -0.611   0.233  1.3541  0.7810  0.3384
  470MOL0     H64801   2.672  -0.588   0.044 -1.5534 -1.0536  0.7763
  470MOL0     H64802   2.605  -0.467   0.135 -1.8060 -1.7377 -2.9046
  470MOL0     H64803   2.661  -0.763   0.220  0.4450 -0.2567  1.3060
  470MOL0     H64804   2.586  -0.654   0.333 -3.5136  1.2006 -0.3359
  470MOL0     H64805   2.402  -0.770   0.240  1.0446 -1.0063  0.3690
  470MOL0     H64806   2.467  -0.764   0.078  0.0247  0.4085 -0.4390
  470MOL0     H64807   2.382  -0.496   0.201  2.4653 -1.6257  2.2127
  470MOL0     H64808   2.390  -0.549   0.033  0.3177  2.2118  0.8426
  470MOL0     H64809   2.132  -0.521  -0.030 -1.3041  1.5381  0.4683
  470MOL0     H64810   1.834  -0.673   0.025  0.0418  0.7769  1.0140
  470MOL0     H64811   1.861  -0.513  -0.022  1.3145  0.1087 -0.1688
  470MOL0     H64812   1.765  -0.588   0.263 -1.7807  2.8613  3.0562
  470MOL0     H64813   1.806  -0.426   0.208 -0.6212  1.0540 -3.7693
  470MOL0     H64814   1.618  -0.411   0.077 -1.5984  1.4114  1.5142
  470MOL0     H64815   1.611  -0.584   0.045 -4.1774  0.7275  2.7546
  470MOL0     H64816   1.557  -0.616   0.307 -1.6536 -0.0107  0.5144
  470MOL0     H64817   1.537  -0.440   0.291  2.6190 -2.1147  2.5670
  470MOL0     H64818   1.402  -0.522   0.448 -0.7679  3.1457  1.8268
  470MOL0     H64819   1.237  -0.619   0.664  2.7107 -0.7386 -3.4585
  470MOL0     H64820   1.141  -0.461   0.679 -2.7926 -1.7318 -1.7449
  470MOL0     H64821   1.314  -0.455   0.645  0.1392  0.5414 -3.8859
  470MOL0     H64822   0.703  -0.697   0.371 -0.9752 -0.1197 -0.9325
  470MOL0     H64823   0.498  -0.794   0.462  0.9444  0.1931  2.9711
  470MOL0     H64824   0.280  -0.655   0.833  0.8441  1.3883  0.3922
  470MOL0     H64825   0.255  -0.542   0.685 -2.2798  0.4670  1.5835
  470MOL0     H64826   0.141  -0.811   0.668 -0.8405 -0.8156  2.3908
  470MOL0     H64827   0.083  -0.726   0.793 -2.0432 -1.3751 -1.2840
  470MOL0     H64828   0.085  -0.605   0.503  1.3089  1.8747  1.0254
  470MOL0     H64829   0.006  -0.525   0.626  1.1257  0.7906 -1.8293
  470MOL0     H64830  -0.163  -0.704   0.649  0.3147 -1.2547 -0.7579
  470MOL0     H64831  -0.057  -0.819   0.577  3.5711  0.9003 -1.9094
  470MOL0     H64832  -0.174  -0.577   0.442 -0.3816  1.0244  2.5045
  470MOL0     H64833  -0.060  -0.685   0.360  3.8751 -1.2269  3.1554
  470MOL0     H64834  -0.339  -0.745   0.476 -3.6697  1.1608 -3.6355
  470MOL0     H64835  -0.228  -0.873   0.408  0.1414  0.5232 -0.1446
  470MOL0     H64836  -0.248  -0.756   0.192 -2.2467 -0.6793 -1.1989
  470MOL0     H64837  -0.346  -0.639   0.276  1.3429 -1.1412  3.3193
  470MOL0     H64838  -0.507  -0.790   0.148 -0.8811 -3.3263 -0.7376
  470MOL0     H64839  -0.508  -0.826   0.325  1.3788  3.5265  0.5291
  470MOL0     H64840   0.449  -0.462   0.718 -1.1561 -2.5903  1.2473
  470MOL0     H64841   0.666  -0.358   0.608 -0.6095  0.0165  2.8849
  470MOL0     H64842   0.966  -0.554   0.227  2.9335 -0.0322 -3.2944
  470MOL0     H64843   1.176  -0.576   0.107  1.1178 -1.9388  0.8938
  470MOL0     H64844   2.922  -0.160   0.738  3.0947 -0.9845 -0.9731
  470MOL0     H64845   2.860   0.005   0.895  0.9961 -1.6544 -0.5240
  470MOL0     H64846   2.591   0.314   1.005  0.4546 -1.0788  0.7296
  470MOL0     H64847   2.488   0.485   1.136 -0.3195  3.2136  2.7738
  470MOL0     H64848   2.697   0.873   1.212  1.1380 -0.6570  1.1396
  470MOL0     H64849   2.554   0.899   1.295 -2.1590 -1.4922 -3.6865
  470MOL0     H64850   2.748   0.878   1.461  0.0852  1.1495 -3.3606
  470MOL0     H64851   2.795   0.735   1.379 -1.1422 -1.9317  1.3527
  470MOL0     H64852   2.587   0.604   1.466  0.2870  0.4700  0.8542
  470MOL0     H64853   2.653   0.689   1.604  0.3040  2.3338  0.9529
  470MOL0     H64854   2.426   0.702   1.608 -2.0084  1.4182  0.6764
  470MOL0     H64855   2.414   0.766   1.447  0.1983 -0.1782  0.2142
  470MOL0     H64856   2.538   1.092   1.708  2.1867  0.1207 -0.7284
  470MOL0     H64857   2.849   0.706   1.135  2.9566 -4.1483  0.9631
  470MOL0     H64858   3.018   0.674   1.020 -0.1768 -0.2981 -0.1201
  470MOL0     H64859   3.074   0.516   1.010 -1.2760 -0.7526  1.0770
  470MOL0     H64860   2.985   0.603   0.868 -1.5961  1.2183 -0.1112
  471MOL0     O64861  10.670   3.884   0.169 -0.1392  0.3648 -0.2197
  471MOL0     C64862  10.755   3.881   0.083 -0.5431 -0.4382  0.2801
  471MOL0     O64863  10.788   3.992   0.002  0.2208  0.3630  0.1987
  471MOL0     C64864  10.746   4.103   0.058  0.8048  0.0296 -0.4968
  471MOL0     C64865  10.617   4.156   0.055 -0.5046  0.0002 -0.3686
  471MOL0     C64866  10.584   4.272   0.128 -0.6325  0.5937  0.2267
  471MOL0     C64867  10.686   4.344   0.184  0.1706 -0.2986 -0.0947
  471MOL0     O64868  10.663   4.468   0.248 -0.4317 -0.3928  0.2510
  471MOL0     C64869  10.610   4.461   0.379 -0.1130 -1.0359 -0.0605
  471MOL0     C64870  10.586   4.602   0.423  0.4715 -0.1451 -0.1532
  471MOL0     C64871  10.700   4.708   0.401  0.1821  0.5301  0.4227
  471MOL0     C64872  10.699   4.839   0.491 -0.6369 -0.3009  0.2233
  471MOL0     C64873  10.816   4.932   0.467 -0.7556 -0.5826 -0.7530
  471MOL0     C64874  10.791   5.050   0.557  0.2813 -0.1914  0.2182
  471MOL0     C64875  10.910   5.140   0.548 -0.5618 -0.0001 -0.3300
  471MOL0     C64876  10.899   5.257   0.642  0.0580  0.3097  0.7460
  471MOL0     N64877  10.916   5.239   0.787 -0.1560  0.1207  1.0752
  471MOL0     C64878  11.014   5.292   0.862  0.7298  0.3306 -0.1202
  471MOL0     C64879  10.998   5.254   0.989  1.7092 -0.3544  1.0187
  471MOL0     C64880  11.082   5.312   1.105 -0.7348 -0.6794 -0.2704
  471MOL0     C64881  11.222   5.254   1.112  0.3823 -0.0550 -0.0238
  471MOL0     C64882  11.304   5.335   1.209  0.4503 -0.6699 -0.6358
  471MOL0     C64883  11.451   5.302   1.208 -0.4889  1.3692  0.5020
  471MOL0     O64884  11.515   5.362   1.092 -0.7244  0.3712  1.3088
  471MOL0     C64885  11.631   5.295   1.058 -0.0529  0.2246  0.1245
  471MOL0     C64886  11.757   5.302   1.130  0.3665  0.0310 -0.7759
  471MOL0     C64887  11.858   5.221   1.088 -0.4498  0.3442  0.3239
  471MOL0     C64888  11.980   5.220   1.181 -0.4150 -0.5634 -0.1513
  471MOL0     C64889  11.855   5.143   0.968 -0.5133 -0.1678 -0.5357
  471MOL0     C64890  11.973   5.075   0.920  0.1476  0.1422  0.2791
  471MOL0     O64891  12.095   5.129   0.934  0.2317  0.1748  0.1317
  471MOL0     C64892  12.203   5.065   0.882 -0.1454  0.3921 -0.2306
  471MOL0     C64893  12.238   5.050   0.741  0.4221  0.0401  0.3916
  471MOL0     C64894  12.362   4.997   0.710  0.7433 -1.2920 -0.5575
  471MOL0     C64895  12.453   4.949   0.807 -0.8584  0.6256 -0.8706
  471MOL0     O64896  12.576   4.897   0.768  0.3687 -1.0342  0.0036
  471MOL0     C64897  12.679   4.849   0.856  0.9430 -0.1071 -0.4505
  471MOL0     C64898  12.770   4.962   0.899  0.7420  0.1961 -1.1582
  471MOL0     C64899  12.893   4.916   0.984  0.4552 -0.3580  0.1269
  471MOL0     C64900  12.978   5.024   1.050 -0.0495  0.7369 -0.2041
  471MOL0     C64901  12.902   5.103   1.148  0.1164 -0.7282 -0.6454
  471MOL0     C64902  12.977   5.238   1.167  0.6539  0.3409  1.0322
  471MOL0     C64903  12.929   5.332   1.273 -1.1214  0.0306 -0.7983
  471MOL0     C64904  13.037   5.441   1.296  0.1187  0.2432 -0.4119
  471MOL0    Cl64905  12.963   5.559   1.394 -0.3676  0.2452 -0.0009
  471MOL0     C64906  12.409   4.953   0.939 -0.0034 -0.1176  0.1605
  471MOL0     C64907  12.297   5.015   0.980  0.0747  0.1737  0.7707
  471MOL0     O64908  11.945   4.973   0.852  0.1262 -0.4798 -0.7731
  471MOL0     C64909  11.744   5.167   0.889  0.0319 -0.5361  0.2433
  471MOL0     C64910  11.632   5.231   0.925 -0.1193  0.4213 -0.2564
  471MOL0     N64911  10.876   5.196   0.997  0.0323  0.6706  0.8593
  471MOL0     N64912  10.830   5.175   0.872  0.2365  0.0247  0.3068
  471MOL0     C64913  10.822   4.305   0.170 -0.1143 -0.1679 -0.7131
  471MOL0     C64914  10.846   4.186   0.100 -0.8151 -0.1732 -0.0167
  471MOL0     C64915  10.828   3.751   0.059  0.4063  0.5402 -0.2894
  471MOL0     C64916  10.863   3.725  -0.074 -0.5596 -0.5624  0.1321
  471MOL0     C64917  10.917   3.596  -0.117 -0.4203  0.3146 -0.2051
  471MOL0     C64918  10.930   3.494  -0.016  0.8601 -0.5816  0.1713
  471MOL0     O64919  10.945   3.362  -0.054  0.1821  0.3024  0.6870
  471MOL0     C64920  11.081   3.312  -0.058 -0.2900  0.9840 -0.0130
  471MOL0     C64921  11.177   3.379  -0.174  0.4538  0.5547  0.1883
  471MOL0     C64922  11.126   3.374  -0.324  0.8009  0.7178  0.3794
  471MOL0     C64923  11.158   3.241  -0.394  0.2893 -0.8081  0.0635
  471MOL0     C64924  11.090   3.221  -0.522 -0.8281 -0.5054 -0.2754
  471MOL0     C64925  11.052   3.229  -0.633  0.1855  0.5613  0.4950
  471MOL0     C64926  10.910   3.532   0.119 -0.0182 -0.0636  0.2937
  471MOL0     C64927  10.860   3.653   0.161  0.1723 -0.2322 -0.4518
  471MOL0     C64928  10.856   3.687   0.305 -0.6811  0.5217 -0.0750
  471MOL0     H64929  10.531   4.108   0.007 -1.0928  1.1397 -0.4885
  471MOL0     H64930  10.480   4.293   0.148 -0.9630 -1.5860  1.1356
  471MOL0     H64931  10.687   4.430   0.451  5.8145  2.1705 -4.1255
  471MOL0     H64932  10.523   4.396   0.371 -0.5445 -0.4338 -0.3711
  471MOL0     H64933  10.490   4.632   0.381  0.2418 -0.9824 -0.2589
  471MOL0     H64934  10.554   4.597   0.527 -3.7317 -1.2116 -1.3003
  471MOL0     H64935  10.793   4.651   0.409  0.5164  0.0233 -4.2320
  471MOL0     H64936  10.688   4.729   0.294  1.0920 -1.4709 -0.1226
  471MOL0     H64937  10.597   4.878   0.488 -2.8446 -5.3781 -3.4839
  471MOL0     H64938  10.721   4.793   0.588 -0.5838 -3.1664 -1.0735
  471MOL0     H64939  10.830   4.958   0.362  1.6974  4.3969  0.4937
  471MOL0     H64940  10.911   4.890   0.502  1.4671  5.0345  1.1168
  471MOL0     H64941  10.701   5.101   0.522  0.9236 -0.1370 -1.4035
  471MOL0     H64942  10.772   5.020   0.661 -1.3406  1.3070  0.4153
  471MOL0     H64943  10.928   5.182   0.448 -0.3843  1.0719  0.1425
  471MOL0     H64944  10.996   5.076   0.568  2.3412  2.2118 -4.3225
  471MOL0     H64945  10.976   5.324   0.602 -0.5970 -0.2567 -1.6549
  471MOL0     H64946  10.813   5.325   0.633  0.6246  0.8939 -0.6395
  471MOL0     H64947  11.101   5.351   0.833  1.8871 -1.2787 -0.0025
  471MOL0     H64948  11.035   5.266   1.193 -1.3405 -4.1320 -2.2126
  471MOL0     H64949  11.097   5.419   1.121  2.2974 -0.9025 -1.0429
  471MOL0     H64950  11.212   5.149   1.143  2.9202 -0.4883 -0.3812
  471MOL0     H64951  11.269   5.269   1.015  2.0077 -2.3070  0.3230
  471MOL0     H64952  11.294   5.437   1.172 -0.7976 -0.8842 -0.9489
  471MOL0     H64953  11.255   5.326   1.306 -2.0445 -2.1627 -1.8913
  471MOL0     H64954  11.501   5.331   1.301  0.2580  4.1206 -0.6660
  471MOL0     H64955  11.452   5.193   1.199 -7.5902  1.0658 -4.4922
  471MOL0     H64956  11.759   5.375   1.210 -0.2964  1.5942 -2.1313
  471MOL0     H64957  12.044   5.304   1.154 -1.2373  0.2706  0.4669
  471MOL0     H64958  12.035   5.126   1.167 -0.2662 -0.0892 -3.6863
  471MOL0     H64959  11.954   5.227   1.287 -2.8562 -2.1481 -0.5632
  471MOL0     H64960  12.162   5.074   0.667  2.1560  0.7781 -1.2299
  471MOL0     H64961  12.368   4.997   0.602  0.4723 -3.4831 -0.6284
  471MOL0     H64962  12.645   4.774   0.928  0.4593  0.5404 -0.0010
  471MOL0     H64963  12.727   4.780   0.786  1.0551 -1.3661  0.8180
  471MOL0     H64964  12.795   5.023   0.812 -3.5877 -0.0263 -2.7464
  471MOL0     H64965  12.701   5.021   0.960 -0.7034 -3.8789  1.5538
  471MOL0     H64966  12.970   4.867   0.923  1.1267  1.3820 -0.4925
  471MOL0     H64967  12.852   4.855   1.065 -2.6369  0.3053 -0.7897
  471MOL0     H64968  13.002   5.085   0.962 -0.4014  1.1013 -0.0527
  471MOL0     H64969  13.063   4.972   1.095 -0.3202 -1.1468 -1.7065
  471MOL0     H64970  12.802   5.132   1.116  0.5275  2.6040  0.6625
  471MOL0     H64971  12.898   5.049   1.243 -1.4486 -0.2226 -0.4074
  471MOL0     H64972  12.972   5.278   1.065  3.9270 -2.1835 -0.3014
  471MOL0     H64973  13.082   5.219   1.192  0.5531  2.7452  3.8161
  471MOL0     H64974  12.912   5.271   1.362 -0.0793 -0.5003 -0.9457
  471MOL0     H64975  12.841   5.385   1.236 -1.1330 -0.0243 -0.8495
  471MOL0     H64976  13.064   5.491   1.203 -3.0673  2.9918 -0.0654
  471MOL0     H64977  13.115   5.388   1.352  0.7161  2.1079  0.6166
  471MOL0     H64978  12.481   4.907   1.006  1.5407  0.2362 -1.2004
  471MOL0     H64979  12.266   5.025   1.083 -0.2189 -0.8945  0.7970
  471MOL0     H64980  11.746   5.114   0.794 -1.5405 -1.0635  0.4817
  471MOL0     H64981  11.544   5.243   0.863  1.2154  5.2110 -1.6592
  471MOL0     H64982  10.897   4.381   0.190  1.2099 -1.5249 -0.4385
  471MOL0     H64983  10.948   4.160   0.074 -1.0600  1.8082 -3.5848
  471MOL0     H64984  10.851   3.810  -0.141  0.5011  1.2931  2.1704
  471MOL0     H64985  10.932   3.577  -0.223 -0.7842 -0.3601 -0.1406
  471MOL0     H64986  11.137   3.312   0.035 -0.3622 -3.3258  0.2343
  471MOL0     H64987  11.063   3.205  -0.066 -0.2712  0.7004  2.9076
  471MOL0     H64988  11.264   3.312  -0.180 -1.3276 -1.8506 -0.4558
  471MOL0     H64989  11.203   3.483  -0.153  0.6792  0.0636  2.6873
  471MOL0     H64990  11.020   3.400  -0.323  0.7364  0.5299 -0.5940
  471MOL0     H64991  11.169   3.462  -0.372  0.4285  0.5201 -0.3262
  471MOL0     H64992  11.132   3.162  -0.324  1.7063 -1.3014  0.0628
  471MOL0     H64993  11.266   3.242  -0.408  0.6470  2.9864  1.9663
  471MOL0     H64994  11.015   3.233  -0.734  2.1150  0.8347 -0.2458
  471MOL0     H64995  10.905   3.450   0.189  1.8616 -2.0955 -1.7881
  471MOL0     H64996  10.755   3.662   0.339 -1.8535  2.5039 -1.8811
  471MOL0     H64997  10.938   3.624   0.342 -0.7124  0.7817  0.4437
  471MOL0     H64998  10.873   3.793   0.325 -2.9222  0.8895  0.0780
  472MOL0     O64999   1.591   2.833   7.608  0.0795  0.2349  0.5604
  472MOL0     C65000   1.627   2.921   7.678 -0.4287 -0.9649  0.8319
  472MOL0     O65001   1.661   3.052   7.644  0.0889 -0.1980 -0.3855
  472MOL0     C65002   1.664   3.090   7.512 -0.7567 -1.0179 -0.0648
  472MOL0     C65003   1.545   3.146   7.464 -0.0612 -1.0346  0.6754
  472MOL0     C65004   1.545   3.208   7.333 -0.5529  0.7888 -0.0710
  472MOL0     C65005   1.651   3.192   7.239 -0.1653  0.5946 -0.3219
  472MOL0     O65006   1.648   3.239   7.112  0.5065 -0.9479  0.8753
  472MOL0     C65007   1.539   3.199   7.025  1.5561  0.7894 -0.6157
  472MOL0     C65008   1.527   3.299   6.918 -1.1002  0.2707 -0.0944
  472MOL0     C65009   1.624   3.289   6.799  0.5272 -0.2250  0.8066
  472MOL0     C65010   1.607   3.398   6.692  0.0269 -0.0692  0.1966
  472MOL0     C65011   1.721   3.396   6.596 -0.3043 -0.5104 -0.0489
  472MOL0     C65012   1.731   3.264   6.523  0.5854 -1.1629 -0.0074
  472MOL0     C65013   1.621   3.248   6.424  0.1914 -0.0100 -0.4248
  472MOL0     C65014   1.681   3.168   6.300  0.0480 -0.0217 -0.1279
  472MOL0     N65015   1.568   3.128   6.220  0.3433 -0.6285  1.0557
  472MOL0     C65016   1.484   3.018   6.235  0.4252 -0.6343 -1.0138
  472MOL0     C65017   1.385   3.037   6.137 -1.2573 -0.1654 -0.8291
  472MOL0     C65018   1.252   2.961   6.127 -0.1592  0.6521 -0.9711
  472MOL0     C65019   1.172   3.030   6.028 -1.1886  0.0646  0.0591
  472MOL0     C65020   1.042   2.967   6.009 -0.1367  0.0550  0.2326
  472MOL0     C65021   0.923   3.036   6.075  0.4617  0.7494 -0.0116
  472MOL0     O65022   0.933   2.998   6.217  0.0834  0.1836 -0.8938
  472MOL0     C65023   0.835   3.044   6.307  1.1490 -0.1164  0.1187
  472MOL0     C65024   0.840   2.992   6.434 -0.3203 -0.5994  0.6836
  472MOL0     C65025   0.739   3.022   6.535 -0.4673 -1.2625 -0.5417
  472MOL0     C65026   0.773   2.972   6.670 -0.1665  0.2755  1.0177
  472MOL0     C65027   0.640   3.111   6.494  0.5081  0.7477 -0.4484
  472MOL0     C65028   0.536   3.163   6.585  0.8447  0.8610 -0.0486
  472MOL0     O65029   0.461   3.263   6.530 -0.1044 -0.0409 -0.1205
  472MOL0     C65030   0.371   3.335   6.608  0.4981 -0.1381 -0.4783
  472MOL0     C65031   0.362   3.345   6.747  0.8135  1.6145 -0.3457
  472MOL0     C65032   0.265   3.419   6.803  0.6611 -0.0686 -0.6054
  472MOL0     C65033   0.165   3.491   6.727 -0.8191 -0.7587  0.5002
  472MOL0     O65034   0.064   3.570   6.782 -0.1594 -0.1105  0.1807
  472MOL0     C65035   0.065   3.595   6.920 -0.0859  0.1359 -0.3781
  472MOL0     C65036   0.096   3.748   6.927  0.0687  0.7380 -0.0493
  472MOL0     C65037   0.088   3.805   7.066 -0.7015  0.9568 -0.5830
  472MOL0     C65038   0.031   3.939   7.072 -0.4369 -0.1584  0.7659
  472MOL0     C65039   0.069   4.027   7.203 -0.0842  0.8682 -0.5900
  472MOL0     C65040   0.091   3.960   7.343  0.1550  0.8254 -0.0563
  472MOL0     C65041  -0.037   3.917   7.415  0.3048  0.0377  0.5493
  472MOL0     C65042  -0.021   3.891   7.565  0.2642 -0.5520 -0.3431
  472MOL0    Cl65043  -0.167   3.920   7.666  0.0826 -0.1650  0.2660
  472MOL0     C65044   0.177   3.484   6.594 -0.1975 -0.7264  0.2877
  472MOL0     C65045   0.271   3.398   6.534  0.2073  0.2174 -0.7522
  472MOL0     O65046   0.514   3.105   6.696 -0.0791  0.2193 -0.5775
  472MOL0     C65047   0.635   3.150   6.358 -0.3287 -0.6059  0.3767
  472MOL0     C65048   0.730   3.118   6.267  0.1109  0.7212  0.5852
  472MOL0     N65049   1.427   3.149   6.067 -0.1173  0.4002  0.1692
  472MOL0     N65050   1.539   3.204   6.113 -0.4189  0.1990  0.2642
  472MOL0     C65051   1.759   3.128   7.288  0.1213 -0.2107  0.5398
  472MOL0     C65052   1.770   3.080   7.421  0.9133 -1.1279  0.1872
  472MOL0     C65053   1.619   2.887   7.830 -0.0640 -0.2978  0.0126
  472MOL0     C65054   1.506   2.813   7.865 -0.0953  0.8280 -0.2475
  472MOL0     C65055   1.474   2.773   7.988  0.8098 -0.2911 -0.5315
  472MOL0     C65056   1.563   2.799   8.093  0.2738 -0.3732  0.1096
  472MOL0     O65057   1.528   2.771   8.225  0.0806  0.3022  0.6225
  472MOL0     C65058   1.448   2.654   8.255 -0.5465 -0.6955 -0.3524
  472MOL0     C65059   1.524   2.518   8.228 -0.5157 -0.0005  0.7246
  472MOL0     C65060   1.657   2.515   8.309 -0.6881 -0.4405  0.4941
  472MOL0     C65061   1.732   2.388   8.304 -0.1777  0.6102  0.2399
  472MOL0     C65062   1.861   2.396   8.381  0.4944 -0.0631 -0.2736
  472MOL0     C65063   1.970   2.368   8.431  0.0812 -0.3536 -0.4907
  472MOL0     C65064   1.677   2.874   8.070 -0.4651  0.4890  0.1890
  472MOL0     C65065   1.695   2.934   7.943 -0.1815 -1.0214 -0.0208
  472MOL0     C65066   1.801   3.034   7.936  0.7185 -0.7946 -0.2969
  472MOL0     H65067   1.453   3.141   7.522 -1.2229  1.3451 -0.8328
  472MOL0     H65068   1.453   3.255   7.301 -0.9951  0.1891  0.3075
  472MOL0     H65069   1.448   3.187   7.085  3.5023  0.7850  2.5241
  472MOL0     H65070   1.543   3.098   6.984 -2.5096  0.9047 -1.7688
  472MOL0     H65071   1.422   3.292   6.885 -1.6124  0.9048  1.3341
  472MOL0     H65072   1.546   3.396   6.964 -2.3630  0.2283  0.5809
  472MOL0     H65073   1.726   3.300   6.838  1.3704  3.1978 -1.9343
  472MOL0     H65074   1.613   3.191   6.753 -1.4185 -0.9270  2.5726
  472MOL0     H65075   1.514   3.372   6.639  1.8260 -1.0325 -2.7131
  472MOL0     H65076   1.597   3.496   6.740  1.0468  0.8645 -1.4066
  472MOL0     H65077   1.819   3.415   6.641  0.1967  1.0534 -1.6645
  472MOL0     H65078   1.696   3.479   6.530 -2.3960 -1.1690 -0.1464
  472MOL0     H65079   1.824   3.271   6.466 -0.9046  4.1258 -2.4134
  472MOL0     H65080   1.735   3.176   6.587 -1.1905  0.2460  2.2066
  472MOL0     H65081   1.580   3.337   6.376  1.3630 -0.1700 -1.7995
  472MOL0     H65082   1.542   3.190   6.474 -2.9246  3.3985 -0.9786
  472MOL0     H65083   1.747   3.233   6.242  1.7140 -1.6019 -0.1196
  472MOL0     H65084   1.738   3.077   6.321 -0.2521  0.0295  0.9600
  472MOL0     H65085   1.485   2.961   6.328  0.7540  2.5528  1.0927
  472MOL0     H65086   1.199   2.937   6.220  1.8044  0.6681  0.2090
  472MOL0     H65087   1.272   2.861   6.089 -1.4518 -0.6021  1.3792
  472MOL0     H65088   1.159   3.136   6.051 -0.5174  0.8634 -2.8601
  472MOL0     H65089   1.221   3.028   5.931  0.2715 -2.5031  0.7494
  472MOL0     H65090   1.022   2.961   5.901 -3.0784 -1.2928  0.7591
  472MOL0     H65091   1.044   2.862   6.042 -2.2168 -0.2320 -0.4439
  472MOL0     H65092   0.914   3.145   6.069 -2.3681  0.8179  2.8664
  472MOL0     H65093   0.833   2.988   6.036 -0.2440 -0.5104  2.8920
  472MOL0     H65094   0.924   2.933   6.469  0.7216  1.8933  2.7303
  472MOL0     H65095   0.882   2.968   6.678  0.0947  2.5008 -0.4849
  472MOL0     H65096   0.737   2.871   6.687  0.1233 -0.3867 -1.7107
  472MOL0     H65097   0.742   3.040   6.750  1.5110  0.7646  1.3027
  472MOL0     H65098   0.426   3.295   6.818 -0.4817 -1.3256 -1.0985
  472MOL0     H65099   0.271   3.428   6.911 -2.6841 -0.7919 -0.2533
  472MOL0     H65100  -0.038   3.578   6.954 -0.5207 -1.1481 -2.1851
  472MOL0     H65101   0.133   3.542   6.987 -0.2910 -0.5246 -0.6836
  472MOL0     H65102   0.193   3.766   6.880 -0.1440  0.4423 -0.6117
  472MOL0     H65103   0.016   3.788   6.863 -1.4574 -0.5055  0.9990
  472MOL0     H65104   0.186   3.808   7.114 -0.8665 -0.2317 -0.1344
  472MOL0     H65105   0.027   3.743   7.133  1.1637 -0.2004  0.1418
  472MOL0     H65106  -0.077   3.922   7.079 -0.3321 -1.1701  0.2367
  472MOL0     H65107   0.059   3.993   6.981 -2.1222  1.2995  1.0695
  472MOL0     H65108   0.161   4.079   7.174  1.1526  1.0466  3.1104
  472MOL0     H65109  -0.017   4.093   7.214  0.9441  2.0366  0.7603
  472MOL0     H65110   0.144   4.038   7.398 -0.8083  2.1361 -0.9369
  472MOL0     H65111   0.153   3.870   7.334  2.5296  2.1945  1.4150
  472MOL0     H65112  -0.082   3.830   7.366  0.0056  1.2047 -1.3053
  472MOL0     H65113  -0.106   4.001   7.404  2.2678  1.9075  1.7433
  472MOL0     H65114   0.065   3.950   7.598 -0.0653 -0.3273  0.1233
  472MOL0     H65115   0.011   3.787   7.576 -0.7055 -0.9540 -1.1911
  472MOL0     H65116   0.116   3.556   6.539  0.9152  1.1491  1.3886
  472MOL0     H65117   0.268   3.386   6.427 -1.4421 -1.7074 -0.5554
  472MOL0     H65118   0.561   3.214   6.310 -0.9424  0.6837  2.8766
  472MOL0     H65119   0.712   3.145   6.163  2.8945 -1.3882 -0.5576
  472MOL0     H65120   1.839   3.104   7.219 -0.4670  0.3059 -0.3388
  472MOL0     H65121   1.863   3.038   7.459  0.6800 -3.3201 -1.5114
  472MOL0     H65122   1.431   2.784   7.792 -2.5635  1.1742  1.9970
  472MOL0     H65123   1.378   2.723   7.997  0.1578  0.4900 -2.6330
  472MOL0     H65124   1.406   2.662   8.356  0.1064  0.1243 -0.1346
  472MOL0     H65125   1.352   2.667   8.203 -2.2681  0.6146  2.8021
  472MOL0     H65126   1.540   2.518   8.120  1.2579  0.5275  0.9487
  472MOL0     H65127   1.452   2.437   8.244 -4.5169  3.0703 -0.1327
  472MOL0     H65128   1.731   2.588   8.276  0.4943 -1.9561 -0.3053
  472MOL0     H65129   1.632   2.541   8.413  0.6631  2.0068  0.2746
  472MOL0     H65130   1.748   2.372   8.197 -2.6995 -1.0725  0.0232
  472MOL0     H65131   1.682   2.299   8.344  0.8252 -0.9302 -1.7268
  472MOL0     H65132   2.064   2.345   8.477  0.8694 -0.2582 -2.0201
  472MOL0     H65133   1.731   2.907   8.158  1.4417  2.3651 -1.5796
  472MOL0     H65134   1.868   3.024   8.022  1.7839  1.4386 -0.8015
  472MOL0     H65135   1.863   3.014   7.848  1.7637  0.2320  0.1821
  472MOL0     H65136   1.756   3.133   7.926 -2.3323 -2.0124  0.3310
  473MOL0     O65137   6.968  11.226   1.180 -0.0803  0.6493 -1.1620
  473MOL0     C65138   7.035  11.164   1.264 -0.3974 -0.6163  0.3522
  473MOL0     O65139   7.179  11.162   1.274  0.5251  0.5091  0.7307
  473MOL0     C65140   7.254  11.202   1.159  0.1205  0.3408 -0.0683
  473MOL0     C65141   7.327  11.111   1.083  0.5267 -0.0488  0.3323
  473MOL0     C65142   7.423  11.157   0.985  0.3390  0.0339 -1.0892
  473MOL0     C65143   7.426  11.293   0.962 -0.3385 -1.0206  0.6801
  473MOL0     O65144   7.520  11.360   0.892 -0.2281 -0.6077 -0.1019
  473MOL0     C65145   7.652  11.313   0.881  0.1937  0.3920 -1.0054
  473MOL0     C65146   7.754  11.418   0.833 -0.1217  0.2336 -0.4628
  473MOL0     C65147   7.753  11.445   0.681  0.0953  0.1512  0.0487
  473MOL0     C65148   7.799  11.330   0.587  1.3960  0.5035 -0.0052
  473MOL0     C65149   7.851  11.383   0.454  0.0327  0.0626 -0.7975
  473MOL0     C65150   7.889  11.277   0.350  0.0370 -0.0736 -0.5619
  473MOL0     C65151   8.005  11.175   0.384 -0.0890  0.3193  1.0042
  473MOL0     C65152   8.137  11.244   0.384  0.0885 -0.9720 -0.2500
  473MOL0     N65153   8.248  11.158   0.419 -0.3442 -0.0108  0.4413
  473MOL0     C65154   8.275  11.046   0.336 -0.3684 -0.4006  0.1587
  473MOL0     C65155   8.380  10.978   0.392 -1.3240  0.7071 -0.1652
  473MOL0     C65156   8.453  10.851   0.353 -1.2087 -0.8017 -1.0356
  473MOL0     C65157   8.364  10.744   0.272  0.2603  0.6834 -0.0039
  473MOL0     C65158   8.299  10.647   0.377  0.1416  0.4806 -0.0043
  473MOL0     C65159   8.194  10.556   0.308  1.0053  0.0388 -0.4937
  473MOL0     O65160   8.086  10.627   0.260 -0.3941  0.1031 -0.0388
  473MOL0     C65161   8.032  10.583   0.139  0.2605  0.2482  0.0278
  473MOL0     C65162   7.975  10.693   0.072 -0.4372 -0.0529  1.0975
  473MOL0     C65163   7.911  10.670  -0.052  0.1907 -0.3649  0.2584
  473MOL0     C65164   7.868  10.801  -0.121  0.6736  0.3338 -0.1756
  473MOL0     C65165   7.898  10.538  -0.103  0.1347 -0.7888 -0.3034
  473MOL0     C65166   7.835  10.506  -0.232  0.6535  0.6081 -0.1735
  473MOL0     O65167   7.762  10.594  -0.301  0.1255 -0.1767 -0.6779
  473MOL0     C65168   7.701  10.558  -0.422  0.4331  1.2753  0.4795
  473MOL0     C65169   7.736  10.626  -0.538 -0.0302 -0.7935 -0.0595
  473MOL0     C65170   7.661  10.601  -0.656 -0.0075 -0.4081 -1.2096
  473MOL0     C65171   7.548  10.524  -0.659  0.2671  0.1520  0.5930
  473MOL0     O65172   7.485  10.513  -0.779 -0.4136  0.0475 -0.1683
  473MOL0     C65173   7.344  10.548  -0.776  1.0980 -0.1119 -0.0981
  473MOL0     C65174   7.261  10.541  -0.916  0.8579  0.3690  0.0814
  473MOL0     C65175   7.150  10.656  -0.928  0.5853  1.6485  1.0797
  473MOL0     C65176   7.015  10.612  -1.002 -0.9110 -0.0449  0.0451
  473MOL0     C65177   6.919  10.723  -1.044 -0.0987 -0.7136  0.3268
  473MOL0     C65178   6.966  10.811  -1.160  0.2464 -0.5297  0.7336
  473MOL0     C65179   7.023  10.738  -1.293  0.3900  1.2348 -0.4139
  473MOL0     C65180   7.065  10.835  -1.401  0.4414 -0.2564 -0.1359
  473MOL0    Cl65181   6.936  10.945  -1.454 -0.5654  0.2397  0.0852
  473MOL0     C65182   7.510  10.459  -0.539 -0.2072  0.0639 -0.2976
  473MOL0     C65183   7.582  10.481  -0.423  1.1345 -0.7773 -0.0045
  473MOL0     O65184   7.824  10.386  -0.257 -0.0783  0.4621  0.7976
  473MOL0     C65185   7.942  10.429  -0.023  0.6911  0.3161 -0.3786
  473MOL0     C65186   8.006  10.448   0.098 -0.4813 -0.3706  1.7095
  473MOL0     N65187   8.404  11.049   0.513  0.6995 -0.0414  0.2016
  473MOL0     N65188   8.315  11.145   0.537 -0.9854  0.5289  0.1582
  473MOL0     C65189   7.343  11.384   1.027  0.6764  0.5437  0.1398
  473MOL0     C65190   7.254  11.339   1.122  0.2242 -0.6105  0.4378
  473MOL0     C65191   6.963  11.075   1.354  0.2603  0.8600 -0.1759
  473MOL0     C65192   6.996  10.940   1.363 -0.2823 -0.1211 -0.7193
  473MOL0     C65193   6.935  10.850   1.463  0.5835 -0.0694  0.8059
  473MOL0     C65194   6.815  10.907   1.531 -0.5021 -0.3827 -0.3147
  473MOL0     O65195   6.736  10.835   1.624  0.1584  0.5811  0.8946
  473MOL0     C65196   6.811  10.777   1.733  0.5681  0.1683 -0.0916
  473MOL0     C65197   6.721  10.760   1.856 -0.2960  0.0972 -0.3687
  473MOL0     C65198   6.599  10.668   1.829 -0.6766 -0.2401  0.3469
  473MOL0     C65199   6.628  10.538   1.763  0.0604 -0.0847 -0.0434
  473MOL0     C65200   6.752  10.468   1.809 -0.2573 -0.2413 -0.8151
  473MOL0     C65201   6.843  10.415   1.869 -0.2536 -1.0020 -0.1499
  473MOL0     C65202   6.774  11.041   1.512 -0.2432  0.5439  0.3871
  473MOL0     C65203   6.852  11.131   1.436 -0.4525  0.5484 -0.4824
  473MOL0     C65204   6.830  11.281   1.448 -0.0105 -0.0596 -0.4009
  473MOL0     H65205   7.308  11.009   1.112  0.3909  0.1889  1.0979
  473MOL0     H65206   7.496  11.088   0.946 -0.9440 -2.1671  0.1951
  473MOL0     H65207   7.661  11.228   0.812 -1.5260 -0.7893  0.1260
  473MOL0     H65208   7.685  11.272   0.977  3.3222 -0.1870 -2.2259
  473MOL0     H65209   7.740  11.513   0.884  1.4214  1.3586 -2.0048
  473MOL0     H65210   7.856  11.384   0.853 -0.4830 -1.0731 -0.7263
  473MOL0     H65211   7.657  11.489   0.654  0.5809 -0.4176 -2.8438
  473MOL0     H65212   7.830  11.520   0.663 -1.9306  2.5906  1.0061
  473MOL0     H65213   7.881  11.278   0.638  1.2770  2.3387  2.2161
  473MOL0     H65214   7.714  11.262   0.570  0.3296  2.0503 -1.0865
  473MOL0     H65215   7.941  11.444   0.470 -1.0057  1.7711 -1.2261
  473MOL0     H65216   7.778  11.449   0.407 -1.0742 -0.0649  0.6716
  473MOL0     H65217   7.801  11.217   0.329 -2.1070  2.1625  1.4649
  473MOL0     H65218   7.926  11.320   0.256  1.8219 -1.5051 -0.5661
  473MOL0     H65219   8.015  11.098   0.307  1.1123  2.3369 -0.9844
  473MOL0     H65220   7.992  11.134   0.484  0.0190 -0.3960  0.7268
  473MOL0     H65221   8.158  11.295   0.290 -0.3612  0.7012  0.5233
  473MOL0     H65222   8.134  11.323   0.459 -1.1253  0.6283 -1.9027
  473MOL0     H65223   8.214  11.012   0.253 -3.8776  0.2673  2.2507
  473MOL0     H65224   8.491  10.796   0.440  1.7433 -0.7112 -2.1297
  473MOL0     H65225   8.541  10.877   0.293  1.5389 -2.6344  1.8567
  473MOL0     H65226   8.301  10.804   0.205  0.3367 -0.8222 -1.5156
  473MOL0     H65227   8.425  10.681   0.206  1.3798  1.3867  0.3451
  473MOL0     H65228   8.364  10.597   0.449  0.5346 -0.7429 -1.1821
  473MOL0     H65229   8.231  10.709   0.438  1.1932  0.1146  1.5883
  473MOL0     H65230   8.240  10.502   0.225  1.9200  0.5837 -0.3559
  473MOL0     H65231   8.145  10.491   0.381  0.6263  2.4856  1.5582
  473MOL0     H65232   7.995  10.789   0.118 -3.0169 -0.1854  2.7052
  473MOL0     H65233   7.907  10.891  -0.073  1.7457  0.4276 -1.2085
  473MOL0     H65234   7.758  10.809  -0.118  0.6083 -0.5213 -0.1567
  473MOL0     H65235   7.899  10.798  -0.226 -1.4862 -0.8541 -0.8492
  473MOL0     H65236   7.827  10.685  -0.534 -1.4856  1.5134  1.3657
  473MOL0     H65237   7.695  10.652  -0.745 -0.1101  2.1422  0.1369
  473MOL0     H65238   7.281  10.481  -0.718 -1.0716  0.3565 -1.7983
  473MOL0     H65239   7.329  10.653  -0.747 -1.3693 -0.2528 -0.6211
  473MOL0     H65240   7.343  10.566  -0.984  1.9476 -1.0379  0.8155
  473MOL0     H65241   7.216  10.445  -0.942 -0.3698  0.8624  0.3589
  473MOL0     H65242   7.189  10.746  -0.976  2.0587  0.3952 -0.1344
  473MOL0     H65243   7.123  10.673  -0.823  1.9317  2.4047  1.3240
  473MOL0     H65244   6.965  10.541  -0.936 -0.1006  0.7616  1.5849
  473MOL0     H65245   7.058  10.549  -1.080  1.1784  2.8659 -1.3236
  473MOL0     H65246   6.830  10.673  -1.082 -0.2579 -0.0779 -0.1412
  473MOL0     H65247   6.886  10.772  -0.951  0.3823  1.6401 -0.6730
  473MOL0     H65248   7.056  10.865  -1.129  0.2185 -1.6858  2.9698
  473MOL0     H65249   6.885  10.879  -1.188  0.4111 -1.6242 -3.0064
  473MOL0     H65250   6.951  10.665  -1.330 -1.1418  1.9995  0.9535
  473MOL0     H65251   7.112  10.682  -1.264  0.2003  1.3223  0.3754
  473MOL0     H65252   7.118  10.778  -1.478  0.5960 -1.3024  0.7204
  473MOL0     H65253   7.146  10.895  -1.359  1.9256 -1.4313 -1.1896
  473MOL0     H65254   7.424  10.393  -0.536  0.0254 -0.2750 -0.9508
  473MOL0     H65255   7.555  10.445  -0.324  4.1707  4.9473  3.4169
  473MOL0     H65256   7.919  10.326  -0.051 -0.5605 -0.0428  1.7103
  473MOL0     H65257   8.047  10.363   0.152  1.7009 -0.2017  0.4642
  473MOL0     H65258   7.350  11.489   1.004 -0.6165  0.0584 -2.9366
  473MOL0     H65259   7.188  11.409   1.173 -0.5813 -0.4583 -0.7955
  473MOL0     H65260   7.085  10.909   1.309  0.5195  2.1303 -0.7966
  473MOL0     H65261   6.970  10.748   1.480  0.1067 -0.1898  1.0734
  473MOL0     H65262   6.874  10.688   1.727 -1.4653 -1.2255 -2.4504
  473MOL0     H65263   6.884  10.851   1.766 -1.8557  2.1861  1.0885
  473MOL0     H65264   6.686  10.858   1.889 -3.0399  0.2661 -3.2847
  473MOL0     H65265   6.782  10.709   1.931 -0.0426 -2.4367 -2.1506
  473MOL0     H65266   6.541  10.653   1.920 -2.1363 -3.4554 -0.9666
  473MOL0     H65267   6.532  10.727   1.766 -1.2027 -2.0404 -0.8562
  473MOL0     H65268   6.635  10.556   1.655  0.0335  0.0398 -0.0249
  473MOL0     H65269   6.546  10.471   1.792  0.4121 -0.9403 -0.9508
  473MOL0     H65270   6.917  10.363   1.927  0.6456 -1.7989 -1.9523
  473MOL0     H65271   6.695  11.081   1.574  0.0756  2.6950 -0.4927
  473MOL0     H65272   6.754  11.303   1.523 -0.1692  0.2059 -0.6346
  473MOL0     H65273   6.923  11.337   1.461  0.8853 -1.6694  0.5426
  473MOL0     H65274   6.800  11.324   1.352  2.3375 -0.8050 -1.5661
  474MOL0     O65275   3.384   9.632   5.167 -0.4714 -0.1659  0.1952
  474MOL0     C65276   3.396   9.739   5.223  0.9118 -0.7382 -0.2227
  474MOL0     O65277   3.386   9.864   5.165  0.0102 -0.2574  0.7038
  474MOL0     C65278   3.302   9.884   5.062  0.0320  0.7973  0.6879
  474MOL0     C65279   3.325   9.992   4.975 -0.3589  0.1546  0.2536
  474MOL0     C65280   3.232  10.032   4.886 -0.7376 -0.4382  0.8407
  474MOL0     C65281   3.112   9.963   4.864  0.0845 -0.6587 -0.4594
  474MOL0     O65282   3.030   9.985   4.756 -0.0790 -0.8364  0.4764
  474MOL0     C65283   3.083  10.004   4.622  0.1939 -0.6072  0.1913
  474MOL0     C65284   3.058   9.869   4.546  0.8442  0.9365  0.9843
  474MOL0     C65285   3.081   9.875   4.395 -0.7557 -0.4479 -0.0754
  474MOL0     C65286   3.234   9.879   4.358 -0.2140 -0.3660 -0.7224
  474MOL0     C65287   3.266   9.863   4.203  1.0145 -0.2527  0.5647
  474MOL0     C65288   3.412   9.854   4.151 -0.3087  0.2542 -0.6193
  474MOL0     C65289   3.426   9.849   4.000 -0.8961  0.6708 -0.6442
  474MOL0     C65290   3.398   9.978   3.923  0.0083  0.3666 -0.7018
  474MOL0     N65291   3.459   9.985   3.794 -0.1173  0.1788  0.3195
  474MOL0     C65292   3.430   9.890   3.698 -0.3597 -0.9047  0.3358
  474MOL0     C65293   3.509   9.934   3.599 -1.0031 -0.4816 -0.0032
  474MOL0     C65294   3.523   9.856   3.470  0.5535  0.8936 -0.8384
  474MOL0     C65295   3.624   9.738   3.483  0.5611  0.8612 -0.2004
  474MOL0     C65296   3.760   9.771   3.426 -0.2711 -0.1425 -0.5519
  474MOL0     C65297   3.836   9.904   3.459  0.0194  0.0487 -0.7298
  474MOL0     O65298   3.971   9.904   3.409  0.3456  0.2768  0.2844
  474MOL0     C65299   4.074   9.853   3.492  0.3504 -0.5372 -0.0259
  474MOL0     C65300   4.135   9.727   3.456 -0.3992 -0.4407 -0.1341
  474MOL0     C65301   4.239   9.676   3.541  0.2324  0.5710  0.5794
  474MOL0     C65302   4.304   9.544   3.492  0.2194  0.2142 -1.0360
  474MOL0     C65303   4.287   9.747   3.646 -0.0769  0.5585 -0.4972
  474MOL0     C65304   4.407   9.700   3.724 -0.3730  0.0928  0.5763
  474MOL0     O65305   4.538   9.749   3.701  1.3966  0.3567 -0.7638
  474MOL0     C65306   4.639   9.732   3.788 -0.4368 -0.7919  0.2667
  474MOL0     C65307   4.634   9.797   3.914  0.7480 -0.1774  1.0644
  474MOL0     C65308   4.744   9.804   3.992  0.2675  0.2738 -0.3133
  474MOL0     C65309   4.867   9.739   3.959  0.9806 -0.2970 -0.3685
  474MOL0     O65310   4.976   9.714   4.036  0.5385  0.5558 -0.1721
  474MOL0     C65311   4.944   9.662   4.174 -0.9782 -0.3637  1.0221
  474MOL0     C65312   5.073   9.659   4.251 -0.8134  0.1870 -0.3693
  474MOL0     C65313   5.065   9.693   4.403  0.1691  0.0598  0.1032
  474MOL0     C65314   5.073   9.848   4.416  0.3478 -0.1953 -0.2245
  474MOL0     C65315   5.038   9.892   4.559  1.0024  0.0857  0.1701
  474MOL0     C65316   4.999  10.044   4.570 -0.1282  0.2166  0.3886
  474MOL0     C65317   4.851  10.084   4.579 -0.2913  0.7708 -0.1698
  474MOL0     C65318   4.757  10.040   4.461 -0.0449 -0.6948 -0.2316
  474MOL0    Cl65319   4.727   9.873   4.451  0.0676  0.9415 -0.2026
  474MOL0     C65320   4.871   9.684   3.830 -1.0964  0.1759  1.0086
  474MOL0     C65321   4.758   9.679   3.751 -0.2806  0.9308  0.0985
  474MOL0     O65322   4.379   9.624   3.817 -0.4424 -0.0994  0.5637
  474MOL0     C65323   4.237   9.878   3.668  0.9509 -0.2622 -0.0240
  474MOL0     C65324   4.120   9.928   3.601 -0.7753  1.4943  0.2207
  474MOL0     N65325   3.599  10.029   3.640 -0.1457 -0.1697 -0.0822
  474MOL0     N65326   3.568  10.062   3.765  0.0146  0.1933 -0.3548
  474MOL0     C65327   3.081   9.853   4.955  0.3100  0.1186  0.6983
  474MOL0     C65328   3.177   9.812   5.045 -0.4074 -0.4273  1.0338
  474MOL0     C65329   3.403   9.736   5.373 -0.3663  0.8017 -0.5945
  474MOL0     C65330   3.424   9.847   5.456  0.5773 -0.5723  0.0706
  474MOL0     C65331   3.451   9.836   5.588 -0.2943 -0.0940  0.5749
  474MOL0     C65332   3.446   9.715   5.661  0.2827 -0.1180 -0.4729
  474MOL0     O65333   3.478   9.711   5.800  0.0725  0.7594 -0.5031
  474MOL0     C65334   3.361   9.713   5.888 -0.7115  0.2355  0.0374
  474MOL0     C65335   3.383   9.631   6.012 -0.6399 -0.3962  0.2037
  474MOL0     C65336   3.259   9.629   6.109  0.1412 -1.4215  0.2905
  474MOL0     C65337   3.243   9.766   6.182  0.5017  0.4777 -0.2152
  474MOL0     C65338   3.118   9.765   6.266 -0.1514  0.9464  0.1267
  474MOL0     C65339   3.031   9.773   6.353 -0.7130 -0.7865  0.6277
  474MOL0     C65340   3.405   9.602   5.592 -0.0067 -0.9535  0.0163
  474MOL0     C65341   3.390   9.613   5.451 -0.6726 -0.7682  0.2374
  474MOL0     C65342   3.323   9.488   5.395 -1.1290 -0.8784 -0.7331
  474MOL0     H65343   3.418  10.046   4.984  0.6815 -1.3939 -0.6184
  474MOL0     H65344   3.266  10.107   4.816  1.6310  0.1928  2.5235
  474MOL0     H65345   3.185  10.042   4.610  0.3036 -1.3118 -1.4116
  474MOL0     H65346   3.014  10.078   4.581 -0.3733 -0.2473  1.7248
  474MOL0     H65347   3.125   9.793   4.590  2.8005  0.7840 -1.9320
  474MOL0     H65348   2.956   9.834   4.565 -0.2092  2.6481 -1.0611
  474MOL0     H65349   3.038   9.791   4.339  0.2498  0.6547 -2.6528
  474MOL0     H65350   3.047   9.972   4.357  3.7186  2.4220  2.2232
  474MOL0     H65351   3.255   9.979   4.397 -2.1181  1.0216 -2.9992
  474MOL0     H65352   3.294   9.810   4.419  2.6747  2.1017 -0.5620
  474MOL0     H65353   3.213   9.936   4.141  0.7393  0.3633  1.5171
  474MOL0     H65354   3.211   9.769   4.188 -0.5586  0.7132 -0.0374
  474MOL0     H65355   3.472   9.937   4.188 -0.0023 -0.6406  0.9863
  474MOL0     H65356   3.456   9.761   4.190 -0.4160  1.7776  3.6091
  474MOL0     H65357   3.380   9.764   3.948  4.3394 -1.2390 -2.8432
  474MOL0     H65358   3.527   9.840   3.960 -1.2006  0.5991 -1.4133
  474MOL0     H65359   3.289   9.974   3.929  0.1124 -0.4166  2.0450
  474MOL0     H65360   3.435  10.067   3.975 -0.9808  0.8439 -0.7988
  474MOL0     H65361   3.366   9.803   3.695  0.2214 -1.3898  1.5652
  474MOL0     H65362   3.542   9.913   3.378  1.6048 -0.3263 -1.4088
  474MOL0     H65363   3.427   9.806   3.457  0.8005 -0.1188  1.0318
  474MOL0     H65364   3.634   9.716   3.590 -0.5357  0.8601 -0.0918
  474MOL0     H65365   3.586   9.651   3.428  1.5122  0.6048 -0.4804
  474MOL0     H65366   3.828   9.687   3.447 -0.0954 -0.4407 -2.1861
  474MOL0     H65367   3.726   9.767   3.322 -0.9359 -2.2649 -0.3102
  474MOL0     H65368   3.777   9.985   3.415 -1.3475  1.9269  3.9316
  474MOL0     H65369   3.851   9.935   3.562  1.3675 -1.5993 -0.3768
  474MOL0     H65370   4.108   9.680   3.362  2.3925  1.0768 -1.8436
  474MOL0     H65371   4.257   9.503   3.402  0.7127  0.0756 -1.2331
  474MOL0     H65372   4.302   9.469   3.571 -0.2198 -0.9514 -2.1295
  474MOL0     H65373   4.411   9.561   3.480 -0.2135  3.2305 -1.5495
  474MOL0     H65374   4.545   9.836   3.961  1.0236  0.6848  0.9000
  474MOL0     H65375   4.723   9.850   4.088 -0.3474 -0.6492  0.0046
  474MOL0     H65376   4.868   9.720   4.226 -0.8704  2.6383 -1.8059
  474MOL0     H65377   4.892   9.567   4.159 -1.0332 -0.0703 -0.9064
  474MOL0     H65378   5.120   9.560   4.243 -1.8760 -0.3212 -0.4505
  474MOL0     H65379   5.141   9.730   4.203  0.5661 -0.9770 -0.2061
  474MOL0     H65380   5.149   9.644   4.454 -2.3896 -2.5739  2.0764
  474MOL0     H65381   4.971   9.660   4.447 -0.2331 -0.2938 -0.9953
  474MOL0     H65382   5.010   9.891   4.338  2.7907 -3.7992 -4.6500
  474MOL0     H65383   5.180   9.862   4.400  0.9148 -3.3213  0.2221
  474MOL0     H65384   4.946   9.837   4.578  0.3095  1.6283  1.4176
  474MOL0     H65385   5.116   9.879   4.635  3.0220  3.1112 -1.2176
  474MOL0     H65386   5.031  10.087   4.475 -2.0157  0.4699 -0.1654
  474MOL0     H65387   5.054  10.101   4.646 -0.7296  2.2739 -0.6541
  474MOL0     H65388   4.847  10.193   4.575 -1.3646  0.8351  1.5212
  474MOL0     H65389   4.814  10.039   4.672  2.7790 -1.9377 -0.0393
  474MOL0     H65390   4.807  10.079   4.372  0.5099  3.1896  1.5930
  474MOL0     H65391   4.669  10.103   4.471  1.1920  1.3660 -1.5030
  474MOL0     H65392   4.960   9.647   3.781 -1.5481  2.2648 -1.6119
  474MOL0     H65393   4.770   9.630   3.655 -2.0257 -0.1625  0.3921
  474MOL0     H65394   4.287   9.938   3.743  0.4644 -0.7367  0.7010
  474MOL0     H65395   4.071  10.021   3.627 -0.0335  2.2127 -0.8466
  474MOL0     H65396   2.991   9.795   4.938  0.1786  0.3407  0.6313
  474MOL0     H65397   3.164   9.717   5.096  2.4707 -1.0975  0.7300
  474MOL0     H65398   3.434   9.947   5.416  0.1867 -0.4994  0.1476
  474MOL0     H65399   3.481   9.918   5.653 -1.2631 -0.3204  1.3225
  474MOL0     H65400   3.338   9.818   5.912 -3.9377 -0.2522 -0.4518
  474MOL0     H65401   3.274   9.672   5.835  0.9393 -0.9042 -1.9010
  474MOL0     H65402   3.473   9.672   6.059 -1.1615  2.0410 -0.7546
  474MOL0     H65403   3.408   9.525   5.996  0.3692 -0.3862  1.5428
  474MOL0     H65404   3.170   9.603   6.051 -0.0750 -0.9233  0.3955
  474MOL0     H65405   3.279   9.554   6.186 -0.9679 -0.9507  1.0591
  474MOL0     H65406   3.233   9.850   6.113  3.2098 -0.6820 -2.1746
  474MOL0     H65407   3.329   9.795   6.242  0.9222  1.1251 -1.1032
  474MOL0     H65408   2.944   9.767   6.415 -1.4409  0.4369 -0.2357
  474MOL0     H65409   3.392   9.515   5.656  0.4955  0.3564  1.9861
  474MOL0     H65410   3.222   9.494   5.354 -1.9225 -1.5561  1.0300
  474MOL0     H65411   3.386   9.448   5.315  1.9668 -3.5485  2.6382
  474MOL0     H65412   3.320   9.416   5.477 -0.2984  1.8846  1.9228
  475MOL0     O65413   6.747   7.883   1.265 -0.0773 -0.4690 -0.1919
  475MOL0     C65414   6.630   7.907   1.286 -0.3929  0.2013 -1.0686
  475MOL0     O65415   6.548   7.961   1.189  0.1701  0.4079  0.5700
  475MOL0     C65416   6.603   8.028   1.096 -0.5497  0.0896  0.2804
  475MOL0     C65417   6.616   8.163   1.116  0.6381  0.2157 -0.2733
  475MOL0     C65418   6.677   8.239   1.021 -0.0640 -0.6157 -0.5073
  475MOL0     C65419   6.744   8.188   0.913 -0.4383  0.0860 -0.0282
  475MOL0     O65420   6.817   8.278   0.835  0.7638  0.2726 -0.4929
  475MOL0     C65421   6.869   8.232   0.707  0.1258 -0.4491  0.1662
  475MOL0     C65422   6.895   8.346   0.610 -0.1697 -0.3468  1.1648
  475MOL0     C65423   7.000   8.445   0.658  0.0917 -0.3805  0.1471
  475MOL0     C65424   7.066   8.518   0.544  0.8884  0.9467 -0.6465
  475MOL0     C65425   7.185   8.600   0.594 -0.1417 -0.5448  0.2292
  475MOL0     C65426   7.221   8.707   0.494  0.1978 -0.5653  0.9890
  475MOL0     C65427   7.323   8.801   0.554 -0.1754 -0.4090  0.2301
  475MOL0     C65428   7.462   8.779   0.497 -0.5611 -0.1647  0.1249
  475MOL0     N65429   7.515   8.901   0.430 -0.0176 -0.0221 -0.0049
  475MOL0     C65430   7.553   9.011   0.500  0.0017 -0.8286 -0.5176
  475MOL0     C65431   7.622   9.085   0.414  0.1223 -0.5233  0.0625
  475MOL0     C65432   7.701   9.212   0.444 -0.1139  0.7342 -0.4275
  475MOL0     C65433   7.625   9.325   0.376 -0.1176  0.8470 -0.7541
  475MOL0     C65434   7.701   9.388   0.262 -0.3674 -0.0747  0.0390
  475MOL0     C65435   7.821   9.476   0.302  1.1570 -0.2465  0.8863
  475MOL0     O65436   7.883   9.556   0.189 -0.0638 -0.2996 -0.2233
  475MOL0     C65437   7.991   9.512   0.118  0.1417 -0.6314 -0.0168
  475MOL0     C65438   8.069   9.607   0.059 -0.7882  0.2250  0.6527
  475MOL0     C65439   8.195   9.570  -0.005 -0.1982 -0.3226 -0.0823
  475MOL0     C65440   8.261   9.677  -0.084  0.4930 -0.8764 -1.1856
  475MOL0     C65441   8.240   9.429   0.005  0.2011 -0.0722  0.4004
  475MOL0     C65442   8.367   9.384  -0.061 -0.1011 -0.4523  0.6737
  475MOL0     O65443   8.365   9.256  -0.112  0.6695  0.3340 -0.5170
  475MOL0     C65444   8.474   9.203  -0.167 -0.4300  0.6627  0.2422
  475MOL0     C65445   8.486   9.149  -0.302 -0.1827  1.0148 -0.3244
  475MOL0     C65446   8.605   9.083  -0.336 -0.5184  0.2352  0.3276
  475MOL0     C65447   8.719   9.093  -0.255 -0.3907 -0.4204 -0.4968
  475MOL0     O65448   8.841   9.045  -0.304 -0.3467 -0.3655 -0.2522
  475MOL0     C65449   8.867   8.917  -0.241  0.3520 -0.2356  0.9011
  475MOL0     C65450   8.933   8.904  -0.110 -0.0625  0.2980 -0.2977
  475MOL0     C65451   9.052   9.010  -0.096  0.0525  0.7639  0.1446
  475MOL0     C65452   9.152   8.995  -0.219 -0.1402 -0.4083 -0.3724
  475MOL0     C65453   9.290   9.049  -0.184 -0.2422 -0.3235  0.9333
  475MOL0     C65454   9.355   9.101  -0.311  0.2224 -0.5219 -0.5189
  475MOL0     C65455   9.505   9.132  -0.284  0.2557 -0.3406  0.4707
  475MOL0     C65456   9.561   9.197  -0.415 -0.2616  0.4738 -0.1398
  475MOL0    Cl65457   9.498   9.361  -0.410  0.1236 -0.2027  0.1105
  475MOL0     C65458   8.709   9.139  -0.123  0.1017  0.3722 -0.3137
  475MOL0     C65459   8.589   9.191  -0.080 -0.5267 -0.3193 -0.2800
  475MOL0     O65460   8.466   9.460  -0.060 -0.7085  0.7022 -0.0116
  475MOL0     C65461   8.158   9.332   0.068  0.3633 -0.4981 -0.7178
  475MOL0     C65462   8.034   9.384   0.123  0.3540  0.3777 -0.6346
  475MOL0     N65463   7.634   9.012   0.294  0.5276 -0.5491 -0.2662
  475MOL0     N65464   7.573   8.894   0.308  0.0340 -0.6910 -0.0992
  475MOL0     C65465   6.743   8.046   0.895  0.6331  0.5098 -0.0503
  475MOL0     C65466   6.664   7.971   0.985  0.2075  0.1346  0.9870
  475MOL0     C65467   6.562   7.855   1.396 -0.2923  0.3749 -0.8587
  475MOL0     C65468   6.422   7.809   1.394 -0.9785  0.0005 -0.0620
  475MOL0     C65469   6.358   7.760   1.510  0.0311 -0.0486 -0.2284
  475MOL0     C65470   6.428   7.750   1.633 -0.1304 -0.5145  0.4130
  475MOL0     O65471   6.339   7.692   1.734  0.9002 -0.1928 -0.0183
  475MOL0     C65472   6.273   7.796   1.802 -0.1943 -0.4815 -0.2492
  475MOL0     C65473   6.196   7.737   1.923  1.4691  0.1115 -0.1204
  475MOL0     C65474   6.089   7.839   1.975 -0.4527  0.0368 -0.2937
  475MOL0     C65475   6.138   7.993   1.989  0.7851  0.4578 -0.3430
  475MOL0     C65476   6.032   8.063   2.065  0.0480 -0.1710  0.3937
  475MOL0     C65477   5.939   8.090   2.141 -0.9718 -0.0945 -0.0418
  475MOL0     C65478   6.563   7.788   1.639  0.1188  0.0556  0.2364
  475MOL0     C65479   6.626   7.842   1.527 -0.3062 -0.5641  0.3946
  475MOL0     C65480   6.774   7.868   1.558  0.8927  0.7107  0.2851
  475MOL0     H65481   6.591   8.227   1.200  1.5118  0.3225 -0.0830
  475MOL0     H65482   6.684   8.347   1.034 -1.7042 -0.6016  0.6033
  475MOL0     H65483   6.807   8.158   0.656  3.2205 -3.7400  0.6915
  475MOL0     H65484   6.965   8.190   0.740 -1.1567 -1.9059  2.2926
  475MOL0     H65485   6.916   8.311   0.508 -2.3202 -1.4907  1.0561
  475MOL0     H65486   6.802   8.403   0.601 -1.4300 -2.1379  2.2625
  475MOL0     H65487   6.948   8.518   0.721  0.9287  1.8008 -1.5234
  475MOL0     H65488   7.071   8.400   0.727  1.0924  1.9706  0.7536
  475MOL0     H65489   7.096   8.449   0.465 -1.1559  1.7281 -2.2320
  475MOL0     H65490   6.995   8.584   0.493 -2.3361 -1.7896 -0.0564
  475MOL0     H65491   7.274   8.537   0.607 -0.7667 -0.7542  5.0401
  475MOL0     H65492   7.148   8.637   0.689  0.0418 -3.0477  1.3624
  475MOL0     H65493   7.230   8.678   0.389 -2.3188 -0.0039  0.5436
  475MOL0     H65494   7.126   8.761   0.493  3.4765  6.5021  4.2209
  475MOL0     H65495   7.335   8.797   0.663 -2.4985 -0.1405  0.5322
  475MOL0     H65496   7.281   8.900   0.534  0.0218 -0.5120 -0.7514
  475MOL0     H65497   7.520   8.732   0.576  1.2723 -1.0091 -1.6256
  475MOL0     H65498   7.455   8.701   0.421 -0.7382 -0.9813  0.9738
  475MOL0     H65499   7.528   9.047   0.600 -3.0112 -0.8946 -1.1791
  475MOL0     H65500   7.807   9.200   0.418  0.4527  2.5553  0.7926
  475MOL0     H65501   7.701   9.229   0.552  0.3922 -0.0494 -0.2972
  475MOL0     H65502   7.536   9.277   0.333  0.6484 -1.0399 -0.3280
  475MOL0     H65503   7.598   9.390   0.459 -1.9966 -0.9067  0.0971
  475MOL0     H65504   7.734   9.313   0.189 -1.9460  0.7581 -1.6028
  475MOL0     H65505   7.637   9.461   0.211  3.3017  3.8596  0.5146
  475MOL0     H65506   7.794   9.551   0.376  1.6608  1.3315 -0.4492
  475MOL0     H65507   7.901   9.414   0.344  2.4226  0.3730 -0.5132
  475MOL0     H65508   8.033   9.709   0.054 -0.7859  0.1673 -1.6644
  475MOL0     H65509   8.182   9.732  -0.136 -0.5822 -1.0168  0.2245
  475MOL0     H65510   8.337   9.644  -0.155  1.3626 -2.0576  0.2260
  475MOL0     H65511   8.319   9.744  -0.019  1.0753 -2.0714 -0.4255
  475MOL0     H65512   8.397   9.152  -0.363  1.3476 -1.8476 -2.9795
  475MOL0     H65513   8.614   9.028  -0.429 -1.2410 -2.3638  1.7012
  475MOL0     H65514   8.772   8.866  -0.223  0.1421  0.3119  1.3868
  475MOL0     H65515   8.938   8.871  -0.309 -0.4302  0.9091 -0.7483
  475MOL0     H65516   8.866   8.910  -0.024  0.3225 -5.1511  0.7459
  475MOL0     H65517   8.970   8.801  -0.101 -1.8730 -0.4109 -0.5999
  475MOL0     H65518   9.110   8.989  -0.005  1.4020  4.6275  0.4094
  475MOL0     H65519   9.015   9.113  -0.086  0.0506  0.7129  0.7306
  475MOL0     H65520   9.112   9.049  -0.305 -2.1947 -1.4169 -0.1279
  475MOL0     H65521   9.151   8.890  -0.248 -1.9665 -0.4143 -0.4045
  475MOL0     H65522   9.285   9.131  -0.112 -0.3884 -0.9423  1.6388
  475MOL0     H65523   9.351   8.968  -0.144  4.8295  3.2805  1.5324
  475MOL0     H65524   9.304   9.196  -0.329 -0.4082 -0.6041  0.7228
  475MOL0     H65525   9.339   9.034  -0.396 -2.7147 -2.8545  1.6405
  475MOL0     H65526   9.566   9.046  -0.255 -0.1560 -2.1316 -3.3655
  475MOL0     H65527   9.503   9.208  -0.206  2.7573  1.0400 -0.6853
  475MOL0     H65528   9.538   9.139  -0.505 -2.1033 -0.0286  0.5954
  475MOL0     H65529   9.669   9.210  -0.411  0.0513 -0.5734 -3.0174
  475MOL0     H65530   8.798   9.139  -0.061  0.6690 -2.4772 -0.9893
  475MOL0     H65531   8.580   9.240   0.016  0.7084  2.4873 -1.4856
  475MOL0     H65532   8.195   9.230   0.068  3.3631  0.4693 -1.8222
  475MOL0     H65533   7.976   9.307   0.173  1.1862 -1.0009 -1.7090
  475MOL0     H65534   6.781   7.999   0.805 -2.3544 -2.3426 -0.0040
  475MOL0     H65535   6.637   7.871   0.950  0.7663  1.1802 -2.7871
  475MOL0     H65536   6.370   7.829   1.301  0.2710  0.0013 -0.7816
  475MOL0     H65537   6.259   7.719   1.494  1.0073 -1.4144 -3.5913
  475MOL0     H65538   6.342   7.873   1.840 -0.0415 -0.0325 -1.4119
  475MOL0     H65539   6.203   7.844   1.733  0.7120  1.1927 -0.0698
  475MOL0     H65540   6.274   7.723   1.998  2.5876  2.9690 -0.6657
  475MOL0     H65541   6.148   7.643   1.892  4.7848 -1.3704 -1.2006
  475MOL0     H65542   6.005   7.829   1.905 -0.3724 -1.5738 -0.1960
  475MOL0     H65543   6.051   7.806   2.072 -1.1951 -1.7107 -1.1440
  475MOL0     H65544   6.155   8.043   1.893  3.9517 -2.0119 -1.2648
  475MOL0     H65545   6.223   7.982   2.057 -0.5589  0.7274  1.4430
  475MOL0     H65546   5.856   8.126   2.198 -2.1721  0.2232 -1.8855
  475MOL0     H65547   6.614   7.757   1.729 -0.2972 -1.8275 -0.1371
  475MOL0     H65548   6.826   7.772   1.557  2.2522  1.4333 -0.5767
  475MOL0     H65549   6.819   7.936   1.486  3.0194 -1.5817 -0.6703
  475MOL0     H65550   6.792   7.891   1.664 -0.7063  0.1841  0.7050
  476MOL0     O65551   4.108   2.189  10.853 -0.2244 -0.6975 -0.6366
  476MOL0     C65552   4.111   2.302  10.899 -0.3670  0.3684  0.2732
  476MOL0     O65553   3.998   2.383  10.925 -0.2278  0.6493 -0.7248
  476MOL0     C65554   3.884   2.368  10.850 -0.1633  0.6943 -0.6281
  476MOL0     C65555   3.880   2.443  10.740  1.0515 -0.4349  0.2661
  476MOL0     C65556   3.756   2.443  10.671 -0.1254  0.1507  0.3505
  476MOL0     C65557   3.654   2.361  10.710  1.1096  1.2028 -1.1306
  476MOL0     O65558   3.543   2.338  10.626  0.7131  0.5701 -0.7090
  476MOL0     C65559   3.501   2.452  10.545 -0.3889 -0.8753  0.2034
  476MOL0     C65560   3.436   2.559  10.627  0.2143  0.1710 -0.5768
  476MOL0     C65561   3.310   2.613  10.549 -0.6101  0.3029 -0.7315
  476MOL0     C65562   3.235   2.709  10.651 -0.6401 -0.2330 -0.6615
  476MOL0     C65563   3.114   2.753  10.584  0.1100  0.0687  0.2214
  476MOL0     C65564   3.014   2.832  10.688 -0.7263  0.3141  0.9696
  476MOL0     C65565   3.074   2.968  10.724 -1.0512  0.4898  0.7421
  476MOL0     C65566   2.997   3.079  10.792  1.5591 -0.0547  0.8121
  476MOL0     N65567   3.086   3.194  10.820 -0.0687  0.2016  0.3377
  476MOL0     C65568   3.192   3.183  10.910 -0.0094 -0.1648  0.1274
  476MOL0     C65569   3.229   3.317  10.921  0.4360  0.1503 -0.6615
  476MOL0     C65570   3.339   3.375  11.000  0.2292 -0.3350 -0.1322
  476MOL0     C65571   3.304   3.392  11.156  0.1960  0.3095 -0.1780
  476MOL0     C65572   3.407   3.457  11.238  0.6617 -0.3031  0.1685
  476MOL0     C65573   3.356   3.476  11.381  0.1195  0.3298  0.4266
  476MOL0     O65574   3.426   3.561  11.466 -0.4498 -0.1522 -0.6784
  476MOL0     C65575   3.526   3.505  11.547 -0.3200  0.1038  0.7048
  476MOL0     C65576   3.620   3.590  11.605 -0.4509 -0.2569 -0.5147
  476MOL0     C65577   3.730   3.549  11.684  0.1329 -0.6107  0.0587
  476MOL0     C65578   3.819   3.666  11.732 -0.1063  0.5448  0.1412
  476MOL0     C65579   3.754   3.412  11.704  1.2559 -0.3580  0.0910
  476MOL0     C65580   3.867   3.371  11.780  0.2150 -0.2472  0.6553
  476MOL0     O65581   3.994   3.428  11.755 -1.1718  0.0558 -0.7103
  476MOL0     C65582   4.094   3.405  11.844 -0.4728 -0.3988  0.4038
  476MOL0     C65583   4.176   3.297  11.825  0.7208  0.6793  0.3178
  476MOL0     C65584   4.292   3.290  11.899  0.1543  0.0380 -0.7927
  476MOL0     C65585   4.333   3.394  11.986  0.1915 -0.5715 -0.0933
  476MOL0     O65586   4.456   3.385  12.051  0.2808  0.5941  0.9140
  476MOL0     C65587   4.496   3.494  12.140 -0.1132  0.5750 -0.5520
  476MOL0     C65588   4.514   3.624  12.060 -0.4339 -0.7404 -0.6046
  476MOL0     C65589   4.618   3.601  11.942 -0.2533  0.2883 -0.3563
  476MOL0     C65590   4.703   3.721  11.916  0.2698 -0.3241  0.7593
  476MOL0     C65591   4.757   3.722  11.765  0.3264 -0.3112 -0.3264
  476MOL0     C65592   4.856   3.826  11.733  0.0335 -0.1161 -0.0653
  476MOL0     C65593   4.901   3.812  11.581  0.4738 -0.0805 -1.4607
  476MOL0     C65594   5.034   3.870  11.544 -0.3722  0.2800 -0.2262
  476MOL0    Cl65595   5.040   3.868  11.361  0.2764  0.1064 -0.4486
  476MOL0     C65596   4.232   3.500  12.007  0.3585  0.6787  0.1179
  476MOL0     C65597   4.120   3.505  11.924 -0.4770 -0.2592 -0.4245
  476MOL0     O65598   3.836   3.290  11.863 -0.5942 -0.4640  0.6381
  476MOL0     C65599   3.661   3.320  11.646 -1.1649 -0.9262  0.0746
  476MOL0     C65600   3.554   3.363  11.562 -0.4174 -0.0174  0.5542
  476MOL0     N65601   3.143   3.392  10.845  0.1664  0.2244  0.0766
  476MOL0     N65602   3.056   3.323  10.784  0.1878 -0.9228  0.2075
  476MOL0     C65603   3.666   2.274  10.820  0.9364 -0.4526 -0.7814
  476MOL0     C65604   3.779   2.292  10.894  0.1014  0.1547  0.0911
  476MOL0     C65605   4.242   2.356  10.937  1.0441 -0.7755 -0.0486
  476MOL0     C65606   4.258   2.458  11.029  0.3789  0.4274 -0.2318
  476MOL0     C65607   4.378   2.519  11.050 -0.2039  0.2736 -0.8625
  476MOL0     C65608   4.490   2.463  10.999 -0.7419 -0.6862 -0.9896
  476MOL0     O65609   4.611   2.504  11.054 -0.3299  0.4145  0.3226
  476MOL0     C65610   4.711   2.527  10.958  0.0620 -0.5327 -0.5436
  476MOL0     C65611   4.834   2.575  11.035  0.6709  0.5517  0.7610
  476MOL0     C65612   4.817   2.717  11.089  0.5522  0.4353 -0.4211
  476MOL0     C65613   4.952   2.793  11.097  0.2733  0.4702 -0.2189
  476MOL0     C65614   4.934   2.930  11.142 -0.7725 -0.2980  0.9569
  476MOL0     C65615   4.910   3.047  11.169 -1.2140  0.0847 -0.4564
  476MOL0     C65616   4.480   2.363  10.901  1.0639 -0.0885 -0.2931
  476MOL0     C65617   4.358   2.316  10.863  0.6331  0.8149  0.5740
  476MOL0     C65618   4.357   2.226  10.743 -0.0923 -0.8053 -0.3543
  476MOL0     H65619   3.966   2.493  10.698  1.3200 -0.6591  0.5517
  476MOL0     H65620   3.767   2.490  10.574  0.0672 -4.4755 -2.1573
  476MOL0     H65621   3.433   2.415  10.468 -2.6604  1.1012  1.1684
  476MOL0     H65622   3.580   2.498  10.485  0.7081 -2.7945  0.0715
  476MOL0     H65623   3.406   2.520  10.725 -2.3296  1.9790 -0.5340
  476MOL0     H65624   3.506   2.643  10.637 -0.6388  1.2763 -3.1569
  476MOL0     H65625   3.335   2.681  10.467 -1.4686  2.1389  0.4524
  476MOL0     H65626   3.236   2.534  10.532 -2.6502  1.9838 -0.1943
  476MOL0     H65627   3.204   2.651  10.738 -1.9185  2.8442  1.0874
  476MOL0     H65628   3.305   2.785  10.686 -1.9380  1.1410 -0.9562
  476MOL0     H65629   3.063   2.662  10.552 -0.2415  1.0410 -2.2158
  476MOL0     H65630   3.131   2.815  10.496 -3.6624  3.2902  1.4882
  476MOL0     H65631   2.922   2.851  10.632 -0.0119  1.2314  0.0660
  476MOL0     H65632   2.985   2.763  10.768 -2.5914 -2.8472 -2.1263
  476MOL0     H65633   3.111   3.030  10.642  0.0737 -2.0416 -0.8273
  476MOL0     H65634   3.164   2.934  10.776  0.6511  3.0020 -0.3654
  476MOL0     H65635   2.924   3.107  10.714  1.2543 -1.8464  0.4088
  476MOL0     H65636   2.953   3.048  10.887  0.5073 -1.0643  0.0277
  476MOL0     H65637   3.240   3.097  10.956  0.8515 -0.3918 -1.1168
  476MOL0     H65638   3.353   3.477  10.963  0.0581  0.1134  1.0113
  476MOL0     H65639   3.423   3.305  10.993 -1.0739 -2.0675  0.8100
  476MOL0     H65640   3.204   3.433  11.173  0.4455  0.4906  0.9088
  476MOL0     H65641   3.300   3.288  11.190  0.9807  0.8680  1.7124
  476MOL0     H65642   3.498   3.398  11.241  2.3571  2.1642  1.4639
  476MOL0     H65643   3.434   3.554  11.196  2.0981 -0.6303  0.3042
  476MOL0     H65644   3.256   3.522  11.374 -0.1166 -0.3752 -3.5251
  476MOL0     H65645   3.323   3.378  11.417 -3.1164  0.8774 -0.6491
  476MOL0     H65646   3.593   3.695  11.601  1.2059  0.2416  0.3144
  476MOL0     H65647   3.781   3.766  11.710  2.5518  1.2552 -1.6663
  476MOL0     H65648   3.913   3.672  11.676  0.4290 -2.3877  0.5587
  476MOL0     H65649   3.837   3.655  11.840  1.1067 -1.6086 -0.2089
  476MOL0     H65650   4.164   3.232  11.739  1.4954  0.8360  0.0794
  476MOL0     H65651   4.352   3.200  11.889  0.5104  0.1784 -0.0297
  476MOL0     H65652   4.418   3.510  12.215 -0.9722  0.6886 -1.4532
  476MOL0     H65653   4.591   3.462  12.184 -0.4045 -1.6619 -1.4201
  476MOL0     H65654   4.422   3.667  12.018  0.1506  3.1004  1.5742
  476MOL0     H65655   4.549   3.689  12.141  2.2345 -1.8106 -0.8139
  476MOL0     H65656   4.556   3.574  11.856 -0.7114 -0.7509  0.2839
  476MOL0     H65657   4.676   3.509  11.959  1.6257  1.2271 -1.3496
  476MOL0     H65658   4.799   3.720  11.969  1.2379 -0.7426 -0.9156
  476MOL0     H65659   4.649   3.814  11.929  0.2078 -0.0694 -1.0193
  476MOL0     H65660   4.789   3.621  11.738  1.6218 -0.1325  0.4438
  476MOL0     H65661   4.673   3.750  11.700  0.3123  0.2538 -0.0671
  476MOL0     H65662   4.944   3.809  11.796 -0.9807 -2.0465  0.9075
  476MOL0     H65663   4.813   3.925  11.754  0.7107 -0.0282  1.0277
  476MOL0     H65664   4.830   3.868  11.521  0.2785  0.8762 -0.3737
  476MOL0     H65665   4.897   3.706  11.555 -0.0752  0.7176 -5.1314
  476MOL0     H65666   5.114   3.806  11.582 -0.4805 -0.1774 -0.7649
  476MOL0     H65667   5.051   3.969  11.588  1.7188 -0.3090  0.4144
  476MOL0     H65668   4.250   3.572  12.086  0.2440 -0.3944  1.1514
  476MOL0     H65669   4.049   3.587  11.919 -0.6397 -0.4327 -0.9632
  476MOL0     H65670   3.691   3.216  11.650 -0.1125 -0.7121 -1.2146
  476MOL0     H65671   3.491   3.283  11.525 -0.1129 -1.5062  3.0668
  476MOL0     H65672   3.591   2.199  10.845 -2.3990  3.0877  1.0948
  476MOL0     H65673   3.786   2.230  10.983 -0.8733  0.3452  0.3109
  476MOL0     H65674   4.171   2.496  11.082  1.7141  0.1650  2.3100
  476MOL0     H65675   4.385   2.606  11.115 -0.9153 -0.1123 -0.2593
  476MOL0     H65676   4.743   2.451  10.887  2.3689 -0.7101  0.5925
  476MOL0     H65677   4.686   2.616  10.899 -0.0707 -1.1673 -1.4514
  476MOL0     H65678   4.913   2.569  10.958 -0.4561 -1.2907 -0.3314
  476MOL0     H65679   4.857   2.509  11.119 -0.1731 -0.4341  0.2471
  476MOL0     H65680   4.749   2.790  11.044  1.4880  2.4781  1.2710
  476MOL0     H65681   4.785   2.704  11.193  3.9626 -1.8668  0.5035
  476MOL0     H65682   4.990   2.782  10.996  1.5000  0.3827  0.2371
  476MOL0     H65683   5.023   2.738  11.160 -2.5840 -2.2047  0.9221
  476MOL0     H65684   4.889   3.150  11.190  0.4450  1.2702 -3.8733
  476MOL0     H65685   4.567   2.332  10.844  1.1999  3.4510 -2.3366
  476MOL0     H65686   4.265   2.228  10.684 -0.1348 -4.1134 -0.6235
  476MOL0     H65687   4.437   2.246  10.671  1.5828 -1.2781  1.2996
  476MOL0     H65688   4.377   2.129  10.789  0.3166  0.0325  1.3015
  477MOL0     O65689   5.950   5.759   0.615 -0.7262  0.1208 -0.8503
  477MOL0     C65690   5.931   5.706   0.508 -0.3880  0.0470 -0.5720
  477MOL0     O65691   6.025   5.643   0.431 -1.1221 -0.0916 -0.0200
  477MOL0     C65692   6.152   5.644   0.478 -0.3044 -1.4209 -0.2551
  477MOL0     C65693   6.240   5.749   0.460 -0.7822 -0.8933  0.5093
  477MOL0     C65694   6.368   5.748   0.510 -0.6456 -1.2023 -0.8607
  477MOL0     C65695   6.408   5.638   0.596 -0.2830 -0.5206  0.6028
  477MOL0     O65696   6.530   5.631   0.649  0.1419  0.5334 -0.7768
  477MOL0     C65697   6.627   5.564   0.564 -0.0296  1.3459  0.6884
  477MOL0     C65698   6.749   5.526   0.643  0.5142  0.6691 -0.6067
  477MOL0     C65699   6.852   5.462   0.542  0.4797 -0.1146 -0.9609
  477MOL0     C65700   6.971   5.399   0.611  0.2195  0.4804 -0.5141
  477MOL0     C65701   6.938   5.277   0.690  0.9932  0.8268 -0.3371
  477MOL0     C65702   7.067   5.230   0.753 -0.1487  0.5231 -0.1499
  477MOL0     C65703   7.037   5.095   0.827 -0.2091  0.1596  0.5247
  477MOL0     C65704   7.169   5.021   0.851 -1.0368  0.8893  0.2684
  477MOL0     N65705   7.273   5.089   0.928  0.5570 -0.3752  0.7865
  477MOL0     C65706   7.290   5.094   1.069 -0.1259 -1.3222 -0.0916
  477MOL0     C65707   7.404   5.163   1.085  0.4049  0.1639  0.7113
  477MOL0     C65708   7.486   5.193   1.212 -0.2525 -0.5228  0.0997
  477MOL0     C65709   7.405   5.305   1.283 -0.6953  1.2177  1.3894
  477MOL0     C65710   7.479   5.358   1.406 -1.0587 -1.3907 -0.5176
  477MOL0     C65711   7.435   5.498   1.459 -0.4576 -0.9651 -0.6837
  477MOL0     O65712   7.436   5.594   1.353 -0.0623 -0.2228 -0.5817
  477MOL0     C65713   7.417   5.726   1.384  0.7033 -1.3340  0.2089
  477MOL0     C65714   7.389   5.813   1.277 -0.2325 -0.1901  0.0722
  477MOL0     C65715   7.361   5.957   1.289 -0.1412  0.1313  0.6777
  477MOL0     C65716   7.366   6.026   1.164 -0.4669 -0.3128 -0.7687
  477MOL0     C65717   7.362   6.017   1.425 -0.7511  0.3026  0.7313
  477MOL0     C65718   7.356   6.164   1.469  0.7363 -0.5812 -0.4676
  477MOL0     O65719   7.420   6.203   1.588  0.2813 -0.2831 -0.5311
  477MOL0     C65720   7.409   6.333   1.643  0.5635 -0.0595 -0.9866
  477MOL0     C65721   7.311   6.434   1.604 -0.6940 -0.4912 -0.0121
  477MOL0     C65722   7.314   6.560   1.665  0.4838 -0.2400 -0.1495
  477MOL0     C65723   7.389   6.583   1.774 -0.6051 -0.9746 -0.5031
  477MOL0     O65724   7.362   6.699   1.840  0.1203 -0.0369 -0.5597
  477MOL0     C65725   7.474   6.772   1.901 -0.8596  0.2439 -0.3542
  477MOL0     C65726   7.421   6.914   1.933 -0.4291 -0.0572 -0.7030
  477MOL0     C65727   7.521   6.975   2.029  0.2246 -0.3610 -0.5078
  477MOL0     C65728   7.471   7.113   2.053 -0.5777 -0.4249  0.4878
  477MOL0     C65729   7.568   7.188   2.154 -0.4015  0.1156 -0.1660
  477MOL0     C65730   7.702   7.226   2.098  0.5481  0.5742  0.6694
  477MOL0     C65731   7.717   7.363   2.027  0.4338  0.5073 -0.3519
  477MOL0     C65732   7.649   7.375   1.895  0.8349 -0.6763  0.3961
  477MOL0    Cl65733   7.691   7.523   1.806 -0.0041  0.4592 -0.0624
  477MOL0     C65734   7.486   6.491   1.808  0.6547  0.0758  0.2808
  477MOL0     C65735   7.495   6.372   1.740  0.3544  0.7068 -0.2055
  477MOL0     O65736   7.284   6.241   1.396 -0.7397  0.3445 -0.3106
  477MOL0     C65737   7.395   5.923   1.528 -0.3746  0.5019  0.2984
  477MOL0     C65738   7.407   5.789   1.505  0.4373 -0.3348 -0.4847
  477MOL0     N65739   7.446   5.216   0.965 -0.1444 -0.4850  0.5655
  477MOL0     N65740   7.368   5.175   0.863  0.2445 -0.7245  0.7610
  477MOL0     C65741   6.316   5.536   0.619 -0.3405 -0.3620 -0.3590
  477MOL0     C65742   6.192   5.541   0.559  0.1000  0.5540  0.1581
  477MOL0     C65743   5.811   5.750   0.432  0.0167  0.0287 -0.3858
  477MOL0     C65744   5.823   5.768   0.294  0.2124 -0.1009 -0.4682
  477MOL0     C65745   5.723   5.825   0.218 -0.3445  0.1751  0.2495
  477MOL0     C65746   5.603   5.855   0.277 -0.3637 -1.0367 -0.3057
  477MOL0     O65747   5.510   5.919   0.202  0.2140  0.4477 -0.9828
  477MOL0     C65748   5.378   5.943   0.248  0.2649 -0.1197 -0.3264
  477MOL0     C65749   5.296   5.816   0.252  0.1034 -0.4414 -0.0783
  477MOL0     C65750   5.147   5.848   0.248  0.2509  0.2559 -0.8104
  477MOL0     C65751   5.075   5.765   0.361  0.0201  0.7534 -0.2006
  477MOL0     C65752   5.098   5.616   0.339  0.1658 -0.7842  0.5192
  477MOL0     C65753   5.122   5.502   0.302 -0.1665  0.0991 -0.2344
  477MOL0     C65754   5.591   5.834   0.419 -0.4556 -1.4572 -0.6509
  477MOL0     C65755   5.686   5.776   0.496  1.0468 -1.2462  0.4048
  477MOL0     C65756   5.673   5.757   0.650  0.0758 -0.1158 -1.1035
  477MOL0     H65757   6.218   5.836   0.399 -0.9075  0.3374  2.2427
  477MOL0     H65758   6.448   5.822   0.505 -0.3945 -1.1449  2.0885
  477MOL0     H65759   6.646   5.634   0.482 -4.5901 -0.9089 -2.7614
  477MOL0     H65760   6.580   5.475   0.521 -1.2224  3.2546 -2.3428
  477MOL0     H65761   6.793   5.612   0.693 -1.8342  1.9097 -0.5145
  477MOL0     H65762   6.709   5.461   0.722  2.1266 -3.2902 -2.7750
  477MOL0     H65763   6.802   5.393   0.473 -4.3673  0.4055  1.5804
  477MOL0     H65764   6.887   5.539   0.472  0.3358 -1.2806 -2.3568
  477MOL0     H65765   7.037   5.359   0.534 -1.9368 -2.4611 -0.9986
  477MOL0     H65766   7.015   5.480   0.670  3.4291 -1.5062  0.1152
  477MOL0     H65767   6.882   5.203   0.632  0.1727  2.8546 -2.2814
  477MOL0     H65768   6.862   5.306   0.764 -3.5892 -0.2936 -4.1031
  477MOL0     H65769   7.133   5.221   0.666  0.7016 -1.7906  0.6686
  477MOL0     H65770   7.094   5.315   0.816 -0.2640  0.6790 -0.3121
  477MOL0     H65771   6.957   5.040   0.777  0.4453  0.3970 -0.8144
  477MOL0     H65772   6.989   5.113   0.924 -1.5994 -2.3739  0.3875
  477MOL0     H65773   7.147   4.925   0.897  0.5924  1.2709  1.9458
  477MOL0     H65774   7.216   5.011   0.752 -2.8369 -1.2552 -0.4550
  477MOL0     H65775   7.239   5.037   1.146  1.2778 -1.7436  0.5672
  477MOL0     H65776   7.584   5.224   1.175 -1.2370 -0.5633 -2.8431
  477MOL0     H65777   7.500   5.106   1.277  1.2835 -0.0825  0.3850
  477MOL0     H65778   7.388   5.384   1.210 -0.5541 -1.6359 -2.0004
  477MOL0     H65779   7.309   5.268   1.322  1.0432 -1.4882  3.5140
  477MOL0     H65780   7.467   5.289   1.490 -2.4686  0.3064  0.7576
  477MOL0     H65781   7.585   5.377   1.389 -0.9491 -1.3975  0.1449
  477MOL0     H65782   7.335   5.489   1.503 -0.5117 -0.4267 -0.6860
  477MOL0     H65783   7.498   5.533   1.541  0.0413 -0.0976 -1.4217
  477MOL0     H65784   7.389   5.771   1.177  1.3955  0.4526 -0.2303
  477MOL0     H65785   7.274   6.018   1.105 -0.3855 -1.1392 -0.7913
  477MOL0     H65786   7.453   5.995   1.105  1.2637 -0.2960  1.6384
  477MOL0     H65787   7.374   6.133   1.186  1.3678 -0.5418 -0.1438
  477MOL0     H65788   7.252   6.425   1.514  2.1933  2.2930 -2.4236
  477MOL0     H65789   7.234   6.623   1.629 -0.8720 -3.7428 -4.0851
  477MOL0     H65790   7.502   6.718   1.992 -1.8175  0.1869 -0.0838
  477MOL0     H65791   7.555   6.770   1.828 -1.6477 -2.4313 -1.2845
  477MOL0     H65792   7.434   6.978   1.845  2.9461 -0.7376 -0.8530
  477MOL0     H65793   7.315   6.923   1.958 -0.1263  1.1690  0.2198
  477MOL0     H65794   7.627   6.970   2.001  1.1101 -0.3959  2.5581
  477MOL0     H65795   7.504   6.928   2.126 -0.5415  0.8522 -0.0363
  477MOL0     H65796   7.370   7.105   2.093 -1.8320 -3.8840 -2.8153
  477MOL0     H65797   7.482   7.175   1.964  1.9604 -0.3677  0.7443
  477MOL0     H65798   7.504   7.268   2.192 -3.1382 -3.0267  2.4752
  477MOL0     H65799   7.574   7.138   2.251  1.1364 -1.4219 -0.9947
  477MOL0     H65800   7.749   7.157   2.027  1.0695 -0.1295  1.6813
  477MOL0     H65801   7.766   7.239   2.185 -1.7026  0.9078  2.3507
  477MOL0     H65802   7.824   7.380   2.011  2.2362 -2.2731  5.7413
  477MOL0     H65803   7.674   7.420   2.110 -0.7226 -1.3491  0.3836
  477MOL0     H65804   7.540   7.378   1.910  0.9661  0.7472  1.2291
  477MOL0     H65805   7.666   7.282   1.841 -1.8946 -0.3314 -1.2527
  477MOL0     H65806   7.553   6.506   1.892  0.0074  0.0422  0.8111
  477MOL0     H65807   7.576   6.300   1.752  0.8978  1.5864  1.8509
  477MOL0     H65808   7.408   5.957   1.630  0.9095 -0.1603  0.3679
  477MOL0     H65809   7.400   5.720   1.589 -0.4331  1.0854  0.6505
  477MOL0     H65810   6.349   5.442   0.661 -4.7633 -1.7311  0.6140
  477MOL0     H65811   6.139   5.447   0.569  0.9373  0.0438 -0.1689
  477MOL0     H65812   5.918   5.754   0.244  0.2311 -0.5864 -0.3069
  477MOL0     H65813   5.736   5.847   0.112 -4.4718 -1.8557 -0.8568
  477MOL0     H65814   5.386   5.975   0.352  3.9438 -0.7242 -0.2687
  477MOL0     H65815   5.349   6.024   0.180  0.7327  0.2399 -0.1054
  477MOL0     H65816   5.326   5.762   0.342 -2.0911 -0.0396  0.9414
  477MOL0     H65817   5.328   5.753   0.169 -0.1574  0.2590 -0.7228
  477MOL0     H65818   5.125   5.954   0.267 -5.6336 -0.6111 -0.8079
  477MOL0     H65819   5.121   5.832   0.142  3.4662 -2.2637 -1.3785
  477MOL0     H65820   4.970   5.786   0.339  0.4656  2.6894 -0.6775
  477MOL0     H65821   5.104   5.797   0.461  0.8373 -1.0252  0.1768
  477MOL0     H65822   5.133   5.401   0.267  0.2138  0.1769 -0.3538
  477MOL0     H65823   5.514   5.876   0.483  1.5231 -1.3513  1.7907
  477MOL0     H65824   5.729   5.670   0.685  0.2768  0.2529 -0.4962
  477MOL0     H65825   5.717   5.848   0.692  2.7896 -1.2591 -1.2740
  477MOL0     H65826   5.570   5.760   0.686  0.8055  0.7663  1.0613
  478MOL0     O65827   8.347   8.372   8.286  0.8054 -0.2425 -0.1165
  478MOL0     C65828   8.395   8.449   8.202 -0.1095 -0.5050 -0.8290
  478MOL0     O65829   8.339   8.562   8.152 -0.4997  0.0683  0.2223
  478MOL0     C65830   8.211   8.605   8.191  0.5162  0.5367  0.5843
  478MOL0     C65831   8.185   8.740   8.175 -0.0313 -0.0157  0.8686
  478MOL0     C65832   8.058   8.792   8.207 -0.0520  0.1723  0.7873
  478MOL0     C65833   7.950   8.711   8.241  0.0088 -0.4699  0.1097
  478MOL0     O65834   7.835   8.779   8.281  0.5735  0.6007 -0.4118
  478MOL0     C65835   7.707   8.708   8.301 -0.3581  0.1130  0.0929
  478MOL0     C65836   7.591   8.791   8.264 -0.4624 -0.0459 -0.1973
  478MOL0     C65837   7.456   8.701   8.270  0.2749 -0.5747 -0.0766
  478MOL0     C65838   7.411   8.651   8.411  0.0837  0.4099 -0.3832
  478MOL0     C65839   7.367   8.756   8.508  0.1034 -1.6193  0.0011
  478MOL0     C65840   7.286   8.706   8.620 -0.3316  0.1193 -0.0192
  478MOL0     C65841   7.180   8.797   8.657  0.1179  0.1319 -0.1791
  478MOL0     C65842   7.102   8.757   8.790 -0.1724  0.2942  0.0483
  478MOL0     N65843   7.049   8.625   8.791 -0.3043  0.6054  0.3686
  478MOL0     C65844   6.922   8.597   8.768  0.5111  0.2636 -0.4841
  478MOL0     C65845   6.913   8.464   8.778  0.8696 -0.1184  0.4140
  478MOL0     C65846   6.792   8.371   8.744 -0.1017  0.4535 -0.3363
  478MOL0     C65847   6.767   8.288   8.869 -0.1249 -0.2149 -0.6561
  478MOL0     C65848   6.643   8.195   8.855 -0.1175  0.0094  1.0869
  478MOL0     C65849   6.524   8.263   8.930  0.6365  0.1059  0.2799
  478MOL0     O65850   6.405   8.182   8.917  0.7066  0.4872 -0.1550
  478MOL0     C65851   6.284   8.247   8.966 -0.2506  0.7204 -0.3362
  478MOL0     C65852   6.275   8.363   9.041 -0.4660 -0.6755  0.1672
  478MOL0     C65853   6.153   8.422   9.074 -0.2021 -0.3526  0.7242
  478MOL0     C65854   6.160   8.541   9.167 -0.3329  0.3916  0.6941
  478MOL0     C65855   6.037   8.349   9.052  0.0912  0.6041 -0.2340
  478MOL0     C65856   5.895   8.398   9.096 -0.2067 -0.2414 -0.2069
  478MOL0     O65857   5.794   8.334   9.046  0.2496 -0.2333 -0.5182
  478MOL0     C65858   5.667   8.373   9.053  0.3666  0.1052  0.5833
  478MOL0     C65859   5.564   8.274   9.072 -0.6636 -0.3869  0.0922
  478MOL0     C65860   5.426   8.316   9.082 -0.2639  1.3628 -0.2457
  478MOL0     C65861   5.388   8.449   9.051  0.0937 -0.0520  0.7538
  478MOL0     O65862   5.263   8.501   9.048 -0.2801 -0.0032  0.4974
  478MOL0     C65863   5.153   8.425   9.086 -0.4410  0.6963  0.8590
  478MOL0     C65864   5.146   8.426   9.238 -0.6061  0.4493 -0.4308
  478MOL0     C65865   5.107   8.571   9.280 -0.1261  0.0351 -1.2717
  478MOL0     C65866   5.050   8.557   9.428 -0.3306 -0.5180  0.6740
  478MOL0     C65867   5.011   8.684   9.498  0.0779 -0.3814 -0.6944
  478MOL0     C65868   5.012   8.663   9.653 -0.7515  0.2914 -0.2624
  478MOL0     C65869   5.154   8.668   9.711  0.0805  0.6336  0.5276
  478MOL0     C65870   5.166   8.592   9.850 -0.2722  0.0049 -0.1604
  478MOL0    Cl65871   5.161   8.417   9.834  0.1765  0.4219  0.4490
  478MOL0     C65872   5.490   8.534   9.023 -0.0624 -0.0063 -1.2193
  478MOL0     C65873   5.629   8.503   9.031  0.0909  0.4963  0.5418
  478MOL0     O65874   5.891   8.476   9.189  0.9666 -0.0289  0.6268
  478MOL0     C65875   6.055   8.226   8.980 -0.0938 -0.0728  1.1832
  478MOL0     C65876   6.167   8.179   8.932 -0.1419 -0.0279 -0.2843
  478MOL0     N65877   7.034   8.412   8.813  0.5248 -0.0460 -0.2348
  478MOL0     N65878   7.117   8.511   8.819  0.1159  0.0768  0.0818
  478MOL0     C65879   7.974   8.577   8.259 -0.0680  0.5675  0.7656
  478MOL0     C65880   8.101   8.519   8.231 -0.2528 -0.4490  0.4106
  478MOL0     C65881   8.514   8.401   8.125 -1.3056 -0.6412 -0.0043
  478MOL0     C65882   8.497   8.369   7.985  0.8460  1.0751 -0.5332
  478MOL0     C65883   8.603   8.318   7.922 -1.4987  0.2021 -0.4509
  478MOL0     C65884   8.723   8.283   7.984 -0.0060  0.8304  0.9159
  478MOL0     O65885   8.827   8.210   7.918  0.5432 -0.0877 -0.1749
  478MOL0     C65886   8.814   8.072   7.946 -0.6498 -0.6845 -0.1371
  478MOL0     C65887   8.866   7.975   7.835  0.5131 -0.4618 -0.1482
  478MOL0     C65888   9.011   8.003   7.781  0.4327 -0.1437 -0.0499
  478MOL0     C65889   9.119   7.944   7.869 -0.5769 -0.1648  0.1218
  478MOL0     C65890   9.260   7.981   7.831  0.1188 -0.5163 -0.3435
  478MOL0     C65891   9.381   7.998   7.834  0.0152  0.1544 -0.1579
  478MOL0     C65892   8.734   8.313   8.119 -0.5382  0.1018  0.0872
  478MOL0     C65893   8.634   8.374   8.197 -0.8710  0.0928 -0.7079
  478MOL0     C65894   8.668   8.408   8.339 -1.6456  0.3749 -0.8310
  478MOL0     H65895   8.268   8.806   8.151 -0.1340 -0.5589 -1.1629
  478MOL0     H65896   8.048   8.900   8.199  0.9070  0.2765  0.8444
  478MOL0     H65897   7.702   8.664   8.401  3.1772 -1.7738 -0.4000
  478MOL0     H65898   7.714   8.623   8.232 -0.2259 -0.2604  0.5646
  478MOL0     H65899   7.590   8.872   8.337  2.7962 -0.8323  0.8755
  478MOL0     H65900   7.586   8.829   8.161 -0.4438 -0.6304 -0.4205
  478MOL0     H65901   7.379   8.770   8.234  0.6504 -0.3709 -0.4971
  478MOL0     H65902   7.457   8.621   8.196 -0.1843 -2.2871  1.6724
  478MOL0     H65903   7.320   8.594   8.392  1.7143 -1.8193 -1.9700
  478MOL0     H65904   7.490   8.584   8.447 -2.4045 -2.9588 -0.6926
  478MOL0     H65905   7.311   8.833   8.454  3.5256  0.2006 -1.2160
  478MOL0     H65906   7.452   8.809   8.552 -0.9063 -0.5652  0.7585
  478MOL0     H65907   7.250   8.609   8.585  0.9988 -0.3989 -0.0043
  478MOL0     H65908   7.348   8.686   8.708  0.2263 -3.1811 -1.0213
  478MOL0     H65909   7.116   8.792   8.568  1.6541 -3.1303 -1.2782
  478MOL0     H65910   7.222   8.898   8.658 -1.9512  1.0480  0.1152
  478MOL0     H65911   7.171   8.773   8.874 -0.4906 -1.7993  0.7641
  478MOL0     H65912   7.024   8.832   8.808 -0.4800  0.6842 -2.5806
  478MOL0     H65913   6.836   8.658   8.745  0.0874 -0.6057 -1.2182
  478MOL0     H65914   6.809   8.308   8.656  1.1802  0.1981  0.0633
  478MOL0     H65915   6.702   8.430   8.728  0.3081  0.7229 -1.7692
  478MOL0     H65916   6.847   8.214   8.883 -0.6971 -0.7682 -0.2600
  478MOL0     H65917   6.761   8.339   8.965 -0.5224 -2.6849  0.7247
  478MOL0     H65918   6.624   8.178   8.749  1.0178  0.5730  0.7812
  478MOL0     H65919   6.654   8.098   8.905 -1.5456 -0.5826  0.3100
  478MOL0     H65920   6.551   8.293   9.032  3.3879  0.7019 -0.5296
  478MOL0     H65921   6.496   8.359   8.885 -2.5152 -0.2738  1.1842
  478MOL0     H65922   6.365   8.414   9.074 -1.5381  2.8187 -1.7792
  478MOL0     H65923   6.101   8.622   9.123  2.7805  2.7002  0.4082
  478MOL0     H65924   6.258   8.590   9.171 -0.5727  1.7515 -3.8545
  478MOL0     H65925   6.133   8.525   9.272 -1.3642 -2.7866  0.0590
  478MOL0     H65926   5.588   8.170   9.093 -0.3452 -0.2901  0.2141
  478MOL0     H65927   5.348   8.248   9.117  0.7997 -0.1536 -0.6902
  478MOL0     H65928   5.061   8.469   9.046 -0.5972 -0.8825 -0.6611
  478MOL0     H65929   5.165   8.323   9.048 -1.7676  0.1917  1.7305
  478MOL0     H65930   5.059   8.362   9.256  0.2008 -0.2354  1.2693
  478MOL0     H65931   5.230   8.395   9.301 -1.0092  0.9411  0.3783
  478MOL0     H65932   5.028   8.618   9.220 -0.3582  3.0871  1.2164
  478MOL0     H65933   5.199   8.630   9.285  1.2368 -2.0567 -0.0523
  478MOL0     H65934   5.132   8.522   9.491 -2.6083 -1.5196  3.2746
  478MOL0     H65935   4.965   8.488   9.430  1.0922 -2.4026 -0.1916
  478MOL0     H65936   5.074   8.771   9.476  0.0388 -0.2563 -0.3190
  478MOL0     H65937   4.911   8.712   9.464 -0.2245 -0.3076  0.2070
  478MOL0     H65938   4.978   8.561   9.671  2.5495 -0.7911  0.6109
  478MOL0     H65939   4.939   8.731   9.697 -0.1851  1.1043 -0.5474
  478MOL0     H65940   5.194   8.769   9.727  2.1773 -0.2053  0.8567
  478MOL0     H65941   5.224   8.613   9.649  0.2286  1.0141  0.3529
  478MOL0     H65942   5.081   8.618   9.914 -1.0302 -1.5507 -0.4909
  478MOL0     H65943   5.260   8.616   9.901 -0.5195 -0.3999  0.4928
  478MOL0     H65944   5.463   8.636   9.000 -1.8244  0.1709  1.1918
  478MOL0     H65945   5.703   8.581   9.018  2.3010 -1.9396 -3.5264
  478MOL0     H65946   5.967   8.171   8.949 -0.0807  0.6895 -0.2933
  478MOL0     H65947   6.173   8.085   8.878 -0.7177  0.4756 -1.2551
  478MOL0     H65948   7.897   8.508   8.292  1.5545 -0.5905  2.3681
  478MOL0     H65949   8.126   8.416   8.257 -1.4417 -1.0732 -0.7921
  478MOL0     H65950   8.401   8.373   7.936 -0.1996 -2.3358  0.9240
  478MOL0     H65951   8.587   8.304   7.816 -1.1179  1.7418 -0.7289
  478MOL0     H65952   8.863   8.060   8.043 -0.3219  2.7613  0.2434
  478MOL0     H65953   8.706   8.053   7.942 -0.8536  0.5334 -1.4106
  478MOL0     H65954   8.804   7.976   7.745  2.1170 -0.8410 -1.3058
  478MOL0     H65955   8.857   7.874   7.877  1.9120 -0.7591 -0.5178
  478MOL0     H65956   9.004   7.954   7.683  2.2244  0.1734 -0.3695
  478MOL0     H65957   9.019   8.110   7.760  0.2014 -0.1996 -0.4447
  478MOL0     H65958   9.104   7.838   7.890  0.6499 -0.1627  1.1449
  478MOL0     H65959   9.108   7.978   7.972  2.1339  1.0380  0.1158
  478MOL0     H65960   9.487   7.980   7.837 -0.3835 -2.5102  0.3940
  478MOL0     H65961   8.830   8.281   8.160 -0.1705  0.3838 -0.5493
  478MOL0     H65962   8.585   8.442   8.402  2.7538  2.8544  4.4499
  478MOL0     H65963   8.710   8.316   8.380  1.2858  1.8495 -0.2562
  478MOL0     H65964   8.751   8.478   8.350 -1.2122 -0.0906 -1.1191
  479MOL0     O65965   6.518   8.848   4.177  0.8078  0.5509  0.0025
  479MOL0     C65966   6.541   8.966   4.174  0.4107 -0.9300  0.7552
  479MOL0     O65967   6.643   9.027   4.099  0.4450 -0.2756  0.0772
  479MOL0     C65968   6.735   8.944   4.027  1.1166 -1.0853 -0.0220
  479MOL0     C65969   6.695   8.875   3.918 -0.0287  0.2207  0.2996
  479MOL0     C65970   6.796   8.801   3.854 -0.2694  0.0191  0.7430
  479MOL0     C65971   6.929   8.784   3.894  0.0283  0.8450 -0.5170
  479MOL0     O65972   7.018   8.708   3.824  0.1363  0.4873  0.2943
  479MOL0     C65973   6.999   8.700   3.674 -0.9397 -0.5428  0.0611
  479MOL0     C65974   7.116   8.625   3.611 -0.2240  0.6394 -0.4410
  479MOL0     C65975   7.123   8.643   3.456 -0.2568  0.0947 -0.2319
  479MOL0     C65976   7.218   8.547   3.385 -0.5618 -0.0118  0.5975
  479MOL0     C65977   7.234   8.603   3.248  0.4601  0.3227 -0.8033
  479MOL0     C65978   7.323   8.529   3.151  0.1351 -0.4255 -1.4712
  479MOL0     C65979   7.415   8.621   3.074  0.4208  0.4145  0.7007
  479MOL0     C65980   7.333   8.698   2.966 -0.2373 -0.4523  0.8562
  479MOL0     N65981   7.428   8.779   2.887  0.5656 -0.0669  0.7124
  479MOL0     C65982   7.414   8.913   2.850  0.3050 -0.3564 -0.5098
  479MOL0     C65983   7.509   8.927   2.750  0.7286  0.8853  0.8816
  479MOL0     C65984   7.557   9.057   2.691  1.0664 -0.7774  0.9976
  479MOL0     C65985   7.436   9.121   2.622  0.5988  0.0912  0.2983
  479MOL0     C65986   7.478   9.222   2.496 -0.2061 -0.0742 -0.3447
  479MOL0     C65987   7.346   9.243   2.414  0.9075 -0.3533  0.1813
  479MOL0     O65988   7.263   9.318   2.502 -0.2031 -0.5606 -0.3001
  479MOL0     C65989   7.270   9.452   2.482 -0.8397  0.0460  0.4463
  479MOL0     C65990   7.217   9.531   2.581 -0.3938  0.2136 -0.6800
  479MOL0     C65991   7.201   9.670   2.572  0.2331  0.1358 -0.1417
  479MOL0     C65992   7.166   9.749   2.687 -0.1563  0.3805 -0.6541
  479MOL0     C65993   7.224   9.737   2.454  0.5617 -0.2485 -0.1637
  479MOL0     C65994   7.178   9.876   2.419  0.5882 -0.4116 -0.1208
  479MOL0     O65995   7.260   9.958   2.350 -0.1191 -0.5600  0.6428
  479MOL0     C65996   7.231  10.092   2.319 -0.2777 -0.1943  0.1922
  479MOL0     C65997   7.113  10.159   2.306  0.5382 -0.2324 -0.4297
  479MOL0     C65998   7.102  10.300   2.292  0.4953 -0.4881  0.5444
  479MOL0     C65999   7.211  10.386   2.284 -0.7611  0.5083  0.3983
  479MOL0     O66000   7.201  10.520   2.283 -0.6742 -0.3512 -0.1332
  479MOL0     C66001   7.302  10.601   2.342 -0.9046  0.3221  0.1410
  479MOL0     C66002   7.253  10.668   2.472 -0.2308 -0.4966 -0.0817
  479MOL0     C66003   7.358  10.767   2.529  0.2963  0.8084 -0.0066
  479MOL0     C66004   7.315  10.830   2.659 -0.0982  0.7295 -0.1953
  479MOL0     C66005   7.220  10.937   2.640  0.2947  0.4638 -0.0849
  479MOL0     C66006   7.226  11.031   2.764 -0.6804  0.2163 -0.2238
  479MOL0     C66007   7.118  11.135   2.772 -0.3600 -0.2074 -1.0010
  479MOL0     C66008   7.155  11.282   2.781 -0.2677  0.0578  0.5774
  479MOL0    Cl66009   7.246  11.306   2.936 -0.0272  0.0766  0.0965
  479MOL0     C66010   7.327  10.314   2.263 -0.2984  0.6810 -0.1926
  479MOL0     C66011   7.341  10.175   2.289  0.9568 -0.7536 -0.3517
  479MOL0     O66012   7.070   9.918   2.468 -1.3972  0.6288 -0.2454
  479MOL0     C66013   7.291   9.664   2.356  0.4502  0.5192  0.4851
  479MOL0     C66014   7.317   9.523   2.370  0.1149 -0.0010 -0.2226
  479MOL0     N66015   7.581   8.804   2.733 -0.2423 -0.7276  0.6433
  479MOL0     N66016   7.528   8.723   2.812  0.4958  0.4608 -0.5336
  479MOL0     C66017   6.963   8.859   4.009 -0.0826  0.4632 -0.2057
  479MOL0     C66018   6.868   8.939   4.077  0.9256  2.2780  0.4995
  479MOL0     C66019   6.468   9.048   4.270 -0.0326 -0.5588 -0.0855
  479MOL0     C66020   6.416   8.986   4.384  0.0221 -0.2114  0.0229
  479MOL0     C66021   6.336   9.048   4.479  0.0681  0.4010  0.2343
  479MOL0     C66022   6.317   9.188   4.462  0.2153  0.0826 -0.6926
  479MOL0     O66023   6.241   9.263   4.552 -0.6330 -0.1661 -0.6928
  479MOL0     C66024   6.214   9.229   4.691 -0.8573  0.4101  0.3390
  479MOL0     C66025   6.130   9.339   4.746 -0.2473  0.3730  0.5946
  479MOL0     C66026   6.084   9.301   4.885  0.3992  0.2153  0.5100
  479MOL0     C66027   5.941   9.363   4.905 -1.4187 -0.5190 -0.5783
  479MOL0     C66028   5.941   9.515   4.901  0.0929  0.8372  1.0688
  479MOL0     C66029   5.935   9.631   4.875 -0.2567 -0.3564 -0.3323
  479MOL0     C66030   6.358   9.256   4.349  0.3494 -0.5167 -0.7984
  479MOL0     C66031   6.431   9.192   4.249  0.0575  0.6645  0.9146
  479MOL0     C66032   6.486   9.263   4.134 -0.0390 -0.6931 -1.1408
  479MOL0     H66033   6.589   8.875   3.893  0.5310  0.7872 -2.3630
  479MOL0     H66034   6.767   8.752   3.761 -1.0598  0.1910  0.8963
  479MOL0     H66035   6.985   8.803   3.638 -4.1283 -0.8072  0.2750
  479MOL0     H66036   6.920   8.628   3.651  0.2313 -1.5686 -0.8580
  479MOL0     H66037   7.207   8.663   3.659  0.1876 -2.3604  1.4389
  479MOL0     H66038   7.112   8.516   3.618 -0.9746  0.1638 -5.0142
  479MOL0     H66039   7.030   8.620   3.403 -0.3511 -2.0487  0.7495
  479MOL0     H66040   7.165   8.743   3.450 -3.0852  1.3603 -0.2127
  479MOL0     H66041   7.313   8.543   3.439  0.1873  0.1230 -0.6646
  479MOL0     H66042   7.182   8.443   3.383  1.1493 -0.7025  2.4332
  479MOL0     H66043   7.288   8.694   3.276  0.3871 -0.4369  2.1181
  479MOL0     H66044   7.141   8.628   3.197  1.0881  0.5985 -1.8484
  479MOL0     H66045   7.391   8.475   3.216  2.6986  4.0229 -0.0317
  479MOL0     H66046   7.269   8.462   3.083  1.2081 -0.0839 -2.7055
  479MOL0     H66047   7.499   8.566   3.031 -0.9866  0.2945 -2.0866
  479MOL0     H66048   7.461   8.692   3.144  1.1175 -1.3861  2.1479
  479MOL0     H66049   7.280   8.627   2.901 -1.3777 -0.6884  2.0068
  479MOL0     H66050   7.258   8.764   3.011  0.2949  1.8814 -1.4320
  479MOL0     H66051   7.345   8.994   2.872 -0.1960 -0.7950 -0.4505
  479MOL0     H66052   7.636   9.039   2.617  2.2790  0.0485  2.0500
  479MOL0     H66053   7.596   9.117   2.774 -1.9327 -3.3084  4.5554
  479MOL0     H66054   7.370   9.039   2.596 -0.5120  0.2611  2.3397
  479MOL0     H66055   7.378   9.178   2.696 -0.1308  0.4704 -0.5550
  479MOL0     H66056   7.521   9.317   2.530  1.9312 -1.4211  0.9694
  479MOL0     H66057   7.548   9.170   2.430  1.5252  3.1433 -1.2367
  479MOL0     H66058   7.373   9.289   2.318 -0.7054 -1.5299 -0.8819
  479MOL0     H66059   7.283   9.156   2.396 -2.6667  2.4094 -2.0485
  479MOL0     H66060   7.186   9.463   2.660 -2.0187  0.3157 -1.1891
  479MOL0     H66061   7.224   9.842   2.685  1.9980 -0.8906 -2.8863
  479MOL0     H66062   7.199   9.699   2.778  0.6993 -1.7314 -2.0555
  479MOL0     H66063   7.060   9.773   2.701  0.1095 -0.0971  3.0511
  479MOL0     H66064   7.018  10.116   2.336 -0.3786  2.2579  0.5023
  479MOL0     H66065   7.005  10.347   2.297  0.4100 -0.7452  1.9815
  479MOL0     H66066   7.394  10.547   2.367 -1.3977 -0.9130 -0.5925
  479MOL0     H66067   7.344  10.676   2.275  1.9520 -0.9293  0.3972
  479MOL0     H66068   7.167  10.728   2.440  0.5827  0.2553 -0.9024
  479MOL0     H66069   7.244  10.592   2.550 -1.1525 -0.5515 -0.2287
  479MOL0     H66070   7.382  10.848   2.459  1.1510  0.2453 -0.3821
  479MOL0     H66071   7.454  10.716   2.542  0.5682  1.7218  1.9956
  479MOL0     H66072   7.397  10.882   2.709  0.2843  0.4250 -0.4959
  479MOL0     H66073   7.274  10.748   2.720 -0.4385  0.9153 -0.1701
  479MOL0     H66074   7.242  10.995   2.551  2.2786  1.8032  1.2108
  479MOL0     H66075   7.123  10.887   2.627  2.2370 -3.9212  0.2414
  479MOL0     H66076   7.327  11.071   2.773  0.5580 -2.6837  0.1656
  479MOL0     H66077   7.216  10.956   2.844  0.6016 -3.0841 -2.8799
  479MOL0     H66078   7.062  11.117   2.864 -0.1112  1.2527 -0.5455
  479MOL0     H66079   7.047  11.131   2.688 -0.3478  1.4524 -1.1190
  479MOL0     H66080   7.062  11.336   2.801  0.4865  0.4307  3.6621
  479MOL0     H66081   7.215  11.316   2.696 -0.8384  2.4748  1.0872
  479MOL0     H66082   7.412  10.376   2.235 -0.4834 -0.8096 -4.7587
  479MOL0     H66083   7.444  10.140   2.288  1.8576  1.6124  0.7788
  479MOL0     H66084   7.311   9.711   2.260  0.8312  0.4178  0.5128
  479MOL0     H66085   7.374   9.483   2.286  1.2430  1.5577 -0.2434
  479MOL0     H66086   7.067   8.864   4.040  0.5776 -1.8891 -1.8097
  479MOL0     H66087   6.890   9.000   4.164 -1.6305  0.9211  2.2182
  479MOL0     H66088   6.437   8.882   4.408 -2.6123 -0.5433  1.2225
  479MOL0     H66089   6.304   8.991   4.565 -0.3954  1.1272  0.5543
  479MOL0     H66090   6.169   9.131   4.707 -0.5547  0.6365  2.9202
  479MOL0     H66091   6.310   9.214   4.742 -0.3874 -0.5265 -0.7535
  479MOL0     H66092   6.043   9.339   4.679  2.1818 -1.1761 -2.8192
  479MOL0     H66093   6.181   9.435   4.749  1.9379 -0.6889 -0.4220
  479MOL0     H66094   6.083   9.192   4.896  2.7093  0.0241 -0.5437
  479MOL0     H66095   6.154   9.348   4.956  0.5681 -1.4573  1.5218
  479MOL0     H66096   5.923   9.330   5.007  2.1312 -1.9494 -0.2505
  479MOL0     H66097   5.881   9.326   4.821 -1.1767 -1.8701 -0.1828
  479MOL0     H66098   5.901   9.730   4.851 -1.7589 -0.0198  2.6310
  479MOL0     H66099   6.347   9.362   4.326  1.2030  0.0395  1.1369
  479MOL0     H66100   6.593   9.262   4.157  0.1388  3.3001 -0.9666
  479MOL0     H66101   6.461   9.224   4.035  2.5953 -0.4199 -1.9789
  479MOL0     H66102   6.447   9.366   4.130 -0.9452 -0.8924  1.0024
  480MOL0     O66103   5.817   0.668   6.502  0.3948 -0.3761  0.0246
  480MOL0     C66104   5.798   0.669   6.623 -0.0112  0.6257 -0.5461
  480MOL0     O66105   5.756   0.778   6.691  0.2649  0.0647 -0.1875
  480MOL0     C66106   5.751   0.899   6.632  0.6514  0.3409 -0.3805
  480MOL0     C66107   5.626   0.956   6.618 -0.3955 -0.9879 -0.1657
  480MOL0     C66108   5.615   1.088   6.576  0.2218 -0.0608  0.0547
  480MOL0     C66109   5.724   1.157   6.529  1.0264 -0.0669 -1.3453
  480MOL0     O66110   5.700   1.284   6.482  0.0981  0.3105 -0.5515
  480MOL0     C66111   5.811   1.366   6.436 -0.4341 -0.4689  0.6018
  480MOL0     C66112   5.823   1.496   6.509 -0.1620 -0.0091 -0.3183
  480MOL0     C66113   5.704   1.583   6.459 -0.9183  0.6968  0.5440
  480MOL0     C66114   5.697   1.716   6.530  0.3776  0.8131  0.3246
  480MOL0     C66115   5.569   1.785   6.492 -0.8560  0.3586  0.3707
  480MOL0     C66116   5.564   1.919   6.572  0.2983 -0.3636  0.0803
  480MOL0     C66117   5.521   1.917   6.711 -0.0844 -0.9312 -1.0246
  480MOL0     C66118   5.500   2.061   6.773  0.0029 -0.3208 -0.1819
  480MOL0     N66119   5.466   2.046   6.913 -0.1518  0.3356 -0.4761
  480MOL0     C66120   5.383   1.960   6.977  0.9640  0.5285  0.3203
  480MOL0     C66121   5.380   1.992   7.111 -0.6850  0.2703  0.2281
  480MOL0     C66122   5.295   1.933   7.224  0.5682 -0.5182 -0.7567
  480MOL0     C66123   5.371   1.918   7.363  0.0604  0.3431 -0.7326
  480MOL0     C66124   5.279   1.836   7.463 -0.1665  0.0596  0.4882
  480MOL0     C66125   5.265   1.696   7.414 -0.3609  0.6973  0.5926
  480MOL0     O66126   5.170   1.629   7.492  0.2562  0.1177  0.4764
  480MOL0     C66127   5.131   1.500   7.441 -1.1540 -0.4015 -0.7439
  480MOL0     C66128   5.198   1.436   7.331  0.2105  0.3606  0.0139
  480MOL0     C66129   5.166   1.300   7.298  1.2195 -0.3352 -0.2757
  480MOL0     C66130   5.240   1.264   7.163  0.3809 -0.0787  0.1202
  480MOL0     C66131   5.075   1.221   7.382  0.0133 -0.0364 -0.0184
  480MOL0     C66132   5.054   1.074   7.369 -0.5148 -0.6780 -0.1157
  480MOL0     O66133   4.928   1.030   7.400 -0.3529 -0.8224 -0.1770
  480MOL0     C66134   4.887   0.904   7.360  0.0765  0.3732  0.1721
  480MOL0     C66135   4.929   0.829   7.246 -0.3149 -0.4175  0.5845
  480MOL0     C66136   4.869   0.703   7.220  0.3201  0.1317 -0.1842
  480MOL0     C66137   4.758   0.665   7.285 -0.4052 -0.7544  0.0052
  480MOL0     O66138   4.692   0.544   7.254 -0.0227  0.2409 -0.3471
  480MOL0     C66139   4.665   0.509   7.118 -1.0665  0.3133 -0.1692
  480MOL0     C66140   4.573   0.393   7.095 -0.1914 -0.2465 -0.5297
  480MOL0     C66141   4.591   0.271   7.191 -0.5175 -1.2999  0.4944
  480MOL0     C66142   4.504   0.151   7.153 -0.2094 -0.1847 -0.2610
  480MOL0     C66143   4.540   0.033   7.244 -1.2793 -0.3044 -0.0267
  480MOL0     C66144   4.462  -0.104   7.211  0.1602 -0.2064 -0.6749
  480MOL0     C66145   4.477  -0.204   7.333 -0.7816  0.1406  0.3058
  480MOL0     C66146   4.615  -0.225   7.375  0.5329 -0.1508 -0.5944
  480MOL0    Cl66147   4.624  -0.371   7.475 -0.2746 -0.2084  0.3974
  480MOL0     C66148   4.707   0.745   7.392  0.9145  0.8015 -0.2592
  480MOL0     C66149   4.774   0.862   7.434  0.4556 -0.1459 -0.0001
  480MOL0     O66150   5.148   1.008   7.331 -0.2478 -0.2694  0.2800
  480MOL0     C66151   4.996   1.298   7.470  0.0643 -0.4208 -0.5656
  480MOL0     C66152   5.025   1.433   7.507  0.2723  0.4774  0.8773
  480MOL0     N66153   5.471   2.092   7.130  0.4533 -0.3256  0.2360
  480MOL0     N66154   5.502   2.134   7.007 -1.2407  0.0137 -0.2488
  480MOL0     C66155   5.852   1.091   6.536 -0.0966  0.0673  0.2473
  480MOL0     C66156   5.861   0.964   6.592 -0.6467 -0.6563 -0.3464
  480MOL0     C66157   5.849   0.537   6.690 -0.2594  0.1079  0.3079
  480MOL0     C66158   5.959   0.465   6.640  0.1545  1.1391  1.0843
  480MOL0     C66159   5.999   0.344   6.687 -0.2777  0.4153  0.0464
  480MOL0     C66160   5.928   0.288   6.793 -0.3456  1.1585  0.0769
  480MOL0     O66161   5.940   0.151   6.828  0.1607 -0.3769 -0.3495
  480MOL0     C66162   5.882   0.061   6.733 -0.9419 -0.2060  0.1298
  480MOL0     C66163   5.738   0.028   6.774  0.3051 -0.2660  0.1175
  480MOL0     C66164   5.716  -0.036   6.909 -0.1673 -0.7925  0.7408
  480MOL0     C66165   5.756  -0.181   6.908  0.0832  0.3482 -0.5855
  480MOL0     C66166   5.820  -0.210   7.034 -0.6506 -1.2498 -0.1585
  480MOL0     C66167   5.869  -0.240   7.143 -0.1165 -1.2249  0.3138
  480MOL0     C66168   5.821   0.354   6.842 -0.4334 -0.2108 -0.0969
  480MOL0     C66169   5.780   0.482   6.796  0.0553 -0.4607 -1.0936
  480MOL0     C66170   5.664   0.552   6.868 -0.2986 -0.1160 -0.8623
  480MOL0     H66171   5.545   0.892   6.651 -1.7683  0.7808  0.0811
  480MOL0     H66172   5.518   1.137   6.571  1.0040  2.3408  3.8695
  480MOL0     H66173   5.801   1.387   6.330  0.1007  0.2865  0.6923
  480MOL0     H66174   5.902   1.307   6.452  0.4151  0.3371 -1.0189
  480MOL0     H66175   5.818   1.476   6.617  3.1199 -1.9333 -0.3980
  480MOL0     H66176   5.921   1.540   6.492 -0.2044 -0.1026 -0.8188
  480MOL0     H66177   5.715   1.602   6.352 -0.1639 -0.2159  0.4429
  480MOL0     H66178   5.617   1.518   6.471  0.2473 -1.1580 -0.5727
  480MOL0     H66179   5.696   1.697   6.638 -2.0968 -1.7466 -0.0379
  480MOL0     H66180   5.785   1.776   6.505  0.5506  0.3863 -0.1167
  480MOL0     H66181   5.483   1.723   6.517 -1.9805  2.1894  1.2685
  480MOL0     H66182   5.564   1.813   6.387  3.8414 -1.0887 -0.4741
  480MOL0     H66183   5.664   1.963   6.573 -0.4085  1.3319  1.2714
  480MOL0     H66184   5.510   1.999   6.519  3.5475  0.7096 -1.8623
  480MOL0     H66185   5.598   1.861   6.764 -1.5498 -1.9737  0.0876
  480MOL0     H66186   5.426   1.864   6.719 -0.0067 -0.7507  3.1497
  480MOL0     H66187   5.591   2.122   6.765  1.0115 -1.8218 -0.6251
  480MOL0     H66188   5.419   2.098   6.710 -0.1494  1.3538  0.9195
  480MOL0     H66189   5.319   1.882   6.938  0.9585  1.0753 -0.8098
  480MOL0     H66190   5.252   1.841   7.184 -1.3200 -0.4162  0.8494
  480MOL0     H66191   5.212   2.003   7.240  0.0863 -1.4418  1.1565
  480MOL0     H66192   5.458   1.859   7.333 -0.9879 -0.7214 -1.7519
  480MOL0     H66193   5.385   2.016   7.410 -0.5121 -0.1909  0.5895
  480MOL0     H66194   5.321   1.841   7.564 -0.3820  0.9453  0.5430
  480MOL0     H66195   5.181   1.881   7.477 -0.6832  0.5023 -3.4101
  480MOL0     H66196   5.213   1.701   7.318 -0.5994 -0.8864  0.6199
  480MOL0     H66197   5.362   1.645   7.413  1.1270  3.2917 -1.5566
  480MOL0     H66198   5.270   1.494   7.275 -1.6151  2.2198 -0.5353
  480MOL0     H66199   5.343   1.296   7.148 -0.1624  2.1647  0.8055
  480MOL0     H66200   5.173   1.300   7.084  0.2606 -0.5578  0.0012
  480MOL0     H66201   5.239   1.155   7.150  1.2800  0.0977 -1.7169
  480MOL0     H66202   5.013   0.853   7.182 -0.1919 -0.2327  0.8111
  480MOL0     H66203   4.905   0.641   7.138  0.6014  0.1152 -0.0497
  480MOL0     H66204   4.609   0.590   7.071 -1.1531 -0.6225 -1.7235
  480MOL0     H66205   4.758   0.508   7.060 -1.0057  0.0080 -0.0664
  480MOL0     H66206   4.465   0.412   7.106  0.2661  0.9522  3.8083
  480MOL0     H66207   4.591   0.355   6.994 -0.6887 -0.8264 -0.4125
  480MOL0     H66208   4.561   0.305   7.291  1.1187  0.2383  0.5171
  480MOL0     H66209   4.698   0.249   7.188 -0.2291  0.1426 -0.6881
  480MOL0     H66210   4.518   0.130   7.046  0.8613 -2.4851  0.2714
  480MOL0     H66211   4.398   0.172   7.168 -0.5788  2.6046 -4.7205
  480MOL0     H66212   4.646   0.007   7.238 -1.1834 -0.1299  0.8278
  480MOL0     H66213   4.523   0.056   7.349  0.1915  0.3431  0.1010
  480MOL0     H66214   4.503  -0.153   7.123  5.4613  0.0964  1.2277
  480MOL0     H66215   4.355  -0.085   7.199  0.0771  0.5728  0.9355
  480MOL0     H66216   4.446  -0.299   7.288 -0.9644  0.7620 -0.9530
  480MOL0     H66217   4.407  -0.183   7.414  0.2600  0.7022  1.0723
  480MOL0     H66218   4.648  -0.149   7.447  0.7410 -0.6056 -0.2040
  480MOL0     H66219   4.678  -0.227   7.286  1.6811  0.0272  0.1940
  480MOL0     H66220   4.618   0.711   7.444  1.3301 -1.5873 -0.9956
  480MOL0     H66221   4.741   0.918   7.522 -0.7877  1.2468 -1.2982
  480MOL0     H66222   4.918   1.256   7.532 -0.4354  0.4813 -0.5637
  480MOL0     H66223   4.959   1.475   7.582 -4.3308 -0.0256 -2.4758
  480MOL0     H66224   5.948   1.131   6.504 -0.5973  0.0156 -1.4206
  480MOL0     H66225   5.959   0.917   6.602  0.9392  2.3945 -0.4576
  480MOL0     H66226   6.010   0.501   6.551  0.2717 -0.0517  0.6588
  480MOL0     H66227   6.087   0.299   6.642 -0.7835  1.4535 -2.0991
  480MOL0     H66228   5.885   0.101   6.632 -2.2210  0.9580  0.5165
  480MOL0     H66229   5.943  -0.030   6.728 -0.8223 -0.0536 -1.5677
  480MOL0     H66230   5.693  -0.036   6.697 -1.0742  1.0748 -0.2601
  480MOL0     H66231   5.668   0.112   6.776 -0.5519 -0.9563  0.0337
  480MOL0     H66232   5.785   0.018   6.974  0.3427  0.8183 -1.0565
  480MOL0     H66233   5.610  -0.016   6.932  0.1664  2.2987  0.0435
  480MOL0     H66234   5.828  -0.198   6.828  0.9946  2.8774 -0.3889
  480MOL0     H66235   5.670  -0.246   6.892 -1.2025  1.8592 -0.0828
  480MOL0     H66236   5.894  -0.258   7.245  3.8395 -1.3216 -0.5265
  480MOL0     H66237   5.769   0.314   6.928  0.8944 -3.0059 -0.4654
  480MOL0     H66238   5.618   0.474   6.930  0.6143 -1.8021 -2.2058
  480MOL0     H66239   5.707   0.619   6.943 -1.3940 -0.2976 -0.0301
  480MOL0     H66240   5.599   0.605   6.799 -2.4167 -2.0091 -0.4413
  481MOL0     O66241   1.886   8.750   9.901 -0.0463 -0.7689  0.0174
  481MOL0     C66242   1.993   8.801   9.907 -0.1513 -0.9323 -0.5304
  481MOL0     O66243   2.098   8.769   9.992 -0.5940  0.0082  1.3634
  481MOL0     C66244   2.124   8.650  10.047 -0.8894 -0.0081 -1.1180
  481MOL0     C66245   2.249   8.640  10.118 -0.0595 -0.9489 -1.1160
  481MOL0     C66246   2.286   8.519  10.183  0.5614 -0.3783 -0.3267
  481MOL0     C66247   2.204   8.404  10.171  0.3774 -0.4800 -0.5802
  481MOL0     O66248   2.237   8.278  10.210 -0.4766  0.8907  0.2787
  481MOL0     C66249   2.338   8.256  10.307  0.6818 -0.3161  0.2347
  481MOL0     C66250   2.320   8.121  10.366 -0.1689 -0.7468  0.6830
  481MOL0     C66251   2.239   8.098  10.502  1.0023 -0.0037  0.8791
  481MOL0     C66252   2.220   7.951  10.534 -0.7437 -0.7465  0.1848
  481MOL0     C66253   2.151   7.914  10.660 -0.1849  0.5076 -0.5000
  481MOL0     C66254   2.131   7.759  10.664 -1.1028 -0.5156  0.9656
  481MOL0     C66255   2.074   7.716  10.799  0.6482  0.6347  0.1046
  481MOL0     C66256   2.165   7.702  10.917  0.1805 -0.5679 -0.7726
  481MOL0     N66257   2.279   7.608  10.893 -0.8643 -0.1248 -0.3463
  481MOL0     C66258   2.398   7.610  10.963  0.1738  0.2691 -0.1283
  481MOL0     C66259   2.476   7.504  10.929  0.5250 -1.6169 -0.5726
  481MOL0     C66260   2.621   7.474  10.974 -0.5064 -0.0187 -0.4150
  481MOL0     C66261   2.653   7.474  11.124  0.3511  0.4390 -0.4409
  481MOL0     C66262   2.585   7.344  11.171  0.2147  0.8018  0.5950
  481MOL0     C66263   2.570   7.338  11.321  0.1058 -0.4596  0.6950
  481MOL0     O66264   2.505   7.461  11.351  0.8271  0.3179 -0.3534
  481MOL0     C66265   2.542   7.529  11.461  1.5576  0.2284  0.2652
  481MOL0     C66266   2.441   7.616  11.501  0.0093 -0.0912  0.8749
  481MOL0     C66267   2.457   7.703  11.602 -0.0104  1.0065 -0.5968
  481MOL0     C66268   2.344   7.805  11.617 -0.1977  0.1489  0.2760
  481MOL0     C66269   2.583   7.703  11.674 -0.5196 -0.6688 -0.4540
  481MOL0     C66270   2.618   7.803  11.781 -0.3837  0.7787 -0.1262
  481MOL0     O66271   2.583   7.928  11.767 -0.2779 -0.0711  0.0087
  481MOL0     C66272   2.672   8.015  11.827 -0.3992  0.6303 -1.0662
  481MOL0     C66273   2.795   8.036  11.775  0.3399 -0.4819 -0.8561
  481MOL0     C66274   2.887   8.117  11.840 -0.1593 -0.3917 -0.2032
  481MOL0     C66275   2.853   8.195  11.953 -0.0102  1.0525  1.1450
  481MOL0     O66276   2.932   8.282  12.022 -0.2413  0.2076 -0.0859
  481MOL0     C66277   3.070   8.262  12.004  0.3938 -0.1870 -1.0011
  481MOL0     C66278   3.141   8.354  12.099  0.5731 -0.0602 -0.0001
  481MOL0     C66279   3.162   8.480  12.008 -0.0632 -0.4326 -0.4480
  481MOL0     C66280   3.224   8.607  12.076  0.1258  0.4026 -0.6034
  481MOL0     C66281   3.171   8.734  12.004 -0.4021 -0.0186  0.5136
  481MOL0     C66282   3.272   8.846  11.979  0.3125 -0.3651 -0.5567
  481MOL0     C66283   3.292   8.937  12.105 -0.2247  1.4083  0.3756
  481MOL0     C66284   3.385   9.048  12.069  0.2818  0.8439  0.2270
  481MOL0    Cl66285   3.378   9.142  12.226 -0.7510 -0.7420  0.4784
  481MOL0     C66286   2.725   8.178  11.992  0.4071  0.5256  0.4993
  481MOL0     C66287   2.633   8.092  11.933  0.0405  0.5149 -0.3341
  481MOL0     O66288   2.695   7.762  11.869  0.5296 -0.7467  0.6143
  481MOL0     C66289   2.679   7.606  11.632  0.0681  1.1822 -1.5998
  481MOL0     C66290   2.666   7.527  11.522 -0.2619 -0.1335  0.2962
  481MOL0     N66291   2.401   7.452  10.821 -0.6320  0.1490 -0.0141
  481MOL0     N66292   2.293   7.512  10.798  0.7536  0.2203 -0.4374
  481MOL0     C66293   2.071   8.421  10.122 -0.4772 -0.4671  0.6155
  481MOL0     C66294   2.031   8.548  10.070  0.4897  0.9705 -0.5284
  481MOL0     C66295   1.998   8.940   9.858 -0.1175  0.4549 -0.7660
  481MOL0     C66296   1.895   9.040   9.852  0.3968 -1.0077 -0.5798
  481MOL0     C66297   1.909   9.180   9.818  0.9134  1.2434  0.5627
  481MOL0     C66298   2.034   9.230   9.785 -0.2017  0.3189  0.2811
  481MOL0     O66299   2.071   9.366   9.764 -0.1457 -0.0148 -0.3323
  481MOL0     C66300   1.978   9.442   9.682 -0.4582 -0.2282  0.2801
  481MOL0     C66301   2.044   9.440   9.533  0.9109  1.0280  0.1114
  481MOL0     C66302   1.976   9.512   9.421 -0.4216 -0.3385  0.2422
  481MOL0     C66303   1.829   9.459   9.406  0.3527  0.5853 -0.4044
  481MOL0     C66304   1.733   9.488   9.507  0.4630  0.6911  0.0491
  481MOL0     C66305   1.639   9.513   9.590  0.7587 -0.0962  0.2650
  481MOL0     C66306   2.141   9.140   9.790 -0.6061 -0.2755 -1.0345
  481MOL0     C66307   2.125   9.000   9.821 -0.2921  0.2703 -1.3022
  481MOL0     C66308   2.257   8.919   9.824  1.2814 -0.6165  0.0574
  481MOL0     H66309   2.314   8.726  10.107 -0.5449 -0.4244 -0.0269
  481MOL0     H66310   2.378   8.504  10.238 -1.7108 -2.4100  3.2838
  481MOL0     H66311   2.348   8.328  10.389 -3.2843 -0.9012  1.4455
  481MOL0     H66312   2.432   8.264  10.252 -0.4320  0.2030 -1.6635
  481MOL0     H66313   2.273   8.071  10.280  2.1929  0.1777 -1.2752
  481MOL0     H66314   2.421   8.079  10.369  1.6392  2.8445 -1.7454
  481MOL0     H66315   2.294   8.146  10.583  0.0665 -0.1991  1.6457
  481MOL0     H66316   2.141   8.147  10.495  0.1817 -1.7783 -1.2002
  481MOL0     H66317   2.156   7.920  10.450  0.2605  0.4189 -1.0658
  481MOL0     H66318   2.319   7.907  10.522  0.4072  1.3566  1.3753
  481MOL0     H66319   2.059   7.973  10.667  0.6880  1.7292  1.5071
  481MOL0     H66320   2.208   7.934  10.751 -0.4615 -2.6899  0.5105
  481MOL0     H66321   2.078   7.716  10.578  1.7460 -2.2445 -0.0774
  481MOL0     H66322   2.232   7.718  10.651 -0.2496  2.2359 -3.3685
  481MOL0     H66323   2.041   7.613  10.786 -0.7017  1.1238 -0.5109
  481MOL0     H66324   1.979   7.764  10.825  1.0688  1.0209  0.9753
  481MOL0     H66325   2.215   7.795  10.947  0.7946 -0.9828 -0.4960
  481MOL0     H66326   2.106   7.669  11.003  2.3373  1.2924  1.5573
  481MOL0     H66327   2.427   7.683  11.037 -0.9450  0.8377 -0.2374
  481MOL0     H66328   2.687   7.547  10.926 -0.7700  0.1696 -0.4860
  481MOL0     H66329   2.639   7.377  10.925  2.4224  0.6995 -0.9629
  481MOL0     H66330   2.762   7.464  11.128  0.3541  0.4427 -0.5251
  481MOL0     H66331   2.638   7.573  11.167  0.4436  1.3902 -2.4953
  481MOL0     H66332   2.481   7.341  11.139  0.6738  0.2413 -0.9002
  481MOL0     H66333   2.653   7.262  11.144 -0.6076  0.2834  0.0478
  481MOL0     H66334   2.507   7.253  11.347  0.4491 -0.7336  0.6453
  481MOL0     H66335   2.672   7.320  11.358 -0.5530 -1.5009  2.0744
  481MOL0     H66336   2.350   7.629  11.444  1.6502  1.4887 -1.5714
  481MOL0     H66337   2.371   7.904  11.580 -0.0018  0.9549  2.4651
  481MOL0     H66338   2.325   7.824  11.723 -1.5970  2.4553 -0.3395
  481MOL0     H66339   2.254   7.771  11.566  1.0449 -1.8305 -0.7271
  481MOL0     H66340   2.829   7.973  11.693  0.0073 -0.6398 -0.8741
  481MOL0     H66341   2.984   8.127  11.793  1.1137 -1.4385  2.0744
  481MOL0     H66342   3.096   8.158  12.029  1.9484  0.4482  0.1527
  481MOL0     H66343   3.097   8.270  11.898 -0.0866 -0.2178 -1.1287
  481MOL0     H66344   3.082   8.371  12.189 -1.8547 -2.5556 -0.9337
  481MOL0     H66345   3.242   8.319  12.122  0.2961 -3.1429 -2.5802
  481MOL0     H66346   3.062   8.506  11.972 -0.6959  0.0084  1.4816
  481MOL0     H66347   3.234   8.455  11.929  0.2038  1.3654 -0.8138
  481MOL0     H66348   3.331   8.586  12.069 -0.3071 -2.6643  0.1245
  481MOL0     H66349   3.209   8.603  12.184 -2.6250  2.2055 -0.8176
  481MOL0     H66350   3.150   8.709  11.900  0.0016  0.5101  0.2956
  481MOL0     H66351   3.074   8.774  12.034  0.2718  1.8646  0.3215
  481MOL0     H66352   3.244   8.911  11.896 -0.1104  1.9096  1.2381
  481MOL0     H66353   3.366   8.804  11.944  1.5758  0.6953  1.3734
  481MOL0     H66354   3.332   8.870  12.182 -1.1167  0.9944  0.4840
  481MOL0     H66355   3.194   8.970  12.139  0.0113  1.5482  0.9373
  481MOL0     H66356   3.335   9.103  11.989 -2.3677 -2.4694 -0.6300
  481MOL0     H66357   3.480   9.002  12.043  1.4191  1.0413  3.5490
  481MOL0     H66358   2.695   8.236  12.078  1.0856 -0.3238  1.3360
  481MOL0     H66359   2.528   8.096  11.962 -0.7420 -3.5160 -1.9192
  481MOL0     H66360   2.773   7.602  11.686 -0.0436 -3.9724 -1.2805
  481MOL0     H66361   2.752   7.467  11.494  1.0745  2.5990 -2.0294
  481MOL0     H66362   2.002   8.337  10.122  1.8725 -2.5149  0.1769
  481MOL0     H66363   1.931   8.567  10.032  1.1627  0.7665 -2.5441
  481MOL0     H66364   1.800   9.012   9.898  0.5856 -2.8702 -1.2429
  481MOL0     H66365   1.826   9.250   9.812 -0.7824 -0.7896 -3.0589
  481MOL0     H66366   1.878   9.401   9.689 -2.6889  4.2657 -0.9380
  481MOL0     H66367   1.962   9.543   9.721  0.6813 -0.4394  1.3452
  481MOL0     H66368   2.055   9.334   9.509 -1.4632  0.5512  0.8901
  481MOL0     H66369   2.140   9.492   9.544 -0.0552  3.0318 -0.4807
  481MOL0     H66370   1.978   9.621   9.430 -1.2937 -0.1826 -1.1422
  481MOL0     H66371   2.034   9.502   9.330 -1.6171  3.8306 -1.1897
  481MOL0     H66372   1.835   9.350   9.393  0.5087  0.3623  1.3040
  481MOL0     H66373   1.797   9.509   9.314 -1.5247  0.2565  0.0270
  481MOL0     H66374   1.562   9.543   9.658 -1.5871  0.0765 -2.2934
  481MOL0     H66375   2.240   9.183   9.782 -1.3671  1.8808  0.3763
  481MOL0     H66376   2.233   8.822   9.780  1.6283 -0.5113 -0.3733
  481MOL0     H66377   2.316   8.971   9.747 -1.8757  3.2201 -0.0968
  481MOL0     H66378   2.307   8.916   9.922 -3.5664  0.1459  2.8489
  482MOL0     O66379   1.223  10.674   4.368 -0.6603  0.0704  0.5243
  482MOL0     C66380   1.245  10.659   4.488  0.4133 -0.0573 -0.6266
  482MOL0     O66381   1.145  10.639   4.581  0.2882  0.1816  0.9961
  482MOL0     C66382   1.013  10.637   4.543 -0.0140 -0.2985  0.4909
  482MOL0     C66383   0.939  10.540   4.598  0.8638  1.5919  0.0899
  482MOL0     C66384   0.803  10.548   4.592  0.8521  0.6197  1.0207
  482MOL0     C66385   0.740  10.651   4.519  0.0835 -0.1059 -0.2226
  482MOL0     O66386   0.611  10.670   4.522 -0.3903  0.4842 -0.1207
  482MOL0     C66387   0.548  10.696   4.400 -0.0631  0.5082  0.5195
  482MOL0     C66388   0.420  10.610   4.397  1.6632 -0.4384  0.0926
  482MOL0     C66389   0.441  10.462   4.365 -0.2630  0.5859 -0.2393
  482MOL0     C66390   0.482  10.439   4.213 -0.0265  0.1647 -0.7490
  482MOL0     C66391   0.457  10.291   4.172  1.5842 -0.6143  0.3713
  482MOL0     C66392   0.528  10.239   4.055  0.1688  0.1832 -0.1285
  482MOL0     C66393   0.448  10.124   3.988  0.7180  0.1642 -0.1477
  482MOL0     C66394   0.345  10.182   3.886 -1.0495 -0.0553 -0.3552
  482MOL0     N66395   0.316  10.085   3.779  0.7713  0.0005 -0.1819
  482MOL0     C66396   0.387  10.050   3.659  0.1837 -0.0418 -0.2763
  482MOL0     C66397   0.314   9.947   3.603 -0.0884  0.2431  0.0968
  482MOL0     C66398   0.342   9.877   3.474 -0.8798  0.1682  0.1573
  482MOL0     C66399   0.205   9.842   3.406 -0.8013  0.1682  0.9702
  482MOL0     C66400   0.223   9.784   3.270  0.4545 -0.7998  0.0837
  482MOL0     C66401   0.195   9.886   3.157 -0.0492 -0.6441 -0.0559
  482MOL0     O66402   0.319   9.943   3.108  0.0381 -0.3740  0.0891
  482MOL0     C66403   0.365  10.050   3.169 -0.5920 -0.3932 -0.7529
  482MOL0     C66404   0.502  10.059   3.168  0.3219 -0.4367  0.3101
  482MOL0     C66405   0.566  10.156   3.253  0.3660 -0.1571  0.7563
  482MOL0     C66406   0.714  10.162   3.232  0.4186 -0.1702  0.5917
  482MOL0     C66407   0.500  10.247   3.330  0.7230  0.0301  1.2665
  482MOL0     C66408   0.568  10.350   3.415  0.0898 -0.9400 -0.0112
  482MOL0     O66409   0.659  10.305   3.491  0.0264  0.8354  0.4851
  482MOL0     C66410   0.704  10.391   3.582  0.6189 -0.0608 -0.9875
  482MOL0     C66411   0.826  10.452   3.573  1.0064  0.7198  0.2471
  482MOL0     C66412   0.874  10.546   3.663  0.3114  0.4615 -0.9103
  482MOL0     C66413   0.801  10.572   3.777 -0.2381 -1.0207 -0.6007
  482MOL0     O66414   0.850  10.653   3.876 -0.3728  0.4814 -0.3272
  482MOL0     C66415   0.977  10.720   3.885  0.1862 -0.3327  0.7347
  482MOL0     C66416   0.982  10.838   3.987  0.1925  0.7379 -0.0594
  482MOL0     C66417   1.129  10.887   3.995  0.4481  0.2697  0.3747
  482MOL0     C66418   1.177  10.936   3.864 -1.3245 -0.2709 -0.1184
  482MOL0     C66419   1.325  10.991   3.871 -0.5782  0.6092  0.1778
  482MOL0     C66420   1.412  10.916   3.772 -0.0057  0.1558  0.6355
  482MOL0     C66421   1.469  10.792   3.833  0.0258 -0.1956 -0.0817
  482MOL0     C66422   1.598  10.838   3.910 -0.0074 -0.4082  0.1476
  482MOL0    Cl66423   1.695  10.699   3.947  0.0030 -0.0813 -0.5829
  482MOL0     C66424   0.673  10.517   3.789 -0.4169 -0.1003 -0.2852
  482MOL0     C66425   0.619  10.428   3.685 -0.7786  0.2292 -1.0729
  482MOL0     O66426   0.529  10.468   3.407  0.3192  0.6512 -0.8229
  482MOL0     C66427   0.357  10.252   3.309 -0.7890  0.1406  1.4365
  482MOL0     C66428   0.291  10.157   3.229  0.4138  0.5710  0.3558
  482MOL0     N66429   0.207   9.923   3.684  0.3865 -0.4017 -0.7277
  482MOL0     N66430   0.205  10.009   3.779  0.0502 -0.3581  0.1999
  482MOL0     C66431   0.813  10.748   4.452  0.3528 -0.2328 -0.7752
  482MOL0     C66432   0.952  10.747   4.467  0.5504  0.4402  1.2486
  482MOL0     C66433   1.381  10.667   4.540  0.0725 -0.3862  0.2941
  482MOL0     C66434   1.399  10.645   4.681 -0.5034  0.3267 -0.3328
  482MOL0     C66435   1.525  10.652   4.746 -0.3692  0.2312 -1.2241
  482MOL0     C66436   1.632  10.698   4.668 -0.1812  0.0736 -0.3880
  482MOL0     O66437   1.760  10.716   4.717 -0.2723 -0.9717 -0.2150
  482MOL0     C66438   1.786  10.676   4.854 -0.4584 -1.0007 -0.9203
  482MOL0     C66439   1.804  10.519   4.882 -0.7874  0.1368 -0.4951
  482MOL0     C66440   1.895  10.455   4.784 -0.6479 -1.1875 -0.2927
  482MOL0     C66441   1.829  10.401   4.656  0.2456 -0.0887 -0.0067
  482MOL0     C66442   1.747  10.290   4.696  0.5980 -0.0588  0.3003
  482MOL0     C66443   1.671  10.214   4.741  0.3928  0.6329  0.1982
  482MOL0     C66444   1.616  10.724   4.539  0.0208 -0.4494  0.6205
  482MOL0     C66445   1.494  10.704   4.466  0.3013  0.7384 -0.4993
  482MOL0     C66446   1.513  10.700   4.316  0.1484  0.0271  0.0427
  482MOL0     H66447   0.990  10.456   4.643 -0.4450  1.8575  2.2058
  482MOL0     H66448   0.737  10.486   4.652 -0.2212 -1.6452 -2.2611
  482MOL0     H66449   0.605  10.683   4.308 -1.4022 -0.5425 -0.1974
  482MOL0     H66450   0.508  10.797   4.408 -1.2063  0.0813  0.2536
  482MOL0     H66451   0.384  10.615   4.500  1.8709  1.5377  0.1070
  482MOL0     H66452   0.349  10.673   4.343  1.7535  4.4027  4.7356
  482MOL0     H66453   0.521  10.430   4.433  0.1721  0.3662 -0.8491
  482MOL0     H66454   0.350  10.403   4.383  1.3409 -2.9653 -2.6437
  482MOL0     H66455   0.424  10.509   4.152 -3.0820  0.2855  2.0522
  482MOL0     H66456   0.586  10.471   4.199 -0.1092  0.1492 -1.4325
  482MOL0     H66457   0.351  10.295   4.148  1.2280 -1.9860  1.5925
  482MOL0     H66458   0.471  10.222   4.256 -1.0207 -4.9833 -2.3750
  482MOL0     H66459   0.559  10.323   3.993  0.7656 -0.4212 -0.6673
  482MOL0     H66460   0.621  10.187   4.081 -1.4418 -1.3749  3.0577
  482MOL0     H66461   0.394  10.068   4.064  1.7184 -0.8767 -0.1771
  482MOL0     H66462   0.528  10.068   3.938  4.4046  2.2595  2.9468
  482MOL0     H66463   0.246  10.206   3.928 -1.7631  1.5020 -2.7053
  482MOL0     H66464   0.397  10.266   3.840  2.2867 -2.6330 -1.7195
  482MOL0     H66465   0.477  10.095   3.618  3.5126 -3.5141  2.3569
  482MOL0     H66466   0.400   9.789   3.502 -2.8783 -0.8504  1.3696
  482MOL0     H66467   0.405   9.942   3.413  0.1580 -1.2493 -0.3391
  482MOL0     H66468   0.149   9.778   3.474 -3.7374  1.5288 -0.0352
  482MOL0     H66469   0.141   9.929   3.395 -0.6442  0.0872 -0.8548
  482MOL0     H66470   0.324   9.743   3.276  2.3548  3.4106  1.2652
  482MOL0     H66471   0.149   9.704   3.264 -2.0724  1.3599  0.3263
  482MOL0     H66472   0.148   9.820   3.083  0.5330 -2.9663  1.5581
  482MOL0     H66473   0.124   9.959   3.196  2.0756  1.5911 -0.0936
  482MOL0     H66474   0.564  10.004   3.097  1.6775  3.9066 -2.3008
  482MOL0     H66475   0.767  10.220   3.308  1.5743 -1.7489  1.0611
  482MOL0     H66476   0.732  10.207   3.134  2.4125 -0.6994  0.6684
  482MOL0     H66477   0.755  10.061   3.245 -1.3456 -0.9228  0.6048
  482MOL0     H66478   0.899  10.414   3.503 -0.5246 -0.6999 -0.6614
  482MOL0     H66479   0.979  10.574   3.658  0.3209  1.0952  1.3448
  482MOL0     H66480   1.062  10.655   3.908  1.2397  0.6010 -0.3573
  482MOL0     H66481   1.010  10.758   3.788  3.7616 -1.2061  1.4681
  482MOL0     H66482   0.911  10.917   3.957 -0.8385  0.1419  0.7249
  482MOL0     H66483   0.946  10.814   4.087 -1.6958  0.9236 -0.6450
  482MOL0     H66484   1.194  10.810   4.036  0.1901  0.7463  1.7189
  482MOL0     H66485   1.133  10.975   4.061  0.8324  1.3425 -1.0342
  482MOL0     H66486   1.111  11.017   3.831  1.1734  2.4346  1.0763
  482MOL0     H66487   1.181  10.862   3.783  2.6835 -0.0316 -0.3229
  482MOL0     H66488   1.305  11.094   3.840 -0.0157  0.0225 -2.3356
  482MOL0     H66489   1.372  11.007   3.969  0.2514  0.1131 -0.1394
  482MOL0     H66490   1.491  10.986   3.744  1.0897 -0.6811  1.4966
  482MOL0     H66491   1.355  10.883   3.684 -1.3465  1.4896  0.9722
  482MOL0     H66492   1.509  10.713   3.768 -0.4464 -2.3890  2.1586
  482MOL0     H66493   1.392  10.750   3.898  0.3679  1.9157  1.8011
  482MOL0     H66494   1.575  10.881   4.008  0.7283 -4.5007  2.3601
  482MOL0     H66495   1.668  10.909   3.863  2.4046 -2.8590 -0.2445
  482MOL0     H66496   0.606  10.550   3.868  0.1911 -1.5112  0.8510
  482MOL0     H66497   0.523  10.376   3.684 -0.1337 -1.0268 -0.2394
  482MOL0     H66498   0.313  10.337   3.359  1.8083  1.7219  1.2004
  482MOL0     H66499   0.183  10.163   3.218  0.1840 -2.2498  0.3937
  482MOL0     H66500   0.759  10.825   4.399 -4.2897 -1.5103  1.5246
  482MOL0     H66501   1.021  10.817   4.422  1.4828 -1.2999 -0.1425
  482MOL0     H66502   1.312  10.629   4.744  0.3659 -1.4161  0.5084
  482MOL0     H66503   1.530  10.633   4.853  0.1449  2.7121 -0.7433
  482MOL0     H66504   1.888  10.713   4.867 -0.2896 -1.3665 -1.1813
  482MOL0     H66505   1.723  10.727   4.928  0.5196 -1.6681  0.4153
  482MOL0     H66506   1.703  10.479   4.889 -0.8583  0.5002  0.6596
  482MOL0     H66507   1.847  10.518   4.982  2.2103 -0.2857 -1.6812
  482MOL0     H66508   1.965  10.529   4.744 -0.8315  0.3505  2.0207
  482MOL0     H66509   1.940  10.369   4.836 -3.4047 -2.5494  0.0316
  482MOL0     H66510   1.899  10.361   4.582 -0.7312 -0.9797 -0.4742
  482MOL0     H66511   1.773  10.477   4.602 -1.1980 -1.8862 -1.1287
  482MOL0     H66512   1.581  10.167   4.774 -0.0892 -0.3024 -2.2754
  482MOL0     H66513   1.700  10.764   4.483 -0.6707 -0.5510 -0.5325
  482MOL0     H66514   1.449  10.623   4.272  0.1974  0.5098 -0.9007
  482MOL0     H66515   1.498  10.801   4.275  0.8859  1.3697  2.8552
  482MOL0     H66516   1.614  10.673   4.287  1.3259  2.1084  1.8748
  483MOL0     O66517   5.995   5.222  10.731  0.5376  0.2909  0.2741
  483MOL0     C66518   6.004   5.343  10.732  0.1951 -0.6660 -0.1286
  483MOL0     O66519   5.905   5.429  10.736 -0.5576 -0.4046  0.5503
  483MOL0     C66520   5.795   5.388  10.809 -0.1259 -0.2904  0.4225
  483MOL0     C66521   5.697   5.299  10.779 -0.1087  0.7263 -0.1664
  483MOL0     C66522   5.592   5.270  10.865 -0.0025  0.0351 -0.5604
  483MOL0     C66523   5.596   5.323  11.000  0.3384 -0.7410 -0.7105
  483MOL0     O66524   5.489   5.302  11.080 -0.2691  0.5368  0.0373
  483MOL0     C66525   5.440   5.404  11.171  0.4935 -0.3453 -0.0039
  483MOL0     C66526   5.299   5.353  11.240  0.3142 -0.2237 -0.2980
  483MOL0     C66527   5.327   5.256  11.360  0.8343  0.8051  0.6944
  483MOL0     C66528   5.297   5.109  11.332  0.7768  0.1416  0.1120
  483MOL0     C66529   5.302   5.015  11.458 -0.8765 -0.8831 -0.3155
  483MOL0     C66530   5.445   4.977  11.500 -0.2217 -0.0660  0.3225
  483MOL0     C66531   5.450   4.863  11.606  0.2424 -0.9191 -0.5866
  483MOL0     C66532   5.587   4.803  11.636 -0.2852 -0.0222  0.7761
  483MOL0     N66533   5.652   4.864  11.753  1.1224 -0.0740 -0.2665
  483MOL0     C66534   5.778   4.838  11.797  0.8604  0.9081 -0.1275
  483MOL0     C66535   5.826   4.947  11.858  0.3898 -0.3651 -0.4976
  483MOL0     C66536   5.973   4.962  11.902 -0.0428 -0.4212 -0.2624
  483MOL0     C66537   5.978   4.956  12.049  0.5132  0.4433 -0.8094
  483MOL0     C66538   6.105   5.017  12.116 -0.8300 -0.0869 -0.4263
  483MOL0     C66539   6.091   5.005  12.277 -0.3089  0.6398 -0.5863
  483MOL0     O66540   6.089   4.864  12.302  0.6936 -0.1933 -0.2681
  483MOL0     C66541   6.000   4.824  12.403 -1.3118 -0.2512  0.9465
  483MOL0     C66542   5.932   4.702  12.387 -0.6155 -0.8336 -0.4852
  483MOL0     C66543   5.864   4.639  12.494 -0.1142 -0.0689  0.9609
  483MOL0     C66544   5.806   4.493  12.465  0.6887 -0.4027  0.0953
  483MOL0     C66545   5.851   4.702  12.613  0.4146  0.1869 -0.1291
  483MOL0     C66546   5.773   4.651  12.733 -0.8037  0.3764 -0.5855
  483MOL0     O66547   5.817   4.708  12.854 -0.1824  0.4828 -1.1306
  483MOL0     C66548   5.732   4.696  12.962  0.0684 -0.3202  0.5182
  483MOL0     C66549   5.603   4.747  12.959 -0.7368  0.2057  0.2936
  483MOL0     C66550   5.523   4.739  13.082  0.1270  0.1632  0.7159
  483MOL0     C66551   5.569   4.659  13.186  0.7248  0.6608 -0.2359
  483MOL0     O66552   5.503   4.644  13.304  0.4949  0.6473 -0.3633
  483MOL0     C66553   5.386   4.726  13.338  1.6494  1.1394  0.2372
  483MOL0     C66554   5.368   4.729  13.487  0.6278  0.4950 -0.1794
  483MOL0     C66555   5.441   4.837  13.545  1.1596 -0.8021  0.5747
  483MOL0     C66556   5.468   4.812  13.685  0.4343 -1.3543  0.2368
  483MOL0     C66557   5.589   4.700  13.705 -0.7291  0.0442  0.2590
  483MOL0     C66558   5.610   4.672  13.846 -0.2505  0.1948  0.5867
  483MOL0     C66559   5.677   4.780  13.931 -0.7963 -0.3006  0.1928
  483MOL0     C66560   5.687   4.715  14.074 -0.2257 -0.4428  0.0419
  483MOL0    Cl66561   5.826   4.785  14.167 -0.2349 -0.3238 -0.3336
  483MOL0     C66562   5.703   4.610  13.191 -1.3353 -0.0379  0.7000
  483MOL0     C66563   5.777   4.623  13.071  0.0887  0.2223 -1.0641
  483MOL0     O66564   5.686   4.568  12.723  0.0958 -0.2654  0.1667
  483MOL0     C66565   5.908   4.831  12.632  0.3033  0.4805  0.1972
  483MOL0     C66566   5.990   4.892  12.527 -0.4936 -0.4565  0.1739
  483MOL0     N66567   5.718   5.030  11.866 -0.8049  0.0090  0.3264
  483MOL0     N66568   5.608   4.981  11.811 -0.0991  0.1421  0.0885
  483MOL0     C66569   5.692   5.416  11.025  0.4691 -1.0110 -0.5862
  483MOL0     C66570   5.790   5.455  10.935 -0.1618  0.4526 -0.4740
  483MOL0     C66571   6.135   5.407  10.742 -1.2085  0.8590  0.3473
  483MOL0     C66572   6.141   5.551  10.727  0.7817  1.2713  0.1148
  483MOL0     C66573   6.259   5.624  10.743  0.3872  0.4722  0.3838
  483MOL0     C66574   6.370   5.542  10.778 -0.0156  0.3379 -0.6746
  483MOL0     O66575   6.499   5.597  10.780  0.5493  0.2305  0.6305
  483MOL0     C66576   6.582   5.586  10.662 -0.3919 -0.3014 -0.0794
  483MOL0     C66577   6.720   5.532  10.707 -0.9021 -0.6914 -0.0272
  483MOL0     C66578   6.791   5.635  10.806  0.3720  0.1045 -0.6191
  483MOL0     C66579   6.916   5.573  10.874  0.3746 -0.5046 -0.7491
  483MOL0     C66580   7.023   5.562  10.775 -0.0898  0.4094 -0.0480
  483MOL0     C66581   7.105   5.568  10.691 -0.2175 -0.6864  0.8300
  483MOL0     C66582   6.373   5.404  10.789  0.2107 -0.0747  0.2440
  483MOL0     C66583   6.255   5.340  10.767 -0.7093 -0.0782 -0.6040
  483MOL0     C66584   6.262   5.193  10.772  0.1122  1.0382  0.2162
  483MOL0     H66585   5.692   5.239  10.688  0.5186  0.2382  0.1196
  483MOL0     H66586   5.516   5.201  10.829  1.1813 -2.8879  2.2032
  483MOL0     H66587   5.425   5.493  11.108 -1.3767 -0.4908  0.1615
  483MOL0     H66588   5.508   5.427  11.253  0.6636 -3.1965  0.7705
  483MOL0     H66589   5.257   5.440  11.292  1.1708 -0.5094  0.9102
  483MOL0     H66590   5.236   5.314  11.160  1.6454 -1.8624 -0.5845
  483MOL0     H66591   5.430   5.267  11.394  0.4650  0.0934  2.1380
  483MOL0     H66592   5.263   5.284  11.445  2.0076 -1.8435  2.5984
  483MOL0     H66593   5.193   5.123  11.301  0.7074 -1.3022 -0.3522
  483MOL0     H66594   5.347   5.071  11.243  2.2468  0.6285  0.6974
  483MOL0     H66595   5.253   4.927  11.416 -0.9130 -1.0293  0.0277
  483MOL0     H66596   5.245   5.046  11.547 -1.2084  1.7103 -1.3331
  483MOL0     H66597   5.491   4.940  11.408 -1.7682  0.1435 -0.5744
  483MOL0     H66598   5.493   5.069  11.535  1.1777 -1.3414  1.9685
  483MOL0     H66599   5.384   4.784  11.567  0.4768 -1.6504  0.4533
  483MOL0     H66600   5.407   4.899  11.699  1.1701 -0.9946 -0.1205
  483MOL0     H66601   5.567   4.697  11.654  0.5158 -0.1703  0.8214
  483MOL0     H66602   5.651   4.818  11.549 -2.3526 -1.5361 -1.1240
  483MOL0     H66603   5.838   4.752  11.771 -1.7849 -1.5068  1.2650
  483MOL0     H66604   6.013   5.056  11.864 -2.3235  0.8685  0.2972
  483MOL0     H66605   6.033   4.879  11.866  2.1818  0.9293  0.1595
  483MOL0     H66606   5.896   5.017  12.088  3.2079  3.8255  0.0461
  483MOL0     H66607   5.987   4.848  12.067  3.6279  0.7044 -0.1798
  483MOL0     H66608   6.193   4.972  12.070  0.4200 -0.5803  2.2279
  483MOL0     H66609   6.118   5.123  12.095  3.0519 -0.8209 -2.5694
  483MOL0     H66610   6.180   5.049  12.322 -0.6657  0.8977 -0.1296
  483MOL0     H66611   6.007   5.066  12.313 -0.8037 -1.3882  1.9352
  483MOL0     H66612   5.943   4.633  12.304 -2.7825  0.2888 -1.7989
  483MOL0     H66613   5.871   4.454  12.387  1.4299  0.1906  0.4047
  483MOL0     H66614   5.702   4.504  12.431  1.3801 -1.7522 -2.8176
  483MOL0     H66615   5.816   4.423  12.548  2.2282 -0.7860 -0.3864
  483MOL0     H66616   5.582   4.812  12.875  0.1112 -1.9015 -1.6541
  483MOL0     H66617   5.435   4.801  13.091  0.8307  1.0218  2.2404
  483MOL0     H66618   5.391   4.827  13.297 -1.2109  0.4618 -2.0997
  483MOL0     H66619   5.294   4.680  13.301  1.7131  0.2484  1.1475
  483MOL0     H66620   5.260   4.741  13.503  0.1485 -2.9460 -0.1313
  483MOL0     H66621   5.386   4.630  13.530 -2.0947 -1.4085 -2.9874
  483MOL0     H66622   5.371   4.921  13.541 -1.9498 -3.1651  0.2989
  483MOL0     H66623   5.541   4.845  13.503  0.1037 -1.8381 -2.4492
  483MOL0     H66624   5.374   4.782  13.733  0.0082  0.3862  0.5840
  483MOL0     H66625   5.506   4.910  13.715 -1.0900 -0.1843 -1.4433
  483MOL0     H66626   5.580   4.607  13.648  0.9346 -0.2972  0.5073
  483MOL0     H66627   5.679   4.753  13.674 -0.7803  0.9713  1.6148
  483MOL0     H66628   5.676   4.585  13.855  1.6929  1.5342  0.0454
  483MOL0     H66629   5.518   4.641  13.896 -0.2502 -0.1668  0.3689
  483MOL0     H66630   5.621   4.873  13.929  0.5637  0.5481 -0.4403
  483MOL0     H66631   5.778   4.789  13.889 -0.0137 -1.4110  1.7412
  483MOL0     H66632   5.693   4.606  14.078 -3.6175 -0.7451  0.0866
  483MOL0     H66633   5.603   4.735  14.141 -0.0621 -0.6079  0.2952
  483MOL0     H66634   5.737   4.560  13.281 -0.6959 -0.9696 -0.0355
  483MOL0     H66635   5.873   4.577  13.088  0.3095  0.5933 -1.3014
  483MOL0     H66636   5.895   4.885  12.725 -0.9489 -0.3960  0.5579
  483MOL0     H66637   6.050   4.982  12.542  2.9528 -1.9841 -2.7966
  483MOL0     H66638   5.687   5.468  11.120 -1.9040 -2.5684  0.2358
  483MOL0     H66639   5.865   5.531  10.956  0.7512  0.2949 -2.7906
  483MOL0     H66640   6.050   5.608  10.705  0.5807 -0.0406 -3.0344
  483MOL0     H66641   6.272   5.732  10.747  2.7709  0.2366  0.2503
  483MOL0     H66642   6.540   5.515  10.590 -0.8494  1.1102 -1.2506
  483MOL0     H66643   6.592   5.683  10.613  1.3951 -0.2556  0.2844
  483MOL0     H66644   6.782   5.528  10.617  0.2789 -3.5392  0.8288
  483MOL0     H66645   6.702   5.434  10.751  1.9690 -1.5420 -0.5621
  483MOL0     H66646   6.815   5.726  10.749 -2.3461  1.1973 -0.1832
  483MOL0     H66647   6.718   5.678  10.875  1.6143 -0.5105  1.1453
  483MOL0     H66648   6.884   5.480  10.922 -2.7440  0.2905 -1.0333
  483MOL0     H66649   6.952   5.653  10.939 -1.6108  1.4830 -1.9388
  483MOL0     H66650   7.187   5.572  10.622  0.1287 -0.5559  1.2467
  483MOL0     H66651   6.464   5.350  10.815  1.2350  1.9436  1.1032
  483MOL0     H66652   6.210   5.134  10.697  1.2817 -1.2473  1.0949
  483MOL0     H66653   6.365   5.157  10.775 -0.2387 -0.0685  3.7549
  483MOL0     H66654   6.219   5.163  10.868 -1.4651  0.8366 -0.5350
  484MOL0     O66655   0.391   3.287  10.183  0.7841  0.3528  0.4622
  484MOL0     C66656   0.309   3.321  10.097  0.2618 -0.3570  0.1944
  484MOL0     O66657   0.291   3.456  10.065 -0.6761  0.1839 -0.5352
  484MOL0     C66658   0.404   3.533  10.093 -0.1676 -0.3803  0.3739
  484MOL0     C66659   0.527   3.493  10.033 -0.7413  0.7317  0.5809
  484MOL0     C66660   0.643   3.580  10.037  0.0321  0.2812 -0.4293
  484MOL0     C66661   0.641   3.703  10.107 -0.4449 -0.1370  0.0026
  484MOL0     O66662   0.752   3.779  10.116  0.3838 -0.2718 -0.6031
  484MOL0     C66663   0.799   3.782  10.256 -0.0536 -1.2818 -0.4516
  484MOL0     C66664   0.825   3.928  10.289  0.1631  0.4339  0.1805
  484MOL0     C66665   0.870   3.940  10.435 -0.0581  0.0185  0.7935
  484MOL0     C66666   0.886   4.089  10.489  0.5107  0.0725 -0.2076
  484MOL0     C66667   0.751   4.154  10.503  0.8112 -0.3261  0.9220
  484MOL0     C66668   0.755   4.300  10.563 -0.3681 -0.7734 -0.0609
  484MOL0     C66669   0.606   4.338  10.609 -0.7279 -0.1291 -0.5995
  484MOL0     C66670   0.536   4.424  10.508  0.7543  0.3028  0.3173
  484MOL0     N66671   0.392   4.413  10.535 -0.6481  0.5386  0.0420
  484MOL0     C66672   0.303   4.351  10.446  0.1994 -0.0349 -0.4022
  484MOL0     C66673   0.175   4.388  10.472 -0.3116 -0.1182 -0.3703
  484MOL0     C66674   0.061   4.360  10.379 -0.3706  0.4784  0.3312
  484MOL0     C66675  -0.028   4.245  10.427 -0.1342 -0.7450 -0.5044
  484MOL0     C66676  -0.117   4.190  10.325  0.3788  1.3929  0.0296
  484MOL0     C66677  -0.225   4.081  10.375 -0.1312  0.2756 -0.4591
  484MOL0     O66678  -0.288   4.117  10.506 -0.0021  0.9730  0.4966
  484MOL0     C66679  -0.422   4.095  10.514 -0.1426 -0.3170  0.4537
  484MOL0     C66680  -0.493   3.998  10.444 -0.0492  0.4081  0.2134
  484MOL0     C66681  -0.625   3.971  10.462 -0.2946  0.0358  0.3100
  484MOL0     C66682  -0.683   3.866  10.371  0.3196 -0.0563 -0.0561
  484MOL0     C66683  -0.698   4.040  10.559  0.6916  0.3056 -0.0063
  484MOL0     C66684  -0.849   4.026  10.577 -0.5095 -0.4229  0.4683
  484MOL0     O66685  -0.889   4.088  10.699  0.0415  0.6914  0.0346
  484MOL0     C66686  -1.027   4.100  10.715  1.1390 -0.3171  0.2827
  484MOL0     C66687  -1.104   4.030  10.809 -0.6222  0.3017 -0.3720
  484MOL0     C66688  -1.234   4.057  10.841  1.4043  0.5361 -0.8110
  484MOL0     C66689  -1.303   4.168  10.787 -0.0246 -0.1793 -0.1209
  484MOL0     O66690  -1.421   4.216  10.816 -0.2614  0.0785 -0.5966
  484MOL0     C66691  -1.428   4.231  10.965  0.1493 -0.5829 -1.0191
  484MOL0     C66692  -1.555   4.288  11.013 -0.5478 -1.1632  0.9971
  484MOL0     C66693  -1.564   4.284  11.168 -0.4906  0.5537 -0.7303
  484MOL0     C66694  -1.471   4.389  11.227 -0.1470 -0.5453  0.6816
  484MOL0     C66695  -1.474   4.367  11.386 -0.6952 -0.7987 -0.4107
  484MOL0     C66696  -1.367   4.461  11.451  0.1440  0.6886 -0.4371
  484MOL0     C66697  -1.396   4.474  11.606  0.5120  0.9216  0.2325
  484MOL0     C66698  -1.281   4.552  11.672  0.6653 -0.4056  0.0668
  484MOL0    Cl66699  -1.320   4.543  11.844  0.3917 -0.1295  0.3313
  484MOL0     C66700  -1.219   4.252  10.702  0.0032 -0.4350  0.2018
  484MOL0     C66701  -1.090   4.223  10.667 -0.7592 -0.0710 -0.7440
  484MOL0     O66702  -0.923   3.977  10.494  0.5996 -0.1945 -0.0973
  484MOL0     C66703  -0.633   4.147  10.627 -1.0978  0.5976 -0.5291
  484MOL0     C66704  -0.487   4.168  10.601  0.7387  0.7453 -0.2648
  484MOL0     N66705   0.189   4.471  10.583 -0.4906  0.2635 -0.6015
  484MOL0     N66706   0.311   4.485  10.618 -0.0864  0.3414  0.1464
  484MOL0     C66707   0.520   3.749  10.164  0.0253 -0.1762 -0.6942
  484MOL0     C66708   0.403   3.664  10.155 -0.1313 -0.2282 -0.2594
  484MOL0     C66709   0.198   3.232  10.031  0.2012 -0.6148 -1.4573
  484MOL0     C66710   0.092   3.308   9.972 -0.1952  0.2483 -0.6429
  484MOL0     C66711  -0.023   3.237   9.929  0.0984  0.4187  0.8665
  484MOL0     C66712  -0.027   3.096   9.937 -0.3179  0.3884  0.3386
  484MOL0     O66713  -0.138   3.022   9.890  0.4538 -0.3561  0.0576
  484MOL0     C66714  -0.176   3.051   9.758 -0.4217 -0.1826  0.9453
  484MOL0     C66715  -0.268   2.941   9.703  0.0682 -0.3744  0.5311
  484MOL0     C66716  -0.231   2.797   9.724 -0.5582  0.2494 -0.3076
  484MOL0     C66717  -0.345   2.705   9.672  0.4868 -1.0159  0.4075
  484MOL0     C66718  -0.364   2.706   9.524  0.2268 -0.5522  0.0668
  484MOL0     C66719  -0.399   2.719   9.411  0.6418  0.9894  0.9117
  484MOL0     C66720   0.071   3.028  10.008 -0.0378 -0.8789  0.8534
  484MOL0     C66721   0.194   3.084  10.051  0.2354 -0.3779  0.2109
  484MOL0     C66722   0.289   2.998  10.127  0.7159 -0.1835 -1.0160
  484MOL0     H66723   0.550   3.394   9.993  2.0757  1.1671  0.8985
  484MOL0     H66724   0.744   3.552  10.007 -0.4808 -2.1097 -0.1636
  484MOL0     H66725   0.899   3.743  10.277  0.9392  0.4142 -1.7608
  484MOL0     H66726   0.717   3.743  10.317 -0.7295  1.6568  0.6872
  484MOL0     H66727   0.895   3.974  10.219 -0.9034  1.5232 -0.2138
  484MOL0     H66728   0.731   3.983  10.278 -1.0628 -1.8496 -1.6749
  484MOL0     H66729   0.797   3.882  10.492  0.2793 -0.5794  0.6321
  484MOL0     H66730   0.964   3.889  10.457 -0.6773 -1.1038  0.9212
  484MOL0     H66731   0.925   4.082  10.592 -1.5880 -0.6350  0.5915
  484MOL0     H66732   0.960   4.140  10.427  3.7032 -2.4868  1.1781
  484MOL0     H66733   0.689   4.093  10.569 -0.1103 -1.7795 -1.1455
  484MOL0     H66734   0.694   4.161  10.409 -0.3227 -0.9246  1.5405
  484MOL0     H66735   0.822   4.307  10.649  2.3168 -0.8298 -2.0056
  484MOL0     H66736   0.790   4.375  10.491 -0.1816  0.0205  0.8275
  484MOL0     H66737   0.605   4.386  10.707  1.6257 -3.9783  1.5768
  484MOL0     H66738   0.539   4.254  10.626 -1.2578  0.5890  1.0321
  484MOL0     H66739   0.569   4.527  10.490 -0.7014  0.6436 -0.5888
  484MOL0     H66740   0.546   4.376  10.411 -2.1899 -3.4860  1.6478
  484MOL0     H66741   0.338   4.284  10.368  1.9706  0.9834 -0.5346
  484MOL0     H66742   0.107   4.317  10.290  0.7599  0.0755  1.0902
  484MOL0     H66743   0.005   4.449  10.347 -1.2855  0.0574  0.7083
  484MOL0     H66744   0.039   4.171  10.473  2.2609 -0.0929 -2.6784
  484MOL0     H66745  -0.082   4.291  10.510 -1.1644  0.6105 -1.8825
  484MOL0     H66746  -0.171   4.273  10.280 -0.6816  0.7438  0.0791
  484MOL0     H66747  -0.059   4.138  10.248 -0.4036  0.1569  0.2417
  484MOL0     H66748  -0.283   4.075  10.283 -0.1515 -2.1679 -0.3522
  484MOL0     H66749  -0.190   3.978  10.387  2.5706  1.3482  2.2141
  484MOL0     H66750  -0.442   3.936  10.371  0.4936 -1.1076  1.8138
  484MOL0     H66751  -0.758   3.907  10.303 -0.4541 -0.0013  0.7992
  484MOL0     H66752  -0.740   3.779  10.406  1.4185  0.1329  2.4709
  484MOL0     H66753  -0.609   3.828  10.300 -0.5815 -3.3133  0.5900
  484MOL0     H66754  -1.068   3.948  10.870 -5.3204 -0.8926  1.2567
  484MOL0     H66755  -1.268   3.980  10.910  0.7536  1.2209 -0.3565
  484MOL0     H66756  -1.436   4.133  11.011 -3.7338  0.0581  0.0550
  484MOL0     H66757  -1.348   4.291  11.010  0.9853 -2.3670 -0.0404
  484MOL0     H66758  -1.571   4.390  10.978 -0.7877 -0.7261  2.3580
  484MOL0     H66759  -1.636   4.224  10.976  1.7086 -3.6893  0.0333
  484MOL0     H66760  -1.541   4.186  11.211 -3.5492 -0.3084 -0.7620
  484MOL0     H66761  -1.667   4.307  11.197 -1.0215 -2.6437  0.2603
  484MOL0     H66762  -1.511   4.484  11.191 -1.4456 -1.8655 -1.6320
  484MOL0     H66763  -1.366   4.371  11.201  0.5917  0.8132  2.5687
  484MOL0     H66764  -1.575   4.395  11.419 -2.1281 -5.5700  0.0804
  484MOL0     H66765  -1.454   4.265  11.421  1.9359  0.3304  1.7236
  484MOL0     H66766  -1.361   4.563  11.411  0.7771  1.0338  0.5064
  484MOL0     H66767  -1.275   4.407  11.428 -0.8327 -1.4560  0.4228
  484MOL0     H66768  -1.402   4.373  11.647 -0.7075  0.9079  0.0740
  484MOL0     H66769  -1.486   4.535  11.623  1.5863  2.0152  2.4507
  484MOL0     H66770  -1.263   4.657  11.647  0.2578 -0.2429  0.4431
  484MOL0     H66771  -1.186   4.501  11.652  0.9896  0.9577 -2.0950
  484MOL0     H66772  -1.261   4.337  10.651  2.3445  0.7362  0.0833
  484MOL0     H66773  -1.032   4.296  10.612 -3.3204  1.4853 -1.5745
  484MOL0     H66774  -0.660   4.198  10.719  1.4679 -0.6540  1.0519
  484MOL0     H66775  -0.426   4.234  10.662 -1.3057  1.4091  1.2068
  484MOL0     H66776   0.516   3.851  10.201  1.0472  0.0662 -1.2130
  484MOL0     H66777   0.321   3.726  10.191  2.6993  1.8534  3.3421
  484MOL0     H66778   0.088   3.415   9.956 -3.7792  0.2543 -0.4898
  484MOL0     H66779  -0.101   3.293   9.878 -0.7820 -1.5482 -0.0697
  484MOL0     H66780  -0.210   3.153   9.739  1.9097  0.2423 -1.6728
  484MOL0     H66781  -0.080   3.042   9.706  0.4451 -1.7542  2.6730
  484MOL0     H66782  -0.283   2.955   9.595  0.3819 -0.0165  0.5316
  484MOL0     H66783  -0.363   2.942   9.757  0.4436 -0.3692  1.2020
  484MOL0     H66784  -0.134   2.792   9.673  0.3982  1.1810  1.3358
  484MOL0     H66785  -0.216   2.772   9.829 -3.0390 -0.2849 -0.0129
  484MOL0     H66786  -0.439   2.739   9.716  0.0092 -0.3761 -1.0405
  484MOL0     H66787  -0.311   2.605   9.701  1.2286 -0.4089  1.6981
  484MOL0     H66788  -0.425   2.720   9.307  0.2434  3.7444  0.9576
  484MOL0     H66789   0.036   2.929  10.036 -2.6327 -0.9290 -2.0323
  484MOL0     H66790   0.279   3.052  10.222 -0.9420 -0.3920 -1.0425
  484MOL0     H66791   0.251   2.896  10.118  0.5241 -0.0781 -1.4151
  484MOL0     H66792   0.395   2.996  10.102  0.9575  1.3375 -0.2380
  485MOL0     O66793   7.188   2.015   6.984 -0.1706 -0.8846  0.1894
  485MOL0     C66794   7.195   2.023   6.859  0.1681  0.3985 -0.4545
  485MOL0     O66795   7.236   1.926   6.763  0.8719  0.0377 -0.4904
  485MOL0     C66796   7.279   1.812   6.833  0.1043  0.6542  0.3959
  485MOL0     C66797   7.195   1.695   6.838  0.0437 -0.1589 -0.2771
  485MOL0     C66798   7.231   1.577   6.913 -0.3998  0.0218  0.7549
  485MOL0     C66799   7.359   1.570   6.964 -0.0812 -1.1103 -0.6104
  485MOL0     O66800   7.403   1.456   7.029  0.0201  0.1007  0.4217
  485MOL0     C66801   7.370   1.331   6.960  1.8414 -0.4433 -0.1479
  485MOL0     C66802   7.436   1.201   7.028  0.4594 -0.0712  0.6604
  485MOL0     C66803   7.341   1.141   7.137 -0.8507 -0.1207 -0.9660
  485MOL0     C66804   7.353   0.990   7.155  1.1487 -0.0733  0.6466
  485MOL0     C66805   7.492   0.952   7.199  0.8340  1.3073  0.3524
  485MOL0     C66806   7.493   0.806   7.263  0.6866  0.8653  0.8934
  485MOL0     C66807   7.639   0.790   7.311  0.0835  0.7934 -0.7520
  485MOL0     C66808   7.641   0.656   7.380  0.5574 -1.0604 -0.1569
  485MOL0     N66809   7.677   0.554   7.282 -0.4070 -0.6314 -0.3133
  485MOL0     C66810   7.587   0.480   7.205 -0.5902  0.9975  0.3901
  485MOL0     C66811   7.656   0.374   7.150 -0.4833  0.3275 -0.8495
  485MOL0     C66812   7.599   0.267   7.068 -0.0458 -0.4174  0.1285
  485MOL0     C66813   7.700   0.166   7.010 -0.2186  0.4922  0.8500
  485MOL0     C66814   7.810   0.236   6.924  0.4238 -0.1594 -0.3574
  485MOL0     C66815   7.902   0.153   6.851  0.0135  0.4332 -0.5697
  485MOL0     O66816   7.836   0.090   6.743  0.6344  0.4532  0.2720
  485MOL0     C66817   7.912   0.040   6.643 -0.3735  0.1537 -0.0142
  485MOL0     C66818   7.844   0.003   6.525  0.6341  0.1847  0.1096
  485MOL0     C66819   7.915  -0.029   6.401  0.2379  0.4598  0.4026
  485MOL0     C66820   7.835  -0.058   6.274  0.4864 -0.2080  0.3079
  485MOL0     C66821   8.059  -0.021   6.410 -0.1270  0.0653 -0.0184
  485MOL0     C66822   8.152  -0.056   6.290  0.0378 -0.1802  0.9751
  485MOL0     O66823   8.101  -0.060   6.160  0.2541 -0.5497 -0.1676
  485MOL0     C66824   8.176  -0.094   6.057 -0.3979  0.6530 -0.0147
  485MOL0     C66825   8.140  -0.046   5.934  0.8318 -0.6884  0.8316
  485MOL0     C66826   8.216  -0.066   5.814  0.4135 -0.4555 -0.2754
  485MOL0     C66827   8.332  -0.141   5.817 -0.1572 -0.7266  0.5062
  485MOL0     O66828   8.408  -0.145   5.702  0.3797  0.8065 -0.6712
  485MOL0     C66829   8.482  -0.264   5.677  0.1198 -1.1817 -0.0290
  485MOL0     C66830   8.408  -0.361   5.576 -0.9765  0.7160  0.5253
  485MOL0     C66831   8.510  -0.481   5.543 -0.4109  0.3720 -0.0532
  485MOL0     C66832   8.454  -0.606   5.470 -0.2424  0.3177 -0.1444
  485MOL0     C66833   8.558  -0.720   5.461 -0.3144  0.7648  0.0268
  485MOL0     C66834   8.513  -0.835   5.367 -0.1496 -0.4021 -0.6161
  485MOL0     C66835   8.582  -0.968   5.407 -0.1571  0.8243 -0.4174
  485MOL0     C66836   8.582  -1.064   5.298 -0.4226 -0.3233 -0.3426
  485MOL0    Cl66837   8.428  -1.116   5.237 -0.0579  0.5750  0.2109
  485MOL0     C66838   8.372  -0.202   5.938 -0.0930 -0.5931  0.9372
  485MOL0     C66839   8.295  -0.179   6.056  0.4985  0.3221 -0.0504
  485MOL0     O66840   8.268  -0.072   6.315 -0.2162  0.0584  0.2786
  485MOL0     C66841   8.117  -0.011   6.537 -0.8766  0.1346 -0.1119
  485MOL0     C66842   8.051   0.022   6.649  0.0866 -0.2273 -0.6939
  485MOL0     N66843   7.788   0.388   7.196 -0.1629 -0.8870  0.2881
  485MOL0     N66844   7.800   0.488   7.276  0.0983 -0.2281 -0.1170
  485MOL0     C66845   7.440   1.680   6.959  0.8579  0.1523 -0.6311
  485MOL0     C66846   7.405   1.798   6.884 -0.5475 -0.0897 -0.3118
  485MOL0     C66847   7.160   2.159   6.810  0.2803  0.1696 -0.3290
  485MOL0     C66848   7.223   2.266   6.872  0.6879 -0.2778 -0.4645
  485MOL0     C66849   7.192   2.406   6.844  0.0886  0.7321  0.0188
  485MOL0     C66850   7.093   2.432   6.742 -0.3598 -0.6799  0.1388
  485MOL0     O66851   7.047   2.560   6.705  0.3467 -0.8942 -0.1878
  485MOL0     C66852   7.096   2.680   6.777 -0.6437 -0.4231 -0.7572
  485MOL0     C66853   7.207   2.760   6.710  0.4435  0.0827 -0.1316
  485MOL0     C66854   7.352   2.697   6.734 -0.7971 -0.1926  0.4251
  485MOL0     C66855   7.451   2.758   6.625  0.9154  0.2698  0.6977
  485MOL0     C66856   7.470   2.894   6.671 -0.0548 -0.8527 -0.3095
  485MOL0     C66857   7.451   3.009   6.704  0.6246  0.2867  0.4705
  485MOL0     C66858   7.034   2.323   6.681  0.1082 -0.2438 -0.6152
  485MOL0     C66859   7.067   2.190   6.708  0.6591 -0.9769  0.5992
  485MOL0     C66860   7.002   2.082   6.630 -0.5377  1.2561  0.7407
  485MOL0     H66861   7.092   1.695   6.806  0.7636 -0.3328 -2.8351
  485MOL0     H66862   7.153   1.503   6.924  0.7163 -1.7464 -2.1257
  485MOL0     H66863   7.386   1.337   6.852 -1.1547  0.4946 -0.6325
  485MOL0     H66864   7.264   1.310   6.972  2.2942 -1.7587  2.1544
  485MOL0     H66865   7.445   1.134   6.942  0.3922  0.0789  0.5354
  485MOL0     H66866   7.533   1.239   7.062  1.2897 -1.2318 -0.2952
  485MOL0     H66867   7.363   1.170   7.240 -0.9112 -1.3179 -0.6003
  485MOL0     H66868   7.240   1.166   7.103 -1.5192  0.4159  1.2790
  485MOL0     H66869   7.280   0.973   7.234  5.2951 -0.4349  4.8418
  485MOL0     H66870   7.319   0.950   7.058 -1.3682  4.9248 -0.8456
  485MOL0     H66871   7.529   1.030   7.266  3.7651  0.7485 -0.4755
  485MOL0     H66872   7.548   0.950   7.105 -1.7953  0.7878 -1.3082
  485MOL0     H66873   7.433   0.805   7.355 -0.6244 -1.3705  0.0980
  485MOL0     H66874   7.457   0.727   7.196 -2.3827  1.1048  2.0948
  485MOL0     H66875   7.659   0.871   7.381 -0.3872 -1.0052  1.5919
  485MOL0     H66876   7.706   0.791   7.224  2.6042 -2.1759  0.9688
  485MOL0     H66877   7.714   0.670   7.461 -2.3945  2.6237  2.1590
  485MOL0     H66878   7.546   0.628   7.427  1.7945 -3.1414  1.2949
  485MOL0     H66879   7.479   0.477   7.196 -0.6620  3.9561 -0.7583
  485MOL0     H66880   7.550   0.325   6.989 -1.1329 -0.2475  0.9072
  485MOL0     H66881   7.534   0.209   7.134  0.8916  0.8505  2.3181
  485MOL0     H66882   7.733   0.089   7.082 -1.9871 -2.1220 -0.9626
  485MOL0     H66883   7.635   0.098   6.954  0.7614  0.0221  0.2500
  485MOL0     H66884   7.749   0.303   6.863  0.5845 -0.2307 -0.5958
  485MOL0     H66885   7.867   0.298   6.994 -0.4912  2.4037 -1.7354
  485MOL0     H66886   7.972   0.227   6.812  0.0962  1.2995  1.1376
  485MOL0     H66887   7.948   0.083   6.921 -2.5466  0.3883  1.2008
  485MOL0     H66888   7.736   0.006   6.525  0.5548 -1.6635 -0.5324
  485MOL0     H66889   7.845   0.021   6.199 -3.7102 -0.3696 -0.6539
  485MOL0     H66890   7.727  -0.072   6.281  0.1148  2.4789  0.8578
  485MOL0     H66891   7.876  -0.149   6.230  2.0128 -1.1895  3.4589
  485MOL0     H66892   8.055   0.022   5.940  0.3841 -1.0403 -0.8429
  485MOL0     H66893   8.194  -0.011   5.723  2.5104  2.1626  0.6811
  485MOL0     H66894   8.572  -0.235   5.623 -0.6503  2.2386  0.2769
  485MOL0     H66895   8.508  -0.328   5.762  0.5625 -0.8889  0.0615
  485MOL0     H66896   8.318  -0.399   5.625 -0.8338 -0.3131  0.0175
  485MOL0     H66897   8.389  -0.315   5.478  1.9418 -0.8985 -0.9588
  485MOL0     H66898   8.558  -0.521   5.633 -1.0923 -0.7893 -0.1871
  485MOL0     H66899   8.594  -0.434   5.491 -0.6420  1.8737  0.8720
  485MOL0     H66900   8.423  -0.586   5.367 -1.6359 -3.0975 -0.5362
  485MOL0     H66901   8.364  -0.643   5.520  0.0665  0.3064  0.4044
  485MOL0     H66902   8.663  -0.697   5.441  0.1644 -2.8856 -2.7486
  485MOL0     H66903   8.554  -0.763   5.561 -3.0930  0.4245 -0.1560
  485MOL0     H66904   8.532  -0.807   5.263 -0.8652  1.3728 -0.3199
  485MOL0     H66905   8.405  -0.851   5.363 -0.2243 -0.1691  0.1961
  485MOL0     H66906   8.534  -1.022   5.489  2.9853 -0.4422  0.7566
  485MOL0     H66907   8.686  -0.946   5.434  0.2102 -0.1294 -0.9961
  485MOL0     H66908   8.631  -1.150   5.343 -1.5739 -0.1808  1.2891
  485MOL0     H66909   8.649  -1.025   5.220 -0.6676 -0.2388 -0.5124
  485MOL0     H66910   8.458  -0.268   5.945  0.4439 -0.3973 -2.4286
  485MOL0     H66911   8.319  -0.235   6.145  0.0341 -3.9971 -2.3998
  485MOL0     H66912   8.224  -0.029   6.547 -1.0647 -0.5781  0.7300
  485MOL0     H66913   8.106   0.056   6.736 -0.1699  1.3984 -1.1296
  485MOL0     H66914   7.538   1.674   7.006  0.6773 -0.9114 -0.3662
  485MOL0     H66915   7.484   1.871   6.878  0.4420 -1.1577 -0.6499
  485MOL0     H66916   7.285   2.251   6.960 -0.6746  1.2695  0.8195
  485MOL0     H66917   7.230   2.490   6.900  0.2320  2.7710 -2.9003
  485MOL0     H66918   7.016   2.754   6.765  1.5313  2.1659 -0.2194
  485MOL0     H66919   7.112   2.660   6.883 -2.7446 -0.0375 -0.3227
  485MOL0     H66920   7.199   2.861   6.751 -1.9431  0.0347 -0.3281
  485MOL0     H66921   7.198   2.773   6.602  1.0773 -1.2536 -0.3669
  485MOL0     H66922   7.399   2.708   6.832  2.3887 -1.6123 -0.7978
  485MOL0     H66923   7.346   2.589   6.718 -0.2005 -0.1070 -0.4701
  485MOL0     H66924   7.424   2.738   6.521  0.6337  0.4491  0.7361
  485MOL0     H66925   7.554   2.723   6.637  1.4743  2.0172  1.5045
  485MOL0     H66926   7.449   3.109   6.741  1.2013 -0.6138  3.1118
  485MOL0     H66927   6.951   2.345   6.615 -2.2699  0.2043  2.3215
  485MOL0     H66928   6.953   2.008   6.695 -2.4496 -0.6499 -2.6013
  485MOL0     H66929   6.929   2.112   6.555 -0.7343  0.4476  0.5974
  485MOL0     H66930   7.086   2.031   6.581 -1.3223 -1.0388  1.6408
  486MOL0     O66931   1.018   4.632   5.620 -1.1890 -1.0850  0.1381
  486MOL0     C66932   1.039   4.753   5.585 -0.6354  0.5949 -0.5623
  486MOL0     O66933   1.152   4.825   5.599 -0.1403  0.4379  0.3096
  486MOL0     C66934   1.261   4.745   5.629 -0.6782 -1.1817 -0.3022
  486MOL0     C66935   1.337   4.705   5.512 -0.9701  0.1955 -0.3407
  486MOL0     C66936   1.454   4.627   5.543 -0.0775 -0.7900  0.3935
  486MOL0     C66937   1.493   4.590   5.674 -0.4805  0.3710 -0.3394
  486MOL0     O66938   1.614   4.529   5.697 -0.5146  0.0834  0.3986
  486MOL0     C66939   1.723   4.551   5.603  0.9948 -0.1760  0.4423
  486MOL0     C66940   1.860   4.514   5.663  0.6200 -0.3738  0.7211
  486MOL0     C66941   1.972   4.515   5.565  0.1020 -0.3780  0.6762
  486MOL0     C66942   1.942   4.413   5.448  0.6266  0.0776  0.8011
  486MOL0     C66943   2.060   4.431   5.354  0.0739 -0.2317 -0.2181
  486MOL0     C66944   2.091   4.323   5.240 -0.3919 -0.4272 -0.0755
  486MOL0     C66945   2.125   4.183   5.292  0.3265  0.1113 -1.1597
  486MOL0     C66946   2.186   4.103   5.180  0.0748 -0.5361  0.0103
  486MOL0     N66947   2.146   3.957   5.192  0.1348 -0.7701 -0.7838
  486MOL0     C66948   2.065   3.898   5.097 -0.8597 -0.0082 -0.7151
  486MOL0     C66949   2.075   3.767   5.123 -1.0704 -0.6832 -0.2697
  486MOL0     C66950   2.007   3.663   5.044  0.8895  0.3264 -0.2154
  486MOL0     C66951   2.087   3.613   4.914  0.4229  0.5553  0.5526
  486MOL0     C66952   2.223   3.536   4.949  0.1826  0.2980 -0.2114
  486MOL0     C66953   2.311   3.511   4.832 -0.7548 -0.4636 -1.1650
  486MOL0     O66954   2.233   3.491   4.718 -0.2204  0.9761  0.8913
  486MOL0     C66955   2.217   3.595   4.627  0.2407  0.8541  0.8872
  486MOL0     C66956   2.320   3.683   4.585  0.3234  0.5421 -0.0057
  486MOL0     C66957   2.301   3.785   4.499 -0.0747  0.4414 -0.6600
  486MOL0     C66958   2.423   3.877   4.477 -0.1162  0.3364  0.0926
  486MOL0     C66959   2.172   3.807   4.437 -0.1556 -0.0553  0.1553
  486MOL0     C66960   2.147   3.910   4.334 -0.2432  0.1586  0.1738
  486MOL0     O66961   2.227   3.909   4.222  0.0835  0.4358 -0.1015
  486MOL0     C66962   2.208   4.006   4.120  0.4985  0.1388  0.2286
  486MOL0     C66963   2.153   4.133   4.130  1.2053 -0.6127  0.7402
  486MOL0     C66964   2.140   4.216   4.010 -1.2523  0.6406  0.1355
  486MOL0     C66965   2.188   4.161   3.893 -0.0771  0.1870  0.2290
  486MOL0     O66966   2.168   4.228   3.775  0.4918  0.9089 -0.1862
  486MOL0     C66967   2.272   4.247   3.683  0.4700 -0.4313  0.0888
  486MOL0     C66968   2.233   4.352   3.575  0.0607 -1.0832 -0.6921
  486MOL0     C66969   2.347   4.393   3.487 -0.7721  0.1067 -0.2128
  486MOL0     C66970   2.341   4.542   3.441  0.1298  0.3572  0.6061
  486MOL0     C66971   2.241   4.554   3.318  0.9198  0.2990 -0.0647
  486MOL0     C66972   2.240   4.693   3.252 -0.4108  0.9670  0.2825
  486MOL0     C66973   2.199   4.683   3.110  0.3338  0.6747 -0.8610
  486MOL0     C66974   2.155   4.808   3.034 -0.8251  0.9788 -0.6907
  486MOL0    Cl66975   2.113   4.754   2.871  0.1469  0.0033  0.1507
  486MOL0     C66976   2.237   4.034   3.883 -0.1120 -0.0826  0.1850
  486MOL0     C66977   2.255   3.961   4.003 -0.4797  0.0677 -0.0727
  486MOL0     O66978   2.043   3.980   4.347  0.1328 -0.1364  0.6181
  486MOL0     C66979   2.070   3.723   4.479  0.2356 -0.7518  1.0921
  486MOL0     C66980   2.095   3.620   4.578  0.2044 -0.8570  0.2569
  486MOL0     N66981   2.158   3.763   5.236  0.5306 -0.2860  0.1400
  486MOL0     N66982   2.196   3.873   5.284 -1.0016 -0.4882  0.0942
  486MOL0     C66983   1.418   4.629   5.780  1.0329 -1.4573 -0.4619
  486MOL0     C66984   1.299   4.708   5.756  0.0320  1.2561 -0.3500
  486MOL0     C66985   0.923   4.823   5.525  0.1081 -0.5829 -0.7150
  486MOL0     C66986   0.918   4.969   5.545  1.2516 -0.0010  0.2305
  486MOL0     C66987   0.793   5.037   5.508  0.0058 -0.0695 -0.3512
  486MOL0     C66988   0.684   4.973   5.466 -0.6505 -0.7775  0.1907
  486MOL0     O66989   0.566   5.049   5.450  0.3202 -0.7380 -0.7464
  486MOL0     C66990   0.457   4.980   5.397  0.2925 -0.1726 -0.1931
  486MOL0     C66991   0.358   5.087   5.354  0.3608  0.6724 -0.3512
  486MOL0     C66992   0.426   5.178   5.249 -0.3947 -0.1714  0.3808
  486MOL0     C66993   0.395   5.323   5.262 -0.0534  1.5372  0.5938
  486MOL0     C66994   0.250   5.330   5.242 -0.7420  0.5224  0.2850
  486MOL0     C66995   0.140   5.326   5.205  0.4235 -0.1804  0.0535
  486MOL0     C66996   0.691   4.837   5.445 -0.5541  0.0828 -0.9088
  486MOL0     C66997   0.807   4.765   5.475 -0.1683  0.8140 -0.0439
  486MOL0     C66998   0.782   4.614   5.448  0.1608 -1.0564 -0.4749
  486MOL0     H66999   1.323   4.730   5.407 -1.9712  1.9794  0.1807
  486MOL0     H67000   1.520   4.598   5.462 -1.3808 -1.1052 -0.5933
  486MOL0     H67001   1.734   4.657   5.577 -1.1440  0.2219  0.9966
  486MOL0     H67002   1.704   4.492   5.513  0.6510  2.7201 -1.5141
  486MOL0     H67003   1.879   4.585   5.743  1.3523  1.1586 -0.7534
  486MOL0     H67004   1.842   4.417   5.710 -0.0123 -0.5922  0.0507
  486MOL0     H67005   1.990   4.614   5.523 -0.2433 -0.1489  1.0685
  486MOL0     H67006   2.062   4.475   5.614 -0.7897 -0.9635  1.8861
  486MOL0     H67007   1.937   4.317   5.500  2.8345 -0.6441 -0.2337
  486MOL0     H67008   1.850   4.429   5.391  0.5940  0.5618  0.9841
  486MOL0     H67009   2.145   4.436   5.423 -0.9723 -1.3471  1.2262
  486MOL0     H67010   2.048   4.527   5.303 -2.2211 -0.8846 -1.0329
  486MOL0     H67011   2.009   4.320   5.167  1.0455 -0.4622 -1.7500
  486MOL0     H67012   2.176   4.368   5.188 -0.2439 -2.0456 -1.3214
  486MOL0     H67013   2.033   4.131   5.318  1.9308 -2.1329  0.4245
  486MOL0     H67014   2.187   4.202   5.380  1.2787  0.9766 -1.9842
  486MOL0     H67015   2.147   4.131   5.081  0.7570 -3.6734 -1.2811
  486MOL0     H67016   2.293   4.127   5.178 -0.3362  1.5491  0.5977
  486MOL0     H67017   2.003   3.942   5.019  1.6009 -1.6852 -3.8896
  486MOL0     H67018   1.917   3.705   4.998  0.3925 -2.3538 -1.9419
  486MOL0     H67019   1.983   3.572   5.100 -2.5902 -0.3566 -2.5326
  486MOL0     H67020   2.025   3.559   4.842 -0.1369  1.1287  0.5892
  486MOL0     H67021   2.107   3.708   4.864 -2.3684 -1.0077 -4.1391
  486MOL0     H67022   2.279   3.576   5.034  0.3853 -1.1773  0.3680
  486MOL0     H67023   2.184   3.440   4.985 -0.3352  0.1784 -1.0573
  486MOL0     H67024   2.372   3.601   4.823 -0.7516  0.1572  2.9966
  486MOL0     H67025   2.385   3.432   4.853  2.8343  3.6556  4.9729
  486MOL0     H67026   2.421   3.659   4.617  0.7094 -1.2365 -2.3155
  486MOL0     H67027   2.448   3.908   4.579 -2.4374  2.1352  0.1942
  486MOL0     H67028   2.405   3.970   4.422  2.5938  0.4338 -0.7752
  486MOL0     H67029   2.490   3.812   4.421 -1.4545 -0.8826 -0.1423
  486MOL0     H67030   2.108   4.179   4.217 -0.2587 -2.1982  0.8814
  486MOL0     H67031   2.120   4.322   4.022  2.0667  1.4186 -0.0394
  486MOL0     H67032   2.353   4.294   3.739 -0.9367  1.2528  0.7961
  486MOL0     H67033   2.310   4.155   3.638  2.7927  1.1376 -1.4198
  486MOL0     H67034   2.143   4.333   3.515 -0.9235  2.2559 -0.4874
  486MOL0     H67035   2.197   4.437   3.634  0.4338 -1.0404 -0.5229
  486MOL0     H67036   2.349   4.328   3.399  1.8924  0.6237 -0.6207
  486MOL0     H67037   2.440   4.393   3.543  0.8248  3.1119 -2.5895
  486MOL0     H67038   2.444   4.571   3.419  1.1479 -1.5797  2.5089
  486MOL0     H67039   2.310   4.598   3.529 -1.1849 -0.3082  0.5972
  486MOL0     H67040   2.279   4.492   3.237  0.6223 -0.3879  0.3190
  486MOL0     H67041   2.139   4.527   3.348  0.7155 -0.8440 -1.7099
  486MOL0     H67042   2.342   4.732   3.260  0.5346 -1.3627  0.5199
  486MOL0     H67043   2.184   4.763   3.314 -1.6084 -0.9998  1.5626
  486MOL0     H67044   2.120   4.609   3.092 -0.4221  0.8207  1.5451
  486MOL0     H67045   2.292   4.665   3.055  1.3252  2.6201  0.0897
  486MOL0     H67046   2.236   4.881   3.044  3.1543 -3.1636  0.9079
  486MOL0     H67047   2.075   4.869   3.078  0.2159  1.6860  0.2860
  486MOL0     H67048   2.269   3.988   3.790 -1.9199 -3.1792  0.9633
  486MOL0     H67049   2.300   3.862   4.002  2.1941  1.1928 -1.3881
  486MOL0     H67050   1.981   3.727   4.415  0.1592 -1.6754  1.1179
  486MOL0     H67051   2.008   3.561   4.608 -0.0909  0.7642  2.9884
  486MOL0     H67052   1.443   4.609   5.884 -0.0639 -0.7529 -0.0420
  486MOL0     H67053   1.238   4.730   5.843 -3.9196 -3.2886 -1.5526
  486MOL0     H67054   1.002   5.027   5.581  2.8254  1.3117 -4.8152
  486MOL0     H67055   0.791   5.145   5.522 -3.6225 -0.0868  0.0159
  486MOL0     H67056   0.492   4.917   5.314  0.1737 -2.2398  1.2381
  486MOL0     H67057   0.407   4.916   5.471 -1.4813  0.1051 -1.0882
  486MOL0     H67058   0.333   5.159   5.432 -0.1975 -0.4694  0.5446
  486MOL0     H67059   0.261   5.051   5.317 -0.1454  0.7164  0.8765
  486MOL0     H67060   0.534   5.181   5.267 -0.8174  0.6150  3.3004
  486MOL0     H67061   0.402   5.149   5.146 -1.7363 -0.2860  0.7148
  486MOL0     H67062   0.448   5.386   5.190 -0.8535  0.9030 -0.5763
  486MOL0     H67063   0.414   5.354   5.365 -0.8292 -1.3300  1.7174
  486MOL0     H67064   0.048   5.334   5.150 -1.5437 -1.6765  2.8569
  486MOL0     H67065   0.613   4.767   5.418 -2.0492  1.1995  0.3065
  486MOL0     H67066   0.714   4.608   5.363 -0.7531  2.0720 -0.0938
  486MOL0     H67067   0.876   4.570   5.413  0.8216  2.4623 -3.8328
  486MOL0     H67068   0.734   4.563   5.533  0.6063  0.0431  0.4692
  487MOL0     O67069   8.291   1.095   3.080  1.0654 -0.2959 -0.6867
  487MOL0     C67070   8.266   1.027   3.180 -0.3184 -0.2020 -0.2900
  487MOL0     O67071   8.256   0.900   3.178  0.0979 -0.5199  0.4683
  487MOL0     C67072   8.270   0.829   3.062 -0.1053 -0.3742  0.4298
  487MOL0     C67073   8.168   0.750   3.032 -0.0685  0.8711  1.0915
  487MOL0     C67074   8.184   0.661   2.919 -0.6062  0.0473  0.5624
  487MOL0     C67075   8.307   0.662   2.849  0.2489  0.4164  0.6036
  487MOL0     O67076   8.331   0.587   2.736  0.2670 -0.3869  0.0273
  487MOL0     C67077   8.300   0.446   2.741 -0.2524 -0.7622 -0.6448
  487MOL0     C67078   8.204   0.426   2.632 -0.2762  0.2536  0.1876
  487MOL0     C67079   8.289   0.410   2.506 -0.0454  0.0273 -0.2481
  487MOL0     C67080   8.189   0.366   2.403 -0.4170  0.5950  0.1375
  487MOL0     C67081   8.256   0.314   2.274 -0.4254  0.3981  0.7886
  487MOL0     C67082   8.298   0.167   2.288 -0.1756  0.8539  0.5470
  487MOL0     C67083   8.183   0.072   2.265 -0.1824 -0.6889 -0.1944
  487MOL0     C67084   8.236  -0.076   2.258  0.0129 -0.4969 -1.0171
  487MOL0     N67085   8.251  -0.150   2.388 -0.4030 -0.8796 -0.0198
  487MOL0     C67086   8.341  -0.115   2.478  0.2785 -0.5431 -0.5456
  487MOL0     C67087   8.282  -0.168   2.596 -1.0159 -0.0694  0.7757
  487MOL0     C67088   8.320  -0.147   2.738 -0.0035  0.7019  0.5286
  487MOL0     C67089   8.332   0.000   2.770 -1.1272 -0.3930 -0.6536
  487MOL0     C67090   8.421   0.015   2.896  0.0831 -0.5929  0.5396
  487MOL0     C67091   8.436   0.162   2.942  0.2532 -0.0629 -0.1833
  487MOL0     O67092   8.537   0.234   2.860 -1.0010  0.1360 -0.4069
  487MOL0     C67093   8.583   0.345   2.932 -0.5539 -0.8766 -0.2843
  487MOL0     C67094   8.531   0.405   3.054 -0.0504 -0.6005  0.9961
  487MOL0     C67095   8.571   0.536   3.108 -0.4474  0.1561  0.3971
  487MOL0     C67096   8.505   0.574   3.237 -0.1067 -0.3553 -1.4063
  487MOL0     C67097   8.689   0.589   3.058  0.6000  0.0052  0.1865
  487MOL0     C67098   8.740   0.707   3.118 -0.0676  0.0702  0.1210
  487MOL0     O67099   8.707   0.827   3.061  0.1553 -0.6781 -0.1543
  487MOL0     C67100   8.743   0.936   3.133 -1.4059 -0.2358  0.2200
  487MOL0     C67101   8.852   1.002   3.079  0.4468  0.9931 -0.0681
  487MOL0     C67102   8.883   1.129   3.141  0.2596 -0.0123  0.2440
  487MOL0     C67103   8.811   1.190   3.240  1.2325  0.4043  0.1159
  487MOL0     O67104   8.860   1.303   3.306  0.2258 -0.0261 -0.2062
  487MOL0     C67105   8.769   1.391   3.369  0.3858 -0.4131 -0.0546
  487MOL0     C67106   8.855   1.514   3.410 -1.0259 -0.6149  0.2877
  487MOL0     C67107   8.882   1.526   3.555 -0.6660  0.2615 -0.5772
  487MOL0     C67108   9.001   1.432   3.584 -0.6931 -0.0425  0.5026
  487MOL0     C67109   9.066   1.459   3.725 -0.1321 -0.1504  0.5504
  487MOL0     C67110   9.176   1.376   3.765 -0.3007  0.7392  0.0946
  487MOL0     C67111   9.222   1.395   3.912  0.6706 -0.4614 -0.0713
  487MOL0     C67112   9.276   1.530   3.942 -0.2933 -0.0856 -0.8259
  487MOL0    Cl67113   9.347   1.525   4.110  0.3740 -0.6374 -0.2614
  487MOL0     C67114   8.694   1.120   3.278  1.1737  0.7993 -0.0877
  487MOL0     C67115   8.670   0.992   3.231  0.4898 -0.3921 -0.3440
  487MOL0     O67116   8.810   0.692   3.219  0.0606 -0.1292 -0.1596
  487MOL0     C67117   8.755   0.533   2.945 -0.0247  0.2103  0.6813
  487MOL0     C67118   8.699   0.412   2.887  0.0797  0.3379  0.2457
  487MOL0     N67119   8.167  -0.233   2.564 -0.4590  0.2830 -0.0822
  487MOL0     N67120   8.151  -0.222   2.437  0.7189  0.2091 -0.2985
  487MOL0     C67121   8.411   0.749   2.892  0.6631  0.4841 -1.1932
  487MOL0     C67122   8.392   0.846   2.995  0.1229  0.0997 -0.2778
  487MOL0     C67123   8.300   1.095   3.314  0.0551  0.4352 -0.2643
  487MOL0     C67124   8.368   1.006   3.408  0.2882  0.2514  0.3507
  487MOL0     C67125   8.395   1.042   3.539 -0.2921 -0.5653  0.8951
  487MOL0     C67126   8.362   1.176   3.570 -0.4028  0.1788 -1.2828
  487MOL0     O67127   8.400   1.244   3.693  0.2530  0.6114  0.2486
  487MOL0     C67128   8.516   1.191   3.776 -0.4205  0.0082  0.1193
  487MOL0     C67129   8.464   1.094   3.878  0.1849  0.2776  0.2788
  487MOL0     C67130   8.369   1.159   3.972 -0.0579  0.8186 -0.0189
  487MOL0     C67131   8.425   1.179   4.114  0.2419 -0.4428  0.5592
  487MOL0     C67132   8.550   1.253   4.116  1.2536  0.4867 -0.2687
  487MOL0     C67133   8.660   1.287   4.114 -0.6273 -0.7391  0.1233
  487MOL0     C67134   8.293   1.258   3.485  0.3307 -0.6259 -0.1221
  487MOL0     C67135   8.252   1.219   3.359 -0.7220  0.6142  0.0656
  487MOL0     C67136   8.172   1.311   3.270 -0.3500 -0.1673  0.9146
  487MOL0     H67137   8.076   0.755   3.090 -0.3059  2.7408  0.6163
  487MOL0     H67138   8.105   0.586   2.910 -1.0637  0.7710 -2.8950
  487MOL0     H67139   8.250   0.412   2.832 -0.2208  0.0826 -0.3049
  487MOL0     H67140   8.396   0.393   2.746  1.0392  1.5038  0.4230
  487MOL0     H67141   8.141   0.337   2.639 -0.5401  0.4059 -0.2203
  487MOL0     H67142   8.131   0.507   2.618 -2.0730 -1.4735 -0.9068
  487MOL0     H67143   8.340   0.500   2.469  4.2087 -1.5484  1.2327
  487MOL0     H67144   8.365   0.333   2.516 -0.7653 -0.7088 -0.3541
  487MOL0     H67145   8.127   0.282   2.437  0.0795  0.0458 -0.2910
  487MOL0     H67146   8.122   0.450   2.384 -0.6734  0.9880  2.4666
  487MOL0     H67147   8.341   0.378   2.247  0.9483 -1.9668 -0.8870
  487MOL0     H67148   8.199   0.328   2.181  2.9119  2.5122 -1.1684
  487MOL0     H67149   8.374   0.149   2.210 -1.0365  0.5554 -0.2401
  487MOL0     H67150   8.353   0.152   2.381  3.2290 -0.3588 -1.4503
  487MOL0     H67151   8.122   0.116   2.186 -0.9820  1.9852  1.7315
  487MOL0     H67152   8.117   0.076   2.352 -0.8603 -3.1954 -0.5144
  487MOL0     H67153   8.162  -0.136   2.204 -0.6048 -2.3884  1.6932
  487MOL0     H67154   8.332  -0.086   2.206  0.4827 -0.7614 -0.1196
  487MOL0     H67155   8.419  -0.040   2.468 -2.1795  2.3455  0.5348
  487MOL0     H67156   8.414  -0.203   2.751 -0.4504 -0.6667 -1.5539
  487MOL0     H67157   8.250  -0.186   2.813  1.7028 -0.3130  1.6644
  487MOL0     H67158   8.380   0.055   2.689 -1.4020 -1.3938 -1.5054
  487MOL0     H67159   8.235   0.048   2.788 -0.3236  0.4839  1.7441
  487MOL0     H67160   8.367  -0.043   2.971 -1.6645  1.7060  1.1594
  487MOL0     H67161   8.515  -0.039   2.881 -0.4064 -2.0631  2.3278
  487MOL0     H67162   8.339   0.209   2.959 -0.2112 -1.0611  0.0189
  487MOL0     H67163   8.479   0.161   3.043  2.0264  3.1001 -0.7643
  487MOL0     H67164   8.437   0.372   3.096 -1.2007 -0.3004 -1.2289
  487MOL0     H67165   8.406   0.530   3.252  0.1852 -0.7442 -0.5441
  487MOL0     H67166   8.499   0.683   3.238  2.9404 -0.0752 -2.5442
  487MOL0     H67167   8.570   0.549   3.321 -1.3259  0.2916 -0.2437
  487MOL0     H67168   8.920   0.963   3.005  2.0039  1.4823  1.0576
  487MOL0     H67169   8.975   1.173   3.102 -0.3533  2.0552  1.0010
  487MOL0     H67170   8.687   1.427   3.306  0.1901  0.9942  0.9613
  487MOL0     H67171   8.716   1.353   3.457  0.0057 -0.5560 -0.3403
  487MOL0     H67172   8.937   1.527   3.339 -2.0453  2.3167 -0.4854
  487MOL0     H67173   8.798   1.603   3.382 -2.0716 -1.7495 -1.3672
  487MOL0     H67174   8.807   1.509   3.633  0.5083  3.1906  1.3846
  487MOL0     H67175   8.926   1.624   3.577 -0.9591  0.1920  0.3859
  487MOL0     H67176   9.082   1.462   3.517 -0.6040  0.9205  1.0102
  487MOL0     H67177   8.968   1.329   3.575  2.1218 -0.8442 -2.3018
  487MOL0     H67178   9.088   1.567   3.726 -0.8004  0.0525 -1.7055
  487MOL0     H67179   8.982   1.448   3.794 -0.0806  0.1192  0.6586
  487MOL0     H67180   9.260   1.383   3.695  0.1822 -2.2237  0.2242
  487MOL0     H67181   9.133   1.276   3.753 -3.6333  2.1752 -1.0991
  487MOL0     H67182   9.292   1.317   3.944 -0.4838 -0.3521  2.9487
  487MOL0     H67183   9.137   1.363   3.971  1.2043  1.1079  1.6339
  487MOL0     H67184   9.203   1.611   3.932 -0.3143 -0.2333 -2.0081
  487MOL0     H67185   9.361   1.556   3.879  0.0570  2.4853  0.5763
  487MOL0     H67186   8.622   1.162   3.347 -0.8021 -1.1477 -0.8468
  487MOL0     H67187   8.576   0.942   3.250  0.4584 -0.3012 -0.2640
  487MOL0     H67188   8.844   0.578   2.902 -0.1169  0.3589  0.6462
  487MOL0     H67189   8.730   0.358   2.798  0.0131 -1.9030  1.5321
  487MOL0     H67190   8.508   0.755   2.844  0.2320  0.3469 -2.1011
  487MOL0     H67191   8.469   0.920   3.016  0.4508 -0.4230  0.3724
  487MOL0     H67192   8.401   0.908   3.375 -4.2508 -0.8892 -1.4734
  487MOL0     H67193   8.445   0.969   3.601  0.8114 -0.0648  0.6274
  487MOL0     H67194   8.585   1.133   3.714  0.5223 -0.6181  1.7063
  487MOL0     H67195   8.577   1.273   3.814  1.8538 -0.3275 -2.4976
  487MOL0     H67196   8.554   1.068   3.934 -1.0192  2.7598  3.6881
  487MOL0     H67197   8.424   1.001   3.837  0.3345 -0.1647  1.1224
  487MOL0     H67198   8.335   1.259   3.941  1.7057  1.3209 -0.4298
  487MOL0     H67199   8.277   1.103   3.989 -3.1300  5.5847  1.0688
  487MOL0     H67200   8.455   1.085   4.160 -1.1896 -1.9149 -1.3619
  487MOL0     H67201   8.353   1.212   4.190  0.4567 -2.9763  1.9778
  487MOL0     H67202   8.761   1.316   4.138 -0.3124 -1.7363  0.0308
  487MOL0     H67203   8.263   1.359   3.511 -2.1078 -0.7971 -1.9033
  487MOL0     H67204   8.121   1.388   3.328  0.1396  2.1880 -1.5879
  487MOL0     H67205   8.238   1.356   3.194 -0.8660  1.2842  1.2907
  487MOL0     H67206   8.093   1.251   3.225  0.0219 -0.0314  0.0531
  488MOL0     O67207   4.132   6.183   3.694 -0.0301 -0.2330  0.1310
  488MOL0     C67208   4.028   6.188   3.631  0.4834  0.1210 -0.6953
  488MOL0     O67209   4.000   6.237   3.503  0.7332 -0.0070 -0.3303
  488MOL0     C67210   4.095   6.322   3.461  1.3457 -0.1373  0.0367
  488MOL0     C67211   4.170   6.276   3.351  1.5523 -0.0379  0.7193
  488MOL0     C67212   4.264   6.355   3.290 -0.5418  0.5854  0.9310
  488MOL0     C67213   4.291   6.482   3.341 -0.3175  0.5587  0.2730
  488MOL0     O67214   4.384   6.558   3.275 -0.1754 -0.3014 -0.1095
  488MOL0     C67215   4.512   6.491   3.261  0.3633  0.0342  0.0053
  488MOL0     C67216   4.610   6.590   3.212 -0.8823  0.2365  0.2124
  488MOL0     C67217   4.575   6.640   3.074 -0.0504 -0.2389  0.7336
  488MOL0     C67218   4.648   6.554   2.968 -0.0750 -0.4361  0.1806
  488MOL0     C67219   4.583   6.569   2.834  0.9078  0.3660  0.2672
  488MOL0     C67220   4.575   6.712   2.783  0.8953  0.2366  0.3147
  488MOL0     C67221   4.712   6.759   2.745  0.6245 -0.7167  0.9123
  488MOL0     C67222   4.704   6.875   2.650  0.4788 -1.5464 -0.2150
  488MOL0     N67223   4.710   7.001   2.723 -0.2827 -0.1892  0.6972
  488MOL0     C67224   4.612   7.100   2.725  0.0618  1.1091  0.1541
  488MOL0     C67225   4.671   7.208   2.786  0.1985  0.3746 -0.5218
  488MOL0     C67226   4.619   7.341   2.823 -0.1293  0.4564  0.0022
  488MOL0     C67227   4.476   7.376   2.776  0.7784  0.4227  0.4698
  488MOL0     C67228   4.463   7.388   2.618 -0.4424  0.5142 -0.9389
  488MOL0     C67229   4.548   7.500   2.563  0.2575 -0.5636 -0.2505
  488MOL0     O67230   4.540   7.625   2.633 -0.1516  0.2569  0.4145
  488MOL0     C67231   4.445   7.704   2.570 -0.1735  0.2263 -0.1517
  488MOL0     C67232   4.481   7.800   2.477 -0.5455  1.0644 -0.1978
  488MOL0     C67233   4.386   7.888   2.420 -0.6629 -0.4693  0.2105
  488MOL0     C67234   4.443   7.991   2.334 -0.5358 -0.4256  0.9389
  488MOL0     C67235   4.245   7.865   2.450 -0.3224 -1.1549  0.1490
  488MOL0     C67236   4.127   7.943   2.383  0.0417  0.5615 -0.2442
  488MOL0     O67237   4.004   7.921   2.446  0.0297 -0.0680  0.0758
  488MOL0     C67238   3.882   7.939   2.380 -0.3970  0.3455  0.0520
  488MOL0     C67239   3.774   7.945   2.469 -0.6752  0.9779  0.0493
  488MOL0     C67240   3.637   7.952   2.415  0.0468  1.0913  0.4463
  488MOL0     C67241   3.616   7.946   2.282  0.9740 -0.8376  0.2300
  488MOL0     O67242   3.494   7.951   2.221  0.7796  0.5998  0.7170
  488MOL0     C67243   3.393   7.851   2.261 -1.3660 -0.7718 -0.1972
  488MOL0     C67244   3.437   7.708   2.222 -0.2845  0.0427 -0.6793
  488MOL0     C67245   3.405   7.671   2.083 -0.4417  0.1835 -0.3153
  488MOL0     C67246   3.433   7.518   2.067  1.2224 -0.7099 -0.7222
  488MOL0     C67247   3.396   7.467   1.928 -1.7572 -0.1077 -0.2651
  488MOL0     C67248   3.481   7.533   1.819 -0.1098  0.4580  0.7983
  488MOL0     C67249   3.464   7.471   1.676  1.1962 -0.2849 -0.8215
  488MOL0     C67250   3.530   7.545   1.572  0.6161 -0.2274 -0.0368
  488MOL0    Cl67251   3.709   7.520   1.557  0.4211  0.6001 -0.6387
  488MOL0     C67252   3.724   7.933   2.199 -0.0270  0.6787  0.9435
  488MOL0     C67253   3.854   7.935   2.239 -0.1380  0.2763  0.3087
  488MOL0     O67254   4.141   8.015   2.282  0.7694 -0.1431 -0.0143
  488MOL0     C67255   4.224   7.771   2.551  1.0857  0.6564  0.1150
  488MOL0     C67256   4.323   7.690   2.617  0.5413  0.2867  1.4599
  488MOL0     N67257   4.800   7.177   2.816 -0.0553  0.3049 -0.9760
  488MOL0     N67258   4.825   7.058   2.774  1.1790 -0.4359  0.3790
  488MOL0     C67259   4.223   6.533   3.452 -0.4079  1.1265  0.5965
  488MOL0     C67260   4.120   6.451   3.504 -0.1178 -0.7439  0.2160
  488MOL0     C67261   3.922   6.115   3.697 -0.3931  0.3170  0.4717
  488MOL0     C67262   3.838   6.045   3.605  0.2856  0.4900 -0.5921
  488MOL0     C67263   3.738   5.968   3.659 -0.8609 -0.5606 -0.5037
  488MOL0     C67264   3.720   5.958   3.793 -0.2611  0.6094  0.5601
  488MOL0     O67265   3.615   5.886   3.838  0.4161 -0.1495 -0.3672
  488MOL0     C67266   3.530   5.959   3.927  1.5633 -0.3137 -0.7128
  488MOL0     C67267   3.414   6.019   3.841 -0.6240 -0.3358 -0.5019
  488MOL0     C67268   3.332   5.919   3.759 -0.5951  0.1634  0.2146
  488MOL0     C67269   3.229   5.981   3.649 -0.3611 -0.4771 -0.6324
  488MOL0     C67270   3.144   6.087   3.705  0.1641  0.9122 -0.7291
  488MOL0     C67271   3.093   6.179   3.766 -0.6909  0.8476 -0.0914
  488MOL0     C67272   3.802   6.010   3.886 -0.8777 -0.0826  0.9694
  488MOL0     C67273   3.900   6.097   3.836 -1.0210 -0.5436  0.9471
  488MOL0     C67274   3.990   6.173   3.931  0.5144 -0.1900 -0.4688
  488MOL0     H67275   4.150   6.177   3.311 -1.5674  1.5952 -2.1953
  488MOL0     H67276   4.320   6.331   3.201  0.2085  1.3694  1.1775
  488MOL0     H67277   4.506   6.412   3.187  0.8476  1.1624 -1.2869
  488MOL0     H67278   4.545   6.435   3.349  0.6281 -0.8814 -0.6677
  488MOL0     H67279   4.614   6.679   3.276 -1.2353 -0.4964  1.2734
  488MOL0     H67280   4.710   6.546   3.206  0.4593  2.8848  1.2785
  488MOL0     H67281   4.466   6.637   3.071 -0.0118 -2.3263 -1.3012
  488MOL0     H67282   4.603   6.745   3.062 -2.3445  0.3239 -0.2682
  488MOL0     H67283   4.756   6.566   2.963 -0.0988 -0.7028 -2.9561
  488MOL0     H67284   4.649   6.447   2.993  0.0603  0.3173  3.8509
  488MOL0     H67285   4.482   6.527   2.841  0.5561  1.3264  1.3146
  488MOL0     H67286   4.648   6.510   2.769  0.2916  1.5646 -1.4845
  488MOL0     H67287   4.502   6.724   2.703  3.2906 -1.5687 -2.3236
  488MOL0     H67288   4.528   6.775   2.859 -2.2327  1.6214 -2.5247
  488MOL0     H67289   4.779   6.685   2.700  0.3064  0.2148 -1.1913
  488MOL0     H67290   4.763   6.790   2.837  0.5288  3.5935 -0.2820
  488MOL0     H67291   4.804   6.874   2.604  1.9904  3.1307  2.2521
  488MOL0     H67292   4.625   6.859   2.577  1.1241 -5.8344 -0.2228
  488MOL0     H67293   4.506   7.092   2.707 -0.0445 -0.8957  1.4419
  488MOL0     H67294   4.682   7.416   2.774 -0.1333 -0.9334 -2.2442
  488MOL0     H67295   4.626   7.359   2.931 -1.4809  0.5874  0.0903
  488MOL0     H67296   4.412   7.293   2.806  0.8649  0.1307 -0.1361
  488MOL0     H67297   4.436   7.474   2.804 -0.0114  0.7244 -1.5392
  488MOL0     H67298   4.487   7.294   2.568 -0.4231  0.4838 -0.8745
  488MOL0     H67299   4.358   7.409   2.595 -0.4662 -1.0766 -2.4484
  488MOL0     H67300   4.653   7.468   2.563  1.2820  2.1190  3.0325
  488MOL0     H67301   4.528   7.519   2.457  0.9901 -0.9680 -0.4676
  488MOL0     H67302   4.588   7.799   2.460 -0.6237 -1.6086 -0.9659
  488MOL0     H67303   4.551   7.986   2.324 -0.1578 -0.8794  4.1305
  488MOL0     H67304   4.420   8.096   2.357  0.3056  0.0250 -0.1925
  488MOL0     H67305   4.425   7.965   2.230  0.9934 -1.7927  0.9837
  488MOL0     H67306   3.801   7.937   2.574 -2.2125  2.0999  0.5648
  488MOL0     H67307   3.551   7.956   2.481 -1.2199 -3.3672 -0.6267
  488MOL0     H67308   3.363   7.867   2.365 -0.3074 -0.8003  0.1279
  488MOL0     H67309   3.313   7.878   2.192 -1.8688 -1.3774  0.1422
  488MOL0     H67310   3.543   7.706   2.250 -0.1402 -1.5156 -1.2126
  488MOL0     H67311   3.389   7.633   2.286 -1.7161  1.6484  0.1841
  488MOL0     H67312   3.451   7.744   2.016 -2.3067  3.4559  1.7486
  488MOL0     H67313   3.296   7.684   2.073 -1.2238 -2.9726  2.2443
  488MOL0     H67314   3.388   7.462   2.149 -0.1251 -1.8091 -2.1481
  488MOL0     H67315   3.542   7.503   2.068  1.6633  2.0289  0.3808
  488MOL0     H67316   3.408   7.359   1.928 -3.7106 -0.4095  2.0613
  488MOL0     H67317   3.289   7.482   1.907 -1.6704 -1.2193 -1.6020
  488MOL0     H67318   3.585   7.519   1.848  0.2901 -0.7580 -1.0379
  488MOL0     H67319   3.461   7.640   1.815 -1.2105  0.2191 -1.2671
  488MOL0     H67320   3.357   7.459   1.653  1.4759 -1.8352 -1.4078
  488MOL0     H67321   3.515   7.374   1.673  0.2010 -0.8477 -4.2202
  488MOL0     H67322   3.504   7.651   1.563  1.8342 -0.0710 -3.0870
  488MOL0     H67323   3.478   7.501   1.486 -0.9494 -1.5607  1.5101
  488MOL0     H67324   3.694   7.922   2.095 -2.2747  0.2355  1.5843
  488MOL0     H67325   3.938   7.933   2.170  0.7807 -2.3512  1.3821
  488MOL0     H67326   4.120   7.751   2.577  1.0671 -0.7666 -0.9501
  488MOL0     H67327   4.285   7.617   2.688 -1.2567  0.3985  0.6771
  488MOL0     H67328   4.252   6.629   3.494  2.7584  0.5674 -0.0245
  488MOL0     H67329   4.075   6.486   3.596  0.0880 -0.1525  0.0961
  488MOL0     H67330   3.846   6.034   3.497 -0.7755 -1.5765 -0.5078
  488MOL0     H67331   3.661   5.920   3.600 -0.6213 -1.2303 -0.2847
  488MOL0     H67332   3.485   5.890   3.999  0.4955 -0.1744 -1.2204
  488MOL0     H67333   3.565   6.045   3.985  4.9857 -0.5297 -2.2514
  488MOL0     H67334   3.465   6.082   3.767 -0.3777 -0.4045 -0.3902
  488MOL0     H67335   3.344   6.077   3.902 -0.7614 -0.2744 -0.7154
  488MOL0     H67336   3.405   5.851   3.715 -0.0373  0.9745 -0.1308
  488MOL0     H67337   3.271   5.860   3.829 -2.1700  0.2185 -1.0666
  488MOL0     H67338   3.162   5.904   3.608 -0.1814 -0.0418 -1.7686
  488MOL0     H67339   3.288   6.009   3.562 -0.8435 -1.0809 -1.1644
  488MOL0     H67340   3.039   6.248   3.827  1.7714  1.2020  1.8149
  488MOL0     H67341   3.776   5.992   3.989 -3.0040 -1.2672  0.2917
  488MOL0     H67342   3.933   6.167   4.025  1.2880 -7.1949  0.1146
  488MOL0     H67343   4.090   6.133   3.951  1.8688  3.6947  1.6015
  488MOL0     H67344   3.993   6.276   3.894 -0.6944  0.7368  1.7868
  489MOL0     O67345   2.563   3.320   7.795 -0.0558  0.3261  0.0179
  489MOL0     C67346   2.643   3.288   7.707 -1.2809 -0.4373 -0.0770
  489MOL0     O67347   2.648   3.341   7.592 -0.5437  0.5229 -0.4548
  489MOL0     C67348   2.570   3.446   7.560  0.1128 -0.8066 -0.9099
  489MOL0     C67349   2.428   3.425   7.577 -0.0268  0.4506  0.0861
  489MOL0     C67350   2.336   3.508   7.530  0.5480 -0.1660  0.3689
  489MOL0     C67351   2.380   3.617   7.449 -0.2064 -0.0837 -0.4824
  489MOL0     O67352   2.283   3.698   7.400 -0.3795  0.1354  0.0115
  489MOL0     C67353   2.321   3.795   7.292  1.0050  0.1430 -0.2398
  489MOL0     C67354   2.360   3.932   7.351 -0.0458  0.1246 -0.6880
  489MOL0     C67355   2.241   4.018   7.382  0.2953  0.6578  0.0952
  489MOL0     C67356   2.280   4.164   7.430  0.6120 -0.3929  0.5760
  489MOL0     C67357   2.162   4.231   7.509 -0.9017 -0.1048  1.0019
  489MOL0     C67358   2.201   4.357   7.589  0.4614  1.1257  0.1411
  489MOL0     C67359   2.283   4.458   7.517  0.9082  0.5183  0.4339
  489MOL0     C67360   2.292   4.599   7.576  0.3300  0.3678 -0.0136
  489MOL0     N67361   2.356   4.703   7.497  0.3155 -0.3698  0.5221
  489MOL0     C67362   2.320   4.716   7.363 -0.2163 -0.6460 -0.1485
  489MOL0     C67363   2.331   4.851   7.336 -0.1502 -0.7660  0.0760
  489MOL0     C67364   2.286   4.936   7.216 -0.1978  0.1003  0.6668
  489MOL0     C67365   2.319   4.863   7.078  0.3348  0.8867 -0.1766
  489MOL0     C67366   2.191   4.814   7.015  0.4345 -1.1187 -0.1314
  489MOL0     C67367   2.217   4.733   6.892  0.0218  0.8328 -0.2737
  489MOL0     O67368   2.298   4.614   6.924 -0.0890 -0.1720 -0.4954
  489MOL0     C67369   2.240   4.494   6.974  0.1990 -0.3715  0.5978
  489MOL0     C67370   2.328   4.389   6.984  0.0265  0.7167 -0.4800
  489MOL0     C67371   2.287   4.255   6.997 -0.1476 -0.2166 -0.1620
  489MOL0     C67372   2.389   4.150   6.960  0.1396 -0.5072 -0.3277
  489MOL0     C67373   2.150   4.232   7.022  0.3984  0.1795 -0.2309
  489MOL0     C67374   2.085   4.094   7.037 -0.6432 -0.0162  0.6057
  489MOL0     O67375   1.975   4.093   7.105  0.2144  0.2434 -0.5819
  489MOL0     C67376   1.916   3.976   7.146 -0.4979 -0.0325 -0.5506
  489MOL0     C67377   1.888   3.872   7.059 -0.2823  0.0979  0.2887
  489MOL0     C67378   1.808   3.758   7.089  0.8708 -1.2263 -0.2451
  489MOL0     C67379   1.760   3.741   7.213  0.1770  0.5651  0.4936
  489MOL0     O67380   1.680   3.633   7.248  0.7094 -0.5676 -0.0530
  489MOL0     C67381   1.702   3.579   7.382  0.0191  0.0264  0.1708
  489MOL0     C67382   1.841   3.513   7.419 -0.4672 -0.2761  0.7170
  489MOL0     C67383   1.832   3.473   7.562 -0.3565 -0.1588 -0.9514
  489MOL0     C67384   1.967   3.421   7.606 -0.0290  0.5410 -0.2005
  489MOL0     C67385   1.959   3.317   7.717  0.0131 -0.5032 -0.0189
  489MOL0     C67386   2.103   3.298   7.771 -0.2952  0.2022  0.5226
  489MOL0     C67387   2.104   3.191   7.886  0.0042 -0.3162  0.4897
  489MOL0     C67388   2.231   3.152   7.930 -0.5482 -0.3437 -0.3349
  489MOL0    Cl67389   2.340   3.283   7.993  0.2296  0.2815  0.1570
  489MOL0     C67390   1.799   3.839   7.310  0.4999 -0.5095  0.2216
  489MOL0     C67391   1.862   3.959   7.275  0.3873 -0.5842  0.6245
  489MOL0     O67392   2.145   4.003   6.988 -0.0427 -0.1634 -0.1927
  489MOL0     C67393   2.062   4.338   7.038 -0.5913  0.1241 -0.5408
  489MOL0     C67394   2.110   4.464   7.011 -0.0691  0.1641  0.6106
  489MOL0     N67395   2.378   4.908   7.454  0.5816 -0.4502 -0.2704
  489MOL0     N67396   2.404   4.821   7.544  0.2857 -0.5677  0.1573
  489MOL0     C67397   2.517   3.640   7.433  0.0187  0.2358  0.6782
  489MOL0     C67398   2.610   3.562   7.497  0.0720  0.1190  0.3629
  489MOL0     C67399   2.744   3.181   7.729  0.1954  0.3448 -0.9299
  489MOL0     C67400   2.835   3.155   7.628  0.3038 -0.3703 -1.0765
  489MOL0     C67401   2.918   3.048   7.631  0.4267  0.1922 -0.4194
  489MOL0     C67402   2.923   2.960   7.733  1.7663  0.0690 -0.3054
  489MOL0     O67403   3.023   2.865   7.735  0.8302  0.0898 -0.1107
  489MOL0     C67404   2.985   2.740   7.789 -1.1178  0.0834  0.1104
  489MOL0     C67405   2.978   2.630   7.692  0.1268  0.2561 -0.1107
  489MOL0     C67406   2.879   2.667   7.596  0.6844 -0.2390  0.1337
  489MOL0     C67407   2.845   2.559   7.492 -0.7179  0.8076  0.6918
  489MOL0     C67408   2.794   2.439   7.564  0.1011 -0.5653  0.4740
  489MOL0     C67409   2.757   2.369   7.657 -0.6778  0.8334  0.5789
  489MOL0     C67410   2.830   2.975   7.839  0.3928  0.1960  0.1045
  489MOL0     C67411   2.734   3.085   7.836 -0.9408  0.7361  0.1904
  489MOL0     C67412   2.641   3.105   7.951 -0.0066 -0.0690 -0.0328
  489MOL0     H67413   2.409   3.327   7.621 -0.8749 -0.1741 -1.5502
  489MOL0     H67414   2.230   3.484   7.536 -0.4687  3.8553  0.7937
  489MOL0     H67415   2.241   3.827   7.224  0.8842  1.5788  0.5334
  489MOL0     H67416   2.399   3.745   7.234 -0.4612 -1.3995 -0.9639
  489MOL0     H67417   2.419   3.927   7.443 -1.1515  0.7930  0.0746
  489MOL0     H67418   2.422   3.984   7.277 -0.8961  3.8951  1.0093
  489MOL0     H67419   2.174   4.011   7.295 -0.8592 -0.0142  1.0162
  489MOL0     H67420   2.184   3.988   7.470  1.5700 -0.1806  0.6619
  489MOL0     H67421   2.372   4.152   7.488  1.0502 -2.9283 -0.4785
  489MOL0     H67422   2.297   4.222   7.339  3.0385 -0.7346  0.7527
  489MOL0     H67423   2.136   4.160   7.588 -1.6810  2.7250  3.4775
  489MOL0     H67424   2.067   4.245   7.457  0.8806  3.4868 -1.6526
  489MOL0     H67425   2.106   4.402   7.621 -0.5162 -1.1570  0.6939
  489MOL0     H67426   2.251   4.315   7.677  0.5988  1.9036  0.4411
  489MOL0     H67427   2.224   4.476   7.426 -1.4560 -0.6752  1.6218
  489MOL0     H67428   2.387   4.443   7.488  0.5385  0.3260 -0.8606
  489MOL0     H67429   2.192   4.636   7.598  1.0877  2.6614 -0.1717
  489MOL0     H67430   2.346   4.587   7.670  0.1364 -0.9289 -0.0481
  489MOL0     H67431   2.278   4.640   7.298 -1.9049  0.6066 -0.6040
  489MOL0     H67432   2.344   5.027   7.228  1.6984 -1.0822  0.7978
  489MOL0     H67433   2.178   4.939   7.232 -0.3796 -1.2320 -0.1549
  489MOL0     H67434   2.362   4.944   7.019  1.7596  1.2400  1.2787
  489MOL0     H67435   2.386   4.779   7.100 -2.3951 -0.8038  2.4542
  489MOL0     H67436   2.127   4.757   7.083 -1.2595  1.0598  0.2070
  489MOL0     H67437   2.127   4.899   6.988  0.2668 -1.9427 -2.5402
  489MOL0     H67438   2.117   4.708   6.855 -0.9825 -1.1458  3.2705
  489MOL0     H67439   2.278   4.798   6.828 -0.0975 -0.4211 -1.7277
  489MOL0     H67440   2.433   4.410   6.963  0.6131 -1.8968 -0.4012
  489MOL0     H67441   2.374   4.133   6.853 -2.0690  1.8766 -0.4837
  489MOL0     H67442   2.374   4.059   7.018  0.3906 -1.5967 -1.8890
  489MOL0     H67443   2.491   4.182   6.984 -0.7082  0.6372  1.9774
  489MOL0     H67444   1.926   3.887   6.958 -0.3492 -1.9417 -0.0812
  489MOL0     H67445   1.772   3.686   7.015  0.0221 -1.0948  0.0290
  489MOL0     H67446   1.673   3.653   7.457  0.0598 -2.0242  2.3452
  489MOL0     H67447   1.626   3.500   7.382 -2.2089  2.0118  1.5964
  489MOL0     H67448   1.870   3.431   7.352 -1.3811 -1.1044  1.3147
  489MOL0     H67449   1.918   3.590   7.406  0.3832 -1.3694 -1.0856
  489MOL0     H67450   1.770   3.383   7.569 -1.1629  0.3193 -1.7929
  489MOL0     H67451   1.795   3.550   7.631  1.2498  2.0348 -2.3955
  489MOL0     H67452   2.029   3.509   7.623  0.2281  0.4113 -0.4609
  489MOL0     H67453   2.026   3.377   7.525  0.5260  2.3441 -0.8172
  489MOL0     H67454   1.892   3.351   7.796  0.2353  1.8981 -0.7800
  489MOL0     H67455   1.926   3.216   7.690  0.0737 -0.6378  0.3934
  489MOL0     H67456   2.147   3.394   7.798  2.2618 -1.1327  1.4083
  489MOL0     H67457   2.152   3.269   7.677 -1.8526  2.8272 -1.2305
  489MOL0     H67458   2.072   3.092   7.850  0.6263  0.0645 -1.2058
  489MOL0     H67459   2.060   3.222   7.981 -1.4036 -0.0577 -0.2234
  489MOL0     H67460   2.293   3.097   7.858  1.7740  1.5491  0.1119
  489MOL0     H67461   2.204   3.082   8.010  1.2396  1.8308  2.3751
  489MOL0     H67462   1.763   3.835   7.413 -1.4731  3.5643 -0.1542
  489MOL0     H67463   1.875   4.037   7.350 -1.8654  0.2198  0.2709
  489MOL0     H67464   1.957   4.324   7.063 -1.0046  2.3526 -0.8356
  489MOL0     H67465   2.060   4.556   7.037 -0.9006 -0.2583  0.5341
  489MOL0     H67466   2.548   3.728   7.378  0.2673  0.1071  0.6110
  489MOL0     H67467   2.713   3.591   7.476 -0.2197  0.3844 -0.7295
  489MOL0     H67468   2.848   3.205   7.532  4.1557  0.6184 -0.2223
  489MOL0     H67469   2.985   3.036   7.547 -0.2759 -0.9378 -0.8523
  489MOL0     H67470   3.075   2.718   7.848  0.4232  1.6664 -1.5147
  489MOL0     H67471   2.895   2.747   7.850 -0.1375 -1.3758  1.8160
  489MOL0     H67472   2.950   2.544   7.754 -0.2661 -0.9377 -1.8918
  489MOL0     H67473   3.071   2.612   7.639 -0.3497  1.2464 -1.3195
  489MOL0     H67474   2.791   2.698   7.652 -0.2677  2.2633 -2.4767
  489MOL0     H67475   2.908   2.760   7.545  2.3345  1.1105  3.2979
  489MOL0     H67476   2.936   2.534   7.436 -2.0560 -2.2501 -0.3226
  489MOL0     H67477   2.772   2.590   7.417 -0.5273 -0.9322 -0.2716
  489MOL0     H67478   2.735   2.297   7.732  1.1197 -0.8277 -0.3996
  489MOL0     H67479   2.819   2.925   7.935  0.6433  0.8848  0.5024
  489MOL0     H67480   2.537   3.103   7.918  0.4868  1.1308 -1.8290
  489MOL0     H67481   2.657   3.027   8.027 -1.7365  2.1893  2.8730
  489MOL0     H67482   2.675   3.200   7.993  3.1682 -1.2961  0.4544
  490MOL0     O67483   5.637   9.792  10.130  0.4148  0.1844  0.1703
  490MOL0     C67484   5.677   9.684  10.166 -0.1141 -0.7762  0.2539
  490MOL0     O67485   5.601   9.583  10.206 -0.8570  0.2514 -0.3445
  490MOL0     C67486   5.469   9.607  10.230 -0.1302 -0.6430  0.6836
  490MOL0     C67487   5.363   9.549  10.148  0.2278  0.5764 -0.0415
  490MOL0     C67488   5.226   9.573  10.174  0.5127 -0.7081  0.5565
  490MOL0     C67489   5.193   9.665  10.272 -0.9046  0.5699 -0.6868
  490MOL0     O67490   5.061   9.701  10.286  0.8848  0.6515 -0.1005
  490MOL0     C67491   5.031   9.799  10.390 -0.0294 -0.0688  0.4399
  490MOL0     C67492   4.882   9.845  10.364  0.4294  1.1155 -0.8006
  490MOL0     C67493   4.841   9.960  10.460  0.1266 -0.5594  0.1598
  490MOL0     C67494   4.725  10.048  10.400 -0.1453  0.3231 -0.3913
  490MOL0     C67495   4.702  10.183  10.469  1.9067  0.0772  0.0865
  490MOL0     C67496   4.607  10.276  10.382  0.3970 -0.5874  1.2064
  490MOL0     C67497   4.597  10.423  10.433 -0.0889  0.7531 -0.1823
  490MOL0     C67498   4.488  10.511  10.367 -0.1454 -0.0928  0.2354
  490MOL0     N67499   4.491  10.652  10.407 -0.6653 -0.1146 -0.0144
  490MOL0     C67500   4.591  10.743  10.378  0.4561  0.0616 -0.4301
  490MOL0     C67501   4.551  10.863  10.430 -0.2165  0.6527 -0.4805
  490MOL0     C67502   4.645  10.977  10.451 -0.3763  0.5407 -0.2332
  490MOL0     C67503   4.742  10.973  10.574 -0.1263  0.4357 -1.4590
  490MOL0     C67504   4.872  10.905  10.544 -0.4826  0.7656  0.1656
  490MOL0     C67505   4.900  10.771  10.616  0.4281  0.2825  0.7420
  490MOL0     O67506   5.025  10.716  10.559  0.0516 -0.3131 -0.7065
  490MOL0     C67507   5.140  10.729  10.635 -0.3835  0.7038 -0.3461
  490MOL0     C67508   5.165  10.842  10.714  0.1054 -0.4496 -0.5414
  490MOL0     C67509   5.278  10.865  10.784  0.7694  0.0971 -0.2963
  490MOL0     C67510   5.280  10.999  10.856 -0.0977 -0.9665  0.1629
  490MOL0     C67511   5.378  10.771  10.781 -0.3114  0.0697 -0.8902
  490MOL0     C67512   5.509  10.765  10.856 -0.8481 -0.5413 -0.9910
  490MOL0     O67513   5.607  10.674  10.816 -0.7633  0.1524  0.2423
  490MOL0     C67514   5.721  10.643  10.881 -0.5144  0.3869  0.5082
  490MOL0     C67515   5.781  10.518  10.847 -0.1066 -1.0018 -0.3408
  490MOL0     C67516   5.916  10.498  10.877  1.1151 -0.0395  0.4705
  490MOL0     C67517   5.984  10.585  10.960 -0.1813 -0.9247  0.6357
  490MOL0     O67518   6.120  10.591  10.995  0.1988  0.3231 -0.5981
  490MOL0     C67519   6.199  10.476  10.949  0.2588 -0.2795 -0.0120
  490MOL0     C67520   6.338  10.474  11.019 -0.5485 -0.2071 -0.6216
  490MOL0     C67521   6.412  10.602  11.007 -0.4556 -0.0084  0.7212
  490MOL0     C67522   6.556  10.589  11.077  0.4900 -0.6214  0.3098
  490MOL0     C67523   6.570  10.582  11.236 -0.1562 -0.0169 -0.0671
  490MOL0     C67524   6.711  10.545  11.284  0.4959  0.7479  0.4858
  490MOL0     C67525   6.809  10.651  11.288 -0.3938  0.2156  0.1231
  490MOL0     C67526   6.927  10.612  11.197 -0.0873  0.8729  0.0675
  490MOL0    Cl67527   6.891  10.553  11.036  0.2248  0.1906 -0.0883
  490MOL0     C67528   5.913  10.707  10.999 -0.0726 -0.8593 -0.9510
  490MOL0     C67529   5.789  10.736  10.955 -0.2975 -0.0910 -0.4132
  490MOL0     O67530   5.508  10.828  10.959 -0.3289 -0.6010 -0.5929
  490MOL0     C67531   5.355  10.649  10.707  0.9172  0.0146 -0.1530
  490MOL0     C67532   5.236  10.633  10.637 -0.3252 -0.7611  0.8209
  490MOL0     N67533   4.426  10.843  10.491 -0.1236 -0.0827  0.6795
  490MOL0     N67534   4.394  10.721  10.463 -0.0128 -0.8309 -0.7877
  490MOL0     C67535   5.294   9.725  10.350 -0.2525  0.4827  0.1878
  490MOL0     C67536   5.427   9.696  10.325 -1.0560 -0.7260 -1.2009
  490MOL0     C67537   5.820   9.666  10.164 -1.4696  0.5353  0.3258
  490MOL0     C67538   5.869   9.536  10.125 -0.2504  0.2644 -1.1207
  490MOL0     C67539   6.001   9.519  10.101 -0.3494 -0.3562 -0.0769
  490MOL0     C67540   6.102   9.608  10.135  1.1312  0.4804 -0.3337
  490MOL0     O67541   6.235   9.596  10.138  0.1536 -0.0571  0.1083
  490MOL0     C67542   6.292   9.481  10.202  0.3782  0.4718  0.0846
  490MOL0     C67543   6.306   9.519  10.351  0.8713  0.9905 -0.3664
  490MOL0     C67544   6.362   9.661  10.371 -0.3931 -0.9921  0.7662
  490MOL0     C67545   6.416   9.693  10.512  0.8255 -0.3108 -0.4033
  490MOL0     C67546   6.314   9.636  10.603 -0.6080  0.0337 -0.3739
  490MOL0     C67547   6.249   9.579  10.693  0.4069  0.1311  0.9267
  490MOL0     C67548   6.051   9.736  10.177 -0.8361 -0.7366 -0.2078
  490MOL0     C67549   5.916   9.772  10.186 -0.2861 -0.3752 -0.0551
  490MOL0     C67550   5.884   9.920  10.217 -0.0823  0.8907 -0.2279
  490MOL0     H67551   5.398   9.492  10.063  0.6588 -0.6937  0.9549
  490MOL0     H67552   5.149   9.539  10.104  2.7733 -5.4298 -0.0088
  490MOL0     H67553   5.087   9.891  10.374  1.8560 -1.2706 -0.1304
  490MOL0     H67554   5.052   9.755  10.488  0.9974 -0.7507 -0.0600
  490MOL0     H67555   4.876   9.887  10.263  0.4922  0.6435 -1.0035
  490MOL0     H67556   4.823   9.753  10.376 -0.1976  1.7128  0.9268
  490MOL0     H67557   4.807   9.923  10.557 -0.9324 -2.1053 -0.7494
  490MOL0     H67558   4.929  10.022  10.476 -1.4848  1.5154  1.6413
  490MOL0     H67559   4.730  10.063  10.292 -0.2529  0.2135 -0.4134
  490MOL0     H67560   4.638   9.981  10.404 -0.4780  0.4648 -3.2467
  490MOL0     H67561   4.804  10.220  10.478  1.5757  1.7019 -2.1121
  490MOL0     H67562   4.673  10.191  10.574  0.8021 -0.2609 -0.1815
  490MOL0     H67563   4.653  10.282  10.283  1.3306  0.0475  1.6658
  490MOL0     H67564   4.510  10.227  10.371 -1.2586  2.5337  0.6292
  490MOL0     H67565   4.688  10.479  10.409 -0.9061  1.5650 -1.4786
  490MOL0     H67566   4.584  10.406  10.540  4.7631 -0.2901  0.4719
  490MOL0     H67567   4.491  10.498  10.258 -0.3436  0.3434  0.1723
  490MOL0     H67568   4.390  10.465  10.386 -1.1976 -0.4232 -4.6631
  490MOL0     H67569   4.685  10.723  10.327  1.7283  0.0684  1.7981
  490MOL0     H67570   4.581  11.066  10.459 -1.1140  0.1226 -1.3267
  490MOL0     H67571   4.701  11.004  10.361  0.4927  2.2933  0.7796
  490MOL0     H67572   4.759  11.075  10.609  3.9149 -0.4323 -0.2958
  490MOL0     H67573   4.690  10.909  10.645 -1.3517  1.0147 -1.8196
  490MOL0     H67574   4.875  10.866  10.442  2.0311 -2.3500  1.2344
  490MOL0     H67575   4.961  10.969  10.537  0.3009 -0.2495  0.4577
  490MOL0     H67576   4.907  10.785  10.724 -5.1159 -1.9328  1.7298
  490MOL0     H67577   4.824  10.694  10.598  3.1554 -2.5544  0.6963
  490MOL0     H67578   5.093  10.920  10.692 -0.6232 -1.1803 -0.8043
  490MOL0     H67579   5.271  11.001  10.965  1.1854 -0.9609  0.2776
  490MOL0     H67580   5.200  11.058  10.810  0.9324 -0.6719 -1.2942
  490MOL0     H67581   5.373  11.052  10.834 -0.4755 -1.0329 -1.7732
  490MOL0     H67582   5.726  10.450  10.784  1.8707 -0.9243 -2.2504
  490MOL0     H67583   5.958  10.404  10.842  1.1000  0.1375 -0.0334
  490MOL0     H67584   6.154  10.376  10.954  1.6009 -0.8757  0.5036
  490MOL0     H67585   6.205  10.489  10.840  1.5421  2.4744  0.2847
  490MOL0     H67586   6.311  10.453  11.123  1.5614  1.9768  0.4493
  490MOL0     H67587   6.403  10.390  10.992  0.6303  0.4365  0.0906
  490MOL0     H67588   6.353  10.681  11.055  1.0500 -1.0262  4.5548
  490MOL0     H67589   6.428  10.623  10.901 -0.4031 -1.0931  0.4976
  490MOL0     H67590   6.607  10.677  11.037 -1.3091  0.5934  0.5812
  490MOL0     H67591   6.617  10.507  11.039  1.0570  1.1567 -2.9239
  490MOL0     H67592   6.538  10.676  11.284  2.6072  1.7586 -1.4640
  490MOL0     H67593   6.502  10.507  11.277 -1.8679  1.5505  0.1271
  490MOL0     H67594   6.736  10.458  11.221 -2.8090 -0.5985  0.8226
  490MOL0     H67595   6.710  10.496  11.382  2.4865  0.6339  0.5031
  490MOL0     H67596   6.852  10.663  11.388 -0.2995 -2.3028  0.4473
  490MOL0     H67597   6.770  10.744  11.245 -0.5058  0.8258  1.4615
  490MOL0     H67598   6.971  10.529  11.253 -1.4046  0.4846  0.5763
  490MOL0     H67599   7.001  10.691  11.184  1.4416 -0.1476  1.9435
  490MOL0     H67600   5.970  10.776  11.059  0.2944 -1.1396 -0.9730
  490MOL0     H67601   5.752  10.836  10.976  0.4338 -0.0818  0.8768
  490MOL0     H67602   5.426  10.566  10.711  3.2514  1.9300  2.1118
  490MOL0     H67603   5.217  10.537  10.590  1.5607  0.4881 -2.8804
  490MOL0     H67604   5.272   9.797  10.429  2.4171 -1.2266  2.6712
  490MOL0     H67605   5.494   9.748  10.392 -0.0865 -2.1024 -1.0512
  490MOL0     H67606   5.797   9.458  10.102  0.2948 -1.2969  1.9408
  490MOL0     H67607   6.037   9.418  10.081 -1.1050  0.0153 -3.9460
  490MOL0     H67608   6.224   9.396  10.190 -3.6557  3.0152  2.5509
  490MOL0     H67609   6.387   9.461  10.152 -0.2557  1.4823 -1.5988
  490MOL0     H67610   6.374   9.438  10.380 -0.4419 -0.5575 -1.4609
  490MOL0     H67611   6.210   9.500  10.399 -0.6126  2.2951 -2.6086
  490MOL0     H67612   6.448   9.680  10.307  0.7263 -0.4643  2.3641
  490MOL0     H67613   6.277   9.726  10.353 -0.5078 -0.2763  3.4543
  490MOL0     H67614   6.412   9.801  10.530 -0.7605 -0.6224  1.4185
  490MOL0     H67615   6.511   9.644  10.533  0.6615 -1.2566 -1.7193
  490MOL0     H67616   6.181   9.528  10.758 -1.0450 -0.6703 -1.1005
  490MOL0     H67617   6.130   9.810  10.185 -0.6743 -0.9513  0.2402
  490MOL0     H67618   5.966   9.973  10.267 -0.7513  3.9393 -2.1189
  490MOL0     H67619   5.857   9.970  10.124  1.5088  3.8787  0.7890
  490MOL0     H67620   5.799   9.918  10.286  0.6483 -2.9854  0.8541
  491MOL0     O67621   4.423   8.561   8.456 -0.5201  0.7205  0.0998
  491MOL0     C67622   4.308   8.580   8.460  0.2237  0.4745  0.3742
  491MOL0     O67623   4.239   8.679   8.395 -0.0740 -0.2585 -0.3289
  491MOL0     C67624   4.296   8.768   8.300  0.0477  0.9153 -0.7134
  491MOL0     C67625   4.411   8.739   8.235  0.2997  0.5532  0.2359
  491MOL0     C67626   4.456   8.815   8.127 -0.5576  0.2166 -0.2133
  491MOL0     C67627   4.377   8.920   8.082  0.3148 -0.2749 -0.4137
  491MOL0     O67628   4.425   9.010   7.989 -0.0900  0.5297 -0.5709
  491MOL0     C67629   4.420   9.145   8.041 -0.2070 -0.0916 -0.6573
  491MOL0     C67630   4.502   9.237   7.953 -0.0687  0.4708  0.1475
  491MOL0     C67631   4.633   9.188   7.904  0.7511  0.6000 -0.2199
  491MOL0     C67632   4.732   9.313   7.891  0.5617 -0.3593  0.4236
  491MOL0     C67633   4.861   9.261   7.823  0.2255 -0.7465 -0.5215
  491MOL0     C67634   4.943   9.373   7.774  0.1291  0.0973  0.2666
  491MOL0     C67635   5.077   9.316   7.730  0.0996 -0.1520 -1.0049
  491MOL0     C67636   5.065   9.221   7.615 -0.1857  0.1463 -0.2713
  491MOL0     N67637   5.196   9.196   7.562  0.2740  0.2025 -0.5311
  491MOL0     C67638   5.288   9.111   7.618  0.2096 -0.2677 -0.8154
  491MOL0     C67639   5.389   9.100   7.526  0.4667 -0.1994 -1.1158
  491MOL0     C67640   5.514   9.019   7.535  0.5875  0.6519  0.6516
  491MOL0     C67641   5.650   9.091   7.500 -0.1331 -0.0548  0.8285
  491MOL0     C67642   5.698   9.155   7.630  0.2116 -1.2749 -0.2341
  491MOL0     C67643   5.837   9.223   7.612  0.0937  0.7608  0.0077
  491MOL0     O67644   5.945   9.133   7.589  0.0794  0.3051  1.1489
  491MOL0     C67645   6.059   9.168   7.518  0.0851 -0.5868  0.6340
  491MOL0     C67646   6.141   9.269   7.569  0.9547  0.3098  0.9657
  491MOL0     C67647   6.255   9.304   7.502 -0.5892  0.4406 -0.7837
  491MOL0     C67648   6.337   9.418   7.550  0.6110 -0.9525  0.2544
  491MOL0     C67649   6.292   9.244   7.373  0.8106  0.4576 -0.1881
  491MOL0     C67650   6.416   9.271   7.290 -0.2129 -0.4121 -0.1716
  491MOL0     O67651   6.437   9.212   7.173  0.1956 -0.1776 -0.1894
  491MOL0     C67652   6.561   9.217   7.115 -2.1515 -0.3512 -0.2175
  491MOL0     C67653   6.570   9.251   6.985 -0.0948  0.3184 -0.1423
  491MOL0     C67654   6.693   9.270   6.921  0.4916 -0.5750 -0.5952
  491MOL0     C67655   6.809   9.243   6.985  0.3322  0.3814 -0.4381
  491MOL0     O67656   6.914   9.221   6.896 -0.8470 -0.6605  0.7641
  491MOL0     C67657   7.025   9.303   6.941 -0.8226  0.4388  0.1782
  491MOL0     C67658   7.142   9.204   6.979 -0.6528 -0.4241 -0.1502
  491MOL0     C67659   7.233   9.188   6.849 -0.5084  1.2700  0.8470
  491MOL0     C67660   7.291   9.044   6.834  0.9161  0.6636  0.9732
  491MOL0     C67661   7.385   9.017   6.706  0.2550  0.5112  0.4358
  491MOL0     C67662   7.509   9.102   6.716  0.1015 -0.2819  0.9754
  491MOL0     C67663   7.619   9.053   6.619  0.3804 -0.1367 -0.0381
  491MOL0     C67664   7.584   9.081   6.477  0.5564  0.0084  1.2171
  491MOL0    Cl67665   7.728   9.089   6.362  0.0210 -0.3865  0.1921
  491MOL0     C67666   6.804   9.191   7.115 -0.5802 -0.7846 -0.0697
  491MOL0     C67667   6.683   9.175   7.180  0.5076  0.1040  0.1335
  491MOL0     O67668   6.494   9.357   7.332 -0.0437 -0.8595  0.3211
  491MOL0     C67669   6.213   9.134   7.330 -0.6625 -0.3860  0.2692
  491MOL0     C67670   6.099   9.099   7.399  1.1105 -0.1508  0.6482
  491MOL0     N67671   5.352   9.177   7.420 -0.5048  0.4199 -0.2636
  491MOL0     N67672   5.238   9.237   7.440  0.2800  0.3902  0.3766
  491MOL0     C67673   4.247   8.944   8.141  0.1845 -0.6338 -0.2323
  491MOL0     C67674   4.208   8.861   8.250  0.0486 -0.3392 -0.0222
  491MOL0     C67675   4.232   8.487   8.556 -0.1565  1.0364 -0.3417
  491MOL0     C67676   4.103   8.528   8.594  0.0784 -0.1619  0.1165
  491MOL0     C67677   4.024   8.449   8.671  0.1644 -0.1535  0.2906
  491MOL0     C67678   4.061   8.327   8.723  0.4140 -0.2298 -0.7843
  491MOL0     O67679   3.984   8.252   8.811 -0.5115 -0.1927  0.8704
  491MOL0     C67680   3.882   8.286   8.895 -0.0224 -1.0293  0.0714
  491MOL0     C67681   3.868   8.174   9.006 -0.5055  0.1455 -1.1062
  491MOL0     C67682   3.786   8.060   8.953  0.2178  0.7877  0.4624
  491MOL0     C67683   3.834   8.016   8.815 -0.7130  0.2435 -0.2267
  491MOL0     C67684   3.774   7.884   8.783 -0.3465  0.0122 -0.4391
  491MOL0     C67685   3.714   7.776   8.758 -1.0575  0.7890  0.1946
  491MOL0     C67686   4.192   8.283   8.684 -0.2922  0.3073  0.9180
  491MOL0     C67687   4.277   8.360   8.601  0.8697 -0.2530 -0.1387
  491MOL0     C67688   4.417   8.301   8.568 -1.8276 -0.2690  0.9993
  491MOL0     H67689   4.472   8.653   8.260 -0.8464  0.0778  1.5247
  491MOL0     H67690   4.543   8.785   8.069 -0.3882  0.9921 -0.3589
  491MOL0     H67691   4.465   9.140   8.140 -1.1193 -3.3876 -0.3020
  491MOL0     H67692   4.315   9.176   8.050  0.0503  0.2390  4.2490
  491MOL0     H67693   4.444   9.275   7.869  0.4192  1.8715  0.4132
  491MOL0     H67694   4.515   9.324   8.018  1.7063  2.9473 -3.2179
  491MOL0     H67695   4.677   9.128   7.984 -1.3339  1.5220  1.7546
  491MOL0     H67696   4.630   9.135   7.809  3.3348  0.4270 -0.2836
  491MOL0     H67697   4.691   9.385   7.819 -4.2729 -0.5042  2.5958
  491MOL0     H67698   4.744   9.369   7.984 -1.1950  1.7802 -0.5438
  491MOL0     H67699   4.843   9.197   7.736  1.5368 -1.4400 -0.3154
  491MOL0     H67700   4.924   9.213   7.898 -1.5128  0.0714  1.5630
  491MOL0     H67701   4.895   9.432   7.695  2.7214  0.7583 -0.9296
  491MOL0     H67702   4.959   9.439   7.859  1.2066 -1.4040  1.2625
  491MOL0     H67703   5.139   9.278   7.812  0.6044 -0.4228 -1.5113
  491MOL0     H67704   5.126   9.406   7.692  1.9674 -1.6256 -2.2318
  491MOL0     H67705   5.014   9.126   7.633  0.7979 -0.3757 -0.2105
  491MOL0     H67706   5.006   9.273   7.538 -2.3117 -3.8892 -1.7126
  491MOL0     H67707   5.283   9.048   7.706  1.2963 -0.3982 -0.8233
  491MOL0     H67708   5.496   8.933   7.469  0.1225  2.4071 -1.6317
  491MOL0     H67709   5.510   8.982   7.638 -0.4011 -0.4305  0.2529
  491MOL0     H67710   5.730   9.022   7.474 -0.6553 -1.9669  3.7975
  491MOL0     H67711   5.636   9.167   7.422 -4.2619  0.2090  1.5593
  491MOL0     H67712   5.618   9.222   7.662  0.4247 -1.1462  0.0359
  491MOL0     H67713   5.717   9.084   7.712  0.5174 -2.6865 -1.4786
  491MOL0     H67714   5.841   9.262   7.510  3.2389 -5.0652 -2.6124
  491MOL0     H67715   5.861   9.299   7.687 -1.8666  2.1579 -0.6907
  491MOL0     H67716   6.105   9.314   7.661 -3.1112 -2.4632  1.0250
  491MOL0     H67717   6.284   9.474   7.628  1.3521  1.8187 -1.0938
  491MOL0     H67718   6.357   9.493   7.473  1.0347 -3.6849 -2.4884
  491MOL0     H67719   6.438   9.386   7.575  1.5437  0.7190 -1.1392
  491MOL0     H67720   6.477   9.284   6.940 -0.4792  1.7496  1.5959
  491MOL0     H67721   6.690   9.312   6.821 -1.5776  0.9790  0.0496
  491MOL0     H67722   7.068   9.367   6.863 -0.5944 -0.8166 -0.7532
  491MOL0     H67723   7.012   9.369   7.027  3.4402 -0.7586  1.9669
  491MOL0     H67724   7.204   9.256   7.053  0.3650  3.0077 -3.1510
  491MOL0     H67725   7.099   9.110   7.015  0.0566 -1.1893 -1.2337
  491MOL0     H67726   7.311   9.264   6.858  3.2868 -2.0337 -0.9580
  491MOL0     H67727   7.179   9.202   6.755  0.6173  0.7866  0.1061
  491MOL0     H67728   7.207   8.975   6.826  1.4432  0.1443 -0.3163
  491MOL0     H67729   7.341   9.024   6.929 -2.0162  1.8926  2.9415
  491MOL0     H67730   7.418   8.913   6.710 -1.1950 -0.0837 -1.5812
  491MOL0     H67731   7.344   9.040   6.607  5.2478 -1.4208 -2.4715
  491MOL0     H67732   7.553   9.107   6.816 -1.6809  0.1880  1.7601
  491MOL0     H67733   7.479   9.199   6.675  0.9506 -0.3273  0.2068
  491MOL0     H67734   7.641   8.947   6.638  0.5000 -0.9104 -3.8266
  491MOL0     H67735   7.706   9.116   6.640  0.9094 -1.1760  1.0263
  491MOL0     H67736   7.526   9.174   6.466  0.6101  0.0604  1.3688
  491MOL0     H67737   7.518   8.997   6.454 -0.8362  0.8085  2.1818
  491MOL0     H67738   6.896   9.146   7.148 -0.2240  1.1262  1.7662
  491MOL0     H67739   6.673   9.148   7.284 -1.0273  4.2150  1.2699
  491MOL0     H67740   6.239   9.083   7.239 -0.3455  1.3432 -0.6596
  491MOL0     H67741   6.030   9.024   7.363 -1.1332  2.5489 -1.0830
  491MOL0     H67742   4.188   9.022   8.095 -1.3632  0.4117  3.2685
  491MOL0     H67743   4.106   8.861   8.286  0.0825 -1.6851  0.0902
  491MOL0     H67744   4.066   8.629   8.579 -0.4710 -0.3882 -0.0636
  491MOL0     H67745   3.931   8.488   8.711 -0.7924 -0.9190 -1.1102
  491MOL0     H67746   3.901   8.380   8.949  3.5778 -1.8015  0.4289
  491MOL0     H67747   3.782   8.290   8.852 -0.0847  0.5586  0.3095
  491MOL0     H67748   3.828   8.225   9.094 -1.6384  0.6664 -1.9026
  491MOL0     H67749   3.962   8.126   9.033 -2.2496 -2.8951  0.1836
  491MOL0     H67750   3.803   7.973   9.018  1.2416  2.2891  2.3304
  491MOL0     H67751   3.680   8.084   8.944 -0.3993 -1.0136  2.1434
  491MOL0     H67752   3.939   7.988   8.829 -0.2058  0.0430 -3.6987
  491MOL0     H67753   3.819   8.083   8.730 -1.3537 -1.3513 -1.4199
  491MOL0     H67754   3.664   7.682   8.748 -1.2403  1.0913 -2.3942
  491MOL0     H67755   4.232   8.196   8.734 -0.5927 -0.0781  0.4903
  491MOL0     H67756   4.460   8.313   8.468  1.8893 -0.4463  2.4421
  491MOL0     H67757   4.496   8.322   8.640 -0.0729  0.9347 -1.1422
  491MOL0     H67758   4.409   8.192   8.575  0.6013 -0.8404 -2.4657
  492MOL0     O67759   6.789   0.043  11.123  0.6159 -0.7841  0.6561
  492MOL0     C67760   6.830   0.162  11.098 -0.1316  0.4531  0.3898
  492MOL0     O67761   6.751   0.278  11.093  0.2741  0.3558  0.1151
  492MOL0     C67762   6.622   0.258  11.128  0.7651  0.4001 -0.5217
  492MOL0     C67763   6.524   0.321  11.039  1.1109 -0.1310 -1.2526
  492MOL0     C67764   6.389   0.295  11.057 -0.2064 -0.0295  0.3006
  492MOL0     C67765   6.338   0.211  11.148  0.0810 -0.4143 -0.2933
  492MOL0     O67766   6.204   0.167  11.138  0.4898  0.2508  0.3315
  492MOL0     C67767   6.160   0.060  11.221  0.1604  0.1248 -0.4611
  492MOL0     C67768   6.027   0.002  11.173  0.3394 -0.2898 -0.8268
  492MOL0     C67769   5.924   0.110  11.157 -0.7610  0.4454  0.9853
  492MOL0     C67770   5.777   0.067  11.131 -0.2901  1.0801  0.5305
  492MOL0     C67771   5.680   0.175  11.088  0.2523 -0.5929  0.6033
  492MOL0     C67772   5.579   0.113  10.997  0.7659 -0.2433  0.2612
  492MOL0     C67773   5.503  -0.010  11.066  0.2639 -1.0972  0.5149
  492MOL0     C67774   5.367  -0.042  10.991  0.1385 -0.2361 -0.0472
  492MOL0     N67775   5.280  -0.147  11.054  0.7431 -0.0592  0.0308
  492MOL0     C67776   5.204  -0.135  11.163 -0.0144  0.6742 -0.2691
  492MOL0     C67777   5.165  -0.269  11.185 -0.1164 -0.5529 -0.6198
  492MOL0     C67778   5.075  -0.301  11.297  0.6564 -0.0728  0.4096
  492MOL0     C67779   5.134  -0.337  11.433 -0.8502  0.3801  0.8107
  492MOL0     C67780   5.098  -0.243  11.539 -0.6604 -0.4987  0.3349
  492MOL0     C67781   5.173  -0.266  11.670 -0.5419  0.2447 -0.4758
  492MOL0     O67782   5.112  -0.376  11.746  0.1378  0.2522  0.4147
  492MOL0     C67783   4.986  -0.368  11.807 -0.3443  0.0966 -0.2576
  492MOL0     C67784   4.948  -0.479  11.890 -1.2040  0.7149  0.0675
  492MOL0     C67785   4.827  -0.475  11.958 -0.4336 -0.0257 -0.4356
  492MOL0     C67786   4.799  -0.579  12.066  0.2282  0.9716  0.3738
  492MOL0     C67787   4.753  -0.361  11.936  0.5207  0.1334  0.0385
  492MOL0     C67788   4.622  -0.347  11.993  0.2026 -0.0742  0.0428
  492MOL0     O67789   4.538  -0.451  11.982  0.2271 -0.1674  0.7640
  492MOL0     C67790   4.403  -0.454  12.040 -0.3066  0.0728  0.5293
  492MOL0     C67791   4.335  -0.569  12.008 -0.0392  0.0456 -0.3062
  492MOL0     C67792   4.221  -0.612  12.061 -0.3101  0.0575 -0.2547
  492MOL0     C67793   4.149  -0.522  12.137 -0.0712 -0.5155 -0.0764
  492MOL0     O67794   4.025  -0.549  12.185 -0.1730 -0.0484  0.0412
  492MOL0     C67795   3.958  -0.460  12.266 -0.6445 -0.3722 -0.0591
  492MOL0     C67796   3.819  -0.515  12.290 -0.0789 -0.4419  0.2044
  492MOL0     C67797   3.720  -0.406  12.263  0.1663 -0.7448  0.0075
  492MOL0     C67798   3.725  -0.282  12.360 -0.1505 -0.0509 -0.3409
  492MOL0     C67799   3.624  -0.180  12.308 -1.1113 -0.6888 -0.2065
  492MOL0     C67800   3.588  -0.076  12.414 -0.7361 -0.2431 -0.6480
  492MOL0     C67801   3.490   0.031  12.356  0.5357  0.3927  0.0527
  492MOL0     C67802   3.355  -0.005  12.282  0.0005 -0.1700  0.3137
  492MOL0    Cl67803   3.244  -0.061  12.399  0.1089 -0.4945 -0.8916
  492MOL0     C67804   4.222  -0.410  12.189 -0.1955  0.3481 -0.1283
  492MOL0     C67805   4.351  -0.370  12.137  0.9143 -0.6853  0.8103
  492MOL0     O67806   4.589  -0.236  12.038 -0.0845  0.5318  0.7188
  492MOL0     C67807   4.788  -0.257  11.853  0.5922 -0.2320 -0.3371
  492MOL0     C67808   4.914  -0.261  11.794  0.3468 -0.0342  0.2614
  492MOL0     N67809   5.234  -0.353  11.098 -0.6203 -0.4456 -0.1825
  492MOL0     N67810   5.307  -0.275  11.032 -0.1871 -0.3757  0.8751
  492MOL0     C67811   6.428   0.159  11.237  0.1508  0.5674  0.3281
  492MOL0     C67812   6.567   0.184  11.228 -0.1768 -0.4230 -0.1310
  492MOL0     C67813   6.963   0.162  11.045 -1.0029 -0.1971 -0.6983
  492MOL0     C67814   6.989   0.260  10.950 -0.2929  0.2361 -0.9853
  492MOL0     C67815   7.123   0.286  10.909 -0.2502  0.3625 -1.0121
  492MOL0     C67816   7.234   0.209  10.949 -0.0497  0.6128  0.2579
  492MOL0     O67817   7.365   0.237  10.925 -0.5218 -0.0311  0.2405
  492MOL0     C67818   7.384   0.356  10.855 -0.2760 -0.8572 -0.3444
  492MOL0     C67819   7.538   0.402  10.857  0.6604  0.0442 -0.1620
  492MOL0     C67820   7.622   0.396  10.991 -0.6443  0.0244 -0.5363
  492MOL0     C67821   7.757   0.467  10.975  0.4277 -1.2768  0.0893
  492MOL0     C67822   7.755   0.608  11.002  0.4161  0.2764  0.5051
  492MOL0     C67823   7.749   0.725  11.013 -0.7147  0.0157 -0.2689
  492MOL0     C67824   7.205   0.107  11.035  0.9500 -0.3812 -0.1657
  492MOL0     C67825   7.074   0.071  11.080 -0.5763  0.2624  0.7325
  492MOL0     C67826   7.059  -0.040  11.184 -0.8858  0.1566 -0.4026
  492MOL0     H67827   6.547   0.391  10.960  2.5834 -0.4657 -1.1453
  492MOL0     H67828   6.313   0.357  11.010 -2.2212 -1.5532  1.3818
  492MOL0     H67829   6.152   0.104  11.321 -1.9600  1.2923 -1.0918
  492MOL0     H67830   6.230  -0.024  11.219  0.4458  0.3788 -1.3234
  492MOL0     H67831   6.038  -0.039  11.072 -0.2226  1.3401 -1.5900
  492MOL0     H67832   5.988  -0.068  11.248 -0.8001 -0.3395 -1.4350
  492MOL0     H67833   5.925   0.182  11.240 -0.9109  1.0682  0.4548
  492MOL0     H67834   5.942   0.168  11.066 -0.2854  1.2306  1.5726
  492MOL0     H67835   5.774  -0.009  11.053  5.7000  0.6756  0.2680
  492MOL0     H67836   5.739   0.024  11.224  1.1573 -0.2213  0.5613
  492MOL0     H67837   5.714   0.267  11.040 -0.5803 -0.4304  0.3129
  492MOL0     H67838   5.633   0.205  11.182 -0.5224 -2.9612  1.0415
  492MOL0     H67839   5.506   0.192  10.978 -0.3606 -1.3860 -0.2995
  492MOL0     H67840   5.617   0.089  10.898 -0.5655 -0.1347 -0.2951
  492MOL0     H67841   5.484   0.019  11.169 -0.9749  1.1442 -0.2858
  492MOL0     H67842   5.569  -0.096  11.082  2.9852  0.7002 -0.4898
  492MOL0     H67843   5.319   0.056  10.991  2.1562  0.8285  0.6532
  492MOL0     H67844   5.382  -0.065  10.885 -1.9753  1.6944 -0.8469
  492MOL0     H67845   5.195  -0.039  11.212 -0.1312  0.1896  0.6697
  492MOL0     H67846   5.009  -0.380  11.262 -2.1262  1.3728  1.9781
  492MOL0     H67847   5.015  -0.210  11.301  0.7676  0.1198 -1.5455
  492MOL0     H67848   5.105  -0.440  11.459 -0.4517 -0.0347 -0.3036
  492MOL0     H67849   5.243  -0.337  11.433 -0.7655 -2.2673 -0.9519
  492MOL0     H67850   5.121  -0.142  11.507  1.8763 -1.1424 -0.0524
  492MOL0     H67851   4.990  -0.255  11.552 -1.0468 -0.1583 -2.1575
  492MOL0     H67852   5.277  -0.292  11.647 -0.0848 -0.3925  2.0085
  492MOL0     H67853   5.174  -0.173  11.728 -1.0100  0.5761 -0.9828
  492MOL0     H67854   5.024  -0.554  11.908 -1.4883  0.8159  1.8362
  492MOL0     H67855   4.894  -0.618  12.105  0.5642  0.6014 -0.7596
  492MOL0     H67856   4.723  -0.652  12.039 -0.5685  2.0883 -0.4816
  492MOL0     H67857   4.754  -0.521  12.147  3.2767  0.6728  2.4689
  492MOL0     H67858   4.388  -0.634  11.940  0.6333 -1.6835  1.7535
  492MOL0     H67859   4.202  -0.713  12.024  0.2581 -0.5047  0.9304
  492MOL0     H67860   4.009  -0.460  12.363  0.5867 -0.6736 -0.6841
  492MOL0     H67861   3.958  -0.357  12.229 -1.2228  0.8864  3.1324
  492MOL0     H67862   3.792  -0.599  12.225 -1.1694 -0.8619  1.1757
  492MOL0     H67863   3.810  -0.545  12.394  2.9565  0.3801  0.7957
  492MOL0     H67864   3.626  -0.458  12.283 -0.7979 -0.2647 -2.8590
  492MOL0     H67865   3.707  -0.371  12.160  0.0139  3.1678  1.1884
  492MOL0     H67866   3.827  -0.243  12.359 -0.4772  0.8388 -0.3412
  492MOL0     H67867   3.710  -0.309  12.465  3.7319  1.9098  0.9036
  492MOL0     H67868   3.657  -0.115  12.226 -1.2555 -0.2561  0.0761
  492MOL0     H67869   3.532  -0.230  12.277 -0.2619 -2.6536  0.2717
  492MOL0     H67870   3.683  -0.029  12.440 -1.7189  1.3313  0.2800
  492MOL0     H67871   3.546  -0.114  12.508  0.1932  0.8445  0.2579
  492MOL0     H67872   3.557   0.089  12.292  2.0673  0.4656  1.6440
  492MOL0     H67873   3.457   0.098  12.435 -0.5308 -0.2233  0.1558
  492MOL0     H67874   3.371  -0.079  12.202 -2.9923  0.7221 -1.2620
  492MOL0     H67875   3.312   0.083  12.234 -0.1267  1.4451  3.2015
  492MOL0     H67876   4.177  -0.359  12.274 -1.0166 -1.5938  0.6583
  492MOL0     H67877   4.413  -0.285  12.163 -2.0403  2.2718 -1.1400
  492MOL0     H67878   4.713  -0.179  11.843  0.0378 -0.6283  0.6087
  492MOL0     H67879   4.951  -0.175  11.740 -0.1685 -0.2398 -0.4418
  492MOL0     H67880   6.399   0.076  11.300 -2.2080  0.3329 -0.9325
  492MOL0     H67881   6.620   0.130  11.307 -4.0077 -2.3546  1.4001
  492MOL0     H67882   6.911   0.322  10.908 -0.7647 -0.9660 -1.9456
  492MOL0     H67883   7.145   0.371  10.846  1.7206  0.6233 -0.0740
  492MOL0     H67884   7.352   0.360  10.750 -1.6221  1.1380  0.0950
  492MOL0     H67885   7.336   0.434  10.914 -1.3203 -0.4209 -1.7100
  492MOL0     H67886   7.560   0.500  10.814 -1.3772  0.2336 -0.9109
  492MOL0     H67887   7.577   0.326  10.788 -3.9147 -2.1643 -0.7157
  492MOL0     H67888   7.567   0.428  11.080  2.3920  0.2216  1.4450
  492MOL0     H67889   7.647   0.290  11.004  0.8873  0.4933  0.7031
  492MOL0     H67890   7.793   0.438  10.876 -1.1953 -0.3437 -0.8072
  492MOL0     H67891   7.818   0.436  11.061  2.5532  2.3723  0.0725
  492MOL0     H67892   7.755   0.831  11.029  0.7059  0.1430 -1.4350
  492MOL0     H67893   7.292   0.064  11.082 -0.2832 -0.2999  2.3813
  492MOL0     H67894   7.041  -0.006  11.286 -1.7076  0.4352 -0.6378
  492MOL0     H67895   6.979  -0.111  11.167 -0.4945  0.1802 -2.6819
  492MOL0     H67896   7.161  -0.080  11.179  1.1641  4.5637  0.9456
  493MOL0     O67897   3.659   9.406   3.587 -0.4189  0.1050 -0.7482
  493MOL0     C67898   3.715   9.296   3.590 -0.0480 -0.7807 -0.3480
  493MOL0     O67899   3.801   9.242   3.493  0.3166 -0.6605  0.3371
  493MOL0     C67900   3.768   9.271   3.358 -0.4326 -0.5149 -0.2207
  493MOL0     C67901   3.885   9.273   3.273 -0.0264 -0.2385 -1.6201
  493MOL0     C67902   3.868   9.309   3.142 -1.0755 -0.5153  0.8933
  493MOL0     C67903   3.743   9.341   3.093 -0.3293 -0.3489 -0.3302
  493MOL0     O67904   3.711   9.393   2.971  0.4098 -1.2200  0.6194
  493MOL0     C67905   3.821   9.417   2.865  1.7438 -0.5193  0.0933
  493MOL0     C67906   3.754   9.460   2.728  0.1279  0.0428 -0.7024
  493MOL0     C67907   3.828   9.437   2.596  0.6349  0.0109  0.2245
  493MOL0     C67908   3.744   9.497   2.484 -0.3893  0.1786  0.0940
  493MOL0     C67909   3.828   9.513   2.357 -0.8175  0.4933 -0.0965
  493MOL0     C67910   3.743   9.593   2.250 -1.2673  0.0334  0.4950
  493MOL0     C67911   3.812   9.587   2.111  0.6709  0.8042 -0.1410
  493MOL0     C67912   3.947   9.656   2.076 -0.2879  0.0893 -0.3054
  493MOL0     N67913   3.956   9.663   1.925  1.1231  0.7699  0.1679
  493MOL0     C67914   3.967   9.547   1.852  0.5486  0.2458  0.1189
  493MOL0     C67915   4.005   9.587   1.728  0.3891 -0.0355 -0.6408
  493MOL0     C67916   4.037   9.505   1.606 -0.6363  0.3857 -0.1785
  493MOL0     C67917   4.179   9.434   1.622  0.4149  0.7770  0.2200
  493MOL0     C67918   4.298   9.529   1.601 -0.0491  0.7412 -0.3962
  493MOL0     C67919   4.429   9.450   1.567  0.1917  0.8644  0.4660
  493MOL0     O67920   4.545   9.511   1.625  0.3120 -0.5124 -0.4622
  493MOL0     C67921   4.674   9.460   1.624  0.2600 -0.7299 -0.8230
  493MOL0     C67922   4.728   9.392   1.524 -0.8677  0.3934  1.0780
  493MOL0     C67923   4.853   9.341   1.518 -0.5483  0.8578 -1.5106
  493MOL0     C67924   4.904   9.263   1.397  0.4075  0.8633  0.3899
  493MOL0     C67925   4.943   9.390   1.619  0.1279 -0.2278 -0.0720
  493MOL0     C67926   5.091   9.357   1.632  1.1985  0.0167  0.5863
  493MOL0     O67927   5.159   9.438   1.718 -0.4472  0.2517  0.7165
  493MOL0     C67928   5.238   9.382   1.816  0.0612 -0.8134  0.2375
  493MOL0     C67929   5.172   9.292   1.905 -0.7939  1.0363 -0.4831
  493MOL0     C67930   5.243   9.240   2.014  0.4578  0.1105  0.4857
  493MOL0     C67931   5.374   9.260   2.033 -0.5151  0.4682 -0.3433
  493MOL0     O67932   5.431   9.201   2.147  0.2434 -0.0355  0.4367
  493MOL0     C67933   5.577   9.213   2.169 -0.3033 -0.2632  0.1288
  493MOL0     C67934   5.625   9.137   2.293 -0.6140 -1.3120  0.1464
  493MOL0     C67935   5.574   8.995   2.303  0.6745 -0.3427 -1.1745
  493MOL0     C67936   5.643   8.886   2.233 -0.3403  0.1424 -0.2531
  493MOL0     C67937   5.598   8.747   2.290 -0.9946  0.3490  0.2446
  493MOL0     C67938   5.727   8.675   2.326 -0.2076  0.4629 -0.3428
  493MOL0     C67939   5.701   8.538   2.397 -0.4125 -0.2087  0.5322
  493MOL0     C67940   5.656   8.425   2.295 -0.4471 -0.6683 -0.6334
  493MOL0    Cl67941   5.655   8.275   2.396 -0.4107 -0.0817  0.2448
  493MOL0     C67942   5.436   9.355   1.956  0.2160  0.2257  0.5026
  493MOL0     C67943   5.376   9.412   1.845 -0.3379 -0.5058 -0.6243
  493MOL0     O67944   5.145   9.260   1.577  0.4371  0.0159  0.6740
  493MOL0     C67945   4.894   9.478   1.727  0.8765  0.4997  0.5310
  493MOL0     C67946   4.755   9.502   1.726  0.0777 -0.3582 -0.4602
  493MOL0     N67947   3.997   9.722   1.724 -0.0298 -1.0146  0.8079
  493MOL0     N67948   3.971   9.768   1.843 -0.2830  0.3749 -0.3307
  493MOL0     C67949   3.638   9.328   3.173 -0.3306 -0.6803  0.0651
  493MOL0     C67950   3.644   9.281   3.300 -0.8199 -0.9796 -0.2207
  493MOL0     C67951   3.702   9.214   3.720  0.1063  1.3647  0.1942
  493MOL0     C67952   3.711   9.077   3.718 -0.0261  0.9346 -0.0483
  493MOL0     C67953   3.702   8.996   3.830  1.1598  0.2058  0.1951
  493MOL0     C67954   3.657   9.056   3.955 -1.0373 -0.2903  0.5485
  493MOL0     O67955   3.639   8.978   4.069 -0.4372  0.6434 -0.0173
  493MOL0     C67956   3.561   9.029   4.184  0.3299  0.5939 -0.5886
  493MOL0     C67957   3.419   9.074   4.150 -0.4942  0.3545  0.2988
  493MOL0     C67958   3.348   8.967   4.063  0.9626  0.5174  0.3365
  493MOL0     C67959   3.203   9.006   4.024  0.0614  0.0060  0.0110
  493MOL0     C67960   3.126   8.997   4.154 -1.0544  0.0471 -0.3437
  493MOL0     C67961   3.054   8.979   4.251 -0.7804  0.3580 -0.7319
  493MOL0     C67962   3.654   9.192   3.959  0.5856  0.7516  0.0777
  493MOL0     C67963   3.665   9.271   3.850  1.1894 -0.5471 -0.2891
  493MOL0     C67964   3.673   9.410   3.874  0.3411 -0.3416 -0.6355
  493MOL0     H67965   3.987   9.263   3.310 -0.3087  3.2386  0.5877
  493MOL0     H67966   3.960   9.311   3.084 -0.7579 -0.5235  1.3958
  493MOL0     H67967   3.875   9.326   2.839  3.2302 -0.7850  3.6037
  493MOL0     H67968   3.900   9.490   2.885  1.3531  1.0803 -3.4386
  493MOL0     H67969   3.655   9.417   2.713  0.0014 -1.6416  3.6287
  493MOL0     H67970   3.734   9.567   2.719  0.9168  0.1443 -1.3753
  493MOL0     H67971   3.929   9.479   2.604  0.9351 -0.3475 -1.2806
  493MOL0     H67972   3.837   9.330   2.576  0.8519  0.0364  0.1817
  493MOL0     H67973   3.666   9.421   2.480 -0.6449  0.4107  0.6787
  493MOL0     H67974   3.702   9.591   2.522 -1.2342  0.1890 -0.8277
  493MOL0     H67975   3.845   9.412   2.317 -2.6541  0.8000 -1.8180
  493MOL0     H67976   3.929   9.546   2.383 -1.2218  1.1248  0.6881
  493MOL0     H67977   3.645   9.547   2.242 -1.3856  0.5481 -2.1833
  493MOL0     H67978   3.744   9.700   2.275  1.1090  0.6337 -1.6231
  493MOL0     H67979   3.739   9.616   2.034 -1.4487  0.4482  1.6429
  493MOL0     H67980   3.826   9.481   2.088  0.0395 -0.3108  3.8659
  493MOL0     H67981   3.937   9.762   2.102 -5.6321 -0.0348 -0.7614
  493MOL0     H67982   4.033   9.602   2.117 -2.4691 -2.3602  1.3324
  493MOL0     H67983   3.965   9.445   1.888 -0.4630  0.6594  1.3335
  493MOL0     H67984   4.037   9.561   1.512 -0.1146  0.5242 -0.0973
  493MOL0     H67985   3.958   9.430   1.593 -4.9007  4.2937  0.7839
  493MOL0     H67986   4.185   9.377   1.715 -0.8129 -0.1847 -0.2497
  493MOL0     H67987   4.179   9.366   1.536 -0.8890  1.8184 -0.6455
  493MOL0     H67988   4.273   9.609   1.531 -2.7125  1.1212  0.8659
  493MOL0     H67989   4.317   9.564   1.703 -1.6065 -2.5590  1.2131
  493MOL0     H67990   4.426   9.346   1.600  2.6923  1.4428  3.0203
  493MOL0     H67991   4.439   9.452   1.458  0.0055  2.6398  0.4467
  493MOL0     H67992   4.661   9.365   1.443 -1.7577  0.5436  1.7486
  493MOL0     H67993   4.913   9.158   1.428  0.5889  0.9623  0.6718
  493MOL0     H67994   4.996   9.304   1.356  0.4838  0.5971  0.2951
  493MOL0     H67995   4.836   9.260   1.311  3.2717 -0.4780 -2.0265
  493MOL0     H67996   5.064   9.285   1.902 -1.6160  5.0019  4.5883
  493MOL0     H67997   5.183   9.182   2.083  0.4725  0.4903  0.8230
  493MOL0     H67998   5.634   9.179   2.082  2.9847  1.0162  1.6228
  493MOL0     H67999   5.603   9.319   2.177 -2.6253  0.2245  3.5184
  493MOL0     H68000   5.732   9.145   2.311 -0.9328 -0.9470  2.0786
  493MOL0     H68001   5.590   9.197   2.378  3.8436  1.5401  0.2672
  493MOL0     H68002   5.470   8.994   2.268  0.4712 -2.4110 -0.6381
  493MOL0     H68003   5.569   8.974   2.410 -0.4287  1.2738 -0.8797
  493MOL0     H68004   5.752   8.897   2.236 -0.3379  1.2305 -2.5517
  493MOL0     H68005   5.635   8.885   2.124  0.4397 -2.6232 -0.3612
  493MOL0     H68006   5.539   8.757   2.381 -1.3543 -2.1781  0.3401
  493MOL0     H68007   5.536   8.684   2.226 -0.2059 -3.9172  3.2703
  493MOL0     H68008   5.775   8.738   2.401 -0.5802  1.1433 -0.6641
  493MOL0     H68009   5.803   8.663   2.248 -2.1125 -3.8375 -1.8288
  493MOL0     H68010   5.640   8.539   2.488 -1.3234  2.5898  0.0099
  493MOL0     H68011   5.794   8.504   2.443 -0.0504 -1.2028 -0.8532
  493MOL0     H68012   5.715   8.429   2.202 -2.4483  0.2011 -1.9375
  493MOL0     H68013   5.552   8.438   2.264 -1.0135 -2.2756  0.4297
  493MOL0     H68014   5.544   9.365   1.959  0.3689 -1.3400  2.4773
  493MOL0     H68015   5.437   9.483   1.789 -3.0420  3.1951  0.6601
  493MOL0     H68016   4.961   9.526   1.798  2.4150 -0.3967 -0.2735
  493MOL0     H68017   4.708   9.567   1.798  1.4052 -0.4110  0.4904
  493MOL0     H68018   3.547   9.367   3.128  1.1778  2.1692 -0.7489
  493MOL0     H68019   3.553   9.265   3.358 -2.8372  0.1426 -2.9011
  493MOL0     H68020   3.732   9.015   3.631 -0.0440 -2.8239  2.4020
  493MOL0     H68021   3.727   8.891   3.820 -1.5760 -0.4010 -1.3117
  493MOL0     H68022   3.549   8.946   4.254  4.0818  0.2737 -0.1465
  493MOL0     H68023   3.614   9.108   4.238 -1.5721  2.0681 -0.7705
  493MOL0     H68024   3.412   9.174   4.107 -1.8061 -1.2551 -3.7758
  493MOL0     H68025   3.365   9.087   4.244 -1.2620  1.7573 -0.3179
  493MOL0     H68026   3.406   8.942   3.973  2.1353 -0.7462  1.3882
  493MOL0     H68027   3.340   8.873   4.119 -1.5969 -0.0133 -0.7777
  493MOL0     H68028   3.177   8.928   3.953  0.1292 -2.5419  2.5812
  493MOL0     H68029   3.201   9.109   3.987  1.2288  0.3827  0.9512
  493MOL0     H68030   2.988   8.946   4.328  1.3451 -0.6365  0.7734
  493MOL0     H68031   3.626   9.239   4.052 -0.5743 -1.1976  0.7545
  493MOL0     H68032   3.575   9.458   3.868  0.0614 -0.1161  3.1744
  493MOL0     H68033   3.712   9.430   3.974 -0.8753 -0.3069 -0.1446
  493MOL0     H68034   3.741   9.467   3.810  0.2217 -0.2466 -0.6769
  494MOL0     O68035   5.718  10.406   7.000  0.6634 -0.9590  0.6258
  494MOL0     C68036   5.788  10.476   7.070  0.5280 -0.6884 -0.0660
  494MOL0     O68037   5.924  10.472   7.075  0.5813 -0.1499  0.3394
  494MOL0     C68038   6.002  10.376   7.017 -0.3679  0.0097  0.0595
  494MOL0     C68039   5.973  10.281   6.929 -0.1634  0.6843 -0.1936
  494MOL0     C68040   6.067  10.180   6.893  0.6025  0.8206 -1.1223
  494MOL0     C68041   6.194  10.169   6.943 -0.3918  0.7145  0.0918
  494MOL0     O68042   6.269  10.078   6.877 -0.1513 -0.2580  0.1089
  494MOL0     C68043   6.414  10.087   6.886 -0.5184 -0.6636  0.1560
  494MOL0     C68044   6.454  10.205   6.801 -0.1705 -0.7522  0.7337
  494MOL0     C68045   6.452  10.176   6.653  0.1859  0.3662  0.6607
  494MOL0     C68046   6.476  10.304   6.568 -0.2576 -0.5258  0.4333
  494MOL0     C68047   6.393  10.318   6.446  1.0600 -0.3129  0.5942
  494MOL0     C68048   6.437  10.439   6.358  0.4495  0.3365  0.5480
  494MOL0     C68049   6.397  10.577   6.417 -0.8006 -0.3413  0.4855
  494MOL0     C68050   6.255  10.604   6.402 -0.9132  0.7945 -0.0459
  494MOL0     N68051   6.227  10.746   6.413  0.2652 -0.1444 -0.1131
  494MOL0     C68052   6.254  10.827   6.309 -0.7316 -0.6073 -0.1884
  494MOL0     C68053   6.172  10.929   6.309 -0.8436 -0.2876 -0.4636
  494MOL0     C68054   6.185  11.046   6.220 -0.6071 -0.0632 -0.3206
  494MOL0     C68055   6.213  11.158   6.322 -0.6554  1.2057 -0.0803
  494MOL0     C68056   6.233  11.294   6.265 -0.5817 -0.1128  0.8643
  494MOL0     C68057   6.276  11.391   6.359  1.0999 -0.1919 -0.7645
  494MOL0     O68058   6.296  11.523   6.288  0.6355  0.6081 -0.4712
  494MOL0     C68059   6.427  11.563   6.273 -0.4914  0.2758 -0.1093
  494MOL0     C68060   6.469  11.556   6.146  0.5522  0.0895  0.8623
  494MOL0     C68061   6.599  11.589   6.106  0.0760  0.2271 -0.4346
  494MOL0     C68062   6.625  11.582   5.954  1.5500 -0.4346  0.7292
  494MOL0     C68063   6.689  11.653   6.199  0.3904  0.1846  1.3764
  494MOL0     C68064   6.810  11.727   6.156 -0.2376  0.2291 -0.3855
  494MOL0     O68065   6.892  11.766   6.258 -0.2040 -0.1380  0.8880
  494MOL0     C68066   7.020  11.796   6.209  1.7591  0.1260  0.3823
  494MOL0     C68067   7.106  11.688   6.187 -0.8178 -0.6667 -0.0701
  494MOL0     C68068   7.228  11.713   6.127 -0.7806  0.5391 -0.4720
  494MOL0     C68069   7.272  11.840   6.102 -0.7200  0.2717 -0.9333
  494MOL0     O68070   7.397  11.849   6.046  1.0118  0.1946 -0.7786
  494MOL0     C68071   7.440  11.975   5.984 -0.6854 -0.0106 -1.3481
  494MOL0     C68072   7.589  11.978   5.980  0.0100  0.7365  0.6086
  494MOL0     C68073   7.637  12.083   5.876  0.3509  0.1972  0.9666
  494MOL0     C68074   7.599  12.233   5.898 -0.1007 -0.1219  0.2926
  494MOL0     C68075   7.700  12.305   6.000  0.4642  0.3201  0.4598
  494MOL0     C68076   7.840  12.330   5.940  0.7401  0.5903  0.4433
  494MOL0     C68077   7.843  12.383   5.794  0.0165  0.5646 -0.2912
  494MOL0     C68078   7.991  12.414   5.742 -0.3028  0.1437 -0.3198
  494MOL0    Cl68079   7.973  12.482   5.582  0.3274 -0.4023  0.0394
  494MOL0     C68080   7.190  11.949   6.131  0.1755 -0.9951 -0.3487
  494MOL0     C68081   7.068  11.926   6.189 -0.0004 -0.3039  0.8346
  494MOL0     O68082   6.827  11.762   6.033 -0.0661 -0.6018 -0.4127
  494MOL0     C68083   6.642  11.665   6.334 -0.0847  0.0660 -0.5146
  494MOL0     C68084   6.509  11.624   6.364 -0.2444 -0.3566  0.7844
  494MOL0     N68085   6.079  10.901   6.410  0.3952 -0.2611  0.0115
  494MOL0     N68086   6.120  10.802   6.475 -0.5603  0.5389  0.4753
  494MOL0     C68087   6.230  10.269   7.037  0.4115 -0.9609  0.0864
  494MOL0     C68088   6.135  10.368   7.064  0.0200 -0.4596 -0.6535
  494MOL0     C68089   5.715  10.577   7.152 -0.3215  0.3273 -1.0999
  494MOL0     C68090   5.785  10.598   7.276  0.6803 -0.3508  0.0337
  494MOL0     C68091   5.730  10.690   7.362 -1.6261  0.2777 -0.1578
  494MOL0     C68092   5.608  10.757   7.335 -0.0245  0.0161  0.3332
  494MOL0     O68093   5.564  10.851   7.428 -0.2844  0.8622 -0.1248
  494MOL0     C68094   5.496  10.963   7.412  1.0832  0.2015  0.7427
  494MOL0     C68095   5.468  11.033   7.555 -0.3148  0.5544 -0.0631
  494MOL0     C68096   5.367  11.143   7.547  0.4160 -0.3207  0.4743
  494MOL0     C68097   5.288  11.154   7.680  0.7147  0.8148  1.0808
  494MOL0     C68098   5.370  11.218   7.777  0.0146 -0.0370 -0.3863
  494MOL0     C68099   5.443  11.271   7.862 -0.5426 -0.6162 -0.1107
  494MOL0     C68100   5.545  10.734   7.214  0.0394  0.3065  0.0105
  494MOL0     C68101   5.592  10.646   7.116  0.2436  0.6334 -0.0701
  494MOL0     C68102   5.505  10.622   6.996 -0.3162  0.3419  0.8317
  494MOL0     H68103   5.878  10.278   6.878  0.2151 -0.1960 -0.8822
  494MOL0     H68104   6.039  10.114   6.812 -0.2339  1.4350 -1.3391
  494MOL0     H68105   6.466  10.001   6.840  2.9962  0.9260  0.7988
  494MOL0     H68106   6.451  10.087   6.989 -3.5373  4.4169  1.5782
  494MOL0     H68107   6.386  10.284   6.833  1.5251  0.1310  2.4057
  494MOL0     H68108   6.557  10.239   6.820  0.6344 -2.6413  0.0064
  494MOL0     H68109   6.536  10.107   6.639  0.8730  0.7727  2.4893
  494MOL0     H68110   6.363  10.128   6.612  0.9957 -2.8629  2.3559
  494MOL0     H68111   6.448  10.384   6.637 -2.4364 -0.6034 -0.2762
  494MOL0     H68112   6.583  10.318   6.549 -0.1409 -1.3396  0.4601
  494MOL0     H68113   6.287  10.329   6.474  0.7870 -1.1991 -0.0428
  494MOL0     H68114   6.404  10.226   6.388 -2.4223  0.7780 -2.1931
  494MOL0     H68115   6.543  10.428   6.332 -0.3021 -2.1166 -2.0529
  494MOL0     H68116   6.386  10.424   6.262  0.5651 -1.3436  0.7113
  494MOL0     H68117   6.451  10.646   6.352 -0.9268 -2.3834 -1.9259
  494MOL0     H68118   6.435  10.592   6.519  0.9533  2.7119 -0.4700
  494MOL0     H68119   6.226  10.576   6.300  0.5579 -1.2972  0.0572
  494MOL0     H68120   6.200  10.546   6.477 -2.3131  1.5862 -0.4184
  494MOL0     H68121   6.337  10.826   6.239 -0.4793 -1.4003  0.1118
  494MOL0     H68122   6.093  11.077   6.169 -0.8384  0.2868  0.3049
  494MOL0     H68123   6.266  11.034   6.148  1.7150 -2.7435  2.4238
  494MOL0     H68124   6.128  11.165   6.390 -1.1691  1.3544 -0.7307
  494MOL0     H68125   6.301  11.134   6.383 -1.5476  1.2625  1.2868
  494MOL0     H68126   6.323  11.285   6.202 -2.3578  1.6628 -2.1842
  494MOL0     H68127   6.155  11.329   6.197  1.6324  0.6459 -1.4317
  494MOL0     H68128   6.196  11.405   6.432 -0.6515 -1.9070 -2.2491
  494MOL0     H68129   6.369  11.371   6.414  1.3154  0.6084 -0.8263
  494MOL0     H68130   6.398  11.514   6.076 -2.2346 -0.0275  3.5340
  494MOL0     H68131   6.722  11.608   5.911  0.6814  1.4871 -0.1840
  494MOL0     H68132   6.558  11.655   5.908  0.7860 -0.9050  1.0735
  494MOL0     H68133   6.599  11.481   5.919  4.3616 -1.2082  0.6385
  494MOL0     H68134   7.072  11.592   6.225 -1.6744  0.3344  1.7873
  494MOL0     H68135   7.298  11.630   6.123  0.2802  1.3774  0.3407
  494MOL0     H68136   7.406  11.976   5.880 -1.8646 -0.2889 -0.9841
  494MOL0     H68137   7.408  12.057   6.050  1.7350 -0.2565  0.2510
  494MOL0     H68138   7.631  12.002   6.077 -3.7887  4.2586  1.6818
  494MOL0     H68139   7.631  11.884   5.944  0.6180  0.2713  2.4653
  494MOL0     H68140   7.590  12.060   5.780  0.7479 -1.3375  1.1093
  494MOL0     H68141   7.743  12.063   5.858  0.5181  2.5117 -1.1709
  494MOL0     H68142   7.507  12.237   5.957  1.9409  2.4822  3.7085
  494MOL0     H68143   7.587  12.288   5.804  2.8606 -1.3977 -0.9472
  494MOL0     H68144   7.667  12.405   6.028  3.7395  1.2653  1.3850
  494MOL0     H68145   7.711  12.253   6.096 -0.9461  0.6313  0.8165
  494MOL0     H68146   7.907  12.246   5.958  0.6880  0.8124  1.7110
  494MOL0     H68147   7.888  12.413   5.991  0.5994 -0.4930  2.4416
  494MOL0     H68148   7.789  12.478   5.786 -2.9083 -0.8942  0.7172
  494MOL0     H68149   7.797  12.303   5.736  0.6205 -3.3292  4.0121
  494MOL0     H68150   8.043  12.317   5.742 -1.8605 -0.7516  0.4101
  494MOL0     H68151   8.034  12.488   5.810 -2.2352  2.6937 -1.6864
  494MOL0     H68152   7.220  12.048   6.100  0.0236 -0.5612  0.8447
  494MOL0     H68153   7.001  12.003   6.226  1.2307  1.1399  0.1225
  494MOL0     H68154   6.698  11.719   6.410 -0.8907  0.0334  0.1111
  494MOL0     H68155   6.472  11.631   6.466  1.1669 -3.0373  1.5785
  494MOL0     H68156   6.333  10.272   7.072  1.8545  3.3169 -3.5726
  494MOL0     H68157   6.166  10.448   7.131 -4.5781 -0.7821  2.3325
  494MOL0     H68158   5.875  10.547   7.309  1.5513  0.3251 -1.1952
  494MOL0     H68159   5.778  10.704   7.458  0.6521 -4.0601 -0.4000
  494MOL0     H68160   5.552  11.035   7.351  1.1763 -2.3219 -2.4301
  494MOL0     H68161   5.399  10.938   7.367  2.7908 -2.7154 -1.7578
  494MOL0     H68162   5.566  11.063   7.592  0.7074 -2.5030 -0.0370
  494MOL0     H68163   5.431  10.955   7.623  1.1633  0.8675  1.1526
  494MOL0     H68164   5.423  11.234   7.520 -0.7458  0.2027 -0.2418
  494MOL0     H68165   5.309  11.126   7.456  4.5192 -0.6852 -2.4036
  494MOL0     H68166   5.260  11.057   7.722 -0.6037  0.4384 -0.5645
  494MOL0     H68167   5.196  11.208   7.657 -0.3274 -1.1395  0.3824
  494MOL0     H68168   5.505  11.328   7.928 -1.7392  1.7123 -0.8748
  494MOL0     H68169   5.449  10.782   7.193 -0.6468 -0.8883  0.3101
  494MOL0     H68170   5.464  10.521   6.988  2.7618 -0.9862  0.3569
  494MOL0     H68171   5.435  10.705   6.981  3.0763  3.3853  0.4414
  494MOL0     H68172   5.569  10.619   6.908  1.6560  0.0157  2.2157
  495MOL0     O68173   6.504   4.689   7.142  0.2901  0.2892 -0.8231
  495MOL0     C68174   6.460   4.675   7.031 -0.1585  0.7821  0.3706
  495MOL0     O68175   6.536   4.671   6.917  0.0006 -0.4505 -0.4681
  495MOL0     C68176   6.670   4.628   6.923 -0.0215  0.1023  0.2604
  495MOL0     C68177   6.775   4.685   6.852  0.0436 -0.1690  0.1784
  495MOL0     C68178   6.913   4.646   6.854  1.0944  0.0238  0.0960
  495MOL0     C68179   6.950   4.545   6.947 -0.0969 -0.5975  0.8856
  495MOL0     O68180   7.088   4.517   6.959  0.2196  0.3860 -0.3120
  495MOL0     C68181   7.144   4.496   7.095  0.7045  0.1748 -0.0187
  495MOL0     C68182   7.282   4.439   7.075  0.3790 -0.9537  0.3053
  495MOL0     C68183   7.272   4.307   7.000 -0.1908 -0.7798  0.4643
  495MOL0     C68184   7.420   4.246   6.969  0.9805 -0.3816  0.6666
  495MOL0     C68185   7.408   4.108   6.893 -0.7830  0.4188  0.3337
  495MOL0     C68186   7.545   4.038   6.878 -0.7813 -0.0115  0.5059
  495MOL0     C68187   7.547   3.910   6.800  0.7958  0.2585  1.5941
  495MOL0     C68188   7.543   3.935   6.650  0.0584  0.4592 -0.2403
  495MOL0     N68189   7.664   4.011   6.602  0.0013 -0.2225 -0.1338
  495MOL0     C68190   7.662   4.136   6.575  0.6889 -0.6596 -0.3042
  495MOL0     C68191   7.795   4.170   6.590 -0.9433  0.1411 -0.0357
  495MOL0     C68192   7.852   4.307   6.554  0.0607  0.2273 -0.6733
  495MOL0     C68193   7.896   4.311   6.403  0.8101 -0.0012  0.1589
  495MOL0     C68194   7.795   4.312   6.290 -0.2781  0.1338  0.7579
  495MOL0     C68195   7.702   4.426   6.295 -0.0915 -0.3498  0.4655
  495MOL0     O68196   7.593   4.405   6.378 -0.6218 -0.0425 -0.6031
  495MOL0     C68197   7.488   4.485   6.390  0.3798 -1.1406  0.4882
  495MOL0     C68198   7.426   4.478   6.507 -0.0224  0.5869 -0.4964
  495MOL0     C68199   7.328   4.580   6.543  0.1288  0.0398 -0.4317
  495MOL0     C68200   7.255   4.565   6.675 -0.4174  0.2567  0.4566
  495MOL0     C68201   7.306   4.691   6.460  0.4403 -0.2443 -0.1357
  495MOL0     C68202   7.199   4.795   6.470  0.1564  0.2475 -0.6664
  495MOL0     O68203   7.196   4.859   6.592  0.3062  0.1566  1.2336
  495MOL0     C68204   7.102   4.953   6.621 -0.2594 -0.3734 -0.8912
  495MOL0     C68205   7.080   4.958   6.753  0.7306  0.8105  0.1612
  495MOL0     C68206   6.997   5.038   6.819  0.1681  0.5014  0.0969
  495MOL0     C68207   6.934   5.136   6.747 -0.3038 -0.3051  1.0937
  495MOL0     O68208   6.855   5.234   6.801  0.4945 -0.0342 -0.1972
  495MOL0     C68209   6.892   5.270   6.934  0.9168  0.4062 -1.3929
  495MOL0     C68210   6.835   5.411   6.950 -0.3046  0.9342  0.1048
  495MOL0     C68211   6.884   5.503   7.070 -0.4869  0.6890  0.2973
  495MOL0     C68212   6.824   5.639   7.049  0.1638  0.7457 -1.5328
  495MOL0     C68213   6.872   5.731   7.168 -0.2601 -0.3602  0.3446
  495MOL0     C68214   6.793   5.863   7.148  0.6639  0.2490  0.4480
  495MOL0     C68215   6.844   5.979   7.224 -0.0287  0.1079 -0.4354
  495MOL0     C68216   6.752   6.104   7.222  0.0425  0.8218 -0.9675
  495MOL0    Cl68217   6.775   6.195   7.063 -0.4788  0.0266  0.1353
  495MOL0     C68218   6.943   5.131   6.598 -0.2401 -1.1983  0.0255
  495MOL0     C68219   7.037   5.042   6.550 -0.0315 -0.5887  0.2594
  495MOL0     O68220   7.130   4.825   6.367 -0.0747 -0.5831  0.3455
  495MOL0     C68221   7.382   4.686   6.338  0.8109 -0.7131  0.4642
  495MOL0     C68222   7.464   4.593   6.305 -0.2339  0.5347  0.1404
  495MOL0     N68223   7.870   4.069   6.642  0.4214 -0.0076 -0.7589
  495MOL0     N68224   7.787   3.969   6.630 -0.2282 -0.2774  0.5267
  495MOL0     C68225   6.849   4.489   7.030  0.2702  0.9188  0.1512
  495MOL0     C68226   6.720   4.523   7.010 -0.7729 -0.7747  0.1411
  495MOL0     C68227   6.314   4.664   7.015  0.3808  0.1079  0.2527
  495MOL0     C68228   6.264   4.676   6.883 -0.2969 -0.5227  0.2260
  495MOL0     C68229   6.122   4.696   6.877 -0.5592 -0.3774 -0.3038
  495MOL0     C68230   6.043   4.674   6.979  0.8241  0.2647 -0.6310
  495MOL0     O68231   5.909   4.688   6.954 -0.2966  0.8258 -0.6672
  495MOL0     C68232   5.814   4.673   7.067 -0.9055  0.7121  0.2640
  495MOL0     C68233   5.663   4.696   7.042 -0.3167 -0.6504  0.7006
  495MOL0     C68234   5.630   4.832   6.985 -0.2561 -0.3507  0.4139
  495MOL0     C68235   5.664   4.849   6.838  0.2075  1.7024  0.0650
  495MOL0     C68236   5.601   4.958   6.769  0.6464  0.5047 -1.2201
  495MOL0     C68237   5.573   5.058   6.731 -0.4393 -0.0197 -0.2783
  495MOL0     C68238   6.091   4.631   7.103 -0.5876 -0.7584 -0.4794
  495MOL0     C68239   6.228   4.641   7.129  0.3700  0.2196  0.5853
  495MOL0     C68240   6.265   4.595   7.270 -0.3869  0.9540 -0.9674
  495MOL0     H68241   6.742   4.770   6.795  0.8581 -0.3914 -0.6539
  495MOL0     H68242   6.989   4.690   6.790  0.4820  0.8660 -0.0808
  495MOL0     H68243   7.082   4.431   7.157  0.7751  1.3503  1.3503
  495MOL0     H68244   7.139   4.587   7.156 -2.2254  0.5578 -0.6274
  495MOL0     H68245   7.337   4.505   7.007 -1.2211  0.8392  0.6569
  495MOL0     H68246   7.322   4.424   7.176 -1.5328  1.0303  1.4479
  495MOL0     H68247   7.205   4.241   7.055 -0.1934  1.1510  2.9453
  495MOL0     H68248   7.224   4.330   6.905  0.0981 -0.2450  0.4391
  495MOL0     H68249   7.481   4.321   6.917  0.0526  0.7325  1.1478
  495MOL0     H68250   7.463   4.237   7.069  0.8570 -1.3468  0.6365
  495MOL0     H68251   7.377   4.124   6.789  3.4627 -0.4016 -1.2406
  495MOL0     H68252   7.333   4.043   6.940 -1.9736  4.2238  4.3574
  495MOL0     H68253   7.627   4.099   6.838 -2.3346  0.7298 -1.7068
  495MOL0     H68254   7.593   4.014   6.973  4.5951 -1.8779 -2.2078
  495MOL0     H68255   7.451   3.858   6.810  0.6233  0.1260 -0.3289
  495MOL0     H68256   7.629   3.848   6.839 -1.1847 -1.3639  3.5056
  495MOL0     H68257   7.537   3.838   6.601 -0.3082  1.0082 -1.3331
  495MOL0     H68258   7.454   3.992   6.622 -1.7980 -1.0949  2.1427
  495MOL0     H68259   7.578   4.200   6.550  1.9199  1.8195  1.4759
  495MOL0     H68260   7.939   4.336   6.614 -1.5583  1.3239  1.2808
  495MOL0     H68261   7.786   4.389   6.584 -0.3402 -0.7757  1.3636
  495MOL0     H68262   7.960   4.399   6.391  1.9140 -0.6643  0.9966
  495MOL0     H68263   7.965   4.228   6.386  1.9931  0.9932  0.0027
  495MOL0     H68264   7.849   4.309   6.194  4.9340  1.2115  3.2911
  495MOL0     H68265   7.741   4.217   6.279  2.0320 -1.1106 -0.7980
  495MOL0     H68266   7.762   4.515   6.314  1.8099 -1.4277 -0.2708
  495MOL0     H68267   7.655   4.440   6.197  1.0250  0.0466 -0.0252
  495MOL0     H68268   7.445   4.398   6.577  2.6652  2.1836  0.7377
  495MOL0     H68269   7.261   4.466   6.721 -4.6104 -0.1435  0.4953
  495MOL0     H68270   7.147   4.577   6.662 -0.6863 -1.9980  0.1698
  495MOL0     H68271   7.296   4.640   6.743 -0.4628 -0.1132  0.8913
  495MOL0     H68272   7.130   4.885   6.815  1.9899  1.9819  0.5847
  495MOL0     H68273   6.978   5.026   6.925 -1.4430 -1.1041 -0.3332
  495MOL0     H68274   6.848   5.199   7.005  1.3300 -0.5777 -2.1030
  495MOL0     H68275   6.999   5.280   6.953  0.9315 -3.1552  1.4243
  495MOL0     H68276   6.847   5.458   6.852 -0.4586 -2.8461 -1.9158
  495MOL0     H68277   6.726   5.407   6.948 -0.2427 -0.9775 -1.1803
  495MOL0     H68278   6.992   5.512   7.061 -0.2645 -0.5764  1.4359
  495MOL0     H68279   6.854   5.461   7.166 -2.5644  0.7477 -0.2580
  495MOL0     H68280   6.715   5.638   7.035 -0.1877  4.4058 -0.1769
  495MOL0     H68281   6.870   5.691   6.965  2.0213 -0.2606 -1.1976
  495MOL0     H68282   6.850   5.685   7.265  1.3109  2.1832  2.0283
  495MOL0     H68283   6.978   5.756   7.160  0.0182 -1.3625  0.7100
  495MOL0     H68284   6.687   5.847   7.172  0.9874 -3.1431  0.0761
  495MOL0     H68285   6.790   5.887   7.041 -0.3731  0.8460  0.5935
  495MOL0     H68286   6.951   5.994   7.204  0.1064  2.1858  1.4185
  495MOL0     H68287   6.842   5.958   7.331  1.3853  3.0487  0.2730
  495MOL0     H68288   6.781   6.167   7.306 -1.8092  1.3459 -0.6674
  495MOL0     H68289   6.650   6.068   7.238  0.9374 -0.7811  1.5700
  495MOL0     H68290   6.887   5.198   6.535  0.0964 -2.5811 -1.8414
  495MOL0     H68291   7.038   5.034   6.442 -3.0146  3.9254 -0.3759
  495MOL0     H68292   7.356   4.766   6.269  2.0658 -0.9818 -0.3485
  495MOL0     H68293   7.504   4.595   6.204  3.6856 -0.8437  1.4795
  495MOL0     H68294   6.865   4.416   7.109 -1.4361  0.7549  0.3966
  495MOL0     H68295   6.637   4.488   7.071 -0.8626 -1.8191 -0.5549
  495MOL0     H68296   6.332   4.703   6.803 -0.1445 -1.5645 -0.0096
  495MOL0     H68297   6.093   4.742   6.783  1.3321  0.4701 -0.5339
  495MOL0     H68298   5.818   4.571   7.106  1.2855  0.5414 -0.2839
  495MOL0     H68299   5.845   4.752   7.137 -2.3338  0.0979  1.6564
  495MOL0     H68300   5.615   4.682   7.140  2.0049 -0.6311  1.8951
  495MOL0     H68301   5.626   4.615   6.978  0.6111 -2.0700  1.9041
  495MOL0     H68302   5.529   4.853   7.019  0.5352  1.6871  1.7063
  495MOL0     H68303   5.687   4.910   7.036 -0.9118  0.5748 -0.2376
  495MOL0     H68304   5.637   4.763   6.775 -0.1922  1.4173  0.6127
  495MOL0     H68305   5.773   4.863   6.835  0.6514  0.4763  4.2205
  495MOL0     H68306   5.541   5.150   6.689  3.2976  0.8212 -1.7115
  495MOL0     H68307   6.029   4.589   7.182 -1.2389 -0.6636 -0.9294
  495MOL0     H68308   6.327   4.670   7.320  0.4663 -1.4163  1.8248
  495MOL0     H68309   6.178   4.566   7.330  2.4845 -4.4685  1.2680
  495MOL0     H68310   6.328   4.507   7.252 -2.5906 -1.3350  1.6500
  496MOL0     O68311   8.104   5.811   6.743 -0.4629 -0.0565  0.6726
  496MOL0     C68312   8.174   5.709   6.718  0.4745 -0.7673 -0.0206
  496MOL0     O68313   8.253   5.699   6.603  0.1799  0.6772  0.3500
  496MOL0     C68314   8.249   5.793   6.498 -0.3756 -0.5588 -0.4752
  496MOL0     C68315   8.160   5.786   6.392 -0.1723  0.2767  1.1051
  496MOL0     C68316   8.168   5.887   6.289  0.6369  0.0308 -0.7319
  496MOL0     C68317   8.237   6.004   6.312  0.5493 -0.4032 -0.4397
  496MOL0     O68318   8.222   6.099   6.222  0.0081  0.0938  0.9006
  496MOL0     C68319   8.279   6.231   6.242 -0.5797  0.5250  0.0158
  496MOL0     C68320   8.246   6.332   6.127 -0.9771  0.0880 -0.2038
  496MOL0     C68321   8.105   6.384   6.137  0.2022 -0.2748  0.5204
  496MOL0     C68322   8.076   6.491   6.027 -1.8404 -0.3590 -0.4160
  496MOL0     C68323   7.923   6.512   6.031 -0.0605 -0.8563 -0.2807
  496MOL0     C68324   7.889   6.654   5.975  0.2156 -0.1975  0.3398
  496MOL0     C68325   7.933   6.783   6.057 -0.1676 -0.2909  1.0789
  496MOL0     C68326   7.927   6.765   6.207 -0.1965 -0.3797 -0.2134
  496MOL0     N68327   7.798   6.733   6.257  0.2417  0.0129 -0.7904
  496MOL0     C68328   7.760   6.609   6.317 -0.1048 -0.7175  0.1513
  496MOL0     C68329   7.639   6.627   6.371  0.1202 -0.8029  0.4410
  496MOL0     C68330   7.571   6.521   6.455  0.2237  0.0086 -0.1308
  496MOL0     C68331   7.467   6.574   6.552  0.4883 -0.1025 -1.0266
  496MOL0     C68332   7.520   6.630   6.678 -0.6419  0.0764 -0.4831
  496MOL0     C68333   7.658   6.582   6.737  0.2402  0.8190  0.0357
  496MOL0     O68334   7.646   6.610   6.874  0.7895 -1.0447 -0.7253
  496MOL0     C68335   7.624   6.516   6.968  0.2620  0.5702 -0.5245
  496MOL0     C68336   7.707   6.513   7.084  0.3290 -0.0783 -0.4693
  496MOL0     C68337   7.682   6.415   7.190 -1.3018  0.1389  0.1356
  496MOL0     C68338   7.762   6.435   7.320 -0.9459 -0.8751 -0.4264
  496MOL0     C68339   7.594   6.308   7.168  0.2724 -1.1406 -0.1311
  496MOL0     C68340   7.551   6.226   7.287 -0.0642  0.1246  0.0812
  496MOL0     O68341   7.423   6.177   7.293 -0.0417  0.2332 -0.1590
  496MOL0     C68342   7.377   6.093   7.395  0.1783 -0.0998  0.4490
  496MOL0     C68343   7.276   5.998   7.375 -0.0465  0.3290 -0.6638
  496MOL0     C68344   7.244   5.895   7.474 -0.5812 -0.2219 -0.2702
  496MOL0     C68345   7.294   5.907   7.608  0.1494 -0.5570  0.5236
  496MOL0     O68346   7.245   5.809   7.701  0.4571 -0.6416  0.2053
  496MOL0     C68347   7.323   5.793   7.818 -0.2502 -0.2420  0.3305
  496MOL0     C68348   7.297   5.675   7.911 -0.4041  0.1259  0.5127
  496MOL0     C68349   7.381   5.554   7.883 -0.0276 -0.2765 -0.0422
  496MOL0     C68350   7.384   5.459   8.002  0.2072 -0.0456  0.1862
  496MOL0     C68351   7.519   5.386   8.001 -0.2093 -0.2423  0.3002
  496MOL0     C68352   7.521   5.285   8.120 -0.5194  0.2750 -0.1072
  496MOL0     C68353   7.629   5.171   8.117  1.0743 -0.4422  0.9319
  496MOL0     C68354   7.775   5.222   8.108 -0.8238 -0.6306 -0.0908
  496MOL0    Cl68355   7.798   5.297   8.267  0.1003  0.5464  0.3957
  496MOL0     C68356   7.364   6.016   7.639 -0.0688  0.8673  0.5318
  496MOL0     C68357   7.410   6.103   7.533  0.3404 -0.2217 -0.0703
  496MOL0     O68358   7.642   6.176   7.354  0.4660  0.0239 -0.5881
  496MOL0     C68359   7.516   6.302   7.044  0.7800 -0.4157  0.1281
  496MOL0     C68360   7.527   6.413   6.959 -0.2671  0.1454  0.0598
  496MOL0     N68361   7.595   6.759   6.357  0.9398  0.2045 -0.0630
  496MOL0     N68362   7.700   6.819   6.300  0.0159  0.1644  0.2240
  496MOL0     C68363   8.314   6.014   6.432  0.7739 -0.3786  0.1486
  496MOL0     C68364   8.327   5.913   6.522 -0.4069  0.8885 -0.2885
  496MOL0     C68365   8.180   5.595   6.824  0.5481 -0.1334 -0.3382
  496MOL0     C68366   8.248   5.474   6.784  0.2965 -0.3559 -0.1919
  496MOL0     C68367   8.253   5.367   6.873 -0.7938  0.3248  0.2656
  496MOL0     C68368   8.204   5.381   7.006 -0.3180 -0.7521 -0.1429
  496MOL0     O68369   8.205   5.287   7.107  0.3006  0.6420 -0.5288
  496MOL0     C68370   8.339   5.230   7.122  0.1519  1.1787  0.9905
  496MOL0     C68371   8.335   5.129   7.236  0.0933 -0.1292 -0.0110
  496MOL0     C68372   8.465   5.043   7.249 -0.3123 -0.2939 -0.1670
  496MOL0     C68373   8.454   4.957   7.379  0.5845  0.0635 -0.5591
  496MOL0     C68374   8.528   4.832   7.369 -0.9116 -0.3598  0.0030
  496MOL0     C68375   8.606   4.736   7.369 -0.0429 -0.0155  0.1064
  496MOL0     C68376   8.145   5.500   7.046 -0.2627  0.4431 -0.4542
  496MOL0     C68377   8.133   5.610   6.963  0.0783 -0.5511 -0.2966
  496MOL0     C68378   8.074   5.740   7.013  1.0469 -0.1474 -0.6761
  496MOL0     H68379   8.092   5.701   6.384  1.6339 -1.1170 -1.0099
  496MOL0     H68380   8.094   5.880   6.210 -0.1327  1.5784 -0.2061
  496MOL0     H68381   8.388   6.224   6.248 -0.1462  1.9592 -3.5589
  496MOL0     H68382   8.257   6.276   6.340  0.4809 -0.1788  0.5912
  496MOL0     H68383   8.312   6.417   6.150 -1.2280  0.4983 -0.9791
  496MOL0     H68384   8.263   6.281   6.032 -4.3405  0.4236 -1.0813
  496MOL0     H68385   8.026   6.310   6.128 -0.6910  0.8485 -1.3621
  496MOL0     H68386   8.097   6.436   6.234  1.6182  0.2962  0.3669
  496MOL0     H68387   8.136   6.576   6.061 -2.9138  0.7582 -1.2019
  496MOL0     H68388   8.115   6.455   5.931 -0.0520  0.9773 -0.2481
  496MOL0     H68389   7.884   6.506   6.132  1.0301  1.3245  0.3178
  496MOL0     H68390   7.888   6.432   5.964  0.7293  1.1924 -3.3449
  496MOL0     H68391   7.942   6.659   5.879  0.7875 -0.5398  0.6327
  496MOL0     H68392   7.780   6.656   5.972  0.1963  2.3928  0.6246
  496MOL0     H68393   7.874   6.863   6.012  2.2535  0.2516 -1.3804
  496MOL0     H68394   8.035   6.805   6.024 -0.6328  0.6221  0.1657
  496MOL0     H68395   8.006   6.693   6.231 -1.6809 -2.1256 -0.3354
  496MOL0     H68396   7.961   6.857   6.255  3.4416 -2.1769  1.0547
  496MOL0     H68397   7.825   6.526   6.342  1.3076  0.7235  1.5500
  496MOL0     H68398   7.643   6.452   6.500 -0.0684  2.0613  3.9346
  496MOL0     H68399   7.514   6.457   6.387  2.6753  1.6358 -4.1503
  496MOL0     H68400   7.408   6.652   6.504  2.7730  2.7392  0.4575
  496MOL0     H68401   7.395   6.499   6.585 -0.6777  1.3407 -0.2074
  496MOL0     H68402   7.536   6.738   6.671  1.2682  0.2325  3.4201
  496MOL0     H68403   7.431   6.624   6.742  0.0693  0.4089  0.5509
  496MOL0     H68404   7.688   6.478   6.723  1.5560  1.0069  1.2444
  496MOL0     H68405   7.725   6.649   6.681  1.1014 -1.2373 -1.5584
  496MOL0     H68406   7.781   6.592   7.088 -0.2467  0.5095 -1.0676
  496MOL0     H68407   7.693   6.464   7.400  2.5324 -0.4040  2.7038
  496MOL0     H68408   7.833   6.516   7.299 -1.1042 -1.2446 -2.6182
  496MOL0     H68409   7.829   6.354   7.350  0.9211  0.7253 -0.0166
  496MOL0     H68410   7.234   5.986   7.276 -0.1980 -0.5501 -0.5057
  496MOL0     H68411   7.174   5.815   7.451 -1.7146  1.0011 -1.2655
  496MOL0     H68412   7.431   5.798   7.801 -0.0740 -1.9675  0.7607
  496MOL0     H68413   7.312   5.888   7.872  2.7565  1.0804 -1.1405
  496MOL0     H68414   7.327   5.708   8.011 -0.0281 -0.4403  0.5890
  496MOL0     H68415   7.192   5.645   7.907 -0.2041 -0.4377 -1.0106
  496MOL0     H68416   7.483   5.592   7.870  1.0338 -2.6632  0.7905
  496MOL0     H68417   7.347   5.500   7.794  1.1937  0.9934 -1.3315
  496MOL0     H68418   7.308   5.381   7.993 -0.6334  0.7745 -0.0508
  496MOL0     H68419   7.351   5.509   8.094  0.5743 -0.7371  0.7014
  496MOL0     H68420   7.533   5.336   7.905  1.5106 -2.3484  1.5619
  496MOL0     H68421   7.602   5.455   8.021 -0.9217  1.2958 -1.6968
  496MOL0     H68422   7.428   5.229   8.109 -1.9267  2.0100  2.0772
  496MOL0     H68423   7.522   5.334   8.218  1.3497  0.0919  0.0074
  496MOL0     H68424   7.613   5.115   8.024  0.7983  2.9805 -1.2353
  496MOL0     H68425   7.608   5.108   8.204  2.5490  2.1925  3.3534
  496MOL0     H68426   7.780   5.296   8.027  1.7507  0.2495  0.7803
  496MOL0     H68427   7.850   5.144   8.091  0.7270  0.3671  1.7931
  496MOL0     H68428   7.394   6.045   7.739  3.7000 -1.5324  0.3110
  496MOL0     H68429   7.481   6.182   7.557 -0.3861  0.5188 -0.3419
  496MOL0     H68430   7.433   6.232   7.033 -0.0174  0.3234  1.1995
  496MOL0     H68431   7.473   6.425   6.866  0.6828  4.5241 -0.1651
  496MOL0     H68432   8.379   6.100   6.440  0.7938 -0.4701  1.0885
  496MOL0     H68433   8.390   5.934   6.608  2.6575 -0.9750 -1.8835
  496MOL0     H68434   8.281   5.456   6.682 -0.5639  1.0545 -0.7314
  496MOL0     H68435   8.306   5.276   6.845  2.7228  1.5144  2.3469
  496MOL0     H68436   8.357   5.165   7.036  0.8546  2.6977 -0.0597
  496MOL0     H68437   8.421   5.301   7.129  0.8134  1.0522 -3.0901
  496MOL0     H68438   8.256   5.057   7.215  0.1053 -0.0999 -0.1566
  496MOL0     H68439   8.331   5.194   7.324 -0.1035  1.8336 -1.4030
  496MOL0     H68440   8.466   4.989   7.154 -2.5284  0.6531 -0.7997
  496MOL0     H68441   8.554   5.104   7.263 -0.5170 -0.1645  0.6187
  496MOL0     H68442   8.352   4.924   7.397  0.5394  0.2087 -0.5444
  496MOL0     H68443   8.494   5.013   7.465  2.8167  2.1828 -2.8166
  496MOL0     H68444   8.662   4.647   7.390  0.2889 -0.2229 -1.4620
  496MOL0     H68445   8.091   5.495   7.140 -3.5512 -0.3545 -2.2610
  496MOL0     H68446   7.980   5.760   6.962 -0.5076 -3.7069  0.5229
  496MOL0     H68447   8.060   5.747   7.121 -2.2779 -2.9500 -0.7449
  496MOL0     H68448   8.146   5.820   6.992  1.3510  0.6139  2.6838
  497MOL0     O68449   2.346   1.667   8.740  0.4694  0.2814  0.2423
  497MOL0     C68450   2.324   1.768   8.671  0.5940  0.0507  0.3903
  497MOL0     O68451   2.218   1.782   8.581 -0.4247 -0.0402  0.2071
  497MOL0     C68452   2.191   1.672   8.509 -0.2462 -0.6669  0.2097
  497MOL0     C68453   2.283   1.561   8.481  0.4051  0.2541  0.5451
  497MOL0     C68454   2.230   1.463   8.405 -0.2661  0.1265 -0.1714
  497MOL0     C68455   2.102   1.455   8.350  0.4365 -0.5445 -0.9390
  497MOL0     O68456   2.055   1.352   8.274 -0.1543 -0.0810  0.0497
  497MOL0     C68457   2.041   1.217   8.323 -0.7662 -0.4749  0.4347
  497MOL0     C68458   1.936   1.155   8.233  0.0250  0.8074 -0.0091
  497MOL0     C68459   1.831   1.085   8.304  0.0150  0.3410 -1.0638
  497MOL0     C68460   1.716   1.043   8.221  0.5418  0.1674  0.5538
  497MOL0     C68461   1.744   0.918   8.147 -0.3938  1.3676  1.0605
  497MOL0     C68462   1.643   0.892   8.029  0.7139 -0.7599  0.2510
  497MOL0     C68463   1.677   0.968   7.901  0.0496  1.2898 -0.3604
  497MOL0     C68464   1.632   0.896   7.773 -1.1958 -0.0532  0.3444
  497MOL0     N68465   1.506   0.925   7.714  0.3401  0.4716 -0.7526
  497MOL0     C68466   1.375   0.913   7.754 -1.2807 -0.9546  0.2463
  497MOL0     C68467   1.310   0.992   7.676  0.0233 -0.3396  0.2662
  497MOL0     C68468   1.165   1.039   7.700  0.3861  1.1472 -0.3475
  497MOL0     C68469   1.141   1.142   7.815  0.0250 -0.8375 -0.1709
  497MOL0     C68470   1.156   1.075   7.954  0.4390  0.3870 -0.5398
  497MOL0     C68471   1.128   1.162   8.073  0.9421  0.2370  0.1184
  497MOL0     O68472   1.197   1.281   8.060 -0.1758 -0.1287 -0.6657
  497MOL0     C68473   1.300   1.303   8.148  0.0798 -0.8053  0.6544
  497MOL0     C68474   1.387   1.399   8.103  0.1817  0.2029 -0.7237
  497MOL0     C68475   1.491   1.451   8.185  0.3588 -0.7888  0.3951
  497MOL0     C68476   1.567   1.565   8.121 -1.0483  0.2380 -0.0557
  497MOL0     C68477   1.516   1.404   8.313 -0.3471  0.1852 -0.4362
  497MOL0     C68478   1.623   1.448   8.404 -0.0661 -0.5420  0.4611
  497MOL0     O68479   1.659   1.369   8.501  0.1607 -0.2091 -0.0988
  497MOL0     C68480   1.741   1.408   8.605  0.4518  0.5098  0.1643
  497MOL0     C68481   1.717   1.524   8.683 -0.3695 -0.2428 -0.1881
  497MOL0     C68482   1.791   1.532   8.805 -0.3954 -0.6891  0.7585
  497MOL0     C68483   1.880   1.433   8.853 -0.4480  0.5912 -0.5520
  497MOL0     O68484   1.959   1.446   8.969  0.1927  0.0361 -0.2379
  497MOL0     C68485   1.966   1.576   9.027 -0.4316  0.0365  0.4207
  497MOL0     C68486   2.013   1.568   9.176 -0.3917 -0.4225  0.0191
  497MOL0     C68487   2.075   1.701   9.223 -0.2824 -0.2300  0.7693
  497MOL0     C68488   2.130   1.698   9.372 -0.5134  0.6367  0.6970
  497MOL0     C68489   2.053   1.604   9.478  0.3986 -0.7507  0.2700
  497MOL0     C68490   1.901   1.654   9.510  0.8286  0.0192 -1.2202
  497MOL0     C68491   1.830   1.565   9.612  0.3477  0.1642 -0.1068
  497MOL0     C68492   1.764   1.647   9.729 -0.0782 -0.8480  0.3461
  497MOL0    Cl68493   1.697   1.799   9.671  0.6202  0.0996 -0.4293
  497MOL0     C68494   1.903   1.325   8.767 -0.5259 -0.3372  0.7711
  497MOL0     C68495   1.828   1.309   8.648 -0.8359  0.0214 -0.4914
  497MOL0     O68496   1.663   1.566   8.385  0.3525  0.2875  0.3720
  497MOL0     C68497   1.424   1.312   8.360 -0.5017 -0.3312 -0.1541
  497MOL0     C68498   1.323   1.262   8.274  0.2806  0.1998  0.2317
  497MOL0     N68499   1.390   1.031   7.572 -0.3371  0.0762  0.3728
  497MOL0     N68500   1.506   0.990   7.595  0.0907 -0.8929 -0.3980
  497MOL0     C68501   2.010   1.565   8.375  0.6859 -0.7223 -0.1767
  497MOL0     C68502   2.056   1.672   8.464  0.1331 -0.0691 -0.8752
  497MOL0     C68503   2.408   1.893   8.692  0.2030  0.2180  0.7681
  497MOL0     C68504   2.389   2.000   8.604  0.5207 -0.5236  0.6796
  497MOL0     C68505   2.490   2.097   8.592 -0.1728 -0.0786  0.6382
  497MOL0     C68506   2.593   2.111   8.688  0.4561  1.3892 -0.4329
  497MOL0     O68507   2.677   2.217   8.699  0.6199 -0.0791  0.1972
  497MOL0     C68508   2.744   2.279   8.584 -0.1413 -0.4930 -0.7400
  497MOL0     C68509   2.797   2.197   8.475 -0.1224  0.1538  0.3712
  497MOL0     C68510   2.901   2.094   8.531 -0.0145  0.0641  0.5484
  497MOL0     C68511   2.961   2.000   8.420  0.4619  0.2079 -0.7699
  497MOL0     C68512   3.071   2.065   8.364  0.5180  0.1595  0.2757
  497MOL0     C68513   3.182   2.109   8.335  0.5925  0.4673 -0.4125
  497MOL0     C68514   2.601   2.018   8.792  0.6756 -0.5712 -0.0428
  497MOL0     C68515   2.509   1.907   8.796 -0.4734  0.3680 -0.1868
  497MOL0     C68516   2.519   1.813   8.918  0.5078 -0.1804  0.5472
  497MOL0     H68517   2.386   1.567   8.516  1.5371 -1.2979 -2.2041
  497MOL0     H68518   2.286   1.371   8.397  0.8851  0.6443  1.3611
  497MOL0     H68519   2.005   1.202   8.425 -0.6952 -1.9784  0.2661
  497MOL0     H68520   2.135   1.161   8.313 -1.1384 -0.9368 -0.7467
  497MOL0     H68521   1.882   1.228   8.172 -4.8971 -3.5965 -1.7446
  497MOL0     H68522   1.987   1.088   8.164  2.3783  1.0436  1.4086
  497MOL0     H68523   1.862   0.992   8.353 -2.3318  1.3630  2.7972
  497MOL0     H68524   1.791   1.156   8.376  3.5774 -0.9155  2.5214
  497MOL0     H68525   1.634   1.013   8.287  2.0924  0.1343  2.5739
  497MOL0     H68526   1.678   1.121   8.153 -0.6065 -0.9553 -0.1249
  497MOL0     H68527   1.738   0.829   8.210 -1.7167  0.9814  0.4437
  497MOL0     H68528   1.842   0.926   8.099  0.3508  0.4111  2.3859
  497MOL0     H68529   1.634   0.785   8.009  5.1570 -0.8340 -2.5433
  497MOL0     H68530   1.542   0.921   8.059 -0.3194 -2.7823 -1.0576
  497MOL0     H68531   1.786   0.969   7.905  0.0635  2.8546 -0.3883
  497MOL0     H68532   1.632   1.068   7.902 -1.4892  0.6189 -0.3027
  497MOL0     H68533   1.707   0.924   7.699  0.1749 -0.3436  1.5556
  497MOL0     H68534   1.637   0.791   7.802 -1.6812 -0.0061  0.6045
  497MOL0     H68535   1.349   0.883   7.855 -0.7059 -0.3349  0.5914
  497MOL0     H68536   1.101   0.951   7.705  1.2796  0.5068  0.2646
  497MOL0     H68537   1.153   1.093   7.606 -0.9900 -1.5515 -1.8433
  497MOL0     H68538   1.207   1.228   7.803 -0.6756 -0.2511  0.0602
  497MOL0     H68539   1.043   1.190   7.803  0.8458  1.0125  0.2535
  497MOL0     H68540   1.094   0.985   7.960  1.6002 -0.3995 -0.2311
  497MOL0     H68541   1.259   1.042   7.947  0.1529 -0.2508 -2.0058
  497MOL0     H68542   1.021   1.182   8.058  1.2607  0.4739 -2.3746
  497MOL0     H68543   1.146   1.101   8.162  0.6198 -1.5501 -0.9786
  497MOL0     H68544   1.353   1.425   8.004  1.1377 -2.1312 -1.7288
  497MOL0     H68545   1.531   1.658   8.166 -1.9726  0.9891 -2.2223
  497MOL0     H68546   1.563   1.583   8.013  5.1361  0.9082 -0.5599
  497MOL0     H68547   1.673   1.552   8.145 -1.0390 -2.2142 -1.0969
  497MOL0     H68548   1.642   1.599   8.660 -2.7510 -2.0392  1.1708
  497MOL0     H68549   1.760   1.618   8.864 -1.2408 -0.8611  0.5899
  497MOL0     H68550   2.025   1.647   8.968 -1.2556  0.9800  0.6824
  497MOL0     H68551   1.868   1.621   9.047 -0.3086 -0.1550  1.5271
  497MOL0     H68552   1.935   1.525   9.240  0.1413 -1.3597  0.0670
  497MOL0     H68553   2.097   1.498   9.167  0.2202  0.3165 -0.0621
  497MOL0     H68554   2.001   1.782   9.225  1.5631  1.6256 -1.1850
  497MOL0     H68555   2.163   1.715   9.161 -0.1464 -2.4262  0.4098
  497MOL0     H68556   2.151   1.799   9.406 -0.1242  0.5631  0.6932
  497MOL0     H68557   2.225   1.647   9.353 -2.7550 -3.2637 -1.3158
  497MOL0     H68558   2.053   1.509   9.424  5.1038  0.9369 -3.3208
  497MOL0     H68559   2.112   1.595   9.569 -0.8175 -2.3270  0.9456
  497MOL0     H68560   1.836   1.666   9.423  0.1192  0.3594 -0.6570
  497MOL0     H68561   1.916   1.754   9.552  1.0437 -0.1914 -0.7911
  497MOL0     H68562   1.901   1.492   9.653 -1.0972 -0.7183  0.9233
  497MOL0     H68563   1.753   1.504   9.564 -1.7321  1.2124  1.7089
  497MOL0     H68564   1.830   1.669   9.814 -0.1588 -0.3738  0.2882
  497MOL0     H68565   1.685   1.594   9.782 -0.2787 -1.3784 -0.4619
  497MOL0     H68566   1.967   1.238   8.779 -3.3689 -2.7791 -0.5205
  497MOL0     H68567   1.837   1.216   8.593  0.7498 -0.8445  1.0999
  497MOL0     H68568   1.422   1.287   8.465 -0.0675  0.0712 -0.0450
  497MOL0     H68569   1.251   1.195   8.320  0.5575 -2.8691 -3.3111
  497MOL0     H68570   1.909   1.572   8.336  0.8679 -0.7370 -0.6472
  497MOL0     H68571   1.987   1.750   8.493  0.1451  0.7625 -2.9156
  497MOL0     H68572   2.309   2.003   8.531  0.4535  1.0897  0.7855
  497MOL0     H68573   2.489   2.170   8.512  1.1183 -1.1990 -0.4510
  497MOL0     H68574   2.676   2.353   8.541 -0.4633  0.7485  1.6996
  497MOL0     H68575   2.833   2.323   8.631  0.4916 -1.7893 -0.6843
  497MOL0     H68576   2.833   2.261   8.394  0.5523  0.0614  0.5903
  497MOL0     H68577   2.718   2.132   8.438 -1.4943  0.3481  2.7874
  497MOL0     H68578   2.974   2.146   8.593  0.2750 -1.0875  1.1951
  497MOL0     H68579   2.848   2.025   8.597 -0.9270  0.3779  0.1660
  497MOL0     H68580   2.882   1.964   8.353  0.5781  0.9524 -1.3148
  497MOL0     H68581   3.005   1.913   8.470  1.8102  1.2167 -0.1380
  497MOL0     H68582   3.278   2.150   8.312  0.1757  2.7238  1.4446
  497MOL0     H68583   2.677   2.032   8.868  3.3727  2.8625 -3.0129
  497MOL0     H68584   2.423   1.773   8.950 -0.0682 -2.0855 -3.0433
  497MOL0     H68585   2.590   1.733   8.893  1.9171  1.3975 -0.7720
  497MOL0     H68586   2.571   1.865   9.000  0.9647 -1.0423  0.8203
  498MOL0     O68587   0.057   3.619   3.550  0.6734 -0.3914  0.4576
  498MOL0     C68588   0.145   3.703   3.505  1.1295  0.1088 -0.2246
  498MOL0     O68589   0.259   3.673   3.445  0.4636  0.0811  0.4262
  498MOL0     C68590   0.284   3.546   3.435 -0.4238  0.2761  0.0210
  498MOL0     C68591   0.216   3.472   3.346  0.0555  1.8341 -0.0410
  498MOL0     C68592   0.247   3.332   3.344  0.5945  0.2233 -0.8792
  498MOL0     C68593   0.358   3.276   3.408 -0.2860  0.0751 -1.1453
  498MOL0     O68594   0.361   3.138   3.416 -0.0257 -0.5319 -0.3530
  498MOL0     C68595   0.485   3.084   3.416  0.0294  0.0910 -1.0434
  498MOL0     C68596   0.466   2.950   3.348  0.1604 -0.0633  0.3626
  498MOL0     C68597   0.599   2.879   3.356 -0.5721  1.7423 -0.1337
  498MOL0     C68598   0.695   2.891   3.237  0.1732  0.0210 -0.5181
  498MOL0     C68599   0.841   2.848   3.277  0.5173 -0.7066 -0.2944
  498MOL0     C68600   0.860   2.702   3.302 -0.8080  0.9951  0.4474
  498MOL0     C68601   0.987   2.656   3.373 -0.0650  0.7758  1.3825
  498MOL0     C68602   1.111   2.693   3.279 -0.0389  0.7938 -0.0789
  498MOL0     N68603   1.239   2.657   3.341  0.0911  1.1585  0.5051
  498MOL0     C68604   1.273   2.681   3.476  0.0205 -0.2401  0.8923
  498MOL0     C68605   1.399   2.648   3.489  0.7789  0.2696  0.0209
  498MOL0     C68606   1.475   2.622   3.619  0.0275  0.0685 -0.0434
  498MOL0     C68607   1.498   2.479   3.649 -0.8717  0.9688  0.1680
  498MOL0     C68608   1.368   2.412   3.677 -0.0495  0.3797 -0.0918
  498MOL0     C68609   1.407   2.265   3.723 -0.4746 -0.1505 -1.1329
  498MOL0     O68610   1.291   2.201   3.770 -0.3748 -0.6053 -0.0679
  498MOL0     C68611   1.293   2.066   3.792  0.2857  0.2019 -0.9978
  498MOL0     C68612   1.319   1.980   3.689 -0.4819  1.6762 -0.6141
  498MOL0     C68613   1.312   1.838   3.711 -1.0052 -0.2297 -0.0208
  498MOL0     C68614   1.328   1.752   3.585  0.0851 -0.0414  0.5766
  498MOL0     C68615   1.275   1.785   3.834 -0.6544 -0.5420 -0.2226
  498MOL0     C68616   1.241   1.641   3.863 -0.5901  0.2246 -0.1570
  498MOL0     O68617   1.190   1.620   3.988 -0.2043  0.9605  0.9851
  498MOL0     C68618   1.141   1.498   4.023  0.0038 -0.0642 -0.4355
  498MOL0     C68619   1.231   1.395   4.039 -0.6778  0.7354 -0.9034
  498MOL0     C68620   1.193   1.273   4.097 -0.3681  0.6939  0.2141
  498MOL0     C68621   1.051   1.256   4.131 -0.6929  0.6124 -0.9601
  498MOL0     O68622   0.987   1.152   4.183 -0.1210 -0.9960 -0.7246
  498MOL0     C68623   1.039   1.024   4.146  0.3866  0.3230 -0.2480
  498MOL0     C68624   0.917   0.923   4.135 -0.9903 -0.6747  0.1650
  498MOL0     C68625   0.950   0.772   4.122 -0.4351  0.1056 -0.5622
  498MOL0     C68626   0.843   0.672   4.168 -0.4347 -0.3412 -0.4729
  498MOL0     C68627   0.855   0.629   4.314  0.3533 -0.2804  0.7158
  498MOL0     C68628   0.749   0.520   4.337  0.4016  0.7882  0.2443
  498MOL0     C68629   0.809   0.374   4.316 -1.7432 -0.0334 -0.8599
  498MOL0     C68630   0.745   0.257   4.391 -0.3139 -0.1767 -1.0014
  498MOL0    Cl68631   0.838   0.099   4.381 -0.2208 -0.1347 -0.3542
  498MOL0     C68632   0.960   1.363   4.110 -1.0718  0.1837 -0.2339
  498MOL0     C68633   1.006   1.478   4.057 -0.4744 -1.7767 -1.4997
  498MOL0     O68634   1.259   1.559   3.776 -0.2403 -0.1527 -0.5958
  498MOL0     C68635   1.253   1.880   3.938 -0.2255  1.2581  0.7485
  498MOL0     C68636   1.253   2.013   3.918  0.4786  0.3273 -0.1143
  498MOL0     N68637   1.438   2.584   3.369 -1.0490 -0.3417 -0.1657
  498MOL0     N68638   1.342   2.595   3.283  0.4840 -0.2827  0.6277
  498MOL0     C68639   0.444   3.364   3.482  0.7406  0.9241  0.6524
  498MOL0     C68640   0.410   3.510   3.487  0.7168 -0.0133 -0.4201
  498MOL0     C68641   0.119   3.844   3.529  1.0127  0.1523 -0.5068
  498MOL0     C68642   0.123   3.938   3.423  0.8049  1.5940  0.5580
  498MOL0     C68643   0.106   4.076   3.449 -1.0559  0.9996  0.1642
  498MOL0     C68644   0.079   4.120   3.573  0.4872  0.1008  0.4966
  498MOL0     O68645   0.053   4.256   3.585  0.3195  0.1966  0.4832
  498MOL0     C68646   0.089   4.322   3.708  0.3109 -0.5159  0.8691
  498MOL0     C68647   0.177   4.446   3.695 -0.2815 -0.6054  0.0818
  498MOL0     C68648   0.139   4.551   3.805  0.8406 -0.2109  0.2221
  498MOL0     C68649   0.192   4.693   3.784 -0.6878 -0.7426  1.3485
  498MOL0     C68650   0.122   4.790   3.868 -0.3664  0.1710  0.4198
  498MOL0     C68651   0.059   4.872   3.925 -0.4404 -0.6037 -0.5096
  498MOL0     C68652   0.066   4.033   3.680 -0.0971  0.6587 -0.9554
  498MOL0     C68653   0.084   3.897   3.665 -0.0865  0.5245  0.1339
  498MOL0     C68654   0.049   3.806   3.778 -0.1112 -1.1726 -0.2661
  498MOL0     H68655   0.116   3.501   3.315 -1.8089 -2.7136  0.9257
  498MOL0     H68656   0.181   3.260   3.295  3.4407 -2.7563 -0.6640
  498MOL0     H68657   0.518   3.067   3.519 -1.8124 -2.4114 -0.7655
  498MOL0     H68658   0.562   3.139   3.360  1.7089 -0.9173  0.1691
  498MOL0     H68659   0.397   2.883   3.399  0.7616 -0.2757  0.9153
  498MOL0     H68660   0.436   2.962   3.243  1.6131  0.3997 -0.0226
  498MOL0     H68661   0.658   2.904   3.445  0.2516  2.4025 -0.8508
  498MOL0     H68662   0.583   2.771   3.366  2.0851  1.3642  0.5615
  498MOL0     H68663   0.662   2.842   3.145 -0.8263  2.3377 -1.4722
  498MOL0     H68664   0.700   2.998   3.214  0.4125  0.3396  0.9075
  498MOL0     H68665   0.863   2.916   3.360  0.8415  2.4256 -2.7451
  498MOL0     H68666   0.918   2.869   3.202  1.1779 -0.0327  0.5430
  498MOL0     H68667   0.780   2.651   3.356  1.5036 -2.6242  0.7730
  498MOL0     H68668   0.856   2.654   3.204 -0.2812  0.0995  0.8495
  498MOL0     H68669   0.979   2.551   3.399 -0.0644  0.2090 -0.7178
  498MOL0     H68670   0.991   2.710   3.468  0.8962 -0.6206  2.1604
  498MOL0     H68671   1.095   2.631   3.190  2.9409  0.0735 -0.2055
  498MOL0     H68672   1.112   2.800   3.256  1.9709  0.7259 -0.5278
  498MOL0     H68673   1.220   2.728   3.558  0.5601  0.1006  1.0481
  498MOL0     H68674   1.429   2.662   3.709  0.7898 -1.5338  1.1003
  498MOL0     H68675   1.575   2.665   3.606 -0.8909  3.1185  1.9050
  498MOL0     H68676   1.550   2.426   3.568 -2.7312 -0.3188 -0.2386
  498MOL0     H68677   1.552   2.473   3.745  2.1727  0.2873 -1.4368
  498MOL0     H68678   1.302   2.467   3.744  0.5989 -0.5433  1.3518
  498MOL0     H68679   1.314   2.407   3.582  2.2698 -2.2838 -1.4498
  498MOL0     H68680   1.467   2.222   3.642  2.3530  1.2455  0.0786
  498MOL0     H68681   1.475   2.279   3.808  0.1348 -0.1618 -1.6077
  498MOL0     H68682   1.343   2.028   3.595  0.5785  2.0335 -0.1723
  498MOL0     H68683   1.324   1.821   3.500 -0.0368 -1.2265 -0.4215
  498MOL0     H68684   1.237   1.691   3.574  1.7186 -2.5264  0.0942
  498MOL0     H68685   1.400   1.670   3.590  3.1602  2.4479 -0.0101
  498MOL0     H68686   1.337   1.396   4.016  0.9870 -6.5637  3.3572
  498MOL0     H68687   1.263   1.192   4.117 -1.2953 -0.5857 -1.4871
  498MOL0     H68688   1.086   1.031   4.048  0.5638  0.9290 -0.1296
  498MOL0     H68689   1.118   0.980   4.208 -1.1148  0.3497  1.8042
  498MOL0     H68690   0.859   0.938   4.227 -2.4868 -3.2022 -0.2662
  498MOL0     H68691   0.855   0.942   4.047  0.1378 -2.1481 -0.9838
  498MOL0     H68692   1.040   0.761   4.183 -0.3752 -1.1132 -0.8493
  498MOL0     H68693   0.967   0.740   4.019  0.3829 -2.4747  0.3001
  498MOL0     H68694   0.857   0.578   4.112 -0.1127 -1.0272  0.7321
  498MOL0     H68695   0.740   0.705   4.155  0.3537  2.3590 -0.5504
  498MOL0     H68696   0.961   0.607   4.328 -0.1654 -1.8667  2.4833
  498MOL0     H68697   0.831   0.716   4.376 -0.5355  1.9999 -2.5553
  498MOL0     H68698   0.657   0.535   4.279  1.5678  2.4736 -1.2620
  498MOL0     H68699   0.715   0.533   4.441  0.7535 -0.8768  0.5915
  498MOL0     H68700   0.910   0.383   4.356 -0.6967 -0.9290 -3.1146
  498MOL0     H68701   0.827   0.350   4.211  1.7216 -2.9141  0.2179
  498MOL0     H68702   0.651   0.242   4.337  0.1170 -0.8171 -1.5823
  498MOL0     H68703   0.711   0.281   4.492 -0.4054 -1.1007 -0.8069
  498MOL0     H68704   0.855   1.367   4.140 -1.1884 -0.5797 -0.5196
  498MOL0     H68705   0.937   1.555   4.025  1.5952  0.1274 -1.6084
  498MOL0     H68706   1.226   1.841   4.036  0.1410  0.3842  0.5104
  498MOL0     H68707   1.230   2.071   4.007 -1.4285 -2.2913  1.2289
  498MOL0     H68708   0.538   3.326   3.522 -0.6895 -2.3823  1.1979
  498MOL0     H68709   0.472   3.585   3.535 -0.9509  1.3885 -0.3438
  498MOL0     H68710   0.159   3.903   3.326  0.2575 -1.2824  1.3063
  498MOL0     H68711   0.127   4.148   3.371  1.1742  0.0095 -0.2428
  498MOL0     H68712  -0.002   4.355   3.759 -0.4871  2.5073 -2.1370
  498MOL0     H68713   0.133   4.245   3.772 -0.9426 -2.5336 -0.5907
  498MOL0     H68714   0.144   4.490   3.600 -2.9809  2.2497  2.1443
  498MOL0     H68715   0.284   4.423   3.690 -0.2907 -0.8661  1.0253
  498MOL0     H68716   0.030   4.553   3.799  0.8595 -1.0890 -0.6745
  498MOL0     H68717   0.176   4.515   3.901 -1.5814 -3.1387  0.2248
  498MOL0     H68718   0.186   4.718   3.677  2.8080  1.6458  1.5624
  498MOL0     H68719   0.300   4.697   3.799 -0.4319  1.0473 -0.4806
  498MOL0     H68720   0.013   4.953   3.978  0.3330 -0.3934 -0.1407
  498MOL0     H68721   0.039   4.072   3.778  1.5210  1.9803 -0.9875
  498MOL0     H68722  -0.055   3.771   3.772 -0.7531  0.1074  2.0117
  498MOL0     H68723   0.102   3.710   3.780 -1.4022 -1.9915 -2.2916
  498MOL0     H68724   0.050   3.868   3.868 -1.9791 -0.1303 -0.9023
  499MOL0     O68725   9.213   9.218   3.415  0.7058 -0.1407  0.1981
  499MOL0     C68726   9.232   9.284   3.317 -0.1095 -0.0366  0.5344
  499MOL0     O68727   9.351   9.327   3.276 -0.4167  0.3768 -0.7938
  499MOL0     C68728   9.451   9.339   3.365  0.2822  0.4383 -0.6300
  499MOL0     C68729   9.584   9.302   3.329  0.5000 -0.8754 -0.0169
  499MOL0     C68730   9.684   9.299   3.421  0.8390  0.2933 -0.2749
  499MOL0     C68731   9.670   9.359   3.545  0.1687  0.8857 -1.0786
  499MOL0     O68732   9.760   9.327   3.647  0.1684 -0.1816 -0.5693
  499MOL0     C68733   9.793   9.433   3.738  0.2886 -0.4061  0.7146
  499MOL0     C68734   9.910   9.384   3.826 -1.3889  0.6199  0.1296
  499MOL0     C68735   9.860   9.280   3.923 -0.5206  0.4673  0.1547
  499MOL0     C68736   9.989   9.229   3.996  0.2320 -0.0498 -0.5792
  499MOL0     C68737  10.071   9.126   3.912 -0.5953  0.0410 -0.0666
  499MOL0     C68738  10.076   8.975   3.959  1.0029  0.1028  0.2983
  499MOL0     C68739  10.167   8.887   3.872 -0.1432  1.2880 -0.6287
  499MOL0     C68740  10.148   8.741   3.917  0.5397 -0.4601 -0.3198
  499MOL0     N68741  10.238   8.653   3.850  0.5192 -0.9664 -0.9473
  499MOL0     C68742  10.245   8.651   3.713  0.6616 -0.1958 -0.4441
  499MOL0     C68743  10.334   8.541   3.686  0.2012 -1.2224  0.7654
  499MOL0     C68744  10.378   8.480   3.558  0.1518 -0.0467 -1.3300
  499MOL0     C68745  10.538   8.470   3.554  0.2458 -0.4105 -0.4883
  499MOL0     C68746  10.581   8.411   3.423 -1.0367  0.3657  0.4001
  499MOL0     C68747  10.509   8.288   3.368 -0.0536 -0.3501  0.7859
  499MOL0     O68748  10.529   8.182   3.459  0.6590  0.0939 -0.6835
  499MOL0     C68749  10.625   8.086   3.442 -0.9260 -0.3121  0.4019
  499MOL0     C68750  10.615   7.975   3.514  0.0346  0.1549 -0.8235
  499MOL0     C68751  10.702   7.858   3.491 -1.5218 -1.2119 -0.5800
  499MOL0     C68752  10.662   7.739   3.580  0.3254 -0.1161  0.6198
  499MOL0     C68753  10.810   7.863   3.393 -0.0514  0.2200 -0.6295
  499MOL0     C68754  10.901   7.741   3.368  0.1845 -0.1771 -0.9831
  499MOL0     O68755  11.028   7.765   3.322  0.3318 -0.3481  1.1246
  499MOL0     C68756  11.117   7.661   3.296 -0.1305 -0.5499  0.9795
  499MOL0     C68757  11.181   7.656   3.170 -1.0625 -0.0323 -0.0576
  499MOL0     C68758  11.279   7.554   3.143 -0.2350  0.5451 -0.7059
  499MOL0     C68759  11.294   7.453   3.239 -0.4500  1.1427  0.2991
  499MOL0     O68760  11.374   7.342   3.208 -0.3342 -0.3148  0.0296
  499MOL0     C68761  11.478   7.334   3.102 -0.0698 -0.3392 -1.1361
  499MOL0     C68762  11.555   7.201   3.105 -0.3008 -0.5221  1.5619
  499MOL0     C68763  11.462   7.083   3.093  0.2280  0.5181  0.4370
  499MOL0     C68764  11.531   6.945   3.092  0.3336 -0.0305  0.9684
  499MOL0     C68765  11.422   6.836   3.063  0.0685 -1.1700 -0.0131
  499MOL0     C68766  11.350   6.844   2.923  0.0439  0.0915 -0.4629
  499MOL0     C68767  11.455   6.857   2.813  1.3264  0.3740 -0.3479
  499MOL0     C68768  11.383   6.850   2.681 -0.3552 -0.9348 -0.4052
  499MOL0    Cl68769  11.471   6.776   2.543  0.3790  0.2424 -0.4313
  499MOL0     C68770  11.232   7.457   3.360  0.5554 -0.7223 -0.8633
  499MOL0     C68771  11.147   7.564   3.396  0.4079  0.8215  1.0920
  499MOL0     O68772  10.858   7.626   3.379  0.1162 -0.3779  0.0068
  499MOL0     C68773  10.813   7.975   3.316 -0.1366 -1.2989 -0.2573
  499MOL0     C68774  10.723   8.086   3.343 -0.2930 -0.2105  0.3863
  499MOL0     N68775  10.371   8.480   3.811  1.2708 -0.2469  0.7188
  499MOL0     N68776  10.310   8.549   3.902  0.0948 -0.0674 -0.2199
  499MOL0     C68777   9.549   9.407   3.586 -0.5826 -0.3428  0.9158
  499MOL0     C68778   9.442   9.402   3.491 -0.3854  0.6134 -0.0396
  499MOL0     C68779   9.114   9.318   3.227 -0.0672  0.2966  0.2131
  499MOL0     C68780   9.122   9.420   3.123  0.0858  0.2899  0.4763
  499MOL0     C68781   9.007   9.466   3.062  0.8038 -0.8233  0.5609
  499MOL0     C68782   8.887   9.409   3.078 -0.1476 -0.3170  0.0900
  499MOL0     O68783   8.766   9.456   3.023 -0.3743  0.2788  0.5317
  499MOL0     C68784   8.772   9.576   2.939  0.7973  0.1309  0.6262
  499MOL0     C68785   8.637   9.583   2.866 -0.0662  0.4591  0.1652
  499MOL0     C68786   8.627   9.700   2.762  0.6946 -0.1959  0.0883
  499MOL0     C68787   8.594   9.829   2.835  0.7144 -0.0789 -0.2496
  499MOL0     C68788   8.606   9.938   2.749  0.5012 -0.6740  1.0533
  499MOL0     C68789   8.605  10.027   2.657 -0.6573 -0.0724 -0.6049
  499MOL0     C68790   8.883   9.298   3.153  0.9135  0.7055  0.4871
  499MOL0     C68791   8.988   9.255   3.244 -0.7825  0.7845  1.2854
  499MOL0     C68792   8.943   9.143   3.340  0.1612  0.9551  0.6846
  499MOL0     H68793   9.611   9.268   3.229  0.7119 -1.7036  0.3186
  499MOL0     H68794   9.781   9.269   3.385  0.7131  2.2426 -2.5543
  499MOL0     H68795   9.708   9.458   3.802 -1.7151 -0.3813 -1.8252
  499MOL0     H68796   9.833   9.521   3.687  0.6847  0.0087  1.7150
  499MOL0     H68797   9.988   9.352   3.757 -1.1909  1.3451  0.0133
  499MOL0     H68798   9.947   9.473   3.877  2.3804 -0.6308 -0.1203
  499MOL0     H68799   9.785   9.319   3.992 -1.5749  0.0486 -0.7201
  499MOL0     H68800   9.804   9.197   3.879  0.6530 -0.0986 -0.3378
  499MOL0     H68801  10.055   9.313   4.021  1.8406 -0.8700 -1.9270
  499MOL0     H68802   9.956   9.183   4.090  0.1447 -0.6268 -0.8915
  499MOL0     H68803  10.174   9.161   3.908  1.4242 -4.8180  2.0920
  499MOL0     H68804  10.030   9.135   3.810 -1.3571  0.3098  0.2574
  499MOL0     H68805  10.110   8.960   4.062 -1.4402  0.1689  1.1673
  499MOL0     H68806   9.973   8.941   3.946  0.8974  1.1793 -2.4812
  499MOL0     H68807  10.270   8.921   3.888 -0.1473  1.4281 -0.8808
  499MOL0     H68808  10.157   8.907   3.765  1.7224 -0.8271 -1.2833
  499MOL0     H68809  10.160   8.712   4.022  1.6361 -1.1004 -0.5927
  499MOL0     H68810  10.051   8.705   3.883 -1.3974  1.1667  3.0560
  499MOL0     H68811  10.192   8.721   3.649  5.6837  0.4308 -4.6519
  499MOL0     H68812  10.331   8.524   3.470 -1.3397 -3.5297 -2.4725
  499MOL0     H68813  10.330   8.381   3.556  0.1658 -0.0657 -0.7715
  499MOL0     H68814  10.596   8.563   3.561 -1.8899  1.0249 -0.8499
  499MOL0     H68815  10.574   8.404   3.633  0.9770  1.3232  0.7019
  499MOL0     H68816  10.581   8.489   3.347  2.7264 -0.6184 -0.8314
  499MOL0     H68817  10.683   8.375   3.442 -0.9499  2.3498  5.0528
  499MOL0     H68818  10.403   8.307   3.349  0.2041  0.2783 -0.1011
  499MOL0     H68819  10.562   8.258   3.277 -0.1142 -1.0860  0.9835
  499MOL0     H68820  10.537   7.972   3.589  1.9858  2.8982  1.5195
  499MOL0     H68821  10.748   7.714   3.644  2.2913  0.0052 -1.8314
  499MOL0     H68822  10.645   7.652   3.515 -0.8138  2.7547 -3.2590
  499MOL0     H68823  10.577   7.768   3.642 -0.1680  1.0944 -0.5748
  499MOL0     H68824  11.158   7.718   3.084  1.7998 -0.9979 -1.6573
  499MOL0     H68825  11.335   7.547   3.050  2.0151  0.9987  0.5412
  499MOL0     H68826  11.445   7.349   2.999 -2.2608  0.3765 -0.3903
  499MOL0     H68827  11.553   7.407   3.132  0.7310 -2.0780  1.4982
  499MOL0     H68828  11.615   7.212   3.015 -1.4829  1.2586  0.9430
  499MOL0     H68829  11.623   7.190   3.190 -0.1310 -1.9524  1.2614
  499MOL0     H68830  11.397   7.107   3.008 -2.9956  0.2332  2.6328
  499MOL0     H68831  11.391   7.075   3.176  0.1136 -0.5678  0.2498
  499MOL0     H68832  11.568   6.930   3.194 -1.1253  0.1212  1.5366
  499MOL0     H68833  11.612   6.941   3.018 -0.2287  3.0293  0.0565
  499MOL0     H68834  11.476   6.743   3.085  0.1051 -0.6417  2.2862
  499MOL0     H68835  11.343   6.847   3.137  1.5510  1.9651  1.2614
  499MOL0     H68836  11.278   6.925   2.908  1.6464  1.2881 -2.1198
  499MOL0     H68837  11.296   6.749   2.922 -1.1516  0.7646 -0.7174
  499MOL0     H68838  11.516   6.767   2.828 -2.3482 -2.0376  1.4634
  499MOL0     H68839  11.507   6.953   2.826 -0.3689  0.9574  3.7156
  499MOL0     H68840  11.330   6.943   2.656 -0.2527 -0.4285  1.1310
  499MOL0     H68841  11.305   6.776   2.703 -2.3430  0.4513 -2.2995
  499MOL0     H68842  11.259   7.394   3.444 -0.7229  1.8799  1.6876
  499MOL0     H68843  11.098   7.581   3.492  0.3235  0.2447  1.1496
  499MOL0     H68844  10.896   7.983   3.247  1.5044 -0.5057  1.6929
  499MOL0     H68845  10.729   8.173   3.280  1.1245 -1.2923 -1.0441
  499MOL0     H68846   9.541   9.464   3.677 -0.8047 -0.3333  0.8909
  499MOL0     H68847   9.349   9.451   3.517 -0.3687  1.6074 -1.7038
  499MOL0     H68848   9.215   9.475   3.112 -1.5077  2.5758 -3.9180
  499MOL0     H68849   9.018   9.558   3.005 -0.3771 -1.4351 -0.7223
  499MOL0     H68850   8.800   9.665   2.996 -1.1556  0.2055  1.5183
  499MOL0     H68851   8.840   9.565   2.854 -1.8003  1.9350 -1.8733
  499MOL0     H68852   8.555   9.589   2.937  0.5050  0.0257  0.8707
  499MOL0     H68853   8.625   9.484   2.822 -0.2401 -0.1623  1.5731
  499MOL0     H68854   8.721   9.714   2.709  1.2959  0.2269  1.2181
  499MOL0     H68855   8.551   9.681   2.686 -0.4337  0.9069  0.8842
  499MOL0     H68856   8.671   9.841   2.912  0.1766 -2.4876  0.7355
  499MOL0     H68857   8.499   9.828   2.890  0.3782 -0.0987 -0.8230
  499MOL0     H68858   8.607  10.084   2.566  3.1653  0.1026 -0.5671
  499MOL0     H68859   8.787   9.251   3.171  1.6062 -1.3910 -0.9404
  499MOL0     H68860   8.864   9.080   3.298  1.5874 -0.1078 -0.5727
  499MOL0     H68861   9.024   9.075   3.367 -0.2358  0.3902  0.4760
  499MOL0     H68862   8.903   9.189   3.431  0.3273  1.9045  0.2886
  500MOL0     O68863   9.271   7.761   4.575  0.0014  0.1273  0.1063
  500MOL0     C68864   9.288   7.879   4.561  0.2668 -0.6098 -0.3488
  500MOL0     O68865   9.410   7.943   4.572  0.7447  0.1663 -0.3307
  500MOL0     C68866   9.512   7.858   4.570  0.1732 -0.8598  0.0071
  500MOL0     C68867   9.593   7.875   4.685  0.0867  0.2207 -0.4298
  500MOL0     C68868   9.722   7.814   4.691  1.1595  0.8957  0.1418
  500MOL0     C68869   9.765   7.733   4.581  0.2446 -0.0349 -0.6379
  500MOL0     O68870   9.884   7.670   4.579 -0.7134 -0.6625 -0.4063
  500MOL0     C68871   9.991   7.715   4.663  0.0791  0.1155  0.1716
  500MOL0     C68872  10.128   7.670   4.615  0.0810 -0.0782  0.6798
  500MOL0     C68873  10.139   7.519   4.561 -0.1659 -0.1761 -0.6286
  500MOL0     C68874  10.270   7.492   4.503  0.1237  0.6247  0.2587
  500MOL0     C68875  10.258   7.365   4.416 -0.0579 -0.1321 -0.3798
  500MOL0     C68876  10.385   7.318   4.350  0.0618 -0.0181  0.6666
  500MOL0     C68877  10.492   7.262   4.446 -0.6086  0.7878  0.5042
  500MOL0     C68878  10.620   7.233   4.364 -0.8214 -0.2873  0.1110
  500MOL0     N68879  10.729   7.203   4.457 -0.5718  0.1544 -0.3961
  500MOL0     C68880  10.735   7.093   4.537  0.3003  0.1468 -0.4641
  500MOL0     C68881  10.840   7.112   4.621 -0.6622 -1.0802  0.0852
  500MOL0     C68882  10.885   7.012   4.726  0.9529  0.1814  1.3698
  500MOL0     C68883  11.018   6.964   4.684 -0.6437  0.4282 -0.4759
  500MOL0     C68884  11.008   6.865   4.567 -1.1265 -0.4323  0.6998
  500MOL0     C68885  11.139   6.848   4.490 -0.2622  0.3845 -0.4210
  500MOL0     O68886  11.114   6.771   4.377  0.2532 -0.1114  0.2289
  500MOL0     C68887  11.115   6.633   4.373  0.7263 -0.1646  0.1551
  500MOL0     C68888  11.160   6.549   4.488  0.9200 -0.1836 -0.3681
  500MOL0     C68889  11.145   6.412   4.483 -0.1078  0.5391 -0.2569
  500MOL0     C68890  11.206   6.352   4.613  0.8308 -0.1299 -0.1666
  500MOL0     C68891  11.072   6.350   4.377  0.6826  0.1868 -0.7325
  500MOL0     C68892  11.056   6.199   4.359  0.4503 -0.1349 -0.1560
  500MOL0     O68893  11.112   6.129   4.461  0.1432 -0.1944  0.1456
  500MOL0     C68894  11.059   6.008   4.489 -0.9106 -1.0031  0.4793
  500MOL0     C68895  10.948   5.982   4.569 -0.2036 -0.1456 -0.6508
  500MOL0     C68896  10.917   5.851   4.598  0.7721  0.3228  0.3899
  500MOL0     C68897  10.988   5.748   4.539 -0.0923 -0.4172  0.9413
  500MOL0     O68898  10.943   5.622   4.581  0.1294 -1.2213  0.1613
  500MOL0     C68899  11.023   5.507   4.580  0.3915 -0.3893 -0.1990
  500MOL0     C68900  10.973   5.388   4.673  0.8816 -1.0851  0.7224
  500MOL0     C68901  10.824   5.389   4.708  0.0573 -0.1333 -0.0936
  500MOL0     C68902  10.803   5.283   4.825  0.1169  0.2525  0.0404
  500MOL0     C68903  10.647   5.260   4.847 -0.5031 -0.1696  0.0776
  500MOL0     C68904  10.581   5.182   4.733  1.7681 -0.6269 -0.5705
  500MOL0     C68905  10.446   5.124   4.780  0.4564  0.0561 -0.3390
  500MOL0     C68906  10.390   5.024   4.680  0.1354  0.3816 -0.1231
  500MOL0    Cl68907  10.508   4.897   4.622 -0.1474  0.0856  0.5422
  500MOL0     C68908  11.098   5.769   4.461  0.1346 -0.9041 -0.0398
  500MOL0     C68909  11.135   5.909   4.437 -0.4646  0.0725  0.8569
  500MOL0     O68910  10.986   6.149   4.269 -0.0290 -0.6215 -0.5553
  500MOL0     C68911  11.050   6.427   4.264 -0.1181  0.2727 -0.0015
  500MOL0     C68912  11.063   6.564   4.262 -0.3708 -0.6961  1.2103
  500MOL0     N68913  10.890   7.236   4.579  0.3267 -0.2459  0.7620
  500MOL0     N68914  10.823   7.290   4.481  0.3317  0.5866 -0.5759
  500MOL0     C68915   9.684   7.715   4.472  0.4987 -0.1978 -0.1158
  500MOL0     C68916   9.558   7.781   4.466  0.0218  0.9844  0.7537
  500MOL0     C68917   9.170   7.968   4.567  0.8329 -1.3211  0.6302
  500MOL0     C68918   9.185   8.094   4.627 -0.8157  0.4461 -0.4428
  500MOL0     C68919   9.090   8.188   4.625  0.3409 -1.0017 -0.8852
  500MOL0     C68920   8.966   8.172   4.552 -0.9385 -0.2483  0.0763
  500MOL0     O68921   8.878   8.283   4.542  0.8002  0.1396  0.0082
  500MOL0     C68922   8.782   8.283   4.431 -1.1177 -0.4422 -0.5479
  500MOL0     C68923   8.846   8.308   4.293  0.3673  0.4342 -0.1830
  500MOL0     C68924   8.937   8.433   4.292 -0.0058 -0.0942 -0.6524
  500MOL0     C68925   9.051   8.442   4.182  0.1525  0.0523 -0.3872
  500MOL0     C68926   8.995   8.465   4.045  0.2959  0.1062  0.7147
  500MOL0     C68927   8.952   8.456   3.930  0.1595 -0.2745 -0.6725
  500MOL0     C68928   8.944   8.038   4.509 -0.3091  0.2103 -0.2300
  500MOL0     C68929   9.040   7.939   4.521 -0.0852 -0.5726  0.5344
  500MOL0     C68930   8.993   7.806   4.472  0.0150 -0.6814 -0.0206
  500MOL0     H68931   9.562   7.948   4.758  0.7308  2.6809 -2.4759
  500MOL0     H68932   9.775   7.825   4.785 -0.8115 -2.3808  1.8370
  500MOL0     H68933   9.972   7.691   4.768  0.6195  5.0422  1.6406
  500MOL0     H68934  10.010   7.823   4.665 -1.7233  0.5085 -0.8822
  500MOL0     H68935  10.163   7.741   4.540 -0.0662 -1.3644 -0.6693
  500MOL0     H68936  10.199   7.686   4.697  2.3784  0.0916 -1.2182
  500MOL0     H68937  10.122   7.446   4.640 -0.3585  0.5630  0.0226
  500MOL0     H68938  10.065   7.485   4.487  0.2744 -1.1558 -0.6356
  500MOL0     H68939  10.300   7.576   4.440 -1.3817  0.8001 -0.2549
  500MOL0     H68940  10.332   7.474   4.591 -0.1291  4.5554  1.4182
  500MOL0     H68941  10.164   7.371   4.360 -2.3921 -0.3710  3.1753
  500MOL0     H68942  10.244   7.281   4.485  1.9936  0.1599  0.4543
  500MOL0     H68943  10.361   7.231   4.288 -1.1132 -0.6797  1.9946
  500MOL0     H68944  10.426   7.396   4.285  2.8253 -3.6631 -2.4350
  500MOL0     H68945  10.464   7.166   4.491  1.4041 -1.8573 -3.3287
  500MOL0     H68946  10.511   7.340   4.520  2.1531  1.5037 -0.8276
  500MOL0     H68947  10.599   7.154   4.291 -0.7485 -0.5502  0.3707
  500MOL0     H68948  10.645   7.321   4.305 -0.1185 -0.5189  0.0508
  500MOL0     H68949  10.667   7.009   4.545  0.8961 -0.1323  2.9358
  500MOL0     H68950  10.826   6.920   4.723  0.2318  0.6497 -1.3035
  500MOL0     H68951  10.871   7.068   4.819 -3.6008  1.4919  0.1229
  500MOL0     H68952  11.083   7.051   4.669 -1.9563  1.4848 -0.2578
  500MOL0     H68953  11.060   6.919   4.774  1.7592  1.7339 -0.8600
  500MOL0     H68954  10.955   6.776   4.599 -1.6594  1.0469  4.3830
  500MOL0     H68955  10.941   6.920   4.500  1.9134  0.2582 -2.0423
  500MOL0     H68956  11.184   6.946   4.471 -2.5152  1.5654  0.0018
  500MOL0     H68957  11.200   6.798   4.566 -2.8951  1.0965  2.3614
  500MOL0     H68958  11.197   6.588   4.582  3.9517 -1.2341 -0.9895
  500MOL0     H68959  11.278   6.420   4.660  0.2558  0.4671 -0.1305
  500MOL0     H68960  11.259   6.256   4.613  0.2884 -0.4418 -0.8749
  500MOL0     H68961  11.119   6.349   4.680  2.2555  1.4271  1.8928
  500MOL0     H68962  10.885   6.061   4.609  2.2294  2.0512 -0.9088
  500MOL0     H68963  10.833   5.823   4.661 -0.2880 -0.1592 -1.1843
  500MOL0     H68964  11.032   5.469   4.478  2.6535 -0.2349 -0.1260
  500MOL0     H68965  11.123   5.537   4.613  0.3912  0.0434 -0.5701
  500MOL0     H68966  11.009   5.292   4.637  0.5010 -1.7968  2.1849
  500MOL0     H68967  11.032   5.407   4.763  0.2302  0.5139  0.8461
  500MOL0     H68968  10.764   5.347   4.627 -3.6006  0.0396  2.3398
  500MOL0     H68969  10.775   5.482   4.735 -1.3134 -0.5905 -0.9034
  500MOL0     H68970  10.850   5.317   4.918  1.7429 -0.2617 -0.5638
  500MOL0     H68971  10.853   5.186   4.817  1.1832  0.1097  4.8704
  500MOL0     H68972  10.641   5.190   4.930  0.6125 -5.2098 -3.6339
  500MOL0     H68973  10.605   5.360   4.862  0.1453  0.2163 -0.5812
  500MOL0     H68974  10.649   5.099   4.712 -0.4124 -3.6675  3.1083
  500MOL0     H68975  10.557   5.249   4.650  0.5222  0.7076  0.8158
  500MOL0     H68976  10.370   5.201   4.796 -0.2297 -0.5568 -0.5668
  500MOL0     H68977  10.475   5.077   4.875  3.8144  1.8645 -0.3105
  500MOL0     H68978  10.342   5.064   4.591 -3.2420 -1.5387  0.6358
  500MOL0     H68979  10.314   4.964   4.732  1.5662 -1.7987 -0.4004
  500MOL0     H68980  11.154   5.687   4.417 -2.8969 -1.8025 -2.5772
  500MOL0     H68981  11.227   5.920   4.382 -1.6158 -2.5735 -1.8854
  500MOL0     H68982  11.002   6.383   4.177 -0.9702 -0.6072  0.8927
  500MOL0     H68983  11.029   6.611   4.170 -0.9344 -2.2377  0.5965
  500MOL0     H68984   9.690   7.637   4.397 -3.3972 -1.9770  1.1327
  500MOL0     H68985   9.495   7.768   4.379 -0.7251  1.9470  1.1312
  500MOL0     H68986   9.274   8.136   4.673 -1.9805  0.4016  2.0070
  500MOL0     H68987   9.104   8.286   4.669 -2.9666  0.8218 -3.4797
  500MOL0     H68988   8.733   8.185   4.429 -1.5143 -0.2414 -0.6637
  500MOL0     H68989   8.707   8.361   4.446  1.2097  1.5378  1.9016
  500MOL0     H68990   8.769   8.332   4.219 -0.0350  0.4218  0.2187
  500MOL0     H68991   8.893   8.215   4.262 -2.3440 -0.9521 -0.4808
  500MOL0     H68992   8.877   8.524   4.296  1.4366  0.8515  0.7728
  500MOL0     H68993   8.995   8.424   4.384 -0.4614  2.3766 -0.0726
  500MOL0     H68994   9.095   8.342   4.179  0.9886  0.4191 -0.3337
  500MOL0     H68995   9.112   8.528   4.210 -0.6780  1.0207 -1.4364
  500MOL0     H68996   8.918   8.442   3.830  0.1408 -2.8443 -0.3685
  500MOL0     H68997   8.843   8.016   4.476 -0.3360 -1.0393  0.6356
  500MOL0     H68998   8.885   7.792   4.477  0.2231 -2.3268  0.4859
  500MOL0     H68999   9.035   7.784   4.373 -1.7692 -1.8017 -0.5698
  500MOL0     H69000   9.030   7.726   4.537 -0.7040 -1.5818 -0.6990
  501MOL0     O69001   0.880   7.420   2.625 -0.1743 -1.1722  0.0429
  501MOL0     C69002   0.911   7.459   2.518 -0.1096  0.0180  0.6094
  501MOL0     O69003   1.027   7.516   2.496 -0.4891  0.0003  0.3364
  501MOL0     C69004   1.128   7.496   2.587  0.0908  0.1120 -0.1825
  501MOL0     C69005   1.155   7.589   2.689  0.8418 -0.1184 -0.3441
  501MOL0     C69006   1.255   7.568   2.783 -0.5642  0.0731  0.4963
  501MOL0     C69007   1.330   7.453   2.782  0.3916 -0.6693  0.1991
  501MOL0     O69008   1.421   7.435   2.880 -0.1041 -0.5645  0.7632
  501MOL0     C69009   1.548   7.368   2.854  0.2678  0.0965  0.8226
  501MOL0     C69010   1.553   7.216   2.881  0.1351  0.5714  0.9108
  501MOL0     C69011   1.673   7.145   2.820 -0.9188  0.1255 -0.0165
  501MOL0     C69012   1.777   7.110   2.930  1.0765  1.4611  0.1256
  501MOL0     C69013   1.907   7.042   2.884  0.8722 -0.2143  0.7076
  501MOL0     C69014   1.975   7.098   2.759  0.0095 -0.5574  0.9306
  501MOL0     C69015   2.035   7.244   2.766  0.0894  0.9687 -1.0685
  501MOL0     C69016   2.113   7.263   2.901  0.1086 -0.9528  0.2720
  501MOL0     N69017   2.168   7.397   2.885  0.1538  0.7331  0.3410
  501MOL0     C69018   2.288   7.422   2.817  0.3839  0.3922 -0.5421
  501MOL0     C69019   2.298   7.557   2.817 -0.2205 -0.7188  0.1184
  501MOL0     C69020   2.394   7.642   2.739  0.3370 -0.1590 -0.4646
  501MOL0     C69021   2.371   7.651   2.589  0.1345  0.9835 -0.6787
  501MOL0     C69022   2.347   7.513   2.521 -0.2805  0.5769 -0.3511
  501MOL0     C69023   2.304   7.522   2.370 -0.5173 -0.3748  0.9496
  501MOL0     O69024   2.395   7.609   2.301  0.6154 -0.0240  0.2608
  501MOL0     C69025   2.513   7.561   2.254  0.1608 -0.5492 -0.6358
  501MOL0     C69026   2.589   7.648   2.176  0.3942 -1.3929 -1.2642
  501MOL0     C69027   2.702   7.599   2.109  0.4086 -0.4372 -0.2558
  501MOL0     C69028   2.777   7.701   2.034 -0.8728 -0.1552  1.0711
  501MOL0     C69029   2.743   7.459   2.116  0.2662  0.4118  0.9103
  501MOL0     C69030   2.867   7.402   2.056  1.0535 -0.4348  0.1141
  501MOL0     O69031   2.887   7.271   2.058  0.6494  0.1880 -0.7984
  501MOL0     C69032   3.001   7.221   1.987  0.4372  0.5875 -0.7466
  501MOL0     C69033   2.983   7.198   1.850  0.4513 -0.3259  0.3787
  501MOL0     C69034   3.089   7.131   1.780 -0.0501  0.8802 -0.4696
  501MOL0     C69035   3.210   7.088   1.849  0.3502 -0.6731  0.9253
  501MOL0     O69036   3.304   7.040   1.760  0.4101 -0.7913 -0.2484
  501MOL0     C69037   3.429   7.000   1.826  0.1312 -0.7723  0.0665
  501MOL0     C69038   3.526   6.958   1.718 -0.3602 -0.4470  0.3080
  501MOL0     C69039   3.563   7.074   1.621 -0.0578 -0.4175  0.1623
  501MOL0     C69040   3.503   7.071   1.477 -0.5180 -0.2067  0.5628
  501MOL0     C69041   3.579   7.139   1.375 -0.8958  0.3736  0.5016
  501MOL0     C69042   3.505   7.159   1.245  0.3812  0.0219  0.4305
  501MOL0     C69043   3.396   7.277   1.252 -0.3166 -0.8296  0.8330
  501MOL0     C69044   3.276   7.230   1.175  0.0823 -0.2223  0.2911
  501MOL0    Cl69045   3.191   7.085   1.264 -0.4075 -0.4204  0.4391
  501MOL0     C69046   3.226   7.117   1.984  0.4298  0.2202 -0.1428
  501MOL0     C69047   3.118   7.175   2.054 -0.7403  0.4438  0.0366
  501MOL0     O69048   2.943   7.482   1.995  0.2476  0.5477  1.5554
  501MOL0     C69049   2.663   7.371   2.180  0.2976  0.3178 -0.2859
  501MOL0     C69050   2.543   7.423   2.248 -0.6354  0.4765 -0.2510
  501MOL0     N69051   2.189   7.608   2.888 -0.5924 -0.3534 -0.7169
  501MOL0     N69052   2.110   7.512   2.920  0.4616 -0.0702 -0.4066
  501MOL0     C69053   1.303   7.363   2.687  0.6389  0.4621  0.4329
  501MOL0     C69054   1.200   7.380   2.593 -0.1153  0.2798  0.3706
  501MOL0     C69055   0.826   7.439   2.407 -0.0630 -0.0850 -0.9392
  501MOL0     C69056   0.789   7.557   2.335 -0.6036 -0.7476 -1.1393
  501MOL0     C69057   0.688   7.560   2.241 -0.3927 -0.7265 -0.2263
  501MOL0     C69058   0.624   7.438   2.205  0.8011 -0.3965 -0.9333
  501MOL0     O69059   0.518   7.421   2.123  0.2460 -0.2369  0.6128
  501MOL0     C69060   0.441   7.539   2.074 -0.5166 -0.0924 -0.2426
  501MOL0     C69061   0.331   7.514   1.976  0.1915 -0.9042  0.4193
  501MOL0     C69062   0.254   7.388   2.006  0.3313  0.5369  0.9185
  501MOL0     C69063   0.144   7.365   1.903  0.0446 -0.4816 -0.4238
  501MOL0     C69064   0.147   7.221   1.864  0.7288  0.4046 -0.0001
  501MOL0     C69065   0.179   7.103   1.846  0.3706  0.0522  0.1621
  501MOL0     C69066   0.653   7.316   2.275  0.4427 -0.1123  0.3555
  501MOL0     C69067   0.758   7.311   2.373  0.7514 -0.4051 -0.4088
  501MOL0     C69068   0.795   7.182   2.438 -1.0444 -0.0650 -0.7555
  501MOL0     H69069   1.099   7.682   2.698 -2.1023 -1.8979  1.5804
  501MOL0     H69070   1.287   7.646   2.851 -1.4011  1.4000 -0.6027
  501MOL0     H69071   1.625   7.427   2.903  0.5763  0.1131  0.3284
  501MOL0     H69072   1.582   7.382   2.751  1.1445 -0.7857  0.9651
  501MOL0     H69073   1.548   7.198   2.988  1.2815 -1.5107  0.6786
  501MOL0     H69074   1.458   7.176   2.844 -1.1367  1.5367  2.9383
  501MOL0     H69075   1.649   7.046   2.780  1.5053  1.0301 -4.3871
  501MOL0     H69076   1.719   7.187   2.729 -3.5609 -0.4042 -1.7196
  501MOL0     H69077   1.811   7.201   2.980  1.5822  1.3486 -0.0067
  501MOL0     H69078   1.724   7.048   3.002  3.0876  2.8652  2.9887
  501MOL0     H69079   1.896   6.934   2.874 -2.1999 -0.0279  1.2313
  501MOL0     H69080   1.983   7.042   2.963  1.5637  1.7946  0.1190
  501MOL0     H69081   2.054   7.027   2.733  1.1016  0.8892  0.1090
  501MOL0     H69082   1.917   7.092   2.666  0.7510  0.4789  0.3724
  501MOL0     H69083   1.950   7.311   2.755  0.7241  1.7849 -1.1676
  501MOL0     H69084   2.096   7.262   2.676 -0.8694  2.1572 -1.5215
  501MOL0     H69085   2.048   7.252   2.988  1.7912  0.1314  1.7380
  501MOL0     H69086   2.190   7.185   2.905  1.6631  0.4976  0.2237
  501MOL0     H69087   2.342   7.356   2.749  1.9369  2.8939 -1.8723
  501MOL0     H69088   2.492   7.600   2.760 -0.0032 -0.1466  1.3838
  501MOL0     H69089   2.398   7.742   2.784  3.1817 -1.1141  1.7477
  501MOL0     H69090   2.280   7.708   2.569  0.2068  0.3440 -3.1769
  501MOL0     H69091   2.454   7.700   2.538 -0.2335  1.0658 -1.2017
  501MOL0     H69092   2.427   7.439   2.528 -2.4897 -1.9299  0.1227
  501MOL0     H69093   2.260   7.467   2.569  1.3411 -2.2950  0.0643
  501MOL0     H69094   2.303   7.425   2.320  3.3054 -1.3343  2.3922
  501MOL0     H69095   2.203   7.563   2.377 -0.4582 -0.2515  1.1021
  501MOL0     H69096   2.552   7.750   2.173  1.6038 -0.8719  0.0179
  501MOL0     H69097   2.792   7.668   1.931  3.0811 -4.4675  2.6517
  501MOL0     H69098   2.871   7.726   2.083 -0.5661  2.8109 -0.8172
  501MOL0     H69099   2.736   7.801   2.052 -0.2055  0.2132  0.5839
  501MOL0     H69100   2.893   7.230   1.799 -0.9614 -1.0348  2.3279
  501MOL0     H69101   3.084   7.110   1.673  2.3128  1.6227 -0.7920
  501MOL0     H69102   3.475   7.074   1.892  0.6534 -1.2416  0.2314
  501MOL0     H69103   3.407   6.915   1.891 -1.6483  0.0434  0.5992
  501MOL0     H69104   3.623   6.933   1.763 -1.8378  1.2021  5.0118
  501MOL0     H69105   3.482   6.870   1.670  1.5021 -1.1896 -0.1117
  501MOL0     H69106   3.672   7.075   1.616  0.0370 -0.9821  1.7440
  501MOL0     H69107   3.536   7.171   1.661  1.1785  0.0649 -0.1283
  501MOL0     H69108   3.406   7.123   1.480 -1.1310 -1.0887 -2.0735
  501MOL0     H69109   3.462   6.975   1.447 -1.2642  1.2232 -3.5817
  501MOL0     H69110   3.612   7.235   1.418 -2.4094  0.4121  1.6669
  501MOL0     H69111   3.670   7.079   1.362 -0.4298  1.1262  0.1791
  501MOL0     H69112   3.462   7.064   1.213  0.1146 -0.5465  2.3137
  501MOL0     H69113   3.582   7.194   1.176 -0.0737  1.1310  0.4561
  501MOL0     H69114   3.444   7.368   1.214  3.0773 -3.5089 -1.9304
  501MOL0     H69115   3.377   7.285   1.359 -1.7010 -4.9902  1.0382
  501MOL0     H69116   3.286   7.200   1.070  0.0800  2.0380 -0.4027
  501MOL0     H69117   3.206   7.314   1.175 -0.2451 -0.4325  2.3540
  501MOL0     H69118   3.327   7.101   2.021  1.0995  5.1868  0.9563
  501MOL0     H69119   3.134   7.206   2.156  0.8295  0.5288 -0.2129
  501MOL0     H69120   2.673   7.264   2.190 -5.0618 -0.7666 -2.7145
  501MOL0     H69121   2.490   7.343   2.300  0.2934  0.0309  0.0432
  501MOL0     H69122   1.353   7.268   2.689 -1.9680 -1.1484 -2.0956
  501MOL0     H69123   1.164   7.303   2.525 -0.9974 -0.0048  1.1318
  501MOL0     H69124   0.848   7.644   2.362  0.8246 -2.3623  1.3471
  501MOL0     H69125   0.659   7.661   2.213  1.0788  0.0140  0.8054
  501MOL0     H69126   0.397   7.590   2.160 -2.1213 -3.1222  0.8552
  501MOL0     H69127   0.510   7.610   2.028 -3.4225  3.4988  0.4181
  501MOL0     H69128   0.365   7.515   1.872 -5.6615  0.4994 -1.8621
  501MOL0     H69129   0.261   7.598   1.978  2.3068  0.9377  0.6052
  501MOL0     H69130   0.316   7.299   2.021 -0.0575  0.5211  2.6020
  501MOL0     H69131   0.209   7.418   2.101  0.1316  5.1147 -0.3724
  501MOL0     H69132   0.157   7.431   1.817  2.6179 -2.5279 -1.7620
  501MOL0     H69133   0.052   7.407   1.944  1.7809  5.8439 -1.9996
  501MOL0     H69134   0.194   6.997   1.847  2.0968  0.0341 -4.4164
  501MOL0     H69135   0.589   7.229   2.259  0.6752 -0.1189 -0.6394
  501MOL0     H69136   0.833   7.107   2.369 -1.6210 -0.6404 -0.4531
  501MOL0     H69137   0.871   7.199   2.515 -1.1683 -2.3724 -0.0566
  501MOL0     H69138   0.704   7.151   2.490  0.7696 -0.8692  2.2083
  502MOL0     O69139  10.785   1.123   6.882 -0.1177  0.1779 -0.1058
  502MOL0     C69140  10.714   1.169   6.974  0.5330  0.3930 -0.0284
  502MOL0     O69141  10.753   1.263   7.065 -0.1071 -0.5738  0.3453
  502MOL0     C69142  10.883   1.312   7.060  0.2959  0.0706  0.6041
  502MOL0     C69143  10.966   1.330   6.943  0.2823 -1.1823 -0.1749
  502MOL0     C69144  11.101   1.372   6.954 -0.6086 -0.1974 -0.8639
  502MOL0     C69145  11.157   1.385   7.087  0.9708  0.8970 -0.1690
  502MOL0     O69146  11.282   1.421   7.120 -0.2197 -0.3903  0.4095
  502MOL0     C69147  11.379   1.450   7.015 -0.1898  0.2555 -0.6724
  502MOL0     C69148  11.526   1.474   7.073  0.5116  0.3751  1.2554
  502MOL0     C69149  11.631   1.408   6.982 -0.4060 -0.0851 -0.4472
  502MOL0     C69150  11.767   1.396   7.051  0.8360 -0.6726  0.0051
  502MOL0     C69151  11.872   1.356   6.949  0.1266  0.1941  0.6391
  502MOL0     C69152  11.842   1.213   6.891 -0.7054  0.5848  0.6926
  502MOL0     C69153  11.960   1.134   6.827 -0.3611  0.2395 -0.0990
  502MOL0     C69154  11.935   0.984   6.769  0.4701  0.0526  0.1223
  502MOL0     N69155  12.068   0.916   6.744  1.0528 -0.3085 -0.1616
  502MOL0     C69156  12.089   0.825   6.650 -0.8481 -0.5895 -0.2509
  502MOL0     C69157  12.210   0.774   6.688  0.1328  0.2739  0.3343
  502MOL0     C69158  12.287   0.693   6.597 -0.4292  0.7307  0.6472
  502MOL0     C69159  12.413   0.754   6.538 -0.6375  0.0487 -1.2506
  502MOL0     C69160  12.500   0.655   6.458  1.1709 -0.7901 -1.0406
  502MOL0     C69161  12.635   0.719   6.428 -0.2180  0.3621  0.5651
  502MOL0     O69162  12.715   0.666   6.321 -0.1859  0.3827  0.0546
  502MOL0     C69163  12.825   0.590   6.358  0.1049 -0.7253  0.1040
  502MOL0     C69164  12.828   0.478   6.442  0.5957  0.2535  0.7220
  502MOL0     C69165  12.944   0.414   6.471 -0.0474  1.2477 -1.1502
  502MOL0     C69166  12.930   0.280   6.540 -1.1775 -0.1608  0.0896
  502MOL0     C69167  13.069   0.465   6.431  1.1919 -0.1959 -0.2158
  502MOL0     C69168  13.202   0.411   6.461 -0.7090 -0.8775  1.0849
  502MOL0     O69169  13.310   0.456   6.384 -0.3622  0.4463  0.1204
  502MOL0     C69170  13.439   0.408   6.404 -0.3846 -0.3146 -0.0618
  502MOL0     C69171  13.512   0.387   6.285  0.1512 -0.5514 -0.4277
  502MOL0     C69172  13.651   0.361   6.288 -0.1349  0.1155  0.4124
  502MOL0     C69173  13.705   0.343   6.409  0.5854 -0.0883  0.2052
  502MOL0     O69174  13.831   0.291   6.390  0.5774  0.3646  0.6815
  502MOL0     C69175  13.906   0.275   6.503 -0.2857  0.3069 -0.0502
  502MOL0     C69176  14.053   0.247   6.455 -0.5264 -0.0931  0.6298
  502MOL0     C69177  14.073   0.129   6.363 -0.0730 -0.1022  0.1773
  502MOL0     C69178  14.172   0.161   6.245 -0.5895 -0.3055 -0.5424
  502MOL0     C69179  14.195   0.027   6.169 -0.4564  0.5159  0.1750
  502MOL0     C69180  14.339   0.018   6.114 -0.5507 -0.7413  0.3995
  502MOL0     C69181  14.363  -0.109   6.041 -0.3404 -0.4049 -0.1830
  502MOL0     C69182  14.261  -0.154   5.941  0.4462 -0.3823 -0.4990
  502MOL0    Cl69183  14.253  -0.011   5.828 -0.1391 -0.1454  0.3590
  502MOL0     C69184  13.635   0.379   6.529 -0.3251  0.0007  0.5368
  502MOL0     C69185  13.501   0.410   6.521 -0.1251  0.5955 -1.1175
  502MOL0     O69186  13.220   0.326   6.546 -0.1454  0.2747 -1.1158
  502MOL0     C69187  13.066   0.584   6.360 -1.2127  0.1911 -0.2661
  502MOL0     C69188  12.947   0.636   6.316 -0.7244 -0.6968 -0.9284
  502MOL0     N69189  12.248   0.829   6.800  0.2144  0.7965  0.4452
  502MOL0     N69190  12.164   0.914   6.841 -0.0494 -0.1647 -0.6881
  502MOL0     C69191  11.078   1.358   7.203  0.0951  1.0193  0.1843
  502MOL0     C69192  10.942   1.337   7.184  1.2168  0.8477  0.6259
  502MOL0     C69193  10.570   1.143   6.976  0.2941  0.5556 -1.0291
  502MOL0     C69194  10.476   1.242   7.020 -0.5822  0.0287 -0.0628
  502MOL0     C69195  10.339   1.227   7.033  0.4443 -0.0169  1.4727
  502MOL0     C69196  10.279   1.102   6.997 -0.0666 -0.1099  0.5610
  502MOL0     O69197  10.143   1.077   7.003  0.0492 -0.1008 -0.0843
  502MOL0     C69198  10.052   1.170   7.056 -0.1933  0.6025 -0.7044
  502MOL0     C69199   9.900   1.128   7.018 -0.0442  0.0098 -0.1174
  502MOL0     C69200   9.810   1.239   7.069 -1.0236 -0.2039  0.4213
  502MOL0     C69201   9.663   1.193   7.088 -0.3208  0.5126  1.0454
  502MOL0     C69202   9.609   1.131   6.967 -0.1881  0.2507  0.3985
  502MOL0     C69203   9.570   1.075   6.865  0.0016 -0.3713 -0.4222
  502MOL0     C69204  10.360   1.016   6.931  0.6113  0.8060 -0.4482
  502MOL0     C69205  10.500   1.031   6.921 -0.1626  0.5910 -0.2133
  502MOL0     C69206  10.578   0.907   6.877  0.4324 -0.9401 -0.0005
  502MOL0     H69207  10.919   1.330   6.845 -1.1789  1.3463  0.4352
  502MOL0     H69208  11.149   1.405   6.862  1.4262  2.6659  1.0737
  502MOL0     H69209  11.347   1.538   6.959  0.0921  2.3942  2.3108
  502MOL0     H69210  11.386   1.363   6.949 -2.0979  0.4017 -1.1414
  502MOL0     H69211  11.522   1.583   7.071  0.5576  0.4090 -1.8673
  502MOL0     H69212  11.548   1.434   7.172 -1.7851 -0.8524  1.3345
  502MOL0     H69213  11.605   1.304   6.962  0.5788 -0.4163 -0.1122
  502MOL0     H69214  11.645   1.469   6.893 -1.3052  1.7160  0.5958
  502MOL0     H69215  11.798   1.494   7.087  0.6362 -1.7071  3.2763
  502MOL0     H69216  11.753   1.334   7.140  2.5045 -1.3950 -0.1939
  502MOL0     H69217  11.969   1.346   7.000 -0.0650 -2.3135  0.6390
  502MOL0     H69218  11.869   1.421   6.861 -3.0160 -0.6668 -0.0040
  502MOL0     H69219  11.802   1.153   6.974  2.8594 -1.1446  1.3541
  502MOL0     H69220  11.760   1.213   6.819  0.1898  0.3807 -0.3473
  502MOL0     H69221  12.035   1.122   6.906 -0.7335  3.7901  1.0108
  502MOL0     H69222  12.004   1.205   6.756  2.6496  1.4677  2.7071
  502MOL0     H69223  11.881   0.924   6.842  0.5479  1.3170  1.2688
  502MOL0     H69224  11.884   0.984   6.672 -0.9189 -1.9628  0.8108
  502MOL0     H69225  12.035   0.815   6.557 -0.5143  0.4316 -0.5717
  502MOL0     H69226  12.226   0.667   6.510 -0.1950 -1.5006  1.0909
  502MOL0     H69227  12.317   0.602   6.650  2.2079 -0.5490 -2.6369
  502MOL0     H69228  12.392   0.852   6.495 -1.7449 -0.1922 -1.2950
  502MOL0     H69229  12.472   0.784   6.625 -1.4460 -1.1328 -0.2509
  502MOL0     H69230  12.514   0.565   6.519 -1.0550 -0.7749 -0.4325
  502MOL0     H69231  12.445   0.639   6.365 -2.1298  2.7765  0.0367
  502MOL0     H69232  12.616   0.824   6.402  0.1341  1.4303  4.1613
  502MOL0     H69233  12.686   0.723   6.524 -1.7224  1.6690  1.3651
  502MOL0     H69234  12.733   0.427   6.458  0.8684 -0.6333 -0.3971
  502MOL0     H69235  12.980   0.200   6.485  2.6882  0.9850  1.6084
  502MOL0     H69236  12.825   0.263   6.562 -1.6491  1.9081 -0.3461
  502MOL0     H69237  12.989   0.277   6.632  2.5012 -0.1085 -2.0558
  502MOL0     H69238  13.461   0.383   6.189  0.2447 -0.4504 -0.4814
  502MOL0     H69239  13.692   0.350   6.188 -3.2909  0.4294 -1.0542
  502MOL0     H69240  13.902   0.362   6.570 -4.5612  0.4648 -0.2315
  502MOL0     H69241  13.880   0.180   6.551 -2.8859 -0.3482 -2.5087
  502MOL0     H69242  14.090   0.339   6.411  0.1962 -0.9286 -0.5639
  502MOL0     H69243  14.111   0.219   6.543  0.0026  1.1882  0.7044
  502MOL0     H69244  13.983   0.094   6.312 -1.5332  1.2310  1.6870
  502MOL0     H69245  14.107   0.048   6.428  1.8577  1.4794  1.2576
  502MOL0     H69246  14.262   0.198   6.295  0.0361 -0.7564 -1.3181
  502MOL0     H69247  14.135   0.238   6.176  0.5301  3.4126  2.6171
  502MOL0     H69248  14.166  -0.065   6.221  0.8138  0.2334  0.4275
  502MOL0     H69249  14.125   0.037   6.085  0.4054  2.7370 -0.3625
  502MOL0     H69250  14.406   0.003   6.199  2.3000 -5.3841 -2.3003
  502MOL0     H69251  14.371   0.098   6.047  1.3308 -1.1445  0.7740
  502MOL0     H69252  14.364  -0.191   6.114 -2.2484 -0.4319 -0.1355
  502MOL0     H69253  14.463  -0.100   5.998 -0.8924 -1.2427 -1.7192
  502MOL0     H69254  14.166  -0.175   5.991  1.0638 -0.8896  0.4814
  502MOL0     H69255  14.296  -0.242   5.887 -1.7213 -0.9870 -1.0011
  502MOL0     H69256  13.688   0.366   6.623 -0.6930 -0.2839  0.7059
  502MOL0     H69257  13.451   0.444   6.611  4.4640  3.1906  0.8153
  502MOL0     H69258  13.157   0.627   6.318  0.0843 -1.8644  0.2703
  502MOL0     H69259  12.971   0.710   6.241 -0.4655  0.7991  0.5840
  502MOL0     H69260  11.107   1.402   7.298 -0.2680  1.5011  0.0784
  502MOL0     H69261  10.881   1.350   7.273  0.6520  0.8012  0.2508
  502MOL0     H69262  10.526   1.329   7.060  0.8539  0.8231 -3.2163
  502MOL0     H69263  10.280   1.309   7.075  0.6709 -0.4716  2.7444
  502MOL0     H69264  10.060   1.181   7.165  1.1126  0.6863 -0.7876
  502MOL0     H69265  10.074   1.274   7.033 -1.6600  2.4814  4.8761
  502MOL0     H69266   9.878   1.038   7.077 -1.3697  1.5576  1.8756
  502MOL0     H69267   9.888   1.108   6.911  1.8279  2.7619 -0.9465
  502MOL0     H69268   9.838   1.288   7.162  1.6071 -0.6054 -0.0599
  502MOL0     H69269   9.806   1.308   6.984 -4.7941 -1.0369 -0.2562
  502MOL0     H69270   9.605   1.278   7.126 -1.6425  0.1129 -0.0006
  502MOL0     H69271   9.660   1.116   7.166  1.4859 -0.2297  0.4317
  502MOL0     H69272   9.514   1.050   6.778  1.9043  2.3750 -2.6188
  502MOL0     H69273  10.313   0.936   6.874  0.6025  1.6771 -1.6932
  502MOL0     H69274  10.679   0.907   6.920 -0.7505 -0.7206  2.9840
  502MOL0     H69275  10.522   0.817   6.902 -1.8287  0.7694  1.5202
  502MOL0     H69276  10.589   0.910   6.768 -1.5613 -0.8954 -0.2433
  503MOL0     O69277   5.070  11.318   2.798  0.1158  0.8422 -0.7512
  503MOL0     C69278   5.127  11.269   2.893  0.1667  0.3306 -0.2742
  503MOL0     O69279   5.244  11.321   2.946 -0.2759 -0.3314 -0.6410
  503MOL0     C69280   5.301  11.442   2.911  0.0132  0.0664  0.2034
  503MOL0     C69281   5.434  11.452   2.963  0.2467 -0.6970  0.1386
  503MOL0     C69282   5.494  11.574   2.963 -0.3683 -0.9272  0.0479
  503MOL0     C69283   5.430  11.691   2.904 -0.2738  0.5896  0.5847
  503MOL0     O69284   5.491  11.810   2.925 -0.5721 -0.8661  0.2108
  503MOL0     C69285   5.418  11.929   2.901  0.7546 -0.1202 -1.0439
  503MOL0     C69286   5.485  12.043   2.966 -0.4051 -0.4459 -0.1495
  503MOL0     C69287   5.450  12.173   2.910  0.0898 -0.4776 -0.4303
  503MOL0     C69288   5.498  12.197   2.768 -0.0044  0.4462  0.4322
  503MOL0     C69289   5.475  12.348   2.739 -0.0173  1.1170 -0.3771
  503MOL0     C69290   5.491  12.390   2.595  0.1168 -1.6387 -0.2404
  503MOL0     C69291   5.436  12.534   2.569  0.4674  0.7847 -0.1590
  503MOL0     C69292   5.284  12.544   2.562 -0.0796 -0.6426  0.4374
  503MOL0     N69293   5.221  12.677   2.527  0.1069 -0.5190 -0.0273
  503MOL0     C69294   5.256  12.799   2.572 -0.5266 -0.0485 -0.2188
  503MOL0     C69295   5.205  12.889   2.497  0.6893 -0.5778  0.2405
  503MOL0     C69296   5.204  13.036   2.539 -0.0689  0.4646  0.1839
  503MOL0     C69297   5.125  13.078   2.664  0.3950  1.0273 -0.6913
  503MOL0     C69298   4.970  13.074   2.646 -0.4121  1.2715 -0.6879
  503MOL0     C69299   4.911  12.947   2.706 -0.2760 -0.8127  0.4415
  503MOL0     O69300   4.766  12.956   2.714  0.3699 -0.4509  0.6147
  503MOL0     C69301   4.706  12.947   2.597 -0.0256 -0.7710  0.0382
  503MOL0     C69302   4.592  13.021   2.576  0.2729 -0.3171 -0.1633
  503MOL0     C69303   4.516  13.028   2.464  0.1492  0.5348  0.1705
  503MOL0     C69304   4.402  13.114   2.459 -0.3787 -1.1262  0.0953
  503MOL0     C69305   4.551  12.943   2.350  0.0489 -0.3122  0.7977
  503MOL0     C69306   4.477  12.945   2.221 -0.3336  0.6802  0.5013
  503MOL0     O69307   4.456  13.060   2.168 -0.7840 -0.3111 -0.5790
  503MOL0     C69308   4.551  13.107   2.081  0.3366  0.0690 -0.2211
  503MOL0     C69309   4.636  13.030   2.014 -0.3445  0.5238  0.1515
  503MOL0     C69310   4.720  13.067   1.922 -0.7803 -0.3252  1.2116
  503MOL0     C69311   4.735  13.206   1.887  0.2519  0.4397 -0.5924
  503MOL0     O69312   4.834  13.237   1.795 -0.5242  0.0599 -0.1208
  503MOL0     C69313   4.875  13.376   1.788  0.2839  1.0305  0.0714
  503MOL0     C69314   5.008  13.382   1.716 -0.3206 -0.1748  0.5423
  503MOL0     C69315   5.070  13.526   1.691  0.4381  0.4013  0.7037
  503MOL0     C69316   5.203  13.523   1.613 -0.2874  0.0661  0.3193
  503MOL0     C69317   5.274  13.652   1.636  0.5462 -0.5173 -1.3679
  503MOL0     C69318   5.408  13.657   1.581 -0.3008  0.1457  0.3185
  503MOL0     C69319   5.412  13.660   1.426  0.1287  0.4319 -0.2774
  503MOL0     C69320   5.541  13.707   1.370 -0.5470 -0.2330  0.5831
  503MOL0    Cl69321   5.678  13.597   1.407  0.3638  0.2992 -0.1064
  503MOL0     C69322   4.643  13.289   1.951  0.7660  0.3658  0.0628
  503MOL0     C69323   4.549  13.239   2.049  1.0452  0.5195  0.3344
  503MOL0     O69324   4.460  12.838   2.159 -0.1511 -0.6005 -0.3925
  503MOL0     C69325   4.668  12.865   2.367  0.4357  0.5203  0.7230
  503MOL0     C69326   4.741  12.870   2.486 -0.6692  0.5502 -0.0825
  503MOL0     N69327   5.148  12.826   2.395 -0.1614 -0.6366  0.7459
  503MOL0     N69328   5.153  12.706   2.412  0.4367 -0.0806 -0.5923
  503MOL0     C69329   5.304  11.680   2.843  0.5088  1.8935 -0.1369
  503MOL0     C69330   5.243  11.551   2.848 -0.3830  0.0706 -1.3872
  503MOL0     C69331   5.075  11.145   2.965  0.3685  0.8965  0.1246
  503MOL0     C69332   5.102  11.134   3.103  0.2218 -0.5073  0.3945
  503MOL0     C69333   5.042  11.038   3.184  0.4909  0.5790 -0.0738
  503MOL0     C69334   4.949  10.949   3.126 -1.0004 -0.0566 -0.9041
  503MOL0     O69335   4.877  10.860   3.197 -0.2285 -0.2597  0.3430
  503MOL0     C69336   4.853  10.884   3.337 -0.0611  0.2513 -0.5857
  503MOL0     C69337   4.738  10.813   3.401 -0.6055  0.4460  0.0550
  503MOL0     C69338   4.626  10.779   3.304 -0.5948 -0.1406  0.1651
  503MOL0     C69339   4.502  10.744   3.374  0.3252 -0.4505 -0.4665
  503MOL0     C69340   4.513  10.650   3.486  0.5595 -0.4820 -0.2486
  503MOL0     C69341   4.546  10.571   3.572  1.1657  0.0265 -0.1353
  503MOL0     C69342   4.929  10.957   2.986 -0.1358 -0.1129  0.2298
  503MOL0     C69343   4.994  11.057   2.902 -0.5750 -0.3316  0.8374
  503MOL0     C69344   4.975  11.043   2.762  0.5027 -0.5277 -0.3001
  503MOL0     H69345   5.485  11.370   3.013 -0.6742 -1.5727 -0.3212
  503MOL0     H69346   5.586  11.592   3.019 -1.0946 -0.6557  1.1996
  503MOL0     H69347   5.320  11.928   2.949  0.3877  1.9429 -1.6554
  503MOL0     H69348   5.407  11.940   2.793  1.9340 -1.8473 -1.3699
  503MOL0     H69349   5.478  12.045   3.075  0.7726  2.2411 -0.0269
  503MOL0     H69350   5.593  12.035   2.954  0.0897  4.1378 -0.6044
  503MOL0     H69351   5.342  12.193   2.904  0.4957  1.5363 -2.3582
  503MOL0     H69352   5.479  12.249   2.983  2.5432 -1.3514 -0.4158
  503MOL0     H69353   5.605  12.176   2.757 -0.5406 -1.7256 -1.3132
  503MOL0     H69354   5.447  12.132   2.697  0.9817  0.1414 -0.0107
  503MOL0     H69355   5.557  12.394   2.796  0.0419  0.4999  0.0490
  503MOL0     H69356   5.380  12.374   2.787  0.2162 -0.3140  0.9247
  503MOL0     H69357   5.598  12.392   2.571  0.4190  0.0112  1.0361
  503MOL0     H69358   5.445  12.318   2.527  0.2438 -2.0716  0.1315
  503MOL0     H69359   5.482  12.565   2.475  2.1316  0.0840  0.3943
  503MOL0     H69360   5.462  12.587   2.661  0.9141 -0.1407  0.2544
  503MOL0     H69361   5.242  12.482   2.483 -0.1613  1.1352 -0.9869
  503MOL0     H69362   5.235  12.525   2.658 -2.5646  0.0431 -0.6109
  503MOL0     H69363   5.313  12.832   2.659 -1.7139  3.2604 -0.5661
  503MOL0     H69364   5.147  13.079   2.456 -0.7211  0.3498  0.5718
  503MOL0     H69365   5.300  13.088   2.544 -0.9544  2.2774 -0.6787
  503MOL0     H69366   5.159  13.006   2.738  0.2880 -1.4935 -2.9473
  503MOL0     H69367   5.156  13.178   2.695 -1.6425  2.5692 -3.1638
  503MOL0     H69368   4.931  13.153   2.712 -0.7203  0.9439 -0.4725
  503MOL0     H69369   4.928  13.085   2.546 -0.7032 -2.8353 -1.1800
  503MOL0     H69370   4.958  12.872   2.642  0.6241 -0.5089  0.7290
  503MOL0     H69371   4.953  12.913   2.801  1.2643 -1.6873 -0.5189
  503MOL0     H69372   4.543  13.079   2.653 -2.6944 -2.0832 -0.5465
  503MOL0     H69373   4.361  13.138   2.557  0.4196 -0.6657  0.3206
  503MOL0     H69374   4.327  13.057   2.403 -2.5354  2.1571 -0.6241
  503MOL0     H69375   4.412  13.205   2.399  2.1884 -1.8854 -0.7887
  503MOL0     H69376   4.637  12.921   2.022 -0.4228  0.3503 -1.8567
  503MOL0     H69377   4.790  12.994   1.883  2.6663  1.7970  2.8692
  503MOL0     H69378   4.805  13.441   1.734  0.3074  0.4505 -0.6788
  503MOL0     H69379   4.881  13.423   1.886  0.4934  1.3810 -0.1055
  503MOL0     H69380   5.084  13.338   1.781  1.5832  1.3514 -0.5391
  503MOL0     H69381   5.017  13.329   1.621  2.0646  0.7987  0.1425
  503MOL0     H69382   5.090  13.580   1.784  1.2341 -2.9618  2.6537
  503MOL0     H69383   5.001  13.587   1.633 -0.6337 -0.4032  1.0946
  503MOL0     H69384   5.166  13.506   1.511  0.2200 -0.1360  0.1620
  503MOL0     H69385   5.280  13.447   1.633 -0.3438 -0.9272 -2.7064
  503MOL0     H69386   5.217  13.731   1.586 -2.8493 -2.1484 -0.3256
  503MOL0     H69387   5.277  13.664   1.745  0.9442  0.4342 -1.4748
  503MOL0     H69388   5.467  13.573   1.618 -2.4445 -1.0417  1.1952
  503MOL0     H69389   5.452  13.749   1.621  2.5743 -1.9567  2.3635
  503MOL0     H69390   5.346  13.745   1.406 -2.3599 -0.0897  4.2821
  503MOL0     H69391   5.377  13.566   1.382 -2.6583  0.8640  0.7861
  503MOL0     H69392   5.568  13.808   1.402  3.1757 -1.4072  1.6609
  503MOL0     H69393   5.526  13.729   1.264 -1.7292 -0.1263  0.7564
  503MOL0     H69394   4.646  13.393   1.918 -0.7830  0.2381 -0.5563
  503MOL0     H69395   4.494  13.300   2.120  5.3742  2.6751  2.1807
  503MOL0     H69396   4.694  12.804   2.281  1.8487  0.8151  0.9135
  503MOL0     H69397   4.835  12.817   2.472  0.4300  0.8583  4.6825
  503MOL0     H69398   5.261  11.770   2.800 -3.7015 -0.2589 -1.0325
  503MOL0     H69399   5.141  11.533   2.816 -1.2952 -3.8575  2.6881
  503MOL0     H69400   5.170  11.207   3.145 -0.0645 -0.3433  0.5810
  503MOL0     H69401   5.065  11.051   3.289 -0.2634 -2.4808  0.5535
  503MOL0     H69402   4.941  10.844   3.389  1.7184  3.7830 -0.6082
  503MOL0     H69403   4.838  10.990   3.356 -1.4342 -0.3203  1.8914
  503MOL0     H69404   4.696  10.871   3.483 -2.5677 -0.5036 -0.2321
  503MOL0     H69405   4.775  10.727   3.457  1.0814  1.2382  0.2263
  503MOL0     H69406   4.615  10.864   3.237  0.5714  0.7996  1.1289
  503MOL0     H69407   4.668  10.686   3.264  1.8901  0.2538  1.6362
  503MOL0     H69408   4.436  10.711   3.294 -0.7281  1.3337 -0.4018
  503MOL0     H69409   4.454  10.838   3.405  1.4834  0.3772 -1.0762
  503MOL0     H69410   4.575  10.508   3.653 -1.4642  1.0222  1.7067
  503MOL0     H69411   4.873  10.880   2.935 -1.6207  2.1245 -1.7539
  503MOL0     H69412   4.881  11.094   2.737  0.4339 -0.9202 -0.8542
  503MOL0     H69413   5.058  11.074   2.697 -0.0669  0.6912 -0.4754
  503MOL0     H69414   4.948  10.940   2.739 -1.4048 -1.2783  4.2336
  504MOL0     O69415   6.768   1.754   1.972 -0.3003 -0.2053 -0.4162
  504MOL0     C69416   6.872   1.722   1.929  0.8563 -0.6164  0.1137
  504MOL0     O69417   6.927   1.754   1.806 -0.5346 -0.0802 -0.4751
  504MOL0     C69418   6.873   1.863   1.738 -0.5365 -0.0313 -0.1356
  504MOL0     C69419   6.939   1.988   1.749  0.3686 -0.2984 -0.9801
  504MOL0     C69420   6.902   2.087   1.660  0.5317 -0.0766  0.0868
  504MOL0     C69421   6.794   2.077   1.577  0.1624 -0.0911 -0.2737
  504MOL0     O69422   6.742   2.176   1.507 -0.3502  0.5868  0.2097
  504MOL0     C69423   6.723   2.304   1.562 -0.6310  0.5534  0.1427
  504MOL0     C69424   6.622   2.383   1.474  0.0578  0.3924  1.1721
  504MOL0     C69425   6.684   2.455   1.358  0.7063  0.0012 -0.0344
  504MOL0     C69426   6.580   2.510   1.274 -0.2943 -0.0133  1.1956
  504MOL0     C69427   6.645   2.609   1.167  0.1187  0.0035  0.2108
  504MOL0     C69428   6.752   2.563   1.080 -0.1098  0.6728  0.1747
  504MOL0     C69429   6.692   2.489   0.966  0.0242  0.1087 -0.6035
  504MOL0     C69430   6.794   2.458   0.865 -0.5888  0.5219 -0.0118
  504MOL0     N69431   6.747   2.368   0.762  0.1230  0.4990 -1.0564
  504MOL0     C69432   6.633   2.387   0.694 -0.1966  0.4835  0.3008
  504MOL0     C69433   6.641   2.302   0.596  0.1809 -0.1004  0.5498
  504MOL0     C69434   6.522   2.270   0.513  0.5798  0.4235 -0.0431
  504MOL0     C69435   6.558   2.140   0.438  0.5144 -0.0914  0.2835
  504MOL0     C69436   6.448   2.071   0.364  0.1518  0.5861 -0.8168
  504MOL0     C69437   6.390   2.171   0.261  1.3694 -1.3884 -0.1033
  504MOL0     O69438   6.480   2.265   0.199  0.0844  0.0265 -0.5129
  504MOL0     C69439   6.557   2.217   0.094 -0.1279  0.3589  0.0747
  504MOL0     C69440   6.541   2.097   0.035  0.5776 -0.0118  0.6947
  504MOL0     C69441   6.620   2.059  -0.077 -0.3596 -0.3469  0.1454
  504MOL0     C69442   6.591   1.920  -0.124  0.2079  0.0114  0.0303
  504MOL0     C69443   6.713   2.154  -0.138  1.0525 -0.5959 -1.1438
  504MOL0     C69444   6.795   2.129  -0.251 -0.3196 -1.0698 -0.4713
  504MOL0     O69445   6.854   2.239  -0.322  0.5960 -0.1868 -0.7360
  504MOL0     C69446   6.906   2.224  -0.449  0.6628  0.5819 -0.0677
  504MOL0     C69447   6.998   2.322  -0.475 -0.2676 -0.2444 -0.0072
  504MOL0     C69448   7.044   2.329  -0.608 -0.3017 -0.8289  0.2792
  504MOL0     C69449   7.010   2.240  -0.711 -0.5627 -0.1142 -0.4565
  504MOL0     O69450   7.049   2.239  -0.843  0.2292  0.6368  0.3744
  504MOL0     C69451   7.172   2.297  -0.877  0.3540 -0.5731  0.6477
  504MOL0     C69452   7.204   2.240  -1.023  0.9969  0.0852  0.1779
  504MOL0     C69453   7.336   2.307  -1.068 -0.4589 -1.2899  0.2630
  504MOL0     C69454   7.355   2.319  -1.216  0.6963  0.3145  0.4190
  504MOL0     C69455   7.463   2.416  -1.269  1.6531  0.9770 -0.1322
  504MOL0     C69456   7.446   2.556  -1.205 -0.6186  0.6375  1.0029
  504MOL0     C69457   7.525   2.660  -1.274 -0.0575 -0.4544 -0.3147
  504MOL0     C69458   7.502   2.801  -1.253  0.1664 -0.5691 -0.7846
  504MOL0    Cl69459   7.530   2.847  -1.093  0.3390 -0.1885 -0.1243
  504MOL0     C69460   6.926   2.131  -0.674 -0.0329 -0.0443 -0.2683
  504MOL0     C69461   6.870   2.123  -0.538  0.0420  0.8696  0.1808
  504MOL0     O69462   6.823   2.015  -0.270  0.1618  0.1242 -0.5996
  504MOL0     C69463   6.722   2.283  -0.078 -0.1445  0.2832 -0.1969
  504MOL0     C69464   6.643   2.311   0.038 -1.3773 -0.0336 -0.6960
  504MOL0     N69465   6.764   2.241   0.593 -0.1941  0.6895 -0.2225
  504MOL0     N69466   6.826   2.272   0.702 -0.7036 -0.4511  0.0894
  504MOL0     C69467   6.724   1.957   1.574  0.3155  0.6855  0.1106
  504MOL0     C69468   6.769   1.841   1.645 -0.6547 -0.3909 -0.0075
  504MOL0     C69469   6.948   1.617   2.005 -0.9112  0.2037 -0.3181
  504MOL0     C69470   6.887   1.502   2.062  0.3702 -0.8895 -0.5274
  504MOL0     C69471   6.972   1.405   2.126  0.4988 -0.1889 -0.8240
  504MOL0     C69472   7.108   1.433   2.131  0.5288  0.9515  1.2590
  504MOL0     O69473   7.183   1.333   2.182 -0.7560 -1.0853  0.1401
  504MOL0     C69474   7.215   1.348   2.318 -1.2835  0.3608  0.3950
  504MOL0     C69475   7.365   1.329   2.322  0.3977 -0.7766 -0.0168
  504MOL0     C69476   7.406   1.183   2.280  0.4912  0.0265  0.0698
  504MOL0     C69477   7.550   1.169   2.317  0.3852  0.1113  0.1212
  504MOL0     C69478   7.637   1.256   2.231 -0.7562  0.2028 -0.9678
  504MOL0     C69479   7.699   1.355   2.181  0.3914 -0.3439  0.5307
  504MOL0     C69480   7.165   1.538   2.067 -0.2016 -0.4953 -0.2860
  504MOL0     C69481   7.086   1.633   2.003 -0.5473  0.0275  0.6276
  504MOL0     C69482   7.163   1.752   1.949 -0.0181  0.6351 -0.3883
  504MOL0     H69483   7.004   2.008   1.834 -0.8134  0.4222 -0.2127
  504MOL0     H69484   6.969   2.173   1.660  1.1931 -0.5112 -2.3284
  504MOL0     H69485   6.815   2.362   1.570  0.5778 -1.4909  2.2856
  504MOL0     H69486   6.690   2.292   1.666  1.2865  0.1851  0.7353
  504MOL0     H69487   6.558   2.299   1.445  0.4113  0.7421 -0.7340
  504MOL0     H69488   6.577   2.468   1.525 -0.0390  1.5615 -0.7747
  504MOL0     H69489   6.750   2.535   1.392  0.6166 -1.2302  3.3538
  504MOL0     H69490   6.744   2.385   1.298  0.9340 -0.2466  0.4766
  504MOL0     H69491   6.527   2.428   1.223 -1.6767  0.9741  0.9673
  504MOL0     H69492   6.507   2.568   1.331 -2.9614 -1.6271 -0.3512
  504MOL0     H69493   6.664   2.708   1.210  0.0313  1.3869 -2.6412
  504MOL0     H69494   6.554   2.627   1.108  0.4270 -2.1539 -1.0259
  504MOL0     H69495   6.810   2.646   1.037 -1.3480  0.6480 -1.6631
  504MOL0     H69496   6.826   2.504   1.135 -1.2995  1.0510  2.2615
  504MOL0     H69497   6.611   2.546   0.920 -1.5414 -1.0586  0.5912
  504MOL0     H69498   6.649   2.394   0.999  2.0651 -2.1981 -3.9834
  504MOL0     H69499   6.832   2.551   0.821  0.6509 -1.0813 -2.5690
  504MOL0     H69500   6.885   2.415   0.908  0.2531  2.5865  0.4320
  504MOL0     H69501   6.540   2.437   0.717 -0.9646 -1.0839  0.7572
  504MOL0     H69502   6.494   2.357   0.453 -1.9916  2.8489  4.1526
  504MOL0     H69503   6.436   2.257   0.580  2.5212 -0.5041  2.4381
  504MOL0     H69504   6.626   2.180   0.362  0.3903 -1.5982 -0.6421
  504MOL0     H69505   6.605   2.063   0.500  0.9490  0.9190  1.2644
  504MOL0     H69506   6.504   1.988   0.320  0.1560  0.1861 -0.0780
  504MOL0     H69507   6.374   2.042   0.439  1.5007 -0.8492  0.0165
  504MOL0     H69508   6.334   2.103   0.195  0.8799 -2.5365  1.4382
  504MOL0     H69509   6.312   2.226   0.314  1.1143 -1.9649  0.1309
  504MOL0     H69510   6.469   2.021   0.064 -0.7059  1.7286  2.3647
  504MOL0     H69511   6.607   1.910  -0.231  1.7450 -0.8447  0.3055
  504MOL0     H69512   6.484   1.898  -0.116  0.7863 -3.8083 -0.7007
  504MOL0     H69513   6.645   1.837  -0.076 -1.6485 -0.4368  1.4586
  504MOL0     H69514   7.016   2.393  -0.396 -4.6714  0.1873  0.8769
  504MOL0     H69515   7.106   2.414  -0.637  1.8208 -2.3777  0.0327
  504MOL0     H69516   7.155   2.405  -0.882 -3.4433 -1.0227  1.1137
  504MOL0     H69517   7.253   2.270  -0.809 -1.0316  0.2539  2.7309
  504MOL0     H69518   7.216   2.131  -1.014  1.2464  0.2433  2.0261
  504MOL0     H69519   7.114   2.259  -1.082 -0.7328 -3.3680  1.3974
  504MOL0     H69520   7.422   2.265  -1.015  0.6866  0.6248  0.0141
  504MOL0     H69521   7.341   2.409  -1.028 -0.1671 -1.8458  1.6927
  504MOL0     H69522   7.265   2.368  -1.254  2.5063  3.4482 -0.0643
  504MOL0     H69523   7.352   2.220  -1.263 -0.5048  1.2489 -1.5729
  504MOL0     H69524   7.563   2.378  -1.243  0.5347  0.4978  4.1965
  504MOL0     H69525   7.465   2.422  -1.378 -1.9491  1.7414 -0.2640
  504MOL0     H69526   7.474   2.550  -1.099  2.5091  1.3418  0.3017
  504MOL0     H69527   7.341   2.586  -1.216 -1.2513 -2.1403 -3.3393
  504MOL0     H69528   7.501   2.639  -1.379  0.0254  0.9623 -0.6375
  504MOL0     H69529   7.631   2.638  -1.259 -0.4858 -1.2002  1.9407
  504MOL0     H69530   7.398   2.830  -1.272  0.1197  1.2089  1.6796
  504MOL0     H69531   7.571   2.867  -1.306  2.3112  0.5804  3.0546
  504MOL0     H69532   6.916   2.061  -0.756 -0.5895 -2.8453  2.0203
  504MOL0     H69533   6.800   2.043  -0.517 -1.7259  2.8346  2.4926
  504MOL0     H69534   6.791   2.362  -0.106  0.1205  0.6773  1.4413
  504MOL0     H69535   6.646   2.396   0.105  0.7263 -2.7437  3.0327
  504MOL0     H69536   6.636   1.943   1.512 -0.7151  0.0829  1.6533
  504MOL0     H69537   6.724   1.743   1.635 -1.3745  0.0758 -1.7086
  504MOL0     H69538   6.780   1.487   2.058 -0.2801  2.9223 -0.5414
  504MOL0     H69539   6.939   1.318   2.181  1.8429 -0.8376 -1.0008
  504MOL0     H69540   7.194   1.449   2.353  0.3667  1.2188 -0.9502
  504MOL0     H69541   7.168   1.270   2.378  0.3698 -1.6178 -0.7129
  504MOL0     H69542   7.411   1.348   2.419  1.8942  1.8389 -1.1540
  504MOL0     H69543   7.411   1.408   2.262 -0.8573 -0.8576 -1.1477
  504MOL0     H69544   7.350   1.116   2.346 -2.4707 -0.5177 -2.7375
  504MOL0     H69545   7.379   1.161   2.177  0.4831 -0.6176  0.2047
  504MOL0     H69546   7.589   1.071   2.288  2.9508  1.4499 -1.2659
  504MOL0     H69547   7.572   1.189   2.423 -0.7350  1.9215  0.0530
  504MOL0     H69548   7.736   1.449   2.144 -1.2341  0.8512  1.7689
  504MOL0     H69549   7.270   1.552   2.090  0.5374 -1.3739 -2.8185
  504MOL0     H69550   7.160   1.748   1.840 -2.4578 -0.4111 -0.3331
  504MOL0     H69551   7.127   1.849   1.984  0.3997  0.4393  0.6195
  504MOL0     H69552   7.265   1.736   1.986 -1.1950 -1.4948  2.3039
  505MOL0     O69553   0.667   6.217   1.507 -0.1855  0.5745  0.3609
  505MOL0     C69554   0.598   6.185   1.411 -0.0769 -0.0885  0.4214
  505MOL0     O69555   0.506   6.080   1.412  0.6125 -0.5522 -0.6559
  505MOL0     C69556   0.506   6.007   1.532 -1.0530 -1.0392  0.6813
  505MOL0     C69557   0.400   6.012   1.628 -1.5343 -0.4365  1.2984
  505MOL0     C69558   0.395   5.934   1.741 -0.0690  0.4438 -0.5612
  505MOL0     C69559   0.502   5.841   1.770  0.3564 -0.7591  0.6850
  505MOL0     O69560   0.511   5.759   1.868  0.5036 -0.0906  0.2189
  505MOL0     C69561   0.455   5.792   2.001 -1.0726 -0.2921  0.9164
  505MOL0     C69562   0.511   5.680   2.080  0.4077 -0.4080  0.0368
  505MOL0     C69563   0.649   5.710   2.110  0.7885  0.4514  0.4708
  505MOL0     C69564   0.703   5.607   2.203 -0.5954 -0.0711 -0.0202
  505MOL0     C69565   0.700   5.643   2.352 -0.1268 -0.5847 -0.3244
  505MOL0     C69566   0.687   5.523   2.452  0.3904 -0.1139 -0.0487
  505MOL0     C69567   0.809   5.439   2.466  0.8394 -0.2016 -0.4957
  505MOL0     C69568   0.795   5.331   2.576 -0.2755 -0.3420  0.2223
  505MOL0     N69569   0.885   5.217   2.546 -0.5961 -0.2226  0.1955
  505MOL0     C69570   0.867   5.125   2.439 -0.6736 -0.3293 -0.9676
  505MOL0     C69571   0.977   5.057   2.435 -1.0475 -0.0621 -0.5384
  505MOL0     C69572   1.008   4.937   2.349 -0.3229  0.3692  0.0299
  505MOL0     C69573   1.130   4.966   2.263 -0.2443 -0.6835 -0.6447
  505MOL0     C69574   1.258   4.937   2.333  0.1510  0.7031 -0.4761
  505MOL0     C69575   1.376   4.926   2.242 -0.1628  0.8785  0.3516
  505MOL0     O69576   1.357   4.819   2.157 -0.0322 -0.7230  1.1917
  505MOL0     C69577   1.431   4.809   2.041 -0.0567 -0.0395 -0.8662
  505MOL0     C69578   1.551   4.888   2.000  0.7036 -0.7038 -0.6883
  505MOL0     C69579   1.615   4.863   1.874  0.2093  0.3016 -0.5083
  505MOL0     C69580   1.755   4.926   1.848  0.1801  1.1773  0.0399
  505MOL0     C69581   1.565   4.759   1.793  0.5284 -0.6388 -0.8525
  505MOL0     C69582   1.636   4.704   1.672 -0.9757 -0.8198  0.1062
  505MOL0     O69583   1.656   4.568   1.665  0.7180 -0.5607  0.4413
  505MOL0     C69584   1.722   4.530   1.550 -0.6198 -0.9366  0.8683
  505MOL0     C69585   1.666   4.442   1.459  0.0157  0.3744  0.1910
  505MOL0     C69586   1.737   4.396   1.354 -0.5618  0.9096 -0.6420
  505MOL0     C69587   1.866   4.441   1.326 -0.6888 -0.4262 -0.3544
  505MOL0     O69588   1.929   4.400   1.213 -0.2238  0.6909  0.0988
  505MOL0     C69589   2.048   4.449   1.162 -0.2418  0.5090  0.4954
  505MOL0     C69590   2.042   4.415   1.020  0.2904 -0.1519 -0.7547
  505MOL0     C69591   2.184   4.453   0.960 -0.4438  0.0163 -0.3388
  505MOL0     C69592   2.205   4.390   0.828  0.0272 -0.4546  0.0002
  505MOL0     C69593   2.108   4.461   0.724  0.1104  0.3807 -0.0054
  505MOL0     C69594   2.122   4.403   0.584 -0.0659 -0.2513  0.9610
  505MOL0     C69595   2.065   4.495   0.469  0.1071  0.4593 -0.6296
  505MOL0     C69596   2.017   4.431   0.337 -0.6704 -0.7086 -0.5691
  505MOL0    Cl69597   1.855   4.345   0.346  0.8360  0.0848 -0.2294
  505MOL0     C69598   1.923   4.532   1.410 -0.6493 -0.4046 -0.9287
  505MOL0     C69599   1.858   4.575   1.529 -0.0746 -0.5557  0.2223
  505MOL0     O69600   1.665   4.789   1.587 -0.0019  0.2954  0.9119
  505MOL0     C69601   1.446   4.688   1.831 -0.2215  0.2251 -0.5673
  505MOL0     C69602   1.386   4.715   1.954 -0.3424 -0.4263  0.1062
  505MOL0     N69603   1.064   5.107   2.540  0.5119 -0.4405  0.2979
  505MOL0     N69604   1.003   5.203   2.606  0.9813 -0.2877 -0.2999
  505MOL0     C69605   0.611   5.838   1.684 -0.6495 -0.3435  0.6641
  505MOL0     C69606   0.607   5.904   1.560  0.1033  0.0710 -0.0106
  505MOL0     C69607   0.623   6.248   1.281  0.4676  0.6568  0.2692
  505MOL0     C69608   0.752   6.274   1.247  0.0524  1.0308 -0.0706
  505MOL0     C69609   0.794   6.324   1.124 -0.2135 -0.2401 -0.2636
  505MOL0     C69610   0.692   6.346   1.026 -0.1145 -0.1033  1.5109
  505MOL0     O69611   0.723   6.386   0.901 -0.1576 -0.4062  1.0630
  505MOL0     C69612   0.760   6.284   0.811  0.3972  0.6606 -0.2546
  505MOL0     C69613   0.653   6.243   0.727  0.0743 -1.2761  0.6886
  505MOL0     C69614   0.671   6.109   0.664 -0.5090 -1.3640  0.4508
  505MOL0     C69615   0.534   6.072   0.610 -1.1797  0.5590  0.0202
  505MOL0     C69616   0.504   6.149   0.493  0.1345  0.0430  1.1306
  505MOL0     C69617   0.484   6.212   0.387  0.1334 -0.4409  0.2578
  505MOL0     C69618   0.561   6.329   1.062 -0.7935 -0.0654  0.6704
  505MOL0     C69619   0.521   6.281   1.187 -0.0900  0.4269 -0.6107
  505MOL0     C69620   0.365   6.267   1.209 -0.0257  0.3738  0.1798
  505MOL0     H69621   0.324   6.085   1.599 -0.4489  0.0337 -0.5349
  505MOL0     H69622   0.309   5.949   1.805 -0.3174 -0.4730 -0.6676
  505MOL0     H69623   0.347   5.785   1.985 -1.2522  2.1671  0.6401
  505MOL0     H69624   0.484   5.890   2.040  1.1389  0.0787 -1.3918
  505MOL0     H69625   0.462   5.671   2.178  0.8563 -0.5753  0.2529
  505MOL0     H69626   0.499   5.586   2.027  0.4314 -0.8222  0.7488
  505MOL0     H69627   0.702   5.711   2.014 -1.0480 -0.3386 -0.6014
  505MOL0     H69628   0.647   5.810   2.154 -1.6439  0.1615  1.1370
  505MOL0     H69629   0.641   5.519   2.185 -4.4000  2.7485 -2.1912
  505MOL0     H69630   0.809   5.586   2.185 -0.4929  0.5338 -0.1493
  505MOL0     H69631   0.618   5.704   2.389  0.9410 -1.4797  4.0883
  505MOL0     H69632   0.786   5.709   2.367 -0.7758  0.1130  0.4071
  505MOL0     H69633   0.677   5.585   2.542 -1.1247  1.3294 -1.1489
  505MOL0     H69634   0.592   5.468   2.451 -0.8390  1.8960 -0.5646
  505MOL0     H69635   0.893   5.501   2.498  0.1679  0.0503  0.8386
  505MOL0     H69636   0.830   5.390   2.370  0.0889 -2.1478  0.2639
  505MOL0     H69637   0.817   5.364   2.678 -0.6010 -0.9168  0.4809
  505MOL0     H69638   0.690   5.307   2.593  0.2745 -2.0755  1.5369
  505MOL0     H69639   0.776   5.126   2.380 -1.3929  1.0967  0.0961
  505MOL0     H69640   0.920   4.912   2.288 -0.5702  0.0845  0.4995
  505MOL0     H69641   1.024   4.844   2.405 -0.4378 -1.2998 -2.5200
  505MOL0     H69642   1.130   4.890   2.184  1.7868 -0.0528 -1.3417
  505MOL0     H69643   1.119   5.065   2.217 -2.8438 -0.2280  0.7763
  505MOL0     H69644   1.275   5.008   2.415 -0.4458 -1.1264  1.3300
  505MOL0     H69645   1.229   4.841   2.377  1.2282  1.3072  1.6753
  505MOL0     H69646   1.380   5.021   2.187  3.1221  0.1823 -0.8387
  505MOL0     H69647   1.463   4.919   2.307  0.4548 -1.9375 -0.6399
  505MOL0     H69648   1.583   4.977   2.054  2.3308 -0.3015 -2.2392
  505MOL0     H69649   1.777   4.962   1.747 -1.0008  1.0037 -0.2996
  505MOL0     H69650   1.833   4.851   1.860 -0.0778  0.2220 -3.1305
  505MOL0     H69651   1.757   5.010   1.918  2.4670  1.1329  0.0867
  505MOL0     H69652   1.568   4.401   1.480 -0.3181 -0.8035 -3.0605
  505MOL0     H69653   1.693   4.332   1.277  1.6287  1.5334 -2.5026
  505MOL0     H69654   2.053   4.559   1.163  0.2110  0.6073 -2.5407
  505MOL0     H69655   2.129   4.397   1.214 -0.3909  0.5252  0.7475
  505MOL0     H69656   2.028   4.307   1.006  2.2412 -0.7361  1.1723
  505MOL0     H69657   1.956   4.468   0.978  0.0623  0.0712 -0.0328
  505MOL0     H69658   2.258   4.426   1.036 -2.5565 -1.4808  1.3162
  505MOL0     H69659   2.190   4.562   0.946 -4.2258  0.5596  0.9992
  505MOL0     H69660   2.176   4.285   0.821 -1.7752  0.0814 -1.1918
  505MOL0     H69661   2.312   4.408   0.810  0.1072 -0.0938  0.8100
  505MOL0     H69662   2.002   4.450   0.748  0.5374 -0.1233  1.8471
  505MOL0     H69663   2.137   4.567   0.726  0.1434  0.3745 -0.2206
  505MOL0     H69664   2.071   4.307   0.583 -1.9904  0.7212 -0.0817
  505MOL0     H69665   2.227   4.374   0.570 -0.1999 -0.0942 -0.6081
  505MOL0     H69666   2.142   4.572   0.456  1.0617 -0.0820  1.3348
  505MOL0     H69667   1.974   4.539   0.511  0.5950  0.1162  0.8598
  505MOL0     H69668   2.095   4.357   0.317  0.5776 -0.0650  1.6465
  505MOL0     H69669   2.020   4.509   0.260  0.8404 -0.2266 -0.0616
  505MOL0     H69670   2.027   4.563   1.413 -0.5018 -0.9560  0.9816
  505MOL0     H69671   1.903   4.650   1.593  0.5503  1.4010 -2.3330
  505MOL0     H69672   1.412   4.606   1.769 -0.4308 -1.2556  1.4146
  505MOL0     H69673   1.298   4.655   1.972 -0.4270 -1.3534 -2.8176
  505MOL0     H69674   0.700   5.780   1.705 -0.0612 -0.5664 -2.0578
  505MOL0     H69675   0.673   5.891   1.475  0.4290  1.6330 -0.0432
  505MOL0     H69676   0.827   6.241   1.317  0.7045  0.2743 -1.0950
  505MOL0     H69677   0.895   6.349   1.091  0.8671 -5.5669 -2.1519
  505MOL0     H69678   0.850   6.303   0.751  0.5101  4.6279  0.8939
  505MOL0     H69679   0.788   6.204   0.880 -0.3693  1.6266  1.2281
  505MOL0     H69680   0.646   6.325   0.655  4.4322 -0.9116  0.4213
  505MOL0     H69681   0.565   6.235   0.792  1.5379  2.2413  3.3889
  505MOL0     H69682   0.754   6.109   0.592 -0.1748 -1.4909  0.8280
  505MOL0     H69683   0.697   6.047   0.751  2.4856  0.8994  1.3542
  505MOL0     H69684   0.453   6.093   0.680  1.0933  3.7936  1.9913
  505MOL0     H69685   0.534   5.965   0.590 -1.3307  1.2374 -4.6297
  505MOL0     H69686   0.464   6.242   0.287  1.9830 -2.3478 -0.7920
  505MOL0     H69687   0.477   6.344   0.995 -2.8053  0.3185  3.1236
  505MOL0     H69688   0.306   6.295   1.122 -2.4207  0.8226  1.8411
  505MOL0     H69689   0.332   6.166   1.236  2.6822 -1.0278 -1.3188
  505MOL0     H69690   0.323   6.331   1.287  1.4320  0.2348  1.1152
  506MOL0     O69691   3.520   4.675   2.410 -0.3499 -0.4896 -0.5858
  506MOL0     C69692   3.596   4.774   2.402  0.2544  0.1717 -0.0427
  506MOL0     O69693   3.672   4.818   2.499 -0.0133  0.4713 -0.9884
  506MOL0     C69694   3.713   4.749   2.612  0.4629 -0.6155  0.4643
  506MOL0     C69695   3.789   4.832   2.695 -0.4804 -0.1294 -0.3349
  506MOL0     C69696   3.831   4.786   2.821 -0.2445 -0.9468 -0.2627
  506MOL0     C69697   3.799   4.662   2.867 -0.6705  0.1246  0.3355
  506MOL0     O69698   3.833   4.595   2.979 -0.2976 -0.6825 -0.4754
  506MOL0     C69699   3.923   4.666   3.063  0.3263  0.5732  0.2530
  506MOL0     C69700   3.844   4.760   3.164  0.6243 -0.2634 -1.2051
  506MOL0     C69701   3.721   4.706   3.229  0.2836  1.0182  0.4528
  506MOL0     C69702   3.748   4.613   3.347  0.3093  0.0027 -0.6902
  506MOL0     C69703   3.635   4.510   3.374  1.0541  0.3201  0.0866
  506MOL0     C69704   3.649   4.372   3.296 -0.2013  0.5185 -0.5827
  506MOL0     C69705   3.633   4.375   3.138 -0.7845 -0.9314 -0.2691
  506MOL0     C69706   3.616   4.226   3.088  0.1347  0.5414 -1.3661
  506MOL0     N69707   3.650   4.220   2.941  0.1915  0.3252  0.2040
  506MOL0     C69708   3.768   4.177   2.902 -0.8366 -0.8340  0.5175
  506MOL0     C69709   3.764   4.187   2.769 -0.2035 -0.1743 -0.8234
  506MOL0     C69710   3.877   4.141   2.680 -0.0950  0.1547  0.2913
  506MOL0     C69711   3.876   3.988   2.654  0.1915  0.3609  0.6241
  506MOL0     C69712   3.879   3.906   2.787  0.1444 -0.2499  0.2600
  506MOL0     C69713   3.920   3.759   2.750 -0.4375  0.8471 -0.2922
  506MOL0     O69714   4.062   3.755   2.705  0.6954  0.1674 -0.3620
  506MOL0     C69715   4.159   3.750   2.805 -1.1469 -0.3457 -0.0547
  506MOL0     C69716   4.268   3.841   2.795  0.5259  0.7621 -0.3275
  506MOL0     C69717   4.368   3.847   2.894  0.6406 -0.0925  0.3143
  506MOL0     C69718   4.471   3.952   2.842 -0.3319  0.9595 -0.7218
  506MOL0     C69719   4.374   3.749   2.997  0.8609  0.2210  0.5565
  506MOL0     C69720   4.474   3.750   3.110  0.3577 -0.1098  0.0368
  506MOL0     O69721   4.431   3.705   3.232  0.6447  0.5551 -0.0947
  506MOL0     C69722   4.507   3.732   3.340 -0.1766  0.0475  0.1466
  506MOL0     C69723   4.513   3.621   3.419  0.5486  0.3553 -0.8392
  506MOL0     C69724   4.620   3.618   3.512 -0.1002  0.4221  0.2947
  506MOL0     C69725   4.714   3.717   3.535 -0.6385 -0.1070  0.9304
  506MOL0     O69726   4.815   3.688   3.629  0.7257 -0.6460 -0.1230
  506MOL0     C69727   4.880   3.805   3.692  1.0880 -0.1895 -0.1522
  506MOL0     C69728   4.962   3.748   3.807  0.0627  1.0599  0.8937
  506MOL0     C69729   5.009   3.858   3.907 -0.1728 -0.1836 -0.1881
  506MOL0     C69730   5.128   3.799   3.993  0.5120  0.2097 -0.0290
  506MOL0     C69731   5.077   3.693   4.095  0.0970 -0.1876  0.2729
  506MOL0     C69732   5.189   3.604   4.165 -0.9250  0.7014 -0.5046
  506MOL0     C69733   5.257   3.511   4.065 -1.7113  0.1789 -0.6226
  506MOL0     C69734   5.164   3.418   3.988  0.3069 -0.2520 -1.2758
  506MOL0    Cl69735   5.257   3.315   3.900 -0.1605 -0.8220 -0.6421
  506MOL0     C69736   4.704   3.831   3.460  0.3100  0.1717  0.1223
  506MOL0     C69737   4.598   3.841   3.370  0.0942  0.8049  0.2626
  506MOL0     O69738   4.585   3.802   3.082 -0.3447 -0.3739  0.1428
  506MOL0     C69739   4.258   3.661   3.004 -0.5778 -0.3236  0.0656
  506MOL0     C69740   4.160   3.659   2.903 -0.1371  0.6158 -0.0139
  506MOL0     N69741   3.647   4.238   2.727  0.9050 -0.9114 -0.6468
  506MOL0     N69742   3.575   4.254   2.833  0.2823 -0.3608 -0.7800
  506MOL0     C69743   3.726   4.574   2.782 -0.6864  0.2651  0.6205
  506MOL0     C69744   3.679   4.619   2.656 -1.0183  1.2884  0.0311
  506MOL0     C69745   3.579   4.867   2.278 -0.0278  0.8995 -0.7729
  506MOL0     C69746   3.583   5.010   2.299  0.0501  0.3967 -0.3528
  506MOL0     C69747   3.556   5.097   2.194 -0.1569  1.2904  0.0221
  506MOL0     C69748   3.538   5.056   2.063 -0.4216  0.8503 -0.8593
  506MOL0     O69749   3.506   5.138   1.960  0.3533  0.9069  0.2213
  506MOL0     C69750   3.596   5.122   1.849 -0.4037 -0.1891  0.6142
  506MOL0     C69751   3.604   5.263   1.779 -0.2184 -0.4931  0.7652
  506MOL0     C69752   3.463   5.292   1.719  0.4163 -0.4705 -0.4123
  506MOL0     C69753   3.443   5.432   1.671  0.1544  1.3106  0.2604
  506MOL0     C69754   3.431   5.517   1.795 -0.1129  0.1993  0.1465
  506MOL0     C69755   3.424   5.596   1.880  0.0311 -0.1379  1.0422
  506MOL0     C69756   3.552   4.916   2.039 -1.0341  0.4788 -0.0094
  506MOL0     C69757   3.565   4.820   2.144  0.6944  0.0192  0.4714
  506MOL0     C69758   3.558   4.670   2.124 -0.2635 -0.1917  0.1685
  506MOL0     H69759   3.806   4.933   2.659 -1.8216  0.7040  1.2262
  506MOL0     H69760   3.886   4.853   2.886 -0.1868  0.1368 -1.3734
  506MOL0     H69761   3.995   4.727   3.009  1.1931  0.1074  0.8713
  506MOL0     H69762   3.983   4.595   3.120  0.0450  0.1680  0.0475
  506MOL0     H69763   3.905   4.812   3.239  1.8305 -0.3794 -2.0876
  506MOL0     H69764   3.801   4.840   3.103 -1.5609  0.2970  0.8892
  506MOL0     H69765   3.657   4.786   3.269 -3.3826 -2.1975  1.6207
  506MOL0     H69766   3.664   4.670   3.144 -0.5938  1.4052  0.8629
  506MOL0     H69767   3.847   4.565   3.342 -0.8757 -3.1312  2.1457
  506MOL0     H69768   3.747   4.673   3.438 -1.8775 -2.0919  0.7889
  506MOL0     H69769   3.542   4.562   3.349  1.0059  0.4561  0.5357
  506MOL0     H69770   3.621   4.494   3.482 -2.7425  2.2049  0.0357
  506MOL0     H69771   3.748   4.335   3.324  0.2100  3.1913  2.1450
  506MOL0     H69772   3.574   4.309   3.344  0.5646 -0.3097 -0.4496
  506MOL0     H69773   3.727   4.410   3.093 -0.3319 -2.0292 -0.2154
  506MOL0     H69774   3.554   4.445   3.112  0.9962  1.4042  0.2897
  506MOL0     H69775   3.668   4.157   3.155 -2.2718 -0.1325 -0.0754
  506MOL0     H69776   3.509   4.208   3.096 -0.4419  3.0390 -2.5601
  506MOL0     H69777   3.849   4.133   2.959 -0.2989 -2.2422 -1.2186
  506MOL0     H69778   3.976   4.156   2.724 -0.0249 -2.6940  1.3127
  506MOL0     H69779   3.870   4.200   2.588 -0.2412 -0.5274 -0.1481
  506MOL0     H69780   3.780   3.971   2.605 -0.3666 -3.0685  2.5373
  506MOL0     H69781   3.957   3.960   2.586  0.1225 -0.0984  0.7270
  506MOL0     H69782   3.962   3.942   2.848  2.0492 -1.7115 -1.3458
  506MOL0     H69783   3.783   3.904   2.840  0.6249 -2.1153  1.1477
  506MOL0     H69784   3.901   3.688   2.831  0.9345  1.0081  0.1829
  506MOL0     H69785   3.862   3.730   2.661 -3.4564  3.1005  0.7992
  506MOL0     H69786   4.270   3.900   2.703  0.2546 -1.0065 -1.5257
  506MOL0     H69787   4.528   3.921   2.754 -0.6563  2.6102 -1.5500
  506MOL0     H69788   4.533   3.993   2.922 -1.4580  1.3070 -0.0123
  506MOL0     H69789   4.413   4.040   2.815 -3.7067 -0.3956  1.3893
  506MOL0     H69790   4.444   3.538   3.405  0.0319  0.3590  1.3479
  506MOL0     H69791   4.630   3.533   3.578  0.7414  1.6918  1.8647
  506MOL0     H69792   4.936   3.860   3.616 -1.0938  1.5917 -0.5617
  506MOL0     H69793   4.805   3.876   3.727 -1.5552 -2.0195 -1.7200
  506MOL0     H69794   4.918   3.660   3.855  3.9768 -1.1875  0.7840
  506MOL0     H69795   5.049   3.708   3.755  0.7479  2.6471  0.7654
  506MOL0     H69796   4.926   3.884   3.973  2.3512  2.4463  2.2083
  506MOL0     H69797   5.048   3.939   3.846 -1.7604 -0.4806 -1.6846
  506MOL0     H69798   5.176   3.876   4.054 -1.9023  0.7342  1.3376
  506MOL0     H69799   5.204   3.755   3.928 -0.3131  0.0774 -0.9394
  506MOL0     H69800   5.032   3.750   4.177 -1.6013  0.6639 -1.1959
  506MOL0     H69801   4.993   3.634   4.058 -1.7885  1.3406  1.9236
  506MOL0     H69802   5.145   3.538   4.240 -2.0453 -0.7570 -2.3551
  506MOL0     H69803   5.261   3.676   4.206  0.9370 -1.0002 -0.6488
  506MOL0     H69804   5.337   3.450   4.108 -1.7609 -0.3684 -1.2762
  506MOL0     H69805   5.307   3.572   3.989 -0.4394 -1.9727 -1.6308
  506MOL0     H69806   5.104   3.482   3.923  0.4888  1.2783  0.0040
  506MOL0     H69807   5.090   3.368   4.051  1.2325  1.9129  1.7837
  506MOL0     H69808   4.767   3.916   3.484 -3.2103  3.8662 -2.4143
  506MOL0     H69809   4.602   3.931   3.309 -1.4995 -0.3901 -1.7268
  506MOL0     H69810   4.255   3.587   3.083  3.1338 -1.2301 -0.4408
  506MOL0     H69811   4.083   3.585   2.924  2.0790 -1.6945  0.5283
  506MOL0     H69812   3.700   4.471   2.802 -1.7816  0.7753  1.9407
  506MOL0     H69813   3.616   4.552   2.599 -0.9562  2.6532 -1.7298
  506MOL0     H69814   3.596   5.046   2.400  0.4567 -1.2970  0.2416
  506MOL0     H69815   3.543   5.201   2.219 -2.9273  0.6031  1.9889
  506MOL0     H69816   3.699   5.095   1.871  0.1623  1.6013  0.3350
  506MOL0     H69817   3.551   5.056   1.774 -0.2943 -0.3598  0.7003
  506MOL0     H69818   3.681   5.263   1.701 -0.8047  1.5269  0.1342
  506MOL0     H69819   3.636   5.333   1.857 -0.2027 -1.2083  1.4143
  506MOL0     H69820   3.454   5.227   1.631  1.0320 -0.2248 -0.6622
  506MOL0     H69821   3.382   5.259   1.785  0.1886  3.0437  1.2889
  506MOL0     H69822   3.348   5.444   1.618 -0.0620  1.4926  0.6830
  506MOL0     H69823   3.525   5.459   1.605  0.5651 -1.3349 -0.4255
  506MOL0     H69824   3.415   5.659   1.967  1.1035 -3.1018  3.4644
  506MOL0     H69825   3.516   4.873   1.946 -1.3826 -1.7049  1.0683
  506MOL0     H69826   3.461   4.640   2.164 -0.9868  0.2496 -1.1771
  506MOL0     H69827   3.570   4.633   2.021  0.6396 -2.0266  0.8880
  506MOL0     H69828   3.636   4.617   2.180  1.7891 -0.6515 -2.8571
  507MOL0     O69829   4.350   7.882   8.694  0.3775  0.3424 -0.6677
  507MOL0     C69830   4.345   7.762   8.694  0.0401 -0.0524  0.2396
  507MOL0     O69831   4.429   7.677   8.756  0.5131 -0.3737 -0.3633
  507MOL0     C69832   4.534   7.715   8.828 -0.1415  0.7285  0.4169
  507MOL0     C69833   4.554   7.656   8.959 -0.6232 -1.0322 -0.1746
  507MOL0     C69834   4.661   7.710   9.035  0.2974 -0.2662 -0.0408
  507MOL0     C69835   4.732   7.826   9.008  0.0818  0.0126  0.1629
  507MOL0     O69836   4.818   7.874   9.102 -0.0382  0.3692  0.0724
  507MOL0     C69837   4.833   8.017   9.126  0.3513  0.8280  0.3347
  507MOL0     C69838   4.940   8.036   9.237 -0.3324  0.4978 -0.7845
  507MOL0     C69839   5.084   7.993   9.211  0.1136 -1.0192 -1.2962
  507MOL0     C69840   5.166   8.031   9.336  0.4781  0.2299  0.1909
  507MOL0     C69841   5.311   7.992   9.346 -0.0941 -0.8323 -0.0475
  507MOL0     C69842   5.355   8.040   9.491 -0.0443  0.2804  1.0113
  507MOL0     C69843   5.365   8.199   9.498  1.0423  0.0575 -0.0516
  507MOL0     C69844   5.468   8.235   9.606 -0.5979 -0.2282  0.8924
  507MOL0     N69845   5.483   8.377   9.632  0.3109 -0.1151  0.0269
  507MOL0     C69846   5.486   8.470   9.534 -0.3743 -0.3196  0.2276
  507MOL0     C69847   5.496   8.588   9.600 -0.5355  0.7252 -0.3089
  507MOL0     C69848   5.484   8.728   9.536 -0.1446  0.5913  0.4246
  507MOL0     C69849   5.514   8.742   9.382 -0.1758 -0.5756 -0.5964
  507MOL0     C69850   5.483   8.883   9.316 -0.3324 -0.4246 -0.1074
  507MOL0     C69851   5.349   8.946   9.356  0.8635  0.0467 -0.9226
  507MOL0     O69852   5.355   8.997   9.491  0.2435  0.6609  0.2028
  507MOL0     C69853   5.240   9.045   9.551  0.5950 -0.6842  0.0101
  507MOL0     C69854   5.264   9.087   9.687 -0.4055  0.0049 -0.9722
  507MOL0     C69855   5.158   9.125   9.765  0.6838 -1.0712 -0.2147
  507MOL0     C69856   5.184   9.172   9.906  0.3697 -0.4690 -0.8675
  507MOL0     C69857   5.029   9.106   9.717  0.3203 -0.2010  0.3759
  507MOL0     C69858   4.905   9.139   9.792  0.6115 -0.4942 -0.4896
  507MOL0     O69859   4.798   9.072   9.743  0.3905 -0.0276 -0.0656
  507MOL0     C69860   4.702   9.054   9.840 -0.3774  1.0908  0.3269
  507MOL0     C69861   4.720   8.994   9.963  0.1627  0.3453  0.0253
  507MOL0     C69862   4.612   8.979  10.053  0.9723 -0.6415  0.8005
  507MOL0     C69863   4.482   9.031  10.023 -0.6251 -0.3417  0.1014
  507MOL0     O69864   4.361   9.008  10.084  0.4872 -0.5829 -0.2764
  507MOL0     C69865   4.352   8.878  10.138  1.0476 -0.4318 -0.5418
  507MOL0     C69866   4.207   8.843  10.184 -0.6339  0.6732 -0.0437
  507MOL0     C69867   4.207   8.757  10.304 -0.0947 -0.8882  0.4953
  507MOL0     C69868   4.086   8.688  10.322  0.3541 -0.1716  0.0153
  507MOL0     C69869   4.110   8.561  10.403 -0.7693  0.0855  0.1055
  507MOL0     C69870   3.987   8.477  10.425  0.8168  0.0115  0.4092
  507MOL0     C69871   3.913   8.426  10.294  0.3651  0.7599 -0.0882
  507MOL0     C69872   3.794   8.335  10.329 -0.4380 -0.5131 -0.7032
  507MOL0    Cl69873   3.849   8.179  10.252 -0.1149 -0.0276 -0.0681
  507MOL0     C69874   4.468   9.095   9.898 -0.2014  0.3500 -0.3558
  507MOL0     C69875   4.570   9.100   9.809  1.5078 -0.4974  0.5987
  507MOL0     O69876   4.904   9.206   9.888  0.7316  0.0088 -0.1925
  507MOL0     C69877   5.012   9.066   9.574 -0.6120 -0.2828 -0.1697
  507MOL0     C69878   5.115   9.042   9.491  0.1636 -0.1870 -0.1208
  507MOL0     N69879   5.497   8.558   9.734  0.6410  0.3828 -0.6167
  507MOL0     N69880   5.476   8.438   9.756 -0.0750  0.1689 -0.4895
  507MOL0     C69881   4.706   7.881   8.876  0.9955 -0.6537 -0.2528
  507MOL0     C69882   4.602   7.835   8.797 -0.7833 -0.8939  0.2882
  507MOL0     C69883   4.229   7.697   8.620 -0.8634 -0.3752 -0.4586
  507MOL0     C69884   4.252   7.561   8.582 -0.6321  0.5728  0.3034
  507MOL0     C69885   4.153   7.489   8.526 -0.3005 -0.2040  0.0992
  507MOL0     C69886   4.028   7.543   8.525 -0.1500 -0.2819  0.1426
  507MOL0     O69887   3.923   7.469   8.481 -0.0416  0.0219 -0.0791
  507MOL0     C69888   3.920   7.332   8.535  0.5075 -0.1674  0.9349
  507MOL0     C69889   3.906   7.328   8.694  0.1102 -1.4303  0.4439
  507MOL0     C69890   3.772   7.258   8.729 -0.4932 -0.2458 -0.2483
  507MOL0     C69891   3.663   7.355   8.790 -0.4335  0.9135  0.7676
  507MOL0     C69892   3.586   7.426   8.678  0.2236  0.7807  0.5507
  507MOL0     C69893   3.521   7.497   8.602 -0.5136  0.7977 -0.9836
  507MOL0     C69894   4.000   7.671   8.542 -0.2500  0.8032 -0.3841
  507MOL0     C69895   4.100   7.756   8.587 -0.9031  1.0794  0.6091
  507MOL0     C69896   4.087   7.902   8.615  1.0079 -0.3919 -0.7873
  507MOL0     H69897   4.496   7.569   8.987 -0.4185 -0.7865  1.0697
  507MOL0     H69898   4.681   7.663   9.130  2.1929  3.2903  1.5093
  507MOL0     H69899   4.742   8.067   9.160 -0.2236 -0.1149  0.2340
  507MOL0     H69900   4.866   8.068   9.035  2.6694 -1.0360  0.0139
  507MOL0     H69901   4.937   8.142   9.261  0.0156  0.3472 -0.0228
  507MOL0     H69902   4.910   7.983   9.328 -1.8511 -1.7653 -2.4965
  507MOL0     H69903   5.090   7.884   9.201  0.9060 -0.9209 -2.0022
  507MOL0     H69904   5.116   8.047   9.121 -0.2776  2.3836  0.4518
  507MOL0     H69905   5.153   8.139   9.341 -2.3639 -0.0251 -0.2010
  507MOL0     H69906   5.111   7.985   9.418  1.5485 -1.3910  0.0623
  507MOL0     H69907   5.364   8.033   9.260 -5.1926  1.0167 -2.7548
  507MOL0     H69908   5.319   7.883   9.343 -1.4064 -0.9427 -0.2184
  507MOL0     H69909   5.291   8.000   9.570 -2.6478 -1.3760 -1.7167
  507MOL0     H69910   5.451   7.989   9.503  0.4835 -0.1022 -3.2222
  507MOL0     H69911   5.267   8.241   9.523  0.8619 -0.9583  1.0061
  507MOL0     H69912   5.395   8.231   9.397  1.5714  2.1297  0.7043
  507MOL0     H69913   5.441   8.192   9.703  0.7671 -1.1835  0.8850
  507MOL0     H69914   5.562   8.199   9.563 -1.1039 -1.8323  1.0583
  507MOL0     H69915   5.498   8.446   9.429  0.7633 -1.0615  0.5076
  507MOL0     H69916   5.547   8.796   9.593  0.4176  0.1338  0.3578
  507MOL0     H69917   5.379   8.758   9.546  0.3885  2.0932  2.1332
  507MOL0     H69918   5.619   8.741   9.350  0.1183  4.1592 -0.4566
  507MOL0     H69919   5.461   8.660   9.333 -0.9691 -0.9860  0.8900
  507MOL0     H69920   5.563   8.950   9.350  0.4052 -2.2213  1.9318
  507MOL0     H69921   5.495   8.887   9.207  4.0009  1.1534  0.1953
  507MOL0     H69922   5.324   9.029   9.290 -1.5835  0.3692  0.2970
  507MOL0     H69923   5.271   8.869   9.352  0.9707 -0.4851  3.0257
  507MOL0     H69924   5.360   9.081   9.737 -0.1065  0.1786 -1.5122
  507MOL0     H69925   5.145   9.099   9.977 -0.2354 -0.8422 -1.5697
  507MOL0     H69926   5.131   9.266   9.925 -1.1857 -1.8099  2.2522
  507MOL0     H69927   5.287   9.204   9.921  0.7698 -0.6348 -3.0498
  507MOL0     H69928   4.818   8.954   9.987  1.5520  0.6623 -4.1951
  507MOL0     H69929   4.617   8.934  10.152 -1.5664 -2.2576  0.2923
  507MOL0     H69930   4.386   8.800  10.069  1.4873  0.3416 -1.2104
  507MOL0     H69931   4.416   8.883  10.227  1.6718  4.4712 -1.0160
  507MOL0     H69932   4.153   8.932  10.216  0.3078  2.0414 -2.0675
  507MOL0     H69933   4.153   8.798  10.100 -1.1413 -0.9045  1.0839
  507MOL0     H69934   4.247   8.816  10.387  3.4530 -2.7310  0.2823
  507MOL0     H69935   4.285   8.681  10.291 -1.1776 -2.2997  1.8300
  507MOL0     H69936   4.048   8.649  10.228  1.4846 -3.1343  0.6749
  507MOL0     H69937   4.008   8.749  10.369  1.4912  0.0567  1.7279
  507MOL0     H69938   4.184   8.494  10.358 -1.8114 -2.0134  1.3824
  507MOL0     H69939   4.159   8.594  10.495 -2.1397 -0.4615  1.0414
  507MOL0     H69940   3.920   8.529  10.495 -0.6049 -2.0464  0.6651
  507MOL0     H69941   4.018   8.383  10.472  0.1067  0.1500  1.1844
  507MOL0     H69942   3.988   8.370  10.237  1.4754  1.1293  0.9641
  507MOL0     H69943   3.868   8.501  10.229  0.8846  0.5306 -0.7314
  507MOL0     H69944   3.700   8.364  10.282  0.1874 -0.5356 -2.0351
  507MOL0     H69945   3.774   8.314  10.434 -0.1149  0.0250 -0.5346
  507MOL0     H69946   4.366   9.123   9.872 -1.7733  0.1526  4.5725
  507MOL0     H69947   4.558   9.145   9.711  0.8092 -1.5326  0.1878
  507MOL0     H69948   4.909   9.072   9.540 -0.8504  2.7807  0.8009
  507MOL0     H69949   5.100   9.033   9.384 -0.6371  1.7513 -0.2156
  507MOL0     H69950   4.762   7.972   8.858 -0.7579  0.6580  0.6076
  507MOL0     H69951   4.591   7.886   8.702 -0.5772 -0.8601  0.2817
  507MOL0     H69952   4.339   7.499   8.602  1.3651  2.9105 -0.6071
  507MOL0     H69953   4.179   7.385   8.505 -1.3207 -0.4927  0.2065
  507MOL0     H69954   3.836   7.275   8.494 -0.5243  1.0436  1.3032
  507MOL0     H69955   4.009   7.272   8.511 -0.0069 -0.2694 -0.9315
  507MOL0     H69956   3.903   7.430   8.733 -2.9186  0.0380 -3.0673
  507MOL0     H69957   3.997   7.281   8.734  2.3862  0.7627 -1.7876
  507MOL0     H69958   3.727   7.194   8.652  0.1372 -1.1759  0.1380
  507MOL0     H69959   3.781   7.189   8.814 -2.9390  0.6641  0.8408
  507MOL0     H69960   3.716   7.432   8.847  1.1422 -0.0485  0.6640
  507MOL0     H69961   3.592   7.299   8.852 -0.6724  0.9227  0.5054
  507MOL0     H69962   3.475   7.576   8.546 -1.7693  3.1928  2.9860
  507MOL0     H69963   3.904   7.721   8.540  0.4128  2.1453  0.3643
  507MOL0     H69964   3.979   7.917   8.608  0.5505 -0.6501  3.3117
  507MOL0     H69965   4.111   7.932   8.717 -3.7533 -2.1773  1.1442
  507MOL0     H69966   4.144   7.966   8.546 -0.0065  1.1659 -0.2267
  508MOL0     O69967  10.121  10.439   4.229 -0.2014 -0.4010 -0.0335
  508MOL0     C69968  10.238  10.426   4.223  0.1535 -0.4431  0.4291
  508MOL0     O69969  10.321  10.465   4.123  0.1547  0.8152 -0.4258
  508MOL0     C69970  10.289  10.571   4.042 -1.7067 -0.1471 -1.0589
  508MOL0     C69971  10.215  10.681   4.083  0.0158  0.9611  0.6745
  508MOL0     C69972  10.180  10.782   4.001 -0.6440 -0.5729  0.0769
  508MOL0     C69973  10.243  10.791   3.875  0.1267  0.5475 -0.7884
  508MOL0     O69974  10.210  10.896   3.792  0.2030 -0.2691  0.8984
  508MOL0     C69975  10.194  10.866   3.655 -0.0425 -0.2412  0.9150
  508MOL0     C69976  10.074  10.771   3.610  0.1291 -0.4531  0.3434
  508MOL0     C69977   9.935  10.838   3.600  0.9017 -0.0232  0.2425
  508MOL0     C69978   9.843  10.717   3.548 -0.4056 -1.4269 -0.0130
  508MOL0     C69979   9.703  10.740   3.590 -0.1087  0.5833 -0.9600
  508MOL0     C69980   9.628  10.832   3.488 -0.5967  0.1527 -0.4710
  508MOL0     C69981   9.499  10.879   3.546  0.8941 -0.4318  0.1026
  508MOL0     C69982   9.386  10.781   3.539  0.1978 -1.4171  0.4263
  508MOL0     N69983   9.261  10.844   3.588  0.1825 -0.1024  0.2199
  508MOL0     C69984   9.153  10.867   3.511 -0.6483  1.1844 -0.3459
  508MOL0     C69985   9.071  10.950   3.577  0.0541 -0.5116  0.1152
  508MOL0     C69986   8.946  11.008   3.514 -0.0176  0.9217 -0.9718
  508MOL0     C69987   8.825  10.940   3.583 -0.1785 -0.2708  0.7271
  508MOL0     C69988   8.766  11.033   3.695 -0.2520  0.5867 -0.8697
  508MOL0     C69989   8.634  10.965   3.731  0.1286 -0.3587 -0.1662
  508MOL0     O69990   8.609  11.000   3.871 -0.0673  0.2092 -0.3935
  508MOL0     C69991   8.672  10.934   3.972 -1.0119  0.4538  0.0320
  508MOL0     C69992   8.726  11.013   4.070  0.3691  0.1995  0.2775
  508MOL0     C69993   8.797  10.966   4.179  0.5340  1.1330  0.6180
  508MOL0     C69994   8.834  11.065   4.281 -0.1125 -0.2444 -0.1098
  508MOL0     C69995   8.820  10.822   4.181 -0.4380  1.4270 -0.6473
  508MOL0     C69996   8.888  10.740   4.288  0.6016  0.2662 -0.1578
  508MOL0     O69997   8.886  10.593   4.297 -0.1531 -0.1285 -0.0411
  508MOL0     C69998   8.974  10.526   4.382  0.3375 -0.8036 -0.1231
  508MOL0     C69999   9.062  10.431   4.335 -0.7559 -0.6248 -0.2705
  508MOL0     C70000   9.147  10.365   4.424 -0.5102 -0.3695 -0.3978
  508MOL0     C70001   9.141  10.386   4.563  0.0853 -0.3536 -0.0221
  508MOL0     O70002   9.239  10.332   4.643 -0.1765 -0.0224 -0.3377
  508MOL0     C70003   9.326  10.228   4.604  0.3220 -0.1595 -0.5496
  508MOL0     C70004   9.465  10.267   4.559  0.0790 -1.1918  0.2394
  508MOL0     C70005   9.518  10.395   4.646  0.3622 -0.4577  0.0840
  508MOL0     C70006   9.661  10.435   4.629 -1.0267  0.3645 -0.1158
  508MOL0     C70007   9.683  10.494   4.489 -0.3801  0.1173 -0.7531
  508MOL0     C70008   9.834  10.540   4.474  0.1093 -0.2818  0.3819
  508MOL0     C70009   9.840  10.625   4.350  0.6692  0.2751 -0.1701
  508MOL0     C70010   9.967  10.721   4.349 -0.7005  0.5218 -0.0192
  508MOL0    Cl70011   9.929  10.872   4.430  0.3298 -0.1370  0.1716
  508MOL0     C70012   9.057  10.476   4.606  0.5255 -0.1190  0.6856
  508MOL0     C70013   8.966  10.549   4.517 -0.3744  0.0081 -0.5901
  508MOL0     O70014   8.941  10.810   4.369  0.0642 -0.2930 -0.3538
  508MOL0     C70015   8.782  10.744   4.075  0.6490 -0.1584  1.3648
  508MOL0     C70016   8.707  10.797   3.969  0.0186  0.6825 -0.1199
  508MOL0     N70017   9.130  10.973   3.700 -0.2831  0.6900 -0.0258
  508MOL0     N70018   9.236  10.908   3.710 -0.5243 -0.1253 -0.6976
  508MOL0     C70019  10.310  10.674   3.828  0.9845  0.7929  0.1808
  508MOL0     C70020  10.338  10.565   3.913 -0.0943 -0.0485  0.4048
  508MOL0     C70021  10.301  10.328   4.322 -0.7107  0.6953  1.3863
  508MOL0     C70022  10.427  10.271   4.285  0.0197  0.7677  0.0653
  508MOL0     C70023  10.504  10.191   4.370  0.2204  0.3643 -0.6680
  508MOL0     C70024  10.452  10.157   4.492 -0.6727 -0.0982 -0.2405
  508MOL0     O70025  10.534  10.084   4.575 -0.1329 -0.0595  0.0145
  508MOL0     C70026  10.516  10.074   4.715 -0.2385  0.3686 -0.2795
  508MOL0     C70027  10.618   9.966   4.755 -0.8207  0.3300 -0.6054
  508MOL0     C70028  10.766  10.024   4.778 -0.4679 -1.1432 -0.7503
  508MOL0     C70029  10.770  10.112   4.910 -0.3705  0.7275 -0.6529
  508MOL0     C70030  10.731  10.031   5.023  0.0157  0.6862 -0.1859
  508MOL0     C70031  10.688   9.993   5.127  0.4265  0.1387 -1.1187
  508MOL0     C70032  10.327  10.205   4.531 -0.4155  0.1802  1.2156
  508MOL0     C70033  10.253  10.287   4.446  0.8075 -0.1287  0.3344
  508MOL0     C70034  10.128  10.340   4.500  0.0453  0.0236 -1.0405
  508MOL0     H70035  10.179  10.683   4.185  0.2902  4.5705  0.8313
  508MOL0     H70036  10.120  10.864   4.039 -1.6796 -1.5487  0.5992
  508MOL0     H70037  10.286  10.833   3.604 -0.4505  2.5057 -1.8683
  508MOL0     H70038  10.179  10.967   3.617  3.5549  0.2604  0.5002
  508MOL0     H70039  10.102  10.743   3.509 -0.0291 -0.1383  0.2095
  508MOL0     H70040  10.071  10.686   3.680 -0.2650  1.8740  3.3812
  508MOL0     H70041   9.892  10.866   3.696 -1.7565 -0.4799 -0.7539
  508MOL0     H70042   9.934  10.935   3.549  2.5068  0.0463  0.2613
  508MOL0     H70043   9.855  10.717   3.439 -2.9244  1.2998 -0.4235
  508MOL0     H70044   9.874  10.619   3.585  0.8577 -0.9785  0.1486
  508MOL0     H70045   9.698  10.774   3.695 -2.7326  0.4072 -0.9732
  508MOL0     H70046   9.662  10.639   3.587  0.9907  0.1469 -3.8484
  508MOL0     H70047   9.692  10.918   3.466 -3.6431  2.1482 -2.1922
  508MOL0     H70048   9.626  10.787   3.389  0.1235  1.0141 -0.8932
  508MOL0     H70049   9.474  10.970   3.490  2.6817  0.2537  0.3274
  508MOL0     H70050   9.527  10.903   3.649  4.2582 -0.9602 -0.5772
  508MOL0     H70051   9.371  10.753   3.434  1.5066 -3.5514  0.7321
  508MOL0     H70052   9.424  10.695   3.595  5.3815 -0.5097 -1.1375
  508MOL0     H70053   9.139  10.835   3.408 -0.4485 -1.1114  0.2887
  508MOL0     H70054   8.946  11.006   3.405 -5.3216  2.3022 -1.2887
  508MOL0     H70055   8.947  11.116   3.531 -3.2113  1.5038 -3.5354
  508MOL0     H70056   8.745  10.924   3.510  0.1150  3.0210 -0.4891
  508MOL0     H70057   8.855  10.842   3.622  2.9735 -0.3082 -1.3548
  508MOL0     H70058   8.836  11.036   3.778  1.4949  0.1147 -2.2689
  508MOL0     H70059   8.744  11.137   3.668 -0.6506  0.7275 -0.0115
  508MOL0     H70060   8.556  11.007   3.667 -1.4245 -0.1319  1.7701
  508MOL0     H70061   8.645  10.857   3.723 -0.0731 -0.4650  0.8365
  508MOL0     H70062   8.714  11.120   4.056 -2.3881  0.0094  0.7302
  508MOL0     H70063   8.814  11.168   4.251  0.0505 -0.3565 -0.6114
  508MOL0     H70064   8.942  11.063   4.299  0.2517  2.2331 -1.4726
  508MOL0     H70065   8.775  11.052   4.372  1.1787 -1.3986  0.5895
  508MOL0     H70066   9.070  10.412   4.228  2.9841  0.0173 -0.2304
  508MOL0     H70067   9.208  10.295   4.368  0.9574  0.2430  0.3777
  508MOL0     H70068   9.341  10.179   4.701  0.6726  0.7555 -0.1366
  508MOL0     H70069   9.297  10.153   4.530  2.4335  0.8050 -2.4374
  508MOL0     H70070   9.541  10.191   4.576 -0.6160 -2.1710 -0.8417
  508MOL0     H70071   9.450  10.291   4.453  0.9447 -2.4579 -0.1860
  508MOL0     H70072   9.520  10.378   4.754  0.2037  0.3118  0.2156
  508MOL0     H70073   9.453  10.480   4.620  2.5957  1.0615 -0.8343
  508MOL0     H70074   9.729  10.352   4.652 -1.2893 -0.1305 -1.0814
  508MOL0     H70075   9.685  10.511   4.704 -1.4616  4.0056 -3.3819
  508MOL0     H70076   9.637  10.421   4.422 -2.6366  0.4424  0.3353
  508MOL0     H70077   9.616  10.581   4.491  0.5785  0.8618  0.0395
  508MOL0     H70078   9.890  10.446   4.474  1.8080  0.6266  3.0916
  508MOL0     H70079   9.860  10.597   4.564 -6.1020  1.1826  1.7954
  508MOL0     H70080   9.754  10.692   4.341  0.1258 -0.5818 -1.5402
  508MOL0     H70081   9.832  10.549   4.272 -0.7393 -0.5945  0.7682
  508MOL0     H70082   9.994  10.737   4.244 -1.2376  0.2949 -0.1969
  508MOL0     H70083  10.055  10.684   4.403  0.4763  2.0751 -0.8133
  508MOL0     H70084   9.075  10.496   4.712  0.7639 -2.0658  1.0472
  508MOL0     H70085   8.899  10.624   4.559  1.9619  2.2336 -0.5448
  508MOL0     H70086   8.808  10.639   4.066  2.6268  0.3384  0.6862
  508MOL0     H70087   8.657  10.731   3.899  0.4338  0.7989 -0.5327
  508MOL0     H70088  10.351  10.678   3.727  1.6864  1.5168  0.4840
  508MOL0     H70089  10.397  10.482   3.874  5.2497  3.9198 -1.0538
  508MOL0     H70090  10.469  10.303   4.190 -1.1151  2.0159 -0.0451
  508MOL0     H70091  10.602  10.158   4.338 -0.3677  0.0436 -2.2337
  508MOL0     H70092  10.539  10.168   4.767 -0.4059  0.4960 -0.4328
  508MOL0     H70093  10.417  10.032   4.734 -0.3291 -1.3530 -3.7412
  508MOL0     H70094  10.625   9.896   4.671 -4.3136 -2.5047  1.2105
  508MOL0     H70095  10.579   9.906   4.838 -2.4439 -4.6497 -4.4339
  508MOL0     H70096  10.846   9.950   4.787  0.6733  0.2156  0.9660
  508MOL0     H70097  10.785  10.085   4.688 -0.3597 -0.6300 -0.3861
  508MOL0     H70098  10.717  10.207   4.901  1.0641  1.7361  0.9355
  508MOL0     H70099  10.875  10.141   4.924 -0.8450  1.4445  2.0263
  508MOL0     H70100  10.645   9.970   5.223  1.8602  0.4957 -0.3662
  508MOL0     H70101  10.283  10.182   4.628  1.8178  2.0299  2.7694
  508MOL0     H70102  10.055  10.337   4.419  0.9767  4.0433 -2.2403
  508MOL0     H70103  10.098  10.267   4.576  3.6431 -2.7049 -1.9542
  508MOL0     H70104  10.163  10.434   4.544  2.6986 -1.4697  0.3078
  509MOL0     O70105   3.150   8.771   7.833  0.4332 -0.4470 -0.4526
  509MOL0     C70106   3.036   8.767   7.787  1.3204  0.3436  0.1560
  509MOL0     O70107   2.919   8.794   7.858  0.4072 -0.4934  0.3521
  509MOL0     C70108   2.920   8.839   7.983 -0.5242  0.2553 -0.8865
  509MOL0     C70109   3.008   8.789   8.089  0.6759 -0.1462 -0.9728
  509MOL0     C70110   3.001   8.848   8.228 -0.8171 -0.0361  0.1787
  509MOL0     C70111   2.918   8.958   8.248 -0.6504  0.0576 -0.1848
  509MOL0     O70112   2.918   9.025   8.368 -0.2880 -0.1495  0.3725
  509MOL0     C70113   2.837   8.966   8.472 -0.0577 -0.3569  0.5635
  509MOL0     C70114   2.890   9.001   8.608 -0.3154  1.0533  0.2611
  509MOL0     C70115   3.030   8.936   8.628  0.4288 -0.0714  0.6882
  509MOL0     C70116   3.105   9.000   8.744 -1.2489  0.2789 -1.0571
  509MOL0     C70117   3.243   8.943   8.755  0.1443  0.0260 -0.8423
  509MOL0     C70118   3.326   9.014   8.869 -0.5419  0.5059  0.0882
  509MOL0     C70119   3.480   8.974   8.850  1.3094  0.4488  0.7997
  509MOL0     C70120   3.490   8.825   8.913  0.3440 -0.6612  0.8002
  509MOL0     N70121   3.632   8.782   8.894  0.0503  0.6786  0.0400
  509MOL0     C70122   3.750   8.871   8.894  0.1739  0.0082  0.1254
  509MOL0     C70123   3.837   8.790   8.827  0.1946  0.4997 -0.0290
  509MOL0     C70124   3.985   8.815   8.842 -0.3811 -0.1124  0.8592
  509MOL0     C70125   4.021   8.914   8.717  0.5302 -0.1130 -0.1297
  509MOL0     C70126   4.170   8.904   8.701 -0.1707 -0.2184 -0.3098
  509MOL0     C70127   4.228   9.026   8.633 -0.1628 -0.9149 -0.0572
  509MOL0     O70128   4.149   9.057   8.515 -0.1768  0.5728  0.1640
  509MOL0     C70129   4.173   9.171   8.437 -0.5580  0.6987  0.5176
  509MOL0     C70130   4.077   9.173   8.338 -0.3674 -0.8638 -0.6630
  509MOL0     C70131   4.080   9.276   8.240 -0.1529  0.3037 -0.9542
  509MOL0     C70132   3.985   9.256   8.116 -0.5214  0.6846  0.0893
  509MOL0     C70133   4.177   9.374   8.246 -0.3975  0.1665 -0.1779
  509MOL0     C70134   4.179   9.485   8.160  0.0353 -0.4115 -0.1364
  509MOL0     O70135   4.097   9.595   8.173  0.0314 -0.4232  0.1196
  509MOL0     C70136   4.099   9.684   8.067  0.0963 -0.0300  0.1736
  509MOL0     C70137   4.202   9.757   8.018 -0.1906 -0.0950 -0.0847
  509MOL0     C70138   4.207   9.823   7.892  0.7971  0.4164 -0.4871
  509MOL0     C70139   4.090   9.811   7.805 -0.6707  0.3429 -0.1368
  509MOL0     O70140   4.083   9.830   7.675 -0.0199  0.1385  0.5513
  509MOL0     C70141   4.190   9.893   7.608 -0.9320 -1.1442  0.7903
  509MOL0     C70142   4.155   9.915   7.467  0.4381  0.0370 -0.1261
  509MOL0     C70143   4.283   9.942   7.368  0.4576  0.3250 -0.0148
  509MOL0     C70144   4.272   9.863   7.234 -0.0612  0.8456  0.3356
  509MOL0     C70145   4.272   9.713   7.240  0.3820  0.0586 -0.6410
  509MOL0     C70146   4.359   9.638   7.139 -0.0651  0.3871  0.3016
  509MOL0     C70147   4.337   9.490   7.142  0.8347  0.5340 -0.3752
  509MOL0     C70148   4.223   9.453   7.056  0.6290  0.2719 -0.5612
  509MOL0    Cl70149   4.280   9.420   6.885 -0.6812  0.1380 -0.3731
  509MOL0     C70150   3.975   9.756   7.867  0.1716  0.4898 -0.7555
  509MOL0     C70151   3.979   9.694   7.994  0.7601  0.1397 -0.0885
  509MOL0     O70152   4.272   9.482   8.093 -1.2239 -0.3008  0.2693
  509MOL0     C70153   4.274   9.372   8.353 -1.0308 -1.2444  0.8696
  509MOL0     C70154   4.276   9.270   8.453 -0.7456  0.4022  1.0895
  509MOL0     N70155   3.784   8.665   8.800  0.5096  0.0040  0.1171
  509MOL0     N70156   3.663   8.660   8.846  0.3985  0.3575 -0.0378
  509MOL0     C70157   2.838   9.010   8.143  0.5335 -0.0275 -0.7870
  509MOL0     C70158   2.837   8.955   8.019 -0.9414 -0.1195  1.5193
  509MOL0     C70159   3.021   8.751   7.644  0.2877  0.3464 -1.1920
  509MOL0     C70160   3.075   8.846   7.555  1.2061 -0.1215 -0.6455
  509MOL0     C70161   3.065   8.845   7.417  0.3146  0.2312 -1.3982
  509MOL0     C70162   2.987   8.748   7.365 -0.0545  0.5534  0.4142
  509MOL0     O70163   2.993   8.736   7.229  0.8113 -0.0046  0.1831
  509MOL0     C70164   2.908   8.633   7.170 -0.7158  0.0062 -0.9806
  509MOL0     C70165   2.937   8.619   7.023 -0.4261  0.1899  0.1893
  509MOL0     C70166   2.859   8.513   6.942 -0.1679 -0.6448  0.2038
  509MOL0     C70167   2.915   8.369   6.953 -0.0254  0.3431  0.4816
  509MOL0     C70168   3.054   8.358   6.901  0.9378  0.7432 -0.0549
  509MOL0     C70169   3.172   8.348   6.861 -0.0062  0.0726 -0.7430
  509MOL0     C70170   2.909   8.664   7.454 -0.1159 -0.6864  0.7963
  509MOL0     C70171   2.933   8.660   7.593  0.3420  0.2023  0.8699
  509MOL0     C70172   2.877   8.550   7.685 -0.0180 -0.1331 -0.1658
  509MOL0     H70173   3.082   8.715   8.061  1.1636  0.0800 -0.3270
  509MOL0     H70174   3.061   8.808   8.309 -1.6818 -0.9782  0.3879
  509MOL0     H70175   2.827   8.858   8.453 -1.1119 -0.2792  0.6100
  509MOL0     H70176   2.734   8.995   8.450  0.1386 -0.1243 -0.0923
  509MOL0     H70177   2.902   9.109   8.598  1.4315  1.0200  1.4601
  509MOL0     H70178   2.816   8.973   8.685 -1.1219 -2.1146 -1.4497
  509MOL0     H70179   3.011   8.829   8.638 -2.4240 -0.0085 -2.3571
  509MOL0     H70180   3.088   8.953   8.537 -0.3961  1.7706  0.4667
  509MOL0     H70181   3.110   9.105   8.714 -1.8537  0.0239 -2.1138
  509MOL0     H70182   3.047   8.971   8.832  0.8449  0.3254  0.4155
  509MOL0     H70183   3.299   8.951   8.661 -0.6520 -2.0843 -1.5647
  509MOL0     H70184   3.234   8.835   8.774 -0.1184  0.5335  2.3517
  509MOL0     H70185   3.322   9.123   8.865  0.0253  0.5108 -0.4942
  509MOL0     H70186   3.301   8.982   8.971  3.2417 -0.1137  0.9559
  509MOL0     H70187   3.541   9.041   8.911 -2.3062  2.0609  2.9744
  509MOL0     H70188   3.512   8.971   8.745  0.2038 -3.7674  0.4140
  509MOL0     H70189   3.449   8.819   9.014 -0.2873 -1.4739  0.5031
  509MOL0     H70190   3.416   8.768   8.856 -1.0042 -0.7811  2.5786
  509MOL0     H70191   3.759   8.977   8.916 -0.4934  0.1238 -0.1500
  509MOL0     H70192   4.034   8.719   8.828 -0.6535  0.1835 -4.2030
  509MOL0     H70193   4.009   8.842   8.945 -1.9795  1.2873  0.9091
  509MOL0     H70194   3.971   8.884   8.625 -2.3663  0.1746  1.2391
  509MOL0     H70195   3.987   9.016   8.735  0.3270 -0.5184  2.0718
  509MOL0     H70196   4.225   8.905   8.796  0.9757  1.8227 -0.9453
  509MOL0     H70197   4.197   8.811   8.651  1.4915 -0.5728  1.1656
  509MOL0     H70198   4.233   9.112   8.700 -2.5181 -0.1789 -0.7371
  509MOL0     H70199   4.334   9.009   8.609  0.7643  0.9542  2.3335
  509MOL0     H70200   4.009   9.088   8.339 -1.2763 -0.1432 -0.1483
  509MOL0     H70201   4.054   9.232   8.035 -1.6168 -0.8690 -0.4183
  509MOL0     H70202   3.940   9.349   8.079  0.2199  0.2823 -1.9444
  509MOL0     H70203   3.911   9.176   8.129  1.2690 -0.9444  0.7949
  509MOL0     H70204   4.290   9.759   8.081  1.5136 -2.9173 -2.1652
  509MOL0     H70205   4.310   9.855   7.875  1.5844 -0.5091  2.0774
  509MOL0     H70206   4.208   9.992   7.651 -1.0023 -1.0412  0.5836
  509MOL0     H70207   4.281   9.833   7.605  0.2515  0.5553 -3.0775
  509MOL0     H70208   4.095   9.827   7.443 -1.5195  1.7643 -2.0253
  509MOL0     H70209   4.083   9.996   7.461  0.8256  0.3379 -0.8482
  509MOL0     H70210   4.370   9.925   7.432 -0.8936  0.0717  1.8501
  509MOL0     H70211   4.271  10.047   7.340 -2.0074 -1.2099 -6.5983
  509MOL0     H70212   4.353   9.900   7.171 -1.0540 -0.0555 -1.5405
  509MOL0     H70213   4.185   9.893   7.176 -2.0866 -1.2888  2.0550
  509MOL0     H70214   4.296   9.663   7.334 -3.4276 -1.6721 -0.4106
  509MOL0     H70215   4.170   9.677   7.223  0.4344 -0.5143  0.1946
  509MOL0     H70216   4.463   9.663   7.162  0.3481  1.5117 -2.3348
  509MOL0     H70217   4.341   9.675   7.037 -1.9658 -2.6136 -0.5777
  509MOL0     H70218   4.319   9.462   7.246 -0.1892  2.9341  0.1649
  509MOL0     H70219   4.421   9.436   7.098 -1.9029 -1.8857 -3.0748
  509MOL0     H70220   4.149   9.533   7.061 -0.4269 -0.7368  1.2814
  509MOL0     H70221   4.167   9.365   7.089 -0.4288 -0.6958 -4.4563
  509MOL0     H70222   3.880   9.755   7.815  0.9685 -1.6010 -2.3070
  509MOL0     H70223   3.887   9.657   8.037  0.4160 -0.8892 -1.6016
  509MOL0     H70224   4.353   9.446   8.360 -1.0148 -1.1927  0.2157
  509MOL0     H70225   4.345   9.267   8.536  1.2374 -1.4830 -0.5231
  509MOL0     H70226   2.787   9.100   8.174  0.8480  0.7902 -2.5022
  509MOL0     H70227   2.779   9.019   7.953  0.1451 -0.9896 -0.3827
  509MOL0     H70228   3.126   8.934   7.594  0.4948 -0.8693  2.2413
  509MOL0     H70229   3.129   8.909   7.357  2.0938 -1.1232 -1.0636
  509MOL0     H70230   2.921   8.535   7.218 -0.7669  1.1659  1.5375
  509MOL0     H70231   2.804   8.662   7.184 -1.0239  0.4658 -3.6097
  509MOL0     H70232   3.042   8.606   6.998 -0.7689  2.4976 -3.0552
  509MOL0     H70233   2.912   8.718   6.983  0.5312  0.0861 -0.6888
  509MOL0     H70234   2.756   8.502   6.978 -0.8867 -1.8595 -1.9922
  509MOL0     H70235   2.858   8.547   6.838  2.3036  2.1149  0.9455
  509MOL0     H70236   2.843   8.292   6.923 -1.0398  0.3784  2.6483
  509MOL0     H70237   2.922   8.369   7.062 -1.9129  1.9918  0.6721
  509MOL0     H70238   3.272   8.343   6.821  0.1249  2.6818 -0.9061
  509MOL0     H70239   2.837   8.594   7.412  1.4092 -2.1952  0.5986
  509MOL0     H70240   2.785   8.504   7.650  0.9694  0.4376 -4.0051
  509MOL0     H70241   2.948   8.470   7.707 -3.4823 -3.0243  1.4473
  509MOL0     H70242   2.844   8.591   7.781 -1.5805 -3.3039  0.7823
  510MOL0     O70243   2.688   8.354   0.906  0.4371 -0.1786  0.0351
  510MOL0     C70244   2.750   8.264   0.851  0.8677  0.1170  0.0687
  510MOL0     O70245   2.870   8.291   0.793 -0.5049  0.1947  0.1945
  510MOL0     C70246   2.940   8.407   0.806 -0.1687  0.5705 -1.0297
  510MOL0     C70247   3.026   8.424   0.914  0.7243  0.6460  0.0724
  510MOL0     C70248   3.089   8.543   0.949 -1.0656  0.3952 -0.3776
  510MOL0     C70249   3.083   8.653   0.864  0.9701  0.4627  1.0899
  510MOL0     O70250   3.145   8.765   0.894 -0.0248 -0.0896  0.3014
  510MOL0     C70251   3.081   8.889   0.866 -0.3387 -0.2283  0.4271
  510MOL0     C70252   3.162   8.992   0.929  0.0305  0.3555  0.1407
  510MOL0     C70253   3.072   9.111   0.970  0.5032 -0.1962 -0.2196
  510MOL0     C70254   3.170   9.239   0.999 -0.5152  0.9487 -0.2121
  510MOL0     C70255   3.082   9.349   1.065 -0.7263  0.9356  0.3360
  510MOL0     C70256   3.110   9.480   0.998 -0.3137 -0.3193  0.8655
  510MOL0     C70257   3.003   9.585   1.030 -0.5196  0.4891  0.2146
  510MOL0     C70258   3.033   9.648   1.178 -0.0768  1.1361  0.5706
  510MOL0     N70259   3.161   9.724   1.175 -0.5585  0.2197 -0.2959
  510MOL0     C70260   3.184   9.825   1.090  0.3503  0.7427  0.3916
  510MOL0     C70261   3.286   9.898   1.139 -0.4522 -0.2759 -0.6446
  510MOL0     C70262   3.367  10.024   1.091  0.4416 -0.0175  0.1787
  510MOL0     C70263   3.277  10.147   1.081  0.2460  0.4864 -0.1694
  510MOL0     C70264   3.253  10.226   1.209  0.6921  1.1720  0.1932
  510MOL0     C70265   3.152  10.164   1.311  0.6093 -0.6316  0.4637
  510MOL0     O70266   3.009  10.177   1.259  0.6134  0.5384  0.4949
  510MOL0     C70267   2.906  10.198   1.345  0.3855 -0.7143  0.2004
  510MOL0     C70268   2.877  10.099   1.438 -0.4782 -0.0343  0.0200
  510MOL0     C70269   2.763  10.101   1.533 -0.6487  0.2017  0.2303
  510MOL0     C70270   2.738   9.989   1.620  0.1069 -0.3650 -0.1596
  510MOL0     C70271   2.680  10.219   1.520  0.1071 -0.1014 -1.5919
  510MOL0     C70272   2.554  10.241   1.598 -1.0336 -0.9993 -0.7406
  510MOL0     O70273   2.465  10.344   1.574 -1.4473  0.0090  0.8137
  510MOL0     C70274   2.372  10.365   1.669 -0.2687 -0.2085 -1.4684
  510MOL0     C70275   2.263  10.277   1.706  0.0986 -0.3019  0.5786
  510MOL0     C70276   2.156  10.308   1.776  0.7132 -0.1199 -0.0223
  510MOL0     C70277   2.153  10.436   1.820  0.5637  0.3950 -0.4357
  510MOL0     O70278   2.044  10.471   1.895 -0.7646  0.0584  0.5668
  510MOL0     C70279   1.960  10.575   1.842 -0.3056 -0.5003 -0.6602
  510MOL0     C70280   1.970  10.698   1.937  0.3641  0.8112  0.1097
  510MOL0     C70281   1.948  10.660   2.084 -0.1488  0.2914  0.0809
  510MOL0     C70282   1.910  10.779   2.172  0.0356 -0.1210  0.1692
  510MOL0     C70283   1.930  10.746   2.316 -0.2416 -0.2274  0.1234
  510MOL0     C70284   1.840  10.840   2.400  0.3786 -0.4199  0.3073
  510MOL0     C70285   1.838  10.804   2.550  0.2681 -0.6701 -0.2182
  510MOL0     C70286   1.918  10.895   2.634 -0.2920 -0.1634 -0.1268
  510MOL0    Cl70287   1.918  10.839   2.802  0.0697  0.2769  0.3232
  510MOL0     C70288   2.257  10.522   1.803  0.3934  0.6563 -0.3978
  510MOL0     C70289   2.368  10.491   1.727 -0.5231 -0.1038 -0.7343
  510MOL0     O70290   2.543  10.164   1.689  0.5206 -0.5060 -0.5100
  510MOL0     C70291   2.704  10.315   1.420  0.3112  0.4807  0.2640
  510MOL0     C70292   2.820  10.305   1.342  0.7259  0.0727  0.4339
  510MOL0     N70293   3.321   9.843   1.261 -0.5464  0.2405 -0.5021
  510MOL0     N70294   3.242   9.748   1.288  0.1052  0.1186  0.2210
  510MOL0     C70295   3.004   8.642   0.746  0.1703  0.5093 -0.1619
  510MOL0     C70296   2.931   8.518   0.721  0.2694  1.1864  0.4863
  510MOL0     C70297   2.700   8.127   0.828  0.2833 -1.6098 -0.8143
  510MOL0     C70298   2.779   8.041   0.752 -0.2484  0.3863 -0.5795
  510MOL0     C70299   2.729   7.910   0.722 -0.1398  0.4576 -0.6146
  510MOL0     C70300   2.608   7.861   0.784 -0.6594  0.2978  0.7036
  510MOL0     O70301   2.542   7.749   0.738  0.5637 -0.5299 -0.4562
  510MOL0     C70302   2.613   7.648   0.654 -0.4035 -0.3380  0.3685
  510MOL0     C70303   2.561   7.513   0.698  0.1686  0.5115 -0.8858
  510MOL0     C70304   2.615   7.399   0.610 -0.3177  1.4034 -0.1505
  510MOL0     C70305   2.765   7.375   0.614 -0.6426 -0.1844 -0.1164
  510MOL0     C70306   2.832   7.465   0.525 -0.4827  0.6501 -1.5282
  510MOL0     C70307   2.881   7.550   0.460  0.6673  0.6362 -0.1537
  510MOL0     C70308   2.534   7.945   0.861 -1.1391 -0.1602 -0.2134
  510MOL0     C70309   2.581   8.074   0.890 -0.6868 -0.4079 -0.3740
  510MOL0     C70310   2.492   8.149   0.994 -0.6403  0.1804  0.3348
  510MOL0     H70311   3.028   8.342   0.985  0.2798 -0.7225 -1.4404
  510MOL0     H70312   3.141   8.539   1.044 -1.6441 -3.2968 -0.0695
  510MOL0     H70313   2.974   8.882   0.890 -1.4726  1.5052 -3.3258
  510MOL0     H70314   3.068   8.911   0.759 -1.6818 -2.6196  0.0115
  510MOL0     H70315   3.200   8.952   1.023 -0.6980 -0.9519 -0.1004
  510MOL0     H70316   3.250   9.010   0.867  2.0577  3.9482  3.6160
  510MOL0     H70317   3.000   9.141   0.894 -2.1065  0.8493  2.4452
  510MOL0     H70318   3.020   9.079   1.061 -0.4145  1.7390 -0.0257
  510MOL0     H70319   3.240   9.212   1.079 -1.1070  1.6974  0.5821
  510MOL0     H70320   3.231   9.272   0.914 -0.5359 -0.2927 -0.7193
  510MOL0     H70321   3.113   9.358   1.170  1.8239  0.2325 -0.2745
  510MOL0     H70322   2.976   9.321   1.066 -1.5280  3.6145 -0.8415
  510MOL0     H70323   3.210   9.518   1.017 -0.5680  1.4617 -0.9996
  510MOL0     H70324   3.105   9.462   0.890  0.1423  0.9795  0.6123
  510MOL0     H70325   2.903   9.543   1.013 -0.2051 -0.0581 -0.3280
  510MOL0     H70326   3.016   9.665   0.957  2.7098  0.3575  0.4763
  510MOL0     H70327   2.950   9.716   1.195 -3.5861 -2.4001 -0.7441
  510MOL0     H70328   3.021   9.579   1.262 -3.0143 -1.7520 -1.9116
  510MOL0     H70329   3.139   9.840   0.993  2.9704  0.2629 -0.9725
  510MOL0     H70330   3.404   9.987   0.995 -1.5280 -2.3247  0.2048
  510MOL0     H70331   3.462  10.030   1.146 -0.1075 -2.5246  1.5529
  510MOL0     H70332   3.334  10.216   1.017 -0.0936 -0.8909 -2.0553
  510MOL0     H70333   3.181  10.124   1.034 -0.9362  4.5897 -0.1575
  510MOL0     H70334   3.352  10.228   1.256  0.0996 -4.0728  2.3260
  510MOL0     H70335   3.216  10.325   1.181 -2.7963  0.2450  1.1132
  510MOL0     H70336   3.176  10.058   1.324  1.0665 -0.5908 -0.0131
  510MOL0     H70337   3.150  10.221   1.404 -3.5516  2.3818 -1.1794
  510MOL0     H70338   2.951  10.020   1.442 -1.2227 -1.0312 -2.9188
  510MOL0     H70339   2.757  10.021   1.723  4.4966  1.1494 -1.2540
  510MOL0     H70340   2.814   9.913   1.598  0.4267  0.6702 -3.0298
  510MOL0     H70341   2.639   9.948   1.600 -0.2532  0.8465 -0.9571
  510MOL0     H70342   2.274  10.177   1.667 -0.7677 -1.1822  2.4635
  510MOL0     H70343   2.077  10.236   1.793 -0.7429  1.4367 -0.0019
  510MOL0     H70344   1.979  10.591   1.735 -2.2357  0.4325 -0.9016
  510MOL0     H70345   1.860  10.535   1.860 -1.2251  2.2854  1.1608
  510MOL0     H70346   2.067  10.745   1.916  1.0530 -0.4184  0.3862
  510MOL0     H70347   1.894  10.768   1.902  1.0174  2.1435  1.2342
  510MOL0     H70348   2.044  10.620   2.117 -0.2864 -0.9070 -0.9002
  510MOL0     H70349   1.880  10.574   2.092  0.4736 -0.1786  0.4344
  510MOL0     H70350   1.804  10.793   2.149 -0.6536 -3.7526  0.5628
  510MOL0     H70351   1.964  10.872   2.151 -2.0957  1.6407  2.0096
  510MOL0     H70352   1.907  10.639   2.328 -0.7742 -0.4675 -2.4443
  510MOL0     H70353   2.031  10.757   2.357 -0.3555  0.4351  0.2349
  510MOL0     H70354   1.738  10.837   2.359  0.1470 -0.1978  0.8503
  510MOL0     H70355   1.865  10.944   2.378  0.0897 -0.0557  1.5860
  510MOL0     H70356   1.883  10.706   2.568 -0.7381 -0.4761  4.4465
  510MOL0     H70357   1.737  10.812   2.591  0.0411 -1.2356 -0.6559
  510MOL0     H70358   1.889  11.001   2.631 -2.0263 -0.6043 -0.4112
  510MOL0     H70359   2.021  10.894   2.599 -0.9477  2.3194 -2.4955
  510MOL0     H70360   2.241  10.615   1.856 -2.1718 -0.1626  0.4440
  510MOL0     H70361   2.448  10.561   1.706  2.2426 -3.3032 -1.7743
  510MOL0     H70362   2.647  10.407   1.414 -1.9025 -0.4633  3.7641
  510MOL0     H70363   2.851  10.388   1.280  4.7406 -0.6175  1.2233
  510MOL0     H70364   2.986   8.733   0.691  0.7729  1.0236  0.4750
  510MOL0     H70365   2.867   8.514   0.633 -0.0658 -1.0788  0.7686
  510MOL0     H70366   2.869   8.075   0.703 -0.1018  1.7748  0.5865
  510MOL0     H70367   2.776   7.850   0.644  1.7066  2.7603 -1.3787
  510MOL0     H70368   2.595   7.663   0.548 -3.1741  0.7152  0.9075
  510MOL0     H70369   2.719   7.652   0.683  0.1628  1.7773 -1.7067
  510MOL0     H70370   2.452   7.504   0.689  0.1016  1.6613 -1.4909
  510MOL0     H70371   2.589   7.496   0.802  2.7507 -1.8349 -1.8603
  510MOL0     H70372   2.582   7.302   0.650 -0.7129  2.2259  1.6428
  510MOL0     H70373   2.574   7.408   0.509  0.0905 -1.2542 -0.6430
  510MOL0     H70374   2.772   7.275   0.570  2.7816 -0.0083 -0.2245
  510MOL0     H70375   2.802   7.382   0.717 -3.8051  0.9180  1.0801
  510MOL0     H70376   2.918   7.633   0.404  1.7764 -0.0751 -0.4949
  510MOL0     H70377   2.441   7.912   0.906 -1.1452  1.5346  1.1064
  510MOL0     H70378   2.410   8.086   1.030 -1.3104  0.9060  0.1150
  510MOL0     H70379   2.558   8.168   1.079  0.0424 -1.3844  0.1761
  510MOL0     H70380   2.451   8.243   0.955 -0.1278  1.4782  2.7266
  511MOL0     O70381   7.123   8.859   0.848 -0.8944 -0.6360  0.2079
  511MOL0     C70382   7.147   8.912   0.961 -0.0045  0.0029  0.0049
  511MOL0     O70383   7.268   8.905   1.029  0.2358  0.0649 -0.0921
  511MOL0     C70384   7.367   8.838   0.971 -0.8072  0.3401  0.4846
  511MOL0     C70385   7.361   8.701   0.951  0.0515 -0.5566  1.1274
  511MOL0     C70386   7.458   8.638   0.869  0.3187 -0.3268  0.1165
  511MOL0     C70387   7.576   8.704   0.837  0.7246 -0.0350  0.0164
  511MOL0     O70388   7.679   8.624   0.767 -0.3778 -0.3617 -0.2977
  511MOL0     C70389   7.796   8.696   0.721 -0.3350 -0.5867  0.4949
  511MOL0     C70390   7.898   8.585   0.663 -0.6568 -0.4069 -0.5448
  511MOL0     C70391   7.869   8.511   0.538  0.8151  0.3218  0.1491
  511MOL0     C70392   7.852   8.604   0.415 -0.5403  0.0486  0.0172
  511MOL0     C70393   7.895   8.524   0.290  0.5156 -0.4254  0.1561
  511MOL0     C70394   7.793   8.414   0.247 -0.0989 -0.0565  1.0489
  511MOL0     C70395   7.852   8.284   0.161  0.7500 -0.0042 -0.0539
  511MOL0     C70396   7.908   8.323   0.022  0.1586  0.5069 -0.8194
  511MOL0     N70397   7.994   8.220  -0.036 -0.7655  0.6987 -0.1364
  511MOL0     C70398   8.085   8.240  -0.133  0.1261 -0.1172  0.3391
  511MOL0     C70399   8.137   8.115  -0.162 -0.3404 -0.3255 -0.5181
  511MOL0     C70400   8.238   8.072  -0.264 -0.6913  0.8633 -0.1750
  511MOL0     C70401   8.207   8.107  -0.407 -0.1655  0.0870 -0.7240
  511MOL0     C70402   8.314   8.053  -0.498 -0.6736  0.1343  0.1953
  511MOL0     C70403   8.293   7.907  -0.546 -1.1385 -0.6318  0.2291
  511MOL0     O70404   8.184   7.913  -0.636  0.2717 -0.9098  0.2918
  511MOL0     C70405   8.139   7.799  -0.705 -0.0552  0.7767 -0.0290
  511MOL0     C70406   8.003   7.764  -0.719  0.0251  0.9275 -0.2897
  511MOL0     C70407   7.961   7.624  -0.751  0.6203  0.1245 -0.2594
  511MOL0     C70408   7.814   7.595  -0.769  0.6371  0.2096 -0.7373
  511MOL0     C70409   8.063   7.530  -0.775 -0.0875 -0.2711 -0.2926
  511MOL0     C70410   8.026   7.392  -0.816  0.1043  0.1499 -0.0207
  511MOL0     O70411   7.943   7.312  -0.740  0.3243 -0.5707  0.1291
  511MOL0     C70412   7.921   7.180  -0.765  1.3375 -0.2043 -0.7150
  511MOL0     C70413   7.815   7.137  -0.844 -0.6167  0.2749 -0.3715
  511MOL0     C70414   7.798   7.006  -0.887 -0.0659 -0.5876  0.0203
  511MOL0     C70415   7.872   6.906  -0.836 -1.5042 -0.6535 -1.2798
  511MOL0     O70416   7.857   6.770  -0.858  0.0425  0.2476 -0.2328
  511MOL0     C70417   7.783   6.702  -0.953 -0.3190  0.2038 -0.2086
  511MOL0     C70418   7.644   6.662  -0.901  0.3987 -0.7908 -0.1295
  511MOL0     C70419   7.634   6.582  -0.780 -0.1648  0.2858 -0.1375
  511MOL0     C70420   7.483   6.562  -0.745  0.3685  0.1126 -0.2816
  511MOL0     C70421   7.440   6.511  -0.611  0.3595  0.7333  0.4951
  511MOL0     C70422   7.424   6.623  -0.519  0.0033  0.8128 -0.7059
  511MOL0     C70423   7.414   6.573  -0.367  0.0440  0.3686 -0.4971
  511MOL0     C70424   7.375   6.691  -0.267 -1.0462 -0.1091 -0.3227
  511MOL0    Cl70425   7.515   6.792  -0.259  0.3431 -0.6509  0.3260
  511MOL0     C70426   7.955   6.945  -0.739 -0.5501  0.5955 -0.6336
  511MOL0     C70427   7.987   7.079  -0.696 -0.0186 -0.7710  0.8500
  511MOL0     O70428   8.086   7.354  -0.915 -0.0271  0.5628  0.6223
  511MOL0     C70429   8.197   7.569  -0.761 -0.1247  0.1705  0.5961
  511MOL0     C70430   8.229   7.701  -0.736  0.3451  0.5928  0.2134
  511MOL0     N70431   8.073   8.024  -0.082 -0.3036 -0.3892 -0.4773
  511MOL0     N70432   7.987   8.090  -0.003 -0.2307  0.7638 -0.3329
  511MOL0     C70433   7.580   8.842   0.858 -0.4719  0.8518  0.1000
  511MOL0     C70434   7.483   8.909   0.931 -0.1871  0.4927  0.2018
  511MOL0     C70435   7.038   8.989   1.011 -1.0276 -0.7434  0.2133
  511MOL0     C70436   6.956   9.066   0.922 -0.1851  0.7706  0.3336
  511MOL0     C70437   6.840   9.122   0.972  0.0231  0.2890 -0.1462
  511MOL0     C70438   6.801   9.113   1.111  0.1141 -0.8461  0.2938
  511MOL0     O70439   6.667   9.148   1.154  0.8541  0.6284 -0.1999
  511MOL0     C70440   6.640   9.175   1.291 -0.7928  0.8062 -0.8044
  511MOL0     C70441   6.512   9.264   1.299 -0.4247 -0.0262  0.0935
  511MOL0     C70442   6.521   9.381   1.381  0.4415  1.0561 -0.4788
  511MOL0     C70443   6.384   9.452   1.411 -0.2218  0.3253 -0.4908
  511MOL0     C70444   6.306   9.477   1.290  0.3133 -0.2943  0.2174
  511MOL0     C70445   6.257   9.498   1.178  0.8091 -0.4711  0.8733
  511MOL0     C70446   6.899   9.060   1.195  0.9933 -1.2637 -0.1201
  511MOL0     C70447   7.007   8.986   1.149 -1.5252  0.1421 -0.2504
  511MOL0     C70448   7.079   8.894   1.246  0.8085  0.1574 -0.5762
  511MOL0     H70449   7.268   8.654   0.981 -1.5527  0.6310 -1.5837
  511MOL0     H70450   7.451   8.533   0.843  0.9424  0.1967 -2.4347
  511MOL0     H70451   7.842   8.759   0.797 -0.9691  0.7409 -0.1822
  511MOL0     H70452   7.762   8.761   0.640  1.4810 -0.8318 -0.5106
  511MOL0     H70453   7.996   8.630   0.646 -2.0268  3.3118  0.3811
  511MOL0     H70454   7.907   8.508   0.741  2.8574 -0.2361 -0.6405
  511MOL0     H70455   7.934   8.424   0.520 -0.0910  0.3552 -4.6005
  511MOL0     H70456   7.775   8.455   0.548  1.7749 -1.1558  1.5723
  511MOL0     H70457   7.745   8.625   0.406 -0.2677  1.1093 -1.0962
  511MOL0     H70458   7.917   8.692   0.420 -1.8519  0.9999  1.0204
  511MOL0     H70459   7.984   8.466   0.319  1.7071  1.9439  1.4996
  511MOL0     H70460   7.921   8.589   0.207 -1.9457 -3.7966 -3.5920
  511MOL0     H70461   7.750   8.373   0.339 -0.2690 -3.0574 -0.2402
  511MOL0     H70462   7.709   8.456   0.192  1.0448  0.2961 -0.4953
  511MOL0     H70463   7.775   8.207   0.149  0.3951  0.4617 -0.8054
  511MOL0     H70464   7.933   8.248   0.226 -2.1398 -2.0040  2.7281
  511MOL0     H70465   7.832   8.352  -0.051  0.1787 -0.5595 -1.2839
  511MOL0     H70466   7.970   8.411   0.042 -1.7767  1.2555  2.8565
  511MOL0     H70467   8.100   8.330  -0.191 -0.1362  0.0171  0.4808
  511MOL0     H70468   8.237   7.964  -0.247 -1.9037  0.9545  0.4565
  511MOL0     H70469   8.340   8.108  -0.248  0.4851  0.3788 -5.0044
  511MOL0     H70470   8.111   8.065  -0.438 -1.8813  1.3210  2.3991
  511MOL0     H70471   8.203   8.215  -0.425 -1.2846  0.1798 -0.0625
  511MOL0     H70472   8.318   8.113  -0.588  0.4089  0.2127  0.2789
  511MOL0     H70473   8.408   8.055  -0.441 -0.1067 -1.1592 -0.6406
  511MOL0     H70474   8.384   7.868  -0.592  1.5648  3.3518  1.6112
  511MOL0     H70475   8.270   7.849  -0.456 -1.6285 -1.6571 -0.5399
  511MOL0     H70476   7.921   7.832  -0.696 -3.0894 -2.6025 -0.0580
  511MOL0     H70477   7.759   7.684  -0.735 -3.5056 -1.8036 -1.4885
  511MOL0     H70478   7.794   7.524  -0.688  3.0605  0.5017  0.2030
  511MOL0     H70479   7.788   7.566  -0.871  1.3975  0.7030 -1.0794
  511MOL0     H70480   7.764   7.221  -0.889 -2.1104 -1.2526 -1.6539
  511MOL0     H70481   7.720   6.990  -0.962 -0.6225  2.8216 -0.2822
  511MOL0     H70482   7.768   6.771  -1.036  0.0666 -0.3672 -0.7660
  511MOL0     H70483   7.846   6.617  -0.982  1.5560  1.9468 -1.4733
  511MOL0     H70484   7.592   6.758  -0.890 -0.8290 -0.7080 -4.5664
  511MOL0     H70485   7.581   6.617  -0.978 -3.3711  2.5565  0.6706
  511MOL0     H70486   7.674   6.642  -0.698 -1.8248  0.8087  0.3196
  511MOL0     H70487   7.694   6.491  -0.794  0.2520  0.5183  0.0933
  511MOL0     H70488   7.442   6.495  -0.821 -2.0569 -1.6093  2.3349
  511MOL0     H70489   7.439   6.662  -0.756 -0.2536 -0.1076  0.1849
  511MOL0     H70490   7.359   6.439  -0.620  1.5562 -0.8192  1.6491
  511MOL0     H70491   7.532   6.464  -0.576 -1.3802 -2.7387  0.8307
  511MOL0     H70492   7.337   6.685  -0.546  0.5346  1.2886 -1.3635
  511MOL0     H70493   7.509   6.691  -0.527  2.5675 -1.9810  0.8513
  511MOL0     H70494   7.502   6.513  -0.345  0.5944  0.6397 -1.8754
  511MOL0     H70495   7.325   6.510  -0.362  0.6735 -0.4715  0.3735
  511MOL0     H70496   7.367   6.664  -0.162 -5.9372  0.9151 -0.2241
  511MOL0     H70497   7.278   6.729  -0.302 -0.6252  1.6447  0.3019
  511MOL0     H70498   8.023   6.878  -0.687  0.1900  2.3525  0.7452
  511MOL0     H70499   8.060   7.103  -0.620 -0.2761 -0.3266  0.9593
  511MOL0     H70500   8.282   7.508  -0.790  0.6763  1.5362 -0.0035
  511MOL0     H70501   8.335   7.725  -0.744  0.6499 -0.8837 -0.5531
  511MOL0     H70502   7.661   8.906   0.824  0.4225  0.2475  1.0316
  511MOL0     H70503   7.500   9.015   0.944  1.4927  0.3128 -0.3906
  511MOL0     H70504   6.971   9.067   0.815  1.1766  1.6947  0.5057
  511MOL0     H70505   6.759   9.151   0.906  1.8717  2.0623 -1.8059
  511MOL0     H70506   6.630   9.080   1.345  0.5194 -0.0699 -2.0398
  511MOL0     H70507   6.724   9.222   1.343  1.2186 -1.5831 -1.7276
  511MOL0     H70508   6.435   9.193   1.332 -2.3422  1.4456 -1.0331
  511MOL0     H70509   6.486   9.296   1.198 -4.3719  0.7401  1.2074
  511MOL0     H70510   6.569   9.348   1.474 -2.3282  0.8316  0.9676
  511MOL0     H70511   6.592   9.446   1.327  2.7237 -0.5700  0.3831
  511MOL0     H70512   6.398   9.544   1.469 -0.0236 -0.0013 -0.0060
  511MOL0     H70513   6.319   9.393   1.476  1.0182  0.4782  0.9805
  511MOL0     H70514   6.211   9.526   1.085  3.0868  0.7517  0.0200
  511MOL0     H70515   6.881   9.043   1.300  1.0906  0.0710  0.1234
  511MOL0     H70516   7.136   8.960   1.313  1.6248 -1.2673  0.1697
  511MOL0     H70517   6.999   8.846   1.303 -0.5662 -0.2927 -2.7995
  511MOL0     H70518   7.146   8.818   1.206 -2.0615 -2.4238 -0.8059
  512MOL0     O70519   8.286   3.371   1.826 -0.0174  0.4091  0.5774
  512MOL0     C70520   8.327   3.455   1.912 -0.1371 -0.7017  0.0744
  512MOL0     O70521   8.237   3.550   1.968 -0.4008 -0.5330  0.1163
  512MOL0     C70522   8.104   3.546   1.948  0.9439  0.2451 -0.4906
  512MOL0     C70523   8.016   3.453   2.017 -0.3079  0.4357 -0.2656
  512MOL0     C70524   7.882   3.453   2.008  0.9344 -0.6861 -0.1251
  512MOL0     C70525   7.826   3.555   1.917  0.0153  0.1706  1.0426
  512MOL0     O70526   7.688   3.564   1.893  0.5520 -0.4611 -0.3983
  512MOL0     C70527   7.601   3.532   2.009 -0.4866 -0.7262 -0.2799
  512MOL0     C70528   7.458   3.595   1.986 -0.5690 -1.1195 -1.2396
  512MOL0     C70529   7.389   3.555   1.862  1.1715 -0.1305  0.3803
  512MOL0     C70530   7.237   3.575   1.876 -0.6216 -0.7042  0.1513
  512MOL0     C70531   7.193   3.729   1.899 -0.3760 -0.0054  0.3824
  512MOL0     C70532   7.066   3.750   1.977 -0.1463 -0.0658 -0.6001
  512MOL0     C70533   7.049   3.889   2.043  0.2222  0.0331  0.9132
  512MOL0     C70534   6.909   3.906   2.113  0.7156 -0.6748  0.0108
  512MOL0     N70535   6.899   3.806   2.217  0.0757  0.6899 -0.1557
  512MOL0     C70536   6.805   3.699   2.242 -0.5104  0.0533 -0.2102
  512MOL0     C70537   6.838   3.660   2.376  0.5348 -0.3055 -0.5246
  512MOL0     C70538   6.778   3.564   2.473 -0.2115 -0.1588  0.0110
  512MOL0     C70539   6.623   3.561   2.454 -0.2418  0.0449 -0.6969
  512MOL0     C70540   6.559   3.471   2.565  0.2203 -0.1620 -0.3053
  512MOL0     C70541   6.417   3.448   2.526 -0.2527 -0.4553  0.3288
  512MOL0     O70542   6.409   3.344   2.423 -0.0710  0.1393  0.6218
  512MOL0     C70543   6.389   3.369   2.285  0.2657  0.0192  0.0659
  512MOL0     C70544   6.377   3.253   2.217  1.1235  0.5001  0.1654
  512MOL0     C70545   6.344   3.251   2.083  0.0439 -0.2463  0.0342
  512MOL0     C70546   6.326   3.114   2.015  0.2144 -0.1613 -0.9017
  512MOL0     C70547   6.325   3.374   2.012  0.0701  1.0189 -0.6519
  512MOL0     C70548   6.288   3.384   1.866 -0.5666  0.8887 -0.4020
  512MOL0     O70549   6.257   3.513   1.815  0.2252 -0.3333  0.4968
  512MOL0     C70550   6.243   3.530   1.676 -0.3427 -0.3720 -0.6298
  512MOL0     C70551   6.134   3.607   1.638  0.2382  1.1653 -0.8055
  512MOL0     C70552   6.120   3.638   1.506 -0.0173 -0.2448  0.2603
  512MOL0     C70553   6.222   3.605   1.409  0.0828  0.2022 -0.9993
  512MOL0     O70554   6.176   3.634   1.284 -0.2112  0.1358 -0.0488
  512MOL0     C70555   6.272   3.643   1.168 -0.0102 -0.4455 -0.8658
  512MOL0     C70556   6.374   3.761   1.178 -0.1642 -0.2836 -0.8571
  512MOL0     C70557   6.313   3.899   1.216  0.0538 -0.1536  0.4991
  512MOL0     C70558   6.411   4.018   1.182 -0.1388 -0.3340  0.4305
  512MOL0     C70559   6.524   4.020   1.283 -0.8846  0.1473 -0.3467
  512MOL0     C70560   6.627   4.125   1.256 -0.9599  0.2142 -0.1500
  512MOL0     C70561   6.578   4.269   1.260 -0.5318 -0.3118  0.0265
  512MOL0     C70562   6.679   4.382   1.282 -0.4814 -0.4190 -0.2420
  512MOL0    Cl70563   6.604   4.548   1.281 -0.1084 -0.3588 -0.2393
  512MOL0     C70564   6.325   3.518   1.452  0.8143  0.3142  0.3993
  512MOL0     C70565   6.343   3.485   1.583  0.8640  0.2275 -0.0072
  512MOL0     O70566   6.300   3.282   1.796 -0.4159 -0.5594 -0.2169
  512MOL0     C70567   6.332   3.494   2.086  0.6128  0.6422  0.0207
  512MOL0     C70568   6.362   3.489   2.224  0.9836  0.4528  0.1279
  512MOL0     N70569   6.938   3.748   2.424  0.6276  0.0240 -0.4600
  512MOL0     N70570   6.968   3.832   2.328 -0.0740  0.1930  0.3566
  512MOL0     C70571   7.915   3.633   1.829  0.9303  0.4658 -0.2205
  512MOL0     C70572   8.052   3.632   1.852 -0.3548 -0.0871 -0.2604
  512MOL0     C70573   8.470   3.474   1.919  0.5797  0.5740 -0.2449
  512MOL0     C70574   8.511   3.590   1.964  0.8562  0.7233 -0.6233
  512MOL0     C70575   8.640   3.629   1.970  0.1958  0.2988  0.7569
  512MOL0     C70576   8.743   3.550   1.910 -0.7031 -0.6808 -0.3860
  512MOL0     O70577   8.864   3.626   1.900  0.2162  0.0027 -0.1697
  512MOL0     C70578   8.972   3.570   1.823  0.3055  0.1730 -0.0850
  512MOL0     C70579   9.055   3.698   1.774  1.0229  0.6307  0.3479
  512MOL0     C70580   8.972   3.811   1.708 -0.1321 -0.4008 -0.4721
  512MOL0     C70581   8.869   3.769   1.598 -0.4147  0.3450 -0.5530
  512MOL0     C70582   8.937   3.750   1.462 -0.5567 -0.9785 -0.3931
  512MOL0     C70583   9.010   3.764   1.360  1.2252  0.2731 -0.9970
  512MOL0     C70584   8.706   3.427   1.862  0.3669  0.2498 -0.0791
  512MOL0     C70585   8.573   3.379   1.866 -0.1965  1.0443  0.1097
  512MOL0     C70586   8.549   3.243   1.815 -0.3268  0.7543  0.1734
  512MOL0     H70587   8.058   3.383   2.089  0.8844  0.4120 -0.9537
  512MOL0     H70588   7.830   3.384   2.073 -1.4279  0.9831 -0.0991
  512MOL0     H70589   7.646   3.567   2.103 -0.0429 -1.3274 -0.2571
  512MOL0     H70590   7.584   3.424   2.015  0.0449 -0.7899  0.1520
  512MOL0     H70591   7.399   3.556   2.070  0.4649  0.5803  0.3562
  512MOL0     H70592   7.464   3.700   2.015  2.0543 -2.1292  2.7763
  512MOL0     H70593   7.422   3.607   1.772  1.7689  0.5736  0.9958
  512MOL0     H70594   7.395   3.449   1.837 -0.5861  0.0456 -1.0076
  512MOL0     H70595   7.207   3.523   1.785  1.0829  0.3575 -1.0490
  512MOL0     H70596   7.198   3.529   1.968 -1.2600 -0.5145 -0.0192
  512MOL0     H70597   7.181   3.771   1.798  2.6385  4.2666  1.5332
  512MOL0     H70598   7.274   3.776   1.955  0.3734 -0.5211 -0.2349
  512MOL0     H70599   6.984   3.723   1.910  1.8414 -1.2458 -2.6921
  512MOL0     H70600   7.066   3.682   2.063  0.1773  1.3471  0.5594
  512MOL0     H70601   7.054   3.971   1.971 -1.0213 -0.5892  0.0674
  512MOL0     H70602   7.133   3.885   2.113  1.8065 -4.4177 -0.8430
  512MOL0     H70603   6.924   4.004   2.158  0.7219  0.2783 -1.9472
  512MOL0     H70604   6.823   3.901   2.046 -0.6328  0.0552  1.6047
  512MOL0     H70605   6.738   3.651   2.172  0.5511 -0.0555 -1.1935
  512MOL0     H70606   6.798   3.584   2.579  1.1133 -2.1712  0.2066
  512MOL0     H70607   6.820   3.466   2.446 -2.1544 -1.6992  2.1752
  512MOL0     H70608   6.579   3.660   2.437 -2.2111 -1.1401 -3.0973
  512MOL0     H70609   6.611   3.503   2.363 -1.2514  0.3059 -0.7358
  512MOL0     H70610   6.612   3.375   2.576  2.6023  0.8955 -1.6492
  512MOL0     H70611   6.565   3.519   2.663  0.2930 -1.3979  0.3182
  512MOL0     H70612   6.366   3.405   2.612 -0.1469 -2.5190 -0.5715
  512MOL0     H70613   6.370   3.544   2.504 -0.4692  0.1491  3.0319
  512MOL0     H70614   6.393   3.156   2.263  2.7749 -0.3448 -2.0400
  512MOL0     H70615   6.400   3.109   1.936 -0.0476  2.4542 -1.4026
  512MOL0     H70616   6.227   3.099   1.971  0.0815  0.0331 -0.6718
  512MOL0     H70617   6.353   3.034   2.084  0.5481  1.6618  1.1956
  512MOL0     H70618   6.068   3.608   1.724  4.1223 -2.0125  2.6342
  512MOL0     H70619   6.040   3.703   1.471 -1.8177 -1.3706  2.0829
  512MOL0     H70620   6.336   3.555   1.160  0.3558 -0.1995 -0.6721
  512MOL0     H70621   6.213   3.653   1.076  0.1464  0.0700 -0.9096
  512MOL0     H70622   6.458   3.741   1.245 -0.6619  4.1840  1.4615
  512MOL0     H70623   6.428   3.775   1.084 -0.1452  0.2369 -0.7743
  512MOL0     H70624   6.280   3.891   1.320 -1.3879  0.4342  0.1202
  512MOL0     H70625   6.230   3.915   1.146  1.3161  2.6285 -0.5283
  512MOL0     H70626   6.363   4.116   1.186 -0.2949 -0.4407  1.6072
  512MOL0     H70627   6.447   3.991   1.082 -0.8933 -0.9425  0.3174
  512MOL0     H70628   6.469   4.041   1.375 -2.4600 -2.9365 -0.4429
  512MOL0     H70629   6.574   3.922   1.288 -1.1618 -0.0217 -0.8917
  512MOL0     H70630   6.671   4.094   1.161  2.8025  2.2577  0.7366
  512MOL0     H70631   6.706   4.103   1.328 -2.1792 -1.1351  0.8413
  512MOL0     H70632   6.504   4.273   1.340  1.1081 -4.6359  2.1103
  512MOL0     H70633   6.530   4.282   1.163  0.1055  0.5436 -0.1793
  512MOL0     H70634   6.753   4.369   1.203  1.0327  2.0730  0.6349
  512MOL0     H70635   6.735   4.370   1.376  2.2829 -0.2526 -1.7745
  512MOL0     H70636   6.386   3.483   1.369  0.7193 -0.3549  0.6086
  512MOL0     H70637   6.432   3.427   1.606 -0.3478 -1.8500 -0.2455
  512MOL0     H70638   6.325   3.594   2.044  0.6689  0.7795  0.3364
  512MOL0     H70639   6.363   3.579   2.284  0.9262  0.3126  0.3421
  512MOL0     H70640   7.888   3.707   1.755  2.6613 -0.0637 -1.4658
  512MOL0     H70641   8.122   3.699   1.804  0.1414 -0.6191 -0.2929
  512MOL0     H70642   8.447   3.660   2.016  0.8610 -0.6064  1.2559
  512MOL0     H70643   8.657   3.726   2.014 -1.3787  0.5909  0.7599
  512MOL0     H70644   9.041   3.511   1.885  2.9418  1.5649 -1.5063
  512MOL0     H70645   8.935   3.509   1.741 -2.3644  0.1926  0.9975
  512MOL0     H70646   9.131   3.665   1.702  1.8271  1.2202  0.9159
  512MOL0     H70647   9.113   3.742   1.855  0.0075 -0.0801  1.4938
  512MOL0     H70648   8.920   3.861   1.790  0.5717  0.4058 -0.4998
  512MOL0     H70649   9.041   3.885   1.666 -0.1029 -0.1515  0.0056
  512MOL0     H70650   8.797   3.851   1.594 -1.3429 -0.4178  0.1075
  512MOL0     H70651   8.809   3.680   1.621 -1.8147  1.7718  1.6756
  512MOL0     H70652   9.062   3.768   1.266  1.1542 -1.6737 -1.1667
  512MOL0     H70653   8.782   3.371   1.809  0.1115 -1.5373  1.3655
  512MOL0     H70654   8.520   3.253   1.710 -1.6304  2.2380  0.6313
  512MOL0     H70655   8.644   3.192   1.829  0.7086  2.3921 -0.5942
  512MOL0     H70656   8.471   3.181   1.861  2.6484 -2.4348  1.3657
  513MOL0     O70657  10.300  10.688   5.810  0.1440 -0.1961  0.2560
  513MOL0     C70658  10.242  10.613   5.732 -0.3561  0.6950  0.5668
  513MOL0     O70659  10.245  10.475   5.737 -0.0170  0.0080 -0.5822
  513MOL0     C70660  10.284  10.416   5.863 -0.2232 -0.4186  0.4679
  513MOL0     C70661  10.185  10.383   5.957  0.2213  0.2081  0.4010
  513MOL0     C70662  10.227  10.297   6.061  0.1639 -0.5411  0.4368
  513MOL0     C70663  10.367  10.290   6.089 -0.0572 -0.0734 -1.1603
  513MOL0     O70664  10.424  10.213   6.189  0.7468  0.2140  0.2307
  513MOL0     C70665  10.350  10.151   6.305 -0.1388  0.5841  0.3693
  513MOL0     C70666  10.281  10.025   6.262  0.6189  0.2498 -0.4835
  513MOL0     C70667  10.369   9.901   6.255  1.0101  0.6247 -0.2196
  513MOL0     C70668  10.439   9.863   6.381 -0.2414  0.6966 -0.0404
  513MOL0     C70669  10.476   9.714   6.379  0.3629 -0.1772  1.0062
  513MOL0     C70670  10.539   9.656   6.510  0.7997 -0.6654  0.8422
  513MOL0     C70671  10.577   9.511   6.483  0.4818  0.0834 -0.5232
  513MOL0     C70672  10.583   9.431   6.602  0.0789 -0.5100 -0.2658
  513MOL0     N70673  10.613   9.287   6.579  0.7014  0.4111  0.6952
  513MOL0     C70674  10.524   9.182   6.580 -0.1717 -0.6406  1.4079
  513MOL0     C70675  10.594   9.080   6.525 -0.0135 -0.4764  0.4404
  513MOL0     C70676  10.536   8.938   6.498  0.3018 -0.2560  0.1362
  513MOL0     C70677  10.393   8.920   6.448 -0.0955 -0.2472  0.2848
  513MOL0     C70678  10.366   8.761   6.448 -0.2468  0.1123 -0.7405
  513MOL0     C70679  10.218   8.743   6.387 -0.5534  0.4586 -0.0229
  513MOL0     O70680  10.112   8.801   6.474  0.4969 -0.5250 -0.4655
  513MOL0     C70681  10.044   8.713   6.548  0.7831  0.4299  0.6259
  513MOL0     C70682  10.093   8.610   6.608 -0.6137 -0.2474 -0.3636
  513MOL0     C70683  10.023   8.523   6.687  0.0938  0.3331 -0.0653
  513MOL0     C70684  10.096   8.403   6.737 -0.0249  0.6792 -0.6117
  513MOL0     C70685   9.888   8.553   6.715 -0.7352  0.4418  0.0389
  513MOL0     C70686   9.801   8.481   6.812 -0.5327 -0.5006  1.0640
  513MOL0     O70687   9.866   8.399   6.896  0.2108  0.1503  0.1200
  513MOL0     C70688   9.797   8.324   6.996  0.1758  0.0391  0.1969
  513MOL0     C70689   9.802   8.180   6.993  0.9151 -0.2185  0.1300
  513MOL0     C70690   9.729   8.108   7.088  0.6165  0.3635 -0.0784
  513MOL0     C70691   9.643   8.176   7.178 -1.1291 -1.1372 -1.4410
  513MOL0     O70692   9.557   8.101   7.255 -0.8915  0.5878  0.5367
  513MOL0     C70693   9.476   8.153   7.359 -0.5135  0.6847 -0.2908
  513MOL0     C70694   9.386   8.060   7.430 -0.8059  0.6954 -0.8080
  513MOL0     C70695   9.300   7.976   7.341 -1.3556  0.5739  0.8069
  513MOL0     C70696   9.201   7.898   7.403 -0.0303  0.2668 -0.6374
  513MOL0     C70697   9.133   7.805   7.306  0.3255 -0.5131 -0.0891
  513MOL0     C70698   9.056   7.688   7.382  0.4973 -0.4737 -0.4398
  513MOL0     C70699   8.956   7.613   7.299  0.4073 -1.1052  0.7201
  513MOL0     C70700   8.854   7.531   7.392 -0.1026  0.6230 -0.1548
  513MOL0    Cl70701   8.760   7.635   7.504 -0.1538  0.5155 -0.3741
  513MOL0     C70702   9.639   8.313   7.184  0.2549 -0.1964 -0.0127
  513MOL0     C70703   9.728   8.385   7.107  0.3844  0.5185  0.5147
  513MOL0     O70704   9.679   8.488   6.794  0.3981 -0.0560 -0.0915
  513MOL0     C70705   9.825   8.660   6.646 -0.3798 -0.3140 -0.3382
  513MOL0     C70706   9.909   8.736   6.567 -0.8244  0.2763 -0.7795
  513MOL0     N70707  10.726   9.126   6.513 -0.1949  0.5918  0.1238
  513MOL0     N70708  10.733   9.255   6.538  0.4201  0.2108 -0.1377
  513MOL0     C70709  10.463  10.331   6.002 -0.9646  1.1033  0.7546
  513MOL0     C70710  10.419  10.396   5.888  0.6140 -0.4475  0.5093
  513MOL0     C70711  10.173  10.676   5.617  0.3526 -0.2210 -0.0694
  513MOL0     C70712  10.100  10.594   5.533  0.1014 -0.8083  0.3353
  513MOL0     C70713  10.036  10.633   5.416  0.6217 -0.3484 -0.1685
  513MOL0     C70714  10.033  10.763   5.382 -0.4497 -0.4353  0.1016
  513MOL0     O70715   9.972  10.819   5.277 -0.9324  0.0332  0.2127
  513MOL0     C70716   9.837  10.780   5.256 -1.0313 -0.1084  0.4299
  513MOL0     C70717   9.823  10.711   5.126 -0.0945  1.2623  0.5919
  513MOL0     C70718   9.785  10.803   5.012  0.7238 -0.5205 -0.5363
  513MOL0     C70719   9.722  10.718   4.900 -0.0504  0.2331 -0.0380
  513MOL0     C70720   9.698  10.780   4.762 -0.9529 -0.5820 -0.5909
  513MOL0     C70721   9.666  10.813   4.652  0.2874  0.0987  1.0016
  513MOL0     C70722  10.098  10.855   5.461 -0.4793 -0.0398 -0.0763
  513MOL0     C70723  10.175  10.810   5.575  0.0140  0.1617 -0.1269
  513MOL0     C70724  10.246  10.928   5.632 -0.0586 -0.2336 -0.2735
  513MOL0     H70725  10.084  10.419   5.940  1.3425  3.3565 -0.1294
  513MOL0     H70726  10.158  10.265   6.138 -0.6679  1.6088  0.6624
  513MOL0     H70727  10.288  10.220   6.363  0.5516 -0.5284  2.5489
  513MOL0     H70728  10.426  10.132   6.382  0.4880  3.2278  0.5081
  513MOL0     H70729  10.200   9.990   6.326  1.5473  0.2719  0.7414
  513MOL0     H70730  10.224  10.049   6.172 -2.3710  1.6892  1.6292
  513MOL0     H70731  10.313   9.818   6.212  1.4977  1.1290 -1.9079
  513MOL0     H70732  10.435   9.914   6.169 -1.5910  1.0111 -2.3199
  513MOL0     H70733  10.527   9.928   6.383 -0.9903  1.7240  0.4104
  513MOL0     H70734  10.367   9.881   6.462 -4.1793 -0.4492 -2.9394
  513MOL0     H70735  10.541   9.695   6.294 -1.4918 -0.3037 -0.4647
  513MOL0     H70736  10.388   9.650   6.365  1.8435 -1.7366 -2.2058
  513MOL0     H70737  10.630   9.715   6.528  0.1185  1.1767 -1.3780
  513MOL0     H70738  10.461   9.661   6.586 -0.3759 -3.6717 -0.0185
  513MOL0     H70739  10.672   9.503   6.431 -1.0147 -0.7451 -3.3107
  513MOL0     H70740  10.498   9.470   6.419 -0.4512  0.0567  0.6133
  513MOL0     H70741  10.654   9.473   6.674 -0.3587 -0.1208 -0.0547
  513MOL0     H70742  10.486   9.444   6.650 -0.2274  2.4663 -1.4709
  513MOL0     H70743  10.419   9.193   6.608 -0.7528 -1.6618 -0.2115
  513MOL0     H70744  10.550   8.880   6.589  1.6638  0.5166  0.4399
  513MOL0     H70745  10.599   8.880   6.429  2.0349 -0.7429  2.0233
  513MOL0     H70746  10.325   8.967   6.520 -1.0095 -0.7754 -0.2104
  513MOL0     H70747  10.387   8.961   6.346  1.3563  1.3995  0.8141
  513MOL0     H70748  10.447   8.710   6.394  2.3778  1.6503  1.5010
  513MOL0     H70749  10.373   8.717   6.548 -2.0032  0.3306 -0.4984
  513MOL0     H70750  10.212   8.793   6.290 -2.8750 -1.7339 -1.1143
  513MOL0     H70751  10.193   8.638   6.370  1.4535 -0.0235 -0.2903
  513MOL0     H70752  10.198   8.588   6.592 -0.9198 -1.7236 -0.4944
  513MOL0     H70753  10.039   8.312   6.714 -0.0614  0.6232 -0.3083
  513MOL0     H70754  10.104   8.401   6.846  1.2207 -0.7962 -0.6871
  513MOL0     H70755  10.196   8.383   6.697 -0.3675 -2.0887 -0.3430
  513MOL0     H70756   9.848   8.122   6.914 -2.2214 -0.1745 -1.9170
  513MOL0     H70757   9.730   8.001   7.074 -1.2445  0.3709 -0.5316
  513MOL0     H70758   9.534   8.191   7.443 -1.0772 -1.6492  1.2345
  513MOL0     H70759   9.409   8.230   7.319 -2.0737  0.6917  2.1376
  513MOL0     H70760   9.452   7.999   7.492 -1.8597  0.8058  0.4681
  513MOL0     H70761   9.331   8.111   7.510  4.4530  0.1554  3.7825
  513MOL0     H70762   9.358   7.913   7.274 -2.6050  0.8782 -0.6257
  513MOL0     H70763   9.240   8.039   7.275 -2.2455  0.3668  1.3945
  513MOL0     H70764   9.130   7.965   7.454 -1.4848 -1.8348  0.2255
  513MOL0     H70765   9.239   7.837   7.486 -0.4224  0.0803 -0.5922
  513MOL0     H70766   9.054   7.857   7.250  0.7480  1.8661  1.3622
  513MOL0     H70767   9.197   7.767   7.225  1.5104  3.3112 -1.1628
  513MOL0     H70768   9.002   7.730   7.467 -1.6157 -1.6312 -1.1375
  513MOL0     H70769   9.123   7.609   7.417 -1.4901 -2.4715 -0.8795
  513MOL0     H70770   9.014   7.554   7.227  2.0338  2.1102 -0.7932
  513MOL0     H70771   8.893   7.686   7.248  0.9700  0.8050  2.6173
  513MOL0     H70772   8.897   7.452   7.455 -1.4083 -0.6251 -0.7531
  513MOL0     H70773   8.791   7.479   7.320  1.2407 -2.7550  0.8958
  513MOL0     H70774   9.582   8.373   7.254 -1.1004  0.9951 -2.0578
  513MOL0     H70775   9.726   8.493   7.109 -3.0780  0.6173 -0.3903
  513MOL0     H70776   9.722   8.693   6.655  0.2202  1.3441  1.1389
  513MOL0     H70777   9.877   8.834   6.532 -2.7771 -0.3680 -0.9545
  513MOL0     H70778  10.568  10.317   6.023 -1.5299  0.4336  3.6762
  513MOL0     H70779  10.503  10.423   5.825  0.8059  2.5156  1.8482
  513MOL0     H70780  10.095  10.491   5.564 -1.5775 -0.8188  0.1105
  513MOL0     H70781   9.973  10.559   5.367 -0.1802  0.0101  0.3060
  513MOL0     H70782   9.806  10.716   5.339 -0.8810 -1.3107 -0.4044
  513MOL0     H70783   9.775  10.869   5.256 -1.3919 -0.2980 -2.0059
  513MOL0     H70784   9.748  10.632   5.139  3.0525 -2.7327 -2.4560
  513MOL0     H70785   9.920  10.666   5.102  0.3397  2.1388  0.6650
  513MOL0     H70786   9.712  10.866   5.064  1.0052 -1.7756  1.4559
  513MOL0     H70787   9.865  10.863   4.968 -1.2142 -0.0350 -3.6731
  513MOL0     H70788   9.627  10.673   4.931 -0.6992  0.3925 -1.6980
  513MOL0     H70789   9.796  10.642   4.872 -1.7483 -0.3040 -3.6609
  513MOL0     H70790   9.634  10.832   4.552 -1.7517 -2.5312  1.0337
  513MOL0     H70791  10.105  10.956   5.422  1.0673 -0.2255 -0.3581
  513MOL0     H70792  10.323  10.908   5.707  0.3591  1.2936 -0.2578
  513MOL0     H70793  10.275  11.009   5.564  0.1805  0.3110  0.4597
  513MOL0     H70794  10.159  10.979   5.674  1.2609  2.2880 -0.4072
  514MOL0     O70795   7.510   2.486   2.892  0.1558  0.3428 -0.3935
  514MOL0     C70796   7.414   2.449   2.956  0.9780  1.0056  0.0944
  514MOL0     O70797   7.422   2.342   3.043 -0.0552 -0.1981 -0.6182
  514MOL0     C70798   7.548   2.281   3.063 -0.3385 -0.0407 -0.9837
  514MOL0     C70799   7.563   2.149   3.030 -0.2669 -0.1556 -0.1980
  514MOL0     C70800   7.684   2.087   3.041 -0.7358  0.1630 -0.5133
  514MOL0     C70801   7.803   2.158   3.093  0.3784  0.4693  1.3539
  514MOL0     O70802   7.922   2.104   3.112 -0.0809  0.3013 -0.7376
  514MOL0     C70803   7.946   1.971   3.090  0.0085  0.1647  0.7378
  514MOL0     C70804   7.953   1.931   2.933 -0.1265  0.2453 -0.9554
  514MOL0     C70805   7.989   1.784   2.919  0.0856 -0.7398 -0.4441
  514MOL0     C70806   7.870   1.688   2.967  0.1488 -0.5513  0.0310
  514MOL0     C70807   7.909   1.537   2.942 -0.3739  0.8489  0.3947
  514MOL0     C70808   7.810   1.443   3.019  0.0581 -0.7953 -0.2007
  514MOL0     C70809   7.857   1.304   2.994 -0.0195  0.6580 -0.1962
  514MOL0     C70810   7.782   1.207   3.076  0.4100 -0.9049  1.6529
  514MOL0     N70811   7.782   1.076   2.999 -0.4434 -0.8720 -0.4639
  514MOL0     C70812   7.694   1.040   2.905 -0.0263  0.2676  0.4134
  514MOL0     C70813   7.739   0.923   2.849 -0.1377 -1.0480 -0.0910
  514MOL0     C70814   7.675   0.846   2.733 -1.4671  0.1426 -0.1727
  514MOL0     C70815   7.601   0.934   2.636 -0.2187 -1.1703  1.5531
  514MOL0     C70816   7.593   0.861   2.499 -0.5093  0.1131  0.2785
  514MOL0     C70817   7.549   0.710   2.503  0.2853  0.7116  0.4121
  514MOL0     O70818   7.531   0.664   2.370 -0.3888 -0.3272  0.4738
  514MOL0     C70819   7.475   0.538   2.348 -0.0697  0.3448  0.4513
  514MOL0     C70820   7.443   0.498   2.219  0.8256 -0.3142  0.8614
  514MOL0     C70821   7.399   0.369   2.196  0.0812  0.3160 -0.2852
  514MOL0     C70822   7.338   0.343   2.054 -0.3488 -0.3346 -0.8991
  514MOL0     C70823   7.391   0.272   2.295 -0.1717  0.4460  0.1768
  514MOL0     C70824   7.338   0.135   2.268  0.4774 -0.1398 -0.0176
  514MOL0     O70825   7.245   0.092   2.355  1.0325 -0.3495  0.7757
  514MOL0     C70826   7.201  -0.041   2.356 -0.0342  0.0110  1.0471
  514MOL0     C70827   7.292  -0.146   2.382 -0.1759 -0.4483 -0.5510
  514MOL0     C70828   7.258  -0.284   2.364 -0.3746  0.0816 -0.8490
  514MOL0     C70829   7.123  -0.318   2.350  1.1648 -0.2392 -0.2905
  514MOL0     O70830   7.097  -0.456   2.344  0.1383  0.8517 -0.0780
  514MOL0     C70831   7.009  -0.498   2.237  0.4757  0.7223  0.2063
  514MOL0     C70832   6.993  -0.658   2.246 -0.6491  0.1556 -0.0337
  514MOL0     C70833   6.870  -0.721   2.180  0.5251 -0.4611 -0.4923
  514MOL0     C70834   6.746  -0.664   2.250  0.2429  0.1706 -0.9919
  514MOL0     C70835   6.615  -0.733   2.214  0.5323  0.3050  0.1213
  514MOL0     C70836   6.608  -0.871   2.273 -0.8985  0.3383 -0.0956
  514MOL0     C70837   6.479  -0.932   2.234 -0.8585 -0.0845 -1.1262
  514MOL0     C70838   6.466  -1.072   2.291 -0.0816 -0.4877  0.1569
  514MOL0    Cl70839   6.351  -1.163   2.192 -0.3750 -0.2317  0.5619
  514MOL0     C70840   7.030  -0.218   2.333 -0.4610 -0.6788  0.3126
  514MOL0     C70841   7.070  -0.079   2.323  0.0936  0.4212 -1.6435
  514MOL0     O70842   7.397   0.072   2.184  0.3017  0.4667  0.7169
  514MOL0     C70843   7.410   0.317   2.428 -0.0817  0.5153 -0.2603
  514MOL0     C70844   7.453   0.448   2.455  0.1829  0.6276 -0.7976
  514MOL0     N70845   7.860   0.896   2.909  0.0067  0.5100  0.3133
  514MOL0     N70846   7.888   0.987   3.002 -1.3786  0.2256  0.2498
  514MOL0     C70847   7.782   2.289   3.135 -0.0666 -0.2897 -0.1543
  514MOL0     C70848   7.662   2.352   3.111 -0.7162  1.0361 -0.4701
  514MOL0     C70849   7.275   2.513   2.946 -0.3655  0.4447 -0.8078
  514MOL0     C70850   7.219   2.563   3.065 -0.1250  0.6971  0.5048
  514MOL0     C70851   7.093   2.621   3.053 -0.0306 -1.1554  0.5741
  514MOL0     C70852   7.027   2.652   2.930  0.0921  0.8123  0.0077
  514MOL0     O70853   6.902   2.720   2.929  0.8897  0.1665  0.5085
  514MOL0     C70854   6.806   2.713   2.822 -0.8362 -0.0858 -0.6209
  514MOL0     C70855   6.743   2.843   2.809 -0.7095 -0.6263  0.5331
  514MOL0     C70856   6.652   2.889   2.921  0.0553  0.3553 -0.1784
  514MOL0     C70857   6.617   3.041   2.909 -0.6269  1.0491 -0.7273
  514MOL0     C70858   6.540   3.079   2.792  0.3218 -0.3255  0.0771
  514MOL0     C70859   6.483   3.102   2.687  0.5122 -0.2140  1.1757
  514MOL0     C70860   7.080   2.595   2.815 -0.7396 -0.5702  0.0093
  514MOL0     C70861   7.207   2.531   2.820 -0.7668 -0.0695 -0.3526
  514MOL0     C70862   7.274   2.496   2.691  0.1721  0.1617  0.8722
  514MOL0     H70863   7.483   2.103   2.973 -0.1333  1.7708 -2.0978
  514MOL0     H70864   7.703   1.985   3.012  3.8989  1.1885 -1.8645
  514MOL0     H70865   7.885   1.904   3.151 -3.2718  1.5760 -0.7502
  514MOL0     H70866   8.045   1.953   3.133  0.2090 -0.2759  0.1089
  514MOL0     H70867   7.866   1.962   2.875 -2.0829 -2.6080  0.2493
  514MOL0     H70868   8.032   1.998   2.897  0.6597 -0.4939 -0.6290
  514MOL0     H70869   8.013   1.762   2.815  1.3332 -2.2558  0.1136
  514MOL0     H70870   8.079   1.756   2.975  1.4964  1.3067 -1.5871
  514MOL0     H70871   7.841   1.704   3.071 -2.3459 -4.8092  0.1910
  514MOL0     H70872   7.788   1.718   2.901 -1.0236 -0.3868  1.5270
  514MOL0     H70873   8.006   1.520   2.991 -0.7070  1.1706  1.1864
  514MOL0     H70874   7.917   1.519   2.835  0.5455  2.3955  0.1745
  514MOL0     H70875   7.815   1.470   3.124 -1.3895 -3.3466  0.6143
  514MOL0     H70876   7.705   1.446   2.988 -0.0418  0.9001  0.2392
  514MOL0     H70877   7.962   1.289   3.025 -1.5308 -4.3990  4.1917
  514MOL0     H70878   7.856   1.290   2.886 -1.3433  1.1314 -0.2524
  514MOL0     H70879   7.833   1.192   3.171  0.4828 -0.8012  1.6299
  514MOL0     H70880   7.682   1.240   3.105  0.8665 -0.7089  3.0864
  514MOL0     H70881   7.599   1.083   2.875  0.6555  1.0886 -0.6544
  514MOL0     H70882   7.608   0.776   2.783 -0.1943 -0.4388  0.7593
  514MOL0     H70883   7.757   0.798   2.677 -0.6930  0.1919  0.8950
  514MOL0     H70884   7.500   0.961   2.666  0.3014  1.8504  0.8975
  514MOL0     H70885   7.658   1.024   2.612  0.5514 -2.4348 -2.2243
  514MOL0     H70886   7.530   0.922   2.434  0.0308 -0.4105 -0.7642
  514MOL0     H70887   7.696   0.860   2.461 -0.4174 -0.1734  0.5273
  514MOL0     H70888   7.640   0.654   2.530 -0.1004 -0.7405 -1.1017
  514MOL0     H70889   7.460   0.696   2.565 -0.9952 -0.4234 -1.5880
  514MOL0     H70890   7.434   0.569   2.137 -1.7194 -0.4468  0.9655
  514MOL0     H70891   7.364   0.432   1.996  3.0881  0.1678  1.1615
  514MOL0     H70892   7.234   0.311   2.060 -1.2598  2.6684  2.1395
  514MOL0     H70893   7.393   0.258   2.011  3.1462  1.7495 -0.9093
  514MOL0     H70894   7.391  -0.120   2.416 -0.6386  0.6778 -0.0001
  514MOL0     H70895   7.331  -0.364   2.376  2.5140  2.5131 -1.2425
  514MOL0     H70896   6.917  -0.439   2.240  1.2105  1.9404  3.0626
  514MOL0     H70897   7.063  -0.486   2.143  0.1796  0.1283 -0.0431
  514MOL0     H70898   7.086  -0.702   2.211 -0.7844  0.9757 -1.5181
  514MOL0     H70899   6.987  -0.686   2.351 -0.3889 -1.1174 -0.3417
  514MOL0     H70900   6.878  -0.826   2.210 -2.6939 -0.6891 -0.0663
  514MOL0     H70901   6.880  -0.712   2.071 -0.2735 -3.5053 -0.9049
  514MOL0     H70902   6.728  -0.565   2.208  0.6241 -0.5616 -2.9910
  514MOL0     H70903   6.762  -0.652   2.358 -0.3035 -0.9634 -0.7757
  514MOL0     H70904   6.537  -0.668   2.255 -0.6065 -1.4858  0.9220
  514MOL0     H70905   6.605  -0.745   2.106 -0.5472  0.6166  0.1781
  514MOL0     H70906   6.609  -0.858   2.382 -2.0447  2.6706 -0.2888
  514MOL0     H70907   6.692  -0.924   2.229  1.5053  4.4510 -1.0017
  514MOL0     H70908   6.478  -0.933   2.125 -0.5228 -1.8855 -1.1531
  514MOL0     H70909   6.397  -0.864   2.259  1.1691  1.7294  1.1035
  514MOL0     H70910   6.420  -1.071   2.390  2.1413  0.7075  1.2334
  514MOL0     H70911   6.559  -1.130   2.295 -0.1339 -0.5652  0.2886
  514MOL0     H70912   6.923  -0.235   2.339 -0.6005 -0.5275 -1.3762
  514MOL0     H70913   7.013   0.014   2.327  1.6933  1.4122  1.2961
  514MOL0     H70914   7.387   0.250   2.510  0.1040  0.2310 -0.4354
  514MOL0     H70915   7.469   0.474   2.559 -0.6238 -0.7788 -0.3035
  514MOL0     H70916   7.862   2.349   3.178 -0.6021  3.5591 -3.8968
  514MOL0     H70917   7.642   2.453   3.144 -0.1021  0.6446  1.1831
  514MOL0     H70918   7.266   2.578   3.162  0.7211 -0.6856  0.3279
  514MOL0     H70919   7.036   2.662   3.136 -4.2975 -4.5479 -0.3278
  514MOL0     H70920   6.837   2.681   2.723 -2.0445 -0.2429 -0.9672
  514MOL0     H70921   6.737   2.632   2.849  2.5309 -2.0392  3.2986
  514MOL0     H70922   6.691   2.840   2.713  0.9694 -1.4922 -0.3942
  514MOL0     H70923   6.834   2.903   2.796  1.7033 -4.4276 -2.2526
  514MOL0     H70924   6.561   2.828   2.918  0.7513 -0.8919  1.9614
  514MOL0     H70925   6.703   2.866   3.015 -1.5958  0.4959  0.7936
  514MOL0     H70926   6.713   3.093   2.911  0.3739 -0.7278 -0.4049
  514MOL0     H70927   6.558   3.068   2.997  1.5784 -0.9433  1.4744
  514MOL0     H70928   6.438   3.130   2.594 -0.2178  3.3820  2.4460
  514MOL0     H70929   7.036   2.601   2.716  1.2765  0.8444 -0.8551
  514MOL0     H70930   7.204   2.460   2.615 -1.2812  1.1750  1.6723
  514MOL0     H70931   7.331   2.581   2.651 -1.7706 -0.7224 -4.7203
  514MOL0     H70932   7.342   2.413   2.711 -0.0527 -0.4396 -0.7390
  515MOL0     O70933   2.159   5.372   6.982  0.8187 -0.4318 -0.7410
  515MOL0     C70934   2.098   5.324   6.884 -0.6773  0.3268 -0.0575
  515MOL0     O70935   1.983   5.263   6.898 -0.0498  0.0945 -0.2008
  515MOL0     C70936   1.936   5.224   7.018  0.0453  0.0543  0.2779
  515MOL0     C70937   2.013   5.169   7.125 -0.2092  0.0326  0.3246
  515MOL0     C70938   1.954   5.120   7.237 -1.0560  0.2316 -0.6898
  515MOL0     C70939   1.822   5.118   7.255  0.7654  0.6058  0.3462
  515MOL0     O70940   1.766   5.070   7.373 -0.5211 -0.5633 -0.4932
  515MOL0     C70941   1.719   5.184   7.453 -0.1713  0.1036 -0.7821
  515MOL0     C70942   1.573   5.166   7.518  0.6093 -0.1617 -0.4307
  515MOL0     C70943   1.461   5.183   7.410 -0.0038 -0.6074  0.4668
  515MOL0     C70944   1.328   5.182   7.478 -0.3857 -0.1320 -0.2849
  515MOL0     C70945   1.216   5.206   7.377  0.1067  0.4390  0.4918
  515MOL0     C70946   1.071   5.178   7.423  1.0786  1.0786 -0.7464
  515MOL0     C70947   1.019   5.280   7.528 -0.1998  0.4479  0.7729
  515MOL0     C70948   0.860   5.306   7.521 -0.7979 -0.3176  0.2959
  515MOL0     N70949   0.832   5.374   7.403 -0.9891 -1.1136  0.1304
  515MOL0     C70950   0.869   5.499   7.360  0.6577  0.2367  0.0601
  515MOL0     C70951   0.805   5.507   7.237  0.2929 -0.7827 -0.3520
  515MOL0     C70952   0.819   5.615   7.130  0.2068 -0.2855 -0.5901
  515MOL0     C70953   0.713   5.725   7.144  0.3345 -0.3557  0.0943
  515MOL0     C70954   0.564   5.671   7.143 -0.0178  0.5844 -0.5163
  515MOL0     C70955   0.537   5.586   7.013  0.4888 -0.0930 -0.7595
  515MOL0     O70956   0.540   5.699   6.918 -0.0725  0.3098  0.1970
  515MOL0     C70957   0.500   5.668   6.791  0.7215  0.6873  0.1353
  515MOL0     C70958   0.445   5.544   6.748 -0.8952  0.1390  0.7279
  515MOL0     C70959   0.400   5.512   6.620  0.3079 -0.8612 -0.4377
  515MOL0     C70960   0.336   5.375   6.599  0.5438  0.6522 -0.1414
  515MOL0     C70961   0.408   5.614   6.518  0.1446  0.3799  0.0934
  515MOL0     C70962   0.353   5.596   6.377 -0.6343 -0.4272  0.7867
  515MOL0     O70963   0.303   5.471   6.343  0.2746 -0.5203  0.0448
  515MOL0     C70964   0.275   5.438   6.211 -0.5691 -0.7304  0.9399
  515MOL0     C70965   0.184   5.499   6.130 -0.3012 -0.4454  0.9051
  515MOL0     C70966   0.172   5.465   5.995  0.3934  0.1075  0.3992
  515MOL0     C70967   0.251   5.361   5.940 -0.1419 -0.2015  0.3499
  515MOL0     O70968   0.250   5.328   5.807  1.0215  0.2348  0.2665
  515MOL0     C70969   0.228   5.428   5.712  0.7243 -0.3094  0.5942
  515MOL0     C70970   0.077   5.429   5.669  0.3605 -0.0771 -0.9282
  515MOL0     C70971   0.043   5.563   5.608 -0.3323 -1.1919  0.3410
  515MOL0     C70972  -0.099   5.578   5.564  0.3936 -0.3684  1.0828
  515MOL0     C70973  -0.111   5.716   5.498  0.6631 -0.2762  0.9404
  515MOL0     C70974  -0.255   5.746   5.450 -0.6690  1.1595 -0.3428
  515MOL0     C70975  -0.284   5.875   5.375  0.4841 -0.1601  0.2887
  515MOL0     C70976  -0.285   5.860   5.211 -0.3243 -0.1098  0.3658
  515MOL0    Cl70977  -0.125   5.795   5.179 -0.3163  0.1220  0.5417
  515MOL0     C70978   0.319   5.276   6.022 -0.4625 -0.0127 -0.0740
  515MOL0     C70979   0.340   5.324   6.153  0.4032  0.7234 -0.0701
  515MOL0     O70980   0.351   5.690   6.302 -0.0051 -0.4137 -0.4729
  515MOL0     C70981   0.447   5.739   6.564  0.3800  0.1405 -0.4288
  515MOL0     C70982   0.490   5.771   6.696 -0.1377  0.5245 -0.1711
  515MOL0     N70983   0.732   5.397   7.216 -0.4842 -0.1657  0.2212
  515MOL0     N70984   0.766   5.309   7.304  0.2480  0.5614 -0.4226
  515MOL0     C70985   1.739   5.165   7.153 -0.0408 -0.4436  0.9588
  515MOL0     C70986   1.799   5.217   7.040 -0.0317 -0.7304 -0.8392
  515MOL0     C70987   2.149   5.350   6.746 -1.4246 -0.5934  0.5252
  515MOL0     C70988   2.073   5.298   6.636 -0.0828  0.3003  0.2393
  515MOL0     C70989   2.102   5.298   6.500  0.1846 -0.0928 -1.2285
  515MOL0     C70990   2.217   5.353   6.470 -0.7686 -0.3877  0.1858
  515MOL0     O70991   2.262   5.360   6.339 -1.1411  0.1704 -0.7575
  515MOL0     C70992   2.405   5.383   6.294 -0.1358  0.0690 -0.4651
  515MOL0     C70993   2.444   5.303   6.177 -0.3433 -0.1906  0.8095
  515MOL0     C70994   2.438   5.155   6.232  1.0548 -0.1104 -0.5051
  515MOL0     C70995   2.502   5.067   6.129 -0.1528 -0.2023  0.0364
  515MOL0     C70996   2.473   4.930   6.171  0.7660 -0.4322 -0.1532
  515MOL0     C70997   2.461   4.811   6.199  0.2587  1.3764 -0.1824
  515MOL0     C70998   2.296   5.418   6.572  0.6692 -0.0402  0.7690
  515MOL0     C70999   2.267   5.413   6.704 -0.6859  0.1273  0.4080
  515MOL0     C71000   2.365   5.463   6.804 -0.4987 -0.1742  0.8303
  515MOL0     H71001   2.121   5.168   7.119 -0.2532 -0.3814 -0.7582
  515MOL0     H71002   2.008   5.081   7.323 -0.0094  1.9456 -0.5185
  515MOL0     H71003   1.718   5.271   7.386 -0.1674  0.1951 -0.6624
  515MOL0     H71004   1.790   5.202   7.533  0.9881  0.5849 -1.8831
  515MOL0     H71005   1.563   5.069   7.568 -1.8855  1.3366  2.3211
  515MOL0     H71006   1.551   5.239   7.597  1.0336 -2.1036  1.5780
  515MOL0     H71007   1.479   5.285   7.375  2.6174 -1.0727  0.2363
  515MOL0     H71008   1.473   5.107   7.333 -2.8243 -0.9670  0.2875
  515MOL0     H71009   1.313   5.083   7.521 -0.0365 -1.6837 -3.4416
  515MOL0     H71010   1.317   5.262   7.552 -3.3880  0.0512 -0.7979
  515MOL0     H71011   1.236   5.134   7.297  2.0509  0.9932  0.4408
  515MOL0     H71012   1.215   5.307   7.336 -3.0371 -0.2892 -1.6412
  515MOL0     H71013   1.011   5.182   7.332  0.7262  2.8658 -0.4826
  515MOL0     H71014   1.065   5.073   7.455  0.2115  1.0419 -0.9839
  515MOL0     H71015   1.059   5.380   7.512 -0.6276  0.6754  1.0929
  515MOL0     H71016   1.056   5.244   7.624  0.0971 -3.8429 -0.7504
  515MOL0     H71017   0.805   5.212   7.531  0.1393 -0.6535  3.1477
  515MOL0     H71018   0.818   5.368   7.601 -0.8789  0.2994 -0.2232
  515MOL0     H71019   0.939   5.571   7.401  1.9105 -0.0427 -1.4812
  515MOL0     H71020   0.801   5.569   7.032  1.6325 -1.2144 -0.4505
  515MOL0     H71021   0.920   5.648   7.155  0.1567  1.8504 -2.7649
  515MOL0     H71022   0.731   5.787   7.232 -5.1494  0.8369  0.7063
  515MOL0     H71023   0.724   5.799   7.064 -1.5459 -2.6342 -2.4248
  515MOL0     H71024   0.549   5.608   7.231 -0.0058 -0.3006 -1.1300
  515MOL0     H71025   0.495   5.755   7.151  1.1656  1.5651 -0.2557
  515MOL0     H71026   0.604   5.501   6.996  3.1970  1.7907 -0.2200
  515MOL0     H71027   0.437   5.544   7.024  0.8508 -0.9148 -0.5270
  515MOL0     H71028   0.434   5.471   6.828  1.8894  0.5102  1.5626
  515MOL0     H71029   0.347   5.309   6.686  2.4633  1.2152  0.0859
  515MOL0     H71030   0.394   5.326   6.520  1.0834 -2.2387  1.9054
  515MOL0     H71031   0.229   5.370   6.573  0.4760 -3.2736  0.2185
  515MOL0     H71032   0.130   5.580   6.177  1.1590 -0.9979  3.7702
  515MOL0     H71033   0.094   5.522   5.946  1.5134  1.4739  0.1132
  515MOL0     H71034   0.253   5.528   5.749  1.1680  0.4599 -1.6219
  515MOL0     H71035   0.287   5.406   5.623  0.9182  1.1815  0.3408
  515MOL0     H71036   0.045   5.352   5.598 -2.4190  0.4601 -0.3596
  515MOL0     H71037   0.004   5.424   5.751 -1.4019  3.4848 -2.0663
  515MOL0     H71038   0.100   5.565   5.514 -1.2075 -3.9455 -0.3346
  515MOL0     H71039   0.072   5.642   5.679  3.4301 -3.0181  1.1149
  515MOL0     H71040  -0.170   5.566   5.647 -0.1626 -0.1395  0.6470
  515MOL0     H71041  -0.119   5.509   5.481 -1.0659  0.0840  1.0199
  515MOL0     H71042  -0.096   5.799   5.568  2.9821 -0.3215  0.6041
  515MOL0     H71043  -0.056   5.718   5.403 -0.7208 -5.1626 -0.2528
  515MOL0     H71044  -0.307   5.751   5.546 -0.0054  0.4396  0.0582
  515MOL0     H71045  -0.282   5.665   5.381  0.2800  0.2497  0.3210
  515MOL0     H71046  -0.214   5.954   5.407 -0.2907  1.0264 -0.8339
  515MOL0     H71047  -0.383   5.904   5.410 -0.8309 -0.4571 -2.8982
  515MOL0     H71048  -0.313   5.952   5.159  0.2435 -0.4530 -0.5690
  515MOL0     H71049  -0.357   5.791   5.166 -0.1953  0.8732 -1.4502
  515MOL0     H71050   0.360   5.190   5.970 -3.7828 -0.4303 -2.2512
  515MOL0     H71051   0.406   5.260   6.211 -1.8759 -2.9380 -1.1706
  515MOL0     H71052   0.433   5.817   6.491 -2.1021 -0.4237 -0.6555
  515MOL0     H71053   0.507   5.877   6.712 -3.8417  1.3893 -1.1062
  515MOL0     H71054   1.631   5.164   7.166 -0.0116 -1.6792  1.1385
  515MOL0     H71055   1.741   5.275   6.969  1.6506 -0.3044 -1.9165
  515MOL0     H71056   1.980   5.250   6.665 -0.1346  0.5567  0.5104
  515MOL0     H71057   2.039   5.267   6.417  0.8732 -1.1672 -1.3632
  515MOL0     H71058   2.429   5.489   6.286 -2.2713  0.6853  0.4906
  515MOL0     H71059   2.473   5.358   6.377 -2.9490 -2.2812  1.3545
  515MOL0     H71060   2.536   5.342   6.134 -1.0853  0.5142 -0.1915
  515MOL0     H71061   2.371   5.316   6.096 -0.8318 -0.1137  1.2590
  515MOL0     H71062   2.493   5.149   6.326 -1.7512 -1.5251  1.1781
  515MOL0     H71063   2.335   5.127   6.255 -0.6613  3.3808 -2.9593
  515MOL0     H71064   2.610   5.084   6.134 -0.4715  2.4544 -0.5092
  515MOL0     H71065   2.473   5.085   6.025 -0.7913  0.9904  0.4036
  515MOL0     H71066   2.461   4.710   6.233  3.2821  1.8059  1.5131
  515MOL0     H71067   2.388   5.473   6.554 -0.0223  1.1984  0.9047
  515MOL0     H71068   2.414   5.376   6.850  2.1641  0.1079 -1.2795
  515MOL0     H71069   2.445   5.513   6.749 -0.8111 -1.7184 -1.1562
  515MOL0     H71070   2.305   5.528   6.869 -1.0281  0.8170 -0.5893
  516MOL0     O71071   6.017   3.766   0.657  0.5094  0.0988 -0.6070
  516MOL0     C71072   6.136   3.755   0.633 -0.1493 -0.4446  0.5121
  516MOL0     O71073   6.239   3.818   0.701 -0.2668  0.2915 -0.2251
  516MOL0     C71074   6.236   3.924   0.788  0.0675  1.8819  0.0895
  516MOL0     C71075   6.339   4.016   0.779 -0.3649 -0.6950 -1.1660
  516MOL0     C71076   6.320   4.134   0.862 -0.3858 -0.7165  0.1799
  516MOL0     C71077   6.217   4.163   0.950 -0.0586  0.2532 -0.0655
  516MOL0     O71078   6.221   4.286   1.014 -0.1528 -0.8964  0.2822
  516MOL0     C71079   6.103   4.351   1.044  0.5366  0.2954 -1.8968
  516MOL0     C71080   6.133   4.475   1.126 -0.0558 -0.1732  0.4907
  516MOL0     C71081   6.153   4.428   1.274 -0.9859 -0.4248  0.1983
  516MOL0     C71082   6.204   4.529   1.374 -0.2010 -0.4178  1.4770
  516MOL0     C71083   6.300   4.640   1.319  0.2948  0.2913 -0.8133
  516MOL0     C71084   6.200   4.766   1.290  0.2961  0.0604 -0.7126
  516MOL0     C71085   6.287   4.876   1.224  0.7491 -1.1337  0.6163
  516MOL0     C71086   6.398   4.935   1.311  0.3710 -0.3198 -1.0323
  516MOL0     N71087   6.328   4.980   1.440  0.0679 -0.2339 -0.0899
  516MOL0     C71088   6.364   4.953   1.572  0.3333 -0.2576  0.0419
  516MOL0     C71089   6.254   4.988   1.650  0.9078 -0.0881 -0.0392
  516MOL0     C71090   6.242   4.970   1.799  0.4181  0.6452 -0.4427
  516MOL0     C71091   6.308   4.841   1.860  0.1019 -0.3121 -0.1085
  516MOL0     C71092   6.240   4.715   1.802  0.3096  0.3158 -0.1485
  516MOL0     C71093   6.329   4.595   1.801  0.2260  0.2459 -0.1814
  516MOL0     O71094   6.462   4.627   1.751  0.0785 -0.7437 -0.1421
  516MOL0     C71095   6.568   4.540   1.799 -0.2600 -0.1372 -0.4165
  516MOL0     C71096   6.570   4.419   1.875 -0.0526  0.1350  1.1392
  516MOL0     C71097   6.693   4.342   1.893 -0.1316 -0.1866 -0.2261
  516MOL0     C71098   6.687   4.196   1.958 -0.3685  0.2842 -0.3726
  516MOL0     C71099   6.812   4.393   1.839 -0.3054 -0.4606 -0.7156
  516MOL0     C71100   6.944   4.316   1.832 -0.2489 -0.9899  0.3465
  516MOL0     O71101   7.033   4.357   1.742 -0.4837  0.4728  0.6047
  516MOL0     C71102   7.145   4.273   1.735 -0.2686 -0.7487  0.0385
  516MOL0     C71103   7.178   4.212   1.614 -0.6934 -0.6294  0.1352
  516MOL0     C71104   7.289   4.115   1.612 -0.4920  0.3727  0.1778
  516MOL0     C71105   7.381   4.123   1.714 -0.5893  0.0419  0.0368
  516MOL0     O71106   7.497   4.058   1.693  0.2376 -0.3694 -0.3896
  516MOL0     C71107   7.555   3.982   1.801  0.0342  0.1072  0.2312
  516MOL0     C71108   7.699   4.001   1.822  1.0000 -0.1073  0.1724
  516MOL0     C71109   7.738   4.123   1.900  0.2081 -0.5367 -0.1844
  516MOL0     C71110   7.713   4.129   2.047  0.7103 -1.1668  0.2534
  516MOL0     C71111   7.760   4.253   2.131 -0.2721 -0.3339 -0.8959
  516MOL0     C71112   7.906   4.235   2.167 -0.3885 -0.3206 -0.6620
  516MOL0     C71113   7.948   4.332   2.285 -0.6565 -0.8406 -1.0669
  516MOL0     C71114   8.083   4.276   2.332  0.3004 -0.0202 -0.2596
  516MOL0    Cl71115   8.039   4.151   2.452  0.1299 -0.6457 -0.0713
  516MOL0     C71116   7.361   4.196   1.831 -0.7698  0.1533 -0.5939
  516MOL0     C71117   7.240   4.272   1.845 -0.0473  1.5638  0.0648
  516MOL0     O71118   6.954   4.232   1.912  0.0491  0.5102 -0.0128
  516MOL0     C71119   6.811   4.519   1.780 -0.4707  0.9776  0.0589
  516MOL0     C71120   6.694   4.586   1.762 -0.2649  0.5143 -0.6002
  516MOL0     N71121   6.176   5.059   1.564  0.1112  0.4992 -0.0572
  516MOL0     N71122   6.228   5.071   1.449  0.2408  0.4260  0.3257
  516MOL0     C71123   6.118   4.062   0.961  0.6124 -0.3093  0.5666
  516MOL0     C71124   6.127   3.955   0.870 -1.0250  0.6271  0.3666
  516MOL0     C71125   6.181   3.650   0.535  1.1005 -0.4645  0.2028
  516MOL0     C71126   6.312   3.630   0.509  0.1962  0.3738  0.0860
  516MOL0     C71127   6.366   3.536   0.418 -0.4561 -0.7590 -0.0952
  516MOL0     C71128   6.281   3.468   0.340 -0.3788  0.6654 -0.0866
  516MOL0     O71129   6.345   3.393   0.237 -0.3991  0.2391 -0.4329
  516MOL0     C71130   6.265   3.294   0.179 -0.6434 -0.1862  0.0413
  516MOL0     C71131   6.355   3.210   0.083  1.0846 -0.0291  0.6668
  516MOL0     C71132   6.469   3.122   0.150  0.2263  0.6871  0.5535
  516MOL0     C71133   6.510   2.999   0.063  0.0748 -0.3708 -0.6495
  516MOL0     C71134   6.533   3.023  -0.077 -0.7777 -0.0927 -0.1409
  516MOL0     C71135   6.540   3.029  -0.197  0.4423 -0.4528  0.4941
  516MOL0     C71136   6.142   3.488   0.355  0.2674  0.7869  0.5178
  516MOL0     C71137   6.090   3.573   0.450  0.1790  0.7267 -0.7049
  516MOL0     C71138   5.945   3.599   0.429  0.5936 -0.8009  0.1752
  516MOL0     H71139   6.426   4.006   0.715  2.9075 -1.1411  2.8838
  516MOL0     H71140   6.398   4.210   0.868 -0.4974 -0.5875 -0.0131
  516MOL0     H71141   6.042   4.287   1.107  3.7613 -0.6380  0.5738
  516MOL0     H71142   6.056   4.388   0.952  0.9748 -0.3323 -2.3816
  516MOL0     H71143   6.221   4.527   1.085  0.3227 -2.5806 -2.0507
  516MOL0     H71144   6.052   4.548   1.124  2.9097  3.4236  0.7318
  516MOL0     H71145   6.061   4.374   1.296 -2.7691  0.9103 -3.2389
  516MOL0     H71146   6.229   4.349   1.276 -0.1927  0.3248  1.4974
  516MOL0     H71147   6.112   4.582   1.401  0.5711  1.4940  0.5996
  516MOL0     H71148   6.242   4.474   1.460 -0.1800  1.8235  2.9823
  516MOL0     H71149   6.347   4.615   1.224  4.5559 -0.3685  1.2426
  516MOL0     H71150   6.375   4.675   1.391 -0.6888 -0.2796  0.5269
  516MOL0     H71151   6.106   4.744   1.239 -1.4350  0.4085  2.0715
  516MOL0     H71152   6.170   4.810   1.386  1.1237  3.8465 -2.0122
  516MOL0     H71153   6.214   4.954   1.198 -0.9604 -2.9220 -0.2075
  516MOL0     H71154   6.337   4.839   1.134  2.0101 -1.4179  1.4073
  516MOL0     H71155   6.481   4.866   1.330 -0.1869 -0.3569  1.6197
  516MOL0     H71156   6.446   5.024   1.268  1.9733  0.9202  2.8912
  516MOL0     H71157   6.457   4.912   1.610  1.0966  1.9607  0.6904
  516MOL0     H71158   6.137   4.976   1.827  0.8946  0.0568  1.6398
  516MOL0     H71159   6.296   5.050   1.851  0.7434 -0.7897  1.5160
  516MOL0     H71160   6.412   4.843   1.826  0.0750 -1.4511 -0.2811
  516MOL0     H71161   6.311   4.837   1.970  3.1286 -1.3401 -0.1414
  516MOL0     H71162   6.147   4.698   1.856  0.3524  1.2538  0.2449
  516MOL0     H71163   6.221   4.733   1.696 -2.3799 -3.5103 -0.5186
  516MOL0     H71164   6.324   4.564   1.906  0.4951  1.3412  0.1643
  516MOL0     H71165   6.270   4.518   1.750 -2.7148  1.2155  1.4933
  516MOL0     H71166   6.473   4.377   1.899 -1.5728  2.0920 -1.0528
  516MOL0     H71167   6.581   4.171   1.965 -1.3655  4.1359  0.6266
  516MOL0     H71168   6.723   4.198   2.061  0.0710 -0.5876 -0.5038
  516MOL0     H71169   6.724   4.106   1.908  0.1358 -1.2585  2.5576
  516MOL0     H71170   7.115   4.237   1.529  0.2582 -0.8148 -0.6473
  516MOL0     H71171   7.306   4.061   1.519  2.4753 -0.5867  1.1512
  516MOL0     H71172   7.511   3.996   1.900  0.4562 -1.6160  0.6949
  516MOL0     H71173   7.541   3.879   1.767 -0.6311 -0.5278  2.3158
  516MOL0     H71174   7.732   3.908   1.869  2.1539  1.0904  1.8639
  516MOL0     H71175   7.748   4.011   1.725  0.5531  0.0323 -0.0433
  516MOL0     H71176   7.694   4.215   1.860 -2.2214 -0.7102  1.8044
  516MOL0     H71177   7.847   4.130   1.899  0.2666  1.2767  3.2968
  516MOL0     H71178   7.764   4.043   2.093  1.6043 -1.0742 -0.5401
  516MOL0     H71179   7.606   4.134   2.070  0.5543  0.1343 -0.6783
  516MOL0     H71180   7.740   4.352   2.088 -1.9336  0.6156  1.8015
  516MOL0     H71181   7.708   4.249   2.227  0.3266  0.2897 -0.5389
  516MOL0     H71182   7.964   4.248   2.076 -1.4937  1.8135 -1.1393
  516MOL0     H71183   7.903   4.137   2.215 -1.0333  0.0637  0.1154
  516MOL0     H71184   7.883   4.325   2.372  0.9172 -0.8183  0.1680
  516MOL0     H71185   7.959   4.438   2.261 -4.0796  1.0198  3.8678
  516MOL0     H71186   8.151   4.353   2.370 -4.5063  3.7871  1.8462
  516MOL0     H71187   8.142   4.220   2.259  3.1918  3.4018 -0.8432
  516MOL0     H71188   7.436   4.215   1.908 -1.6379 -2.9244  1.1909
  516MOL0     H71189   7.232   4.325   1.939  4.2861  2.0475  0.3684
  516MOL0     H71190   6.902   4.570   1.748  1.1677  0.1444  2.9643
  516MOL0     H71191   6.705   4.680   1.709  3.2597 -0.6129 -2.2095
  516MOL0     H71192   6.036   4.068   1.032  1.2146 -1.7921  1.4255
  516MOL0     H71193   6.050   3.879   0.881  0.0910 -0.9808 -1.9938
  516MOL0     H71194   6.378   3.701   0.558 -1.9264  2.0638  0.6584
  516MOL0     H71195   6.473   3.517   0.415  0.1829  2.3290 -1.0041
  516MOL0     H71196   6.226   3.229   0.258 -2.7138 -0.9963 -1.5612
  516MOL0     H71197   6.183   3.348   0.129 -1.5782 -0.6840  0.9907
  516MOL0     H71198   6.410   3.283   0.023 -0.0237  0.5824  0.3751
  516MOL0     H71199   6.292   3.141   0.027  2.8705 -0.6460 -0.6972
  516MOL0     H71200   6.546   3.196   0.175  0.0241  0.3025  2.5124
  516MOL0     H71201   6.438   3.079   0.246 -0.5408 -1.8146 -0.7346
  516MOL0     H71202   6.445   2.911   0.075 -0.6661 -0.0385 -1.9598
  516MOL0     H71203   6.610   2.971   0.098  1.2368  4.0077  0.0311
  516MOL0     H71204   6.545   3.042  -0.304 -1.6889  0.4374  0.4522
  516MOL0     H71205   6.068   3.447   0.287  0.1319  2.6932 -0.5650
  516MOL0     H71206   5.902   3.515   0.375  0.3640 -1.9213  2.0272
  516MOL0     H71207   5.892   3.601   0.525  3.0377  3.9285  1.7850
  516MOL0     H71208   5.927   3.693   0.375  1.4672  1.5273  3.5466
  517MOL0     O71209   3.553   0.660   0.255  0.4731 -0.3320  0.4852
  517MOL0     C71210   3.557   0.589   0.157  0.4349 -0.1653  0.2064
  517MOL0     O71211   3.668   0.564   0.084  0.3943  0.2786 -0.8771
  517MOL0     C71212   3.788   0.599   0.139  1.2957 -0.0056  0.1954
  517MOL0     C71213   3.857   0.510   0.215  0.0291  0.5659  0.3092
  517MOL0     C71214   3.971   0.552   0.282 -0.6558 -0.2999 -0.2676
  517MOL0     C71215   4.015   0.688   0.274  0.0228  0.5308 -0.0884
  517MOL0     O71216   4.114   0.719   0.352  0.1532  0.0034  0.9004
  517MOL0     C71217   4.244   0.733   0.292 -0.1808 -0.4775 -0.3197
  517MOL0     C71218   4.313   0.599   0.286  0.6897 -1.0701  0.6416
  517MOL0     C71219   4.379   0.555   0.416  0.7773 -1.4926  0.3481
  517MOL0     C71220   4.502   0.482   0.393 -0.1616 -0.4999 -0.1975
  517MOL0     C71221   4.466   0.336   0.369 -0.4330  1.0191 -0.5569
  517MOL0     C71222   4.462   0.248   0.496  0.5788 -0.7354 -0.9634
  517MOL0     C71223   4.482   0.095   0.463 -0.7360  0.7756  0.4970
  517MOL0     C71224   4.341   0.033   0.457 -0.5127 -0.1806 -0.7623
  517MOL0     N71225   4.266   0.036   0.590  0.3801  0.0107  0.2664
  517MOL0     C71226   4.265  -0.068   0.688 -0.1535 -0.0243 -0.5217
  517MOL0     C71227   4.182  -0.018   0.780 -0.1221  0.0216  0.7309
  517MOL0     C71228   4.171  -0.079   0.912  0.5600  0.0359 -0.0265
  517MOL0     C71229   4.173   0.029   1.026 -0.7209  0.3420 -0.8366
  517MOL0     C71230   4.295   0.118   1.011  0.5874  0.7199  1.2454
  517MOL0     C71231   4.309   0.209   1.136 -0.3868 -0.2388 -0.1077
  517MOL0     O71232   4.413   0.307   1.118 -0.6149 -0.1570  0.2428
  517MOL0     C71233   4.442   0.411   1.203 -0.2641 -1.0865 -0.2424
  517MOL0     C71234   4.398   0.435   1.337 -0.5526  0.4874 -0.0480
  517MOL0     C71235   4.451   0.543   1.409 -0.0276  0.5066 -0.5482
  517MOL0     C71236   4.415   0.550   1.557  0.8467  0.2820 -0.0579
  517MOL0     C71237   4.534   0.638   1.348  0.8898  0.7833 -0.3006
  517MOL0     C71238   4.601   0.761   1.423  0.1249  0.4029  0.1321
  517MOL0     O71239   4.578   0.777   1.554  0.0937 -0.8619 -0.1955
  517MOL0     C71240   4.648   0.861   1.637 -0.5653  0.3051 -0.5437
  517MOL0     C71241   4.784   0.877   1.633 -1.0213 -1.6744 -1.1901
  517MOL0     C71242   4.849   0.957   1.736 -0.2491  0.9949 -0.7346
  517MOL0     C71243   4.779   1.035   1.828  0.0946  0.5579 -0.4561
  517MOL0     O71244   4.843   1.130   1.917  0.4024 -0.7165  0.3581
  517MOL0     C71245   4.940   1.077   1.999 -0.0417 -0.3743 -0.9669
  517MOL0     C71246   5.038   1.194   2.027  0.8782  0.3606  0.0665
  517MOL0     C71247   5.141   1.207   1.910  0.4569 -0.3628 -0.0179
  517MOL0     C71248   5.232   1.332   1.925 -0.0104  0.0340 -0.2082
  517MOL0     C71249   5.356   1.338   1.831 -0.5186 -1.5951 -0.0775
  517MOL0     C71250   5.415   1.490   1.818 -0.0151 -0.6636  0.5229
  517MOL0     C71251   5.523   1.503   1.707 -0.5963 -1.2236 -0.0865
  517MOL0     C71252   5.464   1.517   1.571  0.6251  0.0649 -0.1454
  517MOL0    Cl71253   5.584   1.516   1.443  0.4998 -0.2081 -0.1857
  517MOL0     C71254   4.644   1.028   1.815  0.5744 -0.1791 -0.0456
  517MOL0     C71255   4.578   0.938   1.729  0.3238 -0.4938  0.4336
  517MOL0     O71256   4.658   0.834   1.348  0.3750  0.1001  0.9962
  517MOL0     C71257   4.576   0.612   1.219  1.9132  0.3379  0.6335
  517MOL0     C71258   4.535   0.494   1.156 -1.0528  0.2576  0.4314
  517MOL0     N71259   4.124   0.099   0.737  0.4601 -0.3645 -0.0588
  517MOL0     N71260   4.169   0.129   0.621  0.6641  0.1096 -0.2685
  517MOL0     C71261   3.942   0.781   0.203  0.0507  0.9000 -0.8352
  517MOL0     C71262   3.829   0.732   0.144  0.0712 -0.6633  0.3579
  517MOL0     C71263   3.428   0.537   0.111  0.1686  0.1393 -0.7658
  517MOL0     C71264   3.441   0.412   0.050 -0.8518  0.5029 -0.3844
  517MOL0     C71265   3.334   0.341  -0.004 -0.5395  0.2339  0.8186
  517MOL0     C71266   3.207   0.403   0.009  0.1492  0.3140 -0.3090
  517MOL0     O71267   3.091   0.346  -0.050 -0.5678 -0.6411  0.5417
  517MOL0     C71268   2.979   0.429  -0.100 -1.2979 -0.1364  0.2477
  517MOL0     C71269   2.968   0.400  -0.251  0.5682  0.1639  0.2849
  517MOL0     C71270   2.850   0.303  -0.296 -0.4503  0.2891 -0.4945
  517MOL0     C71271   2.817   0.197  -0.183  0.6344 -0.4892  0.3242
  517MOL0     C71272   2.782   0.067  -0.247  0.5149 -1.2375 -0.7051
  517MOL0     C71273   2.740  -0.027  -0.292 -0.3695 -0.2954  0.8006
  517MOL0     C71274   3.191   0.520   0.079  0.1109 -0.5062  0.5761
  517MOL0     C71275   3.298   0.589   0.134 -0.4843  0.0971 -0.4267
  517MOL0     C71276   3.273   0.714   0.210 -0.1078 -0.2208  0.5642
  517MOL0     H71277   3.826   0.407   0.225  0.8008  0.1294 -1.3635
  517MOL0     H71278   4.010   0.475   0.348  0.7440  0.3514 -0.2998
  517MOL0     H71279   4.299   0.793   0.365 -0.5144  0.4521 -0.8197
  517MOL0     H71280   4.249   0.785   0.195 -0.2968 -1.8332 -1.0807
  517MOL0     H71281   4.248   0.520   0.248  2.5143 -0.7322 -3.8020
  517MOL0     H71282   4.392   0.602   0.211  2.2999 -0.0023  2.2958
  517MOL0     H71283   4.394   0.647   0.473  2.8370 -0.3965 -1.8056
  517MOL0     H71284   4.305   0.501   0.476 -3.6334  1.7813 -1.5533
  517MOL0     H71285   4.561   0.521   0.309 -0.2069 -1.9829 -0.9537
  517MOL0     H71286   4.559   0.484   0.486 -2.8873 -0.9911  1.5968
  517MOL0     H71287   4.551   0.301   0.309  1.1344  2.6105  0.6406
  517MOL0     H71288   4.374   0.318   0.312 -0.2308 -2.3663  0.0092
  517MOL0     H71289   4.546   0.288   0.554 -1.2374  0.0999  1.2499
  517MOL0     H71290   4.378   0.275   0.561  0.4794  0.3502 -1.5261
  517MOL0     H71291   4.545   0.034   0.528  0.2811 -1.2968 -2.2303
  517MOL0     H71292   4.513   0.091   0.358 -2.0771 -1.3373  0.1358
  517MOL0     H71293   4.276   0.095   0.394 -2.0347  1.5272  2.2429
  517MOL0     H71294   4.338  -0.068   0.416 -1.6231 -0.6029  0.2980
  517MOL0     H71295   4.328  -0.156   0.689  1.1064  0.8376 -1.5809
  517MOL0     H71296   4.252  -0.149   0.932  0.4416 -0.0265  0.2406
  517MOL0     H71297   4.080  -0.139   0.927  0.0593  1.0115  1.0090
  517MOL0     H71298   4.082   0.089   1.014 -1.0684  0.0493  0.2239
  517MOL0     H71299   4.184  -0.024   1.121 -0.3298  0.1718 -0.9774
  517MOL0     H71300   4.384   0.054   1.004  0.2070 -0.0808  3.0068
  517MOL0     H71301   4.291   0.183   0.923 -0.2893  1.3501  1.7414
  517MOL0     H71302   4.219   0.269   1.149  1.8663  3.0687  2.0160
  517MOL0     H71303   4.323   0.164   1.234  2.7416  1.0712  0.1661
  517MOL0     H71304   4.326   0.366   1.379 -2.2168  1.6092 -0.9349
  517MOL0     H71305   4.360   0.459   1.581  0.5509  0.3864 -0.3253
  517MOL0     H71306   4.345   0.632   1.573 -0.6981 -1.0941  0.4809
  517MOL0     H71307   4.508   0.559   1.615  1.1164  2.3331 -0.7390
  517MOL0     H71308   4.839   0.829   1.553 -0.9505 -2.5926 -0.6068
  517MOL0     H71309   4.958   0.951   1.743 -0.2706 -2.8624 -1.0732
  517MOL0     H71310   4.901   1.034   2.092 -0.8750  0.5194 -0.8895
  517MOL0     H71311   4.991   1.003   1.937 -2.1447  0.1447 -3.4917
  517MOL0     H71312   4.990   1.288   2.056 -0.2417  0.4376 -1.8536
  517MOL0     H71313   5.083   1.167   2.123 -1.8459  2.6414  2.1599
  517MOL0     H71314   5.087   1.194   1.816 -0.4260 -2.5180  0.7305
  517MOL0     H71315   5.212   1.123   1.913  0.1324 -0.6368  0.0175
  517MOL0     H71316   5.278   1.348   2.023  1.5169  0.7257 -0.9960
  517MOL0     H71317   5.164   1.413   1.897  0.3422 -1.1100 -5.3117
  517MOL0     H71318   5.430   1.263   1.862 -0.0859  0.5115  4.9888
  517MOL0     H71319   5.339   1.303   1.729 -2.3791  0.1300 -0.4250
  517MOL0     H71320   5.456   1.513   1.917 -0.5127  1.2892  0.3108
  517MOL0     H71321   5.335   1.562   1.802  1.0289 -0.0044 -2.5112
  517MOL0     H71322   5.601   1.427   1.714  2.9363  2.1794  2.1399
  517MOL0     H71323   5.574   1.598   1.726 -0.8019 -1.0647 -0.3328
  517MOL0     H71324   5.406   1.610   1.571  1.0341  0.3453  0.9877
  517MOL0     H71325   5.407   1.425   1.558  0.3929  0.1530  0.2308
  517MOL0     H71326   4.584   1.082   1.888  1.8457 -1.9734  2.4643
  517MOL0     H71327   4.471   0.923   1.743 -0.0620  2.6977  1.7033
  517MOL0     H71328   4.653   0.671   1.171  0.4160  2.9952  1.3340
  517MOL0     H71329   4.572   0.467   1.058 -0.3880  0.6566  0.5635
  517MOL0     H71330   3.957   0.888   0.201  3.2425  0.6419  1.1362
  517MOL0     H71331   3.768   0.798   0.084  1.7961  0.3435 -0.3368
  517MOL0     H71332   3.534   0.358   0.034 -0.4148  0.3080  2.2969
  517MOL0     H71333   3.357   0.243  -0.046 -1.8640 -1.4213  3.6844
  517MOL0     H71334   2.886   0.408  -0.046 -1.6707 -0.7139 -0.6025
  517MOL0     H71335   3.012   0.532  -0.086 -1.6610  0.4302 -2.5281
  517MOL0     H71336   3.056   0.342  -0.281 -0.0138 -0.7688  0.3455
  517MOL0     H71337   2.968   0.493  -0.309 -2.3836  1.1074  1.6300
  517MOL0     H71338   2.762   0.367  -0.309 -0.0787  0.7180 -0.9554
  517MOL0     H71339   2.875   0.259  -0.393 -0.0952  1.3520 -0.9013
  517MOL0     H71340   2.729   0.233  -0.128 -0.3878 -1.7514 -0.4422
  517MOL0     H71341   2.901   0.181  -0.115  0.2287 -0.3188  0.8785
  517MOL0     H71342   2.705  -0.101  -0.362 -1.2001 -0.6650  1.5900
  517MOL0     H71343   3.089   0.551   0.099  0.4767  2.9344 -1.9244
  517MOL0     H71344   3.165   0.718   0.227 -0.4426  0.0586 -1.4349
  517MOL0     H71345   3.310   0.706   0.313 -1.6386 -1.2783  1.0693
  517MOL0     H71346   3.317   0.800   0.160 -1.1595  2.9038  4.4947
  518MOL0     O71347   6.212  11.257   3.011  0.5722  0.4036 -0.5258
  518MOL0     C71348   6.232  11.196   3.113 -1.1099 -0.7868  0.4431
  518MOL0     O71349   6.187  11.228   3.243 -0.4814  0.7204  0.2893
  518MOL0     C71350   6.110  11.345   3.253  1.0400 -0.5162  0.4320
  518MOL0     C71351   6.142  11.446   3.343 -0.4326 -0.0168 -0.0533
  518MOL0     C71352   6.073  11.566   3.341 -0.1659 -0.3167 -0.5126
  518MOL0     C71353   5.964  11.582   3.259  0.6600  0.1878 -0.0141
  518MOL0     O71354   5.896  11.701   3.249 -0.2349  0.0005  0.3260
  518MOL0     C71355   5.848  11.742   3.382 -0.7521 -0.9164  0.5360
  518MOL0     C71356   5.750  11.867   3.384 -1.0141  0.0035  0.9817
  518MOL0     C71357   5.613  11.847   3.314  0.7176  0.8728 -1.1416
  518MOL0     C71358   5.516  11.749   3.386 -0.1600 -0.1625 -0.3558
  518MOL0     C71359   5.383  11.740   3.313 -0.1109 -0.1769 -0.6545
  518MOL0     C71360   5.314  11.874   3.307 -0.8752  0.2662 -0.7174
  518MOL0     C71361   5.158  11.843   3.316 -0.1794 -0.5163  0.1305
  518MOL0     C71362   5.073  11.968   3.304  0.5668  0.0057  0.2143
  518MOL0     N71363   4.931  11.918   3.324  0.2445  0.3856 -0.6239
  518MOL0     C71364   4.852  11.849   3.231  1.2076 -0.7361  0.9216
  518MOL0     C71365   4.738  11.798   3.307 -0.0337  0.3450  0.6845
  518MOL0     C71366   4.627  11.720   3.248 -0.1383  0.5187  0.3210
  518MOL0     C71367   4.505  11.805   3.230  0.7225  0.2224 -0.0981
  518MOL0     C71368   4.412  11.760   3.111 -0.0913  0.0553  0.8942
  518MOL0     C71369   4.368  11.619   3.074 -0.0632 -0.9078 -0.3633
  518MOL0     O71370   4.310  11.607   2.948  0.1852 -0.8289  0.1758
  518MOL0     C71371   4.324  11.487   2.875 -0.2662 -0.0443  0.8484
  518MOL0     C71372   4.419  11.383   2.896 -0.3794 -0.0571 -0.7113
  518MOL0     C71373   4.442  11.282   2.806  0.3309 -0.1360  0.0646
  518MOL0     C71374   4.558  11.191   2.835 -0.1234  0.5921  1.3399
  518MOL0     C71375   4.353  11.262   2.695  0.7803  0.6353 -0.3135
  518MOL0     C71376   4.370  11.173   2.586  0.7782 -0.0838 -0.0510
  518MOL0     O71377   4.253  11.117   2.542 -0.0416 -0.2862 -0.0053
  518MOL0     C71378   4.257  11.002   2.460 -0.4394 -0.4926 -0.2626
  518MOL0     C71379   4.352  10.901   2.478  0.5552  0.7554  0.4852
  518MOL0     C71380   4.348  10.793   2.386  0.4651  0.0772  0.7075
  518MOL0     C71381   4.266  10.797   2.267  0.1861  0.5674  0.3898
  518MOL0     O71382   4.255  10.692   2.184 -0.6033 -0.0335 -1.1229
  518MOL0     C71383   4.198  10.682   2.058 -0.4957 -0.1743  0.7667
  518MOL0     C71384   4.217  10.539   2.008  0.9896  0.5300  0.4907
  518MOL0     C71385   4.110  10.511   1.915  0.3009 -0.4259 -0.5119
  518MOL0     C71386   4.110  10.594   1.790 -0.8943  0.2592 -0.4021
  518MOL0     C71387   3.986  10.573   1.697  0.1411 -0.0977 -0.1299
  518MOL0     C71388   3.965  10.699   1.614  0.3014 -0.2836  0.1534
  518MOL0     C71389   4.080  10.738   1.522 -0.2853 -0.0321  0.4721
  518MOL0     C71390   4.024  10.784   1.385  0.2333 -0.5290 -0.6088
  518MOL0    Cl71391   3.927  10.932   1.411 -0.0686  0.1067 -0.4406
  518MOL0     C71392   4.190  10.905   2.253  0.3994 -0.8432  0.7725
  518MOL0     C71393   4.180  11.008   2.344 -0.5027  1.4090  0.2284
  518MOL0     O71394   4.475  11.150   2.530  0.4162 -0.2571 -0.0070
  518MOL0     C71395   4.259  11.365   2.668  1.1120 -0.1632 -0.3835
  518MOL0     C71396   4.248  11.475   2.759 -0.2648  0.0380  0.4265
  518MOL0     N71397   4.750  11.861   3.433  0.1505  0.8412 -0.4496
  518MOL0     N71398   4.863  11.932   3.436  0.3585  0.2451 -0.3313
  518MOL0     C71399   5.929  11.483   3.172 -0.1861 -0.1547 -0.2715
  518MOL0     C71400   6.001  11.362   3.167 -0.9276  0.0205  0.7555
  518MOL0     C71401   6.297  11.072   3.091 -0.7333 -0.7524  0.8251
  518MOL0     C71402   6.247  10.958   3.156  0.3465  1.2343 -0.6600
  518MOL0     C71403   6.301  10.823   3.139  0.2566 -0.2825 -1.0404
  518MOL0     C71404   6.412  10.810   3.069  0.1950  0.1727  0.7228
  518MOL0     O71405   6.467  10.687   3.071  0.2273 -0.6078  0.3564
  518MOL0     C71406   6.607  10.676   3.086  0.0340 -0.4380 -0.3899
  518MOL0     C71407   6.657  10.533   3.130  1.1645 -0.8936 -0.0426
  518MOL0     C71408   6.629  10.440   3.008 -0.9260  1.0431  0.7175
  518MOL0     C71409   6.687  10.303   3.056 -0.5993 -0.8428 -0.0217
  518MOL0     C71410   6.696  10.204   2.949  0.1084  0.3455  0.5046
  518MOL0     C71411   6.723  10.121   2.863  1.6475  0.6698  0.6433
  518MOL0     C71412   6.463  10.921   3.005  0.8316 -0.1179  0.0471
  518MOL0     C71413   6.401  11.049   3.007 -0.2789 -0.3461  0.1561
  518MOL0     C71414   6.458  11.154   2.902  0.8910 -0.6924  0.1871
  518MOL0     H71415   6.231  11.441   3.403 -0.2653  1.6129 -0.1370
  518MOL0     H71416   6.093  11.647   3.410 -0.7559 -1.3761  0.9480
  518MOL0     H71417   5.939  11.775   3.434 -0.0451  0.3647 -1.3912
  518MOL0     H71418   5.803  11.661   3.439  1.9167 -0.3235  3.7967
  518MOL0     H71419   5.725  11.893   3.487 -4.5275  1.1493 -0.0306
  518MOL0     H71420   5.812  11.946   3.340 -0.0402 -0.0016  2.2803
  518MOL0     H71421   5.563  11.942   3.296 -0.4568  0.3391 -0.7722
  518MOL0     H71422   5.631  11.815   3.211 -3.3634  3.1559 -2.7868
  518MOL0     H71423   5.559  11.648   3.381  0.5237  0.0927  0.2639
  518MOL0     H71424   5.502  11.789   3.487 -0.4044  0.0925 -0.4900
  518MOL0     H71425   5.329  11.664   3.371  3.6181 -1.1447  1.9096
  518MOL0     H71426   5.379  11.696   3.213  1.0110 -4.1789  0.8505
  518MOL0     H71427   5.339  11.938   3.393  0.5417 -1.8015  0.4967
  518MOL0     H71428   5.327  11.923   3.211  2.0906  1.8677  0.3764
  518MOL0     H71429   5.136  11.790   3.410 -0.1808 -0.2071  0.3074
  518MOL0     H71430   5.129  11.765   3.246 -0.2316  0.7546 -1.3219
  518MOL0     H71431   5.089  12.040   3.384 -2.7450  0.9086  0.1867
  518MOL0     H71432   5.086  12.017   3.207 -0.6578  1.1958  0.6227
  518MOL0     H71433   4.856  11.834   3.124 -1.8067 -1.2521  0.8003
  518MOL0     H71434   4.600  11.630   3.304  2.2718 -0.4419  0.0574
  518MOL0     H71435   4.663  11.689   3.150  3.4580 -0.9612  1.9484
  518MOL0     H71436   4.442  11.810   3.319 -0.5712 -1.3655 -0.8782
  518MOL0     H71437   4.542  11.906   3.210  0.8497 -0.2588 -2.5752
  518MOL0     H71438   4.320  11.818   3.101 -0.5711 -1.0809 -3.8112
  518MOL0     H71439   4.457  11.801   3.019 -0.3281 -2.3696 -0.3945
  518MOL0     H71440   4.458  11.562   3.099  1.0997  0.5680 -1.0357
  518MOL0     H71441   4.299  11.591   3.154  1.9127  0.3352  1.9315
  518MOL0     H71442   4.498  11.409   2.966  0.4510  1.3065 -2.0867
  518MOL0     H71443   4.527  11.086   2.826 -1.7759  1.0780  0.8133
  518MOL0     H71444   4.592  11.202   2.938  1.9211 -2.6724  1.1588
  518MOL0     H71445   4.639  11.232   2.774 -0.6615 -2.1836 -1.5166
  518MOL0     H71446   4.409  10.894   2.570  3.4882  2.6833 -1.0463
  518MOL0     H71447   4.419  10.713   2.406  0.7007  0.2454  0.5523
  518MOL0     H71448   4.094  10.716   2.050  0.2534  1.9733 -0.9584
  518MOL0     H71449   4.257  10.741   1.987  2.4371 -1.7985  1.6956
  518MOL0     H71450   4.313  10.533   1.955  0.4729 -2.9459 -0.2380
  518MOL0     H71451   4.218  10.469   2.091 -0.2671  1.4879  1.3604
  518MOL0     H71452   4.013  10.535   1.960  1.0347  0.7532  0.5033
  518MOL0     H71453   4.118  10.407   1.882 -0.2451 -0.5920 -0.1337
  518MOL0     H71454   4.200  10.563   1.736 -1.6268 -0.6756 -1.1236
  518MOL0     H71455   4.118  10.698   1.823 -1.6305 -0.0465  0.8087
  518MOL0     H71456   3.998  10.487   1.631 -2.5746 -0.7803  0.1551
  518MOL0     H71457   3.902  10.554   1.764 -0.1661  2.9967  0.5265
  518MOL0     H71458   3.941  10.782   1.681 -1.2515 -0.7543  0.2205
  518MOL0     H71459   3.877  10.671   1.555 -0.0389 -2.3797  1.5591
  518MOL0     H71460   4.158  10.662   1.508  0.6191  0.7353  1.1923
  518MOL0     H71461   4.132  10.823   1.566  0.3334 -0.7454  1.1415
  518MOL0     H71462   3.957  10.705   1.349 -2.3487  1.9539 -1.6297
  518MOL0     H71463   4.107  10.799   1.315 -0.4817 -1.2350 -1.6353
  518MOL0     H71464   4.130  10.928   2.166  3.2811 -0.3026 -1.2230
  518MOL0     H71465   4.120  11.097   2.328 -0.0620  2.2907  2.9352
  518MOL0     H71466   4.192  11.362   2.582 -0.1823 -2.9320  0.5769
  518MOL0     H71467   4.185  11.558   2.731  1.3557  1.0686 -0.2617
  518MOL0     H71468   5.838  11.499   3.115  1.1050  2.6027 -1.7718
  518MOL0     H71469   5.970  11.288   3.095 -0.3854  0.9491 -0.4658
  518MOL0     H71470   6.166  10.943   3.226  1.0703  0.6806  0.0864
  518MOL0     H71471   6.256  10.742   3.195  5.0282 -1.4876  1.5804
  518MOL0     H71472   6.645  10.709   2.989  0.3551  2.2977  0.5550
  518MOL0     H71473   6.635  10.749   3.163  2.4344 -0.7645 -0.8720
  518MOL0     H71474   6.596  10.492   3.210 -2.2554 -1.0667 -2.4955
  518MOL0     H71475   6.764  10.531   3.152  0.9572 -1.4001  0.9713
  518MOL0     H71476   6.524  10.425   2.983 -0.0358 -2.9919 -1.3746
  518MOL0     H71477   6.681  10.471   2.917  1.1911 -2.5213  0.5410
  518MOL0     H71478   6.625  10.263   3.137  0.7222 -1.0064  0.9436
  518MOL0     H71479   6.785  10.322   3.100 -0.7480  0.7113 -0.3254
  518MOL0     H71480   6.746  10.048   2.788 -0.8455 -0.6327  1.0370
  518MOL0     H71481   6.549  10.917   2.939 -0.2433 -0.3123 -1.3702
  518MOL0     H71482   6.406  11.148   2.806  1.6673  1.6628 -0.4442
  518MOL0     H71483   6.441  11.258   2.930  0.9998 -0.6605  0.1341
  518MOL0     H71484   6.567  11.153   2.890  0.7901 -0.1445 -0.8993
  519MOL0     O71485   5.490   1.717  10.637 -0.1682  0.3089 -0.4328
  519MOL0     C71486   5.517   1.688  10.753  0.4866 -0.1892  0.6161
  519MOL0     O71487   5.489   1.562  10.803  0.1892  0.0592 -0.0260
  519MOL0     C71488   5.469   1.443  10.736 -0.1600  0.3223 -0.7024
  519MOL0     C71489   5.400   1.345  10.811 -0.0120 -0.1401 -0.4591
  519MOL0     C71490   5.346   1.239  10.747  0.0184 -0.2318 -0.1487
  519MOL0     C71491   5.398   1.188  10.625 -0.1316 -0.5627 -0.9208
  519MOL0     O71492   5.367   1.062  10.594 -0.0546  0.0975 -0.5012
  519MOL0     C71493   5.486   0.982  10.596 -0.1901 -0.3189 -0.2682
  519MOL0     C71494   5.566   0.972  10.460 -0.1798 -0.1420 -0.1717
  519MOL0     C71495   5.488   0.984  10.330  0.1887  0.6858  1.1304
  519MOL0     C71496   5.574   0.945  10.213 -0.3815  0.2761  0.8501
  519MOL0     C71497   5.603   0.798  10.210  0.8858 -0.9136 -0.1741
  519MOL0     C71498   5.646   0.765  10.071  0.5234  0.0195  0.1419
  519MOL0     C71499   5.778   0.822  10.025 -1.0128 -0.4777  0.0474
  519MOL0     C71500   5.858   0.729   9.931  0.7263  0.0387  1.2120
  519MOL0     N71501   6.005   0.746   9.921 -0.1351 -0.8489  0.5614
  519MOL0     C71502   6.097   0.725  10.021  0.4104 -0.4012  0.5198
  519MOL0     C71503   6.219   0.755   9.971  0.2741 -0.6234 -0.1210
  519MOL0     C71504   6.338   0.714  10.049 -0.0631 -0.3604 -0.2828
  519MOL0     C71505   6.472   0.751   9.985  0.4815  0.4406  0.3998
  519MOL0     C71506   6.494   0.909   9.997  0.2740 -0.1193 -0.5030
  519MOL0     C71507   6.626   0.943   9.938 -0.5384 -0.8178  0.1111
  519MOL0     O71508   6.635   1.089   9.932  0.3398 -0.4543  0.2592
  519MOL0     C71509   6.682   1.159  10.038  0.8075  0.0431 -1.1565
  519MOL0     C71510   6.611   1.273  10.083 -0.5536  1.0152 -0.1490
  519MOL0     C71511   6.662   1.332  10.201 -0.6446  0.7911  0.0474
  519MOL0     C71512   6.579   1.451  10.257  0.0331 -0.4549 -0.0080
  519MOL0     C71513   6.796   1.307  10.255 -0.4934  0.3496 -0.5003
  519MOL0     C71514   6.875   1.382  10.364 -0.4051  0.3577  0.2196
  519MOL0     O71515   6.813   1.471  10.428 -0.2736  0.2430 -0.1457
  519MOL0     C71516   6.889   1.556  10.502  0.2837  0.1691  0.1886
  519MOL0     C71517   6.942   1.678  10.448 -0.0594  1.4528 -0.3743
  519MOL0     C71518   7.003   1.760  10.544 -0.1838 -0.1246 -1.0296
  519MOL0     C71519   7.009   1.737  10.686  0.9537  0.3307  0.0598
  519MOL0     O71520   7.075   1.836  10.756 -0.2597 -0.5895 -0.6258
  519MOL0     C71521   7.122   1.787  10.880  0.7489  0.1391  0.5709
  519MOL0     C71522   7.219   1.874  10.942 -0.2308 -0.8646  0.8747
  519MOL0     C71523   7.322   1.922  10.839  0.1856 -0.4501 -0.0496
  519MOL0     C71524   7.455   1.961  10.894 -0.3245 -0.1850 -0.2679
  519MOL0     C71525   7.558   1.982  10.782  0.3884  0.5352  0.5747
  519MOL0     C71526   7.595   1.849  10.720 -0.3180  0.0254  0.1720
  519MOL0     C71527   7.738   1.843  10.657  0.0443 -0.0618  0.0193
  519MOL0     C71528   7.848   1.818  10.757  0.7221 -0.5938 -1.0302
  519MOL0    Cl71529   7.790   1.694  10.863 -0.5377  0.5074 -0.8360
  519MOL0     C71530   6.941   1.624  10.729  0.0296 -0.9405 -0.1671
  519MOL0     C71531   6.884   1.533  10.639 -0.1639  0.4229  0.6769
  519MOL0     O71532   6.996   1.345  10.381  0.9122 -0.0518  1.2187
  519MOL0     C71533   6.862   1.205  10.193 -0.0419  0.2902  0.0752
  519MOL0     C71534   6.807   1.132  10.092  0.0610  0.6087  0.1452
  519MOL0     N71535   6.204   0.790   9.838  0.0135 -0.7905 -0.4653
  519MOL0     N71536   6.076   0.781   9.813  0.3435  0.8405  0.4237
  519MOL0     C71537   5.481   1.280  10.558  0.8694  0.4789 -0.6470
  519MOL0     C71538   5.509   1.401  10.607 -0.1287  0.2439 -0.3407
  519MOL0     C71539   5.549   1.797  10.854  1.1458  0.4154  0.1477
  519MOL0     C71540   5.593   1.759  10.978 -1.6530  1.2701 -1.0629
  519MOL0     C71541   5.620   1.833  11.089  0.6727  0.8212 -0.0470
  519MOL0     C71542   5.612   1.977  11.059 -0.5542 -0.7629 -0.6128
  519MOL0     O71543   5.640   2.067  11.156  0.4320 -0.3810  0.5090
  519MOL0     C71544   5.524   2.129  11.218 -0.2007  0.1647  0.5850
  519MOL0     C71545   5.483   2.041  11.337  0.2956 -1.3548 -0.3389
  519MOL0     C71546   5.341   2.055  11.381  0.1070  0.7758 -0.2087
  519MOL0     C71547   5.337   1.995  11.526  0.0365  0.3907  0.1262
  519MOL0     C71548   5.195   2.003  11.571  0.4351  0.2765  0.0025
  519MOL0     C71549   5.077   2.025  11.595  0.3536 -0.2897 -1.0971
  519MOL0     C71550   5.567   2.023  10.934 -0.1965  0.7094  0.0222
  519MOL0     C71551   5.523   1.935  10.836 -0.1250  0.2224  0.4547
  519MOL0     C71552   5.462   1.992  10.708 -1.1922 -0.5111 -0.0034
  519MOL0     H71553   5.368   1.371  10.912 -2.2841 -0.0818 -1.1299
  519MOL0     H71554   5.285   1.174  10.809 -1.5629  1.5234  0.2223
  519MOL0     H71555   5.446   0.892  10.642 -1.6304  0.0274 -0.7817
  519MOL0     H71556   5.550   1.022  10.675 -0.3360 -1.8948  0.6744
  519MOL0     H71557   5.645   1.048  10.465  0.5190 -0.9421  2.4062
  519MOL0     H71558   5.621   0.878  10.459  1.6044  0.8282 -2.3070
  519MOL0     H71559   5.405   0.913  10.325 -1.2656  2.3085  1.3378
  519MOL0     H71560   5.455   1.087  10.314  0.3823  0.8074  1.4987
  519MOL0     H71561   5.517   0.971  10.123  1.0724  0.9550  0.0910
  519MOL0     H71562   5.667   1.000  10.199 -1.0251  0.8261 -1.7369
  519MOL0     H71563   5.509   0.744  10.226  0.1752  0.8670  2.0673
  519MOL0     H71564   5.678   0.771  10.285 -2.3881 -3.9258  2.3561
  519MOL0     H71565   5.670   0.658  10.068  1.4396  0.2339 -0.6979
  519MOL0     H71566   5.577   0.773   9.986 -0.6197  0.7927  1.1210
  519MOL0     H71567   5.838   0.843  10.114 -0.4834 -1.7480  0.0043
  519MOL0     H71568   5.756   0.921   9.984 -3.0980 -0.5665  0.8004
  519MOL0     H71569   5.844   0.622   9.952 -3.8635  0.7373  2.8524
  519MOL0     H71570   5.803   0.736   9.836 -1.4553  1.3261  2.4911
  519MOL0     H71571   6.089   0.683  10.121 -2.5494 -1.0267  0.1330
  519MOL0     H71572   6.342   0.607  10.072 -1.3295  0.2215  3.3302
  519MOL0     H71573   6.342   0.753  10.151  1.8468  1.2557 -0.9224
  519MOL0     H71574   6.557   0.711  10.043  1.8165  0.7818 -1.2495
  519MOL0     H71575   6.479   0.713   9.883 -1.1907 -1.1077  0.7966
  519MOL0     H71576   6.413   0.962   9.947  2.1706  0.9836 -2.5378
  519MOL0     H71577   6.487   0.943  10.101 -2.5713 -2.8120  0.3271
  519MOL0     H71578   6.704   0.903  10.002  1.9528 -2.1810 -3.4305
  519MOL0     H71579   6.632   0.913   9.833  2.8113  1.2289 -0.4233
  519MOL0     H71580   6.517   1.301  10.038  0.5288  2.3437 -1.7166
  519MOL0     H71581   6.478   1.438  10.216 -0.4791  2.8404 -0.0974
  519MOL0     H71582   6.635   1.538  10.223 -2.6962  1.3892 -0.1335
  519MOL0     H71583   6.574   1.452  10.366  2.5381  4.7872  0.3801
  519MOL0     H71584   6.949   1.709  10.345  0.9252  5.1480  0.6524
  519MOL0     H71585   7.057   1.843  10.499 -1.8192 -0.3788 -3.6887
  519MOL0     H71586   7.032   1.775  10.940 -0.2790 -1.7462 -1.2416
  519MOL0     H71587   7.166   1.688  10.867  2.2063  0.6954  1.0424
  519MOL0     H71588   7.171   1.961  10.988 -0.8701 -0.9071  0.3014
  519MOL0     H71589   7.265   1.815  11.022 -1.9941 -1.5953  1.3930
  519MOL0     H71590   7.280   2.010  10.791  2.7115  2.3731  2.4744
  519MOL0     H71591   7.330   1.845  10.761  0.1127  1.2831 -1.8659
  519MOL0     H71592   7.495   1.886  10.962 -0.8726 -0.1023  0.1530
  519MOL0     H71593   7.450   2.046  10.961 -0.7941 -2.1914  2.3972
  519MOL0     H71594   7.509   2.054  10.716 -0.5549  1.4790  2.2438
  519MOL0     H71595   7.649   2.030  10.819 -0.2865  1.1159  1.5166
  519MOL0     H71596   7.529   1.831  10.634 -4.0081  0.8526  2.5884
  519MOL0     H71597   7.588   1.760  10.783 -2.6721  0.0045 -0.0469
  519MOL0     H71598   7.760   1.929  10.593 -1.1290 -1.3846 -2.3000
  519MOL0     H71599   7.744   1.750  10.599  0.5258 -1.7496  2.6182
  519MOL0     H71600   7.861   1.908  10.817  0.2199 -1.2677  0.1143
  519MOL0     H71601   7.938   1.780  10.708  0.5696 -1.2749 -0.7986
  519MOL0     H71602   6.927   1.611  10.836 -0.8853  1.7548  0.1186
  519MOL0     H71603   6.840   1.441  10.677  2.5224 -1.3329 -0.2192
  519MOL0     H71604   6.959   1.172  10.227 -0.8644 -2.6903 -0.1705
  519MOL0     H71605   6.861   1.039  10.079 -0.8651  0.3131 -2.0413
  519MOL0     H71606   5.505   1.264  10.453  2.5959  1.4072 -0.4344
  519MOL0     H71607   5.571   1.465  10.544 -0.3264 -0.3431 -1.1447
  519MOL0     H71608   5.605   1.652  10.989 -0.5199  1.4176 -0.6537
  519MOL0     H71609   5.639   1.802  11.191  0.6541 -0.3754 -0.3918
  519MOL0     H71610   5.534   2.233  11.252  1.1846  0.6089 -1.0574
  519MOL0     H71611   5.441   2.117  11.148 -2.0354 -0.1218  2.6845
  519MOL0     H71612   5.540   2.077  11.424 -2.9079  0.5177  1.1841
  519MOL0     H71613   5.499   1.935  11.316  5.1218 -0.8790 -0.1542
  519MOL0     H71614   5.300   2.155  11.369  0.0705  0.9809  1.3898
  519MOL0     H71615   5.284   1.984  11.320 -0.8184  1.2849  0.0533
  519MOL0     H71616   5.401   2.057  11.589  4.3912 -2.4141 -1.0874
  519MOL0     H71617   5.371   1.891  11.532 -3.8168 -1.1587 -1.0019
  519MOL0     H71618   4.974   2.044  11.619  1.0186 -0.2379  2.2447
  519MOL0     H71619   5.561   2.130  10.916  1.4134  0.7649 -0.3777
  519MOL0     H71620   5.515   1.951  10.622  1.3213 -0.6837  1.5178
  519MOL0     H71621   5.355   1.967  10.711 -1.1121 -0.7903  2.1458
  519MOL0     H71622   5.473   2.101  10.707 -0.5591 -0.5498  1.0589
  520MOL0     O71623   3.279   6.039   4.148  0.6691  0.5145 -0.5703
  520MOL0     C71624   3.281   6.153   4.204 -0.4419  0.8518 -1.5881
  520MOL0     O71625   3.208   6.263   4.169 -0.0920  1.0022 -0.0982
  520MOL0     C71626   3.076   6.251   4.133 -0.5552 -1.0127  0.2681
  520MOL0     C71627   3.005   6.129   4.125 -0.1670  0.1055 -0.4807
  520MOL0     C71628   2.873   6.130   4.086  0.1389  0.5797  0.9792
  520MOL0     C71629   2.813   6.238   4.032  0.6568  0.2398 -0.6316
  520MOL0     O71630   2.694   6.222   3.984  1.1099  0.3470  0.0469
  520MOL0     C71631   2.600   6.321   4.003 -0.2826 -0.4428 -0.0194
  520MOL0     C71632   2.463   6.278   3.947 -0.3116  0.3508 -0.4456
  520MOL0     C71633   2.425   6.138   3.988 -0.2180 -0.4651  0.3442
  520MOL0     C71634   2.371   6.143   4.139  0.3230 -0.1037  0.3532
  520MOL0     C71635   2.349   6.008   4.214  0.5111 -0.9682  0.1369
  520MOL0     C71636   2.466   5.966   4.304 -0.4029 -0.1185  0.7239
  520MOL0     C71637   2.470   5.819   4.331 -0.7052 -0.1853 -0.5966
  520MOL0     C71638   2.344   5.756   4.387  0.1440  0.0618 -0.7377
  520MOL0     N71639   2.373   5.625   4.448 -0.8660 -0.1120 -0.9522
  520MOL0     C71640   2.494   5.553   4.464  0.0642  0.0625 -0.5267
  520MOL0     C71641   2.458   5.436   4.527 -1.4101  0.9810  0.2496
  520MOL0     C71642   2.540   5.320   4.582 -1.5599 -0.9009 -0.1935
  520MOL0     C71643   2.646   5.385   4.673  0.7257  0.4450  0.2294
  520MOL0     C71644   2.745   5.283   4.733 -0.1240  0.3930 -0.3533
  520MOL0     C71645   2.888   5.345   4.755  0.1489  0.2138 -0.2181
  520MOL0     O71646   2.880   5.438   4.868  0.4385 -0.6036  0.3713
  520MOL0     C71647   2.966   5.545   4.880 -0.0390  0.0098 -0.7833
  520MOL0     C71648   2.949   5.638   4.982  0.4471  0.2437  0.5364
  520MOL0     C71649   3.026   5.753   4.995 -0.5646  0.7255 -0.1199
  520MOL0     C71650   2.988   5.848   5.104 -0.3904  0.3786  0.0478
  520MOL0     C71651   3.131   5.766   4.896  1.1906  0.2661 -0.5020
  520MOL0     C71652   3.236   5.879   4.904  0.8341 -0.8857  0.5588
  520MOL0     O71653   3.258   5.929   5.030  0.0871 -0.4534 -0.6444
  520MOL0     C71654   3.325   6.056   5.055 -0.5915 -0.6186  0.9673
  520MOL0     C71655   3.450   6.078   4.989 -0.2657 -0.3967 -0.0593
  520MOL0     C71656   3.502   6.204   4.996 -0.3004  0.6119  0.1417
  520MOL0     C71657   3.446   6.309   5.073  0.1171 -0.6064 -1.2674
  520MOL0     O71658   3.496   6.437   5.103  0.5249 -0.0914  0.7074
  520MOL0     C71659   3.616   6.474   5.050  0.1852  1.2864  0.2202
  520MOL0     C71660   3.677   6.582   5.106 -0.4890 -0.1079  0.1848
  520MOL0     C71661   3.827   6.570   5.076 -0.3174  0.5503 -0.3442
  520MOL0     C71662   3.846   6.608   4.920 -0.1388  1.2846 -0.0833
  520MOL0     C71663   3.985   6.572   4.892 -0.2836 -0.0265  0.0346
  520MOL0     C71664   4.031   6.584   4.743 -0.8674  0.4057  0.1404
  520MOL0     C71665   4.032   6.735   4.703  0.4163  0.2349  0.3516
  520MOL0     C71666   4.100   6.750   4.563  0.2835 -0.7737 -0.3344
  520MOL0    Cl71667   4.094   6.910   4.510  0.3064  0.0189  0.8750
  520MOL0     C71668   3.330   6.275   5.147 -0.4390 -0.2442  0.6671
  520MOL0     C71669   3.271   6.153   5.140  1.1292  0.1824 -0.3942
  520MOL0     O71670   3.291   5.922   4.803  0.1556 -0.2444  0.6017
  520MOL0     C71671   3.148   5.674   4.790 -0.4513 -0.0509  0.4140
  520MOL0     C71672   3.068   5.562   4.783  0.3110  0.8854  0.0010
  520MOL0     N71673   2.321   5.429   4.533  0.4492  0.6885  0.2156
  520MOL0     N71674   2.272   5.543   4.488  0.6840 -0.1067 -0.0169
  520MOL0     C71675   2.883   6.362   4.035  0.2892  0.3370 -0.2850
  520MOL0     C71676   3.013   6.368   4.088 -0.3679 -0.8362  0.0914
  520MOL0     C71677   3.402   6.164   4.292  0.1144  0.4126 -0.2728
  520MOL0     C71678   3.456   6.296   4.315  0.4650  0.0688 -0.4433
  520MOL0     C71679   3.575   6.325   4.384 -0.5855  0.5195  0.5005
  520MOL0     C71680   3.649   6.221   4.434  0.6455  0.2113  0.3356
  520MOL0     O71681   3.758   6.271   4.510  0.1041  1.0248  0.5799
  520MOL0     C71682   3.768   6.211   4.639 -0.1469  0.0501 -0.6340
  520MOL0     C71683   3.891   6.113   4.656  0.3547  0.1274 -0.8401
  520MOL0     C71684   4.023   6.171   4.621 -0.0759  0.4977 -0.7175
  520MOL0     C71685   4.108   6.186   4.736 -0.5888 -0.6157 -0.0091
  520MOL0     C71686   4.227   6.276   4.711 -0.7362  0.1693  1.0069
  520MOL0     C71687   4.309   6.371   4.678  0.9186  0.6469 -0.6215
  520MOL0     C71688   3.601   6.091   4.412 -0.3905 -0.2818 -0.4638
  520MOL0     C71689   3.480   6.055   4.347 -0.1112  0.1755  0.3558
  520MOL0     C71690   3.444   5.910   4.338  0.4290 -0.4102 -1.6970
  520MOL0     H71691   3.047   6.034   4.156 -0.3716  0.1581 -0.0275
  520MOL0     H71692   2.819   6.036   4.083 -0.9596  1.1055  2.6012
  520MOL0     H71693   2.618   6.423   3.969 -2.0780  0.2569  1.0018
  520MOL0     H71694   2.595   6.337   4.111 -2.9611  0.1403 -0.1647
  520MOL0     H71695   2.385   6.346   3.982 -0.1533 -0.2648  1.2481
  520MOL0     H71696   2.459   6.283   3.838 -0.7498  3.8207 -0.3882
  520MOL0     H71697   2.342   6.108   3.924  0.2558  1.5559 -1.3236
  520MOL0     H71698   2.507   6.067   3.974  0.2375  0.2133 -0.5711
  520MOL0     H71699   2.435   6.210   4.196  0.0991  2.1490 -1.8666
  520MOL0     H71700   2.272   6.190   4.142  0.7382  0.7641  0.6167
  520MOL0     H71701   2.308   5.931   4.148 -1.5189 -1.4532  1.8728
  520MOL0     H71702   2.266   6.034   4.279  2.5623 -1.0415  2.9990
  520MOL0     H71703   2.555   5.997   4.249 -1.0554  0.0283 -0.2693
  520MOL0     H71704   2.467   6.028   4.394 -1.0948 -1.8301  1.9873
  520MOL0     H71705   2.565   5.809   4.384 -0.4957 -1.1258 -1.1264
  520MOL0     H71706   2.497   5.764   4.240  4.5565  0.6968  0.0826
  520MOL0     H71707   2.338   5.819   4.476  1.7001 -0.7432 -0.0186
  520MOL0     H71708   2.262   5.759   4.314  0.6829  0.5262 -1.3348
  520MOL0     H71709   2.597   5.587   4.462 -0.1584  0.8570  0.6969
  520MOL0     H71710   2.584   5.259   4.501  1.1432  0.7260 -0.0772
  520MOL0     H71711   2.480   5.266   4.655 -1.0874 -1.6363 -0.3281
  520MOL0     H71712   2.706   5.456   4.616  4.5387  0.9020  4.2668
  520MOL0     H71713   2.600   5.441   4.755  2.5529  1.9719  0.2888
  520MOL0     H71714   2.719   5.239   4.830  1.3005 -1.1147 -0.6214
  520MOL0     H71715   2.754   5.194   4.671 -2.4496 -2.5687  3.1257
  520MOL0     H71716   2.955   5.262   4.776 -0.7094 -0.3199  0.5237
  520MOL0     H71717   2.914   5.395   4.662  0.3308  1.4399  0.4652
  520MOL0     H71718   2.869   5.620   5.052 -0.5383  1.3520 -0.2624
  520MOL0     H71719   2.897   5.819   5.158  2.5981 -2.1082  4.4252
  520MOL0     H71720   2.972   5.947   5.059 -1.9276 -0.5279 -1.5232
  520MOL0     H71721   3.072   5.848   5.174  0.5241 -0.0562 -1.0177
  520MOL0     H71722   3.494   5.999   4.927 -0.3408  2.7710 -4.6556
  520MOL0     H71723   3.584   6.238   4.933  0.1768  0.5507  0.7196
  520MOL0     H71724   3.678   6.384   5.046  0.7328  1.5834  1.5257
  520MOL0     H71725   3.605   6.504   4.945  0.7408 -2.3999 -1.0489
  520MOL0     H71726   3.642   6.673   5.057  0.6675  0.5562  0.5532
  520MOL0     H71727   3.657   6.579   5.213 -2.7566  0.9947 -0.1451
  520MOL0     H71728   3.857   6.469   5.106 -0.4945  1.0720  1.7813
  520MOL0     H71729   3.888   6.629   5.145  2.7546 -3.0518  0.3328
  520MOL0     H71730   3.828   6.715   4.908 -1.0654  1.2375  0.7200
  520MOL0     H71731   3.779   6.548   4.857  0.3550 -0.6478  1.1442
  520MOL0     H71732   4.057   6.625   4.955  0.3087 -1.3244  0.4883
  520MOL0     H71733   4.003   6.467   4.916  4.6305  0.4300 -0.6809
  520MOL0     H71734   3.954   6.543   4.677 -2.2319  4.0132 -0.7518
  520MOL0     H71735   4.135   6.550   4.747 -0.6470  1.1946  1.7984
  520MOL0     H71736   4.085   6.791   4.780  1.0049 -0.1855  0.2620
  520MOL0     H71737   3.928   6.768   4.711  0.4456  0.0173  1.9127
  520MOL0     H71738   4.041   6.695   4.489 -1.1325 -0.0631  0.2373
  520MOL0     H71739   4.207   6.728   4.572 -0.2684 -3.9469 -0.2195
  520MOL0     H71740   3.281   6.352   5.204  0.0041  1.8470 -1.5994
  520MOL0     H71741   3.176   6.139   5.191  1.0870 -2.9550 -1.1142
  520MOL0     H71742   3.226   5.675   4.714  0.9695 -0.4995  1.8273
  520MOL0     H71743   3.081   5.488   4.705  0.9146  1.9732 -0.9486
  520MOL0     H71744   2.839   6.455   4.000  0.9833  0.9357  0.3792
  520MOL0     H71745   3.056   6.467   4.101 -1.9269  0.0846 -1.2642
  520MOL0     H71746   3.406   6.382   4.272  1.3076 -0.1891 -2.0309
  520MOL0     H71747   3.609   6.428   4.396  1.2895  0.2533 -1.7428
  520MOL0     H71748   3.768   6.288   4.716 -1.4186 -0.3141 -0.2373
  520MOL0     H71749   3.676   6.155   4.660 -1.2375  2.9256  3.5487
  520MOL0     H71750   3.877   6.018   4.603 -3.4342 -0.8732  1.5697
  520MOL0     H71751   3.887   6.090   4.763 -6.4513 -0.0176 -0.7355
  520MOL0     H71752   4.088   6.118   4.551  1.1792  1.5273 -0.3679
  520MOL0     H71753   4.007   6.273   4.585  5.3021  2.7514  2.1613
  520MOL0     H71754   4.141   6.089   4.772 -3.3732 -1.4438  0.5619
  520MOL0     H71755   4.062   6.231   4.824  2.5232  1.7031  0.6224
  520MOL0     H71756   4.387   6.439   4.651  3.2752 -2.1222 -1.3075
  520MOL0     H71757   3.653   6.013   4.467  0.1819  0.0369 -0.5447
  520MOL0     H71758   3.337   5.896   4.359  1.0922 -2.4392  0.8214
  520MOL0     H71759   3.481   5.863   4.247  2.4205 -1.4990 -0.3880
  520MOL0     H71760   3.498   5.850   4.412  1.8555 -1.3692 -3.4311
  521MOL0     O71761   1.566  11.059  11.390  0.4092 -0.0799  0.3850
  521MOL0     C71762   1.664  10.990  11.358  1.0354 -0.3827 -0.6876
  521MOL0     O71763   1.658  10.866  11.302 -0.1891  0.0344 -0.0055
  521MOL0     C71764   1.559  10.774  11.332  0.5665  0.5775  0.1879
  521MOL0     C71765   1.562  10.653  11.262 -0.1224 -0.6942  0.9495
  521MOL0     C71766   1.467  10.558  11.275 -0.3902  0.2402  0.2673
  521MOL0     C71767   1.361  10.573  11.358 -0.2787  0.2825  0.3808
  521MOL0     O71768   1.270  10.472  11.362  0.3654  0.1749 -0.2321
  521MOL0     C71769   1.128  10.505  11.355 -0.1056  0.7660 -0.7939
  521MOL0     C71770   1.056  10.377  11.406 -0.6469  1.0321  0.2139
  521MOL0     C71771   1.113  10.342  11.548 -0.0534  0.1334 -0.5816
  521MOL0     C71772   1.052  10.205  11.608 -0.3085 -0.2707  0.1232
  521MOL0     C71773   1.104  10.184  11.749  0.5848  0.6603 -0.5890
  521MOL0     C71774   1.182  10.052  11.789  0.1599 -1.0752 -0.6299
  521MOL0     C71775   1.103   9.922  11.766 -0.8781  0.0405  0.1693
  521MOL0     C71776   1.193   9.796  11.742  0.4424  0.6806 -0.3476
  521MOL0     N71777   1.274   9.751  11.858  0.2764  0.3217 -0.9617
  521MOL0     C71778   1.394   9.808  11.894  0.3769 -0.1651 -0.1287
  521MOL0     C71779   1.428   9.745  12.011  1.1059 -0.1335 -0.1120
  521MOL0     C71780   1.540   9.776  12.098 -0.8282  0.6797  0.8561
  521MOL0     C71781   1.668   9.766  12.015  0.0351  0.2467 -0.5252
  521MOL0     C71782   1.683   9.616  11.962  1.7100  0.2773  0.1181
  521MOL0     C71783   1.787   9.608  11.857 -0.3851  0.2873  1.0956
  521MOL0     O71784   1.764   9.700  11.747 -0.2755  0.6122 -0.1160
  521MOL0     C71785   1.875   9.732  11.672  0.4882  0.6742  1.1751
  521MOL0     C71786   2.004   9.681  11.682 -0.1183  0.5265 -0.9938
  521MOL0     C71787   2.107   9.721  11.585 -0.0344 -0.7168 -0.0254
  521MOL0     C71788   2.239   9.652  11.604 -0.8829 -0.3217  0.9865
  521MOL0     C71789   2.082   9.834  11.492 -0.3697  0.0653 -0.3702
  521MOL0     C71790   2.173   9.871  11.392 -0.0739  0.6318 -0.3966
  521MOL0     O71791   2.229   9.769  11.322 -0.5772  0.2601 -0.0123
  521MOL0     C71792   2.264   9.785  11.189 -1.5497 -0.5265  0.1013
  521MOL0     C71793   2.397   9.816  11.155 -0.3716 -0.5499  0.6666
  521MOL0     C71794   2.438   9.830  11.021 -0.0578  0.0806 -0.5405
  521MOL0     C71795   2.357   9.799  10.916 -0.9695 -0.4590  0.2697
  521MOL0     O71796   2.396   9.816  10.782 -0.6645  0.2587  0.0151
  521MOL0     C71797   2.500   9.902  10.737  0.3506 -0.7258  0.3772
  521MOL0     C71798   2.463  10.051  10.748  0.0790 -0.8785 -0.4387
  521MOL0     C71799   2.567  10.142  10.684 -0.2838 -0.8688  0.6693
  521MOL0     C71800   2.634  10.245  10.774  0.7334  0.0627  0.4312
  521MOL0     C71801   2.738  10.316  10.691  0.7724 -0.0472 -0.3970
  521MOL0     C71802   2.784  10.448  10.758 -0.0714 -0.2865  0.3914
  521MOL0     C71803   2.672  10.547  10.768  0.6171 -0.4645 -0.7210
  521MOL0     C71804   2.693  10.696  10.775 -0.1677 -0.0822  0.2532
  521MOL0    Cl71805   2.565  10.812  10.833 -0.4443 -0.1160 -0.1686
  521MOL0     C71806   2.227   9.747  10.952 -0.0430 -0.4779  0.2355
  521MOL0     C71807   2.188   9.739  11.090  0.6936  0.7634  0.4575
  521MOL0     O71808   2.198   9.989  11.380  0.6330  0.4657 -0.4819
  521MOL0     C71809   1.946   9.869  11.482 -0.4653  0.0336  0.4923
  521MOL0     C71810   1.853   9.831  11.578 -0.2265  0.3611 -0.3173
  521MOL0     N71811   1.331   9.648  12.034  0.4189  0.1074 -0.4795
  521MOL0     N71812   1.235   9.655  11.950 -0.0805  0.0417 -0.2591
  521MOL0     C71813   1.345  10.698  11.419 -0.5380 -0.3996 -0.0967
  521MOL0     C71814   1.452  10.790  11.418  0.8703  0.6003  0.6637
  521MOL0     C71815   1.794  11.060  11.345 -0.2194  0.8518 -0.6525
  521MOL0     C71816   1.904  10.973  11.351 -1.3289 -0.0654 -0.7042
  521MOL0     C71817   2.031  11.020  11.340 -0.1627  0.1728  0.1031
  521MOL0     C71818   2.064  11.156  11.334 -0.2981  0.1330  0.2114
  521MOL0     O71819   2.206  11.189  11.327  0.4949 -0.7533  0.5385
  521MOL0     C71820   2.252  11.314  11.271  1.0041 -0.1944 -0.3910
  521MOL0     C71821   2.225  11.332  11.124 -0.0389  0.2760 -0.7497
  521MOL0     C71822   2.238  11.476  11.064 -1.2317 -0.0510 -0.2764
  521MOL0     C71823   2.369  11.548  11.103  0.5501 -1.1099  0.2756
  521MOL0     C71824   2.353  11.639  11.219  0.3896 -0.4001 -0.8412
  521MOL0     C71825   2.314  11.703  11.319 -0.1626 -0.4886 -0.7221
  521MOL0     C71826   1.962  11.256  11.334 -0.8356  0.0473 -0.3663
  521MOL0     C71827   1.825  11.204  11.341  0.4939  1.0366 -0.5012
  521MOL0     C71828   1.707  11.307  11.356  0.2710  1.0678  0.5165
  521MOL0     H71829   1.645  10.648  11.193 -0.5035  1.2403  0.2921
  521MOL0     H71830   1.494  10.471  11.215  1.3284  1.5810 -0.9841
  521MOL0     H71831   1.098  10.541  11.256  0.1302  2.8583 -0.1676
  521MOL0     H71832   1.108  10.584  11.429  1.5732 -0.9165  1.6299
  521MOL0     H71833   0.948  10.394  11.402 -1.0777 -1.3234 -0.0177
  521MOL0     H71834   1.072  10.304  11.326 -1.9700 -0.1131  0.9583
  521MOL0     H71835   1.221  10.332  11.541 -0.1466  0.1671 -3.1654
  521MOL0     H71836   1.091  10.429  11.611  0.8327  0.0153 -0.0960
  521MOL0     H71837   0.943  10.208  11.608 -0.5404 -3.9533 -0.1859
  521MOL0     H71838   1.077  10.120  11.544 -2.2352 -2.3840  2.0001
  521MOL0     H71839   1.026  10.180  11.825  1.5131 -1.3416  0.3454
  521MOL0     H71840   1.172  10.269  11.758 -0.7777  1.7279 -0.1454
  521MOL0     H71841   1.276  10.054  11.734  0.4537  5.0211 -0.6222
  521MOL0     H71842   1.204  10.064  11.895  1.5799 -1.2043 -0.8952
  521MOL0     H71843   1.058   9.928  11.667  0.0462 -1.0586 -0.3277
  521MOL0     H71844   1.017   9.910  11.833 -2.9599 -1.2199 -2.5406
  521MOL0     H71845   1.134   9.713  11.701 -2.1513  1.8827  0.7322
  521MOL0     H71846   1.252   9.811  11.652  2.9360 -1.8778  0.7180
  521MOL0     H71847   1.430   9.900  11.850 -0.7761  1.6449  2.4204
  521MOL0     H71848   1.551   9.708  12.182  2.3224 -1.3336 -0.9809
  521MOL0     H71849   1.541   9.881  12.129  1.9437  0.5194  1.5775
  521MOL0     H71850   1.656   9.832  11.929  1.3046 -0.7228 -1.4706
  521MOL0     H71851   1.753   9.804  12.072  0.5628 -0.9286 -0.5209
  521MOL0     H71852   1.690   9.541  12.041 -1.5401  0.4230  0.6715
  521MOL0     H71853   1.592   9.598  11.904  0.5014  0.5769  1.8501
  521MOL0     H71854   1.879   9.634  11.910 -0.4816  1.0182  0.9241
  521MOL0     H71855   1.792   9.504  11.824  0.7098  0.5724  0.3348
  521MOL0     H71856   2.037   9.620  11.765 -2.4834  0.6943  0.1755
  521MOL0     H71857   2.234   9.567  11.673  2.4164 -0.9129  0.6190
  521MOL0     H71858   2.315   9.716  11.650  0.5536 -0.9401 -0.4738
  521MOL0     H71859   2.280   9.627  11.507 -1.1991 -0.5788  0.9180
  521MOL0     H71860   2.472   9.826  11.233 -1.2887  1.3624  1.3716
  521MOL0     H71861   2.534   9.871  10.989 -1.9097  1.4200 -5.2693
  521MOL0     H71862   2.598   9.881  10.782 -1.1390 -2.6014  3.0519
  521MOL0     H71863   2.511   9.890  10.629 -0.8364 -1.3167  0.3118
  521MOL0     H71864   2.366  10.070  10.702  0.9919 -0.9620 -2.5335
  521MOL0     H71865   2.459  10.072  10.855 -1.1053  0.5052 -0.7306
  521MOL0     H71866   2.522  10.198  10.601  1.4383  2.7986  2.0109
  521MOL0     H71867   2.642  10.082  10.631 -1.1543  0.2028 -1.9228
  521MOL0     H71868   2.670  10.193  10.863  1.6224  1.1077  0.7011
  521MOL0     H71869   2.550  10.312  10.799  1.5908  0.1185  3.7075
  521MOL0     H71870   2.831  10.261  10.676  1.1447  0.7647 -1.1544
  521MOL0     H71871   2.705  10.345  10.592  2.8286  1.3492 -0.7429
  521MOL0     H71872   2.867  10.491  10.702  0.7918 -2.1734  0.1342
  521MOL0     H71873   2.818  10.421  10.859  0.8565 -1.1940 -0.1457
  521MOL0     H71874   2.626  10.519  10.863  0.5838 -3.6964 -1.5733
  521MOL0     H71875   2.602  10.515  10.690 -1.8215 -1.4396  1.7078
  521MOL0     H71876   2.713  10.724  10.671 -0.4295  0.4717  0.3454
  521MOL0     H71877   2.788  10.723  10.822 -0.5817  0.0780  1.0206
  521MOL0     H71878   2.165   9.701  10.876 -3.9783  0.0447  2.8087
  521MOL0     H71879   2.109   9.673  11.124 -0.1288  1.2732 -0.4012
  521MOL0     H71880   1.916   9.920  11.391  1.8467  1.0914  0.2395
  521MOL0     H71881   1.751   9.869  11.577  1.2091  4.7239 -0.0060
  521MOL0     H71882   1.260  10.714  11.485  1.2875  1.8530  1.9178
  521MOL0     H71883   1.434  10.887  11.464 -0.5504 -0.7455  3.1526
  521MOL0     H71884   1.898  10.865  11.364 -0.2076 -0.5076 -3.1665
  521MOL0     H71885   2.120  10.959  11.345  0.1797  0.3979 -2.1596
  521MOL0     H71886   2.181  11.392  11.302 -1.0430 -0.6350 -3.4787
  521MOL0     H71887   2.353  11.340  11.304  0.1997 -1.2973  3.3907
  521MOL0     H71888   2.123  11.306  11.094 -0.4570  2.5004 -1.4277
  521MOL0     H71889   2.291  11.265  11.069 -0.5732 -1.1936  0.3185
  521MOL0     H71890   2.232  11.466  10.955 -1.6903  3.1061 -0.6529
  521MOL0     H71891   2.154  11.540  11.093  1.7290  3.8643  0.6398
  521MOL0     H71892   2.398  11.620  11.026  0.0336  2.3328  3.0412
  521MOL0     H71893   2.444  11.474  11.131 -0.8625 -2.3547  0.9578
  521MOL0     H71894   2.278  11.741  11.412  2.7122 -4.3208  2.2448
  521MOL0     H71895   1.981  11.362  11.349 -1.5393 -0.3158  4.5944
  521MOL0     H71896   1.642  11.294  11.269  2.3230 -3.1940 -0.6732
  521MOL0     H71897   1.662  11.284  11.453  0.1758  0.3259  0.2978
  521MOL0     H71898   1.736  11.413  11.361 -1.9166  1.6529  2.1354
  522MOL0     O71899   9.281   6.042  11.300  0.1506  0.3410  0.8854
  522MOL0     C71900   9.345   6.083  11.391  0.4000  0.1678 -0.4438
  522MOL0     O71901   9.471   6.122  11.383  0.3073  1.0434 -0.0051
  522MOL0     C71902   9.536   6.165  11.262  0.1085  0.3148  0.3369
  522MOL0     C71903   9.486   6.251  11.159 -0.2740  0.4917 -0.9473
  522MOL0     C71904   9.561   6.286  11.055 -0.4286 -0.8411  0.5253
  522MOL0     C71905   9.688   6.236  11.034  0.0429  0.1783  0.5494
  522MOL0     O71906   9.761   6.287  10.930  0.1626 -0.5806  0.2416
  522MOL0     C71907   9.898   6.294  10.937  1.2575  0.2434 -0.1958
  522MOL0     C71908   9.939   6.426  10.860 -0.2991  0.9964  0.0880
  522MOL0     C71909   9.883   6.435  10.718 -0.3035  0.0867 -0.4540
  522MOL0     C71910   9.966   6.530  10.630 -0.5313  0.0678  0.0267
  522MOL0     C71911   9.920   6.506  10.484  0.3552  1.0286  0.1079
  522MOL0     C71912   9.967   6.607  10.384 -0.4410 -0.7699 -0.0664
  522MOL0     C71913   9.853   6.710  10.370  1.0901  0.4426 -0.6239
  522MOL0     C71914   9.888   6.843  10.300  0.0731  0.8666 -0.6190
  522MOL0     N71915   9.778   6.936  10.310  0.1423  0.0021 -0.0790
  522MOL0     C71916   9.783   7.054  10.248  0.3246  0.7868 -0.0898
  522MOL0     C71917   9.670   7.111  10.299 -0.0171 -0.7755  0.9363
  522MOL0     C71918   9.625   7.254  10.281 -0.2939 -0.1362 -0.1344
  522MOL0     C71919   9.609   7.317  10.423  0.6508  0.2052  0.5389
  522MOL0     C71920   9.676   7.464  10.438 -0.1886  0.6146  0.3840
  522MOL0     C71921   9.644   7.525  10.570 -0.2745  0.2399 -0.0490
  522MOL0     O71922   9.713   7.653  10.574  1.0725 -0.0554  0.3093
  522MOL0     C71923   9.750   7.690  10.705 -0.2369  0.1119  1.0921
  522MOL0     C71924   9.659   7.672  10.806  0.0329 -0.0651  0.1767
  522MOL0     C71925   9.666   7.743  10.932  0.4970  0.4804  0.2246
  522MOL0     C71926   9.547   7.724  11.025 -0.4708  0.0562  0.4655
  522MOL0     C71927   9.780   7.811  10.976 -0.0801 -0.4292 -1.0467
  522MOL0     C71928   9.816   7.854  11.116 -0.4641 -1.0357 -0.1197
  522MOL0     O71929   9.715   7.885  11.201  0.3643 -0.1807 -0.1946
  522MOL0     C71930   9.719   7.982  11.302 -0.3545  0.0561  0.5409
  522MOL0     C71931   9.637   8.079  11.283  0.2734 -0.7136  0.1477
  522MOL0     C71932   9.634   8.191  11.364  0.3668  0.6621 -0.3261
  522MOL0     C71933   9.728   8.203  11.463 -0.0999 -0.2467 -1.5431
  522MOL0     O71934   9.724   8.320  11.538  0.0674  0.7694  0.1719
  522MOL0     C71935   9.814   8.357  11.644 -0.4673  0.9371 -0.0977
  522MOL0     C71936   9.777   8.494  11.704  0.5151  0.3524  0.3374
  522MOL0     C71937   9.791   8.605  11.602  0.3461 -0.1730  0.9864
  522MOL0     C71938   9.724   8.741  11.638 -0.3448  0.3987 -0.0002
  522MOL0     C71939   9.768   8.804  11.775  0.3838 -0.3012  0.1078
  522MOL0     C71940   9.713   8.941  11.779 -1.1258  0.0141 -0.2095
  522MOL0     C71941   9.566   8.947  11.796  1.3008 -0.6142 -0.4736
  522MOL0     C71942   9.512   9.083  11.835  0.7697 -0.7469  0.0946
  522MOL0    Cl71943   9.561   9.219  11.718 -0.0517  0.3362 -0.1670
  522MOL0     C71944   9.809   8.095  11.501 -0.5192  0.2038  0.5424
  522MOL0     C71945   9.810   7.988  11.413  0.2519  0.0933 -0.4039
  522MOL0     O71946   9.929   7.862  11.148 -0.2359 -0.5191  0.0367
  522MOL0     C71947   9.889   7.797  10.877 -0.5043  0.2780 -0.6794
  522MOL0     C71948   9.869   7.749  10.743  0.1341 -0.3877 -0.3090
  522MOL0     N71949   9.589   7.027  10.368  0.6235 -0.2077  0.3916
  522MOL0     N71950   9.665   6.921  10.380  0.1997  0.8877 -0.4331
  522MOL0     C71951   9.737   6.153  11.140  0.3515  0.4857 -0.4579
  522MOL0     C71952   9.668   6.124  11.257 -0.3661  0.6426 -0.0518
  522MOL0     C71953   9.282   6.085  11.522 -0.3009 -0.0557 -1.2359
  522MOL0     C71954   9.373   6.105  11.637  0.7347 -0.1194 -0.0446
  522MOL0     C71955   9.332   6.082  11.771  0.6076  0.0122 -0.6253
  522MOL0     C71956   9.199   6.060  11.806 -0.4380 -0.5595  0.1621
  522MOL0     O71957   9.166   6.039  11.937 -0.3389 -0.7391  0.0706
  522MOL0     C71958   9.025   6.020  11.979  0.2738 -0.3541  0.6733
  522MOL0     C71959   8.934   6.140  11.990 -0.4019 -0.1663 -0.4608
  522MOL0     C71960   8.787   6.101  12.019  0.0731  0.9085 -1.0067
  522MOL0     C71961   8.779   6.021  12.151 -0.0176 -0.5594 -0.5788
  522MOL0     C71962   8.837   6.085  12.268  0.2818 -0.4334 -0.2022
  522MOL0     C71963   8.900   6.151  12.354  0.5691  0.0409  0.2887
  522MOL0     C71964   9.113   6.051  11.697  0.9047  1.2294  0.5842
  522MOL0     C71965   9.146   6.067  11.557 -0.4070  0.2165 -0.2091
  522MOL0     C71966   9.038   6.059  11.446 -0.4800 -0.0015 -0.5017
  522MOL0     H71967   9.383   6.284  11.150  0.1253  1.9005 -0.6217
  522MOL0     H71968   9.506   6.341  10.980  0.0202 -2.1195 -0.7864
  522MOL0     H71969   9.938   6.204  10.891 -0.6496 -0.2168 -1.0403
  522MOL0     H71970   9.928   6.288  11.042  0.4950  1.0023  0.0765
  522MOL0     H71971   9.910   6.511  10.923  0.4457 -0.5670  2.7098
  522MOL0     H71972  10.048   6.418  10.856 -0.3738  0.1790 -0.6381
  522MOL0     H71973   9.893   6.338  10.669 -0.1889  0.6161 -1.5034
  522MOL0     H71974   9.781   6.473  10.728 -0.3207  0.1315 -0.7890
  522MOL0     H71975   9.958   6.637  10.652 -0.9517  0.8339 -3.3284
  522MOL0     H71976  10.069   6.503  10.652  0.6212  3.0107 -1.2858
  522MOL0     H71977   9.812   6.486  10.481  0.9114 -3.2075 -3.9811
  522MOL0     H71978   9.959   6.412  10.444 -1.5028  0.8219 -1.3662
  522MOL0     H71979  10.062   6.654  10.411  0.0876 -1.2228 -1.0711
  522MOL0     H71980   9.986   6.562  10.286  3.1766 -0.9122  0.5640
  522MOL0     H71981   9.823   6.739  10.471  1.8480 -1.4968  0.2062
  522MOL0     H71982   9.768   6.650  10.337  0.2792  0.7388  0.8542
  522MOL0     H71983   9.985   6.880  10.333  0.6107  0.6880 -1.9503
  522MOL0     H71984   9.910   6.821  10.195  2.3860  0.7860 -0.1679
  522MOL0     H71985   9.867   7.098  10.196 -0.3981  1.7780 -0.4465
  522MOL0     H71986   9.535   7.275  10.222 -2.3734 -1.5003  2.3438
  522MOL0     H71987   9.709   7.306  10.234 -0.6543  1.4646  0.9008
  522MOL0     H71988   9.503   7.341  10.434  1.2222  3.6175 -0.1822
  522MOL0     H71989   9.654   7.247  10.493  3.7291  0.0199 -1.4090
  522MOL0     H71990   9.785   7.455  10.428 -0.5084 -1.4408 -2.4117
  522MOL0     H71991   9.635   7.532  10.364  1.5287  1.7472  0.4042
  522MOL0     H71992   9.536   7.537  10.579 -0.1539  1.3939  0.1113
  522MOL0     H71993   9.679   7.453  10.644  0.6926  0.9778  0.2350
  522MOL0     H71994   9.568   7.614  10.792 -2.1759  3.1677  0.0142
  522MOL0     H71995   9.508   7.820  11.060 -2.4203 -1.4528  2.8157
  522MOL0     H71996   9.559   7.674  11.122 -2.5127  1.5539  1.5687
  522MOL0     H71997   9.467   7.676  10.967 -0.9965  1.4803 -0.0243
  522MOL0     H71998   9.578   8.060  11.194  1.5513 -2.8232 -0.3133
  522MOL0     H71999   9.560   8.269  11.344  1.7975  1.9226 -0.8825
  522MOL0     H72000   9.788   8.292  11.728  3.6307 -0.8751  0.0245
  522MOL0     H72001   9.921   8.349  11.626 -0.0565  2.1007  1.6307
  522MOL0     H72002   9.677   8.489  11.748  1.8493 -1.3795  3.5272
  522MOL0     H72003   9.837   8.515  11.793  0.1340  2.9941  0.0504
  522MOL0     H72004   9.759   8.571  11.503 -0.3613 -1.0669  1.5080
  522MOL0     H72005   9.897   8.633  11.595 -0.0550  1.0166 -2.6000
  522MOL0     H72006   9.619   8.712  11.636  0.8259 -4.8269 -2.3737
  522MOL0     H72007   9.760   8.816  11.566  2.5832  1.0886  2.0020
  522MOL0     H72008   9.727   8.744  11.857 -1.5137  0.5818 -0.1451
  522MOL0     H72009   9.876   8.819  11.789  0.0524  0.5451  2.0216
  522MOL0     H72010   9.737   8.995  11.687  2.9187  0.4976  0.9413
  522MOL0     H72011   9.780   8.978  11.857 -0.6259 -0.9538 -0.1710
  522MOL0     H72012   9.532   8.878  11.874  1.1046 -0.6242 -0.5656
  522MOL0     H72013   9.520   8.918  11.701 -0.5085 -0.7765  0.4031
  522MOL0     H72014   9.540   9.110  11.937 -1.8380 -0.6417  0.8677
  522MOL0     H72015   9.403   9.090  11.835  0.6736  0.5976  4.3231
  522MOL0     H72016   9.877   8.092  11.586 -1.4403  0.3029  1.2956
  522MOL0     H72017   9.863   7.902  11.452  0.8576  0.7910  0.3418
  522MOL0     H72018   9.990   7.829  10.897 -0.1121  2.0312 -4.5225
  522MOL0     H72019   9.957   7.761  10.682  0.8329 -0.2666  0.6923
  522MOL0     H72020   9.831   6.105  11.113 -0.0168 -0.4038 -0.1653
  522MOL0     H72021   9.705   6.059  11.336 -3.5968 -3.4636 -1.5234
  522MOL0     H72022   9.479   6.109  11.612  0.8290 -2.0785 -0.0759
  522MOL0     H72023   9.400   6.076  11.856  1.8977 -1.0612 -1.6785
  522MOL0     H72024   8.974   5.947  11.916 -0.1535  1.2475 -0.9160
  522MOL0     H72025   9.025   5.993  12.085  1.6959  2.7229  1.5780
  522MOL0     H72026   8.937   6.192  11.894 -3.1380  1.1988  0.0778
  522MOL0     H72027   8.962   6.203  12.075  1.4715 -3.3695  1.5147
  522MOL0     H72028   8.730   6.194  12.030  0.3251  1.0110 -0.5658
  522MOL0     H72029   8.728   6.038  11.952  0.0439 -1.1487  0.8888
  522MOL0     H72030   8.837   5.928  12.145  0.1610 -0.6746  1.6956
  522MOL0     H72031   8.675   6.006  12.184  0.1032  1.1710  0.7389
  522MOL0     H72032   8.946   6.214  12.427 -1.5365 -0.9120  2.5619
  522MOL0     H72033   9.007   6.032  11.711  1.4246 -2.3471  0.6378
  522MOL0     H72034   9.037   5.960  11.398 -0.8304  0.3571 -1.2643
  522MOL0     H72035   8.944   6.099  11.487 -0.2232  1.1875 -1.0063
  522MOL0     H72036   9.061   6.138  11.373  1.2603  2.0215  2.0783
  523MOL0     O72037   7.370   5.484   7.184  1.0158 -0.0978 -0.1864
  523MOL0     C72038   7.307   5.392   7.131  0.5578  0.2847 -0.1471
  523MOL0     O72039   7.196   5.337   7.176  0.5192 -0.0071  0.1476
  523MOL0     C72040   7.128   5.378   7.298 -0.2211 -0.6841  0.5209
  523MOL0     C72041   7.017   5.302   7.338 -0.0999 -0.4845 -0.5225
  523MOL0     C72042   6.936   5.332   7.450  0.2531 -0.6282 -0.5118
  523MOL0     C72043   6.970   5.444   7.530 -0.1500 -0.2596 -0.9865
  523MOL0     O72044   6.879   5.493   7.626 -0.4011  0.9529 -0.0831
  523MOL0     C72045   6.917   5.547   7.755  0.0012 -0.7933 -1.2075
  523MOL0     C72046   6.805   5.624   7.835  0.4297 -0.0504 -0.3702
  523MOL0     C72047   6.712   5.522   7.897  0.5696 -0.6855  0.2836
  523MOL0     C72048   6.636   5.421   7.809  0.4776  0.2537  0.4209
  523MOL0     C72049   6.490   5.371   7.857  0.2050  0.0651  0.8930
  523MOL0     C72050   6.490   5.286   7.988  0.0879  1.3793 -0.1788
  523MOL0     C72051   6.355   5.240   8.035  0.1723 -0.8698  0.0078
  523MOL0     C72052   6.347   5.144   8.157 -0.8812 -0.6398 -0.6064
  523MOL0     N72053   6.377   5.014   8.105  0.5098 -0.1079  0.3128
  523MOL0     C72054   6.493   4.945   8.120  0.1329 -0.2517 -1.3626
  523MOL0     C72055   6.457   4.817   8.082 -0.6604 -0.5955  0.0154
  523MOL0     C72056   6.563   4.707   8.056  0.9069  0.1919 -0.9274
  523MOL0     C72057   6.649   4.665   8.171 -0.2336  0.1161  0.3239
  523MOL0     C72058   6.565   4.585   8.272 -0.3790  1.1289  0.4949
  523MOL0     C72059   6.646   4.575   8.399 -0.6634  0.0099 -0.4608
  523MOL0     O72060   6.767   4.492   8.388 -0.0765 -1.1658  0.2953
  523MOL0     C72061   6.864   4.520   8.479  0.8213 -0.8664  0.8061
  523MOL0     C72062   6.982   4.460   8.449 -0.7927  0.1150  0.1271
  523MOL0     C72063   7.100   4.473   8.528 -1.4058  0.1771 -0.0570
  523MOL0     C72064   7.225   4.399   8.476  0.1563  0.0898 -1.0098
  523MOL0     C72065   7.099   4.551   8.642 -0.4380 -0.7869  0.0547
  523MOL0     C72066   7.218   4.596   8.733  0.0409 -1.2284 -0.1600
  523MOL0     O72067   7.343   4.575   8.683 -0.4921 -0.0675  0.1998
  523MOL0     C72068   7.454   4.576   8.764  1.4085  0.6881 -0.0077
  523MOL0     C72069   7.545   4.685   8.756 -0.1543  0.6502 -0.7050
  523MOL0     C72070   7.650   4.693   8.854 -0.7028  0.2583  0.4784
  523MOL0     C72071   7.668   4.581   8.942  0.6927  0.5761 -0.3016
  523MOL0     O72072   7.776   4.581   9.025  0.1753 -0.5240 -0.2254
  523MOL0     C72073   7.840   4.462   9.062 -0.0102  0.6051 -0.0901
  523MOL0     C72074   7.976   4.506   9.090 -0.1699 -0.3442  0.2697
  523MOL0     C72075   8.015   4.524   9.233 -0.1351 -0.0473 -0.1956
  523MOL0     C72076   8.143   4.606   9.243  0.0959 -1.1424  0.0419
  523MOL0     C72077   8.202   4.606   9.378  0.1853  0.3644 -0.7685
  523MOL0     C72078   8.141   4.701   9.471  0.7442 -0.6696  0.4616
  523MOL0     C72079   8.237   4.731   9.595 -0.7046 -0.0163  0.8026
  523MOL0     C72080   8.197   4.863   9.658 -1.1767 -0.1438  0.8113
  523MOL0    Cl72081   8.022   4.887   9.684 -0.3596  0.3055  0.4076
  523MOL0     C72082   7.569   4.476   8.949  0.0730  0.0650  0.3608
  523MOL0     C72083   7.467   4.475   8.858 -0.3903 -0.6756  0.6996
  523MOL0     O72084   7.196   4.646   8.843 -0.1652 -0.3965  0.4214
  523MOL0     C72085   6.980   4.625   8.668 -0.0192  0.3963 -0.5882
  523MOL0     C72086   6.869   4.608   8.590 -0.4045 -0.9867 -0.2133
  523MOL0     N72087   6.327   4.803   8.048  0.9087  0.2835  0.3442
  523MOL0     N72088   6.282   4.923   8.059  0.2213 -0.9684 -0.5743
  523MOL0     C72089   7.087   5.525   7.493  0.8084  0.1588  0.0269
  523MOL0     C72090   7.155   5.490   7.380 -0.3720 -0.0815  0.2182
  523MOL0     C72091   7.351   5.346   6.992  0.3168  0.0650  0.3032
  523MOL0     C72092   7.298   5.221   6.950  0.5522  0.2793 -0.3816
  523MOL0     C72093   7.353   5.161   6.834  0.0052 -1.2071 -0.8118
  523MOL0     C72094   7.452   5.221   6.756 -0.7583  0.3175  1.1286
  523MOL0     O72095   7.511   5.155   6.652 -0.5730 -0.1416 -0.3483
  523MOL0     C72096   7.429   5.067   6.576  0.2404 -0.7579  0.5860
  523MOL0     C72097   7.488   5.042   6.431 -0.7781 -0.1343  0.6314
  523MOL0     C72098   7.467   5.161   6.343  1.2862  0.0409  0.6266
  523MOL0     C72099   7.548   5.150   6.214 -0.2913 -0.3023  0.0884
  523MOL0     C72100   7.693   5.155   6.232  0.2993 -1.3392 -0.3968
  523MOL0     C72101   7.810   5.168   6.260 -0.9304  0.7858 -0.4836
  523MOL0     C72102   7.497   5.344   6.795 -1.1216 -0.3413  0.0033
  523MOL0     C72103   7.445   5.406   6.907 -0.3329 -1.3912 -0.1847
  523MOL0     C72104   7.506   5.539   6.934  0.4131  0.2207 -0.2761
  523MOL0     H72105   6.989   5.210   7.289  0.6790 -1.5205  0.9185
  523MOL0     H72106   6.849   5.270   7.469 -0.7013  0.7293 -0.2367
  523MOL0     H72107   7.005   5.612   7.749  0.2602 -1.1162 -0.9770
  523MOL0     H72108   6.946   5.467   7.823 -2.6699  0.9218  2.2925
  523MOL0     H72109   6.852   5.682   7.915  1.2985  4.2238 -3.6531
  523MOL0     H72110   6.738   5.689   7.779  0.5756  2.4753  2.1603
  523MOL0     H72111   6.773   5.469   7.970  1.2081 -1.3092 -0.6825
  523MOL0     H72112   6.634   5.575   7.953 -2.3163 -1.3372 -2.8119
  523MOL0     H72113   6.619   5.472   7.714 -2.7546  0.8348  1.2205
  523MOL0     H72114   6.693   5.328   7.798  0.5402  0.1699  1.4021
  523MOL0     H72115   6.467   5.288   7.790  1.9051  0.8779 -0.8148
  523MOL0     H72116   6.417   5.452   7.863 -1.4309 -1.0741 -1.7945
  523MOL0     H72117   6.551   5.197   7.971 -0.1255  1.0680  0.6535
  523MOL0     H72118   6.534   5.342   8.071  0.1526 -0.8856  1.3918
  523MOL0     H72119   6.301   5.185   7.958  0.2578 -2.3640  0.9883
  523MOL0     H72120   6.297   5.332   8.051  1.3581 -0.6184  3.9483
  523MOL0     H72121   6.411   5.185   8.235 -0.1357 -1.2628 -0.8738
  523MOL0     H72122   6.246   5.144   8.199 -0.7355  0.5362 -0.2196
  523MOL0     H72123   6.589   4.981   8.156 -1.0982  0.4778  1.4784
  523MOL0     H72124   6.624   4.749   7.975  2.1287  0.0552 -0.1030
  523MOL0     H72125   6.515   4.616   8.021 -2.4151  1.2499  0.5360
  523MOL0     H72126   6.739   4.606   8.150  0.9096  1.3767  1.4984
  523MOL0     H72127   6.688   4.759   8.210  2.6259 -0.8985  0.1311
  523MOL0     H72128   6.472   4.635   8.300 -1.6639  0.6209 -2.4603
  523MOL0     H72129   6.529   4.491   8.228 -0.5367  1.7640 -0.7789
  523MOL0     H72130   6.671   4.680   8.418 -0.2091  0.3190 -2.5075
  523MOL0     H72131   6.597   4.528   8.485  2.9483 -1.6477  0.8898
  523MOL0     H72132   6.992   4.408   8.354 -2.8256  3.9523 -2.4532
  523MOL0     H72133   7.276   4.468   8.407 -1.4131  0.2886 -2.0369
  523MOL0     H72134   7.201   4.308   8.420  3.2753 -1.5731  0.1293
  523MOL0     H72135   7.291   4.374   8.559  0.1737 -1.3283 -1.4371
  523MOL0     H72136   7.550   4.762   8.679 -3.9772 -2.2213 -4.2696
  523MOL0     H72137   7.729   4.766   8.843 -0.5759  0.2860  1.4998
  523MOL0     H72138   7.802   4.414   9.152  2.3260 -2.6886 -0.6972
  523MOL0     H72139   7.834   4.394   8.977  0.1020 -1.2455  1.3132
  523MOL0     H72140   8.041   4.422   9.062  1.9723  0.9233  1.2244
  523MOL0     H72141   8.002   4.600   9.042  0.3413 -0.3283  0.5808
  523MOL0     H72142   8.033   4.434   9.292  1.3973  1.7041  2.1867
  523MOL0     H72143   7.930   4.572   9.282  0.6583  1.2177 -0.0022
  523MOL0     H72144   8.142   4.703   9.193  0.4589 -1.5954 -0.8683
  523MOL0     H72145   8.219   4.560   9.180  2.0885  3.1190 -1.0431
  523MOL0     H72146   8.211   4.507   9.423 -2.7185  0.7579  0.9593
  523MOL0     H72147   8.302   4.650   9.369 -1.1987  4.2258  0.5597
  523MOL0     H72148   8.045   4.664   9.507  1.1738 -1.3844  0.9072
  523MOL0     H72149   8.129   4.794   9.415  0.2940 -2.6020 -2.8437
  523MOL0     H72150   8.340   4.732   9.559 -1.2480 -2.2775 -1.1563
  523MOL0     H72151   8.220   4.651   9.667 -2.7684  2.1997  2.9637
  523MOL0     H72152   8.226   4.942   9.588 -1.1394 -0.2471  0.7094
  523MOL0     H72153   8.248   4.867   9.754  2.8095 -2.0440 -0.9949
  523MOL0     H72154   7.578   4.395   9.021  3.1596 -3.0586 -3.0934
  523MOL0     H72155   7.385   4.404   8.861 -0.4819 -0.5754  0.5796
  523MOL0     H72156   6.978   4.688   8.757  0.2128  2.6040 -2.0830
  523MOL0     H72157   6.783   4.670   8.614 -0.4809 -1.3953  0.6134
  523MOL0     H72158   7.125   5.608   7.552  0.8068  0.2346 -0.0782
  523MOL0     H72159   7.245   5.548   7.366 -0.9215  0.5257 -0.9035
  523MOL0     H72160   7.225   5.163   7.006 -0.1837 -1.9919 -3.4637
  523MOL0     H72161   7.337   5.053   6.827 -1.0407 -1.0394 -1.1266
  523MOL0     H72162   7.439   4.967   6.622  0.8325 -1.2134 -0.4975
  523MOL0     H72163   7.334   5.118   6.561 -1.2838 -3.3597  0.8051
  523MOL0     H72164   7.454   4.945   6.391  0.6525  0.7856 -3.2729
  523MOL0     H72165   7.594   5.023   6.448 -0.5507  1.6493  1.4033
  523MOL0     H72166   7.358   5.164   6.327  1.0907 -1.7551  1.3486
  523MOL0     H72167   7.486   5.256   6.394 -0.1206 -0.5654  2.4232
  523MOL0     H72168   7.517   5.231   6.148  2.1491  1.1881  0.6170
  523MOL0     H72169   7.525   5.065   6.149  1.1014  1.6410 -3.1925
  523MOL0     H72170   7.915   5.148   6.273 -1.3961 -1.4056  0.3567
  523MOL0     H72171   7.570   5.400   6.737 -0.6277 -0.3932  0.5710
  523MOL0     H72172   7.434   5.615   6.967  2.3106  1.7762  0.4401
  523MOL0     H72173   7.575   5.530   7.018 -0.5335 -4.1241  0.2856
  523MOL0     H72174   7.539   5.586   6.841  0.8876 -0.0429 -0.2428
  524MOL0     O72175   5.607  10.141  11.286 -0.2020  0.8245  0.5516
  524MOL0     C72176   5.713  10.145  11.224  0.4617  0.1679 -0.8161
  524MOL0     O72177   5.721  10.155  11.084 -0.3693  0.7358 -0.2961
  524MOL0     C72178   5.606  10.175  11.003 -0.4980  1.1063  0.1922
  524MOL0     C72179   5.572  10.083  10.902 -0.5009 -0.5635 -0.2909
  524MOL0     C72180   5.458  10.109  10.828  0.3425 -0.8127  0.1253
  524MOL0     C72181   5.387  10.234  10.838 -0.9931 -0.7732  0.5473
  524MOL0     O72182   5.279  10.262  10.760 -0.3688 -0.5288 -0.0007
  524MOL0     C72183   5.188  10.151  10.723  0.3622 -0.2756  0.1489
  524MOL0     C72184   5.060  10.215  10.691  0.7538 -0.0107  0.3561
  524MOL0     C72185   4.976  10.256  10.819  0.4803 -0.5545  0.5264
  524MOL0     C72186   4.867  10.355  10.783 -0.6024 -0.4164  0.1424
  524MOL0     C72187   4.768  10.384  10.897 -0.2863  0.2179 -0.4296
  524MOL0     C72188   4.681  10.509  10.877 -1.0695 -0.0646  0.4527
  524MOL0     C72189   4.573  10.522  10.987  1.0166  0.2551  0.4695
  524MOL0     C72190   4.485  10.651  10.993 -0.7214  0.1162  0.1518
  524MOL0     N72191   4.562  10.767  11.014 -0.6410  0.1770 -0.0656
  524MOL0     C72192   4.602  10.861  10.924  0.0195 -0.6837 -0.4209
  524MOL0     C72193   4.674  10.956  10.991  0.5277 -0.5237 -0.8612
  524MOL0     C72194   4.750  11.080  10.938  0.6553 -0.1083  0.4731
  524MOL0     C72195   4.651  11.172  10.870  0.5883  0.7377 -0.2094
  524MOL0     C72196   4.704  11.313  10.858  0.6777 -0.3673 -0.5352
  524MOL0     C72197   4.581  11.412  10.846  0.5669 -0.8014 -0.1264
  524MOL0     O72198   4.492  11.392  10.741 -0.2455 -0.7029 -0.1364
  524MOL0     C72199   4.374  11.468  10.748 -0.6297  0.6080  0.2786
  524MOL0     C72200   4.304  11.515  10.863  0.0097  0.1069  0.9927
  524MOL0     C72201   4.164  11.562  10.850  0.0498 -0.4421 -0.0684
  524MOL0     C72202   4.091  11.596  10.975 -0.1867 -1.0103  0.3555
  524MOL0     C72203   4.107  11.580  10.720 -0.1460  0.0942 -0.9511
  524MOL0     C72204   3.967  11.635  10.701 -0.6933  0.7713 -0.5772
  524MOL0     O72205   3.948  11.751  10.770 -0.5297  0.5845 -0.1779
  524MOL0     C72206   3.831  11.832  10.756 -0.4356 -0.4101 -0.4288
  524MOL0     C72207   3.835  11.952  10.688 -0.0794 -0.2909  0.0804
  524MOL0     C72208   3.723  12.034  10.666  0.1427  0.4255  0.3586
  524MOL0     C72209   3.595  11.990  10.714  0.1597  0.0962 -0.2768
  524MOL0     O72210   3.488  12.075  10.723  0.2841 -0.7412  0.2930
  524MOL0     C72211   3.490  12.203  10.656 -0.2771  0.2045 -0.5927
  524MOL0     C72212   3.357  12.281  10.676 -0.0348  0.7125  0.0136
  524MOL0     C72213   3.335  12.326  10.828 -0.4074  1.2761  0.5850
  524MOL0     C72214   3.223  12.440  10.832 -0.5282  0.4717  0.9001
  524MOL0     C72215   3.170  12.476  10.963  0.4056  0.5608  0.7559
  524MOL0     C72216   3.077  12.597  10.971 -0.2376 -0.1309  0.0695
  524MOL0     C72217   2.928  12.563  10.956  0.2770  0.2740  0.4363
  524MOL0     C72218   2.883  12.532  10.812 -0.2507  0.5607  1.1421
  524MOL0    Cl72219   2.700  12.519  10.818 -0.7078 -0.2666  0.5460
  524MOL0     C72220   3.588  11.869  10.782  0.5446 -1.1070  0.1513
  524MOL0     C72221   3.698  11.787  10.802  0.1678 -1.0151  1.1778
  524MOL0     O72222   3.886  11.578  10.629 -0.3115 -0.8723 -0.4955
  524MOL0     C72223   4.175  11.531  10.608 -0.1937  0.1626 -0.3953
  524MOL0     C72224   4.315  11.477  10.620  1.4977  0.0445  0.1091
  524MOL0     N72225   4.679  10.913  11.126  0.3732 -0.2433  0.1054
  524MOL0     N72226   4.621  10.793  11.134 -0.3751  0.1332 -0.2025
  524MOL0     C72227   5.429  10.320  10.945  0.0863 -0.2153 -0.2117
  524MOL0     C72228   5.540  10.289  11.022 -0.6605 -0.3824  0.5528
  524MOL0     C72229   5.839  10.156  11.297  0.9529  0.9749 -0.6696
  524MOL0     C72230   5.873  10.036  11.368 -0.6996  1.0937 -0.6981
  524MOL0     C72231   5.979  10.048  11.457 -0.9438 -0.1549 -0.0404
  524MOL0     C72232   6.069  10.156  11.469  1.0859  0.3539 -1.3250
  524MOL0     O72233   6.184  10.145  11.548  0.1896 -0.0654  0.0365
  524MOL0     C72234   6.163  10.110  11.689  0.0930  0.0053  0.2504
  524MOL0     C72235   6.267  10.184  11.768 -0.3642  0.1493 -0.1788
  524MOL0     C72236   6.407  10.132  11.732  0.3090  0.0901  0.9574
  524MOL0     C72237   6.514  10.193  11.822 -0.5954  0.8471 -0.5560
  524MOL0     C72238   6.542  10.333  11.801  0.6941  0.0729 -0.0089
  524MOL0     C72239   6.567  10.450  11.791 -0.1881 -0.0979 -0.0952
  524MOL0     C72240   6.030  10.268  11.399  0.4901  0.1237 -0.1070
  524MOL0     C72241   5.912  10.273  11.317 -0.3624  0.5984 -0.8512
  524MOL0     C72242   5.881  10.392  11.233 -0.1956  0.3018 -0.0215
  524MOL0     H72243   5.648  10.005  10.893  1.2652  0.9154  1.0260
  524MOL0     H72244   5.424  10.038  10.754 -0.3993  0.8493 -1.2017
  524MOL0     H72245   5.167  10.099  10.817 -2.1888  2.2766  1.1399
  524MOL0     H72246   5.210  10.093  10.632  3.0811  2.2745 -0.9731
  524MOL0     H72247   5.079  10.301  10.625 -1.3130  0.0169 -0.2882
  524MOL0     H72248   4.992  10.154  10.631  0.5659 -0.1970  0.7592
  524MOL0     H72249   4.920  10.171  10.858 -0.2620 -0.0798  0.4973
  524MOL0     H72250   5.031  10.305  10.900  0.2737  0.4888  0.0597
  524MOL0     H72251   4.909  10.455  10.770  0.3458 -0.4396  2.5196
  524MOL0     H72252   4.823  10.340  10.684  0.4851  0.6010 -0.5312
  524MOL0     H72253   4.824  10.394  10.991 -1.3545 -2.9882  0.7182
  524MOL0     H72254   4.704  10.296  10.910  0.1470  0.2527  3.0478
  524MOL0     H72255   4.752  10.590  10.900  1.9163 -1.7218 -2.1446
  524MOL0     H72256   4.641  10.527  10.777 -2.9734 -1.8619  0.8304
  524MOL0     H72257   4.638  10.502  11.073  0.5339 -1.6775  0.4299
  524MOL0     H72258   4.499  10.443  10.974  3.8760 -2.3981 -1.0413
  524MOL0     H72259   4.416  10.666  10.910  0.5964  0.1720 -0.9578
  524MOL0     H72260   4.432  10.630  11.087 -0.7238 -2.5362 -0.3511
  524MOL0     H72261   4.581  10.865  10.818 -1.2635 -3.5199 -0.3625
  524MOL0     H72262   4.819  11.071  10.854  0.3539 -1.6063  0.3579
  524MOL0     H72263   4.792  11.131  11.025 -2.2229  1.9236  0.8097
  524MOL0     H72264   4.622  11.136  10.771 -3.3555  1.3856  0.5452
  524MOL0     H72265   4.570  11.187  10.943  2.4580 -0.1917  2.1744
  524MOL0     H72266   4.760  11.349  10.945  1.1798 -1.2421 -0.4835
  524MOL0     H72267   4.770  11.317  10.771  3.0031 -0.1371  1.1505
  524MOL0     H72268   4.530  11.406  10.943 -1.2833 -1.7740 -1.1243
  524MOL0     H72269   4.609  11.514  10.820 -2.6876  1.0258  2.6824
  524MOL0     H72270   4.352  11.506  10.961 -1.0316 -0.9623  1.4389
  524MOL0     H72271   4.151  11.554  11.056 -0.5983 -0.3227  1.0338
  524MOL0     H72272   4.003  11.532  10.971  0.3998 -1.8118 -2.5264
  524MOL0     H72273   4.069  11.703  10.980 -0.6583 -0.9333 -2.0081
  524MOL0     H72274   3.924  12.009  10.667 -1.4774  2.1886  0.5331
  524MOL0     H72275   3.744  12.138  10.640 -0.8863  1.8733  4.4904
  524MOL0     H72276   3.566  12.269  10.698  0.5240 -2.6105  2.9515
  524MOL0     H72277   3.510  12.182  10.551 -0.2956  4.1522 -1.5157
  524MOL0     H72278   3.355  12.358  10.599  3.3098 -2.2357 -3.4134
  524MOL0     H72279   3.273  12.215  10.649  0.4789  0.7363 -1.7305
  524MOL0     H72280   3.431  12.360  10.870  1.0495  0.3897 -1.8240
  524MOL0     H72281   3.299  12.242  10.888  2.9709 -3.1090 -2.7639
  524MOL0     H72282   3.134  12.401  10.781  0.0134 -0.9519  0.9888
  524MOL0     H72283   3.250  12.530  10.776 -0.8179  0.0488  0.0650
  524MOL0     H72284   3.107  12.390  10.991  0.7540 -1.6493 -4.1785
  524MOL0     H72285   3.255  12.491  11.030  1.2937  2.6431 -0.7250
  524MOL0     H72286   3.104  12.665  10.890 -2.3522  0.7809  0.0456
  524MOL0     H72287   3.082  12.638  11.073 -1.2592 -3.2818  1.5129
  524MOL0     H72288   2.875  12.649  10.996  0.6106  1.2727 -1.1594
  524MOL0     H72289   2.916  12.472  11.016 -4.9916  0.7385  0.4971
  524MOL0     H72290   2.925  12.442  10.768  3.6703  0.6688  4.1364
  524MOL0     H72291   2.923  12.613  10.751 -0.7517 -0.2733 -0.3376
  524MOL0     H72292   3.491  11.861  10.830  0.9893  3.5994  2.3735
  524MOL0     H72293   3.680  11.692  10.851 -0.4967 -0.0427  2.9089
  524MOL0     H72294   4.124  11.534  10.512 -2.2087  0.0864  0.6277
  524MOL0     H72295   4.365  11.450  10.527 -0.2547  4.3422 -2.3830
  524MOL0     H72296   5.383  10.414  10.974 -1.5015 -0.4025 -1.9136
  524MOL0     H72297   5.565  10.360  11.099 -0.2518  1.0675 -0.8629
  524MOL0     H72298   5.813   9.945  11.364  2.5257 -1.2643  0.2683
  524MOL0     H72299   6.019   9.966  11.516  0.4090 -1.3463 -2.4856
  524MOL0     H72300   6.065  10.145  11.721  1.7302  3.9356  1.6285
  524MOL0     H72301   6.169  10.005  11.717 -1.9001 -0.7285 -1.7892
  524MOL0     H72302   6.256  10.160  11.874  0.6524  1.0578  0.1530
  524MOL0     H72303   6.255  10.292  11.752  0.1105  0.1514 -0.5368
  524MOL0     H72304   6.407  10.023  11.742 -4.6764 -0.5832 -2.6317
  524MOL0     H72305   6.429  10.157  11.628  0.8170 -2.1619  0.4834
  524MOL0     H72306   6.603  10.131  11.811 -1.8818 -0.7202 -3.2716
  524MOL0     H72307   6.494  10.177  11.928  2.1341  0.2990 -0.0408
  524MOL0     H72308   6.584  10.555  11.778 -1.1278  0.7157  4.0532
  524MOL0     H72309   6.094  10.355  11.405  1.1534 -0.4619  2.7817
  524MOL0     H72310   5.784  10.381  11.183  0.0196 -0.0379 -0.3645
  524MOL0     H72311   5.881  10.477  11.302  2.4858 -1.9492  3.1000
  524MOL0     H72312   5.960  10.412  11.161 -0.1462  0.2439  0.0165
  525MOL0     O72313   2.558   5.129   5.541 -0.0411 -0.6029 -0.1129
  525MOL0     C72314   2.637   5.205   5.491  0.4169 -0.5958  0.3797
  525MOL0     O72315   2.729   5.165   5.402 -0.6476 -0.6821  0.7112
  525MOL0     C72316   2.738   5.026   5.404  0.3086 -0.6624  0.4247
  525MOL0     C72317   2.828   4.969   5.491  0.9315  1.4765  0.0606
  525MOL0     C72318   2.836   4.826   5.507 -0.9075  0.8348 -0.4221
  525MOL0     C72319   2.763   4.747   5.428  0.9478 -0.3559  0.0267
  525MOL0     O72320   2.737   4.616   5.446  0.0641 -0.2855  0.1670
  525MOL0     C72321   2.808   4.546   5.549 -0.4288 -0.1466 -0.5494
  525MOL0     C72322   2.797   4.390   5.564  0.1281  0.1217 -0.3748
  525MOL0     C72323   2.789   4.308   5.431  0.0464 -0.4534  0.3713
  525MOL0     C72324   2.760   4.155   5.442 -0.5064  0.7056  0.5413
  525MOL0     C72325   2.889   4.079   5.471 -0.2282  0.5756 -0.5997
  525MOL0     C72326   2.849   3.941   5.518  1.1893 -0.1740  0.0775
  525MOL0     C72327   2.971   3.859   5.542  0.4032 -0.3459 -0.1349
  525MOL0     C72328   2.932   3.719   5.595 -0.0353 -0.7501  0.1825
  525MOL0     N72329   2.869   3.627   5.502  1.1794 -0.1538 -0.5609
  525MOL0     C72330   2.743   3.582   5.516  0.0955  0.5230  0.7633
  525MOL0     C72331   2.730   3.481   5.421  1.2701 -0.1853  0.4158
  525MOL0     C72332   2.611   3.394   5.407  0.4479  0.1818 -0.2499
  525MOL0     C72333   2.517   3.426   5.289  0.3836 -0.2390 -0.6800
  525MOL0     C72334   2.568   3.414   5.144 -1.3543 -0.0579 -0.0543
  525MOL0     C72335   2.636   3.536   5.079 -0.3566 -0.2381  0.3908
  525MOL0     O72336   2.570   3.648   5.126  0.0554  0.4044  0.0875
  525MOL0     C72337   2.611   3.779   5.113 -0.3391  1.7872  0.1867
  525MOL0     C72338   2.748   3.818   5.099  0.0607 -0.3049 -0.5310
  525MOL0     C72339   2.778   3.964   5.095  0.3906 -0.2771 -0.8543
  525MOL0     C72340   2.924   3.996   5.082  0.1014  0.2720  0.3481
  525MOL0     C72341   2.678   4.052   5.087 -0.1824 -0.0431 -0.9060
  525MOL0     C72342   2.699   4.200   5.098  0.1496  0.5429  0.9646
  525MOL0     O72343   2.584   4.276   5.065 -0.0340 -1.0370 -0.0138
  525MOL0     C72344   2.584   4.417   5.052  0.0145 -0.0852  1.2257
  525MOL0     C72345   2.696   4.484   4.995  0.2302  0.7392  0.3007
  525MOL0     C72346   2.679   4.621   4.953 -0.6142 -0.2731  0.0022
  525MOL0     C72347   2.565   4.696   4.988 -0.3739 -0.1880  0.4856
  525MOL0     O72348   2.557   4.821   4.940 -0.2107  1.0341 -0.3154
  525MOL0     C72349   2.453   4.905   4.987  0.4697  0.1412  0.5180
  525MOL0     C72350   2.463   5.042   4.939  0.8777  0.1754  0.4849
  525MOL0     C72351   2.370   5.132   5.016  0.4992  0.2158 -0.0235
  525MOL0     C72352   2.421   5.195   5.157 -0.2900 -0.2633  0.3622
  525MOL0     C72353   2.537   5.288   5.134  0.1004 -0.3739  0.2079
  525MOL0     C72354   2.493   5.419   5.063  0.7359 -1.1703 -0.1379
  525MOL0     C72355   2.559   5.539   5.121 -0.2080 -0.0125 -0.2114
  525MOL0     C72356   2.553   5.661   5.036  1.0123 -0.2705  0.1787
  525MOL0    Cl72357   2.381   5.705   4.994  0.5858  0.1086 -0.0700
  525MOL0     C72358   2.459   4.628   5.044  0.5810  0.1840 -0.5148
  525MOL0     C72359   2.466   4.493   5.069  0.5709  0.5831 -0.2987
  525MOL0     O72360   2.809   4.241   5.126  0.2467 -0.0212  0.1655
  525MOL0     C72361   2.545   4.004   5.080 -0.1919 -0.5894  0.4839
  525MOL0     C72362   2.515   3.870   5.108 -1.0908  0.8777 -0.0463
  525MOL0     N72363   2.848   3.475   5.346 -0.2747 -0.8538 -0.5504
  525MOL0     N72364   2.934   3.562   5.399  0.1852 -0.0486  0.8304
  525MOL0     C72365   2.680   4.806   5.329  0.6168  0.7277  0.0211
  525MOL0     C72366   2.666   4.944   5.317 -0.3808 -0.3900 -0.3534
  525MOL0     C72367   2.631   5.349   5.525  0.0161 -0.1796  0.7260
  525MOL0     C72368   2.710   5.441   5.442  0.2552  0.0749 -0.5152
  525MOL0     C72369   2.705   5.577   5.456 -0.6094  0.0834 -0.7268
  525MOL0     C72370   2.638   5.629   5.565  1.2087  0.7568  0.6050
  525MOL0     O72371   2.639   5.758   5.567 -0.0535  0.5261 -0.6368
  525MOL0     C72372   2.554   5.822   5.669 -0.0246 -0.0785  0.7357
  525MOL0     C72373   2.563   5.975   5.642  0.5119  1.0061 -0.4689
  525MOL0     C72374   2.712   6.031   5.645  0.5495  0.3198  0.2635
  525MOL0     C72375   2.717   6.180   5.694 -0.1712 -0.0279  0.6559
  525MOL0     C72376   2.616   6.260   5.621 -0.1638 -0.1312 -0.1997
  525MOL0     C72377   2.520   6.312   5.576  0.0498 -0.5534 -0.0163
  525MOL0     C72378   2.572   5.540   5.649  0.9479 -0.3186  0.7987
  525MOL0     C72379   2.565   5.403   5.631  0.0177  0.0924 -0.3840
  525MOL0     C72380   2.496   5.332   5.740  0.4153 -0.0422  0.0328
  525MOL0     H72381   2.888   5.037   5.551  0.4588 -0.4472  2.9531
  525MOL0     H72382   2.907   4.786   5.579 -0.9014 -1.1598 -1.4562
  525MOL0     H72383   2.772   4.593   5.641  0.8452  2.6656 -1.3668
  525MOL0     H72384   2.916   4.562   5.538 -0.3937  1.1380  1.1420
  525MOL0     H72385   2.874   4.351   5.631 -1.0324 -0.3007  0.7429
  525MOL0     H72386   2.704   4.365   5.616  0.1568  0.8735  0.0574
  525MOL0     H72387   2.706   4.342   5.369 -0.7074 -1.0307  1.0442
  525MOL0     H72388   2.874   4.318   5.363 -1.4172  1.0908 -1.3506
  525MOL0     H72389   2.687   4.151   5.524  0.0681  0.3511  1.0367
  525MOL0     H72390   2.708   4.121   5.352 -2.2262  2.8948  0.6167
  525MOL0     H72391   2.956   4.132   5.540  1.8442 -0.6047 -1.5995
  525MOL0     H72392   2.952   4.077   5.382  0.2854  1.6380 -0.2813
  525MOL0     H72393   2.783   3.954   5.604  0.0177  0.8188 -0.9212
  525MOL0     H72394   2.789   3.890   5.442  1.9145 -1.4002  0.3025
  525MOL0     H72395   3.025   3.910   5.623  1.8621  0.3664 -1.5048
  525MOL0     H72396   3.035   3.847   5.454 -1.6556  0.4534 -1.8114
  525MOL0     H72397   3.030   3.678   5.620  0.2083  0.7007  1.8104
  525MOL0     H72398   2.879   3.739   5.688 -4.2128 -0.3346 -2.0651
  525MOL0     H72399   2.674   3.614   5.593 -0.0377  1.6208  0.2123
  525MOL0     H72400   2.560   3.395   5.503  0.9029  0.8695 -0.0159
  525MOL0     H72401   2.639   3.289   5.397 -1.7238 -0.5200  0.3935
  525MOL0     H72402   2.437   3.351   5.295 -0.6851  0.9827  1.5426
  525MOL0     H72403   2.466   3.519   5.315 -0.4515 -1.6049  3.2442
  525MOL0     H72404   2.639   3.331   5.135 -1.6314 -0.6041  2.2945
  525MOL0     H72405   2.474   3.397   5.092 -0.4007 -2.0450 -1.2707
  525MOL0     H72406   2.744   3.535   5.094  0.0089 -4.1567 -1.2371
  525MOL0     H72407   2.622   3.523   4.971 -0.3840 -2.2070  0.6114
  525MOL0     H72408   2.825   3.742   5.103 -0.3377 -0.7908 -1.8013
  525MOL0     H72409   2.942   4.075   5.009  3.5729 -0.3608  0.3686
  525MOL0     H72410   2.978   3.905   5.056  0.9946  0.5605  1.1191
  525MOL0     H72411   2.973   4.024   5.176  0.0263  1.1254  0.1409
  525MOL0     H72412   2.789   4.433   4.973 -0.5299 -0.3079 -0.5699
  525MOL0     H72413   2.775   4.661   4.920 -0.6439 -2.0912 -2.6603
  525MOL0     H72414   2.358   4.870   4.945  1.5299 -1.0177 -1.0597
  525MOL0     H72415   2.438   4.898   5.095 -0.9006  1.5840  0.4634
  525MOL0     H72416   2.567   5.076   4.938  0.7531  0.5636 -1.0753
  525MOL0     H72417   2.419   5.033   4.839 -1.6905 -1.4236  1.6334
  525MOL0     H72418   2.273   5.081   5.024  0.6284 -0.2871 -1.3063
  525MOL0     H72419   2.351   5.206   4.937  1.1227  0.2998 -0.0964
  525MOL0     H72420   2.453   5.108   5.215 -0.4749  0.6143  1.8232
  525MOL0     H72421   2.339   5.242   5.212  1.1204 -0.1743  2.4988
  525MOL0     H72422   2.581   5.324   5.228 -0.3881  0.5655  0.0901
  525MOL0     H72423   2.619   5.244   5.077  0.6531  2.3535 -1.2846
  525MOL0     H72424   2.384   5.432   5.066  1.0199  1.5971  1.0990
  525MOL0     H72425   2.522   5.417   4.958 -0.7227  2.0643 -0.7205
  525MOL0     H72426   2.664   5.514   5.140 -0.1285  0.6221  0.2121
  525MOL0     H72427   2.508   5.562   5.214  2.3349 -0.8888  1.5120
  525MOL0     H72428   2.603   5.646   4.940 -1.6160  1.9507 -1.6667
  525MOL0     H72429   2.607   5.743   5.085 -0.7013  1.4840 -0.7611
  525MOL0     H72430   2.363   4.675   5.067 -0.0305 -0.7451 -1.1045
  525MOL0     H72431   2.380   4.443   5.113  0.1888  2.6059  1.4033
  525MOL0     H72432   2.452   4.060   5.075 -2.8926 -4.4679  1.8645
  525MOL0     H72433   2.414   3.842   5.136  0.2344 -1.5256  2.8484
  525MOL0     H72434   2.622   4.754   5.253  3.5181  2.0192 -3.3150
  525MOL0     H72435   2.605   4.984   5.237  0.6912  2.8055  0.2834
  525MOL0     H72436   2.768   5.409   5.355 -1.2101 -1.9701 -0.8236
  525MOL0     H72437   2.768   5.643   5.397 -0.1619 -0.4740 -0.8785
  525MOL0     H72438   2.450   5.787   5.661 -0.6386  1.9403 -0.8401
  525MOL0     H72439   2.590   5.801   5.770 -3.0736 -2.8803  1.4431
  525MOL0     H72440   2.499   6.030   5.712 -0.1209  0.2362 -0.4283
  525MOL0     H72441   2.522   5.996   5.543 -0.2134  4.7250  0.4653
  525MOL0     H72442   2.765   5.976   5.724 -1.2408  0.9135  1.9643
  525MOL0     H72443   2.757   6.022   5.546  1.5520 -0.8457  0.7946
  525MOL0     H72444   2.822   6.208   5.684  0.6152 -2.8029  0.2283
  525MOL0     H72445   2.685   6.195   5.798 -2.6523 -1.0893  0.1345
  525MOL0     H72446   2.436   6.374   5.552 -0.9214  1.0382  5.9086
  525MOL0     H72447   2.524   5.583   5.736  1.1948 -2.1240  1.8831
  525MOL0     H72448   2.467   5.400   5.821  2.2743  1.1601 -0.2557
  525MOL0     H72449   2.408   5.277   5.705  2.6958 -1.9264 -3.3664
  525MOL0     H72450   2.561   5.251   5.775  0.3235 -0.5783 -1.0138
  526MOL0     O72451   7.469  10.701   0.005  0.4745  0.4535  0.6741
  526MOL0     C72452   7.422  10.814   0.022  0.3178 -0.0023 -0.3636
  526MOL0     O72453   7.433  10.884   0.142  0.1657  1.0681  0.1420
  526MOL0     C72454   7.517  10.845   0.244  0.0866  0.0939 -0.1983
  526MOL0     C72455   7.475  10.865   0.370  0.0797 -0.2577 -0.4340
  526MOL0     C72456   7.560  10.849   0.479 -0.4466  0.1318 -0.0358
  526MOL0     C72457   7.700  10.821   0.460  1.0277 -0.4291 -0.0935
  526MOL0     O72458   7.772  10.812   0.574  0.3120 -0.0749 -0.2017
  526MOL0     C72459   7.906  10.776   0.556 -0.1960  0.4252 -0.0834
  526MOL0     C72460   7.986  10.762   0.678  0.3450 -0.2726 -0.0444
  526MOL0     C72461   8.062  10.896   0.707 -0.2009 -0.1409  0.4685
  526MOL0     C72462   8.157  10.873   0.830  0.2811 -0.0301 -0.1876
  526MOL0     C72463   8.225  11.006   0.879  0.2371 -0.9367 -0.0315
  526MOL0     C72464   8.236  11.006   1.027 -0.5300 -0.0702  0.1713
  526MOL0     C72465   8.299  10.889   1.093  0.1156  0.6657  0.1482
  526MOL0     C72466   8.452  10.887   1.069 -0.2260 -0.0893 -0.7010
  526MOL0     N72467   8.532  10.827   1.180 -0.0144 -0.5492 -0.6182
  526MOL0     C72468   8.535  10.699   1.223  0.1430 -0.1941 -0.1546
  526MOL0     C72469   8.580  10.716   1.354  0.1486 -0.1093 -0.3256
  526MOL0     C72470   8.595  10.616   1.476 -0.6750  0.4533  0.4524
  526MOL0     C72471   8.679  10.491   1.433  1.4697  0.6097 -0.3939
  526MOL0     C72472   8.622  10.369   1.504  0.0417 -0.2574  0.4469
  526MOL0     C72473   8.711  10.245   1.500  0.1951 -0.3690 -0.6652
  526MOL0     O72474   8.700  10.200   1.362  0.4499  0.2271 -0.7315
  526MOL0     C72475   8.584  10.148   1.314  0.7297 -0.0235  1.5817
  526MOL0     C72476   8.582  10.127   1.180 -0.1214 -0.1669 -0.0553
  526MOL0     C72477   8.473  10.065   1.119  0.2680  0.3552  0.7409
  526MOL0     C72478   8.501  10.039   0.971  0.9000  0.2385  0.4113
  526MOL0     C72479   8.361  10.032   1.190 -0.2053  0.1973 -0.5393
  526MOL0     C72480   8.232   9.992   1.144  0.3370 -0.3273  0.0162
  526MOL0     O72481   8.155   9.916   1.230 -0.1158  0.2353 -0.0799
  526MOL0     C72482   8.029   9.881   1.202 -0.8903 -0.2146  0.0929
  526MOL0     C72483   7.914   9.916   1.270 -0.1785 -0.2043  0.2350
  526MOL0     C72484   7.779   9.868   1.245  0.2928  0.5645 -0.2925
  526MOL0     C72485   7.772   9.778   1.138  0.4072  0.4471 -0.7272
  526MOL0     O72486   7.646   9.747   1.083  0.7173  0.2394  0.7537
  526MOL0     C72487   7.585   9.634   1.143  0.6817 -0.1671 -0.2758
  526MOL0     C72488   7.440   9.636   1.089  0.1791 -0.7340 -0.3456
  526MOL0     C72489   7.362   9.506   1.120  0.4265  0.5073 -1.1314
  526MOL0     C72490   7.234   9.505   1.046  0.8849  1.2639  0.5137
  526MOL0     C72491   7.148   9.376   1.047  0.6752 -0.5285 -0.8945
  526MOL0     C72492   7.082   9.362   1.189 -0.1151  0.1038  0.1376
  526MOL0     C72493   6.945   9.448   1.191 -0.5407 -1.3533  0.4014
  526MOL0     C72494   6.900   9.492   1.331  0.0944 -0.0927 -0.6316
  526MOL0    Cl72495   7.007   9.620   1.395  0.1840 -0.0906 -0.4617
  526MOL0     C72496   7.889   9.732   1.075 -0.1485  0.5361  0.4208
  526MOL0     C72497   8.012   9.784   1.103 -0.5701  0.5043 -0.0180
  526MOL0     O72498   8.197  10.041   1.042 -0.3885  0.1931  0.6654
  526MOL0     C72499   8.370  10.049   1.326  0.5307 -0.0534  0.1458
  526MOL0     C72500   8.478  10.099   1.389  0.0572 -0.2451  0.2335
  526MOL0     N72501   8.640  10.844   1.374 -0.1896 -0.1282  1.2539
  526MOL0     N72502   8.584  10.916   1.278 -0.9945  0.7532 -0.1140
  526MOL0     C72503   7.726  10.779   0.330  0.7253  0.5253 -1.1225
  526MOL0     C72504   7.641  10.798   0.223 -0.2183  0.4608 -0.3989
  526MOL0     C72505   7.332  10.884  -0.068  0.4232  0.2228  0.2556
  526MOL0     C72506   7.286  11.011  -0.028  0.1566 -1.9513 -0.4571
  526MOL0     C72507   7.201  11.089  -0.115  0.0680  0.4281  0.0673
  526MOL0     C72508   7.177  11.039  -0.236  0.1531  0.2199  0.3988
  526MOL0     O72509   7.089  11.109  -0.319 -0.1625  0.2619  0.6604
  526MOL0     C72510   6.962  11.048  -0.328  0.5787 -0.1655 -0.0826
  526MOL0     C72511   6.884  11.079  -0.454 -0.1533 -0.1170  0.0442
  526MOL0     C72512   6.940  11.011  -0.578 -1.1622  0.1916  0.2084
  526MOL0     C72513   6.895  11.096  -0.694  0.4268  0.2256 -0.1299
  526MOL0     C72514   6.761  11.047  -0.727 -0.2750 -0.0127  0.7275
  526MOL0     C72515   6.641  11.024  -0.744 -0.5692 -0.0765 -0.4400
  526MOL0     C72516   7.225  10.921  -0.283  0.0721  0.5550 -0.8712
  526MOL0     C72517   7.301  10.840  -0.195  0.6956  0.0622  0.0386
  526MOL0     C72518   7.354  10.711  -0.246  0.4984  0.6748 -0.4209
  526MOL0     H72519   7.375  10.900   0.395  0.3788 -0.4759  1.1923
  526MOL0     H72520   7.523  10.857   0.580  0.0706 -0.0751  0.1751
  526MOL0     H72521   7.952  10.835   0.476  1.2360 -3.2560 -2.2477
  526MOL0     H72522   7.916  10.681   0.503 -1.2967  1.5303 -2.4414
  526MOL0     H72523   7.914  10.746   0.759  1.2263  2.3134  1.3387
  526MOL0     H72524   8.056  10.678   0.671  1.5113  0.5827  1.0918
  526MOL0     H72525   8.132  10.931   0.630 -0.4124 -0.9636 -0.1074
  526MOL0     H72526   7.994  10.978   0.730  1.2998  2.2909 -2.8561
  526MOL0     H72527   8.083  10.855   0.908 -1.1553  0.5846 -1.3615
  526MOL0     H72528   8.222  10.785   0.827 -0.9885 -1.2369  3.3094
  526MOL0     H72529   8.168  11.094   0.847  1.9093  0.0438 -0.4544
  526MOL0     H72530   8.329  11.015   0.844  1.3429 -0.4004  3.0995
  526MOL0     H72531   8.277  11.104   1.053 -4.6125  1.9031  0.0100
  526MOL0     H72532   8.133  11.010   1.063 -2.6592  1.2363 -5.0642
  526MOL0     H72533   8.238  10.802   1.065  1.0808 -0.0011  0.0683
  526MOL0     H72534   8.286  10.893   1.202 -1.5179 -1.3884  0.0973
  526MOL0     H72535   8.483  10.831   0.980 -1.4642 -2.4756  0.2815
  526MOL0     H72536   8.473  10.994   1.058  2.0810  1.0278  7.5863
  526MOL0     H72537   8.507  10.610   1.167  2.1052 -0.3270 -1.0107
  526MOL0     H72538   8.492  10.583   1.490 -0.5240 -0.9183 -1.3210
  526MOL0     H72539   8.639  10.673   1.558 -2.5196 -0.4150  2.1218
  526MOL0     H72540   8.681  10.483   1.324  1.6546  1.0945 -0.4278
  526MOL0     H72541   8.785  10.502   1.457  0.9707 -0.3537  2.7479
  526MOL0     H72542   8.602  10.401   1.607  1.5550  1.3251  0.2869
  526MOL0     H72543   8.523  10.354   1.461  0.3476  1.3267 -0.8858
  526MOL0     H72544   8.807  10.267   1.548 -1.7341  1.3963  2.7720
  526MOL0     H72545   8.669  10.175   1.573 -0.7775  1.4501  0.6098
  526MOL0     H72546   8.666  10.148   1.115 -0.8350 -0.1395 -0.9802
  526MOL0     H72547   8.603  10.061   0.936  0.0666  0.5391 -2.0547
  526MOL0     H72548   8.430  10.102   0.916 -1.9481 -3.6565 -0.8085
  526MOL0     H72549   8.487   9.937   0.934 -5.7107  1.4261 -1.5772
  526MOL0     H72550   7.926   9.988   1.350 -2.4734  0.2219  0.2675
  526MOL0     H72551   7.690   9.913   1.287  0.3832 -0.6583  1.2865
  526MOL0     H72552   7.631   9.536   1.123 -1.0627 -1.6844  2.4337
  526MOL0     H72553   7.591   9.648   1.252  2.8439 -2.4838  0.0072
  526MOL0     H72554   7.388   9.724   1.126  5.3933  2.2908  0.7923
  526MOL0     H72555   7.450   9.655   0.982 -0.1330 -0.6704 -0.3635
  526MOL0     H72556   7.327   9.518   1.223  1.4921 -0.2785 -0.6608
  526MOL0     H72557   7.420   9.414   1.130 -0.7380 -0.2343 -1.0127
  526MOL0     H72558   7.260   9.512   0.940  0.8087  0.2788  0.4200
  526MOL0     H72559   7.180   9.598   1.067  0.2700  0.9261  0.4381
  526MOL0     H72560   7.066   9.388   0.975 -1.2642 -1.1115  1.0928
  526MOL0     H72561   7.204   9.286   1.019 -2.5359 -1.9760 -3.3332
  526MOL0     H72562   7.138   9.404   1.272 -0.9160  2.2573 -0.3441
  526MOL0     H72563   7.058   9.257   1.209 -2.2511  0.6627  0.7399
  526MOL0     H72564   6.867   9.379   1.157 -1.4337 -2.3289  3.9485
  526MOL0     H72565   6.946   9.540   1.133 -2.6687 -1.4420  0.1403
  526MOL0     H72566   6.900   9.410   1.404  1.0616  0.6637  0.2452
  526MOL0     H72567   6.796   9.518   1.310 -0.4720 -1.4472  0.3430
  526MOL0     H72568   7.879   9.655   0.999  3.4577  1.7156 -1.4505
  526MOL0     H72569   8.103   9.753   1.052 -2.7588 -1.0581 -3.2981
  526MOL0     H72570   8.275  10.057   1.380 -1.2958  3.0119 -3.1021
  526MOL0     H72571   8.471  10.110   1.497  0.0057 -2.8478  0.5686
  526MOL0     H72572   7.826  10.741   0.311  0.5724 -1.4312  1.5364
  526MOL0     H72573   7.678  10.769   0.125 -0.5108 -2.3415  0.2407
  526MOL0     H72574   7.318  11.064   0.061 -0.2766 -1.6651 -0.4709
  526MOL0     H72575   7.163  11.185  -0.081  0.4944  0.3743  0.7051
  526MOL0     H72576   6.972  10.940  -0.328  0.8331 -0.2249 -3.4693
  526MOL0     H72577   6.899  11.064  -0.239  0.7741 -0.9621  0.2017
  526MOL0     H72578   6.894  11.188  -0.463  1.3793 -0.3345 -1.1780
  526MOL0     H72579   6.779  11.048  -0.446 -0.4564 -0.2615 -3.2104
  526MOL0     H72580   7.049  11.008  -0.565 -1.1034 -0.5612 -0.4166
  526MOL0     H72581   6.895  10.912  -0.583  2.5859 -1.7358  0.6140
  526MOL0     H72582   6.968  11.069  -0.770 -0.7301  2.9502 -2.3967
  526MOL0     H72583   6.897  11.205  -0.682  0.9791  0.4493 -2.0414
  526MOL0     H72584   6.541  10.994  -0.769 -0.6453  0.6363 -1.0262
  526MOL0     H72585   7.207  10.900  -0.388 -1.6224  0.3669 -0.5697
  526MOL0     H72586   7.340  10.621  -0.186  4.5605 -0.5893 -1.1016
  526MOL0     H72587   7.303  10.683  -0.339  2.1814  0.5026 -1.3304
  526MOL0     H72588   7.462  10.719  -0.262  0.4377 -0.3984 -1.5032
  527MOL0     O72589   4.687   3.987   8.258  0.5723  0.6183  0.2002
  527MOL0     C72590   4.762   4.075   8.220  0.2439  0.0855 -0.5491
  527MOL0     O72591   4.744   4.202   8.222  0.0129 -0.6603 -0.7872
  527MOL0     C72592   4.620   4.270   8.222  0.0128 -0.3317  0.0013
  527MOL0     C72593   4.490   4.214   8.235 -0.9562  0.2271 -0.2962
  527MOL0     C72594   4.379   4.287   8.207 -0.1860 -0.0974 -0.3824
  527MOL0     C72595   4.384   4.414   8.186 -0.5113  0.2101  0.0803
  527MOL0     O72596   4.266   4.483   8.173 -0.1137  0.2497  0.3082
  527MOL0     C72597   4.256   4.624   8.164  0.2034 -0.5124 -0.1935
  527MOL0     C72598   4.103   4.663   8.140 -0.7510  0.0507  0.1904
  527MOL0     C72599   4.028   4.625   8.263  0.5175  1.2629 -0.3550
  527MOL0     C72600   4.072   4.714   8.388 -0.3934  1.0972  0.4976
  527MOL0     C72601   3.979   4.745   8.504  0.1404 -0.3296 -0.3244
  527MOL0     C72602   3.852   4.818   8.448 -0.3904 -0.2053 -0.6988
  527MOL0     C72603   3.779   4.907   8.566 -0.6366 -0.7289  0.5498
  527MOL0     C72604   3.759   4.853   8.704 -0.4058 -0.5050  0.4944
  527MOL0     N72605   3.628   4.788   8.710  0.5687  0.3869 -0.1632
  527MOL0     C72606   3.618   4.653   8.675  0.3278 -0.7306  0.6298
  527MOL0     C72607   3.484   4.632   8.692  0.8025 -0.2901 -0.0980
  527MOL0     C72608   3.409   4.503   8.642  0.2464  0.8377  0.5934
  527MOL0     C72609   3.267   4.482   8.700 -1.1695  0.9670  0.5559
  527MOL0     C72610   3.215   4.360   8.625  0.2437  0.7017 -0.1464
  527MOL0     C72611   3.086   4.311   8.702 -0.0968  0.7138 -0.2985
  527MOL0     O72612   2.989   4.407   8.730  0.4775  0.0117  0.4273
  527MOL0     C72613   2.890   4.422   8.645  0.3903 -0.6736  0.0723
  527MOL0     C72614   2.771   4.473   8.707 -0.7434 -0.1786 -0.3505
  527MOL0     C72615   2.648   4.484   8.628 -0.1261 -0.1219 -0.5311
  527MOL0     C72616   2.526   4.534   8.701 -0.1666  0.0086  0.1141
  527MOL0     C72617   2.644   4.445   8.494  0.4002  0.6273  0.4402
  527MOL0     C72618   2.517   4.450   8.401 -0.8021  0.9461 -0.1202
  527MOL0     O72619   2.527   4.363   8.299  0.3509 -0.6811  0.1278
  527MOL0     C72620   2.429   4.371   8.208  0.4996  0.0253  0.2049
  527MOL0     C72621   2.317   4.289   8.202  1.0262 -0.5971 -1.4802
  527MOL0     C72622   2.205   4.310   8.118 -0.6994  0.2320  0.4977
  527MOL0     C72623   2.212   4.406   8.016  0.0110 -0.0572 -0.0472
  527MOL0     O72624   2.124   4.423   7.914  1.0066  0.5568 -0.0265
  527MOL0     C72625   1.981   4.387   7.939  0.3123 -0.1997  0.6928
  527MOL0     C72626   1.900   4.461   7.837  0.1529  0.2470 -0.6432
  527MOL0     C72627   1.742   4.434   7.859  0.0967 -0.6931 -0.1254
  527MOL0     C72628   1.670   4.496   7.976  0.5762 -0.3878 -0.6895
  527MOL0     C72629   1.531   4.432   8.017 -0.1739 -0.0124  1.1125
  527MOL0     C72630   1.441   4.538   8.074 -1.1116  0.1396  0.0229
  527MOL0     C72631   1.310   4.479   8.121  0.6482 -0.3880 -0.4389
  527MOL0     C72632   1.222   4.603   8.154 -0.1748  0.3936  0.1998
  527MOL0    Cl72633   1.244   4.684   8.308 -0.8948  0.2623 -0.2755
  527MOL0     C72634   2.325   4.493   8.019  0.0390 -0.7455 -0.8529
  527MOL0     C72635   2.432   4.473   8.113 -0.0413 -0.9158 -0.1244
  527MOL0     O72636   2.423   4.531   8.424 -0.4405  0.2151 -0.7421
  527MOL0     C72637   2.767   4.412   8.438 -0.3185 -1.4064  0.1982
  527MOL0     C72638   2.886   4.400   8.509 -0.3262  0.0529  0.0874
  527MOL0     N72639   3.426   4.744   8.745  0.0713 -0.1318  0.0979
  527MOL0     N72640   3.511   4.843   8.767 -0.6086  0.2517 -0.7575
  527MOL0     C72641   4.503   4.481   8.170 -1.1940 -0.6308  0.2894
  527MOL0     C72642   4.623   4.406   8.185 -0.9263  0.3876  0.0840
  527MOL0     C72643   4.899   4.023   8.185  1.1256  0.5012 -0.1991
  527MOL0     C72644   4.931   3.894   8.222  0.3004  0.4668 -0.4188
  527MOL0     C72645   5.051   3.836   8.202 -0.1123  0.7632  0.7693
  527MOL0     C72646   5.157   3.916   8.152 -0.6504  0.9422 -0.1483
  527MOL0     O72647   5.278   3.851   8.139 -0.0491  0.1762  0.2931
  527MOL0     C72648   5.387   3.927   8.184 -1.1380 -0.0283  0.2674
  527MOL0     C72649   5.430   3.904   8.329  0.2221  0.5797 -0.5983
  527MOL0     C72650   5.337   3.961   8.434  0.8172  0.3876 -0.0381
  527MOL0     C72651   5.406   3.961   8.570 -0.6126 -0.0124 -0.7724
  527MOL0     C72652   5.544   4.009   8.573  0.6350 -0.1861 -0.0044
  527MOL0     C72653   5.661   4.048   8.568  0.8056 -0.1456  0.0602
  527MOL0     C72654   5.129   4.045   8.106 -0.0309 -1.2499 -0.5338
  527MOL0     C72655   5.005   4.100   8.117 -0.6214 -0.0810 -0.4071
  527MOL0     C72656   4.988   4.245   8.085 -0.5686  0.2057 -0.2829
  527MOL0     H72657   4.479   4.108   8.253 -3.1444  0.1744 -1.5717
  527MOL0     H72658   4.281   4.240   8.203 -0.3932  0.0604  1.6550
  527MOL0     H72659   4.305   4.649   8.069 -0.6689  0.7992 -0.3181
  527MOL0     H72660   4.288   4.678   8.254 -3.3413 -0.7444  1.3632
  527MOL0     H72661   4.083   4.767   8.114 -6.9519 -0.9396 -0.4347
  527MOL0     H72662   4.059   4.617   8.052 -3.8155  1.2990  0.9384
  527MOL0     H72663   3.924   4.646   8.237 -0.6266 -2.0360  0.9960
  527MOL0     H72664   4.035   4.519   8.288  1.2024  0.8510 -2.1440
  527MOL0     H72665   4.156   4.668   8.441  1.0106  1.8197 -1.0371
  527MOL0     H72666   4.107   4.811   8.352  0.9319 -0.1676 -1.9007
  527MOL0     H72667   4.020   4.820   8.572 -1.5437  3.2270 -2.8852
  527MOL0     H72668   3.957   4.651   8.554  2.0566 -1.3860 -1.3648
  527MOL0     H72669   3.879   4.887   8.367 -0.2917  0.4361 -0.1352
  527MOL0     H72670   3.791   4.735   8.414  1.3982 -1.7696 -0.2501
  527MOL0     H72671   3.679   4.939   8.535 -1.6064 -2.9559  1.2323
  527MOL0     H72672   3.842   4.996   8.577 -2.4934  0.9172 -1.2034
  527MOL0     H72673   3.841   4.785   8.730  0.9893 -0.5764 -3.3570
  527MOL0     H72674   3.754   4.937   8.773 -0.0125  0.6706 -0.8583
  527MOL0     H72675   3.700   4.593   8.637 -0.8702 -1.2565 -1.2864
  527MOL0     H72676   3.470   4.412   8.652 -0.8203 -0.4349 -3.1261
  527MOL0     H72677   3.382   4.519   8.538 -1.3107  3.3230  1.2996
  527MOL0     H72678   3.267   4.463   8.807  2.7942  0.3347  0.6001
  527MOL0     H72679   3.209   4.571   8.677  1.1107  1.9767 -1.8220
  527MOL0     H72680   3.176   4.378   8.525 -0.6086 -1.5687 -0.2955
  527MOL0     H72681   3.287   4.279   8.611  1.3196  1.3421  1.3489
  527MOL0     H72682   3.034   4.230   8.650 -1.8339  1.0198  0.8741
  527MOL0     H72683   3.118   4.271   8.799 -4.3888 -0.6156  0.7727
  527MOL0     H72684   2.764   4.483   8.815 -2.2046 -0.1997 -0.4213
  527MOL0     H72685   2.515   4.637   8.667  0.7125 -0.2274 -0.9438
  527MOL0     H72686   2.537   4.544   8.809  0.1026  2.7891 -0.1002
  527MOL0     H72687   2.438   4.473   8.680 -0.3131 -0.0897  1.0001
  527MOL0     H72688   2.313   4.209   8.274  1.1379  0.0277 -0.7723
  527MOL0     H72689   2.113   4.253   8.122 -0.9452  0.6564  0.8865
  527MOL0     H72690   1.970   4.278   7.929  0.4433 -0.1658  0.1349
  527MOL0     H72691   1.956   4.422   8.040 -1.8676  0.4392 -0.0194
  527MOL0     H72692   1.933   4.566   7.840  1.9736 -0.3203  1.0012
  527MOL0     H72693   1.922   4.424   7.737  1.5676  0.3007 -0.3656
  527MOL0     H72694   1.744   4.326   7.876  1.7643 -0.8465 -1.1088
  527MOL0     H72695   1.688   4.459   7.767  1.4965  0.2857 -0.7074
  527MOL0     H72696   1.678   4.603   7.958  0.9235  0.2864  2.8448
  527MOL0     H72697   1.725   4.486   8.070  0.3969  0.2629 -0.5111
  527MOL0     H72698   1.493   4.402   7.920 -0.3208  0.4349  1.0310
  527MOL0     H72699   1.552   4.343   8.078  0.4076 -0.6001  0.0711
  527MOL0     H72700   1.421   4.609   7.994 -0.8803  1.6286  1.2341
  527MOL0     H72701   1.483   4.593   8.159 -0.4628 -3.8559  2.5586
  527MOL0     H72702   1.300   4.418   8.211 -2.2038 -0.2960 -0.6202
  527MOL0     H72703   1.272   4.418   8.038  0.5559  1.7781 -2.0653
  527MOL0     H72704   1.118   4.567   8.151  0.3379 -1.2208 -2.8755
  527MOL0     H72705   1.240   4.683   8.081  1.3700  3.0792  3.2813
  527MOL0     H72706   2.312   4.577   7.952  0.9451 -0.3587 -0.5588
  527MOL0     H72707   2.513   4.545   8.117 -2.4914  2.2445 -2.1844
  527MOL0     H72708   2.790   4.396   8.333 -1.4940 -1.1743 -0.1087
  527MOL0     H72709   2.973   4.361   8.458 -2.4732 -0.8800 -3.1930
  527MOL0     H72710   4.500   4.582   8.132 -2.1527 -0.4895  0.7001
  527MOL0     H72711   4.721   4.451   8.171  1.1492 -3.0020  2.3961
  527MOL0     H72712   4.858   3.835   8.276  1.2916 -1.2139 -0.8295
  527MOL0     H72713   5.057   3.733   8.236 -0.8036  0.1320 -0.8998
  527MOL0     H72714   5.465   3.886   8.119 -0.8866 -0.7086  0.9841
  527MOL0     H72715   5.391   4.033   8.159 -2.1245 -0.4313 -1.8115
  527MOL0     H72716   5.527   3.955   8.336  1.6186 -1.8072 -1.5281
  527MOL0     H72717   5.453   3.798   8.342 -1.5183  0.3929  1.5077
  527MOL0     H72718   5.299   4.058   8.401 -1.9992 -0.1079  1.3932
  527MOL0     H72719   5.246   3.903   8.454  2.0000 -1.1513  1.0186
  527MOL0     H72720   5.405   3.861   8.614  2.5519  1.8378  4.4182
  527MOL0     H72721   5.348   4.031   8.631 -2.1677 -1.8245 -0.0767
  527MOL0     H72722   5.763   4.081   8.572  0.8572 -0.2810 -0.1281
  527MOL0     H72723   5.201   4.101   8.048 -0.7002 -0.4671 -0.6181
  527MOL0     H72724   5.060   4.283   8.011 -0.9678  1.1612 -0.1982
  527MOL0     H72725   4.891   4.270   8.040  0.0738  1.8007 -0.8840
  527MOL0     H72726   4.995   4.306   8.175 -1.8347 -0.4709  0.3008
  528MOL0     O72727   6.299   1.562   0.519  0.2615  0.4019 -0.8695
  528MOL0     C72728   6.343   1.460   0.460 -0.0499 -0.3323  0.7084
  528MOL0     O72729   6.443   1.470   0.361 -0.1639 -0.6640 -0.5555
  528MOL0     C72730   6.550   1.561   0.377 -0.3495 -0.2299 -0.2248
  528MOL0     C72731   6.582   1.628   0.496  0.2937 -0.1447  0.6861
  528MOL0     C72732   6.700   1.706   0.508 -0.7053 -0.6686 -0.3414
  528MOL0     C72733   6.783   1.743   0.397 -0.4736 -0.3012  0.0444
  528MOL0     O72734   6.901   1.817   0.414 -0.6286 -0.7504 -0.2722
  528MOL0     C72735   6.901   1.959   0.440 -0.0503 -0.3247 -0.2746
  528MOL0     C72736   6.912   2.045   0.309 -0.1791  0.5592 -0.6893
  528MOL0     C72737   7.047   2.026   0.232  0.1026  0.5489 -0.1555
  528MOL0     C72738   7.033   2.086   0.096 -0.9912 -0.7101  1.1741
  528MOL0     C72739   7.169   2.083   0.016  0.6705 -0.5325 -0.8137
  528MOL0     C72740   7.127   2.096  -0.139  0.8129 -1.0223  0.3364
  528MOL0     C72741   7.238   2.139  -0.233 -0.1715 -0.4018  0.5519
  528MOL0     C72742   7.270   2.290  -0.219  0.3045 -0.2601  0.8596
  528MOL0     N72743   7.379   2.324  -0.323  0.4077  0.2931  0.2581
  528MOL0     C72744   7.362   2.329  -0.457  0.5497 -1.0242 -0.3154
  528MOL0     C72745   7.484   2.377  -0.507 -0.1720 -1.5290  0.4359
  528MOL0     C72746   7.507   2.409  -0.657  0.1613  0.4066 -0.4001
  528MOL0     C72747   7.653   2.426  -0.690  0.0971 -0.1069  0.6503
  528MOL0     C72748   7.684   2.478  -0.832  0.4319  0.2551 -0.2856
  528MOL0     C72749   7.833   2.523  -0.829 -0.9901 -0.8379  0.0170
  528MOL0     O72750   7.874   2.633  -0.912  0.3430  0.1739  0.0712
  528MOL0     C72751   7.915   2.591  -1.032  0.4505  0.8870  1.0366
  528MOL0     C72752   8.042   2.617  -1.068 -0.0922 -0.2141  0.2076
  528MOL0     C72753   8.096   2.594  -1.195 -0.5540  0.5151 -1.4511
  528MOL0     C72754   8.251   2.622  -1.216  0.2609  0.1716 -0.2850
  528MOL0     C72755   8.009   2.549  -1.297 -0.7491  0.5010 -0.0434
  528MOL0     C72756   8.051   2.522  -1.439  0.1640  1.1517  0.0817
  528MOL0     O72757   7.953   2.510  -1.538  0.5836  0.2593 -0.3950
  528MOL0     C72758   7.993   2.505  -1.666  0.8650 -0.7778  0.2198
  528MOL0     C72759   8.100   2.446  -1.728  0.5805  0.0145 -0.1133
  528MOL0     C72760   8.106   2.433  -1.868  1.2100 -1.5884  0.0654
  528MOL0     C72761   8.004   2.488  -1.952 -1.7566  0.3725 -0.4619
  528MOL0     O72762   8.037   2.476  -2.087 -0.4848 -0.1878  0.1064
  528MOL0     C72763   7.931   2.498  -2.189  0.1646  0.1057 -0.8897
  528MOL0     C72764   8.000   2.486  -2.334 -0.5631 -0.0409  0.4097
  528MOL0     C72765   7.991   2.335  -2.374  0.1682  0.3683 -0.1266
  528MOL0     C72766   8.069   2.306  -2.506  0.0378  1.1483 -0.5435
  528MOL0     C72767   8.062   2.155  -2.558 -0.5034  0.2498 -0.1634
  528MOL0     C72768   8.163   2.137  -2.672 -0.0905  1.1552  0.9153
  528MOL0     C72769   8.120   2.011  -2.755  0.7799 -0.1873  1.0093
  528MOL0     C72770   8.222   1.964  -2.855  0.6633 -0.6572  0.1782
  528MOL0    Cl72771   8.258   2.097  -2.973 -0.0722 -0.5041 -0.3071
  528MOL0     C72772   7.893   2.541  -1.885  0.1339  0.0329 -0.0011
  528MOL0     C72773   7.881   2.536  -1.746 -0.6557 -0.4877 -0.1739
  528MOL0     O72774   8.167   2.497  -1.456 -0.4457 -0.0441 -0.4710
  528MOL0     C72775   7.876   2.517  -1.262 -0.2627 -0.3451 -0.1338
  528MOL0     C72776   7.829   2.524  -1.132  0.0534 -0.7231 -0.2915
  528MOL0     N72777   7.568   2.394  -0.395 -0.2761 -0.3074  0.5485
  528MOL0     N72778   7.505   2.372  -0.289 -0.0573 -0.0924 -1.3568
  528MOL0     C72779   6.738   1.693   0.267 -0.0157  0.7652  0.9296
  528MOL0     C72780   6.633   1.595   0.264 -0.0811 -0.5086 -0.2625
  528MOL0     C72781   6.276   1.326   0.474 -0.0788 -0.4567  0.7634
  528MOL0     C72782   6.264   1.226   0.365  0.1972 -0.6829  0.3246
  528MOL0     C72783   6.201   1.100   0.391  1.0435 -0.7101 -0.2932
  528MOL0     C72784   6.151   1.064   0.513 -0.1423 -0.2987  0.7735
  528MOL0     O72785   6.108   0.939   0.552  0.0834 -0.0708  0.1355
  528MOL0     C72786   6.102   0.828   0.460 -0.2921  0.5253  0.3877
  528MOL0     C72787   6.039   0.718   0.557  0.2101 -0.2621  0.7294
  528MOL0     C72788   6.043   0.590   0.479  0.9169  0.3245 -0.5780
  528MOL0     C72789   5.983   0.477   0.567  0.7340 -0.8878 -0.1566
  528MOL0     C72790   5.835   0.486   0.568  0.2484  0.1344 -1.4571
  528MOL0     C72791   5.714   0.486   0.555  0.0954  0.1649 -0.1054
  528MOL0     C72792   6.160   1.160   0.612  0.1145 -0.1111 -0.0588
  528MOL0     C72793   6.219   1.286   0.598  0.8896  0.2394  0.5002
  528MOL0     C72794   6.212   1.380   0.717 -0.1749  0.0520 -0.5730
  528MOL0     H72795   6.535   1.623   0.593  1.9796 -1.8811  1.4901
  528MOL0     H72796   6.734   1.744   0.604  0.6939 -1.1603 -0.6090
  528MOL0     H72797   6.993   1.967   0.497 -0.3577 -1.5503  0.4201
  528MOL0     H72798   6.810   1.980   0.499 -1.0223  0.0620 -1.8433
  528MOL0     H72799   6.826   2.024   0.244 -2.4721  2.4548  1.5142
  528MOL0     H72800   6.901   2.151   0.336  2.5861  0.2605  2.2297
  528MOL0     H72801   7.133   2.071   0.284 -0.3594  1.6257 -0.2999
  528MOL0     H72802   7.066   1.918   0.224  0.5907  0.5451  0.8881
  528MOL0     H72803   6.968   2.031   0.027  0.0481  0.0762 -0.5123
  528MOL0     H72804   6.995   2.188   0.104  1.5026  0.4666 -0.5283
  528MOL0     H72805   7.231   1.995   0.036  0.8756  0.0836  1.6286
  528MOL0     H72806   7.230   2.172   0.035 -2.2069  1.3899 -0.0717
  528MOL0     H72807   7.093   1.995  -0.160  2.8385 -1.5177 -0.8355
  528MOL0     H72808   7.047   2.170  -0.148 -1.4153 -3.1113  1.6200
  528MOL0     H72809   7.203   2.113  -0.333 -2.3580  1.9137  0.6207
  528MOL0     H72810   7.334   2.089  -0.219  0.8051  1.2873  0.0524
  528MOL0     H72811   7.173   2.341  -0.225  0.1279 -0.6167  0.6956
  528MOL0     H72812   7.311   2.318  -0.122  1.4209  4.7888 -0.7623
  528MOL0     H72813   7.277   2.326  -0.523  1.0368  1.2694 -1.1165
  528MOL0     H72814   7.440   2.491  -0.684 -0.5463  0.5251  1.6137
  528MOL0     H72815   7.473   2.319  -0.710 -0.8164  0.6448 -0.1844
  528MOL0     H72816   7.694   2.493  -0.614 -0.2118 -0.1671  0.8686
  528MOL0     H72817   7.711   2.334  -0.689 -0.2474 -0.4075 -1.7358
  528MOL0     H72818   7.655   2.416  -0.917 -1.9300  1.5496 -0.5144
  528MOL0     H72819   7.624   2.568  -0.853  2.4428  1.2526 -2.2852
  528MOL0     H72820   7.873   2.550  -0.730 -2.3237 -2.1573  0.9611
  528MOL0     H72821   7.904   2.442  -0.850  1.8917  0.9158  2.2625
  528MOL0     H72822   8.101   2.661  -0.989  3.1451  0.0536 -2.1593
  528MOL0     H72823   8.306   2.530  -1.238 -2.5524 -2.6121  3.0676
  528MOL0     H72824   8.304   2.663  -1.130  3.4388 -1.5987 -1.2589
  528MOL0     H72825   8.272   2.691  -1.298  2.7426 -1.0857 -0.8025
  528MOL0     H72826   8.179   2.399  -1.670 -0.4497 -2.2737 -0.4391
  528MOL0     H72827   8.180   2.377  -1.924  1.9393 -1.8339  1.2233
  528MOL0     H72828   7.854   2.421  -2.189 -1.6672  1.8730 -0.7659
  528MOL0     H72829   7.896   2.600  -2.172  1.5923  0.4027  0.6877
  528MOL0     H72830   7.946   2.548  -2.406  2.0648  1.0242 -0.7904
  528MOL0     H72831   8.100   2.530  -2.339 -0.8007  0.5412  0.7171
  528MOL0     H72832   7.885   2.313  -2.386 -0.5997  1.7454  3.0047
  528MOL0     H72833   8.022   2.274  -2.289  1.0993  0.8386 -0.1108
  528MOL0     H72834   8.171   2.334  -2.481 -0.5663  3.9857 -0.9140
  528MOL0     H72835   8.029   2.375  -2.581 -2.8806 -0.0378 -0.2304
  528MOL0     H72836   8.088   2.090  -2.475 -0.5134 -0.2991 -0.5895
  528MOL0     H72837   7.958   2.136  -2.588 -0.7917 -2.0217  1.9910
  528MOL0     H72838   8.265   2.134  -2.634  0.7571 -4.4949 -0.9346
  528MOL0     H72839   8.153   2.225  -2.738  1.0824  0.7941  0.2246
  528MOL0     H72840   8.028   2.044  -2.804  2.3120  0.3026 -1.7224
  528MOL0     H72841   8.095   1.932  -2.684  1.6262  1.0083  2.7427
  528MOL0     H72842   8.182   1.879  -2.911 -0.1935  0.4637 -0.9568
  528MOL0     H72843   8.315   1.932  -2.806  0.3938 -1.8534 -0.0466
  528MOL0     H72844   7.816   2.578  -1.952  0.6230 -1.2937 -1.3583
  528MOL0     H72845   7.789   2.576  -1.706  1.2820  3.0977  1.1705
  528MOL0     H72846   7.803   2.481  -1.334 -0.1131  1.5566 -1.2950
  528MOL0     H72847   7.727   2.491  -1.115  0.9144 -3.2373  0.3165
  528MOL0     H72848   6.788   1.718   0.174 -2.2741 -0.7431 -0.8146
  528MOL0     H72849   6.606   1.562   0.164  1.5363  0.2681 -0.9902
  528MOL0     H72850   6.319   1.237   0.272  2.0760 -4.0400  0.8847
  528MOL0     H72851   6.196   1.013   0.326  1.2098  0.3692 -1.8190
  528MOL0     H72852   6.037   0.841   0.373  0.6061  0.5797 -0.2926
  528MOL0     H72853   6.198   0.795   0.420 -0.3277  1.7359 -0.7663
  528MOL0     H72854   5.936   0.736   0.589  0.1501  2.4059 -0.6651
  528MOL0     H72855   6.097   0.722   0.649  3.0856  3.1047 -0.9652
  528MOL0     H72856   5.987   0.602   0.386  0.1370  2.5395  0.1163
  528MOL0     H72857   6.144   0.557   0.451  1.0716 -2.0552  2.2850
  528MOL0     H72858   6.016   0.479   0.672 -0.1815  0.3169  0.1222
  528MOL0     H72859   6.009   0.378   0.527  0.0784 -0.4903 -1.6364
  528MOL0     H72860   5.608   0.475   0.546  0.1489 -0.3814 -0.1176
  528MOL0     H72861   6.118   1.130   0.707  3.0905  0.7791  1.6938
  528MOL0     H72862   6.185   1.484   0.697  2.3393  0.9153  0.1070
  528MOL0     H72863   6.150   1.334   0.795 -0.6943  1.3319 -0.2090
  528MOL0     H72864   6.315   1.388   0.753 -0.5799  1.6299  0.3079
  529MOL0     O72865   5.013   7.393   1.902  0.0784  0.4191 -0.4833
  529MOL0     C72866   5.019   7.472   1.802  0.5182  0.2114 -0.1128
  529MOL0     O72867   5.141   7.510   1.735 -0.5704 -0.5475  0.2490
  529MOL0     C72868   5.256   7.475   1.798 -0.6313 -1.5309  0.2962
  529MOL0     C72869   5.323   7.563   1.880 -0.7251  0.4531  0.0490
  529MOL0     C72870   5.449   7.530   1.933 -0.2993 -0.2630 -0.9731
  529MOL0     C72871   5.513   7.409   1.904  0.9568 -0.6034 -1.7245
  529MOL0     O72872   5.632   7.361   1.958  0.2046  0.3352 -0.3595
  529MOL0     C72873   5.723   7.440   2.023 -0.0784 -0.6319 -0.0585
  529MOL0     C72874   5.851   7.357   2.033 -1.4746 -0.0331 -0.0522
  529MOL0     C72875   5.978   7.439   2.074  0.3552 -0.6538  0.5424
  529MOL0     C72876   6.094   7.332   2.097 -0.3845 -0.7604 -0.0009
  529MOL0     C72877   6.172   7.328   1.956  0.2175 -0.4922 -0.0897
  529MOL0     C72878   6.277   7.217   1.957 -0.8330  0.9914 -1.1871
  529MOL0     C72879   6.348   7.212   1.823  1.0570 -0.6739  0.2022
  529MOL0     C72880   6.252   7.163   1.712  0.5490  0.8271  0.1136
  529MOL0     N72881   6.312   7.111   1.589 -0.5883  0.1366  0.4605
  529MOL0     C72882   6.348   7.163   1.467 -0.0777  0.8257  0.0187
  529MOL0     C72883   6.431   7.069   1.408 -0.3091 -0.1861 -0.4768
  529MOL0     C72884   6.527   7.096   1.296  0.9145  0.6330  0.3194
  529MOL0     C72885   6.423   7.111   1.176 -0.3212  1.2805  0.5090
  529MOL0     C72886   6.494   7.096   1.039 -0.4896 -0.8295  0.5208
  529MOL0     C72887   6.403   7.071   0.921 -0.6873  0.5771 -0.0089
  529MOL0     O72888   6.479   7.070   0.800  0.1938  0.0625  0.1837
  529MOL0     C72889   6.545   7.190   0.768  0.1800 -0.4792  0.1570
  529MOL0     C72890   6.672   7.181   0.696 -0.2119 -0.6359 -0.2283
  529MOL0     C72891   6.748   7.298   0.659  0.1975  0.5674  0.7147
  529MOL0     C72892   6.869   7.295   0.582  0.2320 -0.1326  1.0049
  529MOL0     C72893   6.699   7.429   0.695  0.1266  0.3608 -0.5072
  529MOL0     C72894   6.765   7.562   0.663 -0.5718 -0.6974 -0.2699
  529MOL0     O72895   6.905   7.576   0.622  0.1316  0.2117 -0.5735
  529MOL0     C72896   6.962   7.696   0.586  0.3330  0.7281 -0.2646
  529MOL0     C72897   7.082   7.726   0.636 -0.8982 -1.0110 -0.0266
  529MOL0     C72898   7.133   7.857   0.620 -0.9815  0.0461  0.0937
  529MOL0     C72899   7.075   7.952   0.537  1.2953  0.3377 -0.2856
  529MOL0     O72900   7.114   8.084   0.516 -0.9713 -0.2277 -0.1100
  529MOL0     C72901   7.257   8.111   0.503 -1.4560  0.2590  0.1863
  529MOL0     C72902   7.318   8.034   0.393 -0.6623  0.2779 -0.5098
  529MOL0     C72903   7.288   8.097   0.256  0.1117  0.9072 -0.3013
  529MOL0     C72904   7.351   8.000   0.149 -0.6728 -0.3454  0.0300
  529MOL0     C72905   7.347   8.076   0.018 -0.9573  0.3567  0.9934
  529MOL0     C72906   7.487   8.114  -0.032  0.0792 -0.0679 -0.0688
  529MOL0     C72907   7.562   7.992  -0.093 -1.2320  0.1588 -0.1195
  529MOL0     C72908   7.689   8.052  -0.146 -0.8864 -0.8072  0.1610
  529MOL0    Cl72909   7.675   8.175  -0.279  0.2665  0.7460 -0.2181
  529MOL0     C72910   6.952   7.911   0.478 -0.3402 -0.8754  0.6509
  529MOL0     C72911   6.898   7.787   0.507  0.6515 -0.9553  0.4008
  529MOL0     O72912   6.696   7.658   0.689 -0.3806 -0.3736  0.1071
  529MOL0     C72913   6.576   7.429   0.763  0.1387 -0.0683  0.1279
  529MOL0     C72914   6.501   7.319   0.799  0.0741  0.5621 -0.1649
  529MOL0     N72915   6.419   6.953   1.489 -0.5347 -0.2455 -0.9711
  529MOL0     N72916   6.360   6.982   1.597 -0.2414  0.4965  0.1245
  529MOL0     C72917   5.439   7.321   1.819 -0.1857 -0.0577  0.0664
  529MOL0     C72918   5.311   7.350   1.779  0.0046  0.0649 -0.7620
  529MOL0     C72919   4.884   7.535   1.758  0.7388 -0.5430 -0.9381
  529MOL0     C72920   4.759   7.509   1.824  0.3475 -1.2605  0.0032
  529MOL0     C72921   4.644   7.580   1.793  0.6481  0.3367  0.9686
  529MOL0     C72922   4.628   7.655   1.678  0.8584 -0.8408 -0.0030
  529MOL0     O72923   4.503   7.716   1.664 -0.4252 -0.2676  0.5075
  529MOL0     C72924   4.507   7.827   1.572  0.1240 -0.9645 -0.2828
  529MOL0     C72925   4.588   7.945   1.623 -0.8518  0.9957 -0.9267
  529MOL0     C72926   4.509   8.008   1.733  0.1028 -0.6137 -0.6526
  529MOL0     C72927   4.574   8.131   1.795 -0.4670 -0.9718 -0.7116
  529MOL0     C72928   4.493   8.161   1.918  0.0595 -0.2114 -0.1901
  529MOL0     C72929   4.422   8.177   2.014  0.4028  0.0443  0.3392
  529MOL0     C72930   4.746   7.662   1.593 -0.6705 -0.1397  0.3439
  529MOL0     C72931   4.867   7.619   1.642  0.1129  0.6223 -0.3055
  529MOL0     C72932   4.986   7.664   1.557  0.5373  0.6576 -0.3795
  529MOL0     H72933   5.291   7.666   1.893 -2.6345 -0.0621 -0.3028
  529MOL0     H72934   5.510   7.610   1.975 -0.2953 -0.9829  0.4382
  529MOL0     H72935   5.692   7.485   2.117 -2.7612  0.4044 -1.3296
  529MOL0     H72936   5.752   7.525   1.960  3.7427 -0.0376  2.1655
  529MOL0     H72937   5.856   7.260   2.084  2.5163 -0.7693 -1.4999
  529MOL0     H72938   5.870   7.335   1.927  1.1089  1.7697 -0.0524
  529MOL0     H72939   5.994   7.523   2.006 -1.6809  0.2172  1.0713
  529MOL0     H72940   5.940   7.505   2.153 -0.6658  0.8253 -1.1115
  529MOL0     H72941   6.158   7.382   2.170 -3.0134  1.6378  0.8605
  529MOL0     H72942   6.056   7.237   2.135 -0.3692 -0.1180  1.7108
  529MOL0     H72943   6.213   7.426   1.932  1.2922 -0.8334  0.2785
  529MOL0     H72944   6.097   7.314   1.877 -3.0422  0.9457  2.5186
  529MOL0     H72945   6.350   7.238   2.036 -1.2130 -2.3737  0.2359
  529MOL0     H72946   6.232   7.122   1.989  0.2599  0.9932  0.4725
  529MOL0     H72947   6.428   7.138   1.818 -0.6093 -2.4320 -1.9076
  529MOL0     H72948   6.389   7.310   1.798 -0.3278 -0.4165 -1.2358
  529MOL0     H72949   6.202   7.078   1.760  0.5554  1.8810  2.1186
  529MOL0     H72950   6.179   7.238   1.681  0.0946  0.0224 -0.8135
  529MOL0     H72951   6.326   7.260   1.423  1.6422  1.8637  1.3183
  529MOL0     H72952   6.584   7.004   1.278 -1.6814 -1.2918  1.3086
  529MOL0     H72953   6.589   7.185   1.312 -1.6057  2.6468 -0.4088
  529MOL0     H72954   6.364   7.020   1.163  1.1003  0.4958 -0.7917
  529MOL0     H72955   6.357   7.198   1.186 -2.4057  0.0288 -1.3433
  529MOL0     H72956   6.559   7.182   1.018 -1.6446 -0.3330 -1.1824
  529MOL0     H72957   6.571   7.019   1.040  2.9685  2.3121  1.5839
  529MOL0     H72958   6.356   6.974   0.940  4.1531 -1.4571  3.4601
  529MOL0     H72959   6.328   7.151   0.917 -2.8584 -1.1534  2.4049
  529MOL0     H72960   6.708   7.085   0.660 -0.0433 -0.8704  0.5418
  529MOL0     H72961   6.870   7.347   0.485  0.5521 -4.2726 -1.4261
  529MOL0     H72962   6.905   7.195   0.558  0.1230 -0.4259  2.0030
  529MOL0     H72963   6.953   7.334   0.641 -0.1664  1.0633  0.8188
  529MOL0     H72964   7.130   7.651   0.698  2.2603  1.7110  1.1472
  529MOL0     H72965   7.228   7.888   0.662  0.0764 -0.1752 -2.0119
  529MOL0     H72966   7.273   8.219   0.492  0.6365  0.2313  2.1899
  529MOL0     H72967   7.313   8.089   0.595 -1.1954  0.3335  0.0449
  529MOL0     H72968   7.426   8.037   0.410 -1.0424 -0.6745  2.9687
  529MOL0     H72969   7.278   7.932   0.388  0.9848 -0.4881  0.8229
  529MOL0     H72970   7.329   8.198   0.252 -3.0421  2.2647 -1.6093
  529MOL0     H72971   7.182   8.100   0.229 -0.2161 -1.1067  0.5491
  529MOL0     H72972   7.298   7.904   0.147  0.6585 -1.1565  1.2496
  529MOL0     H72973   7.456   7.981   0.173 -1.3762 -0.7284  3.2533
  529MOL0     H72974   7.287   8.028  -0.060  0.9969 -0.7155  0.0730
  529MOL0     H72975   7.293   8.171   0.031  0.4642  1.3073  0.2348
  529MOL0     H72976   7.541   8.160   0.051 -0.6189  0.8923 -0.1401
  529MOL0     H72977   7.487   8.197  -0.103  0.9316  0.6950  0.7970
  529MOL0     H72978   7.513   7.950  -0.182 -0.5881 -1.4217  0.2368
  529MOL0     H72979   7.591   7.911  -0.026  0.3602  0.5133 -0.3467
  529MOL0     H72980   7.757   7.980  -0.192  1.2101 -0.7087  2.8693
  529MOL0     H72981   7.739   8.085  -0.055 -0.1313 -1.2958 -0.0681
  529MOL0     H72982   6.896   7.966   0.402  1.1481 -1.7567 -1.1670
  529MOL0     H72983   6.796   7.761   0.480 -0.3629 -0.1379  3.1386
  529MOL0     H72984   6.523   7.521   0.782  4.0364  2.9410 -2.1738
  529MOL0     H72985   6.407   7.330   0.852  0.1675  2.1999 -0.2942
  529MOL0     H72986   5.475   7.222   1.795 -2.9787 -0.6988 -2.0193
  529MOL0     H72987   5.259   7.279   1.715  0.4155  0.9922 -2.1646
  529MOL0     H72988   4.748   7.433   1.900 -3.9830 -2.2517 -1.3389
  529MOL0     H72989   4.553   7.553   1.845 -1.7251  2.0803 -1.9109
  529MOL0     H72990   4.552   7.806   1.475  1.4390 -0.8641  0.2854
  529MOL0     H72991   4.402   7.857   1.564 -0.6290 -3.4673 -0.6054
  529MOL0     H72992   4.596   8.017   1.541  1.4286 -0.4765 -2.0927
  529MOL0     H72993   4.691   7.929   1.656 -2.3022 -0.1806  3.7677
  529MOL0     H72994   4.410   8.038   1.698  0.2333 -1.6781 -2.0183
  529MOL0     H72995   4.492   7.938   1.814 -0.3901  1.0833  0.7726
  529MOL0     H72996   4.573   8.217   1.728  2.4481  0.0595  0.4436
  529MOL0     H72997   4.679   8.110   1.816  0.9656  2.4517 -3.3511
  529MOL0     H72998   4.351   8.186   2.093 -1.3504  0.3575 -1.2070
  529MOL0     H72999   4.749   7.688   1.488  3.2614 -0.6745  0.1915
  529MOL0     H73000   4.954   7.724   1.471 -1.5265 -1.0339 -0.8510
  529MOL0     H73001   5.046   7.739   1.610 -0.5267  0.3261  1.3613
  529MOL0     H73002   5.045   7.582   1.516  3.1370  2.6275 -0.8877
  530MOL0     O73003   4.745   3.065   1.819  0.4209  0.3272 -0.9100
  530MOL0     C73004   4.812   3.145   1.761  1.0502  0.2090  0.2784
  530MOL0     O73005   4.801   3.160   1.625  0.4627 -0.0413 -0.2863
  530MOL0     C73006   4.692   3.099   1.565 -0.0179 -0.1273  1.2665
  530MOL0     C73007   4.720   2.990   1.484 -0.2781  0.1467  0.2815
  530MOL0     C73008   4.618   2.934   1.410 -0.1338  0.1776  0.2864
  530MOL0     C73009   4.495   2.977   1.403  0.3974 -0.4212  0.2298
  530MOL0     O73010   4.412   2.916   1.310  0.6494 -0.5819  0.1446
  530MOL0     C73011   4.266   2.917   1.334  0.3534 -0.0559  0.1600
  530MOL0     C73012   4.186   3.007   1.250  0.1018 -0.7599  0.4680
  530MOL0     C73013   4.211   3.011   1.092 -0.8652  0.6736 -0.1482
  530MOL0     C73014   4.187   2.876   1.031  0.8697  0.5988  0.1224
  530MOL0     C73015   4.228   2.869   0.894 -0.7888 -0.8190  0.2502
  530MOL0     C73016   4.148   2.938   0.776  0.3085  0.9707 -0.6090
  530MOL0     C73017   4.179   3.081   0.742 -0.6627  0.0356 -0.7829
  530MOL0     C73018   4.319   3.105   0.677 -0.9123 -0.2814  0.6159
  530MOL0     N73019   4.351   2.999   0.584 -0.8665  0.0533 -0.3817
  530MOL0     C73020   4.319   2.990   0.452  0.4170  0.1840  0.1516
  530MOL0     C73021   4.359   2.862   0.422 -0.5065 -1.6362 -0.4657
  530MOL0     C73022   4.328   2.815   0.288 -0.7451 -0.3825  0.0183
  530MOL0     C73023   4.392   2.677   0.262 -0.5533 -0.7552 -1.1319
  530MOL0     C73024   4.353   2.639   0.115 -0.2213 -0.6508 -0.5509
  530MOL0     C73025   4.268   2.510   0.108  0.1182  0.8884 -0.5337
  530MOL0     O73026   4.236   2.476  -0.026  0.7486 -0.6675 -0.0881
  530MOL0     C73027   4.138   2.386  -0.057  1.3720  0.0931  0.0614
  530MOL0     C73028   4.111   2.347  -0.190  0.7807 -1.3225 -0.3938
  530MOL0     C73029   3.998   2.271  -0.231  0.9639 -0.5622 -0.7292
  530MOL0     C73030   3.951   2.274  -0.378 -0.3809  0.8385  0.4788
  530MOL0     C73031   3.926   2.219  -0.124 -0.0769 -0.1908 -0.7169
  530MOL0     C73032   3.796   2.145  -0.142  0.4919  0.1016  0.1683
  530MOL0     O73033   3.700   2.173  -0.045  0.1180  0.2137  0.2579
  530MOL0     C73034   3.602   2.080  -0.020  0.2321 -0.9106 -0.0626
  530MOL0     C73035   3.530   2.024  -0.124  0.1238  0.2002  0.5682
  530MOL0     C73036   3.418   1.941  -0.102  0.3438  0.6778  0.0689
  530MOL0     C73037   3.374   1.918   0.032 -0.0031  0.2617 -0.8140
  530MOL0     O73038   3.277   1.829   0.052 -0.9013 -0.2621  0.1537
  530MOL0     C73039   3.163   1.891   0.108 -0.9075  0.1005  0.0370
  530MOL0     C73040   3.035   1.799   0.136 -0.2264  0.6147 -0.7812
  530MOL0     C73041   3.007   1.692   0.025  0.4370  0.7368  0.0263
  530MOL0     C73042   2.875   1.611   0.055 -0.1580 -0.6903  0.4424
  530MOL0     C73043   2.827   1.529  -0.059  0.2838  0.5417 -0.1997
  530MOL0     C73044   2.900   1.387  -0.073 -0.4303  0.1848 -1.0164
  530MOL0     C73045   2.816   1.313  -0.180  0.6527  0.9213 -0.4706
  530MOL0     C73046   2.878   1.179  -0.232  1.0372  0.6873 -0.4570
  530MOL0    Cl73047   2.732   1.106  -0.316  0.5703  0.5447  0.8272
  530MOL0     C73048   3.452   1.969   0.133 -0.6596 -0.2449 -0.3896
  530MOL0     C73049   3.569   2.049   0.112  0.0209  0.2752 -0.5116
  530MOL0     O73050   3.790   2.055  -0.231  0.2372 -0.4308  0.2554
  530MOL0     C73051   3.957   2.239   0.008 -0.1212 -0.0010 -1.1670
  530MOL0     C73052   4.058   2.323   0.045 -0.6431  0.2314  0.2155
  530MOL0     N73053   4.422   2.808   0.529 -0.6667  0.5900  0.1259
  530MOL0     N73054   4.432   2.894   0.621  0.6004 -0.2792 -1.0551
  530MOL0     C73055   4.459   3.085   1.488  0.1122  0.0694  0.4476
  530MOL0     C73056   4.556   3.140   1.571 -0.9101 -0.5297 -0.6726
  530MOL0     C73057   4.916   3.218   1.828 -0.0844  0.1487 -0.3206
  530MOL0     C73058   5.020   3.268   1.744 -0.1587  0.4030 -0.0526
  530MOL0     C73059   5.122   3.350   1.802 -0.4638 -0.0074  0.3316
  530MOL0     C73060   5.130   3.366   1.939  0.3025 -0.0150  0.0910
  530MOL0     O73061   5.244   3.423   1.998  0.2981  0.5747 -0.1627
  530MOL0     C73062   5.347   3.504   1.939 -0.0489  0.1482  0.1620
  530MOL0     C73063   5.296   3.651   1.964  1.1829 -0.3672 -0.0632
  530MOL0     C73064   5.262   3.691   2.102  0.6041  0.0764 -0.9580
  530MOL0     C73065   5.379   3.749   2.186 -0.4842 -0.0393 -0.3840
  530MOL0     C73066   5.328   3.848   2.276 -0.2775 -0.3235 -0.7914
  530MOL0     C73067   5.274   3.933   2.341 -0.6234 -0.7528  0.2354
  530MOL0     C73068   5.025   3.331   2.018 -0.4174 -0.2469 -0.4345
  530MOL0     C73069   4.921   3.252   1.959 -0.2563  0.2212  0.5287
  530MOL0     C73070   4.815   3.211   2.055 -0.6757 -0.5213 -0.4308
  530MOL0     H73071   4.821   2.954   1.467  0.9048  0.9548  4.6007
  530MOL0     H73072   4.636   2.863   1.330 -1.8054  0.7116 -0.6040
  530MOL0     H73073   4.231   2.942   1.435 -1.3895 -2.2238  0.1602
  530MOL0     H73074   4.242   2.814   1.304 -2.2390  0.4252  0.3544
  530MOL0     H73075   4.079   2.989   1.263 -0.5237  1.4204 -0.9978
  530MOL0     H73076   4.184   3.109   1.289  0.6957 -0.1266 -1.0756
  530MOL0     H73077   4.145   3.086   1.049 -3.9491 -1.2985  0.7834
  530MOL0     H73078   4.318   3.032   1.079 -0.8358  1.5340  1.2842
  530MOL0     H73079   4.235   2.792   1.082 -0.7150 -2.0830 -2.4903
  530MOL0     H73080   4.079   2.858   1.018  1.0366  0.5427 -1.3823
  530MOL0     H73081   4.214   2.764   0.866 -5.2637 -0.0008 -1.3030
  530MOL0     H73082   4.336   2.888   0.897 -1.1292  1.2318  2.4182
  530MOL0     H73083   4.157   2.875   0.688  0.3521 -1.1083  0.8028
  530MOL0     H73084   4.050   2.927   0.823  0.8841  0.3528  0.5103
  530MOL0     H73085   4.194   3.128   0.840  3.1708 -0.3184 -1.0355
  530MOL0     H73086   4.101   3.130   0.684 -2.3362 -0.7226  0.7437
  530MOL0     H73087   4.335   3.202   0.629  1.5405  0.3449  2.5081
  530MOL0     H73088   4.396   3.090   0.753  0.1509 -0.6694 -0.5030
  530MOL0     H73089   4.262   3.064   0.397  3.8094  2.5789 -0.4389
  530MOL0     H73090   4.369   2.884   0.213 -1.9982  0.1932 -0.1530
  530MOL0     H73091   4.219   2.808   0.288 -0.7652 -0.1705  1.0648
  530MOL0     H73092   4.500   2.692   0.261 -0.4717 -0.9026  0.7600
  530MOL0     H73093   4.361   2.598   0.332  2.5240 -1.6937 -0.6777
  530MOL0     H73094   4.309   2.722   0.059 -1.6641 -0.8750  0.1869
  530MOL0     H73095   4.447   2.616   0.065 -0.8291 -1.3689 -1.3977
  530MOL0     H73096   4.328   2.429   0.152  1.9381  2.2107 -0.4714
  530MOL0     H73097   4.176   2.526   0.166 -0.1834  0.3007 -0.8366
  530MOL0     H73098   4.185   2.398  -0.250 -1.0024  2.8689  0.6406
  530MOL0     H73099   3.852   2.317  -0.392  0.3519  1.7162 -2.9121
  530MOL0     H73100   3.949   2.171  -0.415  0.5637  1.0842 -0.3081
  530MOL0     H73101   4.019   2.334  -0.439 -0.4596 -1.6457 -2.2846
  530MOL0     H73102   3.549   2.042  -0.229 -2.4006  1.7126  0.2723
  530MOL0     H73103   3.359   1.909  -0.187 -0.9450 -1.7975  1.7691
  530MOL0     H73104   3.198   1.940   0.199 -1.1487 -0.5458  0.4861
  530MOL0     H73105   3.130   1.967   0.036 -1.8722 -1.8733 -1.7357
  530MOL0     H73106   3.054   1.747   0.231  2.3364 -0.2065 -1.6721
  530MOL0     H73107   2.945   1.855   0.162  1.1715  2.9339 -0.6948
  530MOL0     H73108   3.076   1.608   0.016 -0.2101  0.2535 -0.5491
  530MOL0     H73109   3.006   1.745  -0.071  2.3689  0.6923 -0.0634
  530MOL0     H73110   2.802   1.692   0.057 -0.7515 -1.0473 -2.3485
  530MOL0     H73111   2.887   1.552   0.146  5.8030 -2.3859 -0.9670
  530MOL0     H73112   2.720   1.513  -0.048  0.3003  1.1901  1.0253
  530MOL0     H73113   2.835   1.570  -0.160 -0.0315  0.5988 -0.2018
  530MOL0     H73114   2.894   1.333   0.022 -0.4588  1.3669 -0.3267
  530MOL0     H73115   3.008   1.393  -0.091 -0.4828  1.3018 -0.9800
  530MOL0     H73116   2.804   1.378  -0.267 -3.8451  1.4321  0.2986
  530MOL0     H73117   2.711   1.298  -0.150 -0.5400 -0.7965 -4.7468
  530MOL0     H73118   2.906   1.118  -0.146 -0.0624 -0.5747 -0.9555
  530MOL0     H73119   2.965   1.190  -0.298  2.1683 -0.3244  0.7963
  530MOL0     H73120   3.428   1.954   0.238 -1.4467  2.6834 -0.0405
  530MOL0     H73121   3.635   2.087   0.189  1.0218 -2.1732 -0.0671
  530MOL0     H73122   3.899   2.208   0.094  3.6336 -0.5263  1.4283
  530MOL0     H73123   4.074   2.346   0.150 -1.9968  0.6839  0.3497
  530MOL0     H73124   4.361   3.132   1.485  1.3209  2.6837 -0.6164
  530MOL0     H73125   4.549   3.224   1.639 -0.2218 -2.6677  2.3098
  530MOL0     H73126   5.031   3.235   1.642  0.4044 -0.1530  0.1766
  530MOL0     H73127   5.203   3.381   1.736  0.6405 -3.8853 -0.3347
  530MOL0     H73128   5.448   3.489   1.978  0.2873  1.6861 -0.0679
  530MOL0     H73129   5.364   3.486   1.832  0.2747 -0.6841  0.3479
  530MOL0     H73130   5.220   3.665   1.887  2.2962 -3.9312 -2.0536
  530MOL0     H73131   5.379   3.716   1.934  0.2012  0.8194 -0.2662
  530MOL0     H73132   5.178   3.762   2.100  0.2009 -0.3943 -0.8218
  530MOL0     H73133   5.221   3.607   2.159 -1.5568  1.6455 -0.0567
  530MOL0     H73134   5.465   3.781   2.125 -1.2810 -1.5515 -2.4353
  530MOL0     H73135   5.405   3.663   2.248 -0.4999 -0.4874 -0.9848
  530MOL0     H73136   5.212   4.013   2.377  2.5101  3.6970 -2.9720
  530MOL0     H73137   5.041   3.350   2.123  6.1354 -1.7426 -0.7201
  530MOL0     H73138   4.713   3.218   2.016 -1.3703 -1.8664  1.0248
  530MOL0     H73139   4.830   3.106   2.082 -1.5537  0.2251  3.5678
  530MOL0     H73140   4.816   3.279   2.141 -0.5562 -0.8505 -0.1702
  531MOL0     O73141   2.648   1.396   5.874  0.5022 -0.0953 -0.7027
  531MOL0     C73142   2.739   1.316   5.844  0.0896 -0.5487  0.3187
  531MOL0     O73143   2.865   1.352   5.810  1.1639  0.0368 -0.3335
  531MOL0     C73144   2.913   1.470   5.849  0.0271 -0.3332 -1.3539
  531MOL0     C73145   2.979   1.552   5.761 -1.1212 -0.1000  0.5846
  531MOL0     C73146   3.010   1.680   5.796 -0.2655  0.4308 -0.1408
  531MOL0     C73147   2.996   1.730   5.923  0.0080 -0.3676 -0.1559
  531MOL0     O73148   3.042   1.853   5.959 -0.2807 -1.4600  0.3527
  531MOL0     C73149   2.968   1.929   6.059 -0.6570 -0.3359  0.5683
  531MOL0     C73150   2.922   2.074   6.019 -0.1595  0.2796  0.6035
  531MOL0     C73151   3.035   2.181   6.020  0.5315  0.0026  0.1318
  531MOL0     C73152   2.977   2.318   6.013 -0.1426  0.5329 -0.9479
  531MOL0     C73153   3.037   2.422   6.093 -0.3388 -1.1859 -0.7946
  531MOL0     C73154   2.980   2.560   6.072  1.1148 -0.2193 -0.4299
  531MOL0     C73155   3.047   2.662   6.155 -0.7367  0.9848  0.2508
  531MOL0     C73156   3.021   2.637   6.301 -0.2183 -0.4242 -0.8171
  531MOL0     N73157   3.059   2.760   6.384 -0.5399 -0.3579 -0.3890
  531MOL0     C73158   3.004   2.889   6.395  0.0820  0.0751  1.0796
  531MOL0     C73159   3.090   2.960   6.466  0.0213  0.1427  0.4301
  531MOL0     C73160   3.073   3.112   6.498 -1.0297  0.3218  0.4560
  531MOL0     C73161   3.038   3.150   6.642 -0.7928  0.4479 -0.0545
  531MOL0     C73162   3.132   3.092   6.752 -1.2223 -0.2086 -0.5067
  531MOL0     C73163   3.284   3.139   6.735  0.3014  0.5520  0.8527
  531MOL0     O73164   3.290   3.279   6.743 -0.1809 -0.2179 -0.1809
  531MOL0     C73165   3.412   3.340   6.750 -0.5122  0.6875  0.0207
  531MOL0     C73166   3.412   3.471   6.763  0.2154 -1.0083  0.6128
  531MOL0     C73167   3.512   3.560   6.740  0.3802 -0.2274 -0.6384
  531MOL0     C73168   3.485   3.707   6.760 -0.6799 -0.5216  0.1717
  531MOL0     C73169   3.644   3.507   6.726  1.0092  1.0574  0.0090
  531MOL0     C73170   3.775   3.574   6.730 -0.6578 -0.5293  0.3297
  531MOL0     O73171   3.884   3.503   6.681 -0.5327 -0.5129 -0.3266
  531MOL0     C73172   4.004   3.569   6.676 -0.4577 -0.5571  0.6197
  531MOL0     C73173   4.118   3.508   6.713 -0.7446  0.5415  0.0185
  531MOL0     C73174   4.240   3.582   6.719  0.8328  0.4935  0.0930
  531MOL0     C73175   4.254   3.709   6.689  0.4769 -0.5245 -0.3110
  531MOL0     O73176   4.377   3.768   6.695 -0.1587  0.4593  0.2227
  531MOL0     C73177   4.500   3.699   6.749 -0.9023  0.1297  0.2250
  531MOL0     C73178   4.619   3.804   6.737  0.6606  1.0506  0.1423
  531MOL0     C73179   4.684   3.767   6.609 -0.1902 -0.1612  0.5045
  531MOL0     C73180   4.616   3.818   6.484  0.0109  0.1254 -0.4916
  531MOL0     C73181   4.685   3.758   6.363  0.6090 -0.1070 -0.2230
  531MOL0     C73182   4.621   3.813   6.234  0.2702 -0.1884 -0.3057
  531MOL0     C73183   4.713   3.814   6.116  0.9394 -0.5210 -0.7743
  531MOL0     C73184   4.668   3.922   6.013 -0.3337  0.8776 -0.6880
  531MOL0    Cl73185   4.780   3.921   5.877 -0.3229 -0.0468 -0.6341
  531MOL0     C73186   4.145   3.781   6.669  0.4581 -0.0079  0.1046
  531MOL0     C73187   4.022   3.711   6.654 -0.2522  0.5688 -0.0076
  531MOL0     O73188   3.768   3.691   6.772 -0.2268  0.5255  0.3862
  531MOL0     C73189   3.654   3.367   6.730 -0.6738 -0.0369 -0.8026
  531MOL0     C73190   3.540   3.279   6.735  0.4795  0.3085 -0.5880
  531MOL0     N73191   3.195   2.877   6.503  0.7954  0.5757 -0.0802
  531MOL0     N73192   3.173   2.755   6.461 -0.0668 -1.2956  0.5370
  531MOL0     C73193   2.952   1.638   6.029  0.4541  0.1891  0.2067
  531MOL0     C73194   2.909   1.509   5.988  0.6613 -0.0849  0.6002
  531MOL0     C73195   2.699   1.179   5.845 -0.1528 -0.4555 -0.0702
  531MOL0     C73196   2.806   1.086   5.863  0.0189 -0.3750 -0.2584
  531MOL0     C73197   2.784   0.950   5.878  0.1845 -0.6687  0.2784
  531MOL0     C73198   2.661   0.901   5.862  0.5687  0.1943  0.0518
  531MOL0     O73199   2.638   0.769   5.903  0.0738  0.1862  0.1473
  531MOL0     C73200   2.560   0.685   5.817 -0.1140 -0.7340  0.4586
  531MOL0     C73201   2.586   0.535   5.830  0.5617  0.7076 -0.4286
  531MOL0     C73202   2.469   0.448   5.795 -0.1328 -0.8139  0.9096
  531MOL0     C73203   2.505   0.304   5.745  0.0791  0.4957  0.2654
  531MOL0     C73204   2.383   0.243   5.691 -0.6648  0.5188 -0.2071
  531MOL0     C73205   2.274   0.223   5.644  0.2229  0.4869 -1.0398
  531MOL0     C73206   2.547   0.982   5.823 -0.0607 -0.1991  0.0123
  531MOL0     C73207   2.563   1.123   5.817 -0.1380 -0.4701 -0.4634
  531MOL0     C73208   2.435   1.199   5.772  0.0617 -0.2672 -0.0783
  531MOL0     H73209   3.002   1.516   5.661 -0.7217 -2.7728  1.5608
  531MOL0     H73210   3.064   1.745   5.728 -1.4005  0.9964 -0.5388
  531MOL0     H73211   3.019   1.926   6.157  0.8016  1.7298 -0.0416
  531MOL0     H73212   2.870   1.882   6.068 -1.5839  1.4888  0.3942
  531MOL0     H73213   2.871   2.066   5.923 -1.5896  0.3100  1.3302
  531MOL0     H73214   2.856   2.107   6.101  0.7705  0.0053  1.4892
  531MOL0     H73215   3.088   2.176   6.116  0.8954 -0.0783 -0.0688
  531MOL0     H73216   3.112   2.164   5.944  2.8412 -1.2311  2.5650
  531MOL0     H73217   2.971   2.352   5.909  0.3235 -0.6625 -1.3908
  531MOL0     H73218   2.883   2.315   6.068 -0.1123 -0.3328 -0.9261
  531MOL0     H73219   3.146   2.421   6.083 -0.1823 -2.1091  0.6408
  531MOL0     H73220   3.033   2.385   6.196  0.4122 -2.7531 -1.2977
  531MOL0     H73221   2.999   2.594   5.970  1.6481  1.6394  0.2482
  531MOL0     H73222   2.873   2.564   6.095  1.2998  5.4026  0.7948
  531MOL0     H73223   3.011   2.760   6.122 -2.8425 -0.1127 -0.9273
  531MOL0     H73224   3.151   2.637   6.135 -0.7984  0.8795  0.0557
  531MOL0     H73225   2.916   2.621   6.329  0.7447  0.1242  4.0802
  531MOL0     H73226   3.072   2.545   6.331  0.7322 -0.1983 -1.6670
  531MOL0     H73227   2.917   2.925   6.341  0.8485 -1.2205 -1.1674
  531MOL0     H73228   3.012   3.161   6.422 -1.5277 -2.6334 -1.2375
  531MOL0     H73229   3.176   3.137   6.470 -0.3149 -0.8826  1.8320
  531MOL0     H73230   3.034   3.259   6.648 -0.7229  0.5684 -1.7975
  531MOL0     H73231   2.935   3.115   6.654 -0.4710 -1.7358 -2.6830
  531MOL0     H73232   3.098   3.120   6.851 -1.3361  2.7556 -1.3097
  531MOL0     H73233   3.131   2.984   6.769  0.1322  0.1544  2.4647
  531MOL0     H73234   3.342   3.090   6.814  2.8496 -2.1596 -2.3835
  531MOL0     H73235   3.320   3.096   6.642 -0.3643  1.3621  0.2096
  531MOL0     H73236   3.311   3.511   6.769  1.4200  2.3848  0.5832
  531MOL0     H73237   3.542   3.773   6.694  0.7187 -0.0416  1.7853
  531MOL0     H73238   3.498   3.736   6.865 -3.5833 -1.2457  0.8116
  531MOL0     H73239   3.381   3.738   6.742 -1.0006 -0.6534  1.6718
  531MOL0     H73240   4.110   3.403   6.741  1.8349  0.5062  0.8753
  531MOL0     H73241   4.328   3.524   6.745  0.5013  0.7790  1.9605
  531MOL0     H73242   4.489   3.676   6.855 -3.6976 -3.8125 -0.6953
  531MOL0     H73243   4.526   3.608   6.693 -0.8737 -0.8713  1.7913
  531MOL0     H73244   4.588   3.909   6.736 -0.2560  0.7999 -1.3158
  531MOL0     H73245   4.685   3.784   6.822  2.0865  1.9226 -0.7167
  531MOL0     H73246   4.703   3.659   6.612  0.0592 -0.0982  2.6365
  531MOL0     H73247   4.777   3.823   6.624 -0.9994  0.7623  2.3806
  531MOL0     H73248   4.625   3.927   6.477 -0.3775  0.0714 -2.7914
  531MOL0     H73249   4.510   3.793   6.489  0.2975 -0.8002  2.8639
  531MOL0     H73250   4.788   3.795   6.372  1.1408 -0.7516 -2.7473
  531MOL0     H73251   4.690   3.649   6.356  0.5750 -0.2842  1.9821
  531MOL0     H73252   4.606   3.921   6.242  3.6280  0.4935 -1.6782
  531MOL0     H73253   4.519   3.774   6.228 -0.5640  0.6977  4.1412
  531MOL0     H73254   4.716   3.715   6.068 -0.1739 -0.7399 -0.4233
  531MOL0     H73255   4.810   3.854   6.146  0.7415 -1.0540  0.6743
  531MOL0     H73256   4.659   4.018   6.066 -1.5299  1.9696 -2.7285
  531MOL0     H73257   4.567   3.895   5.981 -1.0260  1.1635  1.1465
  531MOL0     H73258   4.136   3.887   6.649  1.9973  1.0430  4.0735
  531MOL0     H73259   3.936   3.771   6.627  0.1307  0.2979 -1.9455
  531MOL0     H73260   3.746   3.311   6.713  0.0893  1.2210 -0.9427
  531MOL0     H73261   3.551   3.172   6.719  0.9484  0.1399  0.7275
  531MOL0     H73262   2.953   1.665   6.134  1.7646  0.1119  0.2249
  531MOL0     H73263   2.857   1.449   6.062 -0.6434 -0.0230 -0.2295
  531MOL0     H73264   2.907   1.125   5.871  0.7619 -2.4061  1.5929
  531MOL0     H73265   2.862   0.894   5.928  0.2713  0.7927  1.8551
  531MOL0     H73266   2.456   0.693   5.851 -0.5289 -3.3401  0.0347
  531MOL0     H73267   2.566   0.713   5.711 -1.2098 -0.4122  0.4617
  531MOL0     H73268   2.615   0.508   5.932  1.6320 -0.6418 -1.0372
  531MOL0     H73269   2.665   0.493   5.766 -1.2261 -0.8539 -1.7323
  531MOL0     H73270   2.396   0.448   5.877  0.9863  2.2777  2.0560
  531MOL0     H73271   2.420   0.494   5.709  0.4445  1.8222  1.8946
  531MOL0     H73272   2.548   0.243   5.826 -0.1383 -1.2672 -0.8864
  531MOL0     H73273   2.580   0.316   5.667  0.5962  0.8335  0.8069
  531MOL0     H73274   2.175   0.198   5.611 -0.1163 -0.1197  0.3674
  531MOL0     H73275   2.450   0.933   5.816 -0.6739  0.8093  1.0193
  531MOL0     H73276   2.355   1.128   5.790 -0.8104  0.6634 -0.2003
  531MOL0     H73277   2.422   1.296   5.821  0.8179  1.9064 -3.7751
  531MOL0     H73278   2.422   1.222   5.665 -1.4484 -0.7564 -0.0183
  532MOL0     O73279   7.388   0.814  11.588 -0.2661  0.3141 -0.8425
  532MOL0     C73280   7.333   0.703  11.584  1.0029 -0.4918  0.7942
  532MOL0     O73281   7.392   0.590  11.538 -0.2833 -0.3858 -0.2096
  532MOL0     C73282   7.529   0.603  11.532  0.2926  1.0420 -0.0629
  532MOL0     C73283   7.580   0.659  11.420 -0.4002  0.0958  0.2141
  532MOL0     C73284   7.718   0.656  11.408 -0.7950  1.2517  0.5180
  532MOL0     C73285   7.806   0.602  11.495  0.1423  0.7581 -0.4883
  532MOL0     O73286   7.940   0.615  11.467  0.5804 -0.0775  0.6475
  532MOL0     C73287   8.035   0.645  11.566 -0.1203 -0.6427 -0.3043
  532MOL0     C73288   8.164   0.560  11.561 -0.1634  0.8355  0.4266
  532MOL0     C73289   8.121   0.408  11.573 -0.4425 -0.6540  0.2342
  532MOL0     C73290   8.238   0.319  11.545 -0.5396  0.2961  0.0977
  532MOL0     C73291   8.213   0.174  11.509  0.2666 -0.5597  0.1688
  532MOL0     C73292   8.106   0.167  11.401 -0.1198  0.7315  0.4709
  532MOL0     C73293   8.127   0.053  11.311  1.8754  0.4914 -0.0711
  532MOL0     C73294   8.049   0.046  11.186 -0.6538 -0.3429 -0.1300
  532MOL0     N73295   7.902   0.026  11.201 -0.9841 -0.1615  0.1526
  532MOL0     C73296   7.823   0.133  11.235 -0.0065  0.5585 -0.1833
  532MOL0     C73297   7.699   0.088  11.237 -0.0559 -0.1056  0.7366
  532MOL0     C73298   7.570   0.150  11.273 -0.2894 -0.5544 -0.6408
  532MOL0     C73299   7.543   0.155  11.425  0.4521  0.0593  0.0874
  532MOL0     C73300   7.447   0.280  11.448 -0.2834  0.8744  0.6901
  532MOL0     C73301   7.317   0.229  11.397 -0.3856  0.0878 -0.3106
  532MOL0     O73302   7.249   0.160  11.503 -1.0903 -0.8372  0.6619
  532MOL0     C73303   7.116   0.175  11.538  0.3854  0.1004  0.0708
  532MOL0     C73304   7.031   0.249  11.465  0.8344 -0.6093  0.0941
  532MOL0     C73305   6.903   0.274  11.503  0.0543  0.3981 -0.2445
  532MOL0     C73306   6.832   0.383  11.429  0.4626  0.0248  0.1549
  532MOL0     C73307   6.858   0.237  11.622 -0.6407  0.2828  0.0432
  532MOL0     C73308   6.719   0.253  11.673  0.0147 -0.5558  0.0617
  532MOL0     O73309   6.614   0.227  11.588  0.0694  0.6284  0.2349
  532MOL0     C73310   6.485   0.258  11.635 -0.1859  0.0107  0.3986
  532MOL0     C73311   6.405   0.333  11.550 -0.3922 -0.3570 -0.2872
  532MOL0     C73312   6.268   0.341  11.596 -0.1398 -0.7855  0.0961
  532MOL0     C73313   6.221   0.303  11.719 -0.6761 -0.7940  0.6250
  532MOL0     O73314   6.090   0.330  11.734 -0.3858 -0.0419  0.0943
  532MOL0     C73315   6.020   0.291  11.858 -0.4777 -0.0912  0.2601
  532MOL0     C73316   5.868   0.336  11.851  0.1633 -0.4904  0.8009
  532MOL0     C73317   5.813   0.337  11.703  0.0964 -0.0057 -0.9947
  532MOL0     C73318   5.802   0.193  11.648  0.1046  0.2797  0.7366
  532MOL0     C73319   5.697   0.106  11.720  0.7000  0.1845 -0.4082
  532MOL0     C73320   5.698  -0.039  11.663 -1.2279 -0.5943 -0.7211
  532MOL0     C73321   5.612  -0.058  11.535  0.3660 -0.2234 -0.6320
  532MOL0     C73322   5.465  -0.082  11.577  0.7257  0.1066  0.1210
  532MOL0    Cl73323   5.363  -0.085  11.432 -0.6099 -0.4823 -0.5920
  532MOL0     C73324   6.307   0.239  11.801  0.9752  0.7462 -0.7819
  532MOL0     C73325   6.433   0.210  11.761 -0.7640 -0.1928  0.7608
  532MOL0     O73326   6.714   0.302  11.788  0.3571  0.3362 -0.5591
  532MOL0     C73327   6.943   0.160  11.705  0.9894  0.4745  0.1316
  532MOL0     C73328   7.064   0.119  11.653  0.2481  0.0456 -0.6500
  532MOL0     N73329   7.711  -0.049  11.230  1.1759 -0.1917  0.1693
  532MOL0     N73330   7.835  -0.085  11.215  0.1965 -0.4742  0.8568
  532MOL0     C73331   7.757   0.535  11.606  0.2672 -0.1629 -0.4823
  532MOL0     C73332   7.617   0.533  11.625  0.4282 -0.8864  0.0532
  532MOL0     C73333   7.186   0.701  11.621 -0.1533  0.7159  0.8639
  532MOL0     C73334   7.111   0.811  11.594 -0.1158 -0.0901 -0.3833
  532MOL0     C73335   6.977   0.815  11.593  0.9887  0.4194 -0.7785
  532MOL0     C73336   6.907   0.711  11.655 -0.3083  0.0915 -0.1350
  532MOL0     O73337   6.765   0.735  11.666 -0.5949 -0.6955 -0.2095
  532MOL0     C73338   6.699   0.634  11.739 -0.5511  0.2280  0.7710
  532MOL0     C73339   6.547   0.655  11.743  0.3743  0.4580 -0.8441
  532MOL0     C73340   6.462   0.673  11.880  0.0695 -0.1173 -0.6782
  532MOL0     C73341   6.503   0.567  11.990 -0.2142 -0.1279 -0.4025
  532MOL0     C73342   6.437   0.598  12.115  0.0931  0.2593 -0.0177
  532MOL0     C73343   6.369   0.590  12.218 -1.0097  0.7860 -0.5201
  532MOL0     C73344   6.976   0.598  11.707  0.0494  0.1379 -0.7587
  532MOL0     C73345   7.121   0.596  11.688  0.6854  0.6168 -0.5065
  532MOL0     C73346   7.187   0.482  11.752 -0.7958  0.1099 -0.9839
  532MOL0     H73347   7.520   0.712  11.348 -3.2443 -2.0054  0.8708
  532MOL0     H73348   7.766   0.703  11.323  0.6485 -1.2529 -0.1516
  532MOL0     H73349   8.001   0.646  11.670  3.3525  0.2776  0.9597
  532MOL0     H73350   8.076   0.744  11.543 -0.3723 -0.7232 -1.1249
  532MOL0     H73351   8.221   0.562  11.468 -1.2387 -4.7744 -0.7622
  532MOL0     H73352   8.227   0.586  11.647 -1.5195 -1.5542  2.2912
  532MOL0     H73353   8.090   0.381  11.674 -1.5269 -3.7675 -0.8124
  532MOL0     H73354   8.041   0.387  11.502 -1.2505  3.5611 -0.3634
  532MOL0     H73355   8.286   0.360  11.455 -1.3974  0.6051 -0.2249
  532MOL0     H73356   8.307   0.317  11.630  2.9351 -4.1195 -2.3306
  532MOL0     H73357   8.172   0.120  11.595  1.5110  0.3090  1.3667
  532MOL0     H73358   8.308   0.135  11.471 -1.2110 -2.5093 -1.7470
  532MOL0     H73359   8.006   0.174  11.444  0.2116  2.9433  0.9757
  532MOL0     H73360   8.133   0.248  11.333  3.0347  4.0818  5.1129
  532MOL0     H73361   8.101  -0.038  11.367  3.1824 -0.0300 -0.2764
  532MOL0     H73362   8.232   0.039  11.284  0.9860  0.5663 -4.3418
  532MOL0     H73363   8.072   0.133  11.124  0.5788 -3.0002 -3.7310
  532MOL0     H73364   8.089  -0.045  11.142  2.1947 -0.8695  3.1790
  532MOL0     H73365   7.862   0.232  11.255 -2.8061  1.5609  0.8744
  532MOL0     H73366   7.490   0.082  11.242 -1.1295  1.0339 -2.1454
  532MOL0     H73367   7.567   0.250  11.229 -0.1207 -0.9112 -1.4754
  532MOL0     H73368   7.492   0.061  11.447 -2.5539  0.8362 -2.7483
  532MOL0     H73369   7.631   0.172  11.488 -0.2600  1.1730  0.8189
  532MOL0     H73370   7.448   0.311  11.553  1.1075  3.1319  0.0876
  532MOL0     H73371   7.475   0.377  11.406  1.1510  2.1690  4.2514
  532MOL0     H73372   7.266   0.315  11.354  2.4477  1.2234 -1.6292
  532MOL0     H73373   7.328   0.154  11.319  1.8794 -1.2001  1.1378
  532MOL0     H73374   7.067   0.300  11.376 -1.4489 -1.3840 -1.3839
  532MOL0     H73375   6.737   0.408  11.477  2.1222  2.3396  2.5065
  532MOL0     H73376   6.834   0.366  11.321  3.0044 -0.6699  0.2420
  532MOL0     H73377   6.882   0.480  11.435 -0.0384  0.3201 -0.3831
  532MOL0     H73378   6.447   0.386  11.465  0.3034 -1.5108 -0.6905
  532MOL0     H73379   6.202   0.402  11.535  0.7315  2.0675  1.8253
  532MOL0     H73380   6.026   0.185  11.882  2.6737 -0.3671 -1.2407
  532MOL0     H73381   6.068   0.359  11.930 -0.4818 -0.3176  0.4768
  532MOL0     H73382   5.808   0.277  11.920 -2.0701 -1.3588 -1.7132
  532MOL0     H73383   5.856   0.438  11.889 -2.7662 -0.7051  0.6744
  532MOL0     H73384   5.872   0.399  11.635  2.2777 -2.9949 -2.0628
  532MOL0     H73385   5.715   0.386  11.706  0.8186  1.4325 -0.3524
  532MOL0     H73386   5.902   0.149  11.653 -0.3018 -1.1164 -1.6750
  532MOL0     H73387   5.778   0.200  11.541  2.3941 -1.2265  0.0484
  532MOL0     H73388   5.715   0.101  11.827  0.7452  0.6436 -0.3915
  532MOL0     H73389   5.598   0.152  11.716  1.8198  2.8465  0.0441
  532MOL0     H73390   5.657  -0.106  11.739 -2.2545  0.0414 -0.7052
  532MOL0     H73391   5.800  -0.073  11.644 -1.6064 -0.8031 -2.5793
  532MOL0     H73392   5.640  -0.137  11.465 -0.0428  0.1492 -1.2263
  532MOL0     H73393   5.610   0.037  11.481 -0.6739  0.0784 -0.0800
  532MOL0     H73394   5.423  -0.008  11.645  1.5843  0.2339  0.5305
  532MOL0     H73395   5.459  -0.179  11.627 -1.7098  0.8066  1.3146
  532MOL0     H73396   6.269   0.198  11.894 -0.0389 -3.4280 -2.8010
  532MOL0     H73397   6.498   0.150  11.824 -3.0743 -2.3795  1.1932
  532MOL0     H73398   6.911   0.133  11.805  3.6891  3.2742  1.9340
  532MOL0     H73399   7.139   0.056  11.700 -1.2087 -1.3731 -0.1405
  532MOL0     H73400   7.839   0.498  11.666  2.9434  5.8030  0.2320
  532MOL0     H73401   7.560   0.472  11.695 -2.5236  1.5931  0.0125
  532MOL0     H73402   7.151   0.906  11.559 -1.0446  0.8463  1.0129
  532MOL0     H73403   6.921   0.900  11.555 -0.7626  0.4320  1.6283
  532MOL0     H73404   6.709   0.532  11.700 -2.0972  0.9681 -1.7967
  532MOL0     H73405   6.737   0.637  11.842  0.9365 -0.2132  0.2635
  532MOL0     H73406   6.498   0.567  11.700 -1.3723 -0.3664  2.4508
  532MOL0     H73407   6.535   0.742  11.679  2.3980  1.8915  0.5863
  532MOL0     H73408   6.474   0.770  11.931 -2.1385  0.2688 -0.7900
  532MOL0     H73409   6.355   0.661  11.858  0.2323  2.0577 -3.2677
  532MOL0     H73410   6.608   0.579  12.019 -0.4738  1.9376 -0.2044
  532MOL0     H73411   6.481   0.464  11.957 -0.0230  0.1829 -1.5643
  532MOL0     H73412   6.299   0.594  12.298  0.9435  2.2266  1.2435
  532MOL0     H73413   6.923   0.526  11.768  2.7333 -0.4389  1.0445
  532MOL0     H73414   7.167   0.496  11.859 -0.8703 -3.2616 -0.4453
  532MOL0     H73415   7.146   0.388  11.715  1.3980 -0.8446 -1.1343
  532MOL0     H73416   7.296   0.484  11.736 -0.3395 -3.3727  0.6276
  533MOL0     O73417   8.655   5.153   2.843  0.4457  0.1149 -0.1421
  533MOL0     C73418   8.576   5.053   2.851 -0.4290  0.0351  0.0090
  533MOL0     O73419   8.592   4.952   2.940  0.1949  0.2753  0.1472
  533MOL0     C73420   8.699   4.934   3.020  0.4028  0.1401 -0.2242
  533MOL0     C73421   8.665   4.854   3.129 -1.0736 -0.3266  0.2829
  533MOL0     C73422   8.778   4.830   3.217  0.1231  0.3354 -0.1881
  533MOL0     C73423   8.908   4.889   3.208  0.3324 -0.8387  0.5727
  533MOL0     O73424   8.993   4.884   3.313 -0.6816 -1.0846  0.5073
  533MOL0     C73425   8.986   4.774   3.404 -0.5747 -1.2702 -0.5170
  533MOL0     C73426   9.112   4.763   3.487 -0.7460  0.2483  0.1200
  533MOL0     C73427   9.141   4.891   3.554 -0.8492 -0.2908 -0.5970
  533MOL0     C73428   9.214   4.883   3.685 -1.1849 -0.7353 -0.2021
  533MOL0     C73429   9.371   4.858   3.694 -0.1350  0.0981  0.0271
  533MOL0     C73430   9.424   4.721   3.632 -0.3500 -0.6848  0.8766
  533MOL0     C73431   9.570   4.697   3.676 -1.3229 -1.2274 -0.7775
  533MOL0     C73432   9.639   4.567   3.620  0.5192 -1.2141 -0.5812
  533MOL0     N73433   9.776   4.555   3.669  0.4676  1.0841  0.7388
  533MOL0     C73434   9.788   4.520   3.796  0.0692 -0.1669 -0.8656
  533MOL0     C73435   9.910   4.568   3.836 -0.0388 -0.5823 -0.5912
  533MOL0     C73436   9.974   4.549   3.971 -0.0656  0.0593 -0.2319
  533MOL0     C73437  10.003   4.404   4.002 -0.2092  1.1211  0.5298
  533MOL0     C73438  10.065   4.388   4.143 -0.0922 -0.1542 -0.0707
  533MOL0     C73439  10.218   4.408   4.137  0.2319  0.6960  0.9022
  533MOL0     O73440  10.298   4.324   4.219 -0.5971 -0.5967 -0.0798
  533MOL0     C73441  10.295   4.348   4.355  0.6911 -0.0232  0.5077
  533MOL0     C73442  10.413   4.404   4.413  0.7613 -0.9107 -0.1789
  533MOL0     C73443  10.442   4.400   4.548  0.0086 -0.4456 -0.3176
  533MOL0     C73444  10.553   4.487   4.598 -0.3520 -0.5498  0.0150
  533MOL0     C73445  10.356   4.324   4.629 -0.4790  0.2746 -0.7159
  533MOL0     C73446  10.389   4.303   4.775  0.7013  0.1201 -0.1286
  533MOL0     O73447  10.343   4.184   4.840 -0.4618 -0.8581 -0.9604
  533MOL0     C73448  10.338   4.169   4.977 -0.2313 -0.1726 -0.4790
  533MOL0     C73449  10.423   4.230   5.071 -0.7163 -0.2852 -1.5382
  533MOL0     C73450  10.401   4.211   5.207  0.5863  0.0211 -0.2645
  533MOL0     C73451  10.296   4.133   5.249 -1.3652  0.0696  0.2348
  533MOL0     O73452  10.261   4.105   5.373  0.5046 -0.3555  0.1510
  533MOL0     C73453  10.330   4.172   5.479  0.4615  0.6136  0.0363
  533MOL0     C73454  10.270   4.135   5.615 -0.4655 -0.7256 -1.1037
  533MOL0     C73455  10.284   3.989   5.662 -0.7493  0.0101  0.9892
  533MOL0     C73456  10.428   3.939   5.678  0.2082 -0.8999 -0.3945
  533MOL0     C73457  10.450   3.825   5.785 -0.4389  0.6041  0.1249
  533MOL0     C73458  10.566   3.738   5.751  0.3227  0.3949 -1.0283
  533MOL0     C73459  10.707   3.795   5.764 -0.0887 -0.0912  0.8438
  533MOL0     C73460  10.806   3.679   5.772 -0.3589  0.6365  0.4875
  533MOL0    Cl73461  10.974   3.727   5.743  0.1771  0.2971  0.2574
  533MOL0     C73462  10.217   4.068   5.161  0.1658 -0.0681  0.4811
  533MOL0     C73463  10.241   4.077   5.024  0.1241  0.1314 -1.3201
  533MOL0     O73464  10.444   4.397   4.840 -0.0043 -0.3210 -0.7505
  533MOL0     C73465  10.238   4.265   4.573 -0.4928 -1.3409 -0.6736
  533MOL0     C73466  10.208   4.280   4.439 -0.1988 -0.7092  0.0628
  533MOL0     N73467   9.975   4.626   3.728 -0.2921 -0.9787 -0.2950
  533MOL0     N73468   9.886   4.621   3.625 -0.8339 -0.0273 -0.2051
  533MOL0     C73469   8.929   4.969   3.094  0.0723 -0.0673 -0.0895
  533MOL0     C73470   8.828   4.979   3.000 -0.3387 -0.4578 -0.4936
  533MOL0     C73471   8.463   5.058   2.761  0.9029  0.1963  0.1999
  533MOL0     C73472   8.372   4.949   2.784  0.4715 -0.5435 -0.0889
  533MOL0     C73473   8.236   4.955   2.730 -0.1805  1.1743 -0.2069
  533MOL0     C73474   8.198   5.049   2.639 -0.9180  0.9981  0.9581
  533MOL0     O73475   8.081   5.041   2.566 -0.0423 -0.3096  0.5776
  533MOL0     C73476   8.012   4.913   2.574 -0.1942 -0.1276  0.2025
  533MOL0     C73477   7.895   4.936   2.475 -0.0700  0.4875 -0.1094
  533MOL0     C73478   7.809   4.810   2.466  0.5767 -0.2029 -0.7284
  533MOL0     C73479   7.671   4.838   2.396 -0.0173  0.5291 -0.5348
  533MOL0     C73480   7.585   4.719   2.410  0.2325  0.2329  1.0990
  533MOL0     C73481   7.502   4.625   2.415 -0.6096 -0.1259 -0.1757
  533MOL0     C73482   8.293   5.137   2.597 -0.4640  0.4999 -0.0683
  533MOL0     C73483   8.426   5.139   2.652 -0.3685 -0.5305 -0.2274
  533MOL0     C73484   8.526   5.234   2.581 -0.6516  0.4946 -0.8174
  533MOL0     H73485   8.566   4.822   3.160 -1.4243 -1.3289 -1.7121
  533MOL0     H73486   8.754   4.755   3.291 -1.1709  2.1158  1.2915
  533MOL0     H73487   8.971   4.678   3.353  1.2861 -0.7211 -2.2478
  533MOL0     H73488   8.908   4.801   3.476 -0.3634 -0.6306 -0.5195
  533MOL0     H73489   9.097   4.684   3.561 -0.2626  1.9155  2.0723
  533MOL0     H73490   9.196   4.738   3.421 -0.0654  0.2508  0.9572
  533MOL0     H73491   9.197   4.951   3.482  1.7722 -0.2843  1.2879
  533MOL0     H73492   9.043   4.936   3.573 -0.6507 -0.3375  0.6577
  533MOL0     H73493   9.208   4.975   3.743  4.5531  0.7820 -1.3541
  533MOL0     H73494   9.162   4.800   3.733  0.2594 -2.1731 -1.0058
  533MOL0     H73495   9.409   4.863   3.796  0.2894 -3.6836  0.1911
  533MOL0     H73496   9.415   4.938   3.632 -2.0921  0.6891 -0.6756
  533MOL0     H73497   9.362   4.636   3.660 -1.6566 -0.4248 -1.0200
  533MOL0     H73498   9.420   4.742   3.525  2.9648 -0.2480  0.7350
  533MOL0     H73499   9.570   4.699   3.785 -0.9661 -1.8560 -0.7601
  533MOL0     H73500   9.632   4.780   3.641 -1.9125 -1.1162 -1.6131
  533MOL0     H73501   9.578   4.479   3.643  0.9084 -1.6320 -1.1198
  533MOL0     H73502   9.642   4.580   3.512  1.1806  2.8337 -0.2059
  533MOL0     H73503   9.715   4.483   3.866  2.1200 -0.0111  1.4968
  533MOL0     H73504   9.911   4.592   4.049  0.9633  2.1713 -0.4838
  533MOL0     H73505  10.063   4.612   3.979  0.0422 -0.2559  1.3302
  533MOL0     H73506   9.911   4.345   4.005  0.6222 -0.2162  3.7398
  533MOL0     H73507  10.063   4.352   3.927 -1.5682  2.4275 -1.5893
  533MOL0     H73508  10.029   4.455   4.221 -0.8003 -1.7870  1.0613
  533MOL0     H73509  10.035   4.292   4.186 -1.1455  1.0247  1.9503
  533MOL0     H73510  10.245   4.375   4.036  0.4509  1.1794  0.7992
  533MOL0     H73511  10.260   4.509   4.144  1.2846  0.9383 -4.5625
  533MOL0     H73512  10.487   4.449   4.348  0.3712  1.3407  0.8611
  533MOL0     H73513  10.631   4.429   4.649  0.0960 -0.8303 -0.9642
  533MOL0     H73514  10.522   4.576   4.653 -1.6653 -1.7719  1.3463
  533MOL0     H73515  10.597   4.525   4.505 -0.5923  0.0693  0.1507
  533MOL0     H73516  10.505   4.297   5.049  2.2455 -2.5562  1.5324
  533MOL0     H73517  10.456   4.280   5.270 -0.6331  0.3476  0.4876
  533MOL0     H73518  10.434   4.138   5.476  0.0654 -0.5792 -1.7483
  533MOL0     H73519  10.324   4.281   5.467  0.9286  1.1369  3.4694
  533MOL0     H73520  10.322   4.207   5.677  2.7330 -1.5615 -2.5769
  533MOL0     H73521  10.168   4.171   5.602  0.0188  0.6471 -1.2831
  533MOL0     H73522  10.249   3.911   5.594  1.3915 -0.3648  0.2444
  533MOL0     H73523  10.220   3.975   5.750 -1.0089  0.3638  0.8603
  533MOL0     H73524  10.493   4.025   5.695 -0.4784  0.2754 -3.1613
  533MOL0     H73525  10.468   3.903   5.583  0.0720  1.4359 -1.4139
  533MOL0     H73526  10.479   3.865   5.882  1.5004  2.1055 -0.9887
  533MOL0     H73527  10.364   3.759   5.795 -0.0303  0.2581  1.6169
  533MOL0     H73528  10.546   3.702   5.649  2.6280 -2.5512 -0.5665
  533MOL0     H73529  10.562   3.649   5.814  0.1254 -0.1171 -1.7429
  533MOL0     H73530  10.717   3.839   5.863  0.1352 -2.5070  1.9593
  533MOL0     H73531  10.717   3.865   5.680  1.3324 -0.7852  0.3960
  533MOL0     H73532  10.791   3.613   5.686 -0.0640  2.1867 -0.7959
  533MOL0     H73533  10.809   3.630   5.871  1.5569  0.4837  0.3798
  533MOL0     H73534  10.136   4.004   5.195 -0.6789  1.4216  1.3724
  533MOL0     H73535  10.167   4.019   4.969 -0.3129  0.2431 -0.8588
  533MOL0     H73536  10.161   4.220   4.634 -0.2841 -0.8447 -0.0268
  533MOL0     H73537  10.117   4.235   4.401  0.2808 -0.9747 -0.7863
  533MOL0     H73538   9.024   5.019   3.082 -1.5823  3.1389 -0.9609
  533MOL0     H73539   8.855   5.034   2.911  1.5443 -1.6581 -0.7277
  533MOL0     H73540   8.395   4.860   2.842  0.6015 -1.0970 -0.9865
  533MOL0     H73541   8.170   4.872   2.753  2.8701 -0.8635  1.9201
  533MOL0     H73542   8.068   4.826   2.536  1.3194  1.8993 -2.5584
  533MOL0     H73543   7.975   4.889   2.674 -0.7543 -3.0777 -0.5991
  533MOL0     H73544   7.931   4.970   2.377  0.3755  2.1850  0.5978
  533MOL0     H73545   7.831   5.016   2.514 -1.2114 -0.6923  0.4958
  533MOL0     H73546   7.860   4.742   2.397  1.0930  0.8815 -1.4526
  533MOL0     H73547   7.800   4.759   2.562 -1.4667  0.6759 -0.3949
  533MOL0     H73548   7.665   4.868   2.291 -1.8198  0.0570 -0.6052
  533MOL0     H73549   7.614   4.907   2.459 -0.8935 -1.1005  0.5147
  533MOL0     H73550   7.421   4.557   2.404 -1.4328  1.1030 -2.1328
  533MOL0     H73551   8.285   5.205   2.513 -1.4733 -0.4085 -0.7331
  533MOL0     H73552   8.602   5.179   2.525 -1.3527 -3.2703  1.4840
  533MOL0     H73553   8.482   5.292   2.500  0.5753  2.0317 -0.4281
  533MOL0     H73554   8.573   5.301   2.654  3.3088  2.4762 -4.7765
  534MOL0     O73555   4.460   4.163   6.349 -0.4267 -0.4179 -0.1294
  534MOL0     C73556   4.414   4.222   6.256 -0.3544  0.1316 -0.2534
  534MOL0     O73557   4.347   4.161   6.158 -0.6266 -0.3147  0.8671
  534MOL0     C73558   4.301   4.032   6.174  0.2510 -0.0948  0.9815
  534MOL0     C73559   4.256   3.971   6.056 -0.6021  0.8035 -0.8227
  534MOL0     C73560   4.197   3.848   6.065  0.1305  0.4489  0.9258
  534MOL0     C73561   4.173   3.776   6.178 -0.1135  1.1365 -0.2006
  534MOL0     O73562   4.089   3.656   6.183 -0.4385 -0.6186  0.5427
  534MOL0     C73563   4.061   3.568   6.068 -0.0189 -0.9070 -0.0940
  534MOL0     C73564   3.954   3.460   6.107  0.3723  0.0090 -0.7421
  534MOL0     C73565   3.984   3.390   6.245  0.9551  0.6798  0.3665
  534MOL0     C73566   3.891   3.276   6.273 -0.4740  0.1175  0.2738
  534MOL0     C73567   3.737   3.298   6.251 -0.5716 -0.2594  0.3724
  534MOL0     C73568   3.641   3.175   6.271  0.0269 -0.2579  0.0020
  534MOL0     C73569   3.644   3.122   6.414 -0.1479 -0.0705  0.1553
  534MOL0     C73570   3.694   2.981   6.420 -0.1346 -0.2409 -0.8285
  534MOL0     N73571   3.663   2.911   6.536  0.3734  1.2110  0.5138
  534MOL0     C73572   3.544   2.846   6.550 -0.7764  0.5084 -0.8261
  534MOL0     C73573   3.539   2.812   6.680  0.0001 -0.2503 -1.0854
  534MOL0     C73574   3.422   2.755   6.755  0.6511  0.4810 -0.1014
  534MOL0     C73575   3.424   2.603   6.730 -0.2850 -0.5709 -0.7921
  534MOL0     C73576   3.351   2.543   6.611  0.9679  0.1109 -0.5331
  534MOL0     C73577   3.344   2.400   6.606  0.2078  0.1490  0.1727
  534MOL0     O73578   3.239   2.364   6.515 -0.7226  0.9500  0.1727
  534MOL0     C73579   3.267   2.256   6.442 -0.6215 -0.3446  0.2494
  534MOL0     C73580   3.313   2.264   6.315  0.6913 -0.7249 -0.2442
  534MOL0     C73581   3.336   2.146   6.235 -0.0524 -0.4048 -0.4247
  534MOL0     C73582   3.391   2.166   6.102  0.1623 -0.6731  0.5870
  534MOL0     C73583   3.310   2.017   6.287  0.0399  0.6976 -0.0259
  534MOL0     C73584   3.321   1.888   6.214 -0.1530  0.4512  0.4472
  534MOL0     O73585   3.440   1.863   6.153 -0.2257  0.1223  0.0352
  534MOL0     C73586   3.443   1.742   6.089  0.7221  0.1720 -0.9056
  534MOL0     C73587   3.347   1.725   5.978  0.7757 -0.1506 -0.5009
  534MOL0     C73588   3.357   1.607   5.900 -0.6927  0.1932 -0.5133
  534MOL0     C73589   3.452   1.507   5.930 -0.4982  0.5748  1.0366
  534MOL0     O73590   3.448   1.385   5.864 -0.2189  0.2665 -0.5621
  534MOL0     C73591   3.319   1.343   5.809 -0.0917  0.0086 -0.4948
  534MOL0     C73592   3.348   1.211   5.734 -1.0349  0.2398  0.4004
  534MOL0     C73593   3.310   1.098   5.831 -0.4168  0.0142 -0.0613
  534MOL0     C73594   3.243   0.976   5.769  0.4732  0.5070 -0.5310
  534MOL0     C73595   3.339   0.891   5.679 -0.4239 -0.1273  0.3842
  534MOL0     C73596   3.269   0.808   5.575  0.7272 -0.7592 -1.2710
  534MOL0     C73597   3.266   0.669   5.629 -0.5072  0.0690 -0.6389
  534MOL0     C73598   3.149   0.642   5.728  0.0269 -0.4241  0.2235
  534MOL0    Cl73599   2.997   0.662   5.642 -0.1327 -0.4896 -0.0946
  534MOL0     C73600   3.539   1.526   6.036  0.1238  0.2284  0.3359
  534MOL0     C73601   3.543   1.651   6.108  0.3382  0.6167 -0.4843
  534MOL0     O73602   3.224   1.802   6.231 -0.0669  0.0966  0.0560
  534MOL0     C73603   3.266   2.018   6.424  0.7543 -0.6332  0.3044
  534MOL0     C73604   3.239   2.134   6.497  0.4139 -0.7856  0.2131
  534MOL0     N73605   3.655   2.864   6.742  0.5438  0.5968  0.0503
  534MOL0     N73606   3.724   2.922   6.652  0.2053 -0.4991  0.4280
  534MOL0     C73607   4.214   3.837   6.292 -0.6883 -1.0855 -0.2055
  534MOL0     C73608   4.280   3.959   6.289  0.8523  0.1111 -0.6041
  534MOL0     C73609   4.463   4.355   6.228  0.6607 -0.0166  0.6183
  534MOL0     C73610   4.375   4.455   6.184 -0.3884 -0.3589 -0.4376
  534MOL0     C73611   4.403   4.587   6.143 -0.8109  0.6436  0.1258
  534MOL0     C73612   4.536   4.621   6.125 -0.3736  0.0537 -0.3781
  534MOL0     O73613   4.555   4.738   6.051 -0.1666  0.1364 -0.4942
  534MOL0     C73614   4.664   4.833   6.060 -0.2696 -0.3711  0.7060
  534MOL0     C73615   4.767   4.785   5.957 -0.7248  0.7005  0.1451
  534MOL0     C73616   4.886   4.886   5.958  0.3952  0.4065  0.2220
  534MOL0     C73617   5.011   4.809   5.915  0.5900  0.4052 -0.0967
  534MOL0     C73618   5.136   4.887   5.949 -0.2266  1.0705  0.2508
  534MOL0     C73619   5.227   4.945   5.991  0.6020  0.3607  0.2111
  534MOL0     C73620   4.640   4.522   6.158 -0.0053  0.3458 -0.1701
  534MOL0     C73621   4.601   4.396   6.223  1.0471  0.9790  1.0579
  534MOL0     C73622   4.713   4.311   6.290 -0.1698  0.3124  0.1832
  534MOL0     H73623   4.270   4.024   5.963  1.0891  0.7689 -0.6255
  534MOL0     H73624   4.170   3.802   5.971  1.2156 -2.9668  2.1307
  534MOL0     H73625   4.155   3.520   6.039 -0.4482 -1.7957 -0.0145
  534MOL0     H73626   4.033   3.628   5.981  1.5958 -0.0138 -0.0591
  534MOL0     H73627   3.861   3.513   6.130  0.6114 -0.1411  0.6594
  534MOL0     H73628   3.937   3.395   6.021 -1.4877 -1.0448  0.3410
  534MOL0     H73629   4.079   3.337   6.241 -1.4159 -4.1226  0.6365
  534MOL0     H73630   3.982   3.466   6.323 -1.9726 -0.0420  1.1034
  534MOL0     H73631   3.910   3.212   6.187  1.3914  0.9385  0.0216
  534MOL0     H73632   3.906   3.233   6.373  2.7433 -1.0931 -0.6022
  534MOL0     H73633   3.723   3.327   6.146 -0.9326  0.5431  0.6339
  534MOL0     H73634   3.699   3.374   6.320 -1.1954  0.0544 -0.3058
  534MOL0     H73635   3.542   3.212   6.243 -0.0896 -2.1038 -2.3995
  534MOL0     H73636   3.659   3.094   6.199  0.0115 -0.7858  0.5844
  534MOL0     H73637   3.539   3.126   6.447 -0.2375  1.4055 -0.2171
  534MOL0     H73638   3.700   3.191   6.478  0.5069  0.2889 -0.7862
  534MOL0     H73639   3.659   2.928   6.331  0.4360  0.4957 -1.5103
  534MOL0     H73640   3.803   2.984   6.406  0.0870 -2.6052 -0.0469
  534MOL0     H73641   3.455   2.839   6.489 -2.0998 -1.8150  1.1677
  534MOL0     H73642   3.334   2.799   6.708  0.9383  3.1463  1.6433
  534MOL0     H73643   3.418   2.790   6.858  1.3344 -0.5947  0.3141
  534MOL0     H73644   3.527   2.571   6.717 -0.5552 -1.5836 -0.5317
  534MOL0     H73645   3.393   2.556   6.824  3.3501  2.6992  2.3869
  534MOL0     H73646   3.252   2.584   6.629  0.4679 -1.1899 -0.1924
  534MOL0     H73647   3.397   2.592   6.524  2.3983  1.3394  0.8452
  534MOL0     H73648   3.443   2.357   6.587  0.6240 -0.1306  2.5766
  534MOL0     H73649   3.313   2.375   6.708  0.1437  0.2129  0.1686
  534MOL0     H73650   3.325   2.365   6.276 -2.1530  0.4463  1.6154
  534MOL0     H73651   3.348   2.255   6.056 -2.0153 -1.0524  1.7511
  534MOL0     H73652   3.349   2.084   6.043 -1.1032  0.2619  0.1374
  534MOL0     H73653   3.499   2.181   6.109 -0.3013  3.7069  1.3680
  534MOL0     H73654   3.276   1.805   5.958 -2.2759 -2.1844  1.2914
  534MOL0     H73655   3.287   1.599   5.817 -0.8579  2.1411 -0.5984
  534MOL0     H73656   3.236   1.338   5.881  1.0653  1.1921  0.9798
  534MOL0     H73657   3.294   1.419   5.734  0.8354  0.2131 -0.6076
  534MOL0     H73658   3.277   1.214   5.651 -0.3047 -2.1750 -0.3956
  534MOL0     H73659   3.453   1.201   5.706 -1.0657  0.2960  0.2621
  534MOL0     H73660   3.247   1.136   5.912 -1.0517  2.4260 -1.5607
  534MOL0     H73661   3.402   1.067   5.881 -0.2804 -0.2388 -0.4611
  534MOL0     H73662   3.154   1.018   5.720 -2.5942 -1.5001  2.7676
  534MOL0     H73663   3.186   0.914   5.839  0.0346 -0.6873 -1.8750
  534MOL0     H73664   3.401   0.960   5.622 -0.9518 -1.3888 -1.8289
  534MOL0     H73665   3.409   0.844   5.749 -0.8781 -2.0881 -0.4344
  534MOL0     H73666   3.327   0.805   5.483  0.6273 -2.4332 -1.3034
  534MOL0     H73667   3.171   0.850   5.550  0.3219 -1.6342 -1.1793
  534MOL0     H73668   3.359   0.651   5.684 -1.2278  1.8643  1.3129
  534MOL0     H73669   3.263   0.602   5.542  0.0646 -0.8104  0.0048
  534MOL0     H73670   3.150   0.707   5.816 -1.5620 -1.6469  1.2041
  534MOL0     H73671   3.163   0.536   5.748 -2.1026 -0.8898 -0.5092
  534MOL0     H73672   3.617   1.453   6.059 -1.1695 -0.8289  1.5438
  534MOL0     H73673   3.617   1.662   6.186 -1.7156 -2.0887  2.1153
  534MOL0     H73674   3.241   1.918   6.459  0.7860 -1.0347 -0.7847
  534MOL0     H73675   3.223   2.133   6.604  4.2649 -2.8675  0.9608
  534MOL0     H73676   4.205   3.788   6.388  1.9054 -0.5108  0.4174
  534MOL0     H73677   4.293   4.008   6.385  1.1017  2.6527 -1.8705
  534MOL0     H73678   4.269   4.432   6.186  0.0021 -2.2596 -0.0939
  534MOL0     H73679   4.332   4.663   6.110  1.2200  2.6939  0.1563
  534MOL0     H73680   4.624   4.930   6.029 -1.4333  0.0618  3.2521
  534MOL0     H73681   4.709   4.845   6.159 -2.2500  0.1915  1.5878
  534MOL0     H73682   4.719   4.789   5.859  0.6335 -0.2838 -0.5851
  534MOL0     H73683   4.798   4.681   5.973 -0.7151  0.3152 -2.1079
  534MOL0     H73684   4.857   4.958   5.882  1.4681 -0.8922 -1.4877
  534MOL0     H73685   4.896   4.921   6.061 -2.8141  0.9570  0.4578
  534MOL0     H73686   5.007   4.778   5.810  0.7935 -0.4263  0.1376
  534MOL0     H73687   5.004   4.723   5.982 -2.3901  2.6586  2.8202
  534MOL0     H73688   5.307   4.996   6.041  1.2893 -2.6553  2.4938
  534MOL0     H73689   4.745   4.548   6.152  0.5700 -1.8752 -0.5477
  534MOL0     H73690   4.692   4.208   6.258 -0.5550 -0.0389  1.4870
  534MOL0     H73691   4.809   4.357   6.269 -0.0627  0.6838  1.3859
  534MOL0     H73692   4.704   4.316   6.399 -4.1417 -1.3542  0.1009
  535MOL0     O73693   7.931   4.382  10.428 -0.0176  0.4356 -0.5989
  535MOL0     C73694   7.921   4.296  10.509 -0.5392  0.6955  0.3503
  535MOL0     O73695   8.032   4.228  10.558  0.9410  0.9624  0.4320
  535MOL0     C73696   8.155   4.222  10.513  0.6161 -0.0542 -0.2333
  535MOL0     C73697   8.233   4.337  10.498  0.6884 -0.0734  0.4478
  535MOL0     C73698   8.372   4.322  10.466 -0.1148 -1.1473 -0.3658
  535MOL0     C73699   8.421   4.196  10.448  0.4819  0.8309  0.4622
  535MOL0     O73700   8.551   4.177  10.414 -0.3751 -0.9925  0.6963
  535MOL0     C73701   8.639   4.196  10.524 -0.7205 -0.1316 -0.7100
  535MOL0     C73702   8.783   4.188  10.471 -0.6732 -0.6063  0.8475
  535MOL0     C73703   8.816   4.297  10.362 -0.4994 -0.2185  0.2034
  535MOL0     C73704   8.963   4.342  10.368  0.1804 -1.1835  0.4496
  535MOL0     C73705   9.071   4.226  10.362 -0.2809  0.8677  0.9470
  535MOL0     C73706   9.080   4.141  10.222  0.6420 -0.7288 -0.7721
  535MOL0     C73707   9.188   4.027  10.225 -0.7020 -0.0859 -0.2198
  535MOL0     C73708   9.156   3.901  10.301  0.2727  0.1390  0.1468
  535MOL0     N73709   9.023   3.852  10.262 -0.4268  0.5612 -1.0563
  535MOL0     C73710   8.988   3.800  10.145  0.0796 -0.0262  0.1289
  535MOL0     C73711   8.859   3.758  10.157 -0.3568  0.8106  0.1890
  535MOL0     C73712   8.765   3.736  10.042  0.3716  0.0298  0.2229
  535MOL0     C73713   8.766   3.846   9.928  0.8676 -0.2097  0.1198
  535MOL0     C73714   8.714   3.794   9.789  0.3628 -1.4021  0.3572
  535MOL0     C73715   8.572   3.737   9.784 -0.6021  0.8406  0.2138
  535MOL0     O73716   8.479   3.791   9.875 -0.0766  0.1848  1.1455
  535MOL0     C73717   8.426   3.919   9.863  0.0772  0.7242 -0.2959
  535MOL0     C73718   8.413   3.991   9.741  0.1852 -0.0370 -0.4649
  535MOL0     C73719   8.322   4.093   9.725  0.0787  0.0846  0.0125
  535MOL0     C73720   8.311   4.147   9.587 -0.5461  0.3670 -0.8212
  535MOL0     C73721   8.246   4.149   9.830 -0.3527  0.0736 -0.0454
  535MOL0     C73722   8.140   4.249   9.815 -0.7483 -1.0742 -0.3737
  535MOL0     O73723   8.108   4.294   9.687 -0.2844  0.3547 -0.5919
  535MOL0     C73724   7.999   4.375   9.675  0.4675  0.7393  0.3489
  535MOL0     C73725   7.907   4.336   9.574  0.0427 -0.2340  0.5346
  535MOL0     C73726   7.791   4.414   9.555  0.5595  0.4824  0.0612
  535MOL0     C73727   7.768   4.532   9.631 -0.1015  0.4106  0.9733
  535MOL0     O73728   7.656   4.597   9.609  0.1215  0.4029  0.0251
  535MOL0     C73729   7.665   4.693   9.507  0.1390  0.5502 -0.2358
  535MOL0     C73730   7.588   4.822   9.547  0.5797 -0.0151 -0.4961
  535MOL0     C73731   7.606   4.939   9.456  0.7599  0.0230  0.1638
  535MOL0     C73732   7.719   5.033   9.503 -0.3365  1.5881 -0.0263
  535MOL0     C73733   7.676   5.113   9.630 -0.4976 -0.2065 -0.1352
  535MOL0     C73734   7.736   5.248   9.622 -0.3386  0.3788  0.0920
  535MOL0     C73735   7.685   5.326   9.739  0.7622  0.1625  0.3338
  535MOL0     C73736   7.531   5.374   9.716 -0.0369 -0.0191 -0.2336
  535MOL0    Cl73737   7.506   5.502   9.834 -0.3249 -0.4444 -0.2127
  535MOL0     C73738   7.868   4.574   9.719 -0.7556 -0.1687  1.3620
  535MOL0     C73739   7.983   4.497   9.742 -0.0912  0.2661  1.6968
  535MOL0     O73740   8.079   4.284   9.920 -1.1508  0.1564  0.0585
  535MOL0     C73741   8.269   4.089   9.954 -0.0781 -0.2995  0.0647
  535MOL0     C73742   8.354   3.977   9.971 -0.4344  1.3180  0.1243
  535MOL0     N73743   8.837   3.760  10.291 -0.0486 -0.2317  0.0158
  535MOL0     N73744   8.927   3.816  10.353  0.3192 -0.9602  0.6846
  535MOL0     C73745   8.348   4.080  10.457  0.2282  0.2777  0.4324
  535MOL0     C73746   8.216   4.094  10.490  0.0085  0.0369 -0.1037
  535MOL0     C73747   7.795   4.225  10.546 -0.0427 -0.2179 -0.4950
  535MOL0     C73748   7.796   4.093  10.616 -0.4830 -1.2733  0.4198
  535MOL0     C73749   7.673   4.024  10.633  0.0709  0.5159  0.5405
  535MOL0     C73750   7.548   4.079  10.590 -0.0524  0.1620 -0.1339
  535MOL0     O73751   7.441   4.006  10.620  0.5056  1.3334  0.1225
  535MOL0     C73752   7.314   4.057  10.584 -0.0481 -0.0062 -0.1055
  535MOL0     C73753   7.210   3.944  10.559 -0.5260  0.3691  0.2432
  535MOL0     C73754   7.165   3.871  10.677 -0.6423  0.0896 -0.4201
  535MOL0     C73755   7.062   3.758  10.628  0.3356  0.3584 -1.0376
  535MOL0     C73756   7.024   3.680  10.746  0.1101  0.1223 -0.8024
  535MOL0     C73757   7.013   3.617  10.851  0.8503  0.0658  0.3062
  535MOL0     C73758   7.550   4.211  10.531 -0.4647 -0.4194 -0.5776
  535MOL0     C73759   7.668   4.283  10.497 -0.5389  0.2293  0.5013
  535MOL0     C73760   7.662   4.416  10.434  0.1944  0.0802 -0.0356
  535MOL0     H73761   8.181   4.428  10.528  2.8234  1.4797 -0.3106
  535MOL0     H73762   8.436   4.410  10.458  0.8275 -1.7753  0.1202
  535MOL0     H73763   8.630   4.114  10.596  1.3115  2.2683  2.5484
  535MOL0     H73764   8.634   4.292  10.575  1.8068 -1.5647  2.5960
  535MOL0     H73765   8.843   4.211  10.560 -0.4385  2.5741 -0.0158
  535MOL0     H73766   8.803   4.088  10.430  2.3155  0.4226 -0.4422
  535MOL0     H73767   8.790   4.257  10.264  1.2909 -3.2717  0.8596
  535MOL0     H73768   8.759   4.387  10.387 -0.0445 -0.4694  2.3779
  535MOL0     H73769   8.990   4.413  10.290 -3.1404  0.4653  0.6221
  535MOL0     H73770   8.968   4.394  10.464  1.5961 -0.5577  0.0542
  535MOL0     H73771   9.029   4.149  10.427 -2.5762 -1.3376 -2.7943
  535MOL0     H73772   9.171   4.262  10.391 -0.1151  0.7106  0.5776
  535MOL0     H73773   8.986   4.087  10.212  0.3366 -0.0597 -1.6761
  535MOL0     H73774   9.106   4.213  10.144  1.1614  2.1701  1.8386
  535MOL0     H73775   9.278   4.066  10.274 -0.5001  0.0143 -0.6632
  535MOL0     H73776   9.233   3.989  10.133 -1.3538 -1.9648  0.1814
  535MOL0     H73777   9.228   3.822  10.278  2.9017  2.4216  0.0723
  535MOL0     H73778   9.143   3.923  10.407 -1.7725 -4.2243  1.0335
  535MOL0     H73779   9.045   3.818  10.054 -0.4202  1.8793  0.1500
  535MOL0     H73780   8.667   3.735  10.090  1.3711 -0.0929  2.3560
  535MOL0     H73781   8.785   3.641   9.992  2.3891  2.7046 -4.7901
  535MOL0     H73782   8.699   3.920   9.972  1.2822 -1.9298  4.0992
  535MOL0     H73783   8.860   3.901   9.915  0.0750  0.9716 -0.8488
  535MOL0     H73784   8.712   3.879   9.721  3.2276  0.0643  1.9498
  535MOL0     H73785   8.796   3.725   9.766  1.1759 -0.8275  1.4340
  535MOL0     H73786   8.543   3.721   9.679  0.7981  1.9819 -0.3827
  535MOL0     H73787   8.596   3.637   9.822 -1.1536  0.8044  0.4695
  535MOL0     H73788   8.460   3.957   9.650 -1.0378  2.1823 -2.0210
  535MOL0     H73789   8.372   4.085   9.520  3.2352  0.8752  1.8126
  535MOL0     H73790   8.348   4.250   9.585  2.1598 -0.4273 -4.7107
  535MOL0     H73791   8.210   4.139   9.545 -0.1873 -0.3392 -1.5847
  535MOL0     H73792   7.946   4.256   9.513  2.3148 -1.2986  3.1702
  535MOL0     H73793   7.713   4.394   9.481 -0.6143 -1.0341  1.6172
  535MOL0     H73794   7.771   4.719   9.500  0.0985  0.7390 -0.1647
  535MOL0     H73795   7.631   4.645   9.415  2.5896 -2.1814  0.1459
  535MOL0     H73796   7.483   4.789   9.547  0.3048  0.7896  0.5833
  535MOL0     H73797   7.612   4.844   9.651 -2.8691  2.8895 -0.1274
  535MOL0     H73798   7.516   4.995   9.431  0.3327 -0.1355  1.3435
  535MOL0     H73799   7.641   4.896   9.361  2.6573  1.3886  0.1832
  535MOL0     H73800   7.764   5.096   9.426  0.4696 -1.5529 -2.3481
  535MOL0     H73801   7.807   4.975   9.531 -1.0454  0.6128  0.2742
  535MOL0     H73802   7.567   5.108   9.642 -0.3617 -2.3655  0.6239
  535MOL0     H73803   7.708   5.054   9.716  0.7882  1.8428  0.8711
  535MOL0     H73804   7.712   5.291   9.525 -0.7488 -3.9875 -1.9781
  535MOL0     H73805   7.846   5.243   9.621 -0.2319  2.0964  0.4601
  535MOL0     H73806   7.755   5.409   9.747  0.6074  0.5691 -1.8566
  535MOL0     H73807   7.693   5.270   9.833  1.3203 -0.7779 -0.2536
  535MOL0     H73808   7.458   5.293   9.719 -3.5917  2.8987 -0.4762
  535MOL0     H73809   7.519   5.417   9.616 -3.8666 -1.7954 -0.6989
  535MOL0     H73810   7.844   4.663   9.776  2.7160  2.4885 -0.9285
  535MOL0     H73811   8.049   4.544   9.815 -0.5909  3.0217  0.5299
  535MOL0     H73812   8.232   4.136  10.044  3.0335  0.4504  1.0959
  535MOL0     H73813   8.372   3.930  10.067  2.2966  1.6606 -0.1411
  535MOL0     H73814   8.387   3.992  10.407 -1.7401 -0.1589 -0.4298
  535MOL0     H73815   8.157   4.005  10.504 -1.7436  1.2191  0.2641
  535MOL0     H73816   7.893   4.049  10.641 -0.0117 -2.0109 -2.3470
  535MOL0     H73817   7.678   3.929  10.685 -3.4719  0.2106  0.6008
  535MOL0     H73818   7.275   4.119  10.665  2.7085  2.1812 -0.3359
  535MOL0     H73819   7.323   4.112  10.490 -0.9013 -1.7180 -1.2649
  535MOL0     H73820   7.250   3.876  10.483 -0.6315  1.1863 -0.5613
  535MOL0     H73821   7.125   3.988  10.506  0.2986 -1.1639 -2.5932
  535MOL0     H73822   7.256   3.822  10.711 -0.5115 -1.6022 -2.9143
  535MOL0     H73823   7.130   3.940  10.754  0.1196  1.5420 -1.3227
  535MOL0     H73824   7.105   3.692  10.552  0.2372 -1.9039  0.7783
  535MOL0     H73825   6.964   3.800  10.604 -1.2239 -0.0272  3.6197
  535MOL0     H73826   7.005   3.570  10.947  1.3968 -0.5578  0.0500
  535MOL0     H73827   7.461   4.272  10.516  0.3172  1.5181  1.8828
  535MOL0     H73828   7.685   4.413  10.327  0.3324  2.7299 -0.1371
  535MOL0     H73829   7.560   4.456  10.443  0.1082  0.1850 -1.3169
  535MOL0     H73830   7.731   4.483  10.485 -1.2732  1.8726 -0.3005
  536MOL0     O73831   6.327   3.323   8.444 -0.4388  1.0751 -0.1836
  536MOL0     C73832   6.345   3.213   8.389 -0.5969  1.2133  0.6844
  536MOL0     O73833   6.281   3.091   8.408  0.8877 -0.3575 -0.2262
  536MOL0     C73834   6.177   3.071   8.500  0.2927 -0.3291 -1.3471
  536MOL0     C73835   6.155   2.938   8.538 -0.7886 -0.0532  0.0706
  536MOL0     C73836   6.047   2.903   8.623 -0.0551 -0.0468  1.3419
  536MOL0     C73837   5.958   3.003   8.671 -0.8285  0.3475  0.5642
  536MOL0     O73838   5.862   2.970   8.759 -0.6832 -0.0105  0.2651
  536MOL0     C73839   5.850   3.034   8.879  0.5839  0.0237 -0.2907
  536MOL0     C73840   5.728   2.979   8.953 -0.0808 -0.7582  0.2481
  536MOL0     C73841   5.704   3.080   9.068 -0.1446 -0.4175 -0.2218
  536MOL0     C73842   5.617   3.008   9.173  0.2460  0.7926 -0.0124
  536MOL0     C73843   5.629   3.082   9.305  0.2832 -0.1969 -0.5376
  536MOL0     C73844   5.559   3.002   9.422 -0.7027  0.1378  0.1418
  536MOL0     C73845   5.586   3.071   9.545  0.5024  0.0237 -0.4329
  536MOL0     C73846   5.505   3.205   9.562  0.2405  0.7760  0.6809
  536MOL0     N73847   5.367   3.174   9.600 -0.0337 -0.0530 -0.9139
  536MOL0     C73848   5.267   3.132   9.521 -0.4925  0.1871  0.7596
  536MOL0     C73849   5.160   3.160   9.603 -0.0462 -0.8440 -0.0118
  536MOL0     C73850   5.013   3.157   9.542 -1.1903 -0.1840 -0.3483
  536MOL0     C73851   5.002   3.015   9.509  0.4631  0.3158  0.7396
  536MOL0     C73852   4.862   3.002   9.459  0.1748  0.3899  0.4179
  536MOL0     C73853   4.846   2.865   9.398  1.2192 -0.1327  0.8554
  536MOL0     O73854   4.892   2.854   9.269  0.0500 -1.0576  0.5550
  536MOL0     C73855   4.792   2.825   9.180 -0.0177  0.4266 -0.1247
  536MOL0     C73856   4.728   2.918   9.096 -0.1491 -0.6746 -1.0137
  536MOL0     C73857   4.635   2.883   8.996  0.2122 -0.9716  0.4744
  536MOL0     C73858   4.565   3.002   8.937  0.3575 -0.2231  0.1061
  536MOL0     C73859   4.597   2.746   8.981  0.5794 -0.5548 -0.1771
  536MOL0     C73860   4.498   2.699   8.871 -0.2965  0.4059 -0.0211
  536MOL0     O73861   4.408   2.794   8.815  1.0866 -0.2815 -0.0375
  536MOL0     C73862   4.313   2.752   8.722 -0.8671 -0.2861 -0.1273
  536MOL0     C73863   4.193   2.695   8.761  0.3313  0.1363  0.0553
  536MOL0     C73864   4.107   2.645   8.667  0.0444  0.1072  0.3195
  536MOL0     C73865   4.120   2.681   8.526  0.2930 -0.1728 -0.3136
  536MOL0     O73866   4.023   2.681   8.431  0.3848  0.6324  0.3174
  536MOL0     C73867   3.888   2.632   8.457 -0.5540 -1.5506 -0.0205
  536MOL0     C73868   3.831   2.523   8.362 -0.1271 -0.2957 -0.1186
  536MOL0     C73869   3.808   2.392   8.424  0.1185 -0.4853 -0.1848
  536MOL0     C73870   3.768   2.275   8.319 -0.1033 -0.0602  0.0155
  536MOL0     C73871   3.740   2.139   8.387 -0.4791  0.5101 -0.7352
  536MOL0     C73872   3.617   2.140   8.476 -1.0511 -0.2696  0.4808
  536MOL0     C73873   3.603   2.007   8.550  0.5314 -0.1253 -0.3789
  536MOL0     C73874   3.504   2.003   8.667 -0.6344 -0.7691  0.4049
  536MOL0    Cl73875   3.526   1.843   8.737 -0.6033  0.5268  0.3927
  536MOL0     C73876   4.240   2.741   8.492  0.5791  0.3899 -0.2140
  536MOL0     C73877   4.342   2.769   8.590  0.1215  0.4141 -0.2819
  536MOL0     O73878   4.488   2.575   8.848 -0.6288 -0.8021 -0.8494
  536MOL0     C73879   4.648   2.654   9.068 -0.1001 -0.0942 -0.0701
  536MOL0     C73880   4.745   2.689   9.170  0.1790  0.0108 -0.5353
  536MOL0     N73881   5.210   3.193   9.729  0.2653 -0.1917 -0.1250
  536MOL0     N73882   5.331   3.206   9.727 -0.6562  0.1360 -0.5534
  536MOL0     C73883   5.990   3.141   8.642 -0.2616 -0.4323  0.0405
  536MOL0     C73884   6.095   3.171   8.559  0.8008 -0.5632 -0.3459
  536MOL0     C73885   6.462   3.208   8.286  0.0968 -0.3248 -0.4225
  536MOL0     C73886   6.505   3.082   8.247  0.3578 -0.2768  0.4009
  536MOL0     C73887   6.614   3.063   8.150  0.1858  0.5866  0.3471
  536MOL0     C73888   6.670   3.180   8.096 -0.3259  0.4760  0.5095
  536MOL0     O73889   6.775   3.168   8.008  0.1607 -0.4307  0.3838
  536MOL0     C73890   6.793   3.271   7.904  1.1526  0.7146  0.1666
  536MOL0     C73891   6.831   3.201   7.773  0.2568  0.1993 -0.2598
  536MOL0     C73892   6.781   3.285   7.653 -0.7613 -0.4563  0.0733
  536MOL0     C73893   6.767   3.215   7.520  0.7876  0.4876 -0.8007
  536MOL0     C73894   6.896   3.156   7.479  0.0897  0.0260 -0.7010
  536MOL0     C73895   7.005   3.099   7.440  0.2020 -0.4867  0.3052
  536MOL0     C73896   6.620   3.306   8.137 -0.7269 -0.9511  0.1180
  536MOL0     C73897   6.519   3.324   8.225  0.2516  1.0203 -0.7810
  536MOL0     C73898   6.468   3.462   8.258  1.2715  0.8392 -0.2193
  536MOL0     H73899   6.225   2.862   8.505  0.2064  0.1545  1.5760
  536MOL0     H73900   6.004   2.807   8.652 -2.3581  0.8112  0.9941
  536MOL0     H73901   5.832   3.137   8.848 -1.1014 -0.2844 -0.4384
  536MOL0     H73902   5.945   3.015   8.930  0.3475 -1.0180 -0.2124
  536MOL0     H73903   5.634   2.986   8.897 -1.0134 -0.5539  1.7657
  536MOL0     H73904   5.736   2.875   8.985 -2.1141 -0.9697  0.1730
  536MOL0     H73905   5.795   3.106   9.121 -2.6468  1.0936  3.7132
  536MOL0     H73906   5.651   3.172   9.039  0.5231  0.2308  0.5979
  536MOL0     H73907   5.510   3.001   9.150  0.1108 -3.2967  1.1892
  536MOL0     H73908   5.650   2.904   9.181  1.9303  1.0089 -2.7813
  536MOL0     H73909   5.591   3.183   9.291 -0.1420 -0.3217 -0.3209
  536MOL0     H73910   5.736   3.091   9.323  0.0570  3.4561 -0.3742
  536MOL0     H73911   5.454   2.980   9.402  0.0686 -4.1906 -0.1485
  536MOL0     H73912   5.611   2.906   9.423 -0.6859  0.0614 -2.1699
  536MOL0     H73913   5.692   3.088   9.562  0.2290 -0.1875  1.7910
  536MOL0     H73914   5.561   3.008   9.631  1.6568  2.6000  1.9110
  536MOL0     H73915   5.561   3.277   9.622  2.7296  2.0253 -2.8176
  536MOL0     H73916   5.499   3.262   9.469  0.4363  0.8323  0.7014
  536MOL0     H73917   5.259   3.095   9.420 -4.4660  2.6060 -0.0429
  536MOL0     H73918   4.993   3.228   9.461  2.2942 -1.1140 -2.2056
  536MOL0     H73919   4.938   3.178   9.619 -1.7589 -0.0934 -0.9197
  536MOL0     H73920   5.080   2.980   9.442  0.1127  0.0237  0.4794
  536MOL0     H73921   5.012   2.950   9.596 -4.4500 -1.2129  0.4991
  536MOL0     H73922   4.799   3.001   9.549  0.4626 -5.1149  0.8723
  536MOL0     H73923   4.827   3.077   9.387  2.3133 -0.4609 -1.6103
  536MOL0     H73924   4.911   2.790   9.444  1.1253  1.3099  3.5477
  536MOL0     H73925   4.743   2.834   9.415  1.7269 -1.5661  1.4623
  536MOL0     H73926   4.769   3.016   9.121  0.2004 -1.4375  1.7899
  536MOL0     H73927   4.602   3.090   8.991  0.2160 -1.9128  3.1372
  536MOL0     H73928   4.457   3.010   8.953  0.2964  1.6820 -0.8599
  536MOL0     H73929   4.590   3.015   8.831  2.9920 -0.8911  0.5716
  536MOL0     H73930   4.186   2.691   8.869 -0.1614  1.6603  0.1029
  536MOL0     H73931   4.015   2.598   8.701 -2.8141  2.0945 -3.7664
  536MOL0     H73932   3.884   2.607   8.564  2.1699  0.3974  0.6452
  536MOL0     H73933   3.818   2.717   8.449  0.2157 -0.6871  1.6885
  536MOL0     H73934   3.731   2.548   8.327 -0.0607 -2.6429 -2.2997
  536MOL0     H73935   3.890   2.522   8.270 -0.1786 -3.5887 -0.2148
  536MOL0     H73936   3.740   2.408   8.508  0.3497  0.1808 -0.1171
  536MOL0     H73937   3.903   2.365   8.471  0.7123  4.2978  2.0199
  536MOL0     H73938   3.849   2.269   8.246  0.4777 -0.1396  0.6520
  536MOL0     H73939   3.674   2.298   8.267 -0.0353 -2.0948 -1.0998
  536MOL0     H73940   3.711   2.069   8.308 -2.9245  3.3573 -2.5380
  536MOL0     H73941   3.829   2.110   8.444 -1.1517  2.2962  1.3517
  536MOL0     H73942   3.524   2.163   8.422 -0.4925  3.5693  0.8561
  536MOL0     H73943   3.636   2.207   8.560  1.2954  0.3659 -0.4586
  536MOL0     H73944   3.702   1.968   8.578  0.8365  0.0935 -1.1318
  536MOL0     H73945   3.563   1.932   8.481  0.0698 -0.9506  0.7492
  536MOL0     H73946   3.404   2.010   8.623 -0.0832 -1.1093 -0.9655
  536MOL0     H73947   3.516   2.077   8.746 -0.0634 -0.5904  0.1563
  536MOL0     H73948   4.257   2.791   8.397 -2.6430  1.0382 -0.5657
  536MOL0     H73949   4.432   2.825   8.568 -1.8784  3.1248 -2.3802
  536MOL0     H73950   4.610   2.553   9.056  0.0135 -0.0360 -1.0044
  536MOL0     H73951   4.776   2.614   9.242 -3.5909 -2.3668 -1.1651
  536MOL0     H73952   5.927   3.225   8.670 -2.6814 -1.0126 -3.0794
  536MOL0     H73953   6.105   3.276   8.533  1.7861 -0.2314  1.2485
  536MOL0     H73954   6.453   2.989   8.268 -1.7218  0.1358 -2.2994
  536MOL0     H73955   6.647   2.961   8.132  1.3716  1.2451 -1.4883
  536MOL0     H73956   6.701   3.329   7.895  0.8909  0.1640 -0.7642
  536MOL0     H73957   6.869   3.343   7.935  3.6340 -0.4909 -2.6709
  536MOL0     H73958   6.797   3.098   7.781 -2.1889  0.9661  0.0166
  536MOL0     H73959   6.940   3.188   7.772  0.2561 -0.9725  3.0010
  536MOL0     H73960   6.690   3.343   7.670 -0.4021  0.0914  0.1754
  536MOL0     H73961   6.857   3.364   7.653 -1.3991  0.1641 -0.7247
  536MOL0     H73962   6.729   3.281   7.441 -0.8191  0.9832  0.3209
  536MOL0     H73963   6.686   3.141   7.516 -1.6804  2.9781 -0.4633
  536MOL0     H73964   7.095   3.050   7.407  2.1153  3.7106 -1.4392
  536MOL0     H73965   6.666   3.398   8.102  0.1280 -1.8887 -1.2908
  536MOL0     H73966   6.484   3.484   8.364  3.0596 -1.3410  0.0481
  536MOL0     H73967   6.500   3.536   8.185 -0.4525  0.4050 -1.4723
  536MOL0     H73968   6.359   3.467   8.243  1.3687  4.4918 -0.4729
  537MOL0     O73969  11.174   5.612   3.531  0.4990  0.2157 -0.6628
  537MOL0     C73970  11.152   5.631   3.650 -0.8291 -0.5164 -0.0096
  537MOL0     O73971  11.119   5.536   3.742 -0.4471 -0.2621 -0.1824
  537MOL0     C73972  11.187   5.418   3.727 -1.1307  0.1682 -0.4222
  537MOL0     C73973  11.132   5.305   3.790  0.3672 -0.6529  0.0478
  537MOL0     C73974  11.198   5.185   3.797  0.5923  0.1873 -0.6158
  537MOL0     C73975  11.300   5.155   3.700  0.4452  0.0610 -0.0496
  537MOL0     O73976  11.359   5.036   3.682  0.3148  1.3235 -0.5730
  537MOL0     C73977  11.278   4.936   3.621  0.9163  0.1057 -0.9362
  537MOL0     C73978  11.279   4.947   3.470  0.4445 -0.1560 -0.0740
  537MOL0     C73979  11.173   4.859   3.387 -0.4226 -0.5806 -0.8476
  537MOL0     C73980  11.022   4.896   3.407 -0.1032 -0.4341  0.9448
  537MOL0     C73981  10.975   5.019   3.330 -0.5755 -0.5003 -0.8547
  537MOL0     C73982  10.874   5.107   3.392  0.5896  0.5200 -0.4841
  537MOL0     C73983  10.935   5.182   3.501  0.0509  0.4876 -0.2855
  537MOL0     C73984  10.835   5.281   3.547 -0.5352 -0.1674  0.4165
  537MOL0     N73985  10.802   5.392   3.454 -0.1432  0.5448  0.2461
  537MOL0     C73986  10.898   5.472   3.387  0.0858  0.1718  0.4894
  537MOL0     C73987  10.814   5.544   3.304  1.1633 -0.6157  1.2355
  537MOL0     C73988  10.844   5.656   3.204 -0.5212  0.4154 -0.4885
  537MOL0     C73989  10.996   5.670   3.188  0.2867  0.2535  0.2745
  537MOL0     C73990  11.053   5.549   3.101  0.2317 -0.1548 -0.2224
  537MOL0     C73991  11.189   5.579   3.047 -1.1286  0.0150 -0.5207
  537MOL0     O73992  11.180   5.687   2.952  0.0869  0.3936 -0.6858
  537MOL0     C73993  11.150   5.634   2.831  0.0073  0.0920  1.0086
  537MOL0     C73994  11.245   5.580   2.740  0.1304 -0.9822 -0.3833
  537MOL0     C73995  11.209   5.533   2.607 -0.3504 -0.0765 -0.0099
  537MOL0     C73996  11.315   5.473   2.517  0.5696 -0.5754  0.2561
  537MOL0     C73997  11.068   5.523   2.569 -0.8026 -0.1609 -0.4556
  537MOL0     C73998  11.016   5.471   2.444 -0.1951  0.6434 -0.4942
  537MOL0     O73999  11.079   5.363   2.393  0.1888  0.3347 -0.4218
  537MOL0     C74000  11.060   5.323   2.263  0.4814 -0.5100  0.5937
  537MOL0     C74001  11.057   5.188   2.230  0.3252 -0.2012  0.0601
  537MOL0     C74002  11.040   5.145   2.101 -0.3773 -0.3858 -0.6826
  537MOL0     C74003  11.042   5.239   1.994  0.0529  1.1064  1.1947
  537MOL0     O74004  11.042   5.188   1.862  0.1790  0.5657 -0.0032
  537MOL0     C74005  10.966   5.076   1.828  0.1369 -0.5048  0.8976
  537MOL0     C74006  11.051   4.948   1.820 -0.8798  1.0080  1.3749
  537MOL0     C74007  11.126   4.945   1.683 -0.3910 -0.3850 -0.1218
  537MOL0     C74008  11.243   5.053   1.664  0.3487 -0.6353  0.4866
  537MOL0     C74009  11.337   5.009   1.553  0.4098 -1.0067 -0.5354
  537MOL0     C74010  11.465   5.096   1.534  0.2653  0.4815 -0.3658
  537MOL0     C74011  11.553   5.043   1.653 -0.2229 -0.1221 -1.1287
  537MOL0     C74012  11.654   5.161   1.690 -0.7104  0.2144  0.1090
  537MOL0    Cl74013  11.778   5.184   1.569  0.2343  0.2548 -0.4847
  537MOL0     C74014  11.047   5.368   2.022  1.1827 -0.1132  0.0578
  537MOL0     C74015  11.059   5.412   2.152  0.2882  0.4714 -0.5782
  537MOL0     O74016  10.918   5.529   2.395  0.5667 -0.5083  0.8063
  537MOL0     C74017  10.975   5.572   2.669 -0.5684  0.6078 -0.7143
  537MOL0     C74018  11.021   5.633   2.791 -1.0776 -0.5189  1.0002
  537MOL0     N74019  10.684   5.497   3.312  0.3399  0.1133 -0.0728
  537MOL0     N74020  10.673   5.409   3.406 -0.2551  0.0307 -0.4479
  537MOL0     C74021  11.358   5.263   3.647 -0.4283  0.0216 -0.0623
  537MOL0     C74022  11.309   5.387   3.656 -0.1559 -0.5725  0.3510
  537MOL0     C74023  11.136   5.774   3.684 -0.4761 -0.4648 -0.1239
  537MOL0     C74024  11.041   5.793   3.794  0.3641  0.0247  0.1629
  537MOL0     C74025  11.031   5.920   3.837  0.7291  0.0781  0.5815
  537MOL0     C74026  11.094   6.030   3.782 -0.4749  0.4648  0.3124
  537MOL0     O74027  11.106   6.153   3.838  0.2399  0.5797 -0.0012
  537MOL0     C74028  10.999   6.219   3.898 -0.9306 -0.3164 -0.2786
  537MOL0     C74029  10.900   6.285   3.806 -0.6096  0.0550 -0.4438
  537MOL0     C74030  10.910   6.439   3.824  0.0091  1.1834 -0.2164
  537MOL0     C74031  10.792   6.500   3.756 -0.7732 -0.1554  0.2014
  537MOL0     C74032  10.822   6.648   3.731  0.5090  0.9112  0.9662
  537MOL0     C74033  10.844   6.761   3.696 -0.8747  0.4445 -0.0297
  537MOL0     C74034  11.197   6.010   3.689  0.3992 -0.5797 -0.0806
  537MOL0     C74035  11.216   5.882   3.630 -0.3858 -0.3653  0.1854
  537MOL0     C74036  11.315   5.880   3.514 -0.0937 -0.3428  0.8416
  537MOL0     H74037  11.044   5.317   3.854  0.7894 -1.5954  0.8336
  537MOL0     H74038  11.157   5.103   3.856  0.3230  0.1700 -0.8233
  537MOL0     H74039  11.174   4.938   3.655  0.6482  0.2175 -1.7273
  537MOL0     H74040  11.322   4.843   3.657  1.5288  0.7043 -0.1104
  537MOL0     H74041  11.266   5.051   3.438 -1.0736 -0.6102 -1.0552
  537MOL0     H74042  11.380   4.922   3.437  1.1638  0.8203  1.2699
  537MOL0     H74043  11.195   4.864   3.280 -0.9982 -0.3424 -0.9590
  537MOL0     H74044  11.184   4.754   3.415  1.6386  0.3208  2.2870
  537MOL0     H74045  10.959   4.818   3.364  1.2574  1.3685 -5.4899
  537MOL0     H74046  11.015   4.914   3.514 -0.6405  1.5663  0.6220
  537MOL0     H74047  10.926   4.984   3.239 -0.9674  0.5648 -1.0707
  537MOL0     H74048  11.064   5.080   3.311  2.1958 -3.7355  0.6848
  537MOL0     H74049  10.831   5.170   3.313  0.9918  0.6942 -0.5632
  537MOL0     H74050  10.802   5.034   3.430  0.7799  2.2386  3.7030
  537MOL0     H74051  11.026   5.238   3.478  0.1296  0.7539  0.6295
  537MOL0     H74052  10.954   5.124   3.592 -0.9489 -0.5205 -0.6899
  537MOL0     H74053  10.753   5.214   3.572  2.2856 -3.0727  2.8135
  537MOL0     H74054  10.864   5.326   3.642 -0.1778  0.6659 -0.0785
  537MOL0     H74055  11.003   5.473   3.414  0.7411  1.3047 -1.8459
  537MOL0     H74056  10.807   5.757   3.223 -0.0567  0.4738  0.1502
  537MOL0     H74057  10.808   5.627   3.106  0.7500  1.0851 -1.1881
  537MOL0     H74058  11.008   5.767   3.137  1.1213  1.0645  1.9524
  537MOL0     H74059  11.046   5.686   3.284 -0.3200  0.7718  0.5124
  537MOL0     H74060  11.070   5.465   3.168  1.6064  1.4179  1.5155
  537MOL0     H74061  10.979   5.512   3.029 -0.1696  1.3306 -0.6068
  537MOL0     H74062  11.262   5.624   3.114 -1.3880 -1.1923  0.6248
  537MOL0     H74063  11.244   5.489   3.016  2.0685  2.6509 -3.2352
  537MOL0     H74064  11.350   5.582   2.764  0.3264 -0.0916 -1.2634
  537MOL0     H74065  11.285   5.373   2.482 -1.0958  0.1064 -0.3415
  537MOL0     H74066  11.413   5.477   2.567  0.3558  0.6584  0.6054
  537MOL0     H74067  11.319   5.543   2.434 -0.8907  0.2477  0.8472
  537MOL0     H74068  11.067   5.116   2.311  0.1504 -2.3285 -1.7018
  537MOL0     H74069  11.061   5.039   2.087  2.9022 -0.0141  0.4594
  537MOL0     H74070  10.889   5.053   1.903  0.7125  0.6797  1.8809
  537MOL0     H74071  10.911   5.094   1.735  0.3821  0.5311  0.9461
  537MOL0     H74072  11.133   4.946   1.891  1.5659 -0.9307 -1.2624
  537MOL0     H74073  10.997   4.853   1.824 -0.1526  0.2542 -2.5849
  537MOL0     H74074  11.050   4.955   1.605 -0.9122  3.5174  0.7018
  537MOL0     H74075  11.163   4.842   1.674 -0.0085 -0.2483 -0.1594
  537MOL0     H74076  11.282   5.072   1.764 -2.2395  2.3785  1.0802
  537MOL0     H74077  11.203   5.154   1.653 -1.4323 -1.3287  0.2383
  537MOL0     H74078  11.364   4.908   1.585  3.8849  0.5301  1.9990
  537MOL0     H74079  11.279   4.999   1.461  1.0765 -2.9219 -0.7867
  537MOL0     H74080  11.444   5.203   1.546  1.8149  0.5038  4.3304
  537MOL0     H74081  11.516   5.072   1.440 -1.8402 -1.2618 -1.1302
  537MOL0     H74082  11.602   4.949   1.627 -1.7092 -1.8408  1.8800
  537MOL0     H74083  11.497   5.020   1.744 -3.6855 -3.5807 -3.7963
  537MOL0     H74084  11.699   5.135   1.787  3.0505 -4.0129 -2.3307
  537MOL0     H74085  11.597   5.254   1.698 -2.6854 -0.8003 -1.3796
  537MOL0     H74086  11.059   5.427   1.932 -0.0557 -0.7164 -0.5316
  537MOL0     H74087  11.058   5.520   2.157  1.7776  0.5777 -1.8997
  537MOL0     H74088  10.869   5.570   2.648 -0.6788  1.6270 -0.3172
  537MOL0     H74089  10.953   5.666   2.870 -0.3560 -3.4740  3.0154
  537MOL0     H74090  11.454   5.254   3.597 -1.9325 -0.8202 -3.1203
  537MOL0     H74091  11.361   5.467   3.604  2.2879 -2.0209  0.4198
  537MOL0     H74092  10.977   5.717   3.837 -2.1404  0.5921 -2.2665
  537MOL0     H74093  10.975   5.935   3.928 -0.0350 -1.4839  0.4070
  537MOL0     H74094  10.946   6.144   3.958 -0.1402 -1.3540 -0.8457
  537MOL0     H74095  11.051   6.297   3.956  0.0187 -1.3226  0.2625
  537MOL0     H74096  10.798   6.261   3.840 -0.7229  1.2966  0.1266
  537MOL0     H74097  10.926   6.260   3.703  1.8399  2.5925 -0.5356
  537MOL0     H74098  10.912   6.472   3.929  3.7228  0.6671  0.0273
  537MOL0     H74099  11.008   6.461   3.780  0.7323 -0.5370  0.4407
  537MOL0     H74100  10.705   6.485   3.821 -0.8486  2.5903  0.8496
  537MOL0     H74101  10.772   6.446   3.663  1.8576  3.5378 -2.7971
  537MOL0     H74102  10.860   6.860   3.658 -2.6821  0.5100 -0.6879
  537MOL0     H74103  11.259   6.089   3.649 -1.3634  0.4465 -0.8804
  537MOL0     H74104  11.259   5.863   3.421  0.3021 -2.8367  0.9762
  537MOL0     H74105  11.387   5.961   3.521 -2.1029  1.6094  0.2656
  537MOL0     H74106  11.374   5.790   3.534  0.4564 -0.6778 -1.8482
  538MOL0     O74107  11.448   4.618   8.984 -0.6072  0.0958 -0.4621
  538MOL0     C74108  11.556   4.671   8.950  0.4656  0.5618 -0.4025
  538MOL0     O74109  11.644   4.596   8.881  0.3561 -0.7982 -0.0560
  538MOL0     C74110  11.696   4.665   8.777 -0.3877 -0.2459 -0.9554
  538MOL0     C74111  11.631   4.741   8.683 -0.2745 -0.4383  0.3144
  538MOL0     C74112  11.702   4.798   8.582 -0.9296  0.6810 -0.7906
  538MOL0     C74113  11.839   4.813   8.578 -0.0289 -0.7202  0.7413
  538MOL0     O74114  11.885   4.866   8.459 -0.8429  0.3727  0.8765
  538MOL0     C74115  12.011   4.819   8.415 -0.2898  1.3616 -0.7096
  538MOL0     C74116  12.051   4.874   8.278  0.2302 -0.6258  0.4806
  538MOL0     C74117  11.958   4.848   8.165  0.0797  0.3815 -0.4667
  538MOL0     C74118  11.971   4.967   8.072 -0.6940 -0.2061 -1.1500
  538MOL0     C74119  11.917   4.930   7.936  0.2886 -0.0505 -0.5743
  538MOL0     C74120  11.774   4.886   7.932 -0.4230 -0.1765  0.4145
  538MOL0     C74121  11.668   4.996   7.939  0.2929  0.1463 -0.5699
  538MOL0     C74122  11.525   4.945   7.937 -0.4528 -0.7251 -0.3463
  538MOL0     N74123  11.469   4.927   7.800 -0.5595 -0.9497  0.2642
  538MOL0     C74124  11.401   4.818   7.758  0.0672  0.2919  0.0650
  538MOL0     C74125  11.353   4.851   7.633  0.1692 -0.1437  0.2632
  538MOL0     C74126  11.261   4.766   7.551 -0.2513  0.0890 -1.0426
  538MOL0     C74127  11.352   4.661   7.488 -0.0140 -0.4130 -0.0484
  538MOL0     C74128  11.403   4.696   7.346  0.4430 -0.3641 -0.0495
  538MOL0     C74129  11.499   4.590   7.289 -0.3423  0.3964 -0.0200
  538MOL0     O74130  11.411   4.485   7.261 -0.1137  0.7781 -0.6065
  538MOL0     C74131  11.438   4.413   7.148  0.0128 -0.5040 -0.1384
  538MOL0     C74132  11.569   4.411   7.094  1.0247  0.6183 -0.3455
  538MOL0     C74133  11.601   4.339   6.980  0.5268  0.4724 -0.0774
  538MOL0     C74134  11.745   4.309   6.950  1.2184  0.1604 -0.1104
  538MOL0     C74135  11.505   4.251   6.927 -0.7428  0.2674 -0.0618
  538MOL0     C74136  11.527   4.150   6.817  0.5718 -0.0783 -0.4911
  538MOL0     O74137  11.595   4.208   6.707  0.6317 -0.0673 -0.0473
  538MOL0     C74138  11.630   4.111   6.609 -0.2531  0.5588 -0.5979
  538MOL0     C74139  11.628   4.155   6.473  0.3584 -0.2597  0.1927
  538MOL0     C74140  11.689   4.070   6.373  0.5050  0.1914 -0.9767
  538MOL0     C74141  11.737   3.937   6.400  0.0663  0.3437 -0.3792
  538MOL0     O74142  11.800   3.857   6.306 -0.5774  0.0148 -1.1840
  538MOL0     C74143  11.833   3.896   6.170  0.2740  0.3314 -0.4676
  538MOL0     C74144  11.927   3.789   6.109  0.3385 -0.3346 -0.3182
  538MOL0     C74145  11.880   3.646   6.126 -0.4723 -0.3207  0.5405
  538MOL0     C74146  11.809   3.605   5.987 -0.0643 -0.1388 -0.2893
  538MOL0     C74147  11.757   3.459   5.979 -0.8069 -0.4125  0.5813
  538MOL0     C74148  11.699   3.433   5.841  0.6151 -1.1267  0.2285
  538MOL0     C74149  11.643   3.287   5.850 -0.0278 -0.4926 -1.3264
  538MOL0     C74150  11.596   3.258   5.711 -0.5985  0.0114 -0.2306
  538MOL0    Cl74151  11.725   3.279   5.583 -0.1249 -0.1721 -0.1234
  538MOL0     C74152  11.731   3.897   6.535 -0.8576  0.4549 -0.3407
  538MOL0     C74153  11.677   3.979   6.633  0.0744 -0.6390  0.4650
  538MOL0     O74154  11.458   4.047   6.814  0.0397  0.5682 -0.0968
  538MOL0     C74155  11.376   4.240   6.987  0.7577  0.1210 -0.7108
  538MOL0     C74156  11.342   4.328   7.093  0.1993 -0.2739  0.4350
  538MOL0     N74157  11.392   4.980   7.607 -0.5997 -0.3014  0.8795
  538MOL0     N74158  11.453   5.027   7.706 -0.2250 -0.7426  0.0995
  538MOL0     C74159  11.913   4.742   8.679  0.2062 -0.1613  0.4814
  538MOL0     C74160  11.838   4.663   8.773 -0.0273 -0.0435  0.6185
  538MOL0     C74161  11.580   4.804   8.999  0.0367 -0.1133  0.2962
  538MOL0     C74162  11.710   4.850   9.015 -0.4408  0.1300  0.4608
  538MOL0     C74163  11.744   4.970   9.065  0.2978  0.4021 -1.0022
  538MOL0     C74164  11.648   5.066   9.083 -0.3077 -1.0839  1.3196
  538MOL0     O74165  11.673   5.195   9.121  0.0252 -0.0744 -0.0934
  538MOL0     C74166  11.791   5.234   9.188  0.9652  0.5115  0.0039
  538MOL0     C74167  11.774   5.361   9.256 -0.2135 -1.2710 -0.0634
  538MOL0     C74168  11.657   5.369   9.353  0.5071  0.2162 -0.2805
  538MOL0     C74169  11.634   5.509   9.418 -0.0023  0.2258  0.3948
  538MOL0     C74170  11.602   5.611   9.321  0.1096  0.3442  0.7930
  538MOL0     C74171  11.582   5.701   9.239 -0.3560 -0.1434 -0.2564
  538MOL0     C74172  11.517   5.031   9.074  0.3003  0.2577  0.0766
  538MOL0     C74173  11.482   4.906   9.024  0.9129  0.5767  0.1566
  538MOL0     C74174  11.331   4.887   8.984  0.1568  1.0791 -0.2274
  538MOL0     H74175  11.525   4.760   8.672 -0.0757 -0.7964 -4.2420
  538MOL0     H74176  11.646   4.836   8.497 -0.2188  1.4403 -0.9305
  538MOL0     H74177  12.016   4.710   8.408  0.2762  1.1268  2.1261
  538MOL0     H74178  12.088   4.836   8.491 -0.7143  0.5070 -0.0605
  538MOL0     H74179  12.048   4.981   8.299  0.5356 -0.8203  1.6065
  538MOL0     H74180  12.151   4.841   8.249 -0.6403 -5.1963  1.8287
  538MOL0     H74181  11.985   4.753   8.119 -2.3899 -0.0004 -1.2591
  538MOL0     H74182  11.856   4.827   8.199  1.0100 -5.1569 -0.1299
  538MOL0     H74183  11.927   5.057   8.115  0.4774 -0.8424  1.5654
  538MOL0     H74184  12.076   4.994   8.060 -0.1434  0.9936  4.1663
  538MOL0     H74185  11.975   4.847   7.894 -0.9331 -0.9096 -0.5905
  538MOL0     H74186  11.934   5.018   7.872  0.3206  0.5536  0.2560
  538MOL0     H74187  11.761   4.859   7.827 -1.1701 -0.1646  0.4965
  538MOL0     H74188  11.758   4.797   7.993  0.0745 -1.1596 -0.8526
  538MOL0     H74189  11.675   5.071   7.860  1.9036  2.7893  1.9194
  538MOL0     H74190  11.680   5.060   8.027  0.5216 -1.3138  0.5179
  538MOL0     H74191  11.506   4.847   7.981  1.4046 -1.1161 -0.3071
  538MOL0     H74192  11.459   5.017   7.987 -1.6165 -2.1969  0.2776
  538MOL0     H74193  11.384   4.730   7.819 -4.9849 -1.3083 -3.0846
  538MOL0     H74194  11.218   4.828   7.472 -1.4851 -2.9452 -2.9175
  538MOL0     H74195  11.183   4.719   7.612  0.2151  1.4709  0.6771
  538MOL0     H74196  11.433   4.641   7.559 -1.6460 -1.2028  1.6833
  538MOL0     H74197  11.277   4.585   7.469 -1.9498  1.4648 -0.3626
  538MOL0     H74198  11.317   4.714   7.281  0.1757  0.4169  0.4930
  538MOL0     H74199  11.458   4.790   7.352  0.6298 -0.5450  1.5724
  538MOL0     H74200  11.553   4.639   7.207 -1.2219  0.3555 -0.6417
  538MOL0     H74201  11.573   4.553   7.360  1.2420  0.4965 -1.5417
  538MOL0     H74202  11.655   4.460   7.139  0.5117  1.8975 -0.7026
  538MOL0     H74203  11.788   4.390   6.891 -0.7639  1.1160 -0.3161
  538MOL0     H74204  11.767   4.211   6.907 -2.0157 -0.2365 -1.1237
  538MOL0     H74205  11.789   4.309   7.051  1.1761 -1.3978 -0.0638
  538MOL0     H74206  11.597   4.257   6.455  0.9529 -0.4702 -2.4302
  538MOL0     H74207  11.700   4.112   6.274 -0.4580 -1.5818 -1.8753
  538MOL0     H74208  11.739   3.909   6.115  0.1495 -0.0404 -0.3479
  538MOL0     H74209  11.885   3.992   6.174  0.5120  0.1474  1.4862
  538MOL0     H74210  11.940   3.825   6.006 -1.0733 -1.1568 -0.8073
  538MOL0     H74211  12.017   3.787   6.170 -1.0479 -1.8204  1.7948
  538MOL0     H74212  11.813   3.636   6.212  1.4473 -1.0243  2.0159
  538MOL0     H74213  11.962   3.581   6.158 -1.3215 -1.1193  1.1721
  538MOL0     H74214  11.882   3.630   5.910  4.6874 -1.0875  3.4125
  538MOL0     H74215  11.715   3.661   5.979  0.0109 -0.0912 -0.8536
  538MOL0     H74216  11.840   3.390   5.995 -0.5118 -1.1928 -3.4149
  538MOL0     H74217  11.677   3.432   6.048 -1.6760 -3.0092 -1.3328
  538MOL0     H74218  11.781   3.444   5.769  1.8127  2.6224  1.8901
  538MOL0     H74219  11.613   3.498   5.823 -1.1650 -3.4630 -0.2358
  538MOL0     H74220  11.562   3.284   5.924  1.0802  0.0412 -0.0580
  538MOL0     H74221  11.713   3.207   5.875 -2.8329 -3.0878 -1.1123
  538MOL0     H74222  11.511   3.323   5.689 -2.4183 -0.3737  4.5198
  538MOL0     H74223  11.551   3.159   5.706 -1.1569  0.2560 -0.0480
  538MOL0     H74224  11.776   3.805   6.569 -2.4823 -0.0228  0.6321
  538MOL0     H74225  11.664   3.936   6.732  0.8268 -1.0534  0.3905
  538MOL0     H74226  11.299   4.170   6.954 -1.3051 -0.1292  3.8368
  538MOL0     H74227  11.246   4.318   7.143  0.5743 -0.8334  1.0615
  538MOL0     H74228  12.021   4.734   8.679  0.1307 -1.6014  1.6182
  538MOL0     H74229  11.884   4.588   8.837 -2.8015 -2.0587  0.4394
  538MOL0     H74230  11.799   4.794   8.986 -2.5850 -2.1930 -2.2627
  538MOL0     H74231  11.849   4.992   9.082 -0.2545  2.0307  0.6165
  538MOL0     H74232  11.813   5.163   9.269  2.1208 -0.0059 -0.7245
  538MOL0     H74233  11.872   5.227   9.115  1.6663  3.3967  0.3616
  538MOL0     H74234  11.752   5.442   9.186  2.9223  0.0924  0.3840
  538MOL0     H74235  11.863   5.385   9.314 -0.1555 -0.2628 -0.5646
  538MOL0     H74236  11.564   5.349   9.299 -0.0246 -0.4845  0.8661
  538MOL0     H74237  11.676   5.285   9.421  1.6739  0.3767 -0.3824
  538MOL0     H74238  11.724   5.532   9.476 -0.0662  2.8609 -0.4303
  538MOL0     H74239  11.555   5.518   9.493 -2.5150  1.4744 -2.2126
  538MOL0     H74240  11.560   5.778   9.168  1.6036  1.0593  0.3727
  538MOL0     H74241  11.439   5.096   9.110  0.3855 -0.4634  1.6157
  538MOL0     H74242  11.325   4.847   8.882  0.7920 -0.3602  0.2830
  538MOL0     H74243  11.292   4.804   9.043  2.9819  1.1947  2.0076
  538MOL0     H74244  11.275   4.981   8.988  2.8180  2.7355  2.7813
  539MOL0     O74245   4.976  10.290   7.921  0.2898 -0.1111 -0.8195
  539MOL0     C74246   4.954  10.175   7.884 -0.1833 -1.0316  0.3849
  539MOL0     O74247   4.868  10.143   7.780  0.4038  0.7705  0.1321
  539MOL0     C74248   4.751  10.215   7.785 -0.3545  1.5124  0.4830
  539MOL0     C74249   4.739  10.352   7.743 -0.5850  0.2509  0.1702
  539MOL0     C74250   4.618  10.417   7.750 -0.1245  0.6474  0.4678
  539MOL0     C74251   4.509  10.346   7.790  0.2433 -0.8945 -0.9651
  539MOL0     O74252   4.389  10.419   7.795  0.7915  0.1888 -0.3866
  539MOL0     C74253   4.372  10.489   7.916  0.2044  0.2839  0.5402
  539MOL0     C74254   4.220  10.547   7.922  0.4191 -0.0612 -0.6460
  539MOL0     C74255   4.181  10.639   7.809  1.1402  0.1389  0.7522
  539MOL0     C74256   4.064  10.728   7.857 -1.1540  0.2386  0.2635
  539MOL0     C74257   4.042  10.860   7.766 -0.4373  0.3116 -0.1782
  539MOL0     C74258   4.136  10.967   7.806  0.1202  0.2264 -0.5569
  539MOL0     C74259   4.266  10.984   7.722  0.1200 -0.2064 -0.2983
  539MOL0     C74260   4.292  11.131   7.669 -0.0960 -0.0349  0.4533
  539MOL0     N74261   4.346  11.202   7.790 -0.1715  0.4665  0.0379
  539MOL0     C74262   4.474  11.192   7.844 -0.3958  0.1773  0.4807
  539MOL0     C74263   4.475  11.277   7.949 -0.6057  0.0584 -0.9140
  539MOL0     C74264   4.581  11.302   8.051  0.0658  0.5093  0.3956
  539MOL0     C74265   4.554  11.227   8.184 -0.2004  1.4544  0.5846
  539MOL0     C74266   4.658  11.256   8.292  0.8370  0.4856  0.0078
  539MOL0     C74267   4.633  11.160   8.403  0.1798  1.1718 -0.8973
  539MOL0     O74268   4.726  11.200   8.506 -0.1683 -0.3742 -0.0048
  539MOL0     C74269   4.765  11.100   8.592 -0.2253  0.0060 -0.3814
  539MOL0     C74270   4.894  11.122   8.644  0.4394 -0.1090  0.2177
  539MOL0     C74271   4.959  11.028   8.733  0.8059 -1.2372 -0.2694
  539MOL0     C74272   5.096  11.062   8.775  0.2058  1.4845  0.3261
  539MOL0     C74273   4.888  10.904   8.763  0.1943 -0.2550 -0.8410
  539MOL0     C74274   4.941  10.798   8.851 -0.4701  0.8012 -0.9062
  539MOL0     O74275   5.055  10.832   8.930 -0.0272  0.0811  0.8540
  539MOL0     C74276   5.099  10.741   9.024  0.1531 -0.4987  1.0879
  539MOL0     C74277   5.099  10.600   8.996  1.5562  0.6142  0.5659
  539MOL0     C74278   5.173  10.513   9.076 -0.3708  0.2435 -0.2580
  539MOL0     C74279   5.246  10.563   9.189 -0.0876 -0.2065 -0.9414
  539MOL0     O74280   5.322  10.483   9.275  0.5435 -0.7960 -0.6409
  539MOL0     C74281   5.386  10.369   9.213  1.0434 -0.6924  0.3678
  539MOL0     C74282   5.496  10.304   9.290 -0.8419  0.0198 -0.7083
  539MOL0     C74283   5.446  10.183   9.378  1.0817  0.6458  0.1304
  539MOL0     C74284   5.559  10.093   9.425  0.2294 -0.6745  0.4221
  539MOL0     C74285   5.514   9.988   9.527 -1.1556 -0.2579 -0.4058
  539MOL0     C74286   5.457  10.039   9.660  1.2908  0.2802  0.0511
  539MOL0     C74287   5.550  10.142   9.729 -0.3892  1.4890 -0.3643
  539MOL0     C74288   5.540  10.126   9.887 -0.7194 -0.0063  0.3765
  539MOL0    Cl74289   5.646  10.261   9.949  0.1051  0.0385  0.5907
  539MOL0     C74290   5.240  10.705   9.214  0.7205  0.8296 -0.1885
  539MOL0     C74291   5.171  10.788   9.132  0.1332  0.2326 -0.8024
  539MOL0     O74292   4.863  10.704   8.879 -0.0561  0.4362 -0.2961
  539MOL0     C74293   4.757  10.895   8.706  0.3594  0.0956  0.1810
  539MOL0     C74294   4.698  11.000   8.628  0.0362  0.4965  0.5155
  539MOL0     N74295   4.350  11.341   7.951  0.7029  0.7058  0.1573
  539MOL0     N74296   4.273  11.286   7.857  0.1979 -0.8244  0.5510
  539MOL0     C74297   4.511  10.214   7.831  0.6935  0.0542 -0.3252
  539MOL0     C74298   4.632  10.144   7.820 -0.9003 -0.0074 -1.4155
  539MOL0     C74299   5.016  10.073   7.950  0.1677  0.2685  0.4552
  539MOL0     C74300   5.033   9.948   7.881 -1.3472  0.2292  0.0732
  539MOL0     C74301   5.091   9.838   7.931  0.5051  0.1964 -0.7742
  539MOL0     C74302   5.140   9.833   8.061  0.3616  0.9330  0.1590
  539MOL0     O74303   5.205   9.720   8.103  0.6039  0.0375  0.3854
  539MOL0     C74304   5.343   9.722   8.079 -0.1858 -0.5206 -0.8286
  539MOL0     C74305   5.408   9.600   8.141  0.2262 -0.0605 -0.0641
  539MOL0     C74306   5.414   9.475   8.045 -0.1884 -0.9771  0.2290
  539MOL0     C74307   5.466   9.487   7.899  0.4837 -0.1006  0.6620
  539MOL0     C74308   5.614   9.476   7.910  0.2776 -0.5539  0.1088
  539MOL0     C74309   5.735   9.466   7.908  1.3700 -0.4087  0.9730
  539MOL0     C74310   5.133   9.949   8.128 -0.3944  0.2786 -0.3064
  539MOL0     C74311   5.069  10.070   8.082 -0.6801 -0.0041  0.2788
  539MOL0     C74312   5.068  10.192   8.175 -0.2928 -0.6230  0.4303
  539MOL0     H74313   4.832  10.405   7.726  0.3963  0.1371  4.1685
  539MOL0     H74314   4.596  10.516   7.713 -1.7254  0.1691  0.0898
  539MOL0     H74315   4.438  10.575   7.928  0.3077  0.2062  0.5341
  539MOL0     H74316   4.381  10.424   8.004 -2.6047  0.2487  0.8858
  539MOL0     H74317   4.154  10.462   7.900  2.3751 -1.4884 -1.3214
  539MOL0     H74318   4.212  10.589   8.023  2.6355 -0.6027 -0.1939
  539MOL0     H74319   4.262  10.707   7.780 -1.8455  3.1807 -1.2025
  539MOL0     H74320   4.156  10.589   7.715 -2.7801  2.9352  0.0414
  539MOL0     H74321   3.967  10.677   7.855 -2.4051  2.4476  0.9288
  539MOL0     H74322   4.084  10.757   7.960  2.9677  2.1431 -0.8798
  539MOL0     H74323   3.941  10.891   7.795 -1.3482 -1.3224 -1.4143
  539MOL0     H74324   4.045  10.844   7.657 -2.8248  3.5383 -0.8499
  539MOL0     H74325   4.080  11.057   7.780  2.1862  1.6244 -0.4092
  539MOL0     H74326   4.168  10.969   7.910  0.4773 -2.7191 -0.5144
  539MOL0     H74327   4.252  10.921   7.634  0.1083  0.5250 -0.8269
  539MOL0     H74328   4.355  10.945   7.773  1.7242  1.8949 -1.3351
  539MOL0     H74329   4.342  11.115   7.573 -4.4951 -3.3774 -1.6265
  539MOL0     H74330   4.207  11.193   7.641  2.2236  3.4305  0.4103
  539MOL0     H74331   4.567  11.146   7.811  2.3620  5.8562 -1.0092
  539MOL0     H74332   4.580  11.411   8.060  1.0606  0.3991  2.2773
  539MOL0     H74333   4.678  11.267   8.015  1.2675  1.3938  2.5483
  539MOL0     H74334   4.459  11.269   8.219  0.4188  1.9658  1.7025
  539MOL0     H74335   4.536  11.121   8.165  1.2464  0.5635  3.5103
  539MOL0     H74336   4.763  11.270   8.267  1.4588  0.6067  2.3725
  539MOL0     H74337   4.624  11.352   8.333  0.6158  0.6318 -0.5172
  539MOL0     H74338   4.528  11.157   8.432  0.3022 -3.0665 -0.1471
  539MOL0     H74339   4.661  11.057   8.377 -0.0392  1.2631 -1.4980
  539MOL0     H74340   4.950  11.211   8.620  1.5276 -1.2325 -1.5891
  539MOL0     H74341   5.091  11.139   8.853 -1.5337  0.1835  1.5773
  539MOL0     H74342   5.148  11.093   8.684  0.2957 -2.4142 -1.1444
  539MOL0     H74343   5.156  10.976   8.803 -0.9775  0.5811  0.1595
  539MOL0     H74344   5.055  10.549   8.911 -1.6941  0.8390  1.9395
  539MOL0     H74345   5.175  10.407   9.056 -4.0161 -0.4027  1.9161
  539MOL0     H74346   5.313  10.296   9.176 -0.0332  1.7174 -2.6705
  539MOL0     H74347   5.430  10.421   9.128  1.7416  2.4489  2.4742
  539MOL0     H74348   5.551  10.251   9.211 -0.5582  0.0934 -0.5634
  539MOL0     H74349   5.551  10.381   9.345  1.1480 -1.0236 -1.1387
  539MOL0     H74350   5.377  10.122   9.320 -1.3114  0.6531  2.7639
  539MOL0     H74351   5.395  10.234   9.460  2.9437  3.3566 -0.2484
  539MOL0     H74352   5.623  10.166   9.476 -0.0556 -0.8974  1.1121
  539MOL0     H74353   5.614  10.046   9.343 -1.9314  0.1233 -1.5810
  539MOL0     H74354   5.436   9.921   9.490 -0.0903 -1.1248 -1.1410
  539MOL0     H74355   5.597   9.923   9.556  0.7218  2.3852  0.5556
  539MOL0     H74356   5.445   9.953   9.726 -0.3164 -0.5827 -1.2928
  539MOL0     H74357   5.359  10.084   9.643  2.5243  3.8881  1.5117
  539MOL0     H74358   5.524  10.236   9.679 -1.5260  0.9485 -0.8110
  539MOL0     H74359   5.655  10.128   9.701  0.9488  4.8397  2.2914
  539MOL0     H74360   5.563  10.023   9.915  0.7420 -0.9658 -3.6380
  539MOL0     H74361   5.438  10.145   9.921 -0.0383 -0.4688  2.8128
  539MOL0     H74362   5.301  10.749   9.292 -0.4748 -0.6852  1.6911
  539MOL0     H74363   5.162  10.896   9.136 -3.0549  0.0381  1.5377
  539MOL0     H74364   4.697  10.817   8.752  1.2875 -1.9496 -1.8674
  539MOL0     H74365   4.594  11.001   8.599 -0.4835  3.2388  2.1653
  539MOL0     H74366   4.430  10.154   7.871  0.4826  0.6433  0.1395
  539MOL0     H74367   4.626  10.039   7.847 -3.0484  0.8656  2.1960
  539MOL0     H74368   5.007   9.937   7.777 -0.8669 -2.2758  0.1533
  539MOL0     H74369   5.093   9.748   7.870 -1.3413  0.1099 -0.7662
  539MOL0     H74370   5.371   9.733   7.974  0.7432  0.8624 -0.4628
  539MOL0     H74371   5.382   9.810   8.132  1.2249 -0.9528 -1.1077
  539MOL0     H74372   5.356   9.580   8.235  2.0009 -3.5354  0.3430
  539MOL0     H74373   5.507   9.632   8.175  1.1101 -0.6040 -1.9783
  539MOL0     H74374   5.465   9.390   8.091  1.0150  0.3270  1.4239
  539MOL0     H74375   5.306   9.460   8.036 -0.0927 -0.3864 -4.5675
  539MOL0     H74376   5.441   9.582   7.851  2.6094  0.9407  1.4794
  539MOL0     H74377   5.431   9.403   7.838 -0.1851  0.2525  0.5490
  539MOL0     H74378   5.838   9.441   7.897  1.5008  0.0210  1.2153
  539MOL0     H74379   5.164   9.949   8.232 -0.1423 -1.7973 -0.3240
  539MOL0     H74380   5.137  10.168   8.256 -1.8363  0.1612  2.0474
  539MOL0     H74381   5.104  10.287   8.135 -1.3230  0.5433  2.1622
  539MOL0     H74382   4.975  10.202   8.232 -2.8854 -0.7036 -3.3847
  540MOL0     O74383  11.487   1.671   8.589  0.4791  0.3659  0.0090
  540MOL0     C74384  11.401   1.725   8.521 -0.4622  0.2155  0.3099
  540MOL0     O74385  11.276   1.679   8.494  0.9383  0.0527  0.0587
  540MOL0     C74386  11.251   1.551   8.520 -0.2805  0.3797 -0.2956
  540MOL0     C74387  11.224   1.511   8.645  0.6611  0.0270  0.4084
  540MOL0     C74388  11.186   1.373   8.668 -0.0605  0.1850 -1.7694
  540MOL0     C74389  11.202   1.277   8.569  0.4399  1.1753  0.0305
  540MOL0     O74390  11.201   1.147   8.607 -1.2492  0.0527 -0.1371
  540MOL0     C74391  11.212   1.037   8.513 -0.2472 -0.0712  0.0438
  540MOL0     C74392  11.359   1.006   8.502  0.6777  0.5405  0.2367
  540MOL0     C74393  11.411   0.866   8.551 -0.0023 -0.7780 -0.4215
  540MOL0     C74394  11.567   0.858   8.522 -0.5730  0.0137 -0.3200
  540MOL0     C74395  11.645   0.919   8.635  0.3011  0.0438 -0.0625
  540MOL0     C74396  11.651   0.846   8.773  0.0260  0.6425  0.4819
  540MOL0     C74397  11.757   0.721   8.749 -0.5123  0.0862 -0.4240
  540MOL0     C74398  11.761   0.648   8.892 -0.7207 -0.1554  0.2864
  540MOL0     N74399  11.634   0.578   8.917 -0.0133  0.7138  1.0211
  540MOL0     C74400  11.515   0.627   8.975  0.2630 -0.0316  0.8179
  540MOL0     C74401  11.429   0.524   8.972  0.2483 -0.5242  0.4414
  540MOL0     C74402  11.293   0.524   9.034 -0.9348 -0.2591 -0.0222
  540MOL0     C74403  11.202   0.638   8.993  0.4088 -0.3104  0.5355
  540MOL0     C74404  11.184   0.654   8.837  0.1033  0.0060 -0.6038
  540MOL0     C74405  11.105   0.779   8.793 -0.3448 -0.0608 -0.2748
  540MOL0     O74406  11.006   0.808   8.898 -0.1677 -0.3319  0.3358
  540MOL0     C74407  10.886   0.731   8.904 -0.8693 -0.1521  0.6348
  540MOL0     C74408  10.806   0.765   9.019  0.1244  0.5538 -0.5675
  540MOL0     C74409  10.685   0.697   9.052  0.5112  0.5630 -0.6608
  540MOL0     C74410  10.621   0.726   9.193  1.1000  0.4909  0.6091
  540MOL0     C74411  10.630   0.606   8.959  0.6525 -0.3833 -0.0111
  540MOL0     C74412  10.499   0.533   8.973 -0.1215  0.2748 -0.1385
  540MOL0     O74413  10.462   0.458   8.859  0.0269 -0.8133 -0.4132
  540MOL0     C74414  10.374   0.356   8.870  1.2148  0.1226 -0.4943
  540MOL0     C74415  10.290   0.329   8.767 -0.6046  0.0984 -0.4807
  540MOL0     C74416  10.204   0.217   8.762 -0.1115  0.1524 -0.2069
  540MOL0     C74417  10.220   0.120   8.859 -0.0177 -0.5142 -1.0046
  540MOL0     O74418  10.146  -0.004   8.868 -0.7820 -0.3249 -0.1098
  540MOL0     C74419  10.007   0.016   8.875  0.3851  0.4481 -0.5950
  540MOL0     C74420   9.946  -0.034   9.002 -0.4310 -0.0455  0.3835
  540MOL0     C74421   9.793  -0.033   8.997 -0.1015  0.3796  0.9980
  540MOL0     C74422   9.728  -0.124   9.097  0.3624 -0.7987  0.5063
  540MOL0     C74423   9.741  -0.072   9.245 -1.0075 -0.4596 -0.8174
  540MOL0     C74424   9.668  -0.161   9.345 -0.6952  0.9006  0.7082
  540MOL0     C74425   9.668  -0.111   9.489 -0.2146 -0.6412 -0.2958
  540MOL0     C74426   9.627  -0.224   9.587  0.1195  0.0497  1.0521
  540MOL0    Cl74427   9.452  -0.284   9.558 -0.1087  0.0393 -0.2846
  540MOL0     C74428  10.309   0.147   8.974 -0.0441 -0.5554  1.2941
  540MOL0     C74429  10.387   0.263   8.978  1.4009  0.0876  0.6488
  540MOL0     O74430  10.430   0.541   9.077 -0.5493  0.2600  0.1189
  540MOL0     C74431  10.709   0.578   8.849 -0.2654 -0.2248  0.1535
  540MOL0     C74432  10.836   0.636   8.823 -0.0399 -0.0748 -0.7244
  540MOL0     N74433  11.489   0.424   8.896  0.8523 -0.5152 -0.5100
  540MOL0     N74434  11.619   0.443   8.872  0.7032 -0.4454  0.4505
  540MOL0     C74435  11.233   1.325   8.440 -0.5007 -0.2109  0.3109
  540MOL0     C74436  11.265   1.457   8.418 -0.7475 -1.0751  0.3728
  540MOL0     C74437  11.438   1.849   8.455  0.7656  0.0167 -0.3967
  540MOL0     C74438  11.524   1.931   8.536  0.3011  0.2104  0.1767
  540MOL0     C74439  11.563   2.055   8.485  0.8634  0.3666  0.4610
  540MOL0     C74440  11.523   2.100   8.363 -0.0259 -0.3607 -0.0746
  540MOL0     O74441  11.561   2.220   8.295 -0.8565 -0.1825 -0.1496
  540MOL0     C74442  11.604   2.328   8.374 -0.0246 -1.6553 -0.4947
  540MOL0     C74443  11.607   2.463   8.304 -0.0100 -0.3396 -0.7184
  540MOL0     C74444  11.469   2.536   8.294 -0.1917 -0.6817  0.0030
  540MOL0     C74445  11.413   2.579   8.427 -0.2208 -0.7459 -0.4305
  540MOL0     C74446  11.264   2.573   8.417 -0.2077  0.3453 -0.6234
  540MOL0     C74447  11.145   2.542   8.407  0.1686  0.3021 -0.3253
  540MOL0     C74448  11.433   2.016   8.290 -0.5891 -0.5494 -0.2070
  540MOL0     C74449  11.381   1.897   8.333  0.6855  0.3406 -0.7281
  540MOL0     C74450  11.277   1.827   8.255 -0.4037  0.0247 -0.0593
  540MOL0     H74451  11.236   1.576   8.732  2.8060 -3.3568  2.8717
  540MOL0     H74452  11.155   1.348   8.769  1.1935 -2.0131 -1.8507
  540MOL0     H74453  11.177   1.069   8.415 -0.0557  1.7899  0.5490
  540MOL0     H74454  11.166   0.951   8.563 -0.8000  0.7143  0.9020
  540MOL0     H74455  11.378   0.999   8.394  0.4160  2.4811  0.0131
  540MOL0     H74456  11.422   1.086   8.541  1.3521  0.3391 -0.4191
  540MOL0     H74457  11.395   0.843   8.657 -0.0556  3.4883  0.6475
  540MOL0     H74458  11.345   0.793   8.503 -2.1731  2.6678 -3.1146
  540MOL0     H74459  11.607   0.756   8.522  2.2802  1.0176  1.1589
  540MOL0     H74460  11.600   0.899   8.427 -1.6949 -1.6338 -1.4720
  540MOL0     H74461  11.600   1.017   8.655  0.3763  0.3725 -1.4125
  540MOL0     H74462  11.747   0.940   8.600  0.3094 -3.5763 -2.7684
  540MOL0     H74463  11.680   0.922   8.846  0.0814  0.8789  0.2138
  540MOL0     H74464  11.550   0.812   8.797 -0.3814  1.0576 -0.5907
  540MOL0     H74465  11.860   0.758   8.739 -0.9599  1.5112  0.0513
  540MOL0     H74466  11.717   0.675   8.658 -3.7106  0.4832  0.6531
  540MOL0     H74467  11.854   0.592   8.884  0.1237  1.4491 -2.4161
  540MOL0     H74468  11.783   0.720   8.971 -2.0229 -0.3464  0.8559
  540MOL0     H74469  11.492   0.726   9.015 -3.6297  0.5953 -2.2141
  540MOL0     H74470  11.296   0.528   9.143  1.5802  0.8541 -0.0606
  540MOL0     H74471  11.244   0.428   9.014 -1.9284  0.4300 -1.0294
  540MOL0     H74472  11.101   0.635   9.034 -0.1938  2.3999 -0.5257
  540MOL0     H74473  11.246   0.732   9.030  1.8133  0.1794 -2.1187
  540MOL0     H74474  11.284   0.670   8.797  0.4876 -0.5733  0.1169
  540MOL0     H74475  11.135   0.570   8.787 -1.1244 -0.7287  1.6734
  540MOL0     H74476  11.178   0.860   8.792 -0.9510  0.6851  3.2385
  540MOL0     H74477  11.072   0.770   8.689  1.4039  1.4499 -1.0096
  540MOL0     H74478  10.852   0.842   9.081  0.2724 -0.8032  1.0769
  540MOL0     H74479  10.614   0.639   9.258 -0.7742  0.9009  1.0209
  540MOL0     H74480  10.520   0.770   9.194  1.4543  1.3356  0.3673
  540MOL0     H74481  10.670   0.800   9.258  0.0093  2.3543 -0.5735
  540MOL0     H74482  10.286   0.406   8.691  1.2593  1.0783  0.3388
  540MOL0     H74483  10.147   0.203   8.671 -1.2103 -2.5132  0.7873
  540MOL0     H74484   9.966   0.115   8.855  1.1988  0.7338 -0.8957
  540MOL0     H74485   9.961  -0.048   8.800 -2.3338  0.0739  1.2512
  540MOL0     H74486   9.993  -0.131   9.022  0.5446 -0.0703 -1.7837
  540MOL0     H74487   9.978   0.034   9.082  1.6841  0.4082 -0.7799
  540MOL0     H74488   9.773  -0.063   8.894 -1.5608  0.5442  1.2062
  540MOL0     H74489   9.742   0.064   9.008 -2.6188 -0.5704 -1.2528
  540MOL0     H74490   9.776  -0.222   9.093  1.3034 -0.3241 -0.3158
  540MOL0     H74491   9.620  -0.130   9.080  0.2011  1.4952  0.3892
  540MOL0     H74492   9.846  -0.068   9.276 -1.2356  2.1993 -0.1202
  540MOL0     H74493   9.697   0.028   9.253  1.3761  0.5053  3.7434
  540MOL0     H74494   9.727  -0.252   9.347  2.5442  2.8139 -0.2286
  540MOL0     H74495   9.562  -0.173   9.321 -0.3414  1.2918 -1.2152
  540MOL0     H74496   9.589  -0.036   9.500 -1.5121 -2.0061  0.0455
  540MOL0     H74497   9.768  -0.076   9.517 -0.2289 -1.3173  0.6486
  540MOL0     H74498   9.633  -0.185   9.689 -2.5050  1.2076  0.8379
  540MOL0     H74499   9.694  -0.310   9.573 -1.3523 -0.8893 -0.6476
  540MOL0     H74500  10.316   0.060   9.039 -0.0963 -2.2029 -0.7933
  540MOL0     H74501  10.462   0.273   9.056  0.4154 -3.3972  2.2410
  540MOL0     H74502  10.692   0.503   8.772  0.4444 -0.1932 -0.0408
  540MOL0     H74503  10.893   0.588   8.744  1.3840  0.9901 -0.3867
  540MOL0     H74504  11.252   1.268   8.349  0.8431  1.4517 -0.4980
  540MOL0     H74505  11.290   1.493   8.319  0.8788 -2.0153  0.4151
  540MOL0     H74506  11.544   1.922   8.642  2.8287  3.1334  0.0857
  540MOL0     H74507  11.637   2.120   8.530  3.1046 -1.5094 -0.3046
  540MOL0     H74508  11.560   2.338   8.473  1.2846  1.7702 -0.1205
  540MOL0     H74509  11.707   2.297   8.395 -0.4261 -0.7886  3.4467
  540MOL0     H74510  11.643   2.459   8.200  3.4689  0.3265  0.3512
  540MOL0     H74511  11.677   2.523   8.363 -1.0057  0.4461 -0.3193
  540MOL0     H74512  11.476   2.620   8.224  3.3069 -0.9565 -0.1804
  540MOL0     H74513  11.402   2.463   8.248 -0.0906 -0.1162 -1.0899
  540MOL0     H74514  11.443   2.683   8.446  3.8744 -1.5580 -1.4347
  540MOL0     H74515  11.449   2.518   8.510 -0.9063 -1.5802 -0.7356
  540MOL0     H74516  11.042   2.514   8.417  0.1686  0.0198 -1.0112
  540MOL0     H74517  11.391   2.060   8.200 -0.5241 -1.2791 -0.6080
  540MOL0     H74518  11.314   1.727   8.228 -0.6886 -0.5336  1.4875
  540MOL0     H74519  11.185   1.805   8.310  0.1894 -3.1850 -0.1339
  540MOL0     H74520  11.257   1.886   8.165  0.9350 -1.5848 -1.4821
  541MOL0     O74521   4.422   1.561   9.882 -0.6453 -0.4444  0.8294
  541MOL0     C74522   4.293   1.555   9.879 -0.1273  0.1754  0.3593
  541MOL0     O74523   4.222   1.463   9.811 -0.1153 -0.1541 -0.1106
  541MOL0     C74524   4.260   1.400   9.695 -0.6875 -0.6507 -0.6629
  541MOL0     C74525   4.170   1.292   9.654  0.3273 -0.1127  0.1449
  541MOL0     C74526   4.176   1.239   9.529 -0.1432 -0.6369  0.2287
  541MOL0     C74527   4.296   1.269   9.449 -0.3375  0.0447 -0.1230
  541MOL0     O74528   4.334   1.218   9.325 -0.0253  0.3873  0.4181
  541MOL0     C74529   4.240   1.128   9.262  0.1748 -0.5640 -0.0682
  541MOL0     C74530   4.302   1.072   9.135 -0.1104 -0.4634  0.7142
  541MOL0     C74531   4.223   0.957   9.073 -0.0052  0.2989 -0.5458
  541MOL0     C74532   4.078   0.987   9.064  0.4440  0.0832  0.4114
  541MOL0     C74533   4.050   1.090   8.961 -0.0201  0.6495 -1.2069
  541MOL0     C74534   4.048   1.045   8.816 -0.4669  1.1593 -0.2973
  541MOL0     C74535   4.099   1.162   8.726  0.7393  0.6102 -1.5058
  541MOL0     C74536   4.018   1.295   8.732 -0.6901 -0.3788  0.1134
  541MOL0     N74537   4.077   1.383   8.631  0.0559  0.4523 -0.0184
  541MOL0     C74538   4.103   1.350   8.500 -0.2771  0.6090 -0.0441
  541MOL0     C74539   4.156   1.466   8.446 -0.2832 -0.0404 -0.2399
  541MOL0     C74540   4.194   1.486   8.306 -0.8977  0.1738 -0.7530
  541MOL0     C74541   4.073   1.541   8.228  0.8336  0.0450  0.9512
  541MOL0     C74542   4.121   1.556   8.084  0.5725 -0.5459 -0.3134
  541MOL0     C74543   4.112   1.429   7.992  0.2694  0.5832 -0.9901
  541MOL0     O74544   4.206   1.328   8.016 -0.7788  0.8514 -0.1357
  541MOL0     C74545   4.329   1.335   7.950  0.2787 -0.7607  1.0357
  541MOL0     C74546   4.355   1.415   7.845  0.8357 -0.0060  0.6274
  541MOL0     C74547   4.486   1.422   7.806  0.0291  0.0036  1.3717
  541MOL0     C74548   4.500   1.520   7.685 -0.5592  0.6167 -0.7669
  541MOL0     C74549   4.592   1.355   7.876 -0.1835  0.1955  0.3437
  541MOL0     C74550   4.736   1.359   7.837  0.1016  1.0537 -0.3719
  541MOL0     O74551   4.831   1.374   7.934 -0.2658  0.4504  0.5334
  541MOL0     C74552   4.957   1.375   7.884  0.1719 -0.7222 -0.9279
  541MOL0     C74553   5.014   1.503   7.862  0.0319 -0.8690  0.0940
  541MOL0     C74554   5.152   1.499   7.797  1.2372 -0.3781  0.2324
  541MOL0     C74555   5.220   1.378   7.769  0.3521  0.0514 -0.0399
  541MOL0     O74556   5.356   1.377   7.725  0.4148  1.0977  0.8741
  541MOL0     C74557   5.378   1.283   7.621  0.1452  0.7984  0.0033
  541MOL0     C74558   5.522   1.305   7.569  0.5075 -1.2341 -0.6516
  541MOL0     C74559   5.563   1.208   7.456 -0.6051  0.9054  0.0050
  541MOL0     C74560   5.656   1.098   7.514 -0.1122 -0.2450  0.5298
  541MOL0     C74561   5.608   0.991   7.605  0.4784 -0.3009  0.7352
  541MOL0     C74562   5.709   0.941   7.693 -0.0492  0.6433 -0.6157
  541MOL0     C74563   5.666   0.800   7.744  0.3498 -0.3735  0.0087
  541MOL0     C74564   5.770   0.685   7.712 -0.4884  0.4960 -0.4062
  541MOL0    Cl74565   5.809   0.586   7.861  0.0085 -0.6359  0.6686
  541MOL0     C74566   5.167   1.262   7.815  0.4447  0.0881  0.1153
  541MOL0     C74567   5.030   1.258   7.868 -1.4724 -0.1259  1.5262
  541MOL0     O74568   4.762   1.347   7.719 -0.5567  0.4289 -0.2082
  541MOL0     C74569   4.559   1.274   7.990  0.4955 -0.5897  0.4492
  541MOL0     C74570   4.424   1.260   8.007 -0.1528 -0.3574 -0.2763
  541MOL0     N74571   4.169   1.556   8.551  0.1656  0.9982  0.5579
  541MOL0     N74572   4.121   1.507   8.658  0.2028 -0.4153  0.7167
  541MOL0     C74573   4.396   1.356   9.494 -0.0799  1.0046 -0.0732
  541MOL0     C74574   4.375   1.419   9.615 -0.6271 -0.0010 -0.5204
  541MOL0     C74575   4.227   1.654   9.968 -0.0845 -0.5024 -0.0572
  541MOL0     C74576   4.289   1.779   9.997  0.5073 -0.2039  0.8532
  541MOL0     C74577   4.227   1.875  10.083  0.4342  0.8937  0.3916
  541MOL0     C74578   4.108   1.856  10.154 -0.4750  0.5394  0.1786
  541MOL0     O74579   4.047   1.931  10.254 -0.5633  0.0089  0.4856
  541MOL0     C74580   4.094   2.056  10.302  0.5494 -0.9390 -0.8241
  541MOL0     C74581   4.052   2.084  10.447 -0.6367  1.0783 -0.5892
  541MOL0     C74582   3.903   2.085  10.469 -0.1128  0.4408  0.4557
  541MOL0     C74583   3.862   2.084  10.618 -0.4284 -0.4945  0.2486
  541MOL0     C74584   3.873   1.956  10.698 -0.0468 -0.6924 -0.6480
  541MOL0     C74585   3.883   1.836  10.741  0.4380 -0.7225  0.3920
  541MOL0     C74586   4.052   1.729  10.131  0.4936 -0.0628  0.2939
  541MOL0     C74587   4.101   1.632  10.040 -0.5905 -0.2648  0.0373
  541MOL0     C74588   3.998   1.516  10.019  0.5799  1.1159  0.1807
  541MOL0     H74589   4.090   1.252   9.715  2.5197 -4.2727  0.6512
  541MOL0     H74590   4.109   1.165   9.485  3.1694 -2.2010 -2.7546
  541MOL0     H74591   4.150   1.184   9.235  0.5299 -0.1011 -0.3091
  541MOL0     H74592   4.219   1.047   9.332  0.7569  1.0125  2.0130
  541MOL0     H74593   4.315   1.143   9.053 -3.5395 -2.4811 -1.8477
  541MOL0     H74594   4.403   1.038   9.156  0.2345  1.5451  2.7505
  541MOL0     H74595   4.263   0.910   8.983  0.6717 -1.3922  0.5788
  541MOL0     H74596   4.233   0.885   9.155 -0.3175  0.8019 -0.0621
  541MOL0     H74597   4.015   0.903   9.034  1.2090  0.3083 -2.0731
  541MOL0     H74598   4.028   1.024   9.154  1.1835  0.5451  0.6497
  541MOL0     H74599   4.116   1.176   8.971 -0.3326  1.5118 -4.9769
  541MOL0     H74600   3.953   1.133   8.985  1.5968  2.8914  1.9894
  541MOL0     H74601   4.125   0.970   8.796  1.3258  2.0291  2.7880
  541MOL0     H74602   3.949   1.004   8.792 -0.5558  1.6097 -0.7219
  541MOL0     H74603   4.084   1.127   8.623 -4.9364 -1.6562 -0.2831
  541MOL0     H74604   4.200   1.184   8.760 -0.4003 -0.5465  3.2497
  541MOL0     H74605   3.911   1.274   8.721 -0.9833  1.2185 -0.4039
  541MOL0     H74606   4.027   1.350   8.826  2.2061 -0.7443  0.1531
  541MOL0     H74607   4.079   1.260   8.445 -2.4354  0.7487  0.5648
  541MOL0     H74608   4.223   1.388   8.267 -0.0108  0.0186  0.2561
  541MOL0     H74609   4.281   1.549   8.287 -0.2624  0.2071  1.8912
  541MOL0     H74610   3.981   1.483   8.223 -0.3604  1.9559 -0.7690
  541MOL0     H74611   4.038   1.638   8.263  2.5776  0.2808  2.1897
  541MOL0     H74612   4.062   1.642   8.050  0.9174  0.6292  1.9021
  541MOL0     H74613   4.218   1.606   8.086  0.1813  0.2056  0.5973
  541MOL0     H74614   4.011   1.388   8.002  0.8162 -0.3478  1.2517
  541MOL0     H74615   4.124   1.464   7.889  1.3590  0.6695 -0.8435
  541MOL0     H74616   4.285   1.467   7.780  2.7167  0.0348 -1.4780
  541MOL0     H74617   4.605   1.514   7.655 -0.0539 -0.9853  1.0651
  541MOL0     H74618   4.488   1.623   7.718  5.9666  1.3714  0.7114
  541MOL0     H74619   4.441   1.490   7.598  0.6909  1.3936 -1.9224
  541MOL0     H74620   4.958   1.594   7.878  1.4236 -0.3617  2.4561
  541MOL0     H74621   5.199   1.592   7.766  2.6204 -1.6710 -1.7443
  541MOL0     H74622   5.368   1.176   7.642 -3.7119  0.7546 -1.3656
  541MOL0     H74623   5.312   1.298   7.536 -2.3286 -1.7147  1.3057
  541MOL0     H74624   5.539   1.402   7.520  2.3430 -0.6407  1.0371
  541MOL0     H74625   5.583   1.306   7.660 -0.6958 -1.0957  0.1789
  541MOL0     H74626   5.605   1.275   7.380 -3.6102  0.8311 -1.9045
  541MOL0     H74627   5.469   1.171   7.413 -1.5705  5.1038 -1.9745
  541MOL0     H74628   5.736   1.155   7.563  1.2982  0.1159 -1.9995
  541MOL0     H74629   5.709   1.061   7.426 -4.0727 -0.7995 -1.8680
  541MOL0     H74630   5.517   1.018   7.659 -2.0403 -1.6729 -2.4964
  541MOL0     H74631   5.584   0.910   7.536 -1.5458  0.7037  0.1911
  541MOL0     H74632   5.712   1.006   7.781 -4.3922  1.0459 -0.5522
  541MOL0     H74633   5.807   0.925   7.647  0.0866 -0.4587  0.0307
  541MOL0     H74634   5.576   0.761   7.697  1.2447 -2.3315 -0.2069
  541MOL0     H74635   5.648   0.813   7.852 -1.5890  0.6920 -0.4014
  541MOL0     H74636   5.859   0.717   7.657 -0.0979  0.3209  0.1162
  541MOL0     H74637   5.722   0.620   7.638  0.9287 -2.2147  0.9278
  541MOL0     H74638   5.220   1.169   7.825  1.9897  1.1959  4.3012
  541MOL0     H74639   4.977   1.166   7.890  0.4516 -1.9362 -0.8312
  541MOL0     H74640   4.626   1.222   8.058  0.5373  0.3026  1.1188
  541MOL0     H74641   4.397   1.198   8.093  0.4893  0.4833  0.5551
  541MOL0     H74642   4.479   1.379   9.427  0.1369  1.1207  0.2350
  541MOL0     H74643   4.447   1.496   9.643  0.0302  0.4646 -3.1564
  541MOL0     H74644   4.379   1.809   9.945 -1.3259  4.9086  0.0040
  541MOL0     H74645   4.270   1.972  10.104 -2.6277  1.6495  4.5256
  541MOL0     H74646   4.203   2.071  10.299  0.2649  1.4896 -1.8246
  541MOL0     H74647   4.051   2.136  10.241  1.7878 -2.7758 -4.3933
  541MOL0     H74648   4.112   2.171  10.476  2.6087  0.1417 -3.7489
  541MOL0     H74649   4.078   2.003  10.515 -1.7129  2.7917  2.0070
  541MOL0     H74650   3.866   2.178  10.425 -1.7127 -0.7394 -0.8068
  541MOL0     H74651   3.852   2.003  10.419 -1.9337  2.9004 -2.0380
  541MOL0     H74652   3.763   2.129  10.633 -0.2393 -0.0062  0.0744
  541MOL0     H74653   3.938   2.155  10.654  2.1662 -1.4195 -2.9229
  541MOL0     H74654   3.922   1.736  10.746  0.5950 -0.8388 -1.9759
  541MOL0     H74655   3.966   1.712  10.196  0.8097 -0.5502  0.5927
  541MOL0     H74656   3.913   1.514  10.087 -0.3851  0.4874 -0.9935
  541MOL0     H74657   3.942   1.510   9.925  0.0045  0.4395  0.5603
  541MOL0     H74658   4.037   1.414  10.024 -0.2904  0.8051  0.6315
  542MOL0     O74659   9.138   4.938   4.232  0.3348 -0.8723  0.1214
  542MOL0     C74660   9.023   4.953   4.184  0.3249  0.1072 -0.1095
  542MOL0     O74661   8.961   4.863   4.101 -0.4016 -0.1290  0.0343
  542MOL0     C74662   8.962   4.727   4.147  0.0543  0.0335 -0.5858
  542MOL0     C74663   8.996   4.682   4.275  0.1069  1.4095 -0.2567
  542MOL0     C74664   8.964   4.541   4.308 -0.1218 -0.4041  0.2414
  542MOL0     C74665   8.927   4.449   4.210  0.0310 -0.2391  0.2117
  542MOL0     O74666   8.904   4.310   4.221  0.1443 -0.4198  0.4292
  542MOL0     C74667   8.983   4.232   4.318 -0.4596  0.5406  1.0434
  542MOL0     C74668   9.129   4.237   4.291 -0.5977  0.0771 -0.5269
  542MOL0     C74669   9.172   4.139   4.176 -0.4714  0.0901  0.0755
  542MOL0     C74670   9.325   4.147   4.135 -0.0581  0.0320  0.4179
  542MOL0     C74671   9.368   4.289   4.095  0.6512 -0.0039  0.8526
  542MOL0     C74672   9.272   4.357   3.997  0.7962  0.6953  0.2693
  542MOL0     C74673   9.308   4.500   3.955  0.1691 -0.5577  0.3357
  542MOL0     C74674   9.306   4.610   4.076  0.7397  0.4522 -0.5842
  542MOL0     N74675   9.412   4.705   4.067 -0.4093  0.6149  0.1083
  542MOL0     C74676   9.410   4.838   4.079 -1.0363 -0.3767  0.3971
  542MOL0     C74677   9.534   4.871   4.083 -0.4699 -1.0079  0.2509
  542MOL0     C74678   9.580   5.015   4.110 -0.3171 -0.4041 -0.2152
  542MOL0     C74679   9.584   5.105   3.987  0.1179  0.3361  0.4210
  542MOL0     C74680   9.443   5.149   3.936 -0.4162  0.1089  0.4256
  542MOL0     C74681   9.477   5.210   3.799  0.5847  0.1794 -0.4186
  542MOL0     O74682   9.370   5.259   3.721  0.2002  0.4840 -0.6971
  542MOL0     C74683   9.282   5.341   3.788 -0.0878  0.3083 -0.1178
  542MOL0     C74684   9.325   5.438   3.879  1.0497  0.2570 -0.6511
  542MOL0     C74685   9.230   5.532   3.937 -0.7396  0.3951  0.4124
  542MOL0     C74686   9.297   5.630   4.036 -0.6442  0.0740 -0.3482
  542MOL0     C74687   9.092   5.520   3.906  0.2500  0.4264 -0.5650
  542MOL0     C74688   8.995   5.621   3.963 -0.5467  0.6030 -0.1816
  542MOL0     O74689   8.864   5.580   3.967  0.5833 -0.2847  0.3084
  542MOL0     C74690   8.758   5.672   3.981 -0.0565  0.0921  0.0782
  542MOL0     C74691   8.636   5.633   4.039 -0.2238  0.6106  1.0328
  542MOL0     C74692   8.538   5.735   4.063  0.3860  0.2409  0.5764
  542MOL0     C74693   8.559   5.863   4.016 -0.4659  0.4395 -1.4200
  542MOL0     O74694   8.457   5.951   4.022 -1.1425  0.1952 -0.2853
  542MOL0     C74695   8.462   6.076   4.094  0.3076 -1.1299 -0.2335
  542MOL0     C74696   8.428   6.176   3.993 -0.0145 -1.0140 -0.0526
  542MOL0     C74697   8.272   6.185   3.967 -0.3812  0.0264  0.9729
  542MOL0     C74698   8.233   6.322   3.916 -0.3178  0.6166  0.7080
  542MOL0     C74699   8.234   6.431   4.015  0.7104 -0.1278  0.5537
  542MOL0     C74700   8.193   6.565   3.951  0.3657 -0.1335  0.9066
  542MOL0     C74701   8.189   6.663   4.078  0.0985  0.3772  0.4913
  542MOL0     C74702   8.240   6.801   4.026  0.4939  0.6562 -0.4213
  542MOL0    Cl74703   8.137   6.848   3.897  0.0616 -0.3232 -0.2979
  542MOL0     C74704   8.679   5.901   3.953  0.5923 -0.1906  0.0165
  542MOL0     C74705   8.781   5.810   3.943 -0.1175 -0.2621  0.5442
  542MOL0     O74706   9.037   5.733   3.998  0.6374 -0.0503 -0.8028
  542MOL0     C74707   9.049   5.426   3.809  0.6796 -0.3324 -0.5701
  542MOL0     C74708   9.143   5.331   3.757 -0.4249  0.4702 -0.1356
  542MOL0     N74709   9.622   4.762   4.072  0.1590 -0.1865  0.7154
  542MOL0     N74710   9.540   4.663   4.070 -0.1245  0.7444 -0.3463
  542MOL0     C74711   8.917   4.500   4.078 -0.1589 -0.2771 -1.2162
  542MOL0     C74712   8.924   4.632   4.049 -0.4631 -1.0876 -0.3829
  542MOL0     C74713   8.946   5.081   4.219 -0.1736 -0.2758  0.1916
  542MOL0     C74714   8.809   5.065   4.254 -0.4681 -0.6595  0.3530
  542MOL0     C74715   8.739   5.178   4.279  0.2617 -0.6823 -0.1493
  542MOL0     C74716   8.799   5.302   4.294  0.3106  0.5104 -0.4249
  542MOL0     O74717   8.709   5.400   4.335  0.0253 -0.0223  0.0552
  542MOL0     C74718   8.754   5.521   4.402 -1.1095  0.1978 -0.9052
  542MOL0     C74719   8.631   5.587   4.464 -0.3952  0.1595  0.0335
  542MOL0     C74720   8.661   5.733   4.531  0.5676 -0.8464  0.2219
  542MOL0     C74721   8.810   5.746   4.578 -0.2725  0.1688  0.0558
  542MOL0     C74722   8.832   5.876   4.637 -0.4916 -0.1951 -0.6890
  542MOL0     C74723   8.834   5.990   4.684 -0.2244  1.1212  0.0723
  542MOL0     C74724   8.937   5.323   4.272  1.1153 -0.4558  0.5352
  542MOL0     C74725   9.007   5.214   4.242  0.8224  1.1360  0.6858
  542MOL0     C74726   9.162   5.241   4.225 -0.1105 -0.0269 -0.2069
  542MOL0     H74727   9.027   4.735   4.365  2.3229 -0.7554  0.3723
  542MOL0     H74728   8.972   4.496   4.406 -0.2099  0.6230  0.7353
  542MOL0     H74729   8.945   4.131   4.332 -3.4624  1.4804  0.4522
  542MOL0     H74730   8.958   4.263   4.420 -2.4580 -1.5182  1.2586
  542MOL0     H74731   9.147   4.341   4.261 -0.7329 -0.2089 -1.6519
  542MOL0     H74732   9.181   4.207   4.382  1.4666 -0.7991 -1.9390
  542MOL0     H74733   9.156   4.037   4.213  4.4823  0.2086  3.6811
  542MOL0     H74734   9.119   4.147   4.081 -3.5614 -0.3018  1.6513
  542MOL0     H74735   9.382   4.114   4.222  1.3592  1.9710  0.2776
  542MOL0     H74736   9.339   4.079   4.050 -3.6203  0.8374 -0.9986
  542MOL0     H74737   9.469   4.282   4.053 -0.5884  1.5576 -2.6989
  542MOL0     H74738   9.378   4.330   4.196  2.4732  1.2707  0.2276
  542MOL0     H74739   9.258   4.302   3.903 -3.8577  2.3951 -0.2994
  542MOL0     H74740   9.169   4.357   4.036  0.6010  0.2855 -0.2332
  542MOL0     H74741   9.233   4.526   3.879  0.9924  3.5873  0.6961
  542MOL0     H74742   9.402   4.502   3.899 -0.1958 -0.1422 -0.2791
  542MOL0     H74743   9.217   4.672   4.068 -1.8147 -2.7861  0.4330
  542MOL0     H74744   9.312   4.560   4.173 -0.8622 -0.6930 -1.0180
  542MOL0     H74745   9.325   4.904   4.089  0.9578  3.1653 -3.2527
  542MOL0     H74746   9.679   5.008   4.155 -0.6766 -0.8166  0.5305
  542MOL0     H74747   9.521   5.068   4.186  1.8718 -0.5181  1.6847
  542MOL0     H74748   9.654   5.189   4.001  2.3236 -1.0829 -1.2816
  542MOL0     H74749   9.631   5.042   3.911  2.0462  0.2031  1.6484
  542MOL0     H74750   9.380   5.061   3.919  2.4654 -2.0920  0.3972
  542MOL0     H74751   9.390   5.223   3.996  0.5438 -0.8126  2.5351
  542MOL0     H74752   9.549   5.292   3.815  2.9744 -1.7107 -0.8035
  542MOL0     H74753   9.544   5.139   3.750  1.1825 -0.2506  0.9704
  542MOL0     H74754   9.432   5.456   3.883  1.3398 -1.4622  0.0103
  542MOL0     H74755   9.395   5.599   4.074 -0.8941 -0.0243  0.2177
  542MOL0     H74756   9.243   5.667   4.123 -0.5599  0.8175 -0.6072
  542MOL0     H74757   9.308   5.717   3.971 -0.8948  1.9166  1.9714
  542MOL0     H74758   8.628   5.527   4.064  0.7205 -0.0852 -1.2687
  542MOL0     H74759   8.439   5.727   4.108  0.1755  0.0938  0.0938
  542MOL0     H74760   8.381   6.076   4.167 -3.1322  0.3100 -3.7239
  542MOL0     H74761   8.558   6.090   4.146  0.0665 -1.3470  0.2802
  542MOL0     H74762   8.468   6.273   4.024 -2.0130 -0.5392  1.1892
  542MOL0     H74763   8.455   6.151   3.890 -0.6754 -1.4287 -0.1307
  542MOL0     H74764   8.216   6.160   4.057 -1.0002 -0.7328  0.3980
  542MOL0     H74765   8.253   6.111   3.889 -1.2906  0.0766  1.1288
  542MOL0     H74766   8.142   6.310   3.858  0.1596  3.8600 -0.9403
  542MOL0     H74767   8.315   6.345   3.847  1.1043  0.6563  2.3316
  542MOL0     H74768   8.160   6.402   4.090  0.3017  3.6130  1.8270
  542MOL0     H74769   8.332   6.444   4.061  2.1698  4.3020 -3.0546
  542MOL0     H74770   8.090   6.554   3.915  0.1609  0.4240  1.2917
  542MOL0     H74771   8.249   6.595   3.863  1.7436 -0.8620  1.5128
  542MOL0     H74772   8.265   6.638   4.153  2.4146 -0.3505 -1.9469
  542MOL0     H74773   8.093   6.668   4.129 -0.1184  0.2394  0.0990
  542MOL0     H74774   8.346   6.790   4.000  1.2456 -0.1792  2.5626
  542MOL0     H74775   8.230   6.877   4.104  0.0579  1.2347 -1.0279
  542MOL0     H74776   8.684   6.002   3.914  1.7839  0.7520  2.3610
  542MOL0     H74777   8.868   5.852   3.893 -0.5698 -0.8211 -0.7598
  542MOL0     H74778   8.942   5.421   3.791 -0.2619  4.7001  1.6947
  542MOL0     H74779   9.093   5.263   3.690  0.5002 -0.3146 -0.0453
  542MOL0     H74780   8.891   4.443   3.989 -1.0089  1.9750 -2.4913
  542MOL0     H74781   8.906   4.675   3.951  1.5741 -1.0293 -0.7671
  542MOL0     H74782   8.744   4.982   4.230 -0.7499 -1.0315  2.2145
  542MOL0     H74783   8.633   5.162   4.296  0.3921 -0.1269  1.3545
  542MOL0     H74784   8.831   5.500   4.478  0.1302  1.8457 -1.6258
  542MOL0     H74785   8.794   5.589   4.326  0.0455 -0.0161 -0.5202
  542MOL0     H74786   8.602   5.517   4.542  0.8314  0.4490  0.7793
  542MOL0     H74787   8.542   5.600   4.403 -0.2889  3.1888  0.3611
  542MOL0     H74788   8.648   5.805   4.449 -0.8247 -1.1907  0.1156
  542MOL0     H74789   8.598   5.757   4.617  1.0221 -2.2985  1.0059
  542MOL0     H74790   8.894   5.713   4.516  0.5342 -0.7604  1.6003
  542MOL0     H74791   8.808   5.672   4.658  2.2742 -0.2239 -0.1703
  542MOL0     H74792   8.842   6.088   4.726  0.3247  2.0883 -2.1251
  542MOL0     H74793   8.964   5.428   4.275 -0.6480  0.3044 -3.6893
  542MOL0     H74794   9.176   5.306   4.138  1.6106 -0.6740 -0.4461
  542MOL0     H74795   9.200   5.288   4.317  0.4763 -0.2971 -0.3067
  542MOL0     H74796   9.230   5.157   4.212  0.0533  0.1868 -0.7491
  543MOL0     O74797   8.455  10.367   0.474 -0.3447 -0.1954  0.1003
  543MOL0     C74798   8.488  10.254   0.450 -0.0623  0.9256  0.5946
  543MOL0     O74799   8.408  10.143   0.457 -0.1888  0.1160 -0.0342
  543MOL0     C74800   8.292  10.169   0.524 -1.9794 -0.3835 -0.4283
  543MOL0     C74801   8.174  10.211   0.457 -0.3936  0.3721  0.5794
  543MOL0     C74802   8.046  10.185   0.516 -0.4309 -0.4548 -0.3524
  543MOL0     C74803   8.036  10.160   0.649 -0.5922 -0.4025 -0.6219
  543MOL0     O74804   7.913  10.163   0.708  0.1703  0.6058  0.7316
  543MOL0     C74805   7.886  10.075   0.826 -0.0490 -0.3771  0.6897
  543MOL0     C74806   7.752  10.014   0.799 -0.4282  0.0639 -0.5933
  543MOL0     C74807   7.739   9.937   0.665 -0.5155  0.0612  0.5107
  543MOL0     C74808   7.641   9.830   0.683  1.1476 -0.3018 -0.6239
  543MOL0     C74809   7.594   9.767   0.552  0.8114  0.0416  1.0511
  543MOL0     C74810   7.481   9.848   0.483  0.2552 -0.6055 -0.3484
  543MOL0     C74811   7.412   9.758   0.376 -0.1284  0.0651 -0.3196
  543MOL0     C74812   7.513   9.703   0.273  0.2124  0.6336 -0.7223
  543MOL0     N74813   7.476   9.698   0.128 -0.1307  0.0578  0.6386
  543MOL0     C74814   7.423   9.805   0.058 -0.3658  0.3244 -0.2557
  543MOL0     C74815   7.359   9.747  -0.047  0.1514 -0.9887  0.5999
  543MOL0     C74816   7.276   9.812  -0.149  0.3452 -0.4427  0.5816
  543MOL0     C74817   7.127   9.802  -0.102 -0.0430  0.6861 -0.0437
  543MOL0     C74818   7.101   9.861   0.041 -0.1005 -0.1463 -0.0821
  543MOL0     C74819   6.948   9.858   0.060  0.5353  0.1029  0.6218
  543MOL0     O74820   6.886   9.964  -0.014 -0.4254  0.5034 -0.2921
  543MOL0     C74821   6.757   9.949  -0.063  0.6722 -0.3016 -0.6009
  543MOL0     C74822   6.718  10.004  -0.186 -0.0508 -0.5218  0.0888
  543MOL0     C74823   6.598   9.970  -0.244 -0.1638 -0.2450  0.3128
  543MOL0     C74824   6.586  10.011  -0.387 -0.2529 -1.1768 -0.7259
  543MOL0     C74825   6.501   9.891  -0.176  0.3684  0.2215 -0.8765
  543MOL0     C74826   6.369   9.847  -0.228  0.3976 -0.2749 -0.2290
  543MOL0     O74827   6.330   9.889  -0.357  0.5508  0.1588 -0.2297
  543MOL0     C74828   6.211   9.837  -0.414 -0.0557 -0.2622 -0.6975
  543MOL0     C74829   6.173   9.703  -0.411  0.0251  0.3171 -0.5649
  543MOL0     C74830   6.051   9.665  -0.458  0.4569 -0.2235 -0.0515
  543MOL0     C74831   5.958   9.761  -0.507  0.0172 -0.8263 -0.4820
  543MOL0     O74832   5.833   9.729  -0.551  0.3920 -0.4160 -0.0524
  543MOL0     C74833   5.791   9.586  -0.570  0.1049 -0.5298 -0.1003
  543MOL0     C74834   5.810   9.540  -0.722 -0.4125 -0.5488 -0.4501
  543MOL0     C74835   5.791   9.386  -0.754 -0.2269  0.5799 -0.1966
  543MOL0     C74836   5.915   9.339  -0.840  0.8239  1.4446  0.3742
  543MOL0     C74837   5.888   9.191  -0.890 -0.1554 -0.3930  0.1719
  543MOL0     C74838   6.022   9.142  -0.945 -0.8428  0.4445  0.0031
  543MOL0     C74839   6.002   8.988  -0.992  0.8259  0.2405 -0.5002
  543MOL0     C74840   5.997   8.895  -0.871 -0.3692 -0.7150  0.3906
  543MOL0    Cl74841   5.837   8.865  -0.806  0.1369  0.2760 -0.2446
  543MOL0     C74842   5.994   9.891  -0.512 -0.5316 -0.1610 -0.2025
  543MOL0     C74843   6.123   9.931  -0.467 -0.5592  0.4570 -0.1371
  543MOL0     O74844   6.300   9.777  -0.153  0.6337  0.1236  0.5782
  543MOL0     C74845   6.540   9.841  -0.048 -0.4889  0.2283  0.7956
  543MOL0     C74846   6.662   9.874   0.008 -0.2568  0.1950  0.2026
  543MOL0     N74847   7.364   9.616  -0.035 -0.9114 -0.2192  0.5788
  543MOL0     N74848   7.441   9.581   0.055 -0.4685  0.0637 -0.0704
  543MOL0     C74849   8.152  10.152   0.724  0.9685 -0.0142  0.1184
  543MOL0     C74850   8.274  10.140   0.656  0.3176  0.8544 -0.8591
  543MOL0     C74851   8.616  10.226   0.380 -0.0924  0.2375  0.5593
  543MOL0     C74852   8.680  10.095   0.402  0.5624  0.4746 -0.6681
  543MOL0     C74853   8.812  10.072   0.364  0.4834  0.4019  0.9016
  543MOL0     C74854   8.872  10.163   0.277 -0.3195  0.3081  0.2124
  543MOL0     O74855   8.995  10.143   0.223  0.2111 -0.6901 -0.3787
  543MOL0     C74856   8.988  10.038   0.124  0.0416  0.2243 -0.2065
  543MOL0     C74857   9.117  10.046   0.040  0.2654  0.0067 -0.0311
  543MOL0     C74858   9.080  10.154  -0.063 -0.3418 -0.7795 -0.3539
  543MOL0     C74859   9.193  10.211  -0.144 -0.0191  0.1364  0.1433
  543MOL0     C74860   9.249  10.125  -0.242 -0.6959  0.4526 -0.7715
  543MOL0     C74861   9.289  10.049  -0.328 -0.5116  0.1482 -0.3053
  543MOL0     C74862   8.803  10.284   0.235 -0.7119  0.0342  0.1638
  543MOL0     C74863   8.682  10.318   0.300  1.6653  0.1624  1.0073
  543MOL0     C74864   8.630  10.453   0.268  0.9750 -0.1235 -0.6058
  543MOL0     H74865   8.184  10.228   0.350 -1.2066 -0.3801  0.3725
  543MOL0     H74866   7.949  10.196   0.469 -1.1451  0.3739  1.2375
  543MOL0     H74867   7.875  10.130   0.920  0.1608 -0.1123  0.5602
  543MOL0     H74868   7.952   9.991   0.846  1.4034  0.5594  0.0279
  543MOL0     H74869   7.736   9.949   0.886 -0.9790  0.3757 -0.4560
  543MOL0     H74870   7.672  10.087   0.789  2.3368  2.9725 -4.4995
  543MOL0     H74871   7.717  10.004   0.582  0.3312  0.1958  0.3783
  543MOL0     H74872   7.836   9.890   0.647  1.3947  3.0741  2.0791
  543MOL0     H74873   7.687   9.748   0.740 -2.2853 -2.0883 -0.1868
  543MOL0     H74874   7.553   9.867   0.736  0.4131 -0.4088 -1.7523
  543MOL0     H74875   7.550   9.673   0.587  0.5475  1.6587  5.7806
  543MOL0     H74876   7.681   9.743   0.490  0.1791  1.1657 -0.3474
  543MOL0     H74877   7.412   9.873   0.564  1.6268 -2.0787  1.3404
  543MOL0     H74878   7.521   9.936   0.430  3.4439 -3.2939 -2.8614
  543MOL0     H74879   7.329   9.812   0.329 -0.3789  0.3365  0.4195
  543MOL0     H74880   7.368   9.667   0.418  0.2708 -1.0505 -2.2475
  543MOL0     H74881   7.611   9.751   0.265  0.2921  0.6008 -0.0157
  543MOL0     H74882   7.544   9.601   0.300  2.2781  1.4709  0.3326
  543MOL0     H74883   7.452   9.906   0.085  0.7904 -0.6498  2.4797
  543MOL0     H74884   7.291   9.758  -0.243 -0.3097  0.6795 -0.1915
  543MOL0     H74885   7.309   9.916  -0.164  0.0811 -0.2878  1.0479
  543MOL0     H74886   7.075   9.867  -0.173  2.3503 -0.5470 -3.1237
  543MOL0     H74887   7.099   9.697  -0.098 -0.0467  0.7241  2.6614
  543MOL0     H74888   7.150   9.800   0.117  1.6589  1.3774  0.0656
  543MOL0     H74889   7.134   9.965   0.045 -2.9193  0.8124  2.4624
  543MOL0     H74890   6.910   9.763   0.020  0.3180  0.3156  0.3191
  543MOL0     H74891   6.906   9.855   0.161 -2.1324 -1.8950 -0.4186
  543MOL0     H74892   6.795  10.064  -0.234  0.4803 -0.6412  0.7699
  543MOL0     H74893   6.580   9.920  -0.448  4.7024 -0.0998 -3.3600
  543MOL0     H74894   6.673  10.053  -0.438 -0.9342  0.1418 -0.8558
  543MOL0     H74895   6.506  10.085  -0.398  2.3133  2.0922  0.8921
  543MOL0     H74896   6.239   9.623  -0.378 -1.3908 -0.3417  0.7481
  543MOL0     H74897   6.039   9.557  -0.469 -2.5026 -0.0303  0.4822
  543MOL0     H74898   5.850   9.522  -0.504  3.5378  1.5623 -0.8534
  543MOL0     H74899   5.685   9.584  -0.544 -1.1484  2.6263 -3.9585
  543MOL0     H74900   5.744   9.602  -0.783  0.9174 -0.1331 -1.5048
  543MOL0     H74901   5.915   9.552  -0.751  1.0607 -3.8710  2.7420
  543MOL0     H74902   5.700   9.372  -0.813  0.0804  1.5377 -0.9415
  543MOL0     H74903   5.789   9.330  -0.660 -0.6676 -1.3326 -1.2963
  543MOL0     H74904   6.003   9.318  -0.779 -1.7526 -1.0545  3.6498
  543MOL0     H74905   5.936   9.409  -0.921  2.5987 -0.9047 -1.3463
  543MOL0     H74906   5.868   9.127  -0.803  0.7170  0.7405  1.2345
  543MOL0     H74907   5.804   9.183  -0.961  2.2955  1.0441 -3.1510
  543MOL0     H74908   6.095   9.149  -0.863 -0.6473 -0.8481 -0.0537
  543MOL0     H74909   6.045   9.220  -1.019 -2.5494  2.7673  1.7373
  543MOL0     H74910   6.077   8.952  -1.063  2.2436  0.2458  0.9340
  543MOL0     H74911   5.906   8.972  -1.042  0.5060 -1.9590  0.6655
  543MOL0     H74912   6.053   8.930  -0.784  0.3207  1.1305 -0.7332
  543MOL0     H74913   6.046   8.800  -0.897 -1.8954 -1.6383  0.7747
  543MOL0     H74914   5.928   9.971  -0.546  1.8008  2.4610  1.0557
  543MOL0     H74915   6.151  10.036  -0.470 -2.1648  0.9066 -0.1021
  543MOL0     H74916   6.487   9.765   0.010  0.5187  0.6784  2.3736
  543MOL0     H74917   6.688   9.831   0.104 -1.6206  0.4122  0.6925
  543MOL0     H74918   8.148  10.116   0.827 -4.2032  1.4681  0.7100
  543MOL0     H74919   8.355  10.089   0.708  0.1848 -3.1821 -4.1474
  543MOL0     H74920   8.631  10.036   0.478  1.0142 -0.3329 -0.9937
  543MOL0     H74921   8.864   9.987   0.406 -2.8916 -1.3199  1.9812
  543MOL0     H74922   8.973   9.938   0.167  2.6260 -0.8998 -1.6922
  543MOL0     H74923   8.900  10.049   0.059 -0.4609 -2.4751 -0.1173
  543MOL0     H74924   9.123   9.954  -0.018  0.7049 -0.6156  0.9750
  543MOL0     H74925   9.212  10.064   0.091 -0.0128 -1.0663  0.8925
  543MOL0     H74926   9.001  10.116  -0.128  0.8613 -0.3700 -2.1206
  543MOL0     H74927   9.042  10.240  -0.007 -1.8507  0.0997 -2.5851
  543MOL0     H74928   9.271  10.250  -0.078 -1.3533  0.6541  1.4651
  543MOL0     H74929   9.160  10.303  -0.194 -0.7423  1.6021  3.0848
  543MOL0     H74930   9.328   9.964  -0.380  1.2005 -0.4536  1.7939
  543MOL0     H74931   8.850  10.350   0.164  3.6145 -1.0285  1.6924
  543MOL0     H74932   8.648  10.483   0.164  1.9018 -0.6407 -0.6026
  543MOL0     H74933   8.522  10.470   0.274  1.3011  3.0305 -1.4319
  543MOL0     H74934   8.673  10.531   0.331  0.5208 -0.1077 -0.3128
  544MOL0     O74935   5.424   6.310  10.826  0.6082 -0.0561  1.5462
  544MOL0     C74936   5.313   6.339  10.784  0.2653  0.3749 -0.3740
  544MOL0     O74937   5.256   6.326  10.657 -1.4685  0.5328 -0.4620
  544MOL0     C74938   5.305   6.221  10.578 -0.0390 -0.4449  0.7077
  544MOL0     C74939   5.216   6.139  10.509 -0.1261  0.6190 -0.7306
  544MOL0     C74940   5.262   6.041  10.412  0.4085 -0.7239 -1.0066
  544MOL0     C74941   5.396   6.028  10.383  0.5327 -0.0429  0.7643
  544MOL0     O74942   5.429   5.943  10.282  0.1147  0.5380  0.2482
  544MOL0     C74943   5.566   5.906  10.269  0.4212  0.2991  0.5334
  544MOL0     C74944   5.634   6.005  10.172 -0.5953  0.4019  0.7726
  544MOL0     C74945   5.773   5.943  10.137  1.1723 -0.1226  0.1090
  544MOL0     C74946   5.868   6.042  10.060  0.5753  0.2724  1.1352
  544MOL0     C74947   5.989   5.964  10.007  0.2538  0.5245  0.5686
  544MOL0     C74948   6.067   6.041   9.901 -0.9843 -0.7022  0.5109
  544MOL0     C74949   6.181   6.120   9.964  0.0691 -0.5234 -0.8336
  544MOL0     C74950   6.220   6.241   9.891  0.1524 -0.1645  0.4357
  544MOL0     N74951   6.316   6.324   9.953  0.2704 -0.9250  0.0393
  544MOL0     C74952   6.306   6.386  10.081 -0.0309 -0.6597 -0.5217
  544MOL0     C74953   6.425   6.447  10.110 -0.6008 -0.3396  0.5431
  544MOL0     C74954   6.458   6.505  10.237 -1.3463 -0.4632 -1.6083
  544MOL0     C74955   6.593   6.450  10.291  0.1743 -0.3084 -0.3201
  544MOL0     C74956   6.635   6.546  10.406  1.6782 -0.7343  0.9787
  544MOL0     C74957   6.756   6.502  10.471 -0.2931 -0.4814 -0.0818
  544MOL0     O74958   6.759   6.368  10.511 -0.7540  0.8062 -0.2057
  544MOL0     C74959   6.682   6.328  10.621 -0.0732  0.2684 -0.4248
  544MOL0     C74960   6.595   6.228  10.605 -0.2742  0.7208 -0.3046
  544MOL0     C74961   6.539   6.161  10.707  0.2825 -0.3844  0.4787
  544MOL0     C74962   6.443   6.048  10.658 -1.1688  0.5727 -0.1969
  544MOL0     C74963   6.545   6.220  10.841 -0.4560 -0.7602  0.6929
  544MOL0     C74964   6.463   6.171  10.957 -0.7051  0.2642 -0.4358
  544MOL0     O74965   6.493   6.235  11.066 -0.0338 -0.1507  0.1077
  544MOL0     C74966   6.439   6.219  11.193 -0.5747  0.7595  0.8543
  544MOL0     C74967   6.376   6.101  11.232 -0.8184 -0.0007 -0.9493
  544MOL0     C74968   6.342   6.085  11.366 -0.1005 -0.9286 -1.4914
  544MOL0     C74969   6.365   6.185  11.459  0.8104  0.1959  0.3238
  544MOL0     O74970   6.326   6.181  11.594  0.7009 -0.0632  0.2760
  544MOL0     C74971   6.379   6.070  11.657  0.3892 -0.5017 -0.5471
  544MOL0     C74972   6.326   6.055  11.799  0.9331 -0.5293  0.0366
  544MOL0     C74973   6.383   6.161  11.884  0.2381 -0.2086  0.1658
  544MOL0     C74974   6.406   6.104  12.031 -0.4459 -0.4288  0.1426
  544MOL0     C74975   6.428   6.212  12.132 -0.4954 -0.0898 -0.1444
  544MOL0     C74976   6.452   6.149  12.271 -0.9483  0.2309  0.6402
  544MOL0     C74977   6.324   6.135  12.346 -0.4141 -0.5617  0.3801
  544MOL0     C74978   6.342   6.078  12.490 -0.2130 -0.3238  0.0054
  544MOL0    Cl74979   6.392   6.199  12.614  0.5331  0.1247  0.1789
  544MOL0     C74980   6.409   6.311  11.410  0.1213  0.7031 -0.0716
  544MOL0     C74981   6.442   6.329  11.275  0.3422  0.2734  0.7927
  544MOL0     O74982   6.385   6.079  10.949  0.5768  0.6304 -0.4334
  544MOL0     C74983   6.642   6.322  10.859 -0.8316 -0.0429 -0.1417
  544MOL0     C74984   6.717   6.368  10.754  0.2211  0.4713  0.4826
  544MOL0     N74985   6.506   6.423  10.001  0.2939  0.0508  0.6566
  544MOL0     N74986   6.449   6.348   9.913  1.0334 -0.1045 -0.6506
  544MOL0     C74987   5.488   6.115  10.442 -0.9263 -0.2057  0.4563
  544MOL0     C74988   5.449   6.210  10.545  0.7131  0.5325  0.1182
  544MOL0     C74989   5.241   6.401  10.905  0.3638 -0.9369 -1.2776
  544MOL0     C74990   5.108   6.373  10.921  0.2086  0.2686 -0.7815
  544MOL0     C74991   5.035   6.419  11.033  0.8263 -0.1572 -0.2101
  544MOL0     C74992   5.091   6.503  11.125 -0.4988  0.9299  0.3377
  544MOL0     O74993   5.006   6.535  11.232  0.0754 -0.7558  0.5539
  544MOL0     C74994   5.037   6.633  11.335  0.5438  0.4037  0.4332
  544MOL0     C74995   4.907   6.710  11.371  0.1520 -0.0024 -0.2995
  544MOL0     C74996   4.868   6.812  11.256  0.8580  0.1301  0.1257
  544MOL0     C74997   4.713   6.829  11.259 -0.7008  0.3923  0.2051
  544MOL0     C74998   4.677   6.906  11.383 -0.5359  0.2708  0.1456
  544MOL0     C74999   4.633   6.971  11.474 -0.5427 -1.1647  0.6739
  544MOL0     C75000   5.221   6.550  11.106 -0.7386  0.1341  0.0228
  544MOL0     C75001   5.294   6.508  10.990  0.1947  0.1195  0.1589
  544MOL0     C75002   5.431   6.577  10.972  1.0233  0.9734 -0.5386
  544MOL0     H75003   5.109   6.148  10.524 -0.1788 -0.9056  0.0332
  544MOL0     H75004   5.204   5.964  10.360 -2.0751  0.2857  0.1222
  544MOL0     H75005   5.574   5.809  10.220 -1.4157  0.4299 -0.0946
  544MOL0     H75006   5.611   5.906  10.369 -1.5190  0.8061  1.4651
  544MOL0     H75007   5.568   6.005  10.086 -1.1065  0.9833  1.1543
  544MOL0     H75008   5.643   6.107  10.210 -0.1261  0.4087  0.6588
  544MOL0     H75009   5.828   5.917  10.228  0.9183  0.6805  0.5100
  544MOL0     H75010   5.768   5.857  10.070  1.4634 -0.5594  0.6449
  544MOL0     H75011   5.806   6.077   9.978 -2.6374 -0.4212  3.0887
  544MOL0     H75012   5.901   6.118  10.132 -0.5333  1.8693  0.0302
  544MOL0     H75013   5.957   5.869   9.963 -1.0093  0.5339  1.4183
  544MOL0     H75014   6.055   5.930  10.088 -0.9571  1.8231  2.1728
  544MOL0     H75015   6.115   5.967   9.837  0.3892  1.7870 -1.5455
  544MOL0     H75016   5.999   6.111   9.850  3.0096  2.4196 -1.0962
  544MOL0     H75017   6.280   6.074   9.975  0.0189 -0.1864  1.6201
  544MOL0     H75018   6.150   6.142  10.067  3.3293 -1.8299  0.5681
  544MOL0     H75019   6.263   6.206   9.796  0.5972  0.2361  0.4876
  544MOL0     H75020   6.133   6.304   9.870  1.2428  1.7429  1.4144
  544MOL0     H75021   6.220   6.391  10.147 -0.0774  2.9275 -0.7019
  544MOL0     H75022   6.375   6.496  10.308  0.1042  0.5005  0.3151
  544MOL0     H75023   6.459   6.613  10.223  2.1251  0.3376  2.5418
  544MOL0     H75024   6.584   6.344  10.317  2.4817 -0.1080  1.6964
  544MOL0     H75025   6.665   6.449  10.209  0.7539 -2.6684  0.1294
  544MOL0     H75026   6.644   6.652  10.379 -2.6392 -0.0155  1.6088
  544MOL0     H75027   6.558   6.552  10.483  2.2808 -0.5018  1.5650
  544MOL0     H75028   6.844   6.520  10.409  0.2278  2.3697  1.2927
  544MOL0     H75029   6.774   6.563  10.561  0.0176 -2.6313  1.3811
  544MOL0     H75030   6.589   6.190  10.503 -3.2918  0.0120  0.0565
  544MOL0     H75031   6.381   6.011  10.740  0.6291 -1.5031  0.3108
  544MOL0     H75032   6.509   5.967  10.624 -1.5246  0.7596 -1.3761
  544MOL0     H75033   6.387   6.086  10.572  0.6734  2.1482 -0.7859
  544MOL0     H75034   6.385   6.018  11.163  0.4954 -1.2057  0.6044
  544MOL0     H75035   6.295   5.993  11.399  1.9054 -1.3776  0.3567
  544MOL0     H75036   6.376   5.973  11.607  0.7827 -2.7669  3.4024
  544MOL0     H75037   6.486   6.087  11.669 -0.1043  0.7529  3.6730
  544MOL0     H75038   6.217   6.063  11.808  0.2500 -2.2309 -4.3952
  544MOL0     H75039   6.347   5.955  11.838 -1.4128 -1.6924 -1.5002
  544MOL0     H75040   6.308   6.240  11.881 -0.2655 -0.6822 -0.1266
  544MOL0     H75041   6.475   6.193  11.835  0.7481 -3.7156 -1.5493
  544MOL0     H75042   6.488   6.031  12.031 -1.7238 -1.9363  1.4036
  544MOL0     H75043   6.323   6.042  12.067 -1.6716 -0.0760 -1.9452
  544MOL0     H75044   6.517   6.271  12.106 -1.2785  2.1282  1.8341
  544MOL0     H75045   6.341   6.278  12.133  0.0296  0.6467  2.4432
  544MOL0     H75046   6.510   6.213  12.339 -0.7416  0.0561  0.6304
  544MOL0     H75047   6.495   6.051  12.250 -2.7630 -0.1190 -1.8881
  544MOL0     H75048   6.256   6.062  12.302 -0.6466 -2.2902  3.2796
  544MOL0     H75049   6.276   6.231  12.366 -0.4647 -0.5949  0.4150
  544MOL0     H75050   6.422   6.003  12.489 -0.7841 -0.9357 -0.6959
  544MOL0     H75051   6.247   6.029  12.512 -1.5247  1.5641 -1.1418
  544MOL0     H75052   6.433   6.396  11.475 -0.6224 -0.2233  1.4744
  544MOL0     H75053   6.497   6.416  11.239 -0.9723 -0.1228 -2.5376
  544MOL0     H75054   6.650   6.375  10.953  2.6868  1.7538 -1.2793
  544MOL0     H75055   6.796   6.442  10.755 -1.9060  2.8895 -0.0432
  544MOL0     H75056   5.596   6.118  10.433 -1.0355  1.4325 -0.7903
  544MOL0     H75057   5.519   6.272  10.600  0.9312  0.8170 -0.4727
  544MOL0     H75058   5.061   6.313  10.844  0.4110  1.1067 -1.5943
  544MOL0     H75059   4.928   6.403  11.031  0.9980 -1.5953 -2.7120
  544MOL0     H75060   5.065   6.575  11.423 -1.8382  1.0552  1.7104
  544MOL0     H75061   5.115   6.707  11.315  2.0249 -1.4501 -1.0066
  544MOL0     H75062   4.926   6.771  11.459  0.3753 -3.4199  2.2477
  544MOL0     H75063   4.821   6.648  11.397 -0.8855  1.2871 -0.5767
  544MOL0     H75064   4.917   6.909  11.259  1.0867 -0.0061  1.2570
  544MOL0     H75065   4.893   6.776  11.156  0.0397  3.2043 -1.3075
  544MOL0     H75066   4.660   6.734  11.245 -0.3922  0.4987 -2.3183
  544MOL0     H75067   4.693   6.890  11.170 -1.7557 -0.4008 -0.1252
  544MOL0     H75068   4.598   7.034  11.553  1.6294  1.8147 -0.5631
  544MOL0     H75069   5.266   6.633  11.160 -3.7866  0.6574  2.0013
  544MOL0     H75070   5.480   6.536  10.883  0.2025  4.2148 -2.6474
  544MOL0     H75071   5.422   6.685  10.960 -1.3937  1.2097  2.1706
  544MOL0     H75072   5.496   6.555  11.057  0.6303 -0.8529 -0.6662
  545MOL0     O75073   8.689   9.840   3.284 -0.7812 -0.5879  0.3346
  545MOL0     C75074   8.748   9.748   3.337  0.0976  0.8354 -0.2408
  545MOL0     O75075   8.892   9.732   3.329  0.0361  0.2260 -0.8098
  545MOL0     C75076   8.974   9.827   3.275  0.5227 -0.2334  0.2362
  545MOL0     C75077   9.097   9.775   3.227  0.2061 -0.8453 -0.6981
  545MOL0     C75078   9.196   9.863   3.184 -0.0279 -0.6007  1.1431
  545MOL0     C75079   9.171  10.004   3.188 -0.3720  0.3541 -0.8853
  545MOL0     O75080   9.270  10.082   3.129 -0.2821 -0.2417  0.2793
  545MOL0     C75081   9.228  10.157   3.013  0.4234 -0.4291 -0.4697
  545MOL0     C75082   9.347  10.215   2.934 -0.4977  0.0868 -0.0524
  545MOL0     C75083   9.450  10.103   2.908  0.5037 -0.2337 -0.7775
  545MOL0     C75084   9.531  10.123   2.774 -0.1965 -0.7006  0.0769
  545MOL0     C75085   9.661  10.209   2.801  0.3724 -0.8553 -0.7192
  545MOL0     C75086   9.740  10.241   2.678  0.4520 -0.2707  0.9996
  545MOL0     C75087   9.840  10.350   2.724 -0.7174  0.8134  0.9115
  545MOL0     C75088   9.933  10.391   2.603 -0.0308  0.4502  0.0099
  545MOL0     N75089  10.053  10.311   2.594  0.1545  0.7099 -0.9847
  545MOL0     C75090  10.101  10.260   2.473  0.0019 -0.7336 -0.8176
  545MOL0     C75091  10.216  10.201   2.509 -0.3601 -1.0218  1.0285
  545MOL0     C75092  10.322  10.163   2.402  0.1256 -0.4444 -0.8987
  545MOL0     C75093  10.431  10.269   2.406 -0.7314  0.0777  0.2302
  545MOL0     C75094  10.539  10.221   2.313 -0.2735 -0.9383  1.3565
  545MOL0     C75095  10.667  10.306   2.303  0.2507  0.1542 -0.8566
  545MOL0     O75096  10.655  10.424   2.382 -0.7266 -0.6014 -0.3744
  545MOL0     C75097  10.779  10.488   2.402  0.0555 -0.8737 -0.5358
  545MOL0     C75098  10.841  10.567   2.296  0.1244 -0.4016 -0.3863
  545MOL0     C75099  10.954  10.655   2.311  0.3960  0.3218  0.4299
  545MOL0     C75100  10.989  10.744   2.186  0.3977 -0.1798 -0.2010
  545MOL0     C75101  11.026  10.641   2.424  0.3118 -1.0937  0.6545
  545MOL0     C75102  11.169  10.688   2.438  0.6498 -0.5350  0.8561
  545MOL0     O75103  11.206  10.731   2.561 -0.0615 -0.3434 -0.3540
  545MOL0     C75104  11.332  10.786   2.592 -0.4654  0.1481  0.3968
  545MOL0     C75105  11.347  10.822   2.727  0.3778  0.5061  0.3763
  545MOL0     C75106  11.442  10.911   2.769 -0.6720 -1.0789  0.4262
  545MOL0     C75107  11.533  10.971   2.682 -0.3249  0.6601 -0.2534
  545MOL0     O75108  11.632  11.057   2.711  0.4387 -0.1420 -1.0512
  545MOL0     C75109  11.694  11.048   2.842 -0.1560  0.7289  0.7499
  545MOL0     C75110  11.828  11.122   2.836  0.2476 -0.7511 -0.4203
  545MOL0     C75111  11.829  11.276   2.797  0.2799 -0.1478  0.2284
  545MOL0     C75112  11.721  11.371   2.859 -0.2029 -0.1378 -0.2160
  545MOL0     C75113  11.760  11.393   3.011 -0.0876 -0.4247 -0.2771
  545MOL0     C75114  11.659  11.483   3.092  0.1048  0.4838  0.2641
  545MOL0     C75115  11.735  11.572   3.197  0.4932 -0.5436  0.1593
  545MOL0     C75116  11.654  11.704   3.229 -0.3368 -0.4506 -0.2535
  545MOL0    Cl75117  11.763  11.787   3.346 -0.7033  0.8533  0.0087
  545MOL0     C75118  11.523  10.933   2.555 -0.6911  0.1286  0.6172
  545MOL0     C75119  11.423  10.845   2.507  0.4300 -0.6075 -0.0579
  545MOL0     O75120  11.229  10.689   2.335  0.1031  0.1810 -0.1648
  545MOL0     C75121  10.968  10.569   2.537  0.5797  0.1257  0.3724
  545MOL0     C75122  10.850  10.497   2.523  0.9307  1.1446 -0.2426
  545MOL0     N75123  10.236  10.209   2.643 -0.1497 -1.2955 -0.3300
  545MOL0     N75124  10.139  10.272   2.696  0.7746  0.3115 -0.2238
  545MOL0     C75125   9.050  10.057   3.231  0.3317 -0.2548  0.4824
  545MOL0     C75126   8.953   9.969   3.262 -0.0836  0.4459  0.6395
  545MOL0     C75127   8.674   9.625   3.392 -0.8608 -0.3092  0.7237
  545MOL0     C75128   8.745   9.546   3.493 -0.9750 -0.1821 -0.3695
  545MOL0     C75129   8.692   9.434   3.552 -0.4389 -0.3391  0.3732
  545MOL0     C75130   8.553   9.403   3.527 -0.2318  0.7524 -0.3538
  545MOL0     O75131   8.492   9.292   3.577 -0.8548 -0.0709 -0.4470
  545MOL0     C75132   8.558   9.168   3.577  0.8468  0.6115 -0.2026
  545MOL0     C75133   8.615   9.144   3.721  0.2168  0.5487 -0.5631
  545MOL0     C75134   8.693   9.018   3.720 -0.2650  1.0466 -1.0258
  545MOL0     C75135   8.754   8.983   3.858 -0.2488 -1.4090  0.4750
  545MOL0     C75136   8.852   9.079   3.907  0.3826  0.0573  0.2367
  545MOL0     C75137   8.917   9.169   3.955 -0.8389 -1.1130 -0.0609
  545MOL0     C75138   8.481   9.490   3.432 -0.3147 -0.0749 -0.2812
  545MOL0     C75139   8.537   9.591   3.361  0.5100  0.6434  0.9026
  545MOL0     C75140   8.455   9.651   3.247 -0.5389 -0.2261 -0.2013
  545MOL0     H75141   9.133   9.674   3.245 -0.5827 -1.1729 -0.9112
  545MOL0     H75142   9.296   9.836   3.151  0.2299  2.4264 -0.8752
  545MOL0     H75143   9.169  10.246   3.036  1.5421  0.3221 -0.4133
  545MOL0     H75144   9.164  10.106   2.941 -3.4968  3.5260 -0.2479
  545MOL0     H75145   9.327  10.258   2.835  0.4908 -0.5779 -0.5587
  545MOL0     H75146   9.389  10.297   2.994 -1.6729 -0.6406  1.8441
  545MOL0     H75147   9.521  10.097   2.991 -0.3108 -1.2070 -0.1275
  545MOL0     H75148   9.414  10.000   2.911  3.6587 -1.5088  3.4960
  545MOL0     H75149   9.560  10.023   2.741  0.1185 -0.6440  0.1781
  545MOL0     H75150   9.472  10.168   2.693 -1.2673 -0.1082  1.1441
  545MOL0     H75151   9.730  10.160   2.871  2.4550  0.7240 -1.5565
  545MOL0     H75152   9.634  10.303   2.848 -1.6778 -1.8706  0.2477
  545MOL0     H75153   9.792  10.151   2.644 -0.8302  0.7163 -4.3887
  545MOL0     H75154   9.682  10.280   2.594  0.0657 -2.7103  0.0713
  545MOL0     H75155   9.902  10.324   2.810 -1.8284 -1.7149  1.0364
  545MOL0     H75156   9.786  10.441   2.753 -1.7537 -0.4476  3.1830
  545MOL0     H75157   9.883  10.379   2.506  2.9658  1.5462 -1.8205
  545MOL0     H75158   9.976  10.487   2.635  4.6056 -2.0088  2.0261
  545MOL0     H75159  10.068  10.289   2.374  3.3726  1.4069 -1.4810
  545MOL0     H75160  10.281  10.153   2.301  0.6855  2.4208 -1.4921
  545MOL0     H75161  10.373  10.072   2.435  1.9035  1.7587  3.1469
  545MOL0     H75162  10.380  10.358   2.368 -0.8203 -0.8272 -1.8833
  545MOL0     H75163  10.470  10.283   2.507 -2.4631  0.7887  0.8342
  545MOL0     H75164  10.562  10.114   2.316  2.7445 -0.4936 -0.7934
  545MOL0     H75165  10.499  10.209   2.212 -1.5892 -0.2966  1.7752
  545MOL0     H75166  10.756  10.246   2.324 -0.6971 -0.8132  0.6153
  545MOL0     H75167  10.671  10.340   2.199 -0.9527 -0.8174 -1.2373
  545MOL0     H75168  10.786  10.564   2.202  2.2688 -1.4186 -1.6932
  545MOL0     H75169  11.078  10.692   2.148  1.7703  1.7623  0.2208
  545MOL0     H75170  11.030  10.842   2.211  1.3782 -0.7329  0.4406
  545MOL0     H75171  10.915  10.753   2.106  1.4817  0.2090 -1.2000
  545MOL0     H75172  11.272  10.777   2.792  0.1445 -5.3250 -3.1468
  545MOL0     H75173  11.448  10.942   2.873  0.8578 -0.9980  0.3353
  545MOL0     H75174  11.637  11.101   2.919  0.9816  2.2524  0.5888
  545MOL0     H75175  11.717  10.947   2.876  0.9945  0.0352 -1.8151
  545MOL0     H75176  11.875  11.118   2.934 -3.0242 -1.2251  1.2616
  545MOL0     H75177  11.893  11.077   2.760 -0.9417  0.8721 -2.5259
  545MOL0     H75178  11.816  11.284   2.688  3.4071 -2.5415 -0.4715
  545MOL0     H75179  11.927  11.321   2.814 -0.3287  1.3217  0.0246
  545MOL0     H75180  11.618  11.336   2.853  0.7784 -3.4480  0.3250
  545MOL0     H75181  11.720  11.474   2.821 -1.9523  1.4547  3.6430
  545MOL0     H75182  11.776  11.303   3.071  0.7085 -1.0068 -1.3229
  545MOL0     H75183  11.850  11.456   3.010 -1.1058  1.2419  2.1674
  545MOL0     H75184  11.576  11.431   3.141  0.5665  0.0578  0.6063
  545MOL0     H75185  11.607  11.550   3.023 -0.0979 -0.1594 -0.2197
  545MOL0     H75186  11.831  11.612   3.163  0.0166  0.4042 -0.0995
  545MOL0     H75187  11.751  11.508   3.285  0.5869 -0.0365  0.5124
  545MOL0     H75188  11.559  11.674   3.273  0.2431  0.7557  1.9461
  545MOL0     H75189  11.624  11.765   3.144 -1.8180 -0.5684  0.1662
  545MOL0     H75190  11.610  10.961   2.497  1.1434 -0.9693  2.7355
  545MOL0     H75191  11.424  10.825   2.400  0.9220 -1.7980  0.1472
  545MOL0     H75192  11.017  10.561   2.633 -0.5507 -0.6686  0.9109
  545MOL0     H75193  10.808  10.448   2.611 -0.3430 -1.8908 -2.3624
  545MOL0     H75194   9.044  10.166   3.228  0.2868 -0.2405  0.9631
  545MOL0     H75195   8.862  10.023   3.287 -0.9755 -1.4253  1.6603
  545MOL0     H75196   8.846   9.573   3.522 -1.7264  1.8254  0.6338
  545MOL0     H75197   8.742   9.372   3.627  0.6203 -2.5418 -1.9970
  545MOL0     H75198   8.482   9.091   3.562  0.9690  0.3720  0.3615
  545MOL0     H75199   8.634   9.155   3.499  2.8797 -0.2153  1.7944
  545MOL0     H75200   8.527   9.138   3.786  1.0347  1.9350  0.7489
  545MOL0     H75201   8.675   9.227   3.760  3.0944 -2.6185  2.4192
  545MOL0     H75202   8.633   8.931   3.692  0.4466  1.1579 -3.1121
  545MOL0     H75203   8.778   9.022   3.650 -1.5372  2.0496 -2.5975
  545MOL0     H75204   8.806   8.886   3.851  0.3159 -1.4369  3.6333
  545MOL0     H75205   8.673   8.991   3.930 -0.3383  0.0366  0.2387
  545MOL0     H75206   8.952   9.262   3.995 -0.9411 -0.9384 -0.3798
  545MOL0     H75207   8.380   9.468   3.400 -0.7280  1.3937 -0.0397
  545MOL0     H75208   8.463   9.760   3.240  0.6873 -0.4166 -4.0359
  545MOL0     H75209   8.497   9.617   3.152  3.2167  0.5085  0.9995
  545MOL0     H75210   8.348   9.630   3.250 -0.4594 -1.4976 -2.9798
  546MOL0     O75211   3.620   4.659  10.910 -0.0987 -0.2208  0.6583
  546MOL0     C75212   3.617   4.594  10.804 -1.3294  0.3804  0.8805
  546MOL0     O75213   3.708   4.488  10.778  0.4589  0.0707  0.5763
  546MOL0     C75214   3.773   4.422  10.887 -0.2079 -0.0961  0.4915
  546MOL0     C75215   3.743   4.445  11.026 -0.3672 -1.6112 -0.2813
  546MOL0     C75216   3.829   4.410  11.126 -0.2494  0.5720 -0.0706
  546MOL0     C75217   3.941   4.336  11.098 -0.2861  0.2860 -0.0133
  546MOL0     O75218   4.029   4.312  11.205  0.5959  0.0412  0.0607
  546MOL0     C75219   4.169   4.318  11.181 -0.1799  0.1399  0.0664
  546MOL0     C75220   4.261   4.326  11.308  0.6717 -0.6407  0.4020
  546MOL0     C75221   4.179   4.321  11.431 -0.6838  0.6367 -0.0305
  546MOL0     C75222   4.268   4.330  11.562 -0.6138  0.8143  0.3973
  546MOL0     C75223   4.281   4.203  11.648 -0.0031 -0.7731  0.0225
  546MOL0     C75224   4.339   4.080  11.571  0.4736  0.0826 -0.0987
  546MOL0     C75225   4.370   3.966  11.668 -0.4604 -0.6663  0.9511
  546MOL0     C75226   4.258   3.881  11.730  0.1521 -0.0128 -0.4249
  546MOL0     N75227   4.162   3.828  11.630 -0.8429 -0.4586 -0.3125
  546MOL0     C75228   4.192   3.730  11.542  0.2095  1.4854  0.4013
  546MOL0     C75229   4.101   3.742  11.443 -1.2279 -0.0294  0.3515
  546MOL0     C75230   4.066   3.651  11.324  0.0450  0.2802  1.0761
  546MOL0     C75231   3.934   3.574  11.371  0.6590  0.4537  0.5481
  546MOL0     C75232   3.900   3.474  11.259  0.0048 -0.4620 -0.1719
  546MOL0     C75233   3.746   3.454  11.233 -0.5124 -0.1268 -0.0794
  546MOL0     O75234   3.726   3.378  11.113 -0.0735  0.4197  0.4045
  546MOL0     C75235   3.717   3.450  11.003 -0.4539 -1.0819  1.0123
  546MOL0     C75236   3.635   3.552  10.965  1.2384  0.0179  0.5858
  546MOL0     C75237   3.612   3.602  10.831 -1.7534  0.2403  0.1731
  546MOL0     C75238   3.519   3.712  10.803 -0.3478  0.3080  0.3797
  546MOL0     C75239   3.687   3.544  10.726 -0.4680 -0.1535 -0.4478
  546MOL0     C75240   3.685   3.576  10.582 -0.9998 -0.6558  0.3731
  546MOL0     O75241   3.702   3.706  10.536  0.2126 -0.0764  0.5446
  546MOL0     C75242   3.686   3.726  10.394  0.3367  0.2507  0.5366
  546MOL0     C75243   3.562   3.762  10.346 -0.0713 -0.5323  0.6483
  546MOL0     C75244   3.528   3.762  10.207  0.5021 -0.9277 -0.3144
  546MOL0     C75245   3.629   3.714  10.111 -0.7987  0.1849 -0.2594
  546MOL0     O75246   3.602   3.699   9.979 -0.2156 -0.2733  0.5139
  546MOL0     C75247   3.522   3.800   9.919  0.7323 -0.2804  0.1200
  546MOL0     C75248   3.516   3.759   9.769  0.2638  0.0232 -0.4009
  546MOL0     C75249   3.660   3.778   9.720  0.0326 -0.7767  0.2292
  546MOL0     C75250   3.688   3.745   9.576  0.3140  0.0911  0.1510
  546MOL0     C75251   3.830   3.696   9.559  0.7477 -0.3343 -0.6500
  546MOL0     C75252   3.875   3.700   9.403 -0.1805  0.0151 -0.1211
  546MOL0     C75253   4.028   3.676   9.393 -0.2261  0.2632 -0.0708
  546MOL0     C75254   4.053   3.657   9.243 -0.3582  0.1311  0.0396
  546MOL0    Cl75255   4.026   3.482   9.190 -0.7023  0.2095 -0.5828
  546MOL0     C75256   3.754   3.674  10.165 -0.3482  0.1097 -0.0866
  546MOL0     C75257   3.789   3.678  10.307  0.0167 -0.6258  1.0301
  546MOL0     O75258   3.691   3.472  10.512  0.4041 -0.8874  0.6639
  546MOL0     C75259   3.774   3.442  10.763  0.5194 -0.1035 -1.0934
  546MOL0     C75260   3.786   3.397  10.898  0.1584  0.2921 -0.0524
  546MOL0     N75261   4.015   3.844  11.473  0.1957  0.5639  0.0572
  546MOL0     N75262   4.049   3.896  11.586 -0.5644 -0.2617  0.6619
  546MOL0     C75263   3.967   4.298  10.963  0.2625  0.8715 -0.5051
  546MOL0     C75264   3.880   4.339  10.861  0.5247 -0.5109 -0.9261
  546MOL0     C75265   3.527   4.641  10.704  0.3210  0.4071  0.8412
  546MOL0     C75266   3.589   4.683  10.580  0.1031  0.3677 -1.2480
  546MOL0     C75267   3.498   4.726  10.483 -0.9334 -0.1780  1.1173
  546MOL0     C75268   3.363   4.747  10.498 -0.8794 -0.4006  0.1270
  546MOL0     O75269   3.297   4.800  10.388  0.4402  0.4836  0.7307
  546MOL0     C75270   3.156   4.835  10.384  0.3433  0.5828  0.5751
  546MOL0     C75271   3.116   4.832  10.229  0.1512 -0.4559  0.1425
  546MOL0     C75272   3.162   4.964  10.158  0.3813  0.2919  0.2013
  546MOL0     C75273   3.307   4.992  10.139 -0.5533 -0.1100  0.4393
  546MOL0     C75274   3.383   4.877  10.067  0.0131 -1.6808 -0.0194
  546MOL0     C75275   3.453   4.787  10.033  0.8359 -0.5784  0.5278
  546MOL0     C75276   3.302   4.690  10.607  0.1951  0.2430 -0.5424
  546MOL0     C75277   3.382   4.636  10.712 -0.4140  0.2407  1.0757
  546MOL0     C75278   3.319   4.565  10.826 -0.2222 -0.4881 -0.2093
  546MOL0     H75279   3.652   4.490  11.064  0.0183 -1.9439  1.0997
  546MOL0     H75280   3.809   4.420  11.232 -1.0713 -2.1444  0.1056
  546MOL0     H75281   4.180   4.396  11.105 -2.1687  0.4700  0.0426
  546MOL0     H75282   4.199   4.230  11.124 -1.5459  0.5200 -1.3166
  546MOL0     H75283   4.340   4.250  11.312 -0.3567 -1.6786  3.4093
  546MOL0     H75284   4.313   4.422  11.306  3.8005 -2.1465  2.2296
  546MOL0     H75285   4.100   4.398  11.432 -1.1111  0.2123  0.7969
  546MOL0     H75286   4.124   4.226  11.439  0.0036  0.3562  2.0176
  546MOL0     H75287   4.366   4.364  11.527 -0.5549 -0.9257 -1.2648
  546MOL0     H75288   4.220   4.412  11.617 -3.7011 -1.1159  0.8413
  546MOL0     H75289   4.180   4.179  11.682 -0.6143  0.3553 -0.9104
  546MOL0     H75290   4.346   4.215  11.736  2.0155 -1.7031 -1.2583
  546MOL0     H75291   4.263   4.052  11.497  0.3619 -0.1035  0.0864
  546MOL0     H75292   4.438   4.105  11.532  1.5955 -3.3074  0.2815
  546MOL0     H75293   4.423   4.006  11.755 -0.1439 -0.4286  0.6533
  546MOL0     H75294   4.434   3.895  11.614 -3.3216  0.6530 -4.9514
  546MOL0     H75295   4.293   3.797  11.791 -2.3968 -0.7447  0.1616
  546MOL0     H75296   4.194   3.944  11.792 -1.0168 -0.6305 -0.9722
  546MOL0     H75297   4.272   3.657  11.546  0.7235  1.9602 -0.7135
  546MOL0     H75298   4.139   3.572  11.301 -0.9566 -0.1082 -1.0400
  546MOL0     H75299   4.043   3.717  11.240 -1.0264 -2.3184 -0.7869
  546MOL0     H75300   3.965   3.512  11.456  1.1591  0.1069  0.1232
  546MOL0     H75301   3.850   3.641  11.394 -2.1783 -1.8120 -2.3808
  546MOL0     H75302   3.945   3.507  11.165  0.9140  1.0887  0.7624
  546MOL0     H75303   3.950   3.376  11.259 -0.3939 -0.6773 -1.2960
  546MOL0     H75304   3.702   3.400  11.318  0.5600  1.4322  1.5190
  546MOL0     H75305   3.682   3.541  11.218 -2.1466 -1.0324  1.2318
  546MOL0     H75306   3.588   3.607  11.046  4.6007  1.0338  2.0375
  546MOL0     H75307   3.550   3.807  10.847 -0.6035  1.5951 -2.0020
  546MOL0     H75308   3.416   3.688  10.832 -1.5094  1.4552 -2.3607
  546MOL0     H75309   3.519   3.729  10.695  3.5877  2.2865  0.4906
  546MOL0     H75310   3.486   3.790  10.418  0.6772  0.8501  0.9307
  546MOL0     H75311   3.422   3.769  10.181 -0.9783 -1.4816  4.6364
  546MOL0     H75312   3.420   3.799   9.958 -0.5551  1.9665 -2.7870
  546MOL0     H75313   3.574   3.894   9.942  2.8584 -1.5570  0.7921
  546MOL0     H75314   3.486   3.654   9.759  0.1863  0.0505 -0.4504
  546MOL0     H75315   3.450   3.820   9.707 -1.7825 -3.6445 -2.1683
  546MOL0     H75316   3.733   3.740   9.792  3.3242  0.4479 -2.2403
  546MOL0     H75317   3.670   3.887   9.730  0.8542 -1.0005  2.3609
  546MOL0     H75318   3.666   3.831   9.513  1.1590  0.0024 -0.2900
  546MOL0     H75319   3.618   3.670   9.540  0.3829 -1.2224  2.5279
  546MOL0     H75320   3.898   3.757   9.620 -0.3552  0.3008 -0.0248
  546MOL0     H75321   3.842   3.594   9.598 -1.2436  0.3470  1.9944
  546MOL0     H75322   3.857   3.803   9.371 -0.7017 -0.1105 -0.2315
  546MOL0     H75323   3.816   3.621   9.357 -1.0972  0.9428 -0.5592
  546MOL0     H75324   4.064   3.593   9.455 -0.5748  2.5055  3.3918
  546MOL0     H75325   4.082   3.758   9.443 -1.2637  0.3154  1.0187
  546MOL0     H75326   4.158   3.674   9.219  0.7262 -2.9274  2.1226
  546MOL0     H75327   4.002   3.728   9.177  3.7844  3.3252 -0.1011
  546MOL0     H75328   3.829   3.624  10.105 -0.7334 -1.2584  0.5288
  546MOL0     H75329   3.889   3.648  10.337  0.8592  0.7772 -0.2252
  546MOL0     H75330   3.833   3.403  10.681 -0.8810 -2.2309 -1.1660
  546MOL0     H75331   3.874   3.336  10.919  1.2119  0.9063 -2.3634
  546MOL0     H75332   4.053   4.231  10.959 -0.4943 -0.5329  3.0954
  546MOL0     H75333   3.892   4.311  10.756 -2.5363  0.2662 -1.5689
  546MOL0     H75334   3.696   4.684  10.561  0.1531 -2.7113 -1.5177
  546MOL0     H75335   3.533   4.763  10.387 -1.7891 -0.1872  0.7982
  546MOL0     H75336   3.103   4.754  10.434 -0.1387 -1.1397 -2.4576
  546MOL0     H75337   3.131   4.935  10.422 -1.1784  0.3595  0.2459
  546MOL0     H75338   3.008   4.829  10.211 -0.1914  4.1301  0.4708
  546MOL0     H75339   3.160   4.745  10.177 -0.5656  0.0261 -1.3267
  546MOL0     H75340   3.113   4.972  10.060 -0.8149  2.0910  0.8786
  546MOL0     H75341   3.123   5.050  10.213  0.5004  0.3861  0.1390
  546MOL0     H75342   3.356   5.003  10.236 -2.2015 -1.0069  1.4096
  546MOL0     H75343   3.321   5.084  10.082  1.4088 -0.9738 -0.5901
  546MOL0     H75344   3.509   4.705   9.995 -1.2866 -1.4823 -0.8339
  546MOL0     H75345   3.196   4.688  10.632  0.1376 -0.6819 -0.8481
  546MOL0     H75346   3.227   4.512  10.799 -1.5737 -1.8682  5.6835
  546MOL0     H75347   3.386   4.479  10.838  1.4632  0.2594 -3.1744
  546MOL0     H75348   3.287   4.617  10.917 -2.4097 -3.3969  0.8284
  547MOL0     O75349   9.816   3.332   5.963  0.0576 -0.9290 -0.9939
  547MOL0     C75350   9.803   3.442   6.020  0.0386 -0.4093  0.5190
  547MOL0     O75351   9.909   3.524   6.062  0.7290 -0.2196 -0.4623
  547MOL0     C75352  10.029   3.503   6.006  0.0911  0.3647  0.6989
  547MOL0     C75353  10.132   3.467   6.091  1.5106  0.6245  0.1487
  547MOL0     C75354  10.259   3.451   6.034  0.0217  0.8094  0.9230
  547MOL0     C75355  10.288   3.463   5.899 -0.2147 -1.0046 -0.0125
  547MOL0     O75356  10.416   3.459   5.852  0.1472 -0.3380 -0.4771
  547MOL0     C75357  10.444   3.345   5.773 -1.2910  0.4295  0.2244
  547MOL0     C75358  10.591   3.340   5.721  0.5634  0.0330 -0.2636
  547MOL0     C75359  10.701   3.337   5.830  0.4817  0.5581 -0.1792
  547MOL0     C75360  10.689   3.206   5.919 -0.0482 -0.4242  0.7070
  547MOL0     C75361  10.802   3.196   6.023  0.6006  0.6703 -0.0659
  547MOL0     C75362  10.787   3.068   6.101  0.4241 -0.4684 -0.0175
  547MOL0     C75363  10.900   3.033   6.204  0.9084 -0.5351 -0.2879
  547MOL0     C75364  11.031   2.993   6.126 -0.5203 -0.4542  0.7328
  547MOL0     N75365  11.013   2.887   6.025 -0.0367  1.0307  0.2245
  547MOL0     C75366  10.959   2.759   6.051  1.4644  0.6924  0.0688
  547MOL0     C75367  10.946   2.690   5.933  0.6051 -0.3336 -0.5705
  547MOL0     C75368  10.885   2.556   5.901  0.6535  0.0426  0.5429
  547MOL0     C75369  10.962   2.434   5.944 -0.4239 -0.1011  0.0757
  547MOL0     C75370  10.881   2.307   5.930  0.2714  0.7179 -0.6338
  547MOL0     C75371  10.956   2.180   5.974  0.2945 -0.0014  0.6361
  547MOL0     O75372  11.065   2.149   5.888 -0.7079 -0.3314 -0.1486
  547MOL0     C75373  11.177   2.081   5.922 -0.3324  0.0394 -0.3176
  547MOL0     C75374  11.266   2.117   6.037 -0.7432  0.0731  0.1905
  547MOL0     C75375  11.386   2.053   6.044  0.1361  0.4834  0.3144
  547MOL0     C75376  11.476   2.106   6.143 -0.4755  0.4889 -1.0454
  547MOL0     C75377  11.425   1.931   5.978  0.7708 -0.3611  0.6168
  547MOL0     C75378  11.535   1.836   5.993 -0.5924 -0.2814 -0.1695
  547MOL0     O75379  11.543   1.717   5.918 -0.4129  0.1014 -0.6938
  547MOL0     C75380  11.650   1.636   5.943 -0.1894  0.1813  0.2571
  547MOL0     C75381  11.754   1.630   5.846  0.2690 -0.2768  0.0306
  547MOL0     C75382  11.859   1.534   5.871  0.7482 -0.6628 -0.0121
  547MOL0     C75383  11.867   1.458   5.982  0.0885 -0.3145 -0.1540
  547MOL0     O75384  11.968   1.366   5.997 -0.2114 -0.2225  0.2106
  547MOL0     C75385  12.000   1.326   6.128  0.0551  1.2455 -0.6121
  547MOL0     C75386  12.112   1.222   6.114  1.0007  0.0980 -0.3012
  547MOL0     C75387  12.169   1.192   6.250 -0.2996  1.1708 -0.3919
  547MOL0     C75388  12.214   1.298   6.351 -0.1605  0.6229 -0.8607
  547MOL0     C75389  12.301   1.239   6.461 -0.6606 -0.1329 -0.0008
  547MOL0     C75390  12.383   1.354   6.522 -0.0381 -0.4633 -1.0066
  547MOL0     C75391  12.469   1.299   6.635  0.5350 -0.0574  0.4043
  547MOL0     C75392  12.549   1.165   6.629 -0.2574 -0.4365 -0.0467
  547MOL0    Cl75393  12.656   1.163   6.482 -0.2376 -0.1859 -0.3614
  547MOL0     C75394  11.769   1.471   6.080  0.4570 -0.3998 -0.5783
  547MOL0     C75395  11.660   1.558   6.061  0.0294  1.0615 -0.1822
  547MOL0     O75396  11.618   1.867   6.077  1.1382 -0.3855  0.4387
  547MOL0     C75397  11.330   1.900   5.871 -0.1821 -0.6890 -0.9654
  547MOL0     C75398  11.211   1.972   5.841  0.0172  0.1875  0.2342
  547MOL0     N75399  11.003   2.776   5.840  0.3634  0.1551  0.2873
  547MOL0     N75400  11.032   2.886   5.892  1.0101  0.0570 -0.3249
  547MOL0     C75401  10.179   3.501   5.818  0.6651 -0.0623 -0.4410
  547MOL0     C75402  10.051   3.514   5.870  0.0855  0.7635  0.7298
  547MOL0     C75403   9.664   3.484   6.082 -0.8717  0.4140  0.7002
  547MOL0     C75404   9.665   3.602   6.156  0.1340 -0.0473  0.5542
  547MOL0     C75405   9.536   3.629   6.223 -0.4159  0.5304 -0.0887
  547MOL0     C75406   9.423   3.549   6.210 -0.4552  0.6221  0.8125
  547MOL0     O75407   9.299   3.565   6.267 -0.4439 -0.4662  0.2567
  547MOL0     C75408   9.294   3.595   6.408 -0.1378 -0.5151  0.6617
  547MOL0     C75409   9.162   3.544   6.458  0.1102  0.6648  0.2951
  547MOL0     C75410   9.135   3.392   6.423  0.4036  1.2516  0.4357
  547MOL0     C75411   9.096   3.312   6.533  0.4326  0.0698 -0.4045
  547MOL0     C75412   8.973   3.369   6.594  0.0064  1.1429 -0.5295
  547MOL0     C75413   8.883   3.416   6.653 -0.1307 -0.0667  1.1322
  547MOL0     C75414   9.430   3.443   6.130  0.1561 -0.3359  0.2179
  547MOL0     C75415   9.551   3.399   6.061 -0.1821 -1.2220  0.4349
  547MOL0     C75416   9.541   3.280   5.976  0.7153  1.3760 -0.2648
  547MOL0     H75417  10.101   3.440   6.191  0.3520 -1.0203 -0.6109
  547MOL0     H75418  10.341   3.437   6.104  1.5678  1.1348 -0.7254
  547MOL0     H75419  10.370   3.346   5.693  1.2467 -1.4893 -2.3462
  547MOL0     H75420  10.415   3.259   5.834 -1.2460  0.4119  0.2217
  547MOL0     H75421  10.609   3.250   5.662  0.0572 -2.1697  2.7234
  547MOL0     H75422  10.602   3.435   5.667 -1.2187  1.5567  1.8673
  547MOL0     H75423  10.800   3.339   5.784 -0.6159  1.9332 -2.7324
  547MOL0     H75424  10.704   3.433   5.883  0.5167  1.2910 -1.4666
  547MOL0     H75425  10.593   3.205   5.971 -0.0491 -2.7930  0.7432
  547MOL0     H75426  10.698   3.125   5.846 -1.7479  1.2654 -1.5349
  547MOL0     H75427  10.783   3.277   6.095 -0.6632  0.5536 -0.2494
  547MOL0     H75428  10.899   3.196   5.973  0.4498 -3.8840 -0.7612
  547MOL0     H75429  10.688   3.071   6.146 -1.2741  0.5017 -3.4639
  547MOL0     H75430  10.774   2.988   6.027  2.6962 -0.3137 -0.6633
  547MOL0     H75431  10.873   2.947   6.265 -0.2702 -0.4035 -0.5993
  547MOL0     H75432  10.924   3.105   6.283  3.0274 -0.7843 -0.6471
  547MOL0     H75433  11.058   3.077   6.061 -5.8421  0.1673 -1.1237
  547MOL0     H75434  11.118   2.968   6.188  0.2192  0.7701  0.2510
  547MOL0     H75435  10.919   2.731   6.148  2.7167 -0.2902  0.3228
  547MOL0     H75436  10.867   2.557   5.793 -1.2671 -1.0180  0.8215
  547MOL0     H75437  10.788   2.558   5.950 -0.3266 -1.5078 -1.1790
  547MOL0     H75438  11.046   2.423   5.875 -0.3047 -0.9193  0.3364
  547MOL0     H75439  10.989   2.430   6.050 -1.8903 -0.2512  0.4696
  547MOL0     H75440  10.792   2.322   5.991  0.9289  0.7508  0.3348
  547MOL0     H75441  10.847   2.303   5.826 -0.8406 -1.1295 -0.2405
  547MOL0     H75442  11.002   2.203   6.071 -0.6175  0.2878  1.0057
  547MOL0     H75443  10.913   2.080   5.976  3.9476 -1.8965 -2.3948
  547MOL0     H75444  11.249   2.209   6.093  4.5819  0.5955  1.5282
  547MOL0     H75445  11.464   2.063   6.242  0.5838  2.4451 -0.0127
  547MOL0     H75446  11.459   2.213   6.156 -0.9654  0.1416  1.6846
  547MOL0     H75447  11.575   2.107   6.095  0.7538 -0.1539  1.3324
  547MOL0     H75448  11.770   1.695   5.761 -0.2769 -2.8423 -2.1537
  547MOL0     H75449  11.940   1.533   5.800 -3.3454 -0.5254 -5.3130
  547MOL0     H75450  12.030   1.408   6.193  1.4519 -0.3284  0.8298
  547MOL0     H75451  11.913   1.270   6.163  1.4391 -0.0202  0.9546
  547MOL0     H75452  12.075   1.136   6.058  1.0747 -0.2604  0.1910
  547MOL0     H75453  12.197   1.261   6.057  1.6385  0.0858  0.6175
  547MOL0     H75454  12.265   1.144   6.229  0.2654 -0.2223  4.2253
  547MOL0     H75455  12.113   1.116   6.306  4.8036 -1.3587  1.9450
  547MOL0     H75456  12.122   1.340   6.393 -0.4176  1.3350 -2.0872
  547MOL0     H75457  12.266   1.382   6.306  2.1870  0.3641  1.1672
  547MOL0     H75458  12.243   1.192   6.541  0.4696  2.0653  2.2710
  547MOL0     H75459  12.363   1.159   6.419 -0.3319 -0.6097  1.3367
  547MOL0     H75460  12.320   1.438   6.550  3.3588  2.3044 -0.9484
  547MOL0     H75461  12.450   1.386   6.442  0.0519 -0.0402 -0.7654
  547MOL0     H75462  12.396   1.288   6.716 -0.4442 -3.4442 -0.7327
  547MOL0     H75463  12.544   1.369   6.671  2.1648 -1.5456  0.0525
  547MOL0     H75464  12.494   1.071   6.639  1.1169 -1.1088  1.6441
  547MOL0     H75465  12.606   1.173   6.721  0.4591 -1.1452 -0.4206
  547MOL0     H75466  11.780   1.417   6.174  2.9267 -0.2669 -0.7303
  547MOL0     H75467  11.585   1.553   6.139 -1.0295 -1.4974 -1.2520
  547MOL0     H75468  11.353   1.808   5.818  2.9873 -0.3032 -0.4732
  547MOL0     H75469  11.147   1.939   5.759 -0.3398 -0.7197  0.8673
  547MOL0     H75470  10.179   3.503   5.709 -2.9170 -0.1698 -0.5729
  547MOL0     H75471   9.974   3.539   5.798  1.8407  1.0493 -1.1368
  547MOL0     H75472   9.746   3.675   6.160 -0.1149  0.1860  1.9192
  547MOL0     H75473   9.518   3.708   6.296  1.6076 -0.0711  1.1438
  547MOL0     H75474   9.377   3.540   6.453 -0.0070  0.5555  1.7608
  547MOL0     H75475   9.308   3.700   6.432 -2.5998  0.3336 -1.1555
  547MOL0     H75476   9.079   3.611   6.437 -0.2559 -0.0899 -0.7410
  547MOL0     H75477   9.172   3.559   6.566 -0.0622 -1.7783  0.7035
  547MOL0     H75478   9.069   3.372   6.338  0.7546  2.8106 -0.2441
  547MOL0     H75479   9.230   3.346   6.396  0.0386 -0.8610  2.3802
  547MOL0     H75480   9.178   3.335   6.602 -1.2155  5.0987  0.3136
  547MOL0     H75481   9.084   3.207   6.506 -0.7355 -0.3384  1.4732
  547MOL0     H75482   8.791   3.441   6.701 -1.4003 -3.7898  0.9572
  547MOL0     H75483   9.334   3.393   6.117  0.7462 -0.9695 -2.5272
  547MOL0     H75484   9.437   3.246   5.977  0.0587  3.2551 -0.1809
  547MOL0     H75485   9.568   3.311   5.874 -1.5247 -1.7763 -1.9661
  547MOL0     H75486   9.618   3.208   6.002 -2.1642 -2.2041 -0.8391
  548MOL0     O75487   0.154   5.301   8.161  1.0456 -0.6121  0.4508
  548MOL0     C75488   0.229   5.360   8.090  0.3166  0.5273 -0.0487
  548MOL0     O75489   0.202   5.389   7.958 -0.1185  0.1759 -0.2345
  548MOL0     C75490   0.081   5.399   7.902  0.6503  0.2597  0.6279
  548MOL0     C75491  -0.040   5.423   7.979 -0.5396 -0.5310  0.3336
  548MOL0     C75492  -0.157   5.455   7.912 -0.5176  0.3364 -0.4381
  548MOL0     C75493  -0.162   5.464   7.772  0.6566  0.2714 -0.5545
  548MOL0     O75494  -0.287   5.476   7.727  0.4520  0.1059 -0.5028
  548MOL0     C75495  -0.308   5.439   7.592  0.4246  0.5047 -0.0564
  548MOL0     C75496  -0.452   5.452   7.557  0.2167 -0.3491  0.6464
  548MOL0     C75497  -0.560   5.453   7.659 -0.5349  0.6401 -0.2227
  548MOL0     C75498  -0.596   5.316   7.704 -0.1521 -0.4112  0.2367
  548MOL0     C75499  -0.723   5.317   7.779 -0.7361  0.1463  0.1699
  548MOL0     C75500  -0.711   5.358   7.926  0.5229  0.0619  0.3726
  548MOL0     C75501  -0.849   5.358   8.000 -0.0867 -0.8088 -1.1471
  548MOL0     C75502  -0.831   5.414   8.141  0.4155 -0.0784  0.1129
  548MOL0     N75503  -0.947   5.394   8.229  0.2022  0.2739  0.3561
  548MOL0     C75504  -0.925   5.311   8.335 -0.3854  0.0202  0.2115
  548MOL0     C75505  -1.047   5.320   8.397  0.2703  0.0509 -0.8006
  548MOL0     C75506  -1.090   5.232   8.516  1.3361 -0.8291  0.4017
  548MOL0     C75507  -1.233   5.171   8.501 -0.0884  0.0766 -0.5411
  548MOL0     C75508  -1.290   5.102   8.622 -0.1334 -0.2512  0.5735
  548MOL0     C75509  -1.360   5.205   8.715  0.0082  0.2424  0.3773
  548MOL0     O75510  -1.269   5.297   8.777 -1.0164 -0.5129  0.2616
  548MOL0     C75511  -1.319   5.382   8.873  0.0009  0.4442 -0.3528
  548MOL0     C75512  -1.424   5.466   8.848 -0.0794 -0.2333 -0.8605
  548MOL0     C75513  -1.475   5.562   8.946 -0.2677  0.3739  0.4008
  548MOL0     C75514  -1.591   5.648   8.900  0.1694 -0.7380  0.4387
  548MOL0     C75515  -1.420   5.568   9.072  0.4817 -0.6431 -0.9248
  548MOL0     C75516  -1.472   5.633   9.193 -0.0819  0.6527  0.3154
  548MOL0     O75517  -1.563   5.736   9.175 -0.4360 -0.6716  0.3053
  548MOL0     C75518  -1.670   5.744   9.259  0.0433 -0.1604 -0.2004
  548MOL0     C75519  -1.773   5.650   9.274  1.1251  0.2773  1.0736
  548MOL0     C75520  -1.872   5.669   9.373 -0.6955  1.6943  0.2460
  548MOL0     C75521  -1.888   5.785   9.439 -0.4486  0.4894 -0.1077
  548MOL0     O75522  -1.991   5.788   9.524  0.6235  0.2560 -0.8225
  548MOL0     C75523  -1.975   5.848   9.649 -0.3080  0.5142 -0.7990
  548MOL0     C75524  -2.111   5.849   9.721  0.6608  0.5928 -0.6563
  548MOL0     C75525  -2.217   5.946   9.677 -0.2193  0.5961 -0.2162
  548MOL0     C75526  -2.354   5.896   9.728 -1.5183 -0.2665 -0.2117
  548MOL0     C75527  -2.463   5.995   9.763 -0.4385 -0.9464 -0.1928
  548MOL0     C75528  -2.589   5.939   9.827  0.3880 -0.5280 -0.0095
  548MOL0     C75529  -2.689   6.056   9.856  0.8922 -0.2683 -0.0156
  548MOL0     C75530  -2.792   6.088   9.732  1.1637  0.2786 -0.7187
  548MOL0    Cl75531  -2.873   5.930   9.675  0.2484 -0.0977 -0.4114
  548MOL0     C75532  -1.788   5.887   9.418 -0.0651  0.2518 -0.8259
  548MOL0     C75533  -1.689   5.863   9.325 -1.0760 -1.1386  0.4222
  548MOL0     O75534  -1.414   5.602   9.303 -0.2810  0.9293  0.2307
  548MOL0     C75535  -1.315   5.480   9.092 -0.7582  0.3821  0.0951
  548MOL0     C75536  -1.253   5.399   8.996 -0.2470  0.3154 -1.5334
  548MOL0     N75537  -1.137   5.396   8.325  1.0406 -0.0191 -0.3894
  548MOL0     N75538  -1.076   5.446   8.225 -0.0387  0.1881  0.7476
  548MOL0     C75539  -0.050   5.442   7.702  0.7966 -0.1047  0.7895
  548MOL0     C75540   0.070   5.399   7.763 -0.9615 -0.4787  0.1930
  548MOL0     C75541   0.361   5.401   8.128  0.2852 -1.0327  0.9096
  548MOL0     C75542   0.460   5.406   8.028 -0.5497  0.3319 -0.1060
  548MOL0     C75543   0.578   5.454   8.053 -1.0178 -0.8784 -0.4726
  548MOL0     C75544   0.615   5.510   8.177 -0.9877  0.1596  0.6948
  548MOL0     O75545   0.740   5.552   8.209 -0.3041 -0.0960  0.2995
  548MOL0     C75546   0.850   5.528   8.116 -0.0952 -0.6442  0.0244
  548MOL0     C75547   0.899   5.661   8.063 -0.8974 -1.3448 -0.2209
  548MOL0     C75548   0.809   5.713   7.954 -0.4400 -0.4357  0.4811
  548MOL0     C75549   0.831   5.862   7.927  0.6984 -0.4090 -0.7096
  548MOL0     C75550   0.809   5.892   7.785  0.4826  0.7393 -0.2778
  548MOL0     C75551   0.778   5.909   7.665  0.2960  0.0614  0.6474
  548MOL0     C75552   0.520   5.504   8.278  0.6619 -0.4833  0.4311
  548MOL0     C75553   0.391   5.458   8.251  0.8324 -0.4527  0.7734
  548MOL0     C75554   0.285   5.456   8.357 -0.7949 -0.2507  0.4534
  548MOL0     H75555  -0.033   5.414   8.087  4.2286 -2.0417  0.1016
  548MOL0     H75556  -0.239   5.458   7.984 -0.4457  1.1747 -0.3737
  548MOL0     H75557  -0.277   5.335   7.580 -2.8066 -0.2725 -3.6407
  548MOL0     H75558  -0.243   5.499   7.528  1.6008  1.4050  1.9079
  548MOL0     H75559  -0.459   5.555   7.521 -1.1251  0.2192  2.3867
  548MOL0     H75560  -0.481   5.387   7.474 -0.3093  1.7025 -0.8398
  548MOL0     H75561  -0.529   5.512   7.746  0.3768 -2.6127  1.8571
  548MOL0     H75562  -0.643   5.504   7.609  0.9705  1.3349 -2.1599
  548MOL0     H75563  -0.618   5.247   7.621  2.3242 -0.5582 -0.3688
  548MOL0     H75564  -0.510   5.263   7.745  1.8744 -1.0749 -4.2866
  548MOL0     H75565  -0.762   5.215   7.780  2.7607 -1.3330  1.2087
  548MOL0     H75566  -0.796   5.381   7.729 -0.6225  0.5023  0.4562
  548MOL0     H75567  -0.637   5.301   7.983  2.4215  0.7570 -1.2894
  548MOL0     H75568  -0.689   5.465   7.924 -1.4963  0.5202 -1.8554
  548MOL0     H75569  -0.906   5.265   7.987 -2.0303  0.5126 -2.7617
  548MOL0     H75570  -0.919   5.430   7.957  0.3283 -0.3685 -1.0948
  548MOL0     H75571  -0.739   5.375   8.187  1.1662 -0.6149 -1.7576
  548MOL0     H75572  -0.823   5.522   8.125 -0.4479  0.0126  0.2584
  548MOL0     H75573  -0.853   5.238   8.370 -1.1540  0.0656  1.9823
  548MOL0     H75574  -1.098   5.300   8.601 -1.8557  0.8073 -1.0692
  548MOL0     H75575  -1.024   5.148   8.541 -1.9979 -3.9322 -0.3030
  548MOL0     H75576  -1.303   5.245   8.460 -0.8383 -1.0347 -1.3384
  548MOL0     H75577  -1.225   5.097   8.420  4.9866  2.7176 -2.9001
  548MOL0     H75578  -1.373   5.046   8.578  1.3955 -2.3704  0.2262
  548MOL0     H75579  -1.224   5.036   8.679  0.7433  1.7851  2.0482
  548MOL0     H75580  -1.439   5.265   8.668  1.1195  2.2555  0.9503
  548MOL0     H75581  -1.415   5.150   8.792  1.3366  0.1924  1.3166
  548MOL0     H75582  -1.467   5.461   8.748 -2.2547 -0.4828  0.0357
  548MOL0     H75583  -1.687   5.603   8.926 -0.7950  1.4327  0.9121
  548MOL0     H75584  -1.591   5.670   8.792  0.1198 -0.9615  0.3928
  548MOL0     H75585  -1.577   5.751   8.936  0.4230 -1.0788  1.3371
  548MOL0     H75586  -1.770   5.566   9.205 -0.5178 -2.4900  4.1154
  548MOL0     H75587  -1.943   5.590   9.396 -0.5065  1.3228 -0.4171
  548MOL0     H75588  -1.906   5.802   9.721 -2.4584  0.2250  1.2176
  548MOL0     H75589  -1.956   5.955   9.638 -1.5350  0.7758 -0.5279
  548MOL0     H75590  -2.146   5.746   9.726  0.6698  0.5592 -1.2062
  548MOL0     H75591  -2.087   5.867   9.826  0.3894 -3.1780  0.1815
  548MOL0     H75592  -2.209   5.962   9.569 -0.8517  2.7183  0.0154
  548MOL0     H75593  -2.190   6.040   9.725  1.2425 -0.5422  1.3081
  548MOL0     H75594  -2.335   5.832   9.815 -1.5048 -0.1682 -0.1411
  548MOL0     H75595  -2.394   5.838   9.645 -5.7736  2.2712 -0.2290
  548MOL0     H75596  -2.411   6.069   9.824 -0.0810 -0.0442 -1.5715
  548MOL0     H75597  -2.495   6.046   9.673  4.6032  2.7104 -0.3398
  548MOL0     H75598  -2.558   5.897   9.923  0.2105  0.0698  0.3087
  548MOL0     H75599  -2.639   5.853   9.781  1.8380 -2.2946  1.5465
  548MOL0     H75600  -2.643   6.148   9.895  0.0553 -0.9016  2.7290
  548MOL0     H75601  -2.757   6.025   9.936  0.5892 -1.0790 -0.5768
  548MOL0     H75602  -2.746   6.133   9.643 -0.8808  1.3015 -1.2963
  548MOL0     H75603  -2.864   6.163   9.763 -0.2590 -0.5823 -1.8099
  548MOL0     H75604  -1.795   5.990   9.454 -0.6145 -0.1118  0.1778
  548MOL0     H75605  -1.609   5.937   9.322  0.5378 -2.6470  2.9347
  548MOL0     H75606  -1.272   5.477   9.192 -1.7944  2.8429  0.7095
  548MOL0     H75607  -1.163   5.339   9.008  0.0187  0.8338 -0.8940
  548MOL0     H75608  -0.042   5.436   7.594 -1.3637 -0.7600  0.6105
  548MOL0     H75609   0.163   5.382   7.710 -0.4049  0.8665  0.6860
  548MOL0     H75610   0.446   5.362   7.930  0.4975  1.2470 -0.6938
  548MOL0     H75611   0.655   5.426   7.981  1.1168  1.7183  0.6277
  548MOL0     H75612   0.931   5.491   8.179  3.3929  2.6903 -2.0710
  548MOL0     H75613   0.833   5.459   8.032 -0.2810  0.2705 -0.7039
  548MOL0     H75614   0.997   5.656   8.017 -1.2559 -0.9787 -1.0403
  548MOL0     H75615   0.907   5.731   8.146 -4.0596 -3.0436  1.7501
  548MOL0     H75616   0.828   5.661   7.860 -1.6125  0.1165 -0.0791
  548MOL0     H75617   0.704   5.696   7.978 -0.5999 -1.1049 -0.6345
  548MOL0     H75618   0.926   5.896   7.969  0.1228  1.5224 -0.8606
  548MOL0     H75619   0.755   5.909   7.990  1.1743 -0.0774 -0.3689
  548MOL0     H75620   0.754   5.940   7.565  1.3199  0.1679  0.4153
  548MOL0     H75621   0.548   5.547   8.374  1.9067  4.1948 -1.7585
  548MOL0     H75622   0.188   5.487   8.318 -0.7199 -0.1990  0.3037
  548MOL0     H75623   0.271   5.361   8.409  2.8175 -1.0706  0.1879
  548MOL0     H75624   0.309   5.537   8.426  3.1927 -2.2074  1.6531
  549MOL0     O75625   1.060   3.064   2.834  0.4971  0.7197 -0.6038
  549MOL0     C75626   1.018   3.077   2.721  0.3066  0.2497 -0.7170
  549MOL0     O75627   0.901   3.039   2.677 -0.7057  0.4289 -0.3663
  549MOL0     C75628   0.830   2.924   2.721 -0.8872 -0.4458  0.2153
  549MOL0     C75629   0.712   2.892   2.652 -0.2952  0.0805  0.4956
  549MOL0     C75630   0.629   2.781   2.678 -0.9174 -0.2814  0.2908
  549MOL0     C75631   0.661   2.695   2.781 -0.5208 -0.6720  0.3127
  549MOL0     O75632   0.603   2.570   2.819  0.2913  0.1215 -0.5282
  549MOL0     C75633   0.470   2.556   2.839  0.5031 -0.2505 -0.2371
  549MOL0     C75634   0.429   2.581   2.980  0.4267  0.0210  1.0835
  549MOL0     C75635   0.284   2.590   2.981  1.2452  0.3752 -0.6860
  549MOL0     C75636   0.237   2.621   3.125  0.1257 -0.7159  0.2331
  549MOL0     C75637   0.089   2.614   3.135 -0.0034  1.1985 -0.4361
  549MOL0     C75638   0.032   2.698   3.246 -0.6996  0.3740  0.0347
  549MOL0     C75639   0.017   2.843   3.198  0.9004  0.3929  0.5810
  549MOL0     C75640  -0.130   2.878   3.193  0.1463  0.0341  0.1393
  549MOL0     N75641  -0.187   2.817   3.072  0.0587 -0.6075 -0.0320
  549MOL0     C75642  -0.165   2.858   2.945 -0.5015 -0.8630  0.5511
  549MOL0     C75643  -0.250   2.781   2.860 -0.0588  0.4569 -0.1043
  549MOL0     C75644  -0.279   2.782   2.711  0.6737 -0.5657 -0.4427
  549MOL0     C75645  -0.255   2.649   2.640 -0.6524 -0.4857  0.7449
  549MOL0     C75646  -0.297   2.671   2.491 -0.4146  0.6749 -0.1062
  549MOL0     C75647  -0.272   2.554   2.407  1.1153 -0.1316 -0.3861
  549MOL0     O75648  -0.299   2.580   2.268  0.1179  0.2532 -0.3905
  549MOL0     C75649  -0.221   2.520   2.173 -1.4373 -0.1303  0.4946
  549MOL0     C75650  -0.135   2.404   2.194  0.2427  1.0647 -0.1481
  549MOL0     C75651  -0.058   2.350   2.089  1.1256 -0.5380  0.2589
  549MOL0     C75652   0.034   2.244   2.115  0.3009  0.6888  0.0272
  549MOL0     C75653  -0.061   2.417   1.958  0.1644  0.1951  0.2483
  549MOL0     C75654   0.020   2.362   1.836  0.9626  0.9708 -0.1946
  549MOL0     O75655   0.019   2.458   1.732 -0.1931  0.1171  0.2041
  549MOL0     C75656   0.127   2.458   1.651 -0.0804  0.6360 -0.2910
  549MOL0     C75657   0.114   2.506   1.521 -0.8733 -0.4559  1.3428
  549MOL0     C75658   0.224   2.527   1.431  1.1167  0.2426 -0.3996
  549MOL0     C75659   0.358   2.502   1.483  0.9053  0.4588 -0.4370
  549MOL0     O75660   0.467   2.539   1.402  0.3918  0.8578 -0.1883
  549MOL0     C75661   0.567   2.442   1.385  0.6995 -0.0581 -0.1703
  549MOL0     C75662   0.518   2.323   1.300  0.2744 -0.0040  0.6352
  549MOL0     C75663   0.488   2.371   1.167  0.1528  0.8624  0.0679
  549MOL0     C75664   0.437   2.258   1.067 -0.1374  0.6535 -0.5541
  549MOL0     C75665   0.283   2.251   1.071  0.8040 -0.2130  0.3520
  549MOL0     C75666   0.228   2.113   1.017  0.0095  0.4198 -0.5561
  549MOL0     C75667   0.237   1.999   1.115  1.8262  0.3044  0.2809
  549MOL0     C75668   0.102   1.925   1.142 -0.4848  0.2015 -0.4944
  549MOL0    Cl75669   0.028   1.862   0.989 -0.4123 -0.0169 -0.1008
  549MOL0     C75670   0.376   2.462   1.615  0.6953 -0.2233 -0.7656
  549MOL0     C75671   0.262   2.437   1.700  0.3008  0.5245 -0.5190
  549MOL0     O75672   0.077   2.253   1.840  0.2451 -0.1000 -0.3656
  549MOL0     C75673  -0.136   2.539   1.946 -1.2005 -0.1941  0.2994
  549MOL0     C75674  -0.209   2.587   2.054  0.6422 -0.5150 -0.7248
  549MOL0     N75675  -0.314   2.689   2.942 -0.8993 -0.9463  0.5932
  549MOL0     N75676  -0.273   2.713   3.062 -0.5164  0.1833 -0.8618
  549MOL0     C75677   0.790   2.725   2.844  0.1843  0.6314 -0.8796
  549MOL0     C75678   0.864   2.841   2.831  0.6659 -0.3895  0.4024
  549MOL0     C75679   1.088   3.173   2.624  0.2777  0.0440 -0.5403
  549MOL0     C75680   1.018   3.225   2.515  0.0906  0.3169  0.5231
  549MOL0     C75681   1.087   3.305   2.425  0.1886 -0.1683 -0.2897
  549MOL0     C75682   1.216   3.338   2.443 -0.2819 -0.4051 -0.0657
  549MOL0     O75683   1.287   3.423   2.362  0.8397 -0.6948 -0.0679
  549MOL0     C75684   1.229   3.547   2.305 -0.4630 -0.0563 -0.4507
  549MOL0     C75685   1.198   3.644   2.417  0.0744 -0.2181  0.1439
  549MOL0     C75686   1.326   3.669   2.498  0.2525  1.2852 -0.4490
  549MOL0     C75687   1.420   3.764   2.440 -0.2237 -0.9149 -0.4892
  549MOL0     C75688   1.362   3.900   2.431  0.1792  0.4490  0.8084
  549MOL0     C75689   1.316   4.015   2.443  0.4791 -0.2037  0.1623
  549MOL0     C75690   1.277   3.310   2.558 -1.1180  0.0199  0.4965
  549MOL0     C75691   1.226   3.222   2.647  0.4553 -0.0991 -0.6587
  549MOL0     C75692   1.325   3.174   2.759 -0.2831 -0.3110 -1.0421
  549MOL0     H75693   0.683   2.956   2.570  0.3345 -1.3136 -0.8586
  549MOL0     H75694   0.535   2.761   2.627 -2.2814 -1.8291  3.1387
  549MOL0     H75695   0.444   2.454   2.809  1.1452  0.0402 -1.9117
  549MOL0     H75696   0.412   2.626   2.779 -1.9747 -3.3632 -1.7609
  549MOL0     H75697   0.464   2.502   3.047 -1.8926 -2.9781 -0.9660
  549MOL0     H75698   0.456   2.685   3.003 -0.7083  1.1200 -2.0430
  549MOL0     H75699   0.249   2.664   2.909  3.5140  0.2826 -1.9805
  549MOL0     H75700   0.247   2.488   2.965  1.3584  0.0619  0.8589
  549MOL0     H75701   0.277   2.541   3.188 -2.1646 -2.7537 -0.7694
  549MOL0     H75702   0.272   2.720   3.157 -2.9031  1.2984 -2.1057
  549MOL0     H75703   0.055   2.510   3.144 -0.0630  1.2463 -0.0676
  549MOL0     H75704   0.048   2.647   3.039  2.5347  1.3849 -1.5231
  549MOL0     H75705  -0.059   2.657   3.292 -0.3879  0.2846  0.5774
  549MOL0     H75706   0.089   2.701   3.339 -0.1356 -1.9408 -0.1653
  549MOL0     H75707   0.064   2.870   3.103  0.4775  1.1664  0.5833
  549MOL0     H75708   0.069   2.907   3.270  1.4704 -1.5640  2.0111
  549MOL0     H75709  -0.192   2.851   3.280 -2.4537 -2.7351 -2.3378
  549MOL0     H75710  -0.139   2.987   3.185 -1.0150 -0.0823 -0.3144
  549MOL0     H75711  -0.094   2.936   2.921 -0.7098  0.3124  3.3406
  549MOL0     H75712  -0.247   2.871   2.655 -1.0045  0.8429  0.6990
  549MOL0     H75713  -0.386   2.796   2.694  0.7653 -0.7990 -1.2256
  549MOL0     H75714  -0.148   2.629   2.657 -0.0778  0.4816 -1.4567
  549MOL0     H75715  -0.319   2.573   2.685 -0.1877 -2.6045 -1.9674
  549MOL0     H75716  -0.407   2.676   2.493 -0.6483 -2.4420 -1.0162
  549MOL0     H75717  -0.245   2.747   2.432  0.0303 -1.9561 -3.3778
  549MOL0     H75718  -0.169   2.520   2.422  0.5045 -2.2846 -0.7797
  549MOL0     H75719  -0.335   2.468   2.433  0.1638  1.2239  2.1622
  549MOL0     H75720  -0.117   2.355   2.289  1.9935 -1.3954 -1.6428
  549MOL0     H75721   0.011   2.145   2.073  0.3852  2.0128 -3.4622
  549MOL0     H75722   0.060   2.242   2.221 -0.6927 -0.7672  0.2777
  549MOL0     H75723   0.132   2.270   2.075  0.3438  0.9662  0.3158
  549MOL0     H75724   0.011   2.534   1.500 -0.8359 -0.4059  1.2307
  549MOL0     H75725   0.208   2.569   1.332  2.3588 -3.0374 -2.1685
  549MOL0     H75726   0.663   2.483   1.353  1.2255 -1.6813 -0.7858
  549MOL0     H75727   0.582   2.397   1.484 -1.9764  2.5578  1.6147
  549MOL0     H75728   0.595   2.246   1.306 -2.0573 -2.4054  2.3294
  549MOL0     H75729   0.425   2.280   1.338  0.1321 -0.0844  0.1948
  549MOL0     H75730   0.587   2.397   1.128 -0.0595  3.4605  1.0785
  549MOL0     H75731   0.423   2.456   1.191 -0.3013  0.6978 -0.5631
  549MOL0     H75732   0.470   2.156   1.089  0.8969  1.0807 -0.0135
  549MOL0     H75733   0.467   2.275   0.963 -4.5084  4.0040 -1.5749
  549MOL0     H75734   0.244   2.272   1.171  0.2004  0.3781 -0.0034
  549MOL0     H75735   0.267   2.338   1.006  4.8255  0.7392  0.3406
  549MOL0     H75736   0.270   2.080   0.922  0.7952 -0.9818  0.2563
  549MOL0     H75737   0.119   2.123   1.007 -0.0737  0.4560  0.3587
  549MOL0     H75738   0.280   2.044   1.205  3.2044 -0.3518 -0.0185
  549MOL0     H75739   0.309   1.925   1.079  2.9195  1.2896  0.4083
  549MOL0     H75740   0.037   1.990   1.201 -0.5115  0.7304 -1.1041
  549MOL0     H75741   0.133   1.839   1.203  6.4108  1.6548 -1.1133
  549MOL0     H75742   0.477   2.436   1.645  0.2889 -3.6249 -1.8929
  549MOL0     H75743   0.300   2.398   1.794  3.1268 -3.0408 -2.9247
  549MOL0     H75744  -0.140   2.602   1.858  0.3914 -0.6258 -0.1111
  549MOL0     H75745  -0.275   2.672   2.038 -0.8290 -0.7801  3.0619
  549MOL0     H75746   0.817   2.647   2.914 -1.9062  0.3388 -0.3171
  549MOL0     H75747   0.949   2.849   2.898 -1.3407 -2.5860  3.4635
  549MOL0     H75748   0.914   3.196   2.507 -0.5866  1.8252  2.8652
  549MOL0     H75749   1.035   3.338   2.336  0.5043 -0.8198 -0.7188
  549MOL0     H75750   1.298   3.581   2.227 -1.8477  1.9890 -0.8549
  549MOL0     H75751   1.130   3.516   2.271 -0.3718 -0.1928 -0.5918
  549MOL0     H75752   1.124   3.597   2.482  0.0554  0.8878  0.9571
  549MOL0     H75753   1.155   3.737   2.377  1.5463  0.0850 -0.8314
  549MOL0     H75754   1.299   3.696   2.600 -2.2691  1.3490 -1.0668
  549MOL0     H75755   1.382   3.577   2.514 -0.7038  1.0827  2.1684
  549MOL0     H75756   1.460   3.729   2.344  1.3090  1.8564 -0.9503
  549MOL0     H75757   1.503   3.770   2.511 -0.7410 -0.3620  0.0785
  549MOL0     H75758   1.263   4.106   2.466  2.8634  0.8785  1.8588
  549MOL0     H75759   1.373   3.357   2.574 -0.3558 -0.7684 -1.4191
  549MOL0     H75760   1.363   3.072   2.743  0.2524 -1.2167  4.1197
  549MOL0     H75761   1.404   3.245   2.783 -3.4772  3.2323  0.0651
  549MOL0     H75762   1.267   3.154   2.850  0.2210  2.6282  0.0158
  550MOL0     O75763   2.195   0.461   5.455  0.3162  0.2417 -0.3569
  550MOL0     C75764   2.240   0.401   5.355 -0.4066 -0.1044 -1.2682
  550MOL0     O75765   2.349   0.447   5.272  0.5065 -0.8683  0.0545
  550MOL0     C75766   2.438   0.534   5.328  0.3290  0.3900  1.5096
  550MOL0     C75767   2.543   0.490   5.401  0.8961  0.8080 -0.3288
  550MOL0     C75768   2.638   0.580   5.455  0.3854 -0.5368  0.1129
  550MOL0     C75769   2.625   0.716   5.418  0.2879 -0.6203 -0.5775
  550MOL0     O75770   2.733   0.793   5.457 -1.4321  0.6517  0.2163
  550MOL0     C75771   2.714   0.929   5.481 -0.6016  0.5371 -0.2084
  550MOL0     C75772   2.752   1.007   5.354 -0.3342  0.3288  0.0732
  550MOL0     C75773   2.729   1.158   5.348 -0.2493 -0.1270  1.1473
  550MOL0     C75774   2.768   1.231   5.469 -0.4180  1.1140 -0.2458
  550MOL0     C75775   2.742   1.381   5.455 -0.9008  0.4812  0.0599
  550MOL0     C75776   2.859   1.446   5.388 -0.3610 -0.4990  0.2841
  550MOL0     C75777   2.850   1.597   5.387 -0.3302 -0.2109  0.2373
  550MOL0     C75778   2.975   1.667   5.321 -1.1784 -0.8679  0.9134
  550MOL0     N75779   3.085   1.679   5.422  0.4745 -0.4097  0.4937
  550MOL0     C75780   3.107   1.797   5.476 -0.4327 -0.5645 -0.4033
  550MOL0     C75781   3.224   1.778   5.539  0.9872  0.6507  0.1019
  550MOL0     C75782   3.300   1.873   5.624  0.6893  0.4104 -0.5125
  550MOL0     C75783   3.318   2.006   5.550  0.0469 -0.6058  0.1181
  550MOL0     C75784   3.428   2.079   5.614  0.1627 -0.2299 -0.1224
  550MOL0     C75785   3.421   2.100   5.768 -0.0687  0.0881 -0.2519
  550MOL0     O75786   3.518   2.193   5.808 -1.0979 -0.2841 -0.9959
  550MOL0     C75787   3.648   2.145   5.815 -0.8997  0.1389  0.5068
  550MOL0     C75788   3.691   2.009   5.810  0.2258 -0.3661  1.2779
  550MOL0     C75789   3.833   1.983   5.799  0.3719 -0.1766  0.6582
  550MOL0     C75790   3.880   1.848   5.810  0.2466 -0.3641  0.1057
  550MOL0     C75791   3.928   2.090   5.788  0.2530 -0.3777  0.3619
  550MOL0     C75792   4.073   2.063   5.772  0.1352  1.0038 -0.5558
  550MOL0     O75793   4.114   1.971   5.679  0.2962  0.3176 -0.3771
  550MOL0     C75794   4.242   1.938   5.651  0.2127  0.4973 -0.8223
  550MOL0     C75795   4.306   1.985   5.541 -0.8669  0.1280 -0.2301
  550MOL0     C75796   4.426   1.924   5.497  0.6500 -0.0708 -0.5248
  550MOL0     C75797   4.474   1.814   5.562 -0.1859  0.4003  0.2051
  550MOL0     O75798   4.592   1.746   5.528 -0.5505  0.5695  0.4525
  550MOL0     C75799   4.701   1.845   5.519  0.4241 -0.3949  0.7048
  550MOL0     C75800   4.834   1.759   5.492  0.0037  0.0833 -0.4272
  550MOL0     C75801   4.867   1.665   5.609 -0.9706 -0.3109  0.0946
  550MOL0     C75802   5.017   1.682   5.659  1.4257 -0.5103  0.2686
  550MOL0     C75803   5.028   1.610   5.803  0.2447 -1.0698 -0.0055
  550MOL0     C75804   4.962   1.693   5.914 -0.0081  0.3157  0.6320
  550MOL0     C75805   5.024   1.665   6.060  1.1511 -0.1961  0.2000
  550MOL0     C75806   5.160   1.741   6.067  0.5836  0.0906  0.3542
  550MOL0    Cl75807   5.272   1.666   6.184  0.3194 -0.2156 -0.1716
  550MOL0     C75808   4.407   1.764   5.674 -0.3254 -0.1006  0.3643
  550MOL0     C75809   4.286   1.822   5.720  0.2442  0.2729  0.7460
  550MOL0     O75810   4.145   2.120   5.846 -0.7250 -0.0415 -0.0398
  550MOL0     C75811   3.883   2.212   5.790  0.2247 -0.1634  0.3471
  550MOL0     C75812   3.746   2.239   5.799  0.6057  0.8474  0.6764
  550MOL0     N75813   3.255   1.648   5.533 -0.5187  0.8053  0.4816
  550MOL0     N75814   3.174   1.583   5.465  0.1866  0.7590  0.5031
  550MOL0     C75815   2.514   0.758   5.350 -0.1655 -0.3809  0.5873
  550MOL0     C75816   2.422   0.665   5.300  0.7251 -0.8272  0.1414
  550MOL0     C75817   2.173   0.279   5.318  0.2858  0.1946 -0.6769
  550MOL0     C75818   2.255   0.174   5.261  0.4148 -0.9924 -0.2030
  550MOL0     C75819   2.195   0.053   5.219 -0.3626  0.6705 -0.8844
  550MOL0     C75820   2.059   0.029   5.248 -0.0346  0.0785  0.5715
  550MOL0     O75821   2.001  -0.096   5.247 -0.8375  0.3473 -0.6918
  550MOL0     C75822   1.897  -0.137   5.346 -1.1597 -0.4823  0.7349
  550MOL0     C75823   1.926  -0.290   5.369  0.3786  0.8759 -0.3092
  550MOL0     C75824   2.052  -0.310   5.452 -0.5625  0.5769 -0.4270
  550MOL0     C75825   2.096  -0.460   5.431  0.7247 -0.3084 -0.4204
  550MOL0     C75826   2.030  -0.559   5.518  0.1580 -0.8322 -1.2514
  550MOL0     C75827   1.977  -0.634   5.604  0.9669  0.1045  0.1028
  550MOL0     C75828   1.978   0.132   5.302 -0.2134 -0.1370  0.0521
  550MOL0     C75829   2.026   0.256   5.327 -0.1995  0.1976 -0.2890
  550MOL0     C75830   1.936   0.360   5.390 -0.7183 -0.7907 -0.4195
  550MOL0     H75831   2.561   0.387   5.431  2.3453  0.8943 -0.8110
  550MOL0     H75832   2.720   0.554   5.521  0.4203  1.2687  0.8379
  550MOL0     H75833   2.784   0.944   5.565  0.7636 -3.4175 -0.3827
  550MOL0     H75834   2.612   0.940   5.517 -0.0872  0.9316  1.2072
  550MOL0     H75835   2.860   0.990   5.350 -0.0773  1.3643  1.5915
  550MOL0     H75836   2.706   0.956   5.270  3.9429 -2.1607 -1.0438
  550MOL0     H75837   2.793   1.196   5.267 -1.5204  3.5800  1.6832
  550MOL0     H75838   2.622   1.169   5.330 -0.2217 -2.0969 -0.6275
  550MOL0     H75839   2.700   1.185   5.541 -0.9395 -0.0386 -1.4309
  550MOL0     H75840   2.870   1.196   5.488  1.3675  3.9227 -3.3411
  550MOL0     H75841   2.735   1.418   5.558 -1.5371 -2.2286  1.0723
  550MOL0     H75842   2.648   1.395   5.401 -0.6476  0.2100 -0.4544
  550MOL0     H75843   2.947   1.408   5.440 -0.6654  0.7170  1.7432
  550MOL0     H75844   2.871   1.399   5.290  4.5153 -2.3077  1.4622
  550MOL0     H75845   2.824   1.623   5.490  2.0128  1.0415  0.5899
  550MOL0     H75846   2.774   1.632   5.318 -1.2060 -0.2064  1.1789
  550MOL0     H75847   3.019   1.605   5.241  0.7710  0.5995  0.7752
  550MOL0     H75848   2.957   1.768   5.282  3.7483 -0.3575 -0.8403
  550MOL0     H75849   3.060   1.894   5.462  1.6739  0.6738  0.5140
  550MOL0     H75850   3.391   1.819   5.650 -0.1192  0.7670  3.8586
  550MOL0     H75851   3.236   1.885   5.712  2.1049  0.8484  0.4956
  550MOL0     H75852   3.358   1.993   5.449 -0.8143  1.7741 -0.6107
  550MOL0     H75853   3.227   2.066   5.559  0.5396 -0.1337  3.4703
  550MOL0     H75854   3.523   2.033   5.585  1.3321  2.7681 -1.4311
  550MOL0     H75855   3.432   2.176   5.565 -0.3706  0.4103  1.0630
  550MOL0     H75856   3.326   2.133   5.810 -0.1904 -2.6414  1.8868
  550MOL0     H75857   3.443   2.004   5.816  3.5897  0.8153 -0.1810
  550MOL0     H75858   3.620   1.927   5.813  0.0046 -0.6205 -3.7027
  550MOL0     H75859   3.945   1.836   5.723  0.9234 -1.6996  0.7533
  550MOL0     H75860   3.802   1.773   5.793  1.2143 -1.1317 -1.1507
  550MOL0     H75861   3.928   1.827   5.907  0.1140  2.9545  1.0211
  550MOL0     H75862   4.259   2.064   5.485 -0.2668  0.3800 -0.3835
  550MOL0     H75863   4.465   1.962   5.403 -0.3571 -0.6644 -1.2082
  550MOL0     H75864   4.680   1.911   5.434  0.3406  2.6761  2.9740
  550MOL0     H75865   4.715   1.918   5.599  0.9414  1.3788 -0.9331
  550MOL0     H75866   4.823   1.708   5.396 -4.2750  1.0760 -0.6720
  550MOL0     H75867   4.915   1.831   5.483  1.6246 -1.4033  1.5125
  550MOL0     H75868   4.862   1.564   5.567  0.6929  0.3855 -1.9554
  550MOL0     H75869   4.793   1.682   5.688  1.3377  1.1387  2.1100
  550MOL0     H75870   5.036   1.789   5.675 -0.3564 -0.2829  1.1814
  550MOL0     H75871   5.100   1.650   5.595  0.6563 -0.4970 -0.7502
  550MOL0     H75872   4.993   1.507   5.805 -0.8299 -0.7231 -0.7400
  550MOL0     H75873   5.135   1.611   5.827  0.7652  6.0569 -0.5011
  550MOL0     H75874   4.854   1.682   5.916  0.0108  0.1932  1.3704
  550MOL0     H75875   4.982   1.795   5.880 -1.7390  1.1229  1.8892
  550MOL0     H75876   5.024   1.556   6.073 -0.8397 -0.1236  1.3012
  550MOL0     H75877   4.962   1.709   6.139 -1.1661 -1.9844 -0.4942
  550MOL0     H75878   5.133   1.846   6.084  2.6783  0.5446  1.2839
  550MOL0     H75879   5.216   1.741   5.973  0.0895 -2.0410  0.0063
  550MOL0     H75880   4.438   1.676   5.731  1.9995  1.1352  1.1387
  550MOL0     H75881   4.221   1.784   5.798 -2.6871  1.6606 -0.8665
  550MOL0     H75882   3.953   2.294   5.776 -0.6113  2.0253  6.1107
  550MOL0     H75883   3.715   2.342   5.789  0.4895  0.7687  0.1823
  550MOL0     H75884   2.513   0.861   5.317  0.5888 -0.9223 -1.2997
  550MOL0     H75885   2.346   0.709   5.236 -0.3998 -0.0998  1.9244
  550MOL0     H75886   2.358   0.203   5.250  0.3034  1.0614  2.9127
  550MOL0     H75887   2.245  -0.028   5.167 -0.4129  0.1805 -0.1816
  550MOL0     H75888   1.917  -0.072   5.432  0.7837  1.3170 -0.9890
  550MOL0     H75889   1.796  -0.114   5.310 -1.4536 -0.7432  1.3692
  550MOL0     H75890   1.944  -0.337   5.272 -0.2908  1.7986 -0.8920
  550MOL0     H75891   1.844  -0.339   5.423  1.6102 -1.0133 -0.0814
  550MOL0     H75892   2.132  -0.244   5.417  1.5367 -0.4896  2.0174
  550MOL0     H75893   2.045  -0.294   5.560  1.9967  1.7067 -0.3533
  550MOL0     H75894   2.204  -0.466   5.448  1.1291  0.4180 -2.4952
  550MOL0     H75895   2.086  -0.494   5.328 -1.4090  2.2191 -1.1483
  550MOL0     H75896   1.919  -0.690   5.675  1.0105 -0.8130 -0.5711
  550MOL0     H75897   1.871   0.116   5.310 -0.4829  1.7216  0.6926
  550MOL0     H75898   1.968   0.389   5.491  0.4299  0.4210 -1.0975
  550MOL0     H75899   1.923   0.452   5.332 -2.7101 -0.7886 -0.0392
  550MOL0     H75900   1.835   0.322   5.407 -0.1891 -1.5173  1.3500
  551MOL0     O75901   1.945   1.356  10.758 -0.6942 -0.2411  0.3541
  551MOL0     C75902   2.060   1.379  10.719 -0.2711 -1.1057  0.2472
  551MOL0     O75903   2.127   1.483  10.760  0.1775  0.3531 -0.2014
  551MOL0     C75904   2.066   1.561  10.854  0.4524  0.1597 -0.4998
  551MOL0     C75905   1.971   1.662  10.822 -0.3906  0.4033 -1.0899
  551MOL0     C75906   1.914   1.731  10.935  0.8557  0.0443  0.4646
  551MOL0     C75907   1.962   1.724  11.064 -0.2308  0.6165 -1.1765
  551MOL0     O75908   1.902   1.804  11.161  0.1052 -0.0259 -0.1366
  551MOL0     C75909   1.963   1.918  11.220 -0.4187 -0.5172  0.8057
  551MOL0     C75910   1.876   2.035  11.186  0.6730 -0.3126  0.4336
  551MOL0     C75911   1.943   2.172  11.225 -0.2045  0.5732 -0.4600
  551MOL0     C75912   1.850   2.276  11.167 -0.2545  0.0562 -0.3903
  551MOL0     C75913   1.897   2.427  11.189 -0.5688 -0.4465 -0.1162
  551MOL0     C75914   1.797   2.531  11.125  0.0525 -1.4074  0.6202
  551MOL0     C75915   1.654   2.536  11.180  0.4220 -0.4134  0.8271
  551MOL0     C75916   1.574   2.638  11.097  0.4508 -0.3639 -0.1825
  551MOL0     N75917   1.645   2.768  11.088  0.6447 -0.5799  0.1100
  551MOL0     C75918   1.684   2.838  11.194  0.0587 -0.7160 -0.0239
  551MOL0     C75919   1.744   2.946  11.142  0.2363  0.4318 -0.1788
  551MOL0     C75920   1.798   3.064  11.223  0.6940 -0.5080 -0.4183
  551MOL0     C75921   1.764   3.204  11.167 -0.5378 -1.1239  0.4461
  551MOL0     C75922   1.853   3.314  11.241 -0.0159 -0.1899  0.6114
  551MOL0     C75923   1.846   3.465  11.211  0.3569  0.0442 -0.1988
  551MOL0     O75924   1.913   3.532  11.302  0.0519 -1.0297  0.4979
  551MOL0     C75925   1.911   3.671  11.299 -0.0906  0.8037  0.4006
  551MOL0     C75926   1.989   3.728  11.401 -1.0650  0.4861 -0.7682
  551MOL0     C75927   2.009   3.864  11.414  0.2351 -0.1082  0.1861
  551MOL0     C75928   2.116   3.910  11.517  0.2824 -0.2253  0.0721
  551MOL0     C75929   1.946   3.955  11.319 -0.5165  0.9906 -0.4065
  551MOL0     C75930   1.948   4.104  11.313 -0.0389  0.2891 -0.3945
  551MOL0     O75931   1.973   4.169  11.429 -0.0626  0.5805 -0.4410
  551MOL0     C75932   1.930   4.294  11.454 -0.2830 -0.9792  0.4582
  551MOL0     C75933   1.871   4.385  11.357 -0.5897  0.9219 -0.4850
  551MOL0     C75934   1.822   4.502  11.388  0.4919 -0.4177 -0.6137
  551MOL0     C75935   1.832   4.548  11.523 -0.7945  0.0561 -0.4992
  551MOL0     O75936   1.773   4.670  11.557 -0.2607 -0.6721  0.4951
  551MOL0     C75937   1.835   4.734  11.664 -0.1264 -0.1353 -0.7325
  551MOL0     C75938   1.813   4.882  11.660  0.8500  0.4543 -0.4880
  551MOL0     C75939   1.874   4.950  11.789 -0.6232 -0.3027  0.1441
  551MOL0     C75940   1.943   5.088  11.783  1.3942 -0.3346  0.6295
  551MOL0     C75941   1.857   5.198  11.734 -0.3459 -0.2732  0.8143
  551MOL0     C75942   1.740   5.237  11.828 -0.5461 -0.9182  0.1221
  551MOL0     C75943   1.691   5.381  11.783 -0.0454  0.2935  0.2222
  551MOL0     C75944   1.555   5.410  11.851 -0.5066 -0.2826  0.2319
  551MOL0    Cl75945   1.586   5.434  12.026 -0.0375  0.1131  0.1255
  551MOL0     C75946   1.883   4.462  11.614  0.5240  0.1994 -0.6829
  551MOL0     C75947   1.935   4.338  11.588 -0.0270 -0.3719  0.6324
  551MOL0     O75948   1.944   4.157  11.205 -0.4564 -0.5030 -0.4158
  551MOL0     C75949   1.864   3.893  11.217  0.2866 -0.0149  0.4830
  551MOL0     C75950   1.836   3.751  11.214 -0.3998 -0.9468  0.2340
  551MOL0     N75951   1.739   2.941  11.000  0.2790  0.7186  0.0769
  551MOL0     N75952   1.685   2.822  10.964  0.7982 -1.1030  0.3574
  551MOL0     C75953   2.065   1.639  11.087 -0.4237 -0.1687 -0.7792
  551MOL0     C75954   2.114   1.555  10.992 -0.2280 -1.1541 -0.4261
  551MOL0     C75955   2.120   1.283  10.608 -0.5235  0.2634  0.1855
  551MOL0     C75956   2.031   1.204  10.536 -0.2045  1.2941  0.0831
  551MOL0     C75957   2.081   1.129  10.429 -1.2327  0.1972 -0.4474
  551MOL0     C75958   2.209   1.128  10.384 -0.4059  0.1608 -0.0764
  551MOL0     O75959   2.242   1.042  10.281 -0.5318  0.1122 -0.7759
  551MOL0     C75960   2.377   1.038  10.229  0.0897 -0.5996  0.2795
  551MOL0     C75961   2.384   0.980  10.087  0.7633 -0.2670  0.3703
  551MOL0     C75962   2.309   1.066   9.979 -0.0801 -0.0239  0.1027
  551MOL0     C75963   2.298   0.996   9.846  0.7979 -0.2835 -0.8684
  551MOL0     C75964   2.204   0.883   9.864  0.3254 -0.8179  0.7307
  551MOL0     C75965   2.125   0.793   9.861 -0.0101  0.2158 -1.8460
  551MOL0     C75966   2.293   1.211  10.447  0.0513 -0.3611  0.1729
  551MOL0     C75967   2.256   1.283  10.563  0.7187 -0.4851  0.1849
  551MOL0     C75968   2.356   1.366  10.634  1.2346 -1.1295  0.6946
  551MOL0     H75969   1.931   1.669  10.721 -2.9635 -3.3479 -0.5336
  551MOL0     H75970   1.829   1.797  10.919 -1.2578 -2.4942  0.5128
  551MOL0     H75971   2.052   1.944  11.161 -3.1525  1.1836 -2.9821
  551MOL0     H75972   1.996   1.906  11.324  1.0186  0.4661  0.4938
  551MOL0     H75973   1.863   2.033  11.078 -1.2161 -0.6040  0.6298
  551MOL0     H75974   1.776   2.024  11.229 -0.7996  1.2007 -2.4050
  551MOL0     H75975   1.953   2.192  11.332  0.6562  1.3531 -0.6775
  551MOL0     H75976   2.038   2.194  11.176  0.6304 -0.6076  0.5910
  551MOL0     H75977   1.841   2.277  11.058 -0.2698  0.0155 -0.3896
  551MOL0     H75978   1.753   2.264  11.216 -0.7180 -1.7021 -1.6683
  551MOL0     H75979   1.998   2.433  11.147 -1.5967 -0.4618 -2.7740
  551MOL0     H75980   1.912   2.448  11.296  2.1665 -2.9008  0.1011
  551MOL0     H75981   1.847   2.621  11.162  2.3648 -1.4687 -1.9461
  551MOL0     H75982   1.793   2.533  11.015  1.4338  1.2827  0.5298
  551MOL0     H75983   1.676   2.569  11.282  2.4619  1.3904 -0.1194
  551MOL0     H75984   1.611   2.435  11.177  4.6043 -2.4039  1.5540
  551MOL0     H75985   1.550   2.592  11.001  1.1254  1.2662 -1.1797
  551MOL0     H75986   1.480   2.658  11.151  1.0510  3.0949 -0.1657
  551MOL0     H75987   1.673   2.822  11.301 -0.3031 -0.7199 -0.0630
  551MOL0     H75988   1.903   3.038  11.244  1.1243  2.0570  0.9910
  551MOL0     H75989   1.758   3.065  11.324  0.7223  0.5123 -0.4055
  551MOL0     H75990   1.782   3.191  11.060  2.7132  2.8715  0.2799
  551MOL0     H75991   1.658   3.232  11.164 -0.5541 -0.5068 -5.0705
  551MOL0     H75992   1.825   3.312  11.347 -0.0574 -1.3748  0.5888
  551MOL0     H75993   1.958   3.285  11.235 -0.4260 -1.9115  1.0482
  551MOL0     H75994   1.895   3.489  11.116  2.6300 -0.4904  0.7621
  551MOL0     H75995   1.740   3.489  11.204  0.2676 -0.6654 -1.6482
  551MOL0     H75996   2.035   3.661  11.473 -2.6879 -0.5773 -0.6923
  551MOL0     H75997   2.079   3.918  11.620 -1.2628 -1.1049 -0.3843
  551MOL0     H75998   2.144   4.002  11.466  1.7699 -1.0342 -0.6487
  551MOL0     H75999   2.201   3.841  11.516 -1.8884 -3.0843  0.1616
  551MOL0     H76000   1.843   4.361  11.255  0.2603 -0.7125 -0.3683
  551MOL0     H76001   1.781   4.574  11.318  1.6005  3.4097  2.3297
  551MOL0     H76002   1.788   4.691  11.753 -1.4563  4.0627  0.8419
  551MOL0     H76003   1.941   4.710  11.675 -0.3711 -1.3252 -0.8183
  551MOL0     H76004   1.851   4.935  11.572 -2.3727  4.4398  0.1957
  551MOL0     H76005   1.706   4.905  11.651  0.7280 -0.8324 -4.2443
  551MOL0     H76006   1.956   4.881  11.812 -0.3228  0.2168  0.6450
  551MOL0     H76007   1.811   4.939  11.879  0.4857  1.1615  1.1369
  551MOL0     H76008   2.032   5.074  11.721  1.1264 -1.0069  0.3703
  551MOL0     H76009   1.972   5.124  11.882 -4.1505  0.0349  2.4668
  551MOL0     H76010   1.923   5.285  11.724 -0.2152 -0.0217  3.3359
  551MOL0     H76011   1.814   5.171  11.637 -2.9878 -2.2894  2.4320
  551MOL0     H76012   1.764   5.243  11.935  0.4426 -1.4585 -0.0519
  551MOL0     H76013   1.659   5.164  11.823 -0.0601 -1.5119  0.6127
  551MOL0     H76014   1.668   5.396  11.678  1.3398 -1.2562 -0.3526
  551MOL0     H76015   1.748   5.465  11.823 -0.9748  1.7364 -1.3772
  551MOL0     H76016   1.487   5.329  11.824  1.3006 -3.2997  3.7606
  551MOL0     H76017   1.515   5.507  11.819 -0.9085  0.2172  2.1211
  551MOL0     H76018   1.879   4.480  11.721 -3.3020 -2.1177 -0.2391
  551MOL0     H76019   1.980   4.273  11.662  1.6284  0.1762  0.1469
  551MOL0     H76020   1.805   3.957  11.152  1.5096  0.6362 -0.0080
  551MOL0     H76021   1.773   3.704  11.140 -1.4275 -0.4594  0.7724
  551MOL0     H76022   2.111   1.632  11.185  0.7596 -2.0147 -1.4094
  551MOL0     H76023   2.192   1.484  11.016  4.2919  3.3911  0.0830
  551MOL0     H76024   1.924   1.209  10.548 -0.2608  0.4226 -0.0296
  551MOL0     H76025   2.013   1.062  10.376  1.7785 -1.4841 -2.4751
  551MOL0     H76026   2.409   1.142  10.225 -1.8641 -0.0034 -1.8674
  551MOL0     H76027   2.442   0.983  10.297 -0.7504 -1.3490  0.5013
  551MOL0     H76028   2.344   0.878  10.090  0.1360 -0.0785 -0.8355
  551MOL0     H76029   2.487   0.965  10.053  0.3318 -1.4836 -0.4573
  551MOL0     H76030   2.205   1.073  10.011 -0.2783 -1.8445 -0.0388
  551MOL0     H76031   2.347   1.168   9.976  1.4740 -0.2754  4.4143
  551MOL0     H76032   2.390   0.969   9.793  0.7652  0.4700 -1.3323
  551MOL0     H76033   2.238   1.063   9.782 -2.5737 -0.5199  1.7448
  551MOL0     H76034   2.070   0.703   9.841  1.6804 -1.5509  0.7378
  551MOL0     H76035   2.395   1.216  10.409  0.3997  0.7248  1.1953
  551MOL0     H76036   2.369   1.470  10.603  2.1111 -1.6045 -0.6539
  551MOL0     H76037   2.333   1.372  10.740 -0.6842  1.3964  0.2415
  551MOL0     H76038   2.455   1.321  10.623  1.7551 -0.1903  1.3794
  552MOL0     O76039   5.389   0.782   5.101  0.0515  0.7801 -0.7438
  552MOL0     C76040   5.367   0.884   5.033  0.1298  0.9684  0.1892
  552MOL0     O76041   5.406   1.013   5.070  0.5629 -0.0887  0.0633
  552MOL0     C76042   5.478   1.041   5.184 -0.1184  0.6564 -0.3488
  552MOL0     C76043   5.585   1.124   5.174 -0.7781 -0.0993 -0.7486
  552MOL0     C76044   5.672   1.133   5.283  0.0986 -0.0748 -0.9378
  552MOL0     C76045   5.644   1.066   5.400  0.4060  0.5338  0.1626
  552MOL0     O76046   5.744   1.084   5.489 -0.0094 -0.2418  0.4033
  552MOL0     C76047   5.701   1.089   5.630  0.1674  0.4637  0.3702
  552MOL0     C76048   5.724   1.229   5.680 -0.2125 -0.0056 -0.4250
  552MOL0     C76049   5.681   1.346   5.590 -0.8983 -0.7687 -0.2879
  552MOL0     C76050   5.707   1.479   5.668  0.0946 -0.0908  0.0644
  552MOL0     C76051   5.719   1.595   5.577 -0.2804 -0.3973  1.0200
  552MOL0     C76052   5.863   1.623   5.518  0.8915 -0.2363  0.4082
  552MOL0     C76053   5.862   1.764   5.472  0.2316  0.1515 -0.6256
  552MOL0     C76054   5.976   1.791   5.369  0.4532 -0.6387 -0.1169
  552MOL0     N76055   5.991   1.937   5.355  0.0749 -0.0671 -0.1738
  552MOL0     C76056   5.957   2.009   5.247  0.7551 -0.2691 -0.1396
  552MOL0     C76057   6.005   2.135   5.273 -0.0970 -0.9064 -0.0226
  552MOL0     C76058   5.998   2.261   5.186 -0.2087  0.0556 -0.0131
  552MOL0     C76059   5.896   2.365   5.236  0.1271 -0.5693 -0.0873
  552MOL0     C76060   5.896   2.493   5.157 -0.7193 -0.1516  1.1507
  552MOL0     C76061   5.804   2.597   5.227 -1.1882 -0.5596  0.1639
  552MOL0     O76062   5.806   2.726   5.166 -0.5377 -0.2017  0.7533
  552MOL0     C76063   5.917   2.806   5.182 -1.2150  0.4276 -0.4857
  552MOL0     C76064   6.031   2.769   5.258 -1.0668 -0.1430 -1.1088
  552MOL0     C76065   6.141   2.856   5.280 -0.5930  0.9635 -0.2792
  552MOL0     C76066   6.258   2.801   5.361 -0.2596  0.3377  0.7084
  552MOL0     C76067   6.146   2.970   5.207 -0.8038 -0.5657 -0.1343
  552MOL0     C76068   6.255   3.071   5.212 -0.0615 -0.3973 -0.1272
  552MOL0     O76069   6.254   3.173   5.119  0.1404 -0.5088  0.2253
  552MOL0     C76070   6.358   3.268   5.120 -0.0361  0.6364 -0.2387
  552MOL0     C76071   6.478   3.232   5.054  1.3868  0.3393 -0.3026
  552MOL0     C76072   6.589   3.316   5.052 -0.6748 -0.2495  0.0905
  552MOL0     C76073   6.577   3.441   5.111  0.2271  0.3667  0.0633
  552MOL0     O76074   6.686   3.527   5.116  1.1494 -0.0405 -0.7898
  552MOL0     C76075   6.787   3.520   5.013 -0.1341 -0.4504 -0.0698
  552MOL0     C76076   6.908   3.437   5.069 -0.6970 -0.4532  0.2168
  552MOL0     C76077   6.959   3.503   5.198  0.0428  0.4030 -0.1849
  552MOL0     C76078   7.088   3.439   5.247 -0.6174 -0.1781 -0.3918
  552MOL0     C76079   7.120   3.486   5.392  0.4942 -0.1806  0.4932
  552MOL0     C76080   7.258   3.426   5.422  0.3124 -0.0893 -0.3020
  552MOL0     C76081   7.285   3.414   5.576 -0.6033 -0.5479 -0.1620
  552MOL0     C76082   7.323   3.533   5.661  0.1081  0.1201 -0.1275
  552MOL0    Cl76083   7.260   3.480   5.819  0.0074 -0.2310 -0.4035
  552MOL0     C76084   6.461   3.474   5.174 -1.1881 -0.5004 -0.5163
  552MOL0     C76085   6.344   3.390   5.176 -0.6629 -0.0011 -0.7751
  552MOL0     O76086   6.332   3.068   5.312  1.5920 -0.3618  0.6579
  552MOL0     C76087   6.038   3.010   5.125  0.4188 -0.0490 -0.1758
  552MOL0     C76088   5.928   2.925   5.113 -0.0048 -0.1108 -0.3391
  552MOL0     N76089   6.051   2.140   5.410 -0.0950  0.5460  0.6469
  552MOL0     N76090   6.042   2.018   5.450 -0.1107 -0.1143  0.1343
  552MOL0     C76091   5.518   0.998   5.417  0.3296 -0.9529  0.0505
  552MOL0     C76092   5.436   0.976   5.309  0.1414 -0.4311 -0.3190
  552MOL0     C76093   5.321   0.878   4.893 -0.6764  0.1188  0.1067
  552MOL0     C76094   5.372   0.972   4.804  0.2856 -0.2579  0.8130
  552MOL0     C76095   5.335   0.964   4.665  0.6184 -0.5421  0.2427
  552MOL0     C76096   5.253   0.862   4.610  0.4238 -0.8822 -1.0560
  552MOL0     O76097   5.219   0.877   4.479 -0.2244  0.2426 -0.1136
  552MOL0     C76098   5.115   0.795   4.429  0.5910 -0.3240  0.0901
  552MOL0     C76099   5.114   0.802   4.275  0.2775  0.1236  0.2990
  552MOL0     C76100   5.041   0.923   4.234 -0.1048  0.9460  0.7048
  552MOL0     C76101   5.089   1.054   4.288  0.4403 -0.8114 -0.6645
  552MOL0     C76102   5.204   1.098   4.217  0.4624  0.6059  0.5113
  552MOL0     C76103   5.301   1.112   4.150  0.1780  0.1806  0.3473
  552MOL0     C76104   5.196   0.784   4.708  0.6822 -0.2828 -0.4180
  552MOL0     C76105   5.238   0.774   4.840 -1.0393 -0.2716 -0.7451
  552MOL0     C76106   5.181   0.664   4.917 -0.1900 -0.8889  0.3394
  552MOL0     H76107   5.608   1.161   5.075 -1.7785  1.9468 -0.2698
  552MOL0     H76108   5.762   1.192   5.266 -0.1740  0.9861  0.9523
  552MOL0     H76109   5.761   1.017   5.687 -2.1565 -3.1278 -1.3689
  552MOL0     H76110   5.595   1.061   5.635  0.4867 -0.7124  0.8606
  552MOL0     H76111   5.659   1.236   5.767 -3.6979 -2.3592 -2.6131
  552MOL0     H76112   5.831   1.241   5.703  0.0108 -2.6923  0.2213
  552MOL0     H76113   5.736   1.344   5.495  2.2638  1.2259  1.3530
  552MOL0     H76114   5.572   1.331   5.583 -0.7897 -1.9496  0.3010
  552MOL0     H76115   5.621   1.520   5.722 -0.4585  3.2369 -3.0296
  552MOL0     H76116   5.786   1.478   5.744  0.7524 -1.8178 -0.5809
  552MOL0     H76117   5.688   1.685   5.631  1.5289  0.1231  1.2737
  552MOL0     H76118   5.644   1.574   5.500 -1.0181  1.4946  1.1589
  552MOL0     H76119   5.946   1.606   5.587  0.3541  0.7342  1.3186
  552MOL0     H76120   5.876   1.551   5.436 -1.1759 -1.1702  0.8210
  552MOL0     H76121   5.881   1.817   5.566 -2.1134 -1.6868  0.9998
  552MOL0     H76122   5.773   1.817   5.438  0.8215 -0.1130 -2.7155
  552MOL0     H76123   6.072   1.760   5.411  0.8905  2.2505  1.2335
  552MOL0     H76124   5.950   1.750   5.270 -2.2327  1.7022 -0.5150
  552MOL0     H76125   5.917   1.977   5.152 -0.1229  0.0254  0.1193
  552MOL0     H76126   5.962   2.240   5.084  5.1523 -1.4996 -1.9595
  552MOL0     H76127   6.096   2.308   5.171  0.5795 -1.1352  1.2042
  552MOL0     H76128   5.799   2.314   5.241 -0.5184  0.6842  2.8139
  552MOL0     H76129   5.909   2.383   5.343 -0.5698 -1.1056  0.0969
  552MOL0     H76130   5.996   2.531   5.132 -0.6271 -1.1252 -0.0873
  552MOL0     H76131   5.843   2.478   5.062  1.6199 -2.9541  0.1210
  552MOL0     H76132   5.701   2.559   5.230 -1.7008  0.5095 -1.9820
  552MOL0     H76133   5.843   2.605   5.329  1.7980  2.1965 -1.0230
  552MOL0     H76134   6.034   2.687   5.330 -0.8528  2.4668  2.1174
  552MOL0     H76135   6.246   2.693   5.369  0.0701  0.1869 -0.5152
  552MOL0     H76136   6.270   2.842   5.461  2.2216 -0.1293  0.6781
  552MOL0     H76137   6.355   2.819   5.314 -1.0246 -0.3650 -1.2504
  552MOL0     H76138   6.482   3.131   5.013 -2.0998  0.3663 -0.9452
  552MOL0     H76139   6.674   3.294   4.988  1.4073  0.8441  2.3207
  552MOL0     H76140   6.756   3.492   4.912  1.2892  0.4319 -0.7954
  552MOL0     H76141   6.831   3.620   5.001  0.6700 -0.8201 -0.2585
  552MOL0     H76142   6.876   3.333   5.083 -0.1178 -0.8337 -1.1702
  552MOL0     H76143   6.984   3.430   4.991 -2.6902 -2.1057 -1.7031
  552MOL0     H76144   6.878   3.478   5.268  0.5902 -0.3857  0.1690
  552MOL0     H76145   6.970   3.611   5.182  1.4222  0.5423  1.4379
  552MOL0     H76146   7.165   3.461   5.172 -0.0592 -3.2937 -0.8692
  552MOL0     H76147   7.065   3.333   5.240  2.8050 -0.9248 -2.2347
  552MOL0     H76148   7.133   3.593   5.408  3.9478 -0.3614 -0.3270
  552MOL0     H76149   7.054   3.447   5.470  1.0836 -1.5196  0.3494
  552MOL0     H76150   7.329   3.483   5.361  1.4454  2.7271  3.2875
  552MOL0     H76151   7.253   3.324   5.385 -0.7614 -0.0344 -0.3423
  552MOL0     H76152   7.360   3.335   5.587  1.8486  1.4038 -1.5816
  552MOL0     H76153   7.187   3.381   5.611 -0.6630  0.0084  0.2074
  552MOL0     H76154   7.288   3.633   5.632  0.9923 -0.1567 -2.3332
  552MOL0     H76155   7.431   3.550   5.668  0.2783 -0.8351 -0.3805
  552MOL0     H76156   6.448   3.574   5.214  1.8306 -0.6611  1.1522
  552MOL0     H76157   6.252   3.423   5.222 -0.0271  1.5690 -0.5459
  552MOL0     H76158   6.024   3.098   5.062 -1.0454  0.3260  0.6360
  552MOL0     H76159   5.843   2.957   5.053 -1.4661 -1.7038  0.7872
  552MOL0     H76160   5.488   0.948   5.509  1.1629  1.4992  1.7471
  552MOL0     H76161   5.340   0.925   5.309 -0.3628  0.3100  2.6587
  552MOL0     H76162   5.446   1.049   4.823  0.9788  0.0877 -2.5433
  552MOL0     H76163   5.376   1.020   4.581 -1.8810  2.4498  0.8373
  552MOL0     H76164   5.125   0.688   4.451 -1.9798 -1.1500 -2.2416
  552MOL0     H76165   5.018   0.830   4.464 -1.2895 -2.8705 -2.1415
  552MOL0     H76166   5.060   0.712   4.242  0.2817  0.1356  0.2609
  552MOL0     H76167   5.213   0.817   4.231 -0.4299  3.5451 -0.3618
  552MOL0     H76168   5.043   0.916   4.125 -5.0027 -1.9117  0.5007
  552MOL0     H76169   4.937   0.915   4.268 -1.4585  0.6902 -3.1087
  552MOL0     H76170   5.098   1.054   4.397  1.5434  0.6088 -0.7276
  552MOL0     H76171   5.023   1.141   4.277  0.7971 -0.1973  1.4761
  552MOL0     H76172   5.387   1.132   4.090  1.5068  3.7866  3.0996
  552MOL0     H76173   5.110   0.721   4.687  0.2497 -0.1668  0.8876
  552MOL0     H76174   5.101   0.700   4.983 -1.4244 -2.2887 -0.3384
  552MOL0     H76175   5.140   0.592   4.845 -2.8990  2.5010 -1.8540
  552MOL0     H76176   5.253   0.614   4.982  1.0953 -0.0685 -0.4240
  553MOL0     O76177  10.085   0.153  11.283  0.1059  0.8003 -0.7341
  553MOL0     C76178   9.981   0.184  11.231  0.1589 -0.2239  0.4409
  553MOL0     O76179   9.957   0.288  11.152  0.6687 -0.4569 -0.5319
  553MOL0     C76180  10.054   0.381  11.133  1.2585  0.1153 -0.2591
  553MOL0     C76181  10.053   0.453  11.014  0.3899  0.6759  0.6140
  553MOL0     C76182  10.144   0.563  10.995  0.6862 -0.1339  0.5826
  553MOL0     C76183  10.237   0.587  11.092 -0.9490 -0.4406  0.5070
  553MOL0     O76184  10.328   0.689  11.079  0.3346  0.8441  0.8065
  553MOL0     C76185  10.308   0.807  11.139  1.2326 -0.2124 -0.2535
  553MOL0     C76186  10.437   0.891  11.139 -0.5549  1.4199 -0.5875
  553MOL0     C76187  10.424   1.042  11.175  0.4047  0.1894 -0.3407
  553MOL0     C76188  10.338   1.061  11.306  0.4632 -0.5435 -0.6125
  553MOL0     C76189  10.360   1.190  11.391  0.1688  0.3269 -0.7157
  553MOL0     C76190  10.236   1.221  11.475 -1.1939 -0.4420 -0.3618
  553MOL0     C76191  10.188   1.108  11.567  0.3897  0.8625  0.0523
  553MOL0     C76192  10.294   1.074  11.671  0.2210  0.1194 -0.0839
  553MOL0     N76193  10.327   1.194  11.747  0.3278  1.3872 -0.0473
  553MOL0     C76194  10.240   1.281  11.823 -0.0217  0.0377 -0.5216
  553MOL0     C76195  10.335   1.351  11.896 -0.1587 -0.4812  0.5844
  553MOL0     C76196  10.298   1.437  12.024 -0.3124 -0.3871 -0.1023
  553MOL0     C76197  10.328   1.585  11.998  0.0771  0.7265 -0.4071
  553MOL0     C76198  10.342   1.631  11.856  1.0213 -0.2582  0.5015
  553MOL0     C76199  10.311   1.785  11.854 -0.2608  0.6808  0.5382
  553MOL0     O76200  10.176   1.796  11.890 -0.8311 -0.2776 -0.3910
  553MOL0     C76201  10.108   1.908  11.837 -0.5985  0.6939  0.0389
  553MOL0     C76202   9.970   1.923  11.834 -0.3571  0.9573 -0.3748
  553MOL0     C76203   9.913   2.035  11.777  0.1417  1.1329  1.5540
  553MOL0     C76204   9.765   2.024  11.739  0.3332 -0.6653 -0.1483
  553MOL0     C76205   9.986   2.146  11.738 -0.4169  0.2736 -0.4076
  553MOL0     C76206   9.933   2.273  11.686  0.1296  0.5144 -0.6379
  553MOL0     O76207  10.026   2.351  11.624  0.4939  0.1766 -0.2083
  553MOL0     C76208  10.005   2.463  11.551 -0.0219  0.5260 -0.9332
  553MOL0     C76209  10.069   2.477  11.432 -1.4134 -0.2947 -0.5566
  553MOL0     C76210  10.061   2.601  11.349  0.3154  0.5183 -0.9721
  553MOL0     C76211   9.963   2.691  11.381  0.4276 -0.3362 -0.0266
  553MOL0     O76212   9.918   2.797  11.298 -0.3914 -0.2493  0.5635
  553MOL0     C76213  10.016   2.858  11.214 -0.5431  0.5334  0.9881
  553MOL0     C76214   9.994   2.812  11.072  0.4972  0.2419 -1.0959
  553MOL0     C76215   9.856   2.833  11.011  0.2810 -0.3192 -0.6435
  553MOL0     C76216   9.871   2.823  10.862  1.2374  0.8613 -0.3149
  553MOL0     C76217   9.746   2.828  10.780  0.1774 -0.4005 -0.6698
  553MOL0     C76218   9.667   2.962  10.789 -0.0742 -0.1067  0.1540
  553MOL0     C76219   9.757   3.081  10.778  0.2740  0.1838 -0.6206
  553MOL0     C76220   9.685   3.221  10.764 -0.1478 -0.3522  0.3012
  553MOL0    Cl76221   9.569   3.213  10.622 -0.2331  0.1850 -0.3269
  553MOL0     C76222   9.883   2.666  11.492  0.7383 -0.7575 -0.0929
  553MOL0     C76223   9.912   2.566  11.587  0.6380 -1.1773 -0.1787
  553MOL0     O76224   9.808   2.306  11.693 -0.1025 -0.4797 -0.9198
  553MOL0     C76225  10.125   2.131  11.741 -0.0291 -0.1725 -0.2120
  553MOL0     C76226  10.181   2.013  11.782  0.5719 -0.0781  0.6118
  553MOL0     N76227  10.463   1.309  11.855 -0.9938 -0.1435  0.0495
  553MOL0     N76228  10.462   1.221  11.771 -0.1097 -1.0886  0.0745
  553MOL0     C76229  10.221   0.531  11.224  0.0162  0.3208  0.2436
  553MOL0     C76230  10.130   0.434  11.242 -0.2555  0.4073 -0.7666
  553MOL0     C76231   9.866   0.111  11.284  0.2686  0.1457  0.3076
  553MOL0     C76232   9.755   0.187  11.317 -0.1957  0.8451  0.3621
  553MOL0     C76233   9.645   0.132  11.375  0.2258 -0.7544 -0.0852
  553MOL0     C76234   9.645  -0.001  11.422 -0.2655  0.4185 -0.1818
  553MOL0     O76235   9.548  -0.064  11.499 -0.1748 -0.6675 -0.1960
  553MOL0     C76236   9.421  -0.008  11.518  1.3617  0.0791 -0.0205
  553MOL0     C76237   9.330  -0.030  11.406  0.0087 -0.0096 -0.2587
  553MOL0     C76238   9.186   0.009  11.437 -0.3252 -0.6240  0.0023
  553MOL0     C76239   9.121  -0.076  11.550  0.7789 -0.3121 -0.5551
  553MOL0     C76240   8.988  -0.013  11.569 -0.6096 -0.1135 -0.3725
  553MOL0     C76241   8.871   0.018  11.580  1.5797  0.3366 -0.0613
  553MOL0     C76242   9.760  -0.085  11.386 -0.3168 -0.0695  0.6013
  553MOL0     C76243   9.867  -0.027  11.313 -0.3324 -0.4831  0.0402
  553MOL0     C76244   9.973  -0.121  11.271 -0.8327 -0.8252 -0.2895
  553MOL0     H76245   9.988   0.431  10.930  0.3723 -1.6275  1.1697
  553MOL0     H76246  10.147   0.618  10.902  1.6758  3.3769  2.5314
  553MOL0     H76247  10.273   0.798  11.242  0.7427  0.1154 -0.3907
  553MOL0     H76248  10.226   0.860  11.091  1.6322  0.7142  0.0544
  553MOL0     H76249  10.501   0.836  11.208 -3.4554 -1.3090  0.1559
  553MOL0     H76250  10.491   0.884  11.044  2.7000 -2.2670  1.2593
  553MOL0     H76251  10.527   1.071  11.198  1.0925 -2.2002 -0.1485
  553MOL0     H76252  10.375   1.096  11.094  1.6020  0.5918 -0.8274
  553MOL0     H76253  10.235   1.055  11.268  0.3525 -1.3471 -0.2038
  553MOL0     H76254  10.357   0.973  11.366  0.5506  0.7020  1.2660
  553MOL0     H76255  10.370   1.275  11.323  1.2701  2.5666  2.0547
  553MOL0     H76256  10.445   1.175  11.458 -0.3308  1.7093  0.2605
  553MOL0     H76257  10.264   1.306  11.537 -1.5735 -1.0366  0.6399
  553MOL0     H76258  10.151   1.245  11.409  0.1316 -3.6759 -3.5820
  553MOL0     H76259  10.161   1.019  11.509 -2.5946  1.2258  0.7120
  553MOL0     H76260  10.094   1.135  11.616  0.3115 -0.2490  0.5460
  553MOL0     H76261  10.264   1.002  11.748 -2.3694  2.3534  1.1704
  553MOL0     H76262  10.374   1.032  11.610  1.0126  2.9546 -1.1150
  553MOL0     H76263  10.132   1.282  11.831  0.0248  3.1723  1.1477
  553MOL0     H76264  10.374   1.411  12.099 -1.3228  0.5680  1.2916
  553MOL0     H76265  10.193   1.435  12.053 -0.0446  1.2575  1.1495
  553MOL0     H76266  10.248   1.638  12.051 -0.7095 -3.7369  3.5712
  553MOL0     H76267  10.418   1.606  12.057  0.4694  2.1285 -1.4428
  553MOL0     H76268  10.446   1.616  11.824  0.1484 -1.2771 -2.1382
  553MOL0     H76269  10.281   1.573  11.786  0.5183 -2.7739  2.8833
  553MOL0     H76270  10.384   1.842  11.913 -2.0990  1.6070  2.0328
  553MOL0     H76271  10.330   1.821  11.753 -1.3785  0.4547  0.2299
  553MOL0     H76272   9.910   1.846  11.882  0.6477  0.6179  0.3522
  553MOL0     H76273   9.695   2.088  11.792 -0.1012 -0.1866 -1.2593
  553MOL0     H76274   9.735   1.918  11.736 -1.2931 -0.2191 -0.6949
  553MOL0     H76275   9.754   2.042  11.631 -2.3975  0.4828  0.2231
  553MOL0     H76276  10.144   2.398  11.429 -0.1879  0.8493 -0.9088
  553MOL0     H76277  10.132   2.598  11.267  0.8083 -3.1544 -0.5447
  553MOL0     H76278  10.000   2.965  11.226  3.1056  1.1773  1.3279
  553MOL0     H76279  10.119   2.842  11.246 -0.9884  0.2258  2.3423
  553MOL0     H76280  10.064   2.867  11.009  1.4989 -0.3527 -0.5140
  553MOL0     H76281  10.015   2.705  11.060 -1.4491 -0.1854 -1.0361
  553MOL0     H76282   9.808   2.930  11.029  0.6974 -0.0771 -0.8322
  553MOL0     H76283   9.787   2.755  11.044 -1.9467  2.1300  0.8952
  553MOL0     H76284   9.914   2.723  10.861  0.3346  0.3601  2.1814
  553MOL0     H76285   9.943   2.888  10.813  2.3690 -0.2312 -0.1442
  553MOL0     H76286   9.771   2.814  10.675  2.0346 -5.1993  0.1228
  553MOL0     H76287   9.675   2.747  10.801 -1.0844 -0.2181 -3.7269
  553MOL0     H76288   9.602   2.974  10.877 -0.9816  1.8233 -0.7046
  553MOL0     H76289   9.597   2.960  10.705 -0.9264  1.1454  0.8026
  553MOL0     H76290   9.818   3.051  10.692  2.2461 -2.1167  1.4156
  553MOL0     H76291   9.817   3.094  10.869 -1.1255  2.6497  0.0379
  553MOL0     H76292   9.755   3.303  10.743 -1.1871  0.7003  0.7805
  553MOL0     H76293   9.631   3.247  10.855 -0.8337  4.1878 -1.1389
  553MOL0     H76294   9.801   2.734  11.508  0.3848 -1.1357 -0.2772
  553MOL0     H76295   9.853   2.569  11.678  2.1019 -1.7165  0.8216
  553MOL0     H76296  10.194   2.212  11.719  0.9058  0.4906  4.2527
  553MOL0     H76297  10.289   2.025  11.792  0.3565  2.5670  0.5028
  553MOL0     H76298  10.264   0.572  11.315  0.4154 -0.6683  0.5115
  553MOL0     H76299  10.133   0.384  11.338  1.9534 -2.0451 -1.9549
  553MOL0     H76300   9.745   0.292  11.292  1.3236  1.3328  1.6147
  553MOL0     H76301   9.559   0.196  11.391  1.2902  1.2339 -1.9122
  553MOL0     H76302   9.380  -0.060  11.605 -0.5581  1.1039 -0.2589
  553MOL0     H76303   9.430   0.098  11.546  0.9142  0.8268 -2.4948
  553MOL0     H76304   9.331  -0.138  11.390 -2.4203 -0.0103 -0.8163
  553MOL0     H76305   9.362   0.015  11.312 -2.9989 -0.6922 -1.7481
  553MOL0     H76306   9.182   0.113  11.470 -1.0820 -0.6350 -0.0473
  553MOL0     H76307   9.136   0.002  11.340  4.6639 -3.6446 -2.7648
  553MOL0     H76308   9.175  -0.071  11.645 -0.4775  3.6696  0.1460
  553MOL0     H76309   9.108  -0.179  11.517  2.2391 -0.6602 -0.1413
  553MOL0     H76310   8.765   0.022  11.591  1.7111 -0.9025  2.2919
  553MOL0     H76311   9.762  -0.187  11.423 -5.4472 -0.4762  0.5288
  553MOL0     H76312   9.931  -0.220  11.253 -1.2032 -1.5041  3.3979
  553MOL0     H76313  10.024  -0.091  11.179 -0.1682 -1.3912 -0.1182
  553MOL0     H76314  10.050  -0.136  11.348 -2.5368  0.9627  1.9033
  554MOL0     O76315   2.655   7.962   4.027  0.0784 -0.6649  0.0077
  554MOL0     C76316   2.632   8.046   4.111 -0.1578 -0.3743 -0.2890
  554MOL0     O76317   2.604   8.182   4.085  0.2020 -0.4310  0.1138
  554MOL0     C76318   2.628   8.230   3.955  0.3299 -0.6223  0.2662
  554MOL0     C76319   2.756   8.236   3.899  0.1763 -0.0480 -0.2653
  554MOL0     C76320   2.780   8.268   3.765 -0.1254 -0.2273  0.9677
  554MOL0     C76321   2.673   8.306   3.682  0.2148  0.0007 -0.2860
  554MOL0     O76322   2.710   8.326   3.545 -0.1226 -0.7486 -0.5479
  554MOL0     C76323   2.624   8.424   3.473  1.2148  0.5614 -0.0883
  554MOL0     C76324   2.699   8.483   3.355 -0.7594  0.5735 -0.3029
  554MOL0     C76325   2.638   8.610   3.299  0.9404  0.2460  0.0131
  554MOL0     C76326   2.589   8.724   3.394 -0.4467 -0.6693 -0.1613
  554MOL0     C76327   2.533   8.844   3.314 -0.2269 -1.3022 -0.3466
  554MOL0     C76328   2.467   8.941   3.407 -0.1175  0.0757  0.2946
  554MOL0     C76329   2.432   9.062   3.319  0.2956 -0.2607 -0.0603
  554MOL0     C76330   2.411   9.186   3.399  0.0859  1.4521 -0.0946
  554MOL0     N76331   2.365   9.290   3.314 -0.1163  0.6518 -0.4145
  554MOL0     C76332   2.235   9.311   3.270 -0.2962 -0.6529  0.6434
  554MOL0     C76333   2.252   9.414   3.185 -1.0113 -0.2811  0.4961
  554MOL0     C76334   2.150   9.454   3.091 -0.6652  0.1967 -0.1092
  554MOL0     C76335   2.191   9.587   3.040 -0.2367 -0.3975  0.6515
  554MOL0     C76336   2.104   9.597   2.911 -0.3048 -0.0472  0.7205
  554MOL0     C76337   2.143   9.733   2.845 -0.2144 -0.2405 -0.3450
  554MOL0     O76338   2.095   9.844   2.926 -0.1695  0.0305  1.0881
  554MOL0     C76339   1.986   9.912   2.892 -0.6303 -0.5435 -0.8120
  554MOL0     C76340   1.913   9.954   3.007 -0.1327 -0.0108  0.1032
  554MOL0     C76341   1.808  10.038   2.985 -0.1710 -0.9311 -0.8521
  554MOL0     C76342   1.740  10.078   3.117 -0.0669 -0.5749 -0.4856
  554MOL0     C76343   1.762  10.074   2.858 -0.5495  0.1629  0.2270
  554MOL0     C76344   1.643  10.151   2.829  0.5865 -0.9841 -0.1159
  554MOL0     O76345   1.652  10.227   2.710  0.1683  0.3130 -0.1117
  554MOL0     C76346   1.551  10.318   2.678 -1.3276  0.7256  0.5004
  554MOL0     C76347   1.512  10.310   2.547 -0.2504  0.2894  0.1180
  554MOL0     C76348   1.413  10.388   2.495  0.3108 -0.1284 -0.6217
  554MOL0     C76349   1.362  10.489   2.578 -0.3705  0.1314 -0.2501
  554MOL0     O76350   1.293  10.577   2.501 -0.0927  0.3945 -0.4821
  554MOL0     C76351   1.179  10.638   2.555 -0.1322 -1.0357  0.2636
  554MOL0     C76352   1.055  10.556   2.544 -0.2256 -0.7852  0.3341
  554MOL0     C76353   1.024  10.503   2.398  0.4376 -0.0785  0.3387
  554MOL0     C76354   0.913  10.598   2.335 -1.1238  0.3857  0.5048
  554MOL0     C76355   0.768  10.559   2.376  0.3334  0.3022  0.6398
  554MOL0     C76356   0.707  10.434   2.303  0.9392  0.5348  0.1063
  554MOL0     C76357   0.569  10.411   2.359 -1.0172 -0.3535 -0.0935
  554MOL0     C76358   0.526  10.269   2.349  0.2094 -0.0754 -0.9331
  554MOL0    Cl76359   0.565  10.198   2.198 -0.6086 -0.1633  0.4017
  554MOL0     C76360   1.404  10.511   2.709  0.3444  0.6334  0.2274
  554MOL0     C76361   1.499  10.419   2.765  0.2638  0.1405 -0.0297
  554MOL0     O76362   1.542  10.139   2.898  0.0559 -0.3459  0.0527
  554MOL0     C76363   1.832  10.032   2.749 -0.6403  1.0990  0.1849
  554MOL0     C76364   1.958   9.964   2.760  0.1990  0.1557 -0.6497
  554MOL0     N76365   2.386   9.446   3.178  0.4928  0.4844  0.0663
  554MOL0     N76366   2.449   9.389   3.265  0.4276 -0.6290 -0.3571
  554MOL0     C76367   2.535   8.299   3.729 -0.0966 -0.1719  0.4888
  554MOL0     C76368   2.519   8.261   3.867  0.4373  0.1663  0.1227
  554MOL0     C76369   2.597   8.002   4.253 -0.2210  1.5793 -0.4120
  554MOL0     C76370   2.655   8.084   4.349  0.5868  0.0775  0.7944
  554MOL0     C76371   2.648   8.053   4.489 -0.3216 -1.4203  0.6241
  554MOL0     C76372   2.565   7.942   4.526 -0.3761  0.3203 -0.5792
  554MOL0     O76373   2.557   7.899   4.657  0.8206 -0.2388  0.8859
  554MOL0     C76374   2.567   7.752   4.678  1.5552 -0.1647  0.2953
  554MOL0     C76375   2.595   7.726   4.821  0.4162  0.7305  0.3605
  554MOL0     C76376   2.707   7.817   4.882  0.1858 -0.2716  0.9447
  554MOL0     C76377   2.768   7.770   5.014  0.1916 -0.5932 -0.3396
  554MOL0     C76378   2.650   7.734   5.086 -0.7402  0.4881 -0.3840
  554MOL0     C76379   2.567   7.699   5.164 -0.0949  0.5016 -0.3199
  554MOL0     C76380   2.505   7.863   4.426 -0.6187 -0.0531 -0.4582
  554MOL0     C76381   2.521   7.888   4.284 -0.6071  0.4089 -1.1118
  554MOL0     C76382   2.474   7.784   4.173  0.4579 -0.4804 -0.0135
  554MOL0     H76383   2.837   8.197   3.960 -0.0455 -0.8151 -0.4538
  554MOL0     H76384   2.880   8.267   3.723 -0.8969  3.1564 -1.4615
  554MOL0     H76385   2.585   8.499   3.543  0.6637 -1.0767  1.4307
  554MOL0     H76386   2.538   8.366   3.436  3.3230 -5.1961  2.7755
  554MOL0     H76387   2.803   8.491   3.387 -0.3328  0.9097 -1.7113
  554MOL0     H76388   2.708   8.411   3.273  1.4894  1.0170 -0.5038
  554MOL0     H76389   2.704   8.657   3.226 -0.5521  2.4560 -0.0222
  554MOL0     H76390   2.554   8.587   3.232  1.3040  0.3937 -0.4995
  554MOL0     H76391   2.508   8.680   3.452  2.7028 -3.6090  2.4366
  554MOL0     H76392   2.674   8.754   3.457  0.0214 -1.5423 -0.3539
  554MOL0     H76393   2.460   8.795   3.249  0.6379 -2.5959 -0.3585
  554MOL0     H76394   2.610   8.879   3.246  0.5042 -0.5677  0.8168
  554MOL0     H76395   2.381   8.891   3.450 -0.2170 -0.3987 -0.4455
  554MOL0     H76396   2.536   8.969   3.488  0.2783 -2.4776  0.9012
  554MOL0     H76397   2.346   9.044   3.254  2.6051 -0.1943 -3.4419
  554MOL0     H76398   2.519   9.086   3.257  0.9996  1.7266  1.5804
  554MOL0     H76399   2.333   9.173   3.474 -1.5581 -1.4279 -2.1275
  554MOL0     H76400   2.503   9.210   3.455 -2.0571  2.9451  3.0922
  554MOL0     H76401   2.140   9.260   3.284 -0.1869 -0.8404  0.6930
  554MOL0     H76402   2.052   9.472   3.137 -0.3616  1.8657 -0.0719
  554MOL0     H76403   2.131   9.376   3.017  4.0544 -2.9007  1.4979
  554MOL0     H76404   2.162   9.663   3.113  1.4737  2.7360 -1.6524
  554MOL0     H76405   2.299   9.594   3.022  0.0770 -0.6499  2.2681
  554MOL0     H76406   2.121   9.515   2.842  2.4228  2.1030 -1.4214
  554MOL0     H76407   1.997   9.620   2.921 -0.7572 -1.3368 -0.8675
  554MOL0     H76408   2.252   9.739   2.853  0.0510 -3.2596 -0.6802
  554MOL0     H76409   2.108   9.721   2.742 -2.7542 -1.8633  0.6142
  554MOL0     H76410   1.960   9.917   3.098  3.0485  0.4343 -1.2169
  554MOL0     H76411   1.783  10.171   3.155 -1.9468  0.7130 -1.3491
  554MOL0     H76412   1.742  10.001   3.195 -2.5379  0.0582  0.3122
  554MOL0     H76413   1.631  10.086   3.109 -0.2275 -1.4537  0.5461
  554MOL0     H76414   1.549  10.224   2.493 -5.5555 -1.9500 -0.5221
  554MOL0     H76415   1.362  10.375   2.400 -0.6669 -5.0372  0.3218
  554MOL0     H76416   1.197  10.652   2.662  3.1748 -3.2915  0.1498
  554MOL0     H76417   1.160  10.727   2.493 -3.8732 -0.6407  1.7379
  554MOL0     H76418   1.067  10.468   2.608 -1.0352 -1.1486 -0.0010
  554MOL0     H76419   0.981  10.619   2.595  2.7047  0.8357  2.8868
  554MOL0     H76420   1.015  10.396   2.381  1.0667 -0.0517 -0.1834
  554MOL0     H76421   1.121  10.521   2.350  0.3374 -0.3534  0.0302
  554MOL0     H76422   0.920  10.596   2.226  1.2661  1.2284  0.5782
  554MOL0     H76423   0.939  10.699   2.370 -1.8318 -0.2254  3.0285
  554MOL0     H76424   0.756  10.565   2.484  0.1824  1.3096  0.5838
  554MOL0     H76425   0.703  10.640   2.341 -1.4715 -0.6085  1.7368
  554MOL0     H76426   0.766  10.352   2.346 -2.2507 -0.9899  1.9274
  554MOL0     H76427   0.715  10.446   2.195 -3.3255  2.0718 -0.2257
  554MOL0     H76428   0.491  10.474   2.315 -0.0650  0.3381 -0.8322
  554MOL0     H76429   0.566  10.438   2.465 -1.5984 -0.9643  0.0461
  554MOL0     H76430   0.417  10.264   2.355  0.1509 -0.4166 -2.0670
  554MOL0     H76431   0.566  10.201   2.425 -2.8146 -4.1547 -2.6160
  554MOL0     H76432   1.364  10.599   2.759 -2.0829 -0.6520  0.7015
  554MOL0     H76433   1.550  10.429   2.861  0.1977  3.0186 -0.1952
  554MOL0     H76434   1.814  10.047   2.643 -0.3152 -1.4254 -0.2827
  554MOL0     H76435   2.010   9.947   2.666  0.6452  1.7098 -0.7153
  554MOL0     H76436   2.453   8.332   3.665 -1.0189 -0.0831  1.6737
  554MOL0     H76437   2.427   8.243   3.922  1.0382  0.1880  1.1664
  554MOL0     H76438   2.725   8.159   4.314  1.4107 -1.1690 -0.2638
  554MOL0     H76439   2.699   8.111   4.565  1.4655 -0.6740 -1.0614
  554MOL0     H76440   2.482   7.690   4.647 -0.8754  1.2410  3.5199
  554MOL0     H76441   2.645   7.700   4.622  1.4774  0.2591 -0.2201
  554MOL0     H76442   2.593   7.621   4.852 -2.4950  1.0925  1.8162
  554MOL0     H76443   2.505   7.767   4.870  0.2636  0.6821  0.1199
  554MOL0     H76444   2.787   7.825   4.807 -1.4406 -1.5963 -1.0432
  554MOL0     H76445   2.661   7.914   4.899 -1.3354 -0.5171 -1.2433
  554MOL0     H76446   2.810   7.852   5.073 -3.4551 -1.0317  3.2738
  554MOL0     H76447   2.829   7.681   4.998 -1.1721 -1.0901 -3.6860
  554MOL0     H76448   2.489   7.662   5.227 -1.2268 -1.7425 -2.8221
  554MOL0     H76449   2.441   7.783   4.462  0.0960  0.8284  3.1753
  554MOL0     H76450   2.456   7.684   4.214 -0.1941 -0.3556  0.0189
  554MOL0     H76451   2.389   7.827   4.121  0.4015  0.7219  1.0192
  554MOL0     H76452   2.546   7.775   4.091  1.4138  0.4538  0.6936
  555MOL0     O76453   1.500   0.274  10.040  0.0044 -0.5547 -0.0639
  555MOL0     C76454   1.588   0.309  10.121  0.6890  0.1661  0.2125
  555MOL0     O76455   1.699   0.239  10.145  0.0642 -0.2571 -1.1431
  555MOL0     C76456   1.739   0.145  10.065  0.9931 -1.0253 -0.6388
  555MOL0     C76457   1.765   0.018  10.113  0.3509  0.9152 -0.2011
  555MOL0     C76458   1.828  -0.077  10.027 -0.5809 -0.5936  0.0790
  555MOL0     C76459   1.849  -0.040   9.889  0.0122  0.1920  0.7429
  555MOL0     O76460   1.892  -0.148   9.814  0.7542 -0.2872 -0.1896
  555MOL0     C76461   1.989  -0.109   9.716 -0.4886 -0.0488 -0.1900
  555MOL0     C76462   2.064  -0.222   9.660 -0.2416  0.3550 -1.0836
  555MOL0     C76463   2.135  -0.157   9.531 -0.3476 -0.0294  1.0426
  555MOL0     C76464   2.210  -0.248   9.441  0.2549  0.6304  0.8666
  555MOL0     C76465   2.126  -0.358   9.371  0.8081  0.1971 -0.0356
  555MOL0     C76466   1.998  -0.306   9.282  0.5472 -0.5881 -0.0818
  555MOL0     C76467   1.916  -0.436   9.261  1.1130  0.3399  0.4674
  555MOL0     C76468   1.842  -0.434   9.124 -0.1087 -0.1359  1.1665
  555MOL0     N76469   1.734  -0.526   9.113 -0.7635 -0.3500 -0.0028
  555MOL0     C76470   1.748  -0.650   9.048  0.0778 -1.7876  0.6281
  555MOL0     C76471   1.617  -0.690   9.029 -0.0032  0.0465 -0.5008
  555MOL0     C76472   1.572  -0.807   8.948 -0.5965 -0.8435 -0.2489
  555MOL0     C76473   1.512  -0.752   8.819  0.1511 -0.1062 -0.0423
  555MOL0     C76474   1.598  -0.644   8.743  0.4168  0.7294  0.1105
  555MOL0     C76475   1.515  -0.579   8.635  0.0837  0.5937 -0.8866
  555MOL0     O76476   1.488  -0.664   8.530  0.4113  0.8305 -1.0426
  555MOL0     C76477   1.427  -0.615   8.409 -0.6030 -0.2219 -0.2183
  555MOL0     C76478   1.432  -0.699   8.304 -0.3409 -0.6065 -0.5714
  555MOL0     C76479   1.386  -0.666   8.178 -0.0684 -0.3954  0.0500
  555MOL0     C76480   1.402  -0.764   8.060  0.2324 -0.1480 -0.8574
  555MOL0     C76481   1.313  -0.543   8.154  0.7104  0.7368  0.4728
  555MOL0     C76482   1.256  -0.498   8.023  0.0920 -0.5772  0.3625
  555MOL0     O76483   1.212  -0.369   8.028 -0.1653  0.1648 -0.0478
  555MOL0     C76484   1.092  -0.322   7.976  0.3248  0.3988 -1.0457
  555MOL0     C76485   0.981  -0.397   7.925  0.7103  0.0422  0.0657
  555MOL0     C76486   0.865  -0.330   7.883  0.3586  0.1451 -0.3775
  555MOL0     C76487   0.851  -0.192   7.895  0.2596 -1.3783  0.1903
  555MOL0     O76488   0.757  -0.108   7.842  0.2069  0.8086  0.2003
  555MOL0     C76489   0.716  -0.134   7.710 -1.0537  0.3879 -0.0734
  555MOL0     C76490   0.652  -0.010   7.654 -0.2326 -1.5828 -0.7829
  555MOL0     C76491   0.609  -0.013   7.496 -0.3174 -0.0392  0.1272
  555MOL0     C76492   0.495  -0.111   7.474 -0.1858 -0.6049  0.1083
  555MOL0     C76493   0.374  -0.086   7.560  0.2916  0.5057  1.1020
  555MOL0     C76494   0.269  -0.193   7.555 -0.1422  0.0817 -0.0143
  555MOL0     C76495   0.176  -0.172   7.436  0.2229  0.7543 -0.0433
  555MOL0     C76496   0.053  -0.263   7.458  0.1643  0.8852  0.2132
  555MOL0    Cl76497  -0.055  -0.267   7.317 -0.6047  0.0011 -0.0967
  555MOL0     C76498   0.956  -0.123   7.957  0.1801 -0.3741  0.3933
  555MOL0     C76499   1.071  -0.191   7.998 -0.7014  0.2708  0.1888
  555MOL0     O76500   1.232  -0.573   7.928 -1.2527 -0.1211  0.4121
  555MOL0     C76501   1.316  -0.452   8.262  0.0643  0.0076  0.8872
  555MOL0     C76502   1.368  -0.488   8.392 -0.5386  0.3122  0.2517
  555MOL0     N76503   1.535  -0.593   9.072 -0.2958 -1.0733  0.7452
  555MOL0     N76504   1.603  -0.488   9.115 -0.1501 -0.2917 -0.5697
  555MOL0     C76505   1.820   0.091   9.838  0.3681  0.2117  0.1635
  555MOL0     C76506   1.765   0.180   9.928 -0.0868 -0.6926  0.5859
  555MOL0     C76507   1.569   0.428  10.214  0.1363 -0.3520  0.7614
  555MOL0     C76508   1.658   0.450  10.311 -0.4595  0.8880 -0.2904
  555MOL0     C76509   1.663   0.566  10.394  0.2832  0.5435  0.2454
  555MOL0     C76510   1.554   0.655  10.383  0.6269 -0.0094  0.0115
  555MOL0     O76511   1.535   0.764  10.463  0.5612 -0.4564  0.1418
  555MOL0     C76512   1.644   0.854  10.496  0.6685  0.8042 -0.0574
  555MOL0     C76513   1.585   0.952  10.594  0.0405 -0.2749 -0.2807
  555MOL0     C76514   1.672   1.077  10.607 -0.3505 -0.4062 -0.0582
  555MOL0     C76515   1.647   1.148  10.738  0.6663  0.1106  0.0908
  555MOL0     C76516   1.506   1.188  10.744  0.6932 -0.2168  0.1401
  555MOL0     C76517   1.396   1.228  10.770 -0.0949 -0.4868 -0.2556
  555MOL0     C76518   1.466   0.635  10.285  0.2088 -0.0561  0.3634
  555MOL0     C76519   1.471   0.528  10.194  0.5361 -0.1276  0.0795
  555MOL0     C76520   1.353   0.528  10.095 -0.4930  0.0699  0.2405
  555MOL0     H76521   1.746   0.004  10.219 -1.3522  0.8600 -0.4799
  555MOL0     H76522   1.839  -0.179  10.061  0.9946 -0.6835 -0.6434
  555MOL0     H76523   2.065  -0.044   9.761 -2.2926  2.1738 -0.1495
  555MOL0     H76524   1.946  -0.038   9.644 -1.3466  1.4329  1.6938
  555MOL0     H76525   2.144  -0.262   9.724 -1.0153  3.9667  2.5338
  555MOL0     H76526   1.991  -0.296   9.627 -0.2916 -0.1721  0.1599
  555MOL0     H76527   2.066  -0.105   9.463 -1.0846 -0.5380  1.3872
  555MOL0     H76528   2.204  -0.080   9.567 -1.7718  0.9126  1.8777
  555MOL0     H76529   2.254  -0.187   9.361  1.0871  2.4143  2.5965
  555MOL0     H76530   2.289  -0.303   9.494 -0.2896 -1.9187 -0.8115
  555MOL0     H76531   2.098  -0.433   9.446 -1.4894 -0.7968 -1.7581
  555MOL0     H76532   2.192  -0.415   9.304  1.5733 -2.8801  3.0212
  555MOL0     H76533   1.934  -0.229   9.325  2.2587  1.7082 -1.4461
  555MOL0     H76534   2.055  -0.272   9.196 -1.9614  0.6037 -1.3745
  555MOL0     H76535   1.847  -0.446   9.345  0.0828 -0.2921 -0.4188
  555MOL0     H76536   1.987  -0.518   9.267  0.7954 -0.2630 -2.5148
  555MOL0     H76537   1.800  -0.334   9.120  2.3074  0.9431  0.6319
  555MOL0     H76538   1.908  -0.445   9.037 -0.4435 -2.3166  1.1322
  555MOL0     H76539   1.836  -0.703   9.013  1.0819 -0.6563  1.3528
  555MOL0     H76540   1.496  -0.856   9.009 -0.5359  0.4096  0.8732
  555MOL0     H76541   1.641  -0.885   8.912 -2.4580 -1.3496 -3.0262
  555MOL0     H76542   1.509  -0.843   8.758 -0.5174 -2.4941  3.2458
  555MOL0     H76543   1.409  -0.726   8.843 -0.6232  0.1771 -3.2191
  555MOL0     H76544   1.636  -0.572   8.816  1.0134  0.6935 -0.1574
  555MOL0     H76545   1.682  -0.698   8.701  1.3125  2.6776 -0.7105
  555MOL0     H76546   1.422  -0.558   8.687 -1.0975 -1.8120 -1.8896
  555MOL0     H76547   1.563  -0.485   8.604  0.2472  0.4199 -1.1576
  555MOL0     H76548   1.479  -0.796   8.310  4.0252  1.3122  0.3888
  555MOL0     H76549   1.457  -0.716   7.978  4.4996 -2.0435  0.6186
  555MOL0     H76550   1.306  -0.794   8.018 -0.0158  1.2067 -1.3176
  555MOL0     H76551   1.455  -0.848   8.105 -0.2942  0.2951  0.6698
  555MOL0     H76552   0.990  -0.505   7.929 -3.3372 -0.3801  1.7649
  555MOL0     H76553   0.783  -0.393   7.850  0.9533 -1.7011  1.4530
  555MOL0     H76554   0.806  -0.165   7.655 -1.2615  0.8011 -0.6487
  555MOL0     H76555   0.651  -0.221   7.699  2.8575 -3.3955  3.0822
  555MOL0     H76556   0.565   0.021   7.711  1.7146 -1.7223  2.5164
  555MOL0     H76557   0.718   0.078   7.659 -0.1439 -1.7074  2.7006
  555MOL0     H76558   0.697  -0.042   7.440 -3.7013 -5.5158 -3.2494
  555MOL0     H76559   0.574   0.085   7.461 -1.6239 -1.7269 -3.7443
  555MOL0     H76560   0.516  -0.218   7.483 -5.0296 -1.6981  1.2884
  555MOL0     H76561   0.474  -0.101   7.367  3.2739 -0.2898 -0.6572
  555MOL0     H76562   0.404  -0.089   7.666  2.6909 -4.3799  0.5792
  555MOL0     H76563   0.338   0.017   7.549 -1.4259 -0.1822  0.0012
  555MOL0     H76564   0.220  -0.171   7.650  3.0711  2.1769  1.3674
  555MOL0     H76565   0.302  -0.297   7.553  0.3209  0.1324  2.3235
  555MOL0     H76566   0.227  -0.215   7.349  0.5461 -1.3123  1.0923
  555MOL0     H76567   0.152  -0.067   7.422 -0.8094  0.3544 -1.4964
  555MOL0     H76568   0.003  -0.220   7.545 -0.4535 -0.2071  0.4201
  555MOL0     H76569   0.085  -0.363   7.491  1.4650  0.5453 -1.9165
  555MOL0     H76570   0.968  -0.018   7.979  4.1327 -0.4866 -0.5261
  555MOL0     H76571   1.151  -0.134   8.045  0.6321  0.0760 -1.7015
  555MOL0     H76572   1.273  -0.353   8.250 -1.1342 -0.6453 -0.5059
  555MOL0     H76573   1.376  -0.414   8.471  1.3109  1.5038 -0.9589
  555MOL0     H76574   1.828   0.128   9.737  0.3735  0.0772  0.1138
  555MOL0     H76575   1.746   0.283   9.899  3.0086 -0.4197 -0.9670
  555MOL0     H76576   1.736   0.378  10.332  1.3500  2.5396 -0.9931
  555MOL0     H76577   1.731   0.575  10.479 -1.1259  3.6093  1.1834
  555MOL0     H76578   1.723   0.794  10.543  0.3416 -1.1862 -1.8676
  555MOL0     H76579   1.688   0.902  10.408 -1.1005  1.2818 -0.7362
  555MOL0     H76580   1.575   0.899  10.689  1.6198  0.5478  0.3902
  555MOL0     H76581   1.489   0.989  10.556  0.2786  0.3103 -0.3297
  555MOL0     H76582   1.779   1.052  10.602 -0.3439 -0.2569 -0.8873
  555MOL0     H76583   1.659   1.141  10.519 -0.5929 -2.7298 -1.8226
  555MOL0     H76584   1.717   1.231  10.746  1.4296  0.3060 -5.3586
  555MOL0     H76585   1.663   1.070  10.813 -0.8478 -3.8454 -3.3045
  555MOL0     H76586   1.306   1.280  10.796 -0.0911 -1.2453  1.4179
  555MOL0     H76587   1.409   0.726  10.268  3.7016  1.8690 -2.6463
  555MOL0     H76588   1.396   0.558   9.999  2.6344 -0.6981  1.2702
  555MOL0     H76589   1.307   0.429  10.097  1.8755 -1.1309 -0.7138
  555MOL0     H76590   1.280   0.599  10.135  0.9506  1.1174  1.1433
  556MOL0     O76591   3.656   1.700   7.531  0.0165 -0.5102  0.3137
  556MOL0     C76592   3.641   1.727   7.416  0.1853 -1.0438  0.3216
  556MOL0     O76593   3.636   1.850   7.364 -0.0753  0.0281 -0.1285
  556MOL0     C76594   3.665   1.962   7.438  1.0464  0.6150  0.3873
  556MOL0     C76595   3.615   2.080   7.387  0.9113  0.0140  0.7475
  556MOL0     C76596   3.644   2.207   7.436 -0.5303 -0.5219  0.4717
  556MOL0     C76597   3.722   2.227   7.545  1.1951 -0.2408 -0.8950
  556MOL0     O76598   3.741   2.347   7.603 -1.0700 -0.4992 -0.6854
  556MOL0     C76599   3.769   2.454   7.513  0.0763 -0.1847 -0.1009
  556MOL0     C76600   3.819   2.567   7.594 -0.3898  0.3036 -0.0034
  556MOL0     C76601   3.863   2.672   7.498 -0.0552 -0.2117  0.3558
  556MOL0     C76602   3.932   2.772   7.568 -0.1792  0.1710 -0.6214
  556MOL0     C76603   4.007   2.888   7.506  0.4889 -0.5086 -1.2649
  556MOL0     C76604   3.906   2.954   7.404 -0.4558  0.3593  0.8962
  556MOL0     C76605   3.929   3.096   7.363 -0.2280  0.8662  0.2187
  556MOL0     C76606   3.880   3.201   7.460 -0.2016 -0.4004  0.0762
  556MOL0     N76607   3.741   3.177   7.506  0.1167  0.8464 -0.4611
  556MOL0     C76608   3.709   3.086   7.606 -0.6431 -0.5660 -0.4093
  556MOL0     C76609   3.578   3.072   7.609 -0.2796 -0.2579 -1.2523
  556MOL0     C76610   3.504   2.991   7.709  0.5733 -0.5390 -0.3512
  556MOL0     C76611   3.481   2.842   7.662 -0.2201 -0.4185  0.0356
  556MOL0     C76612   3.430   2.750   7.768 -0.0293  1.3833  0.7528
  556MOL0     C76613   3.429   2.605   7.733  0.7299  0.3790 -0.4261
  556MOL0     O76614   3.333   2.591   7.635  0.3715 -0.1127 -0.2579
  556MOL0     C76615   3.334   2.474   7.559 -0.1346  0.1352  0.6182
  556MOL0     C76616   3.271   2.481   7.435 -0.6699  0.3232 -0.2276
  556MOL0     C76617   3.229   2.378   7.361  0.2940  0.4120 -0.0261
  556MOL0     C76618   3.182   2.418   7.225  0.4824  0.1934  0.7475
  556MOL0     C76619   3.243   2.235   7.423  0.2547 -0.3729  0.6030
  556MOL0     C76620   3.202   2.107   7.348 -0.1174 -0.8626 -0.2688
  556MOL0     O76621   3.196   1.988   7.417  0.5009  0.5549  0.4637
  556MOL0     C76622   3.182   1.871   7.348  0.9821  0.2763  0.1458
  556MOL0     C76623   3.053   1.828   7.303  0.1228  0.2345  0.5365
  556MOL0     C76624   3.042   1.702   7.235  0.7223 -0.0180  0.9007
  556MOL0     C76625   3.151   1.628   7.224 -1.0604 -0.3423 -0.0148
  556MOL0     O76626   3.114   1.511   7.163 -0.5679  0.4187  0.5528
  556MOL0     C76627   3.212   1.430   7.114 -0.6885  0.2380 -0.2462
  556MOL0     C76628   3.151   1.295   7.085  0.4316 -0.3921 -1.2551
  556MOL0     C76629   3.036   1.317   6.985 -1.3150 -0.2641  0.4136
  556MOL0     C76630   2.974   1.189   6.936 -0.5073  0.5746  0.1000
  556MOL0     C76631   2.907   1.207   6.802  0.3440 -0.7513  0.5403
  556MOL0     C76632   2.791   1.104   6.764  0.2496 -0.5890  0.0872
  556MOL0     C76633   2.730   1.135   6.625  0.1140 -0.7839  0.9785
  556MOL0     C76634   2.787   1.039   6.518  0.4730 -0.0455  0.2413
  556MOL0    Cl76635   2.773   1.083   6.341  0.2813 -0.1532 -0.0784
  556MOL0     C76636   3.277   1.674   7.263 -0.0322  0.6098 -0.5750
  556MOL0     C76637   3.293   1.799   7.330 -0.6894  0.3617 -0.4609
  556MOL0     O76638   3.194   2.119   7.229 -0.3873  0.1024  0.2559
  556MOL0     C76639   3.301   2.227   7.550  0.0991 -0.3508  0.0043
  556MOL0     C76640   3.340   2.348   7.620 -0.7490  0.5621 -0.0797
  556MOL0     N76641   3.529   3.171   7.528 -0.7769  0.5685 -0.7242
  556MOL0     N76642   3.628   3.241   7.480 -0.1999 -0.8762  1.0898
  556MOL0     C76643   3.760   2.109   7.611 -0.5311 -0.4946  0.7729
  556MOL0     C76644   3.745   1.973   7.556 -0.2179 -1.0257 -0.2327
  556MOL0     C76645   3.643   1.622   7.309  0.3130 -0.9606  0.3329
  556MOL0     C76646   3.651   1.668   7.179 -0.3653  0.2054  0.5660
  556MOL0     C76647   3.681   1.586   7.074 -0.7465  0.1116  0.8209
  556MOL0     C76648   3.695   1.451   7.086  0.3855  0.1248 -0.0193
  556MOL0     O76649   3.686   1.378   6.971  0.4728  0.0846 -0.0193
  556MOL0     C76650   3.644   1.236   6.957 -0.8314 -1.0098 -0.0801
  556MOL0     C76651   3.499   1.233   6.935 -1.1363  0.3921  0.5157
  556MOL0     C76652   3.451   1.097   6.874  0.9507  0.0242 -0.2168
  556MOL0     C76653   3.418   1.118   6.726  0.5921 -0.3013 -0.5227
  556MOL0     C76654   3.354   0.992   6.688 -0.4825 -0.9287 -0.4006
  556MOL0     C76655   3.314   0.879   6.665  0.1596 -0.1275 -0.1082
  556MOL0     C76656   3.672   1.395   7.212 -0.2657  0.7672 -0.0849
  556MOL0     C76657   3.649   1.477   7.319 -0.0489 -0.5864 -0.0917
  556MOL0     C76658   3.615   1.416   7.456 -0.5998 -0.3601 -0.1072
  556MOL0     H76659   3.555   2.086   7.297  0.2801  0.9398  1.2232
  556MOL0     H76660   3.611   2.292   7.377 -1.6127  0.1517  1.9772
  556MOL0     H76661   3.690   2.476   7.441  0.3371  0.4907 -0.1865
  556MOL0     H76662   3.854   2.423   7.451  0.1326  2.9201 -1.7666
  556MOL0     H76663   3.741   2.614   7.655  2.0371  4.0198  0.5523
  556MOL0     H76664   3.901   2.524   7.652  0.3269 -2.2900 -2.6814
  556MOL0     H76665   3.925   2.632   7.417 -2.7574 -0.8287 -1.5619
  556MOL0     H76666   3.766   2.704   7.457 -0.2549  1.4181  1.9579
  556MOL0     H76667   3.861   2.789   7.649  1.7917  2.5651  0.7722
  556MOL0     H76668   4.016   2.725   7.620 -1.7881 -0.7191  1.2975
  556MOL0     H76669   4.105   2.867   7.463 -0.0390  1.0619 -3.3848
  556MOL0     H76670   4.018   2.958   7.590  0.3916 -0.5727 -1.1982
  556MOL0     H76671   3.920   2.901   7.309 -1.5891 -0.7932  1.3420
  556MOL0     H76672   3.803   2.931   7.433  0.1235 -3.5544  0.4201
  556MOL0     H76673   3.882   3.115   7.266  0.4203 -2.1540 -0.7945
  556MOL0     H76674   4.033   3.126   7.347 -1.1183  3.4014 -1.4236
  556MOL0     H76675   3.957   3.207   7.538  0.6430 -0.9551 -0.6921
  556MOL0     H76676   3.887   3.300   7.414 -1.8844 -0.7918 -1.1382
  556MOL0     H76677   3.785   3.036   7.665 -0.1846  1.2898  0.6607
  556MOL0     H76678   3.409   3.045   7.713  1.2788  0.9214 -1.8894
  556MOL0     H76679   3.550   2.995   7.807 -3.3237 -1.8295  1.7540
  556MOL0     H76680   3.422   2.859   7.572  1.0661  1.1859 -0.5675
  556MOL0     H76681   3.585   2.813   7.645  0.7088  0.8818  2.8715
  556MOL0     H76682   3.481   2.765   7.863 -1.2228 -0.4303  1.7282
  556MOL0     H76683   3.332   2.791   7.795 -0.0621  0.2397  2.5078
  556MOL0     H76684   3.523   2.555   7.708  1.7447  0.6893  2.4642
  556MOL0     H76685   3.396   2.559   7.826  0.1133  1.7713  0.0644
  556MOL0     H76686   3.245   2.574   7.387 -2.9625 -0.3517 -0.4013
  556MOL0     H76687   3.266   2.407   7.156 -0.8349  0.1269 -0.9081
  556MOL0     H76688   3.162   2.525   7.229  0.2085  0.1957 -0.4033
  556MOL0     H76689   3.091   2.365   7.194  2.5526 -2.5815 -1.1318
  556MOL0     H76690   2.966   1.890   7.324 -1.2175 -1.4917  0.2854
  556MOL0     H76691   2.948   1.658   7.205  0.6198 -1.7497  3.4367
  556MOL0     H76692   3.257   1.475   7.025 -0.9474 -0.1478 -0.5764
  556MOL0     H76693   3.296   1.417   7.184  1.2599  0.3901 -2.4283
  556MOL0     H76694   3.221   1.216   7.054 -1.5275 -2.3116 -1.0427
  556MOL0     H76695   3.113   1.274   7.186  1.4161  3.4723  0.0925
  556MOL0     H76696   3.087   1.374   6.906  1.7082 -1.8749  1.0501
  556MOL0     H76697   2.954   1.372   7.030  0.1224  1.5628  0.9216
  556MOL0     H76698   2.909   1.137   7.006 -1.3676 -0.9319 -1.7268
  556MOL0     H76699   3.057   1.118   6.927 -1.9883 -1.2495  0.3357
  556MOL0     H76700   2.869   1.308   6.817  2.7256 -0.0522  2.5756
  556MOL0     H76701   2.981   1.202   6.722  1.7662 -0.5422  1.7947
  556MOL0     H76702   2.707   1.116   6.832  0.2525  1.0148 -0.1721
  556MOL0     H76703   2.827   1.000   6.764  0.7858 -0.4258 -1.8065
  556MOL0     H76704   2.749   1.235   6.585 -3.4387 -0.5173 -0.4384
  556MOL0     H76705   2.620   1.128   6.622 -0.2055  1.4776 -3.8086
  556MOL0     H76706   2.724   0.950   6.524 -1.0238  0.8060 -1.5836
  556MOL0     H76707   2.887   1.003   6.543  0.3471  0.5819  1.7177
  556MOL0     H76708   3.368   1.616   7.253  0.5680  0.5530  3.3220
  556MOL0     H76709   3.387   1.850   7.345  0.1402 -1.0834 -0.5404
  556MOL0     H76710   3.302   2.132   7.603 -0.1788  1.1458  2.8636
  556MOL0     H76711   3.378   2.334   7.720 -3.1181  0.8766  0.9156
  556MOL0     H76712   3.803   2.125   7.709 -0.4019  0.1825  0.6071
  556MOL0     H76713   3.786   1.888   7.609  0.0601  0.0474  1.3381
  556MOL0     H76714   3.665   1.771   7.149 -0.9172 -0.7545 -3.5531
  556MOL0     H76715   3.701   1.626   6.975  1.2416  0.2464  1.2491
  556MOL0     H76716   3.689   1.196   6.865  1.8314  3.2648 -0.9166
  556MOL0     H76717   3.684   1.178   7.040  3.9377  0.6360 -0.9021
  556MOL0     H76718   3.497   1.305   6.853  1.2816  3.8872  3.2046
  556MOL0     H76719   3.441   1.274   7.018  0.4032  3.8272  0.0908
  556MOL0     H76720   3.513   1.009   6.891 -1.0533 -1.2522  0.8034
  556MOL0     H76721   3.358   1.080   6.929  0.3584 -2.3278 -1.7609
  556MOL0     H76722   3.507   1.135   6.665  1.1810 -0.2065  0.3451
  556MOL0     H76723   3.348   1.201   6.715  0.1386 -0.2587  2.1506
  556MOL0     H76724   3.286   0.780   6.635  1.6011 -1.1718  1.7271
  556MOL0     H76725   3.666   1.288   7.226  2.4372  0.6310  0.4407
  556MOL0     H76726   3.590   1.309   7.448  1.7947 -1.0937  1.1944
  556MOL0     H76727   3.707   1.435   7.511 -0.7961  1.2390 -0.2759
  556MOL0     H76728   3.534   1.464   7.512 -0.0959  1.5407 -0.9414
  557MOL0     O76729   8.051   4.052  11.025  0.0763 -0.4713 -0.8404
  557MOL0     C76730   8.062   3.939  10.974  0.3803 -0.9693 -0.3636
  557MOL0     O76731   7.972   3.837  10.991 -0.2935 -0.2692 -0.7124
  557MOL0     C76732   7.886   3.840  11.100  0.2326  0.9984  0.5245
  557MOL0     C76733   7.750   3.795  11.082  0.1653 -0.8079  0.9954
  557MOL0     C76734   7.670   3.789  11.185  0.8788  0.3023  0.1036
  557MOL0     C76735   7.704   3.828  11.314  0.3155 -0.2199 -0.3848
  557MOL0     O76736   7.606   3.828  11.412  0.0123  0.0029  0.8266
  557MOL0     C76737   7.631   3.897  11.539 -0.5234  0.3362  0.1182
  557MOL0     C76738   7.652   3.796  11.653 -0.1662  0.5404  0.2120
  557MOL0     C76739   7.663   3.868  11.796  0.0621 -1.4203 -0.0449
  557MOL0     C76740   7.722   3.775  11.898 -0.7232 -0.7476  0.2010
  557MOL0     C76741   7.781   3.867  12.017  0.3472  0.8019 -0.4756
  557MOL0     C76742   7.912   3.956  11.985  0.8347 -0.1853  0.5378
  557MOL0     C76743   7.989   3.989  12.106 -0.1075  0.1241  0.0100
  557MOL0     C76744   8.116   4.067  12.056 -0.3697  1.3829  0.4025
  557MOL0     N76745   8.204   4.112  12.167  0.2743 -0.1112  0.3078
  557MOL0     C76746   8.159   4.206  12.259  0.0526  0.2925 -0.3115
  557MOL0     C76747   8.275   4.251  12.321  0.0162  1.1298 -0.4152
  557MOL0     C76748   8.266   4.352  12.433  0.7766  0.6608  0.1438
  557MOL0     C76749   8.312   4.307  12.574 -0.7968 -0.4231  0.9553
  557MOL0     C76750   8.244   4.192  12.634 -0.8510 -0.2321 -0.1668
  557MOL0     C76751   8.093   4.227  12.673  0.3427  0.5043 -0.4760
  557MOL0     O76752   8.017   4.116  12.737  0.2815 -0.4723  0.2210
  557MOL0     C76753   7.995   4.115  12.872 -0.1125  0.7412  0.2979
  557MOL0     C76754   7.948   4.224  12.933  0.1113  1.3227 -0.5537
  557MOL0     C76755   7.946   4.239  13.075  0.7843  0.4492 -1.0099
  557MOL0     C76756   7.899   4.377  13.133  0.5167  0.2056 -0.0815
  557MOL0     C76757   7.992   4.134  13.154  0.5307  0.0527  0.6281
  557MOL0     C76758   8.014   4.140  13.307  0.1218 -0.4487  0.6903
  557MOL0     O76759   8.070   4.020  13.348  0.5955 -0.6467  0.2210
  557MOL0     C76760   8.120   4.022  13.476  0.3116 -0.2371 -0.1047
  557MOL0     C76761   8.232   4.083  13.521  0.0803  0.1243 -0.1836
  557MOL0     C76762   8.283   4.059  13.645 -0.1714 -1.1027 -1.2537
  557MOL0     C76763   8.211   3.977  13.734  0.0257  0.0347  0.6382
  557MOL0     O76764   8.257   3.944  13.860 -0.4650 -0.2760 -0.0010
  557MOL0     C76765   8.343   4.025  13.938  0.8499  0.0610  1.6228
  557MOL0     C76766   8.481   3.964  13.925  0.4588 -0.0296 -0.0593
  557MOL0     C76767   8.564   4.034  14.040 -0.2222 -0.6671  0.8426
  557MOL0     C76768   8.709   3.995  14.036 -0.3824  0.1130  0.7785
  557MOL0     C76769   8.772   4.045  14.163 -0.8861  0.4154 -0.9567
  557MOL0     C76770   8.915   3.990  14.182  0.7749  0.8884 -0.3960
  557MOL0     C76771   8.967   4.041  14.315 -0.6869 -0.0242 -0.0645
  557MOL0     C76772   9.112   4.002  14.327  0.1789 -0.5758 -0.3948
  557MOL0    Cl76773   9.192   4.102  14.445  0.0200  0.2976  0.0812
  557MOL0     C76774   8.100   3.905  13.696  1.0438  0.4152 -0.7533
  557MOL0     C76775   8.057   3.936  13.571  0.6311 -0.2752  0.6502
  557MOL0     O76776   7.992   4.234  13.380  0.3565 -0.3546 -0.2261
  557MOL0     C76777   8.040   4.014  13.090  1.0343 -0.0000 -0.2568
  557MOL0     C76778   8.037   4.005  12.945 -0.9982  0.2871  0.7731
  557MOL0     N76779   8.380   4.182  12.268 -0.1870 -0.1789 -0.2000
  557MOL0     N76780   8.340   4.118  12.158  0.9272  0.1989 -0.7104
  557MOL0     C76781   7.841   3.864  11.341  0.0489 -0.5485  0.2352
  557MOL0     C76782   7.937   3.862  11.226  0.6985 -0.4442 -0.7482
  557MOL0     C76783   8.181   3.914  10.888 -0.0544 -0.1363 -0.4340
  557MOL0     C76784   8.211   3.778  10.872  0.2557  0.8147  0.5263
  557MOL0     C76785   8.321   3.740  10.800  0.0704 -0.4504 -0.6618
  557MOL0     C76786   8.396   3.835  10.725 -0.0990 -0.2347 -0.8131
  557MOL0     O76787   8.511   3.797  10.665  0.2384 -0.6200 -0.6213
  557MOL0     C76788   8.593   3.684  10.713  0.2479 -0.1951  0.5581
  557MOL0     C76789   8.684   3.728  10.832 -0.0630 -0.1207 -0.4258
  557MOL0     C76790   8.781   3.848  10.789  0.7103 -0.6171 -0.2326
  557MOL0     C76791   8.892   3.802  10.680  0.5186 -1.0512 -0.5513
  557MOL0     C76792   9.009   3.739  10.738 -0.4812 -1.1995 -0.4447
  557MOL0     C76793   9.105   3.683  10.781  0.6572 -0.2926  1.6676
  557MOL0     C76794   8.378   3.969  10.752 -0.0679  0.1018 -0.1909
  557MOL0     C76795   8.273   4.010  10.834 -1.1266 -0.5951 -0.6115
  557MOL0     C76796   8.250   4.161  10.845 -0.8987  0.4166  0.3508
  557MOL0     H76797   7.711   3.777  10.982 -1.4057  3.4668  0.6440
  557MOL0     H76798   7.567   3.760  11.163  0.0918  1.4810  1.9422
  557MOL0     H76799   7.532   3.937  11.557 -0.3324  0.5102  0.8030
  557MOL0     H76800   7.699   3.983  11.537  1.1161 -0.8386  1.6469
  557MOL0     H76801   7.577   3.717  11.650  0.7056 -0.2868 -0.2419
  557MOL0     H76802   7.751   3.751  11.644 -0.1838  0.4775  0.3379
  557MOL0     H76803   7.722   3.959  11.790 -2.0975  0.0531  0.0536
  557MOL0     H76804   7.564   3.901  11.827  0.9680  2.7072 -1.0049
  557MOL0     H76805   7.637   3.711  11.923 -1.9927 -1.5203 -4.9880
  557MOL0     H76806   7.802   3.714  11.856 -1.1573  0.0536 -1.9676
  557MOL0     H76807   7.804   3.799  12.099  1.7613 -1.1420 -2.3661
  557MOL0     H76808   7.699   3.938  12.033 -0.1691  0.1360 -0.1487
  557MOL0     H76809   7.975   3.898  11.916  2.2675 -1.5377  2.8368
  557MOL0     H76810   7.881   4.045  11.930  2.9979  0.5095  0.3417
  557MOL0     H76811   8.021   3.901  12.162 -3.4549 -2.0149 -1.1425
  557MOL0     H76812   7.931   4.047  12.179  0.1608 -2.3848  2.3636
  557MOL0     H76813   8.175   4.013  11.982 -2.0247 -0.5106  0.3780
  557MOL0     H76814   8.072   4.157  12.013 -3.6750 -1.2386 -2.2514
  557MOL0     H76815   8.056   4.236  12.277 -0.7481 -1.9522 -0.8547
  557MOL0     H76816   8.161   4.382  12.430  0.9312  1.1387 -1.1416
  557MOL0     H76817   8.318   4.443  12.400  2.2677 -0.0415  0.4831
  557MOL0     H76818   8.419   4.290  12.560 -0.7649  0.6868 -0.4281
  557MOL0     H76819   8.308   4.395  12.639  0.8873  1.3206 -1.1335
  557MOL0     H76820   8.243   4.115  12.556  2.3191  1.4295 -2.0599
  557MOL0     H76821   8.294   4.144  12.718 -0.6920  1.9812  1.0647
  557MOL0     H76822   8.114   4.302  12.750  0.0242  0.0614  0.0453
  557MOL0     H76823   8.042   4.274  12.588  1.3718 -0.1774 -1.4976
  557MOL0     H76824   7.914   4.312  12.879 -0.0595  1.7798  0.2783
  557MOL0     H76825   7.914   4.446  13.049  1.4717 -2.4593 -2.2791
  557MOL0     H76826   7.944   4.404  13.228 -2.2930 -1.1163  1.7855
  557MOL0     H76827   7.800   4.364  13.178  2.0097  1.6843  4.0914
  557MOL0     H76828   8.284   4.159  13.463 -3.0394  1.6007 -1.2810
  557MOL0     H76829   8.379   4.107  13.659  0.0155 -1.0417 -2.6210
  557MOL0     H76830   8.344   4.130  13.906 -1.5593 -0.1690  0.5772
  557MOL0     H76831   8.322   4.038  14.045  5.5291  1.2759  2.6587
  557MOL0     H76832   8.491   3.856  13.933  0.9262  0.0464  0.4206
  557MOL0     H76833   8.514   4.000  13.827  2.6445  3.6924  1.7983
  557MOL0     H76834   8.522   4.011  14.138 -0.1582  1.0740  1.3129
  557MOL0     H76835   8.568   4.139  14.011  3.0434 -0.0134  3.1713
  557MOL0     H76836   8.744   4.034  13.940  0.1171  0.2093  0.9965
  557MOL0     H76837   8.732   3.888  14.042 -2.2378 -0.4857 -1.4222
  557MOL0     H76838   8.776   4.154  14.153 -2.3947  0.7054  1.0195
  557MOL0     H76839   8.710   4.022  14.250 -1.3440  2.5828 -0.6373
  557MOL0     H76840   8.980   4.023  14.101  0.5770  0.4823 -0.7276
  557MOL0     H76841   8.905   3.881  14.171 -0.5546  0.9453 -0.0267
  557MOL0     H76842   8.917   3.994  14.400 -0.6083 -3.5399 -1.7813
  557MOL0     H76843   8.955   4.149  14.318 -0.5574 -0.0214  0.5944
  557MOL0     H76844   9.166   3.997  14.232 -0.9319 -0.4098 -1.0542
  557MOL0     H76845   9.104   3.900  14.365 -0.5044 -1.0812 -1.8278
  557MOL0     H76846   8.058   3.823  13.753  2.2042  0.6739  0.5393
  557MOL0     H76847   7.966   3.894  13.529  2.2132 -1.7568 -1.5031
  557MOL0     H76848   8.075   3.922  13.135  0.3473 -1.0320 -1.7629
  557MOL0     H76849   8.078   3.912  12.907 -0.5211 -0.4637  2.9733
  557MOL0     H76850   7.875   3.881  11.442  1.0851 -1.0388 -0.0206
  557MOL0     H76851   8.042   3.877  11.248  0.8699  0.4597 -2.1157
  557MOL0     H76852   8.148   3.702  10.917  0.4997  1.2714  1.6760
  557MOL0     H76853   8.345   3.634  10.800  2.5154  0.0271  0.8959
  557MOL0     H76854   8.542   3.590  10.737  1.8189 -1.1358  0.3377
  557MOL0     H76855   8.663   3.669  10.631  0.8336 -0.9547  1.1849
  557MOL0     H76856   8.746   3.642  10.860 -0.8273 -0.3260  0.7034
  557MOL0     H76857   8.617   3.759  10.912  1.8786 -0.3149  1.3746
  557MOL0     H76858   8.718   3.927  10.748  1.9716 -0.5739 -2.2400
  557MOL0     H76859   8.835   3.886  10.876  1.3726 -3.7457  0.8607
  557MOL0     H76860   8.936   3.895  10.645 -2.0900 -0.2961 -2.0541
  557MOL0     H76861   8.860   3.733  10.601  3.5948 -0.5542 -2.3398
  557MOL0     H76862   9.190   3.623  10.805  0.1448 -0.5190  3.0247
  557MOL0     H76863   8.448   4.031  10.697  1.5251 -1.0174  0.5237
  557MOL0     H76864   8.142   4.178  10.842 -1.3523 -2.1825 -2.3678
  557MOL0     H76865   8.289   4.199  10.940  0.8996 -0.6567  0.0968
  557MOL0     H76866   8.299   4.209  10.760  0.1209  1.7985  1.6681
  558MOL0     O76867   4.512   8.077   7.877 -0.1795  0.8777 -0.1013
  558MOL0     C76868   4.555   8.010   7.787 -0.5905 -0.1572 -0.0757
  558MOL0     O76869   4.600   8.067   7.672 -0.2149  0.1769  0.2508
  558MOL0     C76870   4.583   8.201   7.653  0.2076  0.2609 -0.0155
  558MOL0     C76871   4.693   8.280   7.625  0.6179 -0.1063  0.0131
  558MOL0     C76872   4.685   8.420   7.608  0.7200  0.3229 -0.9167
  558MOL0     C76873   4.562   8.482   7.630  0.1382 -0.5262 -0.6934
  558MOL0     O76874   4.565   8.620   7.616  0.1190  0.4799  0.7387
  558MOL0     C76875   4.442   8.690   7.618  0.7681 -0.3938  0.3347
  558MOL0     C76876   4.466   8.823   7.541 -0.3269  0.2379 -0.5110
  558MOL0     C76877   4.347   8.912   7.573  0.6511 -0.5750  0.8744
  558MOL0     C76878   4.323   9.024   7.469 -0.3780  0.0713  0.0955
  558MOL0     C76879   4.351   9.155   7.523  0.7254  0.0159 -0.1704
  558MOL0     C76880   4.237   9.194   7.625  1.2484 -0.0659 -0.2931
  558MOL0     C76881   4.236   9.341   7.640  0.4089  0.5586 -0.8181
  558MOL0     C76882   4.097   9.404   7.665 -0.7030 -0.0502  0.2228
  558MOL0     N76883   4.007   9.380   7.553  0.7289 -0.2766  1.2801
  558MOL0     C76884   4.038   9.379   7.414  0.2922 -0.0796 -0.0131
  558MOL0     C76885   3.922   9.332   7.370  0.5479  0.0253 -0.2640
  558MOL0     C76886   3.893   9.297   7.229  0.0355 -0.3818 -0.2398
  558MOL0     C76887   3.899   9.136   7.222  0.3982  0.5573  0.1672
  558MOL0     C76888   4.045   9.097   7.220  0.0175  0.1495  0.3151
  558MOL0     C76889   4.067   8.950   7.183 -0.5711 -0.0333 -1.2041
  558MOL0     O76890   4.040   8.860   7.296 -0.4649  0.0668 -0.2292
  558MOL0     C76891   4.106   8.745   7.323  1.1018 -0.9625  0.0105
  558MOL0     C76892   4.226   8.709   7.252  1.4464 -0.2605  0.4926
  558MOL0     C76893   4.281   8.586   7.261  0.0786  0.2288 -1.2626
  558MOL0     C76894   4.405   8.561   7.166  0.5774  0.0375  0.1827
  558MOL0     C76895   4.226   8.487   7.346 -0.0691  0.9618 -0.4911
  558MOL0     C76896   4.267   8.347   7.357  0.0229  0.5683  0.1716
  558MOL0     O76897   4.185   8.259   7.435  0.3801 -0.2174  0.5288
  558MOL0     C76898   4.184   8.125   7.433 -0.8851  0.8036  0.2446
  558MOL0     C76899   4.099   8.079   7.532 -0.0942  0.7393 -0.1979
  558MOL0     C76900   4.110   7.940   7.552  0.6083  0.1548 -0.6261
  558MOL0     C76901   4.189   7.854   7.473  0.1215 -0.7342  0.2925
  558MOL0     O76902   4.150   7.727   7.483 -0.5135  0.3467  0.4546
  558MOL0     C76903   4.256   7.625   7.479 -0.0217  1.0191 -0.6151
  558MOL0     C76904   4.198   7.484   7.505 -0.2881 -1.0687  1.1862
  558MOL0     C76905   4.117   7.447   7.630  0.2963 -0.7598 -0.1936
  558MOL0     C76906   3.988   7.361   7.618  0.9552  0.2410 -0.2554
  558MOL0     C76907   3.898   7.416   7.503  1.0441  0.2170 -0.8690
  558MOL0     C76908   3.753   7.349   7.500  0.5009 -0.0853  0.0344
  558MOL0     C76909   3.665   7.424   7.395 -0.0438  0.2035 -0.4560
  558MOL0     C76910   3.519   7.374   7.381  0.0767  1.0746 -0.2132
  558MOL0    Cl76911   3.493   7.194   7.338 -0.1406  0.0218 -0.4779
  558MOL0     C76912   4.277   7.906   7.379  0.0102 -0.8860 -0.3602
  558MOL0     C76913   4.276   8.045   7.361  0.8904  0.3656  0.6536
  558MOL0     O76914   4.374   8.308   7.302 -0.9317  0.4880 -0.6589
  558MOL0     C76915   4.120   8.524   7.428  0.0480 -0.6505  0.4692
  558MOL0     C76916   4.067   8.659   7.416 -0.4393  0.1175 -0.1906
  558MOL0     N76917   3.831   9.306   7.466  0.1484 -0.4240 -0.3937
  558MOL0     N76918   3.874   9.340   7.573  0.3714 -0.5681 -0.1450
  558MOL0     C76919   4.444   8.401   7.638 -0.6972  0.2636  0.3537
  558MOL0     C76920   4.458   8.265   7.650  0.8880 -1.4073 -0.8370
  558MOL0     C76921   4.557   7.861   7.815 -0.7931 -0.1178  0.7202
  558MOL0     C76922   4.619   7.788   7.712  0.6599 -0.0034  0.7430
  558MOL0     C76923   4.646   7.647   7.723  0.3643 -1.0030  0.4214
  558MOL0     C76924   4.601   7.577   7.838 -0.5070 -0.4179  0.6297
  558MOL0     O76925   4.607   7.444   7.872  0.6713  0.2857 -0.2011
  558MOL0     C76926   4.703   7.349   7.821 -0.4296 -0.5666  0.7711
  558MOL0     C76927   4.775   7.292   7.935  0.5175 -0.2159 -0.7626
  558MOL0     C76928   4.843   7.398   8.024  0.2080  0.2695  0.5713
  558MOL0     C76929   4.939   7.341   8.113 -0.7630  0.0486 -0.8499
  558MOL0     C76930   5.015   7.450   8.170 -0.4220  0.0664 -0.4475
  558MOL0     C76931   5.095   7.527   8.224  0.0861 -0.5229  1.3984
  558MOL0     C76932   4.530   7.657   7.935  0.7571  1.2719 -0.1062
  558MOL0     C76933   4.508   7.796   7.930  0.4409 -0.0126  0.3089
  558MOL0     C76934   4.445   7.859   8.058  0.0266 -0.0490  0.3705
  558MOL0     H76935   4.786   8.226   7.641  0.2751 -0.2696  1.5944
  558MOL0     H76936   4.778   8.474   7.596  0.6264  0.7576  0.2234
  558MOL0     H76937   4.403   8.705   7.719  0.8373  1.9371  0.0787
  558MOL0     H76938   4.366   8.636   7.561  0.4313 -0.4407  0.8286
  558MOL0     H76939   4.557   8.877   7.568 -0.3730  0.5281 -0.9259
  558MOL0     H76940   4.475   8.788   7.437 -0.6899 -1.0605 -0.1248
  558MOL0     H76941   4.260   8.846   7.570  1.7553 -2.0795  0.6519
  558MOL0     H76942   4.360   8.956   7.672 -1.3977  0.7070  0.6382
  558MOL0     H76943   4.378   9.015   7.375 -2.0444  2.4554 -1.2118
  558MOL0     H76944   4.217   9.026   7.440 -0.6115  0.1647  0.9412
  558MOL0     H76945   4.350   9.229   7.443  0.6321 -1.1677 -1.3151
  558MOL0     H76946   4.451   9.149   7.565  0.3955 -0.0776  0.6233
  558MOL0     H76947   4.143   9.154   7.585  1.1263 -0.8375  0.7137
  558MOL0     H76948   4.234   9.150   7.725  2.1056  0.9802  0.2028
  558MOL0     H76949   4.273   9.389   7.549  4.0200  0.6831  0.5521
  558MOL0     H76950   4.300   9.368   7.724 -2.3935 -2.9609  2.8311
  558MOL0     H76951   4.064   9.361   7.760 -0.4265  0.8074  0.7162
  558MOL0     H76952   4.107   9.511   7.680  0.6110 -0.3105  1.4920
  558MOL0     H76953   4.131   9.415   7.371  1.6800 -3.4161 -0.1097
  558MOL0     H76954   3.960   9.341   7.154  1.1809 -1.8540 -0.1170
  558MOL0     H76955   3.796   9.335   7.196  0.5457  1.5752  0.3726
  558MOL0     H76956   3.846   9.083   7.301  0.2262 -0.9717 -0.9353
  558MOL0     H76957   3.848   9.102   7.131  1.8741 -0.1296 -0.4294
  558MOL0     H76958   4.101   9.157   7.148  2.0453 -0.8668  0.9599
  558MOL0     H76959   4.082   9.130   7.317 -2.1666 -1.0467  1.6329
  558MOL0     H76960   4.003   8.915   7.101 -0.8849  0.1970 -1.0571
  558MOL0     H76961   4.173   8.948   7.158 -0.4235 -1.0706 -0.5589
  558MOL0     H76962   4.269   8.777   7.179 -1.4743 -1.2928 -2.4766
  558MOL0     H76963   4.421   8.656   7.115 -0.9622  0.2388  0.0288
  558MOL0     H76964   4.397   8.486   7.086  1.2820 -1.7802  1.7467
  558MOL0     H76965   4.498   8.541   7.220  0.8577  1.5156  0.2775
  558MOL0     H76966   4.046   8.135   7.608  1.0699  1.2095  0.2855
  558MOL0     H76967   4.045   7.891   7.624 -0.6145 -0.4023 -2.0452
  558MOL0     H76968   4.310   7.625   7.384  2.0873 -1.5217  0.4648
  558MOL0     H76969   4.321   7.642   7.565 -2.7458  1.2149  1.5473
  558MOL0     H76970   4.150   7.464   7.408 -0.0435 -0.3466  0.9094
  558MOL0     H76971   4.283   7.416   7.513 -0.6005 -1.4454  1.3363
  558MOL0     H76972   4.109   7.540   7.687 -0.0710 -0.0528 -1.3596
  558MOL0     H76973   4.186   7.393   7.696  3.6181  2.3183 -0.8224
  558MOL0     H76974   3.939   7.362   7.715 -0.3619 -0.2998 -0.8890
  558MOL0     H76975   4.023   7.262   7.585  3.3121  1.1138 -0.5771
  558MOL0     H76976   3.884   7.524   7.507 -0.8647 -0.0268  2.0037
  558MOL0     H76977   3.946   7.396   7.407  2.0672 -2.0324  0.0289
  558MOL0     H76978   3.716   7.349   7.603 -0.8875 -0.0482 -0.4373
  558MOL0     H76979   3.758   7.244   7.471 -0.2951 -0.3125  0.6605
  558MOL0     H76980   3.713   7.418   7.297  0.8045  0.3799 -0.0574
  558MOL0     H76981   3.668   7.530   7.422  1.0365  0.4350 -1.3898
  558MOL0     H76982   3.470   7.426   7.298 -0.8500 -3.0269 -2.5206
  558MOL0     H76983   3.469   7.402   7.474 -2.6335 -0.4051 -1.1239
  558MOL0     H76984   4.344   7.854   7.311  0.2003  1.1252 -1.7948
  558MOL0     H76985   4.368   8.076   7.312 -0.3636 -1.7744 -3.5463
  558MOL0     H76986   4.080   8.461   7.506  1.4598 -0.7231  1.1575
  558MOL0     H76987   3.979   8.692   7.471 -0.3280  0.6108 -0.3005
  558MOL0     H76988   4.343   8.436   7.623  0.1320  2.1753 -1.3301
  558MOL0     H76989   4.366   8.210   7.662 -0.5340  0.8786 -0.7105
  558MOL0     H76990   4.633   7.837   7.616 -1.7458 -2.2717 -0.8984
  558MOL0     H76991   4.693   7.585   7.648 -0.9770 -1.7968  0.2057
  558MOL0     H76992   4.651   7.277   7.757 -1.0383  0.7673 -0.2931
  558MOL0     H76993   4.780   7.401   7.764 -1.7012  2.8328  1.8924
  558MOL0     H76994   4.860   7.232   7.901  3.5894  2.3977  1.6386
  558MOL0     H76995   4.701   7.245   8.000 -0.1132  0.8153 -0.7195
  558MOL0     H76996   4.899   7.471   7.964 -0.3232  5.7652  5.8199
  558MOL0     H76997   4.769   7.454   8.082 -1.5720 -2.4031  1.0763
  558MOL0     H76998   4.993   7.277   8.042 -2.2623  0.2511 -2.2115
  558MOL0     H76999   4.903   7.276   8.193  3.8155 -2.8846 -0.7663
  558MOL0     H77000   5.178   7.570   8.278 -0.2470 -2.0514  3.2496
  558MOL0     H77001   4.509   7.609   8.030 -0.4423 -1.5173 -1.6778
  558MOL0     H77002   4.450   7.968   8.058 -1.5108  0.0638 -0.9282
  558MOL0     H77003   4.339   7.831   8.064  0.5391 -1.8794  1.4761
  558MOL0     H77004   4.498   7.827   8.148  2.4262  0.8463 -0.6554
  559MOL0     O77005   9.491   5.007   2.876 -0.1297  0.0648  0.6091
  559MOL0     C77006   9.595   5.060   2.909  0.7425  0.1787 -0.3492
  559MOL0     O77007   9.718   5.015   2.887  0.1335  0.2157  0.0580
  559MOL0     C77008   9.755   4.927   2.785 -0.0088 -0.8437 -0.2533
  559MOL0     C77009   9.874   4.955   2.723  1.2657 -0.6416  0.5095
  559MOL0     C77010   9.914   4.891   2.603 -0.2224 -0.2886 -0.6663
  559MOL0     C77011   9.853   4.787   2.557 -0.5492  0.3843  0.6653
  559MOL0     O77012   9.911   4.733   2.452 -0.1350 -0.2583  0.3018
  559MOL0     C77013   9.869   4.605   2.404  0.4799  0.5322 -0.1876
  559MOL0     C77014   9.982   4.543   2.315  0.6087 -0.6251  0.0278
  559MOL0     C77015   9.968   4.576   2.164 -0.0177  0.5087  0.1303
  559MOL0     C77016  10.109   4.551   2.088 -0.1617  0.2173  0.5434
  559MOL0     C77017  10.090   4.555   1.938 -0.0997  0.5173 -0.4944
  559MOL0     C77018  10.075   4.699   1.883  0.2757  0.4723  0.5998
  559MOL0     C77019  10.085   4.717   1.730  0.0656  0.4358  0.1969
  559MOL0     C77020   9.962   4.634   1.668 -0.4086  0.0173  0.3149
  559MOL0     N77021   9.971   4.607   1.525  0.8593 -0.4563 -0.3724
  559MOL0     C77022   9.987   4.706   1.430 -0.1464 -0.3508  0.6935
  559MOL0     C77023  10.024   4.646   1.321 -0.5855  0.0685  0.3948
  559MOL0     C77024  10.091   4.712   1.198  0.2918 -0.4686  0.0726
  559MOL0     C77025  10.202   4.627   1.137 -1.0675 -0.8987  0.6077
  559MOL0     C77026  10.255   4.715   1.021  1.4094 -0.0422 -0.2263
  559MOL0     C77027  10.365   4.637   0.961 -0.9109  0.2168 -0.4986
  559MOL0     O77028  10.476   4.719   0.925 -0.0926 -0.5456  0.7796
  559MOL0     C77029  10.598   4.662   0.885  0.0423 -0.6798 -0.1506
  559MOL0     C77030  10.711   4.741   0.890 -0.3890 -0.1359  0.0425
  559MOL0     C77031  10.832   4.706   0.833 -0.9704  0.2367 -0.9468
  559MOL0     C77032  10.941   4.812   0.840  0.6563 -0.2956 -0.1754
  559MOL0     C77033  10.846   4.581   0.783 -0.1584  0.4480  0.2279
  559MOL0     C77034  10.974   4.517   0.746 -0.9913  0.5730  0.6795
  559MOL0     O77035  10.972   4.380   0.707 -0.5105 -0.0389 -0.0054
  559MOL0     C77036  11.091   4.332   0.659  0.1748 -0.3495  0.2847
  559MOL0     C77037  11.159   4.243   0.738 -0.0009 -0.0824  0.5044
  559MOL0     C77038  11.278   4.187   0.688 -0.2509 -0.4550  0.0507
  559MOL0     C77039  11.331   4.221   0.565 -0.3275  0.4725 -0.1775
  559MOL0     O77040  11.442   4.165   0.511  0.2384  0.7240 -1.0736
  559MOL0     C77041  11.570   4.191   0.583  0.9794 -1.0161  0.5541
  559MOL0     C77042  11.591   4.342   0.640  0.7477  1.0587 -0.3907
  559MOL0     C77043  11.731   4.376   0.669 -1.1651 -0.8367 -0.5280
  559MOL0     C77044  11.750   4.524   0.720 -0.2351 -0.1123 -0.1378
  559MOL0     C77045  11.895   4.562   0.690  0.5533 -0.4232  1.0311
  559MOL0     C77046  11.901   4.706   0.622 -0.4362  0.6612 -1.2539
  559MOL0     C77047  11.846   4.700   0.485 -0.2098  0.6715  0.2750
  559MOL0     C77048  11.863   4.838   0.409  0.0456 -1.0882 -0.2280
  559MOL0    Cl77049  11.800   4.831   0.241  0.0977 -0.5313  0.2521
  559MOL0     C77050  11.250   4.301   0.488 -0.4845  1.3626  0.0060
  559MOL0     C77051  11.128   4.360   0.531  0.2570 -0.0381  0.6026
  559MOL0     O77052  11.074   4.585   0.726  0.1074  0.2833 -0.9693
  559MOL0     C77053  10.731   4.495   0.778  0.1094  0.4012  0.1756
  559MOL0     C77054  10.617   4.534   0.820  0.6897  0.1316 -0.3787
  559MOL0     N77055  10.025   4.509   1.345 -0.2993  0.2848 -1.1149
  559MOL0     N77056   9.972   4.485   1.460 -0.6716 -0.4907  0.2908
  559MOL0     C77057   9.736   4.743   2.615  0.9064 -0.0660 -0.4466
  559MOL0     C77058   9.688   4.818   2.727 -0.4340 -0.4096  0.4473
  559MOL0     C77059   9.586   5.175   3.005  0.1290  0.2484 -0.8615
  559MOL0     C77060   9.706   5.244   3.047 -0.9932 -0.2483 -0.7818
  559MOL0     C77061   9.699   5.359   3.124 -0.2703  0.2851  0.3080
  559MOL0     C77062   9.578   5.418   3.144 -0.3971  0.4361 -0.2976
  559MOL0     O77063   9.583   5.538   3.213  0.4567 -0.0959 -0.2971
  559MOL0     C77064   9.447   5.570   3.278 -0.5458 -0.5218 -0.3868
  559MOL0     C77065   9.455   5.688   3.374 -0.3438 -0.7957  0.8855
  559MOL0     C77066   9.464   5.812   3.289  0.0294 -0.2268  0.5849
  559MOL0     C77067   9.457   5.939   3.372  0.7086 -0.4881  1.1274
  559MOL0     C77068   9.466   6.058   3.286 -0.2244  0.4783  0.4498
  559MOL0     C77069   9.481   6.151   3.210 -0.4823  0.7616  0.0009
  559MOL0     C77070   9.463   5.353   3.105  0.4349 -0.3473 -0.4302
  559MOL0     C77071   9.467   5.235   3.043  0.0845 -0.2324 -0.3111
  559MOL0     C77072   9.328   5.177   3.010  0.2419  0.2188 -0.3066
  559MOL0     H77073   9.935   5.034   2.764 -0.2356  0.8541  0.0102
  559MOL0     H77074  10.001   4.937   2.557  0.8234 -1.9329 -0.4119
  559MOL0     H77075   9.776   4.606   2.345  1.3097  0.8021 -1.5334
  559MOL0     H77076   9.856   4.531   2.482  2.7029 -0.0987 -0.3702
  559MOL0     H77077  10.078   4.590   2.341 -0.5511  0.0166  3.7102
  559MOL0     H77078   9.982   4.434   2.324  0.7418 -0.4838  2.3775
  559MOL0     H77079   9.897   4.511   2.111  0.0073  1.6202 -1.3100
  559MOL0     H77080   9.931   4.678   2.151 -0.8955  0.0260 -1.3366
  559MOL0     H77081  10.158   4.648   2.102 -1.0233  1.0933 -1.9119
  559MOL0     H77082  10.177   4.472   2.121 -1.1190 -0.9594 -0.1988
  559MOL0     H77083  10.008   4.486   1.916  0.9426 -2.7540  4.2496
  559MOL0     H77084  10.191   4.527   1.905  1.0483  0.9408  2.3658
  559MOL0     H77085   9.981   4.746   1.916  0.6526  0.0936  2.3432
  559MOL0     H77086  10.161   4.757   1.920 -2.0311  2.8944  2.6319
  559MOL0     H77087  10.178   4.671   1.696 -0.0507  0.8397 -0.6672
  559MOL0     H77088  10.086   4.822   1.702  0.3053  0.6270  0.8937
  559MOL0     H77089   9.951   4.537   1.718  0.4236 -1.1438 -1.6402
  559MOL0     H77090   9.877   4.699   1.690  0.8597  0.8580  3.2160
  559MOL0     H77091  10.022   4.804   1.461 -0.6508 -0.7427  2.6500
  559MOL0     H77092  10.131   4.812   1.218  1.0606 -0.8234  0.3548
  559MOL0     H77093  10.007   4.730   1.130 -3.2362 -0.7899  3.9504
  559MOL0     H77094  10.275   4.610   1.217 -1.7371  1.1670  1.7355
  559MOL0     H77095  10.152   4.538   1.097 -1.5966  0.8554 -2.9764
  559MOL0     H77096  10.176   4.741   0.950  1.4673 -0.1162 -0.3177
  559MOL0     H77097  10.285   4.810   1.068  0.5134  0.1196  0.0445
  559MOL0     H77098  10.398   4.548   1.016 -1.4692  0.3273  0.0327
  559MOL0     H77099  10.331   4.600   0.864 -0.7405  2.6393 -1.5482
  559MOL0     H77100  10.698   4.841   0.930  1.4654  1.8961 -3.8330
  559MOL0     H77101  10.902   4.900   0.892  0.2858 -0.6772  0.1929
  559MOL0     H77102  10.952   4.856   0.740 -0.9064 -0.7950 -0.5995
  559MOL0     H77103  11.029   4.772   0.890  0.6463  1.5277  1.3795
  559MOL0     H77104  11.113   4.204   0.828 -0.8232 -1.2276 -0.3718
  559MOL0     H77105  11.341   4.124   0.749  0.0428  1.2152  1.5281
  559MOL0     H77106  11.569   4.122   0.669 -1.6920  0.1470  1.5744
  559MOL0     H77107  11.651   4.155   0.518 -1.4466 -1.6473 -2.3399
  559MOL0     H77108  11.550   4.424   0.581  0.8866  0.5827 -1.1656
  559MOL0     H77109  11.552   4.325   0.741  2.3231  0.8717  0.2248
  559MOL0     H77110  11.774   4.370   0.569 -0.3924 -3.9258 -0.0967
  559MOL0     H77111  11.778   4.297   0.729 -1.9051  0.4900  1.9304
  559MOL0     H77112  11.732   4.540   0.826  1.0975 -1.6901  0.3727
  559MOL0     H77113  11.682   4.582   0.657 -2.2102 -1.9309  0.2346
  559MOL0     H77114  11.951   4.570   0.783 -2.0776  0.5355  2.6587
  559MOL0     H77115  11.940   4.494   0.617 -1.0899  1.2104 -1.6872
  559MOL0     H77116  12.009   4.721   0.627 -0.4866  0.6833  0.6661
  559MOL0     H77117  11.852   4.772   0.695  0.4320 -1.9672  1.9486
  559MOL0     H77118  11.740   4.671   0.487 -0.0436 -0.3319 -2.3828
  559MOL0     H77119  11.909   4.633   0.427  2.1876  2.0137  1.2071
  559MOL0     H77120  11.971   4.855   0.407  0.2386 -1.3751  3.1729
  559MOL0     H77121  11.828   4.927   0.460  0.4185 -2.0311  1.7580
  559MOL0     H77122  11.281   4.326   0.387 -1.3984  0.8999 -0.3982
  559MOL0     H77123  11.071   4.419   0.460  1.0445 -2.6158 -2.4246
  559MOL0     H77124  10.729   4.403   0.720 -1.2335  0.7701 -0.3904
  559MOL0     H77125  10.533   4.467   0.814  2.4109 -2.2384  0.3978
  559MOL0     H77126   9.689   4.658   2.567 -1.8987  0.1435  1.6516
  559MOL0     H77127   9.599   4.779   2.774 -0.0806  0.0710  1.5528
  559MOL0     H77128   9.807   5.206   3.035 -1.4985 -1.4794 -1.2409
  559MOL0     H77129   9.784   5.414   3.162  0.0139  0.3945 -0.4680
  559MOL0     H77130   9.374   5.588   3.198  1.4444  0.0058 -2.1654
  559MOL0     H77131   9.420   5.488   3.345  1.7705  0.9894  2.6645
  559MOL0     H77132   9.539   5.678   3.443  2.6991 -5.3553 -2.7848
  559MOL0     H77133   9.369   5.689   3.442  0.7948  1.2222  2.4065
  559MOL0     H77134   9.558   5.822   3.233 -0.1616  3.5812  0.6783
  559MOL0     H77135   9.380   5.808   3.219  1.7070  0.2064 -1.5471
  559MOL0     H77136   9.538   5.931   3.444  1.2849  3.2484  1.0810
  559MOL0     H77137   9.358   5.947   3.418 -0.5840 -1.3152 -1.2755
  559MOL0     H77138   9.498   6.225   3.134  1.5412 -0.9019 -1.2928
  559MOL0     H77139   9.364   5.396   3.117 -0.0214 -1.5807  0.3875
  559MOL0     H77140   9.310   5.184   2.902 -0.3016 -0.9887 -0.3131
  559MOL0     H77141   9.332   5.071   3.035  0.2074 -0.0665 -1.4787
  559MOL0     H77142   9.242   5.225   3.059  1.3299  0.7479  1.1414
  560MOL0     O77143   7.920   7.676   7.923 -0.1892 -0.3358  0.3817
  560MOL0     C77144   7.998   7.624   7.841 -0.6207  0.3312 -0.0522
  560MOL0     O77145   8.001   7.664   7.711  0.0813 -0.0190 -1.5178
  560MOL0     C77146   7.901   7.746   7.660 -0.9589 -0.1879  0.2569
  560MOL0     C77147   7.773   7.766   7.695 -0.3047  0.6859 -0.3193
  560MOL0     C77148   7.680   7.843   7.622 -0.6020 -0.3140  0.4831
  560MOL0     C77149   7.717   7.895   7.495 -0.3912 -0.5548 -0.5872
  560MOL0     O77150   7.619   7.939   7.415 -0.6356  0.4441  1.0072
  560MOL0     C77151   7.531   8.039   7.456 -0.9760 -0.5137 -0.7311
  560MOL0     C77152   7.543   8.149   7.347  0.0704 -0.0813  0.0198
  560MOL0     C77153   7.450   8.275   7.382  0.8152 -0.6270  0.0813
  560MOL0     C77154   7.514   8.398   7.316 -0.3355 -0.3972 -0.0532
  560MOL0     C77155   7.460   8.531   7.357 -0.1887 -0.2148 -0.3994
  560MOL0     C77156   7.464   8.560   7.511 -0.5980 -0.2545 -0.6949
  560MOL0     C77157   7.385   8.692   7.545  0.4442  0.1466 -0.2377
  560MOL0     C77158   7.393   8.729   7.694 -0.0473 -0.0377  0.9397
  560MOL0     N77159   7.514   8.675   7.764  0.0756 -0.5940 -0.1791
  560MOL0     C77160   7.642   8.732   7.769  0.6226 -0.2586 -0.4111
  560MOL0     C77161   7.712   8.652   7.852  0.0459 -0.7020 -0.3050
  560MOL0     C77162   7.859   8.680   7.883  0.0703  1.0103 -0.1331
  560MOL0     C77163   7.951   8.700   7.765  0.4246  0.9192  0.3415
  560MOL0     C77164   8.058   8.802   7.792 -0.4927 -0.5777 -0.6112
  560MOL0     C77165   8.178   8.810   7.699 -0.0442  0.9998  0.3839
  560MOL0     O77166   8.259   8.927   7.731  0.1746  0.0799 -0.7254
  560MOL0     C77167   8.259   9.030   7.639  0.5477  1.1729 -0.9114
  560MOL0     C77168   8.235   9.027   7.509  0.2048  0.1791  1.0072
  560MOL0     C77169   8.263   9.135   7.420  0.4090 -0.1909 -0.4663
  560MOL0     C77170   8.224   9.114   7.282  0.1107 -0.8557  0.5946
  560MOL0     C77171   8.296   9.266   7.476  0.1157  1.3285 -0.2927
  560MOL0     C77172   8.311   9.380   7.385  0.0871  0.0198  0.3794
  560MOL0     O77173   8.315   9.504   7.449 -0.4292 -0.0839  0.5071
  560MOL0     C77174   8.308   9.625   7.373  0.0405  0.6166  0.1011
  560MOL0     C77175   8.427   9.704   7.351  0.5299  0.4833  0.3954
  560MOL0     C77176   8.418   9.829   7.283  0.6153 -0.6075  0.4556
  560MOL0     C77177   8.291   9.883   7.244  0.4952 -0.0145 -0.0709
  560MOL0     O77178   8.288  10.008   7.194  0.6661 -0.8306  0.3864
  560MOL0     C77179   8.260  10.032   7.053 -0.0830 -0.5929  0.1787
  560MOL0     C77180   8.396  10.018   6.978 -0.2159 -0.0356 -0.0007
  560MOL0     C77181   8.384  10.009   6.824  0.9799 -0.1575 -0.1555
  560MOL0     C77182   8.516   9.974   6.763  0.3516  0.2897 -1.1881
  560MOL0     C77183   8.522   9.955   6.607 -0.7972  0.2403 -0.4319
  560MOL0     C77184   8.479  10.089   6.528  1.0931 -0.2332  0.6483
  560MOL0     C77185   8.474  10.075   6.370  0.8770  0.2469  0.0590
  560MOL0     C77186   8.391   9.957   6.311 -0.1932  0.6457  0.7093
  560MOL0    Cl77187   8.423   9.953   6.133  0.0536  0.4055  0.7083
  560MOL0     C77188   8.179   9.810   7.285  0.1698  0.7513  0.4837
  560MOL0     C77189   8.189   9.669   7.329  0.1696  0.0328  0.8947
  560MOL0     O77190   8.317   9.366   7.268 -0.2457 -0.3276 -0.1445
  560MOL0     C77191   8.311   9.265   7.621  0.1878 -0.2343  0.4115
  560MOL0     C77192   8.296   9.147   7.697 -0.4270 -0.6874  0.3152
  560MOL0     N77193   7.632   8.554   7.902 -0.3513  0.5071 -0.9946
  560MOL0     N77194   7.517   8.571   7.842 -0.1081 -0.2978  0.3832
  560MOL0     C77195   7.852   7.882   7.462  0.3002 -0.7550 -0.8995
  560MOL0     C77196   7.940   7.807   7.542 -0.2067 -0.1098  0.4242
  560MOL0     C77197   8.082   7.521   7.899 -0.3376 -0.1566  0.4216
  560MOL0     C77198   8.110   7.525   8.037 -0.3434  0.1789  0.0962
  560MOL0     C77199   8.188   7.428   8.097  1.0398 -0.1020  0.6560
  560MOL0     C77200   8.238   7.324   8.021 -0.1907  0.1916  0.1189
  560MOL0     O77201   8.325   7.230   8.070  0.8010  0.1134 -0.0307
  560MOL0     C77202   8.346   7.195   8.212 -0.0239  0.1594  0.2597
  560MOL0     C77203   8.448   7.292   8.272  0.8616  0.3307 -0.0914
  560MOL0     C77204   8.488   7.238   8.413 -0.0205 -0.5470 -0.3604
  560MOL0     C77205   8.588   7.330   8.488 -0.6854  0.5652 -0.0948
  560MOL0     C77206   8.724   7.340   8.426 -0.2125  0.0036  0.5940
  560MOL0     C77207   8.836   7.373   8.385 -1.0825  0.0138 -0.0067
  560MOL0     C77208   8.224   7.327   7.881 -0.2841  0.4270  0.3053
  560MOL0     C77209   8.138   7.419   7.818 -1.4485  0.3597  0.2324
  560MOL0     C77210   8.117   7.400   7.661 -0.2347  0.0619 -0.2769
  560MOL0     H77211   7.742   7.704   7.778  0.5280  2.6071  1.5362
  560MOL0     H77212   7.579   7.841   7.661 -1.0646  1.7713 -0.4593
  560MOL0     H77213   7.554   8.071   7.558 -0.7701 -0.2573 -0.8558
  560MOL0     H77214   7.426   8.009   7.453 -1.4526  0.8505  0.8342
  560MOL0     H77215   7.649   8.176   7.351  0.0524  0.6451 -2.6695
  560MOL0     H77216   7.514   8.112   7.248  0.1638 -1.8938  0.6297
  560MOL0     H77217   7.345   8.248   7.368  0.5689  0.0755  0.5176
  560MOL0     H77218   7.458   8.283   7.490 -2.6121 -0.1410  0.3900
  560MOL0     H77219   7.620   8.389   7.341  0.2972  0.2567 -2.2966
  560MOL0     H77220   7.500   8.398   7.208 -1.6294 -1.4769  0.0767
  560MOL0     H77221   7.354   8.527   7.331 -0.3729 -3.1231  0.4013
  560MOL0     H77222   7.510   8.606   7.295  1.1079  1.0632  2.0397
  560MOL0     H77223   7.423   8.480   7.574  0.1035  0.0039  0.1039
  560MOL0     H77224   7.570   8.555   7.538 -0.8381 -1.9990  0.0775
  560MOL0     H77225   7.279   8.677   7.522  0.1736 -0.2190  1.1179
  560MOL0     H77226   7.417   8.778   7.486  2.1722  1.5257  2.4574
  560MOL0     H77227   7.391   8.837   7.705  0.7109  0.0601  0.2153
  560MOL0     H77228   7.302   8.686   7.737  0.7308 -4.2559 -1.0668
  560MOL0     H77229   7.665   8.822   7.712 -2.9561 -0.0132 -1.7572
  560MOL0     H77230   7.903   8.605   7.950  0.4345  0.3052 -1.1481
  560MOL0     H77231   7.868   8.774   7.939 -0.2755  1.0362 -0.1192
  560MOL0     H77232   8.007   8.609   7.740  1.6167  1.3848  1.1861
  560MOL0     H77233   7.893   8.733   7.678  1.8909  0.9861 -0.6564
  560MOL0     H77234   8.016   8.902   7.802  5.8102  2.6549 -1.2539
  560MOL0     H77235   8.098   8.782   7.892  2.0496  1.0302 -1.1966
  560MOL0     H77236   8.233   8.715   7.703  0.1107  0.9735 -1.4182
  560MOL0     H77237   8.127   8.808   7.602  0.0510 -1.4902  0.3206
  560MOL0     H77238   8.201   8.932   7.470 -0.5275  0.5146  0.8037
  560MOL0     H77239   8.150   9.188   7.250  1.6426  0.8855  0.8525
  560MOL0     H77240   8.187   9.015   7.255 -1.5980 -0.5194  1.6227
  560MOL0     H77241   8.306   9.123   7.210  0.0764  0.8409  0.7179
  560MOL0     H77242   8.514   9.644   7.377 -0.4622 -1.1943  0.0331
  560MOL0     H77243   8.515   9.874   7.266  1.1262 -2.2538 -1.2247
  560MOL0     H77244   8.194   9.964   7.000  3.6745 -1.7224 -3.5276
  560MOL0     H77245   8.233  10.138   7.041 -1.3816 -0.7054  1.7078
  560MOL0     H77246   8.470  10.092   7.008 -1.3663  0.4582  1.7949
  560MOL0     H77247   8.438   9.922   7.011  0.3682 -0.1795 -1.1149
  560MOL0     H77248   8.340  10.103   6.789  0.6341  0.5178  1.9779
  560MOL0     H77249   8.312   9.930   6.800 -0.4298  1.2273 -0.6392
  560MOL0     H77250   8.539   9.884   6.821 -4.1198  0.3092  1.0794
  560MOL0     H77251   8.584  10.056   6.787  0.2820  0.0211  0.0078
  560MOL0     H77252   8.623   9.930   6.573 -1.0466 -0.1552 -0.8830
  560MOL0     H77253   8.458   9.870   6.585 -1.2269  1.0083 -2.3542
  560MOL0     H77254   8.539  10.180   6.542 -2.9331  3.1224 -1.6088
  560MOL0     H77255   8.388  10.121   6.578  1.2053 -1.0058  1.3494
  560MOL0     H77256   8.579  10.072   6.340 -0.4113 -1.1491 -5.3536
  560MOL0     H77257   8.432  10.160   6.317  0.1891 -0.1370 -0.0191
  560MOL0     H77258   8.287   9.971   6.342 -0.7462 -1.7046  0.1287
  560MOL0     H77259   8.421   9.859   6.351  1.3371 -0.1491 -2.0965
  560MOL0     H77260   8.078   9.844   7.264  1.0506  1.7867 -2.5955
  560MOL0     H77261   8.098   9.612   7.343  1.0734 -1.3461  1.4288
  560MOL0     H77262   8.340   9.353   7.678 -2.2088  0.5388  0.5328
  560MOL0     H77263   8.319   9.146   7.804 -1.6542  0.7770  0.6235
  560MOL0     H77264   7.892   7.937   7.377  0.4840 -2.4110 -1.9241
  560MOL0     H77265   8.046   7.793   7.523 -0.0226 -1.6928  2.3066
  560MOL0     H77266   8.074   7.595   8.112  0.4304 -0.0149  0.6707
  560MOL0     H77267   8.199   7.438   8.204  0.6001  2.3664  0.5430
  560MOL0     H77268   8.253   7.206   8.270  0.8962 -2.0129  2.2853
  560MOL0     H77269   8.383   7.092   8.220  1.4166  0.4521 -1.7416
  560MOL0     H77270   8.397   7.388   8.278  1.3403  0.7269 -1.7346
  560MOL0     H77271   8.525   7.308   8.195 -1.4404  0.3561 -2.5354
  560MOL0     H77272   8.404   7.228   8.482  0.3703  0.1635  0.2321
  560MOL0     H77273   8.525   7.135   8.402  0.0406 -0.3734 -1.9959
  560MOL0     H77274   8.604   7.297   8.591  0.5913  0.5088 -0.2959
  560MOL0     H77275   8.552   7.433   8.497  0.4530  0.9419  0.2867
  560MOL0     H77276   8.935   7.391   8.347  0.0130 -1.0376  2.1184
  560MOL0     H77277   8.275   7.248   7.827  1.4308  2.9505 -2.0523
  560MOL0     H77278   8.133   7.494   7.608 -3.2249  2.2204  2.3268
  560MOL0     H77279   8.184   7.321   7.624 -0.8335 -0.3781 -0.4261
  560MOL0     H77280   8.017   7.360   7.643  0.3598 -1.4299 -0.4568
  561MOL0     O77281   1.388   0.351  10.620  0.8324 -0.4288  0.0272
  561MOL0     C77282   1.470   0.290  10.681 -0.3656  0.5438  0.6598
  561MOL0     O77283   1.533   0.323  10.792 -0.3156  0.8153 -0.4576
  561MOL0     C77284   1.522   0.449  10.850  0.4570  0.5092 -0.3268
  561MOL0     C77285   1.561   0.462  10.978 -0.1453 -0.2379 -0.2792
  561MOL0     C77286   1.533   0.575  11.052 -0.0552 -0.3261  0.3511
  561MOL0     C77287   1.486   0.694  10.987 -0.4337  0.6138 -0.1670
  561MOL0     O77288   1.471   0.808  11.066 -0.2217  0.2804 -0.1585
  561MOL0     C77289   1.407   0.927  11.019  0.5204  0.5090 -0.4369
  561MOL0     C77290   1.431   1.050  11.108 -0.3844 -0.0285 -0.4137
  561MOL0     C77291   1.532   1.037  11.221 -0.7298 -0.4316 -0.2723
  561MOL0     C77292   1.478   0.980  11.354 -0.8198 -1.0580 -0.8067
  561MOL0     C77293   1.573   0.993  11.470  1.5228  0.6020  0.2613
  561MOL0     C77294   1.502   0.955  11.603 -0.2574  0.1913 -0.4223
  561MOL0     C77295   1.578   1.014  11.719 -1.2957  0.3264  0.3447
  561MOL0     C77296   1.524   1.149  11.761  0.5663 -0.3596  0.8101
  561MOL0     N77297   1.578   1.181  11.895  0.0235  1.0440  0.7000
  561MOL0     C77298   1.709   1.217  11.934  0.9905 -2.0946  0.4617
  561MOL0     C77299   1.697   1.219  12.063  0.7114  0.0547 -0.1289
  561MOL0     C77300   1.809   1.266  12.164  0.7312  0.1903  0.4006
  561MOL0     C77301   1.912   1.146  12.194  0.6549 -0.2791  0.0911
  561MOL0     C77302   2.039   1.194  12.274  0.7272 -0.0177 -0.7435
  561MOL0     C77303   2.099   1.322  12.198 -0.0376  0.0688 -0.4296
  561MOL0     O77304   2.091   1.334  12.056 -0.1505  1.0581 -0.2541
  561MOL0     C77305   2.142   1.448  12.010 -0.9275  0.0518  1.5759
  561MOL0     C77306   2.231   1.428  11.904 -0.0838 -0.0622 -0.6541
  561MOL0     C77307   2.304   1.533  11.857 -0.2961 -0.3004  0.7317
  561MOL0     C77308   2.397   1.508  11.744 -0.1859  0.3395  0.0709
  561MOL0     C77309   2.284   1.659  11.913 -0.3205  0.2463  0.3252
  561MOL0     C77310   2.361   1.775  11.866  0.3521  0.5519  0.5408
  561MOL0     O77311   2.479   1.796  11.918 -0.0803  0.9638  0.2416
  561MOL0     C77312   2.566   1.886  11.864 -0.0957  0.3228  0.4365
  561MOL0     C77313   2.668   1.925  11.944  1.1546 -0.3963  0.4847
  561MOL0     C77314   2.769   2.005  11.897  0.9876  0.8473 -0.0886
  561MOL0     C77315   2.759   2.047  11.764 -0.1706  0.4588 -0.5228
  561MOL0     O77316   2.857   2.135  11.713  0.3269 -0.3797  0.9766
  561MOL0     C77317   2.857   2.269  11.763  0.5482  0.6783 -0.4826
  561MOL0     C77318   2.958   2.351  11.682  0.4858  0.7462 -0.1447
  561MOL0     C77319   3.098   2.289  11.690 -0.5996  0.0547 -0.3511
  561MOL0     C77320   3.196   2.387  11.626 -0.5019  0.4422 -0.5686
  561MOL0     C77321   3.333   2.321  11.594  0.2749 -0.8717  0.3904
  561MOL0     C77322   3.432   2.399  11.507  0.2480 -0.1631 -0.0341
  561MOL0     C77323   3.427   2.342  11.364 -0.7590 -0.3717  0.1759
  561MOL0     C77324   3.538   2.404  11.283 -0.2777  0.4198  0.0203
  561MOL0    Cl77325   3.512   2.345  11.118  0.3948  0.7467  0.2014
  561MOL0     C77326   2.652   2.003  11.683  0.0236  0.5017 -0.3938
  561MOL0     C77327   2.559   1.917  11.729 -0.1169  0.4174  0.0465
  561MOL0     O77328   2.299   1.850  11.789  0.9417 -0.6325  0.1772
  561MOL0     C77329   2.199   1.675  12.014  0.1792 -0.6347  0.0351
  561MOL0     C77330   2.124   1.577  12.066 -0.5992 -0.0201 -0.3853
  561MOL0     N77331   1.570   1.201  12.111  0.5019 -0.1551 -0.3039
  561MOL0     N77332   1.497   1.186  12.004  0.1790  0.9995  0.6396
  561MOL0     C77333   1.470   0.683  10.850  0.7905 -0.5795 -0.7721
  561MOL0     C77334   1.486   0.567  10.781  0.0246  0.1774 -0.1894
  561MOL0     C77335   1.511   0.162  10.624  0.9394  0.6143 -1.1637
  561MOL0     C77336   1.570   0.067  10.714 -0.3364  0.6273 -0.2662
  561MOL0     C77337   1.609  -0.063  10.668 -0.0150  0.4385 -0.2988
  561MOL0     C77338   1.584  -0.101  10.537 -0.3001 -0.2536 -0.1111
  561MOL0     O77339   1.616  -0.226  10.477 -0.5918 -0.8827 -0.5811
  561MOL0     C77340   1.648  -0.334  10.565 -0.1038  0.5757 -0.2839
  561MOL0     C77341   1.653  -0.463  10.486 -0.3431  0.4550 -1.3665
  561MOL0     C77342   1.803  -0.514  10.454  0.1856 -0.1748  0.0179
  561MOL0     C77343   1.835  -0.647  10.378  0.7556  0.2938 -0.5647
  561MOL0     C77344   1.769  -0.770  10.440 -0.7814 -0.6264 -0.2691
  561MOL0     C77345   1.719  -0.861  10.512 -1.3053 -0.4480 -0.3817
  561MOL0     C77346   1.526  -0.008  10.454  0.3945  0.3420 -0.5611
  561MOL0     C77347   1.478   0.116  10.491 -0.2536 -0.1254  0.5374
  561MOL0     C77348   1.388   0.191  10.396  0.5759 -1.0903  0.9975
  561MOL0     H77349   1.582   0.372  11.034 -1.1186  0.5711  1.4806
  561MOL0     H77350   1.543   0.581  11.160 -2.5112  2.1542  0.5547
  561MOL0     H77351   1.302   0.898  11.022  1.4240 -3.3705 -1.3668
  561MOL0     H77352   1.422   0.949  10.913  1.0050 -0.2850 -0.5427
  561MOL0     H77353   1.483   1.124  11.046  0.8964  0.3021  0.9986
  561MOL0     H77354   1.345   1.111  11.137  0.5515  2.6033 -2.6568
  561MOL0     H77355   1.615   0.972  11.191  0.4973  1.8522 -2.1237
  561MOL0     H77356   1.589   1.129  11.234 -1.8608  0.5648 -2.0622
  561MOL0     H77357   1.390   1.038  11.384 -0.3662 -0.3104 -0.8974
  561MOL0     H77358   1.444   0.876  11.346 -2.7068 -0.4648 -0.8764
  561MOL0     H77359   1.591   1.101  11.476 -0.6927  1.5469 -4.7643
  561MOL0     H77360   1.665   0.938  11.445  1.3055 -0.3390  1.4645
  561MOL0     H77361   1.394   0.973  11.608 -0.4252 -0.7431 -0.3939
  561MOL0     H77362   1.511   0.846  11.614 -3.2845 -0.1255 -0.1613
  561MOL0     H77363   1.684   1.028  11.695 -0.4004 -4.9146  0.1437
  561MOL0     H77364   1.579   0.949  11.807  0.7660  1.8652  1.5551
  561MOL0     H77365   1.565   1.230  11.700  2.5679  0.5753  3.1924
  561MOL0     H77366   1.415   1.148  11.766  0.2015 -0.6026 -3.6465
  561MOL0     H77367   1.799   1.223  11.874  0.8295  1.0720  0.3648
  561MOL0     H77368   1.751   1.287  12.254 -1.0797  0.3684 -0.7365
  561MOL0     H77369   1.864   1.358  12.140 -2.5258  2.7417  1.9433
  561MOL0     H77370   1.860   1.068  12.251  1.5274 -0.6828  0.3438
  561MOL0     H77371   1.945   1.115  12.095 -2.7158  0.1279 -1.2944
  561MOL0     H77372   2.006   1.237  12.370  2.2813  1.0999 -0.6709
  561MOL0     H77373   2.115   1.117  12.288  0.1471 -0.3502  0.8584
  561MOL0     H77374   2.037   1.399  12.246 -0.3644  0.0549 -0.8314
  561MOL0     H77375   2.198   1.348  12.238  0.5702 -2.8953  0.1887
  561MOL0     H77376   2.245   1.328  11.865 -1.8089  0.5626 -3.0859
  561MOL0     H77377   2.410   1.400  11.727  0.4070  0.3785  0.2490
  561MOL0     H77378   2.494   1.554  11.766 -0.4850  1.0104  0.0066
  561MOL0     H77379   2.348   1.552  11.657  0.2208 -0.9702 -0.8493
  561MOL0     H77380   2.673   1.881  12.043 -0.6540 -1.6323  0.0698
  561MOL0     H77381   2.835   2.052  11.969  0.7517  0.4594  0.3864
  561MOL0     H77382   2.762   2.324  11.767 -0.0897 -0.4649  0.9225
  561MOL0     H77383   2.892   2.257  11.865  0.6925 -2.4960 -0.8256
  561MOL0     H77384   2.928   2.358  11.577  1.4073  0.9102 -0.4037
  561MOL0     H77385   2.954   2.446  11.736  1.0558 -0.5529  2.3444
  561MOL0     H77386   3.092   2.198  11.630 -0.6506 -0.4637  0.4236
  561MOL0     H77387   3.129   2.261  11.791 -0.7150 -3.3391 -1.1241
  561MOL0     H77388   3.221   2.470  11.692 -0.7873 -0.3256  0.5402
  561MOL0     H77389   3.158   2.414  11.527  2.2202  1.4966 -1.4036
  561MOL0     H77390   3.384   2.307  11.690  2.5949  1.3602 -0.4089
  561MOL0     H77391   3.316   2.217  11.563  0.1023 -1.6220  2.8086
  561MOL0     H77392   3.528   2.372  11.553 -1.0087 -1.8797  1.7474
  561MOL0     H77393   3.419   2.507  11.512 -1.7913 -0.3976  3.6406
  561MOL0     H77394   3.329   2.353  11.317 -0.5227 -0.0391 -0.2483
  561MOL0     H77395   3.449   2.236  11.378  0.6232  0.0935  2.0668
  561MOL0     H77396   3.631   2.366  11.327 -0.7887 -0.7894  0.0906
  561MOL0     H77397   3.540   2.513  11.284  1.4675  0.4342  1.6009
  561MOL0     H77398   2.655   2.038  11.580 -0.2266 -0.6768 -0.8153
  561MOL0     H77399   2.493   1.875  11.654 -0.0213 -1.8202  1.1357
  561MOL0     H77400   2.181   1.776  12.048  1.2079  0.2772 -1.9596
  561MOL0     H77401   2.048   1.589  12.143 -0.4877  4.9482 -0.7529
  561MOL0     H77402   1.447   0.775  10.798 -4.6035 -2.0897 -1.6402
  561MOL0     H77403   1.455   0.562  10.677 -2.7438  1.7957  0.4745
  561MOL0     H77404   1.574   0.096  10.818 -2.5921  0.0419  0.0246
  561MOL0     H77405   1.657  -0.121  10.747 -0.7641  1.3184  0.8479
  561MOL0     H77406   1.739  -0.324  10.626  1.4482 -3.5496 -1.6101
  561MOL0     H77407   1.574  -0.343  10.645  0.3027  1.4871  0.2109
  561MOL0     H77408   1.609  -0.452  10.386  0.8461  1.3486 -1.8121
  561MOL0     H77409   1.613  -0.537  10.556  1.8066 -0.0090 -0.5593
  561MOL0     H77410   1.856  -0.443  10.390  1.1163 -0.0553  0.8904
  561MOL0     H77411   1.850  -0.512  10.553  0.1337  2.2394  0.0501
  561MOL0     H77412   1.944  -0.657  10.382  1.1316  2.0454 -3.6681
  561MOL0     H77413   1.810  -0.639  10.272  1.7005 -1.7155 -0.9982
  561MOL0     H77414   1.671  -0.929  10.580  0.3465 -1.3066 -0.0258
  561MOL0     H77415   1.510  -0.041  10.352  1.3580 -1.9643 -0.0306
  561MOL0     H77416   1.436   0.286  10.374 -0.4123 -1.2091 -2.1707
  561MOL0     H77417   1.366   0.135  10.304 -2.2558 -0.2454  1.0526
  561MOL0     H77418   1.291   0.217  10.439  1.0391  1.4617  0.6689
  562MOL0     O77419   5.600   6.788   5.416 -0.4966  0.6154  0.3671
  562MOL0     C77420   5.693   6.720   5.377 -0.5705  0.1886  0.1059
  562MOL0     O77421   5.693   6.581   5.366 -0.0751 -0.1801 -0.1130
  562MOL0     C77422   5.574   6.518   5.361  0.0783  0.4400  0.7201
  562MOL0     C77423   5.464   6.524   5.441  0.2950  0.5398 -0.4997
  562MOL0     C77424   5.342   6.467   5.401 -0.4344  0.3282  0.0760
  562MOL0     C77425   5.330   6.392   5.278 -0.0408 -0.0604 -0.1791
  562MOL0     O77426   5.213   6.349   5.227 -0.2830 -0.2354  0.2519
  562MOL0     C77427   5.087   6.414   5.274  0.1062 -0.1957 -0.0898
  562MOL0     C77428   4.963   6.366   5.211  0.9891  1.0862 -0.0873
  562MOL0     C77429   4.940   6.218   5.198 -0.8042 -0.6323  0.3145
  562MOL0     C77430   4.807   6.208   5.130  0.3937  0.6693  0.5039
  562MOL0     C77431   4.771   6.062   5.127 -0.8995 -0.2266 -0.3583
  562MOL0     C77432   4.666   6.041   5.016  0.0028  0.8952  0.4796
  562MOL0     C77433   4.532   6.102   5.048  1.0664  0.0231  0.3896
  562MOL0     C77434   4.449   6.140   4.907 -1.3858 -0.4164 -0.3005
  562MOL0     N77435   4.424   6.014   4.836  0.4863  0.0919 -0.9485
  562MOL0     C77436   4.346   5.914   4.880 -0.5254  0.6207  0.4094
  562MOL0     C77437   4.336   5.820   4.777 -0.3059 -0.5927  0.3896
  562MOL0     C77438   4.270   5.689   4.780  0.1248 -0.2460 -0.0333
  562MOL0     C77439   4.118   5.698   4.718  0.0804 -0.8851 -0.6378
  562MOL0     C77440   4.111   5.732   4.568 -0.4909 -0.7788  1.6176
  562MOL0     C77441   3.977   5.724   4.495  0.1725 -0.1369 -0.0024
  562MOL0     O77442   3.934   5.588   4.483  1.6400 -0.4609 -1.1556
  562MOL0     C77443   3.867   5.560   4.376  0.0531 -0.6289 -0.7365
  562MOL0     C77444   3.911   5.457   4.301  0.2703  0.7718 -0.5436
  562MOL0     C77445   3.855   5.419   4.176 -0.5272  0.0145 -0.0977
  562MOL0     C77446   3.932   5.309   4.117  0.2892  1.2369  0.7242
  562MOL0     C77447   3.747   5.490   4.127 -0.5462  0.1215 -0.3882
  562MOL0     C77448   3.689   5.445   4.003 -0.4148 -0.8348 -0.0005
  562MOL0     O77449   3.553   5.456   3.982  0.0811  0.4027 -0.1155
  562MOL0     C77450   3.481   5.426   3.871  0.4387 -0.2654 -0.1933
  562MOL0     C77451   3.482   5.313   3.794 -0.1595 -0.0457  0.1788
  562MOL0     C77452   3.390   5.294   3.681 -0.5258  0.3662  1.3557
  562MOL0     C77453   3.298   5.394   3.660 -0.4121  0.1884 -0.4982
  562MOL0     O77454   3.206   5.385   3.566 -0.3972 -0.2519  0.5200
  562MOL0     C77455   3.183   5.501   3.480 -0.0764  0.6526 -1.1585
  562MOL0     C77456   3.084   5.439   3.381 -0.8938  0.0539  0.5211
  562MOL0     C77457   3.132   5.373   3.251  0.0476  0.1209  0.0008
  562MOL0     C77458   3.183   5.481   3.158  0.0865 -0.0278  0.5029
  562MOL0     C77459   3.237   5.412   3.021 -0.3964 -0.1553 -1.0825
  562MOL0     C77460   3.232   5.513   2.901 -0.4358 -0.1752  1.0873
  562MOL0     C77461   3.353   5.603   2.929  0.0095  0.9904 -0.5527
  562MOL0     C77462   3.362   5.722   2.831 -0.2694  0.6889 -0.9857
  562MOL0    Cl77463   3.216   5.829   2.816 -0.1643 -0.0266  0.5985
  562MOL0     C77464   3.295   5.510   3.739  0.4632  0.3226 -0.4332
  562MOL0     C77465   3.371   5.517   3.852 -1.2402  0.5952  0.0933
  562MOL0     O77466   3.769   5.411   3.918 -0.0695 -0.3295 -0.0815
  562MOL0     C77467   3.696   5.601   4.206  0.5084 -0.3772  0.3744
  562MOL0     C77468   3.753   5.630   4.335 -0.2151 -0.4560 -0.3425
  562MOL0     N77469   4.401   5.890   4.670  0.2791 -0.1899 -0.3101
  562MOL0     N77470   4.459   5.992   4.708 -0.4219 -0.7226 -0.4976
  562MOL0     C77471   5.447   6.378   5.205 -0.7678 -0.6739  1.0878
  562MOL0     C77472   5.567   6.433   5.249 -0.2254  0.6276 -0.6302
  562MOL0     C77473   5.824   6.787   5.367 -0.0187  0.4219  0.5940
  562MOL0     C77474   5.932   6.716   5.402 -1.3515 -0.5736 -0.3819
  562MOL0     C77475   6.063   6.765   5.381 -0.2091  0.3177 -0.1138
  562MOL0     C77476   6.085   6.881   5.314  0.2652 -0.1035 -0.7788
  562MOL0     O77477   6.207   6.906   5.259 -0.0842 -0.2636  0.1182
  562MOL0     C77478   6.317   6.904   5.353  0.2240  1.2060 -0.4810
  562MOL0     C77479   6.360   7.053   5.367  0.3382  0.0341  0.1102
  562MOL0     C77480   6.253   7.155   5.413  0.0498  0.6432 -0.2080
  562MOL0     C77481   6.180   7.133   5.548  0.9440  0.1887  0.4332
  562MOL0     C77482   6.037   7.180   5.545  0.0351 -0.3701 -0.1782
  562MOL0     C77483   5.924   7.210   5.552  0.8157  0.7229  0.1978
  562MOL0     C77484   5.979   6.960   5.276 -0.9326 -0.8585 -0.0010
  562MOL0     C77485   5.854   6.913   5.307  0.1549  0.1731  0.7803
  562MOL0     C77486   5.744   7.016   5.273 -0.0203  0.2055  0.5161
  562MOL0     H77487   5.483   6.584   5.530 -0.1133  1.0536 -0.7546
  562MOL0     H77488   5.260   6.484   5.471 -0.5125 -0.8580  0.2910
  562MOL0     H77489   5.094   6.522   5.256 -0.3930 -0.3351 -1.2556
  562MOL0     H77490   5.080   6.400   5.382  0.1549  0.1627 -0.0397
  562MOL0     H77491   4.875   6.420   5.245 -0.5449  0.6481 -2.9914
  562MOL0     H77492   4.970   6.396   5.106 -0.1620 -2.2189 -1.2454
  562MOL0     H77493   5.016   6.197   5.122  0.0637  0.9348  0.6808
  562MOL0     H77494   4.951   6.160   5.290  2.4167 -2.6541 -1.1725
  562MOL0     H77495   4.733   6.260   5.193 -1.5171 -0.8157 -0.3965
  562MOL0     H77496   4.812   6.250   5.029  0.5964 -2.2587 -0.8093
  562MOL0     H77497   4.754   6.013   5.223  0.6281 -2.2046 -1.0250
  562MOL0     H77498   4.857   6.007   5.089  1.2050  2.5586  0.0398
  562MOL0     H77499   4.704   6.079   4.921  2.6843 -1.9700  0.2453
  562MOL0     H77500   4.645   5.934   5.008 -3.1986  1.4739 -0.1562
  562MOL0     H77501   4.541   6.191   5.111  1.8182 -0.0307  0.3615
  562MOL0     H77502   4.465   6.044   5.112 -2.2256  1.8520 -1.1010
  562MOL0     H77503   4.355   6.191   4.932 -0.0382  1.9730  0.2024
  562MOL0     H77504   4.498   6.215   4.845 -0.5425 -1.3675 -0.8182
  562MOL0     H77505   4.308   5.899   4.980  2.7729 -1.5735  1.5165
  562MOL0     H77506   4.272   5.647   4.882  2.3335 -2.5236 -0.8924
  562MOL0     H77507   4.332   5.619   4.724  0.0343  0.2795 -0.7960
  562MOL0     H77508   4.072   5.600   4.733 -2.5728  0.3780  0.0836
  562MOL0     H77509   4.056   5.775   4.765  1.4824 -1.0320  1.6241
  562MOL0     H77510   4.139   5.837   4.557 -0.7825 -0.9762 -3.4231
  562MOL0     H77511   4.183   5.670   4.513  0.4291  1.9997 -0.5254
  562MOL0     H77512   3.899   5.788   4.536  0.9481  1.3076 -0.6953
  562MOL0     H77513   3.984   5.756   4.390 -0.0715  1.3024  0.4121
  562MOL0     H77514   3.997   5.405   4.343 -2.0140 -2.0323  1.0376
  562MOL0     H77515   3.991   5.345   4.032 -1.1844  1.4324 -0.2480
  562MOL0     H77516   3.877   5.225   4.074  1.0313  0.3925  1.3868
  562MOL0     H77517   4.003   5.274   4.192 -1.8208 -0.3534  2.0747
  562MOL0     H77518   3.567   5.247   3.807  0.4338  0.8202  0.7502
  562MOL0     H77519   3.387   5.213   3.608 -0.9088  0.4388  1.2885
  562MOL0     H77520   3.142   5.581   3.541  1.2189  1.5292 -1.3936
  562MOL0     H77521   3.273   5.546   3.437  0.3163  0.9916 -0.0252
  562MOL0     H77522   3.034   5.358   3.434  0.4816 -2.3965 -1.7050
  562MOL0     H77523   3.015   5.517   3.348 -4.4158 -2.5663  1.2003
  562MOL0     H77524   3.046   5.317   3.212  1.3006 -2.5902  0.8218
  562MOL0     H77525   3.203   5.291   3.265  0.0435  0.4550  2.3028
  562MOL0     H77526   3.267   5.545   3.188  0.4750  0.8195 -2.1181
  562MOL0     H77527   3.098   5.546   3.139  1.5593  2.2240  1.2325
  562MOL0     H77528   3.335   5.371   3.047 -0.2298  1.9124  2.0173
  562MOL0     H77529   3.173   5.324   3.005  0.3337 -1.6591  3.0451
  562MOL0     H77530   3.138   5.569   2.900 -1.8430 -2.3820 -0.6962
  562MOL0     H77531   3.221   5.473   2.800 -4.0462  3.2863 -0.1916
  562MOL0     H77532   3.442   5.539   2.922 -0.9738 -0.6406  0.9564
  562MOL0     H77533   3.341   5.642   3.031  0.6561  0.7710 -0.3848
  562MOL0     H77534   3.403   5.685   2.736  0.3626  0.3907 -0.6092
  562MOL0     H77535   3.433   5.793   2.873 -1.8113  1.5612  0.2570
  562MOL0     H77536   3.223   5.591   3.733 -1.4923 -1.2778  0.5219
  562MOL0     H77537   3.364   5.602   3.918 -0.9029 -0.5021  1.5883
  562MOL0     H77538   3.608   5.652   4.170  1.0756  0.5599  0.2619
  562MOL0     H77539   3.709   5.706   4.399 -0.0953  0.6512 -1.5287
  562MOL0     H77540   5.417   6.329   5.113 -2.5280  0.8292  0.8240
  562MOL0     H77541   5.657   6.419   5.189 -0.6963 -0.3265 -1.1301
  562MOL0     H77542   5.945   6.614   5.436 -0.8812 -1.0485 -1.8684
  562MOL0     H77543   6.155   6.714   5.407 -0.7105  0.6876  2.6894
  562MOL0     H77544   6.284   6.865   5.449  0.1221  2.4649  0.0099
  562MOL0     H77545   6.403   6.848   5.314  1.3443  2.1003  0.6171
  562MOL0     H77546   6.392   7.080   5.266 -4.5033  3.1954 -0.9386
  562MOL0     H77547   6.439   7.044   5.442 -1.0736  3.0562  2.1874
  562MOL0     H77548   6.299   7.253   5.427  0.5926  0.0037  3.3820
  562MOL0     H77549   6.178   7.181   5.337 -0.3332  3.8563  1.1369
  562MOL0     H77550   6.236   7.192   5.622  1.7545  2.0477 -1.5536
  562MOL0     H77551   6.178   7.025   5.561 -1.0102  0.5137  4.5738
  562MOL0     H77552   5.821   7.229   5.577  1.6184  2.5186  2.4657
  562MOL0     H77553   5.993   7.053   5.221 -3.2716 -1.3491 -1.5511
  562MOL0     H77554   5.704   7.071   5.359  2.2946 -0.1055  1.8579
  562MOL0     H77555   5.786   7.087   5.201  0.0509 -0.5615 -0.2180
  562MOL0     H77556   5.660   6.963   5.226  0.3885 -0.2113  0.2424
  563MOL0     O77557   2.819   9.754  10.156 -0.5727 -0.0270  0.0991
  563MOL0     C77558   2.781   9.655  10.221  0.1720  0.9631  0.5878
  563MOL0     O77559   2.722   9.549  10.164  0.3940 -0.5568 -0.2843
  563MOL0     C77560   2.725   9.537  10.024 -0.2116  0.4752 -0.4460
  563MOL0     C77561   2.661   9.626   9.931  0.1658  0.7989 -0.6271
  563MOL0     C77562   2.680   9.619   9.793 -0.3624  0.5522 -0.6800
  563MOL0     C77563   2.756   9.507   9.742  0.7988 -0.4016  0.2906
  563MOL0     O77564   2.755   9.494   9.604 -0.2608  0.0558  0.0965
  563MOL0     C77565   2.839   9.412   9.534 -0.5592  0.7620 -0.1954
  563MOL0     C77566   2.840   9.436   9.385 -0.4669 -0.0863 -0.2983
  563MOL0     C77567   2.926   9.331   9.301 -0.0312 -0.0604 -0.1432
  563MOL0     C77568   2.899   9.346   9.154 -0.5680  0.0434 -0.5411
  563MOL0     C77569   2.996   9.250   9.071  0.9369 -1.0573 -0.3191
  563MOL0     C77570   2.966   9.102   9.094  0.0933  0.3982  1.4560
  563MOL0     C77571   2.846   9.033   9.010 -0.1591  0.0350 -1.0759
  563MOL0     C77572   2.845   8.884   9.036  0.5599 -0.1480  0.3345
  563MOL0     N77573   2.816   8.855   9.172 -0.6374 -0.3457 -0.2651
  563MOL0     C77574   2.694   8.858   9.236  0.2457  0.6104  0.0415
  563MOL0     C77575   2.719   8.845   9.369 -1.4210  0.6700 -0.0022
  563MOL0     C77576   2.644   8.871   9.497  0.1881  0.8458  0.6171
  563MOL0     C77577   2.591   9.022   9.509 -1.0940  0.7118  0.5024
  563MOL0     C77578   2.672   9.101   9.620  0.4406  0.6769  0.0538
  563MOL0     C77579   2.643   9.054   9.769  0.3535 -0.1819  0.7520
  563MOL0     O77580   2.584   9.154   9.852 -0.2146  0.4268  0.2868
  563MOL0     C77581   2.579   9.116   9.986  0.3233 -0.5450  0.1905
  563MOL0     C77582   2.574   8.983  10.042 -0.4654 -1.1720  0.7594
  563MOL0     C77583   2.582   8.959  10.184  0.0920  0.1365  0.0092
  563MOL0     C77584   2.612   8.818  10.229  0.0128  0.0411 -0.3465
  563MOL0     C77585   2.561   9.070  10.266 -0.5244 -0.7615  0.0325
  563MOL0     C77586   2.562   9.053  10.411 -0.3362  0.5260  1.2140
  563MOL0     O77587   2.496   8.956  10.480 -0.5955 -0.5884 -0.0687
  563MOL0     C77588   2.530   8.941  10.616 -0.0530  0.1752  0.1990
  563MOL0     C77589   2.436   8.967  10.717  0.0515 -0.4229  1.0471
  563MOL0     C77590   2.464   8.971  10.843  0.1230  0.6347 -0.3405
  563MOL0     C77591   2.592   8.940  10.888  1.1541 -0.7751  0.1018
  563MOL0     O77592   2.617   8.919  11.019 -0.7103 -1.2401 -0.0188
  563MOL0     C77593   2.664   8.785  11.047 -0.3652  0.2776 -0.6304
  563MOL0     C77594   2.658   8.759  11.194  0.3771  0.2817 -0.0427
  563MOL0     C77595   2.799   8.789  11.265 -0.0544 -0.5426 -0.2337
  563MOL0     C77596   2.810   8.792  11.419 -0.6827 -0.5676  0.4407
  563MOL0     C77597   2.696   8.865  11.499  1.1838 -0.4251  0.3430
  563MOL0     C77598   2.708   8.841  11.651 -0.1553  0.5147 -0.7607
  563MOL0     C77599   2.774   8.956  11.736 -0.2049 -0.7508  0.4569
  563MOL0     C77600   2.803   8.935  11.893 -0.4398 -0.1352  0.3676
  563MOL0    Cl77601   2.653   8.964  11.983 -0.1813  0.1928 -0.2038
  563MOL0     C77602   2.696   8.920  10.795  0.0811 -0.2672  0.2420
  563MOL0     C77603   2.663   8.929  10.663 -0.5816  0.6859 -1.0247
  563MOL0     O77604   2.618   9.140  10.466 -0.1420 -0.6912  0.7029
  563MOL0     C77605   2.539   9.203  10.210  0.6685  0.0637  0.9708
  563MOL0     C77606   2.549   9.225  10.071  0.2037  0.4080  0.2265
  563MOL0     N77607   2.853   8.808   9.386 -0.2849 -0.4906 -0.2998
  563MOL0     N77608   2.913   8.826   9.268  0.2419 -0.1324 -0.3838
  563MOL0     C77609   2.794   9.401   9.836  0.2406 -0.2509 -0.2741
  563MOL0     C77610   2.779   9.422   9.967 -1.4031 -0.3381 -0.1092
  563MOL0     C77611   2.788   9.679  10.367  0.1180  0.4995 -0.5327
  563MOL0     C77612   2.824   9.806  10.412  0.2288 -0.9513  0.5419
  563MOL0     C77613   2.826   9.829  10.543 -1.2343 -0.6494 -0.4649
  563MOL0     C77614   2.810   9.729  10.642 -0.5278 -0.4214  0.1866
  563MOL0     O77615   2.826   9.763  10.775  0.6235  0.2234  0.3330
  563MOL0     C77616   2.828   9.659  10.874 -1.5013  0.0343  0.3143
  563MOL0     C77617   2.962   9.586  10.867 -0.7448  0.4052 -0.6808
  563MOL0     C77618   2.951   9.433  10.872 -0.6127 -0.0040  0.2803
  563MOL0     C77619   2.873   9.382  11.007 -0.2440 -0.6653  0.0550
  563MOL0     C77620   2.894   9.239  11.012  0.3296 -0.5949 -0.6645
  563MOL0     C77621   2.901   9.113  11.014  0.2499 -0.9147  0.6250
  563MOL0     C77622   2.785   9.600  10.594 -0.4586 -1.1998  0.1677
  563MOL0     C77623   2.779   9.574  10.458 -0.0366 -0.2426  0.2115
  563MOL0     C77624   2.784   9.428  10.422 -0.0246 -0.5372  0.5213
  563MOL0     H77625   2.586   9.694   9.969 -1.8898 -0.4642 -2.2095
  563MOL0     H77626   2.654   9.700   9.725  0.7153  0.5490 -1.1176
  563MOL0     H77627   2.825   9.305   9.553  1.6819  0.8476  2.6419
  563MOL0     H77628   2.938   9.439   9.572 -1.1725  2.7261  0.0979
  563MOL0     H77629   2.735   9.431   9.355 -1.0396 -1.0304  1.7065
  563MOL0     H77630   2.865   9.542   9.371  0.1752 -0.0154  1.2369
  563MOL0     H77631   3.031   9.352   9.324 -0.4187  1.0618  0.7125
  563MOL0     H77632   2.886   9.239   9.343 -2.0409  0.2805 -1.1600
  563MOL0     H77633   2.797   9.314   9.132 -0.4690  1.0104 -2.6227
  563MOL0     H77634   2.923   9.447   9.119 -0.6000  1.0153  2.0354
  563MOL0     H77635   3.100   9.284   9.076 -0.1593  3.2805 -2.1258
  563MOL0     H77636   2.973   9.266   8.966 -0.6459 -2.0243 -0.1472
  563MOL0     H77637   3.050   9.044   9.053 -1.4006 -0.2659 -0.8272
  563MOL0     H77638   2.954   9.080   9.201 -0.6358  0.7120  1.4473
  563MOL0     H77639   2.850   9.048   8.902 -0.6863 -3.3436 -1.6596
  563MOL0     H77640   2.755   9.075   9.053  0.2409 -1.9189  1.9752
  563MOL0     H77641   2.772   8.836   8.969  0.4132  0.0775  0.3329
  563MOL0     H77642   2.939   8.842   8.998  0.6378  1.2384 -1.1199
  563MOL0     H77643   2.601   8.894   9.192  1.8411  2.7297 -1.8465
  563MOL0     H77644   2.718   8.835   9.570  2.4699  1.5046 -1.2589
  563MOL0     H77645   2.558   8.804   9.504  2.1351 -1.6313  3.0770
  563MOL0     H77646   2.585   9.066   9.409  0.0901 -1.5702 -0.6595
  563MOL0     H77647   2.490   9.006   9.549 -1.5464  2.5413  0.2105
  563MOL0     H77648   2.779   9.090   9.603  0.5090  1.8415 -0.3707
  563MOL0     H77649   2.655   9.209   9.625  1.3249  0.7819  0.9365
  563MOL0     H77650   2.593   8.957   9.761 -2.4085  1.1703  0.4073
  563MOL0     H77651   2.744   9.028   9.803  0.3096 -2.7783 -0.8018
  563MOL0     H77652   2.609   8.908   9.972  1.6816  0.4584 -0.0421
  563MOL0     H77653   2.518   8.770  10.259  0.9888 -2.7660 -1.5098
  563MOL0     H77654   2.679   8.827  10.315 -0.9022  3.4436  0.1983
  563MOL0     H77655   2.661   8.768  10.145  2.8723  2.9027 -0.5562
  563MOL0     H77656   2.335   9.000  10.693 -0.9493 -2.7100  1.8785
  563MOL0     H77657   2.376   8.991  10.902 -1.0003 -2.9268 -0.5616
  563MOL0     H77658   2.596   8.708  11.010 -0.5376 -1.4704  2.9123
  563MOL0     H77659   2.765   8.759  11.013 -0.7051 -1.5092 -0.3652
  563MOL0     H77660   2.577   8.826  11.222 -2.4039 -2.4946 -0.9287
  563MOL0     H77661   2.646   8.651  11.207  1.1468  0.3276  1.1839
  563MOL0     H77662   2.838   8.882  11.222  4.0640 -1.2841  1.3991
  563MOL0     H77663   2.869   8.711  11.233  0.2013  0.2233 -1.6148
  563MOL0     H77664   2.910   8.827  11.443 -0.4876 -1.5240  1.0521
  563MOL0     H77665   2.815   8.690  11.459 -1.3404 -1.5239 -1.7508
  563MOL0     H77666   2.707   8.971  11.476  1.2819  0.1747  2.8804
  563MOL0     H77667   2.595   8.835  11.469  0.6978 -0.1285  1.6098
  563MOL0     H77668   2.782   8.761  11.660 -0.8467  0.0366  1.2883
  563MOL0     H77669   2.625   8.799  11.708  1.7692 -0.4410  1.4981
  563MOL0     H77670   2.716   9.048  11.726 -4.3640 -3.3363 -3.1540
  563MOL0     H77671   2.868   8.975  11.682  2.0133 -1.7142  3.6965
  563MOL0     H77672   2.883   9.001  11.929  0.1272  0.7071 -2.1543
  563MOL0     H77673   2.828   8.829  11.900 -2.2614 -0.5587  0.8831
  563MOL0     H77674   2.799   8.892  10.817 -0.1796 -1.8289 -0.4000
  563MOL0     H77675   2.738   8.897  10.592 -3.0950 -3.0116 -2.3262
  563MOL0     H77676   2.514   9.281  10.282  1.9838 -0.8303  2.4842
  563MOL0     H77677   2.532   9.321  10.024  2.3874  1.7411  1.9399
  563MOL0     H77678   2.852   9.315   9.806  0.9901 -0.4351  1.5399
  563MOL0     H77679   2.816   9.341  10.030  0.4352  0.1368 -0.5122
  563MOL0     H77680   2.851   9.884  10.342  1.7627 -1.1068  0.9176
  563MOL0     H77681   2.839   9.926  10.589 -1.3038 -0.7743 -0.1767
  563MOL0     H77682   2.834   9.708  10.971  0.4604 -1.4479  0.9969
  563MOL0     H77683   2.738   9.597  10.873 -1.1526 -0.5169 -1.6609
  563MOL0     H77684   3.025   9.614  10.952 -3.9644  0.0782  2.0285
  563MOL0     H77685   3.016   9.619  10.778  0.7875  1.4676  0.5865
  563MOL0     H77686   2.885   9.405  10.789 -0.6235  1.6119 -0.2869
  563MOL0     H77687   3.055   9.400  10.866  0.0524  2.1070 -0.4306
  563MOL0     H77688   2.766   9.405  11.006 -0.2997 -0.5860  2.6317
  563MOL0     H77689   2.908   9.432  11.098  0.5561  0.2243 -0.7114
  563MOL0     H77690   2.906   9.007  10.995 -1.3167 -1.0803  0.9819
  563MOL0     H77691   2.767   9.520  10.665  0.5643 -1.1950  0.4442
  563MOL0     H77692   2.686   9.399  10.381  0.3302 -0.9346 -0.0602
  563MOL0     H77693   2.866   9.407  10.353 -2.0010 -0.9272 -1.8535
  563MOL0     H77694   2.795   9.357  10.505 -1.0575 -1.2822  0.0542
  564MOL0     O77695   4.148   1.878   2.944  0.1640  0.3867  0.4291
  564MOL0     C77696   4.100   1.842   2.837 -0.1937  1.4941  0.2349
  564MOL0     O77697   4.133   1.722   2.783 -0.8846  1.0173  0.0387
  564MOL0     C77698   4.219   1.630   2.843  0.5626 -0.2943  0.8359
  564MOL0     C77699   4.292   1.643   2.954 -0.0886  0.0583 -0.7025
  564MOL0     C77700   4.344   1.531   3.014 -0.3578  0.2629  0.0399
  564MOL0     C77701   4.347   1.406   2.954 -0.3907 -0.7410  0.4118
  564MOL0     O77702   4.426   1.310   3.010  0.8176  0.1966 -0.2160
  564MOL0     C77703   4.427   1.187   2.941  0.0505 -0.5595  0.8915
  564MOL0     C77704   4.498   1.076   3.005 -0.6770  0.0768 -0.2326
  564MOL0     C77705   4.450   1.023   3.136  0.0631 -0.7276  0.7459
  564MOL0     C77706   4.509   0.875   3.164  0.3670  0.3156 -0.0294
  564MOL0     C77707   4.491   0.840   3.311  0.7089  0.1690 -0.0711
  564MOL0     C77708   4.512   0.689   3.332  0.4098  0.4228  0.2348
  564MOL0     C77709   4.520   0.650   3.477 -0.0797  0.0086  0.0649
  564MOL0     C77710   4.504   0.500   3.493  0.6028  0.2915  0.0871
  564MOL0     N77711   4.503   0.461   3.633  0.0347  0.1751 -0.0431
  564MOL0     C77712   4.598   0.375   3.693 -1.5151  0.0672  0.7881
  564MOL0     C77713   4.563   0.382   3.827 -0.8748 -0.2306  0.6413
  564MOL0     C77714   4.616   0.302   3.939 -0.1421 -0.0989  1.1430
  564MOL0     C77715   4.640   0.371   4.070  1.5377 -0.1740  0.5712
  564MOL0     C77716   4.736   0.284   4.168  0.6565  0.2447  0.9279
  564MOL0     C77717   4.888   0.327   4.164  0.2801  0.2035  0.7809
  564MOL0     O77718   4.975   0.234   4.240 -0.6116  0.1257  0.7206
  564MOL0     C77719   5.105   0.271   4.274  0.5611  0.9278  0.4417
  564MOL0     C77720   5.184   0.176   4.328  0.1281 -0.2472 -0.0649
  564MOL0     C77721   5.323   0.195   4.367  1.1701 -0.7054 -0.4057
  564MOL0     C77722   5.389   0.084   4.435  0.1771  0.6978  0.6134
  564MOL0     C77723   5.372   0.333   4.356 -0.4409 -0.0474  0.0607
  564MOL0     C77724   5.507   0.373   4.379  0.6904 -0.3789  0.1666
  564MOL0     O77725   5.538   0.504   4.408  0.1990 -0.2014 -0.0366
  564MOL0     C77726   5.671   0.549   4.406  0.5113 -0.3242 -0.3105
  564MOL0     C77727   5.691   0.678   4.374  0.2893 -0.3981  0.6553
  564MOL0     C77728   5.815   0.744   4.351  0.0721  0.4738 -0.4804
  564MOL0     C77729   5.932   0.671   4.395 -0.4744 -0.6001 -0.0936
  564MOL0     O77730   6.048   0.730   4.388 -0.5421 -1.0217 -0.1097
  564MOL0     C77731   6.161   0.696   4.468 -0.1145 -0.3626  0.3295
  564MOL0     C77732   6.223   0.838   4.511 -0.1854  0.2556  0.1534
  564MOL0     C77733   6.354   0.823   4.593  0.3443  0.2333  0.0816
  564MOL0     C77734   6.407   0.952   4.649 -0.5265  0.2319 -0.2019
  564MOL0     C77735   6.558   0.950   4.677  0.4769  0.3200 -0.4045
  564MOL0     C77736   6.589   0.927   4.830  1.0322  0.3045  0.5662
  564MOL0     C77737   6.738   0.915   4.868 -0.8036 -0.6937  0.5752
  564MOL0     C77738   6.805   1.046   4.896  0.1973 -0.2847  0.6910
  564MOL0    Cl77739   6.813   1.145   4.747  0.7418 -0.2677 -0.0930
  564MOL0     C77740   5.919   0.538   4.427  0.6469 -0.1091 -0.7732
  564MOL0     C77741   5.792   0.482   4.434 -0.2198  0.1928 -0.6141
  564MOL0     O77742   5.587   0.290   4.342 -0.1434  0.4173  0.0684
  564MOL0     C77743   5.286   0.432   4.318  0.2456  0.1909 -0.2279
  564MOL0     C77744   5.155   0.402   4.270  0.0716  0.8583  0.0402
  564MOL0     N77745   4.460   0.463   3.856  0.0804 -0.3325 -0.0645
  564MOL0     N77746   4.424   0.507   3.737 -0.5569 -0.0278 -0.3875
  564MOL0     C77747   4.289   1.393   2.826  0.2301  0.6821 -0.7824
  564MOL0     C77748   4.219   1.504   2.782 -0.3188 -0.9386  0.2516
  564MOL0     C77749   4.013   1.929   2.752  0.2196  0.5756 -0.0077
  564MOL0     C77750   3.951   2.030   2.825  0.9761  0.6281  1.5526
  564MOL0     C77751   3.844   2.106   2.761 -0.1672  0.5402 -0.7762
  564MOL0     C77752   3.802   2.092   2.629  0.2990 -0.4621 -0.4245
  564MOL0     O77753   3.722   2.187   2.571 -0.0807  0.4623 -0.4837
  564MOL0     C77754   3.595   2.139   2.520  0.1052  0.0595  0.0790
  564MOL0     C77755   3.507   2.144   2.652 -0.4920 -0.3371 -0.1131
  564MOL0     C77756   3.375   2.071   2.637 -0.4563 -0.8566  0.0882
  564MOL0     C77757   3.393   1.924   2.640  0.1050 -0.1272  0.5701
  564MOL0     C77758   3.278   1.848   2.591 -0.1839  0.0005 -0.0659
  564MOL0     C77759   3.186   1.786   2.544 -0.2433 -0.7716 -0.3279
  564MOL0     C77760   3.873   2.002   2.558 -0.9086 -0.6654  0.8852
  564MOL0     C77761   3.967   1.919   2.613 -0.1365 -0.7002 -0.7629
  564MOL0     C77762   4.017   1.813   2.525 -0.1501  0.3057  0.5659
  564MOL0     H77763   4.312   1.741   2.995 -1.8045  0.9060 -1.7951
  564MOL0     H77764   4.388   1.550   3.112  4.1234  1.4891 -1.9695
  564MOL0     H77765   4.485   1.207   2.851 -0.5554 -2.2158  0.0964
  564MOL0     H77766   4.330   1.149   2.909  0.4137 -0.2570 -0.6229
  564MOL0     H77767   4.500   0.996   2.930  1.2504 -4.5123  4.0967
  564MOL0     H77768   4.603   1.103   3.007 -0.7817  0.6631 -1.7231
  564MOL0     H77769   4.492   1.099   3.202  2.0605 -0.7668 -0.4001
  564MOL0     H77770   4.340   1.023   3.141 -0.0847  1.4978 -1.0936
  564MOL0     H77771   4.479   0.799   3.091  4.9510  0.2949 -2.2335
  564MOL0     H77772   4.617   0.875   3.146  0.0443  1.5878 -2.2988
  564MOL0     H77773   4.386   0.856   3.338  0.0592  1.1200 -2.7588
  564MOL0     H77774   4.549   0.899   3.381  0.9717 -1.0528  0.7703
  564MOL0     H77775   4.430   0.642   3.277  1.6561  0.9458 -2.2095
  564MOL0     H77776   4.605   0.672   3.277  0.1098  0.6626 -0.3574
  564MOL0     H77777   4.430   0.684   3.528 -0.4111  0.2344 -0.6484
  564MOL0     H77778   4.600   0.693   3.538 -0.1452  1.9423 -1.1031
  564MOL0     H77779   4.403   0.479   3.457  0.7382 -0.6355  0.2051
  564MOL0     H77780   4.573   0.440   3.432  1.5187  0.4230  0.9704
  564MOL0     H77781   4.663   0.310   3.635 -3.0661  1.5074 -2.9547
  564MOL0     H77782   4.710   0.264   3.898  0.2576  1.0173  1.0136
  564MOL0     H77783   4.540   0.225   3.956 -1.4234  0.5403 -1.2376
  564MOL0     H77784   4.666   0.473   4.040  1.0863 -0.4149 -0.6835
  564MOL0     H77785   4.539   0.379   4.111  2.0515 -1.7400  2.2730
  564MOL0     H77786   4.705   0.286   4.273 -1.8569  2.3847  0.2518
  564MOL0     H77787   4.728   0.183   4.126 -1.7383  1.9021 -3.2346
  564MOL0     H77788   4.933   0.322   4.064  0.3582  2.3545  0.6609
  564MOL0     H77789   4.893   0.429   4.204  4.8232  0.1677  0.7411
  564MOL0     H77790   5.139   0.078   4.340  0.5638 -0.4818 -0.3265
  564MOL0     H77791   5.422   0.104   4.537  3.3779 -1.7187  0.2165
  564MOL0     H77792   5.480   0.059   4.380 -0.9004  0.3575 -1.0917
  564MOL0     H77793   5.330  -0.008   4.435  0.7825  0.2718  2.6092
  564MOL0     H77794   5.608   0.746   4.360  2.0951  2.2917  2.1043
  564MOL0     H77795   5.835   0.840   4.305 -2.2034  1.0968 -0.3017
  564MOL0     H77796   6.142   0.631   4.554 -0.7917 -0.8693 -0.1866
  564MOL0     H77797   6.225   0.637   4.401  1.8490 -0.6046  2.3126
  564MOL0     H77798   6.246   0.879   4.412  1.6898  1.1174  0.9198
  564MOL0     H77799   6.153   0.899   4.568 -0.0164  0.5158  0.0799
  564MOL0     H77800   6.431   0.777   4.531 -0.9703 -1.4715 -0.3626
  564MOL0     H77801   6.336   0.752   4.674  1.2888 -0.5943 -0.4235
  564MOL0     H77802   6.350   0.980   4.739 -0.4583 -1.4544  0.3946
  564MOL0     H77803   6.392   1.031   4.575 -1.1956  1.7597  1.4667
  564MOL0     H77804   6.595   0.867   4.616 -2.2168 -0.1557 -1.5847
  564MOL0     H77805   6.600   1.045   4.642 -0.4037  0.1954 -1.9192
  564MOL0     H77806   6.530   0.836   4.838 -1.1418  1.5389 -0.4884
  564MOL0     H77807   6.544   1.011   4.885  3.5172  2.5498 -0.5794
  564MOL0     H77808   6.786   0.861   4.786  1.9666  1.2216  0.8212
  564MOL0     H77809   6.739   0.853   4.958 -1.0982  1.3976  2.1010
  564MOL0     H77810   6.910   1.022   4.918  0.5065  1.2518  0.9644
  564MOL0     H77811   6.764   1.110   4.973  2.9156 -0.3515  2.3341
  564MOL0     H77812   6.001   0.479   4.465 -0.4880 -1.0378  0.3088
  564MOL0     H77813   5.786   0.376   4.458 -1.4958  0.2662 -0.5479
  564MOL0     H77814   5.322   0.534   4.314  1.1881  0.0474  2.4718
  564MOL0     H77815   5.084   0.481   4.251 -1.2080 -0.1972  0.2797
  564MOL0     H77816   4.282   1.301   2.768  2.0188  0.7676 -1.1775
  564MOL0     H77817   4.144   1.505   2.703 -0.7875  0.7719  0.6815
  564MOL0     H77818   3.986   2.067   2.921  3.4015 -1.8847  1.7618
  564MOL0     H77819   3.780   2.172   2.820 -3.2561 -1.5967 -1.5197
  564MOL0     H77820   3.559   2.216   2.451 -2.5484  0.9446  2.2491
  564MOL0     H77821   3.604   2.038   2.480  3.8657 -0.6019  2.1185
  564MOL0     H77822   3.492   2.249   2.676  2.2409 -0.1244  1.0810
  564MOL0     H77823   3.564   2.108   2.738 -0.3285 -1.9491 -0.8617
  564MOL0     H77824   3.305   2.103   2.715  0.3839  0.8663  0.1834
  564MOL0     H77825   3.322   2.096   2.544  1.1462 -0.9898 -0.9036
  564MOL0     H77826   3.410   1.897   2.744  1.0546  1.6998  0.9420
  564MOL0     H77827   3.484   1.891   2.591 -0.7610  1.6478 -2.5758
  564MOL0     H77828   3.094   1.743   2.508 -1.7869  0.9420  1.3714
  564MOL0     H77829   3.832   1.971   2.462 -1.2349  1.0716  0.4291
  564MOL0     H77830   4.127   1.809   2.522 -0.0991  1.6693 -0.0901
  564MOL0     H77831   3.979   1.719   2.567 -1.9549  0.4778 -0.5624
  564MOL0     H77832   3.983   1.817   2.421 -0.8097  2.2227  0.8251
  565MOL0     O77833   6.091   5.730   8.965  0.1729 -0.4982  0.5047
  565MOL0     C77834   6.091   5.738   8.841 -0.1077 -0.4904 -0.2900
  565MOL0     O77835   6.127   5.633   8.761 -0.0097 -0.1238 -0.1166
  565MOL0     C77836   6.210   5.537   8.811 -0.8212 -0.3667 -1.3399
  565MOL0     C77837   6.326   5.576   8.868  0.1211  0.4630  0.1899
  565MOL0     C77838   6.415   5.479   8.910  0.3198 -0.4279 -0.4115
  565MOL0     C77839   6.388   5.340   8.897  0.4418  0.2309 -0.0806
  565MOL0     O77840   6.470   5.232   8.931 -0.3966  0.5002  0.4510
  565MOL0     C77841   6.573   5.264   9.022  0.0732  0.3349  1.2762
  565MOL0     C77842   6.536   5.264   9.167 -1.0243  0.8507  0.5734
  565MOL0     C77843   6.389   5.261   9.210  0.4929 -0.1026  0.0083
  565MOL0     C77844   6.335   5.133   9.268 -0.8847 -0.0043 -0.4897
  565MOL0     C77845   6.272   5.044   9.170  0.6802  0.1885  0.0036
  565MOL0     C77846   6.130   5.080   9.120  0.2455  0.4781 -0.2434
  565MOL0     C77847   6.027   5.030   9.228  0.0038  0.4688 -0.3198
  565MOL0     C77848   5.914   5.122   9.246  1.0076  0.1845  0.1908
  565MOL0     N77849   5.800   5.081   9.329  0.0153 -0.0367 -1.0953
  565MOL0     C77850   5.786   5.110   9.461  0.0667  0.2541  0.2295
  565MOL0     C77851   5.660   5.067   9.480  0.4505 -1.3925  0.1917
  565MOL0     C77852   5.596   5.100   9.611  0.8255 -0.3753  0.6560
  565MOL0     C77853   5.559   5.243   9.616 -0.0762  0.0915  0.3059
  565MOL0     C77854   5.461   5.290   9.511 -0.3665 -1.2976  0.6607
  565MOL0     C77855   5.427   5.448   9.531  0.0919  0.0470  0.5272
  565MOL0     O77856   5.550   5.527   9.531  0.3259  0.5666  0.0010
  565MOL0     C77857   5.559   5.654   9.572  0.1549 -1.2160 -0.3180
  565MOL0     C77858   5.682   5.710   9.588 -0.2834 -0.0129 -0.5417
  565MOL0     C77859   5.706   5.845   9.635 -0.1981 -0.5205  0.1206
  565MOL0     C77860   5.854   5.891   9.626  0.3513 -0.1203 -0.3131
  565MOL0     C77861   5.584   5.923   9.657 -0.0119 -0.7502  0.9712
  565MOL0     C77862   5.582   6.070   9.683 -0.0262  0.6568  0.5204
  565MOL0     O77863   5.464   6.135   9.647 -0.2952 -0.0546  0.0229
  565MOL0     C77864   5.463   6.273   9.666  0.4678 -0.1473 -0.3493
  565MOL0     C77865   5.563   6.365   9.613  1.0044 -0.3111  0.4718
  565MOL0     C77866   5.541   6.502   9.615  0.7482 -0.6628  0.5730
  565MOL0     C77867   5.424   6.553   9.681  0.4104  0.0698 -1.0302
  565MOL0     O77868   5.370   6.682   9.682 -0.1171 -0.0390  0.2639
  565MOL0     C77869   5.433   6.773   9.589  0.1510 -0.2071  1.0656
  565MOL0     C77870   5.359   6.901   9.582 -0.0182  0.1417 -1.6430
  565MOL0     C77871   5.397   6.984   9.702 -0.1945  0.7253 -0.8250
  565MOL0     C77872   5.326   7.120   9.674 -0.0347  0.0820 -0.0850
  565MOL0     C77873   5.327   7.216   9.792 -0.7114 -0.2439  0.0826
  565MOL0     C77874   5.464   7.281   9.826  0.1799  0.6825  0.9537
  565MOL0     C77875   5.443   7.395   9.926 -0.2196  0.2393 -1.3009
  565MOL0     C77876   5.482   7.353  10.071  0.5824 -0.1849  0.5152
  565MOL0    Cl77877   5.512   7.504  10.158  0.0538  0.0887 -0.1828
  565MOL0     C77878   5.329   6.465   9.720  0.0766  0.0318 -0.3955
  565MOL0     C77879   5.349   6.325   9.713 -0.2139  0.0637  0.2319
  565MOL0     O77880   5.680   6.121   9.724  0.1769  0.4926 -0.9828
  565MOL0     C77881   5.460   5.866   9.645  0.3967 -0.2426  0.3466
  565MOL0     C77882   5.446   5.733   9.608  0.2538 -0.3687 -0.6552
  565MOL0     N77883   5.595   5.035   9.363  0.7228  0.1491  0.3771
  565MOL0     N77884   5.677   5.058   9.269  1.1236  0.4972 -0.6226
  565MOL0     C77885   6.274   5.307   8.828 -0.0953  0.5358  0.1009
  565MOL0     C77886   6.181   5.402   8.794 -0.5873 -0.8035  1.0525
  565MOL0     C77887   6.056   5.866   8.776 -0.5888 -0.1477 -0.7223
  565MOL0     C77888   6.112   5.899   8.643  0.1710  0.7169  1.2826
  565MOL0     C77889   6.092   6.023   8.590 -0.6966 -0.9298  0.0143
  565MOL0     C77890   6.004   6.119   8.646 -0.2503 -0.0483 -0.0650
  565MOL0     O77891   5.962   6.217   8.559 -0.9711  0.0774  0.3172
  565MOL0     C77892   5.920   6.348   8.605 -0.3915  0.4386  0.5021
  565MOL0     C77893   5.780   6.350   8.565  1.2089 -0.7090 -2.2318
  565MOL0     C77894   5.704   6.490   8.581  1.4762 -0.4648 -0.0997
  565MOL0     C77895   5.687   6.553   8.728 -0.1108 -0.1359  0.2793
  565MOL0     C77896   5.635   6.445   8.817  0.3267  0.1794 -1.5302
  565MOL0     C77897   5.608   6.351   8.888  0.4567 -0.3330  0.1841
  565MOL0     C77898   5.934   6.079   8.757  0.1668  0.2848  0.1896
  565MOL0     C77899   5.966   5.962   8.837 -0.0481 -0.2364  0.5784
  565MOL0     C77900   5.909   5.940   8.980 -0.8204  0.3433  0.6476
  565MOL0     H77901   6.356   5.680   8.855  0.3209  0.1113 -2.9859
  565MOL0     H77902   6.511   5.518   8.941  0.4096 -1.2195  0.3356
  565MOL0     H77903   6.625   5.354   8.989 -1.3574  0.2096 -1.6184
  565MOL0     H77904   6.648   5.185   9.017 -0.1832 -0.1735  4.0568
  565MOL0     H77905   6.595   5.179   9.204  1.7330  0.5997 -3.6598
  565MOL0     H77906   6.580   5.358   9.203  0.8085  0.1835  0.2059
  565MOL0     H77907   6.384   5.345   9.280  1.3053 -0.8883  1.0377
  565MOL0     H77908   6.321   5.289   9.129  1.5848 -1.6240 -1.5010
  565MOL0     H77909   6.416   5.081   9.319 -1.3143  1.0612  1.3775
  565MOL0     H77910   6.261   5.158   9.345  1.0845  1.8145  0.9245
  565MOL0     H77911   6.272   4.941   9.208  2.9643 -0.8202 -2.3833
  565MOL0     H77912   6.336   5.049   9.082  0.0517  2.4544 -0.3847
  565MOL0     H77913   6.124   5.188   9.102 -1.8545  0.2636 -1.1544
  565MOL0     H77914   6.110   5.027   9.026 -2.9468 -1.2162  1.2258
  565MOL0     H77915   6.084   5.009   9.320 -0.5971  0.5916  0.0873
  565MOL0     H77916   5.983   4.935   9.198  1.8433 -0.2412 -0.9231
  565MOL0     H77917   5.932   5.220   9.291 -4.3697  0.3975  2.5253
  565MOL0     H77918   5.884   5.153   9.146 -1.1950  0.0658  0.7792
  565MOL0     H77919   5.857   5.156   9.529 -0.0209  1.9746 -0.7705
  565MOL0     H77920   5.672   5.071   9.684  0.4763  1.7258  1.9380
  565MOL0     H77921   5.502   5.047   9.626 -0.5241  1.0996 -1.9406
  565MOL0     H77922   5.517   5.278   9.711 -1.2034  1.9286 -0.7852
  565MOL0     H77923   5.649   5.302   9.599 -0.8404  1.5876  1.1912
  565MOL0     H77924   5.499   5.276   9.409 -0.7790  0.4157  0.2435
  565MOL0     H77925   5.365   5.238   9.510 -2.1275  1.6562 -2.0540
  565MOL0     H77926   5.365   5.482   9.448 -3.4693  1.8581  3.6210
  565MOL0     H77927   5.372   5.457   9.625  1.4923  0.6267  1.3161
  565MOL0     H77928   5.773   5.660   9.559  1.3642  2.5576 -0.1372
  565MOL0     H77929   5.875   5.930   9.526  2.0047  3.3758  1.2436
  565MOL0     H77930   5.919   5.805   9.647  0.8574  0.7752  2.0809
  565MOL0     H77931   5.876   5.975   9.692 -0.1568  1.8739 -2.5384
  565MOL0     H77932   5.654   6.320   9.573  1.9639  0.5357  1.6287
  565MOL0     H77933   5.607   6.562   9.553 -1.8163  2.0922  0.2472
  565MOL0     H77934   5.539   6.784   9.611  0.6905 -2.7330  0.0421
  565MOL0     H77935   5.415   6.738   9.487 -0.8536 -0.2952  1.2568
  565MOL0     H77936   5.354   6.951   9.484 -1.3590  2.1262 -0.6428
  565MOL0     H77937   5.258   6.866   9.601  0.6327 -2.0134 -1.9473
  565MOL0     H77938   5.504   6.994   9.724 -1.2059  0.2938  6.7706
  565MOL0     H77939   5.349   6.937   9.788  0.0122 -1.9899 -2.0799
  565MOL0     H77940   5.229   7.090   9.633  0.7699  2.5781 -4.4894
  565MOL0     H77941   5.373   7.169   9.588  1.7611 -3.4980 -1.3395
  565MOL0     H77942   5.263   7.298   9.760 -1.3165 -1.5196 -2.1756
  565MOL0     H77943   5.285   7.159   9.875 -0.6011 -2.8337 -1.5117
  565MOL0     H77944   5.489   7.324   9.728  0.7672 -1.1855  0.2392
  565MOL0     H77945   5.536   7.202   9.847  0.2802 -1.1762 -4.7153
  565MOL0     H77946   5.340   7.434   9.921 -0.0256  1.1284  0.6075
  565MOL0     H77947   5.508   7.478   9.897  0.6508 -0.3287 -0.9878
  565MOL0     H77948   5.575   7.297  10.060 -0.3809 -2.1714  1.8110
  565MOL0     H77949   5.401   7.295  10.117  0.5390  0.9006  1.8819
  565MOL0     H77950   5.235   6.503   9.759 -0.2648 -1.5484  0.4271
  565MOL0     H77951   5.269   6.257   9.740  1.6982 -1.8769  1.4659
  565MOL0     H77952   5.370   5.912   9.685  0.5690  1.9959 -1.6053
  565MOL0     H77953   5.352   5.682   9.626  1.2593 -2.2823 -0.5847
  565MOL0     H77954   6.230   5.211   8.803 -0.6849  1.2123 -1.5859
  565MOL0     H77955   6.092   5.364   8.744 -1.5415  2.0913  0.3465
  565MOL0     H77956   6.166   5.832   8.576  1.2838  3.1344 -0.4181
  565MOL0     H77957   6.153   6.044   8.502  1.8664 -0.8699  1.7085
  565MOL0     H77958   5.920   6.358   8.714 -1.7305  1.2918  0.4464
  565MOL0     H77959   5.965   6.435   8.554 -1.6401  0.2240 -1.0410
  565MOL0     H77960   5.732   6.272   8.625 -0.6902  1.5499 -0.6554
  565MOL0     H77961   5.764   6.333   8.458 -1.5555  0.1357 -2.0188
  565MOL0     H77962   5.754   6.564   8.518  0.1193  0.9447  0.3879
  565MOL0     H77963   5.601   6.477   8.545 -1.0923  1.5001  5.3992
  565MOL0     H77964   5.629   6.645   8.724  3.7033  2.8305  4.1126
  565MOL0     H77965   5.786   6.583   8.764  0.0175 -0.7206  0.4226
  565MOL0     H77966   5.591   6.265   8.949  1.6201 -0.9699 -0.3446
  565MOL0     H77967   5.862   6.151   8.794  0.3517  1.5781 -1.7982
  565MOL0     H77968   5.988   5.956   9.053  0.1790 -1.7054  0.0784
  565MOL0     H77969   5.815   5.994   8.997 -2.3054 -2.3981  1.7008
  565MOL0     H77970   5.871   5.839   8.999  2.0159 -0.5133  2.3880
  566MOL0     O77971   7.194  10.232  10.867  0.0982 -0.1393 -0.3143
  566MOL0     C77972   7.159  10.114  10.891  0.1585 -0.1374 -0.3842
  566MOL0     O77973   7.031  10.054  10.873  0.1981 -0.6259 -0.5646
  566MOL0     C77974   6.940  10.119  10.792 -0.0251  0.7298 -1.0287
  566MOL0     C77975   6.914  10.065  10.662 -0.3205 -0.2486  0.6476
  566MOL0     C77976   6.817  10.142  10.582  1.1464  0.3313  0.4542
  566MOL0     C77977   6.747  10.256  10.633 -0.6260  0.6885  0.0915
  566MOL0     O77978   6.665  10.323  10.554  0.1337 -0.3722  0.0188
  566MOL0     C77979   6.672  10.313  10.405  0.6669  0.1181 -0.0632
  566MOL0     C77980   6.574  10.212  10.360 -0.1891 -0.1809  0.0200
  566MOL0     C77981   6.441  10.280  10.316 -0.3944 -0.5690 -0.2802
  566MOL0     C77982   6.342  10.301  10.439  0.0821  0.5659  0.6288
  566MOL0     C77983   6.201  10.362  10.402 -0.6192  0.6937 -0.1812
  566MOL0     C77984   6.217  10.511  10.347  0.1111  0.4874 -0.5548
  566MOL0     C77985   6.297  10.611  10.447  0.4853  0.1903  0.4688
  566MOL0     C77986   6.250  10.607  10.595 -0.2441  1.3544 -0.6522
  566MOL0     N77987   6.262  10.742  10.662 -0.4972  0.6750 -0.3288
  566MOL0     C77988   6.155  10.803  10.734 -0.1787  0.5810 -0.3626
  566MOL0     C77989   6.202  10.922  10.766  0.6151  0.0131 -0.3790
  566MOL0     C77990   6.131  11.034  10.833 -0.2234 -0.3821 -0.2590
  566MOL0     C77991   6.157  11.042  10.988 -0.6237 -0.1798  0.7409
  566MOL0     C77992   6.304  11.054  11.012 -0.3593  0.2988 -0.6234
  566MOL0     C77993   6.334  11.051  11.165  0.2314 -1.0399  0.1954
  566MOL0     O77994   6.468  11.007  11.211 -0.7826  0.5870  0.4658
  566MOL0     C77995   6.487  10.999  11.345  0.5999 -0.0231 -0.3993
  566MOL0     C77996   6.405  11.038  11.446 -0.4538 -0.3688 -0.9753
  566MOL0     C77997   6.436  11.027  11.581 -0.3347  0.1196 -0.0491
  566MOL0     C77998   6.343  11.081  11.679 -1.0127 -0.3682  0.0972
  566MOL0     C77999   6.568  10.976  11.616  0.2638 -0.0801 -0.1887
  566MOL0     C78000   6.608  10.963  11.753 -0.2025 -0.5503 -0.1503
  566MOL0     O78001   6.528  10.903  11.847  0.7565  0.3889 -0.8299
  566MOL0     C78002   6.552  10.915  11.983 -0.0840 -0.2076 -0.1781
  566MOL0     C78003   6.519  10.803  12.065 -0.8450  0.8426  0.9956
  566MOL0     C78004   6.529  10.800  12.205 -0.2577 -0.9373 -0.1360
  566MOL0     C78005   6.570  10.924  12.267  0.8198  1.1765 -0.4167
  566MOL0     O78006   6.550  10.924  12.405 -0.2878  1.4275 -1.0179
  566MOL0     C78007   6.634  11.015  12.477 -0.0647  0.3724 -0.4602
  566MOL0     C78008   6.622  11.003  12.636 -0.8250 -0.5441  0.6544
  566MOL0     C78009   6.481  10.996  12.705 -0.8692 -0.6674 -0.7179
  566MOL0     C78010   6.518  10.985  12.856 -1.0769  0.7153 -0.0212
  566MOL0     C78011   6.396  11.036  12.945  0.8773 -0.5798 -0.2234
  566MOL0     C78012   6.330  10.917  13.015 -0.8421  0.6652 -0.0166
  566MOL0     C78013   6.207  10.953  13.089  0.4396 -0.2794  0.3998
  566MOL0     C78014   6.094  10.995  13.005  0.1382 -0.5637  0.3682
  566MOL0    Cl78015   5.952  11.000  13.113 -0.3203 -0.1746 -0.6367
  566MOL0     C78016   6.608  11.031  12.181  0.1582 -0.7339  0.6503
  566MOL0     C78017   6.602  11.032  12.047  0.0180 -0.0375  0.0052
  566MOL0     O78018   6.724  11.001  11.776 -0.6174  0.0664 -0.2488
  566MOL0     C78019   6.640  10.904  11.511  0.2811  0.1217  0.4491
  566MOL0     C78020   6.604  10.929  11.376 -0.5443 -0.5034 -0.2627
  566MOL0     N78021   6.327  10.942  10.710  0.5031  0.1100 -1.0500
  566MOL0     N78022   6.371  10.832  10.656  0.3893  0.2584 -0.0925
  566MOL0     C78023   6.779  10.293  10.765 -1.0448  0.7830  0.2733
  566MOL0     C78024   6.877  10.229  10.850  0.6010  0.1531 -0.3269
  566MOL0     C78025   7.264  10.014  10.940 -1.1473 -0.3677  0.5892
  566MOL0     C78026   7.219   9.898  11.004 -0.1798 -0.3665 -0.3388
  566MOL0     C78027   7.297   9.802  11.073 -0.2566 -0.6646  0.1430
  566MOL0     C78028   7.436   9.830  11.065  0.5832  0.7243  0.2266
  566MOL0     O78029   7.526   9.757  11.143  0.1325 -0.2351 -0.1699
  566MOL0     C78030   7.484   9.630  11.194 -0.3291  0.2724  0.3140
  566MOL0     C78031   7.590   9.576  11.293  0.3323 -0.5852 -0.1831
  566MOL0     C78032   7.726   9.539  11.242 -0.3667 -0.4859  0.6489
  566MOL0     C78033   7.817   9.482  11.353  0.6655  0.1149 -0.0542
  566MOL0     C78034   7.960   9.481  11.335 -0.7114 -0.4061 -0.0329
  566MOL0     C78035   8.079   9.491  11.319  0.4802  0.0289  1.4906
  566MOL0     C78036   7.486   9.946  11.008 -0.1494  0.1618 -0.2719
  566MOL0     C78037   7.407  10.040  10.949  0.2627 -0.3729 -0.1630
  566MOL0     C78038   7.468  10.163  10.883 -0.2797 -0.0997 -0.1553
  566MOL0     H78039   6.970   9.980  10.625 -0.0260  0.6866 -1.1502
  566MOL0     H78040   6.785  10.100  10.487 -1.1521 -1.5980  1.9653
  566MOL0     H78041   6.770  10.285  10.366 -0.3144 -2.7863 -0.6854
  566MOL0     H78042   6.639  10.409  10.365 -0.3559 -0.7816 -1.4754
  566MOL0     H78043   6.629  10.150  10.289 -1.9401 -1.3030 -0.4197
  566MOL0     H78044   6.535  10.140  10.433 -3.1213 -0.8657 -2.0445
  566MOL0     H78045   6.466  10.365  10.252 -2.4875 -1.7515 -2.8577
  566MOL0     H78046   6.396  10.219  10.237 -0.8813  2.3498 -2.4336
  566MOL0     H78047   6.332  10.207  10.494  1.5704 -0.5219 -0.8804
  566MOL0     H78048   6.389  10.370  10.510  0.9018  0.9544 -0.2879
  566MOL0     H78049   6.129  10.351  10.485  1.3759 -1.2524  1.3970
  566MOL0     H78050   6.152  10.308  10.321 -1.2115  3.4795 -1.8258
  566MOL0     H78051   6.274  10.518  10.255  1.9394  4.8496  0.6399
  566MOL0     H78052   6.113  10.539  10.328  0.4769  1.4449 -1.1996
  566MOL0     H78053   6.276  10.711  10.410 -4.2894  0.6107  3.3670
  566MOL0     H78054   6.405  10.599  10.441  0.3717 -0.6005 -0.1379
  566MOL0     H78055   6.148  10.571  10.608  1.1011 -2.2360  1.2818
  566MOL0     H78056   6.322  10.541  10.645 -1.2898  1.1118  0.5931
  566MOL0     H78057   6.055  10.769  10.761  0.5985 -1.6182 -0.0827
  566MOL0     H78058   6.023  11.024  10.816 -1.0275  2.7522  2.1815
  566MOL0     H78059   6.161  11.128  10.785  1.6575 -0.4486  0.7202
  566MOL0     H78060   6.105  11.126  11.033 -1.9108 -0.4330 -0.2091
  566MOL0     H78061   6.119  10.954  11.040 -0.9480 -0.2142  0.4483
  566MOL0     H78062   6.346  10.959  10.978 -3.4706 -0.1931 -3.6417
  566MOL0     H78063   6.360  11.136  10.967  4.4113 -2.9809 -1.4700
  566MOL0     H78064   6.304  11.143  11.215  2.5490 -0.2669  0.2481
  566MOL0     H78065   6.264  10.975  11.201 -0.0059 -1.3477 -0.8665
  566MOL0     H78066   6.302  11.062  11.421 -1.9546 -3.9646  1.0290
  566MOL0     H78067   6.260  11.138  11.635  0.4719  0.2388 -2.0917
  566MOL0     H78068   6.382  11.147  11.756 -3.2278  0.8328  0.2887
  566MOL0     H78069   6.290  11.000  11.729 -0.6136  2.1378  5.1787
  566MOL0     H78070   6.513  10.715  12.002  3.3478  1.6605 -0.8608
  566MOL0     H78071   6.501  10.718  12.271 -2.6603 -1.9845 -2.3041
  566MOL0     H78072   6.740  11.001  12.452 -0.0975  2.0774 -1.7545
  566MOL0     H78073   6.618  11.121  12.456 -0.6122  0.6401  1.2241
  566MOL0     H78074   6.672  10.909  12.661  3.2762  1.1782 -0.2475
  566MOL0     H78075   6.683  11.082  12.681  1.7884 -2.3324  0.5250
  566MOL0     H78076   6.431  10.903  12.677 -0.9128 -1.6548  2.2828
  566MOL0     H78077   6.415  11.079  12.678  0.3450  0.8244  0.6720
  566MOL0     H78078   6.609  11.044  12.872  0.9680 -1.5781 -2.2573
  566MOL0     H78079   6.550  10.881  12.864 -1.4777  0.4512 -1.4322
  566MOL0     H78080   6.432  11.116  13.010 -2.2970 -1.2430  2.6555
  566MOL0     H78081   6.317  11.077  12.882  1.0456  0.3559  0.1720
  566MOL0     H78082   6.414  10.881  13.076 -1.9998 -1.1628  0.5753
  566MOL0     H78083   6.311  10.827  12.955  0.7305 -1.3522  2.2668
  566MOL0     H78084   6.232  11.024  13.168  2.1378 -0.1992 -0.1636
  566MOL0     H78085   6.176  10.858  13.135 -2.2155 -0.0517 -0.7837
  566MOL0     H78086   6.092  10.925  12.921 -2.5000 -0.0207 -0.1346
  566MOL0     H78087   6.121  11.092  12.963 -0.8442  0.4490  1.9597
  566MOL0     H78088   6.639  11.131  12.213 -3.1145  0.6957 -0.2790
  566MOL0     H78089   6.638  11.122  11.999 -1.3182 -0.1823 -1.3487
  566MOL0     H78090   6.730  10.848  11.533 -1.2120 -2.8226 -0.3397
  566MOL0     H78091   6.676  10.906  11.298  0.8268 -0.3626  0.9287
  566MOL0     H78092   6.731  10.381  10.806 -4.3451 -1.8279  2.5580
  566MOL0     H78093   6.900  10.249  10.954  0.5985 -0.1272 -0.2706
  566MOL0     H78094   7.111   9.894  11.016 -0.2198  0.7702 -0.2641
  566MOL0     H78095   7.247   9.729  11.137 -0.7883 -1.5294 -1.2089
  566MOL0     H78096   7.387   9.637  11.244 -0.4611 -0.4018  0.1637
  566MOL0     H78097   7.489   9.548  11.122 -0.8647 -1.7416  2.4527
  566MOL0     H78098   7.543   9.484  11.329  2.9472  0.1794  6.7130
  566MOL0     H78099   7.604   9.632  11.386 -0.3797  0.3985 -0.6444
  566MOL0     H78100   7.717   9.471  11.156  2.0208  0.3275 -0.3306
  566MOL0     H78101   7.772   9.633  11.208 -0.4902  0.1605  2.1756
  566MOL0     H78102   7.777   9.384  11.382 -1.2162  0.0817 -2.4411
  566MOL0     H78103   7.803   9.548  11.439  0.7663  1.3412 -0.9589
  566MOL0     H78104   8.186   9.490  11.305  0.4765  5.2100 -1.4403
  566MOL0     H78105   7.590   9.955  11.036  0.1214 -6.1713  2.2535
  566MOL0     H78106   7.571  10.152  10.848 -0.7451  1.9754 -2.5232
  566MOL0     H78107   7.418  10.176  10.786 -1.2926  1.6603  0.5566
  566MOL0     H78108   7.458  10.252  10.945 -1.1892 -1.5007  1.7958
  567MOL0     O78109   6.997   5.635   8.899 -0.1480 -0.2908 -0.0450
  567MOL0     C78110   7.070   5.718   8.848  0.3507  0.1541  0.5692
  567MOL0     O78111   7.045   5.847   8.836 -0.4415 -0.0755  0.5302
  567MOL0     C78112   7.009   5.906   8.955  0.5228 -0.6969  0.2125
  567MOL0     C78113   6.950   6.032   8.948 -0.2894 -0.0377 -1.4068
  567MOL0     C78114   6.916   6.101   9.070  0.1488  0.0896 -0.1669
  567MOL0     C78115   6.962   6.054   9.199  0.5266 -0.3059  0.7024
  567MOL0     O78116   6.935   6.116   9.312 -1.0264  0.3597  0.5642
  567MOL0     C78117   6.818   6.193   9.323 -0.4585 -0.3338 -0.1326
  567MOL0     C78118   6.836   6.237   9.469  0.0708  1.1197  0.5170
  567MOL0     C78119   6.821   6.120   9.576 -0.1691 -1.3869  1.0916
  567MOL0     C78120   6.755   6.166   9.700 -0.2458 -0.4097  0.4538
  567MOL0     C78121   6.783   6.082   9.822 -0.3100 -0.0532  0.1467
  567MOL0     C78122   6.692   6.123   9.934  0.5358 -0.0815 -0.7159
  567MOL0     C78123   6.707   6.028  10.053 -0.4067 -0.4671  0.0133
  567MOL0     C78124   6.636   6.079  10.183 -1.7190 -0.5359  0.4244
  567MOL0     N78125   6.693   6.001  10.289  0.5444  0.2630 -0.4745
  567MOL0     C78126   6.818   6.023  10.348  0.4401  0.4159  1.6842
  567MOL0     C78127   6.826   5.942  10.453 -0.0911 -0.1723  0.1820
  567MOL0     C78128   6.935   5.947  10.555  0.5341 -0.9008  0.4317
  567MOL0     C78129   6.896   5.984  10.698  0.0913 -0.0807 -0.0005
  567MOL0     C78130   7.000   5.962  10.812  0.1078  0.1078 -0.1704
  567MOL0     C78131   6.924   6.009  10.943  0.7125 -0.8284 -1.0676
  567MOL0     O78132   6.842   5.903  10.995  0.5257 -0.0037  0.0209
  567MOL0     C78133   6.814   5.910  11.126 -0.1437  0.6794 -0.2532
  567MOL0     C78134   6.811   5.801  11.207  0.9145  0.0083  0.0682
  567MOL0     C78135   6.786   5.807  11.344 -0.1235  0.1386 -0.3498
  567MOL0     C78136   6.791   5.687  11.425 -0.9732  0.6371  0.2247
  567MOL0     C78137   6.751   5.934  11.402 -0.1401  0.3153  0.4029
  567MOL0     C78138   6.724   5.950  11.541  0.8349 -0.0532 -0.7544
  567MOL0     O78139   6.776   6.062  11.601 -0.7952 -0.3322  0.0550
  567MOL0     C78140   6.786   6.063  11.736 -0.2505 -0.6151  0.3091
  567MOL0     C78141   6.781   6.187  11.805  0.6932 -0.2244 -0.0008
  567MOL0     C78142   6.816   6.174  11.939 -0.2427 -0.2014 -0.4623
  567MOL0     C78143   6.826   6.060  12.015  0.8371  0.2683  1.1042
  567MOL0     O78144   6.851   6.055  12.146 -0.6906  0.5803  0.1251
  567MOL0     C78145   6.825   6.172  12.235  0.0896 -0.1244 -0.2337
  567MOL0     C78146   6.848   6.128  12.382  0.3652  0.4186 -0.5248
  567MOL0     C78147   6.747   6.031  12.442 -0.7523  0.3792  0.0475
  567MOL0     C78148   6.810   5.937  12.550 -0.2163 -0.2967 -0.4974
  567MOL0     C78149   6.721   5.801  12.568 -0.2476 -0.7427  0.1076
  567MOL0     C78150   6.788   5.706  12.660  0.0246  0.7668 -0.2434
  567MOL0     C78151   6.927   5.682  12.612 -0.0163  0.1237  0.4837
  567MOL0     C78152   6.980   5.544  12.642 -0.5155  0.6698 -0.8230
  567MOL0    Cl78153   7.157   5.553  12.595 -0.1352 -0.0061  0.0024
  567MOL0     C78154   6.836   5.950  11.935  0.2841 -0.3121 -0.3597
  567MOL0     C78155   6.825   5.949  11.803  0.6586 -0.7180  0.5680
  567MOL0     O78156   6.637   5.877  11.587 -0.1200 -0.5130 -0.1766
  567MOL0     C78157   6.746   6.042  11.322  0.8198 -0.1281  0.2289
  567MOL0     C78158   6.772   6.035  11.185  0.0333  0.1509  0.1377
  567MOL0     N78159   6.703   5.882  10.469  0.5119 -0.1534 -0.0302
  567MOL0     N78160   6.624   5.913  10.374 -0.4345  1.5724 -0.1866
  567MOL0     C78161   7.030   5.938   9.199 -0.1824  0.5183  0.2895
  567MOL0     C78162   7.056   5.864   9.081 -0.2930 -0.0674  0.1012
  567MOL0     C78163   7.189   5.664   8.787 -1.2546  0.0850  0.8138
  567MOL0     C78164   7.301   5.751   8.767  1.0438 -0.4837  0.0558
  567MOL0     C78165   7.417   5.703   8.714 -0.4360  0.4004 -0.5655
  567MOL0     C78166   7.411   5.580   8.651  0.1868  1.0967  0.1702
  567MOL0     O78167   7.528   5.513   8.616  0.2021 -0.5091 -0.2273
  567MOL0     C78168   7.602   5.574   8.503 -0.5171  0.7137 -1.0388
  567MOL0     C78169   7.750   5.556   8.540  0.1518 -0.4557  0.7822
  567MOL0     C78170   7.801   5.653   8.644  0.1938 -0.1444 -0.0965
  567MOL0     C78171   7.794   5.797   8.617 -0.0024 -0.3453  0.4043
  567MOL0     C78172   7.881   5.892   8.676  1.1066  1.3704 -0.2000
  567MOL0     C78173   7.951   5.974   8.739 -0.0217  0.6390 -1.0059
  567MOL0     C78174   7.300   5.500   8.646 -0.8340 -0.3080 -0.2049
  567MOL0     C78175   7.192   5.531   8.719  0.9487 -0.4326 -0.6814
  567MOL0     C78176   7.075   5.433   8.720  0.2673 -0.1083 -0.9898
  567MOL0     H78177   6.913   6.080   8.858 -1.9268  1.9471  0.2398
  567MOL0     H78178   6.853   6.189   9.063 -2.7104 -1.4758  3.0567
  567MOL0     H78179   6.732   6.125   9.316  0.7518 -1.9288 -0.1390
  567MOL0     H78180   6.811   6.271   9.247 -0.6682 -0.1758  0.0467
  567MOL0     H78181   6.934   6.280   9.492 -0.4811  1.5949  2.1801
  567MOL0     H78182   6.765   6.318   9.489 -1.4732 -0.3130  1.1024
  567MOL0     H78183   6.763   6.040   9.529 -0.5501 -0.4625 -0.0789
  567MOL0     H78184   6.921   6.089   9.605  1.1659  2.1648  0.7900
  567MOL0     H78185   6.784   6.269   9.722 -1.8902 -0.1915  1.8318
  567MOL0     H78186   6.647   6.168   9.682 -0.7064 -2.8681  2.3705
  567MOL0     H78187   6.888   6.100   9.846 -0.7007  2.1480  0.3460
  567MOL0     H78188   6.779   5.975   9.797  0.7714 -0.8469  2.9176
  567MOL0     H78189   6.720   6.226   9.959  1.2641 -0.5995  0.7360
  567MOL0     H78190   6.587   6.108   9.907 -0.3828 -0.2527  2.5076
  567MOL0     H78191   6.812   6.009  10.079 -0.6002 -0.9205  0.4780
  567MOL0     H78192   6.660   5.931  10.037  2.1307 -1.8852  0.5594
  567MOL0     H78193   6.666   6.183  10.197  3.1303 -1.5011 -0.9354
  567MOL0     H78194   6.527   6.073  10.182 -1.9450  2.2635  0.9991
  567MOL0     H78195   6.897   6.089  10.315 -1.0520  0.9241 -1.1506
  567MOL0     H78196   7.015   6.019  10.533  0.5346 -0.5089  1.6254
  567MOL0     H78197   6.976   5.846  10.553  0.7911 -0.7958 -1.3450
  567MOL0     H78198   6.893   6.093  10.700  0.3810 -0.0760  1.6305
  567MOL0     H78199   6.795   5.950  10.721 -0.2926  2.5487  2.8586
  567MOL0     H78200   7.024   5.856  10.824  2.5333  0.8525  3.7072
  567MOL0     H78201   7.083   6.029  10.788  0.8767 -0.7340  0.0715
  567MOL0     H78202   7.003   6.029  11.016 -0.4345 -3.0775  0.9524
  567MOL0     H78203   6.865   6.102  10.940  1.3424 -0.3723  0.0770
  567MOL0     H78204   6.860   5.721  11.151 -1.3047  1.4440 -4.3819
  567MOL0     H78205   6.690   5.656  11.455  0.4423 -1.9569  2.9068
  567MOL0     H78206   6.848   5.694  11.518 -1.6275 -1.9237  0.9090
  567MOL0     H78207   6.828   5.602  11.366  0.7286  0.9104  0.8397
  567MOL0     H78208   6.757   6.281  11.757  0.5314 -0.9006 -1.2610
  567MOL0     H78209   6.825   6.270  11.990 -2.3266  1.2406 -2.6047
  567MOL0     H78210   6.893   6.252  12.205  3.4587 -3.1269 -1.3142
  567MOL0     H78211   6.718   6.197  12.239  0.2851  0.6365  2.6984
  567MOL0     H78212   6.945   6.078  12.378 -0.9193 -2.5630  1.5293
  567MOL0     H78213   6.852   6.218  12.444 -1.5751  1.4313 -1.7803
  567MOL0     H78214   6.694   5.973  12.365 -4.0772  0.4973  2.0563
  567MOL0     H78215   6.664   6.083  12.491  0.5109  1.0336  1.5601
  567MOL0     H78216   6.816   5.994  12.643  0.4821 -1.2468  0.0516
  567MOL0     H78217   6.911   5.912  12.518 -0.2854 -0.0614 -0.9113
  567MOL0     H78218   6.623   5.819  12.613  0.3276 -2.3427  2.1549
  567MOL0     H78219   6.696   5.753  12.474  0.7583 -2.9260  0.8927
  567MOL0     H78220   6.747   5.605  12.658  0.7674  0.4628 -0.6144
  567MOL0     H78221   6.791   5.744  12.763 -1.4321  0.6529 -0.1421
  567MOL0     H78222   6.996   5.755  12.656  1.5006 -0.9340 -0.0691
  567MOL0     H78223   6.935   5.685  12.503  2.6458 -1.4332  0.5405
  567MOL0     H78224   6.931   5.462  12.590 -1.0826 -0.1619  0.9506
  567MOL0     H78225   6.979   5.527  12.750 -0.9439  2.6147 -0.4751
  567MOL0     H78226   6.847   5.850  11.975  3.8684  0.7608  1.8038
  567MOL0     H78227   6.821   5.849  11.761 -1.0239 -0.1220 -0.7687
  567MOL0     H78228   6.687   6.129  11.351 -0.4826 -1.3677  1.4837
  567MOL0     H78229   6.734   6.108  11.115 -1.4859 -0.4565  0.2902
  567MOL0     H78230   7.075   5.918   9.296  0.1708 -1.1857 -0.1927
  567MOL0     H78231   7.119   5.776   9.097 -0.6859 -0.2157  0.8954
  567MOL0     H78232   7.288   5.852   8.803 -0.3599 -0.9395  0.9273
  567MOL0     H78233   7.513   5.753   8.713 -1.4494  2.4778 -1.7294
  567MOL0     H78234   7.577   5.514   8.414 -1.2607 -0.1438 -0.2712
  567MOL0     H78235   7.576   5.679   8.492 -0.1678  1.1541  1.6615
  567MOL0     H78236   7.816   5.560   8.452 -1.1477  2.7912 -0.2024
  567MOL0     H78237   7.763   5.455   8.580  2.6056 -0.0593  1.1357
  567MOL0     H78238   7.746   5.621   8.733 -1.2525 -1.0146 -1.2559
  567MOL0     H78239   7.909   5.642   8.659 -0.0077  0.4707  2.2290
  567MOL0     H78240   7.696   5.824   8.658 -1.2187 -0.6395 -2.1225
  567MOL0     H78241   7.785   5.807   8.509 -0.0451 -1.8581  0.2337
  567MOL0     H78242   8.018   6.030   8.801  2.6145 -0.6006 -2.5796
  567MOL0     H78243   7.301   5.406   8.591 -2.7416 -0.6891  0.3431
  567MOL0     H78244   7.061   5.377   8.813 -2.8348 -2.6569 -2.7969
  567MOL0     H78245   6.985   5.494   8.705  2.6306  3.7972 -0.6262
  567MOL0     H78246   7.095   5.352   8.648 -1.8397  1.4176 -3.4949
  568MOL0     O78247   5.677   7.957   8.087  0.0577  0.0513 -0.1680
  568MOL0     C78248   5.608   7.933   8.188 -0.8920  0.0056 -0.5193
  568MOL0     O78249   5.531   8.034   8.246  0.8832  0.8427  0.9061
  568MOL0     C78250   5.545   8.170   8.213 -0.2304 -0.0391  0.0246
  568MOL0     C78251   5.498   8.257   8.308  0.2004  1.2783 -0.1184
  568MOL0     C78252   5.484   8.392   8.295 -0.2624 -0.1802 -0.1737
  568MOL0     C78253   5.538   8.457   8.182  0.1661 -0.2227 -0.0403
  568MOL0     O78254   5.560   8.595   8.161 -0.0407  0.2035  1.1196
  568MOL0     C78255   5.572   8.688   8.266 -0.2722  0.2102 -0.8787
  568MOL0     C78256   5.699   8.655   8.347  0.3704 -0.3128 -1.1240
  568MOL0     C78257   5.726   8.729   8.476 -1.2200 -0.8761  1.0463
  568MOL0     C78258   5.658   8.673   8.596  0.2523  0.5821  0.1105
  568MOL0     C78259   5.658   8.753   8.730 -0.0471  0.4125  0.1010
  568MOL0     C78260   5.796   8.780   8.800  0.0070  0.3011 -0.2962
  568MOL0     C78261   5.775   8.894   8.913  0.1707  0.7965  0.1366
  568MOL0     C78262   5.895   8.924   9.004 -0.0286  0.0980  0.4275
  568MOL0     N78263   5.857   9.045   9.094 -0.1751  0.0945 -0.2486
  568MOL0     C78264   5.794   9.034   9.216 -0.0837  0.2104  0.3717
  568MOL0     C78265   5.764   9.164   9.251  0.2871  0.7632 -0.3136
  568MOL0     C78266   5.668   9.204   9.364 -0.6522  0.3186  1.0468
  568MOL0     C78267   5.549   9.281   9.305  0.6207  0.1948  0.6390
  568MOL0     C78268   5.451   9.342   9.404 -0.5735 -0.6178 -0.5375
  568MOL0     C78269   5.311   9.396   9.344  0.1025 -0.1279  0.3540
  568MOL0     O78270   5.330   9.514   9.269 -0.2608 -0.2705 -0.3562
  568MOL0     C78271   5.219   9.577   9.219 -0.4658  0.6822  0.0543
  568MOL0     C78272   5.173   9.541   9.093 -0.5644  0.1269  0.5294
  568MOL0     C78273   5.057   9.608   9.051 -0.4544 -0.0136 -0.7083
  568MOL0     C78274   5.013   9.554   8.917  0.2858 -0.7434 -1.1055
  568MOL0     C78275   4.988   9.712   9.126 -0.1598  0.6828 -0.0172
  568MOL0     C78276   4.860   9.767   9.083 -0.1192  0.5091  0.8023
  568MOL0     O78277   4.799   9.860   9.161  0.0363 -0.0109  0.4955
  568MOL0     C78278   4.692   9.921   9.110  0.4943  0.1464  0.2391
  568MOL0     C78279   4.559   9.867   9.105 -0.7239  0.4689 -0.7943
  568MOL0     C78280   4.450   9.941   9.071 -0.1119  0.3355 -0.3653
  568MOL0     C78281   4.459  10.081   9.031  0.5974  0.1166  0.4920
  568MOL0     O78282   4.344  10.126   8.972  0.7529 -0.3165  0.7827
  568MOL0     C78283   4.354  10.259   8.909  0.1809  0.5375  0.2049
  568MOL0     C78284   4.229  10.302   8.849 -0.2039 -0.5195  0.6472
  568MOL0     C78285   4.167  10.211   8.729  0.1201 -0.3223  0.1590
  568MOL0     C78286   4.020  10.244   8.700 -0.9575 -0.3739 -0.0121
  568MOL0     C78287   3.957  10.135   8.611 -0.2090 -0.4635 -0.6485
  568MOL0     C78288   3.956   9.996   8.665  0.2358  0.9394 -0.2641
  568MOL0     C78289   3.833   9.924   8.596 -0.2013  0.4968  0.2195
  568MOL0     C78290   3.800   9.780   8.652 -1.1197 -0.5831  0.5212
  568MOL0    Cl78291   3.703   9.793   8.809 -0.3704  0.0802  0.3984
  568MOL0     C78292   4.598  10.129   9.035 -0.6251 -0.4062 -0.2212
  568MOL0     C78293   4.708  10.056   9.077  0.1141  0.8842  0.9393
  568MOL0     O78294   4.816   9.725   8.979 -0.3910  0.2661  1.0499
  568MOL0     C78295   5.045   9.745   9.250 -0.9735  0.5157 -0.2770
  568MOL0     C78296   5.160   9.682   9.292  0.2128  0.2223 -1.2892
  568MOL0     N78297   5.811   9.248   9.154 -0.1014 -0.2530  0.3963
  568MOL0     N78298   5.874   9.178   9.073 -0.9498  0.2755 -0.7100
  568MOL0     C78299   5.585   8.368   8.078 -0.1647  0.2436  1.1648
  568MOL0     C78300   5.586   8.230   8.090 -0.0928 -0.4655 -0.1661
  568MOL0     C78301   5.613   7.788   8.238  0.4702 -0.3314 -0.4164
  568MOL0     C78302   5.682   7.692   8.164 -0.6055 -0.2758 -0.2454
  568MOL0     C78303   5.690   7.560   8.204 -0.1068  0.0100 -0.7239
  568MOL0     C78304   5.622   7.522   8.317 -0.5988  0.6450 -0.1760
  568MOL0     O78305   5.617   7.402   8.379 -0.2147  0.4134 -0.0158
  568MOL0     C78306   5.609   7.283   8.301 -0.3027 -0.3643  0.6528
  568MOL0     C78307   5.746   7.220   8.267  0.4107  0.4255 -0.2795
  568MOL0     C78308   5.738   7.094   8.179 -0.6956  0.4239 -0.4022
  568MOL0     C78309   5.875   7.033   8.134 -0.2437 -0.5655 -0.0936
  568MOL0     C78310   5.954   7.133   8.065 -1.1949  0.2857 -0.0964
  568MOL0     C78311   6.029   7.212   8.001 -0.4436  0.4930  1.4530
  568MOL0     C78312   5.557   7.616   8.396 -0.7547  0.1784 -0.4426
  568MOL0     C78313   5.551   7.747   8.354 -0.0323 -0.9653 -0.4907
  568MOL0     C78314   5.459   7.835   8.442  0.5755  0.0437 -0.0455
  568MOL0     H78315   5.452   8.213   8.396  1.5290  0.6843  0.2919
  568MOL0     H78316   5.453   8.450   8.381 -2.8219  0.2745 -1.3167
  568MOL0     H78317   5.480   8.680   8.324 -1.2320  0.3694 -2.3334
  568MOL0     H78318   5.563   8.792   8.232 -0.9107 -0.9533 -4.7567
  568MOL0     H78319   5.682   8.551   8.375  0.9863 -0.1951 -0.2683
  568MOL0     H78320   5.789   8.670   8.288  0.6130  1.0617 -0.4629
  568MOL0     H78321   5.832   8.746   8.500 -2.0113  2.7610  2.6923
  568MOL0     H78322   5.687   8.829   8.454  0.3551 -0.1999  1.1488
  568MOL0     H78323   5.555   8.659   8.563  0.3824  2.3594 -1.1783
  568MOL0     H78324   5.711   8.580   8.618 -1.3358 -0.3663  0.0382
  568MOL0     H78325   5.597   8.704   8.806  1.8544  1.3827  2.3629
  568MOL0     H78326   5.619   8.853   8.710  2.7938  1.7213  0.5993
  568MOL0     H78327   5.833   8.686   8.842  0.7864  1.2881  1.3449
  568MOL0     H78328   5.877   8.812   8.734 -1.0863 -0.1973 -1.9338
  568MOL0     H78329   5.687   8.865   8.973  0.2154  0.4452  0.0378
  568MOL0     H78330   5.756   8.990   8.864  0.0720  1.4005  1.3296
  568MOL0     H78331   5.902   8.834   9.066 -0.4613  0.1652  0.5834
  568MOL0     H78332   5.978   8.936   8.935 -1.0510 -1.7364 -1.2408
  568MOL0     H78333   5.746   8.943   9.248 -2.7210  1.3446 -0.1156
  568MOL0     H78334   5.719   9.282   9.421  0.3780  1.4573 -1.2991
  568MOL0     H78335   5.641   9.119   9.426 -2.1226 -0.7731 -0.9433
  568MOL0     H78336   5.584   9.357   9.234 -1.5053  2.3264  1.7454
  568MOL0     H78337   5.482   9.212   9.252  2.0925  0.2087 -1.3676
  568MOL0     H78338   5.441   9.268   9.484  0.4914  1.9785  2.1742
  568MOL0     H78339   5.505   9.423   9.455  0.3983 -1.9862  0.7166
  568MOL0     H78340   5.274   9.314   9.281  2.3759 -0.8302 -0.1833
  568MOL0     H78341   5.240   9.427   9.421  2.3999 -1.9914  3.4443
  568MOL0     H78342   5.216   9.456   9.040 -3.2741 -1.1063  0.0901
  568MOL0     H78343   4.959   9.623   8.852  0.3734 -0.0325 -0.4331
  568MOL0     H78344   4.946   9.470   8.939  1.6563 -1.1590  2.1099
  568MOL0     H78345   5.099   9.518   8.860  1.9831  0.6276  0.4409
  568MOL0     H78346   4.539   9.765   9.137  0.8410  0.7424  1.2657
  568MOL0     H78347   4.348   9.906   9.066  0.3541 -1.1215 -0.1638
  568MOL0     H78348   4.405  10.331   8.973  4.5294 -0.5287 -1.6540
  568MOL0     H78349   4.420  10.239   8.824  0.6660  0.6209  0.5556
  568MOL0     H78350   4.166  10.313   8.938  0.4550  0.7486  0.9639
  568MOL0     H78351   4.228  10.404   8.810  0.3828 -0.4683  0.7658
  568MOL0     H78352   4.163  10.107   8.761  2.9475 -0.1665  1.2568
  568MOL0     H78353   4.238  10.222   8.646  0.1654  3.8421  0.5606
  568MOL0     H78354   4.009  10.342   8.654  2.5336  0.8216  1.3533
  568MOL0     H78355   3.977  10.247   8.801  1.5603 -1.4308  1.1948
  568MOL0     H78356   3.856  10.170   8.588 -0.6994 -1.6011 -0.2900
  568MOL0     H78357   4.008  10.130   8.514  1.6137 -0.9340  0.2860
  568MOL0     H78358   3.943  10.001   8.773 -0.8746 -0.3456 -0.3089
  568MOL0     H78359   4.038   9.930   8.634 -1.2036 -0.8002 -0.5465
  568MOL0     H78360   3.853   9.908   8.490  0.7144 -2.9898  0.7908
  568MOL0     H78361   3.743   9.986   8.608 -0.0670  1.0436 -1.4329
  568MOL0     H78362   3.880   9.706   8.662 -0.9400 -0.3166  1.0987
  568MOL0     H78363   3.729   9.734   8.583 -2.2438  2.0540 -0.2087
  568MOL0     H78364   4.616  10.236   9.029  0.8735 -0.4593  1.9284
  568MOL0     H78365   4.805  10.104   9.090  0.0792  1.2249  0.0295
  568MOL0     H78366   4.994   9.821   9.309  2.4504  1.2454  1.9883
  568MOL0     H78367   5.214   9.716   9.380  0.7019 -0.4143 -1.3349
  568MOL0     H78368   5.632   8.408   7.988 -2.4388  0.8909  0.1816
  568MOL0     H78369   5.617   8.165   8.009 -0.7669 -1.2292  0.1753
  568MOL0     H78370   5.737   7.726   8.077 -0.0610  3.5616  1.3769
  568MOL0     H78371   5.751   7.493   8.143 -1.0663 -0.3189 -1.3453
  568MOL0     H78372   5.562   7.206   8.363 -1.6131  1.7201  2.3975
  568MOL0     H78373   5.561   7.296   8.204 -0.1755 -0.0467  0.6333
  568MOL0     H78374   5.795   7.197   8.362 -2.8365  0.4360  1.5746
  568MOL0     H78375   5.817   7.288   8.220 -0.5919 -1.1005 -4.4076
  568MOL0     H78376   5.678   7.020   8.231  1.7664 -2.1632 -0.9750
  568MOL0     H78377   5.679   7.114   8.089 -0.7182 -0.3102 -0.5591
  568MOL0     H78378   5.853   6.960   8.056 -2.8311  1.3065 -1.2975
  568MOL0     H78379   5.931   6.983   8.213  1.4550  0.3970 -0.6097
  568MOL0     H78380   6.108   7.269   7.956  1.4962 -1.2530  2.4674
  568MOL0     H78381   5.501   7.588   8.485  1.1332  0.9886  1.0676
  568MOL0     H78382   5.432   7.782   8.533  0.9522  1.1506  0.7219
  568MOL0     H78383   5.522   7.921   8.465 -0.9014  0.4969  2.5847
  568MOL0     H78384   5.367   7.870   8.394  0.7384  3.5644  1.8949
  569MOL0     O78385  10.172   2.710   9.463  0.1499 -0.9674  0.1490
  569MOL0     C78386  10.190   2.618   9.385 -0.5722  0.6051  0.6120
  569MOL0     O78387  10.120   2.499   9.383 -0.6078  0.8199  0.1400
  569MOL0     C78388   9.993   2.488   9.434 -0.1156 -0.4204 -0.1427
  569MOL0     C78389   9.905   2.594   9.437 -0.7214  0.1333  0.7157
  569MOL0     C78390   9.776   2.581   9.491  0.4155  0.0733 -0.2335
  569MOL0     C78391   9.730   2.463   9.545 -0.3509 -0.2039  0.4398
  569MOL0     O78392   9.609   2.465   9.611  0.1134  0.2621  0.2701
  569MOL0     C78393   9.570   2.348   9.684 -0.1528 -0.5710 -0.4808
  569MOL0     C78394   9.456   2.384   9.786  0.0892 -0.7960 -0.9170
  569MOL0     C78395   9.513   2.458   9.903 -0.4132 -1.2580  0.2252
  569MOL0     C78396   9.389   2.476   9.990  0.0994 -0.4238  0.8095
  569MOL0     C78397   9.428   2.550  10.123 -0.4050 -0.2835  0.6567
  569MOL0     C78398   9.490   2.455  10.227 -0.3573 -0.0849 -0.0293
  569MOL0     C78399   9.501   2.524  10.373 -0.6820 -0.4732 -0.2601
  569MOL0     C78400   9.367   2.538  10.436 -0.2844 -0.3345  0.0113
  569MOL0     N78401   9.371   2.614  10.565 -0.0575 -0.6049  0.1436
  569MOL0     C78402   9.408   2.553  10.688  0.6499  0.9886  0.2271
  569MOL0     C78403   9.407   2.659  10.772 -0.7128 -0.8509 -0.4431
  569MOL0     C78404   9.437   2.657  10.924  0.1571 -0.0195 -0.2486
  569MOL0     C78405   9.328   2.584  11.007  0.7240  0.3197  0.3290
  569MOL0     C78406   9.190   2.655  11.011  0.2756  0.1194 -0.0848
  569MOL0     C78407   9.095   2.588  11.116 -0.4620  1.1838  0.2365
  569MOL0     O78408   8.960   2.647  11.124  0.4652 -0.0907  0.5593
  569MOL0     C78409   8.852   2.569  11.144 -0.3121 -0.5636 -0.7548
  569MOL0     C78410   8.728   2.631  11.107 -1.0684 -0.2057 -0.2688
  569MOL0     C78411   8.604   2.561  11.126  0.2098 -0.8766 -0.9473
  569MOL0     C78412   8.479   2.622  11.073  0.3768  0.3438 -0.4584
  569MOL0     C78413   8.603   2.440  11.205 -0.3741 -0.4307  0.2729
  569MOL0     C78414   8.485   2.361  11.249  0.7463 -0.1123 -0.2884
  569MOL0     O78415   8.362   2.388  11.190 -0.2035  0.5295 -0.2658
  569MOL0     C78416   8.261   2.299  11.189  0.0839  0.2065 -0.6315
  569MOL0     C78417   8.274   2.161  11.210 -0.1623  0.9778 -0.4419
  569MOL0     C78418   8.161   2.079  11.195  0.5946 -0.0354  0.8436
  569MOL0     C78419   8.041   2.131  11.152 -0.7106 -0.0819  0.7984
  569MOL0     O78420   7.943   2.037  11.166  0.1334 -0.6430  0.5609
  569MOL0     C78421   7.818   2.074  11.099  0.5374  0.6259 -0.6357
  569MOL0     C78422   7.723   2.138  11.199 -1.9910 -0.0705  0.4166
  569MOL0     C78423   7.707   2.061  11.328 -0.0959 -1.3774  0.1435
  569MOL0     C78424   7.598   1.964  11.303  0.2889  0.2107  0.4238
  569MOL0     C78425   7.572   1.893  11.435 -0.0558  1.0322 -0.5515
  569MOL0     C78426   7.454   1.802  11.426  0.1722  0.0550 -0.8230
  569MOL0     C78427   7.435   1.726  11.563  0.5681  0.4314  0.5288
  569MOL0     C78428   7.314   1.626  11.569  0.5111 -0.4838  0.0504
  569MOL0    Cl78429   7.172   1.723  11.575  0.3841  0.7473  0.2698
  569MOL0     C78430   8.031   2.271  11.132  0.6611 -0.7151 -0.2999
  569MOL0     C78431   8.135   2.353  11.144  0.1109 -0.3673  0.7437
  569MOL0     O78432   8.502   2.279  11.341  0.3168 -0.7988 -0.0064
  569MOL0     C78433   8.734   2.387  11.236  0.6064  0.5474  0.1937
  569MOL0     C78434   8.852   2.445  11.202 -0.0052 -0.5943 -0.2196
  569MOL0     N78435   9.399   2.778  10.697  0.3439  0.0297 -0.4543
  569MOL0     N78436   9.371   2.748  10.576  0.3721 -0.3314 -0.4889
  569MOL0     C78437   9.814   2.344   9.537 -0.4884  0.6809 -0.0866
  569MOL0     C78438   9.938   2.360   9.475  0.1186 -0.2958  0.6044
  569MOL0     C78439  10.318   2.618   9.304 -0.1641 -0.6274  0.4941
  569MOL0     C78440  10.339   2.501   9.227 -0.4730 -1.0106  0.3616
  569MOL0     C78441  10.446   2.480   9.144 -0.9780  0.1589 -0.9160
  569MOL0     C78442  10.551   2.572   9.152  0.1207  0.2741  0.9375
  569MOL0     O78443  10.671   2.554   9.083 -0.9758  0.1314  0.0634
  569MOL0     C78444  10.684   2.469   8.982 -0.0217  0.0703  0.3063
  569MOL0     C78445  10.756   2.530   8.866 -0.3414  0.3683  0.2971
  569MOL0     C78446  10.877   2.452   8.798  0.2859  0.3408 -1.1846
  569MOL0     C78447  10.992   2.425   8.895 -0.0654  0.6144  0.3719
  569MOL0     C78448  11.026   2.543   8.971 -0.4048 -0.0113  0.0388
  569MOL0     C78449  11.037   2.640   9.041 -0.3201  1.0849 -0.1544
  569MOL0     C78450  10.530   2.689   9.222 -0.2327  0.3475 -0.5280
  569MOL0     C78451  10.413   2.715   9.299 -0.6738 -1.1354  1.0329
  569MOL0     C78452  10.412   2.855   9.366  0.0272  0.1026 -0.0223
  569MOL0     H78453   9.924   2.691   9.394  0.1862  0.0634  0.9239
  569MOL0     H78454   9.709   2.664   9.474  1.5923  1.0645 -0.2044
  569MOL0     H78455   9.657   2.324   9.746 -0.6471 -1.5024 -0.1159
  569MOL0     H78456   9.540   2.264   9.620  0.5928 -0.9739 -0.3057
  569MOL0     H78457   9.385   2.449   9.733  1.8180  0.3702 -1.8942
  569MOL0     H78458   9.400   2.293   9.810  2.4633 -2.1329 -0.1932
  569MOL0     H78459   9.592   2.413   9.964 -0.0537 -4.4296 -2.3036
  569MOL0     H78460   9.551   2.557   9.875 -0.0654 -1.2112  0.8572
  569MOL0     H78461   9.314   2.531   9.933  1.3227  0.5632  0.1166
  569MOL0     H78462   9.345   2.377  10.009 -1.7296  0.2820  0.4211
  569MOL0     H78463   9.340   2.606  10.156 -1.0027 -0.0084 -1.2383
  569MOL0     H78464   9.493   2.634  10.097  0.2944 -0.0179  3.0759
  569MOL0     H78465   9.427   2.365  10.229  0.2756 -0.5307  0.5806
  569MOL0     H78466   9.587   2.413  10.197 -0.8853 -1.6879  0.3648
  569MOL0     H78467   9.531   2.628  10.361 -6.0047  1.3197 -0.9899
  569MOL0     H78468   9.569   2.468  10.438 -0.2641 -0.3810 -0.6126
  569MOL0     H78469   9.301   2.584  10.362  3.6135  0.4794 -3.2639
  569MOL0     H78470   9.345   2.435  10.467  2.8702 -1.2727 -0.5405
  569MOL0     H78471   9.429   2.448  10.703 -1.0771  0.7659  1.3578
  569MOL0     H78472   9.439   2.761  10.960  3.4653 -1.1094  3.3877
  569MOL0     H78473   9.534   2.615  10.953 -0.8069 -0.1891  3.2331
  569MOL0     H78474   9.305   2.488  10.960  1.2767 -0.5013  1.6671
  569MOL0     H78475   9.365   2.578  11.110 -0.5079  0.1969  0.7817
  569MOL0     H78476   9.197   2.758  11.048  0.6185  0.5009 -1.1640
  569MOL0     H78477   9.150   2.662  10.909 -0.5586 -0.4482  0.1965
  569MOL0     H78478   9.093   2.484  11.083  3.3114  1.2941 -0.8220
  569MOL0     H78479   9.133   2.585  11.218 -0.5138  1.3034  0.2606
  569MOL0     H78480   8.746   2.725  11.055  0.5620 -2.0128 -3.2518
  569MOL0     H78481   8.509   2.727  11.063  3.2743  0.0770  3.1514
  569MOL0     H78482   8.394   2.612  11.142  1.6579  0.3989  1.1988
  569MOL0     H78483   8.444   2.562  10.989  0.1049  1.2878 -1.0348
  569MOL0     H78484   8.363   2.112  11.248 -1.2340  0.1440  1.1429
  569MOL0     H78485   8.158   1.974  11.220 -0.2246  0.6855  4.4048
  569MOL0     H78486   7.828   2.143  11.015  0.0007  2.7949  0.9913
  569MOL0     H78487   7.766   1.985  11.063 -0.4046  0.2083  1.6178
  569MOL0     H78488   7.768   2.237  11.214 -3.6507  1.1315 -1.8730
  569MOL0     H78489   7.627   2.160  11.151 -1.3324  3.6243  0.4758
  569MOL0     H78490   7.677   2.138  11.399  1.9991  0.8288 -1.2138
  569MOL0     H78491   7.796   2.015  11.372 -1.5016 -0.1293  4.8763
  569MOL0     H78492   7.618   1.891  11.225 -2.2221 -2.9516  2.4667
  569MOL0     H78493   7.512   2.029  11.287 -0.0060 -0.2047  0.3057
  569MOL0     H78494   7.652   1.821  11.458 -0.5500 -0.1617 -2.3427
  569MOL0     H78495   7.565   1.964  11.517 -0.5838  0.7191 -0.3195
  569MOL0     H78496   7.471   1.738  11.339 -0.0391  1.5696 -2.0222
  569MOL0     H78497   7.361   1.854  11.400 -1.5759 -3.2733 -1.8332
  569MOL0     H78498   7.409   1.798  11.642  3.9455 -0.9746  3.1845
  569MOL0     H78499   7.524   1.670  11.594  0.5862  1.0592  1.6462
  569MOL0     H78500   7.306   1.570  11.663  0.0051 -1.3329 -0.4862
  569MOL0     H78501   7.312   1.561  11.481  0.0502  0.8842 -0.9944
  569MOL0     H78502   7.940   2.328  11.123  1.1397  0.5730  2.3104
  569MOL0     H78503   8.110   2.455  11.118 -1.2302 -0.7606  0.4185
  569MOL0     H78504   8.747   2.290  11.284 -0.3141 -0.2265 -1.0545
  569MOL0     H78505   8.952   2.410  11.224  1.7158  2.5048 -2.3155
  569MOL0     H78506   9.781   2.244   9.565  1.0097  0.3676  0.6772
  569MOL0     H78507  10.005   2.274   9.469 -1.5756 -1.6734  0.7874
  569MOL0     H78508  10.268   2.420   9.237 -1.0345 -0.3799  1.7504
  569MOL0     H78509  10.456   2.393   9.080  1.0524 -0.6409  0.3628
  569MOL0     H78510  10.734   2.375   9.006 -2.1058 -1.2463 -0.2502
  569MOL0     H78511  10.588   2.436   8.941  1.2958 -2.1424 -1.1716
  569MOL0     H78512  10.795   2.631   8.883 -0.1208  0.3259  0.0506
  569MOL0     H78513  10.678   2.555   8.794 -0.8124  2.8240  1.5500
  569MOL0     H78514  10.839   2.360   8.753 -0.5993  1.0456 -1.9038
  569MOL0     H78515  10.916   2.519   8.721  1.1267  1.9866  0.5659
  569MOL0     H78516  11.081   2.388   8.842  0.2404 -0.6908  1.7317
  569MOL0     H78517  10.976   2.344   8.967  0.8814  1.5515  1.6856
  569MOL0     H78518  11.020   2.726   9.103  0.7655 -2.8041  6.5504
  569MOL0     H78519  10.612   2.760   9.218 -0.2045  0.7205  3.1661
  569MOL0     H78520  10.308   2.887   9.384 -1.0822 -2.7942 -0.7369
  569MOL0     H78521  10.465   2.856   9.462  0.2346 -0.7306 -0.1276
  569MOL0     H78522  10.464   2.932   9.308 -2.4223  0.7321 -1.5555
  570MOL0     O78523   9.449   2.635   3.448  0.2140  0.5635 -0.2835
  570MOL0     C78524   9.448   2.509   3.434  0.1259 -1.1308  0.1221
  570MOL0     O78525   9.494   2.449   3.317 -0.2714 -0.2001 -0.2386
  570MOL0     C78526   9.551   2.527   3.226 -0.8114 -0.6795 -0.3143
  570MOL0     C78527   9.479   2.574   3.127  0.1484 -0.5691 -0.7009
  570MOL0     C78528   9.536   2.663   3.032  0.1699 -0.3978  0.1665
  570MOL0     C78529   9.667   2.697   3.046  0.0539  0.1978  0.1651
  570MOL0     O78530   9.719   2.784   2.960 -1.1429 -0.2766  0.3404
  570MOL0     C78531   9.796   2.892   3.020  1.0581  0.8746 -0.2782
  570MOL0     C78532   9.712   2.973   3.126  0.4666 -0.1027  0.5718
  570MOL0     C78533   9.794   3.059   3.241  0.5594 -0.1340  0.4459
  570MOL0     C78534   9.819   3.201   3.186  0.4216 -0.7239 -0.6998
  570MOL0     C78535   9.957   3.262   3.227 -0.9954  0.5589  0.8143
  570MOL0     C78536  10.083   3.188   3.164  0.4912  0.0725  0.2816
  570MOL0     C78537  10.098   3.205   3.007 -0.4582  0.0894  0.5454
  570MOL0     C78538  10.151   3.335   2.960  0.2635 -0.8878  0.8927
  570MOL0     N78539  10.074   3.367   2.838 -0.4517 -1.4216  0.8461
  570MOL0     C78540  10.109   3.344   2.704  0.5814  1.2133  0.2045
  570MOL0     C78541  10.002   3.383   2.637  0.2310 -0.4476 -0.0585
  570MOL0     C78542   9.965   3.373   2.488  0.1680 -0.2893 -0.4982
  570MOL0     C78543   9.828   3.309   2.465 -0.0856 -0.2597 -0.1816
  570MOL0     C78544   9.759   3.337   2.331  0.1675 -0.3386  0.6689
  570MOL0     C78545   9.838   3.301   2.196  0.2556 -0.3914  0.1441
  570MOL0     O78546   9.907   3.176   2.224  0.6398 -0.3200  0.4801
  570MOL0     C78547   9.853   3.053   2.179 -0.4149  0.9185  0.7779
  570MOL0     C78548   9.731   3.028   2.121 -0.1586  0.7928 -0.7136
  570MOL0     C78549   9.700   2.892   2.064 -0.3787 -1.2848  0.4396
  570MOL0     C78550   9.568   2.863   2.012 -0.3357 -0.3500 -0.0388
  570MOL0     C78551   9.809   2.800   2.047 -1.4248  1.1159  0.4617
  570MOL0     C78552   9.797   2.669   1.982 -0.2393  0.3049 -0.0725
  570MOL0     O78553   9.922   2.620   1.968  0.8869 -0.5952 -0.0301
  570MOL0     C78554   9.953   2.491   1.917 -0.3653  0.0180  0.2517
  570MOL0     C78555  10.066   2.490   1.834  1.3937  0.2144 -0.4585
  570MOL0     C78556  10.096   2.370   1.765 -0.2437 -0.2110 -0.5574
  570MOL0     C78557  10.021   2.254   1.777 -0.4327 -0.0966  0.9277
  570MOL0     O78558  10.051   2.148   1.697  0.0641 -0.4979 -0.6986
  570MOL0     C78559   9.943   2.058   1.656  0.5833  0.7867  0.0416
  570MOL0     C78560   9.990   1.948   1.578  0.7870  0.0030 -0.3509
  570MOL0     C78561   9.889   1.933   1.471 -0.5798 -0.1789 -0.3883
  570MOL0     C78562   9.911   2.032   1.359 -0.1631 -0.3127 -0.3546
  570MOL0     C78563   9.794   2.056   1.280  0.2170  0.2906  0.1960
  570MOL0     C78564   9.670   2.101   1.365 -0.3092 -0.2707 -0.3256
  570MOL0     C78565   9.575   2.187   1.280 -0.5692 -0.5058  0.2895
  570MOL0     C78566   9.484   2.114   1.177  0.6406  1.2769  0.4049
  570MOL0    Cl78567   9.549   1.978   1.075  0.2084 -0.1447 -0.0240
  570MOL0     C78568   9.906   2.263   1.858 -0.0705 -0.1199 -0.0517
  570MOL0     C78569   9.865   2.381   1.919  0.3012 -0.6219 -1.1749
  570MOL0     O78570   9.695   2.624   1.929 -0.7256  0.0564 -0.2326
  570MOL0     C78571   9.933   2.833   2.112  0.2381  0.0578  0.2874
  570MOL0     C78572   9.949   2.952   2.182  0.0146 -1.2679 -0.1772
  570MOL0     N78573   9.902   3.432   2.720  0.0610 -0.3015  0.1474
  570MOL0     N78574   9.947   3.433   2.841 -0.5871  0.6992 -0.1501
  570MOL0     C78575   9.748   2.634   3.154 -0.3006  0.7216 -0.5168
  570MOL0     C78576   9.686   2.556   3.241 -0.0328 -0.0336 -0.7245
  570MOL0     C78577   9.360   2.428   3.531  0.3001 -0.4758 -1.0534
  570MOL0     C78578   9.320   2.304   3.473  0.4469 -0.2763  0.2540
  570MOL0     C78579   9.236   2.225   3.550 -0.4397  0.5914 -0.3719
  570MOL0     C78580   9.190   2.251   3.677  0.2482 -0.4834 -0.2220
  570MOL0     O78581   9.116   2.157   3.747  0.9449 -0.3074  0.0997
  570MOL0     C78582   9.089   2.175   3.887  0.4291  0.6401  0.6391
  570MOL0     C78583   9.030   2.043   3.966  0.2786 -0.2032  0.6005
  570MOL0     C78584   8.898   1.994   3.900 -0.5315 -0.0804  0.3337
  570MOL0     C78585   8.871   1.845   3.926  0.2673 -0.3935 -0.1818
  570MOL0     C78586   8.869   1.826   4.072  0.0179 -0.5237 -0.0278
  570MOL0     C78587   8.883   1.815   4.192 -0.1646  0.2403  0.3482
  570MOL0     C78588   9.236   2.370   3.733 -0.8747 -0.3031 -0.2772
  570MOL0     C78589   9.309   2.467   3.659 -0.1703  1.0363  0.3939
  570MOL0     C78590   9.327   2.598   3.728 -0.2813 -1.0125 -0.4444
  570MOL0     H78591   9.373   2.562   3.151  0.8499 -1.2397  2.5846
  570MOL0     H78592   9.465   2.703   2.960 -0.2747  0.8316  1.2473
  570MOL0     H78593   9.844   2.965   2.954  2.9917 -1.5359 -1.7334
  570MOL0     H78594   9.881   2.849   3.074 -0.9606  1.2192  3.5305
  570MOL0     H78595   9.643   3.049   3.088  2.9598  1.0163 -2.1122
  570MOL0     H78596   9.654   2.910   3.194  1.5458  0.0600  1.6773
  570MOL0     H78597   9.728   3.058   3.328 -2.7258  1.2165 -1.8350
  570MOL0     H78598   9.883   3.001   3.267 -0.5695 -1.8497  0.6124
  570MOL0     H78599   9.825   3.196   3.077  4.4666  3.5763 -0.9778
  570MOL0     H78600   9.737   3.268   3.215 -3.6754 -4.4278 -2.4802
  570MOL0     H78601   9.980   3.263   3.334  1.7725  4.1010  0.3965
  570MOL0     H78602   9.965   3.364   3.189 -3.4298  0.8158  0.8611
  570MOL0     H78603  10.169   3.232   3.216  1.6217 -0.5437 -1.0155
  570MOL0     H78604  10.083   3.085   3.200 -1.5874  0.4505  1.5374
  570MOL0     H78605  10.018   3.159   2.949  2.6838 -1.8557 -2.6281
  570MOL0     H78606  10.164   3.129   2.964 -2.2021 -0.2637 -1.6657
  570MOL0     H78607  10.148   3.421   3.029  1.0068 -0.3275  0.2350
  570MOL0     H78608  10.257   3.340   2.935 -0.7140 -1.0448 -4.2049
  570MOL0     H78609  10.202   3.304   2.663  0.4533  2.7885 -1.7826
  570MOL0     H78610  10.034   3.304   2.438 -1.6480 -1.4141 -1.5814
  570MOL0     H78611   9.981   3.473   2.448 -0.8894  1.4245  3.0276
  570MOL0     H78612   9.837   3.201   2.478 -0.6142 -0.6409 -2.6044
  570MOL0     H78613   9.756   3.360   2.529 -3.8186 -2.5729 -2.1804
  570MOL0     H78614   9.664   3.283   2.323  0.1484 -0.7777  3.1628
  570MOL0     H78615   9.732   3.443   2.336  2.2442  0.3390 -1.1425
  570MOL0     H78616   9.770   3.297   2.110 -0.9993 -0.4945  1.1132
  570MOL0     H78617   9.901   3.389   2.183 -0.5124 -0.2393 -3.9119
  570MOL0     H78618   9.645   3.094   2.124 -0.3542  0.5594 -1.0370
  570MOL0     H78619   9.494   2.937   2.043 -1.5569 -1.9091  0.9292
  570MOL0     H78620   9.521   2.773   2.052 -0.4981 -0.5886 -0.7600
  570MOL0     H78621   9.585   2.867   1.904  3.0856  1.5856  0.4132
  570MOL0     H78622  10.123   2.581   1.825  1.2411  0.3676  0.0935
  570MOL0     H78623  10.184   2.367   1.703  1.1214  1.1804  1.1981
  570MOL0     H78624   9.902   2.001   1.740  2.6104 -1.5875 -0.4595
  570MOL0     H78625   9.856   2.112   1.617 -1.4885 -0.8115  2.1084
  570MOL0     H78626  10.091   1.963   1.539  0.6556 -0.7673 -1.0067
  570MOL0     H78627  10.000   1.862   1.645  0.8885  2.0258  2.4229
  570MOL0     H78628   9.789   1.923   1.515  0.1665 -1.3750  1.1325
  570MOL0     H78629   9.901   1.836   1.423 -0.3022 -1.4742  2.1265
  570MOL0     H78630   9.990   1.997   1.291 -0.6442  1.0514 -1.6465
  570MOL0     H78631   9.936   2.125   1.410  1.0010 -1.5883  1.5585
  570MOL0     H78632   9.821   2.127   1.201  0.2323 -1.1989 -1.1881
  570MOL0     H78633   9.767   1.964   1.228  0.0913 -0.6082  1.7855
  570MOL0     H78634   9.694   2.154   1.457  2.8626 -0.5997 -0.8469
  570MOL0     H78635   9.616   2.016   1.407  2.4193 -1.8929  0.1028
  570MOL0     H78636   9.633   2.264   1.229 -1.3093 -0.2556 -0.2014
  570MOL0     H78637   9.513   2.240   1.353  1.8357  1.4294  1.0583
  570MOL0     H78638   9.449   2.196   1.114  0.2854  3.7461  3.5402
  570MOL0     H78639   9.401   2.079   1.240  0.9589  0.1168  0.2197
  570MOL0     H78640   9.832   2.185   1.869  0.6087 -0.6293  1.0481
  570MOL0     H78641   9.767   2.389   1.966  0.1835  1.2131 -1.6265
  570MOL0     H78642  10.019   2.770   2.091 -1.4157 -2.8660  1.7681
  570MOL0     H78643  10.048   2.978   2.218 -0.6868  0.0805  0.8740
  570MOL0     H78644   9.850   2.667   3.169 -0.9669  2.7846 -0.2249
  570MOL0     H78645   9.738   2.524   3.330 -3.1785  1.1676  1.7474
  570MOL0     H78646   9.346   2.291   3.368 -1.4232 -0.6468 -0.1850
  570MOL0     H78647   9.202   2.142   3.489  2.3319  2.3043 -4.7398
  570MOL0     H78648   9.183   2.202   3.935  3.3089 -1.0247 -3.4783
  570MOL0     H78649   9.031   2.267   3.903  4.3880  3.8374 -1.5193
  570MOL0     H78650   9.012   2.064   4.071  0.7664 -0.2875  0.7042
  570MOL0     H78651   9.105   1.968   3.990 -0.1595  0.1351  3.3403
  570MOL0     H78652   8.810   2.039   3.947  0.0384 -1.2247  2.6482
  570MOL0     H78653   8.897   2.006   3.791 -2.2091 -3.1504 -0.1250
  570MOL0     H78654   8.951   1.784   3.883  0.6729 -0.9160  1.2352
  570MOL0     H78655   8.774   1.812   3.887  1.5335 -3.0270 -1.3333
  570MOL0     H78656   8.887   1.794   4.296  1.5857 -0.6926  0.1326
  570MOL0     H78657   9.199   2.386   3.834 -2.2544 -2.6560 -0.3281
  570MOL0     H78658   9.432   2.627   3.723 -0.2906 -0.9430 -0.2286
  570MOL0     H78659   9.257   2.676   3.695 -1.7469 -1.9143  0.4054
  570MOL0     H78660   9.301   2.585   3.833 -1.6161 -5.2122 -1.0966
  571MOL0     O78661   5.389   9.582   6.599  0.5386 -0.4353  0.4459
  571MOL0     C78662   5.300   9.662   6.572 -0.1406 -0.5256 -0.5950
  571MOL0     O78663   5.322   9.777   6.500 -0.5678 -0.3037 -0.8497
  571MOL0     C78664   5.458   9.805   6.492 -0.5074 -0.4742  0.3762
  571MOL0     C78665   5.535   9.854   6.599 -0.3861 -0.5299 -0.0015
  571MOL0     C78666   5.671   9.894   6.581  0.2644 -0.5696  0.0450
  571MOL0     C78667   5.728   9.885   6.454  0.3257  0.7994  0.1384
  571MOL0     O78668   5.850   9.939   6.426 -0.5318 -0.0788  0.4030
  571MOL0     C78669   5.968   9.873   6.497 -0.8065 -0.9202  0.7837
  571MOL0     C78670   6.075   9.825   6.393  0.8469  0.8241  0.6671
  571MOL0     C78671   6.197   9.764   6.459  0.6789  1.2880 -0.6298
  571MOL0     C78672   6.306   9.716   6.360 -0.3606  0.5333  0.4450
  571MOL0     C78673   6.429   9.659   6.440  0.6092  1.1467  0.1027
  571MOL0     C78674   6.531   9.773   6.459 -0.5294 -0.0559 -0.0110
  571MOL0     C78675   6.641   9.718   6.567  0.8055 -0.1198 -0.4073
  571MOL0     C78676   6.779   9.780   6.552 -0.9598  0.0923  0.7430
  571MOL0     N78677   6.892   9.698   6.610  0.3381 -0.8242 -0.1875
  571MOL0     C78678   6.991   9.636   6.535 -0.5617 -0.8536 -0.2133
  571MOL0     C78679   7.080   9.588   6.622  0.4695  0.1074  0.1590
  571MOL0     C78680   7.201   9.510   6.578 -0.5778  0.1801  0.1942
  571MOL0     C78681   7.317   9.608   6.551  0.7318  0.8213  0.0409
  571MOL0     C78682   7.450   9.537   6.567  0.3924 -0.3905  0.6302
  571MOL0     C78683   7.481   9.459   6.439 -0.9938 -0.7679 -0.1730
  571MOL0     O78684   7.523   9.561   6.348  0.1671  0.4194  1.2144
  571MOL0     C78685   7.657   9.583   6.340 -0.5113  0.1998 -0.0930
  571MOL0     C78686   7.695   9.717   6.323  0.5446 -1.0953 -0.2788
  571MOL0     C78687   7.825   9.762   6.314 -0.4123  0.5620  0.1964
  571MOL0     C78688   7.857   9.910   6.306  0.2805 -0.3601 -0.1325
  571MOL0     C78689   7.922   9.663   6.318 -0.4001 -0.0242 -0.0854
  571MOL0     C78690   8.071   9.693   6.345  0.2925 -0.9264  0.1979
  571MOL0     O78691   8.166   9.591   6.342 -0.0074 -0.0495 -0.1341
  571MOL0     C78692   8.292   9.627   6.387 -0.5415  0.1182  0.2556
  571MOL0     C78693   8.409   9.616   6.309  0.3688  0.6293 -0.2201
  571MOL0     C78694   8.543   9.612   6.367 -0.4749  0.4519 -0.1133
  571MOL0     C78695   8.551   9.642   6.501 -0.0939 -0.0108 -0.4700
  571MOL0     O78696   8.666   9.662   6.576  0.5246  0.7217  0.2427
  571MOL0     C78697   8.789   9.667   6.497  0.3488  1.0038  0.9935
  571MOL0     C78698   8.912   9.719   6.563 -0.2746  0.1903 -0.4114
  571MOL0     C78699   8.908   9.868   6.604  1.4787 -0.3420 -0.6443
  571MOL0     C78700   8.914   9.951   6.469 -0.8181  0.4978  0.6323
  571MOL0     C78701   8.876  10.095   6.481 -0.6749 -0.2510 -0.9241
  571MOL0     C78702   8.897  10.179   6.352  0.2439 -0.4043  0.5169
  571MOL0     C78703   8.875  10.329   6.383 -1.0588 -0.1571 -0.3830
  571MOL0     C78704   8.794  10.387   6.272 -0.5728 -0.0249  0.5883
  571MOL0    Cl78705   8.889  10.375   6.124 -0.9297 -0.9343 -0.0520
  571MOL0     C78706   8.443   9.634   6.584  0.2144  0.3425  0.2631
  571MOL0     C78707   8.309   9.626   6.523  0.1688 -0.4343  0.6140
  571MOL0     O78708   8.088   9.801   6.405 -0.6502 -0.1371  0.0407
  571MOL0     C78709   7.886   9.524   6.301 -0.7051 -0.3407 -0.2358
  571MOL0     C78710   7.751   9.483   6.301 -0.5705  0.4549  0.8096
  571MOL0     N78711   7.035   9.615   6.753 -0.5462 -1.3761  0.5441
  571MOL0     N78712   6.919   9.674   6.743  0.1283  0.3079 -0.1168
  571MOL0     C78713   5.658   9.833   6.354  0.2365  0.3522  0.6124
  571MOL0     C78714   5.523   9.795   6.368  0.5903 -0.2289 -0.0672
  571MOL0     C78715   5.157   9.632   6.614  0.4145 -0.1716 -0.7691
  571MOL0     C78716   5.134   9.502   6.661  0.8781  0.2202  0.5347
  571MOL0     C78717   5.004   9.458   6.691 -0.4182 -0.4810 -0.3828
  571MOL0     C78718   4.895   9.546   6.680  1.1367 -0.6801 -0.6715
  571MOL0     O78719   4.762   9.507   6.703 -0.6304  0.2564 -0.5894
  571MOL0     C78720   4.720   9.377   6.644 -0.4570  0.0200 -0.4287
  571MOL0     C78721   4.713   9.265   6.751 -0.0958  0.4243 -0.8244
  571MOL0     C78722   4.609   9.300   6.861 -0.1025  1.0846  1.2355
  571MOL0     C78723   4.627   9.209   6.980  0.3012  0.4860  0.4491
  571MOL0     C78724   4.575   9.073   6.970  0.7781 -0.2587 -0.4687
  571MOL0     C78725   4.524   8.966   6.958  0.8065  0.5374  0.7206
  571MOL0     C78726   4.912   9.677   6.635  0.5301  0.2470 -0.1146
  571MOL0     C78727   5.038   9.715   6.594  0.6131  0.1432 -0.3243
  571MOL0     C78728   5.042   9.851   6.530  0.1287  0.4713  0.1292
  571MOL0     H78729   5.485   9.872   6.694 -0.4367  0.6700 -0.2409
  571MOL0     H78730   5.723   9.948   6.659 -2.4451  1.3359  0.6881
  571MOL0     H78731   5.923   9.794   6.557 -1.0196 -1.7919 -0.4928
  571MOL0     H78732   6.019   9.937   6.569 -2.1200  1.8467 -0.5886
  571MOL0     H78733   6.019   9.747   6.340  0.8135  0.8859  0.6112
  571MOL0     H78734   6.102   9.912   6.332 -0.9619  0.6236 -0.5034
  571MOL0     H78735   6.234   9.846   6.521 -1.0306  1.8357 -0.2813
  571MOL0     H78736   6.168   9.689   6.533  0.9405  2.0734  0.2895
  571MOL0     H78737   6.276   9.634   6.293 -0.6142  1.1338 -0.1887
  571MOL0     H78738   6.339   9.798   6.296  3.8578 -0.4298  1.0723
  571MOL0     H78739   6.459   9.579   6.372  0.1893 -0.6308  1.9363
  571MOL0     H78740   6.396   9.624   6.538 -0.6989  2.7355  0.2872
  571MOL0     H78741   6.580   9.772   6.361 -2.3783 -1.1566 -0.9600
  571MOL0     H78742   6.480   9.868   6.476 -1.2964 -0.2406 -1.2389
  571MOL0     H78743   6.661   9.611   6.555  1.3596  0.0509 -1.0108
  571MOL0     H78744   6.591   9.725   6.664 -0.6760 -2.5210 -0.9205
  571MOL0     H78745   6.803   9.797   6.447  0.8134  2.4543  1.4352
  571MOL0     H78746   6.787   9.881   6.593 -0.3847 -0.5884  2.4043
  571MOL0     H78747   6.993   9.627   6.427 -2.3917 -2.3626 -0.1531
  571MOL0     H78748   7.181   9.435   6.501  1.0984 -2.1040  1.8395
  571MOL0     H78749   7.234   9.446   6.661  1.5963 -0.4318 -1.0598
  571MOL0     H78750   7.301   9.643   6.449 -2.4260  1.9323  0.7927
  571MOL0     H78751   7.304   9.687   6.625  0.6601 -1.0345  2.1060
  571MOL0     H78752   7.518   9.620   6.588 -0.2694 -0.0097  1.2901
  571MOL0     H78753   7.454   9.473   6.656  1.0118 -0.1209  0.8014
  571MOL0     H78754   7.570   9.399   6.460  0.5591  0.3489 -3.0287
  571MOL0     H78755   7.397   9.399   6.404 -0.8206 -0.3200 -1.4276
  571MOL0     H78756   7.619   9.795   6.323  0.8701 -0.7699 -1.0043
  571MOL0     H78757   7.946   9.943   6.251 -0.4725  4.9000  1.1834
  571MOL0     H78758   7.854   9.945   6.410  0.6673 -1.8676  0.4030
  571MOL0     H78759   7.789   9.967   6.242  0.4150 -1.9046 -1.7067
  571MOL0     H78760   8.398   9.607   6.201 -2.2923  4.3801 -0.4382
  571MOL0     H78761   8.627   9.606   6.298 -0.3151  0.5455  0.0713
  571MOL0     H78762   8.804   9.571   6.446 -1.7568  0.4862  1.2548
  571MOL0     H78763   8.766   9.736   6.415 -1.3926  0.9714  1.4241
  571MOL0     H78764   8.928   9.665   6.657 -3.3887  0.9056  0.6690
  571MOL0     H78765   8.997   9.696   6.498  0.3307 -2.0977  1.0995
  571MOL0     H78766   8.989   9.898   6.672 -0.7249  0.9674  1.5704
  571MOL0     H78767   8.814   9.887   6.656  3.5938  1.3991  2.9619
  571MOL0     H78768   8.841   9.917   6.395  1.3278 -0.4106 -1.1852
  571MOL0     H78769   9.015   9.946   6.427 -0.4554 -3.8483  1.5002
  571MOL0     H78770   8.773  10.111   6.513 -0.7083  2.8404 -2.2407
  571MOL0     H78771   8.937  10.142   6.559  0.1018 -1.7509 -0.5712
  571MOL0     H78772   8.822  10.147   6.279  0.6705  1.8711 -1.0000
  571MOL0     H78773   8.998  10.178   6.310  1.7639 -1.9632  3.7924
  571MOL0     H78774   8.974  10.369   6.408  0.4298 -1.6919 -3.3155
  571MOL0     H78775   8.813  10.337   6.473 -2.9493 -0.5215 -1.6000
  571MOL0     H78776   8.765  10.487   6.305 -4.6281 -0.1616 -1.8505
  571MOL0     H78777   8.698  10.336   6.255 -2.0056  2.8487 -0.5468
  571MOL0     H78778   8.452   9.638   6.692 -1.5874 -1.0665  0.5291
  571MOL0     H78779   8.220   9.619   6.584 -2.8884  1.8373 -3.1126
  571MOL0     H78780   7.968   9.455   6.283 -1.5070 -1.9906  2.0056
  571MOL0     H78781   7.730   9.380   6.272 -3.9916  0.9897  0.9477
  571MOL0     H78782   5.723   9.826   6.267  0.1095 -0.1520  0.5533
  571MOL0     H78783   5.469   9.752   6.284 -0.5346 -2.1944  1.5810
  571MOL0     H78784   5.221   9.439   6.675  0.0863 -0.2383  4.6412
  571MOL0     H78785   4.999   9.355   6.726  2.9175  0.0615  2.1127
  571MOL0     H78786   4.619   9.378   6.601 -0.4695  0.7457 -0.4008
  571MOL0     H78787   4.783   9.340   6.563 -0.2051 -0.1689 -0.1455
  571MOL0     H78788   4.807   9.260   6.807 -2.1479 -0.4255  2.8414
  571MOL0     H78789   4.706   9.170   6.698 -0.0078 -0.2601  0.3479
  571MOL0     H78790   4.612   9.408   6.879  0.1363  1.4939 -0.9323
  571MOL0     H78791   4.512   9.280   6.815  1.5908  0.9822 -2.6632
  571MOL0     H78792   4.567   9.247   7.063 -2.4200 -1.5005 -0.4594
  571MOL0     H78793   4.735   9.208   6.997  0.1611  2.2829  1.7865
  571MOL0     H78794   4.467   8.876   6.953 -0.2935  1.2786 -3.6042
  571MOL0     H78795   4.830   9.748   6.623  1.8072  1.5783 -1.4293
  571MOL0     H78796   5.062   9.842   6.423 -3.7135 -2.2540 -0.6061
  571MOL0     H78797   4.940   9.890   6.541  0.2988  1.4826 -1.6259
  571MOL0     H78798   5.105   9.923   6.583 -1.1578  2.6795 -1.1816
  572MOL0     O78799   6.462   5.311  11.107 -0.7189 -0.0575 -0.5835
  572MOL0     C78800   6.456   5.408  11.178  0.1766  0.3666 -0.0520
  572MOL0     O78801   6.551   5.458  11.279  1.1819 -0.4129  0.4247
  572MOL0     C78802   6.661   5.381  11.298  0.0339  0.1894 -0.2366
  572MOL0     C78803   6.680   5.293  11.408  0.7307 -0.1757 -0.1239
  572MOL0     C78804   6.795   5.221  11.418 -0.0205 -0.7157  0.0923
  572MOL0     C78805   6.903   5.259  11.338 -0.4601  0.0119  1.0426
  572MOL0     O78806   7.029   5.206  11.355  0.6980 -0.7583  0.4213
  572MOL0     C78807   7.035   5.066  11.373  0.1006 -0.6348 -0.4142
  572MOL0     C78808   7.173   5.006  11.341  0.3784  0.6591 -0.2408
  572MOL0     C78809   7.286   5.055  11.439 -0.3078 -0.3749 -0.5210
  572MOL0     C78810   7.415   5.107  11.363  0.1252  1.0074  0.2270
  572MOL0     C78811   7.385   5.225  11.264  0.7699 -0.0438  0.2665
  572MOL0     C78812   7.502   5.228  11.170  0.8504  0.3828 -0.4923
  572MOL0     C78813   7.485   5.345  11.069  0.0770  0.8172 -0.1665
  572MOL0     C78814   7.626   5.400  11.027 -0.1935  1.0978  0.3028
  572MOL0     N78815   7.735   5.296  11.032  0.8275  0.6551  0.6946
  572MOL0     C78816   7.740   5.199  10.937 -0.0784  0.1712  0.1288
  572MOL0     C78817   7.843   5.118  10.967 -0.4689  0.1998 -0.5286
  572MOL0     C78818   7.877   4.982  10.900  0.6391 -0.1774  0.3747
  572MOL0     C78819   7.839   4.852  10.977  0.6010  0.0738  0.7650
  572MOL0     C78820   7.694   4.835  11.003  0.5722  0.3839 -0.1115
  572MOL0     C78821   7.667   4.688  11.054 -0.4294  0.1298 -0.7182
  572MOL0     O78822   7.541   4.656  11.121 -0.1110  0.0136 -0.2459
  572MOL0     C78823   7.435   4.650  11.038  0.7104 -0.5982 -1.9741
  572MOL0     C78824   7.404   4.552  10.949 -0.8653  0.9048 -0.5650
  572MOL0     C78825   7.278   4.551  10.879 -0.5743  0.3778 -0.0250
  572MOL0     C78826   7.249   4.437  10.785  0.6672  0.2232 -0.1499
  572MOL0     C78827   7.192   4.658  10.888  0.1934 -0.6732 -0.5565
  572MOL0     C78828   7.060   4.660  10.805 -1.1625  0.5515 -0.3600
  572MOL0     O78829   6.936   4.640  10.869  1.0144 -0.3907 -0.3197
  572MOL0     C78830   6.943   4.613  11.000 -0.1291 -0.6862  0.6657
  572MOL0     C78831   6.991   4.483  11.044  1.0144  0.5954 -0.0840
  572MOL0     C78832   7.006   4.453  11.178  0.4188 -0.3903  0.6637
  572MOL0     C78833   6.978   4.549  11.274  0.4045  0.4336 -0.9353
  572MOL0     O78834   7.018   4.535  11.407  0.4979  0.0494  0.8013
  572MOL0     C78835   6.930   4.451  11.476  0.1926  0.4207  0.4064
  572MOL0     C78836   7.001   4.363  11.587  0.5095 -0.7775  0.5201
  572MOL0     C78837   6.915   4.307  11.699  0.6309  0.0850 -0.3084
  572MOL0     C78838   6.803   4.212  11.661 -0.6222  0.5710  0.3728
  572MOL0     C78839   6.737   4.163  11.788  2.1744 -0.4650 -0.8007
  572MOL0     C78840   6.654   4.030  11.764  0.0092  0.4006 -0.6647
  572MOL0     C78841   6.551   4.039  11.646  0.6987 -0.3622 -0.7139
  572MOL0     C78842   6.463   3.914  11.634 -0.1104  0.7341  0.6098
  572MOL0    Cl78843   6.565   3.779  11.570  0.4027 -0.2430  0.2531
  572MOL0     C78844   6.934   4.679  11.231 -0.7495  1.2089 -0.5720
  572MOL0     C78845   6.925   4.712  11.101 -1.0562  0.4951  0.2327
  572MOL0     O78846   7.076   4.696  10.688 -0.5264  0.5785 -1.2908
  572MOL0     C78847   7.236   4.764  10.968  0.2314  0.5060  0.2733
  572MOL0     C78848   7.348   4.754  11.041 -0.0374 -0.1247  0.4992
  572MOL0     N78849   7.911   5.167  11.071  0.4247  0.3599 -0.8605
  572MOL0     N78850   7.846   5.277  11.102 -0.5204 -0.7928  0.2358
  572MOL0     C78851   6.897   5.355  11.239 -0.4183  0.0068  0.3849
  572MOL0     C78852   6.774   5.411  11.212  0.6440  0.4440  0.2497
  572MOL0     C78853   6.339   5.503  11.149 -1.0979  0.3862 -0.1284
  572MOL0     C78854   6.214   5.433  11.133 -0.2290  0.1179 -0.5165
  572MOL0     C78855   6.098   5.507  11.131 -0.1746  0.0108 -0.1604
  572MOL0     C78856   6.106   5.646  11.125  0.4944 -0.3473  0.4119
  572MOL0     O78857   5.984   5.718  11.097  0.4819  0.7220  0.4072
  572MOL0     C78858   5.978   5.863  11.092 -0.5557 -0.0537  0.2811
  572MOL0     C78859   5.967   5.918  11.235 -0.6344 -0.2881  0.7108
  572MOL0     C78860   5.928   6.066  11.241 -0.6994  0.1232  0.2099
  572MOL0     C78861   5.904   6.115  11.390  0.7318 -0.1065  0.3746
  572MOL0     C78862   5.787   6.055  11.440 -0.9379  0.0193 -0.1359
  572MOL0     C78863   5.690   6.006  11.488  0.7218  0.5297 -0.4035
  572MOL0     C78864   6.229   5.715  11.128 -0.4191 -0.1071  0.0424
  572MOL0     C78865   6.345   5.642  11.150  0.4696  0.2840  0.2704
  572MOL0     C78866   6.480   5.718  11.146  0.1746  0.0550 -0.1093
  572MOL0     H78867   6.599   5.258  11.471  1.1550 -0.1009  0.4721
  572MOL0     H78868   6.799   5.151  11.501 -2.0301  0.5676  1.3791
  572MOL0     H78869   6.970   5.005  11.311 -0.5703  1.1751 -1.5646
  572MOL0     H78870   7.003   5.056  11.477  0.8470  1.3767  0.0625
  572MOL0     H78871   7.160   4.897  11.347 -1.1280  0.8325  0.0220
  572MOL0     H78872   7.187   5.022  11.234  0.7562 -0.1977 -0.3323
  572MOL0     H78873   7.249   5.134  11.505  0.0657  0.3800 -1.1998
  572MOL0     H78874   7.312   4.966  11.498 -0.7523 -2.5650 -3.4164
  572MOL0     H78875   7.484   5.133  11.444 -0.6508  2.5431  0.4494
  572MOL0     H78876   7.465   5.026  11.310  1.1750  3.4203 -2.7162
  572MOL0     H78877   7.375   5.321  11.315  0.4582  0.5113 -0.8085
  572MOL0     H78878   7.290   5.209  11.212  0.7265  2.8422 -0.6885
  572MOL0     H78879   7.589   5.221  11.236 -0.0506 -3.3482  0.5263
  572MOL0     H78880   7.493   5.129  11.124  0.0785  0.4764 -0.5592
  572MOL0     H78881   7.432   5.427  11.118  0.0843  0.7708 -0.0820
  572MOL0     H78882   7.424   5.297  10.992  0.7360 -1.6186  0.7375
  572MOL0     H78883   7.603   5.437  10.927 -3.7432 -1.7262 -0.1477
  572MOL0     H78884   7.664   5.480  11.092 -0.6361 -0.0840  2.1061
  572MOL0     H78885   7.657   5.191  10.867 -0.3201  4.6027 -0.3662
  572MOL0     H78886   7.982   4.991  10.873  0.7472 -0.9516  0.5049
  572MOL0     H78887   7.827   4.976  10.803  1.8278  1.6572 -0.4128
  572MOL0     H78888   7.875   4.763  10.926  0.9716  0.4435  0.3721
  572MOL0     H78889   7.898   4.853  11.068  1.8796  0.5751 -0.0445
  572MOL0     H78890   7.646   4.897  11.079  2.2529  0.4429  0.9331
  572MOL0     H78891   7.650   4.846  10.903 -0.7741  2.3181  0.6537
  572MOL0     H78892   7.669   4.628  10.963 -3.0018  2.0041 -2.1361
  572MOL0     H78893   7.751   4.659  11.118 -1.5281 -2.6278 -0.3586
  572MOL0     H78894   7.470   4.466  10.942 -0.6525  0.9119  0.9372
  572MOL0     H78895   7.256   4.475  10.683 -0.0276  1.3996  0.2274
  572MOL0     H78896   7.150   4.394  10.805  0.5526  0.4808 -0.1692
  572MOL0     H78897   7.316   4.354  10.811  0.0963 -0.6345 -1.3264
  572MOL0     H78898   7.024   4.403  10.979 -0.7672 -0.6699  0.4925
  572MOL0     H78899   7.050   4.360  11.213 -0.2674 -0.5248  1.1784
  572MOL0     H78900   6.854   4.507  11.532 -0.2408 -1.0184  1.3141
  572MOL0     H78901   6.879   4.372  11.419 -0.1071 -0.5267  1.9322
  572MOL0     H78902   7.051   4.280  11.536 -1.7980 -1.6113 -0.5388
  572MOL0     H78903   7.075   4.425  11.637 -1.0292  0.8652  0.8609
  572MOL0     H78904   6.878   4.385  11.767  1.0515  0.0471 -0.0346
  572MOL0     H78905   6.979   4.242  11.759 -0.0079 -3.3714 -3.0416
  572MOL0     H78906   6.847   4.128  11.606 -0.0786 -1.0498  3.0843
  572MOL0     H78907   6.739   4.270  11.594 -2.3843 -0.2417  1.2817
  572MOL0     H78908   6.809   4.136  11.866  0.2928 -2.6481  0.3193
  572MOL0     H78909   6.670   4.238  11.833  1.7157 -1.8936  1.0322
  572MOL0     H78910   6.613   3.996  11.859 -0.2294  1.6607 -0.2950
  572MOL0     H78911   6.728   3.954  11.736  1.2648  1.0409  0.7687
  572MOL0     H78912   6.613   4.047  11.557 -0.0442  1.0950 -1.1405
  572MOL0     H78913   6.476   4.118  11.658  0.6028 -0.7704  2.2611
  572MOL0     H78914   6.383   3.918  11.559  0.1996 -3.8992 -0.2463
  572MOL0     H78915   6.418   3.884  11.728 -1.1277  1.8428  0.5057
  572MOL0     H78916   6.922   4.763  11.298  2.0415  2.4620 -1.4886
  572MOL0     H78917   6.891   4.810  11.069  2.6910  1.7194 -0.4927
  572MOL0     H78918   7.174   4.853  10.976 -1.5320 -0.4264 -1.8959
  572MOL0     H78919   7.389   4.834  11.103  1.9124 -1.8582  1.5927
  572MOL0     H78920   6.984   5.386  11.183 -1.5507 -0.8284 -1.9828
  572MOL0     H78921   6.756   5.484  11.135 -0.7278  0.7454  0.8290
  572MOL0     H78922   6.214   5.325  11.130  0.4978  0.1356 -1.6643
  572MOL0     H78923   6.001   5.459  11.119 -0.0062 -0.2115 -0.6632
  572MOL0     H78924   6.064   5.903  11.037  0.0661  0.8912  1.8766
  572MOL0     H78925   5.896   5.904  11.032 -2.0685 -0.7693  1.7898
  572MOL0     H78926   6.055   5.907  11.298  1.3060  1.9598 -1.3911
  572MOL0     H78927   5.879   5.871  11.279 -0.7354  1.8913  3.0884
  572MOL0     H78928   6.010   6.121  11.195  1.0737  2.1433  5.0579
  572MOL0     H78929   5.846   6.090  11.173 -0.3902  2.6778  0.6380
  572MOL0     H78930   5.892   6.224  11.394 -0.8994 -0.0206 -3.1868
  572MOL0     H78931   5.992   6.091  11.451  0.2658 -2.4984  0.1953
  572MOL0     H78932   5.594   5.961  11.506  0.5468  0.0059 -2.4127
  572MOL0     H78933   6.224   5.824  11.130 -0.7953 -0.1290  0.5215
  572MOL0     H78934   6.481   5.827  11.150  0.1733  0.0212  1.4503
  572MOL0     H78935   6.548   5.682  11.224  0.3058 -0.3874 -0.4234
  572MOL0     H78936   6.519   5.682  11.050  0.8401 -1.9275  0.8314
  573MOL0     O78937   4.771   5.134   0.022 -0.0347  0.3721 -0.7609
  573MOL0     C78938   4.897   5.144   0.052  1.1435 -0.4253  0.4645
  573MOL0     O78939   4.990   5.174  -0.045 -0.5953  0.1680 -0.5209
  573MOL0     C78940   4.958   5.197  -0.170  0.7762 -0.5769 -0.1202
  573MOL0     C78941   4.928   5.099  -0.262 -0.2309 -0.3156  0.2830
  573MOL0     C78942   4.900   5.139  -0.401  0.0127 -0.1677 -1.9337
  573MOL0     C78943   4.901   5.269  -0.435 -0.2202  0.2480  0.4431
  573MOL0     O78944   4.868   5.287  -0.567 -0.1104 -0.0499 -0.1240
  573MOL0     C78945   4.967   5.283  -0.668 -0.5531 -0.4931 -0.1408
  573MOL0     C78946   4.907   5.376  -0.774 -0.7758 -0.3625  0.3588
  573MOL0     C78947   4.993   5.418  -0.895  0.0455 -1.2120  0.1262
  573MOL0     C78948   5.134   5.455  -0.851 -0.1581 -0.4501  0.5717
  573MOL0     C78949   5.218   5.542  -0.954  0.3007  0.5952 -0.3991
  573MOL0     C78950   5.339   5.613  -0.878 -1.1765 -0.3130  0.6459
  573MOL0     C78951   5.400   5.730  -0.958 -0.0091  0.9399 -0.3406
  573MOL0     C78952   5.528   5.785  -0.899 -0.5821  0.6167 -0.6933
  573MOL0     N78953   5.520   5.835  -0.766  0.0807  0.5421 -0.7435
  573MOL0     C78954   5.476   5.963  -0.735 -0.7273  0.3131  0.6172
  573MOL0     C78955   5.452   5.964  -0.601 -0.2258 -0.6746  0.3401
  573MOL0     C78956   5.426   6.085  -0.510  0.8096 -0.0608  1.1641
  573MOL0     C78957   5.556   6.148  -0.455  0.1856  0.7404  0.0262
  573MOL0     C78958   5.524   6.280  -0.382  0.4183 -0.7162 -0.3705
  573MOL0     C78959   5.427   6.267  -0.259 -0.1494 -0.4269  0.0912
  573MOL0     O78960   5.298   6.233  -0.312  0.5018 -0.7411  0.7694
  573MOL0     C78961   5.191   6.222  -0.214 -0.5415  0.7861  0.3662
  573MOL0     C78962   5.067   6.213  -0.275 -0.3540 -0.1588 -0.1999
  573MOL0     C78963   4.947   6.217  -0.200  0.0178  0.6364 -0.1665
  573MOL0     C78964   4.809   6.249  -0.259 -0.3017 -0.1214  0.3837
  573MOL0     C78965   4.956   6.209  -0.057 -0.0409 -0.4536  0.2344
  573MOL0     C78966   4.848   6.216   0.043  0.2806 -0.7486 -0.2640
  573MOL0     O78967   4.872   6.159   0.172 -0.1114 -0.5936 -0.9394
  573MOL0     C78968   4.756   6.140   0.248  0.2359  0.1741 -0.1616
  573MOL0     C78969   4.719   6.006   0.289 -0.1584 -0.2077 -0.0798
  573MOL0     C78970   4.606   5.976   0.372  0.8423  0.1087 -0.7618
  573MOL0     C78971   4.530   6.082   0.420  0.3487  0.1319  0.7328
  573MOL0     O78972   4.405   6.070   0.484  0.2489  0.2023  0.1156
  573MOL0     C78973   4.394   5.953   0.565  0.5029 -0.1395 -0.9442
  573MOL0     C78974   4.275   5.963   0.654  0.2387 -0.0509 -0.3913
  573MOL0     C78975   4.240   5.827   0.713 -0.2341 -1.0330 -0.8855
  573MOL0     C78976   4.134   5.858   0.814  0.5219 -0.2158 -0.2491
  573MOL0     C78977   4.074   5.733   0.876 -0.4912  0.2687  0.5481
  573MOL0     C78978   3.986   5.768   0.992  0.3490  0.9891  0.2821
  573MOL0     C78979   3.982   5.657   1.091  0.3979  0.4896 -0.7606
  573MOL0     C78980   3.909   5.536   1.040  0.6708 -0.6977  0.3276
  573MOL0    Cl78981   3.759   5.575   0.944 -0.1758  0.0456 -0.0038
  573MOL0     C78982   4.573   6.212   0.390  0.3296 -0.1339  0.1188
  573MOL0     C78983   4.679   6.246   0.306 -1.3908  0.3980  1.0947
  573MOL0     O78984   4.735   6.240  -0.001  0.7904 -0.0751  0.0754
  573MOL0     C78985   5.085   6.202  -0.004 -0.2430 -0.9967  0.1366
  573MOL0     C78986   5.201   6.215  -0.083 -0.8628 -0.5765 -0.3909
  573MOL0     N78987   5.497   5.850  -0.557  0.3055  0.1263  0.8407
  573MOL0     N78988   5.541   5.764  -0.654 -0.0323  0.6309  0.2766
  573MOL0     C78989   4.912   5.369  -0.340 -0.4630  0.8296  0.3260
  573MOL0     C78990   4.944   5.329  -0.208  0.5660 -0.5411  1.1378
  573MOL0     C78991   4.949   5.120   0.192  0.5976  0.4393  0.3280
  573MOL0     C78992   5.090   5.104   0.213 -0.5511 -0.0733 -1.0401
  573MOL0     C78993   5.148   5.084   0.349 -0.5537 -1.2223  0.2120
  573MOL0     C78994   5.063   5.085   0.456  0.5499 -0.8134 -0.6569
  573MOL0     O78995   5.108   5.097   0.586  0.0280  0.2162 -0.4141
  573MOL0     C78996   5.247   5.067   0.616 -1.0747  0.9762  0.4850
  573MOL0     C78997   5.253   5.032   0.769 -0.8827  0.5298  0.2711
  573MOL0     C78998   5.265   5.146   0.866  0.6686 -0.8598 -0.7209
  573MOL0     C78999   5.217   5.116   1.004  0.2513  0.4305 -0.3236
  573MOL0     C79000   5.294   4.995   1.060  0.4152  0.5775 -0.1390
  573MOL0     C79001   5.337   4.893   1.106  0.0045 -0.9809  0.2597
  573MOL0     C79002   4.928   5.090   0.437  0.8451 -0.1055  0.0430
  573MOL0     C79003   4.870   5.102   0.313 -0.8679  0.6977  0.7887
  573MOL0     C79004   4.724   5.102   0.296  0.8139  0.4744 -0.3339
  573MOL0     H79005   4.910   4.999  -0.224  0.9577 -0.9291 -0.6931
  573MOL0     H79006   4.870   5.063  -0.473 -0.7558  2.0433 -4.0868
  573MOL0     H79007   4.965   5.188  -0.721 -1.8218 -2.5299  3.2664
  573MOL0     H79008   5.061   5.324  -0.629 -0.5567  0.9683 -1.5421
  573MOL0     H79009   4.824   5.318  -0.816 -0.3462 -1.2104  0.6578
  573MOL0     H79010   4.853   5.456  -0.724 -0.4740 -0.3815  0.7210
  573MOL0     H79011   5.003   5.347  -0.978  1.1323 -1.5890  0.5636
  573MOL0     H79012   4.937   5.502  -0.939  0.9066 -0.5840  0.2058
  573MOL0     H79013   5.112   5.516  -0.763  0.2279 -0.7336  0.8687
  573MOL0     H79014   5.194   5.366  -0.833  1.9943  0.9438  0.5833
  573MOL0     H79015   5.159   5.615  -1.010  1.8677  1.2736 -1.2257
  573MOL0     H79016   5.239   5.468  -1.032 -1.4772 -0.1587 -0.2143
  573MOL0     H79017   5.299   5.660  -0.787 -0.1911  3.3467 -0.6585
  573MOL0     H79018   5.413   5.539  -0.847  0.2054  1.5786  2.0668
  573MOL0     H79019   5.335   5.817  -0.964  0.3727  1.2907  0.3823
  573MOL0     H79020   5.410   5.688  -1.058  0.6339 -1.4544  0.6503
  573MOL0     H79021   5.604   5.707  -0.904 -0.3613  0.8498 -1.0692
  573MOL0     H79022   5.563   5.868  -0.961  4.0036  0.6570  1.5136
  573MOL0     H79023   5.483   6.052  -0.797  0.5114 -1.8512 -2.6152
  573MOL0     H79024   5.367   6.049  -0.425 -0.0365  0.7450  0.9448
  573MOL0     H79025   5.362   6.164  -0.551  0.4498 -0.7132  0.4358
  573MOL0     H79026   5.606   6.074  -0.393  0.7316  0.1775 -1.0454
  573MOL0     H79027   5.628   6.165  -0.536 -1.5732  1.9143 -1.3804
  573MOL0     H79028   5.614   6.325  -0.340 -0.0026 -0.9056  0.7835
  573MOL0     H79029   5.479   6.344  -0.458 -1.1042 -1.1354  0.1440
  573MOL0     H79030   5.457   6.179  -0.200 -2.3733 -3.6017 -3.0619
  573MOL0     H79031   5.414   6.365  -0.213 -1.2632  0.4171 -1.9150
  573MOL0     H79032   5.064   6.222  -0.383  1.5530  0.2935 -0.2466
  573MOL0     H79033   4.761   6.345  -0.240 -1.4530 -0.6687  0.3480
  573MOL0     H79034   4.746   6.163  -0.234  0.6546 -0.0619  3.3661
  573MOL0     H79035   4.826   6.249  -0.367  1.5698 -1.8445  0.6079
  573MOL0     H79036   4.794   5.930   0.268  0.7254  0.7890 -0.6801
  573MOL0     H79037   4.592   5.876   0.411  1.5976  0.6319  0.9678
  573MOL0     H79038   4.378   5.862   0.507  3.1706 -1.6003  0.4116
  573MOL0     H79039   4.479   5.915   0.622 -0.9109  0.1712  1.5550
  573MOL0     H79040   4.277   6.043   0.729  1.2629 -1.4005  1.0789
  573MOL0     H79041   4.192   5.979   0.584  0.1475 -0.4484 -0.3783
  573MOL0     H79042   4.323   5.783   0.770  0.8753  1.3948 -0.5321
  573MOL0     H79043   4.201   5.756   0.640 -0.6831 -1.1243 -0.5651
  573MOL0     H79044   4.060   5.922   0.764 -1.8259 -4.6890 -3.3088
  573MOL0     H79045   4.177   5.918   0.895  0.3117  0.0494 -0.3308
  573MOL0     H79046   4.020   5.666   0.809 -2.6063  3.1976 -0.8913
  573MOL0     H79047   4.165   5.686   0.916 -1.0288  0.3133  1.8705
  573MOL0     H79048   3.887   5.802   0.962 -0.9869 -3.1359 -0.5781
  573MOL0     H79049   4.038   5.846   1.050  1.0788 -0.5355  1.7688
  573MOL0     H79050   3.928   5.694   1.178 -0.1919 -4.0677  1.1350
  573MOL0     H79051   4.081   5.634   1.130  0.2371  4.1144  2.2904
  573MOL0     H79052   3.889   5.480   1.132  0.8152 -4.4462 -1.7186
  573MOL0     H79053   3.978   5.469   0.988 -0.4257 -1.4546 -0.1750
  573MOL0     H79054   4.508   6.291   0.426 -1.0994 -1.9540  1.7908
  573MOL0     H79055   4.711   6.349   0.294  0.6901 -0.1978  1.0523
  573MOL0     H79056   5.106   6.182   0.101  2.8357 -1.0147 -0.3676
  573MOL0     H79057   5.301   6.214  -0.042 -0.9848  3.3922  0.3804
  573MOL0     H79058   4.897   5.471  -0.374 -0.8245  0.6706  0.0037
  573MOL0     H79059   4.952   5.414  -0.141  3.8067  1.1547 -1.1160
  573MOL0     H79060   5.165   5.108   0.134  0.5101  2.9563 -0.0364
  573MOL0     H79061   5.256   5.092   0.355 -0.3460 -0.8141 -2.5586
  573MOL0     H79062   5.270   4.977   0.557 -2.9400  1.0853 -0.4930
  573MOL0     H79063   5.321   5.146   0.601  0.8329 -0.5573  1.3966
  573MOL0     H79064   5.328   4.955   0.790 -1.7078  0.1797  2.0787
  573MOL0     H79065   5.157   4.982   0.790 -0.5725  0.3450  1.3284
  573MOL0     H79066   5.369   5.181   0.875  0.6832 -0.9410 -0.5706
  573MOL0     H79067   5.212   5.234   0.829  3.0174  0.6616 -0.6485
  573MOL0     H79068   5.109   5.104   0.997  0.3447  0.6154 -2.5086
  573MOL0     H79069   5.244   5.203   1.065  4.0860  1.8187 -3.5720
  573MOL0     H79070   5.365   4.796   1.143 -2.1851 -0.5972  3.3539
  573MOL0     H79071   4.854   5.096   0.516  2.0744  1.4668  1.1402
  573MOL0     H79072   4.687   5.192   0.245  0.6858  2.3590  2.7977
  573MOL0     H79073   4.691   5.008   0.253 -1.2810  1.7386 -1.6842
  573MOL0     H79074   4.682   5.116   0.396  0.7894  0.0861 -0.2897
  574MOL0     O79075   7.532   8.152   9.542  0.6915  0.2038  0.1764
  574MOL0     C79076   7.428   8.090   9.550 -0.5307  0.0432 -0.4510
  574MOL0     O79077   7.368   8.010   9.457 -0.8525 -0.8188  0.2417
  574MOL0     C79078   7.406   8.034   9.328  0.2446 -1.2048 -0.0610
  574MOL0     C79079   7.474   7.935   9.254  0.1877 -0.5985 -0.7672
  574MOL0     C79080   7.496   7.951   9.120  0.0306  0.1052  0.3030
  574MOL0     C79081   7.477   8.077   9.055 -0.4640  0.1227  0.5488
  574MOL0     O79082   7.518   8.086   8.922  0.0075  0.6345  0.2079
  574MOL0     C79083   7.509   8.200   8.851  0.5206 -1.1811 -0.4634
  574MOL0     C79084   7.517   8.159   8.712 -0.8843 -0.0187 -0.2759
  574MOL0     C79085   7.474   8.251   8.589 -0.0763  0.4185  0.6434
  574MOL0     C79086   7.527   8.178   8.461 -0.5577  0.3771  0.7425
  574MOL0     C79087   7.479   8.269   8.349 -0.7262  0.1266  1.3023
  574MOL0     C79088   7.532   8.237   8.212 -0.2618 -0.1292  0.8520
  574MOL0     C79089   7.465   8.315   8.101  1.6772  0.0278 -0.4037
  574MOL0     C79090   7.317   8.257   8.086  0.1613 -0.5348 -0.4055
  574MOL0     N79091   7.239   8.324   7.980  0.5414 -0.1136  0.7040
  574MOL0     C79092   7.211   8.277   7.858 -0.1340 -0.5275  0.0666
  574MOL0     C79093   7.147   8.382   7.809  0.0372 -0.4162  0.1682
  574MOL0     C79094   7.105   8.376   7.666 -0.8948  0.2622 -1.2875
  574MOL0     C79095   7.025   8.257   7.616 -0.9103 -0.1383  0.0362
  574MOL0     C79096   6.956   8.296   7.484 -0.4442 -0.4234  0.8754
  574MOL0     C79097   6.885   8.179   7.423  0.8778 -0.5892 -0.8611
  574MOL0     O79098   6.747   8.197   7.381  0.5623 -0.2360  0.0537
  574MOL0     C79099   6.712   8.246   7.260  0.0445 -0.1791 -0.3212
  574MOL0     C79100   6.599   8.187   7.203 -0.2878 -0.6178 -0.0389
  574MOL0     C79101   6.539   8.243   7.087  0.1549  0.2515 -0.3122
  574MOL0     C79102   6.414   8.186   7.039  0.1859 -1.3083 -1.0565
  574MOL0     C79103   6.606   8.358   7.029 -0.2236 -0.6431 -0.1934
  574MOL0     C79104   6.563   8.418   6.904  0.0106  0.5029  0.2165
  574MOL0     O79105   6.619   8.535   6.871 -0.2087  0.3056  0.3503
  574MOL0     C79106   6.591   8.596   6.746 -0.1996  1.3323  1.1153
  574MOL0     C79107   6.557   8.727   6.746 -0.7554 -0.6499 -1.3041
  574MOL0     C79108   6.533   8.800   6.630  1.0105 -0.2125 -0.5010
  574MOL0     C79109   6.540   8.741   6.505  0.6031 -0.3875 -0.5653
  574MOL0     O79110   6.504   8.813   6.393  0.1433  0.0255 -0.2259
  574MOL0     C79111   6.457   8.736   6.281 -0.5641 -0.6376  1.0712
  574MOL0     C79112   6.405   8.822   6.160  0.3654 -0.0322 -0.1778
  574MOL0     C79113   6.278   8.902   6.191  0.7602  0.0229  0.0950
  574MOL0     C79114   6.213   8.948   6.062 -0.4174  0.3452  0.4442
  574MOL0     C79115   6.101   9.048   6.055 -0.4082 -0.4581  0.6888
  574MOL0     C79116   6.137   9.184   6.122  0.0450  0.8111 -0.5785
  574MOL0     C79117   6.026   9.277   6.132  0.5530 -0.1462  0.3026
  574MOL0     C79118   6.063   9.398   6.216 -0.0353  0.4664 -0.5662
  574MOL0    Cl79119   5.928   9.515   6.235  0.2415  0.3761 -0.4590
  574MOL0     C79120   6.573   8.604   6.502 -1.1460 -0.0377 -0.7223
  574MOL0     C79121   6.617   8.539   6.613 -0.1326  0.4338  0.1994
  574MOL0     O79122   6.480   8.364   6.829 -0.6034 -0.0724  0.5909
  574MOL0     C79123   6.731   8.401   7.083 -0.4999 -0.1684 -0.0165
  574MOL0     C79124   6.782   8.341   7.198  0.4488  0.2729 -0.2426
  574MOL0     N79125   7.128   8.488   7.896  0.4034 -0.1151 -0.8494
  574MOL0     N79126   7.182   8.440   8.010  0.1715 -0.0552  0.7146
  574MOL0     C79127   7.412   8.176   9.129 -0.1138  0.5141 -0.4229
  574MOL0     C79128   7.357   8.141   9.254 -1.0067  0.3675  0.2396
  574MOL0     C79129   7.346   8.097   9.674 -0.5847  0.2447 -0.2123
  574MOL0     C79130   7.349   8.224   9.733  1.5319  0.5905  0.5647
  574MOL0     C79131   7.262   8.255   9.838  0.3580 -0.3984  0.8511
  574MOL0     C79132   7.186   8.154   9.890 -0.1351  0.0458 -1.0314
  574MOL0     O79133   7.123   8.169  10.012 -0.0084  0.3659  0.3396
  574MOL0     C79134   7.200   8.158  10.134 -0.1725  0.0208 -0.8944
  574MOL0     C79135   7.135   8.262  10.235 -0.1372 -0.5675  1.0381
  574MOL0     C79136   7.196   8.236  10.374 -0.1525  1.0478 -0.1723
  574MOL0     C79137   7.247   8.369  10.440 -0.6619  0.5210  0.1382
  574MOL0     C79138   7.377   8.410  10.395 -0.8296 -0.3337  0.6396
  574MOL0     C79139   7.486   8.450  10.347  0.1076  1.2492 -0.0643
  574MOL0     C79140   7.192   8.024   9.846 -0.5006  0.5687  0.9342
  574MOL0     C79141   7.275   7.992   9.740  0.4911  0.6362 -0.5185
  574MOL0     C79142   7.285   7.845   9.699  0.5676  0.5391 -0.1515
  574MOL0     H79143   7.477   7.840   9.307 -1.5984 -0.1313  0.2759
  574MOL0     H79144   7.530   7.867   9.062 -0.9643  1.7308 -2.8591
  574MOL0     H79145   7.584   8.272   8.882  0.7014 -2.5240  2.5019
  574MOL0     H79146   7.406   8.235   8.863  0.9101  0.7137 -2.1958
  574MOL0     H79147   7.623   8.132   8.703 -1.2018 -0.8510 -2.0160
  574MOL0     H79148   7.446   8.076   8.712 -2.3754  1.1540  2.0121
  574MOL0     H79149   7.367   8.273   8.580  0.2649  2.0432  0.0303
  574MOL0     H79150   7.528   8.346   8.602 -1.0605  0.9185  1.2166
  574MOL0     H79151   7.636   8.169   8.459 -0.6198 -0.3291 -0.3841
  574MOL0     H79152   7.490   8.076   8.447  1.2515 -0.3596  0.9612
  574MOL0     H79153   7.518   8.367   8.377  1.0359 -0.5122  1.1542
  574MOL0     H79154   7.369   8.269   8.350 -0.7702 -2.1053  0.5984
  574MOL0     H79155   7.639   8.261   8.203 -0.8757  3.1611  0.8385
  574MOL0     H79156   7.517   8.131   8.191 -0.2520  0.1117 -0.4046
  574MOL0     H79157   7.515   8.302   8.005 -1.0305 -0.1409 -1.8878
  574MOL0     H79158   7.451   8.421   8.128 -2.1935 -0.8733  1.9516
  574MOL0     H79159   7.319   8.150   8.059 -1.8791 -0.9586  0.8861
  574MOL0     H79160   7.260   8.257   8.179  0.7443 -0.2783 -0.0506
  574MOL0     H79161   7.236   8.178   7.820 -2.6024 -1.8483  1.6315
  574MOL0     H79162   7.190   8.405   7.602  0.2993 -0.3013 -0.0093
  574MOL0     H79163   7.052   8.471   7.656 -0.6266  1.0685  3.2072
  574MOL0     H79164   7.089   8.169   7.602 -0.7060  0.0191 -0.0350
  574MOL0     H79165   6.941   8.240   7.684 -0.0903 -0.7624  0.9341
  574MOL0     H79166   6.887   8.380   7.496  0.7398  1.3376 -3.0971
  574MOL0     H79167   7.034   8.330   7.416 -0.0198  0.2349  1.6658
  574MOL0     H79168   6.932   8.143   7.331  1.0477 -0.1769 -0.9351
  574MOL0     H79169   6.891   8.095   7.494  2.3415  2.8566  3.5587
  574MOL0     H79170   6.541   8.122   7.268  0.9684 -1.5306  0.2036
  574MOL0     H79171   6.352   8.274   7.023  2.3931  1.0012  1.9814
  574MOL0     H79172   6.353   8.126   7.107  0.5886 -0.9055 -0.3315
  574MOL0     H79173   6.430   8.145   6.939  0.2398 -4.0582  0.0001
  574MOL0     H79174   6.547   8.773   6.844 -0.3146 -2.7090 -0.2301
  574MOL0     H79175   6.503   8.904   6.638 -2.2731 -1.1495  1.6727
  574MOL0     H79176   6.548   8.688   6.242  0.1582 -0.8839  2.9597
  574MOL0     H79177   6.388   8.656   6.308 -1.4648  0.9137  3.7004
  574MOL0     H79178   6.484   8.886   6.120  0.0832 -0.5741 -1.6493
  574MOL0     H79179   6.381   8.769   6.068  2.6523 -0.5357 -0.5340
  574MOL0     H79180   6.306   8.984   6.258 -0.1336  2.1331 -1.9803
  574MOL0     H79181   6.208   8.831   6.237  1.2908 -1.6303 -1.5158
  574MOL0     H79182   6.172   8.859   6.014 -0.5621  0.4453  0.3788
  574MOL0     H79183   6.298   8.973   5.998  0.0382 -1.9027  0.1212
  574MOL0     H79184   6.084   9.069   5.949 -0.0431  0.8770  0.8763
  574MOL0     H79185   6.011   9.000   6.094  0.0495 -3.1058 -1.2102
  574MOL0     H79186   6.210   9.223   6.050  1.2600  0.5774  0.4873
  574MOL0     H79187   6.187   9.162   6.217 -1.1937  0.7448  0.0767
  574MOL0     H79188   5.935   9.233   6.174  0.5801 -1.3049 -0.7807
  574MOL0     H79189   5.997   9.334   6.043 -2.1590  0.6012  1.5776
  574MOL0     H79190   6.152   9.445   6.173 -0.4893 -0.2143 -2.3624
  574MOL0     H79191   6.092   9.361   6.315  0.6600  2.7525  0.1429
  574MOL0     H79192   6.574   8.560   6.403 -0.9743 -2.0037  0.1079
  574MOL0     H79193   6.658   8.439   6.602  0.5115  0.8250 -1.0823
  574MOL0     H79194   6.797   8.480   7.048 -0.8935 -1.3334 -3.7586
  574MOL0     H79195   6.867   8.391   7.244  1.0307 -0.0611 -0.9406
  574MOL0     H79196   7.405   8.278   9.093  2.0574  1.0737  0.6016
  574MOL0     H79197   7.284   8.210   9.295 -1.5932 -0.1877  0.1501
  574MOL0     H79198   7.417   8.298   9.691 -0.3383  2.8013  1.1861
  574MOL0     H79199   7.285   8.346   9.893  3.5884 -2.0125  2.4213
  574MOL0     H79200   7.181   8.058  10.175 -1.3754 -0.7808 -3.1636
  574MOL0     H79201   7.307   8.171  10.118 -0.1853  1.2199 -0.0926
  574MOL0     H79202   7.026   8.268  10.233 -0.0629  2.6727  0.5383
  574MOL0     H79203   7.170   8.360  10.201 -0.3316 -1.9335 -3.8271
  574MOL0     H79204   7.113   8.202  10.437  0.7929  0.3270  0.7063
  574MOL0     H79205   7.267   8.153  10.373 -1.0414  0.2759 -0.9704
  574MOL0     H79206   7.265   8.355  10.547 -0.5163  3.5090  0.5957
  574MOL0     H79207   7.172   8.449  10.432 -1.0358  0.5495  2.8329
  574MOL0     H79208   7.565   8.504  10.298  1.6665 -2.1546 -1.6393
  574MOL0     H79209   7.132   7.949   9.897  0.0580 -0.2986  0.3428
  574MOL0     H79210   7.223   7.788   9.769  1.7657  0.7833  1.1608
  574MOL0     H79211   7.250   7.818   9.599  1.7894  2.4657 -1.1721
  574MOL0     H79212   7.392   7.830   9.714  0.6336 -4.3537 -3.2021
  575MOL0     O79213  11.314   4.651   3.111  1.0889 -0.4126 -0.3505
  575MOL0     C79214  11.337   4.538   3.152 -0.3475 -0.0952  0.1801
  575MOL0     O79215  11.424   4.511   3.247  0.3667  0.5142  0.0532
  575MOL0     C79216  11.497   4.615   3.298  0.9236 -0.3460  0.4638
  575MOL0     C79217  11.551   4.734   3.234 -0.5740  0.0744  0.0374
  575MOL0     C79218  11.622   4.827   3.303 -0.2680  0.4007 -0.4441
  575MOL0     C79219  11.649   4.813   3.444 -0.5441 -0.2553 -0.2029
  575MOL0     O79220  11.712   4.891   3.525 -0.2989 -0.6669 -0.5284
  575MOL0     C79221  11.767   5.010   3.474  0.1802  0.5822  0.2225
  575MOL0     C79222  11.849   5.075   3.589  0.3741 -0.9006  0.3248
  575MOL0     C79223  11.751   5.150   3.691 -0.0558  0.7600 -0.0474
  575MOL0     C79224  11.826   5.234   3.806 -0.0879  0.3742 -0.3437
  575MOL0     C79225  11.720   5.299   3.886 -0.7500 -0.5669  0.1174
  575MOL0     C79226  11.757   5.418   3.977 -0.5984 -0.4651 -0.1694
  575MOL0     C79227  11.832   5.363   4.095  0.0715 -0.5307 -0.5386
  575MOL0     C79228  11.907   5.475   4.182  0.1960  0.5861 -0.3335
  575MOL0     N79229  12.051   5.502   4.142  0.1438  0.5009  0.2984
  575MOL0     C79230  12.152   5.527   4.231 -0.7517 -0.8666  1.0180
  575MOL0     C79231  12.251   5.572   4.153  0.1112 -0.1782 -0.2370
  575MOL0     C79232  12.389   5.583   4.200  0.4067  0.0084  0.6837
  575MOL0     C79233  12.445   5.444   4.187 -0.3088  0.0856 -0.6870
  575MOL0     C79234  12.575   5.447   4.261  0.6362  0.4194 -0.5023
  575MOL0     C79235  12.630   5.304   4.248 -0.6112  0.4763  0.0372
  575MOL0     O79236  12.762   5.275   4.293 -0.2414  0.7877  0.5180
  575MOL0     C79237  12.807   5.336   4.413  0.8368 -0.7363 -0.3734
  575MOL0     C79238  12.725   5.343   4.526  0.0152 -0.9563  0.3654
  575MOL0     C79239  12.774   5.385   4.653  1.5733  0.2418  0.5892
  575MOL0     C79240  12.674   5.383   4.767  0.2469 -0.3984 -0.8947
  575MOL0     C79241  12.911   5.418   4.661  0.3709  0.0367 -0.5255
  575MOL0     C79242  12.978   5.449   4.786 -0.4924  0.2187  0.4717
  575MOL0     O79243  13.096   5.518   4.769  0.3028 -0.4582  0.5528
  575MOL0     C79244  13.159   5.582   4.873 -0.6220  0.3164  0.1957
  575MOL0     C79245  13.133   5.715   4.905  0.5877 -1.0795  0.6029
  575MOL0     C79246  13.194   5.779   5.010  0.2931  0.2796  0.8466
  575MOL0     C79247  13.282   5.712   5.081 -0.5429  0.6316 -0.1234
  575MOL0     O79248  13.349   5.793   5.166  0.6139 -0.7051 -0.6836
  575MOL0     C79249  13.422   5.749   5.284  0.6735 -0.1938  0.8586
  575MOL0     C79250  13.517   5.865   5.320  0.9031  0.4644  0.4855
  575MOL0     C79251  13.607   5.922   5.212 -0.4081  0.9487 -0.2942
  575MOL0     C79252  13.738   5.946   5.278  0.7164  0.1787  0.1679
  575MOL0     C79253  13.845   5.988   5.171 -0.2869  0.4566  0.5310
  575MOL0     C79254  13.983   5.994   5.243  0.8619 -0.2415 -0.1278
  575MOL0     C79255  14.079   6.064   5.149 -0.0741 -0.4187 -0.6861
  575MOL0     C79256  14.211   6.096   5.222 -0.1142 -0.2203 -0.5972
  575MOL0    Cl79257  14.287   5.940   5.263  0.2823 -0.0370  0.5351
  575MOL0     C79258  13.310   5.578   5.065 -0.6445  0.0539  0.1130
  575MOL0     C79259  13.243   5.509   4.959 -0.1803  0.3700 -0.0492
  575MOL0     O79260  12.936   5.411   4.895 -0.0236 -0.4811  0.7294
  575MOL0     C79261  12.993   5.391   4.551  0.2627 -0.2052  0.1520
  575MOL0     C79262  12.942   5.345   4.434  0.2349 -0.2619 -0.7552
  575MOL0     N79263  12.214   5.554   4.016 -0.1561 -0.8290  0.2399
  575MOL0     N79264  12.097   5.511   4.018  0.2372  0.7827  0.0930
  575MOL0     C79265  11.588   4.700   3.506  0.5607 -0.8704  0.5779
  575MOL0     C79266  11.518   4.607   3.433 -0.3205  1.2621  0.4946
  575MOL0     C79267  11.261   4.423   3.096  0.2546 -0.0017  0.3119
  575MOL0     C79268  11.198   4.331   3.181  0.4143 -0.7316  0.1784
  575MOL0     C79269  11.100   4.236   3.136  0.4729 -0.8035 -0.6085
  575MOL0     C79270  11.085   4.213   3.003 -0.1333  0.3759 -0.5572
  575MOL0     O79271  11.002   4.114   2.949 -0.0298 -0.4950 -0.3814
  575MOL0     C79272  11.072   3.982   2.924  0.7662 -0.3385 -0.0607
  575MOL0     C79273  10.974   3.874   2.979 -0.4321 -0.0367  0.5133
  575MOL0     C79274  10.975   3.863   3.133 -0.4464  0.2883 -0.5130
  575MOL0     C79275  11.105   3.821   3.203 -0.2493  0.9259 -0.4502
  575MOL0     C79276  11.126   3.680   3.185  0.0652  1.4044 -1.0141
  575MOL0     C79277  11.122   3.554   3.172 -0.5518 -0.8407  0.3707
  575MOL0     C79278  11.158   4.297   2.915  0.0605  0.5670  0.0802
  575MOL0     C79279  11.242   4.404   2.955  0.9247 -0.0863 -0.7395
  575MOL0     C79280  11.266   4.514   2.852  0.5519  1.1540 -1.0762
  575MOL0     H79281  11.539   4.763   3.130 -0.6632 -1.2411 -0.3281
  575MOL0     H79282  11.655   4.913   3.246  1.8046 -0.2333 -0.3043
  575MOL0     H79283  11.683   5.076   3.448 -1.6273 -1.2334  1.1210
  575MOL0     H79284  11.828   4.996   3.385 -0.5176 -0.0251 -0.1683
  575MOL0     H79285  11.911   5.002   3.642 -0.4328 -2.8551 -1.3147
  575MOL0     H79286  11.918   5.148   3.545 -0.3426  1.8819  3.3861
  575MOL0     H79287  11.691   5.212   3.624 -1.5850 -1.7511 -1.1427
  575MOL0     H79288  11.679   5.080   3.734 -2.3345  3.3475  0.6117
  575MOL0     H79289  11.883   5.161   3.866 -3.1805 -0.6904  1.5582
  575MOL0     H79290  11.891   5.317   3.779  0.9565 -0.7918 -1.5476
  575MOL0     H79291  11.648   5.229   3.929 -3.7413  2.5193  0.5307
  575MOL0     H79292  11.670   5.347   3.801 -1.7849 -3.5272 -1.0733
  575MOL0     H79293  11.813   5.487   3.914  0.0596 -0.3644  0.5108
  575MOL0     H79294  11.672   5.484   3.998  1.5596  3.5595 -2.9223
  575MOL0     H79295  11.910   5.293   4.062  1.7068  1.0103 -0.1317
  575MOL0     H79296  11.755   5.312   4.153 -1.1096 -0.5096 -2.0280
  575MOL0     H79297  11.850   5.568   4.193 -0.2118  0.4684 -1.3346
  575MOL0     H79298  11.898   5.418   4.275 -4.7333  0.8548 -0.3831
  575MOL0     H79299  12.148   5.517   4.339  3.4041  1.0512  1.5406
  575MOL0     H79300  12.399   5.618   4.303  2.3965  0.5605  0.3509
  575MOL0     H79301  12.430   5.655   4.129  1.0190 -0.5191  0.4864
  575MOL0     H79302  12.384   5.359   4.219 -1.5578  0.4672 -1.9863
  575MOL0     H79303  12.462   5.425   4.081  2.6613 -2.4184  0.0903
  575MOL0     H79304  12.650   5.510   4.213  1.6838 -0.4536 -0.0517
  575MOL0     H79305  12.573   5.487   4.363 -0.3330 -1.0670  0.0966
  575MOL0     H79306  12.572   5.227   4.300 -0.5177 -2.3068 -3.5211
  575MOL0     H79307  12.615   5.265   4.147  0.1793 -2.4999  0.9690
  575MOL0     H79308  12.618   5.328   4.516 -0.0421 -0.8214  0.7833
  575MOL0     H79309  12.672   5.486   4.802  1.4227  0.0524 -2.0943
  575MOL0     H79310  12.708   5.310   4.841  3.2726 -0.9902 -2.7152
  575MOL0     H79311  12.569   5.367   4.739 -1.2412  2.8201  2.0842
  575MOL0     H79312  13.073   5.768   4.831  2.5885  0.1525 -0.2077
  575MOL0     H79313  13.174   5.885   5.016 -2.4521  0.1180 -2.3730
  575MOL0     H79314  13.361   5.721   5.370  3.0402  1.9685  3.4073
  575MOL0     H79315  13.487   5.667   5.250  0.5495 -1.4284  3.3847
  575MOL0     H79316  13.457   5.943   5.368  2.3158  0.2292  2.7892
  575MOL0     H79317  13.578   5.820   5.399  1.7427 -1.0085 -0.9433
  575MOL0     H79318  13.555   6.005   5.162  1.1058  1.2755 -1.3945
  575MOL0     H79319  13.626   5.850   5.132 -2.0732 -1.6821  1.5048
  575MOL0     H79320  13.769   5.849   5.318 -0.8153 -0.4701 -0.1121
  575MOL0     H79321  13.721   6.017   5.360  3.2551  2.5662 -1.2342
  575MOL0     H79322  13.849   5.923   5.083  1.7681  1.7186 -0.3790
  575MOL0     H79323  13.815   6.085   5.131  2.2125  0.4955 -1.4387
  575MOL0     H79324  14.017   5.902   5.293  3.4835  1.2228  1.0121
  575MOL0     H79325  13.971   6.068   5.322  0.0082  0.9706 -1.3323
  575MOL0     H79326  14.027   6.155   5.118 -0.6421 -0.6481 -0.4425
  575MOL0     H79327  14.087   6.013   5.053 -5.9387 -1.2247 -1.1653
  575MOL0     H79328  14.186   6.161   5.307 -0.4102 -1.4815  0.3039
  575MOL0     H79329  14.281   6.154   5.161 -1.4826  0.5585 -1.4620
  575MOL0     H79330  13.374   5.516   5.126  1.3925  0.9964 -0.9684
  575MOL0     H79331  13.257   5.403   4.938 -0.0004  0.9129 -3.1876
  575MOL0     H79332  13.098   5.412   4.570  0.6749 -0.9066 -1.2184
  575MOL0     H79333  13.011   5.318   4.354  1.0592  1.7145 -0.7755
  575MOL0     H79334  11.607   4.690   3.612  1.7522 -1.4927  0.3241
  575MOL0     H79335  11.474   4.518   3.477 -2.6745  1.6627 -0.8732
  575MOL0     H79336  11.204   4.346   3.289 -0.0255  1.7594 -0.0844
  575MOL0     H79337  11.057   4.158   3.199  2.2193 -2.5308 -1.4466
  575MOL0     H79338  11.088   3.973   2.816 -1.1104  2.8655 -0.7538
  575MOL0     H79339  11.172   3.988   2.969  1.8806 -0.5789 -2.3812
  575MOL0     H79340  11.005   3.779   2.937 -0.4300  0.6704 -1.1633
  575MOL0     H79341  10.874   3.892   2.939  0.2215 -2.6397 -2.6880
  575MOL0     H79342  10.942   3.955   3.184  0.4100 -0.6607  1.9201
  575MOL0     H79343  10.895   3.793   3.156  0.1264  0.1130  1.1025
  575MOL0     H79344  11.094   3.859   3.305 -0.2930 -0.1573 -0.0410
  575MOL0     H79345  11.191   3.870   3.158 -0.4286  1.5352 -0.1420
  575MOL0     H79346  11.142   3.449   3.167 -0.9762 -0.8715 -0.8867
  575MOL0     H79347  11.115   4.287   2.816  1.5904 -1.0489 -0.4607
  575MOL0     H79348  11.371   4.539   2.871  0.1364  0.6297  2.7462
  575MOL0     H79349  11.262   4.466   2.754 -0.4335  2.3444 -1.6434
  575MOL0     H79350  11.189   4.591   2.841 -0.9694 -0.1451  0.0324
  576MOL0     O79351   6.673  10.194   7.095 -0.3480 -0.3756  0.0490
  576MOL0     C79352   6.759  10.284   7.110  0.3788  0.0610 -0.2637
  576MOL0     O79353   6.821  10.341   7.006 -0.3778 -0.3453 -0.2413
  576MOL0     C79354   6.852  10.265   6.899 -0.0624 -0.5654  0.5813
  576MOL0     C79355   6.954  10.164   6.915  0.5937  0.2587  0.7009
  576MOL0     C79356   6.972  10.080   6.802  0.4041  0.5904 -0.0390
  576MOL0     C79357   6.935  10.118   6.673  0.2227  0.0460 -0.4121
  576MOL0     O79358   6.960  10.038   6.564 -0.4464  0.2646  0.1549
  576MOL0     C79359   7.105  10.020   6.547  0.3766  0.5696 -0.3105
  576MOL0     C79360   7.137   9.918   6.434  0.7995  0.5210 -0.3863
  576MOL0     C79361   7.261   9.952   6.363  0.5978  0.5669  0.2208
  576MOL0     C79362   7.252  10.007   6.217  0.7567  0.4874  1.7288
  576MOL0     C79363   7.386  10.033   6.142  0.2815 -0.7688 -0.1557
  576MOL0     C79364   7.463  10.150   6.205  0.5355 -0.8647 -0.5342
  576MOL0     C79365   7.403  10.284   6.180  0.8051 -0.2020  0.4739
  576MOL0     C79366   7.446  10.379   6.290 -0.6070 -0.4474  0.4370
  576MOL0     N79367   7.358  10.385   6.402 -0.5780  0.4937 -0.0634
  576MOL0     C79368   7.380  10.334   6.526 -0.3011 -0.6126  0.4797
  576MOL0     C79369   7.289  10.400   6.605 -0.7916  0.3938  1.7510
  576MOL0     C79370   7.277  10.391   6.754  0.0280  0.4322 -0.0122
  576MOL0     C79371   7.300  10.515   6.836  0.1826 -0.7685 -0.8015
  576MOL0     C79372   7.406  10.611   6.776  0.0711 -0.7491  0.0292
  576MOL0     C79373   7.536  10.542   6.737  0.2451 -1.3416  0.4084
  576MOL0     O79374   7.634  10.641   6.725  0.1558  0.8451  0.2370
  576MOL0     C79375   7.639  10.721   6.611 -0.0262  0.1098  0.1325
  576MOL0     C79376   7.550  10.703   6.504  0.3949 -0.3148 -0.4476
  576MOL0     C79377   7.580  10.775   6.385 -0.2511 -0.2786  0.2183
  576MOL0     C79378   7.470  10.758   6.284  0.0839 -0.4415  0.3178
  576MOL0     C79379   7.696  10.851   6.360 -0.2182  0.4315 -0.0000
  576MOL0     C79380   7.736  10.909   6.234  0.0116  0.4957 -0.4078
  576MOL0     O79381   7.858  10.973   6.228  0.6281 -0.4702 -0.5271
  576MOL0     C79382   7.895  11.023   6.103 -0.3103 -0.4490 -0.0159
  576MOL0     C79383   7.907  11.165   6.074  0.6155  0.1773 -0.1043
  576MOL0     C79384   7.948  11.209   5.950  0.3991  0.4104  0.4308
  576MOL0     C79385   7.971  11.114   5.845 -0.8636 -0.6808 -0.7738
  576MOL0     O79386   7.990  11.156   5.710 -0.0159 -0.2225  0.1820
  576MOL0     C79387   8.003  11.295   5.673 -0.5978 -0.0412  0.5512
  576MOL0     C79388   8.044  11.294   5.531  1.0677 -1.0253  0.3417
  576MOL0     C79389   8.078  11.433   5.486 -0.0546  0.3126 -0.2395
  576MOL0     C79390   8.116  11.448   5.342 -0.4401  0.4345  0.2119
  576MOL0     C79391   8.190  11.584   5.316  0.9847 -0.2421 -0.6562
  576MOL0     C79392   8.217  11.592   5.167  0.5892  0.3454  0.1348
  576MOL0     C79393   8.320  11.492   5.119 -0.3537  0.2693  0.3014
  576MOL0     C79394   8.366  11.506   4.975 -0.3022 -1.0366  1.0618
  576MOL0    Cl79395   8.243  11.519   4.863 -0.0275  0.6316 -0.1918
  576MOL0     C79396   7.969  10.980   5.869  0.0430 -0.1495  0.1145
  576MOL0     C79397   7.931  10.938   5.999  0.2205 -0.6264 -0.1105
  576MOL0     O79398   7.661  10.888   6.142  0.6089 -0.4356 -0.1877
  576MOL0     C79399   7.782  10.862   6.476 -0.5689  0.4492  0.3605
  576MOL0     C79400   7.749  10.807   6.594  0.3080 -0.1332 -0.4217
  576MOL0     N79401   7.193  10.469   6.519 -0.7348 -0.4494 -0.1621
  576MOL0     N79402   7.247  10.463   6.399 -0.9810  1.1161 -0.1339
  576MOL0     C79403   6.861  10.231   6.661  0.3977  0.0895 -0.3157
  576MOL0     C79404   6.810  10.305   6.770  0.4563 -0.6990  0.4524
  576MOL0     C79405   6.796  10.338   7.247  0.4498 -0.6354  0.7811
  576MOL0     C79406   6.927  10.362   7.273  0.0840 -0.9328  0.0680
  576MOL0     C79407   6.966  10.414   7.396 -0.4003 -0.9247  0.3857
  576MOL0     C79408   6.866  10.459   7.489 -0.0685 -0.1718  0.5444
  576MOL0     O79409   6.906  10.501   7.613  1.0081  0.8271 -0.8146
  576MOL0     C79410   7.032  10.552   7.650 -0.1727  0.4266  0.9758
  576MOL0     C79411   7.040  10.570   7.804  1.1043  0.1263  0.1812
  576MOL0     C79412   6.915  10.622   7.861  0.6112 -0.1192 -0.3791
  576MOL0     C79413   6.805  10.507   7.886 -0.9912 -0.7223 -0.0702
  576MOL0     C79414   6.694  10.583   7.940 -0.3539  0.1070 -0.7498
  576MOL0     C79415   6.599  10.655   7.972  0.0295  0.5154  0.0914
  576MOL0     C79416   6.732  10.426   7.459 -0.3936  0.2004 -0.1154
  576MOL0     C79417   6.694  10.357   7.336 -0.1896 -0.5031 -0.7608
  576MOL0     C79418   6.544  10.320   7.319  0.5099 -0.0373  0.0052
  576MOL0     H79419   6.999  10.149   7.012  2.8718 -2.0856 -0.5988
  576MOL0     H79420   7.035   9.992   6.799 -1.4556 -0.8613 -5.1240
  576MOL0     H79421   7.143   9.970   6.637 -2.2749 -1.0776 -0.0244
  576MOL0     H79422   7.144  10.120   6.524 -2.3831  1.8131  0.0375
  576MOL0     H79423   7.163   9.823   6.480  1.7029  1.6229  1.5045
  576MOL0     H79424   7.058   9.905   6.359  2.3241  0.3463 -2.0224
  576MOL0     H79425   7.324  10.023   6.418  0.8443  0.9878 -0.5906
  576MOL0     H79426   7.324   9.863   6.353 -1.3947 -0.8665 -0.1980
  576MOL0     H79427   7.190   9.935   6.161  1.5906  2.2603 -1.7995
  576MOL0     H79428   7.183  10.092   6.228 -2.1328 -1.7508  2.0769
  576MOL0     H79429   7.362  10.063   6.040  4.6712  0.4049 -1.0684
  576MOL0     H79430   7.459   9.951   6.135 -0.2621 -1.6882  3.0501
  576MOL0     H79431   7.459  10.140   6.314 -0.4234 -1.2528 -0.5994
  576MOL0     H79432   7.568  10.162   6.175  1.8929 -0.0027  3.8253
  576MOL0     H79433   7.294  10.281   6.173  0.8283  1.1770 -1.0750
  576MOL0     H79434   7.427  10.328   6.083 -3.2575 -0.1273 -0.6442
  576MOL0     H79435   7.546  10.346   6.320  0.3530  1.4376 -0.5791
  576MOL0     H79436   7.461  10.478   6.247 -1.6834  0.0079  1.0677
  576MOL0     H79437   7.469  10.279   6.557 -0.1289  0.0562  1.2092
  576MOL0     H79438   7.354  10.317   6.779  0.8436  0.7838 -1.3874
  576MOL0     H79439   7.179  10.354   6.785  0.8923 -1.5017  0.5982
  576MOL0     H79440   7.210  10.574   6.856 -0.2045 -1.4316 -0.5291
  576MOL0     H79441   7.344  10.490   6.933 -2.8084 -1.5582  0.4791
  576MOL0     H79442   7.370  10.667   6.689  1.0694 -2.0797 -1.2872
  576MOL0     H79443   7.426  10.681   6.858 -3.3561 -0.8815  1.1119
  576MOL0     H79444   7.574  10.477   6.816  0.6165 -1.1713  0.3714
  576MOL0     H79445   7.539  10.476   6.649 -3.3666  2.6772 -3.2406
  576MOL0     H79446   7.476  10.625   6.515 -2.1397  2.0078  0.0450
  576MOL0     H79447   7.412  10.850   6.274  0.4070 -0.3367 -0.8271
  576MOL0     H79448   7.401  10.679   6.313 -1.7644 -0.1058 -2.6814
  576MOL0     H79449   7.510  10.722   6.188  0.0509  1.2757 -0.3767
  576MOL0     H79450   7.881  11.236   6.152 -0.8484  0.0193 -0.4198
  576MOL0     H79451   7.958  11.315   5.925  0.1606  0.3133 -0.0862
  576MOL0     H79452   7.909  11.348   5.691  0.7943  2.0729  2.0609
  576MOL0     H79453   8.080  11.343   5.733 -1.0717  2.9261 -1.0304
  576MOL0     H79454   8.128  11.223   5.531 -0.3441 -2.8615 -2.0591
  576MOL0     H79455   7.969  11.238   5.475 -2.0536  1.8687  1.2976
  576MOL0     H79456   8.158  11.485   5.540  0.5426  1.0336 -1.7732
  576MOL0     H79457   7.987  11.493   5.494  0.8780  1.5854  1.5538
  576MOL0     H79458   8.020  11.421   5.295  0.7537 -2.0900 -0.9643
  576MOL0     H79459   8.191  11.376   5.308 -0.2758  1.9216 -2.9518
  576MOL0     H79460   8.123  11.664   5.349  0.1892 -0.8615 -0.7541
  576MOL0     H79461   8.289  11.594   5.361  0.2319  0.4748  0.9219
  576MOL0     H79462   8.264  11.690   5.149 -0.7793  1.2365  1.2087
  576MOL0     H79463   8.126  11.575   5.110  0.6669  0.4336 -0.0160
  576MOL0     H79464   8.296  11.386   5.133 -2.0222  0.6754  0.8232
  576MOL0     H79465   8.413  11.510   5.173 -1.6853  2.1572  2.1608
  576MOL0     H79466   8.414  11.416   4.936 -1.0742 -1.3138  0.7426
  576MOL0     H79467   8.439  11.585   4.954  2.4461 -2.9751  2.5940
  576MOL0     H79468   8.013  10.919   5.791  3.8114  1.2185  0.9540
  576MOL0     H79469   7.933  10.831   6.014 -2.5487 -1.2180 -2.8363
  576MOL0     H79470   7.870  10.925   6.471  1.0091 -1.3409  2.9046
  576MOL0     H79471   7.807  10.825   6.684 -2.7281  3.2245  1.1511
  576MOL0     H79472   6.838  10.274   6.564 -0.8247  3.5894  1.3450
  576MOL0     H79473   6.753  10.396   6.754  1.0910 -0.6420 -1.8745
  576MOL0     H79474   7.015  10.332   7.217  0.4805  1.0618 -0.4415
  576MOL0     H79475   7.070  10.419   7.424 -0.5255  2.2325  0.6553
  576MOL0     H79476   7.121  10.498   7.617 -1.1388 -0.5934 -0.0152
  576MOL0     H79477   7.039  10.653   7.608 -1.0651 -0.4817 -1.5090
  576MOL0     H79478   7.126  10.636   7.818  3.0991 -2.2773  0.0027
  576MOL0     H79479   7.080  10.484   7.858  3.4929  0.7916 -0.3912
  576MOL0     H79480   6.933  10.662   7.961 -1.8030  0.9353 -0.3081
  576MOL0     H79481   6.871  10.701   7.800 -2.3894  0.2316  2.0184
  576MOL0     H79482   6.851  10.440   7.958  2.4967  1.6210  0.1147
  576MOL0     H79483   6.781  10.439   7.803  2.7793 -0.3560 -1.6478
  576MOL0     H79484   6.525  10.716   8.018 -1.1495 -0.4300 -0.4803
  576MOL0     H79485   6.664  10.457   7.537  1.2035 -0.3646  1.5743
  576MOL0     H79486   6.538  10.214   7.345 -1.9103  0.4286  1.7634
  576MOL0     H79487   6.465  10.363   7.382 -3.2510 -0.4715 -3.8785
  576MOL0     H79488   6.513  10.346   7.217 -1.6450 -1.1035  0.3241
  577MOL0     O79489   7.153   4.677   3.663 -0.9941  0.0754 -0.2734
  577MOL0     C79490   7.070   4.600   3.713  0.6860  1.2168  1.0726
  577MOL0     O79491   6.935   4.615   3.703  0.3480 -0.0406 -0.1302
  577MOL0     C79492   6.873   4.706   3.626 -1.3249  0.3177  0.4649
  577MOL0     C79493   6.743   4.742   3.657  0.4391 -0.3289 -0.2669
  577MOL0     C79494   6.669   4.830   3.584  0.9470  0.3783 -0.3065
  577MOL0     C79495   6.737   4.887   3.476 -0.3143 -0.7218 -0.8107
  577MOL0     O79496   6.676   4.983   3.407 -0.0509 -0.5015 -0.4933
  577MOL0     C79497   6.678   5.113   3.463  1.7535 -0.5341 -0.0368
  577MOL0     C79498   6.563   5.136   3.560  0.0668 -0.3943  0.6879
  577MOL0     C79499   6.427   5.120   3.477 -0.8808  0.0681  0.7237
  577MOL0     C79500   6.302   5.140   3.582  0.3027 -0.3188 -0.4164
  577MOL0     C79501   6.158   5.105   3.544  0.1217  0.0672 -1.2210
  577MOL0     C79502   6.099   5.218   3.472 -0.9625 -1.0519  0.0802
  577MOL0     C79503   5.967   5.195   3.409  0.7961 -0.3305  0.0899
  577MOL0     C79504   5.947   5.291   3.292 -0.2004  0.3536  0.0932
  577MOL0     N79505   5.918   5.428   3.329  1.2104  0.7759  0.3368
  577MOL0     C79506   5.997   5.540   3.323  0.8588 -0.7172  1.0132
  577MOL0     C79507   5.916   5.637   3.384 -1.2680  0.0030  0.5551
  577MOL0     C79508   5.945   5.788   3.409 -0.4645  0.7083  0.3132
  577MOL0     C79509   6.080   5.804   3.477  0.0571  0.8410  0.3319
  577MOL0     C79510   6.094   5.942   3.538 -0.0062 -0.5328  0.1440
  577MOL0     C79511   6.236   5.959   3.615 -0.8846  0.9487  0.4516
  577MOL0     O79512   6.237   5.880   3.732 -0.0705 -1.0564  0.7177
  577MOL0     C79513   6.356   5.876   3.791 -0.7075 -0.4093  0.9638
  577MOL0     C79514   6.482   5.881   3.726  0.0637  0.5843 -0.1065
  577MOL0     C79515   6.601   5.854   3.796  0.1497 -0.1566  0.2220
  577MOL0     C79516   6.725   5.827   3.711  0.4071  0.5714 -0.4074
  577MOL0     C79517   6.602   5.884   3.939  1.2239 -0.3367  0.1805
  577MOL0     C79518   6.726   5.904   4.019  1.1172 -0.3219 -0.0911
  577MOL0     O79519   6.710   5.933   4.155  0.1123  0.1261 -0.0132
  577MOL0     C79520   6.815   5.961   4.238 -0.1742 -0.1421 -0.3325
  577MOL0     C79521   6.952   5.976   4.198  0.8980 -0.2341  1.3699
  577MOL0     C79522   7.055   5.989   4.290  0.1038  0.1050  1.2260
  577MOL0     C79523   7.026   5.985   4.427 -0.8047 -0.5106  0.3571
  577MOL0     O79524   7.115   5.998   4.527 -0.7593  0.1783 -0.3857
  577MOL0     C79525   7.252   5.991   4.502  0.1957  0.4089  0.0253
  577MOL0     C79526   7.330   6.043   4.620  0.7529  0.5295 -0.8122
  577MOL0     C79527   7.328   5.941   4.732 -0.2130 -0.2391 -0.9640
  577MOL0     C79528   7.381   6.016   4.852 -1.3581  1.0797  0.3533
  577MOL0     C79529   7.416   5.927   4.970 -0.8985  1.5081  0.5285
  577MOL0     C79530   7.487   6.001   5.083  1.0605  0.6540  0.8677
  577MOL0     C79531   7.627   6.045   5.068  1.0382  0.6430  0.6592
  577MOL0     C79532   7.741   5.938   5.051 -0.8698 -0.8810  0.3249
  577MOL0    Cl79533   7.789   5.898   5.226 -0.0663  0.0966  0.0773
  577MOL0     C79534   6.891   5.977   4.468  0.3333  0.5384 -0.7925
  577MOL0     C79535   6.789   5.962   4.378  0.9581  0.1127 -0.2189
  577MOL0     O79536   6.825   5.878   3.953 -0.6707  0.8556 -0.2019
  577MOL0     C79537   6.475   5.890   3.999  0.1072  1.0910  0.2802
  577MOL0     C79538   6.355   5.864   3.929  2.0665 -0.3814  0.2428
  577MOL0     N79539   5.795   5.579   3.414 -0.2430  0.1584 -0.3877
  577MOL0     N79540   5.793   5.453   3.382 -0.7812 -0.5750 -0.3664
  577MOL0     C79541   6.854   4.844   3.433  0.7350 -0.0413 -0.0399
  577MOL0     C79542   6.927   4.751   3.504  0.0126 -0.6736  0.4216
  577MOL0     C79543   7.117   4.491   3.802  0.6597  0.0952  0.3682
  577MOL0     C79544   7.017   4.404   3.853 -0.9417  0.5346  1.4298
  577MOL0     C79545   7.049   4.288   3.912 -0.5798 -0.1153 -0.0025
  577MOL0     C79546   7.185   4.262   3.944  0.2222  0.9216 -0.1871
  577MOL0     O79547   7.220   4.150   4.019 -1.0951  0.2414  0.1885
  577MOL0     C79548   7.123   4.069   4.083 -0.4875  0.2955 -0.1993
  577MOL0     C79549   7.206   3.956   4.166 -1.8709 -0.1939 -0.4779
  577MOL0     C79550   7.308   4.006   4.274  0.0359 -0.4610  0.4689
  577MOL0     C79551   7.265   4.004   4.417  0.0524  0.5087 -0.4506
  577MOL0     C79552   7.374   3.981   4.515  0.4558 -1.1469  0.3402
  577MOL0     C79553   7.468   3.978   4.594  0.9381  0.5222  0.7258
  577MOL0     C79554   7.282   4.343   3.899 -0.5608 -0.4806  0.7814
  577MOL0     C79555   7.256   4.463   3.829  0.3066 -0.0915  0.0981
  577MOL0     C79556   7.370   4.549   3.775  0.6691  0.8270 -0.5264
  577MOL0     H79557   6.705   4.715   3.755  1.5984  2.8544  1.2324
  577MOL0     H79558   6.574   4.866   3.622 -1.3672 -3.8021 -1.5027
  577MOL0     H79559   6.667   5.187   3.383 -0.6432  0.4603  1.1051
  577MOL0     H79560   6.770   5.140   3.516 -0.6733  3.8955  2.5060
  577MOL0     H79561   6.579   5.069   3.645  1.2351  2.1193  2.5896
  577MOL0     H79562   6.541   5.231   3.609 -1.4154 -1.1037  1.4844
  577MOL0     H79563   6.428   5.198   3.399  2.5557 -2.2958 -1.9093
  577MOL0     H79564   6.423   5.031   3.414  0.9988  0.1647  0.4045
  577MOL0     H79565   6.329   5.070   3.662  1.4246 -2.1488 -2.3221
  577MOL0     H79566   6.309   5.240   3.626 -2.8160 -0.6983  1.2490
  577MOL0     H79567   6.099   5.073   3.630  1.1467 -1.8004 -1.1753
  577MOL0     H79568   6.167   5.009   3.494 -0.4858 -1.9842  2.2926
  577MOL0     H79569   6.087   5.310   3.531 -0.9061 -1.1879  0.3018
  577MOL0     H79570   6.170   5.219   3.388 -2.6016  1.1224 -1.4046
  577MOL0     H79571   5.893   5.208   3.488  2.3334  0.9183  1.4117
  577MOL0     H79572   5.958   5.091   3.377  1.6029  0.4995 -3.2710
  577MOL0     H79573   6.036   5.280   3.228 -0.7633  2.8053 -1.2337
  577MOL0     H79574   5.861   5.253   3.237 -1.8954  2.1620  1.3552
  577MOL0     H79575   6.094   5.556   3.278 -0.3906  2.6806 -0.8295
  577MOL0     H79576   5.860   5.831   3.462 -2.7468 -1.5650 -1.2655
  577MOL0     H79577   5.946   5.845   3.315  2.2141 -0.2018 -0.3206
  577MOL0     H79578   6.110   5.734   3.555  1.8706 -1.4835 -2.2153
  577MOL0     H79579   6.170   5.782   3.417  1.3635  2.8245  1.4528
  577MOL0     H79580   6.107   6.018   3.460  0.9790  2.4540  3.0008
  577MOL0     H79581   6.015   5.975   3.605  0.2722  0.2406  0.0958
  577MOL0     H79582   6.309   5.928   3.540 -1.1916  1.7373 -0.1818
  577MOL0     H79583   6.248   6.066   3.636  1.7031  1.2172 -1.8740
  577MOL0     H79584   6.499   5.896   3.620  1.9278 -0.9867 -0.0915
  577MOL0     H79585   6.789   5.915   3.701  2.3102 -0.5036  1.4230
  577MOL0     H79586   6.694   5.809   3.608  0.3559  1.8396 -0.6316
  577MOL0     H79587   6.789   5.744   3.743 -0.8549  0.0576  0.9103
  577MOL0     H79588   6.981   5.971   4.093  0.4780 -2.4804  1.3190
  577MOL0     H79589   7.154   6.004   4.248 -0.7282  2.6729 -0.0590
  577MOL0     H79590   7.284   5.887   4.488  1.8847  0.7508  1.0067
  577MOL0     H79591   7.284   6.059   4.422 -1.2862 -1.2199 -2.0856
  577MOL0     H79592   7.433   6.075   4.600  0.3039  2.4299 -0.2317
  577MOL0     H79593   7.283   6.135   4.655 -1.1227 -0.5841 -0.2551
  577MOL0     H79594   7.404   5.863   4.723 -1.0854 -1.7580  2.8278
  577MOL0     H79595   7.237   5.887   4.760  0.5058 -1.3360 -0.6551
  577MOL0     H79596   7.310   6.092   4.889 -0.7481  1.6345  0.4037
  577MOL0     H79597   7.472   6.067   4.821 -2.8383  1.3453 -4.3982
  577MOL0     H79598   7.322   5.890   5.011 -2.2916  1.2526 -2.5856
  577MOL0     H79599   7.472   5.836   4.949 -3.2703 -0.7422  3.3266
  577MOL0     H79600   7.492   5.925   5.163 -2.0995 -1.2440 -0.5206
  577MOL0     H79601   7.422   6.083   5.115 -1.7013  0.7236 -3.9155
  577MOL0     H79602   7.665   6.110   5.148  0.1699  2.1462 -0.0969
  577MOL0     H79603   7.624   6.118   4.986  0.7690  0.2685  0.3318
  577MOL0     H79604   7.823   5.997   5.009 -0.5199 -2.4630 -1.3582
  577MOL0     H79605   7.742   5.858   4.976  0.2885  0.0828 -0.7382
  577MOL0     H79606   6.856   5.976   4.570 -0.3946 -0.9954 -1.0394
  577MOL0     H79607   6.683   5.960   4.403 -0.1924  0.0369 -4.4150
  577MOL0     H79608   6.476   5.907   4.106  1.9942 -0.7875  0.6387
  577MOL0     H79609   6.252   5.864   3.964  1.2350  3.7063 -1.6259
  577MOL0     H79610   6.885   4.873   3.333 -2.5537  1.1508 -0.8548
  577MOL0     H79611   7.020   4.722   3.456 -0.6923 -0.3531 -1.1876
  577MOL0     H79612   6.911   4.416   3.833 -0.4803  0.4204 -1.4455
  577MOL0     H79613   6.970   4.215   3.924  0.7761 -1.9999 -1.9056
  577MOL0     H79614   7.060   4.131   4.147 -4.1418 -1.5688 -1.7395
  577MOL0     H79615   7.053   4.022   4.015 -1.2461  1.0060  0.0747
  577MOL0     H79616   7.263   3.912   4.083 -0.5590  2.1515 -0.9206
  577MOL0     H79617   7.140   3.879   4.208 -0.3070 -1.4808 -0.2822
  577MOL0     H79618   7.404   3.954   4.272  0.4748  0.3375 -1.7203
  577MOL0     H79619   7.330   4.111   4.249  4.0596 -1.6102 -1.6418
  577MOL0     H79620   7.192   3.922   4.426 -1.2553  1.8367  2.3761
  577MOL0     H79621   7.205   4.093   4.438 -1.8734  0.0152 -3.2925
  577MOL0     H79622   7.560   3.981   4.649  1.7733 -4.9340  0.1731
  577MOL0     H79623   7.386   4.317   3.917  0.0594  0.0831 -1.5585
  577MOL0     H79624   7.459   4.516   3.830  2.1533  1.5391 -2.4011
  577MOL0     H79625   7.393   4.529   3.670  2.9200 -1.9714  0.3518
  577MOL0     H79626   7.354   4.654   3.800 -1.8314  0.0429  1.6884
  578MOL0     O79627   3.182   8.555   5.115  0.2030 -0.3341  0.0017
  578MOL0     C79628   3.182   8.510   5.229 -0.3205 -0.3373 -0.1138
  578MOL0     O79629   3.281   8.442   5.292 -1.0252  0.5964  0.6832
  578MOL0     C79630   3.407   8.450   5.228 -0.0290 -0.1867 -0.2146
  578MOL0     C79631   3.511   8.508   5.304  0.4650  0.0672 -0.4226
  578MOL0     C79632   3.644   8.498   5.264  0.6125 -0.1158  0.3458
  578MOL0     C79633   3.673   8.417   5.149 -0.1010 -0.4528 -0.1984
  578MOL0     O79634   3.802   8.405   5.117 -0.0932  1.0500 -0.3351
  578MOL0     C79635   3.853   8.280   5.166  0.3824  0.2297  0.0495
  578MOL0     C79636   3.998   8.272   5.159  0.3365  0.1793 -0.0893
  578MOL0     C79637   4.036   8.128   5.143 -0.3980 -0.3445  0.4892
  578MOL0     C79638   4.161   8.110   5.067 -0.0527  0.2067 -0.2456
  578MOL0     C79639   4.213   7.964   5.062 -0.4607 -0.0563 -0.5346
  578MOL0     C79640   4.132   7.887   4.952  0.0509  0.0625  1.0419
  578MOL0     C79641   4.145   7.730   4.956 -0.0144  0.0450  0.2113
  578MOL0     C79642   4.036   7.659   4.870 -0.8237  0.1141  0.1293
  578MOL0     N79643   4.047   7.683   4.720  0.8410  0.1263 -1.0357
  578MOL0     C79644   4.159   7.670   4.643  1.1337  0.2704 -0.5484
  578MOL0     C79645   4.120   7.731   4.523 -0.5357 -0.6301  0.1830
  578MOL0     C79646   4.187   7.742   4.386  0.5350  0.0308 -0.2171
  578MOL0     C79647   4.196   7.878   4.330 -0.0482 -0.5925 -0.6095
  578MOL0     C79648   4.300   7.889   4.219  0.1057 -0.2740  0.3203
  578MOL0     C79649   4.342   8.031   4.192 -0.1156 -0.4727 -1.0552
  578MOL0     O79650   4.390   8.102   4.312  0.7124  0.7244 -0.1357
  578MOL0     C79651   4.401   8.242   4.321  0.1913 -0.0593  0.2905
  578MOL0     C79652   4.446   8.283   4.444 -0.1371  0.2114 -0.1960
  578MOL0     C79653   4.491   8.419   4.461  1.4612  0.1920  0.4473
  578MOL0     C79654   4.567   8.455   4.586  0.0307 -0.3712 -0.6906
  578MOL0     C79655   4.451   8.518   4.364  0.4940  0.1626 -0.5614
  578MOL0     C79656   4.489   8.663   4.350  0.1808 -0.2417  0.2901
  578MOL0     O79657   4.426   8.736   4.256  0.3418 -0.4895 -0.1429
  578MOL0     C79658   4.431   8.872   4.264  0.1914 -0.8492 -0.4888
  578MOL0     C79659   4.353   8.944   4.355 -0.2948 -0.7793 -0.6403
  578MOL0     C79660   4.348   9.087   4.363 -0.4832  0.3703 -0.1865
  578MOL0     C79661   4.425   9.157   4.272  0.2121 -0.3432  0.5456
  578MOL0     O79662   4.427   9.299   4.252  0.3210 -0.2940 -0.6631
  578MOL0     C79663   4.319   9.371   4.312  0.6369 -0.0253 -0.1876
  578MOL0     C79664   4.312   9.507   4.251  0.2294  0.0441  0.7224
  578MOL0     C79665   4.434   9.592   4.287 -0.5541  0.1381 -0.2664
  578MOL0     C79666   4.428   9.742   4.247 -0.6542  0.4675  0.0059
  578MOL0     C79667   4.319   9.822   4.322 -0.0360 -1.0514 -1.4258
  578MOL0     C79668   4.301   9.969   4.273  0.1530  0.2115  0.6094
  578MOL0     C79669   4.413  10.055   4.326  0.0232 -0.0224  0.1332
  578MOL0     C79670   4.397  10.212   4.319 -0.5541  0.8791  0.1730
  578MOL0    Cl79671   4.228  10.261   4.379  0.2666 -0.1095  0.4956
  578MOL0     C79672   4.498   9.080   4.180 -0.5483 -0.1733  0.3936
  578MOL0     C79673   4.508   8.943   4.175  0.1520  0.6162 -0.3147
  578MOL0     O79674   4.606   8.689   4.398 -0.0987  0.1565 -0.4865
  578MOL0     C79675   4.370   8.473   4.253 -0.2184 -0.6834 -0.3798
  578MOL0     C79676   4.353   8.339   4.229 -0.6234  0.8163  0.6996
  578MOL0     N79677   3.991   7.767   4.537  0.5113  0.7179  0.6555
  578MOL0     N79678   3.946   7.740   4.651 -0.8159 -0.2354  0.3212
  578MOL0     C79679   3.572   8.370   5.067 -0.6528 -0.8687 -0.5983
  578MOL0     C79680   3.436   8.385   5.106  0.1986 -0.0248 -0.5757
  578MOL0     C79681   3.063   8.534   5.310  0.1165 -0.2763 -0.0703
  578MOL0     C79682   3.071   8.520   5.447  0.6595  0.0187  0.3394
  578MOL0     C79683   2.959   8.532   5.533  0.1612  0.7717  0.4050
  578MOL0     C79684   2.827   8.540   5.484 -0.1889 -0.8567  0.0640
  578MOL0     O79685   2.716   8.512   5.565 -0.0701  0.3565 -0.2024
  578MOL0     C79686   2.589   8.569   5.522 -0.6490 -1.1369  1.0938
  578MOL0     C79687   2.479   8.560   5.624  0.5811 -0.1447 -1.0503
  578MOL0     C79688   2.411   8.423   5.634 -0.7956  0.1614  0.0840
  578MOL0     C79689   2.497   8.304   5.675  0.8303 -0.8015 -0.1614
  578MOL0     C79690   2.459   8.176   5.617 -0.6770  0.1229 -0.5138
  578MOL0     C79691   2.429   8.067   5.565  0.7447  0.0921  0.5801
  578MOL0     C79692   2.818   8.553   5.346  0.2556  0.1227 -0.4504
  578MOL0     C79693   2.927   8.560   5.258 -0.3178 -0.5066  0.3919
  578MOL0     C79694   2.887   8.574   5.108  0.2098 -0.0968 -0.1904
  578MOL0     H79695   3.496   8.548   5.404 -0.5280  0.6585 -0.8006
  578MOL0     H79696   3.723   8.547   5.319  1.1866  1.4865 -1.8194
  578MOL0     H79697   3.812   8.207   5.096  0.0449  1.3327 -0.9400
  578MOL0     H79698   3.811   8.270   5.267 -0.4273  0.9160 -0.2010
  578MOL0     H79699   4.017   8.326   5.066 -0.9536 -1.2693 -1.2548
  578MOL0     H79700   4.064   8.309   5.237  0.8932 -3.0990  1.1554
  578MOL0     H79701   4.034   8.078   5.240  1.1225 -2.7657 -0.6430
  578MOL0     H79702   3.962   8.075   5.082  0.7890 -2.2934  0.6614
  578MOL0     H79703   4.147   8.140   4.963  1.7242  0.2499 -0.5138
  578MOL0     H79704   4.238   8.169   5.116 -0.9858 -0.4972  2.1809
  578MOL0     H79705   4.197   7.911   5.156  3.5665 -0.6834 -0.0059
  578MOL0     H79706   4.322   7.964   5.050 -0.2890 -0.9519  0.8375
  578MOL0     H79707   4.028   7.917   4.966 -0.2864 -1.4725  2.0734
  578MOL0     H79708   4.182   7.923   4.862  1.8075 -1.9368  1.1317
  578MOL0     H79709   4.139   7.688   5.056 -0.3832 -0.1340  0.1183
  578MOL0     H79710   4.243   7.704   4.916  0.0237  0.5583 -0.0512
  578MOL0     H79711   4.036   7.552   4.892 -2.0752 -0.0172 -0.4047
  578MOL0     H79712   3.937   7.689   4.907 -0.6679  1.0725 -0.1954
  578MOL0     H79713   4.255   7.627   4.671  0.7297  0.5763  1.4581
  578MOL0     H79714   4.137   7.671   4.319  0.4925 -1.4391  1.3116
  578MOL0     H79715   4.285   7.697   4.406 -1.2511 -4.9432 -1.1395
  578MOL0     H79716   4.095   7.917   4.315  0.1466 -0.0170 -0.4966
  578MOL0     H79717   4.239   7.936   4.413 -2.2963 -0.3514  0.4672
  578MOL0     H79718   4.387   7.824   4.225  0.9957  0.5233 -2.5059
  578MOL0     H79719   4.236   7.860   4.135  0.0829  0.1817  0.1742
  578MOL0     H79720   4.420   8.019   4.117  1.0182 -2.4431  0.3213
  578MOL0     H79721   4.255   8.081   4.149 -3.4736 -2.2014  2.9495
  578MOL0     H79722   4.477   8.213   4.520  1.2137  0.0697 -0.8402
  578MOL0     H79723   4.526   8.547   4.627  0.0892 -1.1259  1.1517
  578MOL0     H79724   4.672   8.471   4.556  0.1867  0.7394  0.3508
  578MOL0     H79725   4.571   8.375   4.660 -0.6543 -0.9544 -1.2638
  578MOL0     H79726   4.305   8.880   4.428  0.6551 -0.9204 -0.1162
  578MOL0     H79727   4.289   9.144   4.434  4.6256  1.4562  3.8709
  578MOL0     H79728   4.226   9.313   4.310  0.5937  0.0662 -1.4489
  578MOL0     H79729   4.342   9.381   4.419 -1.1333  1.2063  0.1166
  578MOL0     H79730   4.317   9.502   4.142 -0.4788 -1.8467  0.7382
  578MOL0     H79731   4.215   9.547   4.283 -0.0570  0.5051 -0.6583
  578MOL0     H79732   4.524   9.549   4.243  1.8239  4.1404  0.1990
  578MOL0     H79733   4.435   9.585   4.396 -2.6356 -0.4150 -0.2292
  578MOL0     H79734   4.412   9.730   4.140  1.9836  0.3294 -0.4359
  578MOL0     H79735   4.523   9.796   4.256  0.0231 -0.7706  0.4938
  578MOL0     H79736   4.226   9.765   4.321 -0.3257 -0.6018 -0.6228
  578MOL0     H79737   4.354   9.828   4.425  0.2499 -2.4503 -1.4317
  578MOL0     H79738   4.204  10.010   4.303 -0.6829  0.5180 -2.2111
  578MOL0     H79739   4.317   9.962   4.165  1.2394  0.3080  0.7564
  578MOL0     H79740   4.499  10.039   4.260  0.8526 -2.8617  1.7367
  578MOL0     H79741   4.430  10.023   4.429 -3.1232 -1.5098  0.3149
  578MOL0     H79742   4.417  10.247   4.217  1.5711 -1.4651 -0.3032
  578MOL0     H79743   4.474  10.251   4.385  1.8308 -1.7035 -0.8903
  578MOL0     H79744   4.563   9.132   4.109  1.5726 -0.3255  2.1137
  578MOL0     H79745   4.571   8.900   4.097 -0.8740 -1.9533  0.1565
  578MOL0     H79746   4.319   8.542   4.187 -3.2847 -1.2870  1.1763
  578MOL0     H79747   4.301   8.316   4.136  1.0069 -0.6742  0.0970
  578MOL0     H79748   3.611   8.320   4.978  1.3286 -2.0973  0.8886
  578MOL0     H79749   3.367   8.329   5.043 -1.9979  3.0118 -1.0664
  578MOL0     H79750   3.173   8.506   5.483  1.3522  1.9635 -0.6815
  578MOL0     H79751   2.978   8.510   5.638  2.2293  1.0008  0.1216
  578MOL0     H79752   2.610   8.673   5.495 -0.1814 -2.2380 -3.8269
  578MOL0     H79753   2.551   8.516   5.434 -0.9059 -3.1800  2.3457
  578MOL0     H79754   2.401   8.630   5.593  0.0081 -1.0848 -1.8065
  578MOL0     H79755   2.513   8.595   5.722  3.5227 -1.5893 -1.4404
  578MOL0     H79756   2.332   8.430   5.710  0.5931  1.8960  1.4561
  578MOL0     H79757   2.360   8.406   5.539 -0.6813 -0.5476  0.1411
  578MOL0     H79758   2.467   8.299   5.779 -2.0897 -1.5458 -0.9557
  578MOL0     H79759   2.603   8.327   5.659  0.6359  0.2498 -0.0309
  578MOL0     H79760   2.399   7.967   5.540  2.0686 -0.3100  0.5367
  578MOL0     H79761   2.721   8.570   5.300 -0.0192  0.6828  0.3197
  578MOL0     H79762   2.809   8.651   5.102  0.5809  0.3857  0.9183
  578MOL0     H79763   2.976   8.612   5.057  1.3583 -0.6538  1.3336
  578MOL0     H79764   2.864   8.477   5.061  1.1415  0.5155 -2.0115
  579MOL0     O79765   4.536   3.853   1.339 -0.1546  0.1317 -0.4464
  579MOL0     C79766   4.590   3.900   1.243  0.5808  0.2097  0.0303
  579MOL0     O79767   4.521   3.918   1.126 -0.0171 -0.4211  0.5442
  579MOL0     C79768   4.394   3.873   1.115 -0.1893 -0.6882 -0.2282
  579MOL0     C79769   4.298   3.956   1.169 -0.6618 -0.4749 -0.1313
  579MOL0     C79770   4.169   3.936   1.137 -0.0023 -0.3654 -0.4522
  579MOL0     C79771   4.134   3.830   1.043 -0.2984  0.1828 -0.3739
  579MOL0     O79772   4.011   3.809   0.984 -0.0286 -0.2246 -0.4557
  579MOL0     C79773   3.931   3.933   0.963 -0.4558 -1.0405 -0.2517
  579MOL0     C79774   3.812   3.896   0.873 -0.4413 -0.2185 -0.3389
  579MOL0     C79775   3.698   3.851   0.963 -0.0036 -0.1248  0.6343
  579MOL0     C79776   3.608   3.764   0.877 -0.5137  0.3917  1.1506
  579MOL0     C79777   3.531   3.655   0.954 -1.0211 -0.0162  0.6328
  579MOL0     C79778   3.496   3.531   0.880 -0.0700  1.0615  0.1677
  579MOL0     C79779   3.413   3.439   0.975 -0.3303 -0.8796 -0.2310
  579MOL0     C79780   3.394   3.298   0.919 -0.0990 -0.0758  0.0051
  579MOL0     N79781   3.266   3.283   0.843 -0.7952  0.1840 -0.5184
  579MOL0     C79782   3.254   3.259   0.715 -0.3463  0.2423 -0.6537
  579MOL0     C79783   3.124   3.281   0.684  0.5097  0.7262  0.2320
  579MOL0     C79784   3.070   3.262   0.551 -0.3429 -0.5194  0.3573
  579MOL0     C79785   2.919   3.302   0.539  1.0221 -0.6106  0.8687
  579MOL0     C79786   2.839   3.184   0.575 -1.5458  0.5308 -1.2835
  579MOL0     C79787   2.741   3.205   0.699  0.5871  0.1093 -0.7425
  579MOL0     O79788   2.670   3.086   0.711  0.1296  0.3550 -0.2526
  579MOL0     C79789   2.565   3.084   0.804 -0.5897  0.5639 -0.3348
  579MOL0     C79790   2.529   3.195   0.883  0.1494 -0.1674 -0.0666
  579MOL0     C79791   2.437   3.178   0.992  0.1308 -0.4629  0.2378
  579MOL0     C79792   2.401   3.310   1.064 -0.7848 -0.1314  1.1634
  579MOL0     C79793   2.359   3.062   1.004 -0.2992  0.6938  0.1191
  579MOL0     C79794   2.242   3.033   1.100 -0.0608 -0.1996 -0.1940
  579MOL0     O79795   2.218   2.903   1.127  0.5391 -0.2281  0.2447
  579MOL0     C79796   2.094   2.874   1.178 -0.2407  0.4699 -0.9547
  579MOL0     C79797   1.995   2.842   1.083  0.5338  0.0844  0.5893
  579MOL0     C79798   1.867   2.814   1.128 -0.2844  0.5825  0.2153
  579MOL0     C79799   1.845   2.790   1.262 -0.1625 -0.0111  0.5045
  579MOL0     O79800   1.710   2.768   1.299  0.4325  0.1394 -0.2547
  579MOL0     C79801   1.684   2.626   1.320  0.6382  0.2116  0.4858
  579MOL0     C79802   1.738   2.596   1.463 -0.1028 -0.3975  0.0259
  579MOL0     C79803   1.677   2.687   1.576 -0.3436  0.0972  0.8075
  579MOL0     C79804   1.741   2.666   1.715  0.6106  0.2217  0.3247
  579MOL0     C79805   1.683   2.761   1.820  0.1318  0.2288 -0.4910
  579MOL0     C79806   1.529   2.774   1.831 -0.4562  0.0740  0.2463
  579MOL0     C79807   1.467   2.854   1.950  0.6155  0.3362  0.0737
  579MOL0     C79808   1.318   2.839   1.942  0.2585  1.2116 -0.2968
  579MOL0    Cl79809   1.237   2.890   1.800 -0.0071  0.0473 -0.0226
  579MOL0     C79810   1.949   2.800   1.356  0.0838 -0.2950 -0.0429
  579MOL0     C79811   2.071   2.850   1.313  0.1884 -0.0216 -0.2511
  579MOL0     O79812   2.183   3.122   1.150 -0.0336  0.0951  0.2443
  579MOL0     C79813   2.392   2.953   0.923  0.0287  0.1092  0.2674
  579MOL0     C79814   2.502   2.963   0.830  1.1504  0.6874 -0.5672
  579MOL0     N79815   3.060   3.316   0.806 -0.1987  0.0285 -0.2403
  579MOL0     N79816   3.149   3.318   0.899  0.6176 -0.0061  0.0122
  579MOL0     C79817   4.235   3.742   1.003 -0.1224  0.5064 -0.6791
  579MOL0     C79818   4.365   3.760   1.031 -0.5710 -0.5820  0.4926
  579MOL0     C79819   4.729   3.946   1.244 -0.5075  0.2816  0.3817
  579MOL0     C79820   4.781   4.000   1.127  0.9745 -0.6838 -0.5479
  579MOL0     C79821   4.903   4.059   1.121 -1.0228  0.5482 -0.1476
  579MOL0     C79822   4.991   4.046   1.231 -0.5083  0.0588 -0.1369
  579MOL0     O79823   5.118   4.091   1.209  0.4426  1.0030  0.3953
  579MOL0     C79824   5.224   4.036   1.293 -0.1999 -0.2647  0.5542
  579MOL0     C79825   5.249   3.886   1.273  0.1255 -0.4469 -0.4112
  579MOL0     C79826   5.285   3.848   1.131 -1.0077  0.4711  0.4639
  579MOL0     C79827   5.309   3.693   1.117 -0.0935  0.1973  0.1439
  579MOL0     C79828   5.418   3.634   1.197  0.5710  0.6942 -0.4146
  579MOL0     C79829   5.493   3.571   1.268  0.2279  0.1913 -0.7029
  579MOL0     C79830   4.948   4.002   1.348  0.4706  0.4344 -0.8468
  579MOL0     C79831   4.817   3.946   1.356  0.5615 -0.0248  0.0238
  579MOL0     C79832   4.781   3.887   1.491  0.0392 -0.3692  0.7460
  579MOL0     H79833   4.332   4.038   1.232 -0.5084  0.2558 -1.1502
  579MOL0     H79834   4.091   4.006   1.166 -0.4390 -0.4940 -1.2658
  579MOL0     H79835   3.988   4.019   0.925 -0.8569  0.1764  1.7642
  579MOL0     H79836   3.881   3.976   1.050  2.2092  1.1425  0.3458
  579MOL0     H79837   3.789   3.985   0.812 -0.1491 -2.6503 -4.3504
  579MOL0     H79838   3.861   3.820   0.812  2.0329  1.4224 -0.5599
  579MOL0     H79839   3.735   3.811   1.058 -2.8997  2.3644  3.0575
  579MOL0     H79840   3.639   3.939   0.989 -1.4634 -1.2916  1.3735
  579MOL0     H79841   3.528   3.822   0.830 -1.3046 -1.3197  0.2833
  579MOL0     H79842   3.665   3.727   0.792  0.0973  2.5741  0.5362
  579MOL0     H79843   3.441   3.704   0.993  0.1853  1.6528  1.4292
  579MOL0     H79844   3.588   3.615   1.038 -0.6349 -0.0349  0.3610
  579MOL0     H79845   3.453   3.551   0.782  1.6634 -0.3977 -0.9564
  579MOL0     H79846   3.592   3.481   0.865 -0.1334  0.5478  1.3378
  579MOL0     H79847   3.324   3.498   1.000 -1.2530 -2.1803 -0.3768
  579MOL0     H79848   3.464   3.434   1.072  0.8931 -4.6285 -0.9301
  579MOL0     H79849   3.481   3.278   0.856  2.0018  3.3319  1.5580
  579MOL0     H79850   3.381   3.222   0.997 -2.8420  0.2043 -0.0526
  579MOL0     H79851   3.329   3.222   0.646 -1.9198 -2.1319 -1.2053
  579MOL0     H79852   3.069   3.160   0.514  1.1946 -0.4461  0.0528
  579MOL0     H79853   3.119   3.322   0.473 -0.9032  0.2154  0.5524
  579MOL0     H79854   2.883   3.392   0.590 -1.0232 -0.5897 -0.5401
  579MOL0     H79855   2.893   3.311   0.434 -0.5682  3.5019  1.4310
  579MOL0     H79856   2.772   3.167   0.490 -1.2816 -1.3358 -1.1631
  579MOL0     H79857   2.893   3.091   0.598 -0.7770  0.6158 -2.6753
  579MOL0     H79858   2.790   3.221   0.796 -1.7638 -1.6693  0.8364
  579MOL0     H79859   2.680   3.294   0.682 -0.7855 -0.7686 -0.5187
  579MOL0     H79860   2.588   3.284   0.900  0.2147  0.2173 -2.0941
  579MOL0     H79861   2.357   3.291   1.162 -1.2099 -2.8890  0.5348
  579MOL0     H79862   2.344   3.378   1.000  2.2057 -0.1529 -1.8635
  579MOL0     H79863   2.497   3.357   1.086 -0.9639  2.0643 -2.0204
  579MOL0     H79864   2.011   2.848   0.976 -2.6884 -1.4106 -0.1049
  579MOL0     H79865   1.779   2.818   1.065  0.1414  0.6868 -0.3789
  579MOL0     H79866   1.576   2.617   1.329  0.3883  1.7283 -0.5485
  579MOL0     H79867   1.711   2.553   1.242 -0.8605  1.8696 -1.7159
  579MOL0     H79868   1.708   2.494   1.491  2.5175 -1.2442  0.0208
  579MOL0     H79869   1.847   2.591   1.465 -0.1287 -0.8190  0.6983
  579MOL0     H79870   1.570   2.667   1.584  0.0846 -2.7292  0.4518
  579MOL0     H79871   1.698   2.791   1.550  4.4390 -0.7175  0.5914
  579MOL0     H79872   1.849   2.679   1.710  0.2773  4.3792  0.8450
  579MOL0     H79873   1.722   2.563   1.748  0.9761 -0.0932 -0.4202
  579MOL0     H79874   1.729   2.736   1.916 -3.1751  2.3999  1.9062
  579MOL0     H79875   1.728   2.859   1.805 -0.3670  0.6945  0.9463
  579MOL0     H79876   1.496   2.670   1.841  1.8809 -0.5275  3.1296
  579MOL0     H79877   1.482   2.819   1.743 -1.2505 -0.2885  0.4780
  579MOL0     H79878   1.494   2.959   1.950  2.1803 -0.0379  0.2444
  579MOL0     H79879   1.487   2.829   2.055 -2.3356  0.9690  0.8719
  579MOL0     H79880   1.263   2.883   2.026 -2.0990 -3.9006  1.2407
  579MOL0     H79881   1.299   2.732   1.949  0.6745  1.2338  1.9111
  579MOL0     H79882   1.938   2.789   1.463 -0.8019  0.2260 -0.0751
  579MOL0     H79883   2.154   2.869   1.380  2.4300  2.1235 -3.3102
  579MOL0     H79884   2.356   2.851   0.930  1.5701 -0.5987 -1.3160
  579MOL0     H79885   2.524   2.870   0.778 -0.5825 -1.1801  1.7652
  579MOL0     H79886   4.215   3.681   0.915 -0.1442  2.4250 -2.0574
  579MOL0     H79887   4.440   3.695   0.987  0.0398  0.6080 -0.2610
  579MOL0     H79888   4.721   3.999   1.036 -4.6570  1.6356  2.6363
  579MOL0     H79889   4.942   4.110   1.032 -1.0311  1.7324  0.5001
  579MOL0     H79890   5.315   4.086   1.262 -0.3887  0.9891  1.9412
  579MOL0     H79891   5.220   4.070   1.397  6.0808  0.3921  0.9636
  579MOL0     H79892   5.170   3.829   1.323  0.8550 -1.0476  0.0853
  579MOL0     H79893   5.341   3.887   1.332  1.4882 -2.0354 -2.3868
  579MOL0     H79894   5.212   3.882   1.057  1.0862 -1.5017 -2.7694
  579MOL0     H79895   5.373   3.905   1.103  0.3383 -0.6262  2.2120
  579MOL0     H79896   5.331   3.676   1.011  1.4990  0.1170  0.4586
  579MOL0     H79897   5.215   3.641   1.139 -0.5905  1.0143 -0.0079
  579MOL0     H79898   5.575   3.538   1.328  2.4720  4.8147 -0.8312
  579MOL0     H79899   5.010   4.005   1.438 -0.2842 -2.1260 -0.1572
  579MOL0     H79900   4.680   3.916   1.521 -0.0319 -0.4918  0.6254
  579MOL0     H79901   4.769   3.779   1.503 -3.0987  0.0341  2.2908
  579MOL0     H79902   4.848   3.925   1.569 -0.1307 -1.8652  1.6658
  580MOL0     O79903   4.241   3.083   5.257  0.6482  0.7933  0.2634
  580MOL0     C79904   4.352   3.103   5.208 -0.0114 -0.7102 -0.0190
  580MOL0     O79905   4.458   3.162   5.284  0.3657  0.0103 -0.1541
  580MOL0     C79906   4.417   3.175   5.416  0.0265  0.3547  1.2175
  580MOL0     C79907   4.449   3.070   5.500 -0.7315 -0.0016 -0.5969
  580MOL0     C79908   4.408   3.073   5.637  0.3916  0.8070  0.2764
  580MOL0     C79909   4.328   3.178   5.691 -0.6259  0.4656  0.6809
  580MOL0     O79910   4.293   3.203   5.821  0.1219  0.1643 -0.6485
  580MOL0     C79911   4.279   3.078   5.897 -0.7811  0.4970 -0.5515
  580MOL0     C79912   4.217   3.109   6.027 -0.2724  1.0994 -0.5203
  580MOL0     C79913   4.191   2.977   6.104 -0.0473 -0.1599 -0.0251
  580MOL0     C79914   4.122   3.010   6.238  0.7399  0.7473  1.2264
  580MOL0     C79915   4.130   2.899   6.332 -0.4878 -0.2489  0.2665
  580MOL0     C79916   4.063   2.763   6.286  0.4585  0.0838 -0.5719
  580MOL0     C79917   4.064   2.651   6.387 -0.6974  0.3064  0.3679
  580MOL0     C79918   4.199   2.606   6.448  0.0213  0.4451  0.6053
  580MOL0     N79919   4.287   2.551   6.352 -0.0755 -0.0082 -0.1157
  580MOL0     C79920   4.259   2.444   6.279  0.4518  0.2314 -0.4360
  580MOL0     C79921   4.348   2.438   6.175  0.3461 -0.9670  0.2647
  580MOL0     C79922   4.371   2.320   6.080  0.3556  0.2452 -0.0759
  580MOL0     C79923   4.454   2.214   6.156 -0.1376 -0.3127  0.9198
  580MOL0     C79924   4.502   2.103   6.062 -0.7761 -0.3957 -0.1637
  580MOL0     C79925   4.592   1.993   6.137  0.0240  0.2554  0.5582
  580MOL0     O79926   4.504   1.926   6.232  0.7955  0.2261 -0.7457
  580MOL0     C79927   4.547   1.825   6.313  0.6579 -0.1878  0.3442
  580MOL0     C79928   4.448   1.747   6.377 -0.2730 -0.2958  0.4551
  580MOL0     C79929   4.478   1.635   6.462  0.1515 -0.4424 -0.0512
  580MOL0     C79930   4.368   1.544   6.520  0.8026 -0.2963 -0.6936
  580MOL0     C79931   4.614   1.610   6.495  0.7348 -0.7407 -0.1152
  580MOL0     C79932   4.673   1.501   6.562 -0.2900  0.6270 -0.0937
  580MOL0     O79933   4.626   1.383   6.518 -0.1220 -0.0427 -0.0632
  580MOL0     C79934   4.663   1.262   6.575  1.0158  0.1309  0.6051
  580MOL0     C79935   4.704   1.231   6.709  0.0525 -0.4150 -0.6204
  580MOL0     C79936   4.761   1.109   6.740  0.1203  0.0642  1.0211
  580MOL0     C79937   4.772   1.005   6.646  0.3231  0.1871  0.0893
  580MOL0     O79938   4.845   0.896   6.683 -0.0043  1.2737 -0.5959
  580MOL0     C79939   4.864   0.785   6.589 -0.5519  0.9265  0.3185
  580MOL0     C79940   5.000   0.718   6.610 -0.0342  0.3513  0.1945
  580MOL0     C79941   5.041   0.701   6.759  0.0866  0.1554 -0.3116
  580MOL0     C79942   5.163   0.612   6.759  0.2643 -0.3082 -1.0468
  580MOL0     C79943   5.207   0.589   6.907  0.1809 -0.5284 -0.6574
  580MOL0     C79944   5.129   0.464   6.950  0.1893  0.5837 -0.0301
  580MOL0     C79945   5.113   0.460   7.105 -0.3491  0.0488  0.2564
  580MOL0     C79946   5.239   0.412   7.185 -0.0001 -1.0852  0.0653
  580MOL0    Cl79947   5.218   0.443   7.360 -0.5507 -0.2857  0.1714
  580MOL0     C79948   4.701   1.023   6.523  0.4280  0.2005  0.7406
  580MOL0     C79949   4.662   1.154   6.488 -0.9503 -0.6827  0.1513
  580MOL0     O79950   4.770   1.504   6.631 -0.1093 -0.8233  0.2733
  580MOL0     C79951   4.710   1.699   6.432 -0.0722  0.1743 -0.4547
  580MOL0     C79952   4.677   1.805   6.352 -0.7148  0.0858  0.0960
  580MOL0     N79953   4.424   2.546   6.184  0.1759  0.0341 -0.5845
  580MOL0     N79954   4.389   2.614   6.295  0.7928  0.0663  0.7447
  580MOL0     C79955   4.293   3.270   5.597  0.2531 -0.3197 -0.0971
  580MOL0     C79956   4.346   3.279   5.466  0.4277  0.0548  0.5850
  580MOL0     C79957   4.392   3.067   5.065 -0.1267  0.1200 -0.3567
  580MOL0     C79958   4.510   3.124   5.005 -0.0427  0.1882 -0.9246
  580MOL0     C79959   4.540   3.099   4.874 -0.6601 -0.0520  0.5447
  580MOL0     C79960   4.474   3.000   4.809 -0.0830  0.4396  0.0863
  580MOL0     O79961   4.512   2.976   4.677 -0.2843 -0.6286 -0.1183
  580MOL0     C79962   4.536   2.840   4.641  1.4414  0.8876  0.5622
  580MOL0     C79963   4.669   2.834   4.565  0.0125  0.5272  0.3859
  580MOL0     C79964   4.784   2.909   4.646  0.4339  0.4346 -0.4334
  580MOL0     C79965   4.914   2.888   4.580 -0.1623  0.4032  1.0003
  580MOL0     C79966   5.038   2.932   4.656 -0.5045  0.2950 -0.2994
  580MOL0     C79967   5.139   2.964   4.714 -0.2193  0.7780  0.3102
  580MOL0     C79968   4.360   2.944   4.862 -0.6600  0.6343  0.5239
  580MOL0     C79969   4.324   2.968   4.992  0.0933  0.5506  0.2029
  580MOL0     C79970   4.197   2.897   5.037 -0.6146  0.5487  0.1173
  580MOL0     H79971   4.501   2.976   5.484 -1.2332 -1.4232  4.4648
  580MOL0     H79972   4.440   2.987   5.696  0.9690 -0.9619 -2.4139
  580MOL0     H79973   4.381   3.043   5.914 -1.2576  0.1061  1.9638
  580MOL0     H79974   4.210   3.014   5.843 -1.2071 -0.9644  1.6020
  580MOL0     H79975   4.283   3.172   6.087  0.1437 -1.6002  2.0862
  580MOL0     H79976   4.123   3.163   6.013 -1.7998 -1.1746  0.4808
  580MOL0     H79977   4.121   2.915   6.048  1.9382 -1.6191 -1.0549
  580MOL0     H79978   4.282   2.920   6.125  0.2230  0.7769  1.4546
  580MOL0     H79979   4.182   3.091   6.281  1.8615  2.0004 -2.3453
  580MOL0     H79980   4.018   3.036   6.219  0.2179 -1.3080  1.1234
  580MOL0     H79981   4.089   2.920   6.431 -2.0101 -0.7903 -0.2023
  580MOL0     H79982   4.235   2.877   6.353 -0.2544  0.2822 -0.3286
  580MOL0     H79983   3.957   2.766   6.260  0.5546 -1.4630 -1.2632
  580MOL0     H79984   4.109   2.738   6.190  0.6572  1.7900 -0.9427
  580MOL0     H79985   4.025   2.563   6.335 -2.3641 -0.5155  2.8008
  580MOL0     H79986   3.991   2.673   6.465 -0.6376 -1.7504  1.0885
  580MOL0     H79987   4.256   2.678   6.507 -0.0242 -0.5585  1.9142
  580MOL0     H79988   4.175   2.539   6.531 -0.3428  0.3481  0.4231
  580MOL0     H79989   4.188   2.368   6.311  1.6001 -1.3796 -1.5887
  580MOL0     H79990   4.426   2.353   5.991 -0.5380 -4.1948 -2.5452
  580MOL0     H79991   4.273   2.282   6.050  1.1047 -1.1375 -0.8984
  580MOL0     H79992   4.542   2.261   6.200  0.3014  1.9441 -2.0767
  580MOL0     H79993   4.397   2.167   6.236 -1.9883 -1.1734 -0.8091
  580MOL0     H79994   4.416   2.050   6.021 -3.1824  2.5571  0.6604
  580MOL0     H79995   4.567   2.133   5.979  2.4372 -3.0588  1.1313
  580MOL0     H79996   4.637   1.917   6.073  2.0199 -1.6688  3.9250
  580MOL0     H79997   4.680   2.040   6.182  0.9367 -0.1446 -0.7661
  580MOL0     H79998   4.348   1.777   6.346  0.0508  1.1611  0.7263
  580MOL0     H79999   4.373   1.436   6.507 -1.8800 -0.7808  1.3482
  580MOL0     H80000   4.278   1.590   6.476 -0.3197 -1.6946  0.0510
  580MOL0     H80001   4.362   1.563   6.628 -0.3691  2.4823 -1.1642
  580MOL0     H80002   4.711   1.310   6.783  0.6183  1.9235 -3.0310
  580MOL0     H80003   4.819   1.099   6.832  0.0911  0.1314  1.0471
  580MOL0     H80004   4.790   0.705   6.603  2.5134 -2.0944  0.6375
  580MOL0     H80005   4.859   0.814   6.484  0.3701 -1.6515 -0.5259
  580MOL0     H80006   4.995   0.628   6.549 -2.9164  1.1165 -0.8592
  580MOL0     H80007   5.067   0.790   6.562 -1.7681 -0.4778 -3.7982
  580MOL0     H80008   4.961   0.659   6.820  1.4761 -1.6875  0.3113
  580MOL0     H80009   5.068   0.799   6.801 -1.9431  0.0288  1.5213
  580MOL0     H80010   5.256   0.654   6.717  2.1266  0.1000  2.9669
  580MOL0     H80011   5.142   0.516   6.712  0.3209 -2.1049  2.3118
  580MOL0     H80012   5.314   0.570   6.922  0.5325  2.2289  0.9429
  580MOL0     H80013   5.183   0.683   6.956 -0.0796 -0.5221 -0.7925
  580MOL0     H80014   5.180   0.373   6.916  0.9558  1.4788 -1.3396
  580MOL0     H80015   5.029   0.449   6.910 -1.3513 -0.8529  3.8579
  580MOL0     H80016   5.028   0.397   7.133 -0.6119 -0.5067 -1.6778
  580MOL0     H80017   5.084   0.560   7.139 -1.5634 -0.0271 -0.5129
  580MOL0     H80018   5.316   0.482   7.151 -0.9894  0.5696  1.0469
  580MOL0     H80019   5.276   0.310   7.175 -1.6742 -1.6495 -0.7331
  580MOL0     H80020   4.708   0.939   6.455  0.5631 -2.2711  3.6077
  580MOL0     H80021   4.620   1.163   6.388  0.1706 -1.1649 -0.3765
  580MOL0     H80022   4.817   1.692   6.453 -0.4710 -2.2340  1.0922
  580MOL0     H80023   4.751   1.878   6.321  0.0210 -0.4263  0.6080
  580MOL0     H80024   4.233   3.357   5.621  1.8984  0.5729  1.0033
  580MOL0     H80025   4.323   3.357   5.394 -3.1837 -0.2312  1.2082
  580MOL0     H80026   4.572   3.198   5.054  1.4336 -0.2155 -2.0672
  580MOL0     H80027   4.625   3.148   4.828 -0.5257  1.1132  1.9456
  580MOL0     H80028   4.539   2.771   4.726 -0.4167  0.7654  0.5707
  580MOL0     H80029   4.457   2.803   4.575  3.5224  0.2171 -1.7197
  580MOL0     H80030   4.669   2.881   4.467  2.6183  0.0600  0.0876
  580MOL0     H80031   4.703   2.733   4.541 -0.0631  0.0932  1.9722
  580MOL0     H80032   4.755   3.015   4.642 -1.1280  0.1318  1.4292
  580MOL0     H80033   4.781   2.873   4.749 -3.1686 -0.6981 -0.7875
  580MOL0     H80034   4.918   2.924   4.477 -1.6008 -2.8037 -0.3263
  580MOL0     H80035   4.926   2.780   4.569  4.8865  0.7719  0.6619
  580MOL0     H80036   5.227   2.992   4.768 -1.4453  1.4654  2.0480
  580MOL0     H80037   4.297   2.876   4.806 -0.0847  0.4462  0.0972
  580MOL0     H80038   4.161   2.810   4.981 -0.0014 -0.4739  1.2638
  580MOL0     H80039   4.212   2.848   5.133  0.1685 -0.7140 -0.6186
  580MOL0     H80040   4.119   2.974   5.030 -1.7562 -0.6988 -2.2965
  581MOL0     O80041   1.668   1.455   0.827 -0.0495 -0.5560 -0.0268
  581MOL0     C80042   1.694   1.533   0.913  0.0000  1.2925 -0.7080
  581MOL0     O80043   1.656   1.665   0.918 -0.3911 -0.0622 -0.2246
  581MOL0     C80044   1.551   1.715   0.850  0.7919 -0.0557  0.4437
  581MOL0     C80045   1.529   1.852   0.877  0.8198 -0.2551 -0.4177
  581MOL0     C80046   1.445   1.928   0.795  0.3623  0.5678 -0.0006
  581MOL0     C80047   1.360   1.863   0.703 -0.0065  0.8069  0.2681
  581MOL0     O80048   1.279   1.945   0.632  0.2512 -0.3963 -0.4499
  581MOL0     C80049   1.246   1.894   0.498 -0.0708 -0.6498  0.7415
  581MOL0     C80050   1.225   2.005   0.397  0.0373 -0.3353 -0.8193
  581MOL0     C80051   1.345   2.020   0.315 -0.1739  0.4426 -1.0103
  581MOL0     C80052   1.355   2.160   0.254  0.9484 -0.4514 -1.0469
  581MOL0     C80053   1.450   2.152   0.131 -0.0167  0.8518 -0.6860
  581MOL0     C80054   1.431   2.275   0.038 -0.8068 -0.7489 -0.2428
  581MOL0     C80055   1.515   2.275  -0.095  0.3921 -0.6594 -0.6195
  581MOL0     C80056   1.665   2.318  -0.070 -0.3982  0.4432  0.3848
  581MOL0     N80057   1.690   2.461  -0.029  0.2338  0.3110 -0.6398
  581MOL0     C80058   1.690   2.500   0.101  0.1386  0.2584  0.5917
  581MOL0     C80059   1.656   2.628   0.105 -0.0816 -0.3003  0.3774
  581MOL0     C80060   1.659   2.712   0.227  0.4121 -0.9170 -0.1514
  581MOL0     C80061   1.512   2.741   0.265 -0.0640 -1.0151  0.0022
  581MOL0     C80062   1.445   2.871   0.206  0.8163  0.2277 -0.1794
  581MOL0     C80063   1.300   2.892   0.248  0.2230  0.0916  0.0966
  581MOL0     O80064   1.297   2.891   0.386  0.0357  0.1749 -0.6561
  581MOL0     C80065   1.217   2.976   0.458 -0.6471 -0.3853 -0.0566
  581MOL0     C80066   1.213   2.953   0.592 -0.7979 -0.2069 -1.1583
  581MOL0     C80067   1.146   3.028   0.681  1.0758 -0.9514 -0.3974
  581MOL0     C80068   1.160   2.981   0.830 -0.6142  0.4366 -0.2637
  581MOL0     C80069   1.052   3.127   0.636 -0.5271 -0.0225  0.3227
  581MOL0     C80070   0.958   3.194   0.728 -0.3052 -0.6847 -0.1356
  581MOL0     O80071   0.842   3.242   0.674 -0.6346 -0.4804 -0.2799
  581MOL0     C80072   0.735   3.298   0.745 -0.8490  0.7238  0.6327
  581MOL0     C80073   0.760   3.393   0.845  0.4148 -0.4167  0.4066
  581MOL0     C80074   0.640   3.449   0.905 -0.2744  0.0826 -0.0793
  581MOL0     C80075   0.514   3.416   0.854  1.8673  0.0953 -0.1143
  581MOL0     O80076   0.406   3.485   0.901  1.2752 -0.0397  0.3697
  581MOL0     C80077   0.396   3.546   1.037 -0.0777 -0.4876 -0.3602
  581MOL0     C80078   0.254   3.589   1.054 -0.2132 -0.4891  0.1279
  581MOL0     C80079   0.207   3.708   0.969  0.4890 -0.1041  0.0057
  581MOL0     C80080   0.065   3.730   1.003 -0.4110  0.8751 -0.7835
  581MOL0     C80081   0.009   3.838   0.912  0.2483  0.4408 -0.5951
  581MOL0     C80082   0.024   3.826   0.754  0.2329  0.5756 -0.5215
  581MOL0     C80083  -0.025   3.691   0.702  0.0988  0.6803  1.4963
  581MOL0     C80084  -0.035   3.680   0.546 -0.1288  0.8250 -0.9333
  581MOL0    Cl80085   0.118   3.723   0.465  0.2615  0.0601 -0.4208
  581MOL0     C80086   0.502   3.324   0.756  0.1139 -0.4742  0.1317
  581MOL0     C80087   0.610   3.266   0.697  0.5118 -0.1787  0.4346
  581MOL0     O80088   0.979   3.204   0.849 -0.3838  0.2328  0.6317
  581MOL0     C80089   1.072   3.168   0.498  1.1178  0.4641 -0.3231
  581MOL0     C80090   1.150   3.093   0.417  0.3528  0.1580 -0.6069
  581MOL0     N80091   1.625   2.673  -0.025  0.3555 -0.2005  0.2258
  581MOL0     N80092   1.645   2.563  -0.094  0.6756 -0.2654 -0.2033
  581MOL0     C80093   1.358   1.721   0.703  0.1951 -0.6418 -0.8957
  581MOL0     C80094   1.460   1.652   0.761 -0.1910  0.0468 -0.9095
  581MOL0     C80095   1.800   1.489   1.014  0.3353 -0.3833  0.2868
  581MOL0     C80096   1.855   1.600   1.094  0.7497  1.0487 -0.1233
  581MOL0     C80097   1.936   1.568   1.200  0.6683 -0.1460  0.2116
  581MOL0     C80098   1.989   1.441   1.213  0.1842 -0.7274  0.5635
  581MOL0     O80099   2.081   1.400   1.305 -0.0812  0.4655 -0.4187
  581MOL0     C80100   2.115   1.462   1.430 -0.4351  0.7347 -0.6544
  581MOL0     C80101   1.995   1.484   1.525  0.0408 -0.0256 -0.5762
  581MOL0     C80102   2.028   1.536   1.671  0.3511 -0.7462  0.9394
  581MOL0     C80103   1.978   1.682   1.684 -0.4019 -0.0263 -0.1144
  581MOL0     C80104   2.047   1.780   1.601 -0.0461 -0.1632 -1.1955
  581MOL0     C80105   2.082   1.886   1.549  0.1097  0.6298  0.1662
  581MOL0     C80106   1.940   1.337   1.126 -0.5531 -0.5494 -0.4069
  581MOL0     C80107   1.855   1.351   1.021 -0.4036 -0.6379  0.2480
  581MOL0     C80108   1.788   1.236   0.961 -0.3449 -0.7622  0.3511
  581MOL0     H80109   1.591   1.908   0.945  0.1032  2.7990 -2.0886
  581MOL0     H80110   1.434   2.035   0.809 -0.5322  0.4096  0.5988
  581MOL0     H80111   1.159   1.827   0.504 -1.5615  1.0022 -1.2206
  581MOL0     H80112   1.335   1.841   0.463  1.1043  1.1129  0.9644
  581MOL0     H80113   1.136   1.970   0.343 -1.3367  0.3675  0.9181
  581MOL0     H80114   1.209   2.102   0.445  1.5568 -0.5045  0.0932
  581MOL0     H80115   1.435   2.013   0.377 -2.2172 -0.0819  2.0852
  581MOL0     H80116   1.347   1.939   0.242 -0.7571 -0.8934  0.3996
  581MOL0     H80117   1.251   2.185   0.231  0.6206  1.8878  2.3237
  581MOL0     H80118   1.386   2.231   0.331  1.2533  1.4705 -2.8465
  581MOL0     H80119   1.440   2.062   0.070  2.8368 -0.8856  1.2226
  581MOL0     H80120   1.550   2.151   0.175 -0.3510  3.7165  0.3958
  581MOL0     H80121   1.329   2.280   0.001 -0.7549 -2.1121 -0.6170
  581MOL0     H80122   1.452   2.368   0.092  1.1166 -0.9594 -0.5297
  581MOL0     H80123   1.464   2.348  -0.159  0.3808  0.6833  0.8541
  581MOL0     H80124   1.499   2.177  -0.141 -2.2479 -0.2957 -0.6317
  581MOL0     H80125   1.720   2.255   0.001  1.9091 -0.6998 -2.2704
  581MOL0     H80126   1.722   2.302  -0.162 -1.2738 -0.8517  0.0436
  581MOL0     H80127   1.719   2.443   0.189  1.2071  0.3946  0.3351
  581MOL0     H80128   1.708   2.809   0.210  0.3609 -1.3797 -3.6094
  581MOL0     H80129   1.708   2.662   0.311 -0.3333 -1.4906 -0.0527
  581MOL0     H80130   1.451   2.651   0.255  2.0603 -2.9651  2.9496
  581MOL0     H80131   1.507   2.764   0.372 -0.6834  0.7873 -0.3639
  581MOL0     H80132   1.498   2.956   0.249  1.6701 -1.4779  2.3481
  581MOL0     H80133   1.445   2.887   0.098 -0.1238  1.1544 -0.0623
  581MOL0     H80134   1.254   2.980   0.203  0.4214 -0.9636 -2.3293
  581MOL0     H80135   1.241   2.804   0.221 -2.9644  2.2553 -0.5557
  581MOL0     H80136   1.269   2.871   0.635 -0.1540 -0.1258 -1.8259
  581MOL0     H80137   1.189   2.876   0.840 -1.3988  0.3629  1.6026
  581MOL0     H80138   1.075   3.006   0.894 -0.8736 -0.4071 -0.2667
  581MOL0     H80139   1.242   3.035   0.878 -0.5761 -1.5827  2.1545
  581MOL0     H80140   0.860   3.413   0.883 -0.5575  3.4793  1.4072
  581MOL0     H80141   0.664   3.514   0.988  3.0309  0.7633 -1.4190
  581MOL0     H80142   0.419   3.476   1.118 -1.5898  2.1436  2.5557
  581MOL0     H80143   0.460   3.634   1.046  1.4324 -1.5777  0.1702
  581MOL0     H80144   0.192   3.499   1.043 -0.0886 -0.7251  1.2466
  581MOL0     H80145   0.240   3.626   1.156 -1.7018 -2.8111  0.8443
  581MOL0     H80146   0.232   3.678   0.867  2.7336  0.6448  0.2700
  581MOL0     H80147   0.275   3.787   1.002  1.6932 -1.5389  1.0929
  581MOL0     H80148   0.054   3.756   1.109  1.5282  0.6937 -0.5013
  581MOL0     H80149   0.012   3.634   0.994  1.5588 -0.1860 -1.8430
  581MOL0     H80150  -0.095   3.866   0.935  0.4652  0.7417  0.0539
  581MOL0     H80151   0.075   3.922   0.935  0.6149  0.2474 -0.9254
  581MOL0     H80152   0.130   3.821   0.730 -0.3179 -2.9472 -2.9282
  581MOL0     H80153  -0.027   3.913   0.712 -0.5194  2.1196  3.1574
  581MOL0     H80154  -0.124   3.666   0.743 -0.1674  1.4587  1.3534
  581MOL0     H80155   0.047   3.616   0.736 -1.5728 -1.0583  1.3698
  581MOL0     H80156  -0.118   3.744   0.514  0.7133  2.7958  0.6271
  581MOL0     H80157  -0.063   3.578   0.520 -0.1297  0.2214  1.2295
  581MOL0     H80158   0.405   3.290   0.722 -0.3391  0.6523  0.2348
  581MOL0     H80159   0.594   3.187   0.624  1.8222  0.4102 -0.5456
  581MOL0     H80160   1.011   3.242   0.447 -2.0840 -1.1222  0.9147
  581MOL0     H80161   1.147   3.126   0.314 -0.6553 -0.9816 -0.9781
  581MOL0     H80162   1.274   1.674   0.652  0.9880 -4.1960  0.7435
  581MOL0     H80163   1.475   1.549   0.729 -1.9661  0.4319 -3.3113
  581MOL0     H80164   1.820   1.703   1.092  0.2771  0.9859  2.4025
  581MOL0     H80165   1.975   1.657   1.248  0.5550 -0.4052  0.7894
  581MOL0     H80166   2.196   1.412   1.485  0.3430  0.5594 -1.9154
  581MOL0     H80167   2.161   1.559   1.412  0.7108  1.1753  3.5603
  581MOL0     H80168   1.936   1.392   1.529  1.4313 -0.9724 -0.9820
  581MOL0     H80169   1.912   1.545   1.490  0.7049 -0.5286 -3.2481
  581MOL0     H80170   1.970   1.482   1.746 -0.1312 -1.8721 -0.2107
  581MOL0     H80171   2.133   1.524   1.703 -0.1981  0.8541  3.6801
  581MOL0     H80172   1.976   1.710   1.789 -1.1659  2.5233 -0.7525
  581MOL0     H80173   1.869   1.682   1.669 -0.8377  1.2519  2.5165
  581MOL0     H80174   2.110   1.973   1.492  1.2335  1.8158  2.4034
  581MOL0     H80175   1.983   1.240   1.147 -0.0526 -0.5374 -1.3446
  581MOL0     H80176   1.686   1.240   1.001 -0.3028  2.1955  0.4352
  581MOL0     H80177   1.802   1.241   0.853  1.8841  2.6026  0.6614
  581MOL0     H80178   1.835   1.142   0.988  1.5998 -0.9130 -3.0430
  582MOL0     O80179   0.774   1.559   1.877  0.9430  0.7113  0.9027
  582MOL0     C80180   0.728   1.473   1.952 -0.7085 -0.4749  0.3664
  582MOL0     O80181   0.643   1.367   1.925 -0.2365 -0.0535  0.1370
  582MOL0     C80182   0.624   1.308   1.807 -0.8945 -0.0390 -0.6061
  582MOL0     C80183   0.741   1.301   1.729 -0.0276  0.4262  1.0188
  582MOL0     C80184   0.738   1.231   1.609  0.0443  0.7736 -0.8211
  582MOL0     C80185   0.612   1.194   1.555  0.2258  0.3085 -0.0894
  582MOL0     O80186   0.613   1.128   1.435 -1.1681 -0.4418  0.0987
  582MOL0     C80187   0.501   1.092   1.359 -0.0482 -0.5842 -0.6581
  582MOL0     C80188   0.528   1.040   1.218  0.0317  0.8770  0.4399
  582MOL0     C80189   0.681   1.042   1.173 -0.5631 -1.2138 -0.1576
  582MOL0     C80190   0.722   0.938   1.068  0.7313  0.4209 -0.6216
  582MOL0     C80191   0.874   0.959   1.023  0.7384  1.0104  0.3846
  582MOL0     C80192   0.976   0.911   1.139  0.6040  0.5789  0.2177
  582MOL0     C80193   1.128   0.911   1.091  1.5514  0.3189 -0.5615
  582MOL0     C80194   1.221   0.811   1.146  0.8121  0.1717  0.6086
  582MOL0     N80195   1.352   0.860   1.103 -0.1632  0.9567  0.1666
  582MOL0     C80196   1.428   0.820   0.997  0.2722  0.2240  0.6657
  582MOL0     C80197   1.537   0.896   1.000  0.1442 -0.0789  0.4863
  582MOL0     C80198   1.655   0.866   0.914  0.3184 -0.0368  0.2865
  582MOL0     C80199   1.725   0.735   0.962 -0.0630  0.2289  0.0492
  582MOL0     C80200   1.840   0.685   0.866  0.9382  0.0108  0.1942
  582MOL0     C80201   1.952   0.788   0.868  0.3559  0.6827  0.5739
  582MOL0     O80202   1.990   0.833   0.992  0.1622  0.5489 -0.2887
  582MOL0     C80203   2.096   0.925   1.003 -0.3312  0.5444  0.2302
  582MOL0     C80204   2.130   0.970   1.128 -0.7936 -0.1678 -0.6986
  582MOL0     C80205   2.227   1.065   1.147 -0.3338 -0.7704  0.4449
  582MOL0     C80206   2.283   1.114   1.275  0.3290  0.0448  0.2609
  582MOL0     C80207   2.292   1.111   1.023 -0.0031 -0.3584  0.1330
  582MOL0     C80208   2.393   1.216   1.034 -0.0895  0.0311 -0.7428
  582MOL0     O80209   2.352   1.341   1.030  0.1334 -0.1986  0.4036
  582MOL0     C80210   2.431   1.437   1.081 -0.1899 -0.5088 -1.2486
  582MOL0     C80211   2.372   1.523   1.176 -0.4229  0.6183  0.2003
  582MOL0     C80212   2.426   1.645   1.204  0.4991 -1.8588  0.3275
  582MOL0     C80213   2.555   1.679   1.160  0.4807 -0.1601 -0.2758
  582MOL0     O80214   2.610   1.797   1.208  0.3604  0.4384 -0.0796
  582MOL0     C80215   2.744   1.801   1.269  0.3945  0.2513  0.5841
  582MOL0     C80216   2.749   1.704   1.389 -0.6283 -0.4059  0.6294
  582MOL0     C80217   2.870   1.728   1.478 -0.1211  0.0852 -0.3025
  582MOL0     C80218   3.007   1.694   1.426  0.5660  0.1332 -0.0895
  582MOL0     C80219   3.109   1.668   1.538 -0.2270 -0.0318  0.2974
  582MOL0     C80220   3.083   1.521   1.580 -0.5611  0.3297 -0.1280
  582MOL0     C80221   3.193   1.488   1.699  0.7389  0.7946  0.0026
  582MOL0     C80222   3.309   1.395   1.663  0.7109  0.2205  0.1675
  582MOL0    Cl80223   3.408   1.502   1.554  0.3525  0.2370 -0.2336
  582MOL0     C80224   2.617   1.589   1.074  0.2038 -0.5113 -0.8691
  582MOL0     C80225   2.552   1.475   1.028 -0.1881  0.3807 -0.7549
  582MOL0     O80226   2.508   1.180   1.061 -0.2569  0.1569 -0.2411
  582MOL0     C80227   2.258   1.073   0.892 -0.0952 -0.3581 -0.7206
  582MOL0     C80228   2.162   0.972   0.887 -0.1087 -0.1361 -0.3378
  582MOL0     N80229   1.546   0.973   1.119  0.4190  0.8605 -0.7363
  582MOL0     N80230   1.426   0.958   1.174 -0.6121  0.5713  0.0571
  582MOL0     C80231   0.494   1.218   1.637  0.6418 -0.4087  0.5398
  582MOL0     C80232   0.502   1.259   1.768 -0.1618 -0.0128 -0.5397
  582MOL0     C80233   0.766   1.476   2.095  0.3886  0.8189 -0.3459
  582MOL0     C80234   0.755   1.591   2.173 -0.6184  0.1112 -0.7251
  582MOL0     C80235   0.785   1.601   2.306 -1.5569  0.0914  0.0376
  582MOL0     C80236   0.834   1.488   2.374  0.9993 -0.3190 -0.3072
  582MOL0     O80237   0.845   1.489   2.509  0.4147 -0.4466 -0.5910
  582MOL0     C80238   0.848   1.356   2.585 -0.5383 -0.7866  0.2554
  582MOL0     C80239   0.864   1.375   2.738  0.2493  0.5606  0.7119
  582MOL0     C80240   0.735   1.448   2.790  0.3071  0.6471  0.6310
  582MOL0     C80241   0.748   1.515   2.923 -0.6311 -0.5442 -0.0797
  582MOL0     C80242   0.620   1.546   2.992 -0.0876  0.4347 -0.7483
  582MOL0     C80243   0.521   1.562   3.060  0.1793 -0.0351 -0.1731
  582MOL0     C80244   0.860   1.374   2.298  0.6857 -0.5938  0.4812
  582MOL0     C80245   0.825   1.363   2.162 -0.1943 -0.4963 -0.3398
  582MOL0     C80246   0.875   1.241   2.083  0.3506  0.5725 -0.7510
  582MOL0     H80247   0.830   1.342   1.776  0.9939  1.7580 -1.8423
  582MOL0     H80248   0.829   1.222   1.552 -1.0737  1.5490 -2.8309
  582MOL0     H80249   0.441   1.181   1.339 -0.7983 -1.5253 -3.0010
  582MOL0     H80250   0.431   1.029   1.414  0.3597 -0.1982  0.3168
  582MOL0     H80251   0.477   0.944   1.216  0.7676  0.4735  0.7254
  582MOL0     H80252   0.481   1.104   1.142 -0.2333  0.2165  0.0400
  582MOL0     H80253   0.703   1.144   1.142  0.2995 -2.6496 -4.9767
  582MOL0     H80254   0.742   1.024   1.262  1.4980  2.1026 -0.7166
  582MOL0     H80255   0.697   0.836   1.096  0.1284 -0.3474 -3.6385
  582MOL0     H80256   0.664   0.959   0.978  0.5135  0.5424 -0.4536
  582MOL0     H80257   0.892   1.064   0.997 -1.9602  1.1760 -1.0714
  582MOL0     H80258   0.893   0.884   0.946  2.1537 -1.0837  2.6110
  582MOL0     H80259   0.964   0.955   1.238 -0.7494  1.0808 -0.1472
  582MOL0     H80260   0.947   0.808   1.165 -0.9273  1.5685  2.7762
  582MOL0     H80261   1.163   1.011   1.118 -1.3412  0.9965  1.0419
  582MOL0     H80262   1.127   0.902   0.982  0.9331  0.9818 -0.6235
  582MOL0     H80263   1.216   0.791   1.253  3.9826  0.8460  0.9887
  582MOL0     H80264   1.208   0.717   1.091  1.4495  0.9217 -0.8744
  582MOL0     H80265   1.402   0.738   0.931  2.1234  3.1412 -4.2353
  582MOL0     H80266   1.729   0.946   0.926 -0.6543  1.6644 -3.5244
  582MOL0     H80267   1.631   0.862   0.807 -1.5100  1.9307  0.5577
  582MOL0     H80268   1.757   0.743   1.066  0.8488  1.5191 -0.3020
  582MOL0     H80269   1.648   0.658   0.958  1.9548 -1.8659 -0.1289
  582MOL0     H80270   1.873   0.594   0.917 -2.2481  0.0517  2.6967
  582MOL0     H80271   1.791   0.644   0.777 -1.0356 -0.6798  1.5069
  582MOL0     H80272   2.049   0.753   0.830  0.1678  0.9047 -0.1380
  582MOL0     H80273   1.919   0.871   0.804  2.2953  0.3293 -0.9952
  582MOL0     H80274   2.082   0.936   1.219  0.6711 -2.1049 -0.5876
  582MOL0     H80275   2.373   1.061   1.309  2.3906  2.3803 -1.2508
  582MOL0     H80276   2.203   1.099   1.348  3.0300  0.5327  3.5577
  582MOL0     H80277   2.300   1.222   1.275 -0.4723  0.1827 -0.1523
  582MOL0     H80278   2.267   1.499   1.190 -0.6729 -0.5683 -2.9411
  582MOL0     H80279   2.370   1.714   1.267 -2.3199 -0.5875 -3.2136
  582MOL0     H80280   2.825   1.776   1.201  2.4826  0.5669  2.8320
  582MOL0     H80281   2.761   1.903   1.301  1.4974  0.2770 -0.0554
  582MOL0     H80282   2.653   1.723   1.438 -2.6768 -3.9840 -1.5491
  582MOL0     H80283   2.735   1.598   1.364  1.7569 -0.5328 -0.4039
  582MOL0     H80284   2.846   1.691   1.578 -0.2233  2.8304  0.7885
  582MOL0     H80285   2.868   1.835   1.498 -0.9692 -0.3745  2.4751
  582MOL0     H80286   3.045   1.786   1.381  1.5203 -1.2106 -2.2235
  582MOL0     H80287   2.992   1.609   1.359 -1.9499 -1.2910  2.0901
  582MOL0     H80288   3.211   1.674   1.498 -0.8625 -2.7835 -2.0190
  582MOL0     H80289   3.093   1.732   1.626 -2.0285  1.3384 -0.9458
  582MOL0     H80290   3.097   1.457   1.493 -2.0750 -1.4658  0.8706
  582MOL0     H80291   2.984   1.503   1.622 -0.4415 -2.4019 -0.8090
  582MOL0     H80292   3.131   1.454   1.782 -0.7620  1.5918 -0.7608
  582MOL0     H80293   3.233   1.584   1.732 -2.9542  1.5051  3.0381
  582MOL0     H80294   3.274   1.298   1.625  1.8551  0.4521 -1.5622
  582MOL0     H80295   3.371   1.368   1.749  0.8388 -2.4803 -0.6976
  582MOL0     H80296   2.710   1.588   1.018 -0.4142 -0.9514 -1.9214
  582MOL0     H80297   2.584   1.424   0.938  0.1301  2.4326 -1.8532
  582MOL0     H80298   2.319   1.123   0.818  0.2012  0.7634  0.2664
  582MOL0     H80299   2.145   0.936   0.786  1.5970  1.2346 -1.1596
  582MOL0     H80300   0.399   1.191   1.590  1.8016 -0.0840 -2.1900
  582MOL0     H80301   0.428   1.270   1.848  1.2150  1.8398  0.5489
  582MOL0     H80302   0.728   1.681   2.118  3.2167  0.9203 -1.5411
  582MOL0     H80303   0.771   1.685   2.374 -1.7646  1.6084 -1.7868
  582MOL0     H80304   0.759   1.294   2.566 -1.0945 -0.5853  2.0187
  582MOL0     H80305   0.936   1.296   2.563  0.3922  0.3932  0.6665
  582MOL0     H80306   0.953   1.436   2.755 -1.1348  2.8493  0.1674
  582MOL0     H80307   0.877   1.288   2.802  0.1805  0.4251  0.5432
  582MOL0     H80308   0.721   1.526   2.715  4.9726  0.9066 -0.3200
  582MOL0     H80309   0.658   1.373   2.808  0.2724  0.7149  0.7645
  582MOL0     H80310   0.789   1.614   2.903  1.7211 -1.3873  0.2934
  582MOL0     H80311   0.809   1.457   2.993  0.0847 -0.3819 -0.5612
  582MOL0     H80312   0.430   1.574   3.115  0.9660  0.8342  1.0210
  582MOL0     H80313   0.911   1.298   2.355  2.7762  0.5516  0.2664
  582MOL0     H80314   0.887   1.255   1.975  4.8556  0.4594 -0.4768
  582MOL0     H80315   0.973   1.217   2.125 -1.1898  0.5441  3.2204
  582MOL0     H80316   0.805   1.158   2.094  1.3932 -0.4619 -1.5724
  583MOL0     O80317  10.589  11.460   8.746  0.2507 -0.3129 -0.4053
  583MOL0     C80318  10.588  11.387   8.646  1.3037 -1.1189  0.2532
  583MOL0     O80319  10.677  11.290   8.614 -0.5033  1.0714 -0.0477
  583MOL0     C80320  10.779  11.238   8.687 -0.1892  0.4655 -1.5942
  583MOL0     C80321  10.790  11.243   8.827  0.6045 -0.3673 -0.1121
  583MOL0     C80322  10.909  11.200   8.893 -0.6460 -0.7207 -0.2558
  583MOL0     C80323  11.016  11.144   8.828  0.0330 -0.0786 -0.5626
  583MOL0     O80324  11.135  11.109   8.890  0.4305 -0.9096 -0.4345
  583MOL0     C80325  11.134  10.985   8.951  0.0395 -0.2119 -0.6383
  583MOL0     C80326  11.193  10.874   8.855  0.2370 -0.4896 -0.5023
  583MOL0     C80327  11.319  10.910   8.772 -0.6871  0.3379 -0.2075
  583MOL0     C80328  11.424  10.988   8.860 -0.1771 -0.1496  0.7295
  583MOL0     C80329  11.566  10.940   8.847  0.2943 -0.0957  1.0001
  583MOL0     C80330  11.625  10.961   8.699  0.5375 -0.2021 -0.5946
  583MOL0     C80331  11.640  11.107   8.684 -0.0011 -0.2998  0.4865
  583MOL0     C80332  11.749  11.143   8.575  0.2318 -0.3903  1.0603
  583MOL0     N80333  11.711  11.114   8.437  0.4210  1.1201  0.5670
  583MOL0     C80334  11.790  11.039   8.353 -0.1853  0.0195 -1.1031
  583MOL0     C80335  11.705  10.998   8.253 -0.7848 -0.1105  0.2519
  583MOL0     C80336  11.748  10.907   8.148 -1.1623  1.1875  0.3917
  583MOL0     C80337  11.651  10.900   8.033 -0.0952  0.5744 -0.4712
  583MOL0     C80338  11.547  10.790   8.055 -0.4625 -0.6810  0.2628
  583MOL0     C80339  11.426  10.825   7.969 -1.2692 -0.6798 -0.5942
  583MOL0     O80340  11.314  10.733   7.987  0.3060 -0.0860 -0.0750
  583MOL0     C80341  11.249  10.736   8.106  0.6571 -0.1271 -0.0689
  583MOL0     C80342  11.170  10.631   8.138  0.4341 -0.0980  0.4331
  583MOL0     C80343  11.080  10.632   8.250  0.5748  0.4975  0.8690
  583MOL0     C80344  10.987  10.509   8.264 -0.2720  0.1764  0.3400
  583MOL0     C80345  11.070  10.747   8.323 -0.5080 -0.4531 -0.7877
  583MOL0     C80346  11.003  10.744   8.454  0.0002  0.1836 -0.2324
  583MOL0     O80347  11.011  10.630   8.537  0.1224  0.0238 -1.0147
  583MOL0     C80348  10.902  10.606   8.621 -0.2741  0.5616 -0.4919
  583MOL0     C80349  10.930  10.566   8.756 -1.2841 -0.4961  0.1725
  583MOL0     C80350  10.830  10.549   8.853  0.2684 -0.4604  0.0001
  583MOL0     C80351  10.698  10.581   8.813  1.1074  0.2066 -0.9834
  583MOL0     O80352  10.589  10.587   8.896 -0.9707  0.0076  0.5644
  583MOL0     C80353  10.603  10.663   9.017 -1.4270 -0.6555  0.7561
  583MOL0     C80354  10.640  10.810   8.977  0.8149 -0.4619  0.2522
  583MOL0     C80355  10.612  10.896   9.101 -0.0987  0.3309  0.8371
  583MOL0     C80356  10.700  11.020   9.089 -0.3565  0.2498 -0.8599
  583MOL0     C80357  10.647  11.106   9.198  0.2347  0.2909 -0.5015
  583MOL0     C80358  10.679  11.254   9.177 -0.0972 -0.4940 -0.7469
  583MOL0     C80359  10.594  11.341   9.274  0.5271  0.3494  0.0333
  583MOL0     C80360  10.657  11.485   9.282  0.5787  0.2309 -0.2303
  583MOL0    Cl80361  10.782  11.474   9.414 -0.0070 -0.3310 -0.2660
  583MOL0     C80362  10.668  10.604   8.681  0.4594  0.2109 -0.1434
  583MOL0     C80363  10.768  10.612   8.581  0.3664  0.7589 -0.3547
  583MOL0     O80364  10.929  10.834   8.476 -0.2561 -1.1759  0.1056
  583MOL0     C80365  11.154  10.856   8.284  0.4887 -0.3848  0.6746
  583MOL0     C80366  11.241  10.848   8.183  0.0124 -0.6240 -0.6015
  583MOL0     N80367  11.579  11.045   8.271  0.1350 -0.8377 -0.3077
  583MOL0     N80368  11.588  11.114   8.379  0.2983  1.2188  0.9954
  583MOL0     C80369  11.006  11.139   8.686 -0.2161 -0.9964 -0.8258
  583MOL0     C80370  10.891  11.173   8.623 -0.0107  0.2457 -0.3978
  583MOL0     C80371  10.467  11.400   8.555  0.7588 -0.2655  0.1859
  583MOL0     C80372  10.430  11.277   8.480  0.0530  0.2015  0.3853
  583MOL0     C80373  10.312  11.269   8.403 -0.2835 -0.1097  0.4912
  583MOL0     C80374  10.232  11.386   8.386  0.0482 -0.5589 -0.8763
  583MOL0     O80375  10.115  11.394   8.316  0.0614  0.0054  0.3389
  583MOL0     C80376  10.098  11.311   8.201  0.9338  0.8050 -0.3560
  583MOL0     C80377  10.208  11.345   8.101  0.2584  0.3100  0.5515
  583MOL0     C80378  10.159  11.286   7.962 -0.6378 -0.0061 -0.0006
  583MOL0     C80379  10.042  11.366   7.891  0.2732  0.8879  0.4137
  583MOL0     C80380  10.085  11.485   7.810  0.4372 -0.3805  0.1964
  583MOL0     C80381  10.114  11.578   7.746 -0.1755 -0.2402  0.8729
  583MOL0     C80382  10.271  11.501   8.450 -0.0371  0.0737  0.1232
  583MOL0     C80383  10.389  11.514   8.531  0.6027  0.4470 -0.5568
  583MOL0     C80384  10.411  11.654   8.585  0.0582 -0.8041  0.3425
  583MOL0     H80385  10.714  11.295   8.884  0.8265 -0.0211 -0.1289
  583MOL0     H80386  10.929  11.215   8.999 -1.0272 -4.6108  0.5202
  583MOL0     H80387  11.038  10.947   8.989 -2.2308  3.1742 -2.4578
  583MOL0     H80388  11.203  10.991   9.036  0.0432 -0.2213 -0.6405
  583MOL0     H80389  11.218  10.781   8.905  2.2341 -0.2857 -1.0221
  583MOL0     H80390  11.110  10.857   8.786 -0.5991 -1.0527  0.6210
  583MOL0     H80391  11.374  10.819   8.750  0.4483  0.9635 -0.0328
  583MOL0     H80392  11.299  10.968   8.681 -3.4529 -0.5936 -0.2919
  583MOL0     H80393  11.416  11.091   8.824  2.5131 -0.1277  0.0079
  583MOL0     H80394  11.399  10.986   8.967 -0.5426 -5.4156  0.8563
  583MOL0     H80395  11.586  10.835   8.870  2.9209 -0.2304 -1.3813
  583MOL0     H80396  11.630  11.000   8.912 -0.1495  1.8846 -0.3233
  583MOL0     H80397  11.726  10.919   8.701  0.2579 -1.0064 -1.8947
  583MOL0     H80398  11.562  10.905   8.630 -0.2473 -2.3795  1.7159
  583MOL0     H80399  11.658  11.173   8.770 -1.6922  3.9303 -2.0636
  583MOL0     H80400  11.539  11.131   8.651 -0.3547  0.9305  2.3580
  583MOL0     H80401  11.752  11.251   8.588 -0.3836 -0.5089  2.3377
  583MOL0     H80402  11.843  11.092   8.596 -0.4211 -2.4663 -0.7101
  583MOL0     H80403  11.890  11.002   8.370 -0.5085 -0.1853  0.4854
  583MOL0     H80404  11.770  10.809   8.192 -1.2575  1.6250  1.4630
  583MOL0     H80405  11.837  10.960   8.113 -2.0888  3.0738  0.7408
  583MOL0     H80406  11.609  11.000   8.019  0.5097  0.9780  0.5233
  583MOL0     H80407  11.704  10.901   7.937 -0.9078  4.0454 -1.0369
  583MOL0     H80408  11.588  10.698   8.012  1.5380  0.0609  0.4974
  583MOL0     H80409  11.516  10.777   8.159 -2.6022  2.6984  0.2254
  583MOL0     H80410  11.395  10.930   7.980  0.1102 -0.1018 -1.9086
  583MOL0     H80411  11.452  10.835   7.863  0.1651 -0.4444 -0.2314
  583MOL0     H80412  11.164  10.540   8.080 -2.3092  0.8194 -0.8984
  583MOL0     H80413  11.035  10.450   8.343  0.8688  0.4885 -0.1041
  583MOL0     H80414  10.965  10.451   8.174 -1.0576  0.3332  0.4230
  583MOL0     H80415  10.895  10.556   8.298 -0.4768 -0.5714  0.8428
  583MOL0     H80416  11.029  10.552   8.799 -1.5605  1.2156  1.4799
  583MOL0     H80417  10.854  10.544   8.958  2.4606  0.5719 -0.3934
  583MOL0     H80418  10.506  10.652   9.064 -3.2131  1.7506 -1.9618
  583MOL0     H80419  10.677  10.616   9.082  0.0422 -2.9053 -2.3094
  583MOL0     H80420  10.746  10.823   8.953  0.2667  2.8593 -0.9229
  583MOL0     H80421  10.591  10.844   8.885  3.2710 -0.9270 -1.3133
  583MOL0     H80422  10.636  10.842   9.193 -2.8089 -4.3515 -0.8605
  583MOL0     H80423  10.507  10.928   9.102  0.1697  1.2308  0.7390
  583MOL0     H80424  10.698  11.064   8.989 -0.3155  0.6764 -0.6782
  583MOL0     H80425  10.803  10.992   9.115 -0.9964  2.4448  6.1115
  583MOL0     H80426  10.539  11.092   9.205  0.5168 -1.9944  0.1443
  583MOL0     H80427  10.690  11.067   9.291 -0.0821  1.4684  0.1584
  583MOL0     H80428  10.659  11.287   9.074 -0.8545 -1.3111 -0.8736
  583MOL0     H80429  10.784  11.273   9.200  0.5710 -1.5045 -2.6822
  583MOL0     H80430  10.597  11.305   9.377 -0.4785 -0.8914 -0.3496
  583MOL0     H80431  10.490  11.342   9.239  1.7854  0.3698 -4.3910
  583MOL0     H80432  10.576  11.555   9.305 -1.7650 -1.8931 -1.5169
  583MOL0     H80433  10.700  11.527   9.191  3.3385  1.9127  1.6902
  583MOL0     H80434  10.565  10.606   8.645  0.9141  1.8759 -1.4874
  583MOL0     H80435  10.749  10.638   8.477  0.6932 -1.3123 -0.9639
  583MOL0     H80436  11.154  10.935   8.358 -1.8983 -2.4864  3.0871
  583MOL0     H80437  11.302  10.937   8.173  0.2760 -0.2392  3.0791
  583MOL0     H80438  11.081  11.082   8.634  2.2261 -1.8776  3.1825
  583MOL0     H80439  10.885  11.165   8.515 -3.3479  1.4155 -0.4397
  583MOL0     H80440  10.494  11.195   8.508  0.8887  1.2585  1.6978
  583MOL0     H80441  10.284  11.173   8.360  2.4153 -0.3065 -1.0598
  583MOL0     H80442  10.121  11.209   8.232 -0.2091  0.4679 -0.5821
  583MOL0     H80443   9.993  11.330   8.175  0.7056  0.6961  0.4420
  583MOL0     H80444  10.300  11.288   8.119  0.1029 -0.3968 -0.7569
  583MOL0     H80445  10.230  11.452   8.091 -2.0900  0.9112  1.2358
  583MOL0     H80446  10.244  11.303   7.895 -0.1270 -5.1086 -1.0365
  583MOL0     H80447  10.143  11.178   7.953  1.6487 -0.4959  0.9372
  583MOL0     H80448   9.972  11.396   7.969 -0.7646 -1.7667  0.5941
  583MOL0     H80449   9.997  11.300   7.816  0.5470  1.6788 -0.4745
  583MOL0     H80450  10.135  11.669   7.694 -6.0810  2.2993  2.1288
  583MOL0     H80451  10.203  11.584   8.434  2.3052  1.5670 -3.2861
  583MOL0     H80452  10.514  11.689   8.570  0.6582  0.1987  5.1172
  583MOL0     H80453  10.339  11.734   8.565  2.3815  1.1883 -0.6314
  583MOL0     H80454  10.414  11.645   8.694 -0.7240 -0.7162  0.3742
  584MOL0     O80455   1.579   7.122  10.173  0.6983  1.0791 -0.0455
  584MOL0     C80456   1.526   7.230  10.159 -0.0932 -0.7983  0.3138
  584MOL0     O80457   1.589   7.350  10.147 -0.4895 -0.0250  0.6509
  584MOL0     C80458   1.720   7.341  10.141 -1.1291 -0.4262 -0.5149
  584MOL0     C80459   1.791   7.313  10.260 -0.4446 -0.7645  0.2531
  584MOL0     C80460   1.930   7.305  10.261  0.1162  0.3123  0.9324
  584MOL0     C80461   2.004   7.335  10.141  0.9919  0.7706  0.1923
  584MOL0     O80462   2.138   7.337  10.124  0.6177 -0.9316 -0.0651
  584MOL0     C80463   2.224   7.326  10.247  1.0032  0.4915  0.1196
  584MOL0     C80464   2.225   7.437  10.355  0.1814  0.3024  0.2584
  584MOL0     C80465   2.278   7.573  10.304 -0.6389 -1.1598  0.2778
  584MOL0     C80466   2.409   7.608  10.383 -0.0400 -0.4564 -0.5002
  584MOL0     C80467   2.489   7.731  10.329 -0.1154  0.2807 -0.3983
  584MOL0     C80468   2.636   7.761  10.379  0.0296  0.0082  0.2803
  584MOL0     C80469   2.688   7.899  10.333 -0.6327  0.3375  0.2618
  584MOL0     C80470   2.842   7.894  10.290  0.1332 -0.7542 -0.2780
  584MOL0     N80471   2.923   7.872  10.409 -0.8529 -0.3017  0.0385
  584MOL0     C80472   3.051   7.816  10.398  0.8476 -0.8485  1.0663
  584MOL0     C80473   3.088   7.800  10.520  0.1337  1.5890  0.1365
  584MOL0     C80474   3.219   7.728  10.554 -0.2232  0.0166  0.5391
  584MOL0     C80475   3.327   7.834  10.576  1.8293  0.0441  0.0746
  584MOL0     C80476   3.460   7.767  10.599 -0.0894 -0.9412  0.0560
  584MOL0     C80477   3.553   7.874  10.657  0.2960  0.4664  0.2983
  584MOL0     O80478   3.663   7.802  10.727  1.1640  0.2178 -0.3039
  584MOL0     C80479   3.795   7.843  10.720 -0.8986  1.0394  0.1417
  584MOL0     C80480   3.840   7.969  10.673 -0.1265 -0.8985 -0.3148
  584MOL0     C80481   3.979   8.010  10.682 -0.0309  0.5980  0.6400
  584MOL0     C80482   4.005   8.136  10.601 -0.5233  0.2115  0.2082
  584MOL0     C80483   4.077   7.918  10.726  1.0611  0.3303 -0.6937
  584MOL0     C80484   4.217   7.958  10.755 -0.4055 -0.4854 -1.1677
  584MOL0     O80485   4.316   7.870  10.736 -0.4152  0.3843  0.9919
  584MOL0     C80486   4.452   7.903  10.739 -0.1012  1.0029 -0.2950
  584MOL0     C80487   4.504   8.025  10.700 -0.5924 -0.1973  0.4198
  584MOL0     C80488   4.644   8.050  10.723  0.3138  0.4049  0.2490
  584MOL0     C80489   4.722   7.949  10.771  0.0195  0.6722  0.5428
  584MOL0     O80490   4.856   7.992  10.760  0.2758 -0.0604  0.0624
  584MOL0     C80491   4.959   7.896  10.805 -0.5990  1.0185 -0.1814
  584MOL0     C80492   4.986   7.795  10.691 -0.2427  0.2485 -0.2625
  584MOL0     C80493   5.086   7.683  10.721  0.2685 -0.2673 -0.7508
  584MOL0     C80494   5.059   7.619  10.854 -0.3571 -0.6940  1.1613
  584MOL0     C80495   5.130   7.491  10.860  0.4169 -0.3284 -0.2180
  584MOL0     C80496   5.165   7.427  10.999  0.7860  0.0672  0.7291
  584MOL0     C80497   5.248   7.517  11.087  0.8461  0.1124 -0.3761
  584MOL0     C80498   5.288   7.443  11.222 -0.7741  0.0848 -0.4833
  584MOL0    Cl80499   5.334   7.582  11.336  0.5638 -0.2990 -0.2997
  584MOL0     C80500   4.676   7.819  10.798  0.7212 -0.6870 -0.7196
  584MOL0     C80501   4.538   7.798  10.782  0.2759 -0.4069  0.3096
  584MOL0     O80502   4.237   8.077  10.795 -0.7000 -0.3389  0.1588
  584MOL0     C80503   4.021   7.798  10.785 -1.2391 -0.4895  1.0061
  584MOL0     C80504   3.894   7.759  10.777 -0.0969 -0.3831  0.4939
  584MOL0     N80505   2.982   7.827  10.600 -0.7258 -0.2845 -0.0552
  584MOL0     N80506   2.880   7.866  10.538  0.7263  0.0993 -0.1513
  584MOL0     C80507   1.933   7.359  10.021 -0.6688 -0.2118 -0.4673
  584MOL0     C80508   1.797   7.350  10.022  0.0739  0.6662 -0.2422
  584MOL0     C80509   1.373   7.231  10.153 -0.7041 -0.1141 -0.2049
  584MOL0     C80510   1.310   7.115  10.103 -0.1097 -0.0335  0.0961
  584MOL0     C80511   1.164   7.096  10.104 -0.7909  0.3763  0.6791
  584MOL0     C80512   1.078   7.202  10.135  1.4039  0.5537 -0.2721
  584MOL0     O80513   0.945   7.219  10.140 -0.3397 -0.6347 -0.1001
  584MOL0     C80514   0.868   7.109  10.081  0.1779 -0.2535  0.2497
  584MOL0     C80515   0.715   7.140  10.091 -0.8678 -0.3041  0.1797
  584MOL0     C80516   0.637   7.055   9.985  0.0911 -0.7783 -0.5756
  584MOL0     C80517   0.487   7.084  10.007 -0.2396 -1.3735  0.1631
  584MOL0     C80518   0.440   7.004  10.119 -0.7386 -1.5580 -0.8967
  584MOL0     C80519   0.401   6.933  10.216 -0.3560 -0.6463  0.3412
  584MOL0     C80520   1.143   7.313  10.179 -0.7606  0.1422  0.3924
  584MOL0     C80521   1.282   7.328  10.201  0.9163 -0.3639  0.7303
  584MOL0     C80522   1.337   7.458  10.256 -0.4767  0.6051 -0.1207
  584MOL0     H80523   1.735   7.286  10.349  0.1615  3.1340  2.0818
  584MOL0     H80524   1.981   7.263  10.348 -0.0289 -1.0116  0.3998
  584MOL0     H80525   2.328   7.307  10.218  0.8562 -1.9504  0.9163
  584MOL0     H80526   2.199   7.225  10.282  4.0464 -2.0218 -4.0245
  584MOL0     H80527   2.122   7.447  10.392  0.4578  3.0352  0.5110
  584MOL0     H80528   2.285   7.403  10.439 -1.8510  0.7984  2.0079
  584MOL0     H80529   2.301   7.567  10.197  3.3167 -1.8892  1.0128
  584MOL0     H80530   2.199   7.649  10.311  2.2137  2.4529 -2.5552
  584MOL0     H80531   2.388   7.633  10.487  5.4271  1.4506  0.4867
  584MOL0     H80532   2.469   7.517  10.378  0.6180 -0.0857  0.3453
  584MOL0     H80533   2.419   7.815  10.333 -0.9812 -0.2047 -3.0030
  584MOL0     H80534   2.506   7.716  10.222  1.2833  1.3111 -0.3474
  584MOL0     H80535   2.634   7.757  10.488  3.6908  4.2433  0.8208
  584MOL0     H80536   2.711   7.689  10.345  1.7629  1.7227  0.3276
  584MOL0     H80537   2.658   7.972  10.409 -4.1994 -2.9883  2.3884
  584MOL0     H80538   2.630   7.923  10.243  0.1633  3.3202  0.4490
  584MOL0     H80539   2.861   7.818  10.213  0.5411  1.8520 -2.9056
  584MOL0     H80540   2.856   7.991  10.243 -1.8662 -0.8659 -1.1948
  584MOL0     H80541   3.118   7.794  10.316  2.8382 -0.4616  2.4977
  584MOL0     H80542   3.245   7.651  10.481 -0.5950 -1.5204  1.9525
  584MOL0     H80543   3.212   7.673  10.649 -4.1177 -1.8059 -0.5996
  584MOL0     H80544   3.344   7.894  10.487  2.3006 -2.7535 -1.8495
  584MOL0     H80545   3.291   7.888  10.664 -3.7896 -1.2871 -1.0137
  584MOL0     H80546   3.453   7.700  10.685  0.4568  0.4858  1.2534
  584MOL0     H80547   3.502   7.730  10.505  2.1193  0.3475  0.4574
  584MOL0     H80548   3.594   7.925  10.569  2.1983 -2.8585 -0.8826
  584MOL0     H80549   3.497   7.938  10.727  0.2844 -1.1093  1.7763
  584MOL0     H80550   3.761   8.039  10.648 -2.1798 -2.6045  0.9860
  584MOL0     H80551   4.104   8.129  10.555 -1.2728  0.2842 -1.5068
  584MOL0     H80552   3.990   8.228  10.658 -0.5346  2.1159 -2.6446
  584MOL0     H80553   3.937   8.145  10.515 -2.3271  1.6785  1.7061
  584MOL0     H80554   4.439   8.101  10.658  2.9322  2.8068 -0.0675
  584MOL0     H80555   4.681   8.142  10.679  0.5459 -1.1286 -3.1278
  584MOL0     H80556   5.051   7.952  10.824 -0.8857  1.2793  0.4569
  584MOL0     H80557   4.920   7.855  10.899  1.3095 -0.8083 -0.1091
  584MOL0     H80558   4.889   7.760  10.656 -0.5771  0.6740  0.2266
  584MOL0     H80559   5.035   7.854  10.613  3.2005 -1.2186  0.5558
  584MOL0     H80560   5.194   7.699  10.708  0.8833 -4.4312 -2.5611
  584MOL0     H80561   5.063   7.609  10.643  2.8251 -1.7090 -0.2460
  584MOL0     H80562   4.952   7.598  10.862 -0.2394 -1.8044 -0.0349
  584MOL0     H80563   5.095   7.693  10.927  1.6348 -2.7139  2.3417
  584MOL0     H80564   5.065   7.421  10.805  0.7397 -0.2119 -0.7582
  584MOL0     H80565   5.224   7.495  10.803  1.0483  0.1860  0.8369
  584MOL0     H80566   5.205   7.326  10.990 -0.1333 -0.3151  0.7383
  584MOL0     H80567   5.064   7.410  11.038  0.1393 -0.6980 -1.1667
  584MOL0     H80568   5.195   7.607  11.117  0.0482 -0.8394  1.2190
  584MOL0     H80569   5.347   7.520  11.041  0.4543 -1.1455 -1.3751
  584MOL0     H80570   5.372   7.374  11.206 -1.4198 -1.1789  1.1943
  584MOL0     H80571   5.204   7.388  11.266  1.3300 -0.4558  3.2442
  584MOL0     H80572   4.738   7.734  10.821 -1.5463 -1.9867  1.0203
  584MOL0     H80573   4.505   7.695  10.786  3.2825 -1.7181 -3.1471
  584MOL0     H80574   4.085   7.726  10.834 -0.8251  0.6434  2.1850
  584MOL0     H80575   3.869   7.656  10.800  2.4903 -1.0578  0.5904
  584MOL0     H80576   1.993   7.377   9.932  0.3364  0.5880  0.3376
  584MOL0     H80577   1.745   7.362   9.928  1.3061 -1.5153 -1.2716
  584MOL0     H80578   1.383   7.043  10.068 -0.6918 -0.6507  0.1330
  584MOL0     H80579   1.121   7.004  10.064  1.8102  0.8653 -3.9285
  584MOL0     H80580   0.890   7.106   9.974 -1.5319  0.8291 -0.1694
  584MOL0     H80581   0.883   7.015  10.135  5.1274  0.8824  1.3867
  584MOL0     H80582   0.715   7.249  10.079  3.3625 -0.0845  0.7387
  584MOL0     H80583   0.678   7.112  10.190  0.0005  2.7033  1.4539
  584MOL0     H80584   0.661   7.080   9.881 -1.3418 -0.4395 -0.8450
  584MOL0     H80585   0.661   6.949   9.996  1.6347 -0.4256 -0.2487
  584MOL0     H80586   0.421   7.053   9.926 -2.8379  1.3459  1.0323
  584MOL0     H80587   0.471   7.192  10.008 -1.6275 -1.5518 -0.6538
  584MOL0     H80588   0.373   6.865  10.293  2.7877  0.2466  2.4336
  584MOL0     H80589   1.084   7.398  10.211  2.1254  2.3352  0.2792
  584MOL0     H80590   1.371   7.527  10.178  3.5000 -0.0831  0.7877
  584MOL0     H80591   1.255   7.503  10.311  1.8342  0.1741  4.0341
  584MOL0     H80592   1.414   7.452  10.333  1.1542  4.0060 -1.2959
  585MOL0     O80593   8.324  11.520  10.459  0.0151 -0.0130  0.2086
  585MOL0     C80594   8.369  11.549  10.344  0.1650 -0.3026 -0.0743
  585MOL0     O80595   8.359  11.468  10.241 -0.2470 -0.8224  0.1717
  585MOL0     C80596   8.395  11.336  10.262 -0.2045 -0.5465  0.1072
  585MOL0     C80597   8.368  11.247  10.158  0.4115  0.7570 -0.5301
  585MOL0     C80598   8.407  11.115  10.156  0.7364  0.2078 -0.5132
  585MOL0     C80599   8.483  11.063  10.265  0.6913 -0.8597  0.0853
  585MOL0     O80600   8.515  10.925  10.292  0.2976 -0.5562  0.5565
  585MOL0     C80601   8.481  10.823  10.188  0.7700 -0.0454 -0.1169
  585MOL0     C80602   8.334  10.768  10.222 -0.0103 -0.0814  0.0894
  585MOL0     C80603   8.296  10.645  10.141  0.4671  0.8444 -0.3869
  585MOL0     C80604   8.207  10.687  10.029  0.8944  0.2338 -1.0129
  585MOL0     C80605   8.140  10.563   9.947 -0.0176 -0.0677 -0.1262
  585MOL0     C80606   8.046  10.610   9.831 -0.2106  0.5204  0.0008
  585MOL0     C80607   7.946  10.727   9.864 -0.8554  0.1647 -1.0940
  585MOL0     C80608   7.858  10.703   9.986  0.0492 -0.2767 -0.2059
  585MOL0     N80609   7.776  10.583   9.975  0.3404  0.5138 -0.8571
  585MOL0     C80610   7.774  10.469  10.055 -0.7262 -0.5568 -0.7367
  585MOL0     C80611   7.680  10.387  10.005  1.1757  0.3299 -0.0402
  585MOL0     C80612   7.653  10.247  10.042  0.3667  0.8169 -0.7687
  585MOL0     C80613   7.746  10.141   9.975  0.0563  0.4193  0.3323
  585MOL0     C80614   7.660  10.021   9.930  0.0998  0.0838  0.8849
  585MOL0     C80615   7.715   9.973   9.789  1.0944  0.2076  0.1188
  585MOL0     O80616   7.836   9.898   9.800 -0.0925 -0.1155  0.7536
  585MOL0     C80617   7.905   9.870   9.681 -0.6811 -0.2795 -1.3226
  585MOL0     C80618   7.920   9.958   9.578 -0.4892 -0.1190  1.6615
  585MOL0     C80619   7.977   9.926   9.448  0.0887 -0.1122 -0.7355
  585MOL0     C80620   7.957  10.011   9.331 -0.0933 -1.0763  0.1544
  585MOL0     C80621   8.056   9.810   9.445 -0.1930 -0.2543  0.1388
  585MOL0     C80622   8.124   9.755   9.328 -0.5153 -0.1744 -0.2137
  585MOL0     O80623   8.050   9.780   9.213  0.2180  0.4099  0.1560
  585MOL0     C80624   8.083   9.719   9.094 -0.1727 -0.3654  0.6177
  585MOL0     C80625   8.116   9.582   9.081  0.8086 -0.4393  0.6602
  585MOL0     C80626   8.145   9.518   8.964 -0.0213  0.0909  0.3876
  585MOL0     C80627   8.144   9.591   8.841  0.1644  0.2051  0.5637
  585MOL0     O80628   8.175   9.553   8.713 -0.5926  0.0904  0.3075
  585MOL0     C80629   8.216   9.412   8.687  0.5874  0.0281  0.4052
  585MOL0     C80630   8.289   9.412   8.558 -0.1881  0.3827  0.5534
  585MOL0     C80631   8.210   9.487   8.443  0.0490  0.8625 -0.9565
  585MOL0     C80632   8.265   9.443   8.304 -0.1732 -0.5373 -0.1975
  585MOL0     C80633   8.207   9.307   8.265  0.0989  0.0364  0.5599
  585MOL0     C80634   8.212   9.274   8.117  0.4005 -0.3135  0.3975
  585MOL0     C80635   8.158   9.137   8.083  0.4838 -0.8082  0.5658
  585MOL0     C80636   8.009   9.155   8.038  0.0667  1.0798  0.5936
  585MOL0    Cl80637   7.996   9.198   7.870  0.2313  0.2491  0.1350
  585MOL0     C80638   8.113   9.729   8.847  0.5825 -0.2442  0.9112
  585MOL0     C80639   8.081   9.786   8.973  0.2223  0.9827  0.5054
  585MOL0     O80640   8.234   9.703   9.336  0.4227 -0.3423  1.0411
  585MOL0     C80641   8.060   9.728   9.568  0.3520  0.2977 -0.7028
  585MOL0     C80642   7.979   9.758   9.683  0.0045  1.1876  0.6745
  585MOL0     N80643   7.621  10.449   9.895  0.1830 -0.3229 -0.3358
  585MOL0     N80644   7.691  10.556   9.871 -0.2136 -0.3200 -0.6894
  585MOL0     C80645   8.522  11.147  10.368  0.6771 -0.3344  0.5901
  585MOL0     C80646   8.481  11.284  10.362  0.6001 -0.2721  0.7139
  585MOL0     C80647   8.410  11.695  10.303 -0.4123  0.5854 -0.8502
  585MOL0     C80648   8.392  11.797  10.395 -0.3520  0.7833 -0.3266
  585MOL0     C80649   8.418  11.931  10.352  0.9296 -0.4334  0.4085
  585MOL0     C80650   8.450  11.977  10.229 -0.2049  0.3509  0.4579
  585MOL0     O80651   8.464  12.113  10.198 -0.4113  0.0612 -0.3324
  585MOL0     C80652   8.549  12.134  10.077  1.4758  0.2628  0.4170
  585MOL0     C80653   8.620  12.271  10.064 -0.1768 -0.0667  0.3402
  585MOL0     C80654   8.530  12.389  10.095  0.2497 -0.9346  0.7433
  585MOL0     C80655   8.596  12.525  10.069 -0.1148 -0.9405 -0.6258
  585MOL0     C80656   8.501  12.633  10.101 -0.3067  0.5566 -0.4476
  585MOL0     C80657   8.417  12.726  10.122 -1.6725 -0.6462  0.6481
  585MOL0     C80658   8.471  11.875  10.135  0.1094  0.3078  0.3827
  585MOL0     C80659   8.458  11.732  10.175 -0.1543 -0.9788  0.6096
  585MOL0     C80660   8.479  11.637  10.058  0.7710 -0.7957 -0.3430
  585MOL0     H80661   8.312  11.288  10.075  0.5475  2.1396  0.0393
  585MOL0     H80662   8.358  11.056  10.080 -0.3300  0.2369  0.1244
  585MOL0     H80663   8.552  10.741  10.177  0.2654 -0.4041 -0.7567
  585MOL0     H80664   8.472  10.872  10.090  1.8227  1.3486  0.4502
  585MOL0     H80665   8.330  10.757  10.330 -1.8025 -3.6693 -0.2099
  585MOL0     H80666   8.264  10.849  10.199 -0.1121 -1.0800 -3.8904
  585MOL0     H80667   8.384  10.598  10.095 -0.6572  1.4268 -3.4169
  585MOL0     H80668   8.230  10.576  10.194 -1.0004  0.1677 -2.9182
  585MOL0     H80669   8.117  10.734  10.069 -0.4697 -3.1562  0.2991
  585MOL0     H80670   8.262  10.757   9.966 -1.6395  2.2610 -1.1273
  585MOL0     H80671   8.085  10.496  10.014  0.1107 -3.7297 -3.3716
  585MOL0     H80672   8.220  10.513   9.892 -0.1120 -1.0208  0.5620
  585MOL0     H80673   8.113  10.631   9.748 -0.5663 -1.9696 -1.0037
  585MOL0     H80674   7.981  10.533   9.788 -0.8848  0.0851  1.6908
  585MOL0     H80675   7.874  10.722   9.782 -1.5118  2.9782 -0.7978
  585MOL0     H80676   7.992  10.825   9.879 -0.7249 -0.3169  2.6469
  585MOL0     H80677   7.918  10.712  10.077 -3.1179  3.1143  1.8018
  585MOL0     H80678   7.782  10.781   9.992 -1.2642 -1.5666  0.4640
  585MOL0     H80679   7.854  10.458  10.128  1.2503  0.6459 -2.6055
  585MOL0     H80680   7.546  10.226  10.029  0.5467 -1.1068  0.4100
  585MOL0     H80681   7.662  10.231  10.149 -1.8224 -0.6417 -0.7277
  585MOL0     H80682   7.792  10.189   9.888  0.8955 -0.3165  0.3619
  585MOL0     H80683   7.827  10.104  10.038  0.9510 -2.6444 -2.3537
  585MOL0     H80684   7.639   9.937   9.997  2.8519 -2.2952 -0.9993
  585MOL0     H80685   7.564  10.046   9.884 -0.0961 -3.5919 -1.0999
  585MOL0     H80686   7.639   9.906   9.749  1.0969 -0.9561  1.9416
  585MOL0     H80687   7.723  10.060   9.724  0.5448 -1.0226 -1.6573
  585MOL0     H80688   7.877  10.058   9.575  1.6932  0.9376 -2.0434
  585MOL0     H80689   7.892  10.096   9.352  1.3044 -0.0629  0.5671
  585MOL0     H80690   7.902   9.962   9.250 -1.5814  0.6969  0.0402
  585MOL0     H80691   8.055  10.042   9.293 -0.8890 -2.5981 -3.4970
  585MOL0     H80692   8.095   9.528   9.173 -0.6234 -0.2595  0.4712
  585MOL0     H80693   8.182   9.416   8.964 -0.5403 -0.1014  0.7725
  585MOL0     H80694   8.278   9.382   8.771 -2.2266 -0.5509  2.4299
  585MOL0     H80695   8.125   9.352   8.669  0.7791 -0.4898  1.1316
  585MOL0     H80696   8.389   9.454   8.575  0.2185 -0.5900  0.6621
  585MOL0     H80697   8.312   9.309   8.528 -2.0501 -0.3152  1.3744
  585MOL0     H80698   8.220   9.594   8.464  0.4074  1.0864 -2.1646
  585MOL0     H80699   8.103   9.471   8.458  0.2729  1.5308  1.8173
  585MOL0     H80700   8.374   9.452   8.306 -0.2238  0.1328 -0.1460
  585MOL0     H80701   8.231   9.524   8.239  0.7536  2.2893  2.5786
  585MOL0     H80702   8.261   9.231   8.322  3.4203  3.3410  2.2812
  585MOL0     H80703   8.101   9.315   8.291 -0.1382  0.6160 -0.5407
  585MOL0     H80704   8.316   9.267   8.084  0.4173 -3.0657  0.8096
  585MOL0     H80705   8.166   9.350   8.052  0.2771  0.0889  0.9458
  585MOL0     H80706   8.164   9.077   8.175 -0.6216 -1.4777  0.2132
  585MOL0     H80707   8.215   9.092   8.001 -1.4199 -3.6798  0.6772
  585MOL0     H80708   7.958   9.231   8.098 -0.9732  3.8550 -3.3640
  585MOL0     H80709   7.944   9.069   8.055  0.5879  1.1898  3.6820
  585MOL0     H80710   8.124   9.785   8.755  1.0959  1.4028  1.9331
  585MOL0     H80711   8.032   9.883   8.979 -2.3081 -0.0415 -1.6319
  585MOL0     H80712   8.129   9.645   9.571  2.4302  1.9381 -0.3153
  585MOL0     H80713   7.982   9.694   9.771 -2.0219 -0.3228 -0.2694
  585MOL0     H80714   8.581  11.110  10.452  0.6043  1.2799  1.3953
  585MOL0     H80715   8.524  11.352  10.436 -2.4769 -1.2805  3.6914
  585MOL0     H80716   8.358  11.772  10.495 -4.1976  1.5815 -1.2485
  585MOL0     H80717   8.396  12.005  10.428 -0.1561 -1.4697  1.1453
  585MOL0     H80718   8.616  12.055  10.040  2.1302 -0.1904  2.4514
  585MOL0     H80719   8.472  12.131   9.999  1.8730  0.4902  0.0068
  585MOL0     H80720   8.666  12.280   9.965 -0.8014  0.6837  0.1080
  585MOL0     H80721   8.706  12.271  10.131  1.5490  2.6519 -1.7020
  585MOL0     H80722   8.441  12.374  10.034 -0.8231 -0.3193  2.0950
  585MOL0     H80723   8.502  12.386  10.201 -0.7339  1.7120  0.6242
  585MOL0     H80724   8.620  12.532   9.962 -2.8104 -1.7398 -1.3692
  585MOL0     H80725   8.692  12.534  10.121 -0.5541 -1.4054  0.2700
  585MOL0     H80726   8.345  12.804  10.131 -0.1208  0.6613  2.7187
  585MOL0     H80727   8.483  11.900  10.030  0.4481 -1.8990 -0.1634
  585MOL0     H80728   8.554  11.559  10.076  0.3396 -2.3976 -4.2965
  585MOL0     H80729   8.382  11.589  10.042  0.4320 -2.2785  4.4679
  585MOL0     H80730   8.517  11.691   9.971 -3.9765  2.1010 -0.9691
  586MOL0     O80731  11.594  10.193   2.602  0.0868 -0.6964 -0.1939
  586MOL0     C80732  11.593  10.313   2.573  0.2899  0.4106  0.5296
  586MOL0     O80733  11.498  10.369   2.501  0.5531 -0.8871 -0.6208
  586MOL0     C80734  11.403  10.305   2.434  0.7464  0.1220  0.6013
  586MOL0     C80735  11.282  10.368   2.409  0.9384  0.8552  0.1615
  586MOL0     C80736  11.193  10.315   2.314 -0.5917 -0.2144 -0.0789
  586MOL0     C80737  11.218  10.194   2.249  0.4442 -0.4854 -0.6304
  586MOL0     O80738  11.117  10.162   2.166  0.1197 -1.2254 -0.3356
  586MOL0     C80739  11.146  10.062   2.080  0.2348 -0.1374  0.6270
  586MOL0     C80740  11.020  10.011   2.010 -0.2821  0.2807 -0.3959
  586MOL0     C80741  11.062   9.885   1.931 -0.2960 -0.2043  0.1428
  586MOL0     C80742  10.938   9.862   1.841 -0.5665  0.3581 -1.3987
  586MOL0     C80743  10.973   9.757   1.739 -0.4352 -0.1397 -0.0324
  586MOL0     C80744  10.844   9.720   1.663  0.3699 -0.1747 -0.1091
  586MOL0     C80745  10.869   9.633   1.536 -0.2336 -0.3867 -1.1442
  586MOL0     C80746  10.756   9.630   1.422  0.3699 -0.2401  0.2219
  586MOL0     N80747  10.646   9.547   1.467 -0.2334 -0.3529 -0.1526
  586MOL0     C80748  10.649   9.411   1.458 -1.0090 -0.3775  0.3991
  586MOL0     C80749  10.526   9.372   1.489 -0.5880 -0.1826 -1.1389
  586MOL0     C80750  10.481   9.225   1.498 -0.1040  0.2477  1.0020
  586MOL0     C80751  10.350   9.194   1.582 -0.4602 -0.0622  0.4050
  586MOL0     C80752  10.308   9.038   1.574 -0.5998  0.8911  0.4300
  586MOL0     C80753  10.299   8.977   1.436  0.0840 -0.2090 -0.2268
  586MOL0     O80754  10.253   8.838   1.432  0.0599  0.0223  0.2320
  586MOL0     C80755  10.121   8.806   1.437  0.0569  0.1262  0.0587
  586MOL0     C80756  10.097   8.670   1.421  0.3861  0.8125 -0.1753
  586MOL0     C80757   9.968   8.620   1.430  0.1691 -0.4957  0.0441
  586MOL0     C80758   9.949   8.475   1.393 -0.3558  0.4552  0.2020
  586MOL0     C80759   9.862   8.712   1.448 -0.2481  0.1262 -0.7572
  586MOL0     C80760   9.713   8.666   1.458 -0.1367  0.7841 -0.4829
  586MOL0     O80761   9.614   8.758   1.447 -0.2138  0.2298  0.4788
  586MOL0     C80762   9.503   8.733   1.526  0.1299 -0.0686 -0.3987
  586MOL0     C80763   9.507   8.706   1.670 -0.3889 -0.6026 -0.0923
  586MOL0     C80764   9.385   8.697   1.741  0.2911  0.9452 -0.0301
  586MOL0     C80765   9.262   8.720   1.677  0.4235  0.3755 -0.1097
  586MOL0     O80766   9.137   8.715   1.744  0.1693  0.1650 -0.0861
  586MOL0     C80767   9.144   8.713   1.885  0.9668 -0.0418  0.7888
  586MOL0     C80768   9.001   8.719   1.930 -0.5390 -0.1664  0.4694
  586MOL0     C80769   8.981   8.777   2.073  0.1935  0.0173 -0.2320
  586MOL0     C80770   8.832   8.773   2.118  0.0543  0.0835 -0.5618
  586MOL0     C80771   8.823   8.866   2.237  0.4406  0.2654  0.0526
  586MOL0     C80772   8.689   8.888   2.297  0.7172 -0.0723 -0.5778
  586MOL0     C80773   8.714   9.006   2.393 -0.8357 -0.4474  0.8134
  586MOL0     C80774   8.672   8.972   2.538  0.0922  0.1569 -0.2658
  586MOL0    Cl80775   8.507   9.027   2.547 -0.0604 -0.1135  0.2685
  586MOL0     C80776   9.253   8.736   1.542 -0.9736  0.2181 -0.4134
  586MOL0     C80777   9.374   8.754   1.465 -0.1205 -0.4020  0.1773
  586MOL0     O80778   9.693   8.544   1.478  0.0528  0.2625  0.8838
  586MOL0     C80779   9.891   8.857   1.454 -0.2947 -0.5150  0.6745
  586MOL0     C80780  10.017   8.905   1.438 -0.2295 -1.1566 -0.3004
  586MOL0     N80781  10.455   9.481   1.541  1.3617 -0.0299 -0.8021
  586MOL0     N80782  10.528   9.591   1.524  0.0311  0.2603 -0.6028
  586MOL0     C80783  11.346  10.124   2.273 -0.9097  0.1903  0.1119
  586MOL0     C80784  11.437  10.188   2.359 -0.7995  0.2551 -0.2582
  586MOL0     C80785  11.695  10.404   2.622 -0.7461  0.5301 -0.3065
  586MOL0     C80786  11.666  10.539   2.642  0.4605 -0.0703 -0.1011
  586MOL0     C80787  11.763  10.634   2.674  0.1686  0.9545 -0.3750
  586MOL0     C80788  11.895  10.595   2.694 -0.1660 -0.0400  0.4602
  586MOL0     O80789  11.981  10.684   2.748 -0.9152 -0.4549  0.2347
  586MOL0     C80790  12.011  10.807   2.670  0.6324  0.6821 -0.1326
  586MOL0     C80791  12.109  10.897   2.741  0.5099  0.3930 -0.1554
  586MOL0     C80792  12.234  10.830   2.802 -0.9188 -0.3164  0.8692
  586MOL0     C80793  12.314  10.746   2.698 -0.4712  0.1960 -0.1133
  586MOL0     C80794  12.353  10.822   2.584  0.7202 -0.1729  0.0702
  586MOL0     C80795  12.391  10.890   2.479 -0.0244  0.6068 -0.2140
  586MOL0     C80796  11.921  10.455   2.693 -0.0114  0.0279  0.1001
  586MOL0     C80797  11.828  10.362   2.643  0.3631  0.8247  0.3559
  586MOL0     C80798  11.872  10.220   2.624  0.4562  0.1086 -0.7001
  586MOL0     H80799  11.267  10.462   2.463 -0.6224 -0.1187  1.5375
  586MOL0     H80800  11.097  10.363   2.294 -1.1550 -1.9909 -2.0427
  586MOL0     H80801  11.175   9.983   2.151  2.2491  0.4971  0.5569
  586MOL0     H80802  11.227  10.081   2.009 -0.4488  1.3773  0.2326
  586MOL0     H80803  10.949   9.983   2.088 -0.9105  1.2160 -0.6130
  586MOL0     H80804  10.980  10.088   1.943 -3.5904 -0.3459  0.6643
  586MOL0     H80805  11.146   9.903   1.863 -0.9905 -0.8686 -0.9146
  586MOL0     H80806  11.086   9.793   1.984  0.7525  0.3467  0.6445
  586MOL0     H80807  10.864   9.821   1.910 -0.7346  1.2951 -1.0120
  586MOL0     H80808  10.898   9.950   1.789  2.2365  1.7642 -1.3168
  586MOL0     H80809  11.016   9.670   1.790 -4.1692 -1.1060  1.8396
  586MOL0     H80810  11.045   9.800   1.668 -0.5924  2.4975  1.2791
  586MOL0     H80811  10.772   9.666   1.724 -1.9554  1.7534 -0.9898
  586MOL0     H80812  10.796   9.812   1.627  1.4093  0.2727 -0.3881
  586MOL0     H80813  10.897   9.530   1.563  2.4933  1.2107  3.0423
  586MOL0     H80814  10.948   9.691   1.487 -0.1167  1.0342  0.6400
  586MOL0     H80815  10.719   9.728   1.391 -1.1393 -1.3510 -1.7344
  586MOL0     H80816  10.797   9.582   1.333  3.6932  0.8869  0.9782
  586MOL0     H80817  10.739   9.354   1.437  1.0554  1.5245  3.2411
  586MOL0     H80818  10.565   9.171   1.542  0.3943  2.2541  2.6608
  586MOL0     H80819  10.454   9.190   1.398  5.2092  0.4650 -0.8306
  586MOL0     H80820  10.362   9.223   1.687 -1.1481  1.6843  0.0358
  586MOL0     H80821  10.266   9.248   1.538  0.4946  1.6285  0.5544
  586MOL0     H80822  10.381   8.980   1.630  1.4629  0.2416 -2.6443
  586MOL0     H80823  10.212   9.038   1.625 -0.6873  5.2842  0.6671
  586MOL0     H80824  10.229   9.048   1.390  1.8055  0.3237 -2.1784
  586MOL0     H80825  10.392   8.989   1.379 -0.8142  0.6979 -1.5548
  586MOL0     H80826  10.175   8.602   1.387 -1.2641 -2.6127  2.2118
  586MOL0     H80827   9.920   8.424   1.485  0.7540  2.6794  1.8616
  586MOL0     H80828  10.036   8.431   1.343  1.2877  4.0439 -0.4158
  586MOL0     H80829   9.866   8.467   1.322 -0.7299  0.0299  0.6767
  586MOL0     H80830   9.601   8.689   1.722  0.2984 -2.5057 -1.8244
  586MOL0     H80831   9.395   8.693   1.849  4.6225  1.9463 -0.2354
  586MOL0     H80832   9.197   8.630   1.933 -0.4776 -1.4247  0.0729
  586MOL0     H80833   9.185   8.811   1.914 -1.3746  0.8979  1.1155
  586MOL0     H80834   8.946   8.782   1.860  2.0466  1.6006 -0.1147
  586MOL0     H80835   8.961   8.617   1.927  0.0419 -0.4450  1.6271
  586MOL0     H80836   9.019   8.880   2.073  4.1600 -1.2733  0.5633
  586MOL0     H80837   9.048   8.723   2.142  0.6673  1.1647  0.2342
  586MOL0     H80838   8.805   8.672   2.151 -1.2890  1.0768  1.5855
  586MOL0     H80839   8.769   8.799   2.033 -0.1505  0.1577 -0.3855
  586MOL0     H80840   8.891   8.838   2.318  0.0276 -4.3082 -0.9138
  586MOL0     H80841   8.862   8.962   2.199  1.1068 -0.1619 -0.3709
  586MOL0     H80842   8.645   8.796   2.338  2.2461 -0.8996 -0.7189
  586MOL0     H80843   8.619   8.931   2.225  1.5588  1.8025 -0.3405
  586MOL0     H80844   8.660   9.091   2.352 -0.5052 -0.5049  0.2496
  586MOL0     H80845   8.820   9.032   2.408 -0.2201 -2.4769  0.2087
  586MOL0     H80846   8.733   9.036   2.601 -1.4643  0.5122  0.9542
  586MOL0     H80847   8.676   8.865   2.558 -0.2322 -0.0304 -1.1303
  586MOL0     H80848   9.155   8.735   1.496  0.8579 -1.3071 -4.8086
  586MOL0     H80849   9.371   8.770   1.358  0.5311 -1.5445 -0.0287
  586MOL0     H80850   9.804   8.920   1.464 -2.1236 -2.8053  0.1668
  586MOL0     H80851  10.031   9.012   1.446 -0.5667 -1.1000 -0.4165
  586MOL0     H80852  11.381  10.035   2.221  1.6076  0.6167  0.9679
  586MOL0     H80853  11.540  10.156   2.367 -0.9662 -0.5618 -1.1802
  586MOL0     H80854  11.562  10.558   2.621  0.5849 -3.0704 -4.8984
  586MOL0     H80855  11.744  10.739   2.694  1.4782  0.5037  4.6086
  586MOL0     H80856  12.040  10.779   2.568  0.4476  1.9403 -0.5507
  586MOL0     H80857  11.924  10.872   2.653  1.1649  0.9435 -2.1840
  586MOL0     H80858  12.069  10.961   2.820 -0.0825 -0.2081  0.0496
  586MOL0     H80859  12.138  10.970   2.665 -0.5794 -0.2376 -1.2272
  586MOL0     H80860  12.305  10.900   2.847  0.5346 -0.4133 -1.1385
  586MOL0     H80861  12.198  10.771   2.887 -0.5981 -0.5959  0.8111
  586MOL0     H80862  12.257  10.659   2.663 -0.4816 -0.9277  2.4755
  586MOL0     H80863  12.393  10.700   2.757 -1.8563 -2.4312 -0.1391
  586MOL0     H80864  12.415  10.955   2.397  0.4385  0.2717 -0.3478
  586MOL0     H80865  12.023  10.434   2.723 -0.5628  0.4572  2.5139
  586MOL0     H80866  11.981  10.221   2.609  0.5237 -1.0787 -0.4159
  586MOL0     H80867  11.840  10.162   2.710 -1.0142  0.2490 -1.1340
  586MOL0     H80868  11.835  10.175   2.531  1.5996 -1.8877 -0.2568
  587MOL0     O80869   7.361  10.127   6.991  0.0049 -0.2756 -0.8517
  587MOL0     C80870   7.423  10.033   7.047  0.2330 -0.6921 -0.1071
  587MOL0     O80871   7.390   9.969   7.165 -1.1534  0.6870  0.0579
  587MOL0     C80872   7.279   9.988   7.237 -0.8493 -0.6644  0.0110
  587MOL0     C80873   7.152  10.001   7.173 -0.4058 -0.2974 -0.4590
  587MOL0     C80874   7.051  10.047   7.256  0.3379  0.8797  0.6796
  587MOL0     C80875   7.068  10.065   7.401 -0.4778  0.1652 -0.1802
  587MOL0     O80876   6.960  10.103   7.480 -0.1439 -0.0859  0.1489
  587MOL0     C80877   6.827  10.043   7.452  0.7942 -0.5354 -0.0053
  587MOL0     C80878   6.721  10.076   7.576 -0.4787 -0.1289 -0.3052
  587MOL0     C80879   6.747  10.005   7.704  0.8749  0.0912 -0.2014
  587MOL0     C80880   6.680   9.870   7.699 -0.0505 -0.1423  0.5958
  587MOL0     C80881   6.714   9.779   7.822  0.0005 -0.1025  0.3774
  587MOL0     C80882   6.865   9.756   7.858  0.0519 -0.1783 -0.3478
  587MOL0     C80883   6.958   9.721   7.729 -0.6532 -0.5580 -0.1835
  587MOL0     C80884   6.908   9.595   7.644  1.0558 -0.2567  0.0325
  587MOL0     N80885   7.009   9.570   7.543  0.4234 -0.1133  0.6897
  587MOL0     C80886   7.038   9.637   7.429  1.0033 -0.3028 -0.8062
  587MOL0     C80887   7.151   9.586   7.376 -0.0659 -0.2449 -0.5404
  587MOL0     C80888   7.213   9.643   7.249  0.2176 -0.0014  0.4726
  587MOL0     C80889   7.263   9.520   7.158  0.0430 -0.0799  0.0310
  587MOL0     C80890   7.293   9.547   7.014  0.1505  0.2314  0.5726
  587MOL0     C80891   7.407   9.642   6.970 -0.2975  0.2420 -0.5606
  587MOL0     O80892   7.517   9.622   7.055  0.3274 -0.4001 -0.5012
  587MOL0     C80893   7.590   9.508   7.040 -0.3524  0.5577  1.1246
  587MOL0     C80894   7.665   9.496   6.918 -0.7786 -0.3884 -0.2765
  587MOL0     C80895   7.737   9.384   6.882  0.7565 -0.4869 -0.2288
  587MOL0     C80896   7.780   9.387   6.733 -0.4924 -0.6742 -1.5240
  587MOL0     C80897   7.739   9.278   6.977 -0.6404  0.9953  0.0690
  587MOL0     C80898   7.808   9.142   6.954  0.4350 -0.0274  0.0945
  587MOL0     O80899   7.922   9.144   6.872  0.5363 -0.1238  0.1723
  587MOL0     C80900   7.970   9.023   6.832 -0.2645 -0.4034 -0.1842
  587MOL0     C80901   8.104   9.014   6.807 -0.0560 -0.2121 -0.3426
  587MOL0     C80902   8.162   8.907   6.745  0.0631  0.2755 -0.9443
  587MOL0     C80903   8.079   8.800   6.713 -0.5330  0.0091  0.5512
  587MOL0     O80904   8.159   8.692   6.682 -0.3177  0.2328 -0.6865
  587MOL0     C80905   8.102   8.574   6.619 -0.5135  0.1679  0.0375
  587MOL0     C80906   8.064   8.611   6.476  0.2293  0.6230 -0.3773
  587MOL0     C80907   8.189   8.659   6.390  0.4133  0.2937 -0.7397
  587MOL0     C80908   8.135   8.758   6.281 -0.0875 -0.2366  0.0188
  587MOL0     C80909   8.057   8.878   6.322 -0.9416 -0.0258  1.0660
  587MOL0     C80910   8.142   8.970   6.407 -0.8422  0.4807  0.2068
  587MOL0     C80911   8.061   9.087   6.452  0.4753  0.2177 -1.2581
  587MOL0     C80912   8.150   9.204   6.493 -0.3380  0.6959  0.3080
  587MOL0    Cl80913   8.067   9.362   6.517  0.1581  0.2361  0.5093
  587MOL0     C80914   7.944   8.808   6.726  0.5668  1.2398  0.2638
  587MOL0     C80915   7.889   8.910   6.792 -0.0011 -0.0910  0.2194
  587MOL0     O80916   7.740   9.050   7.001 -0.0667 -0.5054 -0.1726
  587MOL0     C80917   7.678   9.293   7.106 -0.2301 -0.1446 -0.3959
  587MOL0     C80918   7.602   9.405   7.135  0.9597  0.4962  1.0692
  587MOL0     N80919   7.187   9.479   7.458  0.2389  0.2857 -0.3546
  587MOL0     N80920   7.101   9.474   7.554 -0.4223 -0.2536 -0.7315
  587MOL0     C80921   7.191  10.050   7.447  0.1046  0.3333 -0.1872
  587MOL0     C80922   7.295  10.008   7.373 -0.0351  0.0162  0.0546
  587MOL0     C80923   7.539   9.987   6.964  0.2497  0.5062  0.1689
  587MOL0     C80924   7.654   9.953   7.040 -0.5767 -0.3268  0.1085
  587MOL0     C80925   7.768   9.895   6.982  0.5595  0.0718 -0.5927
  587MOL0     C80926   7.769   9.881   6.844  0.1974 -0.4521 -0.5807
  587MOL0     O80927   7.859   9.828   6.767 -0.2642  0.4830 -0.5919
  587MOL0     C80928   7.991   9.808   6.816  0.0695 -0.0046 -0.7304
  587MOL0     C80929   8.035   9.671   6.879  0.2572  0.0691  0.2319
  587MOL0     C80930   8.169   9.675   6.944  0.7352 -1.4419 -0.8059
  587MOL0     C80931   8.225   9.538   6.997  0.5635  0.1516 -0.7890
  587MOL0     C80932   8.256   9.443   6.888 -0.7217 -0.5626  0.8348
  587MOL0     C80933   8.274   9.362   6.793 -0.2148 -1.0255 -0.4476
  587MOL0     C80934   7.663   9.918   6.767 -0.7399 -0.7663 -0.4374
  587MOL0     C80935   7.547   9.977   6.822  0.3318 -0.5962 -0.4406
  587MOL0     C80936   7.435  10.006   6.732 -0.1471  0.7994 -0.1909
  587MOL0     H80937   7.132   9.985   7.068 -3.6143  0.3430 -0.0491
  587MOL0     H80938   6.958  10.057   7.201  0.3930  3.6377  0.9643
  587MOL0     H80939   6.838   9.934   7.454  0.8505 -0.5312 -0.1114
  587MOL0     H80940   6.780  10.085   7.362 -0.5316  1.3258  1.4724
  587MOL0     H80941   6.722  10.183   7.598 -1.8950  0.3657 -2.3871
  587MOL0     H80942   6.619  10.047   7.551 -1.0635 -0.0153  1.7675
  587MOL0     H80943   6.851   9.987   7.733 -0.0583 -1.8002  2.4249
  587MOL0     H80944   6.716  10.063   7.792 -1.9868 -4.4907  2.1906
  587MOL0     H80945   6.571   9.875   7.688  0.1176  1.8340 -0.5786
  587MOL0     H80946   6.708   9.822   7.605 -0.8847  0.4550  0.0244
  587MOL0     H80947   6.672   9.680   7.804 -0.9898  0.8331 -3.3538
  587MOL0     H80948   6.660   9.822   7.907 -1.9731  0.2172 -0.9496
  587MOL0     H80949   6.903   9.849   7.904 -0.4679 -0.4990  0.7726
  587MOL0     H80950   6.870   9.673   7.929 -2.7768 -2.3129 -2.4260
  587MOL0     H80951   7.057   9.689   7.764 -0.7801 -1.2739 -0.4664
  587MOL0     H80952   6.964   9.805   7.659  0.1413  1.2748  1.9503
  587MOL0     H80953   6.899   9.508   7.710 -2.9203  1.1407  1.6500
  587MOL0     H80954   6.816   9.617   7.589  2.7382 -2.3664 -4.0357
  587MOL0     H80955   6.984   9.724   7.393 -0.4925 -1.1239 -0.6016
  587MOL0     H80956   7.307   9.695   7.266  0.1989  0.1852  0.0064
  587MOL0     H80957   7.147   9.692   7.177 -0.2960 -0.1892  0.8034
  587MOL0     H80958   7.341   9.471   7.217  0.5698  2.6997  1.8713
  587MOL0     H80959   7.180   9.449   7.155  0.9870 -1.3266  1.7697
  587MOL0     H80960   7.317   9.453   6.964  0.1629 -0.1849  1.3366
  587MOL0     H80961   7.198   9.575   6.966 -0.3517 -1.7152  0.3397
  587MOL0     H80962   7.434   9.616   6.868 -1.5117 -1.8653 -0.4038
  587MOL0     H80963   7.385   9.749   6.964  0.3490  0.6540  2.6041
  587MOL0     H80964   7.679   9.577   6.846  3.8567 -2.7264 -2.4665
  587MOL0     H80965   7.707   9.344   6.663  1.6240 -3.0834 -2.4159
  587MOL0     H80966   7.868   9.324   6.723  0.2289 -0.0053  0.2821
  587MOL0     H80967   7.807   9.490   6.709 -2.7219 -0.1437 -2.0513
  587MOL0     H80968   8.158   9.104   6.837  0.3715  0.6207 -3.2939
  587MOL0     H80969   8.270   8.898   6.738  0.6337  0.5299  4.1865
  587MOL0     H80970   8.164   8.484   6.615 -0.2503  0.3795 -1.9911
  587MOL0     H80971   8.017   8.528   6.670 -1.2827 -0.4191 -1.6859
  587MOL0     H80972   8.040   8.513   6.435 -0.5166  0.7305 -0.2060
  587MOL0     H80973   7.978   8.678   6.464  0.1520  0.3324 -1.5469
  587MOL0     H80974   8.230   8.575   6.334 -2.6279 -2.1041  0.3884
  587MOL0     H80975   8.261   8.705   6.459 -0.7610  0.5299  0.3669
  587MOL0     H80976   8.069   8.703   6.214 -2.7935  1.2645  1.2693
  587MOL0     H80977   8.216   8.798   6.220 -0.6772  2.6432  0.9187
  587MOL0     H80978   8.029   8.934   6.233  0.1326 -0.2688  0.5570
  587MOL0     H80979   7.962   8.847   6.367  0.0394 -1.2800  2.3578
  587MOL0     H80980   8.239   8.993   6.360 -0.8655  1.5342  0.6364
  587MOL0     H80981   8.161   8.927   6.505 -2.0553 -1.9409 -0.5521
  587MOL0     H80982   7.999   9.063   6.539  1.7875 -1.6730 -0.8000
  587MOL0     H80983   7.996   9.128   6.374 -3.2527  1.3232  2.0923
  587MOL0     H80984   8.219   9.215   6.410  0.2752 -4.8144 -0.2828
  587MOL0     H80985   8.209   9.177   6.581  1.0582  1.5821 -0.3394
  587MOL0     H80986   7.894   8.724   6.678  1.3718  0.0565  1.4045
  587MOL0     H80987   7.785   8.932   6.814 -0.1407 -0.1007 -0.3953
  587MOL0     H80988   7.677   9.217   7.184  0.8169  0.8747  0.6619
  587MOL0     H80989   7.545   9.419   7.227 -1.1480 -0.8578  0.0304
  587MOL0     H80990   7.194  10.064   7.555 -0.4451 -0.0400 -0.1214
  587MOL0     H80991   7.395  10.015   7.414  0.4189  0.9060 -1.1179
  587MOL0     H80992   7.640   9.954   7.148 -3.4746  1.0808 -0.1744
  587MOL0     H80993   7.838   9.850   7.052 -1.0957 -2.2782 -0.3279
  587MOL0     H80994   8.052   9.815   6.726  1.8966 -2.0762  0.2628
  587MOL0     H80995   8.021   9.896   6.875 -2.0287 -0.5105  1.2535
  587MOL0     H80996   8.024   9.587   6.810 -0.1467  0.8271 -0.6493
  587MOL0     H80997   7.961   9.636   6.951 -2.3600 -0.8806 -2.6669
  587MOL0     H80998   8.255   9.706   6.883  0.0520  0.4056 -0.8850
  587MOL0     H80999   8.159   9.739   7.032 -0.4620 -3.1125  0.3374
  587MOL0     H81000   8.153   9.503   7.071 -2.2319  1.3471 -2.7788
  587MOL0     H81001   8.326   9.552   7.036  0.4265 -2.1722  0.5622
  587MOL0     H81002   8.307   9.313   6.703 -1.0631 -1.0447 -0.7583
  587MOL0     H81003   7.673   9.912   6.659  0.0784 -4.0179 -0.2886
  587MOL0     H81004   7.364  10.083   6.762 -0.7180 -0.3925  1.7225
  587MOL0     H81005   7.483  10.034   6.638  3.6251 -0.5580  1.1440
  587MOL0     H81006   7.372   9.919   6.708 -3.3688  3.6669 -3.3740
  588MOL0     O81007   0.965   3.175   9.835 -0.7833  0.3561 -0.9142
  588MOL0     C81008   1.080   3.153   9.879  0.4863  0.8615 -0.1317
  588MOL0     O81009   1.177   3.254   9.901 -0.0353  0.9232  0.2668
  588MOL0     C81010   1.154   3.382   9.864 -0.5509  0.5477 -0.5348
  588MOL0     C81011   1.060   3.465   9.921 -0.7762 -0.2915 -0.5018
  588MOL0     C81012   1.041   3.595   9.863 -0.4802  0.3626  0.2787
  588MOL0     C81013   1.121   3.645   9.760 -0.3587 -0.7117  0.0357
  588MOL0     O81014   1.124   3.782   9.731 -0.0326 -0.6748 -0.9010
  588MOL0     C81015   1.050   3.867   9.811  0.1315  0.7593 -0.3776
  588MOL0     C81016   1.091   4.018   9.801  0.7462  0.3012  0.2699
  588MOL0     C81017   1.247   4.032   9.796 -1.0140 -0.1327 -0.4874
  588MOL0     C81018   1.297   4.008   9.938  0.0872  0.2662  0.0007
  588MOL0     C81019   1.443   4.052   9.965 -0.6650 -0.2353  0.5005
  588MOL0     C81020   1.545   3.964   9.890  0.4253 -0.8010  0.0153
  588MOL0     C81021   1.538   3.811   9.901  0.0084  0.5615  0.0634
  588MOL0     C81022   1.630   3.731   9.810 -0.7549  0.9186 -0.6088
  588MOL0     N81023   1.678   3.615   9.884 -1.4894  0.3802 -0.7947
  588MOL0     C81024   1.609   3.511   9.930  0.5731 -0.2238 -0.0011
  588MOL0     C81025   1.690   3.427   9.989  1.2857  0.8076 -0.1748
  588MOL0     C81026   1.655   3.288  10.024  0.3324 -0.2914  0.7530
  588MOL0     C81027   1.717   3.183   9.928 -0.3870  0.3140  0.8616
  588MOL0     C81028   1.689   3.228   9.782  0.7265 -0.6279 -0.0545
  588MOL0     C81029   1.715   3.122   9.681 -0.4243  0.6349  0.1513
  588MOL0     O81030   1.663   2.994   9.713 -0.2513 -0.1241 -0.6296
  588MOL0     C81031   1.543   2.959   9.656 -0.6496 -0.0456 -0.6100
  588MOL0     C81032   1.531   2.820   9.630 -0.2129 -0.6393 -0.1201
  588MOL0     C81033   1.400   2.769   9.616 -0.5562 -0.1285  0.0196
  588MOL0     C81034   1.392   2.617   9.605 -0.0052 -0.4087 -0.2306
  588MOL0     C81035   1.288   2.859   9.604  1.1136  0.6170  0.3258
  588MOL0     C81036   1.145   2.810   9.568 -0.3796 -0.0383  0.2446
  588MOL0     O81037   1.077   2.895   9.490 -0.0224 -0.5623  0.2506
  588MOL0     C81038   0.947   2.876   9.459  0.6581 -0.4779  0.2240
  588MOL0     C81039   0.877   2.757   9.473  0.0996 -0.7448  0.2894
  588MOL0     C81040   0.744   2.752   9.429 -0.4340 -0.4826  0.0214
  588MOL0     C81041   0.670   2.862   9.379 -0.3653  0.8875 -0.1648
  588MOL0     O81042   0.544   2.837   9.335 -0.3675 -0.8838 -0.9533
  588MOL0     C81043   0.467   2.961   9.299  0.2858  0.1017 -0.8609
  588MOL0     C81044   0.328   2.931   9.253 -0.4822  0.1763  0.5008
  588MOL0     C81045   0.276   2.792   9.319 -0.2490 -0.9752 -0.0174
  588MOL0     C81046   0.129   2.767   9.277  0.1614 -0.2608  0.3539
  588MOL0     C81047   0.036   2.880   9.318 -0.1976 -0.3326  0.0619
  588MOL0     C81048  -0.106   2.847   9.272  0.7574 -0.3534  0.0210
  588MOL0     C81049  -0.129   2.869   9.124  0.2280  0.6639 -0.3648
  588MOL0     C81050  -0.122   2.741   9.036 -0.0863  0.1437  1.0264
  588MOL0    Cl81051  -0.135   2.824   8.887 -0.2544  0.4640 -0.2801
  588MOL0     C81052   0.743   2.984   9.369 -0.1487  0.3933 -0.1489
  588MOL0     C81053   0.881   2.984   9.398 -0.1185 -1.0510  0.0160
  588MOL0     O81054   1.102   2.725   9.650  0.9907 -0.5255  0.2101
  588MOL0     C81055   1.316   2.995   9.611  0.2783  0.4773  0.2027
  588MOL0     C81056   1.437   3.049   9.652 -0.3426 -0.0311 -0.1784
  588MOL0     N81057   1.810   3.494  10.001 -0.0651 -0.9107 -0.1231
  588MOL0     N81058   1.800   3.604   9.935  0.4019  0.1426  0.8326
  588MOL0     C81059   1.219   3.558   9.706 -0.7786 -0.6387 -0.7841
  588MOL0     C81060   1.238   3.428   9.762  0.5180  0.2247  0.4011
  588MOL0     C81061   1.117   3.012   9.925 -0.0448  0.4813 -0.3093
  588MOL0     C81062   1.244   2.997   9.967 -0.3561 -0.4369  0.1104
  588MOL0     C81063   1.295   2.859   9.998 -1.6095 -0.0375 -0.0884
  588MOL0     C81064   1.215   2.748  10.001  1.1300 -0.2506 -0.2785
  588MOL0     O81065   1.273   2.624  10.029  0.6514 -0.0816 -0.4727
  588MOL0     C81066   1.196   2.503  10.037  0.1729  0.4728  0.0857
  588MOL0     C81067   1.127   2.491  10.174 -0.3084  0.3612 -0.3336
  588MOL0     C81068   1.008   2.391  10.186  0.5102 -0.2149  0.6405
  588MOL0     C81069   1.023   2.238  10.182  0.1860 -0.5494  0.1331
  588MOL0     C81070   1.091   2.198  10.305  1.0257  1.0360 -0.0737
  588MOL0     C81071   1.132   2.159  10.416  0.0085 -0.3842 -0.7279
  588MOL0     C81072   1.083   2.774   9.969  0.4697 -0.6101  0.4333
  588MOL0     C81073   1.035   2.900   9.919 -0.0451  0.1748 -0.1358
  588MOL0     C81074   0.889   2.898   9.883  0.1711  0.9272 -0.2435
  588MOL0     H81075   1.009   3.419  10.006  2.9872 -2.9618  0.5807
  588MOL0     H81076   0.958   3.641   9.915 -0.9552  1.4723 -1.3592
  588MOL0     H81077   1.056   3.847   9.918  3.5536 -1.0422 -0.7494
  588MOL0     H81078   0.946   3.857   9.780  0.0606 -2.5153  0.6129
  588MOL0     H81079   1.056   4.064   9.708 -0.9629 -1.3765  0.0236
  588MOL0     H81080   1.048   4.085   9.877 -3.0604 -1.6808  0.1056
  588MOL0     H81081   1.280   3.967   9.714  2.9386 -0.5480  1.2189
  588MOL0     H81082   1.281   4.133   9.774 -1.2957  0.4383  1.5562
  588MOL0     H81083   1.236   4.065  10.009  0.6964  0.8680  0.0622
  588MOL0     H81084   1.285   3.904   9.968  0.2343  0.9463  2.6983
  588MOL0     H81085   1.457   4.032  10.072  0.6782 -1.4238  0.1322
  588MOL0     H81086   1.458   4.159   9.947 -0.0734 -0.3843  0.0650
  588MOL0     H81087   1.525   3.979   9.783 -0.7653 -2.3431 -0.0179
  588MOL0     H81088   1.644   4.004   9.912  0.7245  0.7798 -3.4601
  588MOL0     H81089   1.437   3.771   9.888  0.9848 -2.3945  0.7657
  588MOL0     H81090   1.557   3.792  10.007  0.9889  1.4842  0.0746
  588MOL0     H81091   1.584   3.687   9.721 -1.7218  1.0877 -0.1997
  588MOL0     H81092   1.720   3.787   9.780  0.3206 -0.5224 -0.1621
  588MOL0     H81093   1.510   3.482   9.897  0.4763  0.8947 -0.7607
  588MOL0     H81094   1.547   3.272  10.030 -0.2967  3.0775  0.3213
  588MOL0     H81095   1.686   3.270  10.128 -2.0938 -0.9959  1.4181
  588MOL0     H81096   1.825   3.185   9.943  0.0855 -1.2296 -1.6346
  588MOL0     H81097   1.688   3.080   9.950 -1.8676  0.2500 -1.0795
  588MOL0     H81098   1.585   3.263   9.774  1.3195  1.1433 -0.2170
  588MOL0     H81099   1.749   3.313   9.751 -4.2992  2.6494 -2.1807
  588MOL0     H81100   1.693   3.166   9.583  0.0731  1.3637  0.3571
  588MOL0     H81101   1.820   3.094   9.670 -0.5696  0.5296 -1.0989
  588MOL0     H81102   1.605   2.742   9.614 -2.8423 -3.5341  0.8492
  588MOL0     H81103   1.313   2.586   9.535  1.3121 -1.9040 -1.1390
  588MOL0     H81104   1.355   2.571   9.697 -0.6222 -2.5958 -1.4701
  588MOL0     H81105   1.489   2.576   9.577 -0.5830 -0.6563 -2.0036
  588MOL0     H81106   0.931   2.667   9.498 -1.9205 -2.5128 -1.2819
  588MOL0     H81107   0.692   2.658   9.445  1.4122 -1.9388 -1.9184
  588MOL0     H81108   0.451   3.016   9.393  5.4663 -0.0665  0.4615
  588MOL0     H81109   0.519   3.028   9.231 -0.2180 -0.7099 -2.0782
  588MOL0     H81110   0.266   3.021   9.262 -0.1071  0.4575  0.3148
  588MOL0     H81111   0.331   2.902   9.147  0.2705 -0.4399  0.6812
  588MOL0     H81112   0.285   2.803   9.427 -0.3522  0.6661 -0.1436
  588MOL0     H81113   0.339   2.708   9.287  3.2334  1.5085 -0.2931
  588MOL0     H81114   0.093   2.679   9.330 -1.9374  0.3292  0.0075
  588MOL0     H81115   0.135   2.750   9.169  4.0888  1.9053  0.0572
  588MOL0     H81116   0.050   2.889   9.426  1.7808 -2.3487  0.0541
  588MOL0     H81117   0.062   2.979   9.279 -0.6176 -0.3965 -0.3811
  588MOL0     H81118  -0.179   2.914   9.319 -0.4941 -0.8631 -1.1070
  588MOL0     H81119  -0.137   2.750   9.313  0.4229 -0.1738  0.2026
  588MOL0     H81120  -0.070   2.946   9.074  2.0063  1.1594  2.3003
  588MOL0     H81121  -0.228   2.916   9.122 -0.6426 -0.8638  1.9336
  588MOL0     H81122  -0.213   2.693   9.072 -0.2678 -0.3987 -0.1200
  588MOL0     H81123  -0.031   2.686   9.062 -0.3180  0.1320  1.8208
  588MOL0     H81124   0.708   3.077   9.325  0.5134  0.4104 -0.6620
  588MOL0     H81125   0.936   3.070   9.360 -2.0457  0.6927  0.9396
  588MOL0     H81126   1.239   3.071   9.602  0.2665  0.2385 -2.7721
  588MOL0     H81127   1.450   3.154   9.674 -2.0588  0.1890 -0.0625
  588MOL0     H81128   1.280   3.596   9.625  3.6063 -1.2030  1.9171
  588MOL0     H81129   1.310   3.360   9.717  0.0390 -2.7327  3.6683
  588MOL0     H81130   1.321   3.070   9.947 -1.1229  0.5105  0.5211
  588MOL0     H81131   1.401   2.850  10.021 -1.9826 -1.0446  1.3720
  588MOL0     H81132   1.128   2.499   9.951 -1.2505 -2.4403  1.2057
  588MOL0     H81133   1.268   2.422  10.028  2.5410  2.5693 -1.4086
  588MOL0     H81134   1.089   2.593  10.186 -1.0324  0.4802 -2.9785
  588MOL0     H81135   1.200   2.471  10.254  0.5948 -0.2343 -1.2742
  588MOL0     H81136   0.961   2.410  10.283 -0.5654 -3.0578  0.7635
  588MOL0     H81137   0.950   2.411  10.095 -0.8709 -3.1879  0.7492
  588MOL0     H81138   1.082   2.200  10.099  3.6829 -2.8258  3.3031
  588MOL0     H81139   0.925   2.189  10.190 -0.8323  0.8148 -2.6261
  588MOL0     H81140   1.175   2.111  10.502  1.1168 -3.5544 -2.8540
  588MOL0     H81141   1.024   2.683   9.969 -1.3703  0.5309  1.0890
  588MOL0     H81142   0.829   2.964   9.947 -0.5965 -0.8312  0.9181
  588MOL0     H81143   0.873   2.940   9.783 -3.1254 -2.1682 -1.2397
  588MOL0     H81144   0.845   2.798   9.890  3.5856 -0.7523 -0.8301
  589MOL0     O81145   2.271   1.508   2.171 -0.1166 -0.0459  0.1938
  589MOL0     C81146   2.362   1.435   2.125  0.0448 -0.5846  0.2745
  589MOL0     O81147   2.499   1.445   2.148  0.4399  0.6195 -0.6853
  589MOL0     C81148   2.548   1.559   2.202  0.2936 -0.5656 -0.4857
  589MOL0     C81149   2.635   1.559   2.315 -0.4010 -0.0361 -0.0734
  589MOL0     C81150   2.695   1.678   2.366  0.9661  0.2435  0.0275
  589MOL0     C81151   2.646   1.806   2.322 -0.2298  1.0823  0.5141
  589MOL0     O81152   2.689   1.928   2.359 -0.2173 -0.2539  0.5075
  589MOL0     C81153   2.815   1.939   2.422  0.2803 -0.1167  0.8482
  589MOL0     C81154   2.817   2.074   2.501 -0.5351  0.9180 -0.7109
  589MOL0     C81155   2.952   2.110   2.562 -0.2254  0.5380 -0.7392
  589MOL0     C81156   2.995   2.259   2.562 -0.1836  0.6452 -0.5146
  589MOL0     C81157   2.983   2.356   2.438  0.1325 -1.0478  0.0351
  589MOL0     C81158   3.066   2.296   2.317 -0.3685 -0.4811  0.3669
  589MOL0     C81159   3.052   2.342   2.174  0.4803  0.4758  0.8385
  589MOL0     C81160   3.149   2.277   2.067 -0.0512 -0.0601 -0.8028
  589MOL0     N81161   3.149   2.126   2.075  0.1324 -0.0293  0.2327
  589MOL0     C81162   3.040   2.049   2.056 -0.3475 -0.5140  0.7108
  589MOL0     C81163   3.081   1.929   2.075  0.5533 -0.4873  0.7699
  589MOL0     C81164   3.010   1.803   2.075 -0.1972  0.9679  0.3446
  589MOL0     C81165   2.956   1.750   1.947 -0.9353 -0.5090  0.2493
  589MOL0     C81166   2.848   1.654   1.969 -0.1601 -0.8691  0.0391
  589MOL0     C81167   2.882   1.510   2.009  0.2838 -0.5047 -0.4355
  589MOL0     O81168   2.895   1.426   1.894  0.0543  0.2916  0.2297
  589MOL0     C81169   2.920   1.290   1.912  0.9691 -0.6417 -0.2919
  589MOL0     C81170   2.954   1.228   2.038  0.4063 -0.7182  0.1130
  589MOL0     C81171   2.968   1.089   2.045 -0.0454 -0.4116 -0.9546
  589MOL0     C81172   2.979   1.041   2.184  0.3930 -0.0354 -0.2157
  589MOL0     C81173   2.943   1.014   1.923  0.2318  0.9539 -0.3331
  589MOL0     C81174   2.929   0.864   1.932 -0.8957 -0.4866  0.0007
  589MOL0     O81175   2.960   0.798   1.816  0.0231  0.0320 -0.3755
  589MOL0     C81176   2.952   0.660   1.816  0.0845 -0.9789 -0.8615
  589MOL0     C81177   3.007   0.573   1.909 -0.3436 -0.1087  0.2993
  589MOL0     C81178   2.993   0.437   1.895  0.1645  0.2298 -0.1161
  589MOL0     C81179   2.932   0.382   1.784 -0.1277 -0.2165 -0.5286
  589MOL0     O81180   2.910   0.253   1.764  0.0940  0.0860 -0.2435
  589MOL0     C81181   2.978   0.158   1.844 -0.2422 -0.1273  0.1674
  589MOL0     C81182   2.943   0.010   1.811  0.1752  0.0962  0.5266
  589MOL0     C81183   2.928  -0.073   1.936 -0.4850  0.4775  0.2194
  589MOL0     C81184   3.060  -0.102   1.990 -1.5524  0.6790 -0.6719
  589MOL0     C81185   3.077  -0.240   2.058  0.1446  0.4722 -1.0328
  589MOL0     C81186   3.079  -0.364   1.967  0.3729  0.1467 -0.1523
  589MOL0     C81187   3.066  -0.497   2.051  0.5945  0.3564  0.6363
  589MOL0     C81188   3.081  -0.616   1.964  0.3720  1.1537  0.1639
  589MOL0    Cl81189   2.932  -0.653   1.864 -0.4793 -0.0377  0.0161
  589MOL0     C81190   2.876   0.474   1.698  0.1077  0.2412  1.0342
  589MOL0     C81191   2.888   0.606   1.713  0.0325 -0.1308  0.7368
  589MOL0     O81192   2.904   0.808   2.045  0.2449 -0.9263  0.7066
  589MOL0     C81193   2.905   1.076   1.801 -0.5980 -0.5096 -1.0633
  589MOL0     C81194   2.875   1.213   1.807 -0.4234  0.8319 -0.6208
  589MOL0     N81195   3.206   1.936   2.127 -0.6436  0.1020  0.4474
  589MOL0     N81196   3.246   2.054   2.130 -0.2143 -1.3968 -1.0481
  589MOL0     C81197   2.548   1.802   2.222 -0.2328  0.7913 -0.2104
  589MOL0     C81198   2.500   1.691   2.167 -0.8005  0.6208  0.3067
  589MOL0     C81199   2.303   1.338   2.019  0.1177 -0.3419  0.3597
  589MOL0     C81200   2.170   1.364   1.984 -0.2531  0.5329  0.0832
  589MOL0     C81201   2.112   1.280   1.891 -0.1521 -0.0750 -0.3428
  589MOL0     C81202   2.169   1.168   1.841  0.1051  0.1312  0.0421
  589MOL0     O81203   2.096   1.103   1.745 -0.3835 -0.1969 -0.5677
  589MOL0     C81204   2.149   0.979   1.693 -0.4789 -0.4935 -0.2694
  589MOL0     C81205   2.057   0.919   1.590 -0.3763 -0.5392 -0.0464
  589MOL0     C81206   2.115   0.792   1.510  0.4601 -0.1166  0.7782
  589MOL0     C81207   2.029   0.667   1.534  0.2175  0.1481 -0.0352
  589MOL0     C81208   1.898   0.695   1.475 -0.0083 -0.1265 -0.5389
  589MOL0     C81209   1.784   0.717   1.447  0.2969 -0.8306 -0.6046
  589MOL0     C81210   2.302   1.146   1.878 -0.2135  0.2707 -0.5505
  589MOL0     C81211   2.372   1.227   1.969  0.5133 -0.0097  0.5101
  589MOL0     C81212   2.507   1.170   2.022 -0.6492  0.3951 -0.1374
  589MOL0     H81213   2.663   1.455   2.332  0.8764  0.8723  4.6489
  589MOL0     H81214   2.765   1.660   2.448  0.1628 -0.1294  0.6462
  589MOL0     H81215   2.882   1.934   2.335  0.6403  1.0802  1.0454
  589MOL0     H81216   2.843   1.853   2.484  0.4101  0.1727  1.1939
  589MOL0     H81217   2.790   2.156   2.433  0.8931  0.0111 -2.4281
  589MOL0     H81218   2.743   2.066   2.582  2.0664 -2.0511  1.6299
  589MOL0     H81219   2.965   2.059   2.657  1.0477  0.4702 -0.9383
  589MOL0     H81220   3.032   2.078   2.495 -0.4430  2.1887 -1.8572
  589MOL0     H81221   2.939   2.316   2.636 -1.7839  1.0652 -1.9976
  589MOL0     H81222   3.101   2.259   2.591 -0.6909  2.5214  1.5595
  589MOL0     H81223   3.015   2.458   2.462 -0.1328 -0.6027 -1.4172
  589MOL0     H81224   2.879   2.364   2.407  0.7756  0.1501 -2.0134
  589MOL0     H81225   3.173   2.299   2.338 -0.2138  2.1955 -0.4657
  589MOL0     H81226   3.034   2.191   2.318 -0.6223 -0.4233 -0.4233
  589MOL0     H81227   3.067   2.450   2.176 -0.8743  0.6929  3.1124
  589MOL0     H81228   2.947   2.334   2.143  0.3447 -0.3142  1.4478
  589MOL0     H81229   3.112   2.306   1.969 -1.8992  0.3594 -0.0304
  589MOL0     H81230   3.249   2.316   2.088 -0.7245  0.2377  2.3802
  589MOL0     H81231   2.943   2.074   2.016 -0.4869 -1.6260  0.3011
  589MOL0     H81232   2.922   1.805   2.140 -1.4869  0.4849 -1.3089
  589MOL0     H81233   3.087   1.728   2.095  2.3399  3.1664 -0.6492
  589MOL0     H81234   2.914   1.835   1.891  0.7454 -1.1591 -2.1527
  589MOL0     H81235   3.034   1.716   1.879 -1.8681 -1.8927 -0.1798
  589MOL0     H81236   2.780   1.700   2.042  2.9627  1.3425  1.7958
  589MOL0     H81237   2.793   1.638   1.876 -0.1143 -1.7336  0.1543
  589MOL0     H81238   2.981   1.502   2.056  0.6627 -1.0802 -1.3077
  589MOL0     H81239   2.802   1.464   2.068  0.0897  0.0798 -0.2358
  589MOL0     H81240   2.960   1.288   2.127 -0.7074 -0.0720 -0.2319
  589MOL0     H81241   3.027   1.117   2.247  1.3727  0.2682 -1.2936
  589MOL0     H81242   3.036   0.949   2.204  1.1772  0.5174  0.1778
  589MOL0     H81243   2.880   1.010   2.218  0.6327 -3.5296 -2.2002
  589MOL0     H81244   3.056   0.612   1.997 -0.0571 -0.2470  0.1993
  589MOL0     H81245   3.041   0.370   1.965 -0.2903  0.8252  0.7878
  589MOL0     H81246   3.082   0.178   1.815 -0.6413  1.6314 -0.1745
  589MOL0     H81247   2.968   0.175   1.951 -2.5333  4.3463 -0.4949
  589MOL0     H81248   2.845   0.003   1.764  0.5977  1.6466 -0.6548
  589MOL0     H81249   3.009  -0.044   1.742 -3.8617 -1.9764 -2.1129
  589MOL0     H81250   2.884  -0.172   1.923  2.7975 -1.1528  0.4499
  589MOL0     H81251   2.866  -0.015   2.005 -2.4125 -1.2287  0.0174
  589MOL0     H81252   3.077  -0.025   2.066  1.3984 -2.5074  2.2525
  589MOL0     H81253   3.150  -0.096   1.928  0.4577  1.0868  2.0926
  589MOL0     H81254   3.176  -0.243   2.103  0.8362 -1.1266 -2.5119
  589MOL0     H81255   3.001  -0.248   2.136 -0.7127  0.5677 -1.8363
  589MOL0     H81256   3.174  -0.371   1.913  2.5341 -3.6256  3.5943
  589MOL0     H81257   2.990  -0.362   1.903 -0.3203  0.1825  0.8024
  589MOL0     H81258   2.968  -0.499   2.100  0.4589  0.5480  0.3752
  589MOL0     H81259   3.148  -0.510   2.122  1.1582 -1.4540 -0.2878
  589MOL0     H81260   3.111  -0.709   2.012  0.8992 -0.4775 -3.0224
  589MOL0     H81261   3.159  -0.594   1.890  3.3977  0.7753  3.0107
  589MOL0     H81262   2.808   0.446   1.618  0.1715  2.0483  0.2814
  589MOL0     H81263   2.847   0.688   1.655 -2.4986 -1.5042  0.4445
  589MOL0     H81264   2.869   1.018   1.717  0.7597 -2.4980 -0.3362
  589MOL0     H81265   2.847   1.272   1.720  0.4146  1.8901 -0.2072
  589MOL0     H81266   2.514   1.893   2.173  1.0971  2.1184  1.2208
  589MOL0     H81267   2.436   1.704   2.080  1.4590  0.2798 -1.5261
  589MOL0     H81268   2.110   1.449   2.015 -3.7874 -3.1328  4.7940
  589MOL0     H81269   2.006   1.294   1.873 -1.3024 -4.5970  1.3809
  589MOL0     H81270   2.246   0.985   1.644 -0.3637 -0.4731 -0.0391
  589MOL0     H81271   2.161   0.904   1.771  0.1869 -1.7107 -1.4960
  589MOL0     H81272   2.043   0.999   1.517  2.2799 -1.9485 -2.2881
  589MOL0     H81273   1.959   0.894   1.630  0.2684 -0.9001  1.3427
  589MOL0     H81274   2.122   0.822   1.405 -3.0190  0.9031  0.7368
  589MOL0     H81275   2.215   0.790   1.556  0.4362  0.7760  0.8780
  589MOL0     H81276   2.014   0.641   1.639  1.4179  2.2080  0.7041
  589MOL0     H81277   2.087   0.591   1.482 -1.5480 -1.8124  0.6785
  589MOL0     H81278   1.684   0.738   1.414  0.0940  2.6445  1.6304
  589MOL0     H81279   2.350   1.059   1.834  0.7293  0.1005  0.7497
  589MOL0     H81280   2.599   1.225   2.005 -0.1549 -0.9931 -2.3881
  589MOL0     H81281   2.487   1.146   2.127 -0.1051  2.6041  0.5203
  589MOL0     H81282   2.523   1.073   1.973  1.2044  0.5790  0.0539
  590MOL0     O81283   1.522   2.124   2.050  0.0706  0.7725  0.1164
  590MOL0     C81284   1.435   2.156   2.128 -0.8733  0.3637  0.3764
  590MOL0     O81285   1.414   2.099   2.256  0.2317  0.8329  0.3879
  590MOL0     C81286   1.505   1.997   2.284  0.2078 -0.3557 -0.2129
  590MOL0     C81287   1.477   1.872   2.236  0.4001  1.1370  1.3234
  590MOL0     C81288   1.569   1.768   2.264 -0.8059 -0.7165 -0.9797
  590MOL0     C81289   1.678   1.793   2.352  0.3484  0.3356 -0.3993
  590MOL0     O81290   1.759   1.687   2.401  0.2395 -1.0653 -0.2200
  590MOL0     C81291   1.687   1.599   2.486  0.0092  0.4513 -0.7202
  590MOL0     C81292   1.792   1.492   2.532  0.8298  0.0008 -0.6498
  590MOL0     C81293   1.862   1.423   2.422  0.2033 -0.1695 -0.6948
  590MOL0     C81294   1.938   1.303   2.465 -0.1088  0.6026 -1.0448
  590MOL0     C81295   2.016   1.258   2.333  0.2767  0.7854 -0.8879
  590MOL0     C81296   2.105   1.140   2.362 -0.0636 -0.1241 -0.2101
  590MOL0     C81297   2.203   1.115   2.247 -0.0364 -0.0982 -0.7675
  590MOL0     C81298   2.298   0.997   2.285 -0.2184  0.7088  0.1686
  590MOL0     N81299   2.258   0.887   2.193  1.3623 -0.5136 -0.0377
  590MOL0     C81300   2.238   0.754   2.220 -0.5522 -0.7082  0.4741
  590MOL0     C81301   2.238   0.684   2.103 -0.8156 -1.0603  1.2816
  590MOL0     C81302   2.223   0.534   2.083 -0.2984 -0.5294  0.9795
  590MOL0     C81303   2.072   0.504   2.046 -0.1452  0.0884  0.4440
  590MOL0     C81304   1.987   0.548   2.166  0.1598  0.7861  0.6282
  590MOL0     C81305   1.839   0.541   2.144 -0.5283 -0.8337  0.0461
  590MOL0     O81306   1.807   0.603   2.014  1.1467  0.1188  0.0332
  590MOL0     C81307   1.783   0.735   2.023  0.6626 -0.5832 -0.4499
  590MOL0     C81308   1.668   0.768   2.088 -1.1314 -0.9382 -0.0056
  590MOL0     C81309   1.620   0.904   2.089 -0.0580 -0.4559 -0.1181
  590MOL0     C81310   1.478   0.916   2.152  0.0233 -0.5713 -0.5471
  590MOL0     C81311   1.701   1.009   2.047  0.2967 -0.2020  0.3324
  590MOL0     C81312   1.656   1.157   2.051 -0.2608 -0.0904  0.0358
  590MOL0     O81313   1.761   1.236   2.014  0.3002  0.2190  0.0591
  590MOL0     C81314   1.748   1.375   1.984 -0.4326  1.1581 -0.1377
  590MOL0     C81315   1.810   1.468   2.058 -0.3740  0.2924 -0.8473
  590MOL0     C81316   1.786   1.609   2.048 -0.9406  1.6066  0.3493
  590MOL0     C81317   1.713   1.655   1.943  0.7666 -0.2505  0.3194
  590MOL0     O81318   1.722   1.786   1.902 -0.7227  0.2635 -0.1945
  590MOL0     C81319   1.606   1.854   1.864 -0.6223 -0.1258  0.5414
  590MOL0     C81320   1.588   1.867   1.718  0.5401 -0.8050  0.5536
  590MOL0     C81321   1.658   1.975   1.637 -0.4293 -0.4930 -0.1968
  590MOL0     C81322   1.687   1.927   1.496  0.0081 -0.4095  0.4198
  590MOL0     C81323   1.762   2.036   1.411 -0.3341 -0.3495 -0.0213
  590MOL0     C81324   1.743   2.015   1.254 -0.8274  0.5062 -0.7996
  590MOL0     C81325   1.632   2.105   1.189  0.1510  0.1692 -0.4811
  590MOL0     C81326   1.630   2.254   1.228 -0.5479  0.4336  0.7321
  590MOL0    Cl81327   1.795   2.319   1.251  0.1893 -0.4102 -0.2293
  590MOL0     C81328   1.639   1.557   1.865 -0.1863 -0.6124  0.0358
  590MOL0     C81329   1.662   1.419   1.890  0.7114  0.5457  0.8988
  590MOL0     O81330   1.545   1.199   2.080  0.4801  0.1004  0.5846
  590MOL0     C81331   1.825   0.968   1.993 -0.6951  0.2389 -0.4546
  590MOL0     C81332   1.878   0.836   1.974  0.1153  0.2665  0.0060
  590MOL0     N81333   2.264   0.774   2.000  0.8627 -0.6479  0.4972
  590MOL0     N81334   2.281   0.890   2.061  0.2565 -0.1421  0.7851
  590MOL0     C81335   1.700   1.922   2.394  0.2434 -1.6221  0.5335
  590MOL0     C81336   1.622   2.032   2.352 -0.2207  0.2034 -0.1982
  590MOL0     C81337   1.344   2.268   2.084 -0.4665  0.7401  0.3982
  590MOL0     C81338   1.216   2.275   2.149 -0.6310  0.7591  0.0386
  590MOL0     C81339   1.126   2.366   2.106  0.6665  0.1981  0.4198
  590MOL0     C81340   1.141   2.443   1.990  0.6752 -0.2342 -0.3981
  590MOL0     O81341   1.037   2.508   1.943 -0.2916  0.2206  0.5966
  590MOL0     C81342   1.035   2.564   1.810 -0.0199  0.6635  0.6313
  590MOL0     C81343   1.037   2.461   1.692  0.4844 -0.1812  0.4417
  590MOL0     C81344   1.078   2.519   1.544 -1.0348  1.1277 -0.0271
  590MOL0     C81345   1.012   2.653   1.499  0.1628  0.6166 -0.1355
  590MOL0     C81346   0.874   2.659   1.534 -0.1419  1.2203  0.5119
  590MOL0     C81347   0.760   2.663   1.568  0.4214  1.7480  0.1637
  590MOL0     C81348   1.266   2.436   1.925 -0.7702  0.4824  0.5496
  590MOL0     C81349   1.370   2.351   1.967  0.6077 -0.1085  0.3140
  590MOL0     C81350   1.505   2.374   1.894 -0.5789 -0.6538 -0.8997
  590MOL0     H81351   1.391   1.849   2.173  2.6485  1.5579 -2.2223
  590MOL0     H81352   1.541   1.666   2.242  0.2610 -1.2441  0.0627
  590MOL0     H81353   1.605   1.558   2.428 -0.0156  1.1012 -1.1568
  590MOL0     H81354   1.649   1.646   2.578  1.2002 -0.7843  0.4457
  590MOL0     H81355   1.868   1.537   2.597 -2.4233  0.0725  3.5512
  590MOL0     H81356   1.738   1.415   2.587  2.2553 -1.5257 -1.2840
  590MOL0     H81357   1.787   1.382   2.354 -0.0494 -2.2194  0.7156
  590MOL0     H81358   1.926   1.495   2.369  1.2902  1.2667  2.3254
  590MOL0     H81359   2.013   1.346   2.532  1.3217 -0.3954 -1.9320
  590MOL0     H81360   1.888   1.220   2.516  1.8016  0.2276  0.3394
  590MOL0     H81361   2.085   1.338   2.306  4.6819 -2.2344  0.2983
  590MOL0     H81362   1.949   1.224   2.253  1.7342  0.3103 -1.9482
  590MOL0     H81363   2.156   1.151   2.458 -1.2753  1.8471  0.2647
  590MOL0     H81364   2.043   1.052   2.382 -0.7995  1.0736  3.5997
  590MOL0     H81365   2.272   1.200   2.250 -1.3183  1.4994 -5.9067
  590MOL0     H81366   2.154   1.114   2.149 -2.6621  2.1527  0.4112
  590MOL0     H81367   2.405   1.013   2.271 -0.3850  1.9453  0.2587
  590MOL0     H81368   2.282   0.985   2.392 -0.1341  2.7229  0.4282
  590MOL0     H81369   2.217   0.717   2.320 -1.0908  0.3602  0.7692
  590MOL0     H81370   2.255   0.476   2.171 -1.9346 -1.3451  1.0865
  590MOL0     H81371   2.290   0.508   2.001 -2.4932 -2.0713 -0.4348
  590MOL0     H81372   2.045   0.553   1.952 -3.2807 -1.2499  0.5348
  590MOL0     H81373   2.053   0.399   2.026 -0.3381  0.1528  0.2947
  590MOL0     H81374   2.013   0.484   2.251 -1.4969  2.3919  2.4381
  590MOL0     H81375   2.009   0.644   2.214 -0.1245 -0.9343  4.5356
  590MOL0     H81376   1.799   0.439   2.140 -0.0416 -0.9977 -1.0404
  590MOL0     H81377   1.798   0.585   2.235 -1.5223  0.8143 -1.1319
  590MOL0     H81378   1.606   0.693   2.135  0.7835 -1.9337  1.0589
  590MOL0     H81379   1.410   0.950   2.073 -0.7168 -1.7585 -0.4370
  590MOL0     H81380   1.480   0.985   2.238 -0.0470 -0.6766 -0.4608
  590MOL0     H81381   1.433   0.825   2.193 -0.8969 -0.5252 -1.4077
  590MOL0     H81382   1.882   1.441   2.134 -0.5805  0.2821 -0.6532
  590MOL0     H81383   1.852   1.672   2.107  2.5088 -1.1280 -0.2726
  590MOL0     H81384   1.518   1.800   1.900 -0.4633 -1.0894 -0.4545
  590MOL0     H81385   1.606   1.954   1.908  1.1215 -0.4311  1.3261
  590MOL0     H81386   1.613   1.768   1.679  1.6646 -1.8190  3.5581
  590MOL0     H81387   1.481   1.889   1.712  0.9795  1.4469  0.2747
  590MOL0     H81388   1.754   1.992   1.687 -1.7227  3.3288  1.3325
  590MOL0     H81389   1.609   2.073   1.644 -0.9555 -0.7913  0.3781
  590MOL0     H81390   1.594   1.901   1.446  0.7612  0.6003 -1.6074
  590MOL0     H81391   1.749   1.838   1.513  0.1338  0.1982  3.9274
  590MOL0     H81392   1.732   2.136   1.444 -2.1420 -2.0348  4.2668
  590MOL0     H81393   1.868   2.031   1.439  0.7709  1.5462 -3.3078
  590MOL0     H81394   1.739   1.906   1.242  1.9341  0.3237 -0.7060
  590MOL0     H81395   1.842   2.039   1.214 -1.0727  0.9003 -1.1652
  590MOL0     H81396   1.531   2.068   1.209 -0.9184  2.5829 -1.0828
  590MOL0     H81397   1.653   2.096   1.082  0.7683  1.9638 -0.5455
  590MOL0     H81398   1.565   2.271   1.314 -1.1097  0.3362  0.3307
  590MOL0     H81399   1.576   2.294   1.142  0.4446 -2.3065 -1.3004
  590MOL0     H81400   1.572   1.576   1.782  0.1215  0.1108 -0.0564
  590MOL0     H81401   1.613   1.343   1.830  0.8744  2.5795 -1.9806
  590MOL0     H81402   1.895   1.046   1.965 -0.9769  1.3135  1.6862
  590MOL0     H81403   1.966   0.817   1.914  0.2356 -0.5176  0.4195
  590MOL0     H81404   1.787   1.951   2.452 -2.3569  0.5588  3.7342
  590MOL0     H81405   1.637   2.132   2.391 -2.0010  0.5778 -0.3734
  590MOL0     H81406   1.194   2.207   2.231  2.4033  0.1772  0.4930
  590MOL0     H81407   1.022   2.354   2.134  0.6938 -0.4547  0.2551
  590MOL0     H81408   0.939   2.615   1.797 -0.6167 -0.6503 -0.3449
  590MOL0     H81409   1.113   2.640   1.797 -0.1702  0.5617 -1.1038
  590MOL0     H81410   0.946   2.402   1.675  0.2873  0.5872 -1.3729
  590MOL0     H81411   1.107   2.383   1.725  2.3659  1.3618  0.2525
  590MOL0     H81412   1.185   2.542   1.547 -0.8840  0.3597  1.5582
  590MOL0     H81413   1.061   2.438   1.471  2.0973  0.3953 -0.1090
  590MOL0     H81414   1.014   2.663   1.390 -0.4119  0.9656 -0.1173
  590MOL0     H81415   1.061   2.738   1.548 -1.4375  0.1140  2.5700
  590MOL0     H81416   0.659   2.689   1.590 -0.8836 -2.1567 -0.3928
  590MOL0     H81417   1.291   2.511   1.852 -1.0606  0.3975  0.3601
  590MOL0     H81418   1.581   2.387   1.971 -1.4781 -0.8308  0.0341
  590MOL0     H81419   1.526   2.280   1.841 -0.3772 -1.7556  1.0460
  590MOL0     H81420   1.518   2.455   1.821  2.3575 -1.1391 -1.0301
  591MOL0     O81421  11.285   2.218  10.784  0.1018  0.4065 -0.5673
  591MOL0     C81422  11.311   2.256  10.899 -0.1288 -0.4136  0.2777
  591MOL0     O81423  11.368   2.377  10.917  0.4151  0.0547 -0.6757
  591MOL0     C81424  11.404   2.451  10.809  0.2646 -0.1809  0.5934
  591MOL0     C81425  11.537   2.457  10.771 -0.5567 -0.5573 -1.0342
  591MOL0     C81426  11.575   2.542  10.667 -0.2608  0.3682 -0.4186
  591MOL0     C81427  11.495   2.634  10.614  0.3113 -0.0766 -0.1315
  591MOL0     O81428  11.531   2.739  10.533 -0.5118  0.7946 -0.3858
  591MOL0     C81429  11.655   2.807  10.543  0.2053 -0.0375  0.2862
  591MOL0     C81430  11.655   2.953  10.476 -0.2752 -0.0025 -1.0732
  591MOL0     C81431  11.748   3.041  10.553  0.8319  0.4656  0.1635
  591MOL0     C81432  11.745   3.196  10.522  0.1317  1.0455  0.2905
  591MOL0     C81433  11.809   3.286  10.630  0.8923 -0.1029 -1.0203
  591MOL0     C81434  11.775   3.441  10.615 -0.6474  0.8871  0.1997
  591MOL0     C81435  11.828   3.504  10.747  0.7525  0.8014 -0.5139
  591MOL0     C81436  11.832   3.649  10.753  0.2983 -0.3742  0.1429
  591MOL0     N81437  11.709   3.704  10.795 -0.2553 -0.2020 -0.3375
  591MOL0     C81438  11.614   3.733  10.704 -0.0668  0.5257  0.5100
  591MOL0     C81439  11.503   3.775  10.768 -0.3301  0.2011 -0.0938
  591MOL0     C81440  11.373   3.822  10.708 -0.6688 -0.1980 -0.1999
  591MOL0     C81441  11.257   3.722  10.688  0.3818  0.1493 -0.4067
  591MOL0     C81442  11.202   3.686  10.828  0.5511  1.2746 -0.6790
  591MOL0     C81443  11.093   3.580  10.820  0.3049  0.4530  0.7907
  591MOL0     O81444  10.982   3.630  10.740  0.6264 -0.2460 -0.3575
  591MOL0     C81445  10.858   3.564  10.744 -0.7714  0.4174  0.5981
  591MOL0     C81446  10.745   3.641  10.742 -1.1248  0.5434  0.6143
  591MOL0     C81447  10.624   3.570  10.727 -0.0407 -0.6092  0.1716
  591MOL0     C81448  10.493   3.651  10.721  0.4960  0.2759  0.7129
  591MOL0     C81449  10.625   3.430  10.725  1.2327  0.3734  0.6049
  591MOL0     C81450  10.500   3.343  10.725  1.0582  0.1106 -0.0941
  591MOL0     O81451  10.498   3.246  10.635  0.4995  0.0023  0.2744
  591MOL0     C81452  10.421   3.137  10.665  0.0886 -0.0821 -0.1891
  591MOL0     C81453  10.439   3.060  10.777  0.7979  0.6661 -0.2218
  591MOL0     C81454  10.358   2.949  10.794  0.1806  0.2952 -1.1061
  591MOL0     C81455  10.252   2.915  10.719  0.2333  0.0230 -0.4979
  591MOL0     O81456  10.171   2.805  10.743  0.4257 -0.1136 -0.2333
  591MOL0     C81457  10.165   2.699  10.636 -0.1154 -0.7460  1.0129
  591MOL0     C81458  10.123   2.563  10.693 -0.3922 -0.2554  0.2827
  591MOL0     C81459  10.206   2.533  10.827  0.9777 -0.7389  0.3543
  591MOL0     C81460  10.187   2.371  10.853  0.3912 -0.5520  0.4575
  591MOL0     C81461  10.271   2.327  10.973 -0.0835  0.5534  0.2889
  591MOL0     C81462  10.244   2.176  11.014  0.1548 -0.0272 -0.2722
  591MOL0     C81463  10.316   2.159  11.147  1.3252 -0.7169  0.8631
  591MOL0     C81464  10.278   2.032  11.221 -0.5184  0.5384  0.1529
  591MOL0    Cl81465  10.269   2.055  11.403 -0.0709  0.0225 -0.0251
  591MOL0     C81466  10.241   2.986  10.595 -0.2158  0.7545  0.1941
  591MOL0     C81467  10.316   3.101  10.570  0.0452  0.0508 -0.6188
  591MOL0     O81468  10.420   3.352  10.819 -0.7739  0.0759 -0.5977
  591MOL0     C81469  10.743   3.354  10.740 -0.5316 -0.5739 -0.0945
  591MOL0     C81470  10.859   3.427  10.746 -0.3100  0.2758 -0.7597
  591MOL0     N81471  11.538   3.770  10.901 -0.1196 -0.0526  0.7664
  591MOL0     N81472  11.656   3.722  10.913 -0.1304  0.6868  0.1798
  591MOL0     C81473  11.356   2.637  10.660  0.1550  0.0689 -0.8202
  591MOL0     C81474  11.310   2.537  10.751  0.4822 -0.4605 -0.0850
  591MOL0     C81475  11.290   2.171  11.022 -1.1039 -0.5246  0.0228
  591MOL0     C81476  11.279   2.028  11.013 -0.2086 -0.5389  0.8748
  591MOL0     C81477  11.244   1.950  11.116  0.0550  0.4083 -0.5116
  591MOL0     C81478  11.220   2.008  11.235  0.8216 -0.1368 -0.3475
  591MOL0     O81479  11.208   1.917  11.342 -0.4711 -0.2771  0.9919
  591MOL0     C81480  11.073   1.914  11.395 -0.0614 -0.0083 -0.4376
  591MOL0     C81481  11.065   1.802  11.505  0.4656 -0.6342  0.1341
  591MOL0     C81482  11.151   1.841  11.622 -0.4434 -0.5132  0.8371
  591MOL0     C81483  11.064   1.887  11.735  0.4560 -0.3105 -0.6880
  591MOL0     C81484  11.043   1.772  11.827  0.3792  0.1220 -0.8985
  591MOL0     C81485  11.023   1.664  11.878 -0.4120  0.4662 -0.4272
  591MOL0     C81486  11.232   2.139  11.252  0.6184 -0.8848  0.1714
  591MOL0     C81487  11.265   2.229  11.149 -0.0613  0.2411 -0.6948
  591MOL0     C81488  11.263   2.369  11.186  0.4380 -0.3392 -0.6552
  591MOL0     H81489  11.599   2.384  10.822 -2.4716 -2.3183 -1.0680
  591MOL0     H81490  11.679   2.540  10.636  0.2213  0.5890  1.0992
  591MOL0     H81491  11.730   2.752  10.485  0.0549 -0.0241  0.0775
  591MOL0     H81492  11.685   2.815  10.648 -1.4570 -0.7355  0.8421
  591MOL0     H81493  11.663   2.947  10.367  0.7629  2.3065 -1.1880
  591MOL0     H81494  11.558   3.000  10.494 -0.8251 -2.3860  3.8439
  591MOL0     H81495  11.722   3.040  10.659 -2.6329  2.6918 -0.4693
  591MOL0     H81496  11.850   3.002  10.550 -0.3913 -3.2733  1.4106
  591MOL0     H81497  11.795   3.208  10.425  0.4025  0.6070  0.3727
  591MOL0     H81498  11.643   3.231  10.508  1.1587  2.8073 -4.5118
  591MOL0     H81499  11.915   3.265  10.647  1.1662  0.5094 -1.8811
  591MOL0     H81500  11.758   3.262  10.724  2.7674 -4.7561 -0.9297
  591MOL0     H81501  11.827   3.479  10.526 -0.3937 -1.0314 -0.5385
  591MOL0     H81502  11.674   3.471  10.586  1.2868  5.1559 -3.4103
  591MOL0     H81503  11.931   3.472  10.768  1.3020  2.7881  0.0570
  591MOL0     H81504  11.765   3.474  10.831  0.9911 -0.0830 -0.6343
  591MOL0     H81505  11.907   3.693  10.818 -0.1985  0.3740  0.2152
  591MOL0     H81506  11.859   3.684  10.653  2.3712  2.4748  1.5901
  591MOL0     H81507  11.610   3.715  10.597 -0.9820  1.6893  0.3225
  591MOL0     H81508  11.389   3.874  10.613 -1.9139 -2.2584 -1.6187
  591MOL0     H81509  11.336   3.884  10.791  6.1156  0.1248  3.2510
  591MOL0     H81510  11.180   3.761  10.620  0.0389 -2.8670 -1.9419
  591MOL0     H81511  11.293   3.634  10.634  0.4782 -0.3109  0.3912
  591MOL0     H81512  11.282   3.638  10.884 -1.2838  1.0356  1.9123
  591MOL0     H81513  11.164   3.774  10.881 -2.1466  1.0700 -2.1031
  591MOL0     H81514  11.133   3.486  10.783  0.8306  2.2717 -3.9818
  591MOL0     H81515  11.067   3.566  10.926 -2.5681 -2.0887 -0.1086
  591MOL0     H81516  10.745   3.750  10.741 -1.2179  0.5442  0.6559
  591MOL0     H81517  10.525   3.749  10.683 -2.0054  1.0914  0.5483
  591MOL0     H81518  10.435   3.657  10.814  1.4219 -2.7091  1.6057
  591MOL0     H81519  10.426   3.606  10.648 -0.9693  0.2853  2.0033
  591MOL0     H81520  10.513   3.081  10.854  1.0799 -2.1424  0.3850
  591MOL0     H81521  10.383   2.879  10.873 -0.4502  0.2362 -0.9592
  591MOL0     H81522  10.092   2.732  10.561  0.9241  3.7771  1.6498
  591MOL0     H81523  10.260   2.688  10.583 -1.6861 -1.8486 -1.7936
  591MOL0     H81524  10.015   2.568  10.710 -0.4693  0.1147 -0.2772
  591MOL0     H81525  10.141   2.483  10.621  1.5588  1.5508 -1.3582
  591MOL0     H81526  10.169   2.584  10.916  0.5412  2.2889 -1.4190
  591MOL0     H81527  10.307   2.569  10.808 -0.6910  3.6036 -1.6185
  591MOL0     H81528  10.206   2.306  10.766 -0.6670 -0.8421  0.4246
  591MOL0     H81529  10.081   2.355  10.877  0.5564  0.9823  2.4686
  591MOL0     H81530  10.376   2.337  10.946 -0.0034  1.1011  0.7801
  591MOL0     H81531  10.242   2.394  11.054  1.3061  1.1195  0.3444
  591MOL0     H81532  10.282   2.109  10.937  3.0094 -1.1329  1.9328
  591MOL0     H81533  10.138   2.159  11.033  0.4081  0.3309  1.6859
  591MOL0     H81534  10.276   2.245  11.201 -2.4757 -0.2225 -2.2411
  591MOL0     H81535  10.421   2.154  11.119  0.6852 -0.6436 -1.8001
  591MOL0     H81536  10.342   1.947  11.194 -0.7883  0.2190  0.5114
  591MOL0     H81537  10.175   2.003  11.197  0.0571 -2.9958  1.2880
  591MOL0     H81538  10.160   2.963  10.526 -0.0455  0.5873  0.0466
  591MOL0     H81539  10.300   3.163  10.483 -1.9434  3.3578  1.8838
  591MOL0     H81540  10.752   3.249  10.763  1.6664  0.2899  4.0301
  591MOL0     H81541  10.951   3.374  10.767 -2.6089 -3.1250  1.8105
  591MOL0     H81542  11.292   2.722  10.641  1.2876  1.5987  1.7391
  591MOL0     H81543  11.206   2.532  10.782 -0.2538  1.4562 -1.9763
  591MOL0     H81544  11.305   1.976  10.921 -1.0670 -2.8143  1.8262
  591MOL0     H81545  11.261   1.843  11.114  0.9811  0.5508 -0.6019
  591MOL0     H81546  11.055   2.008  11.449 -0.3419 -0.7736  0.8534
  591MOL0     H81547  11.004   1.897  11.312 -2.1042  4.3878  0.0839
  591MOL0     H81548  11.096   1.705  11.465 -3.4970 -2.3129  0.6566
  591MOL0     H81549  10.960   1.779  11.528  0.3331 -1.0425 -0.8165
  591MOL0     H81550  11.223   1.762  11.645 -1.2677 -0.5623  3.5233
  591MOL0     H81551  11.219   1.923  11.595 -0.6657 -0.0519  1.6519
  591MOL0     H81552  10.972   1.934  11.696 -0.5744 -2.7775 -1.4246
  591MOL0     H81553  11.110   1.967  11.794 -1.4414 -0.9160  1.7821
  591MOL0     H81554  11.016   1.565  11.920  0.7456  0.4647 -0.2033
  591MOL0     H81555  11.213   2.184  11.350 -2.7402  1.7401 -1.4894
  591MOL0     H81556  11.365   2.403  11.169  0.0023  1.1163 -0.4425
  591MOL0     H81557  11.190   2.432  11.134  0.5840  1.0176  0.7168
  591MOL0     H81558  11.223   2.381  11.287 -3.0389 -1.5881 -1.7137
  592MOL0     O81559   6.123   6.708   9.834  0.3672  0.5848  0.5959
  592MOL0     C81560   6.095   6.727   9.952  0.4113  0.5609 -0.4465
  592MOL0     O81561   6.166   6.819  10.029 -0.1563 -0.2908 -0.1918
  592MOL0     C81562   6.305   6.831  10.038 -0.9264  0.2972  0.1687
  592MOL0     C81563   6.388   6.748   9.962  0.6925 -0.3600 -0.0858
  592MOL0     C81564   6.529   6.756   9.978  0.6126  0.3779 -0.0762
  592MOL0     C81565   6.591   6.867  10.034  1.5064  0.3470  1.2492
  592MOL0     O81566   6.727   6.879  10.047  0.2482 -0.1297  0.6779
  592MOL0     C81567   6.791   6.791  10.132 -0.5240  1.1337  0.6765
  592MOL0     C81568   6.813   6.654  10.068  0.0658 -0.4735 -0.2972
  592MOL0     C81569   6.938   6.587  10.129  0.1649 -0.0866  0.4141
  592MOL0     C81570   6.976   6.448  10.065 -0.6404  0.4315  0.6771
  592MOL0     C81571   7.065   6.464   9.942 -0.4073  0.0692  0.2634
  592MOL0     C81572   7.094   6.329   9.866  0.8265  0.9321 -0.2028
  592MOL0     C81573   7.195   6.362   9.757 -0.4068 -0.1106  0.0236
  592MOL0     C81574   7.204   6.230   9.689  0.4621  0.0935 -0.6115
  592MOL0     N81575   7.306   6.240   9.591  0.4777  0.2932  0.3264
  592MOL0     C81576   7.283   6.244   9.450  0.1636  0.1404 -0.7508
  592MOL0     C81577   7.410   6.248   9.399 -0.4992  0.1909  0.4142
  592MOL0     C81578   7.420   6.251   9.242 -0.1131 -0.7106  0.1924
  592MOL0     C81579   7.404   6.108   9.183  0.3615  0.6116 -0.6436
  592MOL0     C81580   7.423   6.099   9.026  0.1026 -0.7970 -0.5042
  592MOL0     C81581   7.319   6.182   8.936 -0.2369  0.5220  0.3428
  592MOL0     O81582   7.363   6.320   8.929  0.2401  0.1556 -0.1961
  592MOL0     C81583   7.455   6.370   8.837 -0.4674 -0.1824 -0.0314
  592MOL0     C81584   7.536   6.286   8.760 -0.7684  0.8047 -0.6303
  592MOL0     C81585   7.624   6.336   8.661 -0.5581  0.8289  0.5107
  592MOL0     C81586   7.692   6.231   8.573 -0.2182  0.2043 -0.1294
  592MOL0     C81587   7.629   6.472   8.644  0.6338 -0.7059 -1.3409
  592MOL0     C81588   7.710   6.517   8.545  0.1819  0.6590  0.1376
  592MOL0     O81589   7.647   6.579   8.433 -0.3385 -0.1240  1.0913
  592MOL0     C81590   7.724   6.624   8.322 -0.0701 -0.3156 -0.1360
  592MOL0     C81591   7.730   6.760   8.289  0.5051 -0.4550 -0.4661
  592MOL0     C81592   7.798   6.812   8.184 -0.7961 -1.0485  0.6229
  592MOL0     C81593   7.872   6.727   8.108 -0.5456  0.9641 -0.0297
  592MOL0     O81594   7.960   6.760   8.011  0.1091  1.1416 -0.2435
  592MOL0     C81595   8.062   6.863   8.034  0.2227 -0.3685 -0.2514
  592MOL0     C81596   8.068   6.977   7.939 -0.2527  0.1458  0.5239
  592MOL0     C81597   7.950   7.066   7.926 -0.5643 -0.3903 -0.5205
  592MOL0     C81598   7.922   7.157   8.054 -0.9292  0.4666  0.1919
  592MOL0     C81599   7.784   7.224   8.039 -0.0725 -0.5555  0.5431
  592MOL0     C81600   7.667   7.148   8.096  0.0482  0.7128  0.5619
  592MOL0     C81601   7.650   7.146   8.244 -0.0998 -0.3271 -1.4992
  592MOL0     C81602   7.627   7.281   8.320  0.1342  0.4216  0.3986
  592MOL0    Cl81603   7.483   7.372   8.255  0.0765  0.1419 -0.0938
  592MOL0     C81604   7.859   6.589   8.139 -0.8766  0.0578 -0.2500
  592MOL0     C81605   7.781   6.534   8.235  0.7989 -0.1452 -0.1454
  592MOL0     O81606   7.824   6.530   8.580  0.7134  0.5711 -0.4923
  592MOL0     C81607   7.557   6.557   8.721 -0.3411 -0.0743  0.0728
  592MOL0     C81608   7.479   6.514   8.831  1.1422  0.1706  0.4037
  592MOL0     N81609   7.503   6.262   9.497 -0.7332 -0.0164 -0.0884
  592MOL0     N81610   7.444   6.251   9.615 -0.5246  0.3899 -0.8750
  592MOL0     C81611   6.511   6.963  10.084  0.8031 -0.7598  0.0732
  592MOL0     C81612   6.370   6.936  10.101 -0.8932  0.1087  0.0318
  592MOL0     C81613   5.965   6.668  10.000 -0.1860 -0.0586 -0.0851
  592MOL0     C81614   5.917   6.719  10.122 -0.1262 -0.1487 -0.1712
  592MOL0     C81615   5.801   6.672  10.177  0.2426 -0.4619 -0.6274
  592MOL0     C81616   5.713   6.578  10.103 -1.5425 -0.1410 -0.0810
  592MOL0     O81617   5.591   6.553  10.154  1.2086  0.6727 -0.3435
  592MOL0     C81618   5.573   6.424  10.211  0.4580 -0.3507  0.0633
  592MOL0     C81619   5.423   6.382  10.233  0.0716 -0.3245  1.2189
  592MOL0     C81620   5.352   6.387  10.089 -0.6474 -0.5360  1.0650
  592MOL0     C81621   5.247   6.294  10.053 -0.1764 -0.3534 -0.6124
  592MOL0     C81622   5.141   6.278  10.154 -0.6199 -0.3888  0.0388
  592MOL0     C81623   5.049   6.275  10.228  0.1690 -0.1201 -0.2157
  592MOL0     C81624   5.765   6.512   9.992 -0.2389  0.3039  1.2412
  592MOL0     C81625   5.885   6.566   9.933 -0.2792  0.2822  0.0435
  592MOL0     C81626   5.917   6.509   9.794  0.5856  0.0765  0.2394
  592MOL0     H81627   6.347   6.659   9.915  3.2938 -2.2373  0.9376
  592MOL0     H81628   6.580   6.668   9.940 -0.3422 -0.1348 -0.1974
  592MOL0     H81629   6.756   6.769  10.234 -0.1899 -2.0553  0.1931
  592MOL0     H81630   6.888   6.842  10.138 -1.4704  3.4221 -1.4903
  592MOL0     H81631   6.722   6.594  10.079  0.0706 -0.4317 -0.0094
  592MOL0     H81632   6.831   6.665   9.961 -1.8793  0.2267 -0.6014
  592MOL0     H81633   7.020   6.659  10.128  2.2616 -2.3097 -2.3121
  592MOL0     H81634   6.938   6.577  10.238  1.5616  2.8280  0.7780
  592MOL0     H81635   7.038   6.387  10.130  1.2081  0.5442 -0.8831
  592MOL0     H81636   6.879   6.402  10.046 -0.7823  0.9632  0.0611
  592MOL0     H81637   7.162   6.510   9.965  0.1691 -2.1608  2.7883
  592MOL0     H81638   7.018   6.535   9.874  3.2561  0.1955 -2.4830
  592MOL0     H81639   7.132   6.263   9.944 -1.2354  3.8497  3.6394
  592MOL0     H81640   7.006   6.279   9.826  2.1220 -0.2844 -1.6490
  592MOL0     H81641   7.292   6.399   9.794 -1.4002  1.4138  1.2284
  592MOL0     H81642   7.161   6.426   9.676  2.5561 -1.3906 -2.4492
  592MOL0     H81643   7.246   6.163   9.764 -0.7441 -0.0652 -0.0616
  592MOL0     H81644   7.107   6.193   9.654 -1.3692  2.5676  1.4125
  592MOL0     H81645   7.192   6.232   9.393  1.7726 -1.7204 -3.0980
  592MOL0     H81646   7.522   6.289   9.239 -0.8090  1.3603  0.7660
  592MOL0     H81647   7.351   6.320   9.192 -0.6351  0.9387  2.9670
  592MOL0     H81648   7.481   6.042   9.225  0.0573  2.0250  2.4357
  592MOL0     H81649   7.304   6.067   9.196 -0.2758  1.2181 -3.0592
  592MOL0     H81650   7.525   6.129   9.002  0.1784  1.2777  1.8842
  592MOL0     H81651   7.389   5.997   9.005 -0.5728 -1.0249  1.4851
  592MOL0     H81652   7.325   6.143   8.834 -0.0263 -2.9280  1.5603
  592MOL0     H81653   7.218   6.172   8.976 -0.2184 -0.3756  0.1781
  592MOL0     H81654   7.524   6.178   8.759 -1.6528  0.6503  4.1663
  592MOL0     H81655   7.797   6.213   8.595 -0.3365 -1.2642 -0.6331
  592MOL0     H81656   7.686   6.257   8.467 -0.5763  0.8833  0.0514
  592MOL0     H81657   7.639   6.136   8.586  0.3839 -0.5433 -2.5695
  592MOL0     H81658   7.673   6.834   8.344 -0.7482 -0.7725 -1.2999
  592MOL0     H81659   7.827   6.914   8.162  2.0412 -2.0450 -0.7684
  592MOL0     H81660   8.071   6.897   8.138  2.4753 -1.0888 -0.1492
  592MOL0     H81661   8.149   6.802   8.009 -0.2051 -0.8382 -0.6016
  592MOL0     H81662   8.155   7.041   7.955 -0.6170  0.8084 -0.1013
  592MOL0     H81663   8.089   6.925   7.845  2.1665  0.5171  0.7832
  592MOL0     H81664   7.869   6.993   7.913  0.7013 -1.5580 -2.4729
  592MOL0     H81665   7.966   7.123   7.835  4.0055 -0.3284  0.1032
  592MOL0     H81666   8.011   7.221   8.054  0.2834 -1.1583  0.0962
  592MOL0     H81667   7.922   7.101   8.148 -1.2499 -0.3347 -0.2766
  592MOL0     H81668   7.778   7.329   8.069 -1.6010 -1.0173  2.0272
  592MOL0     H81669   7.760   7.227   7.933  2.3212 -1.7823 -0.0808
  592MOL0     H81670   7.669   7.045   8.061 -1.1978  0.9333 -0.2113
  592MOL0     H81671   7.568   7.171   8.056 -0.3119 -1.0598  0.3690
  592MOL0     H81672   7.737   7.109   8.299  0.4766  1.4104 -1.1678
  592MOL0     H81673   7.562   7.087   8.271 -0.1393  0.2985 -0.1768
  592MOL0     H81674   7.715   7.344   8.307  1.0062 -1.0067 -1.0524
  592MOL0     H81675   7.613   7.269   8.428 -0.9732 -2.4755  0.0137
  592MOL0     H81676   7.917   6.514   8.086 -0.1721 -0.1306  0.7439
  592MOL0     H81677   7.774   6.427   8.252  1.7993 -0.0516  1.0857
  592MOL0     H81678   7.571   6.663   8.702  0.9544 -0.0918  0.8095
  592MOL0     H81679   7.432   6.589   8.893  0.9185  0.5067 -0.1638
  592MOL0     H81680   6.557   7.050  10.131 -0.7496  0.1259  0.0266
  592MOL0     H81681   6.314   7.011  10.156 -0.3338 -1.0988  2.3649
  592MOL0     H81682   5.981   6.774  10.190  0.0896 -2.7631  1.8783
  592MOL0     H81683   5.764   6.702  10.275 -0.2104 -1.5190 -0.4690
  592MOL0     H81684   5.612   6.352  10.138  1.3124  2.1144 -2.0419
  592MOL0     H81685   5.620   6.412  10.309  0.2988 -3.0081 -0.1159
  592MOL0     H81686   5.364   6.452  10.293  0.3634  0.8560  0.1656
  592MOL0     H81687   5.414   6.283  10.277 -1.8199  0.4816  2.8050
  592MOL0     H81688   5.313   6.488  10.071 -0.8954 -0.8262 -0.0838
  592MOL0     H81689   5.432   6.366  10.018  1.1301 -2.9279  3.5711
  592MOL0     H81690   5.286   6.193  10.036  3.2984  0.4857  1.4529
  592MOL0     H81691   5.195   6.327   9.963 -1.0315 -1.5459 -0.5893
  592MOL0     H81692   4.970   6.254  10.297  1.9886 -0.5188  1.8884
  592MOL0     H81693   5.704   6.430   9.955 -1.1338  0.1270  2.9736
  592MOL0     H81694   5.853   6.423   9.776 -1.2525  1.8553 -2.4513
  592MOL0     H81695   5.880   6.583   9.723  3.2376  2.3344  1.0066
  592MOL0     H81696   6.023   6.487   9.777  1.0496  1.8937  0.4863
  593MOL0     O81697   0.884   4.069   9.424  0.5170 -0.6952 -1.1739
  593MOL0     C81698   0.776   4.051   9.474 -0.1707  0.2095  0.1966
  593MOL0     O81699   0.723   4.116   9.579 -0.7002 -0.4622 -0.2398
  593MOL0     C81700   0.792   4.215   9.643 -0.1025 -0.7285  0.0093
  593MOL0     C81701   0.868   4.317   9.591  0.0294 -0.7535  1.2837
  593MOL0     C81702   0.939   4.387   9.680 -1.7460 -0.0133 -0.1072
  593MOL0     C81703   0.921   4.385   9.822 -1.1440  0.1761 -0.3522
  593MOL0     O81704   0.984   4.477   9.904 -0.3947 -0.2128 -0.2840
  593MOL0     C81705   1.017   4.609   9.851  0.0479  0.6047 -0.3404
  593MOL0     C81706   1.048   4.708   9.963 -0.5294  0.1409  0.5331
  593MOL0     C81707   0.941   4.731  10.077 -0.0273  0.1224  0.2663
  593MOL0     C81708   0.974   4.820  10.192  1.2076 -0.2137 -0.0559
  593MOL0     C81709   0.854   4.866  10.266  0.0092  0.0605 -1.0990
  593MOL0     C81710   0.792   4.990  10.208 -0.4067 -1.1214  1.3296
  593MOL0     C81711   0.856   5.106  10.279  0.1019 -0.3878 -0.2978
  593MOL0     C81712   0.835   5.237  10.197 -0.3984  0.4106 -0.2250
  593MOL0     N81713   0.850   5.360  10.279  0.0777  0.7696  0.6284
  593MOL0     C81714   0.975   5.415  10.293  0.0330  0.2492  0.0779
  593MOL0     C81715   0.957   5.542  10.350 -0.7480  0.2536 -0.0341
  593MOL0     C81716   1.057   5.652  10.377 -0.2588  0.3608 -0.5145
  593MOL0     C81717   1.196   5.593  10.420  0.2173  1.2905  0.0537
  593MOL0     C81718   1.307   5.684  10.470  0.6177 -0.4212 -0.1232
  593MOL0     C81719   1.303   5.724  10.611 -0.3359  0.0481 -0.3118
  593MOL0     O81720   1.342   5.614  10.694  0.0775  0.4320 -0.2324
  593MOL0     C81721   1.273   5.608  10.814  1.4545 -0.7263  0.8391
  593MOL0     C81722   1.216   5.492  10.861 -0.6893 -0.0960  0.7349
  593MOL0     C81723   1.148   5.468  10.979 -0.2115  0.4597  0.1697
  593MOL0     C81724   1.121   5.319  11.014 -0.0159 -0.3931 -0.1638
  593MOL0     C81725   1.115   5.583  11.053  0.3196  0.0297 -1.2250
  593MOL0     C81726   1.048   5.584  11.185  1.2883 -0.1503 -0.5543
  593MOL0     O81727   0.978   5.697  11.221 -0.1356 -0.5717 -0.2761
  593MOL0     C81728   0.910   5.677  11.334 -0.9885  1.0028  0.1157
  593MOL0     C81729   0.785   5.608  11.333  0.5654  0.1068  0.3180
  593MOL0     C81730   0.718   5.605  11.457  0.4935 -0.0494 -0.2225
  593MOL0     C81731   0.746   5.699  11.565  0.3764 -0.6821 -0.3003
  593MOL0     O81732   0.661   5.707  11.677  0.5808  0.5605 -0.5923
  593MOL0     C81733   0.662   5.817  11.764 -0.4163 -0.9217 -1.7628
  593MOL0     C81734   0.521   5.838  11.823  0.4165  0.4674  0.5313
  593MOL0     C81735   0.479   5.739  11.932  0.5966 -0.5232 -0.5680
  593MOL0     C81736   0.507   5.583  11.911 -0.1835 -0.3557 -0.2683
  593MOL0     C81737   0.483   5.505  12.038 -0.1027 -0.1494 -0.0841
  593MOL0     C81738   0.490   5.352  12.006 -2.2247  0.5759 -0.2868
  593MOL0     C81739   0.636   5.302  11.998 -0.3915 -0.8374  0.2043
  593MOL0     C81740   0.652   5.155  11.947 -0.0332  0.1355 -0.4466
  593MOL0    Cl81741   0.576   5.031  12.035 -0.0125 -0.6475  0.2401
  593MOL0     C81742   0.863   5.779  11.551  1.0248  0.1545 -0.3317
  593MOL0     C81743   0.949   5.761  11.437  0.1490  0.7335 -0.6291
  593MOL0     O81744   1.057   5.482  11.248  0.4194  0.5102  1.3193
  593MOL0     C81745   1.152   5.711  11.003  0.8293  0.6568  0.0142
  593MOL0     C81746   1.226   5.719  10.893 -0.7809 -0.7682  0.2374
  593MOL0     N81747   0.819   5.546  10.384  0.0470 -0.7084  0.8832
  593MOL0     N81748   0.758   5.448  10.336 -0.2650  0.3346  0.0472
  593MOL0     C81749   0.831   4.285   9.866  0.4031  0.3088  0.7176
  593MOL0     C81750   0.774   4.199   9.777 -0.4463  0.5090 -0.1982
  593MOL0     C81751   0.693   3.938   9.423  0.0963 -0.0580 -0.0795
  593MOL0     C81752   0.639   3.844   9.513 -0.2084  0.4619 -0.5126
  593MOL0     C81753   0.575   3.722   9.481 -0.6623 -0.8259  0.1697
  593MOL0     C81754   0.567   3.694   9.341 -0.1666 -0.2265 -0.6965
  593MOL0     O81755   0.492   3.589   9.297 -0.2252  0.4494  0.0717
  593MOL0     C81756   0.572   3.518   9.203 -0.0259  1.0826  0.1981
  593MOL0     C81757   0.505   3.502   9.067  0.1585  1.1089 -0.4295
  593MOL0     C81758   0.362   3.438   9.077 -0.3324  0.3032 -0.1351
  593MOL0     C81759   0.361   3.288   9.094  0.1016  0.5130 -0.6162
  593MOL0     C81760   0.224   3.237   9.060 -0.3734 -0.5914 -0.2102
  593MOL0     C81761   0.120   3.199   9.021 -0.1219  0.5470  0.4685
  593MOL0     C81762   0.610   3.791   9.253  0.9093  0.6473  0.3314
  593MOL0     C81763   0.670   3.911   9.293  0.1669 -0.6954  0.6689
  593MOL0     C81764   0.691   4.020   9.190  0.1799  0.2156 -0.6019
  593MOL0     H81765   0.885   4.315   9.484 -1.2516 -1.6325  1.0774
  593MOL0     H81766   1.012   4.465   9.659 -1.5016 -0.5297 -1.2030
  593MOL0     H81767   0.923   4.634   9.800 -0.3105  1.8178  0.8566
  593MOL0     H81768   1.104   4.602   9.786  1.7703  0.9212  1.8261
  593MOL0     H81769   1.142   4.680  10.011  0.7258 -0.0943 -1.8666
  593MOL0     H81770   1.071   4.800   9.908 -0.2755 -0.3323 -0.1690
  593MOL0     H81771   0.852   4.763  10.022 -0.1078 -0.4722  0.0448
  593MOL0     H81772   0.917   4.632  10.117 -0.2591 -0.1771 -0.5849
  593MOL0     H81773   1.047   4.776  10.261  0.3752  1.3914  1.9684
  593MOL0     H81774   1.015   4.913  10.150 -2.3764  1.7660  0.4532
  593MOL0     H81775   0.863   4.879  10.375 -1.1662 -0.1345 -0.9710
  593MOL0     H81776   0.783   4.784  10.255 -0.2915 -0.2014  1.8731
  593MOL0     H81777   0.794   5.002  10.100 -1.6679  0.2753  1.4270
  593MOL0     H81778   0.685   4.997  10.230 -0.7522 -0.1483 -0.4949
  593MOL0     H81779   0.964   5.095  10.291  0.3835  0.5210 -1.7667
  593MOL0     H81780   0.793   5.103  10.368 -3.8466  1.0628 -2.7555
  593MOL0     H81781   0.908   5.237  10.116 -1.0637 -0.9581 -0.8499
  593MOL0     H81782   0.734   5.237  10.155 -0.7793 -1.7176  0.5264
  593MOL0     H81783   1.070   5.375  10.259  1.8092  1.6076  3.0493
  593MOL0     H81784   1.018   5.717  10.457  1.9856  0.3330  0.6785
  593MOL0     H81785   1.056   5.717  10.289  0.6246  1.5557  0.3155
  593MOL0     H81786   1.177   5.510  10.489 -4.2129  2.5767  0.6409
  593MOL0     H81787   1.225   5.535  10.332 -1.8843 -0.8837  0.6878
  593MOL0     H81788   1.404   5.637  10.452  0.5643 -1.5240  2.1006
  593MOL0     H81789   1.312   5.768  10.400  1.7154 -1.4678 -1.3533
  593MOL0     H81790   1.369   5.810  10.626  1.0041 -0.6087 -2.1467
  593MOL0     H81791   1.202   5.754  10.642  0.4619  0.6595  1.9200
  593MOL0     H81792   1.238   5.402  10.803 -1.2201  0.2932 -0.0906
  593MOL0     H81793   1.164   5.283  11.108  0.4837  0.4275 -0.0697
  593MOL0     H81794   1.152   5.259  10.928  1.0563  0.6222 -0.5085
  593MOL0     H81795   1.012   5.312  11.021 -0.0391  0.7743  1.1706
  593MOL0     H81796   0.754   5.552  11.246  5.6264 -0.0171 -1.7758
  593MOL0     H81797   0.621   5.557  11.461  0.1848  0.5169 -0.8282
  593MOL0     H81798   0.738   5.807  11.842 -0.9711 -3.1715 -1.4304
  593MOL0     H81799   0.691   5.901  11.701 -2.2141  1.0593 -0.0949
  593MOL0     H81800   0.536   5.936  11.869 -0.1215  1.0126 -0.4346
  593MOL0     H81801   0.447   5.859  11.746  0.3364  0.9148  0.7264
  593MOL0     H81802   0.372   5.754  11.947  1.0317  1.1274  1.3907
  593MOL0     H81803   0.530   5.771  12.023  1.5997  2.1907 -1.9756
  593MOL0     H81804   0.616   5.571  11.899  0.6415  2.5033  2.8395
  593MOL0     H81805   0.447   5.538  11.831 -1.2846 -0.9202  0.8524
  593MOL0     H81806   0.556   5.515  12.118  0.5345 -3.2435 -0.1708
  593MOL0     H81807   0.386   5.527  12.083  0.2743 -4.0747  3.1858
  593MOL0     H81808   0.438   5.329  11.913 -2.2935  0.8476 -0.3165
  593MOL0     H81809   0.449   5.281  12.079  2.7663 -2.7521 -0.2412
  593MOL0     H81810   0.671   5.308  12.102 -1.6407  2.9204  0.5288
  593MOL0     H81811   0.697   5.369  11.936 -0.2721 -3.2434 -2.5000
  593MOL0     H81812   0.758   5.130  11.944 -0.1766 -0.9306  1.6190
  593MOL0     H81813   0.611   5.156  11.846 -0.9140 -1.2945 -0.1242
  593MOL0     H81814   0.892   5.856  11.622  0.6224 -0.8251  0.9427
  593MOL0     H81815   1.030   5.825  11.404  1.2077  0.2072  0.8339
  593MOL0     H81816   1.137   5.796  11.068 -0.3690  0.2242  0.3338
  593MOL0     H81817   1.256   5.821  10.872  2.8594 -1.8012 -0.3632
  593MOL0     H81818   0.803   4.290   9.971 -2.0848  0.5514  0.1212
  593MOL0     H81819   0.707   4.121   9.814  0.5923  0.2954  1.3041
  593MOL0     H81820   0.681   3.847   9.613  3.0164 -1.1502 -1.6568
  593MOL0     H81821   0.550   3.652   9.561 -0.7879 -1.8705 -0.7603
  593MOL0     H81822   0.670   3.565   9.194 -0.2578  1.4565 -0.3964
  593MOL0     H81823   0.598   3.420   9.245  2.6843  0.5445 -2.4302
  593MOL0     H81824   0.571   3.443   9.003  0.2674 -0.6528  1.2010
  593MOL0     H81825   0.497   3.597   9.013  2.5102  0.4341 -2.1396
  593MOL0     H81826   0.296   3.483   9.152  1.1268  0.5742  1.0401
  593MOL0     H81827   0.311   3.467   8.985  0.6002 -0.9173 -1.0668
  593MOL0     H81828   0.395   3.256   9.193  0.7528  1.4295 -0.5266
  593MOL0     H81829   0.422   3.232   9.023 -2.2987 -3.4223  0.1791
  593MOL0     H81830   0.022   3.169   8.988 -0.2702 -0.9694  2.1755
  593MOL0     H81831   0.570   3.788   9.152  0.5042  1.9951  0.4410
  593MOL0     H81832   0.788   4.001   9.144 -0.1353  0.1333 -1.2453
  593MOL0     H81833   0.621   4.002   9.108 -0.1315 -0.3697 -0.2174
  593MOL0     H81834   0.687   4.121   9.232 -1.6893 -0.9459  2.3288
  594MOL0     O81835  11.468   3.980   2.329  0.1725  0.9386 -0.6929
  594MOL0     C81836  11.384   3.950   2.251 -0.0480  0.0685  0.9529
  594MOL0     O81837  11.281   3.867   2.273  0.3296  0.2791 -0.1568
  594MOL0     C81838  11.258   3.791   2.381 -0.4422 -0.1571 -0.1529
  594MOL0     C81839  11.305   3.821   2.513 -0.3445  0.0989  0.2766
  594MOL0     C81840  11.268   3.728   2.614 -0.2447 -0.1564 -0.9755
  594MOL0     C81841  11.172   3.627   2.591  1.7460 -0.1632 -0.7457
  594MOL0     O81842  11.139   3.542   2.701 -0.2455 -0.5450 -0.3402
  594MOL0     C81843  11.034   3.450   2.690 -0.0608  0.4409 -0.4683
  594MOL0     C81844  10.998   3.388   2.826 -0.6515  0.0978  0.7726
  594MOL0     C81845  10.881   3.467   2.890  0.0273  0.2710  0.4031
  594MOL0     C81846  10.836   3.396   3.019 -0.1729 -0.2841  0.4252
  594MOL0     C81847  10.805   3.250   3.019 -0.8812  0.2954 -0.8448
  594MOL0     C81848  10.660   3.248   2.969  0.7175  1.0367 -0.0332
  594MOL0     C81849  10.604   3.100   2.971 -0.0175 -0.3807  0.8537
  594MOL0     C81850  10.670   3.016   2.861 -0.1415  0.4739  0.8407
  594MOL0     N81851  10.645   3.061   2.717  0.5991 -0.6030 -0.5073
  594MOL0     C81852  10.743   3.133   2.654 -0.4352  0.7802 -0.2779
  594MOL0     C81853  10.684   3.168   2.540 -0.3553 -0.3182 -0.6156
  594MOL0     C81854  10.741   3.261   2.441 -0.0670 -0.4401  0.8317
  594MOL0     C81855  10.883   3.234   2.407  0.2443  0.2847 -0.2316
  594MOL0     C81856  10.925   3.336   2.292 -0.3630  0.4674  0.3208
  594MOL0     C81857  11.080   3.340   2.265  0.0531  0.4835  0.3559
  594MOL0     O81858  11.103   3.432   2.159 -0.8671  0.2336  0.0384
  594MOL0     C81859  11.115   3.386   2.033  0.2119  0.5214 -0.4430
  594MOL0     C81860  11.201   3.449   1.943 -0.7128  0.2851  0.3230
  594MOL0     C81861  11.242   3.390   1.816  0.0218 -0.4285  1.5093
  594MOL0     C81862  11.315   3.479   1.717  0.2934  1.2321 -0.1318
  594MOL0     C81863  11.191   3.264   1.787 -0.4890 -0.3037 -0.1409
  594MOL0     C81864  11.255   3.179   1.695 -0.4857 -0.1406  0.9720
  594MOL0     O81865  11.174   3.073   1.670 -1.0780 -0.9365 -0.4230
  594MOL0     C81866  11.202   3.001   1.552 -0.2735  0.6477 -0.5761
  594MOL0     C81867  11.229   3.068   1.439  0.8999  0.1708  0.4364
  594MOL0     C81868  11.255   3.009   1.316  0.1975  0.4363  0.8212
  594MOL0     C81869  11.283   2.869   1.319  0.4916 -0.3196 -0.5337
  594MOL0     O81870  11.336   2.808   1.212  0.1577 -0.6974  0.2771
  594MOL0     C81871  11.343   2.672   1.201  0.7079 -0.0217 -0.7367
  594MOL0     C81872  11.402   2.635   1.063  0.7870  0.8868 -0.1207
  594MOL0     C81873  11.384   2.474   1.040  0.1090 -0.1879 -1.3925
  594MOL0     C81874  11.438   2.435   0.904  0.0722 -0.4459 -0.4858
  594MOL0     C81875  11.431   2.285   0.879 -0.1245  0.3202  0.4742
  594MOL0     C81876  11.495   2.230   0.748 -0.9540 -0.3039  0.2836
  594MOL0     C81877  11.400   2.253   0.630 -1.5161  0.3263 -0.1998
  594MOL0     C81878  11.469   2.345   0.530 -0.1136 -0.0619  0.3282
  594MOL0    Cl81879  11.610   2.255   0.445  0.2778 -0.5084  0.3344
  594MOL0     C81880  11.244   2.793   1.437 -1.0490  0.0066  0.0055
  594MOL0     C81881  11.198   2.858   1.557  0.0798 -0.0519  0.4734
  594MOL0     O81882  11.361   3.210   1.647  0.3958 -0.3619  0.2463
  594MOL0     C81883  11.082   3.219   1.865 -0.2197 -0.4701 -0.1483
  594MOL0     C81884  11.050   3.277   1.986 -0.6500 -0.4980 -0.1231
  594MOL0     N81885  10.561   3.115   2.530 -0.4176  0.1975  0.5061
  594MOL0     N81886  10.539   3.053   2.640 -0.2951  0.7343 -0.3310
  594MOL0     C81887  11.122   3.608   2.463 -0.2172  0.4649 -0.3132
  594MOL0     C81888  11.168   3.684   2.359 -0.3984  0.4678 -0.1695
  594MOL0     C81889  11.391   4.010   2.110 -0.5434  1.0897  0.4701
  594MOL0     C81890  11.277   4.068   2.052 -0.2349  0.8966  0.5774
  594MOL0     C81891  11.271   4.118   1.926 -0.1978 -1.9082  0.1603
  594MOL0     C81892  11.390   4.108   1.844  0.2753  0.1008 -0.2103
  594MOL0     O81893  11.401   4.147   1.711 -0.4124  0.4015 -0.3169
  594MOL0     C81894  11.283   4.192   1.648  0.6304 -0.2994 -0.0322
  594MOL0     C81895  11.327   4.227   1.502  0.0235  0.1260  0.2448
  594MOL0     C81896  11.288   4.367   1.454 -0.8917  0.0067  0.0508
  594MOL0     C81897  11.359   4.484   1.529 -0.1309 -0.1160  0.2988
  594MOL0     C81898  11.483   4.516   1.458 -0.0208  0.1747 -0.0871
  594MOL0     C81899  11.573   4.550   1.391  0.5617 -0.6093  0.5093
  594MOL0     C81900  11.510   4.069   1.909 -0.4653  0.4157 -0.0567
  594MOL0     C81901  11.509   4.010   2.038 -0.1152 -0.9906 -0.0365
  594MOL0     C81902  11.644   3.957   2.092  0.0783 -0.1386  0.5653
  594MOL0     H81903  11.368   3.905   2.540 -0.3477 -0.0440  0.7254
  594MOL0     H81904  11.312   3.755   2.709 -2.0322 -2.5454  0.6366
  594MOL0     H81905  11.073   3.377   2.618  3.0842  1.1815  0.3282
  594MOL0     H81906  10.940   3.495   2.656  0.2081  1.1463 -0.3067
  594MOL0     H81907  10.966   3.287   2.799 -0.9601 -0.7165  3.8025
  594MOL0     H81908  11.081   3.381   2.896 -0.4932  1.0625  0.7038
  594MOL0     H81909  10.914   3.570   2.905  2.2130 -0.1063 -1.1923
  594MOL0     H81910  10.792   3.467   2.827  1.5622  0.4437 -1.9036
  594MOL0     H81911  10.923   3.420   3.082 -0.3533  0.7482  0.3030
  594MOL0     H81912  10.754   3.452   3.065  1.0174  1.1770  0.8582
  594MOL0     H81913  10.812   3.207   3.119 -4.3912 -1.1343 -1.0695
  594MOL0     H81914  10.874   3.192   2.957  1.5110  0.7670  1.2034
  594MOL0     H81915  10.600   3.317   3.028  3.0982  2.5408  0.7523
  594MOL0     H81916  10.656   3.282   2.865  1.4559  0.2391 -0.3411
  594MOL0     H81917  10.496   3.093   2.958  0.2968 -0.5318 -2.8392
  594MOL0     H81918  10.629   3.060   3.069  1.1948 -1.3984  0.1640
  594MOL0     H81919  10.778   3.004   2.872 -0.4975 -2.1693  2.5447
  594MOL0     H81920  10.634   2.915   2.884  1.1746 -0.4146 -0.8077
  594MOL0     H81921  10.837   3.160   2.700 -1.6283  3.6744  0.6898
  594MOL0     H81922  10.723   3.365   2.467 -0.8478 -0.1486 -0.7257
  594MOL0     H81923  10.697   3.237   2.344  0.8458  2.9375 -0.5672
  594MOL0     H81924  10.950   3.235   2.494  1.8642  1.1562 -1.4339
  594MOL0     H81925  10.894   3.129   2.378  0.6646 -1.0238  3.9084
  594MOL0     H81926  10.876   3.289   2.206  0.4315 -0.7158  0.4786
  594MOL0     H81927  10.887   3.436   2.310 -1.7171  0.1389 -0.5743
  594MOL0     H81928  11.146   3.359   2.351  4.0798  2.4194 -2.8063
  594MOL0     H81929  11.112   3.243   2.227 -0.2161  0.9301 -1.0625
  594MOL0     H81930  11.250   3.541   1.974 -1.1923  0.8503 -0.5432
  594MOL0     H81931  11.422   3.466   1.730  0.4410 -0.9686 -2.5663
  594MOL0     H81932  11.279   3.580   1.739 -0.4677  0.9920 -0.2345
  594MOL0     H81933  11.296   3.456   1.611  1.8712 -2.3002  0.2281
  594MOL0     H81934  11.213   3.175   1.434 -0.1001 -0.0234 -1.2706
  594MOL0     H81935  11.278   3.075   1.233  0.2988  1.2692  1.4960
  594MOL0     H81936  11.408   2.638   1.283 -0.0261  1.0476  0.3171
  594MOL0     H81937  11.241   2.634   1.216  0.1942  0.5173 -2.6041
  594MOL0     H81938  11.347   2.694   0.989 -0.7765  1.4624  1.4367
  594MOL0     H81939  11.508   2.662   1.063  1.3024 -0.9861 -1.0276
  594MOL0     H81940  11.279   2.455   1.064  0.4491 -1.1684 -0.6047
  594MOL0     H81941  11.432   2.422   1.123 -1.6504 -0.6178 -0.5912
  594MOL0     H81942  11.542   2.461   0.881  0.4406 -0.2995  1.2144
  594MOL0     H81943  11.382   2.484   0.824  0.1188 -1.6706 -1.3083
  594MOL0     H81944  11.479   2.236   0.965  1.8983 -1.3875 -1.4796
  594MOL0     H81945  11.327   2.252   0.890  1.0537 -4.0634  0.6371
  594MOL0     H81946  11.507   2.122   0.752 -0.6915 -0.2488  1.0857
  594MOL0     H81947  11.592   2.279   0.737  0.3708 -2.8171  0.1148
  594MOL0     H81948  11.309   2.302   0.664 -1.0173  2.7016 -1.9502
  594MOL0     H81949  11.375   2.153   0.594  0.2746 -0.5407  0.8433
  594MOL0     H81950  11.507   2.443   0.558  1.4312 -0.6292  0.3575
  594MOL0     H81951  11.396   2.364   0.451 -0.9859 -0.2901  1.0745
  594MOL0     H81952  11.248   2.686   1.448  2.4912 -0.0589 -0.7773
  594MOL0     H81953  11.164   2.801   1.643  0.9276 -3.4207 -1.2482
  594MOL0     H81954  11.037   3.125   1.836 -0.1622  0.1087 -2.2629
  594MOL0     H81955  10.966   3.222   2.027 -0.3393 -0.2074  0.9258
  594MOL0     H81956  11.046   3.535   2.436 -2.1117  2.5270 -0.8480
  594MOL0     H81957  11.128   3.663   2.261  0.3968  1.6108 -0.7585
  594MOL0     H81958  11.181   4.076   2.102 -1.0323  2.8723 -1.1312
  594MOL0     H81959  11.174   4.151   1.890  0.4812 -2.5709 -2.4584
  594MOL0     H81960  11.209   4.113   1.638  1.5737 -1.1046 -0.9909
  594MOL0     H81961  11.243   4.279   1.701 -2.4466 -0.7623 -1.4126
  594MOL0     H81962  11.279   4.153   1.437 -0.1133 -2.8888  3.4573
  594MOL0     H81963  11.436   4.228   1.494 -0.0091  1.4733 -0.3735
  594MOL0     H81964  11.305   4.368   1.346  0.3472 -1.5810  0.2068
  594MOL0     H81965  11.179   4.380   1.456 -0.9895 -0.7026  2.5667
  594MOL0     H81966  11.367   4.461   1.636  1.2719  0.5499  0.3565
  594MOL0     H81967  11.301   4.576   1.520 -1.2711 -0.7706  0.7380
  594MOL0     H81968  11.648   4.583   1.321 -0.2688  0.1822 -0.0351
  594MOL0     H81969  11.602   4.090   1.856  0.8202  3.1609  2.9907
  594MOL0     H81970  11.725   3.970   2.019  1.2038  2.9606  2.1667
  594MOL0     H81971  11.675   4.029   2.168  0.8965 -0.5445  0.6301
  594MOL0     H81972  11.639   3.856   2.132 -2.5596  0.4983  2.0359
  595MOL0     O81973   3.805   1.990   5.239 -0.3970  0.2236  0.0540
  595MOL0     C81974   3.741   1.966   5.339  0.1396 -0.6942 -0.2161
  595MOL0     O81975   3.670   2.054   5.405 -0.1197  0.8123 -0.2457
  595MOL0     C81976   3.701   2.188   5.399  0.7587  1.3593 -0.3110
  595MOL0     C81977   3.594   2.281   5.378  0.3768 -0.2447 -0.7447
  595MOL0     C81978   3.619   2.416   5.389 -0.0202  0.6150  0.7368
  595MOL0     C81979   3.746   2.467   5.393 -0.0096 -1.3698 -0.0424
  595MOL0     O81980   3.769   2.600   5.386 -0.0480 -0.1723 -0.1773
  595MOL0     C81981   3.858   2.633   5.276  0.3920 -0.1492 -1.1082
  595MOL0     C81982   3.956   2.743   5.328  0.0132  0.5320 -0.3019
  595MOL0     C81983   3.932   2.879   5.268  0.8633  1.1900  0.2594
  595MOL0     C81984   3.793   2.933   5.331  0.3070  0.1652  1.0206
  595MOL0     C81985   3.705   3.003   5.228  0.1299  0.6660 -0.2679
  595MOL0     C81986   3.777   3.131   5.184  0.1670 -0.5008 -0.1304
  595MOL0     C81987   3.686   3.232   5.108  0.2195  0.0280  0.8347
  595MOL0     C81988   3.641   3.174   4.981  0.5916  0.5275  0.3020
  595MOL0     N81989   3.755   3.121   4.896 -0.4620 -0.2329  0.4158
  595MOL0     C81990   3.837   3.189   4.801 -0.2757  0.4727  0.8368
  595MOL0     C81991   3.927   3.100   4.772  1.3307 -0.5459  0.0774
  595MOL0     C81992   4.064   3.119   4.708 -0.0339 -0.7241  0.5151
  595MOL0     C81993   4.045   3.220   4.586  0.2881  0.7869 -0.7999
  595MOL0     C81994   4.164   3.221   4.490  0.1029 -0.1081 -0.2802
  595MOL0     C81995   4.141   3.321   4.379  0.2122  0.0169  1.2508
  595MOL0     O81996   4.120   3.456   4.433  0.1073  0.3521 -0.1832
  595MOL0     C81997   4.143   3.565   4.356 -0.4462  1.2043  0.0007
  595MOL0     C81998   4.107   3.687   4.412 -0.4092 -0.2386 -0.2560
  595MOL0     C81999   4.104   3.801   4.336  1.2609 -0.5680  0.3872
  595MOL0     C82000   4.100   3.917   4.432 -0.4945 -0.5896 -0.6790
  595MOL0     C82001   4.119   3.802   4.197 -0.2015 -0.4192  0.6107
  595MOL0     C82002   4.098   3.921   4.112 -0.4534  0.2636 -0.0153
  595MOL0     O82003   4.114   3.893   3.981  0.5396  0.2105 -0.0837
  595MOL0     C82004   4.150   3.992   3.888 -1.0578  0.5794  0.2253
  595MOL0     C82005   4.123   3.958   3.753  0.1421  0.1771  0.0150
  595MOL0     C82006   4.167   4.046   3.655  0.0940 -0.1200 -0.6264
  595MOL0     C82007   4.219   4.177   3.689 -1.1178  1.3513  0.2747
  595MOL0     O82008   4.248   4.286   3.605  0.0744  0.0920 -0.2864
  595MOL0     C82009   4.304   4.245   3.484  0.3750 -0.8089 -0.0725
  595MOL0     C82010   4.441   4.166   3.487  0.6767 -0.0814 -0.5297
  595MOL0     C82011   4.540   4.234   3.578 -0.2338 -0.4756 -0.1166
  595MOL0     C82012   4.664   4.149   3.586  0.1318  0.0143 -0.4261
  595MOL0     C82013   4.755   4.202   3.707  0.1014 -0.4007  0.4295
  595MOL0     C82014   4.903   4.198   3.664  0.8273  0.5509 -0.8870
  595MOL0     C82015   4.924   4.311   3.571 -0.2041  0.8508 -0.2650
  595MOL0     C82016   5.071   4.323   3.520  0.4833 -0.1090 -0.3592
  595MOL0    Cl82017   5.090   4.433   3.375 -0.4152 -0.4811  0.0199
  595MOL0     C82018   4.237   4.209   3.824  0.1758 -0.5459  1.1020
  595MOL0     C82019   4.213   4.120   3.923 -0.3010  0.1078  0.8918
  595MOL0     O82020   4.055   4.024   4.159 -0.0813 -0.1768  0.3888
  595MOL0     C82021   4.171   3.681   4.147 -1.3098  0.6995 -0.3269
  595MOL0     C82022   4.178   3.563   4.219  0.4238 -0.7355  0.3215
  595MOL0     N82023   3.898   2.986   4.834 -0.0863  1.1602 -0.7559
  595MOL0     N82024   3.796   2.994   4.907  0.1777  0.1018  0.1580
  595MOL0     C82025   3.858   2.376   5.417  0.8153  0.1560  0.1566
  595MOL0     C82026   3.826   2.240   5.427 -1.1876 -0.1489 -0.1730
  595MOL0     C82027   3.745   1.831   5.391 -0.0454 -1.3253  0.6448
  595MOL0     C82028   3.638   1.783   5.471 -0.2937 -0.3065  0.3987
  595MOL0     C82029   3.641   1.653   5.520  0.3311 -0.3973 -0.3411
  595MOL0     C82030   3.749   1.571   5.493 -0.0886  0.1729  0.0581
  595MOL0     O82031   3.764   1.437   5.521  0.2333  0.0908 -0.5210
  595MOL0     C82032   3.647   1.362   5.559 -0.3081 -0.5866 -0.4195
  595MOL0     C82033   3.583   1.327   5.426 -0.1094 -0.0829 -0.6265
  595MOL0     C82034   3.496   1.194   5.421  0.1936  0.6350 -0.0285
  595MOL0     C82035   3.456   1.158   5.276  0.6193  0.5148 -0.1556
  595MOL0     C82036   3.348   1.251   5.219  0.4486 -0.4473 -1.0305
  595MOL0     C82037   3.263   1.324   5.173  0.4987 -0.6338  0.3461
  595MOL0     C82038   3.859   1.620   5.426 -0.3664 -0.7848 -0.3355
  595MOL0     C82039   3.859   1.747   5.377  0.7436 -1.0117 -0.1686
  595MOL0     C82040   3.992   1.798   5.331 -0.4395  0.1458 -0.0013
  595MOL0     H82041   3.494   2.238   5.375  0.3321 -0.6798  2.9486
  595MOL0     H82042   3.540   2.490   5.383  0.2441  0.8121 -3.9147
  595MOL0     H82043   3.799   2.663   5.189  0.5426  1.1554 -0.7829
  595MOL0     H82044   3.909   2.544   5.236 -2.3564 -1.8737 -1.0259
  595MOL0     H82045   3.955   2.751   5.437 -0.7951  2.6555 -0.4094
  595MOL0     H82046   4.046   2.699   5.285 -0.0786 -0.5465  0.5850
  595MOL0     H82047   4.015   2.949   5.284  0.2330  2.2244 -0.8036
  595MOL0     H82048   3.917   2.874   5.160 -1.4848 -0.3260  0.5918
  595MOL0     H82049   3.748   2.843   5.374  1.7379 -1.9546 -1.5951
  595MOL0     H82050   3.826   3.009   5.402 -1.0241  2.4850 -0.6976
  595MOL0     H82051   3.613   3.031   5.279 -0.6323  0.7877 -1.6599
  595MOL0     H82052   3.692   2.941   5.138 -1.4522  1.8708 -0.9141
  595MOL0     H82053   3.808   3.191   5.270  2.8709 -0.6181 -0.9267
  595MOL0     H82054   3.874   3.108   5.138  1.1592  2.5131  0.2014
  595MOL0     H82055   3.748   3.317   5.077  0.9471 -1.4509 -2.0346
  595MOL0     H82056   3.600   3.259   5.171 -0.9578 -0.8916 -0.3410
  595MOL0     H82057   3.572   3.092   5.001 -0.5253  1.2949 -0.2965
  595MOL0     H82058   3.588   3.242   4.913  0.0740  1.5489  1.6919
  595MOL0     H82059   3.835   3.289   4.758  1.3793  0.3986  0.5426
  595MOL0     H82060   4.089   3.025   4.656  0.9115  0.7106 -1.8117
  595MOL0     H82061   4.137   3.145   4.785 -3.2696 -1.2725  4.0338
  595MOL0     H82062   3.948   3.217   4.535 -0.9743  3.0692  1.2535
  595MOL0     H82063   4.041   3.321   4.627 -1.3017  0.1168  0.8176
  595MOL0     H82064   4.252   3.247   4.550 -1.9149  0.2853  2.6932
  595MOL0     H82065   4.173   3.123   4.441  3.1931 -0.3418  0.5272
  595MOL0     H82066   4.218   3.314   4.302  0.4097  1.7438  1.2527
  595MOL0     H82067   4.047   3.288   4.333  0.8952 -1.6480  0.9732
  595MOL0     H82068   4.078   3.691   4.517 -1.6315 -4.7260 -0.2252
  595MOL0     H82069   4.204   3.950   4.436 -0.2916 -0.9206  5.1207
  595MOL0     H82070   4.087   3.887   4.537  0.2105 -1.1866 -0.7565
  595MOL0     H82071   4.024   3.993   4.409 -0.8869 -0.3209  1.2835
  595MOL0     H82072   4.073   3.864   3.729  2.8356 -1.0942 -1.1327
  595MOL0     H82073   4.159   4.013   3.552 -2.3842 -1.9208  0.0643
  595MOL0     H82074   4.221   4.195   3.434  0.7752 -4.0813  2.1562
  595MOL0     H82075   4.321   4.339   3.431  0.2291 -0.8370 -0.1698
  595MOL0     H82076   4.408   4.067   3.519  0.2792 -0.2663 -1.5052
  595MOL0     H82077   4.488   4.169   3.389 -0.2718 -1.7120 -1.0524
  595MOL0     H82078   4.485   4.251   3.670 -1.8323 -2.6448 -0.5726
  595MOL0     H82079   4.567   4.328   3.528  0.0995 -0.4465  0.1130
  595MOL0     H82080   4.710   4.146   3.486 -0.8612 -1.2031 -0.8666
  595MOL0     H82081   4.622   4.052   3.612 -0.0332  0.2651  0.2652
  595MOL0     H82082   4.726   4.300   3.745 -2.0349 -0.5479 -0.6717
  595MOL0     H82083   4.734   4.133   3.790 -1.7641  1.7393  1.8402
  595MOL0     H82084   4.931   4.100   3.624  1.4232  0.9312 -1.4145
  595MOL0     H82085   4.970   4.210   3.750 -1.7695  0.1347  1.3355
  595MOL0     H82086   4.894   4.406   3.616 -0.8761 -0.5118  2.3144
  595MOL0     H82087   4.862   4.296   3.482  2.2246  2.1926 -2.3498
  595MOL0     H82088   5.110   4.227   3.483  2.0950  0.8015 -1.1253
  595MOL0     H82089   5.141   4.345   3.601  0.4274  1.0080 -0.5947
  595MOL0     H82090   4.282   4.304   3.850 -1.2121  0.5017 -0.1506
  595MOL0     H82091   4.226   4.142   4.029 -0.5201 -3.3229  1.7549
  595MOL0     H82092   4.189   3.674   4.040  0.0389 -2.4434 -0.0148
  595MOL0     H82093   4.208   3.471   4.170 -1.8918 -1.4799  0.1641
  595MOL0     H82094   3.957   2.407   5.450  1.0144 -1.1386  0.8530
  595MOL0     H82095   3.907   2.170   5.446  0.1566  1.6047  1.0055
  595MOL0     H82096   3.557   1.854   5.458 -0.6569 -0.6061  0.9894
  595MOL0     H82097   3.559   1.608   5.575  1.0722 -2.7046 -1.0022
  595MOL0     H82098   3.682   1.275   5.615  2.9972 -0.0391 -1.3961
  595MOL0     H82099   3.589   1.421   5.630  0.2129 -0.5791  0.0044
  595MOL0     H82100   3.665   1.303   5.358  0.6868  0.0915  0.2616
  595MOL0     H82101   3.531   1.416   5.389 -0.9464 -0.0431  0.6103
  595MOL0     H82102   3.543   1.100   5.450 -0.2439 -0.7008 -3.1569
  595MOL0     H82103   3.404   1.207   5.479  0.0754  1.0089 -0.2926
  595MOL0     H82104   3.411   1.058   5.270 -0.1276  0.9006 -1.7276
  595MOL0     H82105   3.540   1.159   5.206  0.2576 -1.1144 -0.6632
  595MOL0     H82106   3.188   1.378   5.118  2.3032  0.1641 -1.4863
  595MOL0     H82107   3.937   1.550   5.400  0.3729  0.2059 -0.8328
  595MOL0     H82108   4.021   1.891   5.381  1.2013 -1.0995  1.5288
  595MOL0     H82109   4.072   1.738   5.376  1.0402  3.2685  1.9035
  595MOL0     H82110   4.000   1.803   5.222  0.2933  0.1503  0.0472
  596MOL0     O82111   5.872   3.730   2.097  1.0601  0.8336 -0.0988
  596MOL0     C82112   5.813   3.663   2.012 -0.7100  1.0039  1.1348
  596MOL0     O82113   5.798   3.526   2.027  0.0443 -0.2402 -0.0609
  596MOL0     C82114   5.834   3.484   2.154  0.7554 -0.4232 -0.8463
  596MOL0     C82115   5.950   3.408   2.167  0.1347  0.2944  0.1731
  596MOL0     C82116   5.980   3.339   2.285 -0.0343 -0.0387  0.6239
  596MOL0     C82117   5.891   3.350   2.397  0.2113  0.8552 -0.3979
  596MOL0     O82118   5.913   3.266   2.507  0.3574  0.0191  0.6235
  596MOL0     C82119   5.805   3.245   2.589 -0.3798  0.5618 -0.5988
  596MOL0     C82120   5.814   3.100   2.650 -0.1607  0.4342  0.0397
  596MOL0     C82121   5.890   2.983   2.564  0.2635 -0.0207  0.1738
  596MOL0     C82122   5.869   2.846   2.633  0.7740  1.1854  0.7120
  596MOL0     C82123   5.938   2.739   2.542  0.4137  0.2907  0.1852
  596MOL0     C82124   5.985   2.630   2.640 -0.4201  0.2395  0.0263
  596MOL0     C82125   6.063   2.515   2.565  0.8137  0.0323  0.0004
  596MOL0     C82126   6.096   2.391   2.654 -0.8830  0.0239  0.7866
  596MOL0     N82127   6.159   2.279   2.574 -0.0276 -1.7018 -0.0635
  596MOL0     C82128   6.134   2.239   2.437  0.5281  0.2825 -0.2040
  596MOL0     C82129   6.218   2.135   2.417  0.0611  0.1335 -0.4347
  596MOL0     C82130   6.224   2.031   2.309 -0.1033  0.6969  0.0825
  596MOL0     C82131   6.131   1.913   2.353  0.4099 -0.6472  0.2419
  596MOL0     C82132   6.167   1.795   2.275 -0.2334 -2.1289 -0.2640
  596MOL0     C82133   6.083   1.684   2.329 -0.1760  0.2265  0.8523
  596MOL0     O82134   6.123   1.653   2.465  0.1632  0.2777 -0.6788
  596MOL0     C82135   6.080   1.518   2.491  0.3414 -0.4964 -0.2547
  596MOL0     C82136   5.957   1.460   2.453  0.1459  0.0120  0.6933
  596MOL0     C82137   5.908   1.342   2.503 -0.2173 -0.9499 -0.3490
  596MOL0     C82138   5.764   1.312   2.475 -0.3097 -0.4493  0.2157
  596MOL0     C82139   5.991   1.268   2.591  0.0308  0.7005 -0.5116
  596MOL0     C82140   5.962   1.127   2.638 -0.1478 -0.1764 -0.0605
  596MOL0     O82141   6.023   1.077   2.746 -0.2715  0.1491  0.2229
  596MOL0     C82142   5.969   0.952   2.796  1.2181 -0.6711  0.8477
  596MOL0     C82143   6.042   0.839   2.783  0.0640  0.1481  0.2387
  596MOL0     C82144   6.003   0.718   2.840  0.3880 -0.2550  0.2601
  596MOL0     C82145   5.885   0.710   2.909 -0.2363 -0.0868  0.3347
  596MOL0     O82146   5.848   0.600   2.976 -0.2968 -0.0144 -0.5742
  596MOL0     C82147   5.924   0.478   2.994  0.2138  0.5757  0.7024
  596MOL0     C82148   5.936   0.390   2.862  0.3395 -1.6208 -0.5220
  596MOL0     C82149   5.992   0.254   2.882 -0.2100  0.5306  0.7419
  596MOL0     C82150   6.105   0.226   2.970  0.3445  0.3890 -0.4667
  596MOL0     C82151   6.171   0.083   2.942  0.5131 -0.1156 -0.1052
  596MOL0     C82152   6.279   0.047   3.044  1.0840 -0.4393 -0.0255
  596MOL0     C82153   6.375  -0.070   2.992  0.8929  1.1382  0.1804
  596MOL0     C82154   6.448  -0.151   3.104 -0.6574 -0.0323 -0.4491
  596MOL0    Cl82155   6.517  -0.034   3.216 -0.3913 -0.4761  0.2242
  596MOL0     C82156   5.807   0.832   2.913  1.1137  0.6674 -0.7043
  596MOL0     C82157   5.844   0.953   2.860 -0.8601  0.2084  0.0021
  596MOL0     O82158   5.881   1.066   2.567 -0.6105  0.5607 -0.7827
  596MOL0     C82159   6.123   1.323   2.633 -1.1383 -0.8720  0.9185
  596MOL0     C82160   6.158   1.450   2.585  0.4912  0.0573  0.3419
  596MOL0     N82161   6.292   2.115   2.532  0.1912  0.0705 -0.6230
  596MOL0     N82162   6.261   2.193   2.629  0.5966 -0.7714  0.6199
  596MOL0     C82163   5.780   3.442   2.388  0.3338  0.4807  0.6167
  596MOL0     C82164   5.748   3.497   2.266  0.5907 -0.4346 -0.0855
  596MOL0     C82165   5.789   3.730   1.876 -0.1534 -0.1831 -0.2450
  596MOL0     C82166   5.792   3.650   1.756  1.0350 -0.6117  0.3582
  596MOL0     C82167   5.792   3.715   1.633 -0.3429  0.0705 -0.6971
  596MOL0     C82168   5.768   3.858   1.623  0.0108 -0.0089  0.2368
  596MOL0     O82169   5.773   3.933   1.508 -0.4822 -0.3317 -0.1134
  596MOL0     C82170   5.742   3.863   1.386  0.6990  0.1697 -0.2659
  596MOL0     C82171   5.685   3.964   1.278  0.5249  0.3492  0.0799
  596MOL0     C82172   5.772   4.095   1.255  0.0815  0.3462  0.1533
  596MOL0     C82173   5.731   4.192   1.137  0.1148  0.3790 -0.2529
  596MOL0     C82174   5.603   4.256   1.154  0.0734 -0.6686  0.4680
  596MOL0     C82175   5.501   4.318   1.135  0.9542  0.0557  0.1973
  596MOL0     C82176   5.750   3.924   1.742 -0.3124 -0.5745  0.4057
  596MOL0     C82177   5.755   3.866   1.874 -0.4933 -0.0237 -0.4652
  596MOL0     C82178   5.735   3.950   1.998  0.3416 -0.2493  0.0852
  596MOL0     H82179   6.005   3.391   2.076  1.1390 -1.5598  1.0688
  596MOL0     H82180   6.067   3.275   2.292  1.1179  1.3905 -0.0968
  596MOL0     H82181   5.708   3.251   2.538  0.0469  0.0459 -1.4901
  596MOL0     H82182   5.816   3.331   2.656  2.0707 -0.4215  0.4113
  596MOL0     H82183   5.877   3.109   2.739 -2.0022  0.2003  1.4235
  596MOL0     H82184   5.715   3.068   2.683 -0.7576  1.0489 -1.0953
  596MOL0     H82185   5.851   2.988   2.461 -1.2846  1.6425  0.7865
  596MOL0     H82186   5.997   2.997   2.548  0.2539 -0.3044 -0.1627
  596MOL0     H82187   5.908   2.845   2.735  0.6100 -4.2067  1.0233
  596MOL0     H82188   5.767   2.809   2.646  1.6314 -0.7818  2.3487
  596MOL0     H82189   6.036   2.776   2.510  2.3611 -2.4714  2.3228
  596MOL0     H82190   5.870   2.715   2.461 -1.2975 -3.7324  2.4937
  596MOL0     H82191   6.052   2.668   2.717 -2.3605 -1.0437  2.4932
  596MOL0     H82192   5.893   2.596   2.688 -2.2583  1.4885 -2.3767
  596MOL0     H82193   6.158   2.543   2.519  0.0273  0.1477 -1.6482
  596MOL0     H82194   5.992   2.493   2.485 -0.5694  0.1892  1.1440
  596MOL0     H82195   6.149   2.427   2.742 -1.5971  1.4395  0.6681
  596MOL0     H82196   6.002   2.347   2.689 -0.8076 -0.0502  0.8934
  596MOL0     H82197   6.054   2.274   2.374 -0.1865  0.1974  0.6356
  596MOL0     H82198   6.324   1.988   2.297 -1.2166 -1.6153 -1.8135
  596MOL0     H82199   6.187   2.071   2.214 -0.5160 -2.8338 -1.3732
  596MOL0     H82200   6.144   1.889   2.459  3.1571 -3.4565 -0.5723
  596MOL0     H82201   6.030   1.950   2.331 -1.1650 -4.4068  0.3325
  596MOL0     H82202   6.155   1.809   2.167 -3.4098  2.6224  0.4162
  596MOL0     H82203   6.272   1.771   2.297 -1.3326 -6.0136  1.6893
  596MOL0     H82204   5.975   1.704   2.322 -0.3420  2.8585  6.0391
  596MOL0     H82205   6.093   1.596   2.266 -3.7386  0.8836 -0.9184
  596MOL0     H82206   5.892   1.527   2.398 -3.0229 -1.2469  2.6368
  596MOL0     H82207   5.707   1.398   2.438  1.5532  0.7507  0.0220
  596MOL0     H82208   5.726   1.274   2.570  4.8378 -1.6945  2.1057
  596MOL0     H82209   5.772   1.223   2.412  1.0718 -1.1654  1.3424
  596MOL0     H82210   6.133   0.837   2.723  1.5797 -0.7503  2.4132
  596MOL0     H82211   6.081   0.648   2.869  0.5928  0.7086  2.2236
  596MOL0     H82212   6.026   0.506   3.022  1.0652 -0.1348 -1.4126
  596MOL0     H82213   5.872   0.414   3.066  0.4861 -3.5661 -2.3794
  596MOL0     H82214   5.843   0.374   2.807  0.1319 -0.0751 -0.6774
  596MOL0     H82215   5.993   0.441   2.783  0.1322 -1.1190 -0.3497
  596MOL0     H82216   6.030   0.233   2.782 -2.4228  0.3551 -0.1355
  596MOL0     H82217   5.911   0.181   2.896 -1.9708  1.4382 -3.2856
  596MOL0     H82218   6.051   0.213   3.064 -1.6242  1.3174 -1.4013
  596MOL0     H82219   6.173   0.311   2.981 -1.1266  1.6249 -0.6121
  596MOL0     H82220   6.098   0.002   2.937  1.5698 -1.1284  0.4346
  596MOL0     H82221   6.206   0.083   2.838 -2.9085 -2.3559 -1.4232
  596MOL0     H82222   6.241   0.040   3.146  0.0693  0.1958 -0.3561
  596MOL0     H82223   6.342   0.136   3.054  0.1644  0.2068  0.0382
  596MOL0     H82224   6.448  -0.025   2.924  1.7418  0.5959  0.7110
  596MOL0     H82225   6.315  -0.137   2.930  0.4333  0.6699  1.1124
  596MOL0     H82226   6.525  -0.213   3.058 -2.3745 -1.9687 -0.8432
  596MOL0     H82227   6.379  -0.208   3.167 -0.5643  0.7172  0.3531
  596MOL0     H82228   5.715   0.827   2.971  2.1367 -0.3437  0.8947
  596MOL0     H82229   5.781   1.040   2.875  1.6002  1.9595  0.7453
  596MOL0     H82230   6.201   1.275   2.691 -0.0295  0.7269  0.8005
  596MOL0     H82231   6.259   1.473   2.618  0.0088 -0.7506  2.6198
  596MOL0     H82232   5.722   3.467   2.476 -0.4565  3.9095 -0.7274
  596MOL0     H82233   5.662   3.564   2.265  2.0084  1.4467 -0.6606
  596MOL0     H82234   5.798   3.542   1.767  0.2976 -0.5907  1.0819
  596MOL0     H82235   5.817   3.659   1.543  0.5290 -3.3311  1.4459
  596MOL0     H82236   5.821   3.802   1.342 -1.0258 -1.9494 -0.5982
  596MOL0     H82237   5.668   3.783   1.393 -1.1863  1.9046  0.6744
  596MOL0     H82238   5.589   3.998   1.318  0.0026 -3.2675  2.3515
  596MOL0     H82239   5.663   3.915   1.182  2.1797 -0.6119  0.1463
  596MOL0     H82240   5.779   4.144   1.353 -1.5502 -1.9506  1.5142
  596MOL0     H82241   5.877   4.077   1.229  0.7288  4.0112 -0.3780
  596MOL0     H82242   5.719   4.125   1.052 -0.5890  0.7412 -0.4474
  596MOL0     H82243   5.798   4.274   1.112  0.2931  0.7962  1.4249
  596MOL0     H82244   5.420   4.387   1.121 -0.7118 -2.1398 -1.9615
  596MOL0     H82245   5.723   4.029   1.731  0.1031 -0.2637  2.0863
  596MOL0     H82246   5.714   4.048   1.954  1.5976 -1.2360 -2.9384
  596MOL0     H82247   5.650   3.908   2.052 -0.8972  2.0907  0.0704
  596MOL0     H82248   5.820   3.953   2.067 -0.1044 -2.1658  0.7558
  597MOL0     O82249   2.264   5.944   9.079  0.4126 -0.2485  0.1224
  597MOL0     C82250   2.378   5.943   9.130 -0.1586 -0.0382  0.7340
  597MOL0     O82251   2.415   5.934   9.252 -0.8562  0.5570 -0.3448
  597MOL0     C82252   2.337   5.881   9.355 -0.0325  0.8192  0.5557
  597MOL0     C82253   2.379   5.918   9.482  0.2649 -0.6248  0.0497
  597MOL0     C82254   2.289   5.905   9.585 -1.4856 -0.1278  0.0566
  597MOL0     C82255   2.170   5.843   9.572  0.6765  0.2805 -0.9176
  597MOL0     O82256   2.092   5.835   9.676  0.1309  0.4510  0.3504
  597MOL0     C82257   2.071   5.958   9.761  0.8992 -0.5912  0.8580
  597MOL0     C82258   1.921   5.991   9.773 -0.2450 -0.2233  0.3237
  597MOL0     C82259   1.842   5.874   9.830 -0.1325  0.4044 -0.5430
  597MOL0     C82260   1.697   5.917   9.813 -0.1389  0.6924  1.0572
  597MOL0     C82261   1.599   5.818   9.892  0.0040 -0.4851 -0.4938
  597MOL0     C82262   1.623   5.670   9.880  0.9696 -0.0418 -0.3312
  597MOL0     C82263   1.519   5.572   9.938 -0.5029 -0.0119  0.5020
  597MOL0     C82264   1.485   5.580  10.087  0.1858 -0.4857  0.2890
  597MOL0     N82265   1.436   5.459  10.134  0.6102  0.8654  0.3233
  597MOL0     C82266   1.482   5.398  10.254  0.4839 -0.2831 -0.0225
  597MOL0     C82267   1.390   5.294  10.273  0.0006  0.4226  0.2734
  597MOL0     C82268   1.392   5.191  10.385 -0.2214  0.5131  0.0954
  597MOL0     C82269   1.386   5.045  10.340 -1.2850  1.4219  0.1711
  597MOL0     C82270   1.414   4.951  10.452 -0.2806 -0.4716 -0.3100
  597MOL0     C82271   1.364   4.817  10.403 -0.7913  0.1729  0.7461
  597MOL0     O82272   1.375   4.716  10.505 -0.5018  0.2217  0.0112
  597MOL0     C82273   1.328   4.585  10.482 -0.0335  0.1700  0.8225
  597MOL0     C82274   1.249   4.547  10.372 -0.0243  0.8843  0.4146
  597MOL0     C82275   1.221   4.413  10.334  0.0581  0.0772  1.0175
  597MOL0     C82276   1.147   4.387  10.210  0.6929 -1.0952  0.3501
  597MOL0     C82277   1.266   4.311  10.423 -0.0265  0.2377  0.1192
  597MOL0     C82278   1.236   4.164  10.401 -0.4265  0.4451  0.2046
  597MOL0     O82279   1.279   4.073  10.486 -0.0209  0.4612  0.0033
  597MOL0     C82280   1.281   3.936  10.447  0.1641 -0.6110  0.2014
  597MOL0     C82281   1.231   3.848  10.531 -0.4046  0.4383 -0.0422
  597MOL0     C82282   1.225   3.706  10.500 -0.2110 -0.5424  0.3608
  597MOL0     C82283   1.285   3.659  10.383 -0.3497 -0.3209 -0.2134
  597MOL0     O82284   1.266   3.520  10.357  0.9827  0.5722  0.1406
  597MOL0     C82285   1.167   3.493  10.250  0.4324 -0.0879 -0.0100
  597MOL0     C82286   1.031   3.461  10.309  0.5977  0.4821  0.1721
  597MOL0     C82287   1.025   3.340  10.407 -0.2687 -0.9139 -0.0668
  597MOL0     C82288   1.058   3.210  10.339 -0.2154 -0.2267  0.1344
  597MOL0     C82289   1.013   3.083  10.432 -0.4854 -0.9488  0.0712
  597MOL0     C82290   1.052   2.955  10.368  0.1030  0.3901 -0.4314
  597MOL0     C82291   1.081   2.835  10.467  0.2245  0.0907  0.7031
  597MOL0     C82292   0.958   2.750  10.467 -0.3737 -0.1357 -1.2244
  597MOL0    Cl82293   0.983   2.620  10.584 -0.5797 -0.1441 -0.1710
  597MOL0     C82294   1.329   3.750  10.288  0.9987 -0.0467  0.1757
  597MOL0     C82295   1.336   3.888  10.319  0.4854 -0.1078 -0.2239
  597MOL0     O82296   1.172   4.139  10.303 -0.0174 -0.3835 -0.3279
  597MOL0     C82297   1.340   4.348  10.540 -0.4907 -0.0157  0.0860
  597MOL0     C82298   1.377   4.480  10.565 -0.7039 -0.1081 -0.8512
  597MOL0     N82299   1.289   5.314  10.186  0.2383  0.0851 -0.3832
  597MOL0     N82300   1.318   5.406  10.103  0.5309 -0.2825  0.8191
  597MOL0     C82301   2.136   5.780   9.455  0.3843  1.1932  1.0087
  597MOL0     C82302   2.220   5.801   9.346  0.1152  0.9740  0.1139
  597MOL0     C82303   2.499   5.977   9.032 -0.7829 -0.0904 -0.1548
  597MOL0     C82304   2.623   6.000   9.092 -0.0914 -0.0714  0.4294
  597MOL0     C82305   2.725   6.052   9.014  0.0179  0.6034 -0.4914
  597MOL0     C82306   2.717   6.066   8.878  0.5246 -0.6782 -0.2566
  597MOL0     O82307   2.827   6.105   8.815  0.5223 -0.0739  0.0002
  597MOL0     C82308   2.829   6.109   8.671  0.1439 -0.7662 -0.0219
  597MOL0     C82309   2.836   5.967   8.600 -1.4314  0.1823 -0.2035
  597MOL0     C82310   2.972   5.893   8.632  0.4264  0.0118  0.3975
  597MOL0     C82311   3.090   5.973   8.581  0.5613  0.0475 -0.5773
  597MOL0     C82312   3.210   5.891   8.586 -0.1615  0.3219  0.6198
  597MOL0     C82313   3.308   5.826   8.608  0.1963 -0.0831  0.8433
  597MOL0     C82314   2.595   6.040   8.822 -0.2251 -0.0082  0.4112
  597MOL0     C82315   2.491   5.991   8.892 -0.1032  0.2037  0.8240
  597MOL0     C82316   2.380   5.952   8.805  0.3821 -0.7427 -0.6738
  597MOL0     H82317   2.468   5.978   9.498 -0.0041  0.3603 -1.8652
  597MOL0     H82318   2.315   5.955   9.678  0.1842  1.9372 -1.4102
  597MOL0     H82319   2.111   6.044   9.708  0.0138 -2.0347 -2.3698
  597MOL0     H82320   2.118   5.929   9.856 -0.6628 -0.8087  1.5919
  597MOL0     H82321   1.914   6.077   9.841  1.4547  0.2679 -0.0677
  597MOL0     H82322   1.868   6.023   9.683 -1.5623 -0.8145  0.8559
  597MOL0     H82323   1.867   5.783   9.774  2.2423  1.7251 -1.7525
  597MOL0     H82324   1.876   5.857   9.932  2.3897  2.4375 -0.9596
  597MOL0     H82325   1.693   6.018   9.856 -1.6003  1.5518 -0.9312
  597MOL0     H82326   1.660   5.932   9.711 -0.5134 -1.5496  0.8161
  597MOL0     H82327   1.499   5.844   9.854 -0.7554  0.5219  2.0032
  597MOL0     H82328   1.594   5.841   9.999 -0.3292  1.0111 -0.7978
  597MOL0     H82329   1.638   5.654   9.773  0.2711 -2.1139 -0.1676
  597MOL0     H82330   1.713   5.635   9.933  0.7331  2.2584  1.7544
  597MOL0     H82331   1.560   5.474   9.911 -0.3092  0.9343 -3.0811
  597MOL0     H82332   1.428   5.589   9.880  1.4492  0.8005 -2.5678
  597MOL0     H82333   1.570   5.611  10.147  0.9196  0.1385 -1.0276
  597MOL0     H82334   1.419   5.665  10.107  0.0462 -0.4203 -0.4163
  597MOL0     H82335   1.572   5.424  10.309  0.8055 -0.2367 -0.5642
  597MOL0     H82336   1.312   5.207  10.457  0.8383 -3.1460  2.3466
  597MOL0     H82337   1.483   5.211  10.442  1.8254  1.9089 -3.3283
  597MOL0     H82338   1.299   5.015  10.282  1.0316 -2.2877 -1.7790
  597MOL0     H82339   1.474   5.026  10.277  0.2548  1.6715  2.1597
  597MOL0     H82340   1.520   4.953  10.478 -0.3332  0.2525 -0.1209
  597MOL0     H82341   1.345   4.981  10.531 -4.4602 -3.6877 -2.3636
  597MOL0     H82342   1.257   4.835  10.389 -1.0744  0.0736  2.6442
  597MOL0     H82343   1.416   4.766  10.321 -2.4118 -4.5493  2.3466
  597MOL0     H82344   1.202   4.632  10.323 -1.0467 -0.0205 -0.2378
  597MOL0     H82345   1.041   4.378  10.236  0.7767 -1.5000  0.5506
  597MOL0     H82346   1.181   4.309  10.142  1.4773  0.6763 -1.4066
  597MOL0     H82347   1.162   4.484  10.161  0.5422 -0.3463  1.7171
  597MOL0     H82348   1.187   3.885  10.623 -1.8494 -0.1300 -0.4698
  597MOL0     H82349   1.175   3.639  10.570 -0.5074 -0.4192  0.2692
  597MOL0     H82350   1.156   3.569  10.173  0.9370 -0.9019 -0.9028
  597MOL0     H82351   1.205   3.403  10.201  1.6966 -0.7316  2.0052
  597MOL0     H82352   0.995   3.556  10.351  2.8172  3.4323 -3.9536
  597MOL0     H82353   0.955   3.438  10.233  1.8141 -0.1637 -0.8801
  597MOL0     H82354   0.926   3.328  10.451  0.2930  0.7660  1.7883
  597MOL0     H82355   1.096   3.352  10.489 -0.0773 -1.3133 -0.1698
  597MOL0     H82356   1.166   3.211  10.317 -0.0449  1.2197  0.8887
  597MOL0     H82357   1.000   3.203  10.247  0.2073  0.5295 -0.2040
  597MOL0     H82358   1.061   3.077  10.530 -0.6831 -3.8286  0.0501
  597MOL0     H82359   0.908   3.073  10.459 -0.2230 -3.4719  0.3893
  597MOL0     H82360   1.150   2.959  10.320  0.1206 -0.0830 -0.4407
  597MOL0     H82361   0.992   2.923  10.282  1.6445 -1.6416 -0.8302
  597MOL0     H82362   1.106   2.875  10.565 -1.9130 -0.4048  1.5002
  597MOL0     H82363   1.158   2.768  10.426 -1.2645 -0.7701 -0.8289
  597MOL0     H82364   0.951   2.705  10.368  2.1137 -1.6045 -0.7999
  597MOL0     H82365   0.863   2.799  10.491  1.2002  1.1517  3.5128
  597MOL0     H82366   1.357   3.709  10.192 -2.4172  2.2524 -2.0567
  597MOL0     H82367   1.374   3.967  10.256 -0.9934  0.0442 -0.9607
  597MOL0     H82368   1.369   4.269  10.609 -1.8100  1.0340  1.9187
  597MOL0     H82369   1.409   4.501  10.667 -0.4869  0.2716 -0.9960
  597MOL0     H82370   2.040   5.730   9.448  1.7985 -1.5763 -0.3970
  597MOL0     H82371   2.183   5.751   9.256 -3.5750 -6.0612  4.6294
  597MOL0     H82372   2.647   5.987   9.198 -0.7142  0.3493  0.6278
  597MOL0     H82373   2.811   6.112   9.043 -0.4592  1.7095 -1.2943
  597MOL0     H82374   2.738   6.157   8.635  0.8057 -0.0570 -0.7727
  597MOL0     H82375   2.919   6.157   8.633  1.1216 -2.9943 -0.7098
  597MOL0     H82376   2.835   6.004   8.497 -1.7975 -4.2659 -1.9864
  597MOL0     H82377   2.750   5.901   8.614 -0.1476 -2.5643 -3.8205
  597MOL0     H82378   2.985   5.864   8.737 -1.1039  1.2652  0.9854
  597MOL0     H82379   2.975   5.795   8.585 -2.3912  0.1703 -0.3197
  597MOL0     H82380   3.098   6.056   8.652  2.5001 -1.0509  0.5688
  597MOL0     H82381   3.070   6.010   8.480 -5.3934 -0.4202  0.0794
  597MOL0     H82382   3.401   5.784   8.640  1.3309  2.5330  1.2247
  597MOL0     H82383   2.569   6.078   8.724  0.6413  2.7569  1.1606
  597MOL0     H82384   2.358   5.846   8.818 -0.7496 -0.4888 -0.3480
  597MOL0     H82385   2.295   6.014   8.835  1.2441  2.3591 -3.9047
  597MOL0     H82386   2.399   5.977   8.700  1.3956  4.4663  0.4806
  598MOL0     O82387   0.303   7.482   5.734 -0.2546 -0.1972  0.2143
  598MOL0     C82388   0.397   7.501   5.816 -0.2245  0.0916 -0.0495
  598MOL0     O82389   0.396   7.586   5.919  0.5453  0.4056  0.6218
  598MOL0     C82390   0.295   7.681   5.931  0.6094  0.2313 -0.0898
  598MOL0     C82391   0.155   7.649   5.910  0.7369 -0.2585 -0.0388
  598MOL0     C82392   0.057   7.736   5.946 -0.0853 -0.5957  0.0501
  598MOL0     C82393   0.091   7.847   6.020  0.5382 -1.2405  0.1485
  598MOL0     O82394  -0.006   7.946   6.052 -0.6004 -0.1137 -0.5208
  598MOL0     C82395  -0.146   7.942   6.019 -0.1423  0.3018  0.2328
  598MOL0     C82396  -0.206   7.860   6.128  0.1027 -0.8328  0.7996
  598MOL0     C82397  -0.220   7.936   6.261 -0.7156 -1.0673  0.7356
  598MOL0     C82398  -0.221   7.840   6.375  0.5079 -1.1725 -0.2338
  598MOL0     C82399  -0.240   7.905   6.512  0.7311  0.2918  0.5983
  598MOL0     C82400  -0.384   7.979   6.528  0.1906  0.4965  0.1249
  598MOL0     C82401  -0.419   7.987   6.676 -0.9730  0.5571  0.6549
  598MOL0     C82402  -0.509   7.867   6.719 -0.3536 -0.0366  0.7122
  598MOL0     N82403  -0.524   7.877   6.863  0.2261 -0.0359  0.0746
  598MOL0     C82404  -0.479   7.784   6.949  0.0637 -0.6537 -0.8808
  598MOL0     C82405  -0.516   7.832   7.075  0.9187  0.7131 -0.2374
  598MOL0     C82406  -0.495   7.772   7.207 -0.1484  0.6864 -0.4507
  598MOL0     C82407  -0.355   7.800   7.255 -0.2494  0.8157  0.9280
  598MOL0     C82408  -0.308   7.703   7.367 -0.4186  0.5828  0.2965
  598MOL0     C82409  -0.153   7.698   7.371 -0.2620 -0.6597 -0.8547
  598MOL0     O82410  -0.121   7.594   7.466 -0.5957 -0.0378 -0.4089
  598MOL0     C82411   0.009   7.550   7.456  0.7970  0.8345 -0.4272
  598MOL0     C82412   0.039   7.426   7.514 -0.3080 -0.7485 -1.1259
  598MOL0     C82413   0.166   7.381   7.537  0.3486 -0.4998 -0.7041
  598MOL0     C82414   0.175   7.269   7.641 -0.1400  0.1720 -0.8682
  598MOL0     C82415   0.282   7.449   7.488 -0.4505 -1.0136 -0.3957
  598MOL0     C82416   0.420   7.405   7.514  0.5573  0.4837 -0.3842
  598MOL0     O82417   0.510   7.503   7.529  0.0050 -0.1947 -0.0440
  598MOL0     C82418   0.640   7.466   7.532 -0.6691 -0.6211 -0.6319
  598MOL0     C82419   0.714   7.377   7.447  0.1408 -1.3472  0.6273
  598MOL0     C82420   0.857   7.365   7.469  0.7809 -1.0574  0.5333
  598MOL0     C82421   0.928   7.422   7.576 -0.1689  0.1497 -0.2537
  598MOL0     O82422   1.061   7.398   7.596  0.1773 -0.6328  0.1769
  598MOL0     C82423   1.129   7.461   7.703 -0.6088  0.2538  0.3482
  598MOL0     C82424   1.265   7.408   7.730 -0.7403  0.2659 -0.3117
  598MOL0     C82425   1.351   7.481   7.840 -0.4953 -0.3306 -0.1658
  598MOL0     C82426   1.346   7.631   7.864 -0.3623  0.2151  0.3537
  598MOL0     C82427   1.443   7.681   7.971  0.8760  1.3361  0.1347
  598MOL0     C82428   1.428   7.828   8.007  1.6962  0.0902 -0.0422
  598MOL0     C82429   1.311   7.842   8.111  0.2760  0.0875  1.1388
  598MOL0     C82430   1.269   7.991   8.108  0.1692  0.7846  0.4216
  598MOL0    Cl82431   1.393   8.093   8.179  0.0916 -0.0500  0.5577
  598MOL0     C82432   0.853   7.520   7.656 -0.8444  0.5126  0.0901
  598MOL0     C82433   0.715   7.537   7.631  0.5572  0.5377 -0.9712
  598MOL0     O82434   0.443   7.284   7.499  0.7017 -0.2544 -0.1704
  598MOL0     C82435   0.256   7.563   7.417  0.9077 -0.1864  0.4267
  598MOL0     C82436   0.126   7.620   7.401  0.0872  0.7930 -0.8738
  598MOL0     N82437  -0.589   7.949   7.054  0.0493 -0.1694 -0.0687
  598MOL0     N82438  -0.586   7.975   6.929 -0.2667  0.5589 -0.5310
  598MOL0     C82439   0.223   7.875   6.063  0.8539  0.5948 -0.0632
  598MOL0     C82440   0.324   7.787   6.014 -1.0817 -0.2915  0.5816
  598MOL0     C82441   0.502   7.401   5.815 -0.6014  0.7750 -1.2563
  598MOL0     C82442   0.547   7.362   5.691  0.1588  0.5123  0.2410
  598MOL0     C82443   0.651   7.280   5.667  0.0702  0.1995 -0.3215
  598MOL0     C82444   0.716   7.227   5.782 -0.0277 -0.0357  0.4391
  598MOL0     O82445   0.845   7.165   5.774 -0.2763  0.7996 -0.2355
  598MOL0     C82446   0.862   7.070   5.660  0.3520  0.0484 -0.6262
  598MOL0     C82447   0.993   6.984   5.694  0.7616 -0.6697  0.1022
  598MOL0     C82448   0.955   6.855   5.767 -0.1803  0.1377  0.1827
  598MOL0     C82449   0.879   6.870   5.901 -0.0697  0.7055 -0.2080
  598MOL0     C82450   0.729   6.880   5.883 -0.3845 -0.5368  0.9133
  598MOL0     C82451   0.610   6.899   5.860 -0.2099  0.1257 -1.1165
  598MOL0     C82452   0.677   7.264   5.910  0.5261 -0.3297  0.0772
  598MOL0     C82453   0.571   7.347   5.930 -0.0466 -0.5986  0.0584
  598MOL0     C82454   0.551   7.406   6.069 -0.5644  0.5042 -1.0225
  598MOL0     H82455   0.129   7.555   5.861 -2.0308 -0.7455  2.1171
  598MOL0     H82456  -0.046   7.718   5.915 -0.3136  1.6644 -0.7815
  598MOL0     H82457  -0.151   7.918   5.912  1.0371 -2.5323  0.7164
  598MOL0     H82458  -0.163   8.049   6.029  1.0672  0.5928 -0.6074
  598MOL0     H82459  -0.302   7.838   6.080  0.5894 -0.7284 -0.2373
  598MOL0     H82460  -0.148   7.771   6.152 -0.8968 -0.7457  3.9900
  598MOL0     H82461  -0.131   7.998   6.280 -1.2656  0.3148 -1.0118
  598MOL0     H82462  -0.306   8.003   6.261 -0.5858 -0.6650  4.5330
  598MOL0     H82463  -0.304   7.770   6.362 -1.0916  1.0782 -3.4609
  598MOL0     H82464  -0.129   7.780   6.365 -1.4084 -3.9651 -2.9259
  598MOL0     H82465  -0.160   7.979   6.520  4.3494 -3.4162  2.9399
  598MOL0     H82466  -0.230   7.838   6.598 -2.7116 -0.4462  0.5867
  598MOL0     H82467  -0.380   8.074   6.474 -1.0714  0.7170  0.3990
  598MOL0     H82468  -0.467   7.925   6.482 -1.0528  2.2091  0.2363
  598MOL0     H82469  -0.481   8.076   6.690 -1.4006  0.2397  0.7859
  598MOL0     H82470  -0.329   7.983   6.738  0.6943 -2.8297 -1.6511
  598MOL0     H82471  -0.599   7.851   6.658 -0.6955  1.5790  0.7278
  598MOL0     H82472  -0.450   7.778   6.696  1.8729  2.0471 -2.6744
  598MOL0     H82473  -0.416   7.697   6.933  1.8641  0.0699  1.5835
  598MOL0     H82474  -0.512   7.664   7.200 -2.3192  1.0736 -2.1281
  598MOL0     H82475  -0.567   7.810   7.279 -0.7689  1.2085 -1.3324
  598MOL0     H82476  -0.289   7.770   7.173 -0.3490 -2.7406  2.0017
  598MOL0     H82477  -0.349   7.902   7.295 -3.6718  2.6904 -2.6090
  598MOL0     H82478  -0.344   7.723   7.468  1.1064  0.4226  0.8956
  598MOL0     H82479  -0.338   7.602   7.337  2.0148  0.1147 -0.8006
  598MOL0     H82480  -0.113   7.670   7.273 -0.2530  2.3430 -1.8043
  598MOL0     H82481  -0.108   7.795   7.392  0.4562 -1.1465 -0.0407
  598MOL0     H82482  -0.051   7.377   7.550 -1.3869  2.1234  0.4515
  598MOL0     H82483   0.277   7.231   7.653  0.1655  0.4012 -2.4052
  598MOL0     H82484   0.128   7.174   7.614  0.0920 -0.5075  0.9749
  598MOL0     H82485   0.136   7.298   7.738  1.3940 -1.4345  0.2844
  598MOL0     H82486   0.680   7.322   7.360  1.6983  0.5938 -1.2970
  598MOL0     H82487   0.920   7.311   7.398 -0.8554 -2.3105 -0.0387
  598MOL0     H82488   1.137   7.568   7.684 -0.0275  0.3694  1.1721
  598MOL0     H82489   1.054   7.453   7.782 -1.0413 -1.0784 -0.1626
  598MOL0     H82490   1.252   7.302   7.750  0.6116  0.1227 -0.0968
  598MOL0     H82491   1.318   7.424   7.636 -2.0063  3.7507 -0.5672
  598MOL0     H82492   1.456   7.455   7.826  0.9274  3.8244  1.3505
  598MOL0     H82493   1.331   7.437   7.939 -2.9873  2.5591  0.7802
  598MOL0     H82494   1.242   7.654   7.886  0.1955  1.2586  2.1920
  598MOL0     H82495   1.373   7.676   7.768 -0.4281  1.8315  1.0622
  598MOL0     H82496   1.436   7.621   8.062 -0.7547 -0.3706 -1.0349
  598MOL0     H82497   1.547   7.677   7.939  1.2623  3.4649  0.9401
  598MOL0     H82498   1.409   7.881   7.913  0.5254 -1.1735 -0.5435
  598MOL0     H82499   1.520   7.856   8.058  2.6432 -1.0051 -1.1021
  598MOL0     H82500   1.331   7.807   8.213 -1.8809 -1.0029  1.2525
  598MOL0     H82501   1.240   7.774   8.065 -0.2212  0.5923  1.1567
  598MOL0     H82502   1.177   7.998   8.166 -0.1046 -0.8983  0.2440
  598MOL0     H82503   1.249   8.020   8.004 -2.3524 -0.5210  0.4604
  598MOL0     H82504   0.897   7.560   7.747 -0.6926 -3.9038  2.2453
  598MOL0     H82505   0.672   7.613   7.696  1.2180  0.3065 -0.2539
  598MOL0     H82506   0.343   7.608   7.370  2.7381 -2.6775  1.2161
  598MOL0     H82507   0.117   7.714   7.348  5.2966  2.1396  0.1118
  598MOL0     H82508   0.246   7.958   6.129 -0.3752 -0.5319  1.8801
  598MOL0     H82509   0.426   7.787   6.050 -1.1730  0.3867  0.8521
  598MOL0     H82510   0.496   7.401   5.604 -1.3884  0.4958  1.0921
  598MOL0     H82511   0.695   7.259   5.570  0.1364 -0.3414 -0.1778
  598MOL0     H82512   0.779   6.998   5.650  0.4610 -0.3761  1.0962
  598MOL0     H82513   0.875   7.115   5.562 -0.8143  1.0783 -0.3287
  598MOL0     H82514   1.074   7.029   5.752  1.3280  1.7245 -2.3225
  598MOL0     H82515   1.033   6.956   5.596 -3.4498 -1.2899 -1.6842
  598MOL0     H82516   0.905   6.797   5.689 -0.6160  0.9065 -0.1242
  598MOL0     H82517   1.049   6.802   5.787 -0.0116  0.2118 -0.4156
  598MOL0     H82518   0.930   6.947   5.960  0.6890  1.0706 -1.3163
  598MOL0     H82519   0.891   6.784   5.968  3.1705 -0.8896 -2.5727
  598MOL0     H82520   0.505   6.914   5.849 -0.8455 -1.4579  1.7494
  598MOL0     H82521   0.725   7.238   6.004  1.2573  0.2430 -0.1204
  598MOL0     H82522   0.446   7.412   6.098  0.0461 -0.4190  1.6798
  598MOL0     H82523   0.603   7.366   6.156  1.5197  0.6248 -2.1313
  598MOL0     H82524   0.597   7.505   6.076 -1.2957  0.7971 -0.3082
  599MOL0     O82525   1.532   9.325   8.744 -0.3050  0.6733 -0.5952
  599MOL0     C82526   1.541   9.264   8.844 -0.1110  0.7381 -0.9297
  599MOL0     O82527   1.443   9.200   8.908  0.0577 -0.3965  0.4233
  599MOL0     C82528   1.318   9.181   8.858  0.5867  0.5227 -0.7128
  599MOL0     C82529   1.219   9.275   8.877  1.0504  0.1043 -0.1357
  599MOL0     C82530   1.090   9.250   8.820  0.1022 -0.5039 -0.2362
  599MOL0     C82531   1.060   9.144   8.742 -0.4421  0.3091  0.6919
  599MOL0     O82532   0.928   9.131   8.697 -0.0112  0.4632 -0.8378
  599MOL0     C82533   0.897   9.114   8.558 -0.1351 -0.5749 -0.0854
  599MOL0     C82534   0.763   9.042   8.543  0.5007  0.2326 -0.2968
  599MOL0     C82535   0.778   8.891   8.562  0.7170 -0.6248 -0.3487
  599MOL0     C82536   0.784   8.849   8.706 -0.2840 -0.0271 -1.4533
  599MOL0     C82537   0.804   8.692   8.721  0.0013 -0.2715  0.0292
  599MOL0     C82538   0.774   8.656   8.869  0.0148  1.1154  0.1872
  599MOL0     C82539   0.763   8.511   8.885  0.1111  0.7650 -0.4139
  599MOL0     C82540   0.881   8.435   8.943  0.1188  0.4687  1.0196
  599MOL0     N82541   0.834   8.330   9.039  0.1676 -0.1524 -0.0073
  599MOL0     C82542   0.835   8.338   9.178 -0.8377 -0.1309  1.2215
  599MOL0     C82543   0.782   8.224   9.226  0.1235  0.5300  0.1989
  599MOL0     C82544   0.755   8.177   9.375 -0.0936  0.2298 -0.2112
  599MOL0     C82545   0.618   8.217   9.423  0.0850 -0.6411  0.0401
  599MOL0     C82546   0.581   8.365   9.395 -1.0690  1.0362 -0.0833
  599MOL0     C82547   0.441   8.397   9.451  0.0122 -0.3097 -0.5891
  599MOL0     O82548   0.419   8.405   9.589  0.2302  0.4406  0.3927
  599MOL0     C82549   0.484   8.509   9.651 -0.4479 -0.2489  0.3740
  599MOL0     C82550   0.568   8.482   9.763 -0.0918  0.8365 -0.6057
  599MOL0     C82551   0.620   8.575   9.842 -0.4126 -0.5394  0.0064
  599MOL0     C82552   0.714   8.514   9.951  0.0076  0.0383 -1.1308
  599MOL0     C82553   0.588   8.709   9.822  0.5610 -0.5130 -0.9037
  599MOL0     C82554   0.649   8.823   9.905 -0.6025  0.4349 -0.1196
  599MOL0     O82555   0.604   8.943   9.875  0.3153  0.9187 -0.5915
  599MOL0     C82556   0.633   9.035   9.972 -0.7901 -0.3750 -0.9820
  599MOL0     C82557   0.663   9.165   9.932 -0.2349 -0.5450 -0.0955
  599MOL0     C82558   0.707   9.263  10.028  0.2630  0.6802  0.2866
  599MOL0     C82559   0.704   9.228  10.165 -0.3697 -0.0338  0.1572
  599MOL0     O82560   0.720   9.333  10.254  0.1956  0.8900 -0.0544
  599MOL0     C82561   0.821   9.309  10.352  0.6231  0.3474  1.1000
  599MOL0     C82562   0.835   9.439  10.440  0.0580  0.4807  0.8789
  599MOL0     C82563   0.720   9.475  10.539 -0.2332  0.5195 -0.2934
  599MOL0     C82564   0.684   9.349  10.625  0.7326 -0.4110 -0.1446
  599MOL0     C82565   0.574   9.385  10.728 -0.5853 -0.4708 -0.1517
  599MOL0     C82566   0.548   9.274  10.828 -0.3238 -1.0826 -0.4930
  599MOL0     C82567   0.465   9.306  10.958 -0.2895 -0.6285 -0.5430
  599MOL0     C82568   0.317   9.328  10.938  0.1987  0.7440 -1.5657
  599MOL0    Cl82569   0.240   9.355  11.099  0.1053  0.4279 -0.2267
  599MOL0     C82570   0.667   9.101  10.197  0.8491  0.7593 -0.0714
  599MOL0     C82571   0.624   9.001  10.108 -0.2352  0.2634 -0.5175
  599MOL0     O82572   0.767   8.794   9.947  0.7719 -0.6838 -1.1566
  599MOL0     C82573   0.483   8.736   9.726  0.4742 -1.0458 -0.6186
  599MOL0     C82574   0.446   8.641   9.628  0.2426  0.0572  0.4093
  599MOL0     N82575   0.745   8.150   9.118 -0.5978  0.0606  0.1695
  599MOL0     N82576   0.778   8.214   9.011 -0.2206 -0.3648  0.7010
  599MOL0     C82577   1.163   9.053   8.729  0.2009 -0.2939  0.8337
  599MOL0     C82578   1.290   9.068   8.793  0.8132  0.5596 -0.0438
  599MOL0     C82579   1.677   9.257   8.905 -0.1091 -0.3362 -0.4674
  599MOL0     C82580   1.691   9.164   9.022  0.6579 -0.8394  0.1337
  599MOL0     C82581   1.811   9.118   9.071 -0.5902 -0.7318  0.3191
  599MOL0     C82582   1.932   9.182   9.025  1.2353 -0.1507 -0.6146
  599MOL0     O82583   2.048   9.134   9.084  0.3113 -0.2788 -0.4513
  599MOL0     C82584   2.173   9.197   9.057  0.0011 -0.7796 -0.0007
  599MOL0     C82585   2.288   9.120   9.120 -0.1091  0.4705 -0.6870
  599MOL0     C82586   2.293   9.148   9.268  0.8901  0.1817 -0.4513
  599MOL0     C82587   2.407   9.247   9.299 -0.4714  0.3713  0.3391
  599MOL0     C82588   2.403   9.278   9.441  0.0209  0.1435 -1.0088
  599MOL0     C82589   2.420   9.303   9.563  0.2029 -0.8808  1.2139
  599MOL0     C82590   1.929   9.278   8.926  0.6433 -1.0472 -0.0084
  599MOL0     C82591   1.803   9.309   8.857  1.2023  0.1281 -0.9530
  599MOL0     C82592   1.795   9.435   8.760  0.1854  0.6043 -0.0459
  599MOL0     H82593   1.235   9.376   8.915  2.9587  0.3995 -1.5781
  599MOL0     H82594   1.010   9.322   8.818 -0.2853 -0.9316 -2.0783
  599MOL0     H82595   0.978   9.055   8.515  0.0815 -0.3278 -0.0168
  599MOL0     H82596   0.886   9.219   8.527  0.0836  0.6064  3.3936
  599MOL0     H82597   0.699   9.091   8.617  1.8870  3.4565 -1.0607
  599MOL0     H82598   0.712   9.049   8.447 -1.1096 -3.6776  0.0560
  599MOL0     H82599   0.692   8.843   8.514 -1.4497  0.0481  2.5245
  599MOL0     H82600   0.875   8.859   8.524  2.3512  2.9829  0.2841
  599MOL0     H82601   0.866   8.901   8.756 -2.7220  0.3303  2.6908
  599MOL0     H82602   0.694   8.875   8.763  0.4232  1.0462 -0.8107
  599MOL0     H82603   0.902   8.648   8.704 -1.3748 -2.9256 -1.6379
  599MOL0     H82604   0.743   8.639   8.647  1.4747 -4.2193  1.3854
  599MOL0     H82605   0.858   8.691   8.930  1.2856  2.3681 -2.1268
  599MOL0     H82606   0.686   8.710   8.905 -0.9609 -0.0417 -0.3869
  599MOL0     H82607   0.723   8.455   8.800  3.4480 -0.9803 -1.0133
  599MOL0     H82608   0.684   8.504   8.961  2.7356  1.8511  2.6249
  599MOL0     H82609   0.944   8.390   8.866  2.5717  0.5766  2.8460
  599MOL0     H82610   0.940   8.509   8.997 -1.4752  0.6331  2.6237
  599MOL0     H82611   0.878   8.418   9.237  2.6183 -1.0247  0.1108
  599MOL0     H82612   0.835   8.215   9.440 -0.3857  0.1156  0.2260
  599MOL0     H82613   0.751   8.067   9.376  0.6727  0.1867 -1.0393
  599MOL0     H82614   0.536   8.153   9.391  1.7215 -2.9994  0.2718
  599MOL0     H82615   0.605   8.204   9.531 -2.1713  1.0653  0.0402
  599MOL0     H82616   0.659   8.420   9.448  0.5028 -2.7314  1.9167
  599MOL0     H82617   0.575   8.381   9.287 -2.5684  1.0166 -0.0253
  599MOL0     H82618   0.428   8.500   9.417 -1.7699  0.8179  3.0049
  599MOL0     H82619   0.378   8.331   9.391  0.6420  1.2772 -3.1710
  599MOL0     H82620   0.585   8.377   9.786 -0.7924  0.4463 -1.7494
  599MOL0     H82621   0.725   8.406   9.933 -1.5930 -1.2124  3.8338
  599MOL0     H82622   0.657   8.518  10.044 -2.0000  0.2450 -2.3270
  599MOL0     H82623   0.813   8.560   9.963  0.1148 -0.4784  0.0644
  599MOL0     H82624   0.667   9.196   9.828  1.1269  0.8341  0.3308
  599MOL0     H82625   0.750   9.352   9.984 -1.3417  0.5048 -1.7803
  599MOL0     H82626   0.791   9.225  10.415 -2.5309  3.2041  3.8064
  599MOL0     H82627   0.918   9.281  10.309 -0.9035 -3.0526 -0.5307
  599MOL0     H82628   0.937   9.439  10.480  0.2038  0.1382  0.5081
  599MOL0     H82629   0.836   9.527  10.375  1.3814 -1.2911 -1.6508
  599MOL0     H82630   0.623   9.506  10.500 -2.2162  2.3093  5.0915
  599MOL0     H82631   0.743   9.566  10.596 -0.0758  0.0994  0.3289
  599MOL0     H82632   0.777   9.311  10.669  1.3826 -1.2341 -2.0728
  599MOL0     H82633   0.646   9.275  10.554 -0.8097 -2.0243  2.2285
  599MOL0     H82634   0.595   9.476  10.785 -1.3105 -0.5632  0.2738
  599MOL0     H82635   0.480   9.407  10.677  0.2952 -0.7067 -1.9930
  599MOL0     H82636   0.649   9.246  10.859  0.6348  0.6444 -1.8765
  599MOL0     H82637   0.512   9.188  10.771 -0.1454  1.1642 -4.3774
  599MOL0     H82638   0.509   9.391  11.011  1.6118 -1.2190 -1.0830
  599MOL0     H82639   0.460   9.220  11.025 -0.3810 -2.2679 -2.5620
  599MOL0     H82640   0.268   9.239  10.898 -1.4309  1.4491 -1.2346
  599MOL0     H82641   0.304   9.412  10.868  0.4848  1.1213 -1.1687
  599MOL0     H82642   0.669   9.076  10.303  1.3390 -1.0911 -0.4817
  599MOL0     H82643   0.594   8.902  10.142  2.1735 -0.7570 -1.1545
  599MOL0     H82644   0.446   8.836   9.708  1.7633 -0.6215 -0.9858
  599MOL0     H82645   0.376   8.666   9.549 -0.0351 -2.5816 -0.2694
  599MOL0     H82646   1.146   8.955   8.687  0.0631  0.2651 -0.4500
  599MOL0     H82647   1.360   8.985   8.785 -2.4637 -2.3440 -1.6594
  599MOL0     H82648   1.595   9.126   9.057 -1.1291  1.6337 -1.7251
  599MOL0     H82649   1.816   9.044   9.151  0.7497  0.9875  1.9075
  599MOL0     H82650   2.195   9.196   8.950  0.0137 -3.5089 -0.0633
  599MOL0     H82651   2.164   9.300   9.090  0.5602 -1.4640  2.4812
  599MOL0     H82652   2.385   9.148   9.078  0.8420 -1.2483  0.2401
  599MOL0     H82653   2.268   9.016   9.094 -4.5570  1.5417 -2.3556
  599MOL0     H82654   2.196   9.181   9.308  0.9858  1.2194 -1.0673
  599MOL0     H82655   2.311   9.057   9.327  1.7467  1.3680  1.1839
  599MOL0     H82656   2.401   9.340   9.242  0.8117  0.1118 -0.2386
  599MOL0     H82657   2.504   9.199   9.282 -0.5821  0.8274 -1.8287
  599MOL0     H82658   2.456   9.326   9.661  1.6084  2.2186  0.0929
  599MOL0     H82659   2.009   9.330   8.873 -1.4128  1.8724 -0.5135
  599MOL0     H82660   1.769   9.379   8.670 -0.5046 -0.5865  0.8522
  599MOL0     H82661   1.711   9.493   8.799  0.8027 -0.2369  2.8340
  599MOL0     H82662   1.887   9.491   8.739 -1.0331  2.3686 -0.9188
  600MOL0     O82663   0.873   0.670   9.571  0.6149 -0.5465 -0.5094
  600MOL0     C82664   0.778   0.619   9.632 -0.0404  0.1319  0.0458
  600MOL0     O82665   0.754   0.635   9.763 -0.0621 -0.0256  0.2191
  600MOL0     C82666   0.825   0.725   9.837 -0.1883  0.8223  0.5589
  600MOL0     C82667   0.861   0.848   9.778 -0.2976 -0.3984  0.1018
  600MOL0     C82668   0.935   0.938   9.856  0.1720 -0.7982 -0.2069
  600MOL0     C82669   0.957   0.906   9.989  1.3289  0.1130 -0.5471
  600MOL0     O82670   1.022   0.997  10.069 -0.4633  0.7789 -0.5539
  600MOL0     C82671   1.157   1.021  10.018 -0.0754  0.0305 -0.0636
  600MOL0     C82672   1.256   0.908  10.053 -0.0433  0.1462  1.8117
  600MOL0     C82673   1.334   0.867   9.921  1.2337  0.0540 -0.1253
  600MOL0     C82674   1.243   0.786   9.825 -0.9780  0.5082 -0.0620
  600MOL0     C82675   1.327   0.729   9.714  0.3938 -0.0998  0.7267
  600MOL0     C82676   1.243   0.639   9.620  0.3358 -0.7880  0.2840
  600MOL0     C82677   1.247   0.484   9.653  0.6707 -0.1367  0.2481
  600MOL0     C82678   1.127   0.405   9.595 -1.5996 -0.5216 -0.1931
  600MOL0     N82679   1.078   0.310   9.702 -0.0834  0.5712  0.2715
  600MOL0     C82680   0.946   0.299   9.740 -0.1633 -0.3799  0.2137
  600MOL0     C82681   0.940   0.176   9.806 -0.9477  0.5898  0.1412
  600MOL0     C82682   0.819   0.088   9.836 -0.2924 -0.4469  0.4890
  600MOL0     C82683   0.691   0.143   9.771 -0.8638  0.3077 -0.3554
  600MOL0     C82684   0.593   0.029   9.762  0.0717  1.0726 -0.2560
  600MOL0     C82685   0.456   0.076   9.716  0.5306 -1.0474  0.4496
  600MOL0     O82686   0.337  -0.014   9.710 -0.3932 -0.3690 -0.2459
  600MOL0     C82687   0.306  -0.063   9.837 -0.5302 -0.1057  0.6331
  600MOL0     C82688   0.356  -0.021   9.957 -0.1278  0.5794 -0.4248
  600MOL0     C82689   0.338  -0.090  10.081 -0.2960 -0.4207  0.1555
  600MOL0     C82690   0.406  -0.025  10.200 -0.3966  1.0872  0.1547
  600MOL0     C82691   0.247  -0.198  10.087 -0.5102 -1.2320  0.3543
  600MOL0     C82692   0.222  -0.285  10.211  0.0813  0.7403  0.8639
  600MOL0     O82693   0.118  -0.373  10.204  0.3853  0.5005 -0.3012
  600MOL0     C82694   0.108  -0.461  10.307  0.1461 -0.1133  0.4939
  600MOL0     C82695   0.094  -0.415  10.441  0.0879  0.2603  0.4699
  600MOL0     C82696   0.053  -0.506  10.542  0.4579 -0.2007  0.2649
  600MOL0     C82697   0.034  -0.638  10.510  1.1730 -0.0451 -0.1442
  600MOL0     O82698   0.004  -0.724  10.609 -0.9957  0.7839 -1.2799
  600MOL0     C82699   0.057  -0.863  10.600 -0.9864 -0.5003 -1.0415
  600MOL0     C82700   0.058  -0.935  10.738 -0.6079 -0.8593 -0.0404
  600MOL0     C82701  -0.075  -0.938  10.807  0.5360  0.9260 -0.0222
  600MOL0     C82702  -0.068  -1.013  10.945  0.1250  0.6037  0.0848
  600MOL0     C82703  -0.015  -1.155  10.931 -0.7619  1.3560 -0.9305
  600MOL0     C82704  -0.045  -1.249  11.060  0.1226  0.0632  0.6084
  600MOL0     C82705   0.042  -1.378  11.080  1.1869  0.8234  0.3733
  600MOL0     C82706   0.189  -1.348  11.088  0.8157 -0.9162 -0.7931
  600MOL0    Cl82707   0.307  -1.486  11.122  0.1086  0.0298 -0.1168
  600MOL0     C82708   0.048  -0.683  10.377 -0.3267 -0.5293  0.4368
  600MOL0     C82709   0.081  -0.596  10.274  0.0314  0.1945 -0.0475
  600MOL0     O82710   0.306  -0.281  10.296  0.2530  0.2791  0.1092
  600MOL0     C82711   0.196  -0.234   9.961  0.2492  0.3357 -0.4604
  600MOL0     C82712   0.235  -0.178   9.841  0.3369 -0.8266 -0.2612
  600MOL0     N82713   1.069   0.137   9.824 -0.4851  0.4172 -0.5956
  600MOL0     N82714   1.146   0.211   9.762  0.0984  0.2147  0.5527
  600MOL0     C82715   0.929   0.778  10.041 -0.3156 -0.4272  0.6683
  600MOL0     C82716   0.861   0.689   9.966  0.1462 -0.7823  0.3422
  600MOL0     C82717   0.685   0.535   9.565 -0.1225  0.1567 -0.4496
  600MOL0     C82718   0.558   0.507   9.629  0.9812 -0.2185 -0.1954
  600MOL0     C82719   0.462   0.421   9.571  0.3789  0.3883  0.8328
  600MOL0     C82720   0.494   0.358   9.454  0.2117  0.0240  0.6122
  600MOL0     O82721   0.412   0.264   9.400 -0.3827  0.5052  0.1553
  600MOL0     C82722   0.281   0.244   9.450 -0.5210 -0.6395  0.4235
  600MOL0     C82723   0.204   0.156   9.351 -0.2355 -0.8284  0.2846
  600MOL0     C82724   0.072   0.129   9.409  0.6223  0.0570  0.8236
  600MOL0     C82725   0.088   0.012   9.519 -0.3174  0.1916 -0.3174
  600MOL0     C82726  -0.040  -0.050   9.535 -0.2490  0.0790 -0.6034
  600MOL0     C82727  -0.156  -0.078   9.548  0.5078  0.0392 -1.5677
  600MOL0     C82728   0.614   0.381   9.390  0.2201 -0.3899 -0.4871
  600MOL0     C82729   0.704   0.472   9.438 -0.1889 -0.6991 -0.6408
  600MOL0     C82730   0.836   0.485   9.360  0.6234  1.4613 -0.0494
  600MOL0     H82731   0.840   0.879   9.676  1.4789 -0.0102 -0.1772
  600MOL0     H82732   0.960   1.027   9.799  0.7803 -0.8260  0.0028
  600MOL0     H82733   1.196   1.115  10.058  0.9837 -1.4079  2.5530
  600MOL0     H82734   1.161   1.029   9.909  2.3847 -1.8052 -0.1953
  600MOL0     H82735   1.324   0.930  10.135  1.0266  0.4672  0.8567
  600MOL0     H82736   1.192   0.825  10.084 -1.9806  0.6732 -0.4635
  600MOL0     H82737   1.383   0.951   9.871 -0.3324  0.7492 -0.5710
  600MOL0     H82738   1.406   0.793   9.957  0.7178  0.0661  0.9993
  600MOL0     H82739   1.199   0.700   9.877 -4.5074  1.7963 -0.6477
  600MOL0     H82740   1.164   0.858   9.802 -1.0851  0.7224  0.9153
  600MOL0     H82741   1.405   0.664   9.753  0.5756 -0.3391 -0.0186
  600MOL0     H82742   1.384   0.807   9.663 -0.9803  0.6939  0.3579
  600MOL0     H82743   1.142   0.680   9.615 -0.1060 -1.9279 -3.8111
  600MOL0     H82744   1.269   0.648   9.514 -3.3830 -1.0216 -0.7986
  600MOL0     H82745   1.258   0.449   9.756 -0.8577 -1.6756 -0.0521
  600MOL0     H82746   1.340   0.442   9.615 -0.1926  0.0096 -2.2526
  600MOL0     H82747   1.046   0.478   9.580 -1.6138 -0.1364  1.5391
  600MOL0     H82748   1.165   0.361   9.503  1.6758  0.3061  0.6361
  600MOL0     H82749   0.860   0.352   9.702 -1.2736 -2.0481  0.2740
  600MOL0     H82750   0.803   0.088   9.944 -1.8214 -0.6387  0.2770
  600MOL0     H82751   0.845  -0.013   9.801  0.1414 -0.0508 -0.3606
  600MOL0     H82752   0.658   0.225   9.837 -2.9291 -0.5203 -0.2949
  600MOL0     H82753   0.703   0.187   9.672  1.0297 -0.3777 -0.4603
  600MOL0     H82754   0.639  -0.032   9.684  2.0371  2.6646 -0.4031
  600MOL0     H82755   0.600  -0.034   9.852 -1.7617 -0.8728 -1.3563
  600MOL0     H82756   0.430   0.167   9.771  1.1281  0.8024 -2.1610
  600MOL0     H82757   0.476   0.103   9.612  2.0698 -2.1770  0.4137
  600MOL0     H82758   0.412   0.072   9.953 -1.5503  1.6690  2.4180
  600MOL0     H82759   0.354  -0.034  10.296  0.9443 -1.1009  0.7572
  600MOL0     H82760   0.441   0.078  10.191 -0.7584  1.1043 -1.2726
  600MOL0     H82761   0.498  -0.085  10.202 -0.5563  0.6165 -2.7749
  600MOL0     H82762   0.126  -0.313  10.459 -1.8270  0.7453  1.3960
  600MOL0     H82763   0.028  -0.466  10.639 -1.7480  0.9745 -0.6902
  600MOL0     H82764  -0.018  -0.916  10.541  0.5411 -1.2797 -2.3307
  600MOL0     H82765   0.156  -0.869  10.554  1.9842  2.1363  4.0535
  600MOL0     H82766   0.095  -1.036  10.720  3.0603  0.1487  1.0200
  600MOL0     H82767   0.130  -0.885  10.803  0.8006 -2.5993 -0.1998
  600MOL0     H82768  -0.157  -0.989  10.756 -0.0457  0.6832  1.1161
  600MOL0     H82769  -0.104  -0.837  10.837  3.3327  1.0822  2.6824
  600MOL0     H82770  -0.173  -1.025  10.974  0.1818  1.0729  0.5153
  600MOL0     H82771  -0.022  -0.948  11.020  0.1754  1.9325 -1.0349
  600MOL0     H82772  -0.046  -1.203  10.838  3.3541 -1.0550 -1.2698
  600MOL0     H82773   0.094  -1.154  10.921  0.0319 -1.8631  3.8238
  600MOL0     H82774  -0.149  -1.283  11.053  0.2912 -0.2506 -0.5515
  600MOL0     H82775  -0.040  -1.184  11.148 -1.3257 -2.0265  2.3555
  600MOL0     H82776   0.023  -1.446  10.996 -0.8100 -0.3325  1.6704
  600MOL0     H82777   0.017  -1.443  11.165  0.9999 -2.4595 -1.9916
  600MOL0     H82778   0.194  -1.279  11.172  0.6598 -4.7086  2.6505
  600MOL0     H82779   0.229  -1.290  11.004  1.8094  1.4335  1.1882
  600MOL0     H82780   0.039  -0.787  10.346 -1.1841 -0.5978  0.9001
  600MOL0     H82781   0.087  -0.627  10.170 -3.5175  1.0936 -0.6650
  600MOL0     H82782   0.133  -0.322   9.959  0.4845  0.1529 -2.8037
  600MOL0     H82783   0.201  -0.229   9.751 -2.7975  1.5723 -0.6221
  600MOL0     H82784   0.969   0.754  10.139  3.6291 -0.1843 -0.7044
  600MOL0     H82785   0.834   0.591  10.004 -3.0494  0.4210  1.5261
  600MOL0     H82786   0.524   0.558   9.719 -3.8965 -2.9403 -0.1317
  600MOL0     H82787   0.365   0.407   9.618 -1.1781  1.6513 -1.8141
  600MOL0     H82788   0.280   0.196   9.548  1.2124  1.2253  1.4469
  600MOL0     H82789   0.234   0.343   9.454 -1.2142 -0.6836 -3.1788
  600MOL0     H82790   0.260   0.066   9.324 -0.7093 -2.1819  3.4073
  600MOL0     H82791   0.193   0.208   9.255  0.4593  2.1569  1.7165
  600MOL0     H82792   0.016   0.213   9.451 -3.1490 -1.9759  0.2429
  600MOL0     H82793   0.006   0.104   9.326  0.6918 -0.2414  0.8583
  600MOL0     H82794   0.122   0.053   9.614 -1.9061  1.1356 -0.1083
  600MOL0     H82795   0.158  -0.062   9.480  0.1314  0.4457  0.0019
  600MOL0     H82796  -0.258  -0.106   9.536  0.7545 -1.6162 -0.1799
  600MOL0     H82797   0.631   0.333   9.293  1.5635  2.4655 -1.7929
  600MOL0     H82798   0.821   0.456   9.256  0.8515 -1.6105  0.7051
  600MOL0     H82799   0.868   0.590   9.364  1.5711  1.2464  4.9639
  600MOL0     H82800   0.917   0.417   9.387 -0.9575 -0.3800  0.2518
  601MOL0     O82801  11.067   6.376   5.976 -0.2554 -0.5425  0.0883
  601MOL0     C82802  11.052   6.251   5.988 -0.8658 -0.5573 -1.5410
  601MOL0     O82803  11.123   6.154   5.927 -1.2472  0.0845  0.6997
  601MOL0     C82804  11.188   6.197   5.809 -0.3466 -0.8653 -0.0089
  601MOL0     C82805  11.145   6.141   5.694 -0.0408 -0.4244 -0.8346
  601MOL0     C82806  11.203   6.181   5.568  1.0204 -0.4363 -0.6292
  601MOL0     C82807  11.305   6.275   5.556  0.0200  0.4577  0.5607
  601MOL0     O82808  11.338   6.328   5.433 -0.3611  0.3675  0.3766
  601MOL0     C82809  11.395   6.459   5.415  0.0836 -1.1478 -0.2448
  601MOL0     C82810  11.544   6.451   5.457 -0.3978  0.0678 -0.3678
  601MOL0     C82811  11.646   6.528   5.377  0.0292  0.4309  0.0554
  601MOL0     C82812  11.789   6.473   5.404 -0.9400  0.3411  0.0140
  601MOL0     C82813  11.896   6.565   5.352 -0.6628  0.7170 -0.0481
  601MOL0     C82814  11.930   6.672   5.458  0.2483 -0.4767  0.4587
  601MOL0     C82815  12.050   6.743   5.403  0.3680 -0.0455 -0.4628
  601MOL0     C82816  12.109   6.862   5.477 -0.1778 -0.0445  0.4779
  601MOL0     N82817  12.223   6.923   5.414 -0.2715 -0.2902  0.3192
  601MOL0     C82818  12.336   6.857   5.366 -0.2705 -0.0317  0.4580
  601MOL0     C82819  12.410   6.945   5.296  0.1724 -0.3450 -0.4473
  601MOL0     C82820  12.524   6.907   5.208 -0.6343 -0.4967  0.0556
  601MOL0     C82821  12.479   6.845   5.083 -0.3389 -0.3853 -0.3351
  601MOL0     C82822  12.604   6.786   5.002 -0.0951  0.0730  0.0231
  601MOL0     C82823  12.554   6.706   4.883 -0.2488  0.1344  0.8940
  601MOL0     O82824  12.661   6.618   4.839  0.1757  0.2758  0.1329
  601MOL0     C82825  12.645   6.563   4.726 -0.5270  1.1817  0.0625
  601MOL0     C82826  12.690   6.637   4.621 -0.7260  0.0547  0.5490
  601MOL0     C82827  12.665   6.581   4.495  0.2732  0.8565  0.5362
  601MOL0     C82828  12.708   6.676   4.381 -0.3459 -0.4730 -1.0365
  601MOL0     C82829  12.585   6.467   4.477 -0.0342  0.5186 -0.4042
  601MOL0     C82830  12.557   6.403   4.353 -0.7483 -0.2763 -0.4508
  601MOL0     O82831  12.661   6.390   4.260 -0.9088  0.5587  0.1300
  601MOL0     C82832  12.630   6.372   4.125 -0.1419  0.0923 -0.1389
  601MOL0     C82833  12.547   6.459   4.062  0.2111  0.0443  0.2639
  601MOL0     C82834  12.521   6.440   3.927 -0.2109 -0.0599  0.0135
  601MOL0     C82835  12.575   6.335   3.854 -0.6670 -1.3367 -0.9984
  601MOL0     O82836  12.543   6.319   3.718 -1.3243  1.1072 -0.9010
  601MOL0     C82837  12.598   6.223   3.637 -0.3868  0.8703  0.7715
  601MOL0     C82838  12.543   6.257   3.499  0.0763  0.1726  0.3387
  601MOL0     C82839  12.401   6.189   3.494 -0.0373 -0.0473 -0.6478
  601MOL0     C82840  12.347   6.196   3.348 -0.1679  0.2654 -0.6976
  601MOL0     C82841  12.283   6.068   3.299 -0.3772 -0.8375 -0.7669
  601MOL0     C82842  12.141   6.034   3.361  0.3376  0.2876 -0.4943
  601MOL0     C82843  12.032   6.134   3.327  0.6008 -0.0856 -1.2365
  601MOL0     C82844  11.905   6.084   3.383 -0.8682  0.1329  1.1656
  601MOL0    Cl82845  11.919   6.098   3.568  0.2767  0.0547 -0.2696
  601MOL0     C82846  12.673   6.256   3.913  0.7900 -0.4560 -0.0727
  601MOL0     C82847  12.700   6.272   4.050 -0.8698 -0.1546 -0.8275
  601MOL0     O82848  12.457   6.340   4.337 -0.2119 -0.6286  0.8438
  601MOL0     C82849  12.536   6.394   4.590 -0.1405  0.6604  1.1376
  601MOL0     C82850  12.579   6.439   4.713  0.4222 -0.6589  0.0710
  601MOL0     N82851  12.336   7.067   5.301  1.2551  0.5418  0.0621
  601MOL0     N82852  12.221   7.049   5.362  0.1237  0.1309  0.4734
  601MOL0     C82853  11.341   6.327   5.679  0.0223 -0.7258 -0.7370
  601MOL0     C82854  11.288   6.286   5.799 -0.3918 -1.1757 -0.3783
  601MOL0     C82855  10.974   6.201   6.099  0.7813  0.4869 -0.0409
  601MOL0     C82856  10.950   6.291   6.205 -0.6185  0.3955  0.8308
  601MOL0     C82857  10.850   6.278   6.301 -1.0947 -0.1105 -0.2173
  601MOL0     C82858  10.781   6.164   6.302 -0.5267  0.2469 -0.1308
  601MOL0     O82859  10.692   6.145   6.408 -1.0507 -0.5591  0.9045
  601MOL0     C82860  10.601   6.034   6.413  0.2926 -0.6170  0.7773
  601MOL0     C82861  10.669   5.913   6.479  0.5168  0.2834  0.4098
  601MOL0     C82862  10.729   5.945   6.625 -0.2413  0.5706 -1.1235
  601MOL0     C82863  10.682   5.840   6.734  0.0031 -0.2453  1.2389
  601MOL0     C82864  10.539   5.824   6.740 -0.0819 -0.8287  0.4020
  601MOL0     C82865  10.416   5.814   6.744 -0.6307 -0.1766 -0.6006
  601MOL0     C82866  10.802   6.061   6.201 -0.5904  0.3648  0.4586
  601MOL0     C82867  10.897   6.078   6.097 -0.2257  0.3271 -0.0514
  601MOL0     C82868  10.907   5.975   5.995 -0.4823 -0.4694  0.5945
  601MOL0     H82869  11.060   6.075   5.706 -0.3922 -0.1790 -1.8503
  601MOL0     H82870  11.170   6.146   5.471  4.1821  3.6093 -3.5333
  601MOL0     H82871  11.333   6.527   5.473  1.8034 -0.0659  0.3961
  601MOL0     H82872  11.379   6.501   5.315 -0.7542 -3.0999 -1.0012
  601MOL0     H82873  11.558   6.492   5.557  0.4670  0.9545 -0.8298
  601MOL0     H82874  11.567   6.344   5.453  0.9358  0.2708  0.9179
  601MOL0     H82875  11.625   6.516   5.270  1.4278  0.7233 -0.2753
  601MOL0     H82876  11.639   6.633   5.404  0.7279  0.5654 -0.2400
  601MOL0     H82877  11.814   6.444   5.507  0.5693 -2.2995 -1.0040
  601MOL0     H82878  11.805   6.381   5.346  1.7477  0.0197  1.0846
  601MOL0     H82879  11.882   6.610   5.253  2.6584 -1.1114 -1.5343
  601MOL0     H82880  11.983   6.500   5.336 -1.9408 -1.4238  1.3025
  601MOL0     H82881  11.851   6.745   5.477 -1.0514 -1.4692 -0.8438
  601MOL0     H82882  11.933   6.623   5.556  0.5132 -1.4056 -0.0025
  601MOL0     H82883  12.023   6.775   5.302  0.1526 -0.5713 -0.5698
  601MOL0     H82884  12.130   6.668   5.401 -1.4495 -2.0978  0.0311
  601MOL0     H82885  12.026   6.932   5.493 -1.1774 -0.9876 -0.4617
  601MOL0     H82886  12.148   6.827   5.573  3.0844 -0.9550 -1.0292
  601MOL0     H82887  12.374   6.759   5.394  2.9417  1.4208  1.6584
  601MOL0     H82888  12.594   6.844   5.265  1.2208  3.5039  2.7046
  601MOL0     H82889  12.582   6.996   5.182 -0.3127 -1.2520 -1.9991
  601MOL0     H82890  12.417   6.760   5.114  1.2113 -0.7133  2.2003
  601MOL0     H82891  12.418   6.920   5.032 -0.7603 -0.4450  0.0704
  601MOL0     H82892  12.662   6.870   4.965 -0.8390  0.8471  0.5786
  601MOL0     H82893  12.668   6.725   5.067  1.4249 -0.4646 -1.8943
  601MOL0     H82894  12.477   6.633   4.908  1.2794 -2.7776 -2.0654
  601MOL0     H82895  12.506   6.765   4.805 -2.1184  1.3570  2.8796
  601MOL0     H82896  12.732   6.735   4.639 -1.6813  0.4906  0.4227
  601MOL0     H82897  12.646   6.690   4.292  1.1008  1.5085 -1.8027
  601MOL0     H82898  12.809   6.643   4.357  0.2612  0.4485  0.1359
  601MOL0     H82899  12.711   6.777   4.423 -0.5840 -0.7597 -0.3098
  601MOL0     H82900  12.500   6.541   4.116  3.2349  2.0534  0.0849
  601MOL0     H82901  12.461   6.504   3.863  0.7174 -1.9192 -2.9503
  601MOL0     H82902  12.705   6.238   3.619 -1.0237  2.3836 -2.3923
  601MOL0     H82903  12.570   6.121   3.666  0.0598  0.0749 -1.4022
  601MOL0     H82904  12.545   6.363   3.472  2.3277 -0.3147 -1.6327
  601MOL0     H82905  12.603   6.207   3.423 -1.0655 -1.0291  0.1743
  601MOL0     H82906  12.336   6.246   3.561 -0.0253 -1.3863  0.5310
  601MOL0     H82907  12.400   6.082   3.516  1.3384 -0.6751 -3.1949
  601MOL0     H82908  12.429   6.225   3.280 -1.7990  3.7486 -1.4070
  601MOL0     H82909  12.288   6.285   3.324  2.2889  2.3094  0.3451
  601MOL0     H82910  12.269   6.075   3.191 -1.5099  0.7196 -0.5529
  601MOL0     H82911  12.351   5.983   3.314  0.6470  0.0734 -0.1483
  601MOL0     H82912  12.169   6.021   3.466  4.2521 -1.3868 -1.5617
  601MOL0     H82913  12.105   5.938   3.323  0.1344 -0.2338  0.9822
  601MOL0     H82914  12.030   6.130   3.218  4.4931  1.9770 -1.5563
  601MOL0     H82915  12.041   6.232   3.374  3.3347 -0.0030 -1.7827
  601MOL0     H82916  11.890   5.979   3.358 -0.2670  1.0563 -4.2725
  601MOL0     H82917  11.818   6.135   3.339  0.8573  0.4798 -2.1497
  601MOL0     H82918  12.718   6.174   3.858  0.6246 -0.5144 -0.1221
  601MOL0     H82919  12.771   6.205   4.098  0.1906  1.5656  0.1408
  601MOL0     H82920  12.471   6.307   4.585  0.4425  0.0972  2.6957
  601MOL0     H82921  12.534   6.404   4.805 -0.9520  0.5922 -0.0778
  601MOL0     H82922  11.420   6.402   5.682  0.6532 -1.2896 -2.0754
  601MOL0     H82923  11.330   6.322   5.892  0.9742  2.6913 -2.2536
  601MOL0     H82924  11.000   6.388   6.214  0.3929  0.1789 -1.6360
  601MOL0     H82925  10.837   6.348   6.383 -2.9903 -0.8762  0.1923
  601MOL0     H82926  10.528   6.076   6.483  0.9973 -0.1751  1.2574
  601MOL0     H82927  10.555   6.013   6.316 -0.0899 -1.0831  1.0552
  601MOL0     H82928  10.750   5.874   6.415  0.6767  2.8276 -1.0645
  601MOL0     H82929  10.595   5.833   6.477 -1.5551  2.0344  2.4778
  601MOL0     H82930  10.836   5.964   6.617 -0.4921  1.5703 -2.5131
  601MOL0     H82931  10.693   6.046   6.646 -1.2305  0.6899 -3.1438
  601MOL0     H82932  10.728   5.866   6.830  1.2717  3.6046 -0.2264
  601MOL0     H82933  10.720   5.740   6.709 -0.0306  0.0957 -0.3083
  601MOL0     H82934  10.319   5.775   6.763 -0.1196 -1.4228 -0.4568
  601MOL0     H82935  10.750   5.966   6.201  2.3644 -1.3955 -1.0862
  601MOL0     H82936  10.903   6.014   5.893 -0.5070 -1.4773  0.1895
  601MOL0     H82937  11.005   5.932   6.017  1.2478  3.0463  0.4001
  601MOL0     H82938  10.825   5.902   6.002 -1.1221  0.0617 -1.0614
  602MOL0     O82939   7.826   1.346   1.284 -0.6406  0.3568 -0.5890
  602MOL0     C82940   7.865   1.305   1.396 -0.6987 -0.3675  0.7737
  602MOL0     O82941   7.855   1.364   1.516  0.0442 -0.9877 -0.3081
  602MOL0     C82942   7.790   1.483   1.511  0.0784  1.2885 -0.1093
  602MOL0     C82943   7.659   1.494   1.496  0.1098  0.5109 -0.0999
  602MOL0     C82944   7.592   1.614   1.477 -1.7330 -0.4099  0.2129
  602MOL0     C82945   7.669   1.731   1.496 -0.7092 -0.2516 -0.1868
  602MOL0     O82946   7.608   1.854   1.479  0.2470 -0.6843 -0.2703
  602MOL0     C82947   7.487   1.868   1.548  0.0076 -0.1309 -0.1578
  602MOL0     C82948   7.504   1.869   1.699 -0.1331  0.2631  0.1728
  602MOL0     C82949   7.458   1.989   1.778 -0.8005 -0.1248  0.7718
  602MOL0     C82950   7.544   2.114   1.758 -0.1459  0.8300  0.4186
  602MOL0     C82951   7.488   2.243   1.813 -1.1163  0.4671 -0.0171
  602MOL0     C82952   7.344   2.264   1.787  0.2465 -0.3338 -0.1560
  602MOL0     C82953   7.288   2.407   1.800 -0.2186 -0.7970  0.6454
  602MOL0     C82954   7.211   2.422   1.930 -1.0621  0.2053  0.4287
  602MOL0     N82955   7.069   2.374   1.922 -0.7094 -0.1619 -0.3036
  602MOL0     C82956   7.012   2.296   2.015  0.5631 -0.4327 -0.0632
  602MOL0     C82957   6.880   2.298   1.981 -0.2026  0.5185 -0.6832
  602MOL0     C82958   6.764   2.216   2.050 -0.4928  0.2680  0.2902
  602MOL0     C82959   6.807   2.140   2.181  0.0586 -0.5705 -0.1002
  602MOL0     C82960   6.683   2.056   2.238 -0.3986 -0.8265  0.2475
  602MOL0     C82961   6.727   1.995   2.366  0.4750 -0.2368 -0.4985
  602MOL0     O82962   6.810   1.886   2.333 -0.0670  0.4490  0.4562
  602MOL0     C82963   6.837   1.794   2.439 -0.4183  0.6071 -1.0045
  602MOL0     C82964   6.845   1.817   2.576  0.5553  0.5590 -0.5642
  602MOL0     C82965   6.870   1.719   2.672 -0.3933  0.6365 -0.0693
  602MOL0     C82966   6.875   1.760   2.817  0.0397 -0.2415 -0.1485
  602MOL0     C82967   6.919   1.585   2.632 -0.4985  0.3264  1.5186
  602MOL0     C82968   6.976   1.473   2.719 -0.5560 -0.4484 -0.2233
  602MOL0     O82969   7.014   1.367   2.648 -0.1882 -0.9236  0.6772
  602MOL0     C82970   7.056   1.262   2.715  0.3845  0.3987 -0.2862
  602MOL0     C82971   6.972   1.167   2.774 -0.3712 -0.3091 -0.0992
  602MOL0     C82972   7.008   1.049   2.831  0.2504 -0.3376  0.3347
  602MOL0     C82973   7.151   1.017   2.839  0.2965  0.2626 -0.1548
  602MOL0     O82974   7.187   0.900   2.910  0.5938  0.2980  0.2364
  602MOL0     C82975   7.314   0.838   2.891  0.2053 -0.3832 -0.6001
  602MOL0     C82976   7.312   0.704   2.970  0.5646 -1.1559  0.4176
  602MOL0     C82977   7.258   0.591   2.885 -0.0748 -0.7298  0.8982
  602MOL0     C82978   7.131   0.538   2.936  0.8840 -0.2350 -0.6497
  602MOL0     C82979   7.094   0.407   2.870  0.4051  1.1150 -1.2429
  602MOL0     C82980   7.180   0.283   2.904 -0.7898  0.7026  0.6264
  602MOL0     C82981   7.145   0.169   2.804 -0.3983  0.5924 -0.1385
  602MOL0     C82982   7.239   0.049   2.808 -0.1424  0.0636  0.1005
  602MOL0    Cl82983   7.393   0.091   2.736 -0.2763  0.8543  1.0821
  602MOL0     C82984   7.242   1.109   2.786  1.0730 -0.2252 -0.0987
  602MOL0     C82985   7.190   1.229   2.719  1.1122  0.1005 -0.0055
  602MOL0     O82986   6.969   1.486   2.841  0.3116  0.1995 -0.5475
  602MOL0     C82987   6.905   1.566   2.490 -0.0008 -0.2069 -0.4325
  602MOL0     C82988   6.865   1.668   2.399  0.8559 -0.1066 -0.4608
  602MOL0     N82989   6.862   2.383   1.870  0.1350 -0.8230 -0.0290
  602MOL0     N82990   6.967   2.433   1.842 -0.6980  1.0158 -0.0223
  602MOL0     C82991   7.805   1.728   1.517  0.3557  0.5680  1.4671
  602MOL0     C82992   7.875   1.601   1.517  1.4209 -0.5218 -0.4716
  602MOL0     C82993   7.936   1.175   1.381  0.0698  0.3772 -1.0644
  602MOL0     C82994   7.902   1.084   1.479 -0.0853  0.6877  1.0926
  602MOL0     C82995   7.951   0.947   1.477 -0.7250  0.8201 -0.3716
  602MOL0     C82996   8.042   0.907   1.380 -0.0905 -0.5834 -0.0113
  602MOL0     O82997   8.102   0.782   1.375  0.3391  0.3845 -0.7355
  602MOL0     C82998   8.167   0.727   1.260  1.2589 -0.2099 -1.0697
  602MOL0     C82999   8.076   0.710   1.137  0.5553 -0.3490 -0.8200
  602MOL0     C83000   7.925   0.665   1.171 -0.1110 -0.1622 -0.9805
  602MOL0     C83001   7.924   0.510   1.204  0.3689  0.5055 -0.2629
  602MOL0     C83002   7.786   0.479   1.254  0.2896  0.0538  0.1909
  602MOL0     C83003   7.681   0.444   1.294  0.8734 -0.1194  0.4493
  602MOL0     C83004   8.087   1.012   1.296 -0.4165 -0.0612 -0.1764
  602MOL0     C83005   8.027   1.134   1.285  0.1169  0.7818  0.4510
  602MOL0     C83006   8.083   1.230   1.185 -0.8706  0.2790 -0.2826
  602MOL0     H83007   7.609   1.397   1.499 -0.8504  0.9533 -1.0293
  602MOL0     H83008   7.485   1.616   1.462 -1.4947  0.2654 -1.7222
  602MOL0     H83009   7.407   1.795   1.536 -0.3462  0.3189 -0.5794
  602MOL0     H83010   7.443   1.964   1.518  0.0907 -0.1073 -0.2063
  602MOL0     H83011   7.463   1.777   1.741  1.4898 -0.4669  0.2214
  602MOL0     H83012   7.605   1.843   1.731 -0.8890 -1.5344  1.3033
  602MOL0     H83013   7.353   2.010   1.758 -0.5815  4.5380  3.1949
  602MOL0     H83014   7.470   1.962   1.884 -0.3802  0.5579  0.9006
  602MOL0     H83015   7.633   2.075   1.809  1.1382 -1.2161 -3.0153
  602MOL0     H83016   7.556   2.125   1.650 -0.2644 -3.0027 -0.1462
  602MOL0     H83017   7.550   2.313   1.757  0.5779 -2.4210 -2.0257
  602MOL0     H83018   7.518   2.239   1.918  0.8285  1.1484 -0.5139
  602MOL0     H83019   7.337   2.238   1.681  0.2428  1.4709 -0.6402
  602MOL0     H83020   7.275   2.200   1.841 -1.0011  0.0065 -1.2885
  602MOL0     H83021   7.225   2.425   1.712  0.1594 -0.2135  0.4874
  602MOL0     H83022   7.373   2.474   1.813  1.6829 -3.3135  2.0255
  602MOL0     H83023   7.266   2.362   2.003 -0.5970  1.9487  1.5419
  602MOL0     H83024   7.215   2.525   1.967 -0.2620  0.6336 -0.8105
  602MOL0     H83025   7.066   2.248   2.096 -0.7568  0.8896  1.6676
  602MOL0     H83026   6.729   2.138   1.982  2.6236  1.7278 -3.4085
  602MOL0     H83027   6.680   2.285   2.062 -0.9423 -0.2682  0.2420
  602MOL0     H83028   6.883   2.065   2.155  2.5136  1.3845  1.0482
  602MOL0     H83029   6.847   2.213   2.252 -3.1424  1.8784 -0.5752
  602MOL0     H83030   6.598   2.124   2.250 -1.8822 -3.0965  5.1956
  602MOL0     H83031   6.650   1.982   2.165  2.7298  0.2742 -2.5628
  602MOL0     H83032   6.775   2.071   2.428 -0.2269 -3.0815  3.9544
  602MOL0     H83033   6.629   1.959   2.400  0.9788 -2.9219 -1.6850
  602MOL0     H83034   6.820   1.916   2.614 -2.3079 -0.7640  1.3922
  602MOL0     H83035   6.834   1.686   2.888  1.7610  0.7725  2.0186
  602MOL0     H83036   6.835   1.857   2.847  2.4625  0.4403  1.0879
  602MOL0     H83037   6.981   1.753   2.842 -0.0855 -0.6979  0.2931
  602MOL0     H83038   6.869   1.199   2.761  0.3265  3.5128  2.2746
  602MOL0     H83039   6.925   0.981   2.848 -0.5033  0.3567 -0.4607
  602MOL0     H83040   7.321   0.821   2.784 -2.6726  1.2966 -1.1657
  602MOL0     H83041   7.395   0.901   2.930  1.2017 -1.8492 -0.2160
  602MOL0     H83042   7.415   0.679   2.999  0.4371 -0.9503  1.0550
  602MOL0     H83043   7.267   0.709   3.070 -1.5108 -0.8986 -0.4795
  602MOL0     H83044   7.334   0.512   2.887  1.4340  0.6698  0.9907
  602MOL0     H83045   7.253   0.611   2.778  0.8482 -2.8202  0.4094
  602MOL0     H83046   7.042   0.599   2.919 -1.3741 -2.9753  0.3892
  602MOL0     H83047   7.151   0.522   3.042  4.3307  1.0378 -0.9725
  602MOL0     H83048   6.992   0.391   2.907 -0.1597  0.6226 -2.9168
  602MOL0     H83049   7.094   0.427   2.762 -2.9905 -0.6300 -1.6996
  602MOL0     H83050   7.163   0.255   3.009  0.7612 -0.4277  0.6129
  602MOL0     H83051   7.287   0.302   2.891 -1.1447  3.2547  1.0358
  602MOL0     H83052   7.126   0.201   2.701 -1.8083 -4.0230 -1.5868
  602MOL0     H83053   7.043   0.136   2.826 -0.8264  2.9852  2.0310
  602MOL0     H83054   7.198  -0.036   2.753  0.4126 -1.1047  1.4194
  602MOL0     H83055   7.260   0.020   2.912 -3.2186 -0.5752  0.6473
  602MOL0     H83056   7.347   1.088   2.802  0.8547 -2.5605 -1.3987
  602MOL0     H83057   7.265   1.296   2.677 -0.0646  0.7069 -1.2125
  602MOL0     H83058   6.933   1.470   2.447 -0.1980 -0.0734 -0.8680
  602MOL0     H83059   6.868   1.646   2.292  0.4706 -1.5277 -0.2001
  602MOL0     H83060   7.869   1.815   1.506 -0.8913  1.5015  1.4506
  602MOL0     H83061   7.984   1.593   1.517  1.5259  0.4789 -1.6891
  602MOL0     H83062   7.828   1.107   1.555 -0.6267 -1.1031  1.1504
  602MOL0     H83063   7.906   0.869   1.537 -1.0389  0.0053 -1.6138
  602MOL0     H83064   8.250   0.794   1.234  4.1017 -0.8925  4.6237
  602MOL0     H83065   8.208   0.628   1.281 -0.0885 -0.8763 -1.4698
  602MOL0     H83066   8.130   0.644   1.069  2.6414  0.8654 -0.4496
  602MOL0     H83067   8.082   0.810   1.094  5.2467  1.1132  2.3461
  602MOL0     H83068   7.878   0.727   1.249  1.0603 -2.1537  1.4369
  602MOL0     H83069   7.856   0.694   1.091 -1.9785 -1.8928 -0.1059
  602MOL0     H83070   8.001   0.486   1.278  0.2193 -1.0843 -0.5834
  602MOL0     H83071   7.946   0.447   1.117 -1.1705 -2.7838  1.5170
  602MOL0     H83072   7.589   0.411   1.339  0.6969  1.0661  0.9989
  602MOL0     H83073   8.161   0.981   1.222  0.5662 -0.9408  1.1241
  602MOL0     H83074   8.176   1.208   1.132 -1.3346 -0.4948 -0.8106
  602MOL0     H83075   8.012   1.283   1.120  0.6022  0.7837 -1.5427
  602MOL0     H83076   8.125   1.306   1.251 -0.3953 -0.1867 -0.0441
  603MOL0     O83077   0.877   0.275   4.676 -0.0574 -0.2909 -0.0288
  603MOL0     C83078   0.967   0.254   4.758 -0.0232 -0.7963 -0.2804
  603MOL0     O83079   0.973   0.142   4.842 -0.4296 -0.1565  0.2096
  603MOL0     C83080   0.895   0.036   4.819  0.4959 -0.3073 -0.0847
  603MOL0     C83081   0.967  -0.087   4.798 -0.5883  0.5899  0.1260
  603MOL0     C83082   0.902  -0.203   4.770  0.2954  0.4118 -0.5324
  603MOL0     C83083   0.757  -0.202   4.744 -0.0354 -0.4622 -0.0945
  603MOL0     O83084   0.701  -0.318   4.695 -0.6128 -0.4764 -0.3644
  603MOL0     C83085   0.590  -0.373   4.752  0.3071  0.7786  0.7355
  603MOL0     C83086   0.576  -0.498   4.659  0.4295  0.4388  0.1461
  603MOL0     C83087   0.682  -0.602   4.682 -1.0550  0.5860  0.2608
  603MOL0     C83088   0.713  -0.639   4.829 -0.4940  0.8024  0.1060
  603MOL0     C83089   0.798  -0.761   4.843 -0.2869 -0.4184  1.1387
  603MOL0     C83090   0.849  -0.788   4.991  0.5604  0.0857  0.7366
  603MOL0     C83091   0.930  -0.924   4.996  1.3082 -0.7952  0.0255
  603MOL0     C83092   1.061  -0.903   4.914  1.0826 -0.2512  0.4554
  603MOL0     N83093   1.151  -1.018   4.927  0.5413  0.3649  1.1200
  603MOL0     C83094   1.128  -1.144   4.879 -0.2448  0.1008  0.5717
  603MOL0     C83095   1.230  -1.226   4.909  0.2969 -0.5503  0.3158
  603MOL0     C83096   1.246  -1.376   4.882  0.1677 -0.2303 -0.4049
  603MOL0     C83097   1.345  -1.429   4.983  0.7760 -0.4248 -0.4486
  603MOL0     C83098   1.340  -1.579   5.010 -0.0190 -0.0768  0.5097
  603MOL0     C83099   1.208  -1.627   5.083 -0.1993  0.1565 -0.9643
  603MOL0     O83100   1.208  -1.585   5.219  0.6685  0.5718  0.1102
  603MOL0     C83101   1.285  -1.650   5.319  0.8674 -0.4996  0.5256
  603MOL0     C83102   1.343  -1.569   5.416  0.3433 -0.0959  0.1281
  603MOL0     C83103   1.411  -1.633   5.525 -0.1591  0.4637 -0.0776
  603MOL0     C83104   1.469  -1.547   5.630 -0.1291 -0.1960  0.0110
  603MOL0     C83105   1.415  -1.774   5.544  1.2745  0.3800  0.2765
  603MOL0     C83106   1.490  -1.842   5.654  0.5005 -0.0059 -0.3748
  603MOL0     O83107   1.517  -1.974   5.639  0.2537  0.3350  0.2113
  603MOL0     C83108   1.593  -2.043   5.729  0.0772  0.5119 -0.1233
  603MOL0     C83109   1.551  -2.175   5.742  0.2241  0.8549  0.1450
  603MOL0     C83110   1.632  -2.270   5.815  0.4521  0.5341 -0.2863
  603MOL0     C83111   1.767  -2.235   5.857 -0.4227 -0.3953  0.1458
  603MOL0     O83112   1.844  -2.335   5.921  1.0302 -0.3348 -0.7062
  603MOL0     C83113   1.989  -2.321   5.936  0.1085 -0.1218 -0.9667
  603MOL0     C83114   2.067  -2.414   5.842 -0.1787 -0.0178 -0.8515
  603MOL0     C83115   2.047  -2.379   5.701  0.4930  0.4121  0.0430
  603MOL0     C83116   2.106  -2.494   5.615 -0.6287  0.6973 -0.3995
  603MOL0     C83117   2.103  -2.475   5.465 -0.2226 -0.0834  0.1507
  603MOL0     C83118   1.959  -2.481   5.403  0.1036 -0.0300  0.3111
  603MOL0     C83119   1.893  -2.613   5.388 -0.8228 -0.0906  0.0841
  603MOL0     C83120   1.972  -2.702   5.287 -0.4210  0.1667 -0.5253
  603MOL0    Cl83121   2.073  -2.813   5.389  0.0795  0.1194  0.2261
  603MOL0     C83122   1.797  -2.100   5.859  0.4232  1.0884  0.6959
  603MOL0     C83123   1.711  -2.007   5.799 -0.0829 -1.0264  0.3516
  603MOL0     O83124   1.525  -1.773   5.749 -0.0555  0.6659 -0.4922
  603MOL0     C83125   1.346  -1.848   5.444 -0.1277 -0.2819 -0.6598
  603MOL0     C83126   1.284  -1.791   5.336  0.6944 -0.2504  0.6968
  603MOL0     N83127   1.322  -1.145   4.963 -0.2075 -0.2114  0.7239
  603MOL0     N83128   1.281  -1.023   4.975  0.0284 -0.1187 -0.1547
  603MOL0     C83129   0.684  -0.080   4.762  1.0984 -1.2238  0.8026
  603MOL0     C83130   0.761   0.035   4.807  0.0767 -0.0615  0.3058
  603MOL0     C83131   1.084   0.342   4.787  0.1725  0.4262  0.4906
  603MOL0     C83132   1.129   0.364   4.917 -0.9988  0.4992  0.1188
  603MOL0     C83133   1.240   0.458   4.940 -0.1756  1.2498 -0.9966
  603MOL0     C83134   1.297   0.519   4.836 -0.0153 -0.2329 -0.6581
  603MOL0     O83135   1.416   0.579   4.859 -0.2078 -0.9411  0.3955
  603MOL0     C83136   1.475   0.685   4.776 -1.1393  0.4045  0.6077
  603MOL0     C83137   1.380   0.800   4.747  0.0190  1.0394 -0.0659
  603MOL0     C83138   1.324   0.864   4.879 -0.3451  0.3818  0.4290
  603MOL0     C83139   1.427   0.912   4.978 -0.7955 -0.0647 -0.5267
  603MOL0     C83140   1.520   1.023   4.931  0.0626 -0.1541 -1.1181
  603MOL0     C83141   1.597   1.109   4.915  0.6113  0.1161  1.2614
  603MOL0     C83142   1.254   0.492   4.714 -0.3598  0.5887 -0.0494
  603MOL0     C83143   1.146   0.404   4.680 -0.6879  0.7729 -0.0963
  603MOL0     C83144   1.121   0.383   4.526  0.3722  0.2725 -0.3961
  603MOL0     H83145   1.072  -0.113   4.807 -0.7663 -0.8964 -1.4265
  603MOL0     H83146   0.952  -0.294   4.738 -1.5089  0.4870 -3.9929
  603MOL0     H83147   0.505  -0.304   4.751  0.5716  1.1527  1.9017
  603MOL0     H83148   0.609  -0.412   4.853  3.0881  0.0188 -0.0003
  603MOL0     H83149   0.480  -0.548   4.672 -0.6219  1.6661 -2.3446
  603MOL0     H83150   0.584  -0.464   4.556  1.1928 -1.4377 -0.4622
  603MOL0     H83151   0.632  -0.691   4.643 -3.0439  1.5184  0.5493
  603MOL0     H83152   0.780  -0.582   4.636 -0.4532 -3.0339 -0.2984
  603MOL0     H83153   0.762  -0.559   4.884 -2.4996  0.8796  1.9560
  603MOL0     H83154   0.620  -0.655   4.885 -0.5226  2.1718  0.4798
  603MOL0     H83155   0.885  -0.730   4.785 -2.3731  1.5326 -1.2100
  603MOL0     H83156   0.750  -0.850   4.803 -0.5682  0.1388  0.1926
  603MOL0     H83157   0.912  -0.706   5.026  2.9906  0.0175 -2.8781
  603MOL0     H83158   0.753  -0.801   5.041  0.5062  0.8721  0.8449
  603MOL0     H83159   0.874  -1.013   4.964 -0.7138 -0.7990  3.1232
  603MOL0     H83160   0.957  -0.937   5.102  1.4060 -1.3108 -0.0559
  603MOL0     H83161   1.045  -0.905   4.806 -0.0044 -1.2793  0.6156
  603MOL0     H83162   1.104  -0.807   4.944  0.8373 -0.2991  0.9654
  603MOL0     H83163   1.040  -1.175   4.823  1.8069 -0.6209 -2.4739
  603MOL0     H83164   1.278  -1.384   4.778 -0.5499 -0.1457 -0.6313
  603MOL0     H83165   1.149  -1.424   4.898 -1.3918  1.8837 -2.8093
  603MOL0     H83166   1.448  -1.393   4.970  2.1122 -2.7208  2.6826
  603MOL0     H83167   1.314  -1.390   5.080 -1.1877  1.8058 -1.8566
  603MOL0     H83168   1.344  -1.635   4.916 -3.4746 -2.0632  1.3925
  603MOL0     H83169   1.420  -1.617   5.075 -1.6236 -2.8726  1.0113
  603MOL0     H83170   1.115  -1.595   5.034 -1.9208 -3.0326 -0.0556
  603MOL0     H83171   1.204  -1.736   5.081 -2.8722  0.1239  0.7268
  603MOL0     H83172   1.341  -1.464   5.391  0.9450  0.2610  1.4953
  603MOL0     H83173   1.406  -1.560   5.719 -0.3185 -0.4194 -0.1538
  603MOL0     H83174   1.471  -1.444   5.593 -3.9430 -0.3686 -1.1680
  603MOL0     H83175   1.571  -1.581   5.644 -1.1262 -2.6408  2.0563
  603MOL0     H83176   1.464  -2.212   5.688 -0.2767  1.9670  0.1652
  603MOL0     H83177   1.581  -2.364   5.832 -2.7265  2.5424  3.0196
  603MOL0     H83178   2.024  -2.224   5.900 -0.7516  0.0296 -1.4349
  603MOL0     H83179   2.012  -2.332   6.042 -0.1489  0.0083 -0.8952
  603MOL0     H83180   2.173  -2.420   5.865 -0.2361 -0.4689 -0.6962
  603MOL0     H83181   2.035  -2.518   5.859 -3.7860  1.3275  2.0601
  603MOL0     H83182   2.073  -2.275   5.683 -0.6722  0.6018 -0.6506
  603MOL0     H83183   1.938  -2.377   5.692  0.4135  0.5180  0.9378
  603MOL0     H83184   2.065  -2.588   5.651 -1.2209  0.2662 -2.1091
  603MOL0     H83185   2.210  -2.484   5.647 -0.6223  0.0442 -0.2214
  603MOL0     H83186   2.132  -2.371   5.447 -2.3126  0.2838 -1.4651
  603MOL0     H83187   2.174  -2.541   5.413  2.2906  0.7309  2.3262
  603MOL0     H83188   1.974  -2.441   5.303  1.9760 -2.1712 -0.3360
  603MOL0     H83189   1.889  -2.417   5.458  1.6830  1.8067  0.2763
  603MOL0     H83190   1.793  -2.608   5.344 -0.6409 -3.1550 -0.9121
  603MOL0     H83191   1.900  -2.669   5.482  5.2396 -0.9660 -0.4387
  603MOL0     H83192   2.038  -2.651   5.218  1.5344 -3.8338 -1.9512
  603MOL0     H83193   1.893  -2.762   5.242 -0.5861 -1.7172  1.9945
  603MOL0     H83194   1.891  -2.067   5.901  0.6707  0.0932  0.9541
  603MOL0     H83195   1.746  -1.904   5.803 -0.0086 -1.0793  1.6379
  603MOL0     H83196   1.349  -1.954   5.466  0.2640  0.0529  1.0141
  603MOL0     H83197   1.232  -1.860   5.270  2.6592 -0.5627 -0.5991
  603MOL0     H83198   0.583  -0.050   4.737  1.2685 -1.7269 -0.6101
  603MOL0     H83199   0.718   0.132   4.825  1.5919  0.3331  2.1089
  603MOL0     H83200   1.084   0.316   5.003 -1.4907 -0.3333 -0.5838
  603MOL0     H83201   1.275   0.458   5.043 -0.9541 -2.9999 -0.5339
  603MOL0     H83202   1.557   0.725   4.837  0.4348 -0.3858 -0.8817
  603MOL0     H83203   1.519   0.648   4.683  1.8463  1.0692  1.6420
  603MOL0     H83204   1.296   0.760   4.690  1.1225 -0.9887 -0.3831
  603MOL0     H83205   1.426   0.883   4.694  0.8707 -0.0358 -1.0580
  603MOL0     H83206   1.259   0.948   4.851 -0.4604  0.9543  2.3017
  603MOL0     H83207   1.247   0.792   4.909 -0.3814  0.3387  0.2389
  603MOL0     H83208   1.483   0.822   5.003 -1.4707 -0.3876 -0.1545
  603MOL0     H83209   1.374   0.949   5.066  2.0165 -1.9109  2.1593
  603MOL0     H83210   1.673   1.183   4.899  1.7004 -1.5739 -2.7621
  603MOL0     H83211   1.305   0.536   4.629  2.6789 -3.3088 -0.5025
  603MOL0     H83212   1.061   0.466   4.488  1.5899 -0.0150 -3.1498
  603MOL0     H83213   1.218   0.377   4.475  0.6347 -1.4165  0.2399
  603MOL0     H83214   1.069   0.287   4.517 -0.7426  0.7069  0.9602
  604MOL0     O83215   0.890  10.703   6.561 -0.4156 -0.0460  0.1879
  604MOL0     C83216   0.947  10.649   6.469 -0.6969 -0.1301 -0.0397
  604MOL0     O83217   1.077  10.683   6.432 -0.3529 -0.7758 -0.2082
  604MOL0     C83218   1.122  10.816   6.460 -0.0356  0.6777  1.4597
  604MOL0     C83219   1.239  10.822   6.533 -0.1834 -0.9041 -0.2745
  604MOL0     C83220   1.299  10.941   6.545  0.6708 -0.9384  1.1159
  604MOL0     C83221   1.239  11.062   6.482  0.0564  0.5814 -1.4364
  604MOL0     O83222   1.292  11.181   6.515 -0.3858 -0.0376 -0.1050
  604MOL0     C83223   1.210  11.267   6.585 -0.8051 -0.1006  0.0857
  604MOL0     C83224   1.288  11.399   6.589 -0.1684  0.4623  1.9461
  604MOL0     C83225   1.229  11.508   6.497  0.0289  0.5174  0.2339
  604MOL0     C83226   1.113  11.593   6.566 -0.0719 -0.1840 -0.3066
  604MOL0     C83227   1.034  11.666   6.462  0.4530 -0.2528  0.4008
  604MOL0     C83228   0.924  11.755   6.528  1.2368 -0.5828  0.0987
  604MOL0     C83229   0.815  11.801   6.428  0.1260 -1.0224  0.5447
  604MOL0     C83230   0.709  11.695   6.387 -0.1982 -0.3888 -0.7764
  604MOL0     N83231   0.580  11.759   6.354  1.3460 -0.4983 -0.4075
  604MOL0     C83232   0.460  11.712   6.400 -0.1576  0.0962  0.2274
  604MOL0     C83233   0.360  11.761   6.317  0.3419 -0.1991 -0.5145
  604MOL0     C83234   0.218  11.729   6.312  0.2187 -1.6315  0.3627
  604MOL0     C83235   0.198  11.576   6.343  0.4490 -0.0220 -0.7848
  604MOL0     C83236   0.234  11.489   6.221  0.0214 -0.1242  0.9469
  604MOL0     C83237   0.131  11.498   6.113  1.2871 -1.3765  0.2123
  604MOL0     O83238   0.193  11.487   5.979 -0.3794  0.3605 -0.6930
  604MOL0     C83239   0.204  11.602   5.908 -0.3996  1.3094  0.5124
  604MOL0     C83240   0.240  11.725   5.951 -0.1981 -0.5834  0.4132
  604MOL0     C83241   0.237  11.837   5.862  0.5294 -0.0946  0.1546
  604MOL0     C83242   0.312  11.956   5.915  0.7194 -0.3254  1.2709
  604MOL0     C83243   0.181  11.828   5.731  0.5291  1.0256  0.0140
  604MOL0     C83244   0.153  11.947   5.643 -0.8989 -0.1054 -0.5564
  604MOL0     O83245   0.046  11.934   5.555  0.2409 -0.4219  0.1651
  604MOL0     C83246   0.030  12.043   5.473 -0.5117  0.3341 -0.0072
  604MOL0     C83247   0.125  12.086   5.388  0.4263 -0.0221  0.8167
  604MOL0     C83248   0.098  12.204   5.320  0.4054 -0.3805  0.1373
  604MOL0     C83249  -0.032  12.252   5.308  0.8699 -0.4384  0.4150
  604MOL0     O83250  -0.065  12.374   5.245  0.2448  0.1614  1.0840
  604MOL0     C83251   0.040  12.465   5.222 -0.6732  0.4258 -0.0920
  604MOL0     C83252  -0.019  12.603   5.236  0.5623  0.3952  0.3620
  604MOL0     C83253  -0.113  12.623   5.118  0.7850  1.3542 -0.8725
  604MOL0     C83254  -0.211  12.733   5.150  0.2440  0.1990  0.0269
  604MOL0     C83255  -0.156  12.872   5.109  0.6671  0.2762 -0.1328
  604MOL0     C83256  -0.264  12.987   5.110 -0.6227  0.8080  0.1891
  604MOL0     C83257  -0.382  12.974   5.021  0.3297 -0.6667  0.2463
  604MOL0     C83258  -0.353  12.936   4.874  0.5258  0.4777 -0.9666
  604MOL0    Cl83259  -0.263  13.077   4.797 -0.0892  0.4828 -0.5519
  604MOL0     C83260  -0.144  12.185   5.370 -0.4072 -0.4261 -0.6182
  604MOL0     C83261  -0.103  12.088   5.460 -0.0471  0.3695  0.8273
  604MOL0     O83262   0.234  12.034   5.648 -0.4181 -0.1945  0.2864
  604MOL0     C83263   0.132  11.702   5.700 -0.0239  0.2580 -0.0748
  604MOL0     C83264   0.132  11.601   5.788 -0.1500 -0.4656  0.0629
  604MOL0     N83265   0.424  11.844   6.228  0.0832  1.0146  0.6923
  604MOL0     N83266   0.554  11.834   6.245  0.1790 -0.1575 -0.5573
  604MOL0     C83267   1.115  11.050   6.420  0.8201 -0.6359  0.7677
  604MOL0     C83268   1.061  10.926   6.397  0.0707 -0.0996  0.1177
  604MOL0     C83269   0.882  10.523   6.412 -0.5628  0.5662  0.3117
  604MOL0     C83270   0.942  10.481   6.297  1.4094 -0.2771  0.5016
  604MOL0     C83271   0.899  10.367   6.227  1.0908  0.3652 -0.4429
  604MOL0     C83272   0.789  10.294   6.270  0.6159  0.7063  0.2338
  604MOL0     O83273   0.755  10.188   6.193 -0.0694  0.0433 -0.2676
  604MOL0     C83274   0.654  10.107   6.253 -0.3145 -0.2054 -0.8565
  604MOL0     C83275   0.628   9.976   6.177 -1.2495 -1.0735  1.1055
  604MOL0     C83276   0.738   9.934   6.079  0.2365 -0.6272  0.4866
  604MOL0     C83277   0.739   9.782   6.042  1.1658 -0.8266  0.2216
  604MOL0     C83278   0.762   9.702   6.166 -0.6671  0.2722 -0.0727
  604MOL0     C83279   0.784   9.627   6.260  0.2948 -0.0584 -0.2232
  604MOL0     C83280   0.732  10.333   6.391 -0.1786  0.4196  0.8069
  604MOL0     C83281   0.771  10.449   6.461 -0.4221 -0.9947  0.1113
  604MOL0     C83282   0.703  10.494   6.587  0.3395 -0.3770  0.0487
  604MOL0     H83283   1.277  10.736   6.587  1.0635  0.4436  1.0887
  604MOL0     H83284   1.385  10.969   6.605  1.7670  2.9664 -1.8906
  604MOL0     H83285   1.189  11.222   6.682 -1.9263  0.3030  0.0430
  604MOL0     H83286   1.113  11.282   6.535 -0.5714  0.3906 -0.2368
  604MOL0     H83287   1.295  11.447   6.687  2.2083 -0.9245  2.5188
  604MOL0     H83288   1.387  11.368   6.555 -0.3737  1.5401  0.2540
  604MOL0     H83289   1.301  11.581   6.460 -2.3626  1.6483 -2.5909
  604MOL0     H83290   1.186  11.470   6.404  1.3085  1.7766 -0.9364
  604MOL0     H83291   1.046  11.528   6.623 -0.2184 -0.9522 -1.3237
  604MOL0     H83292   1.163  11.668   6.628 -1.0128  1.3422 -1.3119
  604MOL0     H83293   0.986  11.602   6.388  1.6958 -3.4887  2.1886
  604MOL0     H83294   1.096  11.747   6.424 -0.9558  0.4711 -0.4372
  604MOL0     H83295   0.869  11.690   6.597  0.9222  0.1169  0.5120
  604MOL0     H83296   0.960  11.836   6.590 -0.4823 -0.4045  0.9253
  604MOL0     H83297   0.853  11.847   6.335 -1.7077 -0.4691  0.0285
  604MOL0     H83298   0.749  11.874   6.474  1.1694  1.4522 -1.5898
  604MOL0     H83299   0.763  11.646   6.305  0.1764 -1.0572 -0.1479
  604MOL0     H83300   0.692  11.625   6.470 -1.4062  0.9487  0.1537
  604MOL0     H83301   0.444  11.632   6.472  1.9589 -4.1659 -3.5011
  604MOL0     H83302   0.167  11.769   6.224 -2.0576 -2.4630  1.2285
  604MOL0     H83303   0.172  11.787   6.393  1.7071  2.1274 -1.2519
  604MOL0     H83304   0.253  11.549   6.433 -4.2869 -0.9246  2.1692
  604MOL0     H83305   0.096  11.550   6.372 -0.2187  2.9241 -0.1366
  604MOL0     H83306   0.330  11.523   6.181  1.3356  1.4145  4.9264
  604MOL0     H83307   0.241  11.394   6.274 -0.0533  0.1818  1.5135
  604MOL0     H83308   0.053  11.422   6.122 -0.8049  0.7064  0.7513
  604MOL0     H83309   0.088  11.599   6.121  1.9500 -1.2298  3.2920
  604MOL0     H83310   0.294  11.736   6.044  0.5545  0.3433 -0.1150
  604MOL0     H83311   0.272  11.979   6.014  0.3299 -2.9065  1.8001
  604MOL0     H83312   0.297  12.050   5.862 -2.4072  0.9201  4.0453
  604MOL0     H83313   0.418  11.929   5.916  0.7005 -0.4396  0.5142
  604MOL0     H83314   0.227  12.049   5.380  1.2895  2.2146  0.5971
  604MOL0     H83315   0.169  12.267   5.266 -2.0927  3.7770  1.2098
  604MOL0     H83316   0.111  12.456   5.305  1.6635 -1.9627 -2.1642
  604MOL0     H83317   0.095  12.444   5.130  3.5755  1.8567  1.8526
  604MOL0     H83318  -0.074  12.607   5.331  1.2069 -0.7947  0.8077
  604MOL0     H83319   0.057  12.682   5.243  1.5897 -0.6779  2.8548
  604MOL0     H83320  -0.164  12.527   5.107  0.5726  0.8412  3.2018
  604MOL0     H83321  -0.059  12.647   5.026  0.3152 -0.0695 -1.5554
  604MOL0     H83322  -0.244  12.727   5.254 -1.1474 -2.2470 -0.4716
  604MOL0     H83323  -0.295  12.716   5.081  1.4823  2.5152 -2.2022
  604MOL0     H83324  -0.065  12.884   5.170  0.9952 -0.2802 -0.5029
  604MOL0     H83325  -0.114  12.868   5.008 -1.4390 -0.4621 -1.0353
  604MOL0     H83326  -0.209  13.080   5.090  2.1423 -0.8615 -0.5545
  604MOL0     H83327  -0.298  13.001   5.213  1.5230  2.1156  0.7864
  604MOL0     H83328  -0.444  13.063   5.029  3.6982  1.6733  2.8951
  604MOL0     H83329  -0.445  12.902   5.074  0.4544 -1.5208 -0.7127
  604MOL0     H83330  -0.452  12.925   4.831 -0.0438  3.6476 -0.7118
  604MOL0     H83331  -0.291  12.846   4.878 -0.0024  0.0814  3.5483
  604MOL0     H83332  -0.243  12.218   5.344 -0.2963  1.5901  1.2171
  604MOL0     H83333  -0.176  12.039   5.523  0.1518 -2.4226 -0.9675
  604MOL0     H83334   0.092  11.705   5.599 -1.8153  1.3498  0.6319
  604MOL0     H83335   0.101  11.500   5.764  2.1413 -1.5436  1.2337
  604MOL0     H83336   1.083  11.142   6.373 -0.5426 -1.2619  0.4153
  604MOL0     H83337   0.977  10.904   6.332  0.7533  0.3922 -0.9617
  604MOL0     H83338   1.023  10.541   6.258  1.3238  0.1072  0.9101
  604MOL0     H83339   0.946  10.361   6.129 -0.6108 -0.4756 -1.2341
  604MOL0     H83340   0.703  10.065   6.342 -0.7027  2.3407  0.6475
  604MOL0     H83341   0.564  10.157   6.288 -0.8185 -1.6408 -0.0168
  604MOL0     H83342   0.539   9.997   6.117 -2.5470 -4.1515  1.7785
  604MOL0     H83343   0.602   9.885   6.231  2.6655 -3.4900 -0.5969
  604MOL0     H83344   0.727   9.987   5.984  3.3085 -1.4641 -0.4791
  604MOL0     H83345   0.836   9.959   6.121 -0.1126  0.4429  0.6843
  604MOL0     H83346   0.809   9.758   5.960  0.4238 -0.4021 -0.5566
  604MOL0     H83347   0.642   9.743   6.010  0.9037 -0.0885  0.0862
  604MOL0     H83348   0.794   9.578   6.354 -0.1616  4.1289  2.2802
  604MOL0     H83349   0.633  10.309   6.428  0.2350  2.5212  3.6047
  604MOL0     H83350   0.775  10.515   6.666 -0.0533  0.2034  0.2558
  604MOL0     H83351   0.632  10.574   6.565 -3.1809 -2.8697  1.4167
  604MOL0     H83352   0.641  10.411   6.621 -1.0979  0.4069 -0.5546
  605MOL0     O83353   4.035   5.956  11.225 -0.5058 -0.7668 -0.6691
  605MOL0     C83354   4.098   5.988  11.128  0.7931 -0.3962  0.2562
  605MOL0     O83355   4.158   5.905  11.039  0.1807  0.5846  0.1820
  605MOL0     C83356   4.153   5.769  11.046  0.0875 -0.5678  0.3726
  605MOL0     C83357   4.160   5.698  10.926 -0.4789 -0.3003 -0.3724
  605MOL0     C83358   4.157   5.559  10.927 -0.1278  0.3822 -0.1464
  605MOL0     C83359   4.152   5.484  11.035 -0.3690 -0.4654 -0.7373
  605MOL0     O83360   4.156   5.353  11.022  0.3692 -0.8753  0.3121
  605MOL0     C83361   4.037   5.282  11.052  0.1700 -0.5221  0.1876
  605MOL0     C83362   3.905   5.329  10.998  1.2102  0.0402 -0.4503
  605MOL0     C83363   3.785   5.232  11.033  0.5518  0.8431 -0.4798
  605MOL0     C83364   3.739   5.233  11.182 -0.2468 -0.7581 -0.4045
  605MOL0     C83365   3.681   5.097  11.226  0.8352 -0.1859 -0.3766
  605MOL0     C83366   3.656   5.089  11.368  0.5426 -0.3158 -0.3571
  605MOL0     C83367   3.604   4.951  11.411  0.5291 -0.5265 -0.4873
  605MOL0     C83368   3.703   4.828  11.420  0.3396 -0.0937 -1.3582
  605MOL0     N83369   3.622   4.709  11.441 -0.2735  0.1099 -1.0217
  605MOL0     C83370   3.546   4.703  11.550 -0.0931 -0.3548  0.6087
  605MOL0     C83371   3.489   4.584  11.543 -0.3192 -0.0331  0.2192
  605MOL0     C83372   3.401   4.541  11.655  0.0084 -0.7754  0.4888
  605MOL0     C83373   3.468   4.462  11.764 -0.3307  0.0873 -0.1777
  605MOL0     C83374   3.383   4.467  11.879 -0.4786 -0.4648 -1.4957
  605MOL0     C83375   3.466   4.408  11.993 -0.8411 -0.7563 -0.0246
  605MOL0     O83376   3.467   4.265  11.967  0.3996  0.3696  0.0152
  605MOL0     C83377   3.590   4.208  12.000  0.8533  0.4138  0.9668
  605MOL0     C83378   3.678   4.255  12.101 -0.2247 -0.0838 -0.2590
  605MOL0     C83379   3.794   4.193  12.136  0.7733 -0.5027 -0.9370
  605MOL0     C83380   3.865   4.243  12.256  0.4274  0.1876 -0.2636
  605MOL0     C83381   3.848   4.095  12.046 -0.0231  0.3879  0.2803
  605MOL0     C83382   3.974   4.035  12.057 -0.0747 -1.2179  1.0862
  605MOL0     O83383   4.081   4.126  12.074 -0.6561 -0.2545  0.2272
  605MOL0     C83384   4.202   4.078  12.106 -0.5714  0.0659  0.9207
  605MOL0     C83385   4.239   3.972  12.192  1.1304 -0.5170 -0.8727
  605MOL0     C83386   4.375   3.934  12.217  0.3993 -2.0978 -0.5061
  605MOL0     C83387   4.476   4.004  12.154  0.0165 -0.0874  0.1880
  605MOL0     O83388   4.610   3.975  12.186  0.5379 -0.4107 -0.1187
  605MOL0     C83389   4.718   4.068  12.146  0.3739  0.2631  0.9713
  605MOL0     C83390   4.850   3.994  12.189 -0.2078  0.4356  0.2610
  605MOL0     C83391   4.928   4.056  12.295 -0.1239 -0.2629 -0.6793
  605MOL0     C83392   5.058   3.978  12.301 -0.0957  0.9832  0.0735
  605MOL0     C83393   5.131   3.992  12.429  0.0785  0.4569 -0.5292
  605MOL0     C83394   5.202   4.130  12.468 -0.2856  0.2431  0.2377
  605MOL0     C83395   5.329   4.168  12.392 -0.5736  1.0434  0.7581
  605MOL0     C83396   5.446   4.084  12.449  0.0116  0.1273  1.4721
  605MOL0    Cl83397   5.609   4.152  12.397 -0.6291 -0.3684  0.2015
  605MOL0     C83398   4.440   4.123  12.071 -0.4112  1.1104 -0.2996
  605MOL0     C83399   4.307   4.143  12.036  0.3370  0.5437 -0.0102
  605MOL0     O83400   3.987   3.916  12.033  0.0992 -0.2552  1.0766
  605MOL0     C83401   3.765   4.047  11.946  0.8415 -0.1681  0.5299
  605MOL0     C83402   3.632   4.096  11.931 -0.4937 -0.0604 -1.1219
  605MOL0     N83403   3.530   4.523  11.421 -0.5719  0.4398  0.5625
  605MOL0     N83404   3.616   4.602  11.364  0.2477 -0.7435  0.0571
  605MOL0     C83405   4.167   5.549  11.156 -0.2027  0.5974  0.0006
  605MOL0     C83406   4.156   5.690  11.167  0.6958  0.4499 -0.2628
  605MOL0     C83407   4.125   6.129  11.117  1.0182  0.4398 -0.5465
  605MOL0     C83408   4.185   6.192  11.224  0.5055 -0.1975 -0.4205
  605MOL0     C83409   4.227   6.324  11.221  0.3180 -0.0693 -1.0809
  605MOL0     C83410   4.221   6.397  11.104 -0.0606  0.2571 -0.7642
  605MOL0     O83411   4.249   6.532  11.097 -0.6886 -0.3645 -0.9415
  605MOL0     C83412   4.323   6.593  11.204 -0.5292  0.3581  0.8061
  605MOL0     C83413   4.219   6.637  11.299 -0.5489  0.3325 -0.2448
  605MOL0     C83414   4.265   6.741  11.398 -1.2647 -0.4217  0.3469
  605MOL0     C83415   4.175   6.750  11.525 -0.1797  1.8464  0.0146
  605MOL0     C83416   4.033   6.759  11.506  0.2883 -1.1745 -0.6258
  605MOL0     C83417   3.910   6.758  11.509  0.2365 -0.3965  0.3075
  605MOL0     C83418   4.165   6.333  11.000 -0.3451  0.5659 -0.2181
  605MOL0     C83419   4.105   6.201  11.003 -1.0466  0.1314 -0.0977
  605MOL0     C83420   4.044   6.155  10.870  0.9537  0.3969 -0.9282
  605MOL0     H83421   4.161   5.762  10.839  0.7786  0.8089  0.4093
  605MOL0     H83422   4.151   5.516  10.827 -0.4263  1.5191 -0.6322
  605MOL0     H83423   4.020   5.280  11.160 -1.1208  0.3505  0.0204
  605MOL0     H83424   4.063   5.180  11.022 -0.8361 -1.1045  1.2534
  605MOL0     H83425   3.886   5.434  11.018 -1.1704 -0.4819  0.2874
  605MOL0     H83426   3.910   5.321  10.889  0.3326  1.6156 -0.6267
  605MOL0     H83427   3.696   5.260  10.976 -1.6362  1.8827  3.1316
  605MOL0     H83428   3.827   5.132  11.019  2.6303  1.0481  3.1336
  605MOL0     H83429   3.828   5.238  11.246  1.9721 -0.5205 -3.3015
  605MOL0     H83430   3.659   5.305  11.204 -1.0334 -2.0268  1.0952
  605MOL0     H83431   3.737   5.012  11.186  0.0049 -0.2955 -1.3538
  605MOL0     H83432   3.579   5.100  11.188  0.5602  0.9305  0.4080
  605MOL0     H83433   3.741   5.121  11.429  2.4733 -0.4633 -2.7913
  605MOL0     H83434   3.581   5.168  11.374 -2.0400 -2.2270 -3.7749
  605MOL0     H83435   3.528   4.920  11.339 -0.9636 -3.1066  2.0121
  605MOL0     H83436   3.569   4.961  11.514 -1.0956  2.3003 -1.1901
  605MOL0     H83437   3.747   4.820  11.320  2.6272 -1.4512 -0.3215
  605MOL0     H83438   3.786   4.833  11.492  0.4304 -0.4275 -1.4380
  605MOL0     H83439   3.537   4.775  11.631 -2.8587 -1.0732  1.0386
  605MOL0     H83440   3.322   4.476  11.618 -3.0178  0.3883  4.2464
  605MOL0     H83441   3.342   4.625  11.693 -0.8068 -1.4058  0.6349
  605MOL0     H83442   3.505   4.366  11.728  0.0151  0.2788 -0.3445
  605MOL0     H83443   3.565   4.510  11.785  0.3808 -1.8807  1.3112
  605MOL0     H83444   3.375   4.574  11.903  0.6600 -0.7841  0.5286
  605MOL0     H83445   3.284   4.421  11.887 -0.2647 -0.7172 -0.1675
  605MOL0     H83446   3.566   4.452  12.000 -2.1650  2.2877  1.7005
  605MOL0     H83447   3.437   4.427  12.097  4.1921  0.6959  1.3942
  605MOL0     H83448   3.663   4.346  12.159  1.6919  1.6519 -2.2866
  605MOL0     H83449   3.798   4.231  12.342 -0.6108 -0.0108 -1.0854
  605MOL0     H83450   3.871   4.351  12.242 -2.3580  0.2784 -1.3603
  605MOL0     H83451   3.968   4.209  12.268  0.8041  1.6172  0.7825
  605MOL0     H83452   4.160   3.917  12.242  0.5037 -0.0782 -1.3504
  605MOL0     H83453   4.390   3.845  12.278 -2.4448 -3.6512 -1.8740
  605MOL0     H83454   4.703   4.093  12.040 -1.0574  2.3865  1.6185
  605MOL0     H83455   4.707   4.169  12.186 -3.0681  0.2375  0.3531
  605MOL0     H83456   4.823   3.891  12.215 -4.8773  1.4526  0.2740
  605MOL0     H83457   4.918   4.001  12.103  1.0929  1.5597  1.3582
  605MOL0     H83458   4.873   4.064  12.389  2.5406  5.0494  0.8584
  605MOL0     H83459   4.957   4.158  12.265 -1.1947 -0.1482 -1.3785
  605MOL0     H83460   5.118   4.014  12.218 -1.6828  0.5894 -1.2898
  605MOL0     H83461   5.051   3.869  12.293  0.8128  0.6833  2.4508
  605MOL0     H83462   5.056   3.985  12.508  0.2890  2.5260 -0.1111
  605MOL0     H83463   5.193   3.904  12.446 -0.5212  0.5002  2.3572
  605MOL0     H83464   5.230   4.144  12.572  0.8371  2.4914 -0.2906
  605MOL0     H83465   5.133   4.214  12.451 -1.5394 -0.8615 -0.3344
  605MOL0     H83466   5.355   4.272  12.414  0.7147  1.0724 -0.7213
  605MOL0     H83467   5.328   4.157  12.283  1.8897  0.9217  0.6899
  605MOL0     H83468   5.445   3.978  12.425  2.0655  0.0035  1.8128
  605MOL0     H83469   5.445   4.100  12.557 -2.0063 -2.5247  1.9637
  605MOL0     H83470   4.511   4.190  12.023  0.9228  0.1447  0.2857
  605MOL0     H83471   4.299   4.218  11.958 -0.2274 -2.2173 -2.8088
  605MOL0     H83472   3.778   3.954  11.892 -1.6142 -0.8461  0.9596
  605MOL0     H83473   3.558   4.048  11.868 -1.7541  2.6421 -1.8344
  605MOL0     H83474   4.182   5.476  11.235 -1.3821 -1.0100 -1.1809
  605MOL0     H83475   4.182   5.740  11.260  3.6116  2.0501 -1.8187
  605MOL0     H83476   4.195   6.132  11.314 -3.0177 -1.0746 -0.4685
  605MOL0     H83477   4.286   6.362  11.304  1.1165 -0.8955 -1.2548
  605MOL0     H83478   4.405   6.527  11.231  0.4388  1.3988  0.5246
  605MOL0     H83479   4.360   6.694  11.182 -0.8803  0.8211  2.2507
  605MOL0     H83480   4.174   6.556  11.358 -0.4932 -2.3926 -3.5885
  605MOL0     H83481   4.138   6.687  11.247 -0.2792  3.8955  2.4097
  605MOL0     H83482   4.364   6.718  11.438 -2.7812 -1.6735  3.8491
  605MOL0     H83483   4.267   6.839  11.350  0.3055 -0.3932  0.4224
  605MOL0     H83484   4.206   6.828  11.595 -1.0914  2.6207 -0.4239
  605MOL0     H83485   4.191   6.649  11.562 -0.0418  0.1085 -4.2556
  605MOL0     H83486   3.805   6.751  11.534  0.4966 -5.0107  1.0607
  605MOL0     H83487   4.155   6.377  10.901  0.6844 -0.4019 -0.7851
  605MOL0     H83488   4.096   6.063  10.842  1.0485 -0.5828  2.1416
  605MOL0     H83489   3.941   6.127  10.896  1.9940 -0.5321  2.7448
  605MOL0     H83490   4.030   6.232  10.793  1.7822  3.0283  1.4114
  606MOL0     O83491   4.053   1.503   2.477  0.2363  0.4524  0.2485
  606MOL0     C83492   4.045   1.397   2.410  1.2339 -0.1392 -0.0149
  606MOL0     O83493   4.056   1.392   2.272 -0.5685  0.5651 -0.4765
  606MOL0     C83494   4.040   1.514   2.206 -0.8495  0.5881 -0.1725
  606MOL0     C83495   4.126   1.531   2.092 -0.0387 -0.2945 -1.0539
  606MOL0     C83496   4.120   1.651   2.025 -0.4311 -0.3327 -0.2109
  606MOL0     C83497   4.021   1.744   2.054 -0.7944 -0.1450  0.6419
  606MOL0     O83498   3.994   1.858   1.987  0.8755  0.3164  0.5233
  606MOL0     C83499   4.011   1.846   1.840 -0.8559 -0.2903 -0.4103
  606MOL0     C83500   3.946   1.973   1.768  0.1822 -0.3581  0.3295
  606MOL0     C83501   4.024   2.096   1.798  0.6953 -0.0596 -0.9422
  606MOL0     C83502   3.944   2.179   1.912 -0.7842  0.3632  0.9849
  606MOL0     C83503   3.993   2.329   1.921  0.6355  0.1941 -0.3909
  606MOL0     C83504   4.147   2.342   1.918  0.2288 -0.0661  0.1195
  606MOL0     C83505   4.195   2.477   1.910  0.6210 -0.0172  0.1734
  606MOL0     C83506   4.231   2.545   2.044 -0.7956 -0.3268 -0.3711
  606MOL0     N83507   4.106   2.569   2.124 -0.2360  0.0290  0.4121
  606MOL0     C83508   4.075   2.502   2.240 -0.8750  0.7737  0.3110
  606MOL0     C83509   3.973   2.568   2.295 -0.7007  0.2978  0.5841
  606MOL0     C83510   3.922   2.541   2.432  1.2373 -0.3758  0.2152
  606MOL0     C83511   4.020   2.463   2.519 -0.3792 -0.1944 -1.0521
  606MOL0     C83512   3.972   2.433   2.665 -0.7012 -0.1296  1.1181
  606MOL0     C83513   4.081   2.382   2.747  0.4337  1.2003  0.1925
  606MOL0     O83514   4.161   2.494   2.787  0.1381  0.4033  0.5055
  606MOL0     C83515   4.275   2.466   2.846 -0.2529  0.0753 -0.5984
  606MOL0     C83516   4.294   2.343   2.915  0.2250  0.7945 -0.6940
  606MOL0     C83517   4.422   2.295   2.955 -1.0310  0.4490 -1.0415
  606MOL0     C83518   4.413   2.155   3.005  0.8807  0.0125  0.5067
  606MOL0     C83519   4.541   2.369   2.931 -0.0392 -0.4927 -0.8206
  606MOL0     C83520   4.676   2.314   2.973  0.4856  0.7700  0.3112
  606MOL0     O83521   4.789   2.369   2.914  0.2346 -0.3847 -0.5787
  606MOL0     C83522   4.913   2.320   2.944  0.6625 -0.0570 -0.8329
  606MOL0     C83523   5.003   2.409   2.998  0.2278  0.5141  0.1035
  606MOL0     C83524   5.137   2.375   3.023 -0.4100  0.2578  1.0673
  606MOL0     C83525   5.182   2.246   3.003  0.8357  0.2545  0.6550
  606MOL0     O83526   5.307   2.197   3.029  0.3402  0.9219  0.1221
  606MOL0     C83527   5.423   2.281   3.038 -0.2167  0.1588 -0.0657
  606MOL0     C83528   5.528   2.194   3.103 -0.4877 -0.5211  0.2327
  606MOL0     C83529   5.569   2.237   3.246  0.7176 -0.2678  0.5039
  606MOL0     C83530   5.449   2.235   3.352 -0.6386  0.2926 -1.0624
  606MOL0     C83531   5.507   2.280   3.486 -1.5425  0.2446 -0.9067
  606MOL0     C83532   5.416   2.284   3.604  0.8483 -0.1723  0.3514
  606MOL0     C83533   5.453   2.176   3.708  0.5088  0.1553 -0.0162
  606MOL0     C83534   5.390   2.186   3.856 -0.1992 -0.8289  0.1626
  606MOL0    Cl83535   5.211   2.190   3.855 -0.0621  0.4006 -0.3423
  606MOL0     C83536   5.089   2.155   2.949 -0.1157 -0.1619  0.2618
  606MOL0     C83537   4.960   2.190   2.920 -0.4178 -0.3006 -1.0929
  606MOL0     O83538   4.679   2.215   3.046 -0.3309  0.8186 -0.2572
  606MOL0     C83539   4.517   2.492   2.868  0.1835 -0.3024  0.1215
  606MOL0     C83540   4.389   2.539   2.830  0.6923  0.4419 -1.0843
  606MOL0     N83541   3.939   2.669   2.208 -0.7727 -0.5555  0.5735
  606MOL0     N83542   4.012   2.661   2.100 -0.0709 -0.2174  0.1862
  606MOL0     C83543   3.936   1.726   2.167 -0.1561  0.2755  0.0077
  606MOL0     C83544   3.949   1.613   2.242  0.2517  0.1622  0.6737
  606MOL0     C83545   4.055   1.266   2.484  0.8661  0.1189  0.1835
  606MOL0     C83546   4.149   1.175   2.434 -0.5246 -1.2544  0.1416
  606MOL0     C83547   4.166   1.044   2.477 -0.0757  0.8013 -0.0142
  606MOL0     C83548   4.087   1.015   2.595  0.3229 -0.0018 -0.9167
  606MOL0     O83549   4.102   0.899   2.673 -0.3581 -0.4052  0.1997
  606MOL0     C83550   4.159   0.775   2.623  0.7689 -0.1898 -0.3760
  606MOL0     C83551   4.055   0.686   2.564 -0.6062  0.0958 -0.4189
  606MOL0     C83552   4.026   0.709   2.415 -1.3441  0.7555 -0.3947
  606MOL0     C83553   3.952   0.579   2.362 -0.2961  0.3287  0.0977
  606MOL0     C83554   3.920   0.569   2.223 -0.6211 -0.0108 -0.3910
  606MOL0     C83555   3.882   0.551   2.105 -0.0267 -0.4306 -0.1846
  606MOL0     C83556   4.018   1.111   2.665 -0.0443  0.4622  0.3993
  606MOL0     C83557   4.002   1.238   2.607 -0.2964 -0.3747 -0.2456
  606MOL0     C83558   3.916   1.328   2.684 -0.8916 -0.5132 -0.0757
  606MOL0     H83559   4.190   1.451   2.055 -0.9589 -0.6713 -1.8588
  606MOL0     H83560   4.194   1.659   1.946 -0.2913  2.1835  0.0956
  606MOL0     H83561   3.975   1.751   1.801 -0.8259  0.1900 -1.6288
  606MOL0     H83562   4.120   1.843   1.826 -0.5763  2.6115  0.4904
  606MOL0     H83563   3.954   1.955   1.660  0.1225  0.1990  0.2296
  606MOL0     H83564   3.838   1.981   1.776  0.2889 -0.6602  2.8665
  606MOL0     H83565   4.123   2.071   1.840  0.5823 -2.7380 -2.0893
  606MOL0     H83566   4.022   2.159   1.709  1.1049  2.4622  0.7344
  606MOL0     H83567   3.836   2.175   1.899 -0.8654 -1.1321  1.9841
  606MOL0     H83568   3.972   2.134   2.008  3.1538  0.9946  0.3195
  606MOL0     H83569   3.951   2.375   2.011  1.0051  1.5418 -0.8799
  606MOL0     H83570   3.950   2.391   1.842 -1.7043 -2.2233 -1.1581
  606MOL0     H83571   4.179   2.301   2.014 -3.2728 -0.5465  1.2251
  606MOL0     H83572   4.177   2.283   1.831 -2.7814 -1.9243  0.2060
  606MOL0     H83573   4.120   2.531   1.852  1.9029 -1.5147 -3.1177
  606MOL0     H83574   4.288   2.476   1.853  0.2272  3.4177 -0.7601
  606MOL0     H83575   4.301   2.497   2.112 -0.5443  2.1381  1.2311
  606MOL0     H83576   4.282   2.639   2.023 -0.3935  0.1313  2.3265
  606MOL0     H83577   4.117   2.409   2.276 -2.8107  0.3930  1.7383
  606MOL0     H83578   3.833   2.480   2.445  0.9402 -0.0192 -0.1311
  606MOL0     H83579   3.897   2.638   2.475 -2.2779 -1.2063  0.3362
  606MOL0     H83580   4.043   2.367   2.472  2.7561  0.2641 -0.7035
  606MOL0     H83581   4.123   2.500   2.530 -0.5860 -0.0956  0.8892
  606MOL0     H83582   3.922   2.514   2.719 -0.3502 -0.2279  1.6047
  606MOL0     H83583   3.909   2.345   2.653  1.0560 -1.4326  1.0297
  606MOL0     H83584   4.046   2.326   2.835 -0.5131 -0.9541 -1.4640
  606MOL0     H83585   4.134   2.312   2.682 -1.8974  1.3415 -2.0026
  606MOL0     H83586   4.214   2.272   2.932  1.7779 -1.0556 -0.7436
  606MOL0     H83587   4.329   2.110   2.952  2.6966 -1.1997 -1.4529
  606MOL0     H83588   4.402   2.164   3.114 -0.7148  0.7923  0.3144
  606MOL0     H83589   4.501   2.094   2.985  1.0907  1.0108 -1.9763
  606MOL0     H83590   4.970   2.507   3.031 -0.5909  0.1685  0.3115
  606MOL0     H83591   5.197   2.452   3.070 -0.0069  0.8856 -0.4407
  606MOL0     H83592   5.449   2.307   2.936  1.6751 -1.9524 -0.1903
  606MOL0     H83593   5.408   2.370   3.101  4.5511  0.9832  0.2403
  606MOL0     H83594   5.494   2.090   3.096 -1.9029  0.0193 -2.0928
  606MOL0     H83595   5.619   2.198   3.043  2.2559 -0.0824  4.0221
  606MOL0     H83596   5.599   2.341   3.230 -1.6795 -0.0224 -4.1435
  606MOL0     H83597   5.636   2.168   3.297 -2.6080 -1.1983  4.0721
  606MOL0     H83598   5.418   2.131   3.344  0.5479 -0.3194  1.3358
  606MOL0     H83599   5.363   2.290   3.313  0.5514  0.8462 -3.0873
  606MOL0     H83600   5.583   2.204   3.504 -2.1335 -0.0131  0.6379
  606MOL0     H83601   5.547   2.381   3.477 -1.3101  0.2380  0.0087
  606MOL0     H83602   5.312   2.270   3.573  0.4215 -1.1670  2.1549
  606MOL0     H83603   5.420   2.382   3.653  1.0243  0.2755 -0.5297
  606MOL0     H83604   5.561   2.175   3.725  0.3230  3.3936  2.2248
  606MOL0     H83605   5.443   2.075   3.667 -1.9578 -1.1080  3.2342
  606MOL0     H83606   5.417   2.283   3.898 -0.0020 -0.2691 -1.1795
  606MOL0     H83607   5.425   2.108   3.923  3.5455 -1.3200 -2.0276
  606MOL0     H83608   5.123   2.054   2.929  0.2476  0.1936 -0.9766
  606MOL0     H83609   4.898   2.120   2.865 -1.7907  0.2476 -0.3261
  606MOL0     H83610   4.606   2.545   2.835 -1.4440  2.0904 -0.7327
  606MOL0     H83611   4.380   2.635   2.778  1.1120  1.4037  0.5498
  606MOL0     H83612   3.869   1.804   2.203 -0.0622 -0.3020  1.5125
  606MOL0     H83613   3.888   1.605   2.331  0.3269 -2.2662  0.5825
  606MOL0     H83614   4.188   1.204   2.336 -1.2932 -1.0168 -0.0994
  606MOL0     H83615   4.226   0.962   2.439 -2.2712 -1.3532  0.9197
  606MOL0     H83616   4.233   0.799   2.547  1.5263  0.6595  0.5990
  606MOL0     H83617   4.218   0.735   2.706  2.7179 -0.8034 -1.9883
  606MOL0     H83618   3.970   0.698   2.631 -0.5997  1.6430 -0.6577
  606MOL0     H83619   4.096   0.585   2.575  1.2097  0.8065 -0.3964
  606MOL0     H83620   3.964   0.799   2.408 -1.9402  0.3546 -0.3783
  606MOL0     H83621   4.113   0.725   2.351 -2.3762  3.7338 -1.1939
  606MOL0     H83622   3.857   0.569   2.416  1.1465  1.8949  3.1340
  606MOL0     H83623   4.000   0.482   2.379 -0.6965  0.5291  2.8997
  606MOL0     H83624   3.854   0.547   2.002 -4.4599  2.0009  0.6866
  606MOL0     H83625   3.967   1.080   2.756 -2.1651  0.0924 -0.8579
  606MOL0     H83626   3.973   1.408   2.732 -0.3024  0.7177 -2.7061
  606MOL0     H83627   3.840   1.376   2.621  0.9143 -1.3601 -3.0827
  606MOL0     H83628   3.857   1.264   2.751 -2.5729 -2.1364 -2.9257
  607MOL0     O83629   2.112   7.158   6.801  0.2279 -0.1111 -1.1329
  607MOL0     C83630   2.071   7.206   6.912 -0.2485 -0.1005  0.0123
  607MOL0     O83631   2.080   7.148   7.031  0.1364 -0.9171 -0.1055
  607MOL0     C83632   2.111   7.016   7.052 -0.6983 -0.1983  0.5001
  607MOL0     C83633   2.144   6.984   7.181 -0.1510  0.8531  0.5616
  607MOL0     C83634   2.153   6.856   7.239  0.7535 -0.0765  0.4908
  607MOL0     C83635   2.133   6.748   7.151  0.2889 -0.5490  0.3746
  607MOL0     O83636   2.135   6.611   7.181  0.7996 -0.1716  0.8132
  607MOL0     C83637   2.187   6.585   7.308 -0.2271 -0.8686  0.9447
  607MOL0     C83638   2.233   6.445   7.328  0.9109 -0.1046 -0.1926
  607MOL0     C83639   2.266   6.442   7.481  0.0827  0.2476  0.6665
  607MOL0     C83640   2.379   6.341   7.498  0.1245 -0.1022 -0.3168
  607MOL0     C83641   2.520   6.411   7.467  0.6202  0.9516  0.2222
  607MOL0     C83642   2.608   6.400   7.592  0.5074  0.7297 -0.0412
  607MOL0     C83643   2.729   6.490   7.576  0.9564 -0.4362 -0.4220
  607MOL0     C83644   2.688   6.643   7.567 -0.3159 -0.9854 -0.0014
  607MOL0     N83645   2.598   6.677   7.676  0.0635  0.5480  0.4149
  607MOL0     C83646   2.629   6.682   7.806 -0.7788  0.6483  0.0307
  607MOL0     C83647   2.518   6.736   7.865  0.8441  0.2404 -0.1212
  607MOL0     C83648   2.500   6.744   8.012  0.4467  1.0256  0.2073
  607MOL0     C83649   2.614   6.816   8.089 -0.1551 -0.5849 -0.0082
  607MOL0     C83650   2.645   6.958   8.036  0.4653 -0.5678  0.4307
  607MOL0     C83651   2.791   6.988   8.065  0.4284  0.7393  0.2623
  607MOL0     O83652   2.832   7.113   8.002 -0.4832  0.0160  0.5841
  607MOL0     C83653   2.871   7.104   7.866 -0.1581  0.2101 -0.0434
  607MOL0     C83654   2.915   6.989   7.795  0.3347 -0.4527 -0.8073
  607MOL0     C83655   2.960   6.993   7.663 -0.2313  0.1399  0.4539
  607MOL0     C83656   2.999   6.867   7.596  0.6531  0.1411  0.3109
  607MOL0     C83657   2.974   7.120   7.597  0.1590  0.3257 -0.2326
  607MOL0     C83658   3.037   7.154   7.468 -0.5411  0.8217  0.2574
  607MOL0     O83659   2.986   7.266   7.400 -0.8733 -0.0375  0.8051
  607MOL0     C83660   3.020   7.272   7.265  0.3387  0.6915  0.7022
  607MOL0     C83661   3.068   7.389   7.205 -0.0483  0.5600 -0.7078
  607MOL0     C83662   3.088   7.395   7.067  0.7521  0.4053 -0.2803
  607MOL0     C83663   3.076   7.285   6.982 -0.0635 -0.4826 -0.8538
  607MOL0     O83664   3.098   7.286   6.852  0.4789 -0.2368 -0.0524
  607MOL0     C83665   3.174   7.388   6.788 -1.0736 -0.0711 -0.4681
  607MOL0     C83666   3.317   7.322   6.785 -0.2905 -0.8286  0.3390
  607MOL0     C83667   3.337   7.174   6.733 -0.5944  0.1914  0.6232
  607MOL0     C83668   3.261   7.134   6.603 -0.1961 -0.1227 -0.1681
  607MOL0     C83669   3.333   7.200   6.478 -0.5327 -1.3666 -0.4797
  607MOL0     C83670   3.241   7.200   6.356 -0.4302  0.4510 -0.4045
  607MOL0     C83671   3.162   7.073   6.317  1.0849  0.2511  0.6817
  607MOL0     C83672   3.055   7.097   6.196 -1.2951  0.1257  0.6320
  607MOL0    Cl83673   3.138   7.080   6.037  0.2854  0.3976 -0.1995
  607MOL0     C83674   3.035   7.165   7.047  0.5956 -0.8174  0.3933
  607MOL0     C83675   3.001   7.163   7.181 -0.0041  0.4028 -0.4253
  607MOL0     O83676   3.135   7.090   7.434 -0.4327  0.3206  0.8396
  607MOL0     C83677   2.924   7.227   7.669 -0.3291 -0.1121  1.1238
  607MOL0     C83678   2.875   7.214   7.798 -0.4103 -0.1631  0.5421
  607MOL0     N83679   2.422   6.769   7.762 -0.3121  0.1723  0.5344
  607MOL0     N83680   2.475   6.732   7.646  0.3274 -0.0054  0.2679
  607MOL0     C83681   2.100   6.778   7.014  0.0202 -0.5480  0.3186
  607MOL0     C83682   2.084   6.910   6.968  0.0433  0.2036  0.1660
  607MOL0     C83683   2.039   7.351   6.903 -0.1364 -0.1894 -0.4424
  607MOL0     C83684   2.060   7.428   7.017  0.1818 -0.5032  0.8069
  607MOL0     C83685   2.010   7.553   7.031 -0.4773  0.8511  0.5154
  607MOL0     C83686   1.939   7.608   6.931 -0.6307  0.0369  0.2520
  607MOL0     O83687   1.871   7.729   6.932 -0.3478 -0.3151 -0.4214
  607MOL0     C83688   1.963   7.830   6.890 -0.0112 -0.2007  0.4060
  607MOL0     C83689   2.038   7.879   7.024 -0.1566  0.2412 -0.5032
  607MOL0     C83690   1.945   7.952   7.129 -0.1094  0.0457  0.3617
  607MOL0     C83691   2.034   8.017   7.232 -0.4469  0.8129 -1.0290
  607MOL0     C83692   1.971   8.083   7.338  1.4497 -0.6338 -0.9246
  607MOL0     C83693   1.918   8.134   7.432 -0.3737 -0.3593 -0.0361
  607MOL0     C83694   1.916   7.535   6.808 -0.5136 -1.1836 -0.0957
  607MOL0     C83695   1.968   7.410   6.792 -0.8200  0.1333  0.0915
  607MOL0     C83696   1.933   7.327   6.674  0.4037 -0.2446  0.1494
  607MOL0     H83697   2.162   7.071   7.245  1.8894  2.7562 -2.3757
  607MOL0     H83698   2.191   6.841   7.339  0.8285 -0.8081  0.3651
  607MOL0     H83699   2.111   6.592   7.387  0.6217 -0.6232  1.7496
  607MOL0     H83700   2.272   6.652   7.322 -0.5121  0.4523 -2.5390
  607MOL0     H83701   2.152   6.377   7.301  1.8191 -0.5020 -2.1096
  607MOL0     H83702   2.323   6.423   7.270  1.7545  0.0990  0.9928
  607MOL0     H83703   2.298   6.535   7.528 -0.7372  2.8245 -3.4381
  607MOL0     H83704   2.176   6.411   7.536 -0.3350 -1.8069 -1.0274
  607MOL0     H83705   2.377   6.304   7.600 -0.2162 -1.1227 -0.6808
  607MOL0     H83706   2.359   6.257   7.430  0.9142 -0.0570 -0.6217
  607MOL0     H83707   2.511   6.512   7.425  0.1819  0.9941  0.4191
  607MOL0     H83708   2.568   6.349   7.391 -2.4057 -2.3468  0.7837
  607MOL0     H83709   2.548   6.414   7.682 -0.5558 -3.7752  0.1658
  607MOL0     H83710   2.646   6.300   7.615  4.6769  2.0732 -0.1311
  607MOL0     H83711   2.776   6.481   7.477 -1.5165  1.6074 -1.9087
  607MOL0     H83712   2.805   6.478   7.653  0.1165 -0.5542  0.4051
  607MOL0     H83713   2.784   6.695   7.575  0.8147 -2.8392 -0.9261
  607MOL0     H83714   2.642   6.660   7.469 -1.9129 -4.2681  0.0345
  607MOL0     H83715   2.718   6.636   7.849 -0.9880 -0.2924 -0.5180
  607MOL0     H83716   2.479   6.645   8.051  2.5316  1.1103  1.7267
  607MOL0     H83717   2.408   6.801   8.027  2.4511  4.2623  1.3310
  607MOL0     H83718   2.579   6.820   8.193 -1.8478 -1.8474 -0.4863
  607MOL0     H83719   2.706   6.756   8.086  0.9283  0.9903 -3.4794
  607MOL0     H83720   2.644   6.953   7.927  0.9813 -2.0192  0.4712
  607MOL0     H83721   2.583   7.039   8.076 -0.7395 -0.9964 -0.5200
  607MOL0     H83722   2.784   6.991   8.174 -5.4397 -0.0543  0.2177
  607MOL0     H83723   2.846   6.895   8.044  0.4690  0.7348  0.3845
  607MOL0     H83724   2.901   6.890   7.836  1.5758 -0.7238 -0.9840
  607MOL0     H83725   3.105   6.866   7.573  1.7670 -1.0437  4.5308
  607MOL0     H83726   2.942   6.838   7.507 -4.7146 -0.6874  3.5083
  607MOL0     H83727   2.976   6.785   7.666 -2.5380  2.1127  1.7957
  607MOL0     H83728   3.075   7.483   7.258 -1.0247  1.4409 -2.0717
  607MOL0     H83729   3.121   7.496   7.044 -0.9708  1.4476  1.5240
  607MOL0     H83730   3.144   7.403   6.683 -0.3388 -0.3160 -0.7195
  607MOL0     H83731   3.184   7.483   6.841 -2.0205 -0.0658 -0.2877
  607MOL0     H83732   3.373   7.385   6.716 -1.6104 -0.0340 -0.0472
  607MOL0     H83733   3.367   7.326   6.883 -0.6485 -0.6175  0.5152
  607MOL0     H83734   3.291   7.105   6.804 -2.6254 -1.7349 -2.2844
  607MOL0     H83735   3.443   7.154   6.720 -0.0187  3.4643 -0.5611
  607MOL0     H83736   3.156   7.166   6.598  0.0497  0.5940 -3.8721
  607MOL0     H83737   3.272   7.027   6.583  3.7682 -0.1919  1.3905
  607MOL0     H83738   3.370   7.300   6.502  2.2870 -1.2114 -4.4107
  607MOL0     H83739   3.422   7.143   6.450  0.5102 -0.7306  1.3608
  607MOL0     H83740   3.295   7.241   6.269 -0.0476  1.9984  0.5274
  607MOL0     H83741   3.176   7.286   6.373  0.2042  0.8187  0.2019
  607MOL0     H83742   3.108   7.043   6.408  1.8850  1.3975  1.5647
  607MOL0     H83743   3.219   6.984   6.290 -1.7194 -2.3926  2.8500
  607MOL0     H83744   2.994   7.188   6.197 -0.4743  0.6861  0.2555
  607MOL0     H83745   2.984   7.013   6.195 -1.0197 -0.1686  2.5275
  607MOL0     H83746   3.005   7.090   6.974  1.7593  0.9428 -2.0355
  607MOL0     H83747   2.957   7.073   7.222  1.6128 -0.6659 -0.9776
  607MOL0     H83748   2.926   7.329   7.633  0.1244  0.0692  1.6457
  607MOL0     H83749   2.844   7.307   7.845  0.3707 -1.2900  3.5477
  607MOL0     H83750   2.089   6.688   6.954 -0.9210  0.2105 -0.6752
  607MOL0     H83751   2.050   6.939   6.868  1.6567 -1.1536 -0.8333
  607MOL0     H83752   2.119   7.374   7.091  0.2299  1.8573  2.6145
  607MOL0     H83753   2.021   7.610   7.123  0.5027  3.7082 -1.2241
  607MOL0     H83754   2.038   7.792   6.821  0.7829  1.6585  0.1928
  607MOL0     H83755   1.908   7.909   6.839  0.2452  1.6058  2.7417
  607MOL0     H83756   2.095   7.964   6.986  1.6598  1.6686  4.5152
  607MOL0     H83757   2.100   7.799   7.067 -0.7293 -0.2929 -0.6589
  607MOL0     H83758   1.878   8.028   7.087 -0.6269 -1.3754 -1.5600
  607MOL0     H83759   1.878   7.875   7.170  0.7077 -2.9080 -3.2491
  607MOL0     H83760   2.109   8.081   7.185 -1.7932  0.6098 -3.6438
  607MOL0     H83761   2.093   7.939   7.280 -2.3918 -1.7052 -2.4280
  607MOL0     H83762   1.870   8.188   7.511 -1.5506  0.4033 -1.2339
  607MOL0     H83763   1.854   7.591   6.738 -2.3157 -0.8876  1.6273
  607MOL0     H83764   2.010   7.315   6.597 -0.7301 -0.9187 -0.9132
  607MOL0     H83765   1.910   7.222   6.694 -1.4378  0.0668 -0.1841
  607MOL0     H83766   1.854   7.377   6.617 -1.5734 -2.9754  0.2520
  608MOL0     O83767   0.097   0.087   1.962 -0.3888 -0.1284  0.2098
  608MOL0     C83768   0.027   0.178   1.901  0.2032  0.6075 -0.2451
  608MOL0     O83769  -0.054   0.160   1.794 -0.3587 -0.5052 -0.0040
  608MOL0     C83770  -0.074   0.041   1.743  0.3140  0.1545  0.7820
  608MOL0     C83771  -0.134  -0.058   1.814 -0.1866 -0.3268 -0.3436
  608MOL0     C83772  -0.184  -0.176   1.753  1.0400  0.0082 -1.3208
  608MOL0     C83773  -0.172  -0.190   1.614 -0.0838  0.5472 -0.5013
  608MOL0     O83774  -0.212  -0.306   1.535 -0.5725 -0.3174 -0.4867
  608MOL0     C83775  -0.308  -0.399   1.587  1.2068  0.1851  0.2922
  608MOL0     C83776  -0.359  -0.482   1.475 -0.8837  0.1885  0.1312
  608MOL0     C83777  -0.398  -0.404   1.347  0.2075  0.5882 -0.0041
  608MOL0     C83778  -0.510  -0.474   1.280 -1.1613  0.3378 -0.8470
  608MOL0     C83779  -0.466  -0.582   1.188 -0.1047  1.0282  0.0571
  608MOL0     C83780  -0.574  -0.684   1.159 -0.4920 -0.2974  0.1023
  608MOL0     C83781  -0.503  -0.817   1.087 -0.2414 -0.3965 -1.5832
  608MOL0     C83782  -0.605  -0.910   1.028  0.3664 -0.1450 -0.6756
  608MOL0     N83783  -0.681  -0.859   0.920 -0.3659  0.3947  0.8179
  608MOL0     C83784  -0.658  -0.888   0.783 -0.3521 -0.6768 -0.8311
  608MOL0     C83785  -0.746  -0.808   0.706 -0.7348  1.2525 -0.3075
  608MOL0     C83786  -0.752  -0.828   0.558 -0.3585 -0.3764  0.1406
  608MOL0     C83787  -0.896  -0.867   0.502 -0.1057  0.7066  0.1549
  608MOL0     C83788  -0.883  -0.895   0.355 -0.0770  0.0710 -0.1545
  608MOL0     C83789  -1.018  -0.936   0.302  1.0333  0.1743  0.7843
  608MOL0     O83790  -1.008  -0.938   0.163 -0.0778  0.0146  1.0382
  608MOL0     C83791  -1.120  -0.927   0.077 -1.1102 -0.2627 -0.0612
  608MOL0     C83792  -1.089  -0.926  -0.061  0.1733 -0.9205 -0.5245
  608MOL0     C83793  -1.189  -0.913  -0.157  0.0370  0.3676 -0.3403
  608MOL0     C83794  -1.146  -0.880  -0.297 -0.2234  0.7024  0.2298
  608MOL0     C83795  -1.323  -0.913  -0.114 -0.5492  0.4787  0.4926
  608MOL0     C83796  -1.437  -0.903  -0.208  0.0832 -0.4612 -0.1601
  608MOL0     O83797  -1.430  -0.972  -0.326  0.0095  0.6010  0.1261
  608MOL0     C83798  -1.555  -0.990  -0.384  0.2462 -0.2589 -0.9505
  608MOL0     C83799  -1.620  -0.885  -0.449  0.1289  0.1569  0.4332
  608MOL0     C83800  -1.749  -0.900  -0.513  0.1649  0.2842 -0.7073
  608MOL0     C83801  -1.801  -1.025  -0.503 -0.0234  0.0544 -0.6038
  608MOL0     O83802  -1.934  -1.027  -0.548  0.4051  0.4216 -0.9160
  608MOL0     C83803  -2.021  -0.977  -0.447 -0.5563 -0.4603 -0.2132
  608MOL0     C83804  -2.159  -0.981  -0.513  0.1625 -1.1301  0.2557
  608MOL0     C83805  -2.215  -1.128  -0.502 -0.0481 -0.1032 -0.2354
  608MOL0     C83806  -2.291  -1.175  -0.620 -0.3519 -0.4088 -0.0625
  608MOL0     C83807  -2.366  -1.305  -0.588  0.1804  0.3913  1.1423
  608MOL0     C83808  -2.458  -1.366  -0.699  0.4071 -0.7076 -0.7287
  608MOL0     C83809  -2.390  -1.369  -0.827 -0.4379 -0.2804 -0.3198
  608MOL0     C83810  -2.458  -1.451  -0.939  0.1873 -0.5867  0.0091
  608MOL0    Cl83811  -2.549  -1.607  -0.880 -0.2922  0.4053  0.0755
  608MOL0     C83812  -1.746  -1.133  -0.425  0.3500 -1.0248  0.4935
  608MOL0     C83813  -1.609  -1.112  -0.383  0.0327  0.2484  0.2441
  608MOL0     O83814  -1.540  -0.833  -0.168  0.0839 -0.0097  0.2825
  608MOL0     C83815  -1.353  -0.932   0.020  0.7960 -0.5240 -0.4693
  608MOL0     C83816  -1.257  -0.935   0.117  0.5338 -0.1826  0.8111
  608MOL0     N83817  -0.810  -0.734   0.799 -0.5591 -0.7719 -0.1503
  608MOL0     N83818  -0.774  -0.757   0.919 -0.6880 -0.1667  0.6067
  608MOL0     C83819  -0.104  -0.096   1.545  0.4472  0.3759 -0.0899
  608MOL0     C83820  -0.050   0.019   1.608  0.0384  0.5383 -0.3498
  608MOL0     C83821   0.039   0.312   1.960  0.8792  0.4002 -0.3961
  608MOL0     C83822   0.110   0.332   2.074  0.3936  0.0020  0.7642
  608MOL0     C83823   0.119   0.453   2.146  0.0390 -0.7374  0.2155
  608MOL0     C83824   0.045   0.565   2.108  0.4248 -0.1603  0.2873
  608MOL0     O83825   0.037   0.682   2.180  0.5436  0.6329  0.0583
  608MOL0     C83826   0.063   0.673   2.321  0.5713  0.3495 -0.4206
  608MOL0     C83827   0.047   0.810   2.394  0.2246 -0.1484  0.6385
  608MOL0     C83828   0.101   0.927   2.315  0.6322  0.3245 -0.1599
  608MOL0     C83829   0.241   0.897   2.258  0.4197  0.1078  0.4445
  608MOL0     C83830   0.344   0.892   2.352 -0.4058  0.0380  0.3872
  608MOL0     C83831   0.450   0.880   2.413  0.8215 -0.3197  0.0003
  608MOL0     C83832  -0.017   0.552   1.978  0.3199 -0.3151 -0.4469
  608MOL0     C83833  -0.031   0.430   1.915  0.3122 -0.7956  0.1083
  608MOL0     C83834  -0.117   0.430   1.787  0.9538 -0.0244 -0.0395
  608MOL0     H83835  -0.152  -0.037   1.918 -3.9186  0.8853 -1.0981
  608MOL0     H83836  -0.224  -0.255   1.816 -0.6049  0.7303 -1.4159
  608MOL0     H83837  -0.390  -0.348   1.637  1.9908  0.0547  1.7875
  608MOL0     H83838  -0.255  -0.474   1.648  0.8433  1.1905  1.9052
  608MOL0     H83839  -0.278  -0.550   1.446 -0.6712 -0.2126  1.5783
  608MOL0     H83840  -0.443  -0.547   1.502  0.2465 -0.7426  1.5760
  608MOL0     H83841  -0.429  -0.303   1.375 -1.1357 -0.0486  0.9658
  608MOL0     H83842  -0.309  -0.393   1.286 -1.4013 -1.3653 -2.9350
  608MOL0     H83843  -0.585  -0.518   1.347  0.8041 -1.5746  0.2462
  608MOL0     H83844  -0.569  -0.405   1.219 -0.5164 -0.1883 -2.1058
  608MOL0     H83845  -0.391  -0.647   1.233 -0.3707 -2.1842 -3.6182
  608MOL0     H83846  -0.424  -0.532   1.101 -1.3173  1.1976 -0.4472
  608MOL0     H83847  -0.621  -0.734   1.244 -1.3851 -0.5923 -0.5356
  608MOL0     H83848  -0.649  -0.635   1.096 -0.0086  1.5212  0.8865
  608MOL0     H83849  -0.452  -0.861   1.174 -1.8190  0.8106  0.0288
  608MOL0     H83850  -0.434  -0.785   1.008  0.3255 -0.0425 -0.9594
  608MOL0     H83851  -0.558  -1.004   0.996 -0.5011 -1.1336  0.8232
  608MOL0     H83852  -0.678  -0.936   1.106 -1.0677  1.1864 -1.5143
  608MOL0     H83853  -0.575  -0.953   0.755 -0.0669  0.0869 -1.7883
  608MOL0     H83854  -0.671  -0.896   0.528 -0.1620 -0.8824  1.7598
  608MOL0     H83855  -0.717  -0.735   0.511  0.3425 -1.2740 -1.1997
  608MOL0     H83856  -0.939  -0.959   0.541 -3.8209  0.5254 -3.6097
  608MOL0     H83857  -0.975  -0.797   0.532 -0.6562 -0.6024  1.8722
  608MOL0     H83858  -0.858  -0.804   0.300 -0.4894 -0.1299 -0.6799
  608MOL0     H83859  -0.808  -0.971   0.330  0.3497  0.7536 -1.0341
  608MOL0     H83860  -1.032  -1.042   0.328  0.6963 -1.1422 -3.8292
  608MOL0     H83861  -1.094  -0.866   0.336 -0.8172 -0.6692 -1.3207
  608MOL0     H83862  -0.989  -0.908  -0.099 -0.5633  4.2046 -0.8313
  608MOL0     H83863  -1.197  -0.789  -0.330  0.1233  0.3241 -1.4684
  608MOL0     H83864  -1.178  -0.957  -0.368  1.4650  1.0181 -0.9273
  608MOL0     H83865  -1.038  -0.869  -0.306  0.2275 -0.6439  2.9885
  608MOL0     H83866  -1.552  -0.801  -0.449  0.7202 -0.3065  1.0271
  608MOL0     H83867  -1.796  -0.810  -0.552  0.1154 -0.0976 -1.5508
  608MOL0     H83868  -2.024  -1.048  -0.364 -1.4294 -0.3483 -0.1399
  608MOL0     H83869  -1.998  -0.875  -0.414  2.3347 -0.5291 -1.7494
  608MOL0     H83870  -2.227  -0.916  -0.457 -0.3636  0.4948 -2.1272
  608MOL0     H83871  -2.157  -0.951  -0.618 -0.1029  0.5135  0.6934
  608MOL0     H83872  -2.282  -1.128  -0.416 -2.8093  1.0951 -2.2375
  608MOL0     H83873  -2.129  -1.195  -0.495 -0.3958 -0.4494  0.7952
  608MOL0     H83874  -2.219  -1.178  -0.703  1.9400 -1.4447  1.8593
  608MOL0     H83875  -2.366  -1.097  -0.636  2.0532  2.4145  1.3983
  608MOL0     H83876  -2.299  -1.390  -0.574 -1.2101 -0.6286  1.9236
  608MOL0     H83877  -2.424  -1.292  -0.496 -2.1597  0.7680 -0.2855
  608MOL0     H83878  -2.550  -1.308  -0.709  0.6068  0.1548  1.6258
  608MOL0     H83879  -2.485  -1.468  -0.671 -0.9172  0.3343  2.2058
  608MOL0     H83880  -2.299  -1.427  -0.811 -1.8244 -2.3116  0.7156
  608MOL0     H83881  -2.374  -1.267  -0.864 -3.3206  1.2352  2.1262
  608MOL0     H83882  -2.384  -1.481  -1.014 -0.9032  0.3929 -1.5199
  608MOL0     H83883  -2.539  -1.395  -0.986  0.0782 -0.4219  0.3882
  608MOL0     H83884  -1.783  -1.235  -0.428  4.5075 -2.7757  1.8909
  608MOL0     H83885  -1.546  -1.193  -0.347 -0.7122 -1.2479 -1.6450
  608MOL0     H83886  -1.458  -0.947   0.045  0.8750  0.3983  0.5059
  608MOL0     H83887  -1.284  -0.961   0.219 -2.2273 -1.8747 -0.2398
  608MOL0     H83888  -0.114  -0.112   1.438  0.0013  1.6993 -0.2672
  608MOL0     H83889  -0.022   0.096   1.536  0.5624  0.3608 -0.3399
  608MOL0     H83890   0.180   0.256   2.107 -2.3121 -1.4814  3.6241
  608MOL0     H83891   0.184   0.466   2.232 -1.4775  0.3379  1.2432
  608MOL0     H83892  -0.005   0.600   2.366  1.4285  0.6043  1.3400
  608MOL0     H83893   0.167   0.638   2.325  0.6402  0.6485  0.4783
  608MOL0     H83894   0.087   0.805   2.496  0.6785 -4.7423  0.4494
  608MOL0     H83895  -0.058   0.838   2.396  0.8146  2.3198  0.2302
  608MOL0     H83896   0.033   0.935   2.230 -1.1917  1.4347  1.3334
  608MOL0     H83897   0.100   1.014   2.381  1.8105 -0.7534  1.3756
  608MOL0     H83898   0.282   0.977   2.197  1.7925  0.6096  1.9531
  608MOL0     H83899   0.238   0.806   2.198 -0.3915  1.1817 -1.2190
  608MOL0     H83900   0.542   0.871   2.468  1.0448 -0.6654 -0.4288
  608MOL0     H83901  -0.059   0.646   1.944  0.4244  0.9439  2.5226
  608MOL0     H83902  -0.054   0.398   1.704  2.0554 -1.7120  1.3585
  608MOL0     H83903  -0.187   0.346   1.787  1.1038 -0.1502 -0.0283
  608MOL0     H83904  -0.178   0.520   1.774  0.3133 -0.2821  0.9899
  609MOL0     O83905   0.289   1.452   8.208 -0.0275  0.2532 -0.5922
  609MOL0     C83906   0.331   1.379   8.293  1.0382  0.6635  0.2311
  609MOL0     O83907   0.453   1.321   8.293  0.9023 -0.0816  0.0685
  609MOL0     C83908   0.529   1.361   8.187  0.0842  1.1847  0.1424
  609MOL0     C83909   0.586   1.253   8.111 -0.3651 -0.7413 -0.4557
  609MOL0     C83910   0.692   1.283   8.022  0.8238  0.7147  0.0496
  609MOL0     C83911   0.739   1.414   7.999 -0.7284 -0.2568 -0.6535
  609MOL0     O83912   0.847   1.436   7.903  0.1728  0.0286  0.0318
  609MOL0     C83913   0.865   1.572   7.864 -0.1384  0.6054 -0.2535
  609MOL0     C83914   0.953   1.592   7.746 -0.1558  0.6725 -0.1956
  609MOL0     C83915   1.100   1.552   7.798  0.0212 -0.4870  0.1594
  609MOL0     C83916   1.212   1.591   7.694 -0.8356  0.2394 -0.7071
  609MOL0     C83917   1.351   1.526   7.724  0.2805 -0.5403 -0.6643
  609MOL0     C83918   1.442   1.540   7.600  0.1669  0.4611 -0.6660
  609MOL0     C83919   1.576   1.479   7.612  0.2440  0.2156  0.3190
  609MOL0     C83920   1.585   1.328   7.616 -0.6060  0.8151 -0.3046
  609MOL0     N83921   1.723   1.266   7.639  0.6892 -0.6491  0.8476
  609MOL0     C83922   1.784   1.270   7.759  0.4388  1.0092 -0.4880
  609MOL0     C83923   1.891   1.186   7.741  0.5119  0.5676  0.4706
  609MOL0     C83924   1.991   1.142   7.843 -0.0351 -0.7963 -0.1892
  609MOL0     C83925   2.111   1.233   7.854 -0.1573 -0.6918 -0.0820
  609MOL0     C83926   2.208   1.216   7.984  0.6314 -1.6889  0.5077
  609MOL0     C83927   2.275   1.094   7.955  0.0480 -0.1016  0.0883
  609MOL0     O83928   2.197   0.980   8.005 -0.5763  0.0869  0.3683
  609MOL0     C83929   2.259   0.892   8.095  0.5164 -0.2280  0.3304
  609MOL0     C83930   2.377   0.904   8.167 -0.4264 -0.7855 -0.1677
  609MOL0     C83931   2.423   0.803   8.259 -0.2107 -0.6538  0.2465
  609MOL0     C83932   2.551   0.837   8.329 -0.0332  0.2913  0.2025
  609MOL0     C83933   2.347   0.682   8.277 -0.0497 -0.7068  0.7561
  609MOL0     C83934   2.385   0.574   8.360 -0.2763 -0.2786  1.0268
  609MOL0     O83935   2.282   0.504   8.421 -0.2634  0.2036  0.9230
  609MOL0     C83936   2.324   0.406   8.498  0.4616  0.1388 -1.0896
  609MOL0     C83937   2.408   0.301   8.443  0.5845 -0.4960 -0.6033
  609MOL0     C83938   2.455   0.211   8.537  0.3877 -0.0004 -0.3680
  609MOL0     C83939   2.415   0.212   8.671 -0.1955 -0.2416  0.5125
  609MOL0     O83940   2.454   0.104   8.745 -0.3903  0.3041  0.5778
  609MOL0     C83941   2.590   0.112   8.777  0.2005 -0.6268  0.5768
  609MOL0     C83942   2.601   0.062   8.915 -0.1253 -0.1469 -0.5003
  609MOL0     C83943   2.538  -0.073   8.934  0.7680  0.8675  0.2155
  609MOL0     C83944   2.551  -0.122   9.075  0.5121  0.4160 -0.6575
  609MOL0     C83945   2.524  -0.265   9.109  0.4687  0.0351  0.3230
  609MOL0     C83946   2.647  -0.348   9.070  0.5350 -0.2315 -0.5773
  609MOL0     C83947   2.776  -0.289   9.128  0.5672 -0.0487  0.7254
  609MOL0     C83948   2.894  -0.379   9.120  0.2333  0.1060  0.2607
  609MOL0    Cl83949   2.880  -0.523   9.216  0.0506 -0.1470 -0.1238
  609MOL0     C83950   2.327   0.302   8.719  0.1470  0.7374 -0.6504
  609MOL0     C83951   2.282   0.400   8.636  0.2065  0.0054  0.5667
  609MOL0     O83952   2.505   0.556   8.373 -0.3823 -0.4356 -0.1421
  609MOL0     C83953   2.221   0.686   8.217 -0.4232 -0.3149  0.3309
  609MOL0     C83954   2.184   0.789   8.132  0.2046 -1.1805  0.0341
  609MOL0     N83955   1.908   1.148   7.608 -0.1052 -0.1790 -0.4142
  609MOL0     N83956   1.800   1.196   7.545 -1.3293 -0.8709 -0.0227
  609MOL0     C83957   0.683   1.519   8.078 -0.5874  0.4592  0.0082
  609MOL0     C83958   0.577   1.496   8.173 -0.2025 -0.1277  0.5126
  609MOL0     C83959   0.244   1.350   8.405 -0.0826 -0.0617 -0.4225
  609MOL0     C83960   0.281   1.261   8.497 -0.8134 -0.5449  0.2739
  609MOL0     C83961   0.210   1.240   8.617  0.5467 -0.0480  1.1869
  609MOL0     C83962   0.094   1.305   8.646  0.2102  0.0532 -0.4580
  609MOL0     O83963   0.037   1.299   8.774  0.8204  0.6072  0.6517
  609MOL0     C83964  -0.102   1.345   8.783  0.0463 -0.4112  0.3087
  609MOL0     C83965  -0.164   1.313   8.930 -0.9067 -0.4096  0.3236
  609MOL0     C83966  -0.093   1.201   9.004  1.2342  0.6184  0.1558
  609MOL0     C83967  -0.175   1.163   9.128 -0.3460 -0.1874 -0.2924
  609MOL0     C83968  -0.297   1.092   9.094 -0.6712  0.2940 -0.5921
  609MOL0     C83969  -0.397   1.024   9.073  0.4766  0.9549 -0.5759
  609MOL0     C83970   0.049   1.388   8.546 -0.3506 -0.0626  0.3258
  609MOL0     C83971   0.112   1.404   8.419 -0.4616 -0.1661  0.7966
  609MOL0     C83972   0.038   1.484   8.319 -0.7563  0.0092 -0.2817
  609MOL0     H83973   0.550   1.153   8.129 -2.0989  0.5482  5.6128
  609MOL0     H83974   0.750   1.203   7.976  0.2168  0.2249  0.1257
  609MOL0     H83975   0.894   1.634   7.950 -2.7194  1.2279  0.2333
  609MOL0     H83976   0.769   1.607   7.827  0.8653  1.0600 -2.6320
  609MOL0     H83977   0.913   1.529   7.667  0.0739 -0.8099  0.8287
  609MOL0     H83978   0.953   1.700   7.728 -0.6362  1.1744  2.4058
  609MOL0     H83979   1.129   1.603   7.890 -2.5030 -0.8182  1.2158
  609MOL0     H83980   1.089   1.447   7.828 -0.3204 -1.0598 -1.8427
  609MOL0     H83981   1.189   1.539   7.600  2.6790  2.0718 -2.7495
  609MOL0     H83982   1.221   1.696   7.666  0.8473 -0.6278 -3.9542
  609MOL0     H83983   1.331   1.421   7.749 -3.6222  0.1322 -0.3478
  609MOL0     H83984   1.410   1.563   7.808 -0.3105 -2.6601  0.7627
  609MOL0     H83985   1.388   1.491   7.519  1.4398 -0.6045 -0.9097
  609MOL0     H83986   1.447   1.644   7.567  2.2511 -0.2089 -2.7563
  609MOL0     H83987   1.628   1.516   7.701  1.1336  1.6893 -0.7768
  609MOL0     H83988   1.633   1.497   7.521 -1.2946 -1.2587 -0.9922
  609MOL0     H83989   1.520   1.292   7.697  2.2655 -0.2769  1.6936
  609MOL0     H83990   1.541   1.293   7.522 -1.3286  0.3404  0.1981
  609MOL0     H83991   1.746   1.317   7.849  0.6213 -0.2356  0.2596
  609MOL0     H83992   2.022   1.038   7.826  2.5800  0.1013 -1.4853
  609MOL0     H83993   1.935   1.156   7.936  3.1615  0.5837  1.6894
  609MOL0     H83994   2.172   1.226   7.763 -0.3945  3.2880 -0.7689
  609MOL0     H83995   2.074   1.335   7.869 -2.4051 -1.8062  2.8470
  609MOL0     H83996   2.286   1.293   7.979 -0.1740 -0.9064 -0.3000
  609MOL0     H83997   2.159   1.210   8.081 -2.0898 -1.3278 -0.7611
  609MOL0     H83998   2.307   1.086   7.851 -1.2978 -0.9245 -0.2951
  609MOL0     H83999   2.372   1.114   8.000 -0.4212  0.9679  0.6563
  609MOL0     H84000   2.432   0.997   8.158 -2.1952  0.5624  1.8733
  609MOL0     H84001   2.573   0.944   8.316 -1.1106  0.7469  1.7843
  609MOL0     H84002   2.629   0.779   8.279 -0.8882  1.9223 -3.3184
  609MOL0     H84003   2.534   0.797   8.430 -0.9560 -0.7368 -0.3461
  609MOL0     H84004   2.433   0.288   8.338  1.6126 -0.7222 -0.3466
  609MOL0     H84005   2.539   0.146   8.517  0.6236 -0.8555  2.8492
  609MOL0     H84006   2.650   0.044   8.715  0.8465 -1.3062  1.9044
  609MOL0     H84007   2.632   0.213   8.786  1.8501 -1.3298  1.1512
  609MOL0     H84008   2.709   0.050   8.933 -0.0618  0.6751 -0.2866
  609MOL0     H84009   2.565   0.127   8.996  2.1793  1.8148 -0.9473
  609MOL0     H84010   2.595  -0.142   8.870 -0.7625 -0.1260 -0.1092
  609MOL0     H84011   2.436  -0.092   8.899  1.2704 -1.3023 -0.2523
  609MOL0     H84012   2.477  -0.065   9.132 -0.0104 -1.0554  0.2056
  609MOL0     H84013   2.638  -0.077   9.123 -0.9095  1.7473  0.8174
  609MOL0     H84014   2.510  -0.269   9.217 -4.4883 -1.2135 -0.0881
  609MOL0     H84015   2.428  -0.293   9.063  0.5745  1.7330 -1.0317
  609MOL0     H84016   2.670  -0.350   8.963  1.4048  2.0452 -0.5014
  609MOL0     H84017   2.625  -0.446   9.113 -1.4833 -0.3955 -1.8765
  609MOL0     H84018   2.763  -0.263   9.233 -2.5627 -0.4841  0.5561
  609MOL0     H84019   2.798  -0.206   9.059  0.1536 -0.0990  0.5308
  609MOL0     H84020   2.985  -0.336   9.162 -0.0497  0.1220  0.8650
  609MOL0     H84021   2.904  -0.397   9.012 -4.3885 -1.1133 -0.1750
  609MOL0     H84022   2.290   0.290   8.820 -0.2803  0.7386 -0.8085
  609MOL0     H84023   2.216   0.474   8.680  3.1664  1.5610  2.7985
  609MOL0     H84024   2.156   0.603   8.242 -2.6359  2.5627  5.9149
  609MOL0     H84025   2.083   0.781   8.092  0.1404  0.7172 -0.2698
  609MOL0     H84026   0.722   1.620   8.071 -1.4674  1.0367  2.4552
  609MOL0     H84027   0.531   1.574   8.233 -2.6621  0.1261 -1.5175
  609MOL0     H84028   0.362   1.189   8.489  0.0444  0.5611 -1.5595
  609MOL0     H84029   0.236   1.163   8.688 -2.3675 -1.7178  0.6156
  609MOL0     H84030  -0.126   1.449   8.761  1.5139  0.0609  0.8359
  609MOL0     H84031  -0.158   1.302   8.699  2.3643  0.0599 -1.5993
  609MOL0     H84032  -0.273   1.312   8.928 -0.9360 -0.6845  1.5532
  609MOL0     H84033  -0.144   1.404   8.988  0.8180 -0.1716 -0.5768
  609MOL0     H84034  -0.073   1.114   8.940  0.6802 -1.1655  2.2913
  609MOL0     H84035   0.004   1.239   9.036  1.1040 -0.3240  1.7567
  609MOL0     H84036  -0.204   1.246   9.193  1.1821 -2.0335  2.9582
  609MOL0     H84037  -0.122   1.092   9.191  1.1150  2.0943  1.1766
  609MOL0     H84038  -0.468   0.948   9.048  1.7457 -0.8329  0.9755
  609MOL0     H84039  -0.036   1.454   8.560 -0.7981 -0.6176  0.2077
  609MOL0     H84040   0.077   1.586   8.313 -0.9449  0.0198 -1.7852
  609MOL0     H84041   0.039   1.442   8.218  0.4850 -2.4978  0.6885
  609MOL0     H84042  -0.067   1.497   8.348 -1.1120 -1.5712 -0.7745
  610MOL0     O84043  10.263   1.715   8.237  0.2118 -0.7296  0.4205
  610MOL0     C84044  10.232   1.691   8.122 -0.2153 -0.0536  0.5698
  610MOL0     O84045  10.159   1.585   8.081  0.3985 -0.5641 -0.2506
  610MOL0     C84046  10.085   1.532   8.186  0.1282  0.2377  1.3105
  610MOL0     C84047  10.140   1.426   8.256  0.5848  0.0525  0.4748
  610MOL0     C84048  10.069   1.375   8.367  0.3258  0.4706  0.7656
  610MOL0     C84049   9.935   1.427   8.395 -0.8114 -0.5077 -0.6863
  610MOL0     O84050   9.856   1.391   8.498  0.6222 -0.6090  0.2701
  610MOL0     C84051   9.898   1.272   8.569 -0.7340  0.4934 -0.4913
  610MOL0     C84052   9.791   1.248   8.672  0.1731  0.4991 -0.2548
  610MOL0     C84053   9.687   1.143   8.624  0.6412  0.6055 -0.1533
  610MOL0     C84054   9.551   1.162   8.700  0.5505 -0.2705  0.0736
  610MOL0     C84055   9.479   1.029   8.687  0.2390  0.4380  0.4169
  610MOL0     C84056   9.342   1.038   8.745 -0.0653 -0.5722 -0.1563
  610MOL0     C84057   9.261   0.913   8.735  0.8043 -0.1464  0.1355
  610MOL0     C84058   9.119   0.939   8.777 -0.4303 -0.5464  0.3615
  610MOL0     N84059   9.026   0.830   8.761  0.3953 -1.3490  0.4319
  610MOL0     C84060   8.892   0.842   8.737 -0.8614 -1.2258 -0.1961
  610MOL0     C84061   8.851   0.708   8.719 -0.0119  0.2557 -0.3093
  610MOL0     C84062   8.720   0.649   8.700 -0.3605 -0.4113 -0.1766
  610MOL0     C84063   8.728   0.563   8.573 -1.0292  0.5100 -0.5863
  610MOL0     C84064   8.751   0.641   8.439 -0.7801 -0.5496 -0.0954
  610MOL0     C84065   8.904   0.676   8.412 -0.2748 -1.1291 -0.0328
  610MOL0     O84066   8.929   0.704   8.270  0.6363  0.1004 -1.0018
  610MOL0     C84067   9.059   0.741   8.243 -0.6221  0.3137  0.0695
  610MOL0     C84068   9.106   0.736   8.109 -0.8134 -0.1988 -0.5412
  610MOL0     C84069   9.238   0.777   8.078 -0.4597 -0.1770  0.0561
  610MOL0     C84070   9.266   0.782   7.926  0.7862  0.4231  0.1587
  610MOL0     C84071   9.327   0.832   8.176  0.7765  0.3110  0.4383
  610MOL0     C84072   9.463   0.876   8.151 -0.5754 -0.8701  0.4190
  610MOL0     O84073   9.523   0.966   8.240 -0.1132  0.1571 -0.2640
  610MOL0     C84074   9.652   1.004   8.210  0.6577 -0.3866 -0.3460
  610MOL0     C84075   9.750   0.910   8.229 -0.1335  0.2949 -0.1535
  610MOL0     C84076   9.877   0.940   8.185  1.0000 -0.4330  0.0899
  610MOL0     C84077   9.906   1.060   8.118  0.7225  0.9336 -0.1328
  610MOL0     O84078  10.028   1.073   8.061  0.1814 -0.6622  0.0089
  610MOL0     C84079  10.069   1.184   7.989 -0.2776  0.3323  0.2441
  610MOL0     C84080  10.216   1.171   7.974  0.1601  1.1613 -0.0560
  610MOL0     C84081  10.282   1.284   7.921 -0.2584 -0.2332  0.2141
  610MOL0     C84082  10.227   1.329   7.779 -0.1122 -0.0371  0.7035
  610MOL0     C84083  10.302   1.459   7.729 -0.5758 -0.3253  0.7138
  610MOL0     C84084  10.450   1.445   7.687  0.1800  0.3230  0.3031
  610MOL0     C84085  10.475   1.386   7.543 -0.6115 -0.0749 -0.3304
  610MOL0     C84086  10.617   1.405   7.481 -0.2590  0.0555 -0.2351
  610MOL0    Cl84087  10.621   1.448   7.304 -0.2182  0.4107 -0.5337
  610MOL0     C84088   9.805   1.154   8.111  0.2514  0.4290 -0.7027
  610MOL0     C84089   9.675   1.127   8.155  0.9631  0.1706  0.4175
  610MOL0     O84090   9.515   0.825   8.048  0.1279 -0.0067 -0.5613
  610MOL0     C84091   9.278   0.835   8.306  1.0952  0.3799  0.2117
  610MOL0     C84092   9.154   0.786   8.345  0.2577  0.1005 -0.6372
  610MOL0     N84093   8.966   0.627   8.724  0.6976  0.1209 -0.5250
  610MOL0     N84094   9.066   0.700   8.750  0.0860  0.4852  0.4862
  610MOL0     C84095   9.882   1.532   8.315  0.1113 -0.4145 -0.8312
  610MOL0     C84096   9.965   1.585   8.217  0.2091 -0.4873 -0.2734
  610MOL0     C84097  10.282   1.787   8.012 -0.4690  1.2275 -0.3465
  610MOL0     C84098  10.221   1.776   7.887 -0.6787  0.3050  0.2048
  610MOL0     C84099  10.278   1.826   7.775  0.4630 -0.5446  0.6294
  610MOL0     C84100  10.396   1.916   7.783  0.2979  0.1711 -0.4827
  610MOL0     O84101  10.465   1.975   7.680  0.1608  0.2521 -0.5504
  610MOL0     C84102  10.429   1.955   7.542  0.7144 -0.1285 -0.7512
  610MOL0     C84103  10.492   1.828   7.490  0.1098  0.1741  0.1467
  610MOL0     C84104  10.650   1.816   7.469 -0.9186  1.1507 -0.3898
  610MOL0     C84105  10.748   1.891   7.552  0.7672 -0.3381  0.2617
  610MOL0     C84106  10.752   2.036   7.523 -0.5284  1.2466  0.1968
  610MOL0     C84107  10.726   2.155   7.514  0.3962 -0.2012 -0.2394
  610MOL0     C84108  10.446   1.951   7.913  1.0594 -0.6662  0.0908
  610MOL0     C84109  10.390   1.883   8.024 -0.6235 -0.3803  0.7179
  610MOL0     C84110  10.459   1.904   8.157 -0.6951  0.0444 -0.0939
  610MOL0     H84111  10.240   1.389   8.231  0.8997  1.0995  0.1287
  610MOL0     H84112  10.114   1.289   8.416 -2.7599 -0.9282  1.4001
  610MOL0     H84113   9.996   1.279   8.616  0.0295 -2.2704 -1.4608
  610MOL0     H84114   9.911   1.188   8.500 -1.1406 -0.1516  0.1970
  610MOL0     H84115   9.825   1.213   8.770 -0.5008 -0.5363 -0.3704
  610MOL0     H84116   9.736   1.341   8.691 -3.0515 -0.9237 -1.8881
  610MOL0     H84117   9.691   1.137   8.514  0.3762 -0.8006 -0.0986
  610MOL0     H84118   9.736   1.051   8.655  2.7060  0.4808 -3.2535
  610MOL0     H84119   9.564   1.184   8.807  0.7323 -0.0107 -0.0011
  610MOL0     H84120   9.494   1.244   8.655  1.0587  1.5104  2.4548
  610MOL0     H84121   9.535   0.949   8.737 -1.7886  0.1796  2.4360
  610MOL0     H84122   9.475   1.014   8.578 -1.4263  2.2786  0.1879
  610MOL0     H84123   9.335   1.071   8.849 -2.7100 -0.2319 -0.3626
  610MOL0     H84124   9.286   1.116   8.692 -2.6614 -0.1327  2.9601
  610MOL0     H84125   9.308   0.833   8.792 -0.9942  0.2604  2.3055
  610MOL0     H84126   9.270   0.892   8.628 -0.4056  3.1803 -0.7645
  610MOL0     H84127   9.133   0.948   8.886  1.8772  0.1279  0.0734
  610MOL0     H84128   9.074   1.032   8.741 -0.3897 -0.1317  1.3455
  610MOL0     H84129   8.830   0.931   8.731  1.7030  0.8971  2.2374
  610MOL0     H84130   8.651   0.733   8.692 -0.3819 -0.4334 -0.2172
  610MOL0     H84131   8.684   0.596   8.789  1.2729 -0.0120  0.7716
  610MOL0     H84132   8.808   0.488   8.571  0.3002  1.8136 -4.1109
  610MOL0     H84133   8.637   0.502   8.566 -1.8283  1.4102  1.2258
  610MOL0     H84134   8.721   0.574   8.358 -0.7776 -1.5850  0.7217
  610MOL0     H84135   8.685   0.728   8.442 -0.2234 -0.0423  4.1832
  610MOL0     H84136   8.934   0.754   8.483  0.8952 -0.5365 -1.1369
  610MOL0     H84137   8.958   0.587   8.448 -0.5253 -0.9804  0.7337
  610MOL0     H84138   9.039   0.703   8.029  0.3636  0.7208 -1.9522
  610MOL0     H84139   9.343   0.715   7.887  1.3704  1.2892 -0.2018
  610MOL0     H84140   9.297   0.883   7.898 -1.2208  0.9299 -0.3618
  610MOL0     H84141   9.179   0.767   7.862  0.9297 -0.5435  0.1756
  610MOL0     H84142   9.725   0.825   8.290  3.2311 -1.4851 -0.9852
  610MOL0     H84143   9.962   0.878   8.210  0.0782 -2.1283 -0.8345
  610MOL0     H84144  10.024   1.177   7.889  0.0501  1.2579  0.0237
  610MOL0     H84145  10.039   1.275   8.043  1.8879 -0.2886  2.6967
  610MOL0     H84146  10.255   1.139   8.071  0.2817 -0.1237 -0.5135
  610MOL0     H84147  10.224   1.080   7.914 -2.6552  1.0722 -0.4237
  610MOL0     H84148  10.390   1.268   7.916 -0.4177 -1.0216 -2.9499
  610MOL0     H84149  10.253   1.371   7.980 -5.2984 -0.1854 -1.8126
  610MOL0     H84150  10.126   1.369   7.794 -0.9053 -1.2335 -1.0824
  610MOL0     H84151  10.224   1.253   7.700 -1.2124 -0.1692  0.8581
  610MOL0     H84152  10.247   1.499   7.644  1.0800  3.1896  1.1418
  610MOL0     H84153  10.284   1.538   7.802  0.6852  2.5394 -1.8535
  610MOL0     H84154  10.502   1.383   7.761 -0.9763 -1.8170 -0.5891
  610MOL0     H84155  10.488   1.548   7.695  0.6128  0.1639  0.3593
  610MOL0     H84156  10.415   1.463   7.493 -1.3558  1.2160  2.3730
  610MOL0     H84157  10.415   1.295   7.542  1.5313 -1.5732  0.0006
  610MOL0     H84158  10.652   1.301   7.488 -1.3422 -0.4163 -1.2253
  610MOL0     H84159  10.683   1.463   7.545 -1.0732 -0.1365  0.8088
  610MOL0     H84160   9.832   1.242   8.053 -1.5228 -0.3943 -2.9565
  610MOL0     H84161   9.600   1.206   8.146  2.0057  0.9304 -4.4008
  610MOL0     H84162   9.351   0.862   8.382  0.5238 -0.4194  1.0660
  610MOL0     H84163   9.143   0.792   8.453 -0.3989  2.9245 -0.7986
  610MOL0     H84164   9.784   1.578   8.330  0.3243 -0.5898  1.4151
  610MOL0     H84165   9.926   1.658   8.147  2.1390 -1.3372 -2.3415
  610MOL0     H84166  10.147   1.698   7.870 -1.0436  0.4630  1.0487
  610MOL0     H84167  10.244   1.802   7.675 -0.6985  0.1629  0.8388
  610MOL0     H84168  10.320   1.946   7.538  0.5507  1.3435 -0.2260
  610MOL0     H84169  10.457   2.041   7.480  0.0095 -1.4262 -3.0208
  610MOL0     H84170  10.439   1.819   7.395 -2.5727  2.8813  1.1990
  610MOL0     H84171  10.469   1.749   7.562  0.7444  0.6649  0.9046
  610MOL0     H84172  10.663   1.708   7.483  1.5236  1.1640 -2.0736
  610MOL0     H84173  10.675   1.837   7.365  0.4585  0.8014 -0.1440
  610MOL0     H84174  10.843   1.838   7.541  1.6660  1.2042  0.2137
  610MOL0     H84175  10.708   1.881   7.654  2.1728  0.2546  0.9095
  610MOL0     H84176  10.702   2.260   7.513  1.2854  0.0388  1.0631
  610MOL0     H84177  10.538   2.008   7.919 -0.0738  1.4291 -1.1236
  610MOL0     H84178  10.536   1.977   8.131 -4.4989  3.1198 -4.1688
  610MOL0     H84179  10.388   1.930   8.236 -0.7657 -0.1683 -0.0862
  610MOL0     H84180  10.503   1.815   8.203  1.8274  0.2944 -1.8079
  611MOL0     O84181   7.981   0.110   8.455 -0.1806  0.4477 -0.6324
  611MOL0     C84182   7.972   0.022   8.371 -0.0012  0.2982  0.1696
  611MOL0     O84183   7.860  -0.018   8.307  0.3209 -0.0381  0.4716
  611MOL0     C84184   7.734   0.010   8.361 -0.5993  0.1769  0.4513
  611MOL0     C84185   7.707  -0.007   8.496  0.2385 -0.5907 -0.7828
  611MOL0     C84186   7.583   0.016   8.545 -0.0730  0.1926  0.1455
  611MOL0     C84187   7.479   0.055   8.458 -0.1463 -0.1824 -0.6206
  611MOL0     O84188   7.354   0.094   8.490  0.9173  0.0279 -0.4241
  611MOL0     C84189   7.298   0.065   8.616  0.6651 -0.2484  0.1350
  611MOL0     C84190   7.263  -0.085   8.620  0.2121 -0.3756 -0.1827
  611MOL0     C84191   7.152  -0.114   8.521 -0.4213  0.4752  0.0936
  611MOL0     C84192   7.039  -0.198   8.582 -0.5789  0.5847  0.2137
  611MOL0     C84193   6.942  -0.266   8.479 -0.2989 -0.3171 -1.3049
  611MOL0     C84194   6.868  -0.172   8.386 -0.4703  1.0219 -0.9182
  611MOL0     C84195   6.775  -0.252   8.291  0.0132 -0.0190 -0.4562
  611MOL0     C84196   6.681  -0.166   8.206 -0.0768  0.5439 -0.8696
  611MOL0     N84197   6.596  -0.083   8.294  0.5041 -1.0068  0.8704
  611MOL0     C84198   6.616   0.051   8.319 -0.9334  0.6214  0.4797
  611MOL0     C84199   6.505   0.092   8.385 -0.3901 -0.0822 -0.7580
  611MOL0     C84200   6.485   0.233   8.429  0.2714 -0.3884  1.3439
  611MOL0     C84201   6.433   0.330   8.315  0.0218  0.5592 -0.5171
  611MOL0     C84202   6.425   0.482   8.362 -0.1063 -0.0054 -0.0927
  611MOL0     C84203   6.331   0.572   8.281 -0.1545  0.7477 -0.0992
  611MOL0     O84204   6.383   0.568   8.148  0.0585  0.5361 -0.2056
  611MOL0     C84205   6.331   0.662   8.053 -0.0731 -0.2672  0.5226
  611MOL0     C84206   6.224   0.753   8.067  0.0861 -0.4486 -0.8295
  611MOL0     C84207   6.172   0.815   7.957  0.1989 -1.0423 -1.1302
  611MOL0     C84208   6.039   0.884   7.962 -0.1589  0.2961  0.1657
  611MOL0     C84209   6.238   0.803   7.832  0.5210 -0.4086 -0.1263
  611MOL0     C84210   6.185   0.862   7.703  0.7030 -0.0143  0.2389
  611MOL0     O84211   6.236   0.973   7.672  0.1455 -0.9046  0.2455
  611MOL0     C84212   6.200   1.023   7.540  0.5340 -0.0725 -0.4847
  611MOL0     C84213   6.123   1.143   7.527 -0.2051 -0.1521 -0.3398
  611MOL0     C84214   6.079   1.197   7.401 -0.4235 -0.2228 -1.6943
  611MOL0     C84215   6.123   1.139   7.288 -0.5022 -0.1513  1.8563
  611MOL0     O84216   6.085   1.182   7.154  0.1180 -0.1919 -0.4765
  611MOL0     C84217   5.984   1.286   7.141  0.4781  0.0436  0.5345
  611MOL0     C84218   5.943   1.317   6.993  0.3587 -0.5081 -0.0225
  611MOL0     C84219   5.887   1.190   6.925  0.7266  0.3875 -0.3274
  611MOL0     C84220   5.733   1.163   6.936  0.7826  0.9944 -0.0316
  611MOL0     C84221   5.699   1.047   7.032  0.1960 -0.6718  1.0197
  611MOL0     C84222   5.552   1.054   7.071 -0.5474  1.4725  0.0961
  611MOL0     C84223   5.522   0.934   7.162  0.5926 -0.5054 -0.0946
  611MOL0     C84224   5.432   0.826   7.096  0.1065  0.9780 -0.2858
  611MOL0    Cl84225   5.303   0.781   7.213 -0.4881  0.4237  0.0550
  611MOL0     C84226   6.217   1.034   7.305  0.1973 -0.5035 -0.9604
  611MOL0     C84227   6.246   0.968   7.428 -0.0569  0.8680 -0.0926
  611MOL0     O84228   6.099   0.805   7.643 -0.1141  1.2007  0.1547
  611MOL0     C84229   6.352   0.729   7.821 -0.7059 -0.7096  0.2099
  611MOL0     C84230   6.403   0.658   7.928  0.6819 -0.2629 -0.6651
  611MOL0     N84231   6.413  -0.006   8.379 -0.4735  0.3045  0.0462
  611MOL0     N84232   6.468  -0.110   8.328  0.5580  0.0834  0.4050
  611MOL0     C84233   7.512   0.077   8.330  0.4006 -0.6742 -0.6157
  611MOL0     C84234   7.633   0.050   8.279 -0.7513 -0.1130 -0.6431
  611MOL0     C84235   8.101  -0.050   8.320  1.1734  0.1097 -0.8833
  611MOL0     C84236   8.111  -0.078   8.180 -0.5975 -0.9406  0.3386
  611MOL0     C84237   8.226  -0.144   8.132  0.2965  1.1347 -0.5579
  611MOL0     C84238   8.334  -0.160   8.222 -0.8681 -0.3949  0.5212
  611MOL0     O84239   8.447  -0.225   8.165 -0.1197  0.1212 -0.3777
  611MOL0     C84240   8.579  -0.193   8.207  0.1579 -0.1167  0.0803
  611MOL0     C84241   8.674  -0.242   8.082  0.8632 -1.1547  0.0933
  611MOL0     C84242   8.632  -0.187   7.943  0.0259  0.5642  0.9526
  611MOL0     C84243   8.760  -0.142   7.865 -1.5442 -0.0657 -0.5753
  611MOL0     C84244   8.727  -0.029   7.783 -1.1168 -0.8385  0.3176
  611MOL0     C84245   8.708   0.077   7.732 -0.8451 -0.3040  0.3080
  611MOL0     C84246   8.334  -0.115   8.358  0.2054  0.3024  1.5296
  611MOL0     C84247   8.214  -0.072   8.410 -0.3119 -0.6234  0.3141
  611MOL0     C84248   8.203  -0.069   8.559  0.1784  0.1034 -0.2319
  611MOL0     H84249   7.784  -0.035   8.568 -0.0532 -0.7983 -0.5480
  611MOL0     H84250   7.566   0.015   8.652 -0.4367  0.6273  0.0953
  611MOL0     H84251   7.218   0.129   8.653 -0.3307  0.4264 -2.9075
  611MOL0     H84252   7.373   0.079   8.694 -0.3949  2.8969  0.6993
  611MOL0     H84253   7.346  -0.157   8.611 -1.0314 -2.0494  1.1372
  611MOL0     H84254   7.227  -0.110   8.720  1.8787 -2.0208  0.0719
  611MOL0     H84255   7.105  -0.017   8.505 -0.8323  0.5015  1.3834
  611MOL0     H84256   7.202  -0.163   8.437 -1.0667 -0.9664  0.5192
  611MOL0     H84257   7.099  -0.268   8.641  0.6924  2.0921  0.7837
  611MOL0     H84258   6.982  -0.143   8.657  2.2805 -0.8156  3.7014
  611MOL0     H84259   6.868  -0.318   8.542  3.0146 -1.3214  2.1394
  611MOL0     H84260   6.995  -0.343   8.422 -0.5274 -0.8975 -0.7454
  611MOL0     H84261   6.811  -0.096   8.440  0.2069  0.1044  1.2000
  611MOL0     H84262   6.948  -0.126   8.329  0.8866 -2.7275 -2.3689
  611MOL0     H84263   6.702  -0.311   8.348  0.4332 -0.0014  0.1036
  611MOL0     H84264   6.831  -0.322   8.229  2.1067  1.6417 -0.5358
  611MOL0     H84265   6.737  -0.101   8.139 -1.4448  2.3761 -0.3094
  611MOL0     H84266   6.619  -0.235   8.147 -0.8054  1.2441 -0.9399
  611MOL0     H84267   6.703   0.112   8.298 -1.6485  0.4517 -3.8754
  611MOL0     H84268   6.576   0.276   8.474 -1.9808  2.8912  3.1949
  611MOL0     H84269   6.410   0.242   8.508 -1.9598 -1.7056 -0.5020
  611MOL0     H84270   6.505   0.328   8.232 -1.2216  1.4653 -1.6614
  611MOL0     H84271   6.333   0.303   8.282 -1.2256  0.9584  2.5993
  611MOL0     H84272   6.369   0.495   8.455 -2.9873 -2.7854 -1.2375
  611MOL0     H84273   6.523   0.529   8.367 -1.0095  1.9716  0.0029
  611MOL0     H84274   6.228   0.536   8.274 -0.0736  0.5942 -0.5011
  611MOL0     H84275   6.332   0.673   8.322  3.1547  0.5343  0.6989
  611MOL0     H84276   6.176   0.763   8.163  0.9500  2.0647 -0.5716
  611MOL0     H84277   5.970   0.841   7.888 -3.2165  3.9024  0.5643
  611MOL0     H84278   6.049   0.985   7.921  0.8999  0.5558  1.0116
  611MOL0     H84279   5.985   0.873   8.056  0.5829 -0.4544  0.5125
  611MOL0     H84280   6.078   1.196   7.611  0.1887 -1.1365  0.5192
  611MOL0     H84281   6.006   1.277   7.391  0.0257  0.3281 -0.7166
  611MOL0     H84282   5.897   1.246   7.195  1.1719 -2.0521  0.2210
  611MOL0     H84283   6.015   1.378   7.190  2.6559  1.0969 -2.4884
  611MOL0     H84284   5.855   1.381   6.998  1.2473  0.7534 -0.0688
  611MOL0     H84285   6.029   1.360   6.942  1.8686 -2.6520  0.5592
  611MOL0     H84286   5.924   1.094   6.965 -2.1153 -0.7093 -0.0949
  611MOL0     H84287   5.917   1.185   6.820  1.3106 -0.0581 -0.1492
  611MOL0     H84288   5.689   1.125   6.844 -1.7783  2.2078  0.6003
  611MOL0     H84289   5.667   1.249   6.952 -1.4066 -0.6779  0.4552
  611MOL0     H84290   5.731   0.952   6.986  0.3749  0.3899 -1.1874
  611MOL0     H84291   5.760   1.045   7.123  2.9041 -2.7895 -0.6504
  611MOL0     H84292   5.494   1.045   6.979  0.2898 -0.7888 -0.2642
  611MOL0     H84293   5.531   1.149   7.122 -1.9516  1.8883 -1.1914
  611MOL0     H84294   5.464   0.972   7.247  1.6499  1.7052 -0.3130
  611MOL0     H84295   5.606   0.878   7.204 -1.2428 -0.9352  3.3760
  611MOL0     H84296   5.496   0.746   7.058  0.3584  1.0014  0.0787
  611MOL0     H84297   5.371   0.856   7.011 -0.0799 -0.5268 -0.7172
  611MOL0     H84298   6.251   0.998   7.208  1.8071 -0.0230 -0.6152
  611MOL0     H84299   6.309   0.880   7.433 -0.2364  0.7995  1.8439
  611MOL0     H84300   6.413   0.711   7.733  2.7501  0.5594  2.1549
  611MOL0     H84301   6.489   0.591   7.930 -0.0832 -1.2538  1.7342
  611MOL0     H84302   7.442   0.113   8.256  0.7224 -0.0383 -0.6177
  611MOL0     H84303   7.665   0.071   8.177  0.6683  0.6185 -0.0675
  611MOL0     H84304   8.021  -0.061   8.121  0.9618  2.3929 -1.4033
  611MOL0     H84305   8.228  -0.185   8.032 -1.2629  1.1620 -0.6319
  611MOL0     H84306   8.583  -0.085   8.219 -0.2232  0.0002 -0.7578
  611MOL0     H84307   8.608  -0.239   8.302  0.7112  2.2315  1.1189
  611MOL0     H84308   8.678  -0.352   8.081 -2.7174 -1.4304 -1.5878
  611MOL0     H84309   8.777  -0.215   8.106  1.0154 -1.3168 -0.3643
  611MOL0     H84310   8.579  -0.266   7.889 -1.2366  0.0935  2.7852
  611MOL0     H84311   8.561  -0.104   7.954  0.9964  1.6195 -0.3751
  611MOL0     H84312   8.798  -0.227   7.807 -0.1184 -1.9390  2.7967
  611MOL0     H84313   8.845  -0.108   7.925 -1.4746 -0.5558 -0.3903
  611MOL0     H84314   8.699   0.178   7.697  0.5292  0.8567  3.0546
  611MOL0     H84315   8.418  -0.122   8.426  0.7060 -1.5235  0.7775
  611MOL0     H84316   8.246   0.025   8.594  0.2191  0.9867 -2.5015
  611MOL0     H84317   8.098  -0.070   8.589  0.2634 -1.5901  0.1668
  611MOL0     H84318   8.252  -0.153   8.610  2.4376  0.5186 -1.5957
  612MOL0     O84319   3.285   1.850   4.166  0.0520 -0.8015 -0.5475
  612MOL0     C84320   3.176   1.852   4.217  0.8024  0.3647 -0.8935
  612MOL0     O84321   3.077   1.944   4.212  0.3794  0.0326  0.4159
  612MOL0     C84322   3.124   2.064   4.156  0.1710 -1.0098 -0.3444
  612MOL0     C84323   3.114   2.090   4.017  1.0268  1.0336  0.7938
  612MOL0     C84324   3.159   2.213   3.956 -0.2622  0.3169 -1.2098
  612MOL0     C84325   3.204   2.317   4.036 -0.3501  0.8545  0.5196
  612MOL0     O84326   3.244   2.444   3.983  0.2692  0.7663  0.4210
  612MOL0     C84327   3.248   2.477   3.846 -0.2120  0.2786  0.6089
  612MOL0     C84328   3.281   2.617   3.824  0.0487 -0.4674  0.1441
  612MOL0     C84329   3.166   2.715   3.862 -0.0556 -0.1496 -0.2365
  612MOL0     C84330   3.189   2.768   4.006 -0.0998 -1.0633 -0.9404
  612MOL0     C84331   3.118   2.905   4.028 -0.8206 -0.2818 -0.1260
  612MOL0     C84332   3.106   2.943   4.178 -0.1255 -0.1597  0.0889
  612MOL0     C84333   3.000   2.854   4.265 -0.3913 -0.6753  0.0048
  612MOL0     C84334   2.956   2.942   4.383  0.2123  0.2530 -0.2561
  612MOL0     N84335   2.853   2.877   4.468  0.0667  0.7913  0.2024
  612MOL0     C84336   2.866   2.750   4.525 -0.2572  0.0680  0.2078
  612MOL0     C84337   2.745   2.719   4.562  0.2610 -0.7969 -0.2645
  612MOL0     C84338   2.706   2.593   4.630 -0.6531 -0.1639  0.0924
  612MOL0     C84339   2.673   2.618   4.778  0.2344  0.1193 -0.2157
  612MOL0     C84340   2.796   2.650   4.872  0.0924  0.2396  0.0267
  612MOL0     C84341   2.892   2.529   4.898 -0.2136 -0.3172 -0.1926
  612MOL0     O84342   2.847   2.450   5.006  0.7104 -0.5309  0.2508
  612MOL0     C84343   2.921   2.337   5.040  0.9249  0.1214 -0.1899
  612MOL0     C84344   3.051   2.352   5.090  0.5797  0.1322 -0.1469
  612MOL0     C84345   3.127   2.239   5.125 -0.8935  0.0084 -0.2291
  612MOL0     C84346   3.262   2.281   5.178  0.5939 -0.0763 -0.2300
  612MOL0     C84347   3.083   2.105   5.109  0.4279 -0.7823 -0.1176
  612MOL0     C84348   3.170   1.981   5.121 -0.5686 -0.6049 -0.0222
  612MOL0     O84349   3.299   2.002   5.176 -0.9102  0.6685  0.4135
  612MOL0     C84350   3.397   1.920   5.137  0.3154  0.4536  0.8128
  612MOL0     C84351   3.479   1.932   5.021  0.1804 -0.4723 -0.0129
  612MOL0     C84352   3.577   1.837   4.988 -0.6323  0.0270  0.0470
  612MOL0     C84353   3.596   1.731   5.072 -0.4150 -0.2190 -0.5126
  612MOL0     O84354   3.692   1.641   5.026 -0.6377  0.2681 -0.2084
  612MOL0     C84355   3.712   1.508   5.098  0.0151 -0.5461 -0.9103
  612MOL0     C84356   3.818   1.428   5.024  0.3177 -0.1547  0.0140
  612MOL0     C84357   3.948   1.485   5.032 -0.5850  0.1904  0.5723
  612MOL0     C84358   4.042   1.377   4.971 -0.6644 -0.4004 -0.1258
  612MOL0     C84359   4.186   1.402   5.029 -1.1439 -0.4824  1.1726
  612MOL0     C84360   4.255   1.538   4.999  0.0985  0.9308 -0.9317
  612MOL0     C84361   4.392   1.535   5.060 -0.2314  0.3875 -0.1803
  612MOL0     C84362   4.380   1.608   5.198  0.4903  0.7463 -0.1599
  612MOL0    Cl84363   4.543   1.588   5.280  0.1315 -0.1348 -0.2143
  612MOL0     C84364   3.504   1.709   5.181 -0.4903  0.6193  0.7311
  612MOL0     C84365   3.408   1.805   5.214  0.3022 -0.3341  0.1422
  612MOL0     O84366   3.141   1.878   5.073 -0.0894 -0.0887 -0.0079
  612MOL0     C84367   2.951   2.088   5.064 -0.7472 -0.2852 -0.4249
  612MOL0     C84368   2.871   2.200   5.033  0.6353 -0.0313 -0.0891
  612MOL0     N84369   2.666   2.819   4.531  0.2065  0.6732  0.4146
  612MOL0     N84370   2.726   2.920   4.470  0.4455  0.2269 -0.2647
  612MOL0     C84371   3.211   2.297   4.166 -1.2005  0.3034 -0.4240
  612MOL0     C84372   3.179   2.173   4.228 -0.7119  0.9527  0.0760
  612MOL0     C84373   3.139   1.730   4.287  0.2146  1.1299 -0.4642
  612MOL0     C84374   3.003   1.695   4.313  0.5600  0.3793  0.3787
  612MOL0     C84375   2.960   1.573   4.371  0.4760  0.8653  0.0839
  612MOL0     C84376   3.050   1.480   4.418 -0.8412  0.6981  0.3190
  612MOL0     O84377   3.001   1.381   4.499  0.3713 -0.1447 -0.5118
  612MOL0     C84378   2.997   1.255   4.431  0.2703 -0.3053  0.4114
  612MOL0     C84379   2.866   1.196   4.472 -0.3158  0.2530 -0.3817
  612MOL0     C84380   2.845   1.092   4.361  0.6119 -0.4780  0.0362
  612MOL0     C84381   2.718   1.012   4.371  0.8004  0.3989 -0.4808
  612MOL0     C84382   2.731   0.920   4.484 -0.6744  0.2621 -0.7487
  612MOL0     C84383   2.755   0.851   4.588 -0.5381  0.1098  0.1819
  612MOL0     C84384   3.178   1.503   4.391 -0.6602 -0.1535 -0.1888
  612MOL0     C84385   3.230   1.620   4.326 -0.6789 -0.0240 -0.0575
  612MOL0     C84386   3.384   1.622   4.308 -0.8991 -0.0609  0.7599
  612MOL0     H84387   3.071   2.015   3.953  1.6428  1.3546 -0.0166
  612MOL0     H84388   3.152   2.223   3.848  2.9505  1.3037 -1.4169
  612MOL0     H84389   3.149   2.451   3.808 -1.0606  0.8296  2.3006
  612MOL0     H84390   3.330   2.416   3.808 -0.3603  0.0439  0.6633
  612MOL0     H84391   3.372   2.648   3.876 -0.1963 -0.9326  0.8611
  612MOL0     H84392   3.294   2.633   3.716  0.9590  0.5207  0.3837
  612MOL0     H84393   3.168   2.798   3.791 -1.0816  1.0314  1.0543
  612MOL0     H84394   3.068   2.666   3.863  0.7268 -1.8726 -2.1196
  612MOL0     H84395   3.136   2.688   4.057  1.1877 -1.8916 -0.8565
  612MOL0     H84396   3.293   2.756   4.037  0.6506  1.0151 -2.4469
  612MOL0     H84397   3.024   2.893   3.975  1.3352 -1.7425 -4.0612
  612MOL0     H84398   3.174   2.982   3.974  1.9601 -2.9352 -1.3543
  612MOL0     H84399   3.206   2.949   4.221  0.9081  0.0555 -2.2147
  612MOL0     H84400   3.074   3.048   4.169 -2.7426 -0.7207  1.6585
  612MOL0     H84401   3.047   2.759   4.289  1.7239  0.4692  0.6828
  612MOL0     H84402   2.912   2.846   4.199 -1.2302 -1.3701  1.1735
  612MOL0     H84403   3.048   2.977   4.433  1.7600 -1.0894 -2.0229
  612MOL0     H84404   2.915   3.038   4.352 -0.1161  0.0184 -0.5493
  612MOL0     H84405   2.952   2.684   4.529  1.0126  1.4696 -1.9133
  612MOL0     H84406   2.805   2.546   4.626 -0.0773  1.0644 -2.2421
  612MOL0     H84407   2.625   2.550   4.571  0.3404  0.6640 -1.9874
  612MOL0     H84408   2.591   2.689   4.780 -0.1413 -0.3190  0.4531
  612MOL0     H84409   2.626   2.523   4.808  2.2698 -0.5431  1.1535
  612MOL0     H84410   2.850   2.731   4.823  1.0181 -2.4164 -3.8353
  612MOL0     H84411   2.758   2.685   4.968 -2.5067  0.3680 -0.9413
  612MOL0     H84412   2.909   2.460   4.815  1.7546 -2.3636  1.7717
  612MOL0     H84413   2.983   2.583   4.925 -1.2685  0.6724  1.5948
  612MOL0     H84414   3.077   2.454   5.117 -0.6814  0.3620  0.2337
  612MOL0     H84415   3.256   2.388   5.204 -0.3232 -0.7907  3.0209
  612MOL0     H84416   3.346   2.273   5.109  1.2234 -3.6412  0.7614
  612MOL0     H84417   3.288   2.238   5.275  3.3666  3.0599  0.6227
  612MOL0     H84418   3.466   2.010   4.947 -0.7827  0.3158  0.9637
  612MOL0     H84419   3.627   1.846   4.892 -1.1248  2.4237 -0.0399
  612MOL0     H84420   3.750   1.505   5.201  3.0267 -1.7498 -1.9454
  612MOL0     H84421   3.616   1.457   5.087  1.7220 -5.0917  1.9830
  612MOL0     H84422   3.816   1.325   5.061  4.3883 -0.0774  0.9601
  612MOL0     H84423   3.780   1.422   4.922  0.2317 -0.4173  0.0606
  612MOL0     H84424   3.970   1.522   5.132 -2.8426  2.0909  0.4348
  612MOL0     H84425   3.963   1.571   4.966  2.8822  0.0500  0.9539
  612MOL0     H84426   4.040   1.387   4.862 -1.3374 -2.4306 -0.3309
  612MOL0     H84427   4.018   1.279   5.011  0.2656 -0.8458 -0.6100
  612MOL0     H84428   4.183   1.398   5.138  0.1685  2.0060  1.3736
  612MOL0     H84429   4.243   1.316   4.993 -2.4734 -0.7249 -0.5316
  612MOL0     H84430   4.189   1.617   5.036 -2.7348 -3.3950  4.9994
  612MOL0     H84431   4.268   1.536   4.890 -0.5316  0.9497 -1.0068
  612MOL0     H84432   4.477   1.580   5.009  0.2814 -2.5679 -2.1807
  612MOL0     H84433   4.416   1.430   5.077 -1.9982 -0.0819 -0.3596
  612MOL0     H84434   4.299   1.558   5.253 -0.3971 -0.1228 -2.1720
  612MOL0     H84435   4.361   1.715   5.192  0.7094  0.6854 -2.7913
  612MOL0     H84436   3.505   1.622   5.245 -0.0112  1.1130  1.4095
  612MOL0     H84437   3.338   1.797   5.296 -0.4461 -1.1300 -0.5513
  612MOL0     H84438   2.916   1.986   5.061  0.2645 -0.7546  1.7478
  612MOL0     H84439   2.765   2.193   5.010  1.1146 -2.4749 -2.0718
  612MOL0     H84440   3.248   2.378   4.227 -1.1761 -0.1700  0.1927
  612MOL0     H84441   3.181   2.163   4.336 -1.1900 -0.6010 -0.0391
  612MOL0     H84442   2.922   1.759   4.278  0.4625 -0.9725 -2.0373
  612MOL0     H84443   2.863   1.547   4.412  0.9576  0.4494  0.9963
  612MOL0     H84444   2.997   1.260   4.322 -1.5937  0.1457  0.3956
  612MOL0     H84445   3.080   1.199   4.475  1.8190  2.2975  1.0177
  612MOL0     H84446   2.785   1.268   4.486 -4.5996 -2.7587 -5.7393
  612MOL0     H84447   2.876   1.136   4.563  0.2248 -1.8697 -1.7883
  612MOL0     H84448   2.822   1.145   4.268 -3.1427 -0.1002  1.0075
  612MOL0     H84449   2.934   1.030   4.348 -1.1234 -2.9658 -0.6658
  612MOL0     H84450   2.701   0.958   4.278 -2.1319  0.4077 -0.0265
  612MOL0     H84451   2.638   1.087   4.376  0.7413  0.3428 -0.5790
  612MOL0     H84452   2.770   0.799   4.680  3.7263  1.6146  0.5197
  612MOL0     H84453   3.255   1.436   4.427  1.8369  0.7228 -3.3944
  612MOL0     H84454   3.434   1.694   4.374  2.1991 -0.4474 -1.0029
  612MOL0     H84455   3.428   1.523   4.321 -0.7884 -0.0819  0.2353
  612MOL0     H84456   3.406   1.650   4.205 -1.6632 -3.6724 -0.5039
  613MOL0     O84457   4.261   0.066   3.467  0.2683  0.5419 -0.4755
  613MOL0     C84458   4.243   0.164   3.539 -0.5591  0.3149 -0.1451
  613MOL0     O84459   4.313   0.172   3.669 -0.0866 -0.3252  0.3357
  613MOL0     C84460   4.414   0.082   3.695 -0.0464 -0.1190  0.7007
  613MOL0     C84461   4.519   0.057   3.599  1.2158 -1.3226 -0.6755
  613MOL0     C84462   4.631  -0.019   3.643 -0.5055  0.0876  0.3529
  613MOL0     C84463   4.644  -0.066   3.776 -0.6352  0.1564  0.6907
  613MOL0     O84464   4.763  -0.118   3.824  0.0055 -0.1617 -0.3865
  613MOL0     C84465   4.832  -0.019   3.905 -0.3617  0.0656 -0.4271
  613MOL0     C84466   4.930  -0.068   4.010  0.1150 -0.4929 -0.1807
  613MOL0     C84467   5.059  -0.152   3.965  0.7677  0.2830  0.6552
  613MOL0     C84468   5.120  -0.221   4.085 -0.1194  1.1788 -0.7044
  613MOL0     C84469   5.238  -0.308   4.057 -0.1043  0.0184  0.4683
  613MOL0     C84470   5.364  -0.243   4.012 -0.2469  0.0891  0.9861
  613MOL0     C84471   5.460  -0.201   4.130  0.2454 -0.4495  0.1859
  613MOL0     C84472   5.577  -0.098   4.079 -0.5570  0.6503  0.5765
  613MOL0     N84473   5.707  -0.110   4.163 -0.3702 -0.1600 -0.0908
  613MOL0     C84474   5.747  -0.016   4.259 -0.7787  0.0760  0.4060
  613MOL0     C84475   5.877  -0.054   4.280  0.6286 -0.5347 -0.4118
  613MOL0     C84476   5.990   0.020   4.351 -0.7508 -0.5092  0.3255
  613MOL0     C84477   5.926   0.119   4.451 -0.1471 -0.2671  0.1279
  613MOL0     C84478   5.890   0.056   4.596  0.0201 -0.3373  0.5851
  613MOL0     C84479   5.800  -0.064   4.607 -0.0746 -0.8275 -0.5916
  613MOL0     O84480   5.665  -0.052   4.552 -0.5522 -0.1147 -0.1196
  613MOL0     C84481   5.584  -0.162   4.543 -0.2202 -0.2982 -0.1689
  613MOL0     C84482   5.463  -0.173   4.615 -0.3221  0.9241  0.0027
  613MOL0     C84483   5.380  -0.282   4.610  0.0006  0.5615  0.8535
  613MOL0     C84484   5.250  -0.273   4.690 -0.0440  0.2968  0.1966
  613MOL0     C84485   5.403  -0.384   4.510  1.7144 -0.0495 -0.6514
  613MOL0     C84486   5.310  -0.488   4.482 -0.3698  0.3044  0.0247
  613MOL0     O84487   5.324  -0.544   4.368  0.6029  0.3382  0.0573
  613MOL0     C84488   5.268  -0.665   4.348  0.7241  0.7507 -0.3385
  613MOL0     C84489   5.317  -0.776   4.409 -0.1449 -0.0321  0.4093
  613MOL0     C84490   5.265  -0.903   4.390 -1.0158  0.1446  0.3530
  613MOL0     C84491   5.168  -0.921   4.293 -1.2194  0.0715 -0.2293
  613MOL0     O84492   5.117  -1.041   4.264  0.2893 -1.0411  0.7535
  613MOL0     C84493   5.173  -1.102   4.149 -0.2726  0.2935 -0.5998
  613MOL0     C84494   5.197  -1.245   4.188  0.7780 -0.9908 -0.0098
  613MOL0     C84495   5.254  -1.329   4.074  0.4267 -0.3066  0.2273
  613MOL0     C84496   5.276  -1.468   4.124 -0.1565 -0.4258  0.4015
  613MOL0     C84497   5.295  -1.575   4.010  0.6138  0.3427  1.0830
  613MOL0     C84498   5.390  -1.685   4.036 -0.1307 -0.4791  0.4376
  613MOL0     C84499   5.534  -1.641   4.006 -0.9823  0.2597  0.3564
  613MOL0     C84500   5.623  -1.635   4.136  0.5929  0.7494  0.0114
  613MOL0    Cl84501   5.672  -1.808   4.181 -0.3231 -0.2119  0.0383
  613MOL0     C84502   5.126  -0.807   4.211 -0.8901 -0.3184  0.0485
  613MOL0     C84503   5.179  -0.681   4.239  0.4563  0.5564 -0.5000
  613MOL0     O84504   5.224  -0.517   4.569  0.0401  0.4324 -0.1333
  613MOL0     C84505   5.530  -0.374   4.454 -0.1089 -0.3070  1.3057
  613MOL0     C84506   5.613  -0.274   4.476  0.3894 -0.1156  0.4005
  613MOL0     N84507   5.904  -0.165   4.202 -0.2345 -0.5039 -0.0183
  613MOL0     N84508   5.800  -0.203   4.138  0.3879  0.0065  0.4144
  613MOL0     C84509   4.532  -0.063   3.855 -0.2623 -0.8729  0.0336
  613MOL0     C84510   4.418   0.022   3.817  0.1071 -0.2569  0.5194
  613MOL0     C84511   4.133   0.262   3.503  1.0162  0.1251 -0.5293
  613MOL0     C84512   4.133   0.386   3.566  0.2162  0.0882  0.8573
  613MOL0     C84513   4.037   0.486   3.540  0.0998  0.5564  0.7372
  613MOL0     C84514   3.916   0.447   3.466 -0.7196  0.1472  0.7922
  613MOL0     O84515   3.821   0.535   3.461  0.5111 -0.5648 -0.3241
  613MOL0     C84516   3.682   0.482   3.440 -0.1646 -0.8768 -0.4533
  613MOL0     C84517   3.590   0.599   3.489  0.2264  0.3264  0.1696
  613MOL0     C84518   3.599   0.722   3.397  0.0953  0.1706  1.0154
  613MOL0     C84519   3.511   0.830   3.431  0.2043 -0.9298  0.3431
  613MOL0     C84520   3.567   0.914   3.529 -0.0016  0.6489 -0.3748
  613MOL0     C84521   3.621   0.970   3.625  0.6204  0.0953 -0.2517
  613MOL0     C84522   3.913   0.314   3.412 -0.2606  0.0160 -0.3726
  613MOL0     C84523   4.022   0.231   3.417  0.1586  0.2537  0.1296
  613MOL0     C84524   4.002   0.102   3.343  0.0989  0.6525 -0.1396
  613MOL0     H84525   4.525   0.072   3.491  0.4331 -0.7489 -0.6446
  613MOL0     H84526   4.715  -0.051   3.582 -0.6360  1.6322 -0.7218
  613MOL0     H84527   4.766   0.052   3.954 -2.8812 -0.1838 -3.1431
  613MOL0     H84528   4.899   0.032   3.835 -0.8654 -1.1528 -1.8519
  613MOL0     H84529   4.961   0.026   4.056 -0.2241 -1.0770  1.3029
  613MOL0     H84530   4.869  -0.118   4.087  2.3434 -0.9928  1.3755
  613MOL0     H84531   5.029  -0.238   3.904  1.9715 -0.1954  0.7129
  613MOL0     H84532   5.135  -0.088   3.919 -1.2483  2.1558 -0.2621
  613MOL0     H84533   5.147  -0.141   4.154 -2.0445  3.2384 -2.1744
  613MOL0     H84534   5.047  -0.288   4.133 -0.1445  2.7863  1.6836
  613MOL0     H84535   5.206  -0.378   3.979 -0.2949  1.9380 -1.2472
  613MOL0     H84536   5.245  -0.371   4.147 -0.8945  1.1679  1.3627
  613MOL0     H84537   5.416  -0.302   3.936  0.2403  0.0281  1.3568
  613MOL0     H84538   5.343  -0.148   3.963 -3.6905  0.1383  2.2306
  613MOL0     H84539   5.519  -0.287   4.166  3.7666  0.9021 -1.7962
  613MOL0     H84540   5.395  -0.155   4.204 -0.8561  2.5388 -2.4226
  613MOL0     H84541   5.593  -0.127   3.975 -0.1376  1.5540  0.3800
  613MOL0     H84542   5.533   0.002   4.081 -0.7458  0.5852  0.0028
  613MOL0     H84543   5.705   0.077   4.296  2.0428  0.1198  4.1074
  613MOL0     H84544   6.057   0.073   4.282  0.6703  1.1657  2.8247
  613MOL0     H84545   6.060  -0.053   4.393  1.0479 -0.5560 -2.4559
  613MOL0     H84546   6.001   0.194   4.476 -4.0305  2.9406  3.6604
  613MOL0     H84547   5.839   0.174   4.412  0.3177 -0.0930 -0.6847
  613MOL0     H84548   5.990   0.030   4.632  0.7893  0.9291 -0.5183
  613MOL0     H84549   5.858   0.138   4.662 -3.5121 -1.7920  0.8999
  613MOL0     H84550   5.843  -0.154   4.563 -0.9413 -0.7748 -1.5794
  613MOL0     H84551   5.790  -0.089   4.713  2.8250 -3.9157 -0.8686
  613MOL0     H84552   5.444  -0.088   4.679 -2.0298  1.1817 -0.7746
  613MOL0     H84553   5.234  -0.344   4.772  1.0249 -0.7962 -0.5068
  613MOL0     H84554   5.170  -0.299   4.620  0.6859 -1.5232 -0.0188
  613MOL0     H84555   5.236  -0.168   4.718  3.5060  2.4221 -4.5297
  613MOL0     H84556   5.402  -0.751   4.472 -0.3950 -0.9242  1.1337
  613MOL0     H84557   5.313  -0.994   4.426 -1.2362 -0.2416 -0.3160
  613MOL0     H84558   5.112  -1.096   4.059  1.5355  1.6055 -1.8084
  613MOL0     H84559   5.267  -1.051   4.129  0.0868  0.8275  2.0358
  613MOL0     H84560   5.255  -1.241   4.280 -0.9605  1.9482  1.1214
  613MOL0     H84561   5.097  -1.272   4.224 -0.1131  0.8834 -0.8847
  613MOL0     H84562   5.351  -1.288   4.044 -1.6092  2.5115 -3.5051
  613MOL0     H84563   5.192  -1.326   3.983 -0.6978 -2.1317  0.8858
  613MOL0     H84564   5.201  -1.496   4.199  0.4187  0.6217  1.3837
  613MOL0     H84565   5.367  -1.462   4.184 -0.3189  2.0285  0.5051
  613MOL0     H84566   5.199  -1.618   3.983  0.7684  0.7629 -0.1917
  613MOL0     H84567   5.336  -1.527   3.921 -2.0138  0.7799  0.0341
  613MOL0     H84568   5.355  -1.754   3.959 -1.9910  0.5000  0.3319
  613MOL0     H84569   5.375  -1.739   4.130 -1.5647 -0.0414  0.4850
  613MOL0     H84570   5.549  -1.551   3.944  0.9211  0.0646  0.4644
  613MOL0     H84571   5.574  -1.722   3.944 -0.7184  1.7208 -1.4729
  613MOL0     H84572   5.572  -1.585   4.218  1.0261  2.7684 -0.8832
  613MOL0     H84573   5.711  -1.574   4.113  1.1635  1.2839  3.2130
  613MOL0     H84574   5.058  -0.807   4.126 -0.7159  2.2568 -0.1847
  613MOL0     H84575   5.140  -0.598   4.181 -1.6567 -0.5754 -0.7872
  613MOL0     H84576   5.561  -0.454   4.387 -0.2135 -0.1934  1.1211
  613MOL0     H84577   5.704  -0.258   4.418 -1.3460  0.3732 -2.3778
  613MOL0     H84578   4.543  -0.101   3.956 -3.9490 -1.5069  0.3268
  613MOL0     H84579   4.333   0.032   3.883 -0.8297 -2.8505 -0.1669
  613MOL0     H84580   4.201   0.397   3.650 -1.0642  0.7873  1.8338
  613MOL0     H84581   4.044   0.592   3.561 -0.2475  1.5973 -3.4110
  613MOL0     H84582   3.668   0.453   3.335  0.2454 -0.6266 -0.5804
  613MOL0     H84583   3.670   0.400   3.512 -3.0709  2.4430  3.2932
  613MOL0     H84584   3.607   0.633   3.591 -0.2781 -2.0098  1.0984
  613MOL0     H84585   3.484   0.574   3.490 -0.0511  1.4169 -0.3202
  613MOL0     H84586   3.703   0.756   3.398  0.1241  0.1032  0.5213
  613MOL0     H84587   3.568   0.682   3.300 -0.0672 -0.7131  1.4180
  613MOL0     H84588   3.407   0.807   3.456 -0.2973  1.4170  0.6016
  613MOL0     H84589   3.508   0.886   3.337  2.5504 -0.6183  0.3969
  613MOL0     H84590   3.674   1.013   3.707 -1.5792 -0.1518  1.4046
  613MOL0     H84591   3.820   0.276   3.372 -0.2172 -0.5268  0.0363
  613MOL0     H84592   3.896   0.098   3.317  0.2011 -0.3032 -0.4371
  613MOL0     H84593   4.061   0.095   3.251 -0.1133  0.5182 -0.2666
  613MOL0     H84594   4.029   0.011   3.396 -0.9109  1.1522  1.3065
  614MOL0     O84595   0.528   6.730   2.268  0.2827  0.8430 -0.4689
  614MOL0     C84596   0.483   6.731   2.382  0.0137  0.1120  0.0196
  614MOL0     O84597   0.339   6.726   2.411 -0.7150 -0.5906  0.3379
  614MOL0     C84598   0.258   6.701   2.301  0.0858 -0.4946  0.9867
  614MOL0     C84599   0.149   6.780   2.300  0.5708  0.2083  0.2017
  614MOL0     C84600   0.064   6.775   2.180  0.1690 -1.0044 -1.3675
  614MOL0     C84601   0.094   6.685   2.072 -0.2783 -0.6113 -0.5980
  614MOL0     O84602   0.019   6.669   1.953  0.5905 -0.9126  0.1545
  614MOL0     C84603  -0.062   6.771   1.917 -0.4160 -1.1057  0.1108
  614MOL0     C84604  -0.122   6.753   1.781 -0.0995  0.1409 -0.1760
  614MOL0     C84605  -0.131   6.877   1.701 -0.1021  0.0556  0.2569
  614MOL0     C84606  -0.202   6.839   1.568 -0.1291 -0.0295 -0.4821
  614MOL0     C84607  -0.110   6.842   1.449 -0.1327 -0.2489  0.4842
  614MOL0     C84608  -0.162   6.758   1.333 -0.4223  0.6227 -0.8209
  614MOL0     C84609  -0.067   6.753   1.209 -0.3155  0.2160 -0.4276
  614MOL0     C84610   0.047   6.637   1.232 -0.7402  0.2759  0.3772
  614MOL0     N84611   0.125   6.603   1.106 -0.0913 -0.1865 -0.6518
  614MOL0     C84612   0.069   6.594   0.981  0.5980 -0.0055  0.7880
  614MOL0     C84613   0.165   6.613   0.899  0.5004  0.1869  0.2300
  614MOL0     C84614   0.153   6.582   0.757 -0.0396 -0.7896 -0.3258
  614MOL0     C84615   0.245   6.462   0.732 -0.1411 -0.4292 -0.2557
  614MOL0     C84616   0.269   6.437   0.581 -0.2304 -0.3952 -0.2333
  614MOL0     C84617   0.186   6.319   0.524  0.0844 -0.6932 -0.3616
  614MOL0     O84618   0.054   6.370   0.491  0.1567 -0.6815 -0.7099
  614MOL0     C84619  -0.012   6.283   0.415  0.4148 -0.4439 -0.0422
  614MOL0     C84620  -0.046   6.310   0.282  0.3449 -0.1908 -0.1740
  614MOL0     C84621  -0.135   6.230   0.209 -0.4462  0.2457  0.1054
  614MOL0     C84622  -0.166   6.278   0.063  0.2766 -0.3036 -0.1357
  614MOL0     C84623  -0.192   6.111   0.271  0.3321 -0.6958  0.5399
  614MOL0     C84624  -0.291   6.020   0.202  0.5010 -0.7155 -0.5782
  614MOL0     O84625  -0.296   6.026   0.063  0.4986 -0.4385  0.8717
  614MOL0     C84626  -0.353   5.919  -0.001 -0.1693 -0.2886  0.1541
  614MOL0     C84627  -0.328   5.780   0.026 -0.2444 -0.3450  0.4062
  614MOL0     C84628  -0.380   5.679  -0.050  1.6173 -0.2565  0.5133
  614MOL0     C84629  -0.492   5.710  -0.139 -0.0509 -0.0854 -0.1694
  614MOL0     O84630  -0.579   5.628  -0.208  0.3868  0.6837 -0.4566
  614MOL0     C84631  -0.594   5.499  -0.168  0.2874  0.2807  0.3045
  614MOL0     C84632  -0.679   5.432  -0.272  0.3445 -0.0557 -0.4455
  614MOL0     C84633  -0.617   5.404  -0.404 -0.0349 -0.4339  0.5300
  614MOL0     C84634  -0.625   5.545  -0.482  0.9163  0.3030  0.6335
  614MOL0     C84635  -0.654   5.524  -0.630 -0.0263  0.3343  0.2993
  614MOL0     C84636  -0.530   5.459  -0.688  0.0892  0.3024  0.2033
  614MOL0     C84637  -0.528   5.408  -0.834  1.0741 -1.0017  0.5829
  614MOL0     C84638  -0.592   5.513  -0.934 -0.2783  0.7058  1.1484
  614MOL0    Cl84639  -0.762   5.507  -0.938  0.2782 -0.2959  0.0277
  614MOL0     C84640  -0.524   5.850  -0.155  0.5043  0.5291 -0.2267
  614MOL0     C84641  -0.452   5.958  -0.094 -0.9993 -0.1818  0.2887
  614MOL0     O84642  -0.350   5.935   0.272  0.2166 -0.4115  0.1762
  614MOL0     C84643  -0.164   6.086   0.404 -0.1534  0.2637 -0.2471
  614MOL0     C84644  -0.077   6.175   0.473  0.0519 -0.5405  1.2002
  614MOL0     N84645   0.279   6.649   0.963  0.3647  0.1253 -1.2785
  614MOL0     N84646   0.254   6.649   1.087 -0.5070 -0.1863 -0.1203
  614MOL0     C84647   0.207   6.597   2.082  0.7954  0.0424 -0.0557
  614MOL0     C84648   0.284   6.608   2.196 -1.1565  0.5107 -0.2240
  614MOL0     C84649   0.571   6.758   2.491 -0.5922 -0.8084  0.5109
  614MOL0     C84650   0.711   6.780   2.454 -0.6165  0.1922  0.0065
  614MOL0     C84651   0.809   6.802   2.552  0.3803  0.0918  0.5848
  614MOL0     C84652   0.783   6.809   2.685  0.3010  0.1797  0.6345
  614MOL0     O84653   0.881   6.826   2.780  0.1273  0.4471 -0.3721
  614MOL0     C84654   0.885   6.954   2.854 -0.1984  0.3423  0.4568
  614MOL0     C84655   0.978   7.057   2.789  0.4931 -1.0536 -0.0348
  614MOL0     C84656   1.120   7.007   2.746  0.6993  0.1608 -0.2670
  614MOL0     C84657   1.193   6.951   2.878  0.4558 -0.2633 -0.0117
  614MOL0     C84658   1.333   6.903   2.854 -0.0759 -0.0651 -0.8312
  614MOL0     C84659   1.446   6.859   2.827  0.0207 -0.0615 -1.3129
  614MOL0     C84660   0.644   6.799   2.723 -0.1937  0.1724 -0.1182
  614MOL0     C84661   0.542   6.763   2.631 -0.0200 -0.9845 -0.6521
  614MOL0     C84662   0.402   6.754   2.704 -0.2864 -0.2889  0.4918
  614MOL0     H84663   0.130   6.858   2.374  3.5991 -0.1047  1.4465
  614MOL0     H84664  -0.027   6.835   2.183  1.3528  0.8297 -0.3938
  614MOL0     H84665  -0.005   6.865   1.913 -2.0712 -0.0138  0.9362
  614MOL0     H84666  -0.142   6.784   1.991 -0.9360 -0.8242 -0.4959
  614MOL0     H84667  -0.084   6.663   1.732 -0.7137 -1.1786  1.6708
  614MOL0     H84668  -0.223   6.721   1.808 -1.4756  2.9891 -1.4340
  614MOL0     H84669  -0.199   6.936   1.763 -1.1323 -2.9591  2.2224
  614MOL0     H84670  -0.029   6.916   1.691  0.3336  0.2725  4.0912
  614MOL0     H84671  -0.242   6.737   1.571 -0.6717  0.1645 -0.8188
  614MOL0     H84672  -0.296   6.895   1.558 -0.6456 -0.2412  2.3779
  614MOL0     H84673  -0.015   6.802   1.488 -1.4257 -4.4167 -0.1862
  614MOL0     H84674  -0.109   6.941   1.403  0.7619  0.1134  1.2396
  614MOL0     H84675  -0.181   6.656   1.368 -0.8989  0.9958  0.0437
  614MOL0     H84676  -0.260   6.803   1.314 -1.1052 -1.2534 -2.0967
  614MOL0     H84677  -0.019   6.852   1.203  1.5026 -0.5901  0.1618
  614MOL0     H84678  -0.125   6.754   1.116 -0.2308  2.2330 -0.5040
  614MOL0     H84679   0.112   6.690   1.303 -0.2277  1.6877 -1.0715
  614MOL0     H84680   0.013   6.544   1.278  2.9392 -0.2543  2.4643
  614MOL0     H84681  -0.033   6.568   0.954 -0.2441  0.3859  3.3028
  614MOL0     H84682   0.164   6.668   0.690 -4.4472 -0.7405 -1.2635
  614MOL0     H84683   0.054   6.543   0.732 -1.1456  1.2409  0.6357
  614MOL0     H84684   0.338   6.495   0.778  0.1829 -1.7447  0.0423
  614MOL0     H84685   0.217   6.369   0.781 -4.7283  0.5037 -0.5752
  614MOL0     H84686   0.247   6.532   0.530  2.1447  0.9451  1.0547
  614MOL0     H84687   0.376   6.414   0.573 -0.3203 -1.9907  2.2332
  614MOL0     H84688   0.242   6.287   0.436  2.4002  2.1510 -0.0649
  614MOL0     H84689   0.171   6.235   0.592  0.1739 -1.0214 -0.7444
  614MOL0     H84690  -0.010   6.391   0.220 -0.8755  1.3917  1.1017
  614MOL0     H84691  -0.115   6.226  -0.019 -0.7244  2.1002 -2.4226
  614MOL0     H84692  -0.129   6.381   0.056  0.6400 -0.3013  1.4485
  614MOL0     H84693  -0.275   6.276   0.051 -0.0575 -1.4952  2.4421
  614MOL0     H84694  -0.260   5.750   0.105 -1.6988 -3.0704  0.7285
  614MOL0     H84695  -0.365   5.572  -0.040 -0.2009 -0.7064 -0.9147
  614MOL0     H84696  -0.496   5.453  -0.151 -0.2092 -0.5057  1.1245
  614MOL0     H84697  -0.638   5.511  -0.069  1.5248  1.2749  0.7601
  614MOL0     H84698  -0.699   5.335  -0.226 -0.9404 -0.4717 -1.8018
  614MOL0     H84699  -0.771   5.489  -0.287 -1.8085 -2.2949  2.8730
  614MOL0     H84700  -0.668   5.326  -0.461  1.9013 -2.4007  1.3479
  614MOL0     H84701  -0.513   5.374  -0.395  0.3011 -0.5343 -2.6641
  614MOL0     H84702  -0.544   5.611  -0.450  0.6619  1.1530 -0.4172
  614MOL0     H84703  -0.711   5.602  -0.447  1.4968 -1.2934  5.3356
  614MOL0     H84704  -0.735   5.451  -0.632 -0.9454  1.2976 -2.1675
  614MOL0     H84705  -0.686   5.614  -0.684 -0.0195  1.0918  1.5182
  614MOL0     H84706  -0.513   5.365  -0.636  1.6377  0.0356 -0.7034
  614MOL0     H84707  -0.444   5.524  -0.669 -0.6588  1.3925  0.0043
  614MOL0     H84708  -0.573   5.310  -0.847  1.3497 -0.7817 -3.0757
  614MOL0     H84709  -0.429   5.366  -0.854 -1.0020 -5.9795 -0.7681
  614MOL0     H84710  -0.562   5.500  -1.038  2.7597  0.0846  2.0210
  614MOL0     H84711  -0.563   5.616  -0.908  2.5024  0.7380 -1.6413
  614MOL0     H84712  -0.584   5.890  -0.236  1.3479  2.1416 -0.0965
  614MOL0     H84713  -0.475   6.062  -0.115  3.4929  1.3930  1.9997
  614MOL0     H84714  -0.209   6.000   0.452  1.0056 -0.6394 -0.7274
  614MOL0     H84715  -0.077   6.144   0.577 -0.4009 -2.2507  0.7314
  614MOL0     H84716   0.234   6.528   2.003  1.2587 -2.0312  1.8202
  614MOL0     H84717   0.376   6.550   2.196 -1.5702 -0.1686 -0.6093
  614MOL0     H84718   0.735   6.787   2.349 -2.3585  0.0211 -0.4329
  614MOL0     H84719   0.908   6.831   2.518  2.0275 -1.3671  3.7514
  614MOL0     H84720   0.782   6.985   2.867  0.3415  2.4086  0.0697
  614MOL0     H84721   0.921   6.936   2.956 -3.3748  0.9577  1.7860
  614MOL0     H84722   0.983   7.143   2.857  1.0936 -0.2164 -1.1041
  614MOL0     H84723   0.932   7.099   2.700  0.2990 -0.4581  0.3422
  614MOL0     H84724   1.111   6.922   2.677  1.0128 -0.2398  0.1807
  614MOL0     H84725   1.180   7.089   2.707 -0.6647  1.7766  0.9163
  614MOL0     H84726   1.135   6.860   2.895  1.5005 -1.0117 -0.3021
  614MOL0     H84727   1.191   7.032   2.951 -2.3386  0.0665 -0.3325
  614MOL0     H84728   1.548   6.827   2.827 -0.0570 -0.5507  1.2160
  614MOL0     H84729   0.627   6.800   2.830  1.5319  1.0429  0.1827
  614MOL0     H84730   0.366   6.653   2.684 -0.6484  0.3418 -2.5278
  614MOL0     H84731   0.411   6.792   2.807 -0.3782  2.3336 -0.3916
  614MOL0     H84732   0.326   6.823   2.668  0.3999  0.4370  0.3995
  615MOL0     O84733   0.861   3.360   3.431  0.3801  0.1130  1.1108
  615MOL0     C84734   0.821   3.421   3.328  0.0068 -0.9311  0.0698
  615MOL0     O84735   0.863   3.547   3.290 -0.3910  0.5613 -0.9171
  615MOL0     C84736   0.943   3.607   3.372 -0.6313 -0.0605  0.2851
  615MOL0     C84737   0.880   3.699   3.453 -1.4188 -0.0440 -0.3383
  615MOL0     C84738   0.949   3.761   3.561  0.3213 -0.4914  0.9371
  615MOL0     C84739   1.082   3.728   3.592  0.2438  0.2006 -0.7954
  615MOL0     O84740   1.144   3.783   3.699 -0.0547 -0.9428  0.2100
  615MOL0     C84741   1.152   3.927   3.709  0.0268 -0.7332 -0.1838
  615MOL0     C84742   1.276   3.970   3.789 -0.4085  0.5100  0.4145
  615MOL0     C84743   1.283   3.913   3.927 -0.0670  0.0091  0.3222
  615MOL0     C84744   1.417   3.921   3.992  0.5167 -0.1830  0.8366
  615MOL0     C84745   1.412   3.934   4.134  0.7095  0.4718  0.2215
  615MOL0     C84746   1.378   3.812   4.222  0.4231  0.4726 -0.2015
  615MOL0     C84747   1.465   3.682   4.223  0.1094 -1.4351  0.8781
  615MOL0     C84748   1.610   3.709   4.220 -0.8608  0.0375  0.3717
  615MOL0     N84749   1.708   3.608   4.215  0.2404  0.4554 -0.5029
  615MOL0     C84750   1.842   3.610   4.172  0.3912 -0.7215  0.1129
  615MOL0     C84751   1.895   3.496   4.210 -0.2688  0.4165 -0.1258
  615MOL0     C84752   2.034   3.461   4.179  0.4529  0.6561  0.7492
  615MOL0     C84753   2.090   3.361   4.281 -0.2869 -0.5691  0.1741
  615MOL0     C84754   2.240   3.379   4.293  0.4032  1.1078  0.4738
  615MOL0     C84755   2.300   3.280   4.405  1.3150  0.9883  0.2568
  615MOL0     O84756   2.315   3.149   4.336  0.8798 -0.0172  0.6581
  615MOL0     C84757   2.315   3.032   4.412  0.5407  1.0739  0.0352
  615MOL0     C84758   2.321   2.913   4.334  0.8296  0.5013 -1.1070
  615MOL0     C84759   2.323   2.785   4.400 -0.2223  0.5180 -0.6200
  615MOL0     C84760   2.321   2.663   4.314  0.8457 -0.8086 -0.4986
  615MOL0     C84761   2.326   2.787   4.544 -0.4372  0.5278 -0.0031
  615MOL0     C84762   2.335   2.655   4.628  0.1121 -0.3433 -0.1859
  615MOL0     O84763   2.329   2.675   4.759 -0.2356  0.2747 -0.0215
  615MOL0     C84764   2.261   2.579   4.849  0.3362  0.5062 -0.5042
  615MOL0     C84765   2.301   2.577   4.975 -0.4980 -0.7585 -0.0202
  615MOL0     C84766   2.253   2.490   5.070  0.0881  0.0032  0.0072
  615MOL0     C84767   2.166   2.387   5.042 -0.4502  0.4523  0.5969
  615MOL0     O84768   2.128   2.302   5.136  0.4512  0.3339  0.1388
  615MOL0     C84769   1.996   2.249   5.113  0.4024 -0.0862 -0.2949
  615MOL0     C84770   1.953   2.178   5.246 -0.2803  0.3098 -0.4958
  615MOL0     C84771   1.978   2.031   5.264 -0.6560 -0.2959 -0.2768
  615MOL0     C84772   2.108   1.974   5.202  1.2811  0.0745  0.2240
  615MOL0     C84773   2.155   1.832   5.248  0.2271 -0.0319 -0.5943
  615MOL0     C84774   2.218   1.834   5.386  0.3856  0.5948  0.2745
  615MOL0     C84775   2.265   1.695   5.438 -0.5839  0.4366 -1.1860
  615MOL0     C84776   2.293   1.699   5.594 -0.6562 -0.5252 -0.8186
  615MOL0    Cl84777   2.315   1.532   5.653 -0.4621 -0.1374  0.8885
  615MOL0     C84778   2.129   2.382   4.910  0.1588  0.4619  0.3627
  615MOL0     C84779   2.170   2.477   4.812 -0.2119 -0.1722  0.0601
  615MOL0     O84780   2.359   2.552   4.569 -0.1443 -0.8047 -0.7394
  615MOL0     C84781   2.331   2.910   4.616  0.1253  0.5508 -0.1341
  615MOL0     C84782   2.327   3.032   4.552  0.1366  1.1280  0.3732
  615MOL0     N84783   1.797   3.431   4.284 -0.6936  0.2927  0.0278
  615MOL0     N84784   1.686   3.501   4.288 -0.4475  0.5063  0.3875
  615MOL0     C84785   1.150   3.636   3.515  0.3262  0.5090 -0.1542
  615MOL0     C84786   1.082   3.573   3.401 -0.0939 -0.3802  0.3249
  615MOL0     C84787   0.735   3.349   3.233 -0.2514 -0.3785 -0.1678
  615MOL0     C84788   0.616   3.399   3.210  0.7212  0.8577  0.5111
  615MOL0     C84789   0.531   3.341   3.106 -0.2813 -0.3026  0.1074
  615MOL0     C84790   0.583   3.227   3.039  0.4493 -0.2335  0.3217
  615MOL0     O84791   0.520   3.174   2.931  0.2194  0.1525  0.4291
  615MOL0     C84792   0.518   3.037   2.888  0.5644  0.1292  0.0086
  615MOL0     C84793   0.368   2.989   2.892 -0.4052 -0.2245  0.8423
  615MOL0     C84794   0.278   3.050   2.784 -0.2209  0.5306 -0.7900
  615MOL0     C84795   0.172   2.962   2.722 -0.2818 -0.1758  0.0441
  615MOL0     C84796   0.217   2.836   2.668 -0.1650 -0.2486 -0.9242
  615MOL0     C84797   0.256   2.735   2.631 -0.3344 -0.2169 -0.0780
  615MOL0     C84798   0.715   3.186   3.067 -0.0345  0.1993 -0.4926
  615MOL0     C84799   0.791   3.235   3.171  0.3723  0.8024  0.0648
  615MOL0     C84800   0.926   3.177   3.190 -1.4657 -0.0900  0.2495
  615MOL0     H84801   0.777   3.730   3.437 -2.0843 -0.4449  2.5264
  615MOL0     H84802   0.899   3.837   3.620 -0.3229 -1.7866  2.1207
  615MOL0     H84803   1.058   3.953   3.760 -0.3337  0.9360 -1.6068
  615MOL0     H84804   1.168   3.967   3.609 -1.7244  1.3354  0.2775
  615MOL0     H84805   1.359   3.923   3.736  0.1949 -1.2705  2.7807
  615MOL0     H84806   1.282   4.079   3.778  2.0614  0.3031 -1.0078
  615MOL0     H84807   1.206   3.964   3.985 -0.9144 -1.9080  0.9882
  615MOL0     H84808   1.242   3.812   3.940 -3.0325  1.1236  0.1795
  615MOL0     H84809   1.458   3.825   3.959 -0.7698 -0.2983 -0.5285
  615MOL0     H84810   1.476   3.996   3.940 -1.0144  2.5545  2.8038
  615MOL0     H84811   1.354   4.020   4.168 -0.1198  1.4358 -3.3045
  615MOL0     H84812   1.506   3.975   4.170  1.0633 -0.4056  0.3382
  615MOL0     H84813   1.369   3.829   4.329 -1.5006 -2.1923  0.1426
  615MOL0     H84814   1.281   3.781   4.182  0.9615  0.4605 -1.5674
  615MOL0     H84815   1.438   3.639   4.126  1.3700  1.0127 -0.6594
  615MOL0     H84816   1.418   3.612   4.293 -1.1860 -0.1951  1.2854
  615MOL0     H84817   1.633   3.773   4.134  2.3403 -1.4599 -0.0533
  615MOL0     H84818   1.631   3.773   4.306 -2.4755  0.5976  0.3721
  615MOL0     H84819   1.888   3.697   4.126 -1.5513  1.5262  2.1317
  615MOL0     H84820   2.098   3.549   4.188  0.4723  0.6628  0.5377
  615MOL0     H84821   2.031   3.419   4.078  2.4669  2.1354  0.0117
  615MOL0     H84822   2.044   3.367   4.379  1.2807 -1.6523  1.0303
  615MOL0     H84823   2.076   3.266   4.229 -0.5653  0.8831 -2.5757
  615MOL0     H84824   2.292   3.370   4.198  1.4338  0.4332  1.0810
  615MOL0     H84825   2.258   3.479   4.331 -1.7502  2.1568 -1.0305
  615MOL0     H84826   2.388   3.332   4.442  1.9504  0.9597 -1.1618
  615MOL0     H84827   2.235   3.260   4.491  0.9252 -1.7759 -0.5892
  615MOL0     H84828   2.312   2.915   4.226  0.6736 -1.2872 -1.1608
  615MOL0     H84829   2.341   2.680   4.208 -0.5425  0.3993 -0.5871
  615MOL0     H84830   2.225   2.612   4.325  0.7255 -0.5743 -0.4582
  615MOL0     H84831   2.394   2.584   4.334  1.2985 -0.0372  1.0307
  615MOL0     H84832   2.361   2.661   5.008 -1.5974 -0.2324  0.6970
  615MOL0     H84833   2.285   2.498   5.173 -2.1789  0.0221  0.7660
  615MOL0     H84834   1.935   2.334   5.080 -1.3351 -1.3115 -0.3622
  615MOL0     H84835   1.991   2.174   5.034  3.1680  0.1183 -0.7479
  615MOL0     H84836   1.998   2.228   5.332 -2.6708  0.7923  0.5837
  615MOL0     H84837   1.847   2.200   5.264  0.0721  1.1346  0.6720
  615MOL0     H84838   1.894   1.977   5.221  0.6597 -1.3234 -1.6340
  615MOL0     H84839   1.988   2.007   5.370  1.9966  0.0314 -0.3836
  615MOL0     H84840   2.196   2.038   5.211  2.0264 -0.6884 -1.2935
  615MOL0     H84841   2.083   1.971   5.096 -1.4404 -2.1074  0.8012
  615MOL0     H84842   2.069   1.765   5.247  0.3121 -0.2133  1.1212
  615MOL0     H84843   2.238   1.814   5.179 -0.0719  2.1525 -1.6168
  615MOL0     H84844   2.162   1.892   5.459  2.7602  2.6985  0.5751
  615MOL0     H84845   2.311   1.891   5.374  0.1879  1.0587  0.8796
  615MOL0     H84846   2.357   1.663   5.389  0.1629 -1.3900  1.2481
  615MOL0     H84847   2.190   1.622   5.407 -0.3595  0.9527 -3.1102
  615MOL0     H84848   2.214   1.757   5.643  0.4719 -0.1171  0.5693
  615MOL0     H84849   2.386   1.755   5.604  0.4514 -2.3659 -0.4368
  615MOL0     H84850   2.053   2.314   4.871  0.6083  0.5445 -0.7047
  615MOL0     H84851   2.130   2.470   4.712  1.1597  2.5563 -0.7832
  615MOL0     H84852   2.339   2.919   4.724 -2.1806  1.2686  0.0290
  615MOL0     H84853   2.339   3.121   4.613  1.4688  1.9226 -0.9943
  615MOL0     H84854   1.252   3.608   3.539  1.0782 -1.0142 -4.2677
  615MOL0     H84855   1.124   3.495   3.340  3.1411  1.2174  0.3179
  615MOL0     H84856   0.586   3.485   3.269  0.7785  0.6402  0.8559
  615MOL0     H84857   0.440   3.392   3.076  1.8522  3.0623 -1.2148
  615MOL0     H84858   0.564   3.042   2.789 -1.0487  1.2698 -0.7315
  615MOL0     H84859   0.574   2.976   2.959  1.2467  1.6758  0.8446
  615MOL0     H84860   0.321   3.016   2.987 -0.0946 -1.3155  1.3154
  615MOL0     H84861   0.371   2.881   2.878  0.3083 -0.4130  2.3298
  615MOL0     H84862   0.215   3.126   2.831 -1.9742 -1.4567  0.2799
  615MOL0     H84863   0.337   3.096   2.705 -0.4168 -0.7506 -1.7281
  615MOL0     H84864   0.128   3.024   2.644 -0.2555 -2.0377 -1.5207
  615MOL0     H84865   0.091   2.946   2.793 -1.7643  2.0546 -1.0166
  615MOL0     H84866   0.291   2.646   2.583 -2.5889 -1.2607  0.0576
  615MOL0     H84867   0.757   3.105   3.009  0.1003  0.9520 -1.4771
  615MOL0     H84868   0.963   3.191   3.292  2.1661  2.2341 -1.1761
  615MOL0     H84869   0.946   3.073   3.164  1.2860  0.2122  0.8690
  615MOL0     H84870   1.003   3.242   3.147 -2.0878  0.8288  0.4737
  616MOL0     O84871   7.700   6.203   8.063 -0.2397 -0.7342 -0.0669
  616MOL0     C84872   7.582   6.196   8.044 -0.3071  0.8256 -0.1907
  616MOL0     O84873   7.523   6.126   7.942  0.4455 -0.1140 -0.5381
  616MOL0     C84874   7.612   6.048   7.876 -0.4369 -0.3462 -0.4534
  616MOL0     C84875   7.657   5.917   7.923  0.7387  0.0440 -0.0872
  616MOL0     C84876   7.755   5.851   7.845  0.1295 -0.6396  0.2531
  616MOL0     C84877   7.811   5.915   7.732 -1.3104 -0.2982  1.0811
  616MOL0     O84878   7.905   5.859   7.643  0.6313 -0.4163  0.0449
  616MOL0     C84879   7.955   5.732   7.685 -0.7110  0.1756 -0.4242
  616MOL0     C84880   8.072   5.679   7.602  0.0122 -0.3496 -0.5421
  616MOL0     C84881   8.148   5.562   7.671 -0.5062  0.6561 -0.0382
  616MOL0     C84882   8.225   5.486   7.572 -0.4460  0.6093  0.1954
  616MOL0     C84883   8.322   5.372   7.636  0.2586  0.6233 -0.6583
  616MOL0     C84884   8.249   5.258   7.713 -0.2602  1.3782  0.2684
  616MOL0     C84885   8.197   5.150   7.618 -0.4691 -1.1394  0.4234
  616MOL0     C84886   8.135   5.032   7.688 -0.2436  1.2642  0.3403
  616MOL0     N84887   8.225   4.950   7.764  0.2596  0.3297  0.0511
  616MOL0     C84888   8.271   4.824   7.728  0.3910  0.4433 -0.2177
  616MOL0     C84889   8.321   4.772   7.843 -0.1843  0.2396 -0.1132
  616MOL0     C84890   8.387   4.637   7.857 -0.8532 -0.5163  0.1028
  616MOL0     C84891   8.455   4.608   7.989 -0.4102 -0.0956  0.2143
  616MOL0     C84892   8.362   4.613   8.103 -0.4082  0.4050 -0.6997
  616MOL0     C84893   8.388   4.513   8.214 -0.5517  0.6185  0.0895
  616MOL0     O84894   8.505   4.547   8.296 -0.2989  0.3607  0.2811
  616MOL0     C84895   8.506   4.628   8.405  0.0892 -0.3635 -1.0051
  616MOL0     C84896   8.398   4.715   8.431  0.2343 -1.0007  0.0441
  616MOL0     C84897   8.405   4.815   8.529  0.5737  0.2971 -0.5917
  616MOL0     C84898   8.298   4.913   8.534  0.1592 -1.2754  0.0279
  616MOL0     C84899   8.515   4.821   8.619  0.9663  0.0608  0.4088
  616MOL0     C84900   8.534   4.927   8.729  0.2713 -0.4168  0.0375
  616MOL0     O84901   8.461   5.048   8.719  0.1844  0.1201 -0.1363
  616MOL0     C84902   8.453   5.129   8.830  0.4461 -0.6993  1.3082
  616MOL0     C84903   8.568   5.207   8.871 -0.7618 -0.3092 -0.9082
  616MOL0     C84904   8.562   5.300   8.977 -0.1646  0.3988  0.1409
  616MOL0     C84905   8.444   5.316   9.049  0.4290 -0.6454 -0.0684
  616MOL0     O84906   8.417   5.408   9.151 -0.3812 -0.0587  0.3824
  616MOL0     C84907   8.509   5.514   9.186 -0.4251 -0.4402 -0.0211
  616MOL0     C84908   8.614   5.462   9.281 -0.0648 -0.3747 -0.4597
  616MOL0     C84909   8.683   5.554   9.374  0.0379 -0.2223 -1.0426
  616MOL0     C84910   8.787   5.480   9.463  0.6009  0.5227 -0.7919
  616MOL0     C84911   8.737   5.479   9.610  0.1602  1.3735  1.5110
  616MOL0     C84912   8.843   5.406   9.696  0.5433 -0.2409 -0.5693
  616MOL0     C84913   8.804   5.420   9.840 -1.2999  0.7692 -0.2732
  616MOL0     C84914   8.907   5.358   9.941 -0.0330 -0.8486 -0.2511
  616MOL0    Cl84915   8.825   5.346  10.103 -0.0921 -0.2427 -0.0296
  616MOL0     C84916   8.333   5.231   9.009  0.9950  0.0379 -0.7076
  616MOL0     C84917   8.333   5.145   8.898 -0.4245 -0.9797 -0.6464
  616MOL0     O84918   8.607   4.899   8.820  0.0384 -0.2754 -0.2079
  616MOL0     C84919   8.616   4.710   8.606  0.9144  0.1525 -0.7312
  616MOL0     C84920   8.615   4.623   8.494 -0.5317  0.0030 -0.2034
  616MOL0     N84921   8.294   4.856   7.946 -0.4170  0.2377  0.8589
  616MOL0     N84922   8.244   4.966   7.905 -0.2313  0.5134 -1.0997
  616MOL0     C84923   7.756   6.042   7.679  0.1344 -0.0861 -0.0325
  616MOL0     C84924   7.661   6.109   7.756 -0.5449  0.1924 -0.1389
  616MOL0     C84925   7.481   6.237   8.145 -0.0328 -0.1145 -0.5874
  616MOL0     C84926   7.421   6.357   8.120 -1.2993 -0.4395 -0.6848
  616MOL0     C84927   7.325   6.411   8.200 -0.1490 -0.8310  0.0410
  616MOL0     C84928   7.285   6.343   8.313 -0.1963  0.6222 -0.7387
  616MOL0     O84929   7.206   6.411   8.401  0.4008 -0.3726 -0.1477
  616MOL0     C84930   7.273   6.433   8.531  0.1766  0.2380 -0.1447
  616MOL0     C84931   7.209   6.555   8.608 -1.2542 -0.0067  0.1019
  616MOL0     C84932   7.277   6.690   8.597  0.6951 -0.8838  0.3997
  616MOL0     C84933   7.276   6.761   8.457 -0.3392  1.0904 -0.8146
  616MOL0     C84934   7.381   6.866   8.476 -0.0763  0.4561 -0.1150
  616MOL0     C84935   7.462   6.953   8.503  0.2824  0.4709 -0.5334
  616MOL0     C84936   7.354   6.220   8.346  0.3047 -0.4252 -0.2338
  616MOL0     C84937   7.439   6.160   8.251 -0.1607 -0.9372 -0.0173
  616MOL0     C84938   7.504   6.023   8.265 -0.2085  0.5887 -0.3858
  616MOL0     H84939   7.613   5.867   8.008 -0.2672 -1.5582 -1.4911
  616MOL0     H84940   7.772   5.753   7.888  0.7157 -0.3027  0.8088
  616MOL0     H84941   7.879   5.655   7.673  1.0249 -1.5711 -0.7093
  616MOL0     H84942   7.976   5.749   7.791 -0.5463 -1.5771 -0.1599
  616MOL0     H84943   8.024   5.656   7.506 -1.1880  0.5244 -0.1773
  616MOL0     H84944   8.152   5.753   7.601  0.6159 -0.8941  1.5512
  616MOL0     H84945   8.206   5.605   7.754 -2.8350  4.0938  0.0580
  616MOL0     H84946   8.069   5.502   7.717 -0.2594  0.4869  0.1652
  616MOL0     H84947   8.159   5.441   7.498  0.5466 -1.2573  0.4092
  616MOL0     H84948   8.286   5.554   7.512  2.6564 -0.8486  1.4852
  616MOL0     H84949   8.398   5.412   7.702  0.5479  1.7063 -1.6171
  616MOL0     H84950   8.368   5.315   7.554 -1.1361  0.4000 -1.3237
  616MOL0     H84951   8.319   5.218   7.787  0.6999  0.9930 -0.8038
  616MOL0     H84952   8.162   5.298   7.765 -2.2489 -1.4647 -0.6179
  616MOL0     H84953   8.287   5.119   7.564 -0.3128  1.8753 -1.2778
  616MOL0     H84954   8.133   5.201   7.545 -0.3553 -2.0512 -0.3303
  616MOL0     H84955   8.057   5.078   7.749 -1.5904  4.7943 -3.4833
  616MOL0     H84956   8.085   4.974   7.610  1.3985 -0.0423  0.1886
  616MOL0     H84957   8.263   4.779   7.629 -1.0556 -0.9819  0.5099
  616MOL0     H84958   8.465   4.626   7.780  1.1088 -2.9521  2.2314
  616MOL0     H84959   8.320   4.555   7.830 -1.9209 -0.2588  1.8857
  616MOL0     H84960   8.507   4.512   7.983  2.1813  1.1899  0.6708
  616MOL0     H84961   8.539   4.678   7.995 -0.2934  0.0549 -2.2494
  616MOL0     H84962   8.384   4.710   8.150  0.7235 -0.8700  1.5970
  616MOL0     H84963   8.254   4.607   8.089 -1.2985  2.1885  3.7566
  616MOL0     H84964   8.307   4.504   8.287 -3.2759  0.8595 -2.7241
  616MOL0     H84965   8.405   4.415   8.168 -3.0615 -1.0355  2.3786
  616MOL0     H84966   8.320   4.731   8.358  0.5278  2.8946  0.3311
  616MOL0     H84967   8.205   4.879   8.486 -0.3853  0.2148 -0.0250
  616MOL0     H84968   8.323   5.012   8.495 -0.1014 -0.9217  0.7414
  616MOL0     H84969   8.277   4.934   8.639  1.7616  0.4928  0.0496
  616MOL0     H84970   8.660   5.210   8.815 -0.4507 -2.3389 -0.5573
  616MOL0     H84971   8.648   5.364   8.993 -0.6243  1.5199 -1.5677
  616MOL0     H84972   8.553   5.562   9.098  1.3209  1.7540  1.9114
  616MOL0     H84973   8.436   5.578   9.237  0.4121  0.0667  0.5915
  616MOL0     H84974   8.569   5.389   9.349  0.1659  1.1415  1.3991
  616MOL0     H84975   8.696   5.432   9.215 -0.8951  1.6093 -2.5663
  616MOL0     H84976   8.611   5.593   9.447  1.8873 -0.8643  1.2489
  616MOL0     H84977   8.714   5.648   9.327  0.6371 -0.1574 -0.5291
  616MOL0     H84978   8.885   5.527   9.448  0.5908  1.5691  1.8420
  616MOL0     H84979   8.787   5.377   9.428 -2.3259 -0.4590  1.6977
  616MOL0     H84980   8.719   5.584   9.636 -3.0312  0.7851  2.1139
  616MOL0     H84981   8.640   5.428   9.605  0.5023  0.8047 -1.5667
  616MOL0     H84982   8.931   5.470   9.685 -0.3167  1.6020  2.1965
  616MOL0     H84983   8.855   5.300   9.670  1.2492 -0.0188 -1.1922
  616MOL0     H84984   8.711   5.368   9.864 -0.7790  0.7398  1.8356
  616MOL0     H84985   8.795   5.529   9.850  1.2599  1.1436 -1.3254
  616MOL0     H84986   8.995   5.422   9.949 -2.5064  2.7557  0.3750
  616MOL0     H84987   8.925   5.257   9.903 -0.5431 -2.2174  2.8498
  616MOL0     H84988   8.237   5.256   9.054  1.1312  1.4614 -1.1518
  616MOL0     H84989   8.246   5.085   8.869 -1.1429 -1.1508  1.6939
  616MOL0     H84990   8.688   4.701   8.687  0.6820 -1.1360 -0.6481
  616MOL0     H84991   8.694   4.554   8.466 -0.9160 -0.3212 -0.4823
  616MOL0     H84992   7.804   6.088   7.593  3.8826  0.9233  2.3278
  616MOL0     H84993   7.628   6.209   7.729 -1.1627 -0.1081 -0.5275
  616MOL0     H84994   7.454   6.403   8.027 -3.4721 -1.9546 -2.2979
  616MOL0     H84995   7.293   6.514   8.194  1.8727 -0.0735  1.2212
  616MOL0     H84996   7.270   6.340   8.589 -1.2202  0.9893  1.0656
  616MOL0     H84997   7.378   6.461   8.516  0.7602 -1.5268  0.4812
  616MOL0     H84998   7.226   6.517   8.708 -3.3985  1.4243  1.0914
  616MOL0     H84999   7.100   6.552   8.612 -1.3931  2.4106  0.0618
  616MOL0     H85000   7.215   6.756   8.659  1.1290  2.2837 -2.2558
  616MOL0     H85001   7.379   6.679   8.635  0.8646  1.0322  0.5930
  616MOL0     H85002   7.175   6.802   8.444 -1.3054 -1.6191 -2.9621
  616MOL0     H85003   7.309   6.698   8.375 -1.0658  0.5082 -0.6761
  616MOL0     H85004   7.528   7.036   8.519 -1.6629  1.5268  3.0989
  616MOL0     H85005   7.344   6.165   8.439  3.7329 -1.4084 -0.2992
  616MOL0     H85006   7.481   5.972   8.358  1.5811 -1.0815 -0.7871
  616MOL0     H85007   7.475   5.956   8.184 -1.0840 -0.0992  0.4841
  616MOL0     H85008   7.613   6.031   8.271  0.2804 -2.1075 -3.1045
  617MOL0     O85009   1.889  10.617   3.355 -0.2140  1.1662 -0.0260
  617MOL0     C85010   1.815  10.673   3.432  1.0409 -0.2866  0.9395
  617MOL0     O85011   1.717  10.612   3.522 -0.7438  0.4199 -0.3244
  617MOL0     C85012   1.697  10.473   3.538 -0.8400  0.1044  0.1104
  617MOL0     C85013   1.617  10.437   3.649 -0.2145  0.2978 -0.4483
  617MOL0     C85014   1.572  10.305   3.668 -0.5037  0.6423 -0.2526
  617MOL0     C85015   1.618  10.199   3.587 -0.3159  0.0622 -0.3481
  617MOL0     O85016   1.574  10.067   3.598 -0.2213 -0.7362 -0.5505
  617MOL0     C85017   1.473  10.035   3.696 -0.5716 -0.9052  0.3087
  617MOL0     C85018   1.457   9.886   3.690  1.0412 -0.1455  0.0736
  617MOL0     C85019   1.339   9.843   3.784 -0.0570  0.5255 -0.5827
  617MOL0     C85020   1.344   9.914   3.925  0.0341 -0.7906 -0.3065
  617MOL0     C85021   1.224   9.856   4.001 -0.0792 -0.0261 -1.0442
  617MOL0     C85022   1.234   9.893   4.150  0.2334 -0.7944 -0.2692
  617MOL0     C85023   1.149   9.799   4.240 -0.5329  0.3713  0.4806
  617MOL0     C85024   1.222   9.676   4.279 -0.1057  0.8367  0.3589
  617MOL0     N85025   1.139   9.610   4.386 -1.1685  0.4649  0.0937
  617MOL0     C85026   1.197   9.530   4.480 -0.3296 -0.1943 -0.1509
  617MOL0     C85027   1.099   9.468   4.541  0.1174  0.4986  0.1901
  617MOL0     C85028   1.116   9.359   4.641 -0.0211 -0.1689 -0.0499
  617MOL0     C85029   1.158   9.229   4.584 -0.3784 -0.0324 -0.0684
  617MOL0     C85030   1.190   9.121   4.684 -0.3112 -1.0404 -0.9346
  617MOL0     C85031   1.078   9.044   4.755 -0.8303  0.3097  0.5962
  617MOL0     O85032   1.016   9.123   4.850  0.1049 -0.0718 -0.1346
  617MOL0     C85033   0.878   9.099   4.858 -0.2409  0.6104 -0.5901
  617MOL0     C85034   0.814   9.045   4.977  0.5086  0.7795  0.7949
  617MOL0     C85035   0.677   9.058   5.004 -0.4985 -0.0528  0.1782
  617MOL0     C85036   0.624   8.982   5.125  0.4038  0.2124 -0.2552
  617MOL0     C85037   0.598   9.125   4.902  0.0896 -0.6039  0.5126
  617MOL0     C85038   0.453   9.144   4.923  0.7815  0.9485 -0.5212
  617MOL0     O85039   0.387   9.184   4.806  0.3177  0.0212 -0.2647
  617MOL0     C85040   0.249   9.175   4.798 -0.0672 -0.6147  0.1971
  617MOL0     C85041   0.172   9.064   4.859 -0.0380  0.5237  0.3049
  617MOL0     C85042   0.034   9.046   4.843 -0.0244 -0.2504 -0.4210
  617MOL0     C85043  -0.035   9.139   4.767  0.1883 -0.4323 -0.2309
  617MOL0     O85044  -0.172   9.129   4.751  1.0634  0.0033 -0.2027
  617MOL0     C85045  -0.259   9.029   4.806 -0.5516  0.6137  1.3025
  617MOL0     C85046  -0.233   8.892   4.727 -0.1468 -0.1427 -0.1318
  617MOL0     C85047  -0.252   8.764   4.813  0.8520 -0.0311 -0.0369
  617MOL0     C85048  -0.206   8.637   4.742 -0.3828  0.0486  0.0737
  617MOL0     C85049  -0.159   8.524   4.837 -0.2828  0.9908 -0.6187
  617MOL0     C85050  -0.027   8.539   4.905  0.1607 -0.8860 -0.0993
  617MOL0     C85051   0.080   8.595   4.802 -0.1450 -0.8840  0.5440
  617MOL0     C85052   0.236   8.590   4.836 -0.0641  0.5826  0.6712
  617MOL0    Cl85053   0.333   8.675   4.714 -0.2418 -0.1658 -0.1346
  617MOL0     C85054   0.030   9.250   4.719 -0.0444  1.4582  0.4259
  617MOL0     C85055   0.169   9.267   4.727 -0.1570  0.9932  0.5938
  617MOL0     O85056   0.404   9.128   5.037 -0.3932  0.3859  0.5760
  617MOL0     C85057   0.661   9.164   4.781 -0.6477  0.1095  0.7956
  617MOL0     C85058   0.804   9.150   4.750  0.0818 -0.3534  0.1839
  617MOL0     N85059   0.977   9.519   4.493 -0.1400  0.3084  0.8218
  617MOL0     N85060   1.002   9.595   4.390 -0.0324 -0.1213 -0.8698
  617MOL0     C85061   1.713  10.240   3.490 -0.5543  0.7717  0.0691
  617MOL0     C85062   1.752  10.372   3.460 -0.4564  0.4434  1.7361
  617MOL0     C85063   1.791  10.823   3.428  0.5211 -0.6968  0.1957
  617MOL0     C85064   1.751  10.907   3.546  0.0621  1.2572  0.1183
  617MOL0     C85065   1.740  11.045   3.537  0.7336  0.5806 -0.0004
  617MOL0     C85066   1.761  11.111   3.416 -0.5884 -0.3510 -0.1027
  617MOL0     O85067   1.750  11.242   3.400  0.1429 -0.6952 -0.5191
  617MOL0     C85068   1.875  11.323   3.416  0.1127 -0.8528 -0.0511
  617MOL0     C85069   1.851  11.459   3.344  0.1306 -0.1475 -0.0635
  617MOL0     C85070   1.939  11.571   3.398 -0.4675  0.0249 -0.4511
  617MOL0     C85071   1.931  11.710   3.316  0.6174 -0.0094 -0.3419
  617MOL0     C85072   1.790  11.778   3.322  0.6439 -0.5709 -0.4515
  617MOL0     C85073   1.680  11.827   3.332  0.9964  0.3104  0.9030
  617MOL0     C85074   1.806  11.041   3.311 -0.0533 -1.0679 -0.0420
  617MOL0     C85075   1.816  10.903   3.314  0.4015 -0.9906  0.2814
  617MOL0     C85076   1.859  10.837   3.173  0.5792  0.8123 -0.6088
  617MOL0     H85077   1.582  10.520   3.709 -1.0731 -0.0739 -0.4250
  617MOL0     H85078   1.529  10.284   3.765  1.7894 -0.7260  0.5558
  617MOL0     H85079   1.379  10.087   3.675  1.1563  2.9522  1.2348
  617MOL0     H85080   1.490  10.078   3.795 -4.8276  4.0746 -0.6394
  617MOL0     H85081   1.434   9.858   3.586  0.1793  0.9245 -0.0414
  617MOL0     H85082   1.549   9.836   3.722  0.4266 -0.4896  1.3341
  617MOL0     H85083   1.248   9.884   3.740  0.6556 -0.6155 -3.3742
  617MOL0     H85084   1.335   9.734   3.785  2.6878  0.3304 -1.2223
  617MOL0     H85085   1.446   9.889   3.957  0.0698 -0.7517 -0.3861
  617MOL0     H85086   1.339  10.023   3.924 -1.0583 -0.7409  2.7449
  617MOL0     H85087   1.237   9.748   3.993  0.3846 -0.2985  2.0104
  617MOL0     H85088   1.124   9.866   3.957 -0.5203  0.0469 -0.0573
  617MOL0     H85089   1.340   9.896   4.175  0.5960  1.8979 -1.7000
  617MOL0     H85090   1.202   9.998   4.160  1.2542 -0.4556 -0.4309
  617MOL0     H85091   1.055   9.786   4.186 -0.9070 -0.5654  1.3133
  617MOL0     H85092   1.133   9.852   4.335 -0.9817 -1.1525  1.2904
  617MOL0     H85093   1.232   9.617   4.187 -0.5772 -0.4913  1.1404
  617MOL0     H85094   1.328   9.688   4.305  0.9085 -1.6073 -2.0750
  617MOL0     H85095   1.301   9.500   4.492 -0.8744 -2.6519 -0.9606
  617MOL0     H85096   1.023   9.347   4.696  1.4894  0.2600  2.7822
  617MOL0     H85097   1.190   9.383   4.718 -0.7355 -2.0889  1.3230
  617MOL0     H85098   1.062   9.206   4.536 -0.1718  2.9379 -2.2026
  617MOL0     H85099   1.238   9.241   4.510  1.4373  0.8519  1.9238
  617MOL0     H85100   1.247   9.051   4.623 -2.2395 -2.6940 -0.9212
  617MOL0     H85101   1.250   9.169   4.762 -1.8434  0.3729 -0.5654
  617MOL0     H85102   1.016   9.013   4.670 -0.6127  1.8216 -0.1529
  617MOL0     H85103   1.126   8.966   4.814  1.2389  0.8933 -0.2285
  617MOL0     H85104   0.874   9.010   5.060  1.6251 -0.8303 -0.6007
  617MOL0     H85105   0.692   8.909   5.169  0.8868  2.2642  2.7468
  617MOL0     H85106   0.535   8.926   5.095 -0.1426  0.3065  1.1176
  617MOL0     H85107   0.608   9.052   5.208 -0.0932 -1.6038  1.2505
  617MOL0     H85108   0.228   8.985   4.908 -0.9346 -0.1340  0.2968
  617MOL0     H85109  -0.015   8.958   4.883  1.9063 -2.6447 -2.9209
  617MOL0     H85110  -0.246   9.021   4.914 -1.4553 -0.6628  1.3368
  617MOL0     H85111  -0.358   9.057   4.770  0.1980 -0.7726 -2.2848
  617MOL0     H85112  -0.303   8.878   4.644 -2.0077  1.9654  0.9695
  617MOL0     H85113  -0.130   8.894   4.690  0.8571 -1.2611  2.3592
  617MOL0     H85114  -0.352   8.756   4.856  1.2674  1.5554  1.3756
  617MOL0     H85115  -0.196   8.774   4.906 -0.8619  2.5424  0.8528
  617MOL0     H85116  -0.142   8.669   4.659 -0.5364  2.1010  0.6819
  617MOL0     H85117  -0.291   8.592   4.690  0.6091  0.0280 -1.5778
  617MOL0     H85118  -0.245   8.524   4.905 -0.1889 -2.0702 -0.3367
  617MOL0     H85119  -0.154   8.426   4.788 -0.0784  1.1996 -1.0227
  617MOL0     H85120   0.012   8.444   4.943  2.3089  0.2801  0.8642
  617MOL0     H85121  -0.041   8.602   4.993 -2.8216 -2.6223  0.8111
  617MOL0     H85122   0.058   8.701   4.787 -3.2942 -1.1946  2.0365
  617MOL0     H85123   0.049   8.550   4.707 -2.0402 -1.4416  1.3849
  617MOL0     H85124   0.274   8.490   4.856  1.5662  1.2489  1.0237
  617MOL0     H85125   0.238   8.637   4.935 -0.9019 -1.0080  1.4871
  617MOL0     H85126  -0.023   9.308   4.644 -0.2845  1.2734  0.4527
  617MOL0     H85127   0.204   9.355   4.674  0.7365  0.8877  0.9967
  617MOL0     H85128   0.607   9.202   4.695 -0.8264 -0.5334  0.6142
  617MOL0     H85129   0.852   9.174   4.656 -0.1275  4.3273  1.0012
  617MOL0     H85130   1.751  10.161   3.426  0.3840 -1.0272  2.6584
  617MOL0     H85131   1.815  10.377   3.372  2.2822 -2.4967  3.2898
  617MOL0     H85132   1.734  10.854   3.639  1.2773  1.4672  0.4721
  617MOL0     H85133   1.706  11.111   3.617 -0.4428 -1.1135  0.9441
  617MOL0     H85134   1.895  11.341   3.522 -0.4259 -2.8910  0.4378
  617MOL0     H85135   1.961  11.284   3.360  0.4031  0.1645 -0.3429
  617MOL0     H85136   1.746  11.481   3.364 -0.2662 -1.6704 -0.2969
  617MOL0     H85137   1.867  11.443   3.237  0.6117 -1.3696  0.1689
  617MOL0     H85138   1.942  11.588   3.506 -0.9876 -4.4571  0.4903
  617MOL0     H85139   2.034  11.524   3.374 -0.7885 -1.0945  0.3910
  617MOL0     H85140   1.949  11.692   3.210 -0.9661  1.3634 -0.9040
  617MOL0     H85141   2.009  11.773   3.359 -0.5326  1.5574 -0.4227
  617MOL0     H85142   1.591  11.871   3.373  1.7515  0.4936  2.4038
  617MOL0     H85143   1.826  11.078   3.211 -2.5710  0.1023 -0.1693
  617MOL0     H85144   1.965  10.844   3.145  1.1445 -2.2712  0.3535
  617MOL0     H85145   1.817  10.737   3.166 -1.8964  1.6658  0.8342
  617MOL0     H85146   1.801  10.898   3.103  0.2675  1.7353  0.4176
  618MOL0     O85147  10.564   8.223  10.429 -0.3003 -0.3165 -0.5231
  618MOL0     C85148  10.535   8.329  10.378  0.2308 -0.1815  0.5980
  618MOL0     O85149  10.542   8.446  10.440  0.3741 -0.1128 -0.3026
  618MOL0     C85150  10.575   8.458  10.575 -0.1799  0.0101  0.0393
  618MOL0     C85151  10.552   8.364  10.674  0.4537 -0.0410 -0.3582
  618MOL0     C85152  10.591   8.390  10.806  0.4812  0.4602 -0.3124
  618MOL0     C85153  10.662   8.506  10.845  0.0190 -0.2062  0.3635
  618MOL0     O85154  10.701   8.541  10.976 -0.3531 -0.6889  0.4579
  618MOL0     C85155  10.714   8.443  11.084  1.3142  0.2767 -0.4907
  618MOL0     C85156  10.804   8.499  11.201  0.4987 -1.2449  0.1296
  618MOL0     C85157  10.774   8.649  11.240 -0.0109  1.2340  0.2510
  618MOL0     C85158  10.841   8.680  11.372 -0.4488 -0.6114 -0.2918
  618MOL0     C85159  10.767   8.610  11.485  0.1492  0.7197 -0.8335
  618MOL0     C85160  10.838   8.640  11.620 -0.3937  0.0606  0.3150
  618MOL0     C85161  10.982   8.589  11.640  0.5769  0.0500  0.7113
  618MOL0     C85162  11.000   8.437  11.624 -0.5257  0.0497  0.0465
  618MOL0     N85163  10.948   8.351  11.737  1.0396  0.4457 -0.3550
  618MOL0     C85164  10.819   8.292  11.739 -0.2752 -0.4630 -0.2198
  618MOL0     C85165  10.811   8.238  11.852  0.9741 -0.1018 -0.5289
  618MOL0     C85166  10.692   8.164  11.904  0.3011 -0.7714 -0.1847
  618MOL0     C85167  10.571   8.262  11.937 -0.4574  0.1635 -0.1879
  618MOL0     C85168  10.445   8.177  11.938 -0.5828  0.3903  0.9655
  618MOL0     C85169  10.444   8.083  12.053  1.2837  0.1621 -0.5593
  618MOL0     O85170  10.319   8.030  12.063  0.4628 -0.0501  0.5960
  618MOL0     C85171  10.305   7.930  12.155  0.5943  0.5995 -1.0789
  618MOL0     C85172  10.216   7.825  12.121  0.2557 -0.4123  0.0236
  618MOL0     C85173  10.209   7.714  12.207  0.3160 -0.4283 -0.1974
  618MOL0     C85174  10.097   7.609  12.170  0.1155 -0.8906  0.0889
  618MOL0     C85175  10.277   7.713  12.327 -0.2776  0.0786 -0.3787
  618MOL0     C85176  10.259   7.615  12.432  0.0304 -0.3045 -0.6933
  618MOL0     O85177  10.367   7.566  12.488 -0.6280  1.0996 -0.5117
  618MOL0     C85178  10.363   7.458  12.573  0.3613  0.3657 -1.0489
  618MOL0     C85179  10.272   7.350  12.556 -0.5142 -1.1174 -0.1741
  618MOL0     C85180  10.245   7.248  12.651 -0.9944  0.9481 -0.3781
  618MOL0     C85181  10.317   7.261  12.769 -0.1177 -0.5783  0.3217
  618MOL0     O85182  10.300   7.185  12.882 -0.7211  0.8311 -0.1479
  618MOL0     C85183  10.222   7.061  12.878  0.0793 -0.5391  0.2468
  618MOL0     C85184  10.068   7.065  12.907  0.0276 -0.6311  1.1860
  618MOL0     C85185  10.052   7.092  13.059 -0.4482  0.8880  0.3843
  618MOL0     C85186   9.906   7.107  13.102  0.0008 -0.7650 -0.5062
  618MOL0     C85187   9.899   7.100  13.259 -0.5918 -0.1465  0.0987
  618MOL0     C85188   9.946   7.230  13.321 -0.0194 -0.6154 -0.1968
  618MOL0     C85189   9.904   7.232  13.470  0.5571 -0.4832 -0.5973
  618MOL0     C85190   9.959   7.358  13.539  0.5225  0.1229  0.2401
  618MOL0    Cl85191   9.895   7.518  13.481 -0.4309 -0.4563  0.3041
  618MOL0     C85192  10.404   7.371  12.792 -0.0168 -0.5653  0.5413
  618MOL0     C85193  10.428   7.464  12.689  0.5622  0.5199 -0.5418
  618MOL0     O85194  10.139   7.593  12.464 -0.2450 -0.1091  0.4295
  618MOL0     C85195  10.363   7.820  12.364  0.5899  0.6581  0.0506
  618MOL0     C85196  10.376   7.928  12.280  0.2303  0.3785 -0.4570
  618MOL0     N85197  10.934   8.256  11.923  0.3217  0.1931 -0.5232
  618MOL0     N85198  11.014   8.319  11.850 -0.5630 -0.6767 -0.5923
  618MOL0     C85199  10.686   8.603  10.745 -0.7193  0.3315 -0.3033
  618MOL0     C85200  10.635   8.576  10.614 -0.3823 -0.8440  0.7181
  618MOL0     C85201  10.487   8.324  10.238 -0.2348  0.8626 -0.5582
  618MOL0     C85202  10.457   8.195  10.187  0.6623  0.0912  0.6140
  618MOL0     C85203  10.419   8.181  10.041  1.0749 -0.6459  1.2178
  618MOL0     C85204  10.415   8.290   9.959 -0.5076 -0.0170  0.8129
  618MOL0     O85205  10.385   8.273   9.827  0.3596 -0.5222 -0.8770
  618MOL0     C85206  10.341   8.380   9.742  0.1837  0.0613 -0.9557
  618MOL0     C85207  10.218   8.343   9.655 -0.4017 -0.6505 -0.0671
  618MOL0     C85208  10.087   8.334   9.739 -0.4749 -0.5315 -0.0780
  618MOL0     C85209   9.978   8.258   9.653  0.2325 -0.2194 -0.1987
  618MOL0     C85210   9.881   8.350   9.585  0.0998 -0.1097  0.1651
  618MOL0     C85211   9.786   8.417   9.555 -0.0715  0.2979  0.6829
  618MOL0     C85212  10.450   8.419  10.015  0.5241  0.0457 -0.4027
  618MOL0     C85213  10.487   8.438  10.151  0.1866  0.0054 -0.5641
  618MOL0     C85214  10.536   8.571  10.197  0.5031 -0.6272  0.1845
  618MOL0     H85215  10.502   8.269  10.655  2.2851 -0.6453 -2.5644
  618MOL0     H85216  10.566   8.321  10.886 -2.0164  1.8866  0.2334
  618MOL0     H85217  10.756   8.348  11.050  5.5216  1.5964  0.3578
  618MOL0     H85218  10.615   8.420  11.125  2.2866 -3.2119  0.1732
  618MOL0     H85219  10.801   8.433  11.287 -0.4827  0.8646  1.8104
  618MOL0     H85220  10.901   8.502  11.150  0.3819 -0.5165 -0.0659
  618MOL0     H85221  10.796   8.702  11.147  1.4748 -0.7317 -0.5954
  618MOL0     H85222  10.667   8.660  11.260 -0.0032  1.6105  0.0895
  618MOL0     H85223  10.948   8.661  11.387 -0.1315  0.7941 -0.6009
  618MOL0     H85224  10.834   8.788  11.385  0.3699 -0.4431 -1.1220
  618MOL0     H85225  10.747   8.502  11.488 -0.8346  0.9221  1.1394
  618MOL0     H85226  10.670   8.661  11.496  1.3086  2.5646  2.0368
  618MOL0     H85227  10.841   8.749  11.629  0.2127  0.6508 -4.6470
  618MOL0     H85228  10.783   8.608  11.709 -1.7846  1.2151 -0.0940
  618MOL0     H85229  11.017   8.622  11.738 -2.8948  3.1345  1.0940
  618MOL0     H85230  11.052   8.629  11.566 -0.6895  1.0947  0.0560
  618MOL0     H85231  10.974   8.413  11.520 -1.4715  4.5180 -0.9705
  618MOL0     H85232  11.107   8.423  11.641 -0.3507  1.7632  0.5418
  618MOL0     H85233  10.742   8.317  11.667  0.6114  2.5975 -0.2442
  618MOL0     H85234  10.726   8.120  11.998  1.9957  0.8768  0.0291
  618MOL0     H85235  10.652   8.090  11.833 -2.6139 -0.6057  1.1215
  618MOL0     H85236  10.587   8.317  12.030 -0.8599  1.3540 -0.8106
  618MOL0     H85237  10.562   8.336  11.858  1.1300  1.2999  0.6329
  618MOL0     H85238  10.354   8.237  11.949 -1.4849 -0.4034 -1.5968
  618MOL0     H85239  10.434   8.115  11.849 -1.8487  1.6477  0.2111
  618MOL0     H85240  10.515   8.000  12.039  0.8782 -0.3318  0.2095
  618MOL0     H85241  10.470   8.139  12.143 -1.1798  0.6200 -0.0843
  618MOL0     H85242  10.157   7.824  12.030 -0.6594 -0.2620  0.5990
  618MOL0     H85243  10.135   7.510  12.146  0.5861 -1.1214  1.6706
  618MOL0     H85244  10.044   7.652  12.084  2.5998  1.0268 -0.5813
  618MOL0     H85245  10.013   7.600  12.240 -1.3139  1.7379 -1.1128
  618MOL0     H85246  10.221   7.344  12.461  1.4488 -0.7205 -1.2930
  618MOL0     H85247  10.165   7.176  12.634 -1.5286  1.0611  1.4222
  618MOL0     H85248  10.232   7.011  12.782 -2.3496 -0.4904 -0.1051
  618MOL0     H85249  10.268   6.996  12.953  3.8785  1.5506 -0.0225
  618MOL0     H85250  10.012   7.137  12.846 -0.1881 -2.1359 -0.4340
  618MOL0     H85251  10.034   6.964  12.884  3.2201 -1.2839 -1.2630
  618MOL0     H85252  10.101   7.183  13.094 -0.6966  1.3943 -0.5557
  618MOL0     H85253  10.092   7.001  13.106 -3.0909 -0.1975  0.7216
  618MOL0     H85254   9.843   7.025  13.070 -2.2045 -1.2336  4.1549
  618MOL0     H85255   9.870   7.203  13.063  2.0978  0.8401  1.2128
  618MOL0     H85256   9.800   7.073  13.296  0.4369 -1.1103  2.3342
  618MOL0     H85257   9.971   7.028  13.298 -1.4322 -0.0646  1.9198
  618MOL0     H85258   9.916   7.325  13.275  0.7856 -0.3730 -0.2279
  618MOL0     H85259  10.055   7.222  13.319  0.2893  2.0347  1.3642
  618MOL0     H85260   9.954   7.145  13.515 -2.7023 -2.1613  0.0694
  618MOL0     H85261   9.800   7.208  13.494  0.9863 -0.6449  1.3038
  618MOL0     H85262  10.068   7.368  13.536  0.8091 -2.4072  0.1199
  618MOL0     H85263   9.941   7.351  13.646 -0.2064  4.5067  0.6140
  618MOL0     H85264  10.449   7.376  12.891 -1.3526 -2.2614  1.2884
  618MOL0     H85265  10.469   7.563  12.710 -1.2427  1.1349  0.2462
  618MOL0     H85266  10.418   7.832  12.456  2.1484 -0.0612 -0.7537
  618MOL0     H85267  10.450   7.995  12.322  0.8155 -0.9663  0.7739
  618MOL0     H85268  10.717   8.706  10.761 -4.4978  1.3396  1.5288
  618MOL0     H85269  10.641   8.651  10.536 -1.5479 -0.0495  1.3451
  618MOL0     H85270  10.471   8.110  10.253 -0.2936  1.5157  2.7748
  618MOL0     H85271  10.385   8.082  10.015 -2.0846  0.4001  0.9381
  618MOL0     H85272  10.316   8.463   9.809  1.9435  0.3458 -0.6113
  618MOL0     H85273  10.425   8.389   9.674 -0.5204 -3.5828 -2.5588
  618MOL0     H85274  10.246   8.253   9.600  0.1788  0.8158 -2.2999
  618MOL0     H85275  10.205   8.431   9.592  0.4281  1.6030  2.6888
  618MOL0     H85276  10.103   8.273   9.828 -4.0157 -1.9732 -0.2414
  618MOL0     H85277  10.051   8.433   9.769 -2.5748 -0.1736 -3.2694
  618MOL0     H85278   9.918   8.193   9.717  2.0142  1.3291  3.3652
  618MOL0     H85279  10.017   8.205   9.565 -0.6224  0.1135 -0.7924
  618MOL0     H85280   9.703   8.482   9.540 -0.3707  0.4592  2.7250
  618MOL0     H85281  10.457   8.504   9.947  4.5787  0.2577  0.0267
  618MOL0     H85282  10.505   8.647  10.125 -0.7246 -3.2618 -2.2771
  618MOL0     H85283  10.505   8.608  10.295  1.6090  0.9817 -0.0296
  618MOL0     H85284  10.645   8.575  10.200  0.4681  1.9787  2.9538
  619MOL0     O85285  10.878   6.507   1.864  0.0152  0.4287 -0.0541
  619MOL0     C85286  10.991   6.510   1.806  0.3206  0.5175 -0.3864
  619MOL0     O85287  11.039   6.618   1.737 -1.0671  0.1022 -0.4343
  619MOL0     C85288  10.986   6.741   1.744  0.0571 -0.4056  0.2967
  619MOL0     C85289  10.885   6.793   1.820  0.4259 -0.1118 -0.2473
  619MOL0     C85290  10.844   6.924   1.801  0.0293  0.2382  0.4929
  619MOL0     C85291  10.907   7.010   1.716 -0.1586  0.6215 -0.1883
  619MOL0     O85292  10.887   7.144   1.708  0.3479  0.6111 -0.1523
  619MOL0     C85293  10.848   7.184   1.577 -0.4180 -0.0737  0.7265
  619MOL0     C85294  10.706   7.247   1.570 -0.4402 -0.0154 -0.7709
  619MOL0     C85295  10.659   7.298   1.430  0.0417 -0.0377 -0.2238
  619MOL0     C85296  10.741   7.412   1.377 -0.2893  0.7462 -0.4788
  619MOL0     C85297  10.662   7.542   1.406 -0.0889 -0.1717  0.6691
  619MOL0     C85298  10.747   7.660   1.348  0.4534  0.4349  0.4145
  619MOL0     C85299  10.677   7.788   1.359 -0.1153 -0.3285  0.5167
  619MOL0     C85300  10.586   7.819   1.234  0.1033 -0.4701  1.4554
  619MOL0     N85301  10.652   7.821   1.103  0.6301  0.0032  0.7249
  619MOL0     C85302  10.692   7.939   1.045  0.8242  0.6878 -0.4520
  619MOL0     C85303  10.706   7.904   0.914  0.4773 -0.4710 -0.3391
  619MOL0     C85304  10.744   8.002   0.797  0.8306  0.7682  0.9812
  619MOL0     C85305  10.885   8.059   0.789  1.4312  0.0203 -0.3022
  619MOL0     C85306  10.914   8.126   0.657 -0.4019  0.6853  0.7458
  619MOL0     C85307  10.990   8.039   0.541  0.5012 -0.0853  0.2391
  619MOL0     O85308  10.906   7.923   0.501 -0.5871  0.3649 -0.5423
  619MOL0     C85309  10.976   7.835   0.429  1.5423  0.2411  0.4725
  619MOL0     C85310  11.016   7.709   0.464  0.3649 -0.5837  0.2224
  619MOL0     C85311  11.090   7.636   0.369 -0.8356  0.2481 -0.2252
  619MOL0     C85312  11.116   7.504   0.406  0.1063  0.3881  0.8823
  619MOL0     C85313  11.114   7.678   0.232 -0.0293  0.5797  0.4993
  619MOL0     C85314  11.186   7.596   0.134  0.7487  0.0966  0.0247
  619MOL0     O85315  11.271   7.502   0.181 -0.1435 -0.1915  0.4323
  619MOL0     C85316  11.303   7.407   0.095 -0.7616 -0.6714  0.4824
  619MOL0     C85317  11.208   7.320   0.059  0.1834  1.0047  0.2657
  619MOL0     C85318  11.234   7.222  -0.028 -1.0562  1.0575  0.1056
  619MOL0     C85319  11.363   7.195  -0.069  0.6957  0.7091 -0.2525
  619MOL0     O85320  11.383   7.080  -0.148 -0.2113  0.4557 -0.1951
  619MOL0     C85321  11.510   7.023  -0.154 -0.6345 -0.4233  1.1682
  619MOL0     C85322  11.514   6.894  -0.225  0.3305 -0.0818 -0.0275
  619MOL0     C85323  11.657   6.856  -0.262  0.6503 -0.6333 -0.8736
  619MOL0     C85324  11.686   6.710  -0.231  1.2536  1.0651 -0.0832
  619MOL0     C85325  11.821   6.654  -0.252  0.1863 -0.8325  0.3455
  619MOL0     C85326  11.862   6.667  -0.394  0.7284 -0.6959 -0.0012
  619MOL0     C85327  11.820   6.554  -0.481  0.0378  0.2981 -0.4113
  619MOL0     C85328  11.831   6.561  -0.634 -0.9615 -0.0043  0.0576
  619MOL0    Cl85329  11.816   6.393  -0.706  0.2019  0.5699 -0.1957
  619MOL0     C85330  11.468   7.283  -0.027  0.2211 -0.4168 -0.4363
  619MOL0     C85331  11.438   7.388   0.064  0.0854  1.1999  0.4722
  619MOL0     O85332  11.159   7.610   0.015  0.8407  0.6423  0.0046
  619MOL0     C85333  11.058   7.803   0.198 -0.5120  0.0038 -0.4996
  619MOL0     C85334  10.994   7.877   0.293  0.7264 -0.4572 -0.2844
  619MOL0     N85335  10.679   7.772   0.898 -1.0179 -0.3494  0.1558
  619MOL0     N85336  10.650   7.719   1.009 -0.3606 -0.1498 -0.2369
  619MOL0     C85337  11.022   6.967   1.652 -0.8933  0.7285 -0.0094
  619MOL0     C85338  11.052   6.827   1.660 -1.3451 -0.8745  0.1698
  619MOL0     C85339  11.059   6.388   1.805 -0.1809  0.5443  0.6107
  619MOL0     C85340  11.011   6.293   1.902 -0.3350  0.6522  0.8516
  619MOL0     C85341  11.071   6.163   1.906 -0.5307 -0.1951  0.0507
  619MOL0     C85342  11.161   6.126   1.813 -0.5225  0.3738  0.2477
  619MOL0     O85343  11.227   6.007   1.834  0.1379 -0.4582 -0.8956
  619MOL0     C85344  11.258   5.934   1.715  0.5087  0.8884 -0.2192
  619MOL0     C85345  11.144   5.899   1.626  0.4860  0.5115  0.5263
  619MOL0     C85346  11.049   5.806   1.700 -0.5743  0.3440  0.0501
  619MOL0     C85347  10.902   5.812   1.641  0.5498  0.1682  0.6856
  619MOL0     C85348  10.825   5.907   1.720 -0.6112 -0.9785 -0.1636
  619MOL0     C85349  10.758   5.986   1.779  0.1034  0.4718  0.5845
  619MOL0     C85350  11.204   6.212   1.713  1.0934 -1.3049 -0.0545
  619MOL0     C85351  11.158   6.347   1.712  0.2896 -0.8573  0.2021
  619MOL0     C85352  11.204   6.425   1.588 -0.1507  0.4799 -0.2128
  619MOL0     H85353  10.836   6.738   1.900 -1.5836  1.3733 -0.3972
  619MOL0     H85354  10.756   6.952   1.858  0.0061  2.6164 -0.5777
  619MOL0     H85355  10.838   7.104   1.504 -0.5790  1.8240 -1.4372
  619MOL0     H85356  10.928   7.256   1.554  0.1085 -0.8587  0.0568
  619MOL0     H85357  10.637   7.166   1.599 -0.3097  0.1655  0.0605
  619MOL0     H85358  10.697   7.327   1.644 -0.8605 -0.0307 -0.8024
  619MOL0     H85359  10.670   7.220   1.354  1.0636 -1.5125  1.3509
  619MOL0     H85360  10.550   7.313   1.428 -0.1987 -1.2791 -3.5657
  619MOL0     H85361  10.834   7.431   1.432 -0.2796  0.0506 -0.2541
  619MOL0     H85362  10.770   7.408   1.272 -2.5522 -2.5192 -1.1176
  619MOL0     H85363  10.657   7.548   1.515  2.5535 -0.9610  0.8939
  619MOL0     H85364  10.568   7.540   1.350 -1.5105 -0.9157  2.9489
  619MOL0     H85365  10.838   7.670   1.408  1.6990  3.0955 -1.7193
  619MOL0     H85366  10.790   7.625   1.254 -1.1551 -0.7081  0.0603
  619MOL0     H85367  10.755   7.863   1.377  2.0858 -2.4392  0.3326
  619MOL0     H85368  10.616   7.803   1.449  2.1058  1.4337  1.8552
  619MOL0     H85369  10.506   7.745   1.230 -0.7623  0.4798 -0.1472
  619MOL0     H85370  10.534   7.915   1.235 -1.0814 -1.1089  2.1405
  619MOL0     H85371  10.700   8.042   1.080 -2.6254  1.9133 -2.7221
  619MOL0     H85372  10.665   8.077   0.797 -0.0136 -0.0920  1.9389
  619MOL0     H85373  10.723   7.941   0.709 -0.6960 -0.9846  2.4628
  619MOL0     H85374  10.892   8.139   0.863 -2.1788 -0.9225  1.2895
  619MOL0     H85375  10.954   7.976   0.801  1.0467 -0.3614 -0.6772
  619MOL0     H85376  10.821   8.166   0.615  0.3617  0.4250 -1.3406
  619MOL0     H85377  10.963   8.223   0.674 -1.0869  1.6107 -2.0254
  619MOL0     H85378  11.024   8.094   0.453  1.2037 -0.9705 -0.0524
  619MOL0     H85379  11.083   7.997   0.580  0.2943 -2.6492 -1.8142
  619MOL0     H85380  11.003   7.676   0.566 -0.1144 -2.5201 -0.4179
  619MOL0     H85381  11.225   7.498   0.420 -0.2511 -2.6284  3.5635
  619MOL0     H85382  11.079   7.426   0.338 -0.5208 -1.7068  3.4239
  619MOL0     H85383  11.074   7.479   0.504 -2.3829  0.5002 -0.0917
  619MOL0     H85384  11.108   7.340   0.096  0.8989  0.1796  2.8820
  619MOL0     H85385  11.152   7.156  -0.051  0.1961 -0.8169  0.7894
  619MOL0     H85386  11.571   7.087  -0.218 -0.8581 -0.3386  1.0415
  619MOL0     H85387  11.541   7.012  -0.049  0.3403  1.6381  1.1434
  619MOL0     H85388  11.466   6.821  -0.158 -1.6453  2.0626  1.0525
  619MOL0     H85389  11.463   6.900  -0.322 -3.0076 -4.1822  1.1310
  619MOL0     H85390  11.732   6.918  -0.212  0.7719 -1.3218 -0.1913
  619MOL0     H85391  11.679   6.873  -0.368  1.3574  0.0944 -0.6172
  619MOL0     H85392  11.614   6.648  -0.286 -0.0818  3.0471 -0.6741
  619MOL0     H85393  11.659   6.705  -0.125  2.3406  1.0891  0.2006
  619MOL0     H85394  11.889   6.714  -0.191 -1.9037  0.5554  1.4500
  619MOL0     H85395  11.819   6.551  -0.217 -0.6030 -0.9447  0.0018
  619MOL0     H85396  11.971   6.670  -0.391  0.8253 -2.8568 -0.1231
  619MOL0     H85397  11.813   6.751  -0.445  1.9339 -0.6481 -1.1407
  619MOL0     H85398  11.720   6.530  -0.444  0.5718 -0.7940  0.3876
  619MOL0     H85399  11.887   6.472  -0.454 -1.6488 -0.5206  1.6481
  619MOL0     H85400  11.934   6.595  -0.649 -0.2961  1.3296  5.4919
  619MOL0     H85401  11.751   6.619  -0.681 -0.5315  2.5748  2.2755
  619MOL0     H85402  11.566   7.263  -0.068  0.0856  0.8239 -1.4412
  619MOL0     H85403  11.523   7.445   0.100  1.5407 -1.2278  1.1262
  619MOL0     H85404  11.058   7.838   0.096  0.3580  3.0912  0.4572
  619MOL0     H85405  10.959   7.971   0.252  2.6690  0.2764 -0.3646
  619MOL0     H85406  11.087   7.017   1.581  1.4420  1.6854  2.6566
  619MOL0     H85407  11.134   6.787   1.601 -0.7113  0.9760 -0.2485
  619MOL0     H85408  10.939   6.327   1.975 -2.2597 -1.5082  0.1010
  619MOL0     H85409  11.039   6.099   1.987 -2.1554 -1.2391 -1.3226
  619MOL0     H85410  11.340   5.985   1.664  3.3390  0.0714  3.0799
  619MOL0     H85411  11.311   5.845   1.752  0.7495  2.3988  3.5929
  619MOL0     H85412  11.191   5.842   1.546  1.3669 -0.6601  1.8277
  619MOL0     H85413  11.077   5.977   1.589 -0.9575  0.1436  2.2140
  619MOL0     H85414  11.091   5.705   1.706 -0.0906  0.6056  1.4016
  619MOL0     H85415  11.049   5.841   1.804  1.6503  1.2661 -0.1894
  619MOL0     H85416  10.860   5.711   1.646 -0.3757  0.4219 -1.2842
  619MOL0     H85417  10.907   5.840   1.536  1.6955 -0.6044  0.5189
  619MOL0     H85418  10.689   6.032   1.848  1.7127  2.2293  1.1006
  619MOL0     H85419  11.276   6.171   1.643  2.6280  0.3523  0.4979
  619MOL0     H85420  11.296   6.380   1.551  0.6100  0.3320  1.7425
  619MOL0     H85421  11.118   6.424   1.520  1.0064 -1.6833 -1.7627
  619MOL0     H85422  11.227   6.530   1.607 -1.7084  0.8290 -0.1074
  620MOL0     O85423   7.177   3.182   8.213 -0.4764  0.6450  0.3744
  620MOL0     C85424   7.095   3.102   8.167 -1.0102  0.2958 -0.6490
  620MOL0     O85425   6.972   3.065   8.234  0.1258  0.7661  0.8726
  620MOL0     C85426   6.958   3.106   8.366 -0.0639  0.5381 -0.5994
  620MOL0     C85427   7.057   3.101   8.460 -0.9697  0.2163  0.0016
  620MOL0     C85428   7.041   3.154   8.591 -0.1101 -0.9204  0.5553
  620MOL0     C85429   6.914   3.202   8.628  0.0883 -0.0592  0.3419
  620MOL0     O85430   6.894   3.263   8.746 -1.4745  0.1249  0.3296
  620MOL0     C85431   6.779   3.232   8.830 -0.1544  0.6153  0.1003
  620MOL0     C85432   6.783   3.085   8.868  1.1972  0.2428  0.6341
  620MOL0     C85433   6.645   3.062   8.942 -0.2632 -0.1724  1.1442
  620MOL0     C85434   6.621   2.910   8.967  0.2553 -0.1668 -1.3613
  620MOL0     C85435   6.567   2.834   8.848 -0.3993 -0.5833 -0.0101
  620MOL0     C85436   6.529   2.698   8.872 -0.4761  0.0562 -1.0186
  620MOL0     C85437   6.468   2.610   8.755 -1.0099  0.2330 -0.7568
  620MOL0     C85438   6.335   2.664   8.711 -0.0009  0.0751  0.1599
  620MOL0     N85439   6.228   2.658   8.816 -0.8037 -0.0790  0.3740
  620MOL0     C85440   6.124   2.574   8.820 -0.0198  0.2694  0.5766
  620MOL0     C85441   6.047   2.635   8.908 -0.2705 -0.1440 -1.3728
  620MOL0     C85442   5.918   2.576   8.950  0.0537  0.4891  0.2789
  620MOL0     C85443   5.810   2.608   8.844 -0.2894 -0.2148  0.3114
  620MOL0     C85444   5.697   2.521   8.869  0.2163  0.6336 -0.4473
  620MOL0     C85445   5.593   2.595   8.954 -0.0956 -0.6718  0.4203
  620MOL0     O85446   5.643   2.631   9.088 -0.3428  0.8082 -0.2109
  620MOL0     C85447   5.548   2.645   9.182 -0.4898  0.2202  0.8417
  620MOL0     C85448   5.412   2.670   9.168 -0.1554  0.0695 -0.1186
  620MOL0     C85449   5.326   2.675   9.273 -1.5773 -0.1885 -0.4096
  620MOL0     C85450   5.185   2.727   9.235  0.3127 -0.2214 -0.3894
  620MOL0     C85451   5.373   2.633   9.401  0.5624 -0.4720 -1.0932
  620MOL0     C85452   5.275   2.621   9.519  0.2005  0.6314 -1.3583
  620MOL0     O85453   5.294   2.515   9.591 -0.4764  0.8134  0.3648
  620MOL0     C85454   5.276   2.505   9.730  0.2320  0.2105 -0.1897
  620MOL0     C85455   5.299   2.628   9.809 -0.0037 -0.0114  0.7175
  620MOL0     C85456   5.288   2.621   9.945 -0.5009  1.1888  0.2303
  620MOL0     C85457   5.242   2.503  10.005 -0.0984 -0.4275 -0.7014
  620MOL0     O85458   5.228   2.505  10.143 -0.1086 -0.4445  0.2345
  620MOL0     C85459   5.129   2.421  10.195 -0.6290 -0.0036  0.3518
  620MOL0     C85460   4.984   2.465  10.153 -0.6311  0.7861 -1.1074
  620MOL0     C85461   4.878   2.360  10.202  0.0994  0.8818  0.1624
  620MOL0     C85462   4.880   2.346  10.358 -0.7012  0.1824 -0.4257
  620MOL0     C85463   4.883   2.199  10.396 -0.1031 -0.4657  0.2044
  620MOL0     C85464   4.862   2.184  10.546  0.4870 -0.2211  0.2712
  620MOL0     C85465   4.850   2.031  10.583 -0.1070 -0.2057  0.8947
  620MOL0     C85466   4.824   1.999  10.726 -0.1556 -0.0714  0.4569
  620MOL0    Cl85467   4.655   2.041  10.778 -0.0644  0.3141 -0.3865
  620MOL0     C85468   5.221   2.387   9.925  0.8161 -1.1276 -0.7294
  620MOL0     C85469   5.238   2.393   9.793  0.1647 -0.1886 -0.0371
  620MOL0     O85470   5.178   2.690   9.524  0.4200 -0.8708 -0.3863
  620MOL0     C85471   5.508   2.600   9.421 -0.5953  0.1187  0.2456
  620MOL0     C85472   5.584   2.625   9.312  0.2360  0.4961  0.4778
  620MOL0     N85473   6.104   2.751   8.966 -0.6492  0.6658  0.4084
  620MOL0     N85474   6.215   2.763   8.902 -0.8583  0.3012  0.3268
  620MOL0     C85475   6.803   3.181   8.545 -0.8883 -0.9039  0.1756
  620MOL0     C85476   6.833   3.137   8.417  0.5528 -0.4672  1.4858
  620MOL0     C85477   7.110   3.041   8.032  0.6564  0.3632 -0.5004
  620MOL0     C85478   7.024   2.936   7.995 -0.0628 -0.1168 -0.6918
  620MOL0     C85479   7.025   2.885   7.866  0.0332 -0.5721 -0.1473
  620MOL0     C85480   7.119   2.929   7.771 -0.1773 -0.2443  0.1647
  620MOL0     O85481   7.126   2.862   7.647  0.3970  0.0292 -0.0311
  620MOL0     C85482   7.243   2.786   7.625 -0.2751  0.7507 -0.4991
  620MOL0     C85483   7.376   2.858   7.585  0.0097 -0.0595  0.4546
  620MOL0     C85484   7.377   2.889   7.435  0.6057 -0.0948 -0.8291
  620MOL0     C85485   7.480   2.842   7.344 -0.2352  0.3042 -0.7864
  620MOL0     C85486   7.456   2.857   7.202  0.8601  0.7993  0.9489
  620MOL0     C85487   7.442   2.861   7.079 -0.4572  0.4074 -0.7129
  620MOL0     C85488   7.193   3.038   7.802 -0.8175  0.8749 -0.3224
  620MOL0     C85489   7.190   3.095   7.928 -0.1203 -0.9706 -0.6014
  620MOL0     C85490   7.298   3.211   7.950 -0.2205 -0.1982  0.4115
  620MOL0     H85491   7.153   3.063   8.427 -0.3938  0.4773  1.2844
  620MOL0     H85492   7.117   3.156   8.668 -0.1694 -1.8083  0.6453
  620MOL0     H85493   6.679   3.257   8.793  0.4071  0.4307 -1.6479
  620MOL0     H85494   6.776   3.284   8.926 -0.7171 -0.1659  0.5224
  620MOL0     H85495   6.794   3.024   8.778 -2.0015  0.3566  0.0476
  620MOL0     H85496   6.867   3.070   8.936  1.7209 -1.0923 -0.2666
  620MOL0     H85497   6.634   3.114   9.038  0.3656 -0.1952  1.2300
  620MOL0     H85498   6.566   3.109   8.882  0.9413 -1.5414 -1.6563
  620MOL0     H85499   6.711   2.850   8.988  0.0543  0.2115  0.8903
  620MOL0     H85500   6.554   2.899   9.053  1.3917 -0.4934 -0.4773
  620MOL0     H85501   6.645   2.840   8.771 -1.7150  0.6916 -1.2990
  620MOL0     H85502   6.485   2.896   8.811  0.4899  1.6562  1.5409
  620MOL0     H85503   6.623   2.649   8.901 -0.9727 -1.5279 -1.9202
  620MOL0     H85504   6.459   2.692   8.957 -3.6517  3.9361 -3.0404
  620MOL0     H85505   6.459   2.508   8.792 -5.3006  1.0871  1.2227
  620MOL0     H85506   6.540   2.604   8.673  0.0304 -1.5666  0.2368
  620MOL0     H85507   6.363   2.768   8.689 -3.1057  1.2257  1.1266
  620MOL0     H85508   6.307   2.607   8.622 -0.6404 -1.5124  1.3299
  620MOL0     H85509   6.111   2.488   8.756 -1.4487  1.7166 -1.1849
  620MOL0     H85510   5.890   2.625   9.044 -0.7032 -0.3633  0.5149
  620MOL0     H85511   5.928   2.468   8.964  2.0190  0.7882  1.4840
  620MOL0     H85512   5.783   2.713   8.854  0.7406  0.2633 -1.4844
  620MOL0     H85513   5.860   2.598   8.747 -0.8578  1.9134 -0.2549
  620MOL0     H85514   5.647   2.489   8.777 -1.3340 -0.2057  0.6402
  620MOL0     H85515   5.715   2.432   8.930 -1.5766 -1.4273 -2.7283
  620MOL0     H85516   5.561   2.688   8.906 -0.5802 -0.0461  1.9189
  620MOL0     H85517   5.505   2.530   8.957 -1.3413  0.8124 -1.4881
  620MOL0     H85518   5.395   2.704   9.066  1.3878  1.1181 -0.0650
  620MOL0     H85519   5.114   2.644   9.232  1.6187 -1.3640 -2.4764
  620MOL0     H85520   5.185   2.764   9.133 -0.8157  2.2345  0.4216
  620MOL0     H85521   5.152   2.817   9.288  2.9943  2.4730 -2.8856
  620MOL0     H85522   5.335   2.722   9.766 -3.9213  0.6648 -1.5026
  620MOL0     H85523   5.310   2.707  10.008 -1.5018  0.0332  2.2936
  620MOL0     H85524   5.149   2.317  10.167  0.5805  0.4638 -0.6325
  620MOL0     H85525   5.143   2.442  10.301 -0.9231 -2.2747  0.8867
  620MOL0     H85526   4.961   2.564  10.193 -0.5493  0.5424 -0.4359
  620MOL0     H85527   4.977   2.482  10.045 -2.5076 -1.2933 -1.4050
  620MOL0     H85528   4.901   2.264  10.155 -0.4856 -0.1938  1.9493
  620MOL0     H85529   4.774   2.368  10.169 -0.1080 -2.3197 -0.2176
  620MOL0     H85530   4.793   2.390  10.409  1.8102  1.7875  2.8267
  620MOL0     H85531   4.970   2.397  10.394  0.7326 -2.9367  0.7798
  620MOL0     H85532   4.824   2.132  10.332 -1.8159  0.1644  1.0405
  620MOL0     H85533   4.987   2.168  10.383  0.4592  1.0484  0.8655
  620MOL0     H85534   4.763   2.217  10.580 -0.3417 -0.7635 -1.4985
  620MOL0     H85535   4.932   2.240  10.608 -0.2975  0.5798  0.4468
  620MOL0     H85536   4.941   1.983  10.547  1.0317  3.7375 -2.2259
  620MOL0     H85537   4.760   1.994  10.532  0.9043 -0.5987 -0.6625
  620MOL0     H85538   4.889   2.051  10.797 -1.0992  1.6183  0.1439
  620MOL0     H85539   4.844   1.895  10.753  2.0601 -0.2570 -1.6071
  620MOL0     H85540   5.174   2.302   9.973 -1.5977  0.7001  0.3437
  620MOL0     H85541   5.197   2.309   9.739  1.4008 -0.5509 -0.4607
  620MOL0     H85542   5.527   2.587   9.528 -2.5483  2.3430  0.9449
  620MOL0     H85543   5.691   2.609   9.326  0.1161 -1.4942 -0.5303
  620MOL0     H85544   6.703   3.207   8.578  0.1803  1.1686  2.1429
  620MOL0     H85545   6.748   3.114   8.353  2.3239 -1.9736 -0.4487
  620MOL0     H85546   6.976   2.886   8.080  4.4146 -0.3517  2.0142
  620MOL0     H85547   6.970   2.791   7.859 -1.7979  0.2984  1.6864
  620MOL0     H85548   7.260   2.728   7.716 -0.5281  2.6741  0.8236
  620MOL0     H85549   7.211   2.706   7.558  0.6417 -1.3122  1.4103
  620MOL0     H85550   7.457   2.787   7.606 -0.0877  0.3114  2.2491
  620MOL0     H85551   7.388   2.946   7.649  0.6219  1.1495 -1.2451
  620MOL0     H85552   7.284   2.845   7.398  0.3210  0.5578 -0.8987
  620MOL0     H85553   7.379   2.999   7.429  2.3064  0.1632  2.3352
  620MOL0     H85554   7.511   2.741   7.370 -2.0872  0.3255  1.8224
  620MOL0     H85555   7.569   2.903   7.365 -0.6113  1.2385 -1.7915
  620MOL0     H85556   7.433   2.862   6.972 -2.0805  2.0790 -0.6013
  620MOL0     H85557   7.262   3.071   7.725  1.6308 -0.0617  1.3030
  620MOL0     H85558   7.371   3.188   8.028  1.7775  1.1241 -0.9599
  620MOL0     H85559   7.350   3.224   7.855 -0.5985  3.5291  0.5403
  620MOL0     H85560   7.250   3.308   7.968  3.9223  2.4917 -1.3834
  621MOL0     O85561   5.960   3.104   0.235  0.0203  0.4876  0.1557
  621MOL0     C85562   5.949   2.990   0.203  0.4187  0.0884  0.7684
  621MOL0     O85563   5.892   2.887   0.275  0.1356 -0.3801 -0.3109
  621MOL0     C85564   5.768   2.901   0.306  0.5281 -0.0188 -0.0086
  621MOL0     C85565   5.730   2.916   0.438 -0.4131  0.8225 -0.6389
  621MOL0     C85566   5.600   2.949   0.471  0.2503 -0.6059 -0.8636
  621MOL0     C85567   5.500   2.980   0.371 -0.9368  0.1626 -0.9970
  621MOL0     O85568   5.380   3.031   0.404  0.0055  0.6305 -0.0834
  621MOL0     C85569   5.278   2.939   0.459  0.9919  0.2075 -0.2644
  621MOL0     C85570   5.227   2.850   0.346  0.7588  0.2234  0.5147
  621MOL0     C85571   5.318   2.724   0.331 -0.2946  0.4382  0.2761
  621MOL0     C85572   5.312   2.695   0.181  1.5097  0.1809  0.6069
  621MOL0     C85573   5.397   2.578   0.140  0.1076  0.4557 -0.9633
  621MOL0     C85574   5.354   2.446   0.190 -0.0098  0.5311 -0.1790
  621MOL0     C85575   5.209   2.399   0.141  0.1772  0.2040 -0.2800
  621MOL0     C85576   5.099   2.386   0.248 -0.2480 -0.4217  0.9703
  621MOL0     N85577   4.979   2.308   0.200 -0.9822 -0.1533 -0.3326
  621MOL0     C85578   4.867   2.367   0.157 -0.5824  0.3031 -0.4695
  621MOL0     C85579   4.777   2.267   0.140 -0.1417 -0.0480  0.5561
  621MOL0     C85580   4.629   2.264   0.091  0.8442 -0.1602 -0.3365
  621MOL0     C85581   4.570   2.123   0.115 -0.5637  0.0339 -0.2179
  621MOL0     C85582   4.415   2.123   0.104 -0.0683  0.0385 -0.2485
  621MOL0     C85583   4.354   1.982   0.134 -0.8823 -0.7467  0.3416
  621MOL0     O85584   4.213   1.981   0.097 -0.9695  0.6072 -0.0400
  621MOL0     C85585   4.156   1.858   0.080  0.1533  0.6067  0.7927
  621MOL0     C85586   4.061   1.842  -0.014 -1.1362 -0.0510 -0.2811
  621MOL0     C85587   3.986   1.720  -0.034  1.1785 -0.2618  0.5171
  621MOL0     C85588   3.864   1.724  -0.122 -0.1365 -0.5464  0.0841
  621MOL0     C85589   4.039   1.606   0.039  0.5969 -0.0933  0.4608
  621MOL0     C85590   3.977   1.467   0.025 -1.2932  0.6901  0.3650
  621MOL0     O85591   3.850   1.446  -0.005 -0.0339 -0.6845 -0.2540
  621MOL0     C85592   3.811   1.321  -0.031 -0.0757 -0.1126 -0.0498
  621MOL0     C85593   3.760   1.288  -0.152  0.4921 -0.2571  0.7429
  621MOL0     C85594   3.684   1.174  -0.167 -0.5150 -0.6682 -0.0701
  621MOL0     C85595   3.666   1.078  -0.062  0.1359  0.1335 -0.3229
  621MOL0     O85596   3.581   0.974  -0.068  0.7602 -0.1051 -0.0041
  621MOL0     C85597   3.547   0.926  -0.189 -0.3117 -0.0955 -0.3675
  621MOL0     C85598   3.464   0.801  -0.166 -0.5453 -0.1430 -0.0345
  621MOL0     C85599   3.408   0.754  -0.298 -0.0099 -0.5976  0.5883
  621MOL0     C85600   3.391   0.599  -0.289  0.5960  0.2644 -0.2874
  621MOL0     C85601   3.516   0.535  -0.363  0.5505 -0.9622 -0.8902
  621MOL0     C85602   3.502   0.378  -0.361 -0.2466  0.0289 -0.4715
  621MOL0     C85603   3.608   0.310  -0.455  0.4023 -1.3824  0.2413
  621MOL0     C85604   3.629   0.169  -0.425  0.1405 -0.2429 -1.1652
  621MOL0    Cl85605   3.773   0.100  -0.514  0.0743 -0.1391  0.0416
  621MOL0     C85606   3.725   1.108   0.064 -0.3655  0.2244  0.7475
  621MOL0     C85607   3.789   1.231   0.077  0.5882  0.6826  0.0459
  621MOL0     O85608   4.062   1.381   0.064 -0.2180 -0.2036  0.7847
  621MOL0     C85609   4.148   1.625   0.125  0.8015 -0.2775 -0.9674
  621MOL0     C85610   4.194   1.746   0.163 -0.0346  0.1642  0.4382
  621MOL0     N85611   4.828   2.152   0.196 -0.5638  0.8357  0.1920
  621MOL0     N85612   4.947   2.182   0.242 -0.1524 -0.2664  0.6181
  621MOL0     C85613   5.544   2.965   0.238  0.7973 -1.1435  0.0317
  621MOL0     C85614   5.674   2.928   0.203  0.4529  0.7347  0.9473
  621MOL0     C85615   6.020   2.948   0.080  0.0733 -0.2831 -0.5344
  621MOL0     C85616   6.097   2.834   0.081 -0.7768  0.7498 -0.2639
  621MOL0     C85617   6.177   2.794  -0.025  0.0004  0.2808  0.2831
  621MOL0     C85618   6.185   2.866  -0.145  0.6916  0.2138 -0.8859
  621MOL0     O85619   6.265   2.827  -0.256  0.1691 -0.2054  0.6366
  621MOL0     C85620   6.186   2.797  -0.381  0.4523 -0.1164  0.1588
  621MOL0     C85621   6.283   2.768  -0.494  1.4782  0.2534 -1.1982
  621MOL0     C85622   6.365   2.638  -0.457  0.1012 -0.0252  0.1657
  621MOL0     C85623   6.493   2.627  -0.540 -0.6528  0.4432 -0.0868
  621MOL0     C85624   6.467   2.628  -0.682  0.1925  0.4715 -0.5421
  621MOL0     C85625   6.431   2.606  -0.797 -0.8240 -0.3529  0.1724
  621MOL0     C85626   6.106   2.990  -0.141  0.6619 -0.0041 -0.8243
  621MOL0     C85627   6.021   3.028  -0.034  0.8545  0.3749 -1.1474
  621MOL0     C85628   5.923   3.144  -0.054 -0.1235 -0.5708  0.2971
  621MOL0     H85629   5.802   2.909   0.519 -2.0195  5.1670  1.4715
  621MOL0     H85630   5.582   2.960   0.577 -1.1103 -0.8359 -1.0440
  621MOL0     H85631   5.200   3.013   0.478  0.8717 -0.2395  1.1202
  621MOL0     H85632   5.302   2.882   0.550  0.3091  0.8594  0.3402
  621MOL0     H85633   5.124   2.818   0.361 -0.1136  1.3630 -2.3684
  621MOL0     H85634   5.239   2.904   0.252  0.3664 -0.3014  0.1576
  621MOL0     H85635   5.422   2.749   0.351  0.2803 -0.2550 -1.6074
  621MOL0     H85636   5.280   2.646   0.397  1.5250  1.0927  2.1754
  621MOL0     H85637   5.207   2.674   0.160  1.5895 -0.9487  1.2595
  621MOL0     H85638   5.348   2.784   0.129  0.1501  0.1375 -0.4502
  621MOL0     H85639   5.499   2.584   0.176 -1.1806  1.1340  2.9921
  621MOL0     H85640   5.394   2.578   0.030 -2.7466  2.5654 -1.0063
  621MOL0     H85641   5.437   2.378   0.170 -0.7467 -1.4701  2.8982
  621MOL0     H85642   5.357   2.445   0.300  3.4430 -0.7899 -0.1864
  621MOL0     H85643   5.209   2.306   0.082  0.3979 -0.7860  1.2234
  621MOL0     H85644   5.173   2.471   0.067 -0.7577 -1.5868 -1.6669
  621MOL0     H85645   5.136   2.328   0.333  0.0472  0.0176  1.1416
  621MOL0     H85646   5.079   2.491   0.269 -0.7452  0.5819 -3.4720
  621MOL0     H85647   4.851   2.473   0.136  0.0773  0.3518 -0.7543
  621MOL0     H85648   4.614   2.295  -0.013  0.0801 -0.8750 -0.4549
  621MOL0     H85649   4.574   2.344   0.141 -2.4318 -0.3873 -3.1706
  621MOL0     H85650   4.625   2.056   0.049  2.1054 -0.9048  2.7215
  621MOL0     H85651   4.588   2.099   0.220 -0.5855  0.6566 -0.0673
  621MOL0     H85652   4.377   2.202   0.169  1.0819 -0.1937  0.7532
  621MOL0     H85653   4.383   2.157   0.005 -0.1940  0.5844 -0.0208
  621MOL0     H85654   4.408   1.895   0.096 -0.0357  1.6824 -4.7845
  621MOL0     H85655   4.363   1.973   0.243  2.6070 -1.2014  0.1427
  621MOL0     H85656   4.037   1.924  -0.080  1.8897 -0.0769 -1.5704
  621MOL0     H85657   3.779   1.703  -0.057 -0.3411 -1.0200 -0.3275
  621MOL0     H85658   3.877   1.655  -0.206 -1.1417 -3.0103  1.8525
  621MOL0     H85659   3.847   1.824  -0.163 -0.5597 -0.4567  0.4759
  621MOL0     H85660   3.754   1.360  -0.234 -2.0030 -1.2322 -0.0435
  621MOL0     H85661   3.641   1.152  -0.264  2.5131 -2.8864 -1.0497
  621MOL0     H85662   3.483   0.999  -0.238  0.6220  0.7113 -0.4185
  621MOL0     H85663   3.634   0.896  -0.248 -0.3976 -1.6387  0.2332
  621MOL0     H85664   3.532   0.730  -0.119 -0.7111  1.0014  2.0383
  621MOL0     H85665   3.390   0.806  -0.087  1.2044 -0.9716  1.7414
  621MOL0     H85666   3.461   0.794  -0.385  0.1888  0.4513  1.1631
  621MOL0     H85667   3.305   0.788  -0.294 -0.0275 -0.0286 -2.6241
  621MOL0     H85668   3.299   0.566  -0.338 -0.2391 -1.5055  2.2631
  621MOL0     H85669   3.383   0.552  -0.191 -0.5098  0.5995 -0.2089
  621MOL0     H85670   3.519   0.572  -0.466  1.7297  1.7002  0.0346
  621MOL0     H85671   3.612   0.553  -0.314 -0.7221  2.5873  0.6091
  621MOL0     H85672   3.408   0.343  -0.403 -0.9742 -2.1215  2.6904
  621MOL0     H85673   3.507   0.341  -0.259  0.3183 -0.7815 -0.7867
  621MOL0     H85674   3.704   0.359  -0.434 -1.0168  0.6366  2.5811
  621MOL0     H85675   3.561   0.328  -0.552 -1.6080  0.6251  1.4896
  621MOL0     H85676   3.533   0.124  -0.449 -1.2653  2.3435 -0.7875
  621MOL0     H85677   3.658   0.167  -0.319  1.2548  0.5774 -1.4416
  621MOL0     H85678   3.706   1.046   0.151  2.2698 -2.0484 -0.1388
  621MOL0     H85679   3.835   1.248   0.174  0.1916  1.1468  0.1543
  621MOL0     H85680   4.192   1.539   0.174  2.1748  0.5425 -0.6969
  621MOL0     H85681   4.271   1.764   0.237 -2.4305  0.4423  2.9789
  621MOL0     H85682   5.478   2.981   0.154  1.4917  1.1251 -0.1604
  621MOL0     H85683   5.708   2.913   0.101 -0.3005  0.4690  0.7274
  621MOL0     H85684   6.111   2.775   0.171  0.9208  2.6271  0.7820
  621MOL0     H85685   6.252   2.716  -0.029  4.4694  4.1980 -3.1274
  621MOL0     H85686   6.120   2.710  -0.378  0.3215 -0.1093 -1.3932
  621MOL0     H85687   6.127   2.885  -0.408  0.9712 -0.0454 -0.8318
  621MOL0     H85688   6.348   2.856  -0.496  0.7423  0.7844 -2.1693
  621MOL0     H85689   6.232   2.753  -0.590 -2.7348  0.9479  0.7258
  621MOL0     H85690   6.393   2.648  -0.351 -2.3563 -0.5634  0.9418
  621MOL0     H85691   6.302   2.551  -0.477 -1.7429  1.2744  0.0147
  621MOL0     H85692   6.542   2.536  -0.503 -0.2363  1.2078  1.3118
  621MOL0     H85693   6.564   2.708  -0.523 -1.2380  0.6656  1.4279
  621MOL0     H85694   6.420   2.569  -0.897  0.2270  2.7147 -1.2015
  621MOL0     H85695   6.121   3.053  -0.228 -0.6748  3.1394  1.0519
  621MOL0     H85696   5.973   3.230  -0.008 -0.6100 -0.1327  0.0215
  621MOL0     H85697   5.920   3.171  -0.161  3.0379  1.0682  0.4885
  621MOL0     H85698   5.820   3.128  -0.021 -0.9614  0.8371 -1.4475
  622MOL0     O85699   0.469   8.097  10.395 -0.5178  0.3621 -0.3402
  622MOL0     C85700   0.407   8.100  10.505 -0.8845  1.0709  0.3535
  622MOL0     O85701   0.450   8.151  10.630  0.1045  0.2091  0.6413
  622MOL0     C85702   0.570   8.200  10.642  0.0731 -0.5723  0.5982
  622MOL0     C85703   0.590   8.338  10.681 -0.1863  0.0305 -0.7705
  622MOL0     C85704   0.718   8.392  10.697 -0.0120 -0.4877  0.5561
  622MOL0     C85705   0.831   8.313  10.679 -0.5835 -0.3591  0.0198
  622MOL0     O85706   0.952   8.366  10.719  0.4299 -0.6972  0.2008
  622MOL0     C85707   1.065   8.336  10.645  0.1434  0.3885 -0.9093
  622MOL0     C85708   1.177   8.434  10.693 -0.2864  1.3624  0.6218
  622MOL0     C85709   1.169   8.582  10.675  0.2289 -0.0558  0.1931
  622MOL0     C85710   1.275   8.654  10.766 -0.6681  1.1466  0.5820
  622MOL0     C85711   1.233   8.811  10.779  0.0740 -0.4412  0.1752
  622MOL0     C85712   1.335   8.882  10.877 -0.7411 -0.5070 -0.3223
  622MOL0     C85713   1.313   8.850  11.027 -0.3794 -0.2967  0.0893
  622MOL0     C85714   1.329   8.969  11.112 -0.1743 -0.3498 -0.4206
  622MOL0     N85715   1.282   8.944  11.253  0.2251 -0.3265 -0.2603
  622MOL0     C85716   1.160   9.002  11.289  0.3148 -0.0282  0.5754
  622MOL0     C85717   1.108   8.918  11.382 -0.3467  0.0424 -0.2251
  622MOL0     C85718   0.975   8.938  11.449  0.5752  0.5291 -0.1844
  622MOL0     C85719   0.878   8.873  11.351  0.1888  0.2065  0.4227
  622MOL0     C85720   0.733   8.920  11.365 -0.2995 -0.3840 -0.4008
  622MOL0     C85721   0.658   8.892  11.226  0.3061  0.1725 -0.9862
  622MOL0     O85722   0.517   8.923  11.255  0.0757  0.5372  0.2007
  622MOL0     C85723   0.427   8.926  11.154 -0.2023 -0.7640  0.6855
  622MOL0     C85724   0.304   8.971  11.190  0.9076  0.7569 -0.1600
  622MOL0     C85725   0.194   8.976  11.099  0.4754 -0.5905  0.7678
  622MOL0     C85726   0.066   9.027  11.145 -0.5572 -0.7677 -0.3097
  622MOL0     C85727   0.219   8.934  10.963  0.1201  0.4961  0.5786
  622MOL0     C85728   0.109   8.933  10.859  0.4528 -0.1209 -0.2378
  622MOL0     O85729   0.003   9.030  10.858 -0.9235  0.1826 -1.2878
  622MOL0     C85730  -0.061   9.063  10.752 -0.2826 -0.6050 -0.7419
  622MOL0     C85731  -0.122   8.966  10.671  0.4591  0.3955 -0.8196
  622MOL0     C85732  -0.196   9.004  10.562  0.7072 -0.2045 -0.0328
  622MOL0     C85733  -0.223   9.143  10.532 -0.5476  0.8108 -0.5363
  622MOL0     O85734  -0.308   9.180  10.432  0.0310  0.8738  0.1179
  622MOL0     C85735  -0.426   9.103  10.416 -0.1454  0.7155  0.4459
  622MOL0     C85736  -0.439   9.018  10.287 -0.7573 -0.1565 -0.1909
  622MOL0     C85737  -0.396   9.078  10.148 -0.7782 -0.3037 -0.5961
  622MOL0     C85738  -0.465   9.203  10.102  0.0179  0.4591  1.3539
  622MOL0     C85739  -0.384   9.271   9.979  0.4284 -0.0268 -0.3386
  622MOL0     C85740  -0.475   9.386   9.923 -1.1826  0.2856 -0.6580
  622MOL0     C85741  -0.398   9.462   9.810 -0.6477  0.7079 -0.1989
  622MOL0     C85742  -0.444   9.603   9.798 -0.1227  0.4357  0.4407
  622MOL0    Cl85743  -0.620   9.611   9.795  0.0316 -0.0419  0.0053
  622MOL0     C85744  -0.167   9.243  10.616  0.4394  0.7220 -0.6856
  622MOL0     C85745  -0.080   9.199  10.717  0.2850 -0.4666  0.1671
  622MOL0     O85746   0.129   8.850  10.778  0.5379  0.6438 -0.5134
  622MOL0     C85747   0.344   8.881  10.928  1.2828 -0.6052  0.8451
  622MOL0     C85748   0.445   8.875  11.024  0.9038  0.3438  0.0884
  622MOL0     N85749   1.193   8.812  11.402 -0.1458 -0.2016 -0.3456
  622MOL0     N85750   1.297   8.830  11.329  0.0993  0.1518 -0.3260
  622MOL0     C85751   0.815   8.180  10.641  0.9039  0.1877  0.4208
  622MOL0     C85752   0.686   8.127  10.631 -0.0739 -1.0054 -0.5521
  622MOL0     C85753   0.271   8.034  10.506  0.0892  0.5635 -0.7258
  622MOL0     C85754   0.218   7.981  10.379  0.1296  0.0861 -0.3377
  622MOL0     C85755   0.095   7.913  10.364  0.2531 -0.1178  0.2025
  622MOL0     C85756   0.021   7.896  10.477  0.5144  0.3579 -1.0822
  622MOL0     O85757  -0.103   7.837  10.465 -0.1770 -0.0044 -0.1511
  622MOL0     C85758  -0.122   7.725  10.373 -0.2983 -1.5269 -0.4306
  622MOL0     C85759  -0.268   7.671  10.381  0.7426  0.4450 -0.3269
  622MOL0     C85760  -0.306   7.614  10.527  0.4301  0.0610  0.5619
  622MOL0     C85761  -0.457   7.604  10.541  0.4334  0.0081 -0.5608
  622MOL0     C85762  -0.487   7.534  10.660 -0.2364  0.6441 -0.4218
  622MOL0     C85763  -0.509   7.477  10.767 -0.6997  0.3964 -0.2668
  622MOL0     C85764   0.065   7.938  10.608 -0.2132 -0.0381 -0.8281
  622MOL0     C85765   0.180   8.013  10.626 -0.5320  0.2792  0.3985
  622MOL0     C85766   0.217   8.062  10.761  0.6837 -0.0975  0.4360
  622MOL0     H85767   0.503   8.401  10.692  0.7039  1.2304 -0.3799
  622MOL0     H85768   0.722   8.494  10.735 -1.8299  1.4048 -3.6465
  622MOL0     H85769   1.039   8.345  10.539 -1.0843 -1.0503 -0.7625
  622MOL0     H85770   1.110   8.240  10.671 -0.7167  0.1807 -0.1415
  622MOL0     H85771   1.209   8.419  10.797  0.0155  3.3993  0.8576
  622MOL0     H85772   1.263   8.414  10.629  0.3982  0.7260  1.6936
  622MOL0     H85773   1.206   8.601  10.574 -0.9509 -1.9362 -0.6459
  622MOL0     H85774   1.071   8.626  10.697  1.1856  2.1140  0.3260
  622MOL0     H85775   1.274   8.595  10.858  0.3268  2.1437  1.2453
  622MOL0     H85776   1.376   8.636  10.728 -0.5648 -0.2168  1.4507
  622MOL0     H85777   1.127   8.833  10.793  0.9756  3.8659  1.7899
  622MOL0     H85778   1.250   8.838  10.674  0.4856 -2.6859 -0.3763
  622MOL0     H85779   1.439   8.864  10.852 -0.5852  1.4274 -1.2235
  622MOL0     H85780   1.330   8.990  10.862  1.2728 -0.6054 -2.0773
  622MOL0     H85781   1.384   8.770  11.050  3.2572  1.8219 -2.5717
  622MOL0     H85782   1.214   8.807  11.045 -0.9738  0.0868 -1.9917
  622MOL0     H85783   1.432   8.998  11.093 -0.9144  2.2347 -0.9093
  622MOL0     H85784   1.260   9.047  11.078  0.6928  1.2769  1.3576
  622MOL0     H85785   1.107   9.083  11.238  3.2059 -0.2302 -3.1978
  622MOL0     H85786   0.953   9.043  11.470 -4.1599 -0.5526  1.3319
  622MOL0     H85787   0.987   8.886  11.545  1.3758 -1.4646 -1.2988
  622MOL0     H85788   0.906   8.910  11.252  3.9179 -2.7512  0.1537
  622MOL0     H85789   0.893   8.765  11.361  1.0603  0.2024 -0.7400
  622MOL0     H85790   0.692   8.866  11.451  3.8885 -3.8353 -0.2420
  622MOL0     H85791   0.724   9.025  11.396  0.2398 -0.6649  0.7603
  622MOL0     H85792   0.700   8.952  11.144 -2.8286  3.8359 -0.2123
  622MOL0     H85793   0.667   8.785  11.205 -3.1256 -0.8213  1.7290
  622MOL0     H85794   0.294   8.985  11.297 -0.1223 -2.4468  0.2861
  622MOL0     H85795   0.058   9.132  11.115 -1.7823 -0.2200  1.7228
  622MOL0     H85796   0.054   9.013  11.253  2.6076  0.2290  0.2781
  622MOL0     H85797  -0.016   8.975  11.095  0.1745 -2.4110  0.1421
  622MOL0     H85798  -0.107   8.859  10.683  0.7521  0.4588 -0.5990
  622MOL0     H85799  -0.242   8.934  10.493 -2.2733 -0.1019  1.6989
  622MOL0     H85800  -0.441   9.039  10.504  0.8286  3.7119  2.9893
  622MOL0     H85801  -0.516   9.164  10.427 -0.4803  0.0719  1.4557
  622MOL0     H85802  -0.380   8.931  10.317  2.2765  2.3336  1.5477
  622MOL0     H85803  -0.542   8.984  10.269 -1.7081  2.2494  0.3171
  622MOL0     H85804  -0.411   8.996  10.078  2.8878 -0.6303 -1.1865
  622MOL0     H85805  -0.288   9.095  10.151 -1.1483  2.3275  1.3669
  622MOL0     H85806  -0.482   9.276  10.182 -2.0847  1.8230 -0.2397
  622MOL0     H85807  -0.565   9.178  10.066  0.4735 -0.9223  0.9931
  622MOL0     H85808  -0.294   9.325  10.010 -0.3499  0.7639  0.6328
  622MOL0     H85809  -0.353   9.194   9.907  1.2609 -2.1069  2.0700
  622MOL0     H85810  -0.496   9.450  10.009  2.5524  2.0386 -0.8491
  622MOL0     H85811  -0.566   9.349   9.875 -2.4605  2.1542  0.2071
  622MOL0     H85812  -0.408   9.408   9.715  2.1851 -1.6804  0.7071
  622MOL0     H85813  -0.291   9.462   9.832 -0.2164  0.5950 -2.1170
  622MOL0     H85814  -0.393   9.640   9.709  1.0048 -2.4883 -0.2482
  622MOL0     H85815  -0.423   9.658   9.891  1.7044  0.4401  0.0739
  622MOL0     H85816  -0.204   9.343  10.597  0.0737  0.8770  0.6886
  622MOL0     H85817  -0.031   9.279  10.772  0.1158  0.7167 -1.3542
  622MOL0     H85818   0.351   8.841  10.827 -3.5915  1.7109 -0.7259
  622MOL0     H85819   0.542   8.837  10.995  0.9443  0.4235  0.1204
  622MOL0     H85820   0.897   8.112  10.624 -0.2715 -0.9071 -1.0912
  622MOL0     H85821   0.682   8.023  10.599  1.9120 -1.8786  1.6974
  622MOL0     H85822   0.268   8.001  10.284  4.1288 -1.6018  1.1961
  622MOL0     H85823   0.065   7.888  10.263  0.2904  2.2577 -0.4745
  622MOL0     H85824  -0.110   7.758  10.269 -1.1515  1.6888  0.3653
  622MOL0     H85825  -0.038   7.663  10.404 -0.4564 -0.0953  3.3316
  622MOL0     H85826  -0.290   7.602  10.299  0.4446  1.3972 -1.0650
  622MOL0     H85827  -0.342   7.752  10.373 -0.2033 -0.5804 -3.4503
  622MOL0     H85828  -0.259   7.516  10.542  1.0339  0.4000  0.9393
  622MOL0     H85829  -0.265   7.680  10.604 -0.5794  0.0792  1.1069
  622MOL0     H85830  -0.505   7.550  10.460  0.1055  0.6411 -0.7915
  622MOL0     H85831  -0.503   7.703  10.542  1.8002  0.6834 -0.9939
  622MOL0     H85832  -0.525   7.430  10.862 -0.0993  2.3764  0.8896
  622MOL0     H85833   0.001   7.913  10.692  2.5036 -0.5150  1.2128
  622MOL0     H85834   0.210   8.171  10.773  1.8527  0.5830 -3.5393
  622MOL0     H85835   0.140   8.020  10.826 -1.2581 -0.8101 -2.1614
  622MOL0     H85836   0.316   8.025  10.788 -0.2956 -2.6932  0.7369
  623MOL0     O85837   5.018   7.970   4.713 -0.6507  0.1125  0.3983
  623MOL0     C85838   5.133   8.000   4.748  0.2424 -0.8833 -0.3758
  623MOL0     O85839   5.166   8.105   4.838 -0.7028  0.4667  0.9791
  623MOL0     C85840   5.082   8.207   4.850  0.3682 -0.2331 -0.2076
  623MOL0     C85841   5.065   8.276   4.975 -0.9272  0.2623  0.7293
  623MOL0     C85842   4.990   8.394   4.965 -0.3797  0.1265  0.2219
  623MOL0     C85843   4.932   8.449   4.850  0.0331  0.6703 -0.1076
  623MOL0     O85844   4.893   8.577   4.868  0.2930 -0.2924 -0.3672
  623MOL0     C85845   4.917   8.669   4.757 -0.4512 -0.1193  0.7934
  623MOL0     C85846   4.842   8.797   4.799  0.7784 -0.1997 -0.3973
  623MOL0     C85847   4.881   8.922   4.716 -0.5060 -0.0282  0.4358
  623MOL0     C85848   4.858   8.915   4.565  0.1740  1.0069  0.4649
  623MOL0     C85849   4.906   9.040   4.495  0.6167  0.2912  1.0112
  623MOL0     C85850   4.813   9.160   4.525 -0.1380 -0.8117 -0.2936
  623MOL0     C85851   4.877   9.291   4.479 -0.2553 -0.6586  0.2734
  623MOL0     C85852   4.774   9.406   4.434 -0.5113  0.1356 -0.6442
  623MOL0     N85853   4.706   9.470   4.547 -0.1894 -0.2829  0.0159
  623MOL0     C85854   4.767   9.556   4.642  0.8776  0.1539 -0.1904
  623MOL0     C85855   4.670   9.591   4.716  0.0868  0.0818  0.2211
  623MOL0     C85856   4.693   9.671   4.829  0.2727 -0.1193 -0.5327
  623MOL0     C85857   4.624   9.813   4.815  0.4596 -0.4379 -0.2157
  623MOL0     C85858   4.636   9.882   4.953 -0.0798  0.5422 -0.1544
  623MOL0     C85859   4.564  10.008   4.939 -0.7641  0.6054  0.0882
  623MOL0     O85860   4.645  10.090   4.845 -0.4945 -0.1274  0.8220
  623MOL0     C85861   4.639  10.230   4.867 -0.2381 -0.0648  0.4099
  623MOL0     C85862   4.732  10.304   4.938  0.8844 -1.0717 -0.0301
  623MOL0     C85863   4.725  10.440   4.957  0.3167  0.0410  0.5540
  623MOL0     C85864   4.804  10.493   5.073 -0.0236  0.3477 -0.1634
  623MOL0     C85865   4.627  10.516   4.890 -0.5653  0.0500 -1.1190
  623MOL0     C85866   4.608  10.669   4.902  0.9732 -0.1055  1.6608
  623MOL0     O85867   4.480  10.714   4.903 -0.6312  0.1653 -0.7624
  623MOL0     C85868   4.440  10.846   4.895 -0.0259 -0.6302 -0.5130
  623MOL0     C85869   4.379  10.892   5.014  0.3449 -0.1646  0.3494
  623MOL0     C85870   4.332  11.020   5.013  0.9985 -0.4820  0.1217
  623MOL0     C85871   4.346  11.114   4.906 -0.0617  0.2147  0.4125
  623MOL0     O85872   4.299  11.244   4.923 -0.3613  0.4460 -0.4007
  623MOL0     C85873   4.273  11.315   4.801  0.8160 -0.2817 -0.0153
  623MOL0     C85874   4.215  11.447   4.838 -0.9281 -0.3678  0.1175
  623MOL0     C85875   4.316  11.550   4.899 -0.8068  0.2528 -0.2121
  623MOL0     C85876   4.393  11.609   4.790 -0.5045  0.5783  0.4442
  623MOL0     C85877   4.480  11.736   4.812 -1.0412  0.0563 -0.3275
  623MOL0     C85878   4.564  11.712   4.930 -1.0405 -0.1326 -0.3045
  623MOL0     C85879   4.656  11.849   4.935  0.0633 -0.6670 -0.1096
  623MOL0     C85880   4.632  11.934   5.062 -0.2890 -0.0325  1.0903
  623MOL0    Cl85881   4.721  12.087   5.043 -0.1415 -0.0942 -0.1713
  623MOL0     C85882   4.417  11.067   4.794  1.4581 -0.2147  0.3125
  623MOL0     C85883   4.452  10.934   4.796 -0.6122  0.4924  0.7070
  623MOL0     O85884   4.710  10.740   4.900  0.1176  0.1690  0.6474
  623MOL0     C85885   4.539  10.442   4.805 -0.2255  0.1024 -0.0839
  623MOL0     C85886   4.552  10.300   4.793  1.2274  1.0498  0.5236
  623MOL0     N85887   4.553   9.528   4.679  0.2490 -0.2487 -0.8467
  623MOL0     N85888   4.581   9.459   4.577  0.2917  0.1066  0.2369
  623MOL0     C85889   4.934   8.374   4.733  0.4928 -1.3193 -0.1524
  623MOL0     C85890   5.009   8.260   4.736 -0.2565  0.1446 -0.7855
  623MOL0     C85891   5.239   7.923   4.688 -0.4522  0.3645  0.2341
  623MOL0     C85892   5.207   7.797   4.642  0.2484 -1.0772  0.1912
  623MOL0     C85893   5.306   7.711   4.598  0.0306  0.2562  0.4728
  623MOL0     C85894   5.437   7.746   4.587  0.3355  0.2347 -0.5580
  623MOL0     O85895   5.520   7.646   4.538 -0.4022  0.1549 -0.3758
  623MOL0     C85896   5.664   7.655   4.544 -0.7111  0.2142  0.3889
  623MOL0     C85897   5.706   7.588   4.674 -0.5298 -1.0970  0.2265
  623MOL0     C85898   5.750   7.696   4.772 -1.0997  0.2179 -0.5906
  623MOL0     C85899   5.893   7.750   4.758  0.9184  0.4432  0.9499
  623MOL0     C85900   5.934   7.801   4.624  0.2020 -0.2152  0.0647
  623MOL0     C85901   5.970   7.856   4.523  0.3417  0.8216  0.2144
  623MOL0     C85902   5.477   7.876   4.637 -0.6220  0.3959 -0.1292
  623MOL0     C85903   5.376   7.965   4.679 -0.3146  0.1851 -0.2427
  623MOL0     C85904   5.428   8.106   4.709 -0.2402  0.0638  0.3849
  623MOL0     H85905   5.123   8.233   5.055  1.1142 -0.1368 -0.8815
  623MOL0     H85906   4.977   8.455   5.053  0.0230  0.4864  0.0350
  623MOL0     H85907   4.882   8.633   4.660 -2.4162  1.2328  0.9415
  623MOL0     H85908   5.024   8.690   4.760 -0.8896  3.0425 -0.7173
  623MOL0     H85909   4.742   8.758   4.783  0.5133  0.2771  0.0745
  623MOL0     H85910   4.863   8.826   4.902  1.1460 -1.0321 -0.2287
  623MOL0     H85911   4.812   9.003   4.739 -2.2360 -0.0994 -3.6730
  623MOL0     H85912   4.977   8.954   4.757  0.1849 -1.1703 -0.2193
  623MOL0     H85913   4.920   8.832   4.531  0.3946  2.0372 -1.8810
  623MOL0     H85914   4.756   8.886   4.538 -0.1252  2.9019 -0.6749
  623MOL0     H85915   4.924   9.018   4.389 -2.4642  2.4948 -0.1395
  623MOL0     H85916   5.000   9.074   4.539 -0.1177  3.3121  0.4718
  623MOL0     H85917   4.720   9.141   4.470  0.6668  0.7417 -2.3602
  623MOL0     H85918   4.777   9.167   4.628  0.7332 -0.1569 -0.0201
  623MOL0     H85919   4.947   9.270   4.397 -0.3840 -0.4123  0.1003
  623MOL0     H85920   4.954   9.327   4.548  0.7641  0.4611 -1.3885
  623MOL0     H85921   4.817   9.481   4.367  1.5248 -1.2266 -0.9651
  623MOL0     H85922   4.695   9.359   4.374 -1.3872 -0.8147  1.1698
  623MOL0     H85923   4.872   9.576   4.657  1.0194 -1.5737  1.4488
  623MOL0     H85924   4.802   9.685   4.829  0.2880 -0.1359 -1.8358
  623MOL0     H85925   4.656   9.615   4.916 -0.2631  1.3877  0.2480
  623MOL0     H85926   4.676   9.870   4.737  0.6916 -1.1188 -0.5737
  623MOL0     H85927   4.517   9.809   4.791  0.1556  0.3327  0.9516
  623MOL0     H85928   4.587   9.822   5.030  0.1633  1.5209  0.7814
  623MOL0     H85929   4.738   9.914   4.977 -0.6853  4.9977 -2.4217
  623MOL0     H85930   4.462   9.983   4.910  0.4087 -3.1970 -1.2930
  623MOL0     H85931   4.552  10.054   5.038 -1.0395  0.1189  0.2816
  623MOL0     H85932   4.808  10.258   5.000  0.5548  0.6721  1.7525
  623MOL0     H85933   4.813  10.432   5.163  0.3009  1.4201  0.5437
  623MOL0     H85934   4.763  10.593   5.091 -0.5134  0.4874 -1.8198
  623MOL0     H85935   4.909  10.499   5.043 -0.3866  0.5571 -1.4785
  623MOL0     H85936   4.365  10.829   5.101  1.0090 -0.3500  0.3324
  623MOL0     H85937   4.280  11.049   5.103  1.2736 -2.1764  0.8665
  623MOL0     H85938   4.359  11.338   4.739 -0.3758 -0.4710 -1.8070
  623MOL0     H85939   4.202  11.258   4.741  0.8924  0.9745 -1.3691
  623MOL0     H85940   4.176  11.493   4.747 -1.7287  0.7578  0.9798
  623MOL0     H85941   4.132  11.436   4.909 -0.0765  0.0669  1.2088
  623MOL0     H85942   4.380  11.499   4.971  0.7920 -3.1095 -3.6611
  623MOL0     H85943   4.260  11.629   4.950 -1.3953  0.1574 -0.6837
  623MOL0     H85944   4.318  11.649   4.720  1.4695  3.9996  0.0679
  623MOL0     H85945   4.455  11.530   4.746 -3.4894 -2.8254  1.8349
  623MOL0     H85946   4.535  11.751   4.718  2.5638  1.8287  1.8307
  623MOL0     H85947   4.418  11.824   4.828 -2.6227 -0.9106 -0.8658
  623MOL0     H85948   4.630  11.625   4.935  0.4763  0.9077  6.1156
  623MOL0     H85949   4.499  11.699   5.017 -0.1255 -0.7687  0.2926
  623MOL0     H85950   4.642  11.913   4.848 -1.8892 -0.4254  0.3367
  623MOL0     H85951   4.762  11.821   4.939  0.6792  1.5410  2.3488
  623MOL0     H85952   4.651  11.890   5.160  2.8434  1.1336  1.1111
  623MOL0     H85953   4.523  11.944   5.071 -0.1992 -0.8357  3.8518
  623MOL0     H85954   4.444  11.118   4.703  0.6332  0.0886  0.2297
  623MOL0     H85955   4.516  10.895   4.718 -0.3624 -1.7243  1.9284
  623MOL0     H85956   4.459  10.503   4.765  0.1962  0.5731 -0.2305
  623MOL0     H85957   4.499  10.244   4.716  0.9533  0.7864  0.9019
  623MOL0     H85958   4.890   8.406   4.639 -1.8832  1.4513  1.6858
  623MOL0     H85959   5.022   8.215   4.638 -0.5845 -3.0406  0.5047
  623MOL0     H85960   5.107   7.757   4.632 -1.4433  1.3720  4.5522
  623MOL0     H85961   5.276   7.610   4.571 -3.6035  1.3021  0.1105
  623MOL0     H85962   5.705   7.605   4.455 -0.8828 -1.1945  1.0807
  623MOL0     H85963   5.688   7.762   4.550  0.2578  0.0141  0.3375
  623MOL0     H85964   5.791   7.518   4.671  4.2315  3.5919  4.3576
  623MOL0     H85965   5.622   7.536   4.720  2.3544 -2.8666  4.0853
  623MOL0     H85966   5.677   7.778   4.770 -2.1526 -0.6583  0.7816
  623MOL0     H85967   5.745   7.642   4.866  2.4203 -2.0231 -1.4904
  623MOL0     H85968   5.953   7.664   4.788  2.1670  0.6329 -0.8579
  623MOL0     H85969   5.905   7.831   4.831 -1.5212  2.9424 -1.1986
  623MOL0     H85970   6.022   7.902   4.442 -0.5037 -1.8241 -1.9721
  623MOL0     H85971   5.577   7.917   4.622 -0.6426  0.1175 -1.0335
  623MOL0     H85972   5.447   8.103   4.817  0.0256 -0.0588  0.3376
  623MOL0     H85973   5.526   8.126   4.664 -0.6817 -0.1794 -0.7246
  623MOL0     H85974   5.351   8.182   4.695  1.1105  1.3606 -0.1906
  624MOL0     O85975  10.335   3.503   7.829  0.2945  0.0986  0.0452
  624MOL0     C85976  10.433   3.451   7.877 -0.9083  0.4813 -0.2190
  624MOL0     O85977  10.485   3.335   7.840  1.4072 -0.1775  0.4880
  624MOL0     C85978  10.404   3.244   7.771  0.1713 -0.3675  0.1833
  624MOL0     C85979  10.270   3.217   7.800  0.1072  0.1854 -0.9143
  624MOL0     C85980  10.196   3.119   7.737 -0.4615  0.5984  1.4008
  624MOL0     C85981  10.253   3.044   7.632  0.0021 -0.1610 -0.1677
  624MOL0     O85982  10.181   2.959   7.558  0.3142  0.3894  0.8135
  624MOL0     C85983  10.055   2.912   7.611  0.4421 -0.0348 -0.3458
  624MOL0     C85984  10.007   2.783   7.541 -0.2320 -0.5081 -0.6342
  624MOL0     C85985  10.083   2.655   7.575 -0.3880 -1.0630 -0.5427
  624MOL0     C85986  10.231   2.660   7.515 -0.0504  0.3285 -0.0431
  624MOL0     C85987  10.283   2.518   7.502  0.1489 -0.1081 -0.3626
  624MOL0     C85988  10.416   2.504   7.425  0.2916  0.0628 -0.6897
  624MOL0     C85989  10.400   2.523   7.276  0.5885  0.0791 -0.0168
  624MOL0     C85990  10.358   2.394   7.194 -0.3508  0.1817 -1.3522
  624MOL0     N85991  10.332   2.425   7.059  0.3218  0.1503 -0.1757
  624MOL0     C85992  10.414   2.378   6.964 -0.3084  0.8797  0.2271
  624MOL0     C85993  10.360   2.414   6.847 -0.2878 -1.0917 -0.0946
  624MOL0     C85994  10.418   2.395   6.698  0.5567  0.3778 -1.1822
  624MOL0     C85995  10.313   2.370   6.600 -0.2385  0.1620  0.6024
  624MOL0     C85996  10.239   2.249   6.628 -0.6217 -0.2740 -0.2582
  624MOL0     C85997  10.116   2.232   6.534 -0.1113 -1.0520  0.5337
  624MOL0     O85998  10.137   2.273   6.404 -0.4216  0.1933 -1.0819
  624MOL0     C85999  10.042   2.264   6.312  0.4017 -0.7593  0.8352
  624MOL0     C86000   9.903   2.273   6.343  0.9420 -0.5705 -0.2545
  624MOL0     C86001   9.798   2.283   6.249 -0.0354  0.4907 -0.3539
  624MOL0     C86002   9.659   2.328   6.291 -0.9328 -0.4891  0.2357
  624MOL0     C86003   9.838   2.266   6.114  0.3492  0.4958  0.7195
  624MOL0     C86004   9.743   2.263   6.004 -0.1280  0.1056  0.7887
  624MOL0     O86005   9.735   2.143   5.930  0.4387  0.2484  0.8548
  624MOL0     C86006   9.694   2.150   5.795  0.3855  0.3098 -0.6661
  624MOL0     C86007   9.783   2.183   5.697 -0.0171  0.0852 -0.0426
  624MOL0     C86008   9.738   2.204   5.561 -1.0876  0.5834  0.0249
  624MOL0     C86009   9.601   2.196   5.540 -0.3232  0.0730  0.2164
  624MOL0     O86010   9.565   2.218   5.410  0.7584 -0.4492  0.9944
  624MOL0     C86011   9.427   2.241   5.379  0.4138  0.8793 -0.1703
  624MOL0     C86012   9.370   2.372   5.438 -0.3515 -1.4281  0.6484
  624MOL0     C86013   9.223   2.406   5.394  0.1330  0.3647  0.2313
  624MOL0     C86014   9.211   2.446   5.246  0.1607  0.1770  0.1508
  624MOL0     C86015   9.064   2.442   5.194 -0.1777 -0.7175  0.3148
  624MOL0     C86016   9.014   2.308   5.144  0.3175  0.1131  0.1454
  624MOL0     C86017   8.865   2.305   5.110  0.4342  0.5475  0.6144
  624MOL0     C86018   8.824   2.357   4.974  0.6988 -0.4845  0.2171
  624MOL0    Cl86019   8.651   2.361   4.946 -0.2243 -0.0264  0.0376
  624MOL0     C86020   9.519   2.142   5.645  0.6402  0.4938  0.2820
  624MOL0     C86021   9.560   2.130   5.775  0.1046 -0.7664  0.5070
  624MOL0     O86022   9.690   2.371   5.971 -0.4353  0.0543  0.3984
  624MOL0     C86023   9.980   2.245   6.083  0.0052 -0.0580  0.5393
  624MOL0     C86024  10.072   2.246   6.183 -0.4185  1.0203 -0.5500
  624MOL0     N86025  10.246   2.486   6.882  0.6628 -0.1932 -0.7996
  624MOL0     N86026  10.225   2.492   7.012  0.4886  0.1862  0.2669
  624MOL0     C86027  10.390   3.053   7.615 -0.8096 -0.2642 -0.2640
  624MOL0     C86028  10.466   3.148   7.696  0.2650 -0.5451 -0.1030
  624MOL0     C86029  10.493   3.522   7.993 -0.0827 -0.3251 -0.0356
  624MOL0     C86030  10.601   3.463   8.061  0.1213  0.0904 -0.0951
  624MOL0     C86031  10.664   3.520   8.173 -0.1449 -0.1462 -0.8812
  624MOL0     C86032  10.620   3.646   8.227 -0.1889 -0.1213  1.1220
  624MOL0     O86033  10.655   3.706   8.345 -0.5064  0.0716 -0.1520
  624MOL0     C86034  10.754   3.639   8.430 -0.4846 -0.9688  0.1180
  624MOL0     C86035  10.694   3.514   8.476 -0.1420  0.2560  0.2115
  624MOL0     C86036  10.563   3.522   8.546 -0.5103 -0.8740 -1.1264
  624MOL0     C86037  10.519   3.399   8.631 -0.2745  0.2884  1.4850
  624MOL0     C86038  10.391   3.429   8.694  0.5798  0.3755 -0.6316
  624MOL0     C86039  10.278   3.441   8.724  0.0175  0.2299  0.1375
  624MOL0     C86040  10.522   3.713   8.157  0.9608  0.3685 -0.9248
  624MOL0     C86041  10.462   3.655   8.041  0.8369 -0.0281 -0.2185
  624MOL0     C86042  10.372   3.755   7.969 -0.7323 -0.1773 -0.6062
  624MOL0     H86043  10.235   3.283   7.878  0.8222 -1.0555  0.5252
  624MOL0     H86044  10.097   3.103   7.779 -0.5925 -1.7555  0.3655
  624MOL0     H86045   9.979   2.983   7.576  1.7903  0.6152 -2.1250
  624MOL0     H86046  10.052   2.899   7.720  2.0425  5.5935  0.6944
  624MOL0     H86047   9.901   2.766   7.565 -0.5411  2.5761  0.6263
  624MOL0     H86048  10.004   2.803   7.434  4.2532 -3.1056 -1.5016
  624MOL0     H86049  10.082   2.639   7.683 -3.3559  1.6643 -0.0255
  624MOL0     H86050  10.024   2.575   7.529 -1.8606 -0.9618  1.0674
  624MOL0     H86051  10.230   2.705   7.415  0.4243 -0.3821 -0.3776
  624MOL0     H86052  10.289   2.719   7.586  0.9580 -1.9993  1.1537
  624MOL0     H86053  10.209   2.450   7.460 -0.7957 -0.0264  1.0819
  624MOL0     H86054  10.299   2.486   7.606 -2.1629  1.2451  0.4837
  624MOL0     H86055  10.482   2.585   7.459 -0.6609  1.1354 -1.3315
  624MOL0     H86056  10.461   2.408   7.454 -0.4307  0.6362  2.8305
  624MOL0     H86057  10.497   2.554   7.237 -0.5129  1.9353 -1.4344
  624MOL0     H86058  10.326   2.601   7.258  1.0566  0.4817 -0.1973
  624MOL0     H86059  10.434   2.318   7.214  0.0281  0.6447 -1.0240
  624MOL0     H86060  10.266   2.344   7.225  0.4931  0.1301  1.2624
  624MOL0     H86061  10.492   2.306   6.987 -0.7018  0.0672 -0.8771
  624MOL0     H86062  10.483   2.307   6.700  0.5990  0.4166 -0.5700
  624MOL0     H86063  10.481   2.480   6.669  4.0031 -3.0735 -5.1550
  624MOL0     H86064  10.240   2.451   6.603 -0.9676 -0.4425 -0.2079
  624MOL0     H86065  10.355   2.358   6.500  2.1081 -1.4917  1.6825
  624MOL0     H86066  10.305   2.163   6.616 -1.0952 -0.5796 -0.7106
  624MOL0     H86067  10.206   2.258   6.732  0.2308 -1.3740  0.1273
  624MOL0     H86068  10.079   2.129   6.535 -0.3723 -0.9610  1.6037
  624MOL0     H86069  10.035   2.300   6.561 -1.0916 -1.6919 -0.6546
  624MOL0     H86070   9.857   2.296   6.438  2.9108  1.3148  0.3297
  624MOL0     H86071   9.583   2.325   6.213  0.3185  2.2485 -1.2257
  624MOL0     H86072   9.674   2.425   6.338 -1.4434 -0.0339 -0.5279
  624MOL0     H86073   9.621   2.262   6.370 -3.0084  0.9028  0.4755
  624MOL0     H86074   9.889   2.188   5.722  0.0101 -4.1791  1.4899
  624MOL0     H86075   9.812   2.217   5.483  2.2882 -2.4660  2.3910
  624MOL0     H86076   9.403   2.251   5.272 -4.5519  0.5670  0.6825
  624MOL0     H86077   9.370   2.150   5.401  0.4374  0.9792  0.3173
  624MOL0     H86078   9.383   2.369   5.546  1.2060  2.0173  0.7063
  624MOL0     H86079   9.446   2.443   5.402 -0.3887 -0.4321  2.4357
  624MOL0     H86080   9.187   2.485   5.461 -0.9400  0.0366  0.0531
  624MOL0     H86081   9.177   2.308   5.408  0.2894 -0.2548 -2.9104
  624MOL0     H86082   9.268   2.378   5.182  1.1378  1.2820 -0.1913
  624MOL0     H86083   9.238   2.551   5.229  0.0086  0.1740 -0.1203
  624MOL0     H86084   8.997   2.469   5.276 -0.3434 -2.2043  0.7045
  624MOL0     H86085   9.048   2.517   5.116  2.4877  1.8038  1.9731
  624MOL0     H86086   9.033   2.233   5.221  2.0587 -1.2359 -1.5041
  624MOL0     H86087   9.069   2.282   5.053  2.1975 -1.0903  1.5299
  624MOL0     H86088   8.803   2.362   5.180 -2.3223 -2.4119  0.8436
  624MOL0     H86089   8.825   2.203   5.112 -3.7119  1.9779  0.2403
  624MOL0     H86090   8.869   2.303   4.890 -0.0407  3.6130 -3.2176
  624MOL0     H86091   8.846   2.464   4.963  1.1305 -0.6317 -0.4149
  624MOL0     H86092   9.419   2.119   5.611  0.0790  0.5614  1.7939
  624MOL0     H86093   9.490   2.080   5.841  1.5912 -1.8641  1.3138
  624MOL0     H86094  10.011   2.235   5.980  0.0821 -0.8855  0.6378
  624MOL0     H86095  10.174   2.224   6.151 -0.8144  3.7887 -4.4124
  624MOL0     H86096  10.441   2.987   7.546  0.0790  0.6212 -0.4746
  624MOL0     H86097  10.575   3.151   7.690  0.2823 -3.0439 -2.7705
  624MOL0     H86098  10.650   3.367   8.048  0.7724  0.0943  1.9800
  624MOL0     H86099  10.750   3.471   8.217 -1.5425 -0.6353  1.4899
  624MOL0     H86100  10.851   3.625   8.381  0.7583  3.0985  1.0596
  624MOL0     H86101  10.784   3.704   8.513  0.5016 -0.1738 -0.8343
  624MOL0     H86102  10.760   3.459   8.543 -0.5772 -1.1371 -0.4643
  624MOL0     H86103  10.684   3.433   8.404  1.0853  0.2354  0.0501
  624MOL0     H86104  10.558   3.605   8.617  0.3325 -2.8966  1.4427
  624MOL0     H86105  10.486   3.535   8.469 -2.7037 -1.7168  0.7923
  624MOL0     H86106  10.576   3.379   8.722 -1.4130 -1.2022  1.9164
  624MOL0     H86107  10.507   3.305   8.576  4.7688 -0.0680  0.4670
  624MOL0     H86108  10.179   3.442   8.766  0.5203 -0.4288  1.3966
  624MOL0     H86109  10.494   3.805   8.207  1.4988 -0.9157  1.9160
  624MOL0     H86110  10.272   3.711   7.975  0.2281 -2.2951  2.8774
  624MOL0     H86111  10.367   3.852   8.019 -0.1164 -0.1389 -0.6065
  624MOL0     H86112  10.414   3.780   7.871 -1.9096 -1.6402 -1.5230
  625MOL0     O86113   3.665   7.203   5.191  0.1291 -0.4658 -0.5950
  625MOL0     C86114   3.648   7.138   5.092  0.3308  0.3595  0.7639
  625MOL0     O86115   3.627   7.006   5.086  0.6285  0.1814  0.5789
  625MOL0     C86116   3.651   6.927   5.194 -0.1389 -0.7225  0.1462
  625MOL0     C86117   3.790   6.895   5.212 -0.1228  0.3236  0.3563
  625MOL0     C86118   3.828   6.821   5.327  0.3299 -0.3623  0.5020
  625MOL0     C86119   3.734   6.789   5.430 -0.4763 -0.3324  0.2133
  625MOL0     O86120   3.760   6.711   5.544  0.2784  0.4702  0.0156
  625MOL0     C86121   3.832   6.799   5.635 -0.2244  1.5540 -0.5257
  625MOL0     C86122   3.859   6.716   5.756 -0.1816  0.3678  0.1077
  625MOL0     C86123   3.990   6.736   5.822  0.2986 -0.1773 -0.8959
  625MOL0     C86124   4.020   6.634   5.925 -1.1219  1.6893 -0.9523
  625MOL0     C86125   4.168   6.620   5.983 -0.2076  0.1068 -0.1363
  625MOL0     C86126   4.184   6.507   6.090 -0.3389 -0.2799 -0.7597
  625MOL0     C86127   4.190   6.369   6.020 -0.3900 -0.1533  0.2286
  625MOL0     C86128   4.311   6.370   5.932 -1.7106  0.5500  0.3087
  625MOL0     N86129   4.343   6.239   5.883 -0.0405 -0.2104 -0.8921
  625MOL0     C86130   4.254   6.141   5.825  0.1859 -0.6653 -1.6685
  625MOL0     C86131   4.324   6.032   5.785  0.3935  0.1452 -0.3795
  625MOL0     C86132   4.260   5.896   5.742 -0.4313  0.0569 -1.1841
  625MOL0     C86133   4.322   5.850   5.606 -0.6677  0.2132 -0.7548
  625MOL0     C86134   4.292   5.972   5.512 -0.0635 -1.7146 -0.4209
  625MOL0     C86135   4.345   5.932   5.375  0.5557 -0.1463 -0.3776
  625MOL0     O86136   4.275   5.812   5.343 -0.5391 -0.8854 -0.1282
  625MOL0     C86137   4.188   5.808   5.237 -0.2198 -1.5340  0.1918
  625MOL0     C86138   4.140   5.695   5.180  0.2692  0.1223  0.0702
  625MOL0     C86139   4.034   5.690   5.086  0.8884  0.9443  0.7153
  625MOL0     C86140   3.983   5.551   5.060 -0.7394  0.4898 -0.6025
  625MOL0     C86141   3.977   5.804   5.042  0.1916  0.2299  0.5552
  625MOL0     C86142   3.859   5.824   4.939  1.1473  0.5651  0.5546
  625MOL0     O86143   3.813   5.709   4.879  1.2271 -0.1116  0.8435
  625MOL0     C86144   3.705   5.701   4.793  0.0250  0.2578 -0.4761
  625MOL0     C86145   3.633   5.803   4.735  0.3036  0.0307  1.0048
  625MOL0     C86146   3.527   5.789   4.646 -0.3481 -0.2853 -0.8908
  625MOL0     C86147   3.490   5.663   4.608 -0.5100  0.4331  0.5752
  625MOL0     O86148   3.386   5.657   4.513 -0.8002 -0.4339 -0.4409
  625MOL0     C86149   3.357   5.533   4.459  0.0818 -0.0045  0.1276
  625MOL0     C86150   3.220   5.548   4.378 -1.1763  1.4165 -0.0837
  625MOL0     C86151   3.168   5.410   4.342 -0.1531 -0.6485 -0.6530
  625MOL0     C86152   3.257   5.337   4.241  0.6737 -0.5563  0.7334
  625MOL0     C86153   3.286   5.190   4.276  0.6291  0.0183 -0.7249
  625MOL0     C86154   3.387   5.137   4.166  0.3415 -0.1505  0.4344
  625MOL0     C86155   3.538   5.191   4.186  0.1116 -0.5591 -0.5618
  625MOL0     C86156   3.616   5.147   4.310  1.0114 -0.3388  0.1567
  625MOL0    Cl86157   3.594   5.238   4.464 -0.1237 -0.1829 -0.2404
  625MOL0     C86158   3.584   5.557   4.642 -0.1666  0.3052 -0.5811
  625MOL0     C86159   3.681   5.573   4.746 -0.4716 -0.2487  0.1478
  625MOL0     O86160   3.813   5.938   4.920  0.0939 -0.1193 -0.4847
  625MOL0     C86161   4.036   5.927   5.091  1.0031  0.1405 -0.1796
  625MOL0     C86162   4.132   5.929   5.185  0.4963  0.1568 -0.6681
  625MOL0     N86163   4.461   6.072   5.806  0.7849 -0.0779 -0.0876
  625MOL0     N86164   4.472   6.189   5.861 -0.3845 -0.0179 -0.3120
  625MOL0     C86165   3.594   6.814   5.401  0.2642  0.4959  0.2130
  625MOL0     C86166   3.560   6.883   5.281 -0.3543 -0.0084 -0.9198
  625MOL0     C86167   3.640   7.221   4.963 -0.2564 -0.0712  0.5806
  625MOL0     C86168   3.661   7.365   4.967  0.4052  0.6730  0.6630
  625MOL0     C86169   3.646   7.433   4.851  0.3354 -0.5865 -0.0475
  625MOL0     C86170   3.606   7.376   4.732  0.2754  0.0245 -0.4025
  625MOL0     O86171   3.591   7.445   4.613  0.1576 -0.2667  0.6055
  625MOL0     C86172   3.500   7.550   4.624  0.3610  0.0967 -0.6365
  625MOL0     C86173   3.486   7.625   4.480 -0.9036 -0.1022  0.1910
  625MOL0     C86174   3.591   7.735   4.464 -0.0573 -0.2013 -0.4264
  625MOL0     C86175   3.631   7.767   4.313 -0.0974  0.9660  0.5588
  625MOL0     C86176   3.519   7.822   4.247  1.0233  1.0862  0.3139
  625MOL0     C86177   3.424   7.858   4.181  0.8166  0.3602 -0.3872
  625MOL0     C86178   3.602   7.243   4.723 -0.3592  0.2113  0.7364
  625MOL0     C86179   3.610   7.159   4.839 -0.0000  0.6642 -0.3198
  625MOL0     C86180   3.570   7.015   4.812  0.3959  0.0320 -0.1150
  625MOL0     H86181   3.868   6.925   5.141  0.7832 -1.1280  0.6980
  625MOL0     H86182   3.931   6.797   5.353  0.4343  0.0719  0.4903
  625MOL0     H86183   3.763   6.875   5.674 -0.9383 -0.1121  1.6853
  625MOL0     H86184   3.917   6.846   5.587 -0.3655  0.0618 -2.3392
  625MOL0     H86185   3.783   6.736   5.833  0.5460 -1.0165  1.2385
  625MOL0     H86186   3.850   6.610   5.729 -1.0668  0.0448  1.4979
  625MOL0     H86187   4.077   6.739   5.755  2.3758 -1.9374  1.5097
  625MOL0     H86188   3.993   6.836   5.866 -1.8001 -0.3119 -0.3597
  625MOL0     H86189   3.952   6.641   6.010  0.8570  0.3534  0.8585
  625MOL0     H86190   3.999   6.544   5.866 -2.4869  1.6842 -0.4889
  625MOL0     H86191   4.191   6.709   6.042 -0.0212 -0.0131 -0.0281
  625MOL0     H86192   4.236   6.612   5.898  1.8491 -4.1679  1.5958
  625MOL0     H86193   4.276   6.537   6.141 -0.1168 -0.2560 -1.1773
  625MOL0     H86194   4.107   6.508   6.169  1.4010  0.5334  1.0129
  625MOL0     H86195   4.107   6.373   5.949  1.4488  1.8533 -1.9846
  625MOL0     H86196   4.194   6.282   6.086  3.2541 -3.6642 -3.9958
  625MOL0     H86197   4.303   6.439   5.847 -1.4423 -1.5057 -1.4740
  625MOL0     H86198   4.407   6.381   5.983 -1.8405 -3.2630  1.6811
  625MOL0     H86199   4.145   6.142   5.828  0.0885  3.0898 -1.7971
  625MOL0     H86200   4.152   5.905   5.726 -0.9286 -3.1692 -0.2261
  625MOL0     H86201   4.288   5.824   5.819  0.3792  0.4030 -1.1465
  625MOL0     H86202   4.429   5.834   5.622 -0.6495  1.4765  0.6409
  625MOL0     H86203   4.272   5.759   5.573 -0.7200  0.3443 -1.0363
  625MOL0     H86204   4.185   5.995   5.520  0.7656  2.9574  0.2467
  625MOL0     H86205   4.346   6.064   5.538 -0.9561 -0.6335 -2.1685
  625MOL0     H86206   4.326   6.019   5.310 -0.6752 -1.7063 -2.2321
  625MOL0     H86207   4.451   5.903   5.379  0.0320 -2.0082  0.7600
  625MOL0     H86208   4.183   5.604   5.219  0.4610 -0.8473 -2.2373
  625MOL0     H86209   3.985   5.537   4.952 -3.3104  0.2712 -0.6922
  625MOL0     H86210   3.881   5.531   5.094 -1.1636 -2.6868 -3.1549
  625MOL0     H86211   4.055   5.483   5.108 -2.2083 -0.1318  0.8207
  625MOL0     H86212   3.641   5.907   4.766 -1.5470  0.3965  0.3898
  625MOL0     H86213   3.465   5.875   4.624 -0.6365  0.4128  2.1996
  625MOL0     H86214   3.445   5.510   4.398  0.3535 -1.1403  0.9067
  625MOL0     H86215   3.344   5.459   4.539 -0.3610 -1.3015 -1.1022
  625MOL0     H86216   3.140   5.602   4.429 -1.1802  1.1244  0.2191
  625MOL0     H86217   3.255   5.596   4.286  2.7583 -0.4597  0.2133
  625MOL0     H86218   3.065   5.425   4.310 -0.8312  1.5506  2.1161
  625MOL0     H86219   3.164   5.350   4.434 -0.6490  1.1164  0.5169
  625MOL0     H86220   3.360   5.374   4.245  0.8560 -1.0812  1.1138
  625MOL0     H86221   3.214   5.342   4.141 -3.2643 -0.1388  2.2999
  625MOL0     H86222   3.333   5.169   4.373 -0.6510 -3.2255 -0.6942
  625MOL0     H86223   3.196   5.129   4.272  0.4432  0.1013  1.3007
  625MOL0     H86224   3.350   5.159   4.066 -0.1710  3.9000  1.3332
  625MOL0     H86225   3.372   5.031   4.190 -0.1348  0.4224  2.9552
  625MOL0     H86226   3.541   5.301   4.194  2.4261 -0.5360 -1.0401
  625MOL0     H86227   3.598   5.157   4.102  2.2704  2.0361 -0.2146
  625MOL0     H86228   3.720   5.133   4.281  0.5260 -1.0532 -1.3665
  625MOL0     H86229   3.584   5.043   4.327  0.9767 -0.4083 -0.3101
  625MOL0     H86230   3.572   5.459   4.596  1.0473 -0.0978 -0.0729
  625MOL0     H86231   3.751   5.494   4.770  0.5248  0.4057 -0.5305
  625MOL0     H86232   3.982   6.015   5.057  0.4745 -0.6353 -1.4238
  625MOL0     H86233   4.150   6.027   5.227  0.8876  0.5766 -1.7837
  625MOL0     H86234   3.526   6.766   5.470  1.1923 -3.3525 -1.3139
  625MOL0     H86235   3.457   6.913   5.264 -0.0153  4.7393  3.1831
  625MOL0     H86236   3.672   7.407   5.066 -2.1268  1.2676  0.7734
  625MOL0     H86237   3.664   7.540   4.852  2.7507 -0.9408  0.9756
  625MOL0     H86238   3.405   7.501   4.647  0.5402 -0.2086 -0.5349
  625MOL0     H86239   3.523   7.615   4.710  1.2875 -0.0525 -0.7628
  625MOL0     H86240   3.383   7.661   4.474 -0.7302  0.6274  1.3040
  625MOL0     H86241   3.510   7.553   4.401 -0.5476  0.6867 -0.4234
  625MOL0     H86242   3.567   7.829   4.515 -0.1425 -1.2883  1.6910
  625MOL0     H86243   3.687   7.699   4.504 -0.8962 -0.5611  1.3788
  625MOL0     H86244   3.669   7.673   4.272  0.7975  1.8342 -0.6962
  625MOL0     H86245   3.713   7.840   4.315 -2.6729  4.0841  0.5629
  625MOL0     H86246   3.328   7.872   4.136  1.1656  2.5962 -0.5330
  625MOL0     H86247   3.595   7.203   4.622  1.9476 -0.7566  0.8784
  625MOL0     H86248   3.525   6.971   4.901 -0.3784  4.0453  1.6717
  625MOL0     H86249   3.494   7.017   4.733 -0.4664 -1.1928  0.6503
  625MOL0     H86250   3.648   6.946   4.778  2.5745  1.3774  1.8893
  626MOL0     O86251   7.160   7.048   7.647  0.4329  0.1152 -1.0339
  626MOL0     C86252   7.090   6.941   7.646  0.5395 -0.3734 -0.5414
  626MOL0     O86253   7.129   6.822   7.601 -0.0170 -0.3589  0.8896
  626MOL0     C86254   7.255   6.803   7.551 -0.0435 -0.2282 -0.5012
  626MOL0     C86255   7.376   6.827   7.628  0.0345  0.0019 -0.0911
  626MOL0     C86256   7.498   6.809   7.559  0.5761  1.0814 -1.0746
  626MOL0     C86257   7.503   6.757   7.434  0.6831  0.4936 -0.0774
  626MOL0     O86258   7.619   6.746   7.363  0.3243  0.4581 -0.2025
  626MOL0     C86259   7.692   6.867   7.345 -0.2439  0.6519  0.4498
  626MOL0     C86260   7.827   6.858   7.415  0.4719  0.0639  0.5716
  626MOL0     C86261   7.907   6.989   7.377  0.4783  0.6320 -0.2652
  626MOL0     C86262   7.994   7.040   7.490 -0.0543 -0.6791  0.6081
  626MOL0     C86263   8.131   6.970   7.521  0.1849 -0.8557 -0.8445
  626MOL0     C86264   8.244   7.008   7.430 -0.2328  1.1374  0.3457
  626MOL0     C86265   8.378   6.931   7.460  0.7685  0.6186 -0.8145
  626MOL0     C86266   8.427   6.814   7.375  0.4755 -0.0723 -0.0767
  626MOL0     N86267   8.314   6.722   7.375 -0.5274 -0.2459  0.7392
  626MOL0     C86268   8.284   6.632   7.475  0.1485  0.1590  0.1756
  626MOL0     C86269   8.165   6.575   7.430 -0.2468  0.4072  0.6854
  626MOL0     C86270   8.085   6.463   7.497  0.0427 -0.3865  1.4567
  626MOL0     C86271   8.001   6.526   7.612 -0.6938  0.4269 -0.2182
  626MOL0     C86272   7.948   6.411   7.697 -0.6519 -0.6364 -0.3927
  626MOL0     C86273   7.830   6.453   7.770 -0.8454 -0.6422 -0.4354
  626MOL0     O86274   7.714   6.462   7.689  0.5097 -0.1569  0.4762
  626MOL0     C86275   7.600   6.510   7.740  0.1369  0.8557 -0.2431
  626MOL0     C86276   7.591   6.575   7.865 -0.6740  0.5831  0.5987
  626MOL0     C86277   7.474   6.623   7.912 -0.0851 -0.2449 -0.8155
  626MOL0     C86278   7.489   6.702   8.031 -0.1718 -0.2397  0.3039
  626MOL0     C86279   7.350   6.588   7.853 -1.0546 -0.7460 -1.0606
  626MOL0     C86280   7.220   6.628   7.899 -0.6841  0.8199 -0.1237
  626MOL0     O86281   7.143   6.517   7.912  0.9477 -0.6186  0.3436
  626MOL0     C86282   7.002   6.548   7.931  0.4592  0.7575  0.7431
  626MOL0     C86283   6.911   6.488   7.846  1.3557  1.1700  1.0756
  626MOL0     C86284   6.771   6.513   7.866 -0.0976 -1.5256 -0.5111
  626MOL0     C86285   6.724   6.591   7.968 -0.0793  0.0663 -1.1005
  626MOL0     O86286   6.590   6.630   7.992 -0.4239 -0.0242  0.7567
  626MOL0     C86287   6.520   6.525   8.058 -1.0358  0.4411  0.5856
  626MOL0     C86288   6.380   6.535   8.025 -0.0460 -0.3178  0.1563
  626MOL0     C86289   6.286   6.443   8.093  0.1653 -1.2581  0.0177
  626MOL0     C86290   6.145   6.481   8.049 -0.3663  0.3829  0.4186
  626MOL0     C86291   6.042   6.389   8.113 -1.1676 -0.3258 -0.7306
  626MOL0     C86292   6.025   6.261   8.042 -1.1597 -1.0241 -0.7066
  626MOL0     C86293   5.946   6.262   7.906  0.6600  1.0859  0.6747
  626MOL0     C86294   5.979   6.137   7.820 -0.9373  0.2407 -0.6022
  626MOL0    Cl86295   5.935   5.977   7.900 -0.1841  0.0567  0.1590
  626MOL0     C86296   6.818   6.643   8.060  0.2038  0.9963  0.0269
  626MOL0     C86297   6.948   6.619   8.040  0.5987 -0.2264 -0.6185
  626MOL0     O86298   7.198   6.742   7.930  0.1138  0.2232 -0.3053
  626MOL0     C86299   7.358   6.502   7.740  0.9056 -0.5367 -0.0583
  626MOL0     C86300   7.481   6.474   7.679  0.2449  0.3662 -0.6818
  626MOL0     N86301   8.124   6.633   7.308 -0.3957  0.4902 -0.2320
  626MOL0     N86302   8.215   6.716   7.280  0.0693 -0.0395  0.2807
  626MOL0     C86303   7.379   6.732   7.372 -0.1709  0.2582  0.7686
  626MOL0     C86304   7.258   6.757   7.422  0.1989 -0.7106  0.0309
  626MOL0     C86305   6.935   6.958   7.668  0.4152  0.0789 -0.9515
  626MOL0     C86306   6.867   6.851   7.730  0.2249  0.8955 -0.4322
  626MOL0     C86307   6.733   6.861   7.760 -0.1978 -0.2616  0.0199
  626MOL0     C86308   6.673   6.985   7.764 -0.1551 -0.1784  0.8080
  626MOL0     O86309   6.532   6.985   7.770 -0.0788 -0.5245  0.4271
  626MOL0     C86310   6.472   6.888   7.864  0.3707  0.2140  0.7036
  626MOL0     C86311   6.327   6.930   7.905  0.6130  0.0594  0.6753
  626MOL0     C86312   6.254   7.014   7.795  0.6359 -0.4057 -0.3934
  626MOL0     C86313   6.215   6.933   7.675 -0.1104  0.2702  0.1696
  626MOL0     C86314   6.089   6.996   7.620  1.4276 -0.2266 -0.0599
  626MOL0     C86315   5.989   7.061   7.579 -0.1279 -0.0572  0.9234
  626MOL0     C86316   6.743   7.101   7.716  0.6312  0.2110  0.2362
  626MOL0     C86317   6.874   7.088   7.658 -0.2999  0.1165 -0.3164
  626MOL0     C86318   6.928   7.204   7.572  0.5665  1.3990 -0.5826
  626MOL0     H86319   7.378   6.867   7.728  4.2419  2.1195 -0.7762
  626MOL0     H86320   7.589   6.814   7.618 -0.9218  0.4785  1.4098
  626MOL0     H86321   7.650   6.957   7.392  1.1107  0.4396  2.1699
  626MOL0     H86322   7.709   6.878   7.237 -1.2030  1.9576  0.4076
  626MOL0     H86323   7.807   6.837   7.521 -0.4456  0.0552  0.4110
  626MOL0     H86324   7.863   6.769   7.363 -2.3766 -0.9343  0.0754
  626MOL0     H86325   7.972   6.957   7.295 -1.7573  4.2779 -3.7885
  626MOL0     H86326   7.837   7.063   7.338 -1.5103 -0.7924  0.4188
  626MOL0     H86327   7.997   7.148   7.475 -6.0211 -0.1445  0.5352
  626MOL0     H86328   7.939   7.032   7.585  1.4011 -0.5269  1.4860
  626MOL0     H86329   8.119   6.861   7.519  3.1648 -1.2923 -0.0514
  626MOL0     H86330   8.153   7.004   7.622 -3.2812 -1.6289  0.2946
  626MOL0     H86331   8.218   6.997   7.325  0.6527  1.3441  0.0968
  626MOL0     H86332   8.274   7.114   7.438 -0.0782  1.5603 -3.7527
  626MOL0     H86333   8.387   6.924   7.569  2.8518  4.4169 -0.5691
  626MOL0     H86334   8.453   7.004   7.428  0.9456  1.8786  2.1377
  626MOL0     H86335   8.437   6.848   7.272  0.2819  1.7238  0.4732
  626MOL0     H86336   8.519   6.770   7.416  1.9030  1.0319 -1.9412
  626MOL0     H86337   8.328   6.604   7.570  3.2179  0.5158 -1.0435
  626MOL0     H86338   8.153   6.393   7.546 -0.8888 -0.7350  2.2843
  626MOL0     H86339   8.030   6.411   7.418  2.9887  0.4975 -1.3559
  626MOL0     H86340   8.070   6.585   7.672 -0.9268 -0.8598  1.3738
  626MOL0     H86341   7.915   6.581   7.574 -2.4817 -0.8676  1.7537
  626MOL0     H86342   7.930   6.328   7.628  2.2599  1.2478 -3.6903
  626MOL0     H86343   8.023   6.383   7.772 -1.3011 -2.0692 -0.2403
  626MOL0     H86344   7.822   6.382   7.853 -3.5363 -1.0226 -0.9207
  626MOL0     H86345   7.852   6.554   7.805  0.0609 -1.6746  2.2255
  626MOL0     H86346   7.684   6.602   7.914  2.3148 -6.0694 -0.2934
  626MOL0     H86347   7.395   6.718   8.084  0.3417 -0.7478  1.4077
  626MOL0     H86348   7.526   6.804   8.011  0.6986 -0.5940  0.0273
  626MOL0     H86349   7.566   6.645   8.084 -1.3204 -3.2397 -1.0366
  626MOL0     H86350   6.949   6.437   7.759 -0.9626 -0.6207  1.0211
  626MOL0     H86351   6.702   6.466   7.796 -2.0844 -1.5845  1.3909
  626MOL0     H86352   6.552   6.432   8.011 -0.9402  2.1984 -3.2117
  626MOL0     H86353   6.539   6.522   8.166  3.2205  1.3687  0.0192
  626MOL0     H86354   6.349   6.635   8.056  0.1915 -0.3126  0.3779
  626MOL0     H86355   6.372   6.510   7.919  0.4386  1.2651 -0.2832
  626MOL0     H86356   6.309   6.445   8.200  4.0640  0.3307 -0.6896
  626MOL0     H86357   6.299   6.339   8.059  0.3694 -0.9475 -0.8770
  626MOL0     H86358   6.141   6.476   7.939  0.1571  0.0394  0.4099
  626MOL0     H86359   6.102   6.574   8.085 -2.1393  1.8124 -4.5480
  626MOL0     H86360   6.066   6.376   8.219 -0.3191  1.4734 -0.6581
  626MOL0     H86361   5.938   6.424   8.109 -1.7877 -2.1714 -3.1160
  626MOL0     H86362   5.974   6.195   8.113  3.1147 -2.0473  1.7482
  626MOL0     H86363   6.123   6.220   8.017 -1.2487 -2.1682  0.7208
  626MOL0     H86364   5.986   6.341   7.842 -0.2811  0.9526 -0.1095
  626MOL0     H86365   5.838   6.263   7.923  0.2561 -0.3260 -1.4165
  626MOL0     H86366   6.086   6.137   7.797 -0.7808 -2.3215 -0.1187
  626MOL0     H86367   5.924   6.143   7.726 -1.2908  0.3528 -0.3902
  626MOL0     H86368   6.787   6.700   8.147 -3.2719  1.1849 -1.1895
  626MOL0     H86369   7.021   6.648   8.114  0.7298  0.1064 -0.8768
  626MOL0     H86370   7.276   6.463   7.681 -0.0242  1.6901 -0.3477
  626MOL0     H86371   7.458   6.424   7.585 -3.7212  0.6307 -0.0427
  626MOL0     H86372   7.372   6.714   7.266  0.4508  1.3577  0.5373
  626MOL0     H86373   7.172   6.738   7.359  0.0587  0.7989 -0.2870
  626MOL0     H86374   6.913   6.753   7.724  2.0262  1.7701 -3.4335
  626MOL0     H86375   6.667   6.778   7.782  0.0340  0.0265  1.9595
  626MOL0     H86376   6.453   6.791   7.815  1.3544  1.7382 -3.1258
  626MOL0     H86377   6.548   6.867   7.940  1.3195  4.6351  1.2496
  626MOL0     H86378   6.339   6.997   7.991  0.0603  1.1413 -0.0624
  626MOL0     H86379   6.264   6.848   7.940 -1.1732  1.9382  2.0807
  626MOL0     H86380   6.166   7.064   7.838  2.5462  2.4671  0.4352
  626MOL0     H86381   6.316   7.094   7.755  0.5559 -0.1489 -0.0180
  626MOL0     H86382   6.202   6.826   7.693  0.8447 -0.3143 -2.2024
  626MOL0     H86383   6.300   6.917   7.607 -1.2717 -3.1822 -0.7166
  626MOL0     H86384   5.915   7.121   7.529 -1.6734 -3.6778 -1.5335
  626MOL0     H86385   6.688   7.193   7.702  5.1751  3.0686 -1.2824
  626MOL0     H86386   6.981   7.273   7.639  0.2755  2.3694 -1.3363
  626MOL0     H86387   6.987   7.178   7.483  1.0196 -2.2818  0.5818
  626MOL0     H86388   6.840   7.258   7.537  1.0043  2.4725 -0.0487
  627MOL0     O86389   9.330   8.242   6.307  0.5675  0.0506 -0.0305
  627MOL0     C86390   9.442   8.294   6.310  0.4936 -0.0101  0.3713
  627MOL0     O86391   9.523   8.295   6.415 -0.8289  0.5022  0.3076
  627MOL0     C86392   9.595   8.173   6.436  0.9310  0.9653 -0.9018
  627MOL0     C86393   9.688   8.175   6.546 -0.6773  0.2265  0.3434
  627MOL0     C86394   9.767   8.055   6.554 -0.1596 -0.0864 -0.4725
  627MOL0     C86395   9.751   7.941   6.477  0.2129 -0.2306  0.3570
  627MOL0     O86396   9.825   7.827   6.499  0.2407  0.2519  0.5117
  627MOL0     C86397   9.923   7.804   6.607 -0.4026  0.7874 -0.4566
  627MOL0     C86398   9.995   7.675   6.598 -0.0146 -0.1839  0.3989
  627MOL0     C86399   9.888   7.563   6.618  0.1281  0.2152 -1.0363
  627MOL0     C86400   9.932   7.439   6.559  0.7477 -0.5369 -0.2265
  627MOL0     C86401   9.834   7.333   6.599 -0.4488  0.3346  0.5889
  627MOL0     C86402   9.894   7.240   6.706  0.4919 -0.2461  0.4772
  627MOL0     C86403   9.797   7.142   6.762  0.6701  0.1497  0.3750
  627MOL0     C86404   9.679   7.199   6.852  0.3983 -0.2375 -0.9589
  627MOL0     N86405   9.570   7.109   6.870 -0.7493  0.0649 -0.6969
  627MOL0     C86406   9.496   7.044   6.776  0.0725 -0.2153 -0.9641
  627MOL0     C86407   9.416   6.956   6.853  0.1051 -0.7100  0.4514
  627MOL0     C86408   9.306   6.877   6.799  0.1771 -0.2425 -1.1893
  627MOL0     C86409   9.168   6.945   6.806 -0.0667 -0.1809 -0.5643
  627MOL0     C86410   9.132   7.037   6.694 -0.0899  0.9256 -0.3512
  627MOL0     C86411   9.015   7.127   6.732  1.6420  0.2464  0.9294
  627MOL0     O86412   8.892   7.053   6.711 -0.1581 -0.1208  0.6304
  627MOL0     C86413   8.770   7.110   6.679  0.1969 -0.0405 -0.1305
  627MOL0     C86414   8.653   7.030   6.658  0.1972 -0.1688 -1.2589
  627MOL0     C86415   8.525   7.075   6.628  0.0215 -0.7953  0.4493
  627MOL0     C86416   8.413   6.970   6.622  0.1345  0.7132  0.4800
  627MOL0     C86417   8.505   7.221   6.614 -0.0235  0.8166 -0.6264
  627MOL0     C86418   8.384   7.284   6.575 -1.1277 -0.7219 -0.1651
  627MOL0     O86419   8.267   7.207   6.560 -0.3642  0.5510 -0.8463
  627MOL0     C86420   8.158   7.269   6.514  0.5292 -0.2041 -0.5804
  627MOL0     C86421   8.109   7.397   6.544  0.3378 -0.1661  1.0713
  627MOL0     C86422   7.985   7.441   6.493  0.1988  0.2209 -0.3289
  627MOL0     C86423   7.900   7.356   6.414 -0.4522  0.4484 -0.0316
  627MOL0     O86424   7.777   7.388   6.363 -0.0170 -0.8096  1.3923
  627MOL0     C86425   7.710   7.481   6.440 -0.3827 -0.1470 -0.0609
  627MOL0     C86426   7.592   7.511   6.359  1.0137  0.4241  0.2896
  627MOL0     C86427   7.497   7.609   6.419  0.2733 -0.4727  0.0959
  627MOL0     C86428   7.417   7.684   6.306  0.3786  0.0317  0.5111
  627MOL0     C86429   7.474   7.828   6.274  0.3373  0.4834 -0.6345
  627MOL0     C86430   7.617   7.838   6.221 -0.2302  0.3791 -0.9139
  627MOL0     C86431   7.645   7.968   6.142 -0.2050  0.4750  0.1912
  627MOL0     C86432   7.776   7.961   6.062 -0.2181 -0.3956 -1.6570
  627MOL0    Cl86433   7.833   8.126   5.995  0.1682 -0.2068 -0.2183
  627MOL0     C86434   7.952   7.231   6.382 -0.7345 -0.7150  0.2210
  627MOL0     C86435   8.080   7.189   6.423 -0.3771 -0.4460  0.0889
  627MOL0     O86436   8.399   7.404   6.551  0.2447 -0.2939  0.0545
  627MOL0     C86437   8.622   7.298   6.646  0.7261 -0.6127 -0.6372
  627MOL0     C86438   8.749   7.251   6.670  0.1858 -0.3555 -0.0414
  627MOL0     N86439   9.455   6.957   6.977 -0.1794 -0.0429 -0.0953
  627MOL0     N86440   9.554   7.052   6.992  0.5813  0.0676  0.1301
  627MOL0     C86441   9.649   7.941   6.375 -0.0442 -0.1757 -0.3308
  627MOL0     C86442   9.567   8.055   6.357 -0.3704 -0.7066 -0.3333
  627MOL0     C86443   9.460   8.408   6.213  0.3213 -0.3661 -0.0027
  627MOL0     C86444   9.422   8.367   6.083 -0.3526  0.4163  0.2069
  627MOL0     C86445   9.437   8.460   5.975  0.3010  0.5843  0.0483
  627MOL0     C86446   9.497   8.582   5.993 -1.3918  0.2637 -0.2171
  627MOL0     O86447   9.509   8.666   5.882  0.3902 -1.5511 -1.1041
  627MOL0     C86448   9.408   8.765   5.874  0.4729 -0.2377 -0.3765
  627MOL0     C86449   9.292   8.727   5.775 -0.1891 -0.6160 -0.6020
  627MOL0     C86450   9.354   8.681   5.641  0.1910 -0.0086  0.4821
  627MOL0     C86451   9.239   8.651   5.539 -0.3063  0.0703 -0.5350
  627MOL0     C86452   9.166   8.531   5.584 -0.3738  0.6586 -0.0916
  627MOL0     C86453   9.116   8.430   5.636  0.2678 -0.3552 -0.6110
  627MOL0     C86454   9.550   8.619   6.117  0.3094 -0.1785  0.0298
  627MOL0     C86455   9.521   8.544   6.232 -0.3064 -0.1130  0.3552
  627MOL0     C86456   9.582   8.591   6.359 -0.3801  0.0246 -0.1629
  627MOL0     H86457   9.712   8.260   6.609 -1.7681  1.2174 -0.5202
  627MOL0     H86458   9.845   8.066   6.629 -0.4594  1.0330 -0.3110
  627MOL0     H86459   9.887   7.827   6.707 -1.7336  1.4131 -1.0588
  627MOL0     H86460  10.006   7.875   6.605  2.3557 -1.9857  2.6637
  627MOL0     H86461  10.040   7.661   6.499 -4.2273 -4.3709 -1.2837
  627MOL0     H86462  10.072   7.677   6.675 -0.1043  1.9340  0.4937
  627MOL0     H86463   9.860   7.570   6.723  3.3933  2.0395 -0.1573
  627MOL0     H86464   9.796   7.590   6.565  0.4551  3.3111 -0.2207
  627MOL0     H86465   9.929   7.445   6.449 -1.5788 -0.7487 -0.2292
  627MOL0     H86466  10.036   7.416   6.585  2.3060  2.7310 -2.8874
  627MOL0     H86467   9.804   7.268   6.516  2.8874 -3.4698  2.0404
  627MOL0     H86468   9.735   7.368   6.630 -0.6955 -0.3429  0.5785
  627MOL0     H86469   9.981   7.186   6.667 -2.2721 -5.1965  0.4263
  627MOL0     H86470   9.918   7.308   6.789  0.3230  0.9266 -0.4067
  627MOL0     H86471   9.846   7.069   6.827 -1.6730 -3.2116 -1.3507
  627MOL0     H86472   9.746   7.106   6.672 -2.5166  3.6489  0.4987
  627MOL0     H86473   9.724   7.228   6.947 -1.8532 -1.5951  0.6101
  627MOL0     H86474   9.644   7.295   6.812  2.6889  0.8966 -0.4390
  627MOL0     H86475   9.503   7.053   6.668  1.2936 -0.9912 -0.9809
  627MOL0     H86476   9.303   6.786   6.859 -2.9554  1.5092  1.6886
  627MOL0     H86477   9.335   6.880   6.693  1.1849  0.6441 -0.9101
  627MOL0     H86478   9.091   6.870   6.828 -0.9041  0.5352 -0.9842
  627MOL0     H86479   9.166   7.017   6.888  1.9760  0.7789 -1.2919
  627MOL0     H86480   9.222   7.092   6.666  2.0599 -1.9815  0.4043
  627MOL0     H86481   9.109   6.965   6.615 -3.4582 -1.0015  2.1072
  627MOL0     H86482   9.029   7.165   6.833  3.2931 -0.5688  1.0426
  627MOL0     H86483   9.014   7.208   6.658  0.6788 -1.1344 -0.6428
  627MOL0     H86484   8.666   6.923   6.639  0.2363  0.2315 -3.9506
  627MOL0     H86485   8.333   7.003   6.689 -1.0583  0.1088 -0.6034
  627MOL0     H86486   8.451   6.872   6.653  1.1081  0.3160 -1.8223
  627MOL0     H86487   8.370   6.968   6.521 -3.8921 -2.7019  1.9385
  627MOL0     H86488   8.183   7.454   6.600 -0.4318  1.9860  0.0162
  627MOL0     H86489   7.957   7.544   6.515  2.7539  0.8308  0.4704
  627MOL0     H86490   7.676   7.435   6.533 -1.4114 -2.1220 -1.3347
  627MOL0     H86491   7.768   7.574   6.447 -0.1903 -0.3469  1.0769
  627MOL0     H86492   7.638   7.546   6.266  2.9690  1.3020  1.5157
  627MOL0     H86493   7.530   7.424   6.336  0.3542  1.2783 -1.3159
  627MOL0     H86494   7.546   7.678   6.488  3.4587 -3.5290  1.1485
  627MOL0     H86495   7.426   7.550   6.479  2.3873 -1.4494  1.7450
  627MOL0     H86496   7.313   7.697   6.339  0.0815 -0.5378 -0.1614
  627MOL0     H86497   7.412   7.623   6.215  1.3354 -2.4167  2.0025
  627MOL0     H86498   7.408   7.871   6.197 -1.7140 -0.6217  0.4181
  627MOL0     H86499   7.460   7.884   6.367 -1.9938 -2.1840  0.7739
  627MOL0     H86500   7.630   7.748   6.161 -1.2841  0.0288 -0.6290
  627MOL0     H86501   7.702   7.829   6.290  0.2432  0.5260 -1.4708
  627MOL0     H86502   7.660   8.041   6.222 -2.1632  0.9624  0.1832
  627MOL0     H86503   7.554   8.003   6.091 -0.5395 -0.1277  0.3595
  627MOL0     H86504   7.767   7.902   5.971 -0.2130  1.3941 -2.8779
  627MOL0     H86505   7.864   7.927   6.117 -1.6819  0.0016  1.1137
  627MOL0     H86506   7.902   7.158   6.320 -1.5269 -0.2895  0.3491
  627MOL0     H86507   8.116   7.089   6.401 -2.5135 -0.4945 -4.3408
  627MOL0     H86508   8.605   7.404   6.655  0.0349 -0.7429 -0.3773
  627MOL0     H86509   8.823   7.321   6.709  2.2512 -2.3176 -0.1914
  627MOL0     H86510   9.619   7.851   6.322  0.4459  0.1935 -1.2459
  627MOL0     H86511   9.478   8.050   6.296  0.2115 -1.4794 -1.1435
  627MOL0     H86512   9.379   8.267   6.077 -2.5151  1.2783  0.1331
  627MOL0     H86513   9.429   8.421   5.874  1.3961  2.8196 -0.9587
  627MOL0     H86514   9.362   8.786   5.970  1.1301  1.2934 -0.3678
  627MOL0     H86515   9.458   8.850   5.826 -1.6189  0.4618 -1.4308
  627MOL0     H86516   9.224   8.812   5.774  2.0401  1.3220  0.9340
  627MOL0     H86517   9.246   8.642   5.826  2.9196 -1.5404  0.8977
  627MOL0     H86518   9.417   8.762   5.604 -0.0026  0.6606  1.5704
  627MOL0     H86519   9.418   8.592   5.643 -0.9794 -1.0195 -2.2467
  627MOL0     H86520   9.275   8.643   5.436 -1.7366 -2.2534 -0.9232
  627MOL0     H86521   9.167   8.733   5.541 -2.0921 -1.4422  0.5651
  627MOL0     H86522   9.064   8.351   5.687 -4.0076  0.7783 -2.7250
  627MOL0     H86523   9.597   8.716   6.130 -0.4739  1.0088 -4.3574
  627MOL0     H86524   9.686   8.559   6.375 -0.2551  1.2242  1.7759
  627MOL0     H86525   9.581   8.701   6.357  1.1554  0.1387  1.8711
  627MOL0     H86526   9.515   8.570   6.442 -1.7637 -0.8931 -1.4636
  628MOL0     O86527   9.948   0.881   9.455 -0.1291 -0.3757  0.7877
  628MOL0     C86528   9.832   0.903   9.420  0.5694  0.1194 -0.2872
  628MOL0     O86529   9.769   1.018   9.434  0.2214  0.0565 -0.1028
  628MOL0     C86530   9.842   1.131   9.466  0.3063 -0.4519 -0.5243
  628MOL0     C86531   9.920   1.187   9.374 -0.8276 -0.3019  0.5494
  628MOL0     C86532   9.998   1.298   9.395 -0.6414  0.5006 -0.8027
  628MOL0     C86533   9.996   1.361   9.522 -0.2054  0.7069 -0.0986
  628MOL0     O86534  10.073   1.471   9.567 -0.4054 -0.4369  0.2986
  628MOL0     C86535  10.153   1.536   9.463 -0.0596 -0.2502 -0.0205
  628MOL0     C86536  10.231   1.640   9.543  0.5581 -0.1032 -0.1237
  628MOL0     C86537  10.358   1.689   9.477  0.5555 -0.3051  0.2606
  628MOL0     C86538  10.481   1.591   9.482  0.0699 -1.0316  0.8073
  628MOL0     C86539  10.591   1.611   9.387 -0.6972  0.0280 -0.4367
  628MOL0     C86540  10.677   1.484   9.360 -0.2948  0.1949 -0.6256
  628MOL0     C86541  10.610   1.350   9.315 -1.0374 -0.2630 -0.0735
  628MOL0     C86542  10.601   1.357   9.156  0.8897 -0.3291 -0.1368
  628MOL0     N86543  10.719   1.313   9.085 -0.2930  0.0359  1.0556
  628MOL0     C86544  10.729   1.199   9.004  0.3670 -0.4019 -0.1104
  628MOL0     C86545  10.853   1.206   8.958  0.1340 -0.3343  1.0228
  628MOL0     C86546  10.912   1.102   8.866 -0.3364  0.4774  0.7943
  628MOL0     C86547  10.867   1.148   8.715  0.5754  0.6426 -0.2641
  628MOL0     C86548  10.843   1.015   8.633 -0.4779  0.8915  0.7713
  628MOL0     C86549  10.709   0.958   8.671 -0.6627  0.1771 -1.4930
  628MOL0     O86550  10.602   1.033   8.616 -0.3929  0.2987 -0.0237
  628MOL0     C86551  10.482   0.959   8.613 -0.9579  0.2941  0.2028
  628MOL0     C86552  10.388   1.000   8.518 -0.4191  0.1693 -0.2636
  628MOL0     C86553  10.255   0.951   8.514  0.0929  0.3152 -0.5343
  628MOL0     C86554  10.162   0.995   8.397 -0.4539 -0.1527  0.2556
  628MOL0     C86555  10.216   0.851   8.598 -0.0832  0.1301 -0.2244
  628MOL0     C86556  10.081   0.811   8.609 -0.5914 -0.2958  0.3776
  628MOL0     O86557  10.048   0.686   8.604  0.0959  0.4032 -0.2531
  628MOL0     C86558   9.917   0.663   8.585 -0.3974 -0.8836 -0.3364
  628MOL0     C86559   9.836   0.664   8.693 -1.2053 -0.2668  0.3786
  628MOL0     C86560   9.701   0.639   8.672 -0.2540 -0.0963  0.0261
  628MOL0     C86561   9.649   0.607   8.547  0.1462  0.0399 -0.0809
  628MOL0     O86562   9.514   0.581   8.545 -0.5170  0.2984 -0.9563
  628MOL0     C86563   9.454   0.547   8.427 -0.3269 -1.2788 -0.5006
  628MOL0     C86564   9.305   0.505   8.461 -0.5687 -0.1394 -0.6371
  628MOL0     C86565   9.296   0.367   8.538  1.0951  1.1056  0.5241
  628MOL0     C86566   9.149   0.312   8.553 -0.0976  0.2997  1.1359
  628MOL0     C86567   9.153   0.169   8.602  0.1630 -0.4991  0.1314
  628MOL0     C86568   9.011   0.115   8.594 -0.1708  0.8437  0.1904
  628MOL0     C86569   9.018  -0.031   8.644  0.0334 -0.2818 -0.3002
  628MOL0     C86570   8.884  -0.084   8.673  1.3263  0.6047  0.0180
  628MOL0    Cl86571   8.811  -0.128   8.508 -0.2447  0.1372 -0.2074
  628MOL0     C86572   9.735   0.614   8.440 -1.1609 -0.2886  0.1212
  628MOL0     C86573   9.867   0.645   8.461 -0.3151 -1.3543 -0.0105
  628MOL0     O86574  10.000   0.908   8.615 -0.4669 -0.3498  0.5036
  628MOL0     C86575  10.313   0.803   8.694  0.5267 -0.4511 -0.1359
  628MOL0     C86576  10.439   0.854   8.694  0.7691 -0.4490  0.6230
  628MOL0     N86577  10.913   1.328   8.989 -0.1088  0.0042  0.3158
  628MOL0     N86578  10.840   1.377   9.078 -0.2373 -0.7860  0.2569
  628MOL0     C86579   9.914   1.302   9.625 -0.7654  0.2275 -0.9377
  628MOL0     C86580   9.837   1.184   9.590 -0.0237 -0.5023 -0.7384
  628MOL0     C86581   9.758   0.775   9.377  0.1612 -0.1608 -0.4966
  628MOL0     C86582   9.620   0.774   9.391  0.1482 -0.0277  0.5285
  628MOL0     C86583   9.536   0.671   9.343 -0.6734  0.5988 -0.7004
  628MOL0     C86584   9.598   0.562   9.287 -0.0769  0.7815 -0.5106
  628MOL0     O86585   9.521   0.450   9.246  0.2790 -0.1463 -0.3768
  628MOL0     C86586   9.386   0.484   9.198 -0.8707  0.0688  0.8260
  628MOL0     C86587   9.346   0.391   9.083 -0.2108  0.1876  0.0164
  628MOL0     C86588   9.270   0.269   9.129  0.0117 -1.1448 -0.6327
  628MOL0     C86589   9.250   0.168   9.005 -0.6442 -0.7065 -1.0291
  628MOL0     C86590   9.144   0.072   9.044 -0.6435 -0.8726  0.1470
  628MOL0     C86591   9.046   0.013   9.094 -1.2159  0.3556 -0.1391
  628MOL0     C86592   9.734   0.548   9.278 -0.2735  0.6186 -0.4265
  628MOL0     C86593   9.809   0.660   9.314 -0.7367  0.3859 -0.0054
  628MOL0     C86594   9.955   0.633   9.272  0.0845  0.5405  0.5734
  628MOL0     H86595   9.934   1.150   9.272  2.5251  0.4740  0.6290
  628MOL0     H86596  10.069   1.338   9.323  0.8500  2.5124  1.6479
  628MOL0     H86597  10.092   1.586   9.387 -0.5420  0.0410  0.5498
  628MOL0     H86598  10.222   1.466   9.415  0.0994 -1.0580  1.3569
  628MOL0     H86599  10.168   1.727   9.562 -2.4684 -2.4516  1.6903
  628MOL0     H86600  10.246   1.605   9.645 -1.2455  0.1437  0.2601
  628MOL0     H86601  10.335   1.717   9.374  0.7355  0.1582  0.3456
  628MOL0     H86602  10.385   1.782   9.527 -4.5583  2.7551 -1.8283
  628MOL0     H86603  10.508   1.592   9.588  0.4150 -0.5683  0.7194
  628MOL0     H86604  10.448   1.489   9.462  1.0575 -1.4995  1.5306
  628MOL0     H86605  10.649   1.692   9.432 -2.1529  2.0623 -2.0592
  628MOL0     H86606  10.550   1.630   9.288 -1.9789 -1.6502 -0.2757
  628MOL0     H86607  10.765   1.504   9.299  1.2966 -0.7889  1.2134
  628MOL0     H86608  10.719   1.460   9.459  0.9172  0.2162 -1.1154
  628MOL0     H86609  10.507   1.333   9.347 -1.5824  0.5359 -1.3488
  628MOL0     H86610  10.662   1.256   9.339 -2.9818 -1.9431 -1.9696
  628MOL0     H86611  10.532   1.279   9.123  1.4522 -1.1798  0.6390
  628MOL0     H86612  10.580   1.462   9.134 -2.4172 -0.4957  1.7031
  628MOL0     H86613  10.663   1.114   8.991 -1.2508  0.6127  1.0433
  628MOL0     H86614  10.869   1.002   8.881  0.3934 -0.1181 -0.8370
  628MOL0     H86615  11.019   1.083   8.880 -0.7626 -1.2351  2.1131
  628MOL0     H86616  10.781   1.215   8.724 -0.4657 -0.7122  0.0269
  628MOL0     H86617  10.950   1.208   8.674 -0.9267  0.9564 -3.0867
  628MOL0     H86618  10.835   1.036   8.526 -0.2001  0.5004  0.6713
  628MOL0     H86619  10.913   0.937   8.662 -2.6266 -1.2322  0.5361
  628MOL0     H86620  10.709   0.850   8.656  3.7015 -0.1373 -0.4519
  628MOL0     H86621  10.709   0.968   8.780  0.8724  2.1067 -1.6119
  628MOL0     H86622  10.415   1.072   8.442 -2.6272  0.8977 -0.4347
  628MOL0     H86623  10.138   0.909   8.333 -1.3793 -1.7074  2.5192
  628MOL0     H86624  10.221   1.075   8.353  0.6617  0.0947  2.0862
  628MOL0     H86625  10.074   1.053   8.426 -0.3896 -0.9537  2.2380
  628MOL0     H86626   9.883   0.701   8.783  0.3182  4.8321 -2.1719
  628MOL0     H86627   9.634   0.641   8.758  0.4224 -0.3746  0.5640
  628MOL0     H86628   9.473   0.623   8.351  2.0680  0.4286  1.6765
  628MOL0     H86629   9.494   0.452   8.391  3.0261 -1.4701  3.1289
  628MOL0     H86630   9.250   0.580   8.519  2.8373  2.7267 -0.8005
  628MOL0     H86631   9.259   0.492   8.362 -0.6700 -0.1080 -0.5944
  628MOL0     H86632   9.339   0.369   8.639 -0.7134 -2.1919  1.4804
  628MOL0     H86633   9.348   0.299   8.470 -1.3644 -0.7562  0.4040
  628MOL0     H86634   9.115   0.314   8.449  1.0949 -0.3471  0.7164
  628MOL0     H86635   9.088   0.386   8.605 -0.6156  3.2347 -3.0822
  628MOL0     H86636   9.220   0.101   8.548  1.0882 -0.8454  1.6644
  628MOL0     H86637   9.180   0.169   8.708 -2.8125  2.4876  1.0800
  628MOL0     H86638   8.979   0.132   8.491 -0.3889  0.6469  0.2255
  628MOL0     H86639   8.940   0.163   8.662  0.9266 -0.8558  2.6512
  628MOL0     H86640   9.069  -0.035   8.741  2.3884  2.8029 -1.2699
  628MOL0     H86641   9.068  -0.094   8.570  0.2952 -0.5882  0.1312
  628MOL0     H86642   8.824  -0.024   8.742  1.3094 -1.7497  2.1972
  628MOL0     H86643   8.895  -0.180   8.723 -0.3967  0.2799 -0.1804
  628MOL0     H86644   9.696   0.601   8.340  1.0390  3.1100 -1.3846
  628MOL0     H86645   9.925   0.656   8.369  2.3321 -1.2747  1.5596
  628MOL0     H86646  10.292   0.729   8.771  0.9686  0.6940  1.1384
  628MOL0     H86647  10.495   0.824   8.782 -2.5203  0.1932  3.1178
  628MOL0     H86648   9.890   1.342   9.723 -1.1124  2.2210 -1.7823
  628MOL0     H86649   9.773   1.123   9.652 -0.7500 -0.3170 -1.2844
  628MOL0     H86650   9.571   0.859   9.437  1.1251  1.0078 -0.2673
  628MOL0     H86651   9.432   0.673   9.375  0.1091  0.5691  2.1319
  628MOL0     H86652   9.310   0.483   9.277 -1.3302  2.1714  0.4737
  628MOL0     H86653   9.390   0.580   9.148  0.0638 -0.3729  0.0280
  628MOL0     H86654   9.442   0.373   9.035  1.4178  4.1970  1.2882
  628MOL0     H86655   9.279   0.449   9.019  0.0144 -0.2026 -0.5770
  628MOL0     H86656   9.344   0.223   9.196  2.3935  0.2257 -2.1835
  628MOL0     H86657   9.178   0.293   9.183 -0.4957  1.1709 -2.4129
  628MOL0     H86658   9.346   0.120   8.985 -0.4473 -1.1665  0.8060
  628MOL0     H86659   9.219   0.223   8.916 -2.7502  0.2616  0.2292
  628MOL0     H86660   8.968  -0.048   9.134 -0.3766  0.0510  1.0725
  628MOL0     H86661   9.764   0.458   9.225 -3.7296 -2.2922  2.0464
  628MOL0     H86662  10.026   0.624   9.354  1.6514  0.6409 -0.7377
  628MOL0     H86663   9.955   0.533   9.228 -1.9889 -0.0414  1.7381
  628MOL0     H86664   9.989   0.700   9.193 -5.8882  1.1741 -2.0653
  629MOL0     O86665   0.195   6.242   4.308  0.6953 -0.8057  1.1215
  629MOL0     C86666   0.309   6.264   4.340 -0.0054  0.3904 -0.7626
  629MOL0     O86667   0.403   6.325   4.259 -0.0646 -0.0159  0.4327
  629MOL0     C86668   0.389   6.388   4.138  0.9562  0.1578  0.4084
  629MOL0     C86669   0.494   6.462   4.098 -0.3660  0.3566  0.1220
  629MOL0     C86670   0.499   6.514   3.973 -0.7742 -0.3003 -0.5104
  629MOL0     C86671   0.387   6.502   3.886  0.2142 -1.1429  0.5915
  629MOL0     O86672   0.390   6.562   3.763  0.5754 -0.2341 -0.6612
  629MOL0     C86673   0.436   6.483   3.654 -0.2596  0.5490  1.0970
  629MOL0     C86674   0.581   6.525   3.604 -0.5194  0.1896 -0.8438
  629MOL0     C86675   0.619   6.669   3.606  0.0108 -0.1159  0.2483
  629MOL0     C86676   0.763   6.705   3.552 -1.0182 -0.1187 -0.2601
  629MOL0     C86677   0.804   6.849   3.587 -0.4792  0.7055  0.3084
  629MOL0     C86678   0.701   6.957   3.559  1.0010  0.4159  0.4045
  629MOL0     C86679   0.742   7.081   3.644 -0.3042 -0.0594  0.3575
  629MOL0     C86680   0.846   7.187   3.584  0.4892  0.8876  0.0847
  629MOL0     N86681   0.944   7.122   3.491  0.2969  0.1012  0.3312
  629MOL0     C86682   1.058   7.062   3.541 -0.0379 -0.0873  0.0890
  629MOL0     C86683   1.108   6.998   3.436  0.2325 -0.6393  0.5150
  629MOL0     C86684   1.239   6.915   3.434 -0.0748 -0.9569 -0.0693
  629MOL0     C86685   1.361   7.008   3.412 -1.3800  0.2055 -0.0223
  629MOL0     C86686   1.488   6.937   3.366 -0.5283  0.5563 -0.6336
  629MOL0     C86687   1.488   6.908   3.212 -0.6621 -0.6201 -0.8453
  629MOL0     O86688   1.568   6.798   3.171 -1.0646  0.1998  0.4455
  629MOL0     C86689   1.698   6.775   3.209 -1.2057  0.2945 -0.2024
  629MOL0     C86690   1.745   6.647   3.180 -0.8253  0.5125 -0.2921
  629MOL0     C86691   1.888   6.613   3.186 -0.2558 -0.3919 -0.0071
  629MOL0     C86692   1.925   6.475   3.158 -0.1982 -0.7371 -0.4020
  629MOL0     C86693   1.979   6.716   3.214 -0.2529  0.6967 -0.7565
  629MOL0     C86694   2.132   6.697   3.228  0.8579  0.1575 -0.1888
  629MOL0     O86695   2.206   6.806   3.239 -0.7413  0.1234 -0.2016
  629MOL0     C86696   2.344   6.790   3.250  1.1206 -0.0720 -1.2444
  629MOL0     C86697   2.418   6.722   3.353 -0.0129 -0.2724  0.7523
  629MOL0     C86698   2.555   6.722   3.359  0.6267 -0.5915  0.4665
  629MOL0     C86699   2.622   6.799   3.257  0.2789  0.1664 -0.0041
  629MOL0     O86700   2.766   6.803   3.259  0.2842  0.2757 -0.0808
  629MOL0     C86701   2.824   6.694   3.340 -0.7050 -0.6068  0.3009
  629MOL0     C86702   2.982   6.698   3.328  0.4731  0.2801 -0.4764
  629MOL0     C86703   3.035   6.585   3.419  0.3072  0.7375  0.1693
  629MOL0     C86704   3.165   6.520   3.376  0.7127 -0.2931 -0.2006
  629MOL0     C86705   3.188   6.389   3.457 -0.1308 -0.1275  0.7316
  629MOL0     C86706   3.326   6.317   3.437  0.1614 -0.0242 -1.0065
  629MOL0     C86707   3.383   6.308   3.290 -0.0823  0.1395 -0.7160
  629MOL0     C86708   3.496   6.213   3.272  0.6330 -0.7024 -0.1490
  629MOL0    Cl86709   3.621   6.241   3.395 -0.2540  0.3162  0.0177
  629MOL0     C86710   2.558   6.861   3.158 -0.2608 -1.1328  0.1597
  629MOL0     C86711   2.421   6.859   3.154  0.2728  0.9156  0.8149
  629MOL0     O86712   2.170   6.579   3.246  0.4466 -0.0090  1.3272
  629MOL0     C86713   1.925   6.842   3.248  0.6852  0.4143 -0.5926
  629MOL0     C86714   1.788   6.875   3.242  0.0162 -0.3982  0.1291
  629MOL0     N86715   1.031   7.030   3.318  0.1491 -0.1067 -0.0931
  629MOL0     N86716   0.935   7.104   3.352 -0.4319  0.6719 -0.1894
  629MOL0     C86717   0.270   6.436   3.936 -0.6993 -0.6861 -0.3031
  629MOL0     C86718   0.277   6.383   4.058 -0.7977  0.2645 -0.7979
  629MOL0     C86719   0.353   6.234   4.476  0.3935  0.6190 -0.5053
  629MOL0     C86720   0.498   6.249   4.504 -0.1752  1.1653  0.0749
  629MOL0     C86721   0.547   6.230   4.638  0.2892 -0.1213  0.9569
  629MOL0     C86722   0.460   6.178   4.740  0.4469 -1.0790 -0.3351
  629MOL0     O86723   0.511   6.148   4.865  0.0516 -1.1569 -0.1956
  629MOL0     C86724   0.580   6.261   4.929  0.0872  0.7824 -0.5388
  629MOL0     C86725   0.735   6.221   4.925  0.8629 -0.2159  0.5918
  629MOL0     C86726   0.813   6.293   5.038  0.4595  0.2707 -0.5073
  629MOL0     C86727   0.948   6.222   5.045 -0.4521 -0.0633 -0.2680
  629MOL0     C86728   1.026   6.267   5.163  0.5676  0.5936 -0.2347
  629MOL0     C86729   1.069   6.309   5.263 -0.8156 -0.7835 -1.0866
  629MOL0     C86730   0.330   6.147   4.712  0.6284  1.0990  0.0606
  629MOL0     C86731   0.272   6.178   4.584  0.2588  0.5617 -0.1342
  629MOL0     C86732   0.123   6.141   4.559  1.1034 -0.5015  0.4311
  629MOL0     H86733   0.576   6.441   4.166 -5.6880 -4.4302  6.3414
  629MOL0     H86734   0.585   6.566   3.933 -2.3937  2.2667 -0.9368
  629MOL0     H86735   0.363   6.518   3.581 -0.5040  1.4604  1.7590
  629MOL0     H86736   0.428   6.375   3.672 -2.6368  1.0587  3.9812
  629MOL0     H86737   0.643   6.464   3.670 -2.3928 -2.3346 -1.2521
  629MOL0     H86738   0.588   6.493   3.500 -0.6693 -0.7038 -0.5865
  629MOL0     H86739   0.551   6.729   3.545  0.3246  0.6650  0.6510
  629MOL0     H86740   0.615   6.708   3.708  2.4076  4.3180 -1.0659
  629MOL0     H86741   0.842   6.651   3.604  1.4595  2.6818 -0.8084
  629MOL0     H86742   0.773   6.689   3.444 -0.0649 -0.0361 -0.1926
  629MOL0     H86743   0.897   6.871   3.534 -1.4117 -0.8656 -2.1654
  629MOL0     H86744   0.836   6.860   3.691 -0.1654  3.9735 -0.0209
  629MOL0     H86745   0.692   6.980   3.452  2.7205  0.4663  0.2444
  629MOL0     H86746   0.596   6.934   3.582 -0.5662  0.7305 -5.0178
  629MOL0     H86747   0.763   7.058   3.749  1.0865  2.0995  0.6264
  629MOL0     H86748   0.648   7.136   3.652 -0.6370 -0.5166 -0.3237
  629MOL0     H86749   0.789   7.260   3.527  2.5842  0.9524 -2.0628
  629MOL0     H86750   0.897   7.234   3.669 -1.5862  2.4759  0.5189
  629MOL0     H86751   1.099   7.059   3.641  0.2781 -1.2177 -0.0563
  629MOL0     H86752   1.224   6.838   3.357  0.2580 -2.2961  1.1506
  629MOL0     H86753   1.242   6.873   3.535 -2.2279  2.4852  1.6203
  629MOL0     H86754   1.338   7.080   3.333  1.3414  1.3689  0.1317
  629MOL0     H86755   1.371   7.070   3.502 -0.2295  0.6436 -0.4208
  629MOL0     H86756   1.580   6.987   3.398  2.1275 -4.0958 -0.1491
  629MOL0     H86757   1.486   6.840   3.417  0.4696  0.6263 -0.4466
  629MOL0     H86758   1.384   6.892   3.182 -1.3445  1.3459  0.2756
  629MOL0     H86759   1.524   6.990   3.149 -0.4329 -0.8263 -0.9840
  629MOL0     H86760   1.668   6.573   3.160 -0.1284 -1.0174  2.2214
  629MOL0     H86761   1.979   6.446   3.249  3.1411 -1.2337 -2.3650
  629MOL0     H86762   1.998   6.453   3.080  2.1745 -2.0023  1.9829
  629MOL0     H86763   1.841   6.408   3.138  0.7314 -1.7319 -1.1185
  629MOL0     H86764   2.363   6.661   3.425  3.1782 -5.7687 -0.8772
  629MOL0     H86765   2.587   6.662   3.443 -0.8989 -2.9470 -0.5377
  629MOL0     H86766   2.789   6.714   3.442 -3.8891 -0.0958 -0.7704
  629MOL0     H86767   2.777   6.598   3.317  1.2171 -1.3636 -0.6945
  629MOL0     H86768   3.017   6.682   3.225  0.4285 -2.6781 -0.1227
  629MOL0     H86769   3.006   6.798   3.365 -1.3318  1.0356 -1.2084
  629MOL0     H86770   2.961   6.505   3.431  0.8760 -0.5406 -3.6701
  629MOL0     H86771   3.059   6.621   3.520 -0.1542 -1.1814  1.0158
  629MOL0     H86772   3.247   6.590   3.395 -0.1425  0.7774 -0.3039
  629MOL0     H86773   3.168   6.499   3.268 -1.4017  1.0901 -0.5862
  629MOL0     H86774   3.182   6.406   3.565  2.8227  0.1340  0.9325
  629MOL0     H86775   3.105   6.319   3.442 -0.5228  0.9181 -2.5970
  629MOL0     H86776   3.328   6.222   3.491  1.1054  0.3573 -0.3472
  629MOL0     H86777   3.403   6.372   3.493  0.6831  1.6542 -3.2380
  629MOL0     H86778   3.420   6.408   3.267 -0.1881  0.6710  1.2863
  629MOL0     H86779   3.303   6.278   3.221 -0.6013 -1.7898  0.6465
  629MOL0     H86780   3.541   6.211   3.172  0.8213 -0.8564 -0.0626
  629MOL0     H86781   3.474   6.107   3.292 -0.1460 -0.6378 -0.6251
  629MOL0     H86782   2.613   6.902   3.073 -1.8181 -3.0444 -1.8921
  629MOL0     H86783   2.363   6.909   3.077 -2.0110 -0.6550  1.3781
  629MOL0     H86784   1.982   6.930   3.276 -0.8859  0.2854  3.6962
  629MOL0     H86785   1.768   6.980   3.259  0.8072 -0.5856  2.6228
  629MOL0     H86786   0.173   6.425   3.889 -2.5682  1.8692  2.6195
  629MOL0     H86787   0.182   6.346   4.096 -0.3762  0.1938  0.2107
  629MOL0     H86788   0.567   6.271   4.423 -0.3360  0.9470 -0.1222
  629MOL0     H86789   0.653   6.245   4.654  0.0640  0.4067  1.9905
  629MOL0     H86790   0.568   6.363   4.892  0.6424  1.5075  1.2203
  629MOL0     H86791   0.548   6.252   5.033 -0.9814 -1.2260 -0.9809
  629MOL0     H86792   0.773   6.244   4.825 -1.3836  1.9459  0.1321
  629MOL0     H86793   0.746   6.112   4.928 -3.0295 -1.0589 -3.5132
  629MOL0     H86794   0.838   6.400   5.033 -0.6786  0.5482 -0.4951
  629MOL0     H86795   0.750   6.279   5.126  1.9243  0.1563  0.5568
  629MOL0     H86796   1.008   6.253   4.959  1.7566 -3.8527 -0.3259
  629MOL0     H86797   0.945   6.113   5.046  2.7629 -0.2671  1.7532
  629MOL0     H86798   1.096   6.321   5.366 -1.0921 -3.2137 -0.6653
  629MOL0     H86799   0.277   6.109   4.799  2.1279  1.9307  1.3832
  629MOL0     H86800   0.083   6.108   4.656  1.0236  1.9105  1.2905
  629MOL0     H86801   0.073   6.232   4.526  1.5839 -0.3047  0.2352
  629MOL0     H86802   0.115   6.063   4.483  4.3924 -2.2054  1.6391
  630MOL0     O86803   0.028   5.353   9.696 -0.1030  0.0768 -0.2140
  630MOL0     C86804   0.098   5.284   9.766  0.5121 -0.0828  0.4847
  630MOL0     O86805   0.113   5.145   9.761  1.4136 -0.2270 -0.2664
  630MOL0     C86806   0.032   5.082   9.668 -0.1946  0.0879 -0.4722
  630MOL0     C86807   0.091   5.025   9.556  0.1571 -0.4790  0.0665
  630MOL0     C86808   0.018   4.960   9.456  0.0923 -1.1881  0.1620
  630MOL0     C86809  -0.121   4.935   9.479  0.3834 -0.3946 -1.0507
  630MOL0     O86810  -0.209   4.872   9.398  0.1596  0.1965 -0.6039
  630MOL0     C86811  -0.175   4.736   9.374  0.2640  0.8186  0.3453
  630MOL0     C86812  -0.263   4.638   9.457  0.1780 -0.5870 -0.3929
  630MOL0     C86813  -0.416   4.685   9.477 -0.2238 -0.4498  0.0019
  630MOL0     C86814  -0.463   4.696   9.619 -0.0381  0.9548  0.5583
  630MOL0     C86815  -0.616   4.685   9.638  0.9501  0.4376 -0.2779
  630MOL0     C86816  -0.648   4.697   9.785  1.0491  0.2202 -0.4881
  630MOL0     C86817  -0.752   4.801   9.820  0.2111 -0.3071  0.2921
  630MOL0     C86818  -0.693   4.940   9.809  0.2441  0.6857 -0.0757
  630MOL0     N86819  -0.782   5.050   9.837 -0.2722  0.3601 -0.7619
  630MOL0     C86820  -0.923   5.046   9.828 -0.7440 -0.3011  0.5249
  630MOL0     C86821  -0.950   5.179   9.845 -0.7482  0.4626  0.0435
  630MOL0     C86822  -1.084   5.235   9.853 -0.3266 -0.7462 -0.6099
  630MOL0     C86823  -1.166   5.214   9.722  0.5695  0.6281 -0.5451
  630MOL0     C86824  -1.157   5.310   9.611  0.9410 -0.2555 -0.1314
  630MOL0     C86825  -1.211   5.254   9.475  0.6043  0.6018  0.9169
  630MOL0     O86826  -1.354   5.222   9.500 -0.5130  0.3117 -0.3840
  630MOL0     C86827  -1.424   5.165   9.395 -0.0125  0.1114  0.5402
  630MOL0     C86828  -1.475   5.230   9.279  0.0098  1.0892  0.3177
  630MOL0     C86829  -1.551   5.157   9.180 -0.0745  0.2525 -0.8803
  630MOL0     C86830  -1.609   5.229   9.057  0.5151 -0.0655 -0.0406
  630MOL0     C86831  -1.572   5.019   9.203 -0.6759 -0.8212 -0.5729
  630MOL0     C86832  -1.652   4.921   9.131  0.9354 -0.2689 -0.3432
  630MOL0     O86833  -1.658   4.793   9.180  0.3084  0.2264  0.2923
  630MOL0     C86834  -1.767   4.717   9.176  0.1665 -0.2932  0.7338
  630MOL0     C86835  -1.778   4.619   9.285  0.2086 -0.4375 -0.7216
  630MOL0     C86836  -1.896   4.543   9.300  0.6932  0.3283 -0.6651
  630MOL0     C86837  -1.998   4.540   9.204  0.2061  0.6082  0.1965
  630MOL0     O86838  -2.107   4.451   9.206  0.1385 -0.9118 -0.2361
  630MOL0     C86839  -2.169   4.451   9.333 -1.2626 -0.2737 -0.4209
  630MOL0     C86840  -2.317   4.393   9.311 -0.3726 -0.2608  0.2944
  630MOL0     C86841  -2.404   4.502   9.245  0.8228  0.2547  0.6778
  630MOL0     C86842  -2.449   4.459   9.098  0.1312 -0.5631 -0.6377
  630MOL0     C86843  -2.511   4.580   9.024 -0.7466  0.5756 -0.6203
  630MOL0     C86844  -2.527   4.557   8.875  0.3005  0.5629 -0.2576
  630MOL0     C86845  -2.582   4.677   8.812 -0.3664  0.0547  0.2354
  630MOL0     C86846  -2.559   4.682   8.656  0.8999 -0.0403 -0.3697
  630MOL0    Cl86847  -2.382   4.714   8.613  0.3993  0.3945 -0.1819
  630MOL0     C86848  -1.983   4.624   9.097 -0.6130 -0.7172  0.5862
  630MOL0     C86849  -1.873   4.706   9.082  0.1195  0.1061  0.4291
  630MOL0     O86850  -1.728   4.959   9.043 -0.4241 -0.6257  0.3635
  630MOL0     C86851  -1.525   4.960   9.325  0.1889  0.2848  0.2933
  630MOL0     C86852  -1.444   5.030   9.412 -0.2622  0.4470  0.3018
  630MOL0     N86853  -0.826   5.246   9.869  0.2129 -0.0296  1.0093
  630MOL0     N86854  -0.729   5.172   9.865 -1.0709 -0.4940 -0.0458
  630MOL0     C86855  -0.179   4.988   9.590  0.8620  1.0347 -0.4878
  630MOL0     C86856  -0.105   5.060   9.691  0.8832 -0.7813 -0.0718
  630MOL0     C86857   0.184   5.364   9.861  0.3417  0.9221  0.5816
  630MOL0     C86858   0.291   5.303   9.931  0.0874 -0.5992 -0.8305
  630MOL0     C86859   0.377   5.359  10.020 -0.0462  0.1531 -0.0352
  630MOL0     C86860   0.358   5.493  10.041 -0.5318 -0.6596  0.4017
  630MOL0     O86861   0.463   5.539  10.123 -0.4067  0.2349  0.4230
  630MOL0     C86862   0.448   5.675  10.165  0.7421 -0.1902  0.4739
  630MOL0     C86863   0.551   5.722  10.260 -0.8852 -0.4938 -0.3983
  630MOL0     C86864   0.525   5.714  10.414  1.2758  0.1942 -0.0943
  630MOL0     C86865   0.442   5.828  10.476 -0.0496 -0.5794 -0.2363
  630MOL0     C86866   0.532   5.920  10.536  0.6567 -0.1355  0.7975
  630MOL0     C86867   0.608   6.011  10.559 -0.1916 -0.5677 -0.4664
  630MOL0     C86868   0.258   5.568   9.969  0.8618  0.0247  0.2169
  630MOL0     C86869   0.164   5.505   9.891 -0.1341  0.2706 -0.4569
  630MOL0     C86870   0.064   5.593   9.831 -0.2114 -0.6500 -0.8999
  630MOL0     H86871   0.198   5.038   9.538  0.2388  4.0789  2.2604
  630MOL0     H86872   0.066   4.912   9.371  0.4781 -0.2008 -0.1930
  630MOL0     H86873  -0.071   4.709   9.397 -0.4957 -0.4408  2.7284
  630MOL0     H86874  -0.185   4.718   9.267  1.3169 -2.1888  0.6521
  630MOL0     H86875  -0.262   4.549   9.394  1.8829 -1.2295  0.4775
  630MOL0     H86876  -0.215   4.618   9.553  3.0191  3.3582 -0.7634
  630MOL0     H86877  -0.438   4.777   9.422 -0.1693 -1.5461 -1.9375
  630MOL0     H86878  -0.486   4.623   9.420 -0.6568 -0.5984  0.6826
  630MOL0     H86879  -0.425   4.604   9.663 -1.0754 -1.6028 -3.3436
  630MOL0     H86880  -0.406   4.778   9.664  3.3747 -0.8289 -0.1866
  630MOL0     H86881  -0.649   4.590   9.595  1.7365 -0.1471  0.4020
  630MOL0     H86882  -0.658   4.768   9.580  0.7111 -0.5523 -1.5592
  630MOL0     H86883  -0.681   4.603   9.831 -0.9281  2.4489  3.1587
  630MOL0     H86884  -0.558   4.719   9.844  1.7666 -3.6081  0.1345
  630MOL0     H86885  -0.790   4.779   9.920 -1.7364 -0.9920 -0.5499
  630MOL0     H86886  -0.844   4.804   9.761 -1.4268  1.0603  2.7097
  630MOL0     H86887  -0.593   4.941   9.854  0.0830 -0.1832  0.3249
  630MOL0     H86888  -0.674   4.952   9.702 -1.2491  0.9047 -0.3342
  630MOL0     H86889  -0.985   4.962   9.800 -0.2638  0.2333 -2.4460
  630MOL0     H86890  -1.071   5.343   9.865 -0.1782 -0.8478  0.1987
  630MOL0     H86891  -1.129   5.181   9.937 -0.9459 -0.5500 -0.8139
  630MOL0     H86892  -1.146   5.114   9.681  1.4839  1.4788 -2.2828
  630MOL0     H86893  -1.271   5.216   9.753  0.5346  3.6657 -0.6377
  630MOL0     H86894  -1.208   5.403   9.640  0.9036 -0.8834  1.9579
  630MOL0     H86895  -1.054   5.345   9.597  1.3803 -1.1964  0.6547
  630MOL0     H86896  -1.201   5.332   9.398 -1.6077  0.1429  0.0847
  630MOL0     H86897  -1.165   5.163   9.437 -0.3115  0.7233 -0.5648
  630MOL0     H86898  -1.465   5.337   9.271 -0.9920  1.3378  2.0136
  630MOL0     H86899  -1.711   5.196   9.038  0.9828 -2.3440  0.9939
  630MOL0     H86900  -1.550   5.181   8.979  2.5239 -2.2240  2.6136
  630MOL0     H86901  -1.588   5.336   9.052  1.3261 -0.2824 -3.0422
  630MOL0     H86902  -1.700   4.613   9.361  0.8991  0.0053 -1.3780
  630MOL0     H86903  -1.908   4.487   9.393  1.9958  0.7867 -0.1991
  630MOL0     H86904  -2.110   4.387   9.400  3.4138  1.0536 -2.8111
  630MOL0     H86905  -2.177   4.555   9.363 -0.5638 -0.0080 -1.1134
  630MOL0     H86906  -2.316   4.308   9.242 -1.6160  2.9897 -4.1722
  630MOL0     H86907  -2.359   4.367   9.408 -1.0403  0.0191  0.0846
  630MOL0     H86908  -2.356   4.599   9.233 -2.1215  1.9120  1.3004
  630MOL0     H86909  -2.495   4.521   9.302  1.0882 -0.1200  1.2322
  630MOL0     H86910  -2.526   4.381   9.098 -1.7458  1.2107 -0.4643
  630MOL0     H86911  -2.365   4.430   9.034 -0.8778 -1.6046 -1.5345
  630MOL0     H86912  -2.606   4.611   9.069 -0.9357 -0.8765  0.0429
  630MOL0     H86913  -2.442   4.663   9.040 -0.1476 -0.3197  1.9502
  630MOL0     H86914  -2.593   4.471   8.859 -3.4268  3.1244 -0.0759
  630MOL0     H86915  -2.445   4.519   8.813 -2.6045 -2.3978 -2.6952
  630MOL0     H86916  -2.532   4.766   8.853 -0.2589  0.8291 -1.4940
  630MOL0     H86917  -2.690   4.685   8.827 -0.5789 -1.6538 -0.1767
  630MOL0     H86918  -2.631   4.757   8.622  0.0576  0.1220  1.6394
  630MOL0     H86919  -2.596   4.594   8.603 -0.2161  0.7888 -1.0198
  630MOL0     H86920  -2.056   4.617   9.017 -0.6215 -0.8855  0.6098
  630MOL0     H86921  -1.862   4.751   8.983  0.5105 -0.2781  0.2974
  630MOL0     H86922  -1.521   4.855   9.352 -1.5242  0.2052  0.3219
  630MOL0     H86923  -1.411   4.974   9.499  1.1363  2.1270  0.8884
  630MOL0     H86924  -0.281   4.962   9.617  1.5446 -1.2863  0.1391
  630MOL0     H86925  -0.161   5.114   9.766  1.2565  0.8920 -0.9506
  630MOL0     H86926   0.298   5.194   9.932  0.3370 -0.5761  0.0223
  630MOL0     H86927   0.453   5.306  10.077  3.7449  2.8080 -2.1896
  630MOL0     H86928   0.456   5.745  10.081 -0.5359  0.0456  0.5301
  630MOL0     H86929   0.343   5.696  10.191 -0.4816 -0.2137 -3.6627
  630MOL0     H86930   0.571   5.829  10.248 -1.2752 -0.5325 -1.4950
  630MOL0     H86931   0.634   5.653  10.239 -1.1690 -0.9015 -0.1892
  630MOL0     H86932   0.457   5.629  10.421 -0.3905  1.1455 -2.9696
  630MOL0     H86933   0.618   5.688  10.466  1.0634  1.2164  0.8399
  630MOL0     H86934   0.383   5.785  10.558 -0.0498  0.9629  0.6190
  630MOL0     H86935   0.381   5.879  10.400 -0.0253  1.0327  0.7703
  630MOL0     H86936   0.669   6.094  10.589 -1.2869  0.9295 -2.1441
  630MOL0     H86937   0.263   5.676   9.982  0.0652 -0.2954  4.8959
  630MOL0     H86938   0.106   5.604   9.730 -3.5150 -0.9753 -2.4296
  630MOL0     H86939  -0.035   5.549   9.821  0.5987 -2.6739 -0.5161
  630MOL0     H86940   0.061   5.692   9.878 -0.0613 -1.0571 -0.0220
  631MOL0     O86941   0.242   5.016   6.313  0.0630 -0.0146  0.7752
  631MOL0     C86942   0.221   5.054   6.427  0.4234 -0.6374  0.1117
  631MOL0     O86943   0.305   5.040   6.530  0.5921 -0.0548 -0.2196
  631MOL0     C86944   0.404   4.954   6.509 -1.5371 -0.2782  0.5101
  631MOL0     C86945   0.532   5.001   6.550  0.0601 -0.0466  0.1555
  631MOL0     C86946   0.639   4.922   6.523 -0.3945 -0.4578  0.8455
  631MOL0     C86947   0.632   4.793   6.471 -0.0184  0.4978  0.6774
  631MOL0     O86948   0.733   4.709   6.433 -0.2165  0.0874  0.0296
  631MOL0     C86949   0.725   4.579   6.474  0.2553  0.2543  0.3555
  631MOL0     C86950   0.821   4.572   6.594  0.1452 -0.1211 -0.8614
  631MOL0     C86951   0.842   4.687   6.698 -0.9707 -0.7144 -0.3453
  631MOL0     C86952   0.738   4.700   6.809 -0.3317  1.7200 -1.5196
  631MOL0     C86953   0.777   4.813   6.902 -0.1893  0.5021 -0.7127
  631MOL0     C86954   0.679   4.812   7.022  0.8122 -0.2211 -0.0685
  631MOL0     C86955   0.751   4.897   7.129  0.5530 -0.6364 -0.7795
  631MOL0     C86956   0.764   5.047   7.091 -0.3921  0.3543 -0.0137
  631MOL0     N86957   0.650   5.111   7.026 -0.2023  0.1302 -0.7821
  631MOL0     C86958   0.526   5.147   7.090 -0.9504 -0.1200  0.1196
  631MOL0     C86959   0.458   5.227   6.999 -0.7079  0.4232  0.3367
  631MOL0     C86960   0.327   5.293   7.014 -0.1627  0.3405 -0.7066
  631MOL0     C86961   0.202   5.191   7.026 -0.9500 -0.2960 -0.6351
  631MOL0     C86962   0.228   5.058   7.115  0.3846 -0.5734 -0.1709
  631MOL0     C86963   0.273   4.955   7.019 -0.0998 -0.5597 -0.7711
  631MOL0     O86964   0.296   4.830   7.088 -0.2819 -0.0411  0.5871
  631MOL0     C86965   0.333   4.722   7.014  0.9646 -0.6933 -0.4864
  631MOL0     C86966   0.375   4.613   7.091  0.1967  1.1063  0.8065
  631MOL0     C86967   0.427   4.500   7.036  0.1776  0.3840  0.4719
  631MOL0     C86968   0.470   4.398   7.142  0.4981  0.5703 -0.3181
  631MOL0     C86969   0.424   4.488   6.902 -0.4039 -0.5211 -0.8816
  631MOL0     C86970   0.487   4.373   6.834  1.0147 -0.1281 -0.4559
  631MOL0     O86971   0.412   4.322   6.717  0.2056 -0.1417 -0.5301
  631MOL0     C86972   0.462   4.209   6.650  0.5940  0.1685  0.1678
  631MOL0     C86973   0.381   4.093   6.645 -0.0143 -0.8659 -0.5455
  631MOL0     C86974   0.423   3.980   6.578  0.2932  0.1448  0.5964
  631MOL0     C86975   0.550   3.975   6.518  0.2384 -0.3369  0.2934
  631MOL0     O86976   0.603   3.862   6.463 -0.7030  0.1462  0.9823
  631MOL0     C86977   0.548   3.726   6.505 -0.6144 -1.4571  0.2390
  631MOL0     C86978   0.630   3.613   6.438  0.2949 -0.4779  0.3381
  631MOL0     C86979   0.651   3.635   6.292 -1.0260 -1.1867 -0.0825
  631MOL0     C86980   0.736   3.519   6.233  0.6763 -0.5578 -0.1868
  631MOL0     C86981   0.757   3.533   6.084 -0.4307  0.3207 -0.1692
  631MOL0     C86982   0.859   3.650   6.045 -0.1759 -0.2585 -0.5722
  631MOL0     C86983   0.905   3.637   5.904 -1.5144 -0.1260  0.0605
  631MOL0     C86984   1.046   3.709   5.875  0.3147 -0.0174  0.6474
  631MOL0    Cl86985   1.084   3.634   5.713  0.4847  0.0681  0.0764
  631MOL0     C86986   0.626   4.089   6.523 -0.7941 -0.2264  0.2531
  631MOL0     C86987   0.585   4.204   6.588 -0.0832 -0.4645 -0.1723
  631MOL0     O86988   0.577   4.318   6.889  0.4338 -0.4751  0.2991
  631MOL0     C86989   0.380   4.592   6.823  1.2794 -0.0966 -0.1296
  631MOL0     C86990   0.328   4.710   6.881 -0.0849 -0.3965  0.3655
  631MOL0     N86991   0.542   5.233   6.882  0.4762 -0.0655  0.4758
  631MOL0     N86992   0.654   5.162   6.902 -0.1368 -0.0006 -0.6900
  631MOL0     C86993   0.511   4.757   6.424 -0.1255  0.3522  0.4425
  631MOL0     C86994   0.392   4.826   6.443 -0.2783 -0.6084 -0.2950
  631MOL0     C86995   0.102   5.135   6.463 -0.3057  0.4918  0.0534
  631MOL0     C86996   0.074   5.163   6.595  0.5550 -0.5777  0.1254
  631MOL0     C86997  -0.031   5.242   6.627  0.2990 -0.3441  0.3251
  631MOL0     C86998  -0.134   5.272   6.535  0.2331 -0.7970 -0.0115
  631MOL0     O86999  -0.230   5.361   6.559 -0.1037  0.0736  0.0527
  631MOL0     C87000  -0.185   5.490   6.573 -0.4014  0.3347 -0.0284
  631MOL0     C87001  -0.102   5.548   6.451  0.2755  0.1046 -0.8572
  631MOL0     C87002  -0.076   5.693   6.480 -0.1247 -0.0890 -0.6300
  631MOL0     C87003  -0.154   5.805   6.392 -0.9164  0.2126 -0.2421
  631MOL0     C87004  -0.118   5.941   6.411  0.7108  0.4298  0.0670
  631MOL0     C87005  -0.088   6.057   6.440  0.7721  0.3695 -0.3715
  631MOL0     C87006  -0.104   5.237   6.403  0.7001  0.5108  0.7018
  631MOL0     C87007   0.003   5.163   6.365  0.8475 -0.1320 -0.2548
  631MOL0     C87008   0.010   5.126   6.223 -0.4352  0.3991  0.1037
  631MOL0     H87009   0.538   5.100   6.593  0.5422  0.4809 -1.1073
  631MOL0     H87010   0.735   4.945   6.568 -1.3063  4.6384  0.6878
  631MOL0     H87011   0.775   4.512   6.404  2.6965  1.6640  0.6042
  631MOL0     H87012   0.633   4.536   6.514  2.5613 -3.2650  2.4536
  631MOL0     H87013   0.787   4.486   6.652 -2.0994  0.3894 -1.3245
  631MOL0     H87014   0.914   4.536   6.548 -0.9332 -3.8192 -0.4382
  631MOL0     H87015   0.943   4.670   6.736 -0.6309  1.5234 -0.1239
  631MOL0     H87016   0.868   4.788   6.663 -1.9156 -0.6382 -0.8515
  631MOL0     H87017   0.640   4.720   6.766 -0.7994  2.4676 -0.1783
  631MOL0     H87018   0.727   4.610   6.870  1.7374  0.6521 -2.6134
  631MOL0     H87019   0.768   4.908   6.848  3.3868  2.7083  2.1188
  631MOL0     H87020   0.883   4.805   6.925 -0.6037  0.9883  1.5901
  631MOL0     H87021   0.585   4.854   6.986 -0.3156 -0.8993  1.9282
  631MOL0     H87022   0.646   4.718   7.067 -0.6966  0.3056 -0.0164
  631MOL0     H87023   0.845   4.851   7.160 -1.8252 -4.1684  2.0465
  631MOL0     H87024   0.677   4.899   7.209  3.1314 -3.9117  2.0276
  631MOL0     H87025   0.792   5.094   7.186 -1.7391 -0.4760  0.8404
  631MOL0     H87026   0.847   5.045   7.019 -1.9007 -3.1214 -1.9210
  631MOL0     H87027   0.494   5.129   7.192 -1.8845 -0.0962 -0.1672
  631MOL0     H87028   0.293   5.371   6.944 -1.5434  0.6742  0.2974
  631MOL0     H87029   0.340   5.347   7.108  0.4962 -1.2897  0.1738
  631MOL0     H87030   0.114   5.238   7.071  0.8536  2.1587  0.5624
  631MOL0     H87031   0.179   5.156   6.925 -4.4630  1.6383 -0.6639
  631MOL0     H87032   0.288   5.057   7.207  0.0961 -0.3425  0.0259
  631MOL0     H87033   0.132   5.032   7.162  2.0187 -0.2229  3.7833
  631MOL0     H87034   0.207   4.936   6.934  1.3922 -0.2929 -2.0516
  631MOL0     H87035   0.363   4.984   6.963  2.0293 -3.3040  0.9566
  631MOL0     H87036   0.380   4.628   7.198 -0.8239  4.9908  0.4724
  631MOL0     H87037   0.398   4.381   7.222  2.7902  0.0844  1.7516
  631MOL0     H87038   0.563   4.426   7.191  0.0665  1.2115  0.1469
  631MOL0     H87039   0.483   4.298   7.100 -1.0971  0.7716 -1.4172
  631MOL0     H87040   0.278   4.090   6.680  0.2543  0.7280  0.5204
  631MOL0     H87041   0.361   3.892   6.567  0.0289  0.7263 -4.8151
  631MOL0     H87042   0.564   3.705   6.611  0.9028 -0.9512  0.1327
  631MOL0     H87043   0.445   3.711   6.472 -1.3112  0.9356  1.1986
  631MOL0     H87044   0.726   3.623   6.488  0.3806  2.3387 -0.2149
  631MOL0     H87045   0.567   3.527   6.461 -0.9268 -0.1954 -1.6220
  631MOL0     H87046   0.703   3.730   6.285  0.9934 -2.0967  1.4214
  631MOL0     H87047   0.554   3.646   6.243 -2.9919  3.2991  3.9795
  631MOL0     H87048   0.685   3.426   6.262 -1.1633 -0.4043 -2.6264
  631MOL0     H87049   0.832   3.527   6.284  0.4386  4.9183 -0.1016
  631MOL0     H87050   0.815   3.449   6.046 -2.3376 -0.8454 -0.6669
  631MOL0     H87051   0.664   3.541   6.026  1.4248  0.0078 -3.4414
  631MOL0     H87052   0.944   3.639   6.112 -1.1185 -5.2588  0.1915
  631MOL0     H87053   0.820   3.752   6.041  2.0827  0.6577 -0.8526
  631MOL0     H87054   0.833   3.682   5.835 -2.7260 -0.5936  0.9855
  631MOL0     H87055   0.925   3.534   5.875  1.6335  0.4229 -0.0869
  631MOL0     H87056   1.122   3.684   5.950  3.0548 -2.9715 -2.7494
  631MOL0     H87057   1.042   3.818   5.861  1.2617 -0.2734 -2.2752
  631MOL0     H87058   0.706   4.107   6.452 -5.0200  2.3892 -4.5470
  631MOL0     H87059   0.645   4.293   6.572 -2.9842  1.7044  0.1200
  631MOL0     H87060   0.379   4.576   6.715 -1.2162 -3.8550  0.2621
  631MOL0     H87061   0.314   4.798   6.819 -0.0297 -0.9771 -0.5005
  631MOL0     H87062   0.511   4.678   6.350 -1.8291  2.4503 -1.9460
  631MOL0     H87063   0.304   4.782   6.398  0.0657  0.2180 -1.8317
  631MOL0     H87064   0.146   5.146   6.675  1.2989 -0.3501 -0.4840
  631MOL0     H87065  -0.041   5.262   6.734  3.6342  1.9361  0.3537
  631MOL0     H87066  -0.280   5.544   6.579 -2.3471 -2.9130  0.5358
  631MOL0     H87067  -0.131   5.499   6.668  0.9541  0.5962 -0.8030
  631MOL0     H87068  -0.166   5.547   6.362 -0.7834 -0.4525 -0.1031
  631MOL0     H87069  -0.009   5.493   6.439 -0.8223 -1.9007 -0.5312
  631MOL0     H87070  -0.088   5.707   6.588  0.6619 -0.4658 -0.4885
  631MOL0     H87071   0.028   5.724   6.465 -0.4190  1.6983  0.7806
  631MOL0     H87072  -0.262   5.793   6.404 -0.4956 -0.7880  3.5606
  631MOL0     H87073  -0.126   5.778   6.289 -4.0338 -3.1829 -0.4218
  631MOL0     H87074  -0.049   6.155   6.461 -0.9354  1.1924 -0.9157
  631MOL0     H87075  -0.171   5.264   6.322  1.3163  1.0332  0.3571
  631MOL0     H87076  -0.083   5.144   6.168 -3.5215  0.5907  4.8401
  631MOL0     H87077   0.092   5.181   6.176  2.5172 -1.2270  2.9609
  631MOL0     H87078   0.033   5.019   6.218  2.5128  0.8236  2.2806
  632MOL0     O87079   6.918   7.434  10.583 -0.2980  0.1874 -0.3785
  632MOL0     C87080   6.807   7.491  10.578  0.0494 -0.8187  0.4333
  632MOL0     O87081   6.749   7.534  10.473 -0.3565  0.4287 -1.3547
  632MOL0     C87082   6.787   7.480  10.345 -0.0732  0.3714  0.3849
  632MOL0     C87083   6.689   7.418  10.263  0.6140  1.2315 -0.1909
  632MOL0     C87084   6.718   7.357  10.138  0.4520  1.0263  0.0491
  632MOL0     C87085   6.842   7.362  10.081 -0.2619  0.5215 -0.4594
  632MOL0     O87086   6.873   7.308   9.960 -1.2832 -1.0163 -0.5112
  632MOL0     C87087   6.940   7.186   9.952  0.0188  0.0883  0.3608
  632MOL0     C87088   7.050   7.204   9.854 -0.3944  0.0385 -0.1970
  632MOL0     C87089   7.170   7.278   9.894  1.0206  0.4378  0.3857
  632MOL0     C87090   7.292   7.272   9.792 -0.3461  0.7596 -1.4175
  632MOL0     C87091   7.262   7.339   9.662 -0.1463  0.7674  0.9722
  632MOL0     C87092   7.397   7.359   9.586  1.0875 -0.7038  0.2975
  632MOL0     C87093   7.396   7.486   9.505  0.8330  0.0060 -1.1434
  632MOL0     C87094   7.498   7.486   9.380 -0.0862 -0.9609  0.0455
  632MOL0     N87095   7.629   7.517   9.427 -0.8642  0.3880 -0.0947
  632MOL0     C87096   7.727   7.560   9.338  0.3947 -0.9429  0.2264
  632MOL0     C87097   7.848   7.531   9.390 -0.6962 -0.2065 -0.2545
  632MOL0     C87098   7.986   7.557   9.334  1.1847 -0.1225 -0.5204
  632MOL0     C87099   7.973   7.596   9.187  0.8829 -0.3029  0.3595
  632MOL0     C87100   8.098   7.560   9.109 -0.3700 -0.7227 -0.0530
  632MOL0     C87101   8.089   7.535   8.957  0.0482  0.1341 -0.1661
  632MOL0     O87102   8.216   7.466   8.914  0.3308 -0.1564 -0.0666
  632MOL0     C87103   8.199   7.364   8.823  0.2924 -0.2951  0.9491
  632MOL0     C87104   8.150   7.400   8.699 -0.6006  0.4456 -0.6054
  632MOL0     C87105   8.127   7.303   8.599  0.2958 -1.2625 -0.1082
  632MOL0     C87106   8.083   7.359   8.471 -0.5741 -0.6838 -0.1646
  632MOL0     C87107   8.161   7.166   8.622 -0.0462 -0.3455 -1.3909
  632MOL0     C87108   8.149   7.056   8.525  0.5291  0.7173 -0.0880
  632MOL0     O87109   8.200   6.939   8.565 -0.8624  0.1188  0.2701
  632MOL0     C87110   8.226   6.845   8.473 -0.6009 -0.3793  0.3517
  632MOL0     C87111   8.353   6.808   8.442  0.1772  0.1284 -0.6767
  632MOL0     C87112   8.375   6.691   8.371  0.4029 -1.2413 -0.3933
  632MOL0     C87113   8.271   6.624   8.310 -0.6883  0.6864  0.4199
  632MOL0     O87114   8.294   6.510   8.234 -0.5166  0.3295  0.5613
  632MOL0     C87115   8.204   6.412   8.193  0.9038  0.2254 -0.0114
  632MOL0     C87116   8.252   6.278   8.229  1.2236  0.3700 -0.1899
  632MOL0     C87117   8.143   6.181   8.174 -0.2817  0.5213  0.2057
  632MOL0     C87118   8.201   6.037   8.193  0.6819 -1.2526  0.5754
  632MOL0     C87119   8.120   5.931   8.121 -1.0543 -1.2003  0.7490
  632MOL0     C87120   8.179   5.803   8.168  0.4268  0.0334  0.3040
  632MOL0     C87121   8.152   5.693   8.058 -0.5469  0.0227  0.2037
  632MOL0     C87122   8.188   5.546   8.113 -1.0166 -0.1377 -0.1452
  632MOL0    Cl87123   8.113   5.424   8.005 -0.0277  0.0577 -0.4458
  632MOL0     C87124   8.148   6.666   8.339  1.5812 -0.5068 -0.2357
  632MOL0     C87125   8.115   6.763   8.432 -0.4811 -0.3469 -0.2099
  632MOL0     O87126   8.084   7.069   8.423  0.9633 -0.0939  1.0135
  632MOL0     C87127   8.203   7.140   8.752 -0.8744  0.2798 -0.4614
  632MOL0     C87128   8.212   7.234   8.855 -0.2454  0.7916 -1.3928
  632MOL0     N87129   7.821   7.470   9.509  0.0241 -0.0502 -0.4829
  632MOL0     N87130   7.696   7.458   9.530 -0.4929 -0.4326  0.5077
  632MOL0     C87131   6.945   7.415  10.169  0.4822 -0.8405  0.3529
  632MOL0     C87132   6.913   7.481  10.288 -0.0184  1.3152 -0.1006
  632MOL0     C87133   6.739   7.539  10.704  0.4980  1.1480  0.0807
  632MOL0     C87134   6.817   7.614  10.797  0.2025  1.5749 -0.1914
  632MOL0     C87135   6.763   7.676  10.910 -0.7735 -0.0576  0.1519
  632MOL0     C87136   6.629   7.662  10.947  0.2980  0.1979  0.3944
  632MOL0     O87137   6.573   7.724  11.048 -1.2662  0.4569 -0.7566
  632MOL0     C87138   6.610   7.677  11.181 -1.2204 -0.6846  0.0394
  632MOL0     C87139   6.665   7.784  11.274 -1.7255  0.6938 -0.8019
  632MOL0     C87140   6.551   7.880  11.324  0.9323  0.9869  1.1616
  632MOL0     C87141   6.609   7.976  11.427 -0.9237 -0.3202 -0.0822
  632MOL0     C87142   6.650   7.916  11.546  0.1755  1.1025  1.2054
  632MOL0     C87143   6.681   7.863  11.653  0.2472  0.2733 -0.3694
  632MOL0     C87144   6.545   7.592  10.860  0.5858 -0.4917 -0.6444
  632MOL0     C87145   6.600   7.528  10.736  0.4485  0.4546 -0.5909
  632MOL0     C87146   6.502   7.460  10.649  0.0237  0.4533 -0.4707
  632MOL0     H87147   6.590   7.418  10.307  0.8299 -1.0519  0.4041
  632MOL0     H87148   6.645   7.304  10.078  1.2771  0.4066 -0.4379
  632MOL0     H87149   6.877   7.098   9.936 -0.5956  0.4957  0.4766
  632MOL0     H87150   6.977   7.158  10.050 -0.4948 -0.0202  0.5279
  632MOL0     H87151   7.092   7.106   9.829 -3.0305 -0.8549 -1.4765
  632MOL0     H87152   7.005   7.245   9.763 -0.9812  2.7350  1.1958
  632MOL0     H87153   7.138   7.383   9.901 -1.1409  0.1351 -2.7997
  632MOL0     H87154   7.208   7.238   9.988 -0.2822  0.5400  0.9782
  632MOL0     H87155   7.376   7.322   9.841 -0.3684 -0.8698  0.4105
  632MOL0     H87156   7.323   7.167   9.784  3.2437  1.6120 -0.2345
  632MOL0     H87157   7.207   7.432   9.678 -1.0665 -0.0313  2.6041
  632MOL0     H87158   7.212   7.261   9.604  0.2784  0.3376  1.1797
  632MOL0     H87159   7.480   7.369   9.657  0.2456 -1.7220  1.4706
  632MOL0     H87160   7.408   7.269   9.524  1.3673 -2.2780  2.4814
  632MOL0     H87161   7.433   7.569   9.566  0.2651  0.8934 -1.9630
  632MOL0     H87162   7.295   7.497   9.465  0.2924  0.6412  0.3245
  632MOL0     H87163   7.504   7.397   9.317 -1.0251  0.6586 -2.5013
  632MOL0     H87164   7.459   7.564   9.313 -0.8304 -0.3551  1.1387
  632MOL0     H87165   7.699   7.594   9.239 -0.8006 -3.4791 -0.3919
  632MOL0     H87166   8.034   7.459   9.331 -1.4847 -1.5079 -1.2316
  632MOL0     H87167   8.045   7.634   9.385  0.0609 -0.2224  1.0172
  632MOL0     H87168   7.890   7.535   9.149  1.7204  0.2018 -2.5231
  632MOL0     H87169   7.940   7.699   9.178 -2.4327 -1.4171 -2.7983
  632MOL0     H87170   8.167   7.642   9.128 -3.1901  1.0146  4.4093
  632MOL0     H87171   8.148   7.471   9.150  1.2852  1.0413  2.0264
  632MOL0     H87172   8.005   7.471   8.931  0.4267  0.7645 -3.3799
  632MOL0     H87173   8.076   7.631   8.906  0.3468  0.6248  0.6536
  632MOL0     H87174   8.132   7.506   8.679 -1.3094  0.4522  0.0159
  632MOL0     H87175   7.975   7.341   8.463 -0.4321 -2.3328  1.0830
  632MOL0     H87176   8.126   7.314   8.381 -2.3472 -0.6955 -1.0645
  632MOL0     H87177   8.116   7.462   8.456  3.4331 -2.2535 -5.0558
  632MOL0     H87178   8.442   6.864   8.468 -0.1243  0.6253 -0.7012
  632MOL0     H87179   8.477   6.655   8.363  0.2273 -1.3619 -2.8881
  632MOL0     H87180   8.101   6.424   8.226  0.6051  0.8851 -1.1275
  632MOL0     H87181   8.193   6.411   8.084  0.2801 -2.7203 -0.0173
  632MOL0     H87182   8.348   6.258   8.180  1.2662 -0.0969  0.0718
  632MOL0     H87183   8.262   6.283   8.338 -0.4119  5.2330 -0.0395
  632MOL0     H87184   8.159   6.203   8.067  2.4873  0.8779  0.6058
  632MOL0     H87185   8.041   6.207   8.204 -1.5959  2.2154 -4.7593
  632MOL0     H87186   8.194   6.026   8.301  6.2138  0.2138  1.3858
  632MOL0     H87187   8.308   6.039   8.169  0.7507 -1.8865  0.8121
  632MOL0     H87188   8.015   5.931   8.151 -2.6510 -0.9563 -4.0294
  632MOL0     H87189   8.124   5.939   8.012  2.1464  1.9677  0.8900
  632MOL0     H87190   8.134   5.765   8.260  1.4251 -5.0997 -0.9922
  632MOL0     H87191   8.285   5.816   8.189  0.8533 -1.6116 -0.6954
  632MOL0     H87192   8.209   5.703   7.965  0.5377 -0.7894  0.7661
  632MOL0     H87193   8.047   5.689   8.028 -0.3826 -1.5236 -0.2310
  632MOL0     H87194   8.150   5.542   8.216  0.1933  2.4178  0.4882
  632MOL0     H87195   8.297   5.532   8.113 -1.2099 -2.3834 -2.7503
  632MOL0     H87196   8.063   6.606   8.307  0.6733 -0.8604  2.5421
  632MOL0     H87197   8.012   6.777   8.462 -0.7544 -1.9942 -0.3091
  632MOL0     H87198   8.223   7.038   8.781  2.5689  0.8432 -0.5298
  632MOL0     H87199   8.243   7.211   8.956  3.6720  2.4361 -2.0713
  632MOL0     H87200   7.045   7.428  10.129  0.0893 -1.6935 -0.9945
  632MOL0     H87201   6.983   7.550  10.335 -0.8561  1.7548  0.5304
  632MOL0     H87202   6.922   7.624  10.773  0.1950 -1.5435 -2.1094
  632MOL0     H87203   6.827   7.748  10.960 -0.1582 -0.4139 -0.1109
  632MOL0     H87204   6.538   7.618  11.238  1.9609 -3.9758  1.0051
  632MOL0     H87205   6.691   7.604  11.177 -0.5271 -0.1423  2.6425
  632MOL0     H87206   6.752   7.831  11.226  0.2851  0.2727  2.1439
  632MOL0     H87207   6.708   7.735  11.362  0.4756  3.8202  0.0775
  632MOL0     H87208   6.518   7.937  11.237  0.9316 -0.6594  0.0429
  632MOL0     H87209   6.464   7.828  11.365 -0.8303  1.9275 -1.1708
  632MOL0     H87210   6.528   8.047  11.442 -1.3497 -0.6349 -0.8615
  632MOL0     H87211   6.709   8.008  11.397 -0.0808 -1.3469  1.4839
  632MOL0     H87212   6.716   7.827  11.748  1.5959  0.9249 -0.5862
  632MOL0     H87213   6.439   7.616  10.871  1.2478  1.2103  3.9364
  632MOL0     H87214   6.513   7.476  10.542 -2.2451  0.0610 -0.8112
  632MOL0     H87215   6.498   7.351  10.664 -1.6282  0.6913  1.2401
  632MOL0     H87216   6.402   7.498  10.670  1.4345  3.0799  2.2934
  633MOL0     O87217  11.285   0.234   2.884  0.1728  0.1884 -0.4458
  633MOL0     C87218  11.377   0.311   2.884  0.0287 -0.5946  0.0743
  633MOL0     O87219  11.459   0.344   2.775  0.1236  0.0227 -0.5829
  633MOL0     C87220  11.448   0.282   2.650  0.6261  0.5570 -0.6060
  633MOL0     C87221  11.450   0.139   2.636  0.1044 -0.4167 -1.3746
  633MOL0     C87222  11.455   0.081   2.515  0.2023 -0.5315  0.6087
  633MOL0     C87223  11.443   0.157   2.404 -0.0035  1.0694 -0.2659
  633MOL0     O87224  11.437   0.092   2.283 -0.0076 -0.2714 -0.7371
  633MOL0     C87225  11.369   0.148   2.170 -0.1081 -0.2883  0.3053
  633MOL0     C87226  11.219   0.122   2.214  1.0754  0.1185  0.7769
  633MOL0     C87227  11.121   0.134   2.093  0.4928  0.0458 -0.4116
  633MOL0     C87228  11.157   0.040   1.975  0.2033 -0.4668  0.4493
  633MOL0     C87229  11.041   0.019   1.864  0.5666 -0.0843 -0.2195
  633MOL0     C87230  11.023   0.139   1.770 -0.0503  0.8762  0.2845
  633MOL0     C87231  10.965   0.097   1.633 -0.0568  0.6521  0.3529
  633MOL0     C87232  10.810   0.076   1.645  0.6328  0.1953  0.5475
  633MOL0     N87233  10.760   0.006   1.522 -0.8770 -0.3684 -0.6217
  633MOL0     C87234  10.773   0.080   1.411  0.4809 -0.1942 -1.4139
  633MOL0     C87235  10.709   0.014   1.321  0.3100  0.6294 -0.5374
  633MOL0     C87236  10.702   0.016   1.173  0.5548  0.2501  0.1077
  633MOL0     C87237  10.832  -0.006   1.098 -0.7300  0.3120 -0.3305
  633MOL0     C87238  10.833   0.004   0.945  0.7326 -0.3222 -0.2479
  633MOL0     C87239  10.832   0.158   0.898  0.2614 -0.6195  0.3253
  633MOL0     O87240  10.707   0.221   0.933 -0.0858 -0.0133  0.5524
  633MOL0     C87241  10.592   0.215   0.850  0.2357  0.4132  0.4639
  633MOL0     C87242  10.603   0.228   0.710  0.0851 -1.0118  0.0878
  633MOL0     C87243  10.488   0.255   0.625  0.2794 -0.4473 -0.6672
  633MOL0     C87244  10.502   0.281   0.484 -0.2403 -0.3429  0.2954
  633MOL0     C87245  10.366   0.261   0.697  0.2278 -0.6352 -0.2535
  633MOL0     C87246  10.241   0.308   0.631  0.1102  0.8219 -0.6315
  633MOL0     O87247  10.170   0.402   0.697  0.1471 -0.0600 -0.4746
  633MOL0     C87248  10.049   0.438   0.635  0.1322 -0.5976  0.5221
  633MOL0     C87249   9.925   0.360   0.650  0.8931  0.1510  0.3823
  633MOL0     C87250   9.802   0.389   0.594  0.1591  0.2651  0.3985
  633MOL0     C87251   9.786   0.517   0.537 -0.0944 -0.3547  0.4178
  633MOL0     O87252   9.668   0.556   0.486  0.4634 -0.9474 -0.2732
  633MOL0     C87253   9.664   0.565   0.345  0.1373 -0.3407 -0.4455
  633MOL0     C87254   9.524   0.610   0.294  1.0557 -0.2465  0.6253
  633MOL0     C87255   9.489   0.756   0.324 -0.4316 -0.1532  0.7364
  633MOL0     C87256   9.351   0.801   0.269  0.0580  0.0801  0.4761
  633MOL0     C87257   9.386   0.910   0.158  0.0151 -0.0788 -0.5508
  633MOL0     C87258   9.268   0.958   0.083 -0.0455  0.3531 -0.2721
  633MOL0     C87259   9.303   1.095   0.003  0.2196  0.3744  0.4154
  633MOL0     C87260   9.425   1.072  -0.078  0.2809  0.6823  0.1560
  633MOL0    Cl87261   9.447   1.206  -0.192  0.6491  0.0016  0.5874
  633MOL0     C87262   9.898   0.601   0.517 -0.2117  0.1002 -1.2469
  633MOL0     C87263  10.029   0.556   0.562  0.6146  0.5296 -0.2793
  633MOL0     O87264  10.189   0.231   0.545 -0.0246 -0.2040  0.3075
  633MOL0     C87265  10.356   0.238   0.840 -0.5411  1.1138  0.3731
  633MOL0     C87266  10.471   0.215   0.914 -0.6832 -0.5132 -0.2119
  633MOL0     N87267  10.644  -0.089   1.384 -0.0714 -0.0136 -0.5744
  633MOL0     N87268  10.679  -0.100   1.509  0.3402 -0.0547 -0.3269
  633MOL0     C87269  11.462   0.293   2.407  0.6638 -0.3512  0.2203
  633MOL0     C87270  11.475   0.362   2.530  0.4250  1.1999 -0.3156
  633MOL0     C87271  11.418   0.360   3.022  0.0079  0.1178 -1.0752
  633MOL0     C87272  11.556   0.389   3.027  0.0845 -0.1611  0.5538
  633MOL0     C87273  11.605   0.451   3.139  0.4120  0.2368 -0.9492
  633MOL0     C87274  11.534   0.478   3.248  1.6087  0.6099 -0.6344
  633MOL0     O87275  11.597   0.545   3.354 -0.1859 -0.0182 -0.3485
  633MOL0     C87276  11.553   0.539   3.491  0.0421 -0.2070 -0.3039
  633MOL0     C87277  11.629   0.643   3.574  0.8097  0.3351  0.1582
  633MOL0     C87278  11.543   0.774   3.600 -0.3454  0.7359  0.8431
  633MOL0     C87279  11.624   0.852   3.713 -0.0069 -0.3717  0.1935
  633MOL0     C87280  11.615   0.775   3.841  0.5120 -0.2143 -0.6231
  633MOL0     C87281  11.610   0.703   3.942  0.0226 -0.3307  0.6616
  633MOL0     C87282  11.399   0.431   3.252  0.8728  1.0261 -0.7453
  633MOL0     C87283  11.336   0.365   3.138 -0.5010 -0.9070  0.2354
  633MOL0     C87284  11.197   0.324   3.148  0.6567 -1.0652 -0.3686
  633MOL0     H87285  11.461   0.080   2.726  2.0653  3.0054  0.8893
  633MOL0     H87286  11.450  -0.027   2.509  0.6862 -0.4913 -2.4296
  633MOL0     H87287  11.402   0.085   2.088 -0.7837  0.2271 -0.3733
  633MOL0     H87288  11.389   0.255   2.155 -0.9940 -0.1995 -0.3328
  633MOL0     H87289  11.205   0.021   2.255 -1.4601 -0.5959 -1.5508
  633MOL0     H87290  11.198   0.185   2.300  0.9166  1.0287  0.0876
  633MOL0     H87291  11.024   0.100   2.129  0.4101  1.3738  0.6956
  633MOL0     H87292  11.108   0.236   2.056 -1.4285  0.9173  2.4052
  633MOL0     H87293  11.242   0.084   1.923 -0.9188 -0.6792 -1.6926
  633MOL0     H87294  11.176  -0.054   2.027  0.3620 -0.3052  0.6809
  633MOL0     H87295  10.954   0.002   1.928 -0.4722  3.6399 -0.4242
  633MOL0     H87296  11.063  -0.069   1.803  1.5545 -1.4897  2.0280
  633MOL0     H87297  10.964   0.220   1.814  2.6296  3.0280  0.1461
  633MOL0     H87298  11.117   0.187   1.744  0.1799  0.0235 -0.5289
  633MOL0     H87299  11.014   0.006   1.598 -1.3869  0.2447 -0.5041
  633MOL0     H87300  10.996   0.163   1.551  0.0574  0.7652  0.4869
  633MOL0     H87301  10.783   0.026   1.739 -1.1471  1.1011  0.5752
  633MOL0     H87302  10.760   0.173   1.638 -0.5958 -0.5202 -1.2258
  633MOL0     H87303  10.837   0.168   1.405  1.3511 -0.0921  4.3522
  633MOL0     H87304  10.660   0.114   1.149 -3.8188 -0.9105  1.9383
  633MOL0     H87305  10.630  -0.058   1.136  1.7928  0.3675 -2.8041
  633MOL0     H87306  10.915   0.055   1.135  1.0489 -1.8746 -0.5081
  633MOL0     H87307  10.853  -0.113   1.109  1.9189  0.6743 -1.0401
  633MOL0     H87308  10.920  -0.051   0.909  1.3117  1.1876 -1.2301
  633MOL0     H87309  10.746  -0.048   0.904  0.4951 -1.1091  1.1949
  633MOL0     H87310  10.913   0.222   0.933 -1.7573  3.0964 -1.2410
  633MOL0     H87311  10.853   0.146   0.791  2.2862 -1.5482  0.7761
  633MOL0     H87312  10.697   0.237   0.657 -0.6267  4.7363 -0.7924
  633MOL0     H87313  10.438   0.223   0.417 -0.3085  1.5861 -1.4028
  633MOL0     H87314  10.604   0.263   0.452  1.3211  0.0876  4.4085
  633MOL0     H87315  10.480   0.387   0.473  0.0042 -0.0062  2.5723
  633MOL0     H87316   9.927   0.265   0.703 -0.5467  0.5235  1.1487
  633MOL0     H87317   9.721   0.320   0.616 -0.3824  1.0330  0.8635
  633MOL0     H87318   9.749   0.624   0.310  1.0797 -2.1793 -1.4214
  633MOL0     H87319   9.673   0.463   0.306 -0.5378 -0.7299  0.3933
  633MOL0     H87320   9.527   0.605   0.185  2.6773 -0.2046  0.6473
  633MOL0     H87321   9.443   0.549   0.337 -0.3121 -1.1848 -2.9175
  633MOL0     H87322   9.575   0.820   0.301 -1.6899  0.2242 -3.8740
  633MOL0     H87323   9.495   0.769   0.432  0.1370  1.8735  0.5107
  633MOL0     H87324   9.300   0.847   0.354 -1.8482 -2.6480  0.9259
  633MOL0     H87325   9.291   0.721   0.226 -2.0627  2.6134 -1.6459
  633MOL0     H87326   9.427   0.987   0.224  2.0406 -2.6486  1.4265
  633MOL0     H87327   9.459   0.866   0.089 -0.4518  2.1544 -2.6029
  633MOL0     H87328   9.197   0.975   0.165  1.5006  0.9843  0.9830
  633MOL0     H87329   9.230   0.884   0.012 -0.1438  0.9259 -0.8254
  633MOL0     H87330   9.314   1.179   0.073 -2.5946 -1.0837  2.8311
  633MOL0     H87331   9.216   1.127  -0.054 -1.4910 -0.9919  2.0968
  633MOL0     H87332   9.409   0.983  -0.140  3.0258 -1.4812  2.2828
  633MOL0     H87333   9.508   1.050  -0.010 -0.6466  3.1204  2.2242
  633MOL0     H87334   9.880   0.696   0.468 -2.9805  1.3239  1.7779
  633MOL0     H87335  10.109   0.629   0.567  1.1854 -0.1517  0.9495
  633MOL0     H87336  10.262   0.239   0.893 -0.9045  3.5525 -0.2136
  633MOL0     H87337  10.453   0.184   1.016 -2.4430  0.7443 -0.1028
  633MOL0     H87338  11.481   0.357   2.321 -0.8978 -1.8085 -1.2719
  633MOL0     H87339  11.488   0.470   2.526  2.1868  1.2011  2.2397
  633MOL0     H87340  11.632   0.364   2.954 -0.8675  1.3436 -1.0104
  633MOL0     H87341  11.709   0.480   3.135  0.3787  0.3398 -1.0792
  633MOL0     H87342  11.445   0.550   3.504  0.1227  5.1996 -1.7853
  633MOL0     H87343  11.581   0.438   3.525  0.9590 -0.0521 -0.5549
  633MOL0     H87344  11.723   0.666   3.522 -0.1917  0.3458 -1.7234
  633MOL0     H87345  11.661   0.592   3.665 -0.7616  2.0705  1.7876
  633MOL0     H87346  11.537   0.832   3.507 -4.8067 -1.6920 -0.7050
  633MOL0     H87347  11.439   0.751   3.624 -0.9944 -0.5396 -2.6335
  633MOL0     H87348  11.587   0.955   3.716 -2.1652 -1.1062  0.2582
  633MOL0     H87349  11.729   0.860   3.684 -0.6643 -0.2645 -2.3732
  633MOL0     H87350  11.620   0.638   4.027  0.0753  1.9227  2.4793
  633MOL0     H87351  11.340   0.436   3.343  0.9707 -0.2736 -0.5981
  633MOL0     H87352  11.137   0.394   3.088 -0.4809 -3.4357 -2.1347
  633MOL0     H87353  11.171   0.224   3.114 -2.0478 -1.3396  2.0807
  633MOL0     H87354  11.166   0.325   3.253 -0.2982 -2.6136 -0.6041
  634MOL0     O87355   3.873   9.060   6.871  0.4990 -0.0077  0.3295
  634MOL0     C87356   3.791   9.008   6.792  0.3580  0.9010  0.3332
  634MOL0     O87357   3.673   8.961   6.838  0.5502  0.4049  0.3037
  634MOL0     C87358   3.625   8.983   6.966  0.1061 -0.3927 -0.2449
  634MOL0     C87359   3.583   8.877   7.052 -0.2938  0.1786  0.2065
  634MOL0     C87360   3.533   8.893   7.184 -0.0059 -0.4822  0.7450
  634MOL0     C87361   3.501   9.028   7.221 -1.4368  0.2317  0.4931
  634MOL0     O87362   3.448   9.054   7.339 -0.2591 -1.2098  0.9740
  634MOL0     C87363   3.497   9.172   7.412 -0.2793  0.5191  0.5109
  634MOL0     C87364   3.502   9.136   7.570 -0.0912 -0.4861 -0.8851
  634MOL0     C87365   3.551   9.259   7.650  0.4501 -0.5403 -0.7468
  634MOL0     C87366   3.433   9.349   7.689  0.2213  0.6205  0.3179
  634MOL0     C87367   3.362   9.304   7.820  0.7990  0.5636 -0.3712
  634MOL0     C87368   3.244   9.389   7.881  0.3799  0.8103  0.3710
  634MOL0     C87369   3.141   9.425   7.769 -0.4376  0.4264  0.0838
  634MOL0     C87370   3.079   9.311   7.715 -0.3046  0.9074  0.3468
  634MOL0     N87371   3.059   9.321   7.569  0.4494 -0.1756  0.2028
  634MOL0     C87372   3.137   9.251   7.483  0.3555 -0.4944  0.6690
  634MOL0     C87373   3.076   9.265   7.360  0.0104 -0.2913 -0.5867
  634MOL0     C87374   3.136   9.214   7.233  0.2634  0.2237 -0.1051
  634MOL0     C87375   3.030   9.132   7.171  0.2398 -0.1269  0.1166
  634MOL0     C87376   3.056   9.106   7.018  1.2021 -0.3109 -0.5758
  634MOL0     C87377   3.176   9.011   6.994  0.4768  0.2191 -0.5396
  634MOL0     O87378   3.177   9.009   6.852 -0.6237 -0.1680 -0.9285
  634MOL0     C87379   3.221   8.894   6.792 -0.0934 -0.3407 -0.0923
  634MOL0     C87380   3.275   8.790   6.862 -0.7151  0.3964 -0.7312
  634MOL0     C87381   3.329   8.681   6.793  0.2997  0.4972 -0.1768
  634MOL0     C87382   3.407   8.579   6.886 -0.3303 -0.0955 -0.2546
  634MOL0     C87383   3.307   8.664   6.656  0.4739 -0.0221 -0.0013
  634MOL0     C87384   3.352   8.546   6.594 -0.1852  0.4392  0.3435
  634MOL0     O87385   3.251   8.487   6.520  0.5400 -0.5296  0.4392
  634MOL0     C87386   3.299   8.390   6.432  0.3936 -0.5500  0.5003
  634MOL0     C87387   3.322   8.430   6.299  0.4621 -0.6825 -0.3590
  634MOL0     C87388   3.365   8.340   6.200 -0.4690  0.0925 -0.0876
  634MOL0     C87389   3.383   8.207   6.231 -0.1053  0.1363 -0.4913
  634MOL0     O87390   3.433   8.103   6.153 -0.2693  0.0474  0.3878
  634MOL0     C87391   3.515   8.143   6.036 -0.2092 -1.0657 -0.2222
  634MOL0     C87392   3.541   8.024   5.940  0.3797 -0.2045  0.2932
  634MOL0     C87393   3.419   7.938   5.911 -0.4945 -0.3355 -0.0471
  634MOL0     C87394   3.445   7.810   5.827  0.2784  0.1456 -0.0183
  634MOL0     C87395   3.334   7.713   5.841 -0.7614 -0.4578  0.1614
  634MOL0     C87396   3.203   7.744   5.775 -0.3225  0.4140  0.2700
  634MOL0     C87397   3.120   7.615   5.781 -0.3947  0.7695 -0.0439
  634MOL0     C87398   3.053   7.571   5.911 -0.4189  0.4272  0.2763
  634MOL0    Cl87399   2.921   7.452   5.874  0.5307 -0.2209 -0.3354
  634MOL0     C87400   3.350   8.163   6.363 -1.2260 -0.1559 -0.1261
  634MOL0     C87401   3.310   8.258   6.462 -0.7693  0.5473  0.1204
  634MOL0     O87402   3.468   8.516   6.591 -0.7505  0.1237  0.5398
  634MOL0     C87403   3.245   8.766   6.588  0.1184 -0.2390  0.4696
  634MOL0     C87404   3.202   8.881   6.650 -0.4331 -0.0024 -0.6320
  634MOL0     N87405   2.976   9.354   7.370 -1.2312  0.4309  0.5347
  634MOL0     N87406   2.959   9.389   7.492 -0.9498  0.7752 -0.6437
  634MOL0     C87407   3.546   9.131   7.138 -0.4780 -0.4337 -0.8777
  634MOL0     C87408   3.604   9.110   7.010  0.9092  0.1018  0.5008
  634MOL0     C87409   3.831   8.996   6.643 -0.4964  0.1672 -0.2006
  634MOL0     C87410   3.936   9.083   6.601  0.1178  0.3895  0.2242
  634MOL0     C87411   3.977   9.083   6.465  0.3286 -0.0629 -0.4921
  634MOL0     C87412   3.899   9.006   6.372 -0.1456 -0.0647 -0.3701
  634MOL0     O87413   3.930   9.036   6.244  0.2037  0.5381  0.0228
  634MOL0     C87414   3.922   8.922   6.155  0.6312 -0.2677 -0.1373
  634MOL0     C87415   3.954   8.967   6.014 -0.7228 -0.1919  0.3087
  634MOL0     C87416   3.951   8.848   5.909 -0.4630 -0.5138  0.0479
  634MOL0     C87417   4.038   8.884   5.784  0.1910  0.2914  0.4760
  634MOL0     C87418   4.013   8.792   5.676  1.3156  0.0159 -0.8540
  634MOL0     C87419   3.982   8.719   5.585  0.7979  0.4785 -0.1207
  634MOL0     C87420   3.804   8.908   6.418  0.4052 -1.1035  0.2169
  634MOL0     C87421   3.783   8.898   6.555 -0.0956 -0.1417  0.6983
  634MOL0     C87422   3.685   8.787   6.597  0.3363 -0.2879  0.1322
  634MOL0     H87423   3.599   8.776   7.017 -1.3938  0.4255 -1.1148
  634MOL0     H87424   3.508   8.808   7.248 -4.3448  0.6196  0.8363
  634MOL0     H87425   3.447   9.267   7.390 -3.8079 -1.2145  0.4258
  634MOL0     H87426   3.601   9.194   7.385 -0.5160 -0.9206 -1.9392
  634MOL0     H87427   3.407   9.096   7.608 -1.3267  2.7571 -0.2061
  634MOL0     H87428   3.571   9.053   7.589  2.2676  2.0542  2.8657
  634MOL0     H87429   3.616   9.236   7.735 -1.9543 -0.9449  1.0660
  634MOL0     H87430   3.603   9.326   7.580  1.9538  0.1438  0.9527
  634MOL0     H87431   3.460   9.453   7.709  1.3257  0.1528  1.4265
  634MOL0     H87432   3.368   9.343   7.601  3.4779  0.0370 -2.2533
  634MOL0     H87433   3.436   9.283   7.898 -2.0482 -2.6680  1.7839
  634MOL0     H87434   3.326   9.205   7.791  2.8389  0.5056 -3.1477
  634MOL0     H87435   3.194   9.326   7.955  0.5970  0.4500  0.2121
  634MOL0     H87436   3.279   9.472   7.943 -2.0230  1.5828  0.8045
  634MOL0     H87437   3.179   9.491   7.690 -0.7451  0.5474  0.0358
  634MOL0     H87438   3.064   9.473   7.830  1.4041 -0.6277  3.4897
  634MOL0     H87439   3.122   9.215   7.747  0.0230  0.2787 -1.8000
  634MOL0     H87440   2.975   9.311   7.749  0.5314  2.0737  3.2517
  634MOL0     H87441   3.225   9.189   7.501  0.7562  0.1634  1.0007
  634MOL0     H87442   3.208   9.135   7.255 -2.6457 -3.0972 -1.6203
  634MOL0     H87443   3.195   9.285   7.174  2.3195  0.7362  2.3523
  634MOL0     H87444   3.036   9.028   7.206  0.8952 -0.2249 -0.2786
  634MOL0     H87445   2.928   9.166   7.191  0.3411  0.0711  0.2965
  634MOL0     H87446   2.957   9.082   6.977 -1.6500  2.8033  3.6277
  634MOL0     H87447   3.070   9.208   6.983 -3.0918  1.6286  2.4747
  634MOL0     H87448   3.267   9.046   7.043  0.6920 -3.5235  2.1521
  634MOL0     H87449   3.151   8.914   7.038  0.6063  0.5189  0.2016
  634MOL0     H87450   3.283   8.801   6.970 -4.5810  0.4173 -0.2988
  634MOL0     H87451   3.335   8.548   6.962  1.9331 -0.2482  1.9396
  634MOL0     H87452   3.500   8.606   6.935 -1.0509 -0.5501  1.4174
  634MOL0     H87453   3.437   8.492   6.827 -0.7878  1.2736 -2.6836
  634MOL0     H87454   3.302   8.533   6.273  2.5727 -0.0674  0.2287
  634MOL0     H87455   3.384   8.382   6.102  0.1667 -1.7496 -0.7926
  634MOL0     H87456   3.465   8.226   5.985 -1.5396  0.0340  2.6085
  634MOL0     H87457   3.608   8.188   6.071 -1.3461  1.1916  0.0808
  634MOL0     H87458   3.579   8.076   5.851 -1.9974 -0.9148 -1.2459
  634MOL0     H87459   3.618   7.954   5.975 -0.5466 -1.8151 -0.7256
  634MOL0     H87460   3.334   7.993   5.870 -0.7678 -0.0645  0.8554
  634MOL0     H87461   3.383   7.920   6.012  1.8996 -2.2680  0.5657
  634MOL0     H87462   3.532   7.764   5.875 -2.4974 -3.2664  2.2897
  634MOL0     H87463   3.471   7.836   5.724 -1.0267  2.5072  0.1966
  634MOL0     H87464   3.370   7.618   5.802 -1.6865 -0.9951  0.5923
  634MOL0     H87465   3.310   7.708   5.948  1.8731 -0.4376  0.8326
  634MOL0     H87466   3.208   7.767   5.668 -2.9077 -2.2394 -0.5526
  634MOL0     H87467   3.149   7.823   5.828  0.0428 -0.1597  1.5468
  634MOL0     H87468   3.173   7.528   5.739  0.4749  1.4007 -0.2994
  634MOL0     H87469   3.040   7.646   5.713  1.3663 -1.5296 -3.4743
  634MOL0     H87470   3.007   7.650   5.973  0.2825  0.6501  0.5233
  634MOL0     H87471   3.136   7.525   5.966  0.5786  0.8133 -0.8556
  634MOL0     H87472   3.375   8.060   6.387 -0.6799 -0.1714 -0.7380
  634MOL0     H87473   3.283   8.236   6.565  0.8819  1.5583  0.8234
  634MOL0     H87474   3.217   8.752   6.485  0.6724  0.0714  0.2730
  634MOL0     H87475   3.167   8.972   6.604  0.1829 -0.6850 -2.5590
  634MOL0     H87476   3.535   9.232   7.175  0.1994 -0.8860  0.6314
  634MOL0     H87477   3.643   9.194   6.953 -0.8578  0.6276 -0.0150
  634MOL0     H87478   3.992   9.138   6.677  1.7064  0.1598 -0.7344
  634MOL0     H87479   4.057   9.146   6.429  0.0862  0.6360  0.1798
  634MOL0     H87480   3.994   8.843   6.182  0.5850  0.1285  1.2070
  634MOL0     H87481   3.830   8.864   6.159  0.5978 -0.1809  3.3297
  634MOL0     H87482   4.057   9.002   6.019 -0.3689 -0.9293 -1.0894
  634MOL0     H87483   3.891   9.051   5.983  2.4599  2.7567  1.3174
  634MOL0     H87484   3.997   8.762   5.959  1.6969  0.6082  0.1197
  634MOL0     H87485   3.851   8.817   5.877 -0.2699 -2.4958  1.2290
  634MOL0     H87486   4.142   8.874   5.815  0.7650  2.2368 -0.6836
  634MOL0     H87487   4.026   8.984   5.743  1.1096  0.2943  0.1882
  634MOL0     H87488   3.959   8.664   5.496  1.1119 -1.0136  0.7076
  634MOL0     H87489   3.739   8.850   6.354  1.9891 -1.5476 -1.0377
  634MOL0     H87490   3.670   8.707   6.524 -0.3041  1.5516 -1.8792
  634MOL0     H87491   3.705   8.731   6.689 -1.9982  0.7038  1.3120
  634MOL0     H87492   3.595   8.846   6.615  0.4246 -0.5598  1.5410
  635MOL0     O87493   5.294   7.099   5.269  0.0217  0.1016 -0.3540
  635MOL0     C87494   5.246   7.010   5.352 -0.7435 -0.6090  0.0333
  635MOL0     O87495   5.224   6.873   5.327 -0.6604  0.5051  0.4672
  635MOL0     C87496   5.215   6.845   5.189 -0.8991 -0.3485  0.1475
  635MOL0     C87497   5.111   6.892   5.104 -0.1109 -0.7377 -0.4522
  635MOL0     C87498   5.141   6.858   4.967 -0.7486 -0.1308 -0.4308
  635MOL0     C87499   5.251   6.775   4.921 -0.1936 -0.4369  0.3798
  635MOL0     O87500   5.276   6.751   4.794 -0.1288 -0.1460  0.8469
  635MOL0     C87501   5.175   6.688   4.713 -0.7729  0.1166 -0.0279
  635MOL0     C87502   5.213   6.539   4.678 -0.7636 -0.4688 -0.0769
  635MOL0     C87503   5.193   6.437   4.800 -0.9831  0.2766 -0.2339
  635MOL0     C87504   5.154   6.302   4.732  0.7595  1.0438  0.7351
  635MOL0     C87505   5.107   6.190   4.826  0.1203  0.8578 -0.2940
  635MOL0     C87506   5.087   6.052   4.775  0.0145  0.3161  0.4511
  635MOL0     C87507   5.016   5.951   4.870  0.3373 -1.2370  0.0318
  635MOL0     C87508   5.038   5.809   4.822 -0.8137  0.2193 -0.1448
  635MOL0     N87509   4.994   5.793   4.690 -0.0882  0.4229  0.5722
  635MOL0     C87510   4.861   5.777   4.663  0.0411 -0.4619 -0.6199
  635MOL0     C87511   4.854   5.750   4.535  0.2478  0.4724  0.2629
  635MOL0     C87512   4.724   5.723   4.471  0.1591 -0.3600  0.4860
  635MOL0     C87513   4.644   5.600   4.508  0.2822  0.2040 -0.4151
  635MOL0     C87514   4.644   5.497   4.409 -0.7122 -0.2198  0.2642
  635MOL0     C87515   4.589   5.369   4.463 -0.0306  0.0646  0.2794
  635MOL0     O87516   4.458   5.393   4.524 -0.3219  0.1943 -0.2573
  635MOL0     C87517   4.346   5.315   4.491  1.9349 -0.3964  0.2420
  635MOL0     C87518   4.236   5.328   4.566 -1.1443 -0.2660  0.5595
  635MOL0     C87519   4.118   5.241   4.559 -0.5433 -0.1011 -0.1213
  635MOL0     C87520   4.010   5.259   4.661 -0.6078 -0.4611  0.6399
  635MOL0     C87521   4.124   5.145   4.452  0.1717 -0.9158  0.3173
  635MOL0     C87522   4.018   5.047   4.435  1.2083 -0.2414 -0.0306
  635MOL0     O87523   4.059   4.930   4.378 -0.1162  0.3774  0.4294
  635MOL0     C87524   3.950   4.854   4.324  0.1510  0.3922  0.5312
  635MOL0     C87525   3.866   4.787   4.412 -0.0552 -0.2605  0.8190
  635MOL0     C87526   3.745   4.734   4.369  0.6535 -0.2983  0.5570
  635MOL0     C87527   3.722   4.732   4.225 -0.4141  1.0421 -0.6474
  635MOL0     O87528   3.620   4.657   4.171  0.3694  0.7332  0.5071
  635MOL0     C87529   3.480   4.682   4.209 -0.3040 -0.1440  0.2246
  635MOL0     C87530   3.394   4.568   4.138 -0.4759  0.2083 -0.2630
  635MOL0     C87531   3.452   4.524   3.993  0.1980 -0.1223  0.1669
  635MOL0     C87532   3.366   4.414   3.930  0.0103 -0.6122 -0.6614
  635MOL0     C87533   3.422   4.346   3.798  0.1640  0.2383  0.0094
  635MOL0     C87534   3.309   4.271   3.723 -0.2164  0.3556  0.9257
  635MOL0     C87535   3.339   4.221   3.582 -0.0129 -0.1336 -0.0555
  635MOL0     C87536   3.226   4.166   3.496  0.6411  1.0085  0.4193
  635MOL0    Cl87537   3.085   4.265   3.461 -0.0904 -0.0202  0.2577
  635MOL0     C87538   3.807   4.798   4.141 -0.8227  0.2648  0.1385
  635MOL0     C87539   3.916   4.856   4.193  0.5245 -0.3437  0.2601
  635MOL0     O87540   3.905   5.074   4.480 -0.2425 -0.3066 -0.1900
  635MOL0     C87541   4.234   5.134   4.371 -0.6853  0.3594  0.0868
  635MOL0     C87542   4.347   5.215   4.395  0.5111 -0.0008  0.1009
  635MOL0     N87543   4.985   5.718   4.488 -0.0557 -0.1904  0.6864
  635MOL0     N87544   5.069   5.753   4.582  0.7722 -0.6405  0.4726
  635MOL0     C87545   5.334   6.732   5.013  0.2148  0.0802 -0.7286
  635MOL0     C87546   5.316   6.754   5.146 -0.1910 -0.7204  0.2827
  635MOL0     C87547   5.224   7.051   5.493 -0.5289 -0.6965 -0.5874
  635MOL0     C87548   5.234   6.947   5.587  0.7003 -0.5751 -0.9517
  635MOL0     C87549   5.190   6.964   5.723 -0.9634 -0.5405  0.4196
  635MOL0     C87550   5.167   7.095   5.766 -0.2440 -0.1514  0.5448
  635MOL0     O87551   5.141   7.130   5.891 -0.6900 -0.4788  0.1643
  635MOL0     C87552   5.170   7.034   6.003  0.0310  0.0454 -0.9320
  635MOL0     C87553   5.210   7.116   6.123 -0.0275  0.7117 -0.5168
  635MOL0     C87554   5.269   7.030   6.234 -1.1833 -0.6316  0.9653
  635MOL0     C87555   5.164   6.938   6.292 -0.3903 -0.2701  0.1385
  635MOL0     C87556   5.050   7.008   6.358 -0.2159 -0.4305  0.3651
  635MOL0     C87557   4.955   7.046   6.410  0.4937 -1.0615 -1.2069
  635MOL0     C87558   5.175   7.200   5.679  1.4962 -0.0933  0.6409
  635MOL0     C87559   5.190   7.178   5.544  0.2528  0.8301 -0.7437
  635MOL0     C87560   5.194   7.302   5.458 -0.0029  0.5102 -0.0262
  635MOL0     H87561   5.035   6.957   5.146  2.6834  2.6910 -0.2521
  635MOL0     H87562   5.081   6.882   4.879  3.9969 -0.2201 -4.1244
  635MOL0     H87563   5.187   6.737   4.615 -2.9351 -0.0731 -0.4234
  635MOL0     H87564   5.072   6.698   4.748 -1.3264 -0.2517 -1.4701
  635MOL0     H87565   5.151   6.510   4.593 -1.7988 -1.0314  0.8361
  635MOL0     H87566   5.319   6.534   4.650 -0.3814  2.2482  0.5880
  635MOL0     H87567   5.285   6.413   4.855 -0.5579 -0.4578 -1.2245
  635MOL0     H87568   5.106   6.460   4.862 -1.8892 -1.1400 -0.9396
  635MOL0     H87569   5.069   6.319   4.665 -0.7712 -0.6215  2.1555
  635MOL0     H87570   5.240   6.267   4.674  1.2421  3.2411  0.0636
  635MOL0     H87571   5.013   6.219   4.874  0.8292  1.5826  0.6774
  635MOL0     H87572   5.180   6.183   4.907 -0.1107 -1.6862 -0.2188
  635MOL0     H87573   5.032   6.069   4.682  0.6248  2.4809  0.4160
  635MOL0     H87574   5.186   6.015   4.749  0.5089  1.7438  0.2029
  635MOL0     H87575   4.909   5.974   4.879 -0.0678 -2.6949 -0.7235
  635MOL0     H87576   5.064   5.951   4.969 -1.2869 -2.3232  0.8858
  635MOL0     H87577   5.143   5.780   4.824 -0.6997  0.2117 -2.9455
  635MOL0     H87578   4.985   5.736   4.885 -1.1899  0.4076 -0.2414
  635MOL0     H87579   4.776   5.778   4.731 -0.5413  2.9217 -1.2563
  635MOL0     H87580   4.739   5.720   4.363 -1.7129 -5.1978  0.1228
  635MOL0     H87581   4.669   5.815   4.492 -2.1066 -0.4190 -3.9970
  635MOL0     H87582   4.688   5.557   4.598 -1.6577  1.3128  1.1443
  635MOL0     H87583   4.539   5.630   4.515 -0.3180 -0.7650 -3.6362
  635MOL0     H87584   4.587   5.523   4.319  0.1731 -0.2750 -0.3361
  635MOL0     H87585   4.742   5.478   4.364 -0.4346  0.1394  0.7066
  635MOL0     H87586   4.582   5.301   4.378 -2.0185 -1.2835  1.4322
  635MOL0     H87587   4.660   5.331   4.536  4.6776  0.4452 -3.6046
  635MOL0     H87588   4.242   5.395   4.652  0.9808 -0.4874  0.6337
  635MOL0     H87589   4.004   5.162   4.711  2.5656 -0.5696  1.0190
  635MOL0     H87590   3.914   5.290   4.620 -0.2769 -2.1849 -1.6490
  635MOL0     H87591   4.040   5.332   4.738 -0.6849  1.7669 -1.3226
  635MOL0     H87592   3.903   4.784   4.514  3.5522  1.0014 -0.2906
  635MOL0     H87593   3.676   4.685   4.437  2.7922 -2.5167  1.2969
  635MOL0     H87594   3.466   4.676   4.317  2.0402 -0.2354  0.5900
  635MOL0     H87595   3.445   4.777   4.168 -3.1863 -1.1148  0.2147
  635MOL0     H87596   3.396   4.471   4.188 -0.4621 -0.1976 -1.0278
  635MOL0     H87597   3.291   4.603   4.125 -0.0227  0.7052 -3.2448
  635MOL0     H87598   3.548   4.479   4.018 -0.1951 -1.2810 -0.3319
  635MOL0     H87599   3.458   4.600   3.914 -2.8058 -0.9137 -0.9844
  635MOL0     H87600   3.264   4.451   3.915  0.2648  1.1393  1.4650
  635MOL0     H87601   3.368   4.341   4.012  0.5811 -1.9575 -1.8322
  635MOL0     H87602   3.459   4.430   3.739  0.1712  1.6977  1.9794
  635MOL0     H87603   3.515   4.291   3.810 -0.1331 -0.4597 -0.7618
  635MOL0     H87604   3.225   4.340   3.708  2.2092  3.9536  2.5468
  635MOL0     H87605   3.274   4.187   3.784 -2.4316 -0.0563 -0.7469
  635MOL0     H87606   3.406   4.136   3.601 -0.0090 -0.6184 -1.9782
  635MOL0     H87607   3.406   4.295   3.538  1.2517  0.8091  3.1742
  635MOL0     H87608   3.199   4.067   3.533 -0.2121 -0.2284 -3.1331
  635MOL0     H87609   3.275   4.157   3.398  0.7622  2.2969  0.3400
  635MOL0     H87610   3.772   4.809   4.039 -1.0513  0.5840  0.2500
  635MOL0     H87611   3.990   4.906   4.132  2.6784 -3.2907  0.2386
  635MOL0     H87612   4.246   5.058   4.295  1.5833 -0.5563  1.2655
  635MOL0     H87613   4.424   5.193   4.323  0.3372  1.4680 -0.5626
  635MOL0     H87614   5.417   6.668   4.984 -1.9834 -3.5224  0.3244
  635MOL0     H87615   5.389   6.732   5.223 -0.4602 -0.2223  0.6849
  635MOL0     H87616   5.254   6.842   5.569  3.3318 -0.4093  0.5975
  635MOL0     H87617   5.198   6.873   5.782  0.8201  0.1744  1.3485
  635MOL0     H87618   5.071   6.991   6.021 -0.5322  1.9694  1.0953
  635MOL0     H87619   5.239   6.956   5.971  0.2703 -0.4316  0.6486
  635MOL0     H87620   5.126   7.181   6.148 -2.5504 -1.8012 -1.9724
  635MOL0     H87621   5.293   7.183   6.096  2.3276 -1.3781  1.0924
  635MOL0     H87622   5.351   6.970   6.194 -1.9200 -2.0412  1.5082
  635MOL0     H87623   5.313   7.092   6.313 -1.0342 -0.9896  1.1608
  635MOL0     H87624   5.212   6.880   6.372  1.1095  3.5738  2.2780
  635MOL0     H87625   5.121   6.867   6.220 -0.4117 -2.0555  1.8317
  635MOL0     H87626   4.869   7.068   6.469  3.5110  1.8714  2.6114
  635MOL0     H87627   5.169   7.301   5.719  2.9513  0.8780 -1.4233
  635MOL0     H87628   5.155   7.284   5.358  0.3230  2.8572 -0.6352
  635MOL0     H87629   5.126   7.373   5.506  1.5005  2.0732 -0.0917
  635MOL0     H87630   5.299   7.334   5.457  0.2816 -0.2574 -2.6497
  636MOL0     O87631   8.844   8.825   8.188 -0.0658 -0.0356 -0.7867
  636MOL0     C87632   8.743   8.883   8.134 -0.7298 -0.2527 -0.6116
  636MOL0     O87633   8.609   8.894   8.184  0.0315 -0.2974  0.2225
  636MOL0     C87634   8.560   8.841   8.295  0.0906 -0.1625 -0.1373
  636MOL0     C87635   8.443   8.903   8.337  0.3545  0.7711 -0.5514
  636MOL0     C87636   8.387   8.864   8.461  0.0841 -0.1369 -0.2524
  636MOL0     C87637   8.451   8.773   8.546 -0.1989  0.2593  1.1717
  636MOL0     O87638   8.383   8.727   8.653 -0.1294 -0.3381 -0.6729
  636MOL0     C87639   8.456   8.666   8.766  0.0747  0.3854  0.3716
  636MOL0     C87640   8.358   8.631   8.871  0.5620 -0.4662 -1.2308
  636MOL0     C87641   8.254   8.739   8.904  0.3554  0.4219  0.0750
  636MOL0     C87642   8.145   8.673   8.991  0.2796  0.5281  0.0247
  636MOL0     C87643   8.057   8.780   9.036  0.1976  0.2057  0.7476
  636MOL0     C87644   7.935   8.729   9.112 -0.5605  0.0098 -0.6473
  636MOL0     C87645   7.846   8.840   9.179 -0.7343  0.0213  0.0447
  636MOL0     C87646   7.729   8.788   9.258  0.2323  0.2393  0.8848
  636MOL0     N87647   7.674   8.888   9.345 -0.2371 -0.5039 -0.6822
  636MOL0     C87648   7.630   9.016   9.313 -0.2389  0.0389 -0.7432
  636MOL0     C87649   7.588   9.075   9.437  0.0457 -0.1766  0.1279
  636MOL0     C87650   7.539   9.224   9.465  0.4283 -0.3330 -0.0881
  636MOL0     C87651   7.416   9.253   9.393  0.0660  0.6743 -0.1502
  636MOL0     C87652   7.352   9.396   9.409  0.5440  0.0933 -0.4181
  636MOL0     C87653   7.215   9.403   9.332  0.2003 -0.4587 -0.0372
  636MOL0     O87654   7.117   9.502   9.365  0.7867  0.2475  0.0276
  636MOL0     C87655   7.031   9.472   9.473 -0.9732 -0.3690 -0.3105
  636MOL0     C87656   6.927   9.559   9.496 -0.7465 -1.2519  0.6777
  636MOL0     C87657   6.833   9.535   9.594 -1.0607 -0.0475  0.2971
  636MOL0     C87658   6.734   9.651   9.588  0.2150 -0.5342 -0.2658
  636MOL0     C87659   6.849   9.430   9.681 -0.7183 -0.2076 -0.3483
  636MOL0     C87660   6.758   9.395   9.796  0.9780 -0.7481  0.3186
  636MOL0     O87661   6.797   9.295   9.887  0.5937  1.1007 -0.0529
  636MOL0     C87662   6.722   9.240   9.980  0.2967  0.1674 -1.4690
  636MOL0     C87663   6.622   9.302  10.056 -0.2395 -0.4857  1.0302
  636MOL0     C87664   6.554   9.226  10.146  0.3756 -0.4198 -0.5273
  636MOL0     C87665   6.592   9.094  10.175  0.4340 -0.0663  0.3430
  636MOL0     O87666   6.538   9.017  10.272  0.5252  0.4106  0.2381
  636MOL0     C87667   6.476   9.099  10.376 -0.2303 -0.5608 -0.2568
  636MOL0     C87668   6.490   9.020  10.502  0.8235  0.2171  0.1508
  636MOL0     C87669   6.458   9.092  10.637  0.1305  1.0323  1.8676
  636MOL0     C87670   6.577   9.130  10.721  0.3023  0.8556  0.8411
  636MOL0     C87671   6.539   9.219  10.833  0.3842 -0.6243 -0.4086
  636MOL0     C87672   6.651   9.318  10.879 -0.3197 -0.0690  0.9135
  636MOL0     C87673   6.622   9.407  10.998  0.3539  0.5342 -0.9086
  636MOL0     C87674   6.506   9.498  10.972 -0.2445 -0.2209 -0.0037
  636MOL0    Cl87675   6.346   9.428  11.001 -0.1330 -0.4985  0.2576
  636MOL0     C87676   6.676   9.035  10.088 -0.1858 -0.0396  0.6480
  636MOL0     C87677   6.747   9.101   9.996  0.1849 -0.3138  0.1347
  636MOL0     O87678   6.645   9.446   9.798  0.1799 -0.2541  0.3415
  636MOL0     C87679   6.968   9.352   9.671 -0.7166 -0.0003 -0.0537
  636MOL0     C87680   7.048   9.361   9.561  0.5585  0.0991  0.1939
  636MOL0     N87681   7.615   8.985   9.535  0.0590 -0.5580  0.0070
  636MOL0     N87682   7.672   8.878   9.487  0.1118  0.5374  0.2243
  636MOL0     C87683   8.569   8.722   8.508 -1.0576 -0.7346 -0.5475
  636MOL0     C87684   8.627   8.762   8.388 -0.3032  0.2413 -0.2005
  636MOL0     C87685   8.776   8.939   8.008 -1.3380 -0.4949 -1.1730
  636MOL0     C87686   8.910   8.979   7.985 -0.0768  0.0616 -0.2769
  636MOL0     C87687   8.954   9.027   7.856  0.6920 -0.1793  0.9156
  636MOL0     C87688   8.865   9.049   7.754 -1.0617 -0.8020 -0.9132
  636MOL0     O87689   8.921   9.094   7.637 -0.0252  0.9199 -0.3669
  636MOL0     C87690   8.834   9.112   7.524  0.4105  0.4979  0.2610
  636MOL0     C87691   8.836   8.978   7.440 -0.1758  0.5326 -0.1022
  636MOL0     C87692   8.729   8.996   7.322 -0.1823  0.2056 -0.0454
  636MOL0     C87693   8.773   9.093   7.218  0.0364  0.1663 -0.2229
  636MOL0     C87694   8.860   9.030   7.127 -1.1557  0.5911  1.2724
  636MOL0     C87695   8.952   8.986   7.052  0.0164 -0.8610 -0.2944
  636MOL0     C87696   8.731   9.023   7.780  0.6279 -0.4152  0.4472
  636MOL0     C87697   8.688   8.963   7.906  0.0301  0.0610 -0.0478
  636MOL0     C87698   8.539   8.935   7.906  0.9758  0.8260 -0.5631
  636MOL0     H87699   8.387   8.961   8.264  1.0574  0.9758 -0.9455
  636MOL0     H87700   8.286   8.896   8.481 -0.3872 -0.0155 -2.5927
  636MOL0     H87701   8.533   8.735   8.800  1.9858 -2.2327  1.6970
  636MOL0     H87702   8.505   8.578   8.723  0.2653 -0.1419  1.6272
  636MOL0     H87703   8.305   8.544   8.831 -2.3823  0.9429 -0.6804
  636MOL0     H87704   8.409   8.588   8.958  0.5093 -1.8967 -1.8757
  636MOL0     H87705   8.298   8.827   8.951 -2.0085  0.2988  2.8059
  636MOL0     H87706   8.199   8.771   8.815  3.3176  1.3211 -1.5453
  636MOL0     H87707   8.096   8.599   8.926  1.7174  2.5193 -3.6139
  636MOL0     H87708   8.191   8.617   9.073  0.5000 -4.3724 -3.0269
  636MOL0     H87709   8.015   8.825   8.945  0.4338  0.1950  0.6310
  636MOL0     H87710   8.107   8.854   9.099 -1.8539  1.3128  1.1795
  636MOL0     H87711   7.878   8.655   9.055 -0.5423 -0.4073 -0.1278
  636MOL0     H87712   7.967   8.679   9.204 -3.7080  0.1244  0.6403
  636MOL0     H87713   7.809   8.912   9.106  0.9196  0.2942 -0.5727
  636MOL0     H87714   7.913   8.906   9.235 -3.3081  3.6251 -0.8054
  636MOL0     H87715   7.650   8.747   9.195 -0.2954  2.3065  0.1137
  636MOL0     H87716   7.762   8.706   9.321  1.0626 -0.6548 -0.6533
  636MOL0     H87717   7.628   9.082   9.227  0.3284  1.3737  0.2451
  636MOL0     H87718   7.606   9.300   9.425 -3.6069  1.4722 -4.2267
  636MOL0     H87719   7.530   9.243   9.573  2.1570 -1.1930  0.2417
  636MOL0     H87720   7.441   9.240   9.288 -2.2699  2.5250 -1.0292
  636MOL0     H87721   7.343   9.174   9.415 -0.8893  2.1124  2.3082
  636MOL0     H87722   7.343   9.422   9.515  2.9889  0.7286 -0.2981
  636MOL0     H87723   7.413   9.474   9.363  0.9820 -1.1217 -1.9709
  636MOL0     H87724   7.230   9.415   9.224  0.2561 -1.9359 -0.2223
  636MOL0     H87725   7.169   9.304   9.341 -1.0197  0.2568  2.5463
  636MOL0     H87726   6.951   9.650   9.442 -0.2751 -1.6408  0.2210
  636MOL0     H87727   6.773   9.753   9.585 -0.2338 -0.3574 -0.2166
  636MOL0     H87728   6.660   9.647   9.668 -1.6293  0.1446 -1.8712
  636MOL0     H87729   6.672   9.635   9.500 -0.5501  0.5299  0.0643
  636MOL0     H87730   6.606   9.409  10.047  0.2479 -0.4034  1.1081
  636MOL0     H87731   6.472   9.281  10.192 -0.2982 -0.8742 -1.1694
  636MOL0     H87732   6.517   9.200  10.385 -0.3115 -0.4177 -1.2992
  636MOL0     H87733   6.370   9.106  10.351 -0.5168 -0.0353  1.0539
  636MOL0     H87734   6.427   8.931  10.501  2.1910 -0.8265  1.7988
  636MOL0     H87735   6.595   8.990  10.506  0.1401 -2.3330  2.3727
  636MOL0     H87736   6.413   9.010  10.694 -1.0633 -0.9610 -1.5662
  636MOL0     H87737   6.384   9.172  10.625 -1.1012 -0.2446  0.4549
  636MOL0     H87738   6.650   9.182  10.658  1.7746 -2.3764 -0.3280
  636MOL0     H87739   6.629   9.039  10.754  1.6262 -0.4579 -4.0140
  636MOL0     H87740   6.459   9.277  10.785  2.3971  2.5724 -0.1982
  636MOL0     H87741   6.490   9.165  10.914 -0.5653  2.5308  1.2908
  636MOL0     H87742   6.684   9.377  10.794 -1.4397 -0.3372  0.2730
  636MOL0     H87743   6.726   9.244  10.910  0.2926  0.3071  0.3472
  636MOL0     H87744   6.706   9.471  11.030 -1.2388  1.1979  2.4934
  636MOL0     H87745   6.601   9.351  11.090  1.6337 -0.3213 -1.1132
  636MOL0     H87746   6.514   9.541  10.872  1.5933  1.8472  0.9493
  636MOL0     H87747   6.505   9.577  11.047  0.5329 -0.9449  0.7966
  636MOL0     H87748   6.683   8.927  10.090 -3.4042 -0.3201  1.2733
  636MOL0     H87749   6.825   9.048   9.941  1.7463  0.5163  1.4867
  636MOL0     H87750   6.975   9.268   9.740  1.0145  0.1457 -0.0039
  636MOL0     H87751   7.133   9.295   9.552  0.7955 -0.1545  3.2193
  636MOL0     H87752   8.613   8.645   8.572 -0.6494  0.0545  0.1381
  636MOL0     H87753   8.731   8.732   8.381  0.6544  1.8326  4.0603
  636MOL0     H87754   8.988   8.952   8.055  0.8811 -2.0695 -2.0237
  636MOL0     H87755   9.060   9.038   7.836  0.5998 -1.3236 -0.2781
  636MOL0     H87756   8.735   9.142   7.557  1.7601  1.4128  3.9166
  636MOL0     H87757   8.870   9.193   7.460  0.3513  1.3457  1.2927
  636MOL0     H87758   8.816   8.887   7.497 -0.5013  0.7005  0.0510
  636MOL0     H87759   8.937   8.973   7.397  0.5828  2.2662  1.3293
  636MOL0     H87760   8.714   8.892   7.292 -2.5971 -0.2632  2.3723
  636MOL0     H87761   8.633   9.032   7.362 -2.3515 -0.9725 -3.7109
  636MOL0     H87762   8.825   9.182   7.253 -0.1142 -0.5103  1.8337
  636MOL0     H87763   8.688   9.119   7.153  0.6672 -0.8205 -1.5115
  636MOL0     H87764   9.034   8.944   6.997  0.7271 -2.1295  1.6081
  636MOL0     H87765   8.652   9.040   7.708 -0.9276  0.1112  2.2036
  636MOL0     H87766   8.489   8.932   7.809  1.9414  0.5463 -1.0560
  636MOL0     H87767   8.521   8.836   7.948 -0.1940  1.9326  1.7668
  636MOL0     H87768   8.502   9.014   7.972  3.8846 -0.4670  2.9250
  637MOL0     O87769   6.369   8.005  10.942  0.2430 -0.1712  0.0157
  637MOL0     C87770   6.336   8.083  10.851 -0.6455 -0.2037  0.3177
  637MOL0     O87771   6.310   8.211  10.860  0.1743 -0.8597 -0.2974
  637MOL0     C87772   6.278   8.261  10.990 -0.3813  0.8156  0.2484
  637MOL0     C87773   6.382   8.289  11.072 -0.3005  0.1285  0.1738
  637MOL0     C87774   6.359   8.340  11.210 -0.1510 -0.8556 -0.0625
  637MOL0     C87775   6.221   8.374  11.237 -0.0567 -0.9877 -1.1746
  637MOL0     O87776   6.206   8.448  11.356  0.8389  0.3405 -0.0124
  637MOL0     C87777   6.067   8.497  11.378 -0.0874 -0.5941  0.0439
  637MOL0     C87778   6.057   8.602  11.490  0.0104 -0.3643 -0.4047
  637MOL0     C87779   6.003   8.529  11.615 -0.3239 -0.1708 -0.5721
  637MOL0     C87780   5.987   8.646  11.726 -0.4318  0.3134  0.4825
  637MOL0     C87781   5.924   8.588  11.850  0.6651 -0.0922 -0.5610
  637MOL0     C87782   6.027   8.507  11.923 -0.2724 -0.2151  0.5931
  637MOL0     C87783   5.979   8.476  12.071  0.2585  0.2816  0.3769
  637MOL0     C87784   5.856   8.378  12.075  0.0146  0.3376 -0.1822
  637MOL0     N87785   5.888   8.245  12.018  0.3561  0.1529 -0.0617
  637MOL0     C87786   5.885   8.206  11.892  0.0455  0.9087  0.6437
  637MOL0     C87787   5.922   8.078  11.899  0.2112  0.3039  0.4320
  637MOL0     C87788   5.930   7.988  11.778  0.8930 -0.0602  0.5592
  637MOL0     C87789   5.807   7.982  11.700 -0.2053  0.2329  0.8232
  637MOL0     C87790   5.709   7.879  11.745 -0.7971  0.5304 -0.1089
  637MOL0     C87791   5.574   7.871  11.674 -0.8975  0.9863 -0.3775
  637MOL0     O87792   5.598   7.851  11.536  0.0740  0.0765 -0.5419
  637MOL0     C87793   5.630   7.729  11.491  0.8295 -0.0821 -0.5602
  637MOL0     C87794   5.620   7.607  11.568 -0.5189  0.2866 -0.2153
  637MOL0     C87795   5.627   7.476  11.509  0.1924  0.0508  0.1768
  637MOL0     C87796   5.617   7.363  11.606 -0.1728  0.6979  1.4264
  637MOL0     C87797   5.661   7.476  11.369 -0.5777 -0.8027 -0.1601
  637MOL0     C87798   5.668   7.344  11.299 -1.3358 -0.4565  0.2560
  637MOL0     O87799   5.731   7.345  11.184 -0.0809 -0.0204 -0.0078
  637MOL0     C87800   5.706   7.231  11.104 -0.2077  0.2681  0.1258
  637MOL0     C87801   5.748   7.101  11.139 -0.0832  0.1089  0.4198
  637MOL0     C87802   5.738   7.007  11.039 -1.5061 -0.2671 -0.3168
  637MOL0     C87803   5.702   7.032  10.906  0.5207 -0.2907  0.7409
  637MOL0     O87804   5.693   6.942  10.802  0.1347 -0.8189  0.1711
  637MOL0     C87805   5.571   6.917  10.723  0.1050 -0.6480  0.2321
  637MOL0     C87806   5.598   6.817  10.612 -0.5406 -0.8279  0.6273
  637MOL0     C87807   5.671   6.683  10.663 -0.7587 -0.1691 -0.4202
  637MOL0     C87808   5.721   6.605  10.548  0.2866 -0.3971 -0.6245
  637MOL0     C87809   5.781   6.477  10.595  1.2132  0.1294  0.7890
  637MOL0     C87810   5.875   6.416  10.482  0.9472 -1.1028  0.3757
  637MOL0     C87811   6.012   6.482  10.514 -0.4601 -0.0452  0.0434
  637MOL0     C87812   6.086   6.424  10.632 -0.1755  0.0318 -0.8721
  637MOL0    Cl87813   6.247   6.436  10.597 -0.3828  0.2225  0.1044
  637MOL0     C87814   5.653   7.163  10.873  0.8862 -0.3423 -1.1406
  637MOL0     C87815   5.657   7.260  10.973  0.4527  0.5639 -0.5207
  637MOL0     O87816   5.607   7.248  11.341 -0.0835 -0.2904 -0.1831
  637MOL0     C87817   5.686   7.599  11.302  0.6724  0.6200  0.4396
  637MOL0     C87818   5.670   7.717  11.359  1.8317 -0.2595  0.0463
  637MOL0     N87819   5.941   8.031  12.026 -0.1994 -0.0486 -0.0748
  637MOL0     N87820   5.925   8.137  12.093 -0.5820 -0.6246  0.0800
  637MOL0     C87821   6.120   8.335  11.155 -0.0061  0.7601 -0.1918
  637MOL0     C87822   6.142   8.278  11.028 -0.1115  0.2095  0.1797
  637MOL0     C87823   6.352   8.022  10.710 -0.0152 -0.1183  0.5366
  637MOL0     C87824   6.362   7.885  10.706  0.4297  0.6433 -0.1036
  637MOL0     C87825   6.365   7.810  10.593 -0.4161  0.0283  0.1836
  637MOL0     C87826   6.368   7.879  10.469  0.1181  0.0852 -1.1710
  637MOL0     O87827   6.365   7.816  10.351  0.1260  0.0834  0.0527
  637MOL0     C87828   6.425   7.860  10.226 -0.5122 -1.4899 -0.4408
  637MOL0     C87829   6.398   7.754  10.113 -0.1186  0.3546 -0.0506
  637MOL0     C87830   6.406   7.612  10.147 -0.1642  1.2679 -0.0404
  637MOL0     C87831   6.437   7.518  10.025  0.3848 -0.4993 -0.1783
  637MOL0     C87832   6.346   7.559   9.919 -0.4168 -0.5104  0.1255
  637MOL0     C87833   6.261   7.586   9.833  0.0026 -0.1855 -0.3444
  637MOL0     C87834   6.367   8.024  10.470 -0.5716  0.4840  0.5489
  637MOL0     C87835   6.360   8.091  10.586  0.0123 -0.5020 -0.5320
  637MOL0     C87836   6.370   8.241  10.573 -0.0759 -0.3254  0.6717
  637MOL0     H87837   6.486   8.267  11.046 -0.2164 -1.3345  1.5981
  637MOL0     H87838   6.437   8.372  11.277  0.6399 -1.7376 -0.5399
  637MOL0     H87839   6.004   8.411  11.403  0.3672 -1.4200 -1.5499
  637MOL0     H87840   6.022   8.549  11.293  1.6746 -2.0545 -1.9011
  637MOL0     H87841   6.157   8.627  11.527 -0.8581  0.0305  1.8893
  637MOL0     H87842   5.997   8.688  11.460  0.5564 -0.4579 -1.8055
  637MOL0     H87843   5.905   8.487  11.593 -0.8149  0.6804 -0.0626
  637MOL0     H87844   6.073   8.453  11.649 -0.5884 -0.2424 -0.1872
  637MOL0     H87845   6.085   8.685  11.754 -0.2624 -1.7625  3.2870
  637MOL0     H87846   5.924   8.728  11.693  1.9048  0.8350 -3.1923
  637MOL0     H87847   5.841   8.526  11.818  0.9418 -1.9887  2.0804
  637MOL0     H87848   5.894   8.672  11.913  1.5751  1.4015 -2.0116
  637MOL0     H87849   6.054   8.414  11.872 -0.9800  1.0603 -2.3182
  637MOL0     H87850   6.120   8.565  11.925 -1.1187  1.1779  1.9904
  637MOL0     H87851   5.944   8.564  12.125  3.1405  2.6749 -1.3419
  637MOL0     H87852   6.063   8.443  12.132  0.6977  0.2007 -0.2656
  637MOL0     H87853   5.812   8.360  12.174  1.7791  1.4386  0.8549
  637MOL0     H87854   5.783   8.426  12.009  1.6809  2.0840 -0.8354
  637MOL0     H87855   5.865   8.276  11.812 -1.0109 -1.0565 -0.9272
  637MOL0     H87856   5.944   7.884  11.810 -1.2234 -0.4041  0.5087
  637MOL0     H87857   6.021   8.006  11.720  1.7560  2.3508  2.4844
  637MOL0     H87858   5.748   8.074  11.711  0.1994  0.3455  2.1965
  637MOL0     H87859   5.820   7.955  11.595 -1.2547 -1.1256  1.0135
  637MOL0     H87860   5.766   7.790  11.716  1.4678  2.0262 -0.4886
  637MOL0     H87861   5.689   7.898  11.851  2.3929  0.7660  0.5403
  637MOL0     H87862   5.526   7.788  11.727  0.5380  1.4779  1.8150
  637MOL0     H87863   5.506   7.952  11.702 -0.7399  1.4221 -1.2249
  637MOL0     H87864   5.605   7.598  11.676 -2.3425 -1.5128 -0.5500
  637MOL0     H87865   5.514   7.331  11.621  0.1445 -2.1708 -1.3584
  637MOL0     H87866   5.661   7.393  11.701  0.7025  0.4992  1.0968
  637MOL0     H87867   5.655   7.262  11.585  1.0752  1.1232  1.5547
  637MOL0     H87868   5.780   7.070  11.237  2.6582 -0.6101 -0.6309
  637MOL0     H87869   5.780   6.909  11.059  3.0050  2.1254  4.3574
  637MOL0     H87870   5.497   6.868  10.786  0.2073  0.6109  1.3955
  637MOL0     H87871   5.520   7.002  10.675 -3.3269 -2.0099  1.1937
  637MOL0     H87872   5.503   6.791  10.565  1.2558 -1.8434 -2.7254
  637MOL0     H87873   5.658   6.866  10.535 -0.3063 -0.3001  1.1353
  637MOL0     H87874   5.591   6.626  10.711 -1.6112  0.3047 -1.2294
  637MOL0     H87875   5.750   6.703  10.736 -3.4193  1.5349  2.2706
  637MOL0     H87876   5.792   6.663  10.488  1.2773  1.0136  1.7652
  637MOL0     H87877   5.636   6.581  10.484 -0.0992 -1.2558  0.1860
  637MOL0     H87878   5.834   6.481  10.691 -2.0869 -0.4941  2.7876
  637MOL0     H87879   5.711   6.394  10.611 -0.2578  0.2397 -3.6658
  637MOL0     H87880   5.836   6.451  10.386 -1.4125  0.6070  1.8443
  637MOL0     H87881   5.893   6.308  10.486  1.2221 -1.0260  2.4169
  637MOL0     H87882   6.010   6.590  10.529  1.3472 -0.2710  2.3601
  637MOL0     H87883   6.065   6.455  10.422  1.7082 -0.2527  1.3129
  637MOL0     H87884   6.050   6.321  10.644 -0.7211  0.3019 -0.0550
  637MOL0     H87885   6.052   6.474  10.723 -0.2685 -0.6832 -0.5054
  637MOL0     H87886   5.620   7.181  10.771  1.9693 -4.6408 -2.4836
  637MOL0     H87887   5.636   7.363  10.948  4.9914  1.6287 -0.7330
  637MOL0     H87888   5.701   7.583  11.195 -1.6844 -0.8590  0.2586
  637MOL0     H87889   5.669   7.814  11.309  0.6421  0.8144  2.0106
  637MOL0     H87890   6.021   8.339  11.200  1.2817  1.0418  2.8417
  637MOL0     H87891   6.058   8.257  10.962 -1.8715  1.8613  1.7999
  637MOL0     H87892   6.389   7.824  10.792 -0.7455 -1.5614 -1.2097
  637MOL0     H87893   6.361   7.702  10.583 -1.5906 -0.2337  2.7749
  637MOL0     H87894   6.387   7.955  10.188  2.4275  0.7028  1.6055
  637MOL0     H87895   6.533   7.863  10.243 -0.2184  2.3908 -1.9601
  637MOL0     H87896   6.478   7.774  10.041 -0.5779  2.2987 -0.0791
  637MOL0     H87897   6.298   7.754  10.069  0.1141 -0.5460 -0.6004
  637MOL0     H87898   6.485   7.609  10.223  1.2942 -1.6740 -1.4943
  637MOL0     H87899   6.308   7.584  10.188 -0.2689 -0.3265 -1.2585
  637MOL0     H87900   6.426   7.413  10.054 -0.0226 -0.5811 -0.6185
  637MOL0     H87901   6.542   7.530   9.996  0.5634  0.5223  0.8298
  637MOL0     H87902   6.184   7.612   9.763  1.1043  2.0727 -0.7790
  637MOL0     H87903   6.382   8.072  10.374 -0.5299 -2.5268 -1.0905
  637MOL0     H87904   6.429   8.283  10.654 -4.2265 -0.7419  4.3155
  637MOL0     H87905   6.399   8.266  10.470  1.7989  0.7100  1.4084
  637MOL0     H87906   6.272   8.290  10.585 -0.1485 -0.2535 -0.1677
  638MOL0     O87907   5.302   9.729   7.706 -0.0682 -0.3122 -0.1005
  638MOL0     C87908   5.351   9.701   7.597  0.7456 -0.7485  0.0862
  638MOL0     O87909   5.272   9.648   7.492 -0.5312 -0.2508  0.6440
  638MOL0     C87910   5.137   9.651   7.490 -0.4329  0.5368 -0.0654
  638MOL0     C87911   5.051   9.742   7.558  0.1633  0.4287  0.0833
  638MOL0     C87912   4.909   9.719   7.564 -0.1411 -0.0045  0.3136
  638MOL0     C87913   4.841   9.622   7.487  0.2446 -0.2186  0.1020
  638MOL0     O87914   4.710   9.605   7.502  0.3813 -0.7638 -0.0478
  638MOL0     C87915   4.613   9.715   7.487  0.1920  0.3310 -0.3467
  638MOL0     C87916   4.579   9.774   7.626  0.2506 -0.9699 -0.7563
  638MOL0     C87917   4.592   9.682   7.743  0.3862 -1.3876 -0.8336
  638MOL0     C87918   4.609   9.760   7.878  0.4201 -0.7023  1.0401
  638MOL0     C87919   4.624   9.668   8.000 -0.0743 -0.0284  0.4316
  638MOL0     C87920   4.709   9.732   8.110  0.1854 -0.0881 -0.6408
  638MOL0     C87921   4.720   9.631   8.230  0.5156 -0.3363  0.4762
  638MOL0     C87922   4.808   9.699   8.339 -0.7585  0.7622 -0.4360
  638MOL0     N87923   4.800   9.619   8.464  0.4377  0.4896 -0.1643
  638MOL0     C87924   4.693   9.617   8.550  0.0791  0.4749  0.5131
  638MOL0     C87925   4.730   9.544   8.662 -0.0075 -0.0567 -0.3654
  638MOL0     C87926   4.655   9.517   8.794  0.3867  0.2689  0.5178
  638MOL0     C87927   4.567   9.386   8.777  0.6105 -0.3825 -0.6534
  638MOL0     C87928   4.653   9.274   8.725  0.0773  0.2144  0.1643
  638MOL0     C87929   4.596   9.125   8.738 -0.0391  0.4455  0.0311
  638MOL0     O87930   4.490   9.116   8.838  1.0106 -0.1536 -0.1098
  638MOL0     C87931   4.451   8.992   8.883  0.5559  0.3020  0.0764
  638MOL0     C87932   4.480   8.871   8.825  0.6644  0.0381 -0.4269
  638MOL0     C87933   4.427   8.752   8.874  0.1035  0.2945 -1.3526
  638MOL0     C87934   4.450   8.626   8.799 -0.8361 -0.0525 -0.7743
  638MOL0     C87935   4.345   8.755   8.988  0.7240  0.3054 -0.0648
  638MOL0     C87936   4.278   8.629   9.049 -0.7096  0.4158 -0.3587
  638MOL0     O87937   4.278   8.622   9.192 -0.2553  0.4285  0.3736
  638MOL0     C87938   4.176   8.543   9.254  0.2328  0.4024 -0.6456
  638MOL0     C87939   4.222   8.479   9.375  0.6750 -0.8620  1.4052
  638MOL0     C87940   4.143   8.424   9.471 -0.0574 -0.6282 -0.7245
  638MOL0     C87941   4.006   8.426   9.444 -0.0824 -0.5488  0.1977
  638MOL0     O87942   3.934   8.374   9.554  0.1535 -0.7393  0.0335
  638MOL0     C87943   3.796   8.415   9.557 -0.1242 -0.8484 -0.0483
  638MOL0     C87944   3.738   8.370   9.692 -0.0580 -0.8482 -0.4474
  638MOL0     C87945   3.587   8.371   9.691 -0.1674 -0.4508 -0.3856
  638MOL0     C87946   3.535   8.244   9.635  0.4055  0.5259  0.0466
  638MOL0     C87947   3.387   8.253   9.604 -0.2292  0.4911  0.2150
  638MOL0     C87948   3.331   8.120   9.567 -0.0347  1.1567  1.0289
  638MOL0     C87949   3.179   8.115   9.569  0.2574 -0.4392 -0.2111
  638MOL0     C87950   3.109   7.980   9.607 -0.7214  0.8037  0.7471
  638MOL0    Cl87951   3.091   7.864   9.465  0.3884 -0.2038  0.4466
  638MOL0     C87952   3.957   8.466   9.316 -0.7661  0.4618 -0.3481
  638MOL0     C87953   4.042   8.531   9.221  0.0321  0.7135 -1.0822
  638MOL0     O87954   4.220   8.548   8.978 -0.1440  0.6905 -0.0490
  638MOL0     C87955   4.333   8.877   9.061  0.6026  0.0755  0.8276
  638MOL0     C87956   4.375   8.996   9.006 -0.1150  0.6585  1.2824
  638MOL0     N87957   4.863   9.502   8.643 -0.4296  0.4978 -0.5143
  638MOL0     N87958   4.903   9.552   8.529  0.0103  0.0242 -0.9250
  638MOL0     C87959   4.924   9.545   7.405 -0.0996 -0.3712  0.6516
  638MOL0     C87960   5.070   9.548   7.420  0.3853  0.5208  0.6543
  638MOL0     C87961   5.492   9.672   7.583 -0.2162  0.1246  0.0139
  638MOL0     C87962   5.517   9.548   7.523  0.4277  0.2784 -0.4546
  638MOL0     C87963   5.653   9.511   7.502  0.0389  0.2657 -0.0891
  638MOL0     C87964   5.755   9.596   7.536  0.4908 -0.9702 -0.6842
  638MOL0     O87965   5.880   9.552   7.525 -0.1040 -0.1317  0.2367
  638MOL0     C87966   5.931   9.584   7.392  0.3529 -0.2411 -0.1348
  638MOL0     C87967   5.862   9.506   7.264 -0.6935 -0.3899  0.1301
  638MOL0     C87968   5.965   9.489   7.150  0.3157 -1.1384 -0.1445
  638MOL0     C87969   5.909   9.447   7.021 -0.1484 -0.2790  1.6356
  638MOL0     C87970   5.997   9.351   6.936  0.3621 -0.8086 -0.1417
  638MOL0     C87971   6.059   9.271   6.868  0.2809  0.5716  0.4381
  638MOL0     C87972   5.727   9.718   7.606  0.1522  1.0759  0.0541
  638MOL0     C87973   5.592   9.759   7.629 -1.1447  0.1529 -0.0928
  638MOL0     C87974   5.572   9.871   7.727  0.9328 -0.0727 -0.1419
  638MOL0     H87975   5.099   9.827   7.606 -0.2258  2.1782 -2.4646
  638MOL0     H87976   4.851   9.782   7.630  1.3442  1.8759 -0.0808
  638MOL0     H87977   4.523   9.687   7.433  1.5134 -2.2344 -1.3826
  638MOL0     H87978   4.664   9.797   7.435 -1.4179  0.6597 -1.4644
  638MOL0     H87979   4.644   9.862   7.631 -1.5882  0.6226 -2.7598
  638MOL0     H87980   4.476   9.810   7.614 -0.2105 -1.8449  0.3604
  638MOL0     H87981   4.500   9.623   7.745 -3.0244  3.3607  0.8120
  638MOL0     H87982   4.675   9.611   7.732 -0.8704 -2.6935 -2.4960
  638MOL0     H87983   4.700   9.819   7.869  0.8999 -1.4095  1.1592
  638MOL0     H87984   4.527   9.831   7.890 -1.2771 -2.5451  1.0139
  638MOL0     H87985   4.668   9.570   7.980 -1.1234 -0.1234 -1.6171
  638MOL0     H87986   4.532   9.646   8.056 -0.5000 -1.0155 -0.6025
  638MOL0     H87987   4.808   9.762   8.074  1.8397 -6.2524 -2.5112
  638MOL0     H87988   4.664   9.827   8.141  1.4985  0.1782  0.5672
  638MOL0     H87989   4.767   9.542   8.188 -0.7861 -1.1899  0.7948
  638MOL0     H87990   4.621   9.605   8.269 -0.8064 -0.9539 -2.9172
  638MOL0     H87991   4.916   9.698   8.318 -0.6425 -1.8357 -0.1120
  638MOL0     H87992   4.783   9.805   8.343  1.3709  1.2971 -0.2162
  638MOL0     H87993   4.599   9.671   8.542 -1.2296 -1.6588  0.7578
  638MOL0     H87994   4.595   9.607   8.810  1.7320  1.1348  0.8366
  638MOL0     H87995   4.735   9.513   8.868  1.5675  0.4771 -0.7292
  638MOL0     H87996   4.527   9.359   8.875  1.8887  0.2714  0.0813
  638MOL0     H87997   4.491   9.408   8.702  1.5454  0.5662 -1.3556
  638MOL0     H87998   4.650   9.299   8.619 -0.8721  2.4641  0.6610
  638MOL0     H87999   4.759   9.277   8.753  0.2941  0.3936 -0.6667
  638MOL0     H88000   4.551   9.102   8.641 -1.1036  0.1792  0.5696
  638MOL0     H88001   4.678   9.060   8.768 -1.7279 -0.3868  3.3227
  638MOL0     H88002   4.546   8.867   8.739  0.0306 -0.5784 -0.9033
  638MOL0     H88003   4.475   8.541   8.864  1.1335 -0.1125 -1.5361
  638MOL0     H88004   4.538   8.645   8.737  0.4485 -2.6485  0.0654
  638MOL0     H88005   4.361   8.607   8.739 -2.7231  1.4189  1.3942
  638MOL0     H88006   4.325   8.496   9.403  0.8450 -0.0183  0.3579
  638MOL0     H88007   4.190   8.381   9.559 -1.3842  0.8887  0.7870
  638MOL0     H88008   3.795   8.524   9.556 -1.1871 -0.8561 -0.9161
  638MOL0     H88009   3.731   8.375   9.479  1.6935 -2.0333 -1.0393
  638MOL0     H88010   3.780   8.272   9.717  3.0168  0.1655 -1.2242
  638MOL0     H88011   3.768   8.448   9.763 -0.6718 -1.9221  1.0328
  638MOL0     H88012   3.540   8.446   9.626 -2.0440 -2.9756 -2.1607
  638MOL0     H88013   3.551   8.382   9.794 -0.5264 -3.0721 -0.1526
  638MOL0     H88014   3.554   8.163   9.707  1.3177 -1.7684 -2.5959
  638MOL0     H88015   3.604   8.212   9.556  2.8039 -1.0211  2.5675
  638MOL0     H88016   3.339   8.302   9.690  1.1077  1.5306  0.4026
  638MOL0     H88017   3.377   8.324   9.521 -1.5705  0.4823  0.3371
  638MOL0     H88018   3.373   8.048   9.639  1.2664  3.6199  2.8988
  638MOL0     H88019   3.373   8.103   9.468  0.2249  1.9674  0.9915
  638MOL0     H88020   3.145   8.135   9.467 -1.4729 -0.0840  0.4068
  638MOL0     H88021   3.130   8.194   9.626 -0.7343  0.9372 -2.8090
  638MOL0     H88022   3.007   7.988   9.647 -0.3447 -1.0123  2.2067
  638MOL0     H88023   3.167   7.927   9.683  0.8202  0.2386 -0.7533
  638MOL0     H88024   3.855   8.451   9.281 -1.1817  3.6623 -0.8495
  638MOL0     H88025   4.016   8.554   9.118 -0.6191  1.5980 -0.7277
  638MOL0     H88026   4.283   8.870   9.157  0.4541  2.7264  0.9987
  638MOL0     H88027   4.357   9.090   9.056 -1.6224  1.1937 -0.1695
  638MOL0     H88028   4.888   9.471   7.334  0.6902 -1.0520  0.9418
  638MOL0     H88029   5.123   9.480   7.354  1.6807  3.0160 -1.0639
  638MOL0     H88030   5.441   9.472   7.510 -1.7900  2.2903 -0.1672
  638MOL0     H88031   5.670   9.417   7.450 -4.3813  0.3743 -2.1424
  638MOL0     H88032   5.931   9.692   7.371 -1.7015 -0.9819 -5.5147
  638MOL0     H88033   6.031   9.540   7.391 -0.2725 -1.7978  1.3249
  638MOL0     H88034   5.771   9.559   7.233 -2.6048 -3.9270 -0.9037
  638MOL0     H88035   5.827   9.408   7.298 -2.1370 -0.2694 -0.8999
  638MOL0     H88036   6.013   9.587   7.145  1.2455 -1.3535  2.8632
  638MOL0     H88037   6.041   9.413   7.171 -0.2268 -2.0913 -1.4990
  638MOL0     H88038   5.908   9.534   6.954 -2.8132 -1.5899 -0.2315
  638MOL0     H88039   5.806   9.413   7.036 -0.9807  0.2589 -2.0179
  638MOL0     H88040   6.105   9.210   6.792 -0.7280  0.2716  0.0625
  638MOL0     H88041   5.812   9.765   7.654  2.0307 -0.1278 -1.9593
  638MOL0     H88042   5.618   9.825   7.815 -0.2120  1.1764  1.1789
  638MOL0     H88043   5.613   9.972   7.712  1.0015 -0.0616  0.1038
  638MOL0     H88044   5.469   9.886   7.760 -0.4127 -2.7953 -2.6889
  639MOL0     O88045   1.033   2.553   3.681  0.2879 -0.6164 -0.7696
  639MOL0     C88046   1.020   2.564   3.804  0.0741  0.3757 -1.1439
  639MOL0     O88047   1.044   2.681   3.877  0.2764  0.5092  0.1993
  639MOL0     C88048   1.099   2.791   3.813  0.9337  0.1677 -0.0671
  639MOL0     C88049   1.234   2.825   3.833 -0.8733  1.6601 -0.3894
  639MOL0     C88050   1.304   2.932   3.776  0.5701 -0.6758  0.6130
  639MOL0     C88051   1.238   3.003   3.673 -0.4828  0.2161 -0.0151
  639MOL0     O88052   1.294   3.108   3.594 -0.0381  0.3367  0.5929
  639MOL0     C88053   1.432   3.078   3.562  0.0984 -0.3768  0.3400
  639MOL0     C88054   1.462   3.171   3.442 -0.4138  0.6512  0.4777
  639MOL0     C88055   1.380   3.164   3.311 -0.1244  1.0465  0.2452
  639MOL0     C88056   1.424   3.050   3.229 -0.0107  0.1813  1.2545
  639MOL0     C88057   1.349   3.058   3.085 -0.3426 -0.3321 -0.1360
  639MOL0     C88058   1.349   2.917   3.023  0.6349 -0.3273 -0.0698
  639MOL0     C88059   1.492   2.870   2.969 -0.2497 -0.4749 -0.6487
  639MOL0     C88060   1.485   2.725   2.939 -0.1863 -1.0445 -0.1480
  639MOL0     N88061   1.606   2.692   2.858 -1.1534  0.7347 -0.6263
  639MOL0     C88062   1.722   2.635   2.911  1.8027  0.7058 -0.2079
  639MOL0     C88063   1.820   2.657   2.823 -0.1915  1.0773 -0.1115
  639MOL0     C88064   1.958   2.597   2.834 -0.3401 -0.3640  0.0810
  639MOL0     C88065   1.991   2.510   2.697  1.0719 -0.1845 -0.4678
  639MOL0     C88066   1.906   2.386   2.711 -0.2403  0.3690  0.0610
  639MOL0     C88067   1.951   2.269   2.625  0.1769 -0.4804  1.2549
  639MOL0     O88068   1.835   2.180   2.636  0.3601  0.2361 -0.5286
  639MOL0     C88069   1.837   2.055   2.693  0.5438  0.1146  1.0348
  639MOL0     C88070   1.955   1.975   2.718 -0.0737  0.5299  0.0818
  639MOL0     C88071   1.940   1.856   2.793 -0.0529 -0.6963  0.7346
  639MOL0     C88072   2.068   1.780   2.805 -0.6660 -0.7517 -0.2536
  639MOL0     C88073   1.807   1.804   2.815  0.2340 -0.1022 -0.4900
  639MOL0     C88074   1.790   1.673   2.889  0.7885  0.0389 -0.6803
  639MOL0     O88075   1.658   1.641   2.928 -0.0817  0.1338 -0.3261
  639MOL0     C88076   1.627   1.537   3.015 -0.0631  0.3177  0.0908
  639MOL0     C88077   1.540   1.561   3.121 -0.8850  0.3634 -0.1471
  639MOL0     C88078   1.513   1.465   3.221 -0.5485  0.8196 -0.3079
  639MOL0     C88079   1.574   1.340   3.204  0.0511  1.2615 -1.0023
  639MOL0     O88080   1.542   1.243   3.287 -0.4582 -0.3066 -0.7187
  639MOL0     C88081   1.409   1.192   3.299 -0.2615 -0.8566 -0.2807
  639MOL0     C88082   1.366   1.088   3.194 -0.3898  0.2092 -0.4086
  639MOL0     C88083   1.463   0.973   3.213 -0.6979  0.4761 -0.0713
  639MOL0     C88084   1.453   0.885   3.089 -0.5303 -1.4955 -0.5760
  639MOL0     C88085   1.511   0.746   3.112 -0.0649 -0.3017 -0.6479
  639MOL0     C88086   1.667   0.753   3.127 -0.0519  0.1609 -0.1719
  639MOL0     C88087   1.736   0.791   2.997 -0.4841 -0.7154  0.7582
  639MOL0     C88088   1.882   0.767   2.981 -1.2832  0.0904  1.0217
  639MOL0    Cl88089   1.925   0.592   3.000 -0.1853 -0.2673 -0.3447
  639MOL0     C88090   1.663   1.309   3.103  0.4369  0.6888  0.0262
  639MOL0     C88091   1.687   1.413   3.016  0.8467  0.3003  0.3830
  639MOL0     O88092   1.892   1.612   2.931 -0.8205 -0.3526  0.7023
  639MOL0     C88093   1.693   1.882   2.785  1.2407 -0.8747  0.2745
  639MOL0     C88094   1.708   2.016   2.734 -0.5269  1.2895 -0.5681
  639MOL0     N88095   1.764   2.715   2.713  0.6829 -0.4586  0.8929
  639MOL0     N88096   1.643   2.747   2.739  0.7828  0.6672  0.6025
  639MOL0     C88097   1.107   2.983   3.650  0.3593 -0.3265  0.8428
  639MOL0     C88098   1.041   2.881   3.722 -0.4781  0.5220  0.1961
  639MOL0     C88099   0.952   2.446   3.876 -0.2476  0.7281  0.9761
  639MOL0     C88100   0.987   2.320   3.825  0.1197  0.4998 -0.3067
  639MOL0     C88101   0.919   2.208   3.871  0.1840 -0.4887  0.4381
  639MOL0     C88102   0.821   2.217   3.975  1.0195 -0.7508 -0.6508
  639MOL0     O88103   0.754   2.109   4.019  0.3976  0.0118  0.7763
  639MOL0     C88104   0.803   2.044   4.129 -0.0325  0.6864 -1.0460
  639MOL0     C88105   0.697   2.031   4.239  0.9753 -0.1011  0.0357
  639MOL0     C88106   0.752   2.010   4.378 -0.8183  0.5417 -0.6260
  639MOL0     C88107   0.813   2.146   4.438  0.2438 -0.3174  0.1121
  639MOL0     C88108   0.703   2.205   4.507  0.4647 -0.1137  0.1942
  639MOL0     C88109   0.606   2.264   4.552 -0.9814 -0.0322 -0.1498
  639MOL0     C88110   0.796   2.339   4.037 -1.4012 -0.3419 -0.2570
  639MOL0     C88111   0.861   2.456   3.986 -0.4335  0.0297  0.2275
  639MOL0     C88112   0.816   2.594   4.037 -0.0258  0.9211  0.6921
  639MOL0     H88113   1.289   2.765   3.905  0.7235  2.0114 -1.2608
  639MOL0     H88114   1.407   2.947   3.805  1.1794 -1.4572 -1.0417
  639MOL0     H88115   1.439   2.974   3.532 -0.2167 -0.6038  1.0322
  639MOL0     H88116   1.487   3.105   3.653 -1.0175 -2.8245  1.8389
  639MOL0     H88117   1.438   3.268   3.486 -1.7477  1.3439 -1.6250
  639MOL0     H88118   1.571   3.173   3.437 -0.3910  2.5848  1.1972
  639MOL0     H88119   1.272   3.168   3.328  0.1318  2.2842  1.7395
  639MOL0     H88120   1.419   3.248   3.253 -0.1947 -0.0812 -1.5210
  639MOL0     H88121   1.532   3.038   3.215 -0.4345 -0.6375 -2.0932
  639MOL0     H88122   1.406   2.952   3.274  2.3517  0.3371  2.7187
  639MOL0     H88123   1.401   3.139   3.033  1.0236 -0.2154  1.3549
  639MOL0     H88124   1.248   3.101   3.090 -0.6429 -1.0838  0.4169
  639MOL0     H88125   1.315   2.851   3.104  0.4775 -0.2840 -0.0996
  639MOL0     H88126   1.273   2.901   2.946 -0.7503 -0.3179  1.2512
  639MOL0     H88127   1.563   2.903   3.045 -2.2510  0.1294  1.0613
  639MOL0     H88128   1.523   2.928   2.881  1.0017 -1.9125 -1.1951
  639MOL0     H88129   1.476   2.673   3.035  0.2606  1.4555  1.3371
  639MOL0     H88130   1.394   2.706   2.881 -2.4502  4.7464  0.8117
  639MOL0     H88131   1.732   2.579   3.004  3.2765  0.6464 -0.3669
  639MOL0     H88132   1.966   2.540   2.927  1.0103 -2.3047 -1.1204
  639MOL0     H88133   2.026   2.682   2.842 -1.4352  0.4899  0.4934
  639MOL0     H88134   1.960   2.580   2.619 -1.0073  1.9376  2.0687
  639MOL0     H88135   2.093   2.473   2.682  0.2714 -1.8605 -2.2044
  639MOL0     H88136   1.920   2.356   2.816  1.3328  0.0719 -0.2091
  639MOL0     H88137   1.806   2.420   2.681 -1.2534  1.4532  4.0016
  639MOL0     H88138   1.971   2.294   2.521 -1.5451  2.5345  1.5306
  639MOL0     H88139   2.045   2.239   2.672  1.5565  2.0119  0.2840
  639MOL0     H88140   2.050   2.014   2.681  0.3012 -1.3824 -1.1525
  639MOL0     H88141   2.057   1.672   2.796  0.2164 -0.9468  0.7167
  639MOL0     H88142   2.135   1.801   2.890 -1.6684  1.9230 -0.0316
  639MOL0     H88143   2.128   1.804   2.717 -0.1369  0.1296  0.3270
  639MOL0     H88144   1.491   1.657   3.111  1.4045  1.7930  1.5924
  639MOL0     H88145   1.433   1.485   3.292  0.3610  2.4712  0.3025
  639MOL0     H88146   1.401   1.163   3.404 -0.8237 -2.3157 -0.7022
  639MOL0     H88147   1.348   1.280   3.273 -2.8613 -2.4781 -0.0485
  639MOL0     H88148   1.260   1.066   3.211 -1.0073  2.5810 -0.7093
  639MOL0     H88149   1.370   1.119   3.089  0.3036  0.5926 -0.2765
  639MOL0     H88150   1.449   0.905   3.298 -0.5945 -3.8137 -3.1392
  639MOL0     H88151   1.559   1.021   3.194  0.0121  0.5672  3.1736
  639MOL0     H88152   1.498   0.947   3.011 -0.9264 -0.2382  0.1781
  639MOL0     H88153   1.346   0.868   3.077 -0.6922 -0.9239  0.0373
  639MOL0     H88154   1.469   0.706   3.205 -2.4589 -0.7367 -1.8385
  639MOL0     H88155   1.492   0.682   3.025 -0.1887 -1.5805  0.2757
  639MOL0     H88156   1.708   0.656   3.157  1.0270  1.5800  3.4923
  639MOL0     H88157   1.693   0.818   3.210 -2.3986  1.3968 -0.3291
  639MOL0     H88158   1.723   0.898   2.976  3.9832 -0.1240  0.1880
  639MOL0     H88159   1.693   0.730   2.917 -2.5342  1.1351  0.3429
  639MOL0     H88160   1.932   0.831   3.054  2.0301 -0.3378 -0.6435
  639MOL0     H88161   1.913   0.788   2.877  1.6937 -0.3213  1.7217
  639MOL0     H88162   1.717   1.216   3.116 -2.6896 -0.9751  2.5867
  639MOL0     H88163   1.761   1.403   2.937  0.4457 -2.5830  0.2554
  639MOL0     H88164   1.596   1.835   2.798  0.6040  0.5889  0.9588
  639MOL0     H88165   1.622   2.075   2.707 -0.6280  0.3117 -2.5395
  639MOL0     H88166   1.048   3.042   3.580 -0.7261  1.5935  3.2509
  639MOL0     H88167   0.940   2.861   3.687  0.0672  1.1577 -1.8105
  639MOL0     H88168   1.057   2.303   3.743 -1.3061  0.1202 -1.4899
  639MOL0     H88169   0.925   2.105   3.839  0.9297 -0.5581  0.7894
  639MOL0     H88170   0.838   1.947   4.091 -1.5242 -1.1287  1.8453
  639MOL0     H88171   0.888   2.103   4.164  0.2665  0.8957 -2.1021
  639MOL0     H88172   0.622   1.954   4.216 -1.5015  2.7410 -2.2647
  639MOL0     H88173   0.627   2.115   4.237 -0.0963 -0.9440  0.5995
  639MOL0     H88174   0.677   1.957   4.437 -0.7302  2.1866  1.0127
  639MOL0     H88175   0.831   1.934   4.380 -2.0025 -0.7544 -1.1285
  639MOL0     H88176   0.851   2.212   4.360 -2.6298  2.6655  1.0104
  639MOL0     H88177   0.896   2.116   4.502 -1.1949  1.1185  2.8522
  639MOL0     H88178   0.529   2.328   4.592  0.5515  2.6456 -1.1755
  639MOL0     H88179   0.728   2.352   4.120  0.2960 -1.0514  1.3234
  639MOL0     H88180   0.729   2.594   4.103 -0.4635  4.9980  0.3796
  639MOL0     H88181   0.895   2.645   4.094 -1.0322  1.9692  1.1899
  639MOL0     H88182   0.790   2.649   3.946 -1.7096 -1.3464 -0.2738
  640MOL0     O88183  10.381   3.818   1.326 -0.3602  0.2421  0.2770
  640MOL0     C88184  10.331   3.724   1.265  0.2713 -0.6320 -0.2251
  640MOL0     O88185  10.200   3.688   1.266 -0.2789 -0.9486 -0.2358
  640MOL0     C88186  10.108   3.727   1.357 -0.8217  0.6411 -0.2781
  640MOL0     C88187   9.983   3.749   1.302 -0.6927 -0.5628  0.1512
  640MOL0     C88188   9.875   3.779   1.386  0.1799  0.2677  0.2616
  640MOL0     C88189   9.893   3.791   1.523 -0.3022  0.2427  0.6176
  640MOL0     O88190   9.783   3.803   1.601 -0.2260 -1.0448 -0.1645
  640MOL0     C88191   9.763   3.938   1.655  0.2694  0.4444 -0.2957
  640MOL0     C88192   9.669   4.002   1.557  0.3401 -0.6084 -0.0425
  640MOL0     C88193   9.608   4.138   1.589 -0.4588 -0.4036  0.2734
  640MOL0     C88194   9.540   4.115   1.730  0.7614 -0.0719 -0.3581
  640MOL0     C88195   9.441   4.226   1.778 -0.3913  0.4861 -0.9388
  640MOL0     C88196   9.368   4.165   1.898  0.7259 -1.0745  0.3356
  640MOL0     C88197   9.242   4.235   1.953  1.0922 -0.5136 -0.1713
  640MOL0     C88198   9.106   4.207   1.880 -0.2174  0.2382  0.0528
  640MOL0     N88199   9.097   4.240   1.733  0.6302  1.2433  0.0492
  640MOL0     C88200   9.063   4.370   1.704  0.8677 -0.3969 -0.0702
  640MOL0     C88201   9.075   4.370   1.576  0.1995 -0.8465  0.3927
  640MOL0     C88202   9.050   4.499   1.499  0.2203 -0.6026 -0.1700
  640MOL0     C88203   8.933   4.484   1.399  0.2713 -0.6632 -0.0466
  640MOL0     C88204   8.947   4.542   1.255 -0.0358  0.3761  0.5173
  640MOL0     C88205   8.961   4.687   1.266  0.0908 -0.1453 -0.5874
  640MOL0     O88206   8.939   4.746   1.125 -0.0596  0.4681 -0.1239
  640MOL0     C88207   9.037   4.832   1.080 -0.1704 -0.7253 -0.3004
  640MOL0     C88208   9.114   4.918   1.155  0.6218  0.0882  0.3537
  640MOL0     C88209   9.217   4.983   1.086 -0.9727 -0.8512 -0.3620
  640MOL0     C88210   9.313   5.059   1.178  1.7508  0.1420  0.0887
  640MOL0     C88211   9.244   4.982   0.951  0.2591 -0.2592 -0.2486
  640MOL0     C88212   9.347   5.070   0.879 -0.2956  0.4012 -0.3253
  640MOL0     O88213   9.379   5.033   0.751  0.0836 -0.4200 -0.4143
  640MOL0     C88214   9.493   5.087   0.705 -0.6464 -0.5308  0.9253
  640MOL0     C88215   9.597   5.007   0.662  0.1421  0.8999 -0.3041
  640MOL0     C88216   9.721   5.061   0.613  0.9520 -0.1667  0.5922
  640MOL0     C88217   9.733   5.195   0.584 -0.1343  0.9813 -0.6602
  640MOL0     O88218   9.839   5.264   0.526  0.0584  1.5779  0.3740
  640MOL0     C88219   9.908   5.191   0.424 -0.9795 -0.5284 -0.1293
  640MOL0     C88220  10.002   5.285   0.342  0.1171  0.6808  0.2218
  640MOL0     C88221  10.096   5.190   0.256 -0.8544  0.1108 -0.0602
  640MOL0     C88222  10.027   5.078   0.173  0.8829 -0.2288  0.0462
  640MOL0     C88223  10.124   5.013   0.061  0.3332 -0.3492 -0.0120
  640MOL0     C88224  10.197   5.119  -0.037 -0.4760 -0.4897 -0.1160
  640MOL0     C88225  10.089   5.168  -0.146  0.0105 -0.7535  0.1693
  640MOL0     C88226  10.159   5.259  -0.254  0.1264  0.1196 -0.3275
  640MOL0    Cl88227  10.096   5.421  -0.248  0.0334  0.0781  0.3175
  640MOL0     C88228   9.624   5.272   0.608 -1.1994 -0.6546  0.7973
  640MOL0     C88229   9.508   5.218   0.660 -0.7310 -0.8507  0.5602
  640MOL0     O88230   9.398   5.165   0.932  0.1853  0.2061  0.1406
  640MOL0     C88231   9.174   4.884   0.883 -0.2573 -0.6573  0.5739
  640MOL0     C88232   9.067   4.820   0.942  0.9900 -0.5650 -1.1284
  640MOL0     N88233   9.098   4.242   1.528 -0.4163  0.2275 -0.4274
  640MOL0     N88234   9.110   4.163   1.625  0.3735  0.3778 -0.0104
  640MOL0     C88235  10.019   3.768   1.578 -0.3359  0.1327  0.2139
  640MOL0     C88236  10.136   3.729   1.496  0.4186 -0.7341 -0.2727
  640MOL0     C88237  10.415   3.664   1.166 -1.0634  0.4799 -0.4401
  640MOL0     C88238  10.483   3.750   1.091  0.2166  0.7911  0.1721
  640MOL0     C88239  10.548   3.699   0.987  1.1828 -0.1050  0.0273
  640MOL0     C88240  10.555   3.565   0.954 -0.2629 -0.7414 -0.4595
  640MOL0     O88241  10.634   3.528   0.853 -0.1190 -0.3915  0.1546
  640MOL0     C88242  10.741   3.452   0.903  0.0819 -0.0777 -0.2722
  640MOL0     C88243  10.864   3.458   0.814  0.5946  0.8354  0.8588
  640MOL0     C88244  10.831   3.409   0.672  0.1570 -0.3920  0.5278
  640MOL0     C88245  10.920   3.289   0.629  0.5656 -0.0656 -0.3954
  640MOL0     C88246  11.052   3.335   0.589 -0.0509 -0.5137 -0.6229
  640MOL0     C88247  11.166   3.377   0.569  0.5538  1.0652 -0.6205
  640MOL0     C88248  10.488   3.475   1.038 -0.4537  0.2235 -0.0176
  640MOL0     C88249  10.410   3.526   1.140 -0.4298  0.1287 -0.1201
  640MOL0     C88250  10.351   3.427   1.244 -0.2653  0.2045 -0.4571
  640MOL0     H88251   9.969   3.731   1.196  0.4403 -1.4961  0.1371
  640MOL0     H88252   9.772   3.796   1.354  0.3269  2.4383  0.7803
  640MOL0     H88253   9.852   4.001   1.649  0.6161 -0.0212 -0.0696
  640MOL0     H88254   9.733   3.940   1.760  0.4765  1.5479 -0.2461
  640MOL0     H88255   9.722   4.017   1.463 -0.1015 -0.4765 -0.2699
  640MOL0     H88256   9.579   3.941   1.550 -0.7305  0.8688  0.4750
  640MOL0     H88257   9.673   4.225   1.595  0.2720 -0.9323  0.1447
  640MOL0     H88258   9.526   4.161   1.519 -0.2455  1.6337  0.6299
  640MOL0     H88259   9.471   4.031   1.728 -3.7904  3.2521 -0.1230
  640MOL0     H88260   9.616   4.096   1.806  0.2483  0.8241  0.4086
  640MOL0     H88261   9.369   4.261   1.704  0.1538 -0.0343 -1.7350
  640MOL0     H88262   9.502   4.308   1.818  1.0622 -2.2470  3.1233
  640MOL0     H88263   9.336   4.061   1.882  0.1333 -1.3138  2.7420
  640MOL0     H88264   9.429   4.179   1.987 -0.0979 -1.6727  1.0191
  640MOL0     H88265   9.258   4.342   1.941 -2.5703 -0.0216 -1.7853
  640MOL0     H88266   9.228   4.224   2.061  0.6814  0.6810 -0.0928
  640MOL0     H88267   9.067   4.109   1.908  0.8434 -0.2098  0.0111
  640MOL0     H88268   9.039   4.279   1.929  0.9209  2.7132 -1.7870
  640MOL0     H88269   9.042   4.457   1.767  4.2313  1.0561 -0.7229
  640MOL0     H88270   9.140   4.512   1.437  0.1461 -1.8384 -0.5651
  640MOL0     H88271   9.024   4.583   1.563  1.5820 -1.6025  1.8105
  640MOL0     H88272   8.917   4.379   1.373  1.0001 -0.1322 -3.0970
  640MOL0     H88273   8.846   4.514   1.459  1.5810  2.0268  0.6773
  640MOL0     H88274   9.033   4.509   1.196  0.0802  0.5853  0.5695
  640MOL0     H88275   8.857   4.505   1.205  1.9627 -2.5884 -1.1494
  640MOL0     H88276   8.904   4.736   1.345  0.3501  0.7263 -0.9281
  640MOL0     H88277   9.066   4.701   1.296 -0.2621  2.4768 -0.3616
  640MOL0     H88278   9.107   4.929   1.263  1.2986 -2.4340  0.7252
  640MOL0     H88279   9.414   5.022   1.161  1.7697  0.3757 -0.3279
  640MOL0     H88280   9.297   5.043   1.285  2.5566  0.9668  0.3512
  640MOL0     H88281   9.303   5.165   1.152  1.8452  0.3723  0.9529
  640MOL0     H88282   9.590   4.899   0.677 -0.6350  0.6859 -1.9385
  640MOL0     H88283   9.801   4.993   0.587  1.7480  2.3529 -5.2627
  640MOL0     H88284   9.975   5.114   0.464 -3.2373 -2.6218 -0.1281
  640MOL0     H88285   9.829   5.147   0.363 -2.1309 -1.1094  1.7025
  640MOL0     H88286   9.936   5.335   0.269 -1.3892 -2.1815 -0.5628
  640MOL0     H88287  10.062   5.360   0.394  1.3842 -0.1092 -0.0654
  640MOL0     H88288  10.163   5.141   0.327  2.3436  2.4286 -1.1912
  640MOL0     H88289  10.160   5.247   0.188 -0.3986  0.3421  0.5537
  640MOL0     H88290   9.937   5.116   0.123  2.3770  0.1941 -2.5040
  640MOL0     H88291   9.999   4.999   0.243  0.7907  1.6506  2.2427
  640MOL0     H88292  10.191   4.943   0.113 -0.1730  0.4975  1.8331
  640MOL0     H88293  10.063   4.949  -0.004 -0.9087 -0.9246  1.6392
  640MOL0     H88294  10.280   5.069  -0.087  0.6386  0.6444  0.5305
  640MOL0     H88295  10.243   5.199   0.021 -0.2442 -0.5819 -0.1717
  640MOL0     H88296   9.995   5.195  -0.098  0.9406 -0.2939  1.8128
  640MOL0     H88297  10.059   5.086  -0.212 -1.0464 -0.1745 -0.0874
  640MOL0     H88298  10.141   5.226  -0.357 -2.7928  1.8379 -0.4783
  640MOL0     H88299  10.268   5.264  -0.244  0.1837 -2.5287  1.4258
  640MOL0     H88300   9.634   5.377   0.581 -1.1065 -1.1614 -1.3630
  640MOL0     H88301   9.430   5.291   0.673  0.2500  0.1128  1.1737
  640MOL0     H88302   9.204   4.869   0.779  2.1553  2.3091  0.7145
  640MOL0     H88303   9.008   4.751   0.884 -1.4344  0.7495 -0.3736
  640MOL0     H88304  10.035   3.775   1.685  1.5570 -1.1164  0.0620
  640MOL0     H88305  10.232   3.700   1.537  2.4075  3.4897 -1.3759
  640MOL0     H88306  10.472   3.858   1.100  2.0429  0.8766  1.9245
  640MOL0     H88307  10.604   3.768   0.926  2.0735  1.3748  2.4078
  640MOL0     H88308  10.778   3.490   0.999  1.4439 -0.3165 -0.6860
  640MOL0     H88309  10.713   3.349   0.924 -0.9455  0.1913 -0.2471
  640MOL0     H88310  10.940   3.403   0.870  1.6083  0.0500 -1.1685
  640MOL0     H88311  10.904   3.559   0.806  1.4563  0.4581  0.0231
  640MOL0     H88312  10.724   3.388   0.662 -0.2045  1.0067  1.1540
  640MOL0     H88313  10.845   3.487   0.597 -0.9639  0.1107  0.8135
  640MOL0     H88314  10.885   3.235   0.541 -0.0698  1.6535 -1.2282
  640MOL0     H88315  10.918   3.209   0.705 -2.2881 -0.9141 -1.2528
  640MOL0     H88316  11.272   3.389   0.561  0.8672  1.0358  2.3381
  640MOL0     H88317  10.489   3.368   1.023 -0.1434  0.5911 -3.4072
  640MOL0     H88318  10.292   3.484   1.316 -1.2894  1.9016 -2.5271
  640MOL0     H88319  10.278   3.359   1.200 -1.2159 -0.4982  2.0175
  640MOL0     H88320  10.434   3.370   1.286  0.1650 -0.3230 -1.9615
  641MOL0     O88321   0.852   8.303   0.606  0.2700  1.2282 -0.1268
  641MOL0     C88322   0.930   8.250   0.532  0.1570 -0.8848 -0.2103
  641MOL0     O88323   0.908   8.148   0.449 -0.0951 -0.2270 -0.8544
  641MOL0     C88324   0.794   8.067   0.452 -0.3062 -0.0048 -0.0012
  641MOL0     C88325   0.744   7.999   0.561  0.1539  1.4179 -1.1111
  641MOL0     C88326   0.642   7.910   0.534  0.9321  0.8584  0.0678
  641MOL0     C88327   0.583   7.884   0.408  0.6833 -0.0330  0.5169
  641MOL0     O88328   0.477   7.799   0.396  0.7079  0.8302 -0.5444
  641MOL0     C88329   0.469   7.727   0.272  0.2756 -0.5485 -0.5077
  641MOL0     C88330   0.367   7.790   0.164  0.1101 -0.2193 -0.2401
  641MOL0     C88331   0.233   7.718   0.157 -0.2319 -0.8226 -0.6366
  641MOL0     C88332   0.221   7.605   0.050  0.4606  0.8200  0.7047
  641MOL0     C88333   0.248   7.667  -0.100  0.3119 -0.4444 -1.0393
  641MOL0     C88334   0.189   7.566  -0.210 -0.1529  0.7274  0.0107
  641MOL0     C88335   0.253   7.436  -0.224 -0.2422 -0.3838  0.0593
  641MOL0     C88336   0.189   7.357  -0.339 -0.1877 -0.4418  0.6015
  641MOL0     N88337   0.253   7.224  -0.357 -0.3229 -0.6283 -0.7779
  641MOL0     C88338   0.273   7.158  -0.472 -0.4275 -0.5456 -0.0026
  641MOL0     C88339   0.337   7.047  -0.435 -0.1969 -0.1015 -0.6361
  641MOL0     C88340   0.411   6.958  -0.535  0.2952  1.2629  0.0613
  641MOL0     C88341   0.512   7.046  -0.625  1.3672  0.7140  0.0983
  641MOL0     C88342   0.646   7.078  -0.562  0.9216  0.1412  0.1786
  641MOL0     C88343   0.636   7.158  -0.447  0.1723 -0.4289 -0.2892
  641MOL0     O88344   0.585   7.291  -0.468 -1.0235 -0.0151  0.3634
  641MOL0     C88345   0.596   7.380  -0.363 -0.4590 -0.5099  0.0109
  641MOL0     C88346   0.641   7.343  -0.235 -0.6038 -0.1460  0.0934
  641MOL0     C88347   0.667   7.437  -0.132 -0.0063 -0.5039  1.1676
  641MOL0     C88348   0.745   7.382  -0.018 -0.5489 -0.9066 -0.1791
  641MOL0     C88349   0.637   7.569  -0.164 -0.3942  0.5273 -0.4516
  641MOL0     C88350   0.654   7.676  -0.074 -0.8607 -0.1225 -0.4906
  641MOL0     O88351   0.640   7.806  -0.111  0.3858 -0.1295  0.2708
  641MOL0     C88352   0.712   7.904  -0.061 -0.6577 -0.3211  0.0941
  641MOL0     C88353   0.673   8.033  -0.101  0.2702 -0.5930 -0.2167
  641MOL0     C88354   0.753   8.141  -0.068 -0.5055 -0.0845 -0.4398
  641MOL0     C88355   0.868   8.119   0.013 -0.2334 -1.0891 -0.1251
  641MOL0     O88356   0.948   8.212   0.075 -0.4224 -0.1508  0.3822
  641MOL0     C88357   0.933   8.349   0.035  0.6077 -0.4297 -0.5670
  641MOL0     C88358   1.064   8.433   0.028  1.0717  0.0415 -0.4962
  641MOL0     C88359   1.140   8.382  -0.092 -0.5735  0.9123  0.0105
  641MOL0     C88360   1.266   8.470  -0.109 -0.0963  0.4100  0.2524
  641MOL0     C88361   1.310   8.477  -0.256 -0.2903 -0.0187  0.3428
  641MOL0     C88362   1.455   8.545  -0.250 -0.2754 -0.1362  0.4889
  641MOL0     C88363   1.490   8.560  -0.396 -0.1181 -0.5132 -0.5966
  641MOL0     C88364   1.610   8.662  -0.416  0.3035  0.2318  0.0893
  641MOL0    Cl88365   1.625   8.690  -0.590  0.7971 -0.1192  0.0446
  641MOL0     C88366   0.908   7.990   0.050  1.0559 -0.4543  0.9546
  641MOL0     C88367   0.834   7.887   0.001 -0.1567  0.6189  0.5137
  641MOL0     O88368   0.684   7.651   0.042 -0.2678  0.6174  0.3719
  641MOL0     C88369   0.586   7.606  -0.293 -0.4700  0.7442 -0.5664
  641MOL0     C88370   0.564   7.517  -0.393  0.1654  0.0208  0.5432
  641MOL0     N88371   0.351   7.041  -0.293  0.4596 -0.0402  0.8915
  641MOL0     N88372   0.299   7.149  -0.250 -0.0709  0.1462  0.1406
  641MOL0     C88373   0.630   7.965   0.305  0.4436 -0.3807  0.3347
  641MOL0     C88374   0.731   8.058   0.326 -0.2941 -0.7473 -0.2324
  641MOL0     C88375   1.060   8.304   0.532  0.0062 -1.1078  0.0101
  641MOL0     C88376   1.137   8.293   0.417 -0.0250 -0.0043 -0.1406
  641MOL0     C88377   1.261   8.351   0.401 -0.4264 -0.3425  0.5706
  641MOL0     C88378   1.313   8.425   0.512  0.2816 -0.1157  0.8498
  641MOL0     O88379   1.430   8.488   0.521 -0.3575  0.0644  0.3554
  641MOL0     C88380   1.531   8.467   0.423  0.3298 -0.3737  0.5425
  641MOL0     C88381   1.613   8.335   0.429 -0.7228 -0.1276 -0.2533
  641MOL0     C88382   1.727   8.336   0.324  0.7738 -0.0192 -0.9931
  641MOL0     C88383   1.663   8.308   0.189 -0.2079  0.4766 -0.2061
  641MOL0     C88384   1.734   8.381   0.083  0.4637  0.4749 -0.5739
  641MOL0     C88385   1.766   8.456  -0.007  0.8717  0.7086 -0.8181
  641MOL0     C88386   1.246   8.434   0.633  0.5527 -0.0934  0.2478
  641MOL0     C88387   1.114   8.382   0.639 -0.1784  0.4528 -0.4610
  641MOL0     C88388   1.058   8.387   0.784  0.4543 -0.1600  0.2076
  641MOL0     H88389   0.782   8.022   0.661  2.3368 -2.8991 -0.6726
  641MOL0     H88390   0.592   7.852   0.610 -0.7689 -1.1346 -2.4055
  641MOL0     H88391   0.439   7.632   0.318  2.0006  0.7714  3.7968
  641MOL0     H88392   0.570   7.708   0.234 -0.4304 -0.4665 -2.5592
  641MOL0     H88393   0.342   7.895   0.178  1.0605  0.4846 -3.2754
  641MOL0     H88394   0.414   7.784   0.066  1.7084 -0.0595  0.4863
  641MOL0     H88395   0.220   7.682   0.259  3.4463 -0.4517  0.1013
  641MOL0     H88396   0.150   7.787   0.142  0.2889  0.3852  1.6208
  641MOL0     H88397   0.290   7.524   0.074 -0.9606 -1.0440 -1.1668
  641MOL0     H88398   0.121   7.562   0.060  0.4708  1.0853  2.1015
  641MOL0     H88399   0.349   7.694  -0.131  1.5056  0.3444  2.9599
  641MOL0     H88400   0.186   7.757  -0.102 -1.2491 -1.3892  1.1997
  641MOL0     H88401   0.083   7.554  -0.185  0.3254  0.9078  2.4365
  641MOL0     H88402   0.203   7.603  -0.312  2.6985  0.0534  0.0552
  641MOL0     H88403   0.247   7.375  -0.133 -0.2560  1.9933  1.7580
  641MOL0     H88404   0.360   7.445  -0.245  0.4611 -0.2742  3.1281
  641MOL0     H88405   0.083   7.345  -0.316  0.3323 -1.0396  3.0386
  641MOL0     H88406   0.202   7.413  -0.432  1.1247  2.2375  2.2630
  641MOL0     H88407   0.253   7.188  -0.574  1.2155 -3.7011 -1.4024
  641MOL0     H88408   0.333   6.915  -0.600  0.2920  2.2219 -0.5931
  641MOL0     H88409   0.469   6.879  -0.486  0.6513  2.3940  1.5157
  641MOL0     H88410   0.517   6.996  -0.722  2.3709 -0.2000  0.5898
  641MOL0     H88411   0.465   7.140  -0.655  0.5623 -0.2093 -1.6697
  641MOL0     H88412   0.704   6.988  -0.541 -0.0008 -0.2824  1.0465
  641MOL0     H88413   0.701   7.136  -0.636 -0.8166  1.1610 -0.3625
  641MOL0     H88414   0.579   7.115  -0.364  4.8587  0.6922  3.9614
  641MOL0     H88415   0.738   7.170  -0.410  0.3552  0.3804 -1.0321
  641MOL0     H88416   0.658   7.240  -0.206  1.3777  0.2730  0.6037
  641MOL0     H88417   0.764   7.276  -0.035 -3.0237 -1.5824  0.7980
  641MOL0     H88418   0.683   7.381   0.072 -0.3321  0.7280  0.0210
  641MOL0     H88419   0.837   7.439  -0.001 -2.6618  2.0345  2.5786
  641MOL0     H88420   0.599   8.045  -0.179 -1.5768  2.6689  1.7772
  641MOL0     H88421   0.723   8.240  -0.099 -2.2071  0.8938  3.7335
  641MOL0     H88422   0.885   8.361  -0.063 -1.1815 -0.6628  0.2299
  641MOL0     H88423   0.870   8.394   0.113  1.7361 -0.3728  0.3302
  641MOL0     H88424   1.036   8.538   0.033  2.5308  0.4800 -0.8962
  641MOL0     H88425   1.126   8.410   0.115  0.1305  0.2350  0.2360
  641MOL0     H88426   1.086   8.387  -0.187 -2.5406  1.0851  1.0863
  641MOL0     H88427   1.186   8.285  -0.074 -1.1844  0.7807  0.9458
  641MOL0     H88428   1.349   8.432  -0.049  0.7329 -0.1601 -1.2239
  641MOL0     H88429   1.245   8.567  -0.063 -2.9314 -0.0120  0.0324
  641MOL0     H88430   1.324   8.382  -0.308  2.6265  1.0984 -1.1305
  641MOL0     H88431   1.237   8.545  -0.300 -0.8092  0.3083  1.6475
  641MOL0     H88432   1.532   8.487  -0.199  2.5532  0.5979 -2.5386
  641MOL0     H88433   1.443   8.641  -0.199 -1.2096 -1.0745  2.1138
  641MOL0     H88434   1.397   8.584  -0.447 -0.2244  1.9115  0.6258
  641MOL0     H88435   1.539   8.471  -0.438  3.5777  0.0682  1.9418
  641MOL0     H88436   1.707   8.635  -0.372 -1.0185  0.9065  3.7559
  641MOL0     H88437   1.598   8.760  -0.368  2.8080  1.8899 -2.3833
  641MOL0     H88438   1.004   7.965   0.093  3.4652  0.2396 -3.4566
  641MOL0     H88439   0.875   7.791   0.033  2.7840  0.6096 -2.6984
  641MOL0     H88440   0.547   7.707  -0.297 -1.6572  0.3884  0.8923
  641MOL0     H88441   0.524   7.542  -0.490 -0.8664 -0.1723  0.9008
  641MOL0     H88442   0.576   7.956   0.212 -1.0086 -2.5299  1.2842
  641MOL0     H88443   0.762   8.124   0.246  0.5668 -0.5208  0.2706
  641MOL0     H88444   1.080   8.246   0.337 -0.5855 -1.4480  1.0665
  641MOL0     H88445   1.333   8.342   0.320 -1.1463  1.6361 -0.3255
  641MOL0     H88446   1.492   8.481   0.322  1.4228  4.5009  0.5371
  641MOL0     H88447   1.599   8.551   0.443  0.5031  0.2474 -2.2732
  641MOL0     H88448   1.544   8.250   0.432  1.0774 -1.6963 -1.1175
  641MOL0     H88449   1.659   8.337   0.528  0.5651 -1.6766 -0.7813
  641MOL0     H88450   1.772   8.436   0.321  3.9575 -1.1216  2.4516
  641MOL0     H88451   1.806   8.263   0.348  0.4786  0.3063  1.1130
  641MOL0     H88452   1.554   8.315   0.181 -0.2576 -0.0630 -0.0262
  641MOL0     H88453   1.684   8.204   0.164  1.5125  1.2438 -2.2268
  641MOL0     H88454   1.797   8.521  -0.086 -0.5348 -0.3358 -2.2803
  641MOL0     H88455   1.295   8.481   0.718  1.0779  2.5673 -1.4099
  641MOL0     H88456   0.968   8.451   0.785  1.7529  1.8570  2.9048
  641MOL0     H88457   1.018   8.293   0.822  0.2854  0.7558  2.4728
  641MOL0     H88458   1.123   8.438   0.856 -1.9887  1.9774  1.0941
  642MOL0     O88459   2.457   8.087   6.249  0.5986 -0.5364  0.6901
  642MOL0     C88460   2.432   8.193   6.194  0.0685  0.6385  0.1786
  642MOL0     O88461   2.384   8.197   6.064  0.9883  0.1778 -0.0233
  642MOL0     C88462   2.396   8.079   5.996  0.9494 -0.6827 -0.1114
  642MOL0     C88463   2.287   8.050   5.912 -0.0786  0.0195  0.4740
  642MOL0     C88464   2.279   7.933   5.833 -0.3980  0.4125  0.4154
  642MOL0     C88465   2.386   7.847   5.833 -0.3193  0.0609 -1.6253
  642MOL0     O88466   2.372   7.732   5.751  0.2752  0.7696  0.0368
  642MOL0     C88467   2.489   7.668   5.704 -0.4867 -0.1207  0.1509
  642MOL0     C88468   2.461   7.577   5.590 -0.5682  1.3338  0.8684
  642MOL0     C88469   2.563   7.465   5.571 -0.5870 -0.2786 -0.3584
  642MOL0     C88470   2.652   7.493   5.449  0.6950  0.2632 -0.1887
  642MOL0     C88471   2.789   7.424   5.462 -0.3146  0.3938  0.2987
  642MOL0     C88472   2.774   7.267   5.472  0.3093 -0.0602 -0.2538
  642MOL0     C88473   2.903   7.180   5.461 -0.3397 -0.5959 -0.1437
  642MOL0     C88474   3.009   7.222   5.575  0.5854  0.0224  0.9647
  642MOL0     N88475   3.138   7.148   5.560  1.1208 -0.1396  0.0569
  642MOL0     C88476   3.196   7.109   5.680  0.6920 -0.1688  0.4841
  642MOL0     C88477   3.318   7.071   5.634  0.1025 -0.3832 -0.4107
  642MOL0     C88478   3.425   7.032   5.729  0.5633 -0.3664 -0.1655
  642MOL0     C88479   3.501   7.157   5.787 -0.1884 -0.0780  1.0397
  642MOL0     C88480   3.657   7.144   5.799  0.6249 -0.8632  0.0608
  642MOL0     C88481   3.711   7.264   5.861  0.1086 -0.5390 -0.1283
  642MOL0     O88482   3.677   7.278   5.994 -0.2183  0.8252 -0.0664
  642MOL0     C88483   3.682   7.405   6.050  0.0875  1.0333 -0.6219
  642MOL0     C88484   3.594   7.446   6.144  0.7298 -0.7728  0.4953
  642MOL0     C88485   3.600   7.565   6.213  0.7376 -0.6774  0.5015
  642MOL0     C88486   3.492   7.582   6.318  1.3037 -0.1481 -0.9543
  642MOL0     C88487   3.703   7.660   6.172 -0.1333  0.1181  0.2773
  642MOL0     C88488   3.722   7.782   6.244  0.7255  0.2543  0.5642
  642MOL0     O88489   3.784   7.775   6.365 -0.8694  0.3271  0.1991
  642MOL0     C88490   3.841   7.899   6.412  0.9314  0.4374 -0.3335
  642MOL0     C88491   3.754   7.997   6.470  0.3868 -0.6674 -0.8442
  642MOL0     C88492   3.799   8.112   6.519 -1.0774 -0.3333  0.2891
  642MOL0     C88493   3.934   8.139   6.519 -0.0059 -0.4846 -0.4780
  642MOL0     O88494   3.973   8.259   6.561 -0.5699 -0.2038 -0.3831
  642MOL0     C88495   4.014   8.350   6.459  0.1967 -0.5339 -0.3988
  642MOL0     C88496   3.904   8.453   6.447 -0.7332 -0.1538 -0.4212
  642MOL0     C88497   3.919   8.532   6.315 -0.4174 -0.2806  0.4442
  642MOL0     C88498   3.858   8.444   6.212  0.8248 -0.2648  0.3100
  642MOL0     C88499   3.829   8.520   6.087  0.4206 -0.2005 -0.6216
  642MOL0     C88500   3.766   8.424   5.988  0.0663 -0.1107 -1.7087
  642MOL0     C88501   3.806   8.447   5.838 -0.0359 -0.8666  0.0587
  642MOL0     C88502   3.713   8.382   5.740  0.6212  0.4292  0.9503
  642MOL0    Cl88503   3.801   8.395   5.585 -0.4607 -0.0004  0.2697
  642MOL0     C88504   4.023   8.060   6.447  1.0517 -1.4054  0.1074
  642MOL0     C88505   3.972   7.934   6.397 -0.0124 -0.8547 -0.2475
  642MOL0     O88506   3.687   7.879   6.191 -0.3648  0.2621 -0.4684
  642MOL0     C88507   3.797   7.615   6.074  0.1308  0.4649 -0.5640
  642MOL0     C88508   3.779   7.494   6.008  0.0888 -0.4000 -0.1523
  642MOL0     N88509   3.323   7.062   5.494 -0.0548 -0.1481  0.0325
  642MOL0     N88510   3.210   7.103   5.451  0.9644 -0.4435  0.2090
  642MOL0     C88511   2.501   7.866   5.918 -0.1470 -0.3830 -0.4850
  642MOL0     C88512   2.503   7.992   5.992 -0.0022  0.3473  1.2265
  642MOL0     C88513   2.450   8.326   6.255 -0.2325 -0.3649  0.7812
  642MOL0     C88514   2.455   8.329   6.396  0.3656 -0.6225  0.9654
  642MOL0     C88515   2.458   8.454   6.463  0.1488 -0.0845 -0.7378
  642MOL0     C88516   2.470   8.575   6.401  1.0258  0.0783  0.5769
  642MOL0     O88517   2.476   8.694   6.465  0.0438  0.1863  0.5040
  642MOL0     C88518   2.491   8.816   6.393 -0.0408 -0.6494  0.4312
  642MOL0     C88519   2.647   8.837   6.351  0.1522 -0.8647 -0.2139
  642MOL0     C88520   2.665   8.925   6.222 -0.2008  0.6138  0.5995
  642MOL0     C88521   2.609   9.070   6.243 -0.7641 -0.1148  0.5165
  642MOL0     C88522   2.651   9.136   6.360  0.0432 -0.0946  0.2917
  642MOL0     C88523   2.691   9.190   6.452 -1.1064 -0.1455  0.3881
  642MOL0     C88524   2.485   8.564   6.261  0.0203  0.5159 -0.0835
  642MOL0     C88525   2.470   8.446   6.184 -0.3547  0.1729 -0.7083
  642MOL0     C88526   2.481   8.460   6.032  0.0132  0.8840  0.4910
  642MOL0     H88527   2.201   8.114   5.893  0.2271 -0.1414 -1.7068
  642MOL0     H88528   2.194   7.914   5.768  0.7017 -0.7419 -0.7444
  642MOL0     H88529   2.541   7.611   5.781 -0.2206 -0.1425 -0.0416
  642MOL0     H88530   2.566   7.739   5.674  0.7252 -0.6318  1.8981
  642MOL0     H88531   2.365   7.528   5.609 -0.2321  1.0681  1.9791
  642MOL0     H88532   2.441   7.634   5.499 -0.7112 -0.4022 -0.2252
  642MOL0     H88533   2.626   7.444   5.658 -1.5279 -0.7028  0.2251
  642MOL0     H88534   2.510   7.373   5.545 -1.5362 -0.7407  2.8310
  642MOL0     H88535   2.598   7.475   5.355 -0.9235  2.4997  0.2343
  642MOL0     H88536   2.669   7.600   5.443  0.4037  0.5975  3.2274
  642MOL0     H88537   2.836   7.474   5.547  1.7203  1.9772 -1.6325
  642MOL0     H88538   2.847   7.444   5.371  2.0554 -1.1260  1.3682
  642MOL0     H88539   2.721   7.241   5.564 -1.5756  1.2917 -0.8876
  642MOL0     H88540   2.714   7.229   5.388 -2.0766 -2.0376  2.1562
  642MOL0     H88541   2.948   7.187   5.362  0.0964  1.3197  0.1637
  642MOL0     H88542   2.882   7.074   5.481 -1.6552 -0.0351  1.7897
  642MOL0     H88543   3.032   7.328   5.574  1.9973 -0.2680  0.0084
  642MOL0     H88544   2.976   7.205   5.678  0.1754  1.4052  1.0854
  642MOL0     H88545   3.154   7.111   5.780 -2.1459 -1.3955 -0.5726
  642MOL0     H88546   3.500   6.969   5.681 -0.8689 -2.8124  0.5900
  642MOL0     H88547   3.382   6.968   5.807  1.4480 -1.3644 -0.4781
  642MOL0     H88548   3.475   7.240   5.722  0.1439 -1.5040 -1.0014
  642MOL0     H88549   3.460   7.182   5.885  2.3910  1.5088  1.8282
  642MOL0     H88550   3.682   7.043   5.834  2.8604 -0.1453  0.6793
  642MOL0     H88551   3.690   7.143   5.695 -0.9875 -1.2721 -0.4765
  642MOL0     H88552   3.820   7.252   5.852  0.2918 -1.2586  2.3601
  642MOL0     H88553   3.687   7.352   5.801 -0.5856 -1.2184 -0.8656
  642MOL0     H88554   3.531   7.361   6.170  0.2572 -0.7279 -0.4662
  642MOL0     H88555   3.520   7.516   6.400  0.0294 -0.4736 -0.7659
  642MOL0     H88556   3.392   7.557   6.282  0.4891  2.3416 -0.6050
  642MOL0     H88557   3.494   7.685   6.356  0.6438  0.0082 -1.3157
  642MOL0     H88558   3.647   7.981   6.481  0.6577 -1.2289  1.2504
  642MOL0     H88559   3.741   8.196   6.557 -1.6306 -1.7959  2.8749
  642MOL0     H88560   4.105   8.399   6.493 -0.2615 -0.2449  0.4571
  642MOL0     H88561   4.039   8.289   6.372  1.9869  0.4542 -0.6168
  642MOL0     H88562   3.804   8.411   6.457 -3.0599  4.0024 -3.1310
  642MOL0     H88563   3.917   8.523   6.531  1.0089 -0.1605 -0.6454
  642MOL0     H88564   4.027   8.546   6.302  0.2951 -1.3250  4.0437
  642MOL0     H88565   3.872   8.630   6.321  1.7795  0.8500  0.3550
  642MOL0     H88566   3.763   8.417   6.260  0.7279 -0.5467 -0.0349
  642MOL0     H88567   3.916   8.352   6.199  1.1568 -0.3867  2.2850
  642MOL0     H88568   3.772   8.609   6.114  1.4978  0.1538  0.5665
  642MOL0     H88569   3.926   8.562   6.060  0.4247 -0.6365 -1.3253
  642MOL0     H88570   3.657   8.427   5.998  0.2342 -1.2728  1.7410
  642MOL0     H88571   3.801   8.323   6.011 -0.3616  0.2722  0.9742
  642MOL0     H88572   3.910   8.412   5.828  0.3052 -0.3172  1.4512
  642MOL0     H88573   3.814   8.554   5.818  1.0775 -0.5006  2.1794
  642MOL0     H88574   3.620   8.440   5.734  1.5563  1.8823 -3.1784
  642MOL0     H88575   3.687   8.277   5.758 -1.3264  0.6782 -0.0827
  642MOL0     H88576   4.124   8.098   6.438  0.7475 -0.3343  0.9868
  642MOL0     H88577   4.043   7.876   6.339  0.8413 -0.4690  0.3870
  642MOL0     H88578   3.880   7.680   6.046  1.0680 -0.3472  0.2577
  642MOL0     H88579   3.861   7.473   5.939  0.8233  1.4537  0.0954
  642MOL0     H88580   2.591   7.806   5.927 -0.0764  0.0357  2.6787
  642MOL0     H88581   2.601   8.013   6.036  1.0462  1.1868 -1.3034
  642MOL0     H88582   2.452   8.236   6.453  0.4857 -0.4733  1.2177
  642MOL0     H88583   2.462   8.462   6.571  1.6842  4.4745 -0.8981
  642MOL0     H88584   2.428   8.823   6.304 -0.0451 -1.7655  0.3278
  642MOL0     H88585   2.465   8.901   6.456  0.1919 -0.5540  0.4012
  642MOL0     H88586   2.682   8.734   6.340 -0.6849 -1.2352  0.4923
  642MOL0     H88587   2.706   8.882   6.431 -0.0178 -1.2778  0.1524
  642MOL0     H88588   2.766   8.926   6.180  0.1503 -2.9359  1.0495
  642MOL0     H88589   2.611   8.875   6.141  1.4984 -2.1115  1.0405
  642MOL0     H88590   2.499   9.074   6.241 -0.7503  0.4449 -1.3432
  642MOL0     H88591   2.666   9.119   6.163 -0.3375 -0.4074  0.6386
  642MOL0     H88592   2.721   9.254   6.532 -1.9022  1.3031 -0.4246
  642MOL0     H88593   2.501   8.661   6.214 -1.9625 -0.1796 -2.4409
  642MOL0     H88594   2.548   8.384   5.990 -0.6319  0.3933  0.3356
  642MOL0     H88595   2.386   8.449   5.980  0.4737 -3.0752  0.1868
  642MOL0     H88596   2.526   8.558   6.013 -0.1937  0.8241 -0.3090
  643MOL0     O88597   7.649   3.304   6.663 -1.2307  0.9369 -0.1211
  643MOL0     C88598   7.654   3.395   6.741 -0.4644  0.7958 -1.0160
  643MOL0     O88599   7.587   3.508   6.740 -0.0781 -0.5933 -0.2263
  643MOL0     C88600   7.507   3.528   6.623  0.5758 -1.1724 -0.4090
  643MOL0     C88601   7.543   3.513   6.490 -0.8153 -0.0983  0.6735
  643MOL0     C88602   7.445   3.545   6.385  0.4012  0.1692  0.3251
  643MOL0     C88603   7.315   3.575   6.414  0.2827 -0.0619  0.1069
  643MOL0     O88604   7.211   3.594   6.326  0.0831  1.0674  0.7532
  643MOL0     C88605   7.208   3.550   6.191 -0.1276 -0.3204 -0.1599
  643MOL0     C88606   7.059   3.557   6.139 -0.9626  0.6297  0.7207
  643MOL0     C88607   6.977   3.431   6.168 -0.6483 -0.0677 -0.1217
  643MOL0     C88608   7.049   3.306   6.125  0.0487 -0.7611 -0.0319
  643MOL0     C88609   6.964   3.191   6.089 -0.1651  0.1592 -0.6931
  643MOL0     C88610   7.023   3.102   5.976 -0.9686  0.6382 -0.4254
  643MOL0     C88611   6.933   2.995   5.910 -0.2964 -0.4312 -0.4412
  643MOL0     C88612   7.001   2.920   5.795  0.5443  0.3142  0.3548
  643MOL0     N88613   6.922   2.857   5.689 -0.6941 -0.2975  0.5535
  643MOL0     C88614   6.833   2.754   5.713  0.1367 -1.3282  0.4534
  643MOL0     C88615   6.797   2.717   5.585 -0.2499 -0.0635 -0.8690
  643MOL0     C88616   6.681   2.630   5.561  0.2793  0.2447 -0.2041
  643MOL0     C88617   6.607   2.645   5.421 -0.4303  0.3721  0.1787
  643MOL0     C88618   6.688   2.581   5.301 -0.5115 -0.2126 -0.9172
  643MOL0     C88619   6.603   2.518   5.193 -0.0899  0.9897 -0.4586
  643MOL0     O88620   6.545   2.637   5.136 -0.2260 -0.4577 -0.0967
  643MOL0     C88621   6.432   2.631   5.058  0.1113 -0.3205 -0.0767
  643MOL0     C88622   6.402   2.752   4.988 -0.6247 -0.4381 -0.4641
  643MOL0     C88623   6.287   2.766   4.908 -0.0679 -0.2935 -0.6366
  643MOL0     C88624   6.264   2.909   4.869 -0.5610 -0.4872  0.7428
  643MOL0     C88625   6.197   2.657   4.898  0.2638  0.0138 -0.7874
  643MOL0     C88626   6.074   2.656   4.815 -0.2175 -0.2705  0.2407
  643MOL0     O88627   5.984   2.561   4.841 -0.0188 -0.8606  0.1762
  643MOL0     C88628   5.852   2.580   4.798 -0.9929  0.6238 -0.1353
  643MOL0     C88629   5.778   2.479   4.738 -0.6555 -0.0361 -0.5412
  643MOL0     C88630   5.644   2.489   4.698 -0.0938  0.0622  0.4377
  643MOL0     C88631   5.579   2.610   4.724 -0.3963  1.2841 -0.1351
  643MOL0     O88632   5.447   2.642   4.687 -0.2481  0.3941  0.0326
  643MOL0     C88633   5.341   2.550   4.655  0.2654  1.2148  0.0627
  643MOL0     C88634   5.217   2.581   4.727  0.0466 -0.5131  0.6854
  643MOL0     C88635   5.099   2.476   4.730 -1.1454 -0.1079 -0.4840
  643MOL0     C88636   5.004   2.497   4.850 -0.5935 -0.3699  0.4059
  643MOL0     C88637   4.901   2.397   4.863 -0.4867 -0.2436 -0.9186
  643MOL0     C88638   4.798   2.413   4.754 -0.5489 -0.3825 -0.2533
  643MOL0     C88639   4.667   2.357   4.794 -0.2458  0.4759  0.1623
  643MOL0     C88640   4.555   2.351   4.695 -0.6825  0.1601 -0.4088
  643MOL0    Cl88641   4.507   2.512   4.632 -0.3600 -0.2894  0.2361
  643MOL0     C88642   5.651   2.716   4.786  0.6505  0.2457 -0.3651
  643MOL0     C88643   5.785   2.700   4.828  0.0985 -0.2105 -0.9029
  643MOL0     O88644   6.055   2.736   4.722  0.1352  0.0288 -0.2091
  643MOL0     C88645   6.221   2.536   4.969 -0.3761  0.1695 -0.6741
  643MOL0     C88646   6.332   2.527   5.057 -0.4662 -0.0502 -0.6006
  643MOL0     N88647   6.850   2.802   5.492 -0.1254 -0.5167 -0.3120
  643MOL0     N88648   6.921   2.892   5.555 -0.2895  0.6480  0.7345
  643MOL0     C88649   7.277   3.591   6.540 -0.8736 -1.0316 -0.1107
  643MOL0     C88650   7.368   3.570   6.646  0.2334 -0.2975  0.3908
  643MOL0     C88651   7.767   3.384   6.829 -0.3458 -0.7006  0.2294
  643MOL0     C88652   7.750   3.317   6.951 -0.9113 -0.1471 -0.2793
  643MOL0     C88653   7.857   3.313   7.048  0.2466  0.3909  0.1351
  643MOL0     C88654   7.981   3.379   7.021 -1.4409  0.3419  0.2143
  643MOL0     O88655   8.092   3.375   7.103  0.3439 -0.3564 -0.1088
  643MOL0     C88656   8.156   3.248   7.085  0.4948 -0.1118 -0.2173
  643MOL0     C88657   8.217   3.200   7.217  0.1985  0.1028 -0.5192
  643MOL0     C88658   8.316   3.310   7.245 -0.2169  0.0808  0.2271
  643MOL0     C88659   8.397   3.299   7.371 -0.3930  0.8136 -1.0923
  643MOL0     C88660   8.481   3.184   7.391  0.6267  0.3481 -0.1284
  643MOL0     C88661   8.550   3.080   7.398 -0.3666  0.3292 -0.3716
  643MOL0     C88662   7.990   3.461   6.905  0.4658 -0.4876 -0.2791
  643MOL0     C88663   7.882   3.468   6.820  0.0939 -0.4868  0.1922
  643MOL0     C88664   7.906   3.555   6.699 -0.0364 -0.6552 -0.0890
  643MOL0     H88665   7.645   3.483   6.468 -0.4633  0.1832  1.8462
  643MOL0     H88666   7.470   3.539   6.279 -1.9180 -0.0462 -0.2853
  643MOL0     H88667   7.252   3.451   6.178  1.1671  0.0727  0.9303
  643MOL0     H88668   7.266   3.628   6.140 -0.5142  0.7948  1.0548
  643MOL0     H88669   7.015   3.651   6.172  0.4783  0.7154  2.5383
  643MOL0     H88670   7.074   3.551   6.031  4.7274 -1.3056  1.2852
  643MOL0     H88671   6.966   3.428   6.277 -2.0699  1.7809 -0.1559
  643MOL0     H88672   6.884   3.451   6.115  0.4794 -0.4576 -2.3669
  643MOL0     H88673   7.117   3.330   6.042  0.1852 -1.2981 -0.0790
  643MOL0     H88674   7.118   3.283   6.206  1.4496  2.5477 -0.1228
  643MOL0     H88675   6.872   3.232   6.046  0.1610  1.6814  0.0153
  643MOL0     H88676   6.945   3.140   6.184  0.0251  1.4420  0.0545
  643MOL0     H88677   7.063   3.163   5.896 -1.3557  2.0242  0.4097
  643MOL0     H88678   7.105   3.045   6.020 -0.2022 -0.4662 -3.1179
  643MOL0     H88679   6.846   3.049   5.872  1.1874  3.1409  0.8111
  643MOL0     H88680   6.901   2.925   5.989  2.2901  0.7513  1.8330
  643MOL0     H88681   7.047   2.998   5.734  1.5145  0.4726  1.2600
  643MOL0     H88682   7.078   2.845   5.815  1.4329  0.4148 -2.3627
  643MOL0     H88683   6.787   2.717   5.804  1.3864  0.0447  1.6991
  643MOL0     H88684   6.602   2.654   5.633  1.4934  1.4256  0.8037
  643MOL0     H88685   6.697   2.525   5.586  0.6852  0.3098 -0.1878
  643MOL0     H88686   6.500   2.621   5.422 -1.1778  3.3051  0.8655
  643MOL0     H88687   6.605   2.751   5.395 -1.9105 -0.0589 -1.5930
  643MOL0     H88688   6.750   2.656   5.252 -0.3338 -1.5302 -2.8170
  643MOL0     H88689   6.747   2.497   5.339  0.3806  0.8086  0.0113
  643MOL0     H88690   6.660   2.459   5.121 -1.5223 -2.7160  1.2409
  643MOL0     H88691   6.537   2.447   5.242 -0.5237  1.4709 -0.3384
  643MOL0     H88692   6.474   2.833   4.999  0.3564 -1.0941 -1.7610
  643MOL0     H88693   6.352   2.974   4.873  1.3690 -3.0074  1.5952
  643MOL0     H88694   6.185   2.956   4.928 -2.1205 -2.6763  0.5317
  643MOL0     H88695   6.228   2.907   4.765  1.4701  2.5141 -0.1802
  643MOL0     H88696   5.840   2.395   4.707 -1.2697  0.0769 -2.1827
  643MOL0     H88697   5.584   2.417   4.644  0.8534 -0.5329  0.1529
  643MOL0     H88698   5.335   2.543   4.546  1.6326  1.8062 -0.0680
  643MOL0     H88699   5.369   2.450   4.691 -0.1253  1.5077  1.2387
  643MOL0     H88700   5.258   2.615   4.823  5.3231 -0.2017 -1.3016
  643MOL0     H88701   5.178   2.675   4.688  2.2363 -0.1579 -0.8410
  643MOL0     H88702   5.138   2.376   4.747 -0.3711  0.1591 -0.6209
  643MOL0     H88703   5.047   2.484   4.634 -1.3893  2.6178 -0.2017
  643MOL0     H88704   4.960   2.595   4.829  2.6723  0.5185 -3.9192
  643MOL0     H88705   5.062   2.507   4.942 -1.0699 -2.8026  1.0431
  643MOL0     H88706   4.937   2.294   4.856 -0.4214 -0.2912 -0.0010
  643MOL0     H88707   4.868   2.396   4.967 -2.5443 -0.0333 -1.5168
  643MOL0     H88708   4.843   2.379   4.660  2.4198 -2.4895  1.7780
  643MOL0     H88709   4.772   2.518   4.733  0.4235 -0.5053 -2.3026
  643MOL0     H88710   4.631   2.405   4.885  0.9706  0.8511  0.4707
  643MOL0     H88711   4.681   2.250   4.816  1.2368  0.4040 -0.9474
  643MOL0     H88712   4.476   2.289   4.738  0.8299 -3.7466 -2.7138
  643MOL0     H88713   4.591   2.291   4.612  1.5873  0.2179  0.4504
  643MOL0     H88714   5.584   2.799   4.806 -1.1906 -1.0298 -0.9865
  643MOL0     H88715   5.839   2.779   4.880 -0.6626  0.1180 -0.5836
  643MOL0     H88716   6.146   2.458   4.960 -0.0255 -0.5601  1.9525
  643MOL0     H88717   6.351   2.437   5.115  1.0684 -1.2244 -2.7990
  643MOL0     H88718   7.176   3.623   6.563  0.3736  1.8434  1.8681
  643MOL0     H88719   7.343   3.580   6.751  0.3661  3.0835  0.2242
  643MOL0     H88720   7.657   3.263   6.965 -2.3223  3.0562  5.6368
  643MOL0     H88721   7.844   3.256   7.140  0.6753 -0.7323 -0.4716
  643MOL0     H88722   8.091   3.164   7.059  0.9200 -0.8309  0.9760
  643MOL0     H88723   8.222   3.261   6.999  0.8899  2.8548  0.4392
  643MOL0     H88724   8.272   3.106   7.202  4.0159  2.5262 -3.6499
  643MOL0     H88725   8.141   3.196   7.295 -0.9005  2.2214 -1.4113
  643MOL0     H88726   8.382   3.312   7.157 -0.7690 -0.0432 -0.1966
  643MOL0     H88727   8.259   3.402   7.257 -0.5723 -0.3713  2.4793
  643MOL0     H88728   8.326   3.288   7.453  1.9284  0.0780  0.9399
  643MOL0     H88729   8.461   3.388   7.383 -1.2410  1.3780 -0.6470
  643MOL0     H88730   8.609   2.991   7.407 -1.5024 -0.3837  0.2789
  643MOL0     H88731   8.075   3.528   6.904 -0.3615  0.5744 -0.9885
  643MOL0     H88732   7.816   3.608   6.666  0.9852 -0.4408 -2.8032
  643MOL0     H88733   7.988   3.624   6.716  1.0480 -2.3496  2.0580
  643MOL0     H88734   7.937   3.486   6.620 -0.1397 -0.7905 -0.0116
  644MOL0     O88735   0.020   3.156   7.920  0.3469  0.3132 -0.0929
  644MOL0     C88736  -0.073   3.213   7.972  0.3686 -1.7640  1.0159
  644MOL0     O88737  -0.064   3.283   8.095  0.4103 -0.2789 -0.1974
  644MOL0     C88738   0.054   3.334   8.137  0.8230 -0.2123  0.7871
  644MOL0     C88739   0.128   3.420   8.057 -0.5805  0.0527  0.0855
  644MOL0     C88740   0.248   3.479   8.096  0.1403 -0.4713  0.6587
  644MOL0     C88741   0.297   3.452   8.223  0.3166  0.3099  0.7648
  644MOL0     O88742   0.427   3.490   8.252 -0.3994  0.1365 -0.0330
  644MOL0     C88743   0.518   3.382   8.255  0.8887 -0.9034 -0.0204
  644MOL0     C88744   0.621   3.398   8.360 -0.8244 -0.4625 -0.6703
  644MOL0     C88745   0.722   3.509   8.322 -0.2175 -0.0134 -0.4163
  644MOL0     C88746   0.729   3.603   8.449  0.8074  0.7708 -0.2392
  644MOL0     C88747   0.780   3.526   8.576 -0.1775  0.4066 -0.8527
  644MOL0     C88748   0.788   3.641   8.688  0.7991  0.2483 -0.0442
  644MOL0     C88749   0.811   3.572   8.822 -0.1039 -0.3399 -0.0110
  644MOL0     C88750   0.811   3.679   8.931 -0.3391  0.1994  0.1207
  644MOL0     N88751   0.925   3.767   8.907 -0.0046 -0.8880 -0.3648
  644MOL0     C88752   1.054   3.726   8.879 -1.0457 -0.0315 -0.6343
  644MOL0     C88753   1.123   3.846   8.862 -0.5927 -0.2072  0.6284
  644MOL0     C88754   1.279   3.846   8.856  0.3593 -1.0686 -0.0717
  644MOL0     C88755   1.322   3.808   8.702 -0.0068 -0.0154 -0.3272
  644MOL0     C88756   1.481   3.802   8.696 -0.3621  0.0096 -0.1213
  644MOL0     C88757   1.556   3.936   8.708 -0.1144 -0.9643 -1.0818
  644MOL0     O88758   1.696   3.911   8.699 -0.6437 -0.5090 -0.0361
  644MOL0     C88759   1.780   4.021   8.688 -0.5562  0.2050 -0.5370
  644MOL0     C88760   1.733   4.150   8.707  0.7343  0.0096  0.2561
  644MOL0     C88761   1.818   4.261   8.707 -0.0436 -0.4393  0.2582
  644MOL0     C88762   1.755   4.396   8.733 -0.2806 -0.9409 -0.1367
  644MOL0     C88763   1.962   4.243   8.696  0.4087 -0.1343  0.5490
  644MOL0     C88764   2.065   4.357   8.702 -0.3013  0.5172 -0.5763
  644MOL0     O88765   2.016   4.481   8.745 -0.1728  0.4162 -0.5952
  644MOL0     C88766   2.101   4.589   8.747 -0.2034 -0.6072 -0.5649
  644MOL0     C88767   2.189   4.632   8.644  0.7226 -0.3651  0.3561
  644MOL0     C88768   2.263   4.754   8.662 -0.9648 -0.5676  0.3466
  644MOL0     C88769   2.252   4.828   8.794  0.8558  0.0818  0.1849
  644MOL0     O88770   2.313   4.951   8.810  0.6031 -0.2585 -0.4429
  644MOL0     C88771   2.425   4.988   8.729  0.1779  0.5060  0.1295
  644MOL0     C88772   2.490   5.106   8.787  0.3750  0.1429 -0.2604
  644MOL0     C88773   2.606   5.173   8.718  0.0163  0.5761  0.9740
  644MOL0     C88774   2.583   5.202   8.568 -0.1518 -0.1182 -0.7048
  644MOL0     C88775   2.702   5.284   8.511 -0.5412  0.2482  0.3215
  644MOL0     C88776   2.668   5.335   8.366  0.2996  0.2669  0.9992
  644MOL0     C88777   2.744   5.457   8.301 -0.2700  0.1183  0.0378
  644MOL0     C88778   2.803   5.550   8.402 -0.3707  0.2837 -1.2249
  644MOL0    Cl88779   2.895   5.684   8.327 -0.4216 -0.0765  0.3869
  644MOL0     C88780   2.163   4.773   8.888  0.9426  0.5464  0.2655
  644MOL0     C88781   2.082   4.657   8.864 -0.7350  0.0605 -0.5845
  644MOL0     O88782   2.183   4.325   8.674 -0.3848 -0.2950 -0.1438
  644MOL0     C88783   2.008   4.113   8.679  0.6572  0.8453  0.2714
  644MOL0     C88784   1.917   4.002   8.672  0.5377 -0.0375 -0.3364
  644MOL0     N88785   1.040   3.954   8.886  0.3335  0.3430 -0.0745
  644MOL0     N88786   0.926   3.904   8.911  0.3970  0.5609  0.5300
  644MOL0     C88787   0.220   3.371   8.315 -0.5000  0.8053 -0.3624
  644MOL0     C88788   0.096   3.325   8.272 -0.3363 -0.5054  0.2891
  644MOL0     C88789  -0.209   3.182   7.923  0.2834 -0.0739 -0.4208
  644MOL0     C88790  -0.307   3.222   8.010  0.0817 -0.3655 -1.1139
  644MOL0     C88791  -0.445   3.190   7.994 -0.1068  0.3817  0.8127
  644MOL0     C88792  -0.479   3.116   7.880 -0.2876  0.3107  0.9815
  644MOL0     O88793  -0.599   3.059   7.875 -0.3858  0.0794  1.0295
  644MOL0     C88794  -0.683   3.081   7.761  0.0081  0.1270 -0.2831
  644MOL0     C88795  -0.725   2.948   7.680 -0.8937  0.3258 -0.6926
  644MOL0     C88796  -0.837   2.960   7.588 -1.4271  0.6199  0.0287
  644MOL0     C88797  -0.801   3.034   7.461  0.2353  0.6890 -0.1605
  644MOL0     C88798  -0.919   3.033   7.367  0.9041  0.5447  0.5670
  644MOL0     C88799  -1.020   3.038   7.307  0.2431 -1.0120  0.4288
  644MOL0     C88800  -0.383   3.079   7.789 -0.0945  0.2595  0.0718
  644MOL0     C88801  -0.249   3.125   7.803 -0.3639  0.4434 -1.3063
  644MOL0     C88802  -0.152   3.088   7.694 -0.7614 -0.6088  0.8917
  644MOL0     H88803   0.091   3.451   7.960  0.0905  1.1682  0.1703
  644MOL0     H88804   0.310   3.532   8.023 -3.6880  3.7851 -0.0225
  644MOL0     H88805   0.569   3.368   8.159 -2.2267 -2.4847 -1.6099
  644MOL0     H88806   0.467   3.288   8.276 -1.7166 -0.0006 -1.7801
  644MOL0     H88807   0.569   3.431   8.450  0.1637 -0.2786 -0.1564
  644MOL0     H88808   0.678   3.309   8.386  2.3407  1.9742  1.4198
  644MOL0     H88809   0.817   3.462   8.297 -0.6461 -1.4306  0.5336
  644MOL0     H88810   0.698   3.574   8.237  1.5971 -1.2131 -1.9301
  644MOL0     H88811   0.776   3.700   8.429 -3.0872  3.0216  0.4327
  644MOL0     H88812   0.627   3.636   8.470  1.7820  2.1741  3.0962
  644MOL0     H88813   0.880   3.485   8.563 -0.8913 -1.1881 -1.5538
  644MOL0     H88814   0.714   3.448   8.614 -0.9754  0.5985 -1.8020
  644MOL0     H88815   0.868   3.712   8.662  1.3108 -1.4805 -3.8755
  644MOL0     H88816   0.697   3.702   8.695  0.3054 -0.5943  0.9774
  644MOL0     H88817   0.906   3.518   8.827  0.8757  1.3530  0.4952
  644MOL0     H88818   0.737   3.500   8.858 -0.1531  0.0193  0.6137
  644MOL0     H88819   0.717   3.735   8.930 -0.6568 -0.3374 -0.3673
  644MOL0     H88820   0.813   3.623   9.025 -0.6372  0.5649  0.3465
  644MOL0     H88821   1.097   3.627   8.882 -2.1687 -0.5203  2.3116
  644MOL0     H88822   1.317   3.780   8.934 -0.1505 -3.2747 -1.5957
  644MOL0     H88823   1.304   3.950   8.878 -1.6221 -0.7598  0.8773
  644MOL0     H88824   1.293   3.703   8.698  4.1585 -1.4033  0.9238
  644MOL0     H88825   1.266   3.864   8.626  0.7188 -0.4569 -1.2094
  644MOL0     H88826   1.516   3.733   8.773  2.6546  2.8595  1.2937
  644MOL0     H88827   1.499   3.753   8.600  1.1491 -1.2858  0.7902
  644MOL0     H88828   1.522   4.002   8.627  3.8169  1.3902 -1.0469
  644MOL0     H88829   1.520   3.983   8.800 -1.5265 -3.4734 -0.2555
  644MOL0     H88830   1.632   4.181   8.731  1.9646  4.0653  1.1350
  644MOL0     H88831   1.796   4.447   8.821  1.4922 -1.6506 -0.5219
  644MOL0     H88832   1.649   4.382   8.759 -0.6525  0.5043 -0.7351
  644MOL0     H88833   1.777   4.459   8.646 -0.9460  0.0352  0.3710
  644MOL0     H88834   2.207   4.573   8.555 -0.0592 -1.4658  0.9113
  644MOL0     H88835   2.317   4.802   8.581 -1.6713 -2.0034 -1.0215
  644MOL0     H88836   2.497   4.907   8.739  0.5746  0.9539  0.9892
  644MOL0     H88837   2.402   5.017   8.626 -2.0802  0.9807  0.7022
  644MOL0     H88838   2.412   5.182   8.802 -0.8964 -1.3582  1.2660
  644MOL0     H88839   2.530   5.068   8.882  1.2210 -2.2771 -1.4994
  644MOL0     H88840   2.693   5.106   8.717 -0.7427 -0.4519  1.4243
  644MOL0     H88841   2.635   5.260   8.777  0.4332  0.4394  0.9719
  644MOL0     H88842   2.495   5.264   8.548  1.5851  2.3471 -1.1829
  644MOL0     H88843   2.570   5.112   8.507  0.1369  1.3791 -3.1148
  644MOL0     H88844   2.728   5.368   8.576  0.7854  2.6542 -3.0123
  644MOL0     H88845   2.788   5.218   8.495 -0.3968  0.5548 -0.1997
  644MOL0     H88846   2.560   5.355   8.370  0.0046 -0.1308 -2.1608
  644MOL0     H88847   2.676   5.251   8.296  1.4329  0.0510  1.3688
  644MOL0     H88848   2.678   5.513   8.235  0.5676  2.4133  1.0248
  644MOL0     H88849   2.829   5.420   8.244  2.3686  1.8717  2.5518
  644MOL0     H88850   2.868   5.495   8.471 -2.0019  0.4703  0.5224
  644MOL0     H88851   2.716   5.586   8.457 -2.5508 -0.4418 -4.0181
  644MOL0     H88852   2.143   4.833   8.976 -1.9633  0.8943 -0.5300
  644MOL0     H88853   2.003   4.630   8.933 -2.1360  2.3166 -1.1997
  644MOL0     H88854   2.115   4.100   8.665  0.2338 -4.4949 -0.2269
  644MOL0     H88855   1.958   3.902   8.663  1.7385  0.4650 -0.6965
  644MOL0     H88856   0.265   3.367   8.414 -0.5935 -0.0055 -0.3436
  644MOL0     H88857   0.042   3.261   8.341 -1.0771  0.4401  0.6112
  644MOL0     H88858  -0.308   3.272   8.106 -1.2321 -1.7960 -0.3383
  644MOL0     H88859  -0.517   3.221   8.069  1.9283  4.2155  1.4289
  644MOL0     H88860  -0.774   3.117   7.811 -1.9525 -0.6529 -3.0261
  644MOL0     H88861  -0.642   3.147   7.683  1.9361 -1.0324 -0.3128
  644MOL0     H88862  -0.753   2.869   7.750 -0.5182  2.2626  1.7849
  644MOL0     H88863  -0.635   2.913   7.629  0.4599 -0.5909  2.0864
  644MOL0     H88864  -0.853   2.856   7.556  2.1032  0.5483 -2.0105
  644MOL0     H88865  -0.927   3.010   7.626 -0.6282  1.6518  0.6102
  644MOL0     H88866  -0.721   2.971   7.421 -0.5121 -0.6083  0.2989
  644MOL0     H88867  -0.770   3.138   7.476  0.2046  0.9347 -1.6611
  644MOL0     H88868  -1.110   3.063   7.254 -0.9368 -1.9632  1.9201
  644MOL0     H88869  -0.413   3.005   7.716 -1.0810 -1.4775  2.1261
  644MOL0     H88870  -0.094   3.176   7.666  1.2232 -0.9640  3.4366
  644MOL0     H88871  -0.082   3.010   7.726  1.2578  1.3514  1.5443
  644MOL0     H88872  -0.192   3.062   7.596  0.8397 -2.8699  0.7519
  645MOL0     O88873   6.982   0.143  10.577 -0.5578  1.0185 -0.1614
  645MOL0     C88874   6.974   0.064  10.666  0.0052  0.2114 -0.8454
  645MOL0     O88875   6.863   0.026  10.722  0.0545  0.0525 -0.4342
  645MOL0     C88876   6.738   0.073  10.674  0.7949 -0.5636 -0.1860
  645MOL0     C88877   6.697   0.082  10.542  0.8755 -1.1798 -0.1448
  645MOL0     C88878   6.570   0.130  10.497  0.2322  0.2897 -1.6414
  645MOL0     C88879   6.478   0.172  10.593 -0.5941  0.6557 -0.5074
  645MOL0     O88880   6.353   0.201  10.555  0.0719 -0.7590 -0.0742
  645MOL0     C88881   6.251   0.173  10.660 -1.0358  0.1532  0.2129
  645MOL0     C88882   6.121   0.200  10.593 -0.1905  0.7675 -0.3317
  645MOL0     C88883   6.010   0.161  10.687  0.2705  0.2468 -0.2639
  645MOL0     C88884   6.001   0.007  10.709 -0.2227  1.1459  0.3409
  645MOL0     C88885   5.871  -0.024  10.785  0.7041  0.4264  0.5579
  645MOL0     C88886   5.861  -0.173  10.803 -0.1512 -0.5775 -0.3718
  645MOL0     C88887   5.765  -0.241  10.707  0.3798 -1.1398 -0.5732
  645MOL0     C88888   5.768  -0.389  10.711 -1.0912 -0.0395 -0.3036
  645MOL0     N88889   5.718  -0.448  10.846 -0.4390 -0.4257 -0.8040
  645MOL0     C88890   5.631  -0.379  10.933  0.5922  0.0939  0.0193
  645MOL0     C88891   5.644  -0.435  11.051 -0.2711  0.5845  0.2355
  645MOL0     C88892   5.577  -0.389  11.186  0.0175 -0.0131 -0.2146
  645MOL0     C88893   5.491  -0.509  11.244 -0.3732  0.4912 -0.1893
  645MOL0     C88894   5.581  -0.594  11.335 -0.0833 -0.0026  0.5963
  645MOL0     C88895   5.491  -0.701  11.403 -0.8666 -0.0591 -0.1383
  645MOL0     O88896   5.401  -0.684  11.518 -0.8930  0.8278 -0.3772
  645MOL0     C88897   5.459  -0.637  11.631  0.7315 -0.3125  0.2151
  645MOL0     C88898   5.588  -0.649  11.669 -0.3642 -0.1762  0.4329
  645MOL0     C88899   5.638  -0.588  11.784  0.3001 -0.5721  0.1265
  645MOL0     C88900   5.786  -0.590  11.811 -0.1942  0.6522  1.1862
  645MOL0     C88901   5.551  -0.503  11.859  0.3670 -1.3699  0.7741
  645MOL0     C88902   5.589  -0.425  11.981  0.5417 -0.1838  0.1904
  645MOL0     O88903   5.659  -0.477  12.089  0.9474  0.0461 -0.1373
  645MOL0     C88904   5.687  -0.392  12.200  0.5025 -0.3960 -0.7677
  645MOL0     C88905   5.793  -0.429  12.277  0.0035 -0.7382 -1.4860
  645MOL0     C88906   5.830  -0.374  12.404 -0.0041 -0.6137  0.9423
  645MOL0     C88907   5.737  -0.291  12.455  0.2655  0.2504 -0.2633
  645MOL0     O88908   5.760  -0.262  12.584  0.2648  0.4064  0.1869
  645MOL0     C88909   5.723  -0.135  12.619 -0.4794 -0.1067 -0.0511
  645MOL0     C88910   5.794  -0.097  12.748  0.3656 -0.6058 -0.4081
  645MOL0     C88911   5.741  -0.184  12.863 -0.5810  0.6083 -0.2357
  645MOL0     C88912   5.842  -0.207  12.977 -0.2386  0.1041  1.1119
  645MOL0     C88913   5.773  -0.289  13.076  0.0379  0.0134 -0.7685
  645MOL0     C88914   5.835  -0.277  13.206  0.7916  0.4884  0.5907
  645MOL0     C88915   5.761  -0.321  13.331 -0.9709 -0.2761 -0.2008
  645MOL0     C88916   5.863  -0.342  13.439  1.0981 -0.8704  0.1344
  645MOL0    Cl88917   5.963  -0.196  13.463  0.2102  0.0220 -0.1160
  645MOL0     C88918   5.619  -0.251  12.386 -0.3191  0.9065  1.0597
  645MOL0     C88919   5.598  -0.305  12.257  0.2868 -0.1915 -0.3415
  645MOL0     O88920   5.569  -0.302  11.962 -0.5080 -0.3241  0.6737
  645MOL0     C88921   5.419  -0.505  11.825 -0.4126 -0.3236  0.5545
  645MOL0     C88922   5.367  -0.569  11.712 -0.1772  0.0546  0.3703
  645MOL0     N88923   5.748  -0.527  11.043 -0.4951 -0.4774  1.2499
  645MOL0     N88924   5.793  -0.531  10.920  0.1857  0.7301  0.5683
  645MOL0     C88925   6.510   0.151  10.729 -0.5761  0.3266  1.3314
  645MOL0     C88926   6.636   0.108  10.765  0.5064 -0.0766 -0.3158
  645MOL0     C88927   7.089  -0.012  10.720 -0.2594 -0.5410  0.3065
  645MOL0     C88928   7.068  -0.118  10.808  0.8115 -0.2007 -0.4336
  645MOL0     C88929   7.168  -0.190  10.875  0.9361  0.5054 -0.0496
  645MOL0     C88930   7.300  -0.145  10.860 -0.0937  0.0855  0.5014
  645MOL0     O88931   7.397  -0.218  10.921 -0.3082 -0.3050 -0.0915
  645MOL0     C88932   7.519  -0.139  10.962 -0.6322 -0.3936  0.7236
  645MOL0     C88933   7.643  -0.167  10.876  0.1879 -0.7855 -0.8984
  645MOL0     C88934   7.680  -0.302  10.880 -0.3527  0.1981 -0.6999
  645MOL0     C88935   7.821  -0.329  10.838  0.1273 -0.2087 -0.7825
  645MOL0     C88936   7.840  -0.475  10.859 -0.3736 -0.0158 -1.1156
  645MOL0     C88937   7.851  -0.594  10.875  0.1299  0.6792 -0.2657
  645MOL0     C88938   7.330  -0.038  10.769  0.6311  0.9799  0.9288
  645MOL0     C88939   7.226   0.028  10.692 -0.3069 -0.0285 -0.3719
  645MOL0     C88940   7.270   0.138  10.598  0.4416  0.0251  0.9184
  645MOL0     H88941   6.777   0.069  10.470 -0.0896  0.3490 -1.5545
  645MOL0     H88942   6.540   0.154  10.396 -2.6045  2.0790 -0.5076
  645MOL0     H88943   6.259   0.241  10.745  0.3564  0.7415 -0.3615
  645MOL0     H88944   6.265   0.069  10.692  0.1287  0.8163  2.0010
  645MOL0     H88945   6.128   0.309  10.584  2.4284  0.9071  1.9972
  645MOL0     H88946   6.104   0.137  10.505 -3.9014  1.1259 -0.0388
  645MOL0     H88947   6.029   0.210  10.783  5.0171 -0.0834 -0.7532
  645MOL0     H88948   5.914   0.190  10.644 -0.5245 -2.6956 -0.6922
  645MOL0     H88949   6.001  -0.049  10.615 -1.2094  2.4224 -0.4476
  645MOL0     H88950   6.088  -0.017  10.771  1.7154  2.0309 -1.8875
  645MOL0     H88951   5.789   0.013  10.723  0.9964 -2.7743 -2.0116
  645MOL0     H88952   5.869   0.031  10.879  1.0787 -2.0399  2.1147
  645MOL0     H88953   5.961  -0.218  10.800  2.0325  3.5282 -4.8184
  645MOL0     H88954   5.828  -0.176  10.907  3.4550  2.3054  1.1070
  645MOL0     H88955   5.777  -0.202  10.606 -2.5857 -1.7114 -1.2283
  645MOL0     H88956   5.667  -0.200  10.734  2.8218  4.4762  1.5046
  645MOL0     H88957   5.693  -0.421  10.638 -0.1701 -0.2490 -1.1753
  645MOL0     H88958   5.863  -0.433  10.681  0.3188  3.5423 -1.4901
  645MOL0     H88959   5.574  -0.288  10.911  0.2962 -0.6787 -2.7421
  645MOL0     H88960   5.510  -0.303  11.174  3.4638  2.7118 -1.5164
  645MOL0     H88961   5.651  -0.364  11.263  1.5453 -1.9409 -0.9871
  645MOL0     H88962   5.411  -0.465  11.304 -0.9262 -0.6224 -0.0924
  645MOL0     H88963   5.454  -0.572  11.162  1.9773 -3.2580  1.3647
  645MOL0     H88964   5.670  -0.635  11.288 -1.2382  1.2407 -2.9578
  645MOL0     H88965   5.624  -0.544  11.423 -0.0078 -1.8733  1.6816
  645MOL0     H88966   5.437  -0.749  11.321  1.4762  0.7551 -2.2615
  645MOL0     H88967   5.563  -0.779  11.428 -2.6694 -1.1381  2.0388
  645MOL0     H88968   5.657  -0.713  11.615  0.5078  3.1726 -2.8698
  645MOL0     H88969   5.852  -0.611  11.726 -2.0042  1.8783 -0.5958
  645MOL0     H88970   5.810  -0.661  11.891  0.9259  0.9863  1.1690
  645MOL0     H88971   5.818  -0.490  11.841 -1.7273  1.3981  0.4310
  645MOL0     H88972   5.848  -0.517  12.244  1.2575  0.1964 -1.9884
  645MOL0     H88973   5.907  -0.414  12.469 -0.4103 -0.7170  1.3665
  645MOL0     H88974   5.728  -0.056  12.543 -3.3361  2.6331  2.3295
  645MOL0     H88975   5.616  -0.132  12.641 -0.5829  1.5152 -0.6320
  645MOL0     H88976   5.902  -0.106  12.728  0.5432  0.8230 -0.1395
  645MOL0     H88977   5.781   0.008  12.775 -0.6049 -0.5719 -0.9844
  645MOL0     H88978   5.713  -0.287  12.840  0.3533  0.2233  0.2947
  645MOL0     H88979   5.650  -0.132  12.895  0.1825  1.2591  0.9768
  645MOL0     H88980   5.871  -0.110  13.020 -1.5809 -0.6421  3.9690
  645MOL0     H88981   5.928  -0.257  12.932  0.5869  0.4937  2.2065
  645MOL0     H88982   5.671  -0.251  13.089  0.3681  0.3725  1.0487
  645MOL0     H88983   5.749  -0.390  13.041  1.3470 -0.5463 -0.1299
  645MOL0     H88984   5.857  -0.170  13.220  3.9819 -0.1781  1.5065
  645MOL0     H88985   5.934  -0.321  13.193  0.0538 -1.0956  0.1865
  645MOL0     H88986   5.704  -0.411  13.304  1.7510 -2.1096 -0.2864
  645MOL0     H88987   5.704  -0.234  13.365 -1.5543 -1.5878  2.4116
  645MOL0     H88988   5.916  -0.435  13.415 -0.4410 -1.3931 -1.4762
  645MOL0     H88989   5.802  -0.354  13.529 -2.1494  0.0423 -1.7808
  645MOL0     H88990   5.535  -0.197  12.428 -3.3106 -0.9766 -1.9722
  645MOL0     H88991   5.510  -0.282  12.198  0.6041  1.1149 -0.3548
  645MOL0     H88992   5.329  -0.461  11.866 -1.6251 -2.0130 -0.1344
  645MOL0     H88993   5.261  -0.556  11.691 -0.2002 -2.4982 -1.4463
  645MOL0     H88994   6.438   0.156  10.809 -1.0160 -2.9095  1.2570
  645MOL0     H88995   6.653   0.079  10.868  0.4729  0.5842 -0.1189
  645MOL0     H88996   6.971  -0.164  10.823  0.6166  0.1670 -0.5401
  645MOL0     H88997   7.138  -0.270  10.942  2.0063  0.3511  0.2734
  645MOL0     H88998   7.514  -0.031  10.949 -1.3705 -0.5200 -0.1123
  645MOL0     H88999   7.539  -0.169  11.066  2.8927 -2.6575 -0.4039
  645MOL0     H89000   7.728  -0.120  10.928 -2.5406  0.7531  2.5202
  645MOL0     H89001   7.633  -0.140  10.770 -1.0161 -0.1072 -0.6273
  645MOL0     H89002   7.674  -0.339  10.983 -1.9466 -1.2016 -1.2412
  645MOL0     H89003   7.622  -0.366  10.812  1.8916 -2.3099 -0.3918
  645MOL0     H89004   7.900  -0.289  10.902 -2.0820 -2.4046  3.7419
  645MOL0     H89005   7.836  -0.306  10.732  0.3928  1.4844 -0.4050
  645MOL0     H89006   7.862  -0.699  10.891 -0.7854  0.4701 -0.9046
  645MOL0     H89007   7.433  -0.007  10.753  1.0941 -0.8341  0.1996
  645MOL0     H89008   7.271   0.095  10.498  0.0213  0.9877  0.4947
  645MOL0     H89009   7.203   0.222  10.619 -0.7925 -0.9488  1.0596
  645MOL0     H89010   7.373   0.171  10.613 -0.5188  2.9589  1.5866
  646MOL0     O89011   7.735   8.915   8.629 -0.0398  0.9530  0.0524
  646MOL0     C89012   7.844   8.874   8.588 -0.1681 -0.0536 -0.4581
  646MOL0     O89013   7.929   8.954   8.512  0.2449 -0.0455 -0.1378
  646MOL0     C89014   7.894   9.081   8.496 -0.1429  0.4794  0.5795
  646MOL0     C89015   7.922   9.169   8.603 -0.1507 -0.4846  1.3343
  646MOL0     C89016   7.876   9.304   8.589 -1.7113  0.5127 -0.4590
  646MOL0     C89017   7.827   9.356   8.474 -0.7418 -0.6219  0.2079
  646MOL0     O89018   7.802   9.489   8.471 -0.2106  0.4887  0.6209
  646MOL0     C89019   7.851   9.585   8.564 -0.2553  0.1585 -1.1438
  646MOL0     C89020   7.844   9.739   8.504  0.4411  0.1150 -0.4704
  646MOL0     C89021   7.707   9.753   8.429  0.6803  0.3375 -0.0745
  646MOL0     C89022   7.667   9.892   8.386 -0.3480 -0.5590  1.0462
  646MOL0     C89023   7.513   9.884   8.349 -0.2092  1.3009  0.2853
  646MOL0     C89024   7.468  10.028   8.301  0.0262  0.7664 -0.0595
  646MOL0     C89025   7.500  10.121   8.417 -0.5589  0.6562  0.9804
  646MOL0     C89026   7.423  10.248   8.398  0.4005 -0.7411  0.4398
  646MOL0     N89027   7.456  10.323   8.279  1.3661 -0.5519 -0.0156
  646MOL0     C89028   7.356  10.389   8.209  0.0561 -0.5073  0.3039
  646MOL0     C89029   7.410  10.513   8.184  0.6524  0.5214  0.7281
  646MOL0     C89030   7.338  10.635   8.134 -0.2382 -0.4134  0.1816
  646MOL0     C89031   7.188  10.669   8.177 -0.4348  0.1285 -0.1618
  646MOL0     C89032   7.188  10.670   8.331  0.3272 -0.0046 -0.1317
  646MOL0     C89033   7.261  10.789   8.399 -0.6258  0.2192 -0.7962
  646MOL0     O89034   7.255  10.787   8.543 -0.3406 -0.7260 -0.8785
  646MOL0     C89035   7.369  10.740   8.604 -0.8631  0.4966  0.3633
  646MOL0     C89036   7.427  10.805   8.715 -0.4986 -0.2782 -0.1444
  646MOL0     C89037   7.538  10.749   8.784 -0.6141  0.3937 -0.4011
  646MOL0     C89038   7.598  10.830   8.900 -0.3906 -0.0336  0.4002
  646MOL0     C89039   7.577  10.613   8.754 -0.5550 -1.4654  0.5208
  646MOL0     C89040   7.686  10.531   8.825 -0.1686 -0.5971  0.6908
  646MOL0     O89041   7.794  10.494   8.759  0.1041 -0.0383 -0.1759
  646MOL0     C89042   7.820  10.535   8.632 -0.1665 -1.1334 -0.4648
  646MOL0     C89043   7.864  10.665   8.614 -0.2119 -0.1513  0.4895
  646MOL0     C89044   7.909  10.719   8.490  0.5284 -0.1210 -0.3108
  646MOL0     C89045   7.912  10.641   8.377 -0.0320 -0.1379 -0.0246
  646MOL0     O89046   7.961  10.684   8.258 -0.8516 -0.4543  0.0157
  646MOL0     C89047   7.901  10.643   8.129  0.4459  0.1073  0.6287
  646MOL0     C89048   7.827  10.774   8.077  0.4908  0.4532  0.4946
  646MOL0     C89049   7.712  10.754   7.972  0.7654  0.2396  0.2411
  646MOL0     C89050   7.645  10.878   7.928 -0.4904 -0.2772 -0.3464
  646MOL0     C89051   7.517  10.853   7.845 -0.7102  0.5723 -0.2586
  646MOL0     C89052   7.544  10.761   7.727 -0.8122  0.4501 -0.2567
  646MOL0     C89053   7.630  10.814   7.616  0.2383  0.4845 -1.1619
  646MOL0     C89054   7.659  10.692   7.523  0.7054 -1.7063 -0.4873
  646MOL0    Cl89055   7.780  10.592   7.583  0.1265 -0.0664  0.5566
  646MOL0     C89056   7.877  10.503   8.400  0.1072  0.6300  0.0588
  646MOL0     C89057   7.832  10.451   8.520  0.7533 -0.6789  0.0550
  646MOL0     O89058   7.675  10.526   8.947  0.5725  0.5321  0.1210
  646MOL0     C89059   7.522  10.547   8.645  0.7868  0.6391 -0.0366
  646MOL0     C89060   7.418  10.604   8.579 -0.7978 -0.4245 -0.2196
  646MOL0     N89061   7.541  10.506   8.226 -0.4959 -0.1171  0.8389
  646MOL0     N89062   7.572  10.399   8.280 -0.2194 -0.0946 -0.4089
  646MOL0     C89063   7.797   9.266   8.361  0.3774 -0.3850  0.4020
  646MOL0     C89064   7.839   9.129   8.371  0.2734 -0.5124  0.3244
  646MOL0     C89065   7.884   8.727   8.631  0.4241 -0.2879  0.2030
  646MOL0     C89066   8.008   8.685   8.597 -0.1516  0.1571 -0.4919
  646MOL0     C89067   8.055   8.548   8.624 -0.0641  0.1520 -0.7442
  646MOL0     C89068   7.978   8.460   8.697 -0.5698  0.9927 -0.1302
  646MOL0     O89069   8.041   8.336   8.706 -0.4919 -0.5151 -0.3793
  646MOL0     C89070   7.949   8.220   8.728  0.2879 -0.1356 -0.0728
  646MOL0     C89071   8.015   8.105   8.645  0.1192  0.7449 -0.6596
  646MOL0     C89072   7.923   7.981   8.653 -0.6059 -0.7514 -0.2809
  646MOL0     C89073   7.957   7.864   8.744 -0.0528 -0.4802 -0.4641
  646MOL0     C89074   8.013   7.922   8.865  0.1345  0.3168 -0.0523
  646MOL0     C89075   8.077   7.969   8.960 -0.1080  1.0988  0.0419
  646MOL0     C89076   7.860   8.508   8.738 -0.1166  0.4617 -0.9021
  646MOL0     C89077   7.809   8.639   8.708 -0.5222  0.1699 -0.1052
  646MOL0     C89078   7.679   8.662   8.781 -0.3256  0.3157  0.1756
  646MOL0     H89079   7.970   9.133   8.693  1.9067 -0.4181  0.3175
  646MOL0     H89080   7.907   9.354   8.681 -0.7165  2.2730 -1.6831
  646MOL0     H89081   7.957   9.567   8.588 -0.4035 -0.7005 -1.0826
  646MOL0     H89082   7.785   9.569   8.650 -2.2970 -1.1011 -2.8400
  646MOL0     H89083   7.846   9.813   8.584 -3.2835  0.3890 -0.4446
  646MOL0     H89084   7.928   9.752   8.436  0.9713 -0.8466 -0.0302
  646MOL0     H89085   7.714   9.687   8.342  2.9603 -0.4893  0.6754
  646MOL0     H89086   7.627   9.716   8.494  1.3574  0.5527  0.9072
  646MOL0     H89087   7.692   9.956   8.471  0.2505  1.8874 -0.8676
  646MOL0     H89088   7.724   9.921   8.297  0.6087 -0.2366  1.7443
  646MOL0     H89089   7.456   9.853   8.437  2.0983 -3.5174  0.4512
  646MOL0     H89090   7.515   9.803   8.275  2.6727  1.5641 -0.0575
  646MOL0     H89091   7.527  10.059   8.215  1.0695  1.7592  0.9880
  646MOL0     H89092   7.360  10.022   8.281  0.0439 -1.1531  0.1569
  646MOL0     H89093   7.608  10.138   8.426 -0.0245 -3.1569  4.9184
  646MOL0     H89094   7.455  10.067   8.500 -0.3249 -2.3393 -0.6834
  646MOL0     H89095   7.318  10.219   8.405  0.4597 -1.0221  0.2197
  646MOL0     H89096   7.430  10.314   8.484 -1.5295  1.8986 -1.2794
  646MOL0     H89097   7.257  10.368   8.171  0.0812  1.7582 -1.2081
  646MOL0     H89098   7.327  10.625   8.025 -2.1211  1.4042  0.1492
  646MOL0     H89099   7.402  10.722   8.152 -0.3927 -0.1277 -0.6152
  646MOL0     H89100   7.166  10.765   8.128 -3.8835 -0.7648 -0.6404
  646MOL0     H89101   7.121  10.590   8.141 -1.3006  0.1943  1.2241
  646MOL0     H89102   7.083  10.679   8.362  0.2831 -0.6685 -0.0902
  646MOL0     H89103   7.219  10.576   8.376 -0.1482  0.4847  1.2698
  646MOL0     H89104   7.365  10.788   8.365 -0.0245 -1.8819  0.8770
  646MOL0     H89105   7.213  10.883   8.370 -0.4676 -0.8075 -5.1405
  646MOL0     H89106   7.375  10.895   8.746 -1.5624 -0.9046 -0.0494
  646MOL0     H89107   7.531  10.915   8.919  0.5321  0.6620  0.6443
  646MOL0     H89108   7.693  10.879   8.877  0.1789 -0.4044  1.8256
  646MOL0     H89109   7.609  10.763   8.986  0.0160 -0.9868 -0.3768
  646MOL0     H89110   7.867  10.725   8.705 -1.1164  0.5853  0.0619
  646MOL0     H89111   7.939  10.823   8.478  0.7139 -0.2681 -1.1923
  646MOL0     H89112   7.979  10.610   8.060  0.6636 -2.6057  2.0473
  646MOL0     H89113   7.819  10.573   8.146  0.1378  0.0567 -0.9579
  646MOL0     H89114   7.790  10.831   8.163 -0.4548  1.9434 -0.8720
  646MOL0     H89115   7.915  10.820   8.033  2.3387 -3.4324 -0.3241
  646MOL0     H89116   7.640  10.683   8.015 -1.3716  1.7566 -0.6567
  646MOL0     H89117   7.747  10.703   7.882  2.5467 -2.2417  2.2007
  646MOL0     H89118   7.718  10.925   7.862  1.8959 -1.1451  1.5173
  646MOL0     H89119   7.623  10.949   8.008  1.7462  0.1676 -0.0574
  646MOL0     H89120   7.441  10.806   7.907  0.8980  0.8649  2.0624
  646MOL0     H89121   7.479  10.947   7.803  0.5376  0.3360 -2.0358
  646MOL0     H89122   7.451  10.731   7.679 -0.6508  0.6504 -0.7003
  646MOL0     H89123   7.585  10.665   7.761 -0.8148  0.2504 -0.8070
  646MOL0     H89124   7.729  10.849   7.648  1.5068 -3.0187 -0.8522
  646MOL0     H89125   7.579  10.892   7.559 -5.4081  0.1710  2.7128
  646MOL0     H89126   7.695  10.739   7.431 -0.8615 -0.5510 -0.5512
  646MOL0     H89127   7.564  10.648   7.490  0.2154 -0.5074 -0.7101
  646MOL0     H89128   7.883  10.426   8.324 -0.3236 -1.2020  1.7744
  646MOL0     H89129   7.802  10.348   8.538  0.4916 -0.7721 -0.8419
  646MOL0     H89130   7.548  10.445   8.622 -2.3178 -0.0536 -0.9677
  646MOL0     H89131   7.356  10.550   8.508  0.6102 -3.0912  0.4839
  646MOL0     H89132   7.756   9.314   8.273  0.0657 -0.5870  0.4351
  646MOL0     H89133   7.827   9.070   8.280 -2.5596  0.9995 -0.3743
  646MOL0     H89134   8.073   8.748   8.535 -0.0409 -0.1827 -0.7250
  646MOL0     H89135   8.137   8.503   8.570  2.2565  4.3262 -1.1329
  646MOL0     H89136   7.936   8.197   8.834 -4.1545 -0.9663 -0.6006
  646MOL0     H89137   7.849   8.243   8.691  0.1349  0.3271  0.6152
  646MOL0     H89138   8.117   8.088   8.680  0.8686  2.4793 -1.8547
  646MOL0     H89139   8.030   8.123   8.538  3.3446  0.9252 -0.2599
  646MOL0     H89140   7.823   8.020   8.677 -1.0660 -0.5925 -2.2860
  646MOL0     H89141   7.911   7.935   8.555  0.9304 -0.2237 -0.7309
  646MOL0     H89142   8.039   7.807   8.700  1.7810  0.7881  1.1333
  646MOL0     H89143   7.868   7.803   8.760  0.3335 -0.3062  3.0367
  646MOL0     H89144   8.148   8.006   9.031 -0.4163 -0.3044  1.1247
  646MOL0     H89145   7.799   8.433   8.789 -0.0281  0.0042 -1.4619
  646MOL0     H89146   7.601   8.684   8.708 -0.4070  2.2828  0.7744
  646MOL0     H89147   7.654   8.579   8.848  0.3160 -1.5944 -1.8440
  646MOL0     H89148   7.701   8.749   8.845  0.2383  0.0354  0.3727
  647MOL0     O89149   0.934   1.053   7.479 -0.0228 -0.0435  0.0688
  647MOL0     C89150   0.922   1.014   7.363  0.1339  0.9286  0.3775
  647MOL0     O89151   0.938   0.886   7.317 -0.5938  0.4961  0.6328
  647MOL0     C89152   0.958   0.784   7.405 -0.3155  0.6766  0.8168
  647MOL0     C89153   0.885   0.672   7.376 -0.1993  0.2218  0.3721
  647MOL0     C89154   0.930   0.559   7.448 -0.1238  0.3330  0.4322
  647MOL0     C89155   1.030   0.548   7.538 -0.4028 -0.4312 -0.7311
  647MOL0     O89156   1.040   0.429   7.606 -0.5259 -0.2328 -0.5095
  647MOL0     C89157   1.141   0.428   7.706  0.4002 -0.5382  0.1761
  647MOL0     C89158   1.153   0.284   7.765 -0.1007 -0.8819  0.1707
  647MOL0     C89159   1.190   0.189   7.658 -0.0410  0.6920 -0.0373
  647MOL0     C89160   1.137   0.054   7.712  0.8048  0.9221  0.8708
  647MOL0     C89161   1.174  -0.059   7.610 -0.3983  0.6696  0.0560
  647MOL0     C89162   1.119  -0.192   7.649  0.3223 -0.0728  0.9098
  647MOL0     C89163   1.178  -0.305   7.566  0.3272 -0.3035 -0.4865
  647MOL0     C89164   1.100  -0.435   7.584 -0.2660 -1.3420 -0.6137
  647MOL0     N89165   1.125  -0.519   7.475 -0.8832 -0.1023  0.9436
  647MOL0     C89166   1.243  -0.585   7.446  0.6292 -1.5001  0.4835
  647MOL0     C89167   1.252  -0.609   7.317  0.9085  0.1847 -0.3795
  647MOL0     C89168   1.357  -0.674   7.231 -0.4094 -0.8779 -0.3190
  647MOL0     C89169   1.415  -0.809   7.300  0.2959 -0.0687 -0.6540
  647MOL0     C89170   1.393  -0.913   7.198 -0.1322  0.0605 -0.2844
  647MOL0     C89171   1.249  -0.964   7.192  0.0210 -0.6495  0.2794
  647MOL0     O89172   1.200  -1.039   7.308 -0.3000 -0.3209  0.2552
  647MOL0     C89173   1.104  -0.976   7.377 -0.2150 -0.2062 -0.9340
  647MOL0     C89174   1.130  -0.936   7.519  0.2676  0.1244 -0.3205
  647MOL0     C89175   1.048  -0.846   7.589 -0.4245  0.1143  0.4818
  647MOL0     C89176   1.088  -0.807   7.734  0.5825  0.8683 -0.2864
  647MOL0     C89177   0.917  -0.814   7.538  0.3533 -0.3224 -0.8501
  647MOL0     C89178   0.809  -0.734   7.616 -1.1612  1.4682 -0.4830
  647MOL0     O89179   0.685  -0.729   7.558 -0.0117 -0.6697  0.4824
  647MOL0     C89180   0.592  -0.667   7.637 -0.7679 -0.2625  0.9423
  647MOL0     C89181   0.503  -0.748   7.710  0.4023  0.4077 -0.0052
  647MOL0     C89182   0.415  -0.690   7.797  0.8324  0.0819  0.2333
  647MOL0     C89183   0.405  -0.550   7.803  0.7544 -0.4261 -0.6431
  647MOL0     O89184   0.329  -0.477   7.896  0.3832  0.4542 -0.3270
  647MOL0     C89185   0.379  -0.349   7.944 -0.1818 -0.7730  0.0277
  647MOL0     C89186   0.288  -0.308   8.061 -0.9809  0.1112 -0.2273
  647MOL0     C89187   0.340  -0.172   8.108  0.1397  0.0827  0.9498
  647MOL0     C89188   0.276  -0.129   8.234  0.1080  0.4808 -0.0309
  647MOL0     C89189   0.325   0.011   8.284  0.6279 -0.1781 -0.4051
  647MOL0     C89190   0.227   0.130   8.259  1.1429 -1.1681 -0.4829
  647MOL0     C89191   0.268   0.278   8.311  0.1368 -0.5009  1.6087
  647MOL0     C89192   0.157   0.371   8.355 -0.0593  1.0924 -0.5375
  647MOL0    Cl89193   0.225   0.518   8.432  0.3733 -0.2590  0.4073
  647MOL0     C89194   0.477  -0.474   7.703 -0.7665 -0.6623  0.3752
  647MOL0     C89195   0.580  -0.531   7.623 -1.0147 -0.0093 -0.8311
  647MOL0     O89196   0.840  -0.675   7.723 -0.0525 -0.2470 -0.0158
  647MOL0     C89197   0.898  -0.851   7.407  0.3945  0.6118 -0.2539
  647MOL0     C89198   0.983  -0.934   7.321 -0.1290 -0.3986  0.3697
  647MOL0     N89199   1.120  -0.575   7.281  0.2109  0.1212  0.5707
  647MOL0     N89200   1.046  -0.519   7.367  0.3901 -0.1394  0.1280
  647MOL0     C89201   1.097   0.669   7.569 -0.0609  0.1711  0.1615
  647MOL0     C89202   1.066   0.779   7.494 -0.2475 -0.6173  0.2345
  647MOL0     C89203   0.894   1.122   7.257  0.0321 -0.1472  0.3030
  647MOL0     C89204   0.902   1.257   7.300 -0.0702  0.3907  0.2080
  647MOL0     C89205   0.883   1.352   7.215  0.5755  0.0080 -0.1043
  647MOL0     C89206   0.832   1.332   7.084 -0.2938 -0.1346  0.0820
  647MOL0     O89207   0.830   1.435   6.992 -0.4832 -0.2943 -0.1389
  647MOL0     C89208   0.721   1.525   7.028 -0.9378 -0.5629 -0.3462
  647MOL0     C89209   0.735   1.661   6.956  0.4347 -1.0758  0.6287
  647MOL0     C89210   0.764   1.647   6.798  0.0653 -0.3184  0.0668
  647MOL0     C89211   0.793   1.791   6.743  1.1246  0.2303  0.9228
  647MOL0     C89212   0.909   1.840   6.795 -1.2250 -0.6276  0.5618
  647MOL0     C89213   1.001   1.890   6.856 -0.0551 -1.0051 -0.9334
  647MOL0     C89214   0.815   1.206   7.044  0.0099  0.6499  0.5470
  647MOL0     C89215   0.854   1.100   7.128 -0.6964  0.3157 -0.3029
  647MOL0     C89216   0.858   0.966   7.058  0.5761 -0.0504 -0.1593
  647MOL0     H89217   0.807   0.674   7.301  1.7155 -3.1080 -2.0048
  647MOL0     H89218   0.893   0.458   7.436 -0.3263  0.5087 -0.5331
  647MOL0     H89219   1.104   0.494   7.785 -1.7083  0.6200 -1.6788
  647MOL0     H89220   1.244   0.438   7.671 -0.0147 -1.6641 -1.4787
  647MOL0     H89221   1.224   0.275   7.847  1.8672 -2.8369 -1.6102
  647MOL0     H89222   1.052   0.264   7.800 -0.9895  1.1886 -1.0320
  647MOL0     H89223   1.140   0.207   7.562 -0.2417 -2.3631 -0.6039
  647MOL0     H89224   1.298   0.189   7.641  0.0202 -0.9499  0.2097
  647MOL0     H89225   1.180   0.022   7.807  2.2144 -0.6469 -0.2262
  647MOL0     H89226   1.028   0.060   7.709  0.7614  0.0182 -0.9327
  647MOL0     H89227   1.281  -0.074   7.623 -0.5272 -1.3668 -0.8971
  647MOL0     H89228   1.154  -0.031   7.506  0.8448  3.4897  0.4906
  647MOL0     H89229   1.131  -0.233   7.750  0.9428 -2.6466 -0.1297
  647MOL0     H89230   1.010  -0.193   7.641  0.3203  1.8821  0.2385
  647MOL0     H89231   1.278  -0.324   7.605 -0.3553 -0.5315  1.2675
  647MOL0     H89232   1.189  -0.268   7.464  1.6058  0.0313 -0.2518
  647MOL0     H89233   1.125  -0.480   7.680 -1.6841  1.3785  1.1945
  647MOL0     H89234   0.993  -0.412   7.589  0.3917  2.7103 -1.4910
  647MOL0     H89235   1.322  -0.594   7.520  0.2235  0.4217  1.1944
  647MOL0     H89236   1.429  -0.601   7.193 -1.0383 -2.1104 -4.4742
  647MOL0     H89237   1.301  -0.704   7.141 -0.5651  0.2577 -0.6100
  647MOL0     H89238   1.516  -0.790   7.338 -0.2774  3.5698 -0.5277
  647MOL0     H89239   1.369  -0.846   7.392 -0.8323 -1.9932 -1.9153
  647MOL0     H89240   1.417  -0.877   7.098 -2.5087  1.6954 -0.3512
  647MOL0     H89241   1.467  -0.990   7.225 -1.4333 -1.3490 -0.6059
  647MOL0     H89242   1.188  -0.874   7.189  1.4765  0.4144  1.0050
  647MOL0     H89243   1.235  -1.014   7.096 -0.6978  1.1284 -0.5881
  647MOL0     H89244   1.226  -0.965   7.560 -1.6158 -0.4680  4.2166
  647MOL0     H89245   1.080  -0.700   7.755 -3.6408  0.3593  1.5289
  647MOL0     H89246   1.193  -0.833   7.751  0.8864  1.7313 -0.7321
  647MOL0     H89247   1.020  -0.852   7.806  1.2136 -1.3806 -1.0154
  647MOL0     H89248   0.518  -0.855   7.703 -0.4408  0.1329  1.8456
  647MOL0     H89249   0.361  -0.741   7.876  0.6194  1.3997  0.9587
  647MOL0     H89250   0.484  -0.336   7.969 -1.0951  3.1038  2.7689
  647MOL0     H89251   0.360  -0.273   7.868  1.0724  0.4310  0.8613
  647MOL0     H89252   0.181  -0.304   8.039 -1.2657 -3.6987 -0.1690
  647MOL0     H89253   0.295  -0.385   8.138  1.1800 -0.9048 -1.3638
  647MOL0     H89254   0.316  -0.098   8.031 -2.0949 -0.1801  1.3346
  647MOL0     H89255   0.450  -0.170   8.114  0.2113 -0.2031 -0.1467
  647MOL0     H89256   0.307  -0.201   8.309 -0.7122 -0.3317 -0.4550
  647MOL0     H89257   0.167  -0.134   8.233  0.1344  0.0103 -0.2956
  647MOL0     H89258   0.342   0.005   8.392 -2.4273 -1.9962  0.0755
  647MOL0     H89259   0.419   0.039   8.236  1.6640  1.4164  2.3019
  647MOL0     H89260   0.142   0.112   8.326 -0.2399 -0.4349 -1.9843
  647MOL0     H89261   0.193   0.129   8.155 -0.1022  0.8151 -0.1314
  647MOL0     H89262   0.324   0.335   8.237 -2.1701  1.6913  1.4343
  647MOL0     H89263   0.323   0.264   8.404 -1.6814  3.4842  3.5154
  647MOL0     H89264   0.085   0.323   8.422  1.0069 -1.2229 -0.9602
  647MOL0     H89265   0.091   0.411   8.278 -4.2694  2.3744  3.2788
  647MOL0     H89266   0.460  -0.367   7.696  0.4938 -0.4885 -0.3619
  647MOL0     H89267   0.640  -0.478   7.550  2.9926 -2.9840 -0.0370
  647MOL0     H89268   0.802  -0.837   7.359  0.5141  0.2958 -0.5868
  647MOL0     H89269   0.958  -0.936   7.215  1.3737  3.8830 -0.2436
  647MOL0     H89270   1.176   0.680   7.643 -0.3695 -0.6821  0.6463
  647MOL0     H89271   1.129   0.867   7.494  0.0173 -0.6132 -3.6387
  647MOL0     H89272   0.903   1.282   7.405 -2.1910  0.8476  0.1636
  647MOL0     H89273   0.891   1.453   7.255  0.8013 -0.8318  2.1231
  647MOL0     H89274   0.622   1.485   7.005 -0.0748 -1.9106 -1.9217
  647MOL0     H89275   0.715   1.544   7.136  0.6568  0.9223 -0.4633
  647MOL0     H89276   0.823   1.712   6.997 -0.1723 -1.5217  2.5623
  647MOL0     H89277   0.650   1.723   6.986 -1.5602 -1.4945 -3.4354
  647MOL0     H89278   0.851   1.583   6.778  0.6723  0.3858  0.4093
  647MOL0     H89279   0.685   1.598   6.740  1.3515 -1.4292 -0.8444
  647MOL0     H89280   0.713   1.864   6.749 -0.0552 -0.8636 -0.6662
  647MOL0     H89281   0.823   1.776   6.639  0.4385 -1.8374  0.9730
  647MOL0     H89282   1.082   1.942   6.904 -0.3316  1.4509 -2.9159
  647MOL0     H89283   0.774   1.186   6.945  0.4440  0.2930  0.4375
  647MOL0     H89284   0.957   0.923   7.072 -0.2739 -1.7974  0.9570
  647MOL0     H89285   0.786   0.900   7.108 -1.1671  1.2835 -0.8028
  647MOL0     H89286   0.830   0.970   6.952  1.8229 -1.6317 -0.5831
  648MOL0     O89287   8.829   8.678   5.601  0.2571  0.4151  0.5558
  648MOL0     C89288   8.848   8.598   5.690  0.7794  0.1888 -0.0140
  648MOL0     O89289   8.773   8.479   5.701 -0.4145 -0.7164  0.2938
  648MOL0     C89290   8.701   8.447   5.590  0.1339 -0.8561 -0.2513
  648MOL0     C89291   8.772   8.431   5.471  1.2547  0.0834 -0.0791
  648MOL0     C89292   8.701   8.392   5.350  0.0622  0.5356 -0.0339
  648MOL0     C89293   8.561   8.355   5.356  1.1062 -0.0015 -0.4275
  648MOL0     O89294   8.499   8.313   5.242  0.3419 -0.2776  0.2708
  648MOL0     C89295   8.354   8.304   5.232 -0.5262  0.6869 -0.5531
  648MOL0     C89296   8.304   8.172   5.294 -1.3162  0.3268 -0.3861
  648MOL0     C89297   8.164   8.141   5.242  0.6181 -0.5007 -0.9334
  648MOL0     C89298   8.120   7.996   5.285  0.5107  0.0458  0.0208
  648MOL0     C89299   7.976   7.959   5.247 -0.7549  0.5584  0.8128
  648MOL0     C89300   7.933   7.807   5.249 -0.3098  0.4630 -0.9639
  648MOL0     C89301   8.012   7.723   5.136  0.9047 -0.5226 -0.2358
  648MOL0     C89302   7.977   7.568   5.152 -0.6711 -0.7774  0.2023
  648MOL0     N89303   8.050   7.516   5.268  0.6565 -0.8359  0.0814
  648MOL0     C89304   8.183   7.498   5.295 -0.2209 -1.2581  0.2055
  648MOL0     C89305   8.200   7.446   5.418  0.2190  0.1712 -0.2237
  648MOL0     C89306   8.327   7.405   5.492  0.1248  0.8082  0.5659
  648MOL0     C89307   8.387   7.517   5.577 -0.6051 -0.6653  0.2327
  648MOL0     C89308   8.545   7.487   5.578 -0.8911  0.3088 -0.1196
  648MOL0     C89309   8.571   7.350   5.645  0.3533 -0.7407 -0.4437
  648MOL0     O89310   8.529   7.371   5.780 -0.3007  0.0982 -0.2674
  648MOL0     C89311   8.514   7.268   5.867 -0.0244  0.1215  0.7060
  648MOL0     C89312   8.500   7.303   6.003 -0.5702  0.0220 -1.3979
  648MOL0     C89313   8.474   7.205   6.099  0.5536 -0.7271 -0.4192
  648MOL0     C89314   8.466   7.247   6.247 -0.4952 -0.3177 -0.6818
  648MOL0     C89315   8.488   7.075   6.071 -0.1381  0.1585 -0.1012
  648MOL0     C89316   8.483   6.968   6.169 -0.1982  0.7353 -1.4646
  648MOL0     O89317   8.389   6.881   6.142  0.5900  0.0501 -0.2215
  648MOL0     C89318   8.395   6.770   6.226 -0.0091  0.4538 -0.4344
  648MOL0     C89319   8.303   6.759   6.326  0.7106 -0.0862 -1.2531
  648MOL0     C89320   8.303   6.653   6.409  0.2645 -0.5932 -0.1686
  648MOL0     C89321   8.404   6.554   6.404 -0.2664 -0.5876  0.3860
  648MOL0     O89322   8.414   6.447   6.486  0.0059  0.8708 -1.2967
  648MOL0     C89323   8.324   6.435   6.590  0.4309 -0.2366 -0.7182
  648MOL0     C89324   8.356   6.304   6.672  1.0621  0.1866  0.1648
  648MOL0     C89325   8.493   6.270   6.721 -1.2614  0.1066 -0.2104
  648MOL0     C89326   8.579   6.179   6.621 -0.7619 -0.0062 -0.6534
  648MOL0     C89327   8.716   6.196   6.658 -0.2885 -0.3342 -0.6613
  648MOL0     C89328   8.818   6.092   6.609 -0.2984  1.2013  0.1333
  648MOL0     C89329   8.960   6.104   6.669 -0.4077  0.6408 -0.3381
  648MOL0     C89330   9.066   6.047   6.573  0.0835 -0.7721 -0.1624
  648MOL0    Cl89331   9.222   6.100   6.626  0.0321 -0.3927 -0.3310
  648MOL0     C89332   8.499   6.565   6.303  0.6417  0.1563  0.3846
  648MOL0     C89333   8.490   6.663   6.217  0.0440 -0.0619  0.5540
  648MOL0     O89334   8.566   6.953   6.256 -0.2062 -0.6462 -0.4044
  648MOL0     C89335   8.520   7.041   5.937  0.3329  0.0780  0.4913
  648MOL0     C89336   8.522   7.131   5.834 -0.4439  0.8104  0.3098
  648MOL0     N89337   8.066   7.429   5.465 -0.7899  0.3598 -0.3212
  648MOL0     N89338   7.986   7.476   5.384  0.7109 -0.2929  0.0602
  648MOL0     C89339   8.502   8.369   5.483  0.0786  0.0632  0.5030
  648MOL0     C89340   8.565   8.417   5.591 -0.1233  0.0638 -0.0390
  648MOL0     C89341   8.924   8.632   5.816 -0.4380 -0.7070 -0.1101
  648MOL0     C89342   8.954   8.527   5.901  0.9807  0.3225 -0.2596
  648MOL0     C89343   9.034   8.553   6.018 -0.0078 -0.4757  0.6589
  648MOL0     C89344   9.078   8.684   6.050 -0.2257  0.3580 -0.9051
  648MOL0     O89345   9.154   8.707   6.162  0.2754 -0.4690  0.3824
  648MOL0     C89346   9.127   8.636   6.274 -0.6565  0.7133 -1.3160
  648MOL0     C89347   8.993   8.661   6.344 -0.4737 -1.0624  0.3017
  648MOL0     C89348   8.988   8.585   6.481  0.0515 -0.3127 -1.0534
  648MOL0     C89349   8.976   8.434   6.474 -0.1015 -1.2059  0.4102
  648MOL0     C89350   8.980   8.371   6.607 -0.2507 -1.1641  0.4509
  648MOL0     C89351   8.954   8.316   6.708 -0.0487  0.2386 -0.0391
  648MOL0     C89352   9.037   8.782   5.970 -0.6205 -0.8009  0.0112
  648MOL0     C89353   8.963   8.764   5.854 -0.2651 -0.7925  1.0668
  648MOL0     C89354   8.912   8.887   5.783  0.2986 -0.3340 -0.0832
  648MOL0     H89355   8.874   8.469   5.467  1.3627 -0.0273  1.0596
  648MOL0     H89356   8.761   8.376   5.261 -2.4352 -3.0502 -1.3131
  648MOL0     H89357   8.342   8.312   5.124 -0.9042  0.3009 -0.5395
  648MOL0     H89358   8.311   8.394   5.276  1.9905  1.2732  0.9469
  648MOL0     H89359   8.365   8.091   5.252 -2.8778 -0.1265 -1.9025
  648MOL0     H89360   8.299   8.184   5.402 -0.5172  4.1771 -0.6014
  648MOL0     H89361   8.096   8.192   5.311  1.2828 -1.8439  0.7686
  648MOL0     H89362   8.148   8.158   5.135  2.9755 -3.4446 -1.8952
  648MOL0     H89363   8.184   7.922   5.238  2.4169  0.9842  0.9831
  648MOL0     H89364   8.130   7.978   5.393  0.5827 -1.6647 -0.2458
  648MOL0     H89365   7.941   7.994   5.149 -1.4884 -2.5853 -0.1662
  648MOL0     H89366   7.915   8.023   5.312  0.2301  1.4282  0.9014
  648MOL0     H89367   7.956   7.765   5.347  0.4801 -0.9369 -1.7137
  648MOL0     H89368   7.826   7.803   5.228 -0.2770  2.7475 -1.8897
  648MOL0     H89369   8.121   7.734   5.144  0.9866 -0.7893 -0.8661
  648MOL0     H89370   7.968   7.761   5.043 -3.8224 -0.7215  1.6784
  648MOL0     H89371   7.871   7.556   5.177 -0.1894 -1.5528  2.0461
  648MOL0     H89372   8.009   7.528   5.056  1.2402  2.5696 -0.7035
  648MOL0     H89373   8.269   7.534   5.240 -1.6376  2.7746  0.2827
  648MOL0     H89374   8.386   7.374   5.405 -1.4321  0.4955 -0.4139
  648MOL0     H89375   8.298   7.318   5.552 -0.8001 -0.3099 -1.4242
  648MOL0     H89376   8.359   7.611   5.530 -3.0940 -1.0944  0.7047
  648MOL0     H89377   8.346   7.508   5.678 -0.6404  1.2563  0.4294
  648MOL0     H89378   8.584   7.486   5.476  0.0622 -0.7918  0.2309
  648MOL0     H89379   8.607   7.563   5.626  2.0508 -2.0668  0.1214
  648MOL0     H89380   8.518   7.270   5.592  3.0566 -1.6158 -2.0386
  648MOL0     H89381   8.674   7.312   5.640  1.5135  2.0159  0.6687
  648MOL0     H89382   8.481   7.407   6.028 -3.3544 -0.6475 -0.4002
  648MOL0     H89383   8.553   7.308   6.275 -0.4479 -0.5929 -0.2043
  648MOL0     H89384   8.460   7.167   6.321 -0.2247 -1.0785 -1.4672
  648MOL0     H89385   8.377   7.310   6.260 -2.2707 -2.8499  0.1110
  648MOL0     H89386   8.229   6.838   6.336 -1.0528 -1.9229  2.3712
  648MOL0     H89387   8.226   6.658   6.485 -0.8954  1.4672 -1.3698
  648MOL0     H89388   8.343   6.520   6.656  3.6561 -0.1001 -1.6712
  648MOL0     H89389   8.221   6.441   6.554  0.0952  2.0661  0.4453
  648MOL0     H89390   8.292   6.299   6.760  0.5767 -1.3603 -0.2339
  648MOL0     H89391   8.323   6.218   6.612 -0.5243 -0.3726  1.7642
  648MOL0     H89392   8.484   6.221   6.819 -1.8133 -0.1232 -0.3749
  648MOL0     H89393   8.559   6.357   6.735 -1.5798  0.3651 -0.3170
  648MOL0     H89394   8.563   6.199   6.515 -0.1395 -0.1093 -0.7721
  648MOL0     H89395   8.555   6.074   6.643 -1.1086  0.0601 -0.7086
  648MOL0     H89396   8.748   6.290   6.612  0.0285  0.8346  1.7938
  648MOL0     H89397   8.731   6.198   6.766  0.9985 -0.9314 -0.8041
  648MOL0     H89398   8.815   6.090   6.500 -0.3991  0.2658  0.1450
  648MOL0     H89399   8.776   5.994   6.634  2.1123 -1.0096 -3.5988
  648MOL0     H89400   8.960   6.065   6.771  0.9534  1.8967  0.1765
  648MOL0     H89401   8.987   6.210   6.677 -0.4224  0.8188 -2.1664
  648MOL0     H89402   9.035   6.076   6.472 -1.3822  1.0593  0.7566
  648MOL0     H89403   9.061   5.939   6.586  3.7032 -1.0888 -0.2858
  648MOL0     H89404   8.580   6.493   6.296  1.2267  0.6507  1.7993
  648MOL0     H89405   8.564   6.662   6.137 -2.1030 -3.5654 -1.6654
  648MOL0     H89406   8.536   6.935   5.920 -2.1325 -0.3795  0.6854
  648MOL0     H89407   8.541   7.083   5.739  0.9167  0.2011  0.8613
  648MOL0     H89408   8.395   8.353   5.492 -0.1896  1.8618  1.0111
  648MOL0     H89409   8.508   8.423   5.683 -3.4225  0.4395 -1.9626
  648MOL0     H89410   8.915   8.428   5.881  1.1235  0.4538 -1.1927
  648MOL0     H89411   9.079   8.474   6.076 -1.2601 -0.6770  1.3939
  648MOL0     H89412   9.137   8.530   6.252 -0.6903  0.6045 -0.8174
  648MOL0     H89413   9.202   8.646   6.353 -1.5042 -1.0678 -0.2162
  648MOL0     H89414   8.909   8.633   6.280 -0.1800 -3.7331  0.9749
  648MOL0     H89415   8.989   8.770   6.354  3.6237 -0.7152 -0.0529
  648MOL0     H89416   9.075   8.611   6.542  0.6392 -2.1145 -1.0598
  648MOL0     H89417   8.901   8.615   6.541  2.9994 -1.9856  4.7735
  648MOL0     H89418   9.049   8.386   6.408  0.8304 -0.7586  1.0849
  648MOL0     H89419   8.879   8.416   6.428  1.0057  0.5335 -2.9333
  648MOL0     H89420   8.937   8.266   6.802 -1.3029  2.4346  0.9841
  648MOL0     H89421   9.062   8.880   6.008 -1.4542 -1.0559  1.2755
  648MOL0     H89422   8.914   8.970   5.855 -1.9558  0.2263 -0.5863
  648MOL0     H89423   8.973   8.906   5.695 -1.9210 -2.9552 -2.3875
  648MOL0     H89424   8.807   8.881   5.753 -0.1445 -0.4693  1.3906
  649MOL0     O89425   0.321   3.770   7.922  0.1446  0.6173 -0.5177
  649MOL0     C89426   0.234   3.778   7.835  0.2504  0.2266 -0.4400
  649MOL0     O89427   0.139   3.879   7.828  0.1687 -0.1367 -0.5087
  649MOL0     C89428   0.158   3.982   7.914  0.0848  0.0176 -0.9595
  649MOL0     C89429   0.249   4.074   7.869 -0.1594 -0.1911 -0.0808
  649MOL0     C89430   0.278   4.188   7.944 -0.2147 -0.1328  0.2866
  649MOL0     C89431   0.220   4.212   8.070 -0.5984  0.3764 -0.4896
  649MOL0     O89432   0.244   4.320   8.149 -0.3211  0.4745  0.1781
  649MOL0     C89433   0.141   4.417   8.144  0.1109 -0.9845 -0.7800
  649MOL0     C89434   0.159   4.511   8.264 -0.0684  0.2249  1.0578
  649MOL0     C89435   0.147   4.462   8.409  0.0542 -0.3001  0.1523
  649MOL0     C89436   0.014   4.384   8.435 -0.5770  0.3572 -0.5815
  649MOL0     C89437  -0.032   4.415   8.582 -0.4411  0.4106  0.0437
  649MOL0     C89438  -0.172   4.360   8.600  0.6145  0.4237  0.3034
  649MOL0     C89439  -0.267   4.461   8.539 -0.0199  0.1234  0.1621
  649MOL0     C89440  -0.411   4.452   8.594 -0.2423 -0.0596  0.6547
  649MOL0     N89441  -0.434   4.535   8.716  0.1279 -0.3146 -0.2648
  649MOL0     C89442  -0.495   4.500   8.832  0.3782  0.6560  0.5871
  649MOL0     C89443  -0.530   4.614   8.891 -0.5462  0.3726  0.4623
  649MOL0     C89444  -0.614   4.626   9.019 -0.3377 -0.4035  0.5638
  649MOL0     C89445  -0.755   4.653   8.972 -0.0542  0.8246  0.7273
  649MOL0     C89446  -0.843   4.662   9.096  0.5775 -0.3937  0.1466
  649MOL0     C89447  -0.996   4.641   9.061 -0.0143  1.2715  1.4442
  649MOL0     O89448  -1.025   4.521   8.985 -0.7470  0.3149 -0.5200
  649MOL0     C89449  -1.147   4.489   8.934 -0.2497  0.5064 -0.5474
  649MOL0     C89450  -1.267   4.537   8.976  1.1825 -0.4381 -0.6604
  649MOL0     C89451  -1.385   4.503   8.909 -0.5422  0.6279 -0.0970
  649MOL0     C89452  -1.502   4.567   8.975 -0.3222 -0.3085  0.2744
  649MOL0     C89453  -1.380   4.411   8.804 -0.6798 -0.3721 -0.3570
  649MOL0     C89454  -1.491   4.346   8.748 -0.8610  0.3522 -0.0129
  649MOL0     O89455  -1.494   4.295   8.621 -0.2615  0.7454 -0.7229
  649MOL0     C89456  -1.595   4.204   8.592 -0.1166  0.9183  0.7166
  649MOL0     C89457  -1.635   4.198   8.460  0.8316 -0.4952  0.4322
  649MOL0     C89458  -1.738   4.111   8.417  0.1477  0.1114 -1.2475
  649MOL0     C89459  -1.786   4.010   8.499 -0.0832  0.5747  0.3231
  649MOL0     O89460  -1.856   3.907   8.443 -1.1204  0.6332  0.6910
  649MOL0     C89461  -1.958   3.832   8.523 -0.3138 -0.6707  0.5187
  649MOL0     C89462  -2.066   3.925   8.579 -0.1135 -0.5363  0.4616
  649MOL0     C89463  -2.152   3.988   8.462  0.6216 -0.2478 -0.5347
  649MOL0     C89464  -2.202   4.129   8.504  0.4177  0.1991  0.3711
  649MOL0     C89465  -2.286   4.194   8.390  1.0191 -0.4461  0.0035
  649MOL0     C89466  -2.432   4.176   8.431 -0.0100  0.4163  0.6773
  649MOL0     C89467  -2.486   4.243   8.561 -1.1085  0.9198  0.5904
  649MOL0     C89468  -2.631   4.213   8.584 -1.0459  0.2904  0.3331
  649MOL0    Cl89469  -2.740   4.289   8.478  0.5108 -0.3407 -0.4609
  649MOL0     C89470  -1.737   4.011   8.631 -0.0235 -0.5898 -0.0339
  649MOL0     C89471  -1.642   4.109   8.680  0.2858 -0.0228  0.5184
  649MOL0     O89472  -1.581   4.331   8.830 -0.3592  0.4712 -0.3715
  649MOL0     C89473  -1.255   4.383   8.747  1.2601 -0.4358  0.0021
  649MOL0     C89474  -1.145   4.410   8.811 -0.2206 -0.4626 -0.5143
  649MOL0     N89475  -0.496   4.718   8.805  0.4862  0.6526  0.2948
  649MOL0     N89476  -0.443   4.670   8.698  0.0839 -0.0693 -0.1320
  649MOL0     C89477   0.126   4.121   8.109  0.5972  0.2673 -0.3916
  649MOL0     C89478   0.094   4.010   8.027  0.1398 -0.0779  0.4439
  649MOL0     C89479   0.212   3.661   7.749  0.8875 -0.8414  0.2548
  649MOL0     C89480   0.087   3.607   7.732  0.7508  0.1645 -1.3835
  649MOL0     C89481   0.069   3.488   7.669 -0.7890 -0.8095  0.7788
  649MOL0     C89482   0.170   3.430   7.596  1.1287 -0.1551  0.4208
  649MOL0     O89483   0.143   3.320   7.519  0.6340  0.0257  0.0599
  649MOL0     C89484   0.179   3.320   7.381  0.4936 -0.2871  0.3287
  649MOL0     C89485   0.103   3.423   7.292 -0.5334  0.1474  0.4966
  649MOL0     C89486  -0.022   3.362   7.224 -0.7334 -0.2924  0.4776
  649MOL0     C89487  -0.141   3.311   7.318 -0.0319 -0.3908 -0.7281
  649MOL0     C89488  -0.173   3.421   7.409  0.1066 -0.1930  0.0659
  649MOL0     C89489  -0.187   3.526   7.481  0.1265 -0.1430 -0.7050
  649MOL0     C89490   0.292   3.494   7.590 -1.1275  0.3364  0.2785
  649MOL0     C89491   0.321   3.614   7.666  0.4010 -0.1198  0.8369
  649MOL0     C89492   0.449   3.694   7.663  0.4334  0.1663  0.4198
  649MOL0     H89493   0.314   4.057   7.784 -0.4117 -0.2309 -0.2648
  649MOL0     H89494   0.351   4.258   7.905  0.6590 -1.6701 -0.9531
  649MOL0     H89495   0.037   4.383   8.142  0.5013 -2.2430 -0.6307
  649MOL0     H89496   0.151   4.480   8.056  0.0410  3.9421  2.3353
  649MOL0     H89497   0.260   4.553   8.265  1.4381 -3.1029  1.5687
  649MOL0     H89498   0.091   4.596   8.256  0.5867  0.9969  3.0653
  649MOL0     H89499   0.235   4.411   8.448  0.9958 -1.4142 -3.0503
  649MOL0     H89500   0.144   4.555   8.466 -0.2774  1.0905 -2.0106
  649MOL0     H89501  -0.057   4.424   8.361 -0.0235  1.3107 -0.6079
  649MOL0     H89502   0.023   4.278   8.411 -2.4212 -0.4367  1.8078
  649MOL0     H89503  -0.042   4.524   8.582 -0.3516  0.4343 -0.9650
  649MOL0     H89504   0.046   4.361   8.637  0.5131  0.0769 -1.5593
  649MOL0     H89505  -0.198   4.258   8.569 -0.0525  0.7760 -0.3306
  649MOL0     H89506  -0.191   4.347   8.707 -1.5678 -1.1356 -0.1998
  649MOL0     H89507  -0.274   4.443   8.431 -1.9157 -0.2597  0.3112
  649MOL0     H89508  -0.237   4.564   8.556  0.5403  0.1756 -1.0579
  649MOL0     H89509  -0.485   4.471   8.516 -0.3298 -0.8800  0.5283
  649MOL0     H89510  -0.439   4.351   8.627 -0.7690 -1.8523 -4.4042
  649MOL0     H89511  -0.484   4.405   8.883  3.0778  0.9639  0.6930
  649MOL0     H89512  -0.588   4.703   9.092 -3.4812 -0.1582  1.5940
  649MOL0     H89513  -0.602   4.535   9.079 -1.8832  0.3846  2.1398
  649MOL0     H89514  -0.759   4.746   8.915 -3.0895  0.3896  0.0742
  649MOL0     H89515  -0.799   4.574   8.911  1.1354 -0.9088  2.0361
  649MOL0     H89516  -0.833   4.583   9.172 -2.6074 -1.2951 -0.2339
  649MOL0     H89517  -0.827   4.756   9.149  0.3974 -0.7667  0.8726
  649MOL0     H89518  -1.046   4.621   9.157 -0.3955 -0.0769  0.9915
  649MOL0     H89519  -1.051   4.723   9.014 -0.9017  1.4305  2.7069
  649MOL0     H89520  -1.274   4.605   9.060  0.0396 -1.3810  0.0276
  649MOL0     H89521  -1.571   4.490   9.010 -2.4008  1.5072  0.3978
  649MOL0     H89522  -1.563   4.623   8.903  0.5174  0.1422 -0.1022
  649MOL0     H89523  -1.476   4.640   9.052  1.0851 -2.5860  2.0683
  649MOL0     H89524  -1.595   4.277   8.397  0.6114 -2.2596 -2.0186
  649MOL0     H89525  -1.798   4.124   8.327 -0.4900 -2.7834 -1.3357
  649MOL0     H89526  -2.002   3.758   8.455 -1.9979  3.1019 -2.8771
  649MOL0     H89527  -1.905   3.776   8.600  0.9383 -3.3110 -2.0676
  649MOL0     H89528  -2.139   3.863   8.631 -2.5298  2.9564  1.5602
  649MOL0     H89529  -2.033   4.012   8.636 -1.0147  0.0625  0.0819
  649MOL0     H89530  -2.231   3.921   8.429 -0.6982  1.2991 -0.6447
  649MOL0     H89531  -2.090   4.008   8.374 -2.9131  0.3408 -3.0950
  649MOL0     H89532  -2.117   4.198   8.504 -0.0521  0.8035 -0.3833
  649MOL0     H89533  -2.253   4.123   8.600  2.9171  3.3044  2.0762
  649MOL0     H89534  -2.268   4.301   8.376 -3.3653  0.2046 -2.6400
  649MOL0     H89535  -2.269   4.140   8.296  2.0136  1.0186 -0.7007
  649MOL0     H89536  -2.455   4.070   8.440 -4.1209  1.2249  2.0180
  649MOL0     H89537  -2.505   4.195   8.353 -1.6283 -2.0122  1.5119
  649MOL0     H89538  -2.475   4.351   8.569  0.9787  0.8800 -1.0359
  649MOL0     H89539  -2.442   4.195   8.649 -0.1518 -0.0638 -0.3953
  649MOL0     H89540  -2.639   4.226   8.693 -0.4752 -1.8063  0.6712
  649MOL0     H89541  -2.644   4.107   8.560  0.7460  0.6280 -2.5454
  649MOL0     H89542  -1.757   3.934   8.705  0.5224 -0.5942  0.1083
  649MOL0     H89543  -1.612   4.102   8.784 -1.3564 -3.5210  0.9082
  649MOL0     H89544  -1.253   4.320   8.659 -1.5036  2.2799 -2.2199
  649MOL0     H89545  -1.053   4.379   8.764  1.4223  0.5685  1.7884
  649MOL0     H89546   0.075   4.145   8.202 -0.3518 -0.1496 -0.7851
  649MOL0     H89547   0.023   3.932   8.052 -0.2139 -0.3737 -1.3776
  649MOL0     H89548   0.016   3.646   7.805  1.6375 -2.0640  0.8194
  649MOL0     H89549  -0.020   3.432   7.695  0.7539 -2.4809  2.8278
  649MOL0     H89550   0.286   3.322   7.361  0.2510 -4.5200 -2.6921
  649MOL0     H89551   0.142   3.221   7.351  0.5283 -0.0764 -0.4334
  649MOL0     H89552   0.162   3.452   7.204  0.8340 -0.7226  1.1005
  649MOL0     H89553   0.104   3.518   7.346  4.5824  0.8416 -0.3920
  649MOL0     H89554  -0.077   3.434   7.162 -2.7108 -2.7864 -0.8424
  649MOL0     H89555   0.013   3.273   7.171 -2.2864 -0.3063 -0.5927
  649MOL0     H89556  -0.098   3.232   7.381  0.7333  0.2366 -0.4416
  649MOL0     H89557  -0.229   3.272   7.267 -1.5190 -1.7264  2.5563
  649MOL0     H89558  -0.194   3.598   7.560  1.5263 -2.6955  1.9638
  649MOL0     H89559   0.374   3.454   7.532 -1.3828  2.2724 -1.5637
  649MOL0     H89560   0.532   3.629   7.694 -1.4842 -1.6133  2.1045
  649MOL0     H89561   0.458   3.718   7.557  0.6001  1.9690  0.8084
  649MOL0     H89562   0.457   3.788   7.719  0.8384  1.6365 -1.9671
  650MOL0     O89563   5.920   7.635   9.928  0.1288 -0.1872 -0.0113
  650MOL0     C89564   5.954   7.725   9.855 -0.3161 -0.2719 -0.5910
  650MOL0     O89565   5.922   7.740   9.719 -0.4452  0.2810  0.6786
  650MOL0     C89566   5.845   7.631   9.666  0.2101  0.2993  0.0778
  650MOL0     C89567   5.904   7.500   9.639 -0.5355 -0.0034  0.3006
  650MOL0     C89568   5.834   7.396   9.580 -1.8176 -0.9287 -0.1440
  650MOL0     C89569   5.705   7.418   9.545 -0.1946 -0.1181  0.7179
  650MOL0     O89570   5.634   7.322   9.490 -0.0563  0.1131  0.7993
  650MOL0     C89571   5.712   7.239   9.396 -0.2673  0.0954 -0.3838
  650MOL0     C89572   5.618   7.145   9.323 -0.3881 -0.1993  0.4364
  650MOL0     C89573   5.568   7.210   9.195 -0.1717 -0.5319 -0.3783
  650MOL0     C89574   5.450   7.109   9.140  0.3459 -0.9432 -1.0350
  650MOL0     C89575   5.400   7.149   8.997 -0.6113 -0.6333 -0.2292
  650MOL0     C89576   5.274   7.068   8.948  0.1097 -0.3824  1.3568
  650MOL0     C89577   5.294   7.019   8.808  0.5146 -0.1965  0.0583
  650MOL0     C89578   5.389   6.908   8.783  0.1206  0.7108  0.2016
  650MOL0     N89579   5.367   6.784   8.860 -0.3565 -0.4024  0.6806
  650MOL0     C89580   5.401   6.763   8.990 -0.5768  0.2514  0.2779
  650MOL0     C89581   5.317   6.655   9.029 -0.0149 -0.2833  0.4430
  650MOL0     C89582   5.279   6.602   9.162  0.2312 -1.2659 -0.7543
  650MOL0     C89583   5.330   6.475   9.184 -0.6080  0.4690 -1.1708
  650MOL0     C89584   5.309   6.401   9.318  0.3786 -0.5459  0.2976
  650MOL0     C89585   5.171   6.380   9.367 -0.2374 -0.2651 -0.3685
  650MOL0     O89586   5.088   6.313   9.273  0.1251 -0.1630  0.1162
  650MOL0     C89587   5.038   6.192   9.307  0.5080  0.5105 -0.3196
  650MOL0     C89588   5.105   6.087   9.368 -0.0859  0.1029  0.6292
  650MOL0     C89589   5.046   5.957   9.375  0.7925 -0.9645 -0.4986
  650MOL0     C89590   5.149   5.868   9.440  0.1485  0.9658  1.0349
  650MOL0     C89591   4.914   5.928   9.317  0.1989  0.3219 -0.8702
  650MOL0     C89592   4.857   5.788   9.335 -1.1573 -0.3408  0.0044
  650MOL0     O89593   4.731   5.763   9.283 -0.5803 -1.1656  0.6048
  650MOL0     C89594   4.658   5.652   9.311 -1.3206 -0.2523  0.2307
  650MOL0     C89595   4.574   5.608   9.213 -0.3117  0.0623 -0.2136
  650MOL0     C89596   4.477   5.509   9.240  0.7671  0.5988 -0.0772
  650MOL0     C89597   4.473   5.447   9.363 -0.4238 -0.3522 -0.0277
  650MOL0     O89598   4.385   5.345   9.387  0.2610  0.0013  0.5623
  650MOL0     C89599   4.249   5.376   9.349 -0.5835 -0.5947  0.3191
  650MOL0     C89600   4.148   5.331   9.459 -0.2061  0.3900 -1.3327
  650MOL0     C89601   4.150   5.431   9.573 -0.4179  0.2246  0.5203
  650MOL0     C89602   4.049   5.398   9.679 -0.3972 -0.9000  0.2113
  650MOL0     C89603   4.068   5.493   9.798  0.0584  0.5212 -0.1544
  650MOL0     C89604   4.144   5.420   9.909  0.1935  0.5995 -1.0406
  650MOL0     C89605   4.156   5.490  10.039 -0.2429 -0.7471  0.5481
  650MOL0     C89606   4.235   5.403  10.131  0.6219  0.4173 -0.9584
  650MOL0    Cl89607   4.126   5.290  10.217 -0.1490  0.1674  0.1506
  650MOL0     C89608   4.557   5.493   9.464  1.1651  0.5031 -0.0260
  650MOL0     C89609   4.658   5.588   9.437  0.3191 -0.2850  0.8666
  650MOL0     O89610   4.929   5.699   9.382  0.3415 -0.5239 -0.0410
  650MOL0     C89611   4.857   6.035   9.243 -0.5009  0.1553 -0.9711
  650MOL0     C89612   4.918   6.163   9.244  0.4621 -0.5259  0.5113
  650MOL0     N89613   5.240   6.618   8.921 -0.9229 -0.3076  0.0292
  650MOL0     N89614   5.268   6.699   8.830  0.9819  0.7086  0.1721
  650MOL0     C89615   5.645   7.545   9.565  0.8308 -0.1296  0.1955
  650MOL0     C89616   5.717   7.661   9.609  0.0203  1.1113 -0.5021
  650MOL0     C89617   6.042   7.834   9.903 -0.0997  0.0047  0.3347
  650MOL0     C89618   6.112   7.906   9.807 -0.3764 -0.1660  0.5035
  650MOL0     C89619   6.186   8.021   9.838 -1.4466 -0.7074 -0.4557
  650MOL0     C89620   6.212   8.055   9.970  0.0253  1.0074  0.0343
  650MOL0     O89621   6.293   8.150  10.023 -0.2283  0.0001  0.0389
  650MOL0     C89622   6.422   8.175   9.971 -0.6447 -0.6591 -0.6891
  650MOL0     C89623   6.412   8.295   9.870 -0.3848 -0.2589 -0.5071
  650MOL0     C89624   6.347   8.418   9.941  0.1997  0.1838  0.2599
  650MOL0     C89625   6.419   8.488  10.058 -0.8055 -0.2209 -0.7448
  650MOL0     C89626   6.558   8.526  10.056  0.4056  0.6411 -0.5396
  650MOL0     C89627   6.671   8.578  10.038  0.6991 -0.3376  0.3962
  650MOL0     C89628   6.147   7.979  10.071 -0.7665 -1.0066 -0.3413
  650MOL0     C89629   6.065   7.871  10.035  0.0994  0.4467 -0.2305
  650MOL0     C89630   6.002   7.802  10.152 -0.0147 -0.4694  0.0081
  650MOL0     H89631   6.004   7.477   9.675 -1.1831  1.4362  3.3121
  650MOL0     H89632   5.893   7.305   9.576 -1.1663 -0.8480  3.7172
  650MOL0     H89633   5.785   7.171   9.439  1.4665  0.5537 -2.4061
  650MOL0     H89634   5.768   7.289   9.317  3.1194 -3.3727 -0.4725
  650MOL0     H89635   5.673   7.052   9.306  1.1847  0.6300  0.8798
  650MOL0     H89636   5.536   7.120   9.392 -1.9461  1.6210 -0.6691
  650MOL0     H89637   5.519   7.306   9.214 -2.6572 -0.8113 -4.2783
  650MOL0     H89638   5.656   7.219   9.131  0.5090  0.8589  0.7036
  650MOL0     H89639   5.472   7.002   9.144 -2.9844 -2.0858 -5.1646
  650MOL0     H89640   5.364   7.112   9.207  0.5089  0.7484 -0.8546
  650MOL0     H89641   5.476   7.127   8.922 -0.2414  0.8655 -0.3297
  650MOL0     H89642   5.386   7.257   8.992  0.2482 -0.5447 -1.0955
  650MOL0     H89643   5.238   6.986   9.010 -3.2599 -1.1722 -1.3828
  650MOL0     H89644   5.199   7.146   8.934  0.4547 -0.5792 -2.6634
  650MOL0     H89645   5.316   7.100   8.738 -1.5308 -1.0406 -1.7029
  650MOL0     H89646   5.199   6.978   8.772  0.7544  0.4318 -1.3586
  650MOL0     H89647   5.399   6.891   8.675 -1.5553  2.1796 -0.2338
  650MOL0     H89648   5.479   6.951   8.828 -1.2741  3.2389  0.7645
  650MOL0     H89649   5.470   6.830   9.040  1.5059 -1.0667 -0.6742
  650MOL0     H89650   5.170   6.590   9.163 -0.1839  1.3403 -2.5014
  650MOL0     H89651   5.315   6.671   9.239  1.1607  0.0633 -2.3323
  650MOL0     H89652   5.279   6.407   9.114 -2.0293 -2.9692  2.8051
  650MOL0     H89653   5.437   6.492   9.165 -0.2716  0.7052  0.7812
  650MOL0     H89654   5.371   6.310   9.319  0.3240 -0.6226 -1.0827
  650MOL0     H89655   5.354   6.456   9.401  1.7267 -2.0555  0.6286
  650MOL0     H89656   5.158   6.349   9.471  1.2494  2.4764  0.7226
  650MOL0     H89657   5.139   6.484   9.357 -2.1438 -0.9466 -1.9995
  650MOL0     H89658   5.202   6.113   9.409 -0.6283  0.9962  1.3938
  650MOL0     H89659   5.248   5.911   9.451  0.4727 -0.2667  4.2028
  650MOL0     H89660   5.170   5.792   9.365  0.8523  2.1230  0.0431
  650MOL0     H89661   5.106   5.831   9.534 -0.3932 -0.5741  0.2239
  650MOL0     H89662   4.594   5.662   9.121 -0.0138 -0.0060 -0.1895
  650MOL0     H89663   4.421   5.470   9.156  0.0300  1.0172  0.2141
  650MOL0     H89664   4.254   5.484   9.334  1.2824 -0.8176 -0.9775
  650MOL0     H89665   4.220   5.334   9.253  0.7948 -2.3646  0.6359
  650MOL0     H89666   4.052   5.324   9.407 -1.2650  2.3153  0.2544
  650MOL0     H89667   4.180   5.233   9.496  0.2918  1.0389 -0.0315
  650MOL0     H89668   4.145   5.532   9.530 -0.4342  0.0828  0.1808
  650MOL0     H89669   4.246   5.436   9.625  1.1001 -0.0602 -2.0391
  650MOL0     H89670   4.045   5.293   9.709  0.4822 -1.8996 -2.8023
  650MOL0     H89671   3.954   5.428   9.634  0.4310 -0.4344 -1.2901
  650MOL0     H89672   4.120   5.586   9.771  2.1472 -0.0718  1.5162
  650MOL0     H89673   3.970   5.523   9.837  0.9088  1.4131  1.4131
  650MOL0     H89674   4.240   5.388   9.869  1.2087  0.5268  1.3162
  650MOL0     H89675   4.090   5.327   9.927 -1.3504  1.3851 -1.3953
  650MOL0     H89676   4.056   5.514  10.076  0.3515 -3.2883  4.4360
  650MOL0     H89677   4.217   5.579  10.025 -0.4903 -0.7149 -0.4450
  650MOL0     H89678   4.284   5.466  10.206 -1.0343  2.5140 -1.5270
  650MOL0     H89679   4.306   5.346  10.071  1.1157 -0.4462  0.3945
  650MOL0     H89680   4.543   5.442   9.559  0.7262 -1.7890 -1.2497
  650MOL0     H89681   4.740   5.619   9.501  3.0777 -2.2760 -1.4830
  650MOL0     H89682   4.768   6.016   9.183 -0.2703  0.4834 -1.4228
  650MOL0     H89683   4.865   6.248   9.203 -0.7223 -2.0397 -1.2417
  650MOL0     H89684   5.544   7.544   9.526  1.2332 -2.7672 -0.9713
  650MOL0     H89685   5.675   7.761   9.603  1.1640  1.5723 -1.0601
  650MOL0     H89686   6.096   7.886   9.701  1.9369  2.0899 -0.3863
  650MOL0     H89687   6.241   8.086   9.770 -2.4340  0.1925 -0.4443
  650MOL0     H89688   6.496   8.203  10.047 -1.9308 -3.1013  1.6051
  650MOL0     H89689   6.456   8.081   9.925  3.4241  0.1414  0.2880
  650MOL0     H89690   6.362   8.281   9.774 -2.0582  1.2986  0.0782
  650MOL0     H89691   6.514   8.331   9.852  0.2390 -0.7386  1.6912
  650MOL0     H89692   6.337   8.489   9.858  0.5275  0.7103  0.6666
  650MOL0     H89693   6.242   8.401   9.966 -0.5506  2.0573 -1.3068
  650MOL0     H89694   6.408   8.417  10.141 -1.6343  3.2604  2.3967
  650MOL0     H89695   6.361   8.579  10.078 -0.5211 -0.5260  1.8426
  650MOL0     H89696   6.761   8.633  10.023  1.3121 -1.5335 -0.5394
  650MOL0     H89697   6.155   8.009  10.176 -0.6314  0.5755 -0.7777
  650MOL0     H89698   5.904   7.759  10.129 -1.6303  2.5163  0.7658
  650MOL0     H89699   6.082   7.733  10.180  0.5321 -0.2703 -1.0475
  650MOL0     H89700   5.972   7.864  10.237  1.0646 -1.5450  1.2181
  651MOL0     O89701  10.336   9.821   8.337 -0.4740  0.5435 -0.4552
  651MOL0     C89702  10.407   9.760   8.422 -0.2232 -1.1918 -0.4989
  651MOL0     O89703  10.362   9.723   8.548  0.3253  0.8484 -0.4711
  651MOL0     C89704  10.239   9.765   8.600  0.3345 -0.2272  0.2518
  651MOL0     C89705  10.168   9.672   8.677 -0.3431 -0.3229 -0.7721
  651MOL0     C89706  10.037   9.704   8.720 -0.4367 -0.3729 -0.7819
  651MOL0     C89707   9.973   9.824   8.681  0.6214 -0.2221  0.5535
  651MOL0     O89708   9.840   9.865   8.720 -0.2773  0.1399 -0.0556
  651MOL0     C89709   9.796   9.815   8.851 -0.7740 -0.3368 -0.0112
  651MOL0     C89710   9.666   9.902   8.857  0.2788  0.2667  0.0263
  651MOL0     C89711   9.574   9.873   8.973 -0.5477  1.1231  0.4198
  651MOL0     C89712   9.494   9.999   9.009  0.8125  0.3269  0.1076
  651MOL0     C89713   9.393   9.957   9.118 -0.4911 -0.1646 -0.9324
  651MOL0     C89714   9.318  10.069   9.178  0.8160 -0.1022  0.0728
  651MOL0     C89715   9.238  10.043   9.309  0.0040  0.1274 -0.2296
  651MOL0     C89716   9.119   9.950   9.282 -0.5505 -0.0563  0.0663
  651MOL0     N89717   9.022  10.014   9.184 -0.8879 -0.0726 -0.1398
  651MOL0     C89718   8.987   9.954   9.069  0.2258 -0.5135  0.3190
  651MOL0     C89719   8.887  10.041   9.018  0.1283  0.1815  1.0045
  651MOL0     C89720   8.801  10.005   8.898  0.2594  0.0682 -0.0820
  651MOL0     C89721   8.874   9.907   8.796 -0.9934 -0.4830 -0.2781
  651MOL0     C89722   8.976   9.985   8.710 -0.3539 -0.1315  0.7006
  651MOL0     C89723   8.925  10.101   8.623 -0.9806  1.0967 -0.1715
  651MOL0     O89724   8.834  10.058   8.518  0.7684 -0.2699 -0.2623
  651MOL0     C89725   8.829  10.123   8.397  0.0631 -0.7292 -0.7537
  651MOL0     C89726   8.861  10.257   8.383  0.0452  0.3208 -0.3357
  651MOL0     C89727   8.850  10.325   8.256  0.0592  0.2764  0.1298
  651MOL0     C89728   8.891  10.473   8.252 -0.6894  0.1703 -0.1054
  651MOL0     C89729   8.787  10.256   8.142 -0.7793 -0.0585 -0.2724
  651MOL0     C89730   8.741  10.311   8.012  0.2896  0.5443 -0.8778
  651MOL0     O89731   8.660  10.228   7.941 -0.6452  0.5588  0.1601
  651MOL0     C89732   8.599  10.263   7.825  0.4292 -0.3945 -0.6705
  651MOL0     C89733   8.626  10.377   7.748 -0.3609 -0.4668  0.3917
  651MOL0     C89734   8.555  10.398   7.632  0.8061 -0.3617  0.4799
  651MOL0     C89735   8.456  10.303   7.588 -0.8787 -0.4502 -0.0158
  651MOL0     O89736   8.425  10.327   7.454  0.5119  0.0606  0.1437
  651MOL0     C89737   8.307  10.257   7.403  0.2706 -0.3345  0.3704
  651MOL0     C89738   8.177  10.324   7.457  0.0715 -0.5425 -0.2151
  651MOL0     C89739   8.050  10.271   7.380 -0.1956 -0.1656 -0.5049
  651MOL0     C89740   7.922  10.343   7.411 -0.0133  0.1042  0.5042
  651MOL0     C89741   7.803  10.299   7.319 -0.8033 -0.1576  0.7760
  651MOL0     C89742   7.669  10.364   7.346  0.5037 -0.3773  0.4099
  651MOL0     C89743   7.551  10.294   7.278  0.0937  0.3478 -0.6825
  651MOL0     C89744   7.409  10.334   7.315  0.0976 -0.8249  0.3031
  651MOL0    Cl89745   7.353  10.496   7.235 -0.1941  0.0324 -0.0374
  651MOL0     C89746   8.427  10.194   7.668  0.0840  0.0296 -0.2501
  651MOL0     C89747   8.494  10.177   7.788 -0.1105  0.3749  0.3458
  651MOL0     O89748   8.787  10.419   7.980 -1.0326 -0.1077 -0.5793
  651MOL0     C89749   8.766  10.110   8.170 -0.1981 -0.1823 -0.9030
  651MOL0     C89750   8.773  10.049   8.294 -0.1098  0.4557  0.2885
  651MOL0     N89751   8.882  10.150   9.091 -0.3744 -0.2799  0.1502
  651MOL0     N89752   8.963  10.131   9.196  0.1520  0.2823  0.7534
  651MOL0     C89753  10.043   9.911   8.594  0.6387  0.3626  1.0915
  651MOL0     C89754  10.182   9.884   8.565  1.3777  0.8054  0.6804
  651MOL0     C89755  10.546   9.731   8.362  1.1779  0.2717  0.3833
  651MOL0     C89756  10.556   9.756   8.216  0.2648 -0.5647 -0.6630
  651MOL0     C89757  10.691   9.748   8.162  1.0863  0.0956 -0.2746
  651MOL0     C89758  10.801   9.717   8.244 -0.0476 -0.5975 -0.1160
  651MOL0     O89759  10.930   9.698   8.210  0.5833  0.2541  0.1074
  651MOL0     C89760  10.976   9.711   8.076 -0.4821  0.6858  0.3085
  651MOL0     C89761  11.120   9.676   8.063 -0.1795 -0.7086  0.4308
  651MOL0     C89762  11.204   9.813   8.077  0.5096 -0.7601  0.8144
  651MOL0     C89763  11.347   9.772   8.093 -0.1724  0.6489  0.2402
  651MOL0     C89764  11.436   9.884   8.072 -0.0869 -0.9310 -0.5232
  651MOL0     C89765  11.511   9.978   8.075 -0.2019  0.2187  0.2491
  651MOL0     C89766  10.789   9.700   8.382  0.6584 -1.0628 -1.0183
  651MOL0     C89767  10.659   9.698   8.440  0.3495 -0.4156 -0.5021
  651MOL0     C89768  10.650   9.682   8.589 -0.4861  0.0389  0.3848
  651MOL0     H89769  10.215   9.577   8.702 -2.2481 -0.6299  2.1894
  651MOL0     H89770   9.982   9.630   8.777  1.5136 -0.6499  0.8806
  651MOL0     H89771   9.864   9.849   8.930  2.0896 -0.1948 -2.3280
  651MOL0     H89772   9.788   9.707   8.859 -0.9061 -0.2964  0.4280
  651MOL0     H89773   9.700  10.004   8.840  1.3873 -0.4223 -2.3856
  651MOL0     H89774   9.613   9.879   8.764  0.5609  3.6112 -1.0912
  651MOL0     H89775   9.511   9.788   8.945  1.4392  0.8816 -4.2231
  651MOL0     H89776   9.640   9.838   9.053  0.9424  1.9117 -0.4182
  651MOL0     H89777   9.563  10.072   9.054  2.2709  0.6577 -2.4474
  651MOL0     H89778   9.440  10.052   8.929 -1.3009  0.4691  1.5628
  651MOL0     H89779   9.440   9.907   9.202 -2.0357 -1.0537 -0.5513
  651MOL0     H89780   9.326   9.884   9.070 -0.7117  1.0458 -2.5745
  651MOL0     H89781   9.381  10.156   9.200 -0.8651  1.6463 -1.6565
  651MOL0     H89782   9.246  10.106   9.104  0.6525  1.5566  1.0118
  651MOL0     H89783   9.189  10.134   9.346 -3.8240 -0.9342 -2.1855
  651MOL0     H89784   9.305   9.997   9.382  0.6652  1.0262 -0.2673
  651MOL0     H89785   9.155   9.850   9.254  2.7473  0.5183  1.7828
  651MOL0     H89786   9.061   9.935   9.374  1.0029  1.2559  1.3198
  651MOL0     H89787   9.027   9.861   9.031  1.3511  0.6325 -1.4716
  651MOL0     H89788   8.764  10.099   8.856 -0.6981 -0.6507 -0.9019
  651MOL0     H89789   8.717   9.949   8.941  0.3462 -1.7909 -2.1962
  651MOL0     H89790   8.917   9.824   8.853 -1.3899 -2.3124 -2.5063
  651MOL0     H89791   8.794   9.881   8.727 -2.0940  3.4855 -0.7515
  651MOL0     H89792   9.046  10.020   8.787 -0.0849 -0.8915  0.8123
  651MOL0     H89793   9.023   9.908   8.648  0.3743 -0.6364  1.8484
  651MOL0     H89794   8.889  10.188   8.677  0.4034 -0.4800  3.6211
  651MOL0     H89795   9.016  10.135   8.573  0.2660 -1.1539  0.4184
  651MOL0     H89796   8.908  10.313   8.463  1.0097  0.6968 -1.1478
  651MOL0     H89797   9.000  10.479   8.251 -0.6973  0.3294 -0.1150
  651MOL0     H89798   8.861  10.538   8.335 -1.9789  0.6344 -0.9063
  651MOL0     H89799   8.853  10.526   8.164 -0.3647 -2.2517 -1.7961
  651MOL0     H89800   8.713  10.439   7.769 -0.1555 -0.5451 -0.2152
  651MOL0     H89801   8.582  10.491   7.584 -1.7957  0.7074  0.9259
  651MOL0     H89802   8.314  10.258   7.294  0.7233 -0.0377  0.3978
  651MOL0     H89803   8.318  10.151   7.428 -1.1048 -0.8246 -0.9647
  651MOL0     H89804   8.182  10.312   7.566  1.4703 -1.0712 -0.3093
  651MOL0     H89805   8.172  10.430   7.432 -3.7201 -0.9827 -1.8761
  651MOL0     H89806   8.030  10.167   7.408 -0.6784  0.1935  0.5393
  651MOL0     H89807   8.068  10.288   7.274  1.1288 -0.7114 -0.3876
  651MOL0     H89808   7.933  10.451   7.403  3.4741 -0.1112  0.8445
  651MOL0     H89809   7.888  10.311   7.510  0.6118 -0.3741  0.5759
  651MOL0     H89810   7.829  10.317   7.214 -1.0922 -1.8191  0.3968
  651MOL0     H89811   7.789  10.192   7.336 -1.4802 -0.2507 -0.2595
  651MOL0     H89812   7.674  10.462   7.296  1.5302 -2.5706 -4.3017
  651MOL0     H89813   7.652  10.379   7.453  1.5945  1.6244  0.3577
  651MOL0     H89814   7.578  10.193   7.312  2.6879  0.7646 -1.2620
  651MOL0     H89815   7.555  10.296   7.168 -0.2020 -0.5168 -0.7174
  651MOL0     H89816   7.403  10.351   7.423 -0.0504  2.5777 -0.1198
  651MOL0     H89817   7.338  10.258   7.282 -0.1156 -1.3090  1.7959
  651MOL0     H89818   8.364  10.130   7.607 -0.7006  2.6923 -2.4228
  651MOL0     H89819   8.466  10.087   7.842 -1.9725 -0.0383 -1.2000
  651MOL0     H89820   8.722  10.054   8.088  0.3464  1.8674 -2.7027
  651MOL0     H89821   8.750   9.945   8.311  2.8898 -0.0647  1.7482
  651MOL0     H89822   9.981   9.996   8.567 -1.3478 -0.7192  2.0290
  651MOL0     H89823  10.231   9.955   8.499  1.1639 -1.7608 -2.4913
  651MOL0     H89824  10.468   9.783   8.160 -3.1236 -0.4244  4.1059
  651MOL0     H89825  10.704   9.745   8.054 -0.4506 -1.8677 -0.4801
  651MOL0     H89826  10.915   9.640   8.020 -1.4834  2.0314 -0.3719
  651MOL0     H89827  10.958   9.814   8.043  2.1800  1.4136  0.8964
  651MOL0     H89828  11.135   9.622   7.969 -3.0317 -0.4170 -0.2914
  651MOL0     H89829  11.157   9.618   8.147  0.3107  0.8601  1.3455
  651MOL0     H89830  11.192   9.866   7.982  0.7846 -3.2941 -0.7375
  651MOL0     H89831  11.167   9.875   8.159 -0.3495  0.0435 -0.1531
  651MOL0     H89832  11.384   9.699   8.021  0.4715 -0.0475  1.2524
  651MOL0     H89833  11.365   9.725   8.190  3.0699  1.3471  0.0772
  651MOL0     H89834  11.582  10.058   8.086  0.1100  0.2398 -1.5807
  651MOL0     H89835  10.871   9.668   8.445 -0.6542  1.5313  2.3209
  651MOL0     H89836  10.594   9.592   8.615  0.9265 -0.6446  1.1336
  651MOL0     H89837  10.743   9.678   8.646  1.2929 -0.1975 -2.3992
  651MOL0     H89838  10.596   9.775   8.611  1.2439  1.8279 -2.3863
  652MOL0     O89839   8.594  11.609   2.286 -0.1167 -0.7132 -0.2073
  652MOL0     C89840   8.713  11.626   2.260  0.5836 -0.2031 -0.0592
  652MOL0     O89841   8.814  11.624   2.354 -0.8866 -0.1781  1.0622
  652MOL0     C89842   8.796  11.582   2.477  0.4111  0.5436  0.3935
  652MOL0     C89843   8.755  11.665   2.583  0.0254 -0.3842 -0.8425
  652MOL0     C89844   8.743  11.612   2.715 -0.1234 -0.4747 -0.8603
  652MOL0     C89845   8.777  11.481   2.739  0.0515 -0.3611  0.6822
  652MOL0     O89846   8.786  11.450   2.874 -0.5177 -0.6495 -0.7295
  652MOL0     C89847   8.921  11.443   2.918 -0.0396 -1.2498 -0.0309
  652MOL0     C89848   8.944  11.515   3.053 -0.3623  0.4707  0.0282
  652MOL0     C89849   8.932  11.665   3.036 -0.5349  0.5299  0.2776
  652MOL0     C89850   8.931  11.744   3.171  0.6574  0.2906  0.5556
  652MOL0     C89851   8.939  11.898   3.154  0.5524  0.0299  0.4530
  652MOL0     C89852   9.080  11.955   3.094  0.3920 -0.0072 -0.4779
  652MOL0     C89853   9.113  12.103   3.099 -0.7835 -0.1353 -0.8201
  652MOL0     C89854   9.105  12.166   3.242 -1.0567  0.5981 -0.5854
  652MOL0     N89855   9.211  12.112   3.329 -0.7147 -0.2888  0.2589
  652MOL0     C89856   9.182  12.025   3.427  1.0679  0.0948 -0.5348
  652MOL0     C89857   9.307  12.029   3.488 -0.1900 -0.4951  0.2200
  652MOL0     C89858   9.343  11.961   3.627  0.7036  0.1281 -0.1016
  652MOL0     C89859   9.370  12.072   3.732 -0.0419  0.8009  0.7332
  652MOL0     C89860   9.272  12.184   3.741  0.7491 -0.7214 -0.1606
  652MOL0     C89861   9.328  12.303   3.829 -0.0695 -0.2131 -0.1124
  652MOL0     O89862   9.341  12.260   3.969  0.5513 -1.0920 -0.1906
  652MOL0     C89863   9.251  12.296   4.063 -0.5318  0.9867  0.7210
  652MOL0     C89864   9.274  12.252   4.194  0.3589 -1.2245  0.7778
  652MOL0     C89865   9.182  12.292   4.298 -0.2742  1.1498  0.7765
  652MOL0     C89866   9.225  12.267   4.437 -0.6112  0.8138 -1.6005
  652MOL0     C89867   9.052  12.350   4.267 -0.5875  0.0439 -0.9348
  652MOL0     C89868   8.962  12.407   4.365  0.1282  1.0877  0.1027
  652MOL0     O89869   8.835  12.428   4.332 -0.2792 -0.7234  0.5197
  652MOL0     C89870   8.741  12.492   4.419 -0.3723 -0.5339  0.3309
  652MOL0     C89871   8.724  12.468   4.556  0.0129 -0.2789 -0.3820
  652MOL0     C89872   8.621  12.540   4.621 -0.8815 -0.8736 -0.0260
  652MOL0     C89873   8.533  12.636   4.561 -0.2392 -0.5075  0.4260
  652MOL0     O89874   8.431  12.687   4.630 -1.2981 -0.5471 -0.1367
  652MOL0     C89875   8.423  12.822   4.669  0.5098  0.3105 -0.2279
  652MOL0     C89876   8.286  12.874   4.717 -0.0992 -0.1876 -0.0490
  652MOL0     C89877   8.201  12.925   4.605  0.4177 -1.1839 -0.1505
  652MOL0     C89878   8.161  12.795   4.521  0.4550  0.1640  0.6419
  652MOL0     C89879   8.059  12.825   4.408  0.2098 -0.0415  0.0825
  652MOL0     C89880   8.028  12.705   4.305 -0.7450 -0.5796 -0.4505
  652MOL0     C89881   7.960  12.745   4.168 -0.3650 -0.3489  0.1165
  652MOL0     C89882   7.826  12.813   4.185  0.1927  0.1722 -0.0858
  652MOL0    Cl89883   7.702  12.704   4.214 -0.0068  0.2057 -1.0769
  652MOL0     C89884   8.557  12.668   4.429  0.4159 -1.7175  0.2309
  652MOL0     C89885   8.654  12.599   4.359  0.1417  0.6978 -0.6026
  652MOL0     O89886   9.011  12.439   4.472  0.5888 -0.4267 -0.2206
  652MOL0     C89887   9.024  12.364   4.129  0.5890  0.4236 -0.7176
  652MOL0     C89888   9.123  12.349   4.039  0.0658  0.6014  0.3759
  652MOL0     N89889   9.400  12.114   3.427 -1.1074 -0.2987 -0.6938
  652MOL0     N89890   9.330  12.171   3.337 -0.5394  0.7008 -0.6623
  652MOL0     C89891   8.801  11.394   2.634 -0.6378 -0.0894  0.9007
  652MOL0     C89892   8.817  11.446   2.503  0.1073 -0.0902 -0.0184
  652MOL0     C89893   8.745  11.661   2.121 -0.7677  0.3479 -1.0340
  652MOL0     C89894   8.638  11.679   2.038 -0.1989 -0.2906  0.5440
  652MOL0     C89895   8.644  11.729   1.908  0.5217 -0.7246  0.5226
  652MOL0     C89896   8.771  11.755   1.852 -0.4072 -0.8710  0.1072
  652MOL0     O89897   8.798  11.800   1.725  0.2790  0.0422 -0.1763
  652MOL0     C89898   8.702  11.803   1.615  0.4074  0.4562  0.8484
  652MOL0     C89899   8.773  11.788   1.480 -0.1923 -0.5029 -0.4261
  652MOL0     C89900   8.702  11.763   1.351  0.5409  0.2285 -0.2410
  652MOL0     C89901   8.596  11.869   1.323 -0.9267  1.1290 -0.1825
  652MOL0     C89902   8.466  11.841   1.395  0.2316  1.0024  0.1781
  652MOL0     C89903   8.369  11.806   1.466  0.7248 -0.2829  0.2468
  652MOL0     C89904   8.882  11.726   1.933  0.0881 -0.8755 -0.2844
  652MOL0     C89905   8.867  11.677   2.066 -0.3576 -0.1415 -0.5425
  652MOL0     C89906   8.995  11.638   2.129  0.4361 -0.0214 -0.8561
  652MOL0     H89907   8.735  11.771   2.568  1.1828 -0.2718 -1.8342
  652MOL0     H89908   8.714  11.671   2.801  1.7434 -2.8267  1.5046
  652MOL0     H89909   8.999  11.497   2.863  1.6336 -1.1438  2.3058
  652MOL0     H89910   8.953  11.339   2.922  0.3478 -1.1183  0.3772
  652MOL0     H89911   8.876  11.483   3.132  1.9942  1.0745  2.4412
  652MOL0     H89912   9.042  11.486   3.093 -1.3216 -3.5029 -0.0287
  652MOL0     H89913   9.016  11.678   2.967 -1.5757  1.3281 -0.8884
  652MOL0     H89914   8.833  11.677   2.991 -0.7761 -1.4808  0.1835
  652MOL0     H89915   8.842  11.704   3.221  1.2682 -0.8329  0.7599
  652MOL0     H89916   9.024  11.715   3.221  2.1448  1.3023 -1.4548
  652MOL0     H89917   8.917  11.945   3.250  4.9342 -1.0762  2.2595
  652MOL0     H89918   8.867  11.924   3.076  0.1495  1.0305  1.1390
  652MOL0     H89919   9.167  11.916   3.149 -0.1163 -0.0039  0.3530
  652MOL0     H89920   9.089  11.929   2.988  2.2151  1.1591 -0.6525
  652MOL0     H89921   9.041  12.157   3.036  1.9276  0.4541 -3.6653
  652MOL0     H89922   9.210  12.128   3.055 -1.4668 -1.7846 -3.5142
  652MOL0     H89923   9.115  12.275   3.238 -0.6084  0.6137  0.5236
  652MOL0     H89924   9.009  12.149   3.291 -0.2539  0.3222  0.9634
  652MOL0     H89925   9.093  11.972   3.458  0.7371 -0.1676 -1.8919
  652MOL0     H89926   9.439  11.911   3.616  1.7270  1.3833  2.4774
  652MOL0     H89927   9.260  11.899   3.661  0.4846  0.2380 -0.4261
  652MOL0     H89928   9.366  12.030   3.832 -1.7695  2.2870  1.3282
  652MOL0     H89929   9.471  12.112   3.716  0.7527 -1.2472  0.3458
  652MOL0     H89930   9.250  12.222   3.641 -4.2795  1.7798  1.5271
  652MOL0     H89931   9.175  12.164   3.788  0.8879  0.6794  0.8151
  652MOL0     H89932   9.421  12.346   3.794  1.4791 -1.3511  2.3302
  652MOL0     H89933   9.258  12.386   3.819 -0.2123 -0.3838 -0.5375
  652MOL0     H89934   9.376  12.221   4.216  0.9230  0.9323  1.5182
  652MOL0     H89935   9.306  12.193   4.442 -0.5692  0.4713 -4.9000
  652MOL0     H89936   9.147  12.237   4.508 -0.3564  2.6113 -0.5141
  652MOL0     H89937   9.270  12.357   4.479  1.9639 -1.1264  0.1815
  652MOL0     H89938   8.793  12.404   4.610 -1.6997 -0.8943  1.2103
  652MOL0     H89939   8.603  12.532   4.728  2.0018  1.9111  0.8436
  652MOL0     H89940   8.484  12.820   4.761 -0.5329 -0.8597  0.4626
  652MOL0     H89941   8.465  12.895   4.599 -0.2522  0.3712 -0.6207
  652MOL0     H89942   8.236  12.794   4.772 -2.8131  1.4512  0.0281
  652MOL0     H89943   8.303  12.953   4.791 -7.3080  1.3180  0.8022
  652MOL0     H89944   8.235  13.013   4.550 -1.6866  0.2285  0.7227
  652MOL0     H89945   8.106  12.962   4.643 -0.0674 -0.4940 -1.9467
  652MOL0     H89946   8.115  12.730   4.595 -1.4785  0.2406 -0.4295
  652MOL0     H89947   8.251  12.750   4.477  0.7572  1.9754 -0.7170
  652MOL0     H89948   7.964  12.858   4.452  0.4025 -0.0137  0.4861
  652MOL0     H89949   8.099  12.912   4.355  1.5688 -0.4316  0.4349
  652MOL0     H89950   7.983  12.629   4.369  0.4476 -0.8860  0.0492
  652MOL0     H89951   8.122  12.656   4.278 -1.2412 -1.8756  0.1081
  652MOL0     H89952   7.944  12.648   4.120 -1.5511  0.1268 -0.4980
  652MOL0     H89953   8.027  12.814   4.115  1.5289 -1.7951  0.4984
  652MOL0     H89954   7.797  12.856   4.089 -0.5802 -0.6905 -0.2483
  652MOL0     H89955   7.818  12.899   4.252  2.8401  1.0620 -0.8021
  652MOL0     H89956   8.487  12.734   4.379  0.6925 -0.1181  1.8296
  652MOL0     H89957   8.660  12.601   4.251 -0.2544 -1.4715 -0.7099
  652MOL0     H89958   8.933  12.417   4.101  0.2855  2.9782  4.1019
  652MOL0     H89959   9.081  12.357   3.939  0.9225  0.3671 -0.0095
  652MOL0     H89960   8.836  11.292   2.649  2.6694  0.8410  0.3017
  652MOL0     H89961   8.856  11.388   2.419 -1.1380 -0.4972 -0.3419
  652MOL0     H89962   8.540  11.679   2.085  0.6263 -2.6941  2.4719
  652MOL0     H89963   8.553  11.766   1.861  0.0364 -1.0877  1.1658
  652MOL0     H89964   8.654  11.705   1.614  2.5163 -0.6638 -0.8064
  652MOL0     H89965   8.622  11.876   1.623  0.6435  0.8256 -0.0132
  652MOL0     H89966   8.835  11.699   1.488  0.0058 -0.4756 -1.5881
  652MOL0     H89967   8.837  11.876   1.465  0.0573  0.2678  3.8392
  652MOL0     H89968   8.762  11.736   1.264  1.3120 -1.6300  0.8061
  652MOL0     H89969   8.652  11.667   1.367 -0.7085  0.7412 -0.9092
  652MOL0     H89970   8.585  11.861   1.215  0.7197 -0.0475 -0.3062
  652MOL0     H89971   8.624  11.972   1.345 -1.1750  1.3738 -0.9992
  652MOL0     H89972   8.294  11.761   1.528 -0.1034 -0.6384 -0.9886
  652MOL0     H89973   8.979  11.742   1.886  0.4156 -1.1686  0.2849
  652MOL0     H89974   9.027  11.707   2.208  1.1091 -2.4983  1.1604
  652MOL0     H89975   8.972  11.539   2.168  1.0424  0.0836 -0.2280
  652MOL0     H89976   9.079  11.628   2.060 -0.1222 -1.4207 -1.3556
  653MOL0     O89977  10.135   6.554   9.992  0.0788 -0.1831  1.4220
  653MOL0     C89978  10.078   6.554   9.878 -0.3632  0.6421  0.6979
  653MOL0     O89979  10.141   6.562   9.746  0.5196 -0.1689 -1.2072
  653MOL0     C89980  10.279   6.553   9.733  0.4678  2.0399 -0.1343
  653MOL0     C89981  10.337   6.619   9.626 -1.0994  0.2326  0.6348
  653MOL0     C89982  10.473   6.619   9.602  0.1515  0.3860  0.0730
  653MOL0     C89983  10.556   6.546   9.676 -0.9515 -0.4902 -0.7768
  653MOL0     O89984  10.688   6.523   9.644  0.5401 -1.1010 -1.0569
  653MOL0     C89985  10.705   6.510   9.502 -0.5120  0.0600  0.8376
  653MOL0     C89986  10.853   6.523   9.484  0.2326 -0.0674  0.5686
  653MOL0     C89987  10.904   6.661   9.500  0.5442 -0.5495  0.5509
  653MOL0     C89988  11.004   6.683   9.612 -0.0029 -0.0435  0.3677
  653MOL0     C89989  11.068   6.823   9.606  0.5883  0.3371 -0.2306
  653MOL0     C89990  11.184   6.827   9.698 -0.1565  0.3022 -0.2186
  653MOL0     C89991  11.264   6.960   9.680  0.0779 -0.6590 -0.3458
  653MOL0     C89992  11.329   6.978   9.539 -0.1821  0.0782 -0.1195
  653MOL0     N89993  11.480   7.015   9.543  0.3639 -0.0740 -0.3371
  653MOL0     C89994  11.576   6.929   9.492 -0.4142 -0.7728 -0.0735
  653MOL0     C89995  11.693   7.009   9.518  0.8167 -0.5910 -0.9071
  653MOL0     C89996  11.821   6.983   9.444 -0.2764  0.1713 -0.1026
  653MOL0     C89997  11.877   7.117   9.375 -0.1238  1.1024  0.5137
  653MOL0     C89998  11.776   7.187   9.285  0.6488 -0.1879 -0.3185
  653MOL0     C89999  11.757   7.130   9.150 -0.4002  0.7832 -0.0204
  653MOL0     O90000  11.652   7.207   9.084 -0.1052 -0.2188  0.0182
  653MOL0     C90001  11.530   7.164   9.068  0.9676  0.0038 -0.1400
  653MOL0     C90002  11.500   7.039   9.027  0.9385  0.1176  0.0548
  653MOL0     C90003  11.371   6.990   9.023  0.3381 -0.0928  0.1127
  653MOL0     C90004  11.348   6.849   8.971 -0.1542  0.4272  0.6751
  653MOL0     C90005  11.257   7.076   9.061 -0.0716 -0.0367  0.3072
  653MOL0     C90006  11.122   7.034   9.057  0.7322 -0.9365 -1.5680
  653MOL0     O90007  11.028   7.135   9.015  0.0784  0.5671 -0.0631
  653MOL0     C90008  10.884   7.123   9.028 -0.0299  0.8385 -0.0902
  653MOL0     C90009  10.818   7.249   9.018  0.5172 -0.9845  0.5488
  653MOL0     C90010  10.675   7.254   9.012  0.3837 -0.3796 -0.7485
  653MOL0     C90011  10.600   7.134   9.019  0.1703  0.4733 -0.6123
  653MOL0     O90012  10.459   7.126   9.013  0.1721  0.7327  0.5545
  653MOL0     C90013  10.380   7.108   9.133 -0.3058  0.4735  1.0038
  653MOL0     C90014  10.397   7.222   9.245  0.4902  0.7639  0.3457
  653MOL0     C90015  10.291   7.211   9.349  0.2472  0.3191 -0.2606
  653MOL0     C90016  10.275   7.077   9.426 -0.0162  0.5941  0.3302
  653MOL0     C90017  10.198   7.097   9.558 -0.8479 -0.1063 -1.1050
  653MOL0     C90018  10.219   6.981   9.664 -0.2570 -0.3864 -0.6571
  653MOL0     C90019  10.135   7.003   9.788  0.7896 -0.9221  0.1174
  653MOL0     C90020  10.088   6.874   9.847 -0.5414  0.2424 -0.3774
  653MOL0    Cl90021   9.974   6.922   9.969  0.4798 -0.0401 -0.2868
  653MOL0     C90022  10.668   7.010   9.039  1.0728  0.3853  0.3662
  653MOL0     C90023  10.806   7.000   9.030 -0.6051 -0.2157  0.4400
  653MOL0     O90024  11.088   6.914   9.088 -0.1867 -0.1802 -0.0817
  653MOL0     C90025  11.288   7.204   9.092 -0.6673 -0.1147 -0.5243
  653MOL0     C90026  11.421   7.238   9.102  0.3374 -0.2649  0.4286
  653MOL0     N90027  11.660   7.120   9.587  0.8530  0.3676  0.3610
  653MOL0     N90028  11.534   7.124   9.598  0.3237 -0.4083 -0.7314
  653MOL0     C90029  10.502   6.476   9.784  0.6934 -0.9106 -0.4269
  653MOL0     C90030  10.370   6.481   9.813  0.9267 -0.4821  0.0804
  653MOL0     C90031   9.928   6.567   9.872  1.3490  0.6574 -0.2891
  653MOL0     C90032   9.864   6.546   9.997  1.1531  0.0539  0.2023
  653MOL0     C90033   9.723   6.555  10.000  0.3665 -0.2230 -0.2776
  653MOL0     C90034   9.641   6.584   9.893 -0.6021  0.4370 -0.6665
  653MOL0     O90035   9.505   6.599   9.918 -0.2514  0.7957 -0.4739
  653MOL0     C90036   9.431   6.678   9.828 -0.8545  0.8956  0.6978
  653MOL0     C90037   9.364   6.581   9.722 -0.4502  0.0019  0.8397
  653MOL0     C90038   9.276   6.459   9.776  0.1197  0.4063 -0.9886
  653MOL0     C90039   9.229   6.362   9.666  0.4147  0.6789 -0.1724
  653MOL0     C90040   9.117   6.414   9.575 -0.8582 -0.0792 -0.7861
  653MOL0     C90041   9.030   6.484   9.534  0.6195  0.2371 -0.2093
  653MOL0     C90042   9.703   6.605   9.775 -0.7213  0.0638 -0.9757
  653MOL0     C90043   9.846   6.598   9.760 -0.4577 -0.1241 -0.0209
  653MOL0     C90044   9.899   6.620   9.616 -0.0753 -1.1028  0.4092
  653MOL0     H90045  10.273   6.670   9.556  0.5092 -2.2389 -2.9463
  653MOL0     H90046  10.512   6.672   9.516  0.5082 -1.7590 -1.1780
  653MOL0     H90047  10.663   6.583   9.432  1.4371  1.7606  1.3191
  653MOL0     H90048  10.676   6.412   9.463 -3.1839  2.1569 -3.1584
  653MOL0     H90049  10.903   6.463   9.561  0.2073  1.5180  1.8867
  653MOL0     H90050  10.887   6.467   9.397  1.7803 -0.0986  1.1634
  653MOL0     H90051  10.945   6.689   9.403 -0.5957 -0.4602  0.0856
  653MOL0     H90052  10.823   6.731   9.521  1.1441  0.3862 -0.1411
  653MOL0     H90053  10.951   6.658   9.704 -1.2277 -1.4671 -0.6796
  653MOL0     H90054  11.086   6.612   9.596  1.1761  1.1002  1.1432
  653MOL0     H90055  10.987   6.893   9.627  0.2882 -0.4272  1.3282
  653MOL0     H90056  11.096   6.841   9.502  0.4897  2.5100  0.0766
  653MOL0     H90057  11.152   6.823   9.802  1.6900 -0.2657  0.3640
  653MOL0     H90058  11.241   6.735   9.687  0.5546  0.8060 -0.8474
  653MOL0     H90059  11.343   6.960   9.756 -1.2988 -1.5033  1.1513
  653MOL0     H90060  11.201   7.048   9.695 -3.2852 -1.8008 -5.3748
  653MOL0     H90061  11.321   6.879   9.493 -0.9045 -0.1482  0.4727
  653MOL0     H90062  11.282   7.058   9.481  0.2666 -0.8657 -1.8561
  653MOL0     H90063  11.566   6.840   9.431  2.2373  0.5969 -2.7907
  653MOL0     H90064  11.800   6.904   9.371 -0.3823  0.6405 -0.5875
  653MOL0     H90065  11.902   6.944   9.506 -1.9202 -0.6269  1.6413
  653MOL0     H90066  11.907   7.180   9.459 -0.6315  4.1720 -1.4570
  653MOL0     H90067  11.963   7.108   9.308  1.7191 -0.2377  2.8959
  653MOL0     H90068  11.685   7.194   9.345  1.3274  0.0804  0.6980
  653MOL0     H90069  11.823   7.285   9.272 -0.0930  0.8677  3.6468
  653MOL0     H90070  11.852   7.133   9.095  0.1572 -3.3055  0.4182
  653MOL0     H90071  11.724   7.026   9.157 -0.1719  0.5535 -1.8267
  653MOL0     H90072  11.581   6.977   8.990  0.3020  0.8756 -2.8717
  653MOL0     H90073  11.444   6.806   8.938 -1.3828 -0.8161 -1.5490
  653MOL0     H90074  11.276   6.841   8.889  1.5672  3.2467 -1.2954
  653MOL0     H90075  11.315   6.782   9.051  0.6053 -0.1721  0.5086
  653MOL0     H90076  10.865   7.346   9.022 -2.2648  0.5516 -0.8047
  653MOL0     H90077  10.625   7.350   8.998  2.8719  1.0724 -0.2062
  653MOL0     H90078  10.281   7.094   9.089  0.3001 -0.5522 -0.1128
  653MOL0     H90079  10.409   7.016   9.185 -0.1760  1.5329  2.8738
  653MOL0     H90080  10.495   7.230   9.293 -1.1012 -0.0069  4.1358
  653MOL0     H90081  10.371   7.310   9.185  2.2901  0.2228 -1.2927
  653MOL0     H90082  10.194   7.233   9.304 -0.5227 -1.1843  0.5968
  653MOL0     H90083  10.320   7.292   9.417 -0.9325 -0.6411  1.4653
  653MOL0     H90084  10.375   7.037   9.447  0.3199  1.4385  0.4147
  653MOL0     H90085  10.223   6.997   9.374  3.3203 -1.8150  0.3723
  653MOL0     H90086  10.241   7.188   9.599  3.6544 -2.2407 -0.4121
  653MOL0     H90087  10.095   7.107   9.523 -0.1402  1.9310 -2.8014
  653MOL0     H90088  10.325   6.988   9.689 -0.8300  1.9891  1.4739
  653MOL0     H90089  10.194   6.887   9.614  1.7313 -0.7324 -1.0957
  653MOL0     H90090  10.041   7.050   9.758 -0.6791 -2.3905  2.1050
  653MOL0     H90091  10.195   7.057   9.862  2.7181 -0.5712 -1.6165
  653MOL0     H90092  10.173   6.818   9.886  0.4002 -0.2692 -2.9508
  653MOL0     H90093  10.037   6.818   9.768  2.1043 -2.0612 -0.6102
  653MOL0     H90094  10.622   6.913   9.054 -3.4863  2.5134  2.1152
  653MOL0     H90095  10.872   6.914   9.031  1.9727  1.6623  0.8858
  653MOL0     H90096  11.208   7.267   9.129  0.1385 -1.1605  3.4804
  653MOL0     H90097  11.452   7.333   9.143 -1.8131  0.2015  1.1343
  653MOL0     H90098  10.572   6.416   9.841  1.3255  0.3252  0.1386
  653MOL0     H90099  10.342   6.429   9.905  0.6179 -0.6046 -0.0820
  653MOL0     H90100   9.915   6.518  10.088  0.9735  1.2416  0.6874
  653MOL0     H90101   9.679   6.555  10.099  2.4948  1.8150  0.7775
  653MOL0     H90102   9.352   6.725   9.888 -2.8797  2.5318 -2.9083
  653MOL0     H90103   9.492   6.756   9.782 -0.7092  0.5730  0.3449
  653MOL0     H90104   9.442   6.549   9.653  0.7391  2.4116  0.9580
  653MOL0     H90105   9.300   6.653   9.670 -2.6459 -0.6694  2.4507
  653MOL0     H90106   9.337   6.412   9.854  0.0611  2.3475  0.3031
  653MOL0     H90107   9.190   6.496   9.832  1.5941 -2.1915  3.4269
  653MOL0     H90108   9.196   6.263   9.701 -1.1316  1.7859  1.6484
  653MOL0     H90109   9.321   6.345   9.609  0.3730 -1.1066  0.2143
  653MOL0     H90110   8.958   6.549   9.488  1.8432  0.4234 -1.9767
  653MOL0     H90111   9.647   6.608   9.682 -0.0982 -2.3372 -1.4971
  653MOL0     H90112   9.816   6.654   9.553  0.6938  2.3383  1.0110
  653MOL0     H90113   9.980   6.694   9.610 -1.0926  0.1107  0.9640
  653MOL0     H90114   9.938   6.522   9.588 -0.9071 -1.8279  1.6785
  654MOL0     O90115   9.586   1.696   7.084  0.3646 -0.6342 -0.2220
  654MOL0     C90116   9.646   1.792   7.138 -0.5217 -0.3852 -0.9320
  654MOL0     O90117   9.767   1.856   7.087  0.4518 -0.1181 -0.2058
  654MOL0     C90118   9.779   1.858   6.952  0.0300  0.0384  0.0178
  654MOL0     C90119   9.753   1.760   6.858  0.8502  0.3643  0.6809
  654MOL0     C90120   9.770   1.778   6.718 -0.7967  0.1486 -0.2699
  654MOL0     C90121   9.815   1.897   6.668  0.5867 -0.0137  0.6100
  654MOL0     O90122   9.834   1.936   6.537 -0.8619 -0.4568  0.0775
  654MOL0     C90123   9.777   1.851   6.438 -0.2791 -0.2568  0.7161
  654MOL0     C90124   9.762   1.897   6.294  0.1494 -1.3986  0.3012
  654MOL0     C90125   9.729   1.772   6.197 -0.3983 -0.2360 -0.4858
  654MOL0     C90126   9.677   1.812   6.061  0.8548  0.0297 -0.0988
  654MOL0     C90127   9.665   1.695   5.974  0.5030 -0.5984  1.6232
  654MOL0     C90128   9.614   1.741   5.829  0.1511  0.4656 -2.1693
  654MOL0     C90129   9.736   1.791   5.751 -0.7046 -0.6435 -0.2837
  654MOL0     C90130   9.720   1.834   5.596  0.3954 -0.3199  0.5864
  654MOL0     N90131   9.655   1.704   5.549  0.1423  0.0627  0.2227
  654MOL0     C90132   9.725   1.591   5.518  0.5466  0.6910  0.1980
  654MOL0     C90133   9.641   1.523   5.445 -0.1900  0.1217  0.4579
  654MOL0     C90134   9.672   1.389   5.388  0.2446  0.2140 -0.4379
  654MOL0     C90135   9.643   1.285   5.507  0.6468 -0.2776  0.1729
  654MOL0     C90136   9.691   1.144   5.459  0.2847 -0.1753 -0.1874
  654MOL0     C90137   9.658   1.037   5.561  0.1091 -0.1264  0.2140
  654MOL0     O90138   9.667   0.907   5.494  0.4803 -0.8584 -0.1506
  654MOL0     C90139   9.660   0.810   5.589 -0.0736  0.2734 -0.3409
  654MOL0     C90140   9.751   0.777   5.684 -0.9217 -0.2324 -0.7497
  654MOL0     C90141   9.734   0.669   5.773  0.7659 -1.0315 -0.1297
  654MOL0     C90142   9.846   0.643   5.873  0.4868  0.4555 -0.2137
  654MOL0     C90143   9.615   0.591   5.763 -1.0031  0.4700  0.2572
  654MOL0     C90144   9.587   0.480   5.858  0.0106 -0.6477 -0.2733
  654MOL0     O90145   9.636   0.359   5.844 -0.1269  0.9429 -0.9374
  654MOL0     C90146   9.666   0.299   5.969  0.0940  0.7400  0.7127
  654MOL0     C90147   9.683   0.359   6.095 -0.8212 -0.1129  0.1493
  654MOL0     C90148   9.715   0.276   6.206  1.3042  0.1055 -0.6147
  654MOL0     C90149   9.741   0.130   6.197  0.2029  0.8233  0.1796
  654MOL0     O90150   9.768   0.035   6.297 -0.0094 -0.3201 -0.2639
  654MOL0     C90151   9.808   0.089   6.427  0.4112  0.1955  0.6004
  654MOL0     C90152   9.956   0.127   6.417 -0.3769  0.4897 -0.5393
  654MOL0     C90153  10.006   0.162   6.557 -0.1941 -0.0216  0.9033
  654MOL0     C90154   9.950   0.289   6.611 -0.2084 -1.1255  0.3364
  654MOL0     C90155  10.032   0.346   6.738  0.5840  0.0949  0.4039
  654MOL0     C90156   9.946   0.455   6.794  1.0906  0.2331  0.2411
  654MOL0     C90157  10.003   0.523   6.919 -0.4289 -0.2206  0.2982
  654MOL0     C90158  10.105   0.634   6.895 -0.3227 -0.0159 -0.1242
  654MOL0    Cl90159  10.035   0.758   6.795  0.8522 -0.1716 -0.4767
  654MOL0     C90160   9.735   0.074   6.061  0.4399  0.3887  0.3928
  654MOL0     C90161   9.690   0.158   5.958 -0.0504 -0.1519 -0.0347
  654MOL0     O90162   9.502   0.520   5.945  0.4042 -0.4676  1.0861
  654MOL0     C90163   9.519   0.635   5.669 -0.9402  0.2995  0.4953
  654MOL0     C90164   9.543   0.738   5.582  0.2947  0.5759  0.7396
  654MOL0     N90165   9.528   1.589   5.418  0.0835 -1.2024 -0.3290
  654MOL0     N90166   9.533   1.695   5.489  0.8373  1.0901  0.0283
  654MOL0     C90167   9.834   1.998   6.762 -0.2357  0.4431 -0.0567
  654MOL0     C90168   9.814   1.980   6.898  0.8113 -0.1382 -0.1395
  654MOL0     C90169   9.614   1.850   7.270 -0.0023 -0.8596 -0.3830
  654MOL0     C90170   9.653   1.987   7.302  0.3220 -0.1140 -0.5770
  654MOL0     C90171   9.656   2.039   7.433 -0.3863  0.6303  0.7648
  654MOL0     C90172   9.574   1.974   7.523 -0.4431  0.9310  0.2722
  654MOL0     O90173   9.550   2.010   7.642  0.3285  1.3802 -0.7998
  654MOL0     C90174   9.603   2.133   7.691  0.3258  0.5869 -0.0791
  654MOL0     C90175   9.536   2.177   7.817 -0.4520  1.2617  0.1300
  654MOL0     C90176   9.557   2.079   7.932 -0.8544 -0.4448 -0.4725
  654MOL0     C90177   9.482   2.117   8.059 -0.2328  0.3502 -1.0253
  654MOL0     C90178   9.527   2.031   8.173  0.5116  0.0071  0.5501
  654MOL0     C90179   9.569   1.973   8.273 -0.1559  0.0404  0.3725
  654MOL0     C90180   9.531   1.843   7.497 -0.4833 -0.3279 -0.8385
  654MOL0     C90181   9.548   1.782   7.370  0.5926  0.4267 -0.3807
  654MOL0     C90182   9.501   1.642   7.349 -0.5908  0.4846 -0.1558
  654MOL0     H90183   9.728   1.666   6.908  1.5091  0.4621  1.1990
  654MOL0     H90184   9.748   1.691   6.657  0.9375 -0.0008 -0.7332
  654MOL0     H90185   9.676   1.828   6.472  0.4672 -0.5943  2.8076
  654MOL0     H90186   9.842   1.764   6.426 -1.2646 -0.6423 -4.1581
  654MOL0     H90187   9.701   1.986   6.272  5.4187  1.7848 -3.8739
  654MOL0     H90188   9.861   1.932   6.264  0.4196 -3.2310 -1.1396
  654MOL0     H90189   9.808   1.696   6.191 -1.5422 -2.1138  4.0527
  654MOL0     H90190   9.647   1.723   6.250 -1.9082  0.4298 -2.1377
  654MOL0     H90191   9.590   1.874   6.084 -0.7045 -2.0143 -0.2730
  654MOL0     H90192   9.742   1.896   6.034  1.1559  1.0616  3.3255
  654MOL0     H90193   9.587   1.632   6.018 -2.3128 -0.1009 -2.1809
  654MOL0     H90194   9.756   1.635   5.967  3.3721  3.5561 -1.7972
  654MOL0     H90195   9.570   1.661   5.769 -0.7833 -0.0171 -0.8986
  654MOL0     H90196   9.541   1.821   5.840  1.5870  1.9766 -3.1967
  654MOL0     H90197   9.805   1.705   5.750  0.0113 -0.2624 -4.6901
  654MOL0     H90198   9.795   1.867   5.803 -2.1370  0.6342 -0.4565
  654MOL0     H90199   9.649   1.915   5.583 -1.1541 -2.0331 -3.0544
  654MOL0     H90200   9.810   1.863   5.541 -3.1222 -0.2271 -6.1857
  654MOL0     H90201   9.822   1.558   5.554  0.8915  1.0347 -0.3971
  654MOL0     H90202   9.780   1.380   5.369  0.8617  1.2120  2.1694
  654MOL0     H90203   9.613   1.363   5.300 -0.7380  1.0061 -0.0347
  654MOL0     H90204   9.681   1.312   5.606 -2.5098  0.1479  1.3566
  654MOL0     H90205   9.538   1.271   5.531  0.3122 -0.3006 -1.2383
  654MOL0     H90206   9.637   1.112   5.369 -0.2653  2.7085 -0.9826
  654MOL0     H90207   9.797   1.148   5.430 -0.4061 -2.6977 -3.7116
  654MOL0     H90208   9.729   1.051   5.643 -0.5546  0.7640  0.6626
  654MOL0     H90209   9.558   1.052   5.603 -0.5685  0.9116 -1.6635
  654MOL0     H90210   9.842   0.836   5.695 -0.7076 -0.5209 -0.9478
  654MOL0     H90211   9.802   0.609   5.967 -0.2281 -1.7286 -1.2540
  654MOL0     H90212   9.913   0.728   5.889  2.9402 -1.8114  2.5962
  654MOL0     H90213   9.898   0.552   5.842  0.3635 -0.1741  1.3603
  654MOL0     H90214   9.681   0.464   6.119  1.5726 -0.2681  1.3076
  654MOL0     H90215   9.741   0.329   6.296 -2.3512  2.5726 -0.8035
  654MOL0     H90216   9.740   0.163   6.471 -0.0809 -1.3582  2.5973
  654MOL0     H90217   9.810  -0.000   6.489  0.1361 -1.7888 -2.0488
  654MOL0     H90218  10.013   0.041   6.381 -1.0170 -0.0506 -0.2629
  654MOL0     H90219   9.971   0.219   6.360  3.4511  0.9441  0.9095
  654MOL0     H90220  10.114   0.170   6.542  0.2452 -2.1359  2.4132
  654MOL0     H90221   9.988   0.078   6.625  0.0906 -0.4318  0.4863
  654MOL0     H90222   9.844   0.285   6.636 -0.6509  0.4939 -1.0370
  654MOL0     H90223   9.955   0.361   6.529  3.5577 -1.7029 -0.1244
  654MOL0     H90224  10.042   0.257   6.800  4.3157  0.0361 -0.0937
  654MOL0     H90225  10.127   0.389   6.704 -0.9501  2.5758 -1.0623
  654MOL0     H90226   9.855   0.401   6.819  2.7946 -2.7161  0.5471
  654MOL0     H90227   9.929   0.529   6.715 -0.8871  1.4754  1.7345
  654MOL0     H90228  10.050   0.466   6.999  0.8970  0.3673 -0.0268
  654MOL0     H90229   9.910   0.565   6.958  0.6373  1.7703  0.8392
  654MOL0     H90230  10.185   0.583   6.841 -0.3406 -1.6015  1.2585
  654MOL0     H90231  10.142   0.677   6.988 -2.4638 -0.5223  1.0251
  654MOL0     H90232   9.739  -0.034   6.049 -1.6455  0.3274 -0.1771
  654MOL0     H90233   9.690   0.111   5.860  4.3345  1.0565 -0.8594
  654MOL0     H90234   9.419   0.593   5.661 -1.6278  2.1384 -1.5556
  654MOL0     H90235   9.467   0.764   5.509  1.9630 -0.1310 -1.3332
  654MOL0     H90236   9.854   2.095   6.716 -1.3786 -0.1543 -1.9400
  654MOL0     H90237   9.821   2.067   6.963 -1.0226  4.2152 -5.0582
  654MOL0     H90238   9.704   2.053   7.232 -2.8413  2.3030 -0.7975
  654MOL0     H90239   9.709   2.132   7.450  2.4777 -0.3821 -1.8558
  654MOL0     H90240   9.710   2.122   7.708 -0.0112 -0.2481  1.9048
  654MOL0     H90241   9.576   2.207   7.616 -0.1189 -0.0969 -0.6097
  654MOL0     H90242   9.431   2.173   7.785 -0.1675 -0.1026 -0.7601
  654MOL0     H90243   9.577   2.278   7.825  1.7728  0.5105 -0.9437
  654MOL0     H90244   9.511   1.991   7.887 -0.7959 -1.5939  1.6148
  654MOL0     H90245   9.662   2.057   7.955 -0.5212  2.1161  0.8743
  654MOL0     H90246   9.374   2.123   8.045  0.0224  2.7819 -2.6199
  654MOL0     H90247   9.512   2.219   8.087 -1.0105  0.4023 -0.3452
  654MOL0     H90248   9.608   1.913   8.353 -1.8146 -1.1188  0.3782
  654MOL0     H90249   9.488   1.775   7.570  3.1321 -0.5635  1.2878
  654MOL0     H90250   9.452   1.632   7.251 -1.8947 -3.8231  0.6871
  654MOL0     H90251   9.583   1.570   7.343  1.2563  2.2184  2.4612
  654MOL0     H90252   9.434   1.613   7.430  0.9986  0.9410  1.3709
  655MOL0     O90253   6.341   8.406   3.643  0.7811 -0.0807 -0.4573
  655MOL0     C90254   6.459   8.424   3.666 -0.6489  0.2082 -0.0365
  655MOL0     O90255   6.515   8.540   3.696  0.4088  0.6072  0.2382
  655MOL0     C90256   6.446   8.657   3.705  0.0503 -0.1426  0.0369
  655MOL0     C90257   6.482   8.780   3.643 -0.2507 -0.1046  0.2138
  655MOL0     C90258   6.422   8.908   3.663  0.0709  1.1152  0.8233
  655MOL0     C90259   6.323   8.915   3.764  0.5678  0.4043  0.2827
  655MOL0     O90260   6.275   9.031   3.809 -0.1033  0.5074 -0.2288
  655MOL0     C90261   6.171   9.078   3.722  0.5624  0.5113  0.9203
  655MOL0     C90262   6.071   9.151   3.811 -0.5148 -1.0657 -0.4985
  655MOL0     C90263   6.019   9.075   3.931 -0.1837 -0.0350 -0.7429
  655MOL0     C90264   6.086   9.113   4.066 -0.1346 -0.3182 -0.1890
  655MOL0     C90265   6.018   9.068   4.191 -0.4588  0.3331 -0.4798
  655MOL0     C90266   5.898   9.134   4.235  0.2958  0.0285  0.5173
  655MOL0     C90267   5.830   9.094   4.366 -0.5518  0.3542  0.8012
  655MOL0     C90268   5.904   9.161   4.478  1.5157 -0.7132 -0.5551
  655MOL0     N90269   5.864   9.103   4.606 -0.6134 -0.2352 -0.4493
  655MOL0     C90270   5.939   8.997   4.654 -0.7081 -0.1871 -0.2829
  655MOL0     C90271   5.867   8.964   4.771  0.2735 -0.5995  0.7364
  655MOL0     C90272   5.904   8.855   4.869  0.1963 -1.2954  0.3905
  655MOL0     C90273   5.976   8.905   4.986  0.1126 -0.4113  0.8344
  655MOL0     C90274   5.988   8.798   5.093  1.1260 -0.0492 -0.5257
  655MOL0     C90275   5.859   8.765   5.171  0.0948 -0.8232  0.7503
  655MOL0     O90276   5.840   8.871   5.261 -0.0427  0.0649  0.0495
  655MOL0     C90277   5.794   8.840   5.386  0.7075 -0.4771 -0.4748
  655MOL0     C90278   5.854   8.882   5.502 -0.5762 -0.0655  0.5973
  655MOL0     C90279   5.797   8.867   5.630 -0.8245 -0.9266 -0.1535
  655MOL0     C90280   5.888   8.894   5.749  0.4888 -0.6318  0.6243
  655MOL0     C90281   5.677   8.805   5.641 -0.1474  0.4722  0.0495
  655MOL0     C90282   5.609   8.797   5.776 -0.6154  0.3482 -0.7514
  655MOL0     O90283   5.540   8.681   5.800  0.3861 -0.2178  1.0710
  655MOL0     C90284   5.452   8.671   5.906  1.0446 -0.6113 -0.3955
  655MOL0     C90285   5.374   8.550   5.890 -0.6478  1.2055  0.1057
  655MOL0     C90286   5.285   8.514   5.999  0.7743 -0.1494  0.0369
  655MOL0     C90287   5.280   8.587   6.122  0.0170  0.1015 -0.2052
  655MOL0     O90288   5.213   8.541   6.230 -0.0019  0.8453  0.7885
  655MOL0     C90289   5.189   8.618   6.343 -0.6361  0.5337  0.3971
  655MOL0     C90290   5.301   8.597   6.451 -0.7374 -0.6109  0.9140
  655MOL0     C90291   5.279   8.688   6.571 -0.4305  0.3545  0.3523
  655MOL0     C90292   5.373   8.660   6.685 -0.6586  0.7569  1.1544
  655MOL0     C90293   5.305   8.681   6.828  0.6875  0.9974  0.4538
  655MOL0     C90294   5.384   8.650   6.948 -0.4981 -1.0675 -0.2128
  655MOL0     C90295   5.304   8.667   7.083 -0.7281  0.3083  0.4081
  655MOL0     C90296   5.392   8.728   7.192 -0.1159 -0.9250 -0.0466
  655MOL0    Cl90297   5.316   8.700   7.351  0.2659 -0.2846 -0.1881
  655MOL0     C90298   5.353   8.699   6.134 -0.1522  0.4704 -0.1690
  655MOL0     C90299   5.436   8.746   6.032 -0.6106 -0.0096 -0.1518
  655MOL0     O90300   5.603   8.899   5.847  0.0922 -0.4339 -0.1017
  655MOL0     C90301   5.608   8.757   5.528 -0.1409  0.9986  0.8184
  655MOL0     C90302   5.661   8.791   5.399 -0.3482  0.5350  0.2449
  655MOL0     N90303   5.758   9.053   4.782  0.2630  0.1789  1.2650
  655MOL0     N90304   5.762   9.136   4.683  0.2085  0.1231  0.1204
  655MOL0     C90305   6.287   8.797   3.836  1.1973  0.2855  0.6540
  655MOL0     C90306   6.346   8.670   3.804  0.5888  0.4639  1.2009
  655MOL0     C90307   6.551   8.307   3.647  0.2252 -0.0531  1.0899
  655MOL0     C90308   6.524   8.208   3.550 -0.6448 -0.0506  0.6852
  655MOL0     C90309   6.592   8.082   3.550 -0.3894  0.0517 -0.1832
  655MOL0     C90310   6.692   8.056   3.643  0.9511 -0.1772 -0.3208
  655MOL0     O90311   6.752   7.934   3.626 -0.2468  0.2514  0.3545
  655MOL0     C90312   6.905   7.934   3.612 -0.8849 -0.9352  0.3279
  655MOL0     C90313   6.946   7.867   3.482  0.0959 -0.6159  1.0777
  655MOL0     C90314   6.898   7.719   3.476 -0.9321  0.5933  0.2177
  655MOL0     C90315   7.015   7.625   3.443  0.3427  0.3607 -0.4403
  655MOL0     C90316   7.101   7.634   3.568 -0.9828  0.7909 -0.6311
  655MOL0     C90317   7.151   7.626   3.677  1.2657  0.0219  0.0161
  655MOL0     C90318   6.738   8.155   3.732  0.5097 -0.3902  0.2960
  655MOL0     C90319   6.670   8.289   3.735  0.2119 -0.1196 -0.0024
  655MOL0     C90320   6.735   8.392   3.820 -0.9042 -0.2717 -0.3282
  655MOL0     H90321   6.570   8.776   3.580 -0.2493 -0.3828  0.2298
  655MOL0     H90322   6.455   9.003   3.622 -0.3653  0.9772  0.1271
  655MOL0     H90323   6.110   9.000   3.675  0.2920  0.5755  1.1656
  655MOL0     H90324   6.209   9.145   3.644  4.1482 -0.6026  1.4981
  655MOL0     H90325   6.113   9.248   3.839  1.0021 -1.0672 -2.5987
  655MOL0     H90326   5.977   9.174   3.760 -0.4274  4.1466  1.0825
  655MOL0     H90327   5.913   9.099   3.943  0.3560  2.8179 -0.8599
  655MOL0     H90328   6.030   8.967   3.935  0.5764  0.0533 -0.2218
  655MOL0     H90329   6.184   9.063   4.068  0.2103  0.3523  0.3697
  655MOL0     H90330   6.097   9.221   4.075 -0.4323 -0.2746 -0.3644
  655MOL0     H90331   6.095   9.068   4.269 -0.8702  3.2599  0.0252
  655MOL0     H90332   5.987   8.965   4.173 -2.3728  0.6559  0.7585
  655MOL0     H90333   5.917   9.242   4.239  0.9764 -0.0656  0.0615
  655MOL0     H90334   5.830   9.112   4.153  3.5150 -2.7885 -1.6497
  655MOL0     H90335   5.830   8.986   4.381  2.1107  0.2284  0.4841
  655MOL0     H90336   5.723   9.115   4.361 -1.3488 -1.5517  5.2539
  655MOL0     H90337   6.011   9.146   4.457  1.4451 -1.3945 -0.4293
  655MOL0     H90338   5.894   9.270   4.469 -1.3187 -0.8524 -0.0686
  655MOL0     H90339   6.026   8.951   4.609 -2.1925 -0.3476 -3.1933
  655MOL0     H90340   5.968   8.787   4.812 -0.3999 -0.3770 -1.4702
  655MOL0     H90341   5.818   8.794   4.897  0.1010 -1.2017  0.3063
  655MOL0     H90342   6.078   8.935   4.960  0.6377 -1.9142  1.0774
  655MOL0     H90343   5.921   8.988   5.032 -1.9118 -1.4118  0.3000
  655MOL0     H90344   6.023   8.709   5.040 -1.1219  0.0499 -2.3740
  655MOL0     H90345   6.062   8.821   5.170  0.1945  0.9140  0.1091
  655MOL0     H90346   5.767   8.766   5.111  0.7125  1.7178 -0.2805
  655MOL0     H90347   5.876   8.665   5.212  1.7408 -1.4814 -1.3453
  655MOL0     H90348   5.948   8.925   5.468 -1.5457 -0.1530 -2.4276
  655MOL0     H90349   5.845   8.841   5.834  1.5319 -1.2317  0.7809
  655MOL0     H90350   5.905   9.000   5.772  0.6997 -0.8867  1.6635
  655MOL0     H90351   5.985   8.853   5.719  1.5499  1.8742  0.3644
  655MOL0     H90352   5.394   8.476   5.814  0.0323  2.1075 -0.6155
  655MOL0     H90353   5.216   8.431   5.990  0.7119 -0.0598 -0.3122
  655MOL0     H90354   5.177   8.726   6.334 -0.2009  0.8201  2.6263
  655MOL0     H90355   5.090   8.591   6.381 -0.6917  0.5382  0.2582
  655MOL0     H90356   5.315   8.489   6.465  2.4269 -0.5550 -0.8240
  655MOL0     H90357   5.389   8.632   6.397 -0.9761  0.0936  0.9719
  655MOL0     H90358   5.176   8.669   6.604  0.3566 -1.8379  1.8119
  655MOL0     H90359   5.298   8.792   6.541 -0.3530  0.7513  1.7206
  655MOL0     H90360   5.463   8.717   6.663 -0.8440 -0.0429 -2.1620
  655MOL0     H90361   5.408   8.556   6.676 -1.1055  0.8228 -2.6986
  655MOL0     H90362   5.259   8.780   6.839  0.7518  0.9512  1.1922
  655MOL0     H90363   5.220   8.613   6.827 -0.2558  2.1530  0.6895
  655MOL0     H90364   5.471   8.716   6.937 -0.4434 -1.0493  0.3058
  655MOL0     H90365   5.432   8.552   6.946  2.5669  0.3092 -0.5551
  655MOL0     H90366   5.264   8.572   7.119 -0.6410 -0.7127 -2.0213
  655MOL0     H90367   5.215   8.724   7.057 -1.5588 -1.1614 -0.0553
  655MOL0     H90368   5.383   8.836   7.179  2.1635 -0.5923  0.7898
  655MOL0     H90369   5.494   8.688   7.184  1.5955  2.8731  0.7842
  655MOL0     H90370   5.369   8.780   6.203  2.9929  2.0031 -2.4477
  655MOL0     H90371   5.493   8.835   6.055  2.2566 -1.8896  0.5295
  655MOL0     H90372   5.520   8.694   5.536  2.2452 -2.4025  2.8650
  655MOL0     H90373   5.600   8.781   5.310  3.9282  1.7308 -3.1873
  655MOL0     H90374   6.212   8.810   3.914  0.2765  1.6558 -0.4280
  655MOL0     H90375   6.314   8.591   3.870 -0.4340  1.3149  1.7513
  655MOL0     H90376   6.454   8.222   3.468  0.7057 -1.4367 -0.7460
  655MOL0     H90377   6.576   8.004   3.476  1.5648 -0.4480 -0.1158
  655MOL0     H90378   6.937   8.037   3.598 -0.9422 -1.3190 -4.1108
  655MOL0     H90379   6.958   7.885   3.694 -0.1572 -1.0035 -0.1707
  655MOL0     H90380   7.052   7.875   3.456  0.4302 -5.0312  0.2668
  655MOL0     H90381   6.896   7.920   3.401  3.4999 -0.0851 -0.8700
  655MOL0     H90382   6.859   7.673   3.567 -0.2584 -1.5903 -0.5395
  655MOL0     H90383   6.809   7.705   3.413 -2.2276 -1.1837  2.3226
  655MOL0     H90384   7.078   7.644   3.356  4.2280  1.4130  2.3046
  655MOL0     H90385   6.975   7.525   3.425  0.7994  0.2422 -0.8156
  655MOL0     H90386   7.179   7.609   3.779  0.4149 -2.2987 -0.0708
  655MOL0     H90387   6.833   8.151   3.784  1.7622  2.3888 -1.5138
  655MOL0     H90388   6.781   8.483   3.780  0.3943  0.2568  2.1838
  655MOL0     H90389   6.649   8.438   3.870 -3.6299 -5.0677  0.0194
  655MOL0     H90390   6.789   8.352   3.906 -0.7804  2.9214  1.2100
  656MOL0     O90391  10.290   7.713   1.554 -0.3018  0.2179 -0.3073
  656MOL0     C90392  10.283   7.604   1.617  0.4842  1.0943  0.8763
  656MOL0     O90393  10.170   7.530   1.636 -0.0224  0.3018  0.9283
  656MOL0     C90394  10.091   7.527   1.525 -0.0297  0.6248 -0.2534
  656MOL0     C90395   9.966   7.599   1.524  0.4669  0.5973 -0.8584
  656MOL0     C90396   9.875   7.576   1.420  0.3139 -0.0665  0.1578
  656MOL0     C90397   9.915   7.488   1.315  1.1295  0.8530  0.4948
  656MOL0     O90398   9.844   7.487   1.194  0.8550 -0.1296  0.0526
  656MOL0     C90399   9.923   7.477   1.071  1.0595 -0.8944  0.5545
  656MOL0     C90400   9.813   7.475   0.956  0.4337 -0.6389  0.2623
  656MOL0     C90401   9.759   7.338   0.937 -0.2327  0.3561  0.1529
  656MOL0     C90402   9.857   7.247   0.867 -0.4078 -0.3816 -0.9562
  656MOL0     C90403   9.805   7.107   0.853 -0.8741 -1.3246  0.6652
  656MOL0     C90404   9.899   7.020   0.762  0.1973  0.2859 -0.4587
  656MOL0     C90405   9.812   6.914   0.696 -0.0254  0.1563  0.1808
  656MOL0     C90406   9.752   6.822   0.800  0.4222  0.3525 -0.4645
  656MOL0     N90407   9.687   6.713   0.726  0.2856  0.0157  0.4346
  656MOL0     C90408   9.552   6.685   0.708 -0.5192  0.0588 -0.2491
  656MOL0     C90409   9.544   6.574   0.627 -0.5695 -0.7566  0.3273
  656MOL0     C90410   9.412   6.512   0.579  0.3623  0.2478  1.1239
  656MOL0     C90411   9.450   6.397   0.485 -0.0009 -0.2479  0.0855
  656MOL0     C90412   9.338   6.315   0.427 -0.3341 -0.7033 -0.0229
  656MOL0     C90413   9.235   6.403   0.353 -0.6284  0.0862  0.0584
  656MOL0     O90414   9.293   6.443   0.226  0.6293  0.4106 -0.8138
  656MOL0     C90415   9.222   6.438   0.104 -0.0551 -0.4442  0.2499
  656MOL0     C90416   9.083   6.421   0.092 -0.1548  0.3064 -0.0332
  656MOL0     C90417   9.023   6.418  -0.040 -0.3169  0.3545  0.1190
  656MOL0     C90418   8.870   6.399  -0.053  0.3763  0.6693 -0.5535
  656MOL0     C90419   9.111   6.440  -0.145 -0.3240 -0.1975  0.5062
  656MOL0     C90420   9.064   6.443  -0.285  0.7935  0.1490  0.8671
  656MOL0     O90421   9.162   6.445  -0.385 -0.5758 -0.5751 -0.2097
  656MOL0     C90422   9.111   6.415  -0.514 -1.2625  0.2877  0.3350
  656MOL0     C90423   9.120   6.287  -0.568 -0.2444  0.2318 -0.6098
  656MOL0     C90424   9.074   6.257  -0.693 -0.1166 -0.6523  0.0867
  656MOL0     C90425   9.011   6.354  -0.774 -0.6373 -0.3555 -0.5159
  656MOL0     O90426   8.982   6.321  -0.900  0.1548  0.5132  0.5988
  656MOL0     C90427   8.916   6.414  -0.984  0.5380 -0.5818 -0.2785
  656MOL0     C90428   8.908   6.351  -1.123  0.0048 -0.1214  0.5850
  656MOL0     C90429   8.788   6.404  -1.210 -0.7816 -0.1048  0.2106
  656MOL0     C90430   8.775   6.299  -1.324  0.1543 -0.7963 -1.0558
  656MOL0     C90431   8.735   6.349  -1.464 -0.8445 -0.4697 -0.3711
  656MOL0     C90432   8.822   6.466  -1.505  0.5975 -0.0187  1.4715
  656MOL0     C90433   8.812   6.499  -1.654 -0.3280  0.5796 -0.9907
  656MOL0     C90434   8.908   6.626  -1.672  0.2479 -0.4021 -0.7421
  656MOL0    Cl90435   8.924   6.675  -1.849  0.0745  0.2109  0.0049
  656MOL0     C90436   8.982   6.484  -0.708 -0.9160 -1.3496 -0.5315
  656MOL0     C90437   9.034   6.510  -0.585  0.1745 -0.6546  0.5238
  656MOL0     O90438   8.944   6.444  -0.304  0.1434  0.3150  0.6630
  656MOL0     C90439   9.250   6.443  -0.129  0.0816 -0.3064  0.2771
  656MOL0     C90440   9.308   6.442   0.001  0.3075 -0.6039  0.6077
  656MOL0     N90441   9.667   6.523   0.612 -1.2333 -0.2867 -0.3098
  656MOL0     N90442   9.763   6.607   0.667  0.6209  1.3352  0.3281
  656MOL0     C90443  10.038   7.421   1.318  0.1559  0.7923  0.0909
  656MOL0     C90444  10.131   7.443   1.420  0.0971 -0.9541 -0.5000
  656MOL0     C90445  10.408   7.560   1.701  0.0755 -0.0409 -0.2315
  656MOL0     C90446  10.484   7.669   1.734 -0.1549 -1.3093 -0.4457
  656MOL0     C90447  10.589   7.663   1.827  0.2118  0.8976 -1.0977
  656MOL0     C90448  10.620   7.537   1.889 -0.0996  0.6963  0.0460
  656MOL0     O90449  10.723   7.527   1.973  0.1574  0.3107  0.6338
  656MOL0     C90450  10.805   7.404   1.980  1.2279 -0.0919 -0.6878
  656MOL0     C90451  10.916   7.415   1.886 -0.0619 -0.5391  0.0091
  656MOL0     C90452  10.993   7.546   1.877 -0.6679  0.2508  1.3685
  656MOL0     C90453  10.974   7.624   1.744 -0.6619  0.2010  0.2088
  656MOL0     C90454  11.042   7.562   1.622 -0.0363 -0.5833 -1.1717
  656MOL0     C90455  11.097   7.507   1.537  0.4180 -0.2700 -0.8213
  656MOL0     C90456  10.548   7.422   1.835  0.2676  0.2002 -0.6913
  656MOL0     C90457  10.438   7.431   1.747 -0.3859  0.7973  1.4499
  656MOL0     C90458  10.347   7.310   1.710 -0.7218 -0.7865 -0.0792
  656MOL0     H90459   9.954   7.678   1.598  2.8238 -2.5943  3.4690
  656MOL0     H90460   9.782   7.630   1.405  0.8910  0.5877 -1.2525
  656MOL0     H90461   9.998   7.397   1.066  1.6841 -0.3644  1.2471
  656MOL0     H90462   9.984   7.567   1.062  2.2675 -1.3065  3.5069
  656MOL0     H90463   9.732   7.546   0.971 -1.5948 -2.9051  0.5762
  656MOL0     H90464   9.863   7.504   0.862  3.1694  0.9311  2.0544
  656MOL0     H90465   9.730   7.292   1.033  1.2010 -2.1347 -0.5242
  656MOL0     H90466   9.668   7.347   0.877  1.8394  3.4666 -2.8897
  656MOL0     H90467   9.866   7.288   0.766 -0.5697  1.3557 -0.2992
  656MOL0     H90468   9.954   7.239   0.918 -0.4745  0.9988 -0.5722
  656MOL0     H90469   9.710   7.129   0.803 -1.3526 -1.5458  1.4663
  656MOL0     H90470   9.784   7.050   0.944 -0.7843 -1.4402  0.6126
  656MOL0     H90471   9.921   7.093   0.684 -2.2435  3.4125  1.5430
  656MOL0     H90472   9.986   6.973   0.810  0.3079  0.3806 -0.5658
  656MOL0     H90473   9.887   6.870   0.629  0.8504  4.9260 -2.3956
  656MOL0     H90474   9.729   6.959   0.641 -2.5751  1.9261  4.8740
  656MOL0     H90475   9.846   6.790   0.847  0.4982 -0.0850 -0.9158
  656MOL0     H90476   9.684   6.855   0.879 -0.8477  1.3722 -1.9127
  656MOL0     H90477   9.476   6.749   0.750  1.4588  1.5575  1.2244
  656MOL0     H90478   9.368   6.589   0.514  3.1364  1.6012  0.7112
  656MOL0     H90479   9.335   6.484   0.651 -1.2359 -3.0759 -1.5670
  656MOL0     H90480   9.496   6.436   0.393 -6.4675  1.6818 -2.8744
  656MOL0     H90481   9.522   6.336   0.541  0.4973  1.4271  1.3509
  656MOL0     H90482   9.375   6.239   0.357  1.4161  1.2295 -1.2959
  656MOL0     H90483   9.272   6.271   0.502 -2.0680  0.8478 -0.5798
  656MOL0     H90484   9.148   6.343   0.325 -0.4540  0.2601 -0.8616
  656MOL0     H90485   9.185   6.483   0.409 -3.4985  1.2279 -3.7696
  656MOL0     H90486   9.021   6.414   0.181  1.6169 -4.3400  1.1285
  656MOL0     H90487   8.807   6.412   0.035  1.3352  0.4480  0.1712
  656MOL0     H90488   8.859   6.300  -0.098  1.3718 -0.1188  0.8717
  656MOL0     H90489   8.837   6.481  -0.118  2.0165 -0.7683 -3.3945
  656MOL0     H90490   9.183   6.209  -0.525 -1.0518 -1.4038 -2.2859
  656MOL0     H90491   9.086   6.161  -0.743 -2.5243 -0.4869 -0.9192
  656MOL0     H90492   8.815   6.423  -0.943  1.3872 -2.9138  2.6763
  656MOL0     H90493   8.957   6.513  -1.003 -2.6853  0.6534 -1.3691
  656MOL0     H90494   9.005   6.355  -1.173 -1.4446 -0.0310 -2.4376
  656MOL0     H90495   8.905   6.242  -1.120  0.5914 -0.2216 -1.2768
  656MOL0     H90496   8.818   6.503  -1.245 -2.5499  0.4696  0.2188
  656MOL0     H90497   8.697   6.413  -1.150  0.7297  0.8026  2.5252
  656MOL0     H90498   8.701   6.232  -1.281  1.5562 -3.2829 -2.3226
  656MOL0     H90499   8.869   6.246  -1.341  0.3286 -1.0517  0.5465
  656MOL0     H90500   8.724   6.269  -1.537 -0.0161  1.8650 -3.2420
  656MOL0     H90501   8.635   6.386  -1.439 -0.0768  0.9984  0.6940
  656MOL0     H90502   8.926   6.446  -1.479  0.4998 -0.6005  1.4201
  656MOL0     H90503   8.786   6.562  -1.466  1.2300  0.5001  0.8071
  656MOL0     H90504   8.714   6.518  -1.698 -1.4617  0.2383  1.2127
  656MOL0     H90505   8.847   6.413  -1.712 -0.7751  0.9146 -1.7609
  656MOL0     H90506   9.012   6.616  -1.639 -0.4165 -0.9543  1.3237
  656MOL0     H90507   8.868   6.707  -1.611  0.6923 -0.1670 -0.7529
  656MOL0     H90508   8.925   6.553  -0.771 -0.9564 -0.8012  0.1013
  656MOL0     H90509   9.010   6.602  -0.532 -0.3166 -0.8620  0.6610
  656MOL0     H90510   9.314   6.466  -0.214 -1.7985  0.6295 -0.9479
  656MOL0     H90511   9.414   6.463   0.011  0.0103  3.1677 -2.0584
  656MOL0     H90512  10.056   7.348   1.239  0.3241 -0.2534  1.0830
  656MOL0     H90513  10.218   7.379   1.419  1.9554  1.3692  1.0117
  656MOL0     H90514  10.464   7.769   1.696  3.3152 -0.7817 -1.2183
  656MOL0     H90515  10.648   7.746   1.866  1.2121 -0.3445  0.0896
  656MOL0     H90516  10.836   7.381   2.082 -1.5345 -2.0317 -0.1535
  656MOL0     H90517  10.745   7.316   1.955 -1.8670  1.6578 -0.0739
  656MOL0     H90518  10.882   7.391   1.784  1.1489  1.7823 -1.0073
  656MOL0     H90519  10.993   7.343   1.914  0.0501 -0.1316  0.7575
  656MOL0     H90520  10.961   7.607   1.961 -3.0465 -0.2520  0.8955
  656MOL0     H90521  11.099   7.517   1.883 -1.3097 -2.5064  0.9067
  656MOL0     H90522  11.006   7.729   1.746 -0.7599  0.3785 -2.7283
  656MOL0     H90523  10.866   7.626   1.728 -0.9202 -3.8588  0.4217
  656MOL0     H90524  11.154   7.453   1.464  0.2332 -2.7961  0.7797
  656MOL0     H90525  10.564   7.323   1.876  0.5185  0.8038  0.7230
  656MOL0     H90526  10.415   7.224   1.706  2.5639  1.5990 -0.0722
  656MOL0     H90527  10.275   7.285   1.788  0.5602 -2.2399  0.6864
  656MOL0     H90528  10.300   7.327   1.613 -2.6803 -0.5437  0.8709
  657MOL0     O90529   0.469   0.780   9.686  0.5244 -0.1315  0.7933
  657MOL0     C90530   0.457   0.831   9.799  0.2110  0.4243  0.6489
  657MOL0     O90531   0.398   0.772   9.909 -0.4283  0.0237  0.6596
  657MOL0     C90532   0.323   0.659   9.888 -0.1817 -0.3145  0.1450
  657MOL0     C90533   0.192   0.665   9.852 -0.8306  0.5796 -0.0553
  657MOL0     C90534   0.128   0.540   9.820  0.0316  0.5040 -0.3474
  657MOL0     C90535   0.188   0.409   9.853 -0.0090 -0.4974 -0.4063
  657MOL0     O90536   0.115   0.301   9.830 -0.4649  0.6443  0.1985
  657MOL0     C90537   0.093   0.210   9.936 -0.5904  0.1392 -0.7025
  657MOL0     C90538  -0.006   0.114   9.882 -0.5991  0.7782 -0.1240
  657MOL0     C90539  -0.094   0.058   9.987  0.6336 -0.3117 -0.3243
  657MOL0     C90540  -0.223  -0.011   9.922  0.8379 -0.2807  0.0711
  657MOL0     C90541  -0.301  -0.073  10.040 -0.4059 -0.6495  0.1483
  657MOL0     C90542  -0.239  -0.207  10.076 -0.4287  0.2535  0.4396
  657MOL0     C90543  -0.328  -0.295  10.161 -0.1870 -0.0443 -0.1482
  657MOL0     C90544  -0.245  -0.422  10.220  0.9670  0.7196 -0.6452
  657MOL0     N90545  -0.223  -0.507  10.096 -0.6710 -1.3318  1.0041
  657MOL0     C90546  -0.317  -0.589  10.030  1.0379 -0.3356 -0.2630
  657MOL0     C90547  -0.249  -0.628   9.913 -0.0055  0.8727 -0.8514
  657MOL0     C90548  -0.313  -0.699   9.809  0.8514  0.2019  0.0798
  657MOL0     C90549  -0.443  -0.786   9.840  0.1819 -1.2314 -0.9567
  657MOL0     C90550  -0.424  -0.931   9.891 -0.2185  0.9623 -0.4670
  657MOL0     C90551  -0.560  -1.004   9.912 -0.7317  0.2779  0.4083
  657MOL0     O90552  -0.625  -0.952  10.026 -0.5074 -0.7544 -0.3928
  657MOL0     C90553  -0.648  -1.044  10.125  0.5177 -0.1342 -0.1409
  657MOL0     C90554  -0.727  -1.165  10.090 -0.7997  0.1698 -0.3210
  657MOL0     C90555  -0.758  -1.248  10.190  0.4268 -0.5807 -0.2638
  657MOL0     C90556  -0.844  -1.365  10.146 -0.1192 -0.3044  1.5162
  657MOL0     C90557  -0.723  -1.223  10.327  0.1439  0.0605  0.0333
  657MOL0     C90558  -0.754  -1.324  10.433  0.4169  0.0986  0.2400
  657MOL0     O90559  -0.722  -1.460  10.407 -0.3247  0.0162  0.0152
  657MOL0     C90560  -0.803  -1.559  10.470 -0.0317 -1.4070 -0.1173
  657MOL0     C90561  -0.938  -1.541  10.505  0.9070  0.2262  0.0450
  657MOL0     C90562  -1.018  -1.628  10.578  0.0703  0.7480 -0.1996
  657MOL0     C90563  -0.971  -1.746  10.619 -0.8893  0.4032 -0.2224
  657MOL0     O90564  -1.041  -1.851  10.676  0.4023  0.5131  0.4160
  657MOL0     C90565  -1.181  -1.840  10.654 -0.8415 -0.8983 -0.8573
  657MOL0     C90566  -1.247  -1.965  10.699  0.4815  0.6326 -0.3676
  657MOL0     C90567  -1.209  -2.102  10.627  1.0462  0.2369 -0.0737
  657MOL0     C90568  -1.060  -2.137  10.667  0.0322 -0.3832  0.5995
  657MOL0     C90569  -1.014  -2.283  10.646  0.1619 -1.2275  0.2823
  657MOL0     C90570  -1.065  -2.365  10.775  0.3069 -0.7721  0.7219
  657MOL0     C90571  -0.956  -2.473  10.816  0.8467  0.1387  0.1482
  657MOL0     C90572  -1.000  -2.567  10.923 -0.4863 -0.3126 -0.6814
  657MOL0    Cl90573  -1.145  -2.676  10.877 -0.3411  0.4249 -0.4465
  657MOL0     C90574  -0.839  -1.780  10.595  0.0546 -0.7509  0.1435
  657MOL0     C90575  -0.758  -1.681  10.519  0.0829  0.9230  1.0080
  657MOL0     O90576  -0.802  -1.283  10.544  0.0643  0.3673 -0.1721
  657MOL0     C90577  -0.658  -1.105  10.363 -1.1023 -0.0155  0.3482
  657MOL0     C90578  -0.622  -1.015  10.264 -0.1789 -1.0411  0.5417
  657MOL0     N90579  -0.115  -0.585   9.915  0.7349  0.2960  0.1637
  657MOL0     N90580  -0.107  -0.507  10.023 -0.2241  0.0218 -0.1119
  657MOL0     C90581   0.318   0.407   9.912  0.3335  0.5715  0.0874
  657MOL0     C90582   0.378   0.538   9.931 -0.0805 -0.1007 -0.7119
  657MOL0     C90583   0.527   0.954   9.824 -0.0095  0.7582  0.7377
  657MOL0     C90584   0.535   0.998   9.957  0.1650  0.3294 -0.4963
  657MOL0     C90585   0.594   1.125   9.982 -0.5680  0.4402 -1.0771
  657MOL0     C90586   0.670   1.189   9.888  0.4552  0.5692 -0.4050
  657MOL0     O90587   0.743   1.302   9.904 -1.1915  0.3773 -0.2255
  657MOL0     C90588   0.830   1.297  10.017  0.3907  0.6039 -0.7659
  657MOL0     C90589   0.913   1.426  10.032  0.6107  0.2217  0.1416
  657MOL0     C90590   0.993   1.443   9.907 -0.2619  0.0888 -0.6871
  657MOL0     C90591   1.107   1.554   9.919 -0.2294  0.1251 -0.4598
  657MOL0     C90592   1.054   1.690   9.947 -0.2851 -0.9086 -0.1221
  657MOL0     C90593   1.008   1.804   9.964 -0.0190  0.5860 -1.0806
  657MOL0     C90594   0.666   1.150   9.754 -0.3523  0.3676 -0.4945
  657MOL0     C90595   0.591   1.034   9.717  0.4268 -0.3655 -1.5776
  657MOL0     C90596   0.574   1.016   9.574 -0.0379  0.4944  0.9608
  657MOL0     H90597   0.149   0.764   9.845 -1.0404  0.5273  0.4191
  657MOL0     H90598   0.026   0.529   9.786  0.1421  0.6895 -0.7499
  657MOL0     H90599   0.061   0.264  10.025  4.0317  1.0170  0.6810
  657MOL0     H90600   0.176   0.155   9.980 -1.3588 -2.2339 -2.0584
  657MOL0     H90601  -0.065   0.160   9.802  0.3472  0.8530 -0.7900
  657MOL0     H90602   0.041   0.023   9.845 -3.2043 -1.6835  2.1245
  657MOL0     H90603  -0.042  -0.010  10.054 -0.0399  1.6207  2.2900
  657MOL0     H90604  -0.131   0.141  10.048  0.9270 -1.5474  1.5768
  657MOL0     H90605  -0.293   0.056   9.871  1.3222  3.3633  3.7086
  657MOL0     H90606  -0.188  -0.080   9.845  1.2605 -1.0038  0.8917
  657MOL0     H90607  -0.406  -0.075  10.011 -0.7795  0.8060  1.2865
  657MOL0     H90608  -0.291  -0.006  10.126 -0.7551  2.9572 -2.4527
  657MOL0     H90609  -0.198  -0.254   9.987  0.0552 -1.1987  1.3925
  657MOL0     H90610  -0.157  -0.187  10.145  1.5703 -1.4167 -1.3254
  657MOL0     H90611  -0.414  -0.313  10.096 -0.0346 -0.8774 -0.1358
  657MOL0     H90612  -0.368  -0.246  10.250  0.6858  0.5256 -0.0565
  657MOL0     H90613  -0.149  -0.396  10.267  0.9677 -1.4715  0.7172
  657MOL0     H90614  -0.307  -0.474  10.293 -0.8998  2.8047 -0.6325
  657MOL0     H90615  -0.419  -0.609  10.063  0.3104  0.8896 -1.6235
  657MOL0     H90616  -0.241  -0.771   9.769  0.6334 -0.4013  0.7451
  657MOL0     H90617  -0.336  -0.628   9.729 -1.3958 -0.8435 -0.2830
  657MOL0     H90618  -0.507  -0.735   9.913  3.5858 -3.2612  3.9448
  657MOL0     H90619  -0.495  -0.792   9.743  2.5705 -2.0109 -2.2701
  657MOL0     H90620  -0.366  -0.978   9.811 -2.9172 -2.9850 -0.3687
  657MOL0     H90621  -0.370  -0.939   9.985  2.2642  0.9224 -1.8080
  657MOL0     H90622  -0.625  -0.983   9.827 -3.1004 -0.2980  2.0035
  657MOL0     H90623  -0.545  -1.111   9.924 -1.2889  0.1278 -0.2022
  657MOL0     H90624  -0.776  -1.167   9.993 -0.9349 -0.4113 -0.2484
  657MOL0     H90625  -0.912  -1.406  10.221 -0.7811 -0.0963  1.0347
  657MOL0     H90626  -0.772  -1.438  10.108  0.1199  0.2005  1.0003
  657MOL0     H90627  -0.910  -1.335  10.065  0.4160  0.2468  1.2758
  657MOL0     H90628  -0.970  -1.439  10.486  2.8139  0.9272  0.3392
  657MOL0     H90629  -1.108  -1.584  10.619 -0.6616 -1.4382  0.6692
  657MOL0     H90630  -1.217  -1.762  10.721  0.5475 -1.6784  0.9181
  657MOL0     H90631  -1.215  -1.817  10.553 -4.8799 -0.6799  0.3957
  657MOL0     H90632  -1.228  -1.965  10.807 -0.6930 -0.4622 -0.1463
  657MOL0     H90633  -1.352  -1.941  10.678  0.8111  2.1039 -0.4882
  657MOL0     H90634  -1.224  -2.095  10.519  0.9091 -1.1505 -0.1511
  657MOL0     H90635  -1.286  -2.170  10.665  2.5454 -2.0446 -0.9369
  657MOL0     H90636  -1.043  -2.109  10.772 -3.2340 -2.5862  1.8873
  657MOL0     H90637  -0.999  -2.073  10.603 -1.1433  3.4294  2.9461
  657MOL0     H90638  -1.048  -2.328  10.552 -0.7355  1.4672 -0.7893
  657MOL0     H90639  -0.905  -2.277  10.644  0.1368 -0.7835  0.1589
  657MOL0     H90640  -1.161  -2.418  10.765  0.6793 -1.2748 -0.5090
  657MOL0     H90641  -1.068  -2.299  10.861  1.0646  1.4736 -0.8909
  657MOL0     H90642  -0.870  -2.414  10.848  1.3678 -0.6683  0.2544
  657MOL0     H90643  -0.938  -2.546  10.736  1.7094  0.0080  0.4556
  657MOL0     H90644  -1.031  -2.510  11.011 -1.1429  1.5499 -2.0279
  657MOL0     H90645  -0.908  -2.623  10.938  1.2155  2.3941 -0.3717
  657MOL0     H90646  -0.792  -1.864  10.646  0.4580 -1.0304 -0.6713
  657MOL0     H90647  -0.652  -1.706  10.508 -0.3131 -0.0833 -1.0651
  657MOL0     H90648  -0.617  -1.085  10.462  1.6539  1.4486 -0.9693
  657MOL0     H90649  -0.572  -0.920  10.279 -0.8819  0.0693 -3.1280
  657MOL0     H90650   0.379   0.322   9.943  1.7793  0.5413 -2.4513
  657MOL0     H90651   0.478   0.544   9.973  0.5802 -4.5168 -1.2332
  657MOL0     H90652   0.491   0.932  10.032 -0.4342 -0.5807 -1.6245
  657MOL0     H90653   0.595   1.170  10.081 -0.0491 -2.3368  0.2624
  657MOL0     H90654   0.777   1.266  10.107  0.7907  2.2626  0.0886
  657MOL0     H90655   0.907   1.222   9.998 -3.0294 -2.9197 -1.9892
  657MOL0     H90656   0.987   1.406  10.110 -0.8340 -2.6724  0.9286
  657MOL0     H90657   0.854   1.505  10.080 -1.1957 -1.2608  0.4998
  657MOL0     H90658   1.041   1.346   9.891  0.5225 -0.5431  4.0973
  657MOL0     H90659   0.931   1.459   9.818 -1.7364 -1.6462 -0.0387
  657MOL0     H90660   1.163   1.568   9.826 -4.1851  1.0288 -2.9976
  657MOL0     H90661   1.173   1.528  10.001  1.1867  2.4849 -0.7523
  657MOL0     H90662   0.960   1.897   9.988 -0.1208 -0.0468  1.4116
  657MOL0     H90663   0.716   1.214   9.681 -3.2017  3.2613 -0.0873
  657MOL0     H90664   0.470   0.985   9.558  0.3861 -0.6835  0.3286
  657MOL0     H90665   0.594   1.109   9.520 -0.8846  1.5451  2.3942
  657MOL0     H90666   0.634   0.932   9.538  0.3131  1.1969 -0.1545
  658MOL0     O90667   2.054   6.123  10.042  0.3891  0.0424 -0.0934
  658MOL0     C90668   2.118   6.140  10.148 -0.1246 -0.0591  0.2734
  658MOL0     O90669   2.128   6.053  10.253  0.5690 -0.0027  0.4729
  658MOL0     C90670   2.016   5.977  10.271 -0.4430 -0.3347 -0.9794
  658MOL0     C90671   2.012   5.852  10.203  0.1911  1.2806  0.1229
  658MOL0     C90672   1.899   5.766  10.224  1.0359  0.1500  0.6458
  658MOL0     C90673   1.799   5.809  10.322 -0.8275  0.4193  0.0101
  658MOL0     O90674   1.715   5.705  10.356  0.5773  0.2938  0.2092
  658MOL0     C90675   1.706   5.685  10.503 -0.5827 -0.6376  0.5405
  658MOL0     C90676   1.746   5.552  10.540  0.0261 -1.3375 -0.3488
  658MOL0     C90677   1.686   5.508  10.680  0.3870 -1.0505 -0.5664
  658MOL0     C90678   1.717   5.357  10.711  1.3796 -0.0357 -0.2955
  658MOL0     C90679   1.684   5.328  10.860  0.0679 -0.2374  0.1533
  658MOL0     C90680   1.539   5.322  10.908 -0.2300  0.3966  0.7958
  658MOL0     C90681   1.537   5.334  11.063 -0.2771  0.0209  0.2084
  658MOL0     C90682   1.504   5.199  11.127 -0.7046  0.2347 -0.3342
  658MOL0     N90683   1.495   5.188  11.266  0.5086  0.8201  0.2820
  658MOL0     C90684   1.374   5.190  11.329 -0.1899  1.2373 -0.4754
  658MOL0     C90685   1.420   5.167  11.456 -0.0455 -0.0650  0.4350
  658MOL0     C90686   1.324   5.154  11.581 -0.5643  0.5131 -0.1500
  658MOL0     C90687   1.365   5.030  11.666 -0.1870 -0.2900  0.3418
  658MOL0     C90688   1.314   4.897  11.608  0.3194 -0.1325  0.1851
  658MOL0     C90689   1.193   4.843  11.692 -0.8538  0.1111  0.5058
  658MOL0     O90690   1.149   4.736  11.613  0.7848 -0.5699 -0.1635
  658MOL0     C90691   1.019   4.716  11.604  0.3402  0.2348  0.5382
  658MOL0     C90692   0.922   4.746  11.700  0.3924  0.1702 -0.3389
  658MOL0     C90693   0.789   4.704  11.688  0.4760 -0.4259  0.2308
  658MOL0     C90694   0.689   4.744  11.795 -0.7457 -0.6047 -0.7917
  658MOL0     C90695   0.752   4.639  11.570  0.3429 -0.6449  0.6150
  658MOL0     C90696   0.620   4.590  11.545 -0.0661  0.0101 -0.4243
  658MOL0     O90697   0.534   4.666  11.474  0.2323  0.7072  0.2959
  658MOL0     C90698   0.406   4.624  11.466 -0.0800 -0.4821 -0.9303
  658MOL0     C90699   0.354   4.586  11.342  1.1156  0.4190 -0.3361
  658MOL0     C90700   0.216   4.564  11.325  0.3753  0.2808  0.1682
  658MOL0     C90701   0.123   4.588  11.432 -0.9573  0.8178  0.6639
  658MOL0     O90702  -0.015   4.568  11.411 -0.4402 -0.4784 -0.5107
  658MOL0     C90703  -0.078   4.685  11.354 -0.6304  0.7977 -0.2343
  658MOL0     C90704  -0.221   4.652  11.322 -0.5336  0.3548  0.3481
  658MOL0     C90705  -0.292   4.767  11.242  1.0197  0.2791  0.6362
  658MOL0     C90706  -0.421   4.703  11.174  0.4101  0.3802 -0.4480
  658MOL0     C90707  -0.495   4.791  11.081  0.2806 -0.3166  0.6179
  658MOL0     C90708  -0.631   4.728  11.049 -0.2088  0.3591 -0.1578
  658MOL0     C90709  -0.698   4.811  10.935  0.2525  0.0633 -0.5527
  658MOL0     C90710  -0.781   4.933  10.990 -0.6002  0.9554 -0.2835
  658MOL0    Cl90711  -0.937   4.888  11.065 -0.2676 -1.2295 -0.2271
  658MOL0     C90712   0.177   4.637  11.550  0.7197 -0.7050  1.2893
  658MOL0     C90713   0.317   4.655  11.570 -0.8350  0.1515 -0.7587
  658MOL0     O90714   0.606   4.482  11.596 -0.3352  0.3044 -0.0372
  658MOL0     C90715   0.846   4.615  11.467 -0.0389  0.2402 -0.8694
  658MOL0     C90716   0.977   4.653  11.487 -0.3446  0.3260 -1.0338
  658MOL0     N90717   1.547   5.171  11.475 -0.4700  0.1689  0.5656
  658MOL0     N90718   1.598   5.180  11.356  0.8442 -1.2898 -0.1530
  658MOL0     C90719   1.809   5.933  10.386  0.0658  0.3845 -0.4155
  658MOL0     C90720   1.920   6.014  10.359 -0.1423 -0.5936 -0.2175
  658MOL0     C90721   2.216   6.246  10.153  0.3089  0.2038  0.1554
  658MOL0     C90722   2.217   6.325  10.276 -0.4021 -0.3304  0.5856
  658MOL0     C90723   2.295   6.440  10.295 -0.6973  0.9146 -1.1260
  658MOL0     C90724   2.383   6.475  10.191 -0.2107  0.1832 -0.3890
  658MOL0     O90725   2.468   6.567  10.238  0.3884  0.4534  0.1936
  658MOL0     C90726   2.602   6.586  10.176 -0.8510  0.2395  0.8197
  658MOL0     C90727   2.706   6.488  10.249  0.4170 -0.4413  0.1196
  658MOL0     C90728   2.761   6.520  10.385  1.1836 -0.0798  0.4028
  658MOL0     C90729   2.855   6.404  10.440 -0.2549 -0.5415 -0.1996
  658MOL0     C90730   2.981   6.407  10.368 -0.7489 -0.0694 -0.0302
  658MOL0     C90731   3.092   6.417  10.318  0.4002 -0.8158  0.0543
  658MOL0     C90732   2.382   6.399  10.078 -0.0586 -0.7231  1.0808
  658MOL0     C90733   2.309   6.287  10.057  0.5836 -0.5446  1.4742
  658MOL0     C90734   2.304   6.233   9.911  0.2228  0.4715 -0.3244
  658MOL0     H90735   2.085   5.811  10.134 -1.8619 -0.7874 -0.9583
  658MOL0     H90736   1.911   5.675  10.165 -1.8154 -1.3563  2.2077
  658MOL0     H90737   1.601   5.704  10.526 -0.6686  2.9058 -2.0025
  658MOL0     H90738   1.766   5.758  10.558 -0.8934  0.9309 -1.1162
  658MOL0     H90739   1.711   5.483  10.463  1.1178 -1.0341 -1.1340
  658MOL0     H90740   1.855   5.556  10.549 -0.1199 -0.2260  1.4636
  658MOL0     H90741   1.731   5.571  10.757  1.2032 -0.2394 -1.6695
  658MOL0     H90742   1.580   5.534  10.685  0.5596  0.3895 -2.9356
  658MOL0     H90743   1.658   5.298  10.639  0.1338  1.3159 -0.4317
  658MOL0     H90744   1.822   5.330  10.703  1.5430  0.3478  0.4696
  658MOL0     H90745   1.740   5.408  10.910  1.3425  0.0874 -1.6573
  658MOL0     H90746   1.741   5.240  10.894  3.3835  1.3345 -0.8870
  658MOL0     H90747   1.491   5.410  10.865  0.6348 -0.0879 -1.2991
  658MOL0     H90748   1.481   5.240  10.866 -2.5693  2.9834 -1.3519
  658MOL0     H90749   1.451   5.398  11.086  2.1208  2.8789  1.8973
  658MOL0     H90750   1.629   5.377  11.104  0.8355  1.4350 -3.4401
  658MOL0     H90751   1.407   5.183  11.079 -2.0736  4.3991  0.6260
  658MOL0     H90752   1.567   5.121  11.084 -2.9699 -0.7186 -2.1436
  658MOL0     H90753   1.271   5.207  11.300  0.1804  1.6437 -1.5808
  658MOL0     H90754   1.218   5.167  11.560 -0.3427  1.0918 -0.9427
  658MOL0     H90755   1.357   5.239  11.641  0.8951 -0.0284 -0.1350
  658MOL0     H90756   1.474   5.034  11.675  0.3575 -0.3973 -3.9525
  658MOL0     H90757   1.316   5.047  11.762 -0.0774 -1.8874  0.7166
  658MOL0     H90758   1.272   4.912  11.508  0.4041  1.6767  0.3796
  658MOL0     H90759   1.392   4.821  11.610  0.2269 -0.2729 -1.1047
  658MOL0     H90760   1.223   4.830  11.796 -0.1139 -3.1403 -0.0275
  658MOL0     H90761   1.115   4.920  11.692 -3.3648 -2.2740 -0.6844
  658MOL0     H90762   0.949   4.788  11.797  0.0951  0.6516 -0.4607
  658MOL0     H90763   0.606   4.801  11.752  0.6175 -0.9684 -4.2627
  658MOL0     H90764   0.729   4.811  11.872 -2.7666  1.1673 -1.1976
  658MOL0     H90765   0.644   4.660  11.847 -1.3192 -0.0250 -0.3385
  658MOL0     H90766   0.426   4.584  11.261  0.3893 -0.9369 -0.9953
  658MOL0     H90767   0.175   4.528  11.231 -1.8038 -1.0140  1.5103
  658MOL0     H90768  -0.076   4.772  11.420 -2.4299  0.3793  0.4159
  658MOL0     H90769  -0.035   4.706  11.255  3.4600  3.7880  1.8348
  658MOL0     H90770  -0.211   4.551  11.280  0.3327  0.7490 -0.4342
  658MOL0     H90771  -0.275   4.654  11.417 -2.5913  0.5980 -0.7823
  658MOL0     H90772  -0.222   4.804  11.166 -1.3422  2.8748 -0.4207
  658MOL0     H90773  -0.325   4.849  11.306  1.4214  1.6519 -0.8601
  658MOL0     H90774  -0.483   4.664  11.256  3.0726 -1.1797  0.9674
  658MOL0     H90775  -0.389   4.612  11.121  0.5846  1.7859 -2.9015
  658MOL0     H90776  -0.517   4.880  11.140  1.1875 -0.2946  0.9396
  658MOL0     H90777  -0.444   4.825  10.990  0.0567  2.8514  1.5708
  658MOL0     H90778  -0.699   4.731  11.135  0.4105  2.6617  0.3147
  658MOL0     H90779  -0.616   4.624  11.020 -1.9650 -0.0864  0.3806
  658MOL0     H90780  -0.773   4.749  10.885  0.2151  0.3066 -0.7980
  658MOL0     H90781  -0.621   4.848  10.867  0.9422  4.8026  2.3284
  658MOL0     H90782  -0.780   5.015  10.918  2.5919  0.0672 -1.3937
  658MOL0     H90783  -0.736   4.981  11.077 -0.1547  1.5271 -0.8214
  658MOL0     H90784   0.113   4.675  11.628  0.2061  1.6141 -0.1686
  658MOL0     H90785   0.347   4.705  11.662  5.2192 -3.2303 -0.4021
  658MOL0     H90786   0.821   4.570  11.372  1.4835 -0.1625 -1.1023
  658MOL0     H90787   1.055   4.621  11.419  2.9402  1.9441  1.6759
  658MOL0     H90788   1.736   5.951  10.465  1.9070  2.6779  0.8990
  658MOL0     H90789   1.936   6.109  10.408 -2.3923 -1.1015  1.6704
  658MOL0     H90790   2.156   6.311  10.365 -1.7929  1.2934 -0.0622
  658MOL0     H90791   2.293   6.483  10.395 -1.1766  4.4049 -2.4779
  658MOL0     H90792   2.597   6.580  10.067 -3.1994 -3.4542  0.9805
  658MOL0     H90793   2.619   6.693  10.191  0.0931  0.2259 -0.0909
  658MOL0     H90794   2.795   6.498  10.186  0.6085  0.8154  0.5743
  658MOL0     H90795   2.665   6.386  10.249 -0.7144 -0.0412 -2.1215
  658MOL0     H90796   2.804   6.620  10.393 -0.7126  1.0368 -1.9452
  658MOL0     H90797   2.681   6.541  10.456  1.5580  0.2154  0.7436
  658MOL0     H90798   2.806   6.307  10.432 -3.1934  0.8138  0.0817
  658MOL0     H90799   2.859   6.437  10.544 -0.8177 -1.4787  0.1335
  658MOL0     H90800   3.187   6.436  10.272 -0.2015 -2.3254 -1.9654
  658MOL0     H90801   2.439   6.443   9.997 -0.0428  0.9784  1.9717
  658MOL0     H90802   2.385   6.271   9.848  0.6777 -1.3399 -0.8734
  658MOL0     H90803   2.315   6.125   9.910 -4.2534 -0.2543 -3.5304
  658MOL0     H90804   2.216   6.263   9.853  2.1614  1.1892 -3.1127
  659MOL0     O90805   6.931   6.807   0.601 -0.8050  0.1111 -0.2582
  659MOL0     C90806   7.045   6.773   0.645  1.2363 -0.4841  1.2940
  659MOL0     O90807   7.094   6.821   0.759 -0.1587 -0.8360 -0.9971
  659MOL0     C90808   7.023   6.911   0.829 -1.4168 -0.3968  0.4481
  659MOL0     C90809   7.071   7.047   0.826 -0.6472  0.4440 -0.3191
  659MOL0     C90810   6.999   7.143   0.888 -0.6487 -0.5528  0.4382
  659MOL0     C90811   6.892   7.110   0.977  0.5993  0.0001 -0.0713
  659MOL0     O90812   6.817   7.199   1.054 -0.4808 -0.1764  0.5064
  659MOL0     C90813   6.810   7.337   1.022 -0.7393 -0.4431  0.5499
  659MOL0     C90814   6.733   7.425   1.118 -0.1855 -0.3481  0.3415
  659MOL0     C90815   6.804   7.425   1.255 -0.5793 -0.2025 -0.1830
  659MOL0     C90816   6.734   7.508   1.365  0.0704 -0.0391  0.3588
  659MOL0     C90817   6.680   7.436   1.492 -0.1779  0.0903  0.6152
  659MOL0     C90818   6.791   7.368   1.570  0.6216 -0.5965  0.2107
  659MOL0     C90819   6.720   7.258   1.648  0.0159  0.1456 -0.4969
  659MOL0     C90820   6.801   7.194   1.756  0.2428 -0.6746  0.1976
  659MOL0     N90821   6.939   7.154   1.729 -0.0931  0.7365 -0.4294
  659MOL0     C90822   6.971   7.060   1.626  0.2370 -0.8447 -0.1108
  659MOL0     C90823   7.102   7.041   1.640  0.5453 -0.1029 -0.1510
  659MOL0     C90824   7.189   6.946   1.565 -0.1735 -0.0252  0.2287
  659MOL0     C90825   7.231   6.987   1.416  0.1485  0.0346  0.2455
  659MOL0     C90826   7.133   6.936   1.308  0.1805 -0.4422  1.0798
  659MOL0     C90827   7.143   6.791   1.261  0.2344 -0.3075 -0.2158
  659MOL0     O90828   7.267   6.773   1.216 -0.6203  0.8543  0.4147
  659MOL0     C90829   7.299   6.654   1.146  0.4010  1.0862  1.0916
  659MOL0     C90830   7.212   6.539   1.159  0.5228 -0.3205  0.0944
  659MOL0     C90831   7.226   6.426   1.076  0.1419 -0.5157  0.3681
  659MOL0     C90832   7.135   6.311   1.076  0.0812  0.3357 -0.4999
  659MOL0     C90833   7.350   6.422   1.004  1.0063 -0.2403 -0.6428
  659MOL0     C90834   7.398   6.305   0.922  0.2729  0.0683  0.4432
  659MOL0     O90835   7.299   6.238   0.863  0.3709  0.5690 -0.3204
  659MOL0     C90836   7.329   6.134   0.772  0.4579  0.5827 -0.1103
  659MOL0     C90837   7.260   6.011   0.775 -0.7403  0.1972 -0.2578
  659MOL0     C90838   7.288   5.901   0.688 -0.3483  0.5723  0.0349
  659MOL0     C90839   7.396   5.913   0.596  0.7576 -0.6163 -0.2941
  659MOL0     O90840   7.426   5.798   0.521 -0.1611  0.5212 -0.2006
  659MOL0     C90841   7.520   5.798   0.416  0.4700 -1.3042  0.1829
  659MOL0     C90842   7.456   5.869   0.302 -0.3399  0.0372 -0.9734
  659MOL0     C90843   7.343   5.787   0.232  0.8111  0.3107 -0.4184
  659MOL0     C90844   7.374   5.793   0.073 -0.3417  0.2450  0.0282
  659MOL0     C90845   7.274   5.708  -0.002 -0.1185  0.5582 -0.5647
  659MOL0     C90846   7.294   5.702  -0.151  0.1059 -0.0097 -0.3416
  659MOL0     C90847   7.184   5.623  -0.230  0.8265 -0.2564  0.2205
  659MOL0     C90848   7.210   5.656  -0.378  0.3833 -0.7303 -1.4581
  659MOL0    Cl90849   7.142   5.806  -0.432  0.0077 -0.2885  0.1530
  659MOL0     C90850   7.464   6.036   0.595  0.4963 -0.2295  0.2128
  659MOL0     C90851   7.434   6.144   0.682  0.1400 -0.2017  0.4886
  659MOL0     O90852   7.519   6.297   0.909  0.0408 -0.0993  0.3160
  659MOL0     C90853   7.434   6.536   0.998  0.6428  0.3467  0.4972
  659MOL0     C90854   7.406   6.653   1.064 -0.8256 -0.3494 -0.4240
  659MOL0     N90855   7.148   7.130   1.733 -0.0263 -0.2576 -0.2433
  659MOL0     N90856   7.056   7.194   1.789 -0.5417  0.0486  0.1846
  659MOL0     C90857   6.857   6.970   0.990 -0.1303 -0.0034 -0.1560
  659MOL0     C90858   6.930   6.871   0.918 -0.3842  1.1266  0.5217
  659MOL0     C90859   7.124   6.668   0.585  0.8121  0.3989 -0.2330
  659MOL0     C90860   7.196   6.585   0.681 -0.3946 -0.8465  0.2593
  659MOL0     C90861   7.247   6.461   0.636 -0.8578  0.2425  0.4746
  659MOL0     C90862   7.222   6.407   0.506 -0.5532 -0.2267 -0.4919
  659MOL0     O90863   7.281   6.288   0.478  0.1764  0.9184 -0.1918
  659MOL0     C90864   7.228   6.204   0.376 -0.0556  0.4729  0.1931
  659MOL0     C90865   7.324   6.185   0.256  0.2500  0.7773  0.0288
  659MOL0     C90866   7.324   6.298   0.159 -0.1019 -0.4041 -0.4938
  659MOL0     C90867   7.200   6.324   0.079  0.7858  0.0750  0.5667
  659MOL0     C90868   7.157   6.217  -0.019  0.4201 -0.1551 -0.5016
  659MOL0     C90869   7.128   6.118  -0.079 -0.3938  0.7873 -0.4974
  659MOL0     C90870   7.172   6.510   0.416  0.6805  0.0534  0.2844
  659MOL0     C90871   7.124   6.635   0.452  0.7081  0.0075  0.1578
  659MOL0     C90872   7.063   6.720   0.346 -0.0778  0.7697 -0.3447
  659MOL0     H90873   7.151   7.063   0.754 -2.3875 -0.4002 -2.5421
  659MOL0     H90874   7.022   7.249   0.876 -1.2287 -0.4108  0.5010
  659MOL0     H90875   6.756   7.341   0.927  1.1748  2.6781 -0.5495
  659MOL0     H90876   6.908   7.385   1.010 -0.4295 -1.6627 -3.7011
  659MOL0     H90877   6.736   7.525   1.075  1.4518  0.2941  1.8184
  659MOL0     H90878   6.634   7.380   1.129 -0.2761 -0.2125  0.0818
  659MOL0     H90879   6.824   7.323   1.288 -0.5603  0.6053  2.5667
  659MOL0     H90880   6.907   7.462   1.257 -0.6174 -0.1161  0.8563
  659MOL0     H90881   6.808   7.582   1.398  0.5329  1.2959 -3.2454
  659MOL0     H90882   6.664   7.582   1.326 -0.6047 -0.0425  1.4990
  659MOL0     H90883   6.606   7.367   1.451  1.5942 -1.6759  0.2564
  659MOL0     H90884   6.621   7.500   1.558  1.4617  1.2688  1.0230
  659MOL0     H90885   6.865   7.309   1.514  0.7658 -0.8986  0.7122
  659MOL0     H90886   6.831   7.433   1.648 -0.4367 -0.8516  0.9732
  659MOL0     H90887   6.692   7.189   1.569  0.1660 -0.0398 -0.3888
  659MOL0     H90888   6.625   7.293   1.690 -0.7100  0.8836 -2.6292
  659MOL0     H90889   6.802   7.271   1.834 -2.9146 -1.8818  1.6182
  659MOL0     H90890   6.736   7.114   1.793 -0.1617  0.6143  2.4440
  659MOL0     H90891   6.914   7.008   1.550 -1.4023  2.4200 -1.3289
  659MOL0     H90892   7.133   6.853   1.577 -3.3144  1.9950  3.0531
  659MOL0     H90893   7.269   6.921   1.636 -1.1749 -0.7382  1.1530
  659MOL0     H90894   7.246   7.093   1.398  3.4474 -0.5863 -1.3690
  659MOL0     H90895   7.329   6.940   1.413  0.4293  0.3254  2.9606
  659MOL0     H90896   7.030   6.953   1.342 -0.4718 -0.3432 -0.8142
  659MOL0     H90897   7.137   6.995   1.216 -0.3500  0.6616  1.7336
  659MOL0     H90898   7.132   6.726   1.348 -0.3028  0.4665  0.3124
  659MOL0     H90899   7.078   6.775   1.174  1.1738 -2.2322 -0.6279
  659MOL0     H90900   7.115   6.547   1.207 -2.2387 -3.4959 -4.1912
  659MOL0     H90901   7.190   6.226   1.119  0.8469  1.5898  1.0842
  659MOL0     H90902   7.095   6.284   0.978 -1.1064 -3.1145  0.7670
  659MOL0     H90903   7.041   6.329   1.129  1.5351  3.2539  1.3309
  659MOL0     H90904   7.176   6.013   0.844 -0.0660  2.0357  0.5609
  659MOL0     H90905   7.244   5.802   0.688 -1.2047  0.8604 -3.0100
  659MOL0     H90906   7.613   5.840   0.455 -0.9438  0.1284  2.2028
  659MOL0     H90907   7.538   5.695   0.386  3.2378  0.1240 -3.8120
  659MOL0     H90908   7.416   5.965   0.335  1.1508  0.9130 -1.6202
  659MOL0     H90909   7.531   5.903   0.230  1.1785  1.4747  1.1627
  659MOL0     H90910   7.246   5.824   0.265  0.6304  0.6124 -1.2690
  659MOL0     H90911   7.340   5.683   0.266 -2.6934 -0.4771 -2.5895
  659MOL0     H90912   7.475   5.758   0.049 -0.5148  0.1245 -0.5425
  659MOL0     H90913   7.372   5.897   0.038  1.1693 -0.4432 -2.2869
  659MOL0     H90914   7.289   5.609   0.043  0.2425 -1.6685 -5.0797
  659MOL0     H90915   7.174   5.744   0.027 -0.9554 -0.3120 -2.2438
  659MOL0     H90916   7.392   5.659  -0.176  2.6032  3.5110  2.3158
  659MOL0     H90917   7.302   5.809  -0.176  0.3985  0.0309 -0.0907
  659MOL0     H90918   7.083   5.661  -0.213  1.0913  1.6606 -2.0568
  659MOL0     H90919   7.194   5.515  -0.213  0.6528 -0.5488 -1.3657
  659MOL0     H90920   7.164   5.580  -0.442 -3.0437  0.0781 -0.1788
  659MOL0     H90921   7.318   5.655  -0.394  0.7025 -3.6750  0.1836
  659MOL0     H90922   7.563   6.030   0.551  0.9525 -1.9417  1.3870
  659MOL0     H90923   7.478   6.242   0.664 -1.8765  0.8129  0.7186
  659MOL0     H90924   7.520   6.534   0.932 -1.3575 -1.2566 -2.2839
  659MOL0     H90925   7.475   6.737   1.055  2.9510 -3.2747 -1.0993
  659MOL0     H90926   6.769   6.937   1.044 -2.7633  2.5572 -2.5294
  659MOL0     H90927   6.918   6.765   0.937  3.5621  0.2714 -0.7146
  659MOL0     H90928   7.229   6.612   0.780  3.6572 -0.7502 -0.9504
  659MOL0     H90929   7.319   6.403   0.693 -0.6176 -1.0035 -1.0373
  659MOL0     H90930   7.215   6.108   0.426  2.6535 -0.0800 -0.0196
  659MOL0     H90931   7.132   6.243   0.343  1.1401  1.7381 -2.0379
  659MOL0     H90932   7.299   6.093   0.202  0.4070  1.3237 -1.0024
  659MOL0     H90933   7.422   6.166   0.301  0.2037 -0.0548 -0.2168
  659MOL0     H90934   7.358   6.392   0.204  4.1130 -1.4995 -1.0242
  659MOL0     H90935   7.412   6.284   0.096  1.0928  0.5285  0.9243
  659MOL0     H90936   7.225   6.402   0.007 -2.1349  0.1194 -0.5237
  659MOL0     H90937   7.110   6.363   0.127  0.3444 -1.2368  0.8559
  659MOL0     H90938   7.105   6.017  -0.103 -1.3424  0.9943 -0.5152
  659MOL0     H90939   7.179   6.491   0.309  0.1950 -1.4460  0.4946
  659MOL0     H90940   7.108   6.820   0.355  0.2738  0.4138  3.7678
  659MOL0     H90941   7.087   6.690   0.244 -1.8933 -0.1211 -0.5506
  659MOL0     H90942   6.954   6.735   0.348 -0.0081  1.7714  3.5134
  660MOL0     O90943   3.021   0.761   8.213  0.2243 -0.3337 -0.7138
  660MOL0     C90944   3.092   0.697   8.136  0.0494  0.1851  0.0356
  660MOL0     O90945   3.053   0.664   8.001  0.1931 -0.7037 -0.1299
  660MOL0     C90946   2.920   0.672   7.966  0.2828  0.8094 -0.0832
  660MOL0     C90947   2.805   0.646   8.050 -0.6259  0.0872 -0.4276
  660MOL0     C90948   2.676   0.663   8.008  0.8048 -0.0714  0.2837
  660MOL0     C90949   2.657   0.686   7.869 -0.7866 -0.1471 -0.5383
  660MOL0     O90950   2.531   0.692   7.824  0.4905  0.6295  0.7122
  660MOL0     C90951   2.507   0.642   7.688  0.2001  0.4386  0.9629
  660MOL0     C90952   2.378   0.577   7.678  0.0213  0.5287  0.1448
  660MOL0     C90953   2.258   0.653   7.725 -0.2457  1.0507 -0.0036
  660MOL0     C90954   2.135   0.567   7.750  0.0468 -0.1979 -0.3669
  660MOL0     C90955   2.033   0.648   7.830 -0.1533 -0.5253  0.0277
  660MOL0     C90956   1.895   0.582   7.825 -0.2193 -0.4028 -0.4043
  660MOL0     C90957   1.890   0.451   7.906  0.3252  0.0319 -0.4226
  660MOL0     C90958   1.775   0.368   7.868 -0.2488 -0.6167  0.7576
  660MOL0     N90959   1.641   0.433   7.900  0.6512 -0.0714 -0.2534
  660MOL0     C90960   1.597   0.482   8.021 -0.5970 -0.4388 -0.3131
  660MOL0     C90961   1.473   0.533   7.995  1.2142  0.1402 -0.4173
  660MOL0     C90962   1.395   0.597   8.109  0.7752 -0.0309 -0.3670
  660MOL0     C90963   1.281   0.500   8.153  0.0093  0.0646 -0.0924
  660MOL0     C90964   1.317   0.360   8.198 -0.0339  0.5937 -0.2222
  660MOL0     C90965   1.395   0.366   8.335  0.9611 -0.0013 -0.3272
  660MOL0     O90966   1.412   0.234   8.385 -0.2703 -0.6262  0.3329
  660MOL0     C90967   1.304   0.190   8.450 -0.0378  1.0540 -0.6691
  660MOL0     C90968   1.197   0.118   8.391 -0.2017 -0.9147 -0.7340
  660MOL0     C90969   1.090   0.074   8.468  0.1066  0.8110 -0.3852
  660MOL0     C90970   0.979  -0.018   8.406  0.4481  0.1887 -0.3757
  660MOL0     C90971   1.094   0.094   8.609 -0.0331 -0.6500 -0.1614
  660MOL0     C90972   0.983   0.060   8.695  0.3717 -0.8817  0.0600
  660MOL0     O90973   1.026   0.024   8.818  0.9868  0.8260  0.2426
  660MOL0     C90974   0.934  -0.019   8.912 -0.0431  0.1786  0.1016
  660MOL0     C90975   0.942  -0.140   8.963  0.7549  0.6776 -0.7116
  660MOL0     C90976   0.851  -0.172   9.059  1.3040 -0.1539  0.5774
  660MOL0     C90977   0.768  -0.088   9.117 -0.2876  0.0955  0.5222
  660MOL0     O90978   0.699  -0.135   9.225  0.0767 -0.6980  0.9064
  660MOL0     C90979   0.627  -0.031   9.304 -0.1226 -0.8686  0.8890
  660MOL0     C90980   0.551  -0.093   9.411 -0.1584  0.1358 -0.8117
  660MOL0     C90981   0.448  -0.200   9.362  0.7396  0.5758 -0.0502
  660MOL0     C90982   0.390  -0.271   9.479 -0.4084  1.0905  0.0209
  660MOL0     C90983   0.301  -0.386   9.429  0.7422  0.9164  0.0844
  660MOL0     C90984   0.317  -0.515   9.519  0.3264 -0.9428 -0.7623
  660MOL0     C90985   0.209  -0.616   9.520 -0.2374 -0.2861 -0.7379
  660MOL0     C90986   0.221  -0.751   9.587  0.5816  0.0279 -1.1345
  660MOL0    Cl90987   0.377  -0.829   9.528 -0.1366 -0.3579  0.3207
  660MOL0     C90988   0.750   0.035   9.050  0.0714 -0.6838 -0.6243
  660MOL0     C90989   0.840   0.069   8.952  0.4816 -0.2951  0.0934
  660MOL0     O90990   0.863   0.079   8.665 -0.4363 -0.8935 -0.4127
  660MOL0     C90991   1.196   0.159   8.668 -0.7139 -0.2179  0.6310
  660MOL0     C90992   1.301   0.211   8.584 -0.1408 -0.7594  0.5951
  660MOL0     N90993   1.453   0.522   7.856 -0.3235 -0.5582  0.1763
  660MOL0     N90994   1.547   0.449   7.806 -0.1643  0.3335  0.1243
  660MOL0     C90995   2.769   0.715   7.784 -0.1353 -0.3666 -0.3419
  660MOL0     C90996   2.899   0.699   7.832  0.6363  0.9641 -0.3524
  660MOL0     C90997   3.210   0.638   8.206  0.1545  0.7877 -0.2206
  660MOL0     C90998   3.250   0.688   8.339 -0.5248  0.4277  0.0551
  660MOL0     C90999   3.362   0.626   8.400  0.8885 -0.0198  0.1137
  660MOL0     C91000   3.431   0.527   8.335 -0.2930  0.1177 -0.1555
  660MOL0     O91001   3.537   0.458   8.402  0.3841  0.1835 -0.0305
  660MOL0     C91002   3.475   0.360   8.484 -0.9549  0.1841 -0.6588
  660MOL0     C91003   3.572   0.242   8.498  0.8619 -0.3803 -0.5145
  660MOL0     C91004   3.601   0.155   8.379  0.6417  0.1791  0.4696
  660MOL0     C91005   3.732   0.079   8.413 -0.1894 -0.0428 -0.1979
  660MOL0     C91006   3.770   0.006   8.290  0.8236 -0.2465  0.7197
  660MOL0     C91007   3.796  -0.072   8.200  0.2121 -0.2639  0.2553
  660MOL0     C91008   3.405   0.495   8.206 -0.7316 -0.2138  0.3587
  660MOL0     C91009   3.291   0.542   8.140 -0.0377  1.0350 -0.1600
  660MOL0     C91010   3.258   0.473   8.006  0.3533 -0.0898  0.2594
  660MOL0     H91011   2.825   0.634   8.156  0.3105  0.1506 -0.5856
  660MOL0     H91012   2.587   0.634   8.063  0.4088 -1.9781 -1.2253
  660MOL0     H91013   2.577   0.567   7.649 -4.1745 -4.9060  2.1145
  660MOL0     H91014   2.501   0.735   7.631 -0.6636  1.2259  2.2766
  660MOL0     H91015   2.367   0.537   7.577  0.5367 -1.1487  0.7134
  660MOL0     H91016   2.385   0.485   7.737  1.3473 -0.5228 -1.5586
  660MOL0     H91017   2.293   0.705   7.814  4.0015  0.6544 -1.2575
  660MOL0     H91018   2.236   0.732   7.652 -0.5051  0.7142 -0.2895
  660MOL0     H91019   2.094   0.535   7.654 -0.8298 -1.1082  0.2851
  660MOL0     H91020   2.163   0.481   7.813  1.8130  1.9015  1.9073
  660MOL0     H91021   2.022   0.751   7.794  3.1686  0.3086  1.0371
  660MOL0     H91022   2.060   0.643   7.936 -1.3039  1.2875  0.4542
  660MOL0     H91023   1.817   0.651   7.861 -0.3310 -0.8631  0.2493
  660MOL0     H91024   1.866   0.565   7.721 -0.8749  2.4968 -0.7839
  660MOL0     H91025   1.874   0.471   8.013  3.7260  1.4366 -0.0492
  660MOL0     H91026   1.977   0.385   7.899  2.4278  2.5811  0.1795
  660MOL0     H91027   1.784   0.336   7.764 -0.5740  0.1060  0.5022
  660MOL0     H91028   1.768   0.275   7.925 -0.4674 -1.4070 -0.5104
  660MOL0     H91029   1.658   0.483   8.111  0.7610  0.4752 -1.1993
  660MOL0     H91030   1.352   0.696   8.092  1.9529  0.4793 -0.4584
  660MOL0     H91031   1.458   0.601   8.199 -0.6152 -4.6138  1.1280
  660MOL0     H91032   1.214   0.550   8.224 -0.6018  1.2251 -1.4194
  660MOL0     H91033   1.216   0.489   8.065  2.1815 -0.2032 -1.7648
  660MOL0     H91034   1.220   0.309   8.202  1.9456 -3.6354 -1.0632
  660MOL0     H91035   1.382   0.307   8.128 -1.1330 -1.7725  0.4440
  660MOL0     H91036   1.500   0.394   8.320  2.0789 -1.6027  3.4480
  660MOL0     H91037   1.347   0.439   8.401  1.0246  0.5357 -0.8603
  660MOL0     H91038   1.193   0.099   8.284 -1.0515  1.2891 -1.1453
  660MOL0     H91039   0.998  -0.027   8.299  0.2355 -0.1163 -0.3910
  660MOL0     H91040   0.881   0.020   8.434  2.3764  3.9177  2.1130
  660MOL0     H91041   0.996  -0.115   8.454  1.2460  1.0568  1.1670
  660MOL0     H91042   1.016  -0.206   8.920  0.9004  1.5569 -1.8819
  660MOL0     H91043   0.856  -0.273   9.100  1.8606 -0.8480 -1.1300
  660MOL0     H91044   0.700   0.033   9.355 -0.6312 -2.1249  3.3528
  660MOL0     H91045   0.558   0.034   9.249  0.5882 -2.2371 -1.8074
  660MOL0     H91046   0.607  -0.150   9.486 -1.4546 -2.8640 -1.9509
  660MOL0     H91047   0.483  -0.023   9.461  0.3676 -2.5961  4.4089
  660MOL0     H91048   0.502  -0.276   9.305 -0.4875 -1.2999  1.1682
  660MOL0     H91049   0.371  -0.162   9.294  1.5482 -2.3143 -2.8285
  660MOL0     H91050   0.315  -0.208   9.528 -1.4545  1.6727 -2.2153
  660MOL0     H91051   0.466  -0.317   9.542 -0.5634 -0.1968 -0.7042
  660MOL0     H91052   0.200  -0.345   9.418  0.1998 -0.7819 -2.0142
  660MOL0     H91053   0.329  -0.402   9.324 -0.0023 -0.7949  0.1210
  660MOL0     H91054   0.320  -0.472   9.619  1.1432 -1.0572 -0.7328
  660MOL0     H91055   0.413  -0.559   9.494  2.0809  0.9554  2.0605
  660MOL0     H91056   0.190  -0.634   9.414 -2.2426 -0.5204 -0.3916
  660MOL0     H91057   0.133  -0.560   9.575  0.5013 -0.7911  0.8658
  660MOL0     H91058   0.130  -0.806   9.564  0.6453 -0.6429  0.1187
  660MOL0     H91059   0.222  -0.744   9.697  0.0691  0.9586 -1.1788
  660MOL0     H91060   0.675   0.108   9.080  3.8072  2.1641  3.1013
  660MOL0     H91061   0.859   0.170   8.916  4.2799 -1.2045 -0.9192
  660MOL0     H91062   1.207   0.191   8.771  1.6931 -0.1605  0.4186
  660MOL0     H91063   1.386   0.265   8.625  0.7561  0.1734 -2.2440
  660MOL0     H91064   2.764   0.735   7.677  3.9286  2.6601 -0.2041
  660MOL0     H91065   2.976   0.695   7.756  0.0252 -3.2584 -0.9840
  660MOL0     H91066   3.191   0.767   8.385 -3.4712 -0.2920 -2.1771
  660MOL0     H91067   3.374   0.658   8.503 -2.2088  4.3763 -0.5979
  660MOL0     H91068   3.465   0.410   8.581 -0.4648 -1.0565  0.0427
  660MOL0     H91069   3.374   0.335   8.449 -1.9250  0.2999  1.8690
  660MOL0     H91070   3.535   0.175   8.577  1.9333 -1.2043 -0.6849
  660MOL0     H91071   3.664   0.287   8.535  0.0113  0.8339  0.1756
  660MOL0     H91072   3.514   0.089   8.373  2.2405 -2.3709  2.9847
  660MOL0     H91073   3.626   0.203   8.284 -0.8406 -2.0680 -1.1477
  660MOL0     H91074   3.710   0.014   8.498 -0.0185  0.4922  0.2639
  660MOL0     H91075   3.810   0.148   8.446 -1.6182  1.0705  0.9734
  660MOL0     H91076   3.813  -0.149   8.128 -0.3418 -1.4541  1.3345
  660MOL0     H91077   3.465   0.416   8.161 -1.6293 -0.5797 -0.2281
  660MOL0     H91078   3.325   0.398   7.964 -1.7470 -1.0732 -1.4781
  660MOL0     H91079   3.163   0.421   8.019  1.6535 -2.2574  1.9608
  660MOL0     H91080   3.264   0.552   7.931 -1.3189 -1.4264 -1.3742
  661MOL0     O91081   7.307   6.086  10.922  0.0339 -0.7891  0.0842
  661MOL0     C91082   7.422   6.070  10.947 -0.5125 -0.4042 -0.1620
  661MOL0     O91083   7.510   6.006  10.867  0.1104 -0.1663 -0.1974
  661MOL0     C91084   7.467   5.957  10.743 -0.9425  0.4382 -1.0139
  661MOL0     C91085   7.427   5.825  10.731  0.2126  0.0483  0.3689
  661MOL0     C91086   7.394   5.788  10.599  0.9877 -0.0944  0.7299
  661MOL0     C91087   7.395   5.877  10.494  0.6833  0.1421  0.5971
  661MOL0     O91088   7.336   5.834  10.371  0.3361 -0.0879 -0.5002
  661MOL0     C91089   7.303   5.693  10.340  0.3833  0.6387  0.2418
  661MOL0     C91090   7.241   5.702  10.192 -0.3433  2.1676 -0.2103
  661MOL0     C91091   7.087   5.711  10.206 -0.1344 -0.2026 -0.2872
  661MOL0     C91092   7.002   5.585  10.199  0.1168  0.0229 -0.2444
  661MOL0     C91093   6.854   5.620  10.218  0.4078 -0.6093  0.1794
  661MOL0     C91094   6.767   5.509  10.271 -0.0205  0.6385 -1.0689
  661MOL0     C91095   6.753   5.386  10.179 -0.5284 -0.1003 -0.3370
  661MOL0     C91096   6.674   5.268  10.219 -0.1138 -0.7838  0.6453
  661MOL0     N91097   6.677   5.172  10.108  0.8217  0.8160 -0.5026
  661MOL0     C91098   6.782   5.086  10.092 -0.2320  0.1124  0.6324
  661MOL0     C91099   6.744   5.007   9.986 -0.7532  0.7128  0.3573
  661MOL0     C91100   6.836   4.921   9.904 -0.5488  1.3949  0.4267
  661MOL0     C91101   6.793   4.871   9.762  0.0479 -0.2518 -0.1930
  661MOL0     C91102   6.788   4.979   9.655  0.2706 -0.5050 -0.0981
  661MOL0     C91103   6.750   4.925   9.516  0.6705  0.4122 -1.2550
  661MOL0     O91104   6.637   4.832   9.502  0.8084 -0.8259 -0.0382
  661MOL0     C91105   6.599   4.796   9.368  0.5030 -0.1528 -1.5027
  661MOL0     C91106   6.505   4.699   9.359  0.2670  0.6673  0.9422
  661MOL0     C91107   6.447   4.652   9.244 -1.4548  0.5013 -0.0016
  661MOL0     C91108   6.351   4.539   9.272  0.4381 -0.3389 -0.0433
  661MOL0     C91109   6.489   4.720   9.121 -0.2858 -0.4335 -0.1504
  661MOL0     C91110   6.433   4.681   8.984  0.1428 -0.6483  0.5322
  661MOL0     O91111   6.483   4.753   8.879 -0.0217  0.1196 -0.3459
  661MOL0     C91112   6.420   4.742   8.763  0.6882 -0.7443  0.4005
  661MOL0     C91113   6.364   4.859   8.712  0.5046 -0.3426  0.8662
  661MOL0     C91114   6.285   4.871   8.601  0.2320 -0.4910  0.2279
  661MOL0     C91115   6.245   4.753   8.535 -0.8440  0.6795 -0.4636
  661MOL0     O91116   6.164   4.753   8.422 -0.1758 -0.7160 -0.3800
  661MOL0     C91117   6.095   4.866   8.372  0.2554 -0.2778  0.9478
  661MOL0     C91118   5.981   4.910   8.456  0.3899  0.3678 -0.5678
  661MOL0     C91119   5.925   5.049   8.430  0.2606 -0.3305  1.2977
  661MOL0     C91120   5.911   5.079   8.276  0.4433  0.9070  0.5941
  661MOL0     C91121   5.818   5.205   8.237 -0.5050 -1.2523  0.5067
  661MOL0     C91122   5.855   5.338   8.309  0.4474 -0.6072  0.6398
  661MOL0     C91123   5.950   5.418   8.232  0.6476  0.5654  0.3705
  661MOL0     C91124   6.041   5.512   8.318 -0.5156  0.4107  0.2901
  661MOL0    Cl91125   6.195   5.426   8.354  0.4330  0.0902 -0.1749
  661MOL0     C91126   6.305   4.630   8.574  0.2848 -0.3767 -0.5737
  661MOL0     C91127   6.382   4.627   8.694 -0.7778  0.1429 -0.1658
  661MOL0     O91128   6.340   4.602   8.980 -0.3710 -0.1093 -0.2643
  661MOL0     C91129   6.576   4.832   9.132  0.3227  0.0763 -0.0495
  661MOL0     C91130   6.632   4.863   9.256 -0.0536 -1.0551  0.1783
  661MOL0     N91131   6.615   5.040   9.951 -0.2577  0.4585  0.1190
  661MOL0     N91132   6.575   5.144  10.025 -0.1760 -0.1809  0.4008
  661MOL0     C91133   7.431   6.007  10.512 -0.3422 -0.3514 -0.0493
  661MOL0     C91134   7.478   6.045  10.636  0.6899 -0.2385  1.0267
  661MOL0     C91135   7.463   6.130  11.078 -0.6997 -0.0087  0.2350
  661MOL0     C91136   7.371   6.119  11.183  0.7990  0.1183 -0.3219
  661MOL0     C91137   7.407   6.161  11.310 -0.6037 -0.0477  0.0850
  661MOL0     C91138   7.530   6.215  11.336 -0.1835 -1.1562 -0.0345
  661MOL0     O91139   7.550   6.240  11.472  0.1466 -0.0636 -0.3027
  661MOL0     C91140   7.685   6.268  11.517 -0.7468 -0.0737  0.5771
  661MOL0     C91141   7.681   6.236  11.671  0.1561  0.3625  0.6948
  661MOL0     C91142   7.823   6.263  11.718 -0.5841 -0.0721 -0.2985
  661MOL0     C91143   7.838   6.201  11.854 -1.2879 -0.3230  0.5533
  661MOL0     C91144   7.744   6.250  11.959  0.6437  0.5225  0.4987
  661MOL0     C91145   7.664   6.294  12.043  0.2161 -0.2312  0.5240
  661MOL0     C91146   7.613   6.247  11.233 -0.8409  0.1018  0.6671
  661MOL0     C91147   7.590   6.191  11.106 -0.3009  0.1289  0.5986
  661MOL0     C91148   7.707   6.196  11.009  0.4483 -1.2621  0.0063
  661MOL0     H91149   7.433   5.767  10.823 -0.5736  0.2672  0.5683
  661MOL0     H91150   7.361   5.687  10.578  4.5894 -1.3142  0.1676
  661MOL0     H91151   7.229   5.657  10.411  0.1612  0.3225 -0.1425
  661MOL0     H91152   7.394   5.632  10.342  4.5262  6.0901  0.5783
  661MOL0     H91153   7.279   5.780  10.125 -2.0775  2.5932 -0.7470
  661MOL0     H91154   7.266   5.611  10.136  4.8570  3.0528  0.1323
  661MOL0     H91155   7.061   5.760  10.300 -3.0043 -1.7784 -0.1506
  661MOL0     H91156   7.050   5.777  10.127 -5.4439  1.2792  2.9383
  661MOL0     H91157   7.031   5.531  10.109 -0.0156 -1.4900  0.5942
  661MOL0     H91158   7.037   5.534  10.289  3.6666  0.8862 -0.9965
  661MOL0     H91159   6.799   5.645  10.127  0.2895  1.2298  0.7165
  661MOL0     H91160   6.834   5.693  10.297  2.6360 -1.0281  1.1974
  661MOL0     H91161   6.803   5.482  10.371  2.7820  0.7637 -1.9644
  661MOL0     H91162   6.666   5.550  10.284 -2.3821 -4.7227  0.1873
  661MOL0     H91163   6.854   5.351  10.155 -0.2158  0.5149  0.0658
  661MOL0     H91164   6.705   5.411  10.084 -0.5635 -2.4913 -1.0293
  661MOL0     H91165   6.716   5.222  10.309  0.6994 -2.8204 -0.7017
  661MOL0     H91166   6.572   5.306  10.234  0.6183  1.2575  0.7668
  661MOL0     H91167   6.880   5.089  10.138  0.0190  3.6273  0.1321
  661MOL0     H91168   6.861   4.838   9.970 -0.8413  1.5951  0.7927
  661MOL0     H91169   6.931   4.974   9.893  0.2227  1.3504  5.0363
  661MOL0     H91170   6.879   4.812   9.728  0.7991  0.5726  0.2228
  661MOL0     H91171   6.700   4.815   9.773  0.0786 -0.6287 -1.6029
  661MOL0     H91172   6.734   5.068   9.692  1.2300  1.3324 -2.8144
  661MOL0     H91173   6.890   5.018   9.648  0.1041  0.0247  0.2754
  661MOL0     H91174   6.709   4.997   9.444 -3.7675 -1.6386 -1.1351
  661MOL0     H91175   6.840   4.878   9.476  1.3131  1.0250 -0.5511
  661MOL0     H91176   6.486   4.664   9.460  1.8963  0.8294  1.3368
  661MOL0     H91177   6.245   4.567   9.271  0.2628 -0.9662  0.3198
  661MOL0     H91178   6.367   4.491   9.369  0.7592 -1.7563 -0.7704
  661MOL0     H91179   6.370   4.467   9.192 -2.4786 -0.7733 -0.4580
  661MOL0     H91180   6.405   4.941   8.769  1.5840  0.7490 -1.3633
  661MOL0     H91181   6.248   4.969   8.570  0.5871 -0.4790 -0.1707
  661MOL0     H91182   6.155   4.953   8.345 -0.5250  1.5312  4.4571
  661MOL0     H91183   6.052   4.827   8.280  1.7245 -0.0116  0.1091
  661MOL0     H91184   5.904   4.834   8.441  2.1139 -1.1214 -2.3598
  661MOL0     H91185   6.010   4.906   8.562  1.7250 -2.4050 -0.9653
  661MOL0     H91186   5.972   5.136   8.476 -0.3365  1.0267 -0.5554
  661MOL0     H91187   5.819   5.051   8.456 -0.6684 -0.4932 -2.0412
  661MOL0     H91188   5.860   5.004   8.215  3.5139  1.2240 -2.7139
  661MOL0     H91189   6.010   5.095   8.233 -0.1524  0.5444 -0.9859
  661MOL0     H91190   5.817   5.231   8.131 -1.7062  1.1266  1.0330
  661MOL0     H91191   5.721   5.175   8.277 -1.2789  1.2681  0.6720
  661MOL0     H91192   5.894   5.326   8.410  1.6486 -0.6542  0.1829
  661MOL0     H91193   5.766   5.401   8.313  0.6111 -0.0261 -2.5081
  661MOL0     H91194   5.893   5.490   8.172  0.4158 -0.1046 -0.2346
  661MOL0     H91195   6.003   5.359   8.157 -2.2463  1.0987 -2.3112
  661MOL0     H91196   5.993   5.562   8.402 -1.4951 -1.1633  0.7161
  661MOL0     H91197   6.060   5.599   8.255  0.4562  0.5713  0.7836
  661MOL0     H91198   6.267   4.541   8.525  1.2931 -1.2359  0.1529
  661MOL0     H91199   6.435   4.534   8.713  2.1549  1.9409  1.2404
  661MOL0     H91200   6.593   4.893   9.043 -3.2843  1.0802 -0.1906
  661MOL0     H91201   6.718   4.929   9.258  0.6576 -1.8434  4.4511
  661MOL0     H91202   7.448   6.085  10.439  0.8829  0.7193  1.3089
  661MOL0     H91203   7.498   6.148  10.663 -2.2029  1.0412 -1.1405
  661MOL0     H91204   7.274   6.073  11.165  1.6087 -1.5913 -0.5086
  661MOL0     H91205   7.341   6.157  11.396 -0.7084 -0.0465  0.0053
  661MOL0     H91206   7.767   6.209  11.476  0.1018  0.8280  0.9327
  661MOL0     H91207   7.712   6.374  11.505  0.2581 -0.4540 -0.6457
  661MOL0     H91208   7.641   6.136  11.690 -1.9105  0.1002 -3.8161
  661MOL0     H91209   7.609   6.308  11.709 -2.2417  1.2803 -4.7213
  661MOL0     H91210   7.892   6.214  11.648 -2.0019 -0.8668 -1.1783
  661MOL0     H91211   7.836   6.371  11.728 -4.1902  0.6737 -2.1727
  661MOL0     H91212   7.933   6.232  11.898 -1.6445  0.1499  1.0122
  661MOL0     H91213   7.835   6.092  11.846  0.1616 -0.6167  2.9739
  661MOL0     H91214   7.597   6.322  12.121 -1.1684  0.0230 -0.6997
  661MOL0     H91215   7.711   6.284  11.261 -1.8661  2.9124  0.7616
  661MOL0     H91216   7.801   6.155  11.047  0.3657 -1.7740 -0.3329
  661MOL0     H91217   7.691   6.165  10.905  5.4695 -0.9152 -1.1387
  661MOL0     H91218   7.720   6.302  10.987  1.5438 -1.1798  0.9765
  662MOL0     O91219   9.500   8.730  11.131 -0.4241 -0.5043  0.1521
  662MOL0     C91220   9.536   8.648  11.050 -0.7061  0.4687  0.8192
  662MOL0     O91221   9.641   8.552  11.065  0.5847  0.0217 -0.7461
  662MOL0     C91222   9.744   8.579  11.155 -0.2709 -1.2950  0.4635
  662MOL0     C91223   9.841   8.481  11.192 -0.0612  1.1102 -0.5348
  662MOL0     C91224   9.957   8.502  11.277 -0.2774 -0.8343  0.3208
  662MOL0     C91225   9.986   8.630  11.322  0.1721  0.5650 -0.2091
  662MOL0     O91226  10.093   8.667  11.406  1.0065  0.0914 -0.1920
  662MOL0     C91227  10.174   8.558  11.452 -0.7347  0.2478 -0.4236
  662MOL0     C91228  10.269   8.633  11.547 -0.4628 -0.3985 -0.3443
  662MOL0     C91229  10.196   8.654  11.687  0.0275  0.0388  0.2686
  662MOL0     C91230  10.292   8.686  11.803 -0.0869  0.5097  1.0857
  662MOL0     C91231  10.238   8.684  11.952 -0.1807 -0.1526  0.2906
  662MOL0     C91232  10.255   8.556  12.028 -0.3162  1.2973  1.0350
  662MOL0     C91233  10.157   8.455  11.974  1.0204 -0.2380  0.1566
  662MOL0     C91234  10.144   8.343  12.085 -0.1037  0.5675  0.2360
  662MOL0     N91235  10.026   8.256  12.062 -0.2225  0.9185 -0.0382
  662MOL0     C91236  10.028   8.136  11.994 -0.3113 -0.1371  0.3779
  662MOL0     C91237   9.901   8.082  11.996  0.9491  0.2242 -0.4261
  662MOL0     C91238   9.848   7.954  11.962 -0.6515  0.4954 -0.7073
  662MOL0     C91239   9.739   7.901  12.069 -0.4593  0.4251 -0.6161
  662MOL0     C91240   9.690   7.763  12.024 -0.2435 -0.8033 -0.3926
  662MOL0     C91241   9.550   7.737  12.088 -0.4098  0.7359 -0.0156
  662MOL0     O91242   9.554   7.731  12.229 -0.1720 -0.3378 -0.3572
  662MOL0     C91243   9.451   7.676  12.308  0.5094 -0.6369 -0.0497
  662MOL0     C91244   9.315   7.660  12.266  0.1476  0.0390  0.4958
  662MOL0     C91245   9.223   7.601  12.356 -0.4180  0.6912  0.8022
  662MOL0     C91246   9.085   7.589  12.300  0.5814  1.4101  0.2739
  662MOL0     C91247   9.263   7.579  12.491  0.6018  0.3153  0.9126
  662MOL0     C91248   9.162   7.548  12.594  0.4349 -0.5093  0.5440
  662MOL0     O91249   9.199   7.585  12.715  0.5104 -0.0380 -0.0501
  662MOL0     C91250   9.110   7.594  12.821  0.0096 -0.7618 -0.0518
  662MOL0     C91251   9.075   7.493  12.915  0.1534 -0.5028 -0.6393
  662MOL0     C91252   8.988   7.521  13.028  0.3373 -0.7984  0.8223
  662MOL0     C91253   8.935   7.649  13.046  0.3630  0.2258 -0.7383
  662MOL0     O91254   8.850   7.669  13.152  1.3569 -0.4798  0.4504
  662MOL0     C91255   8.732   7.762  13.128  0.3657  0.2774  0.1074
  662MOL0     C91256   8.631   7.709  13.241 -1.1895 -0.3212 -0.4492
  662MOL0     C91257   8.517   7.800  13.255 -0.2284 -0.0354  0.3782
  662MOL0     C91258   8.401   7.737  13.328  0.0529  0.3957  0.2112
  662MOL0     C91259   8.272   7.828  13.320 -0.0718  0.8064 -0.3544
  662MOL0     C91260   8.157   7.755  13.399  0.7843 -0.4339  0.3641
  662MOL0     C91261   8.163   7.792  13.545  0.5506  0.4924  0.4959
  662MOL0     C91262   8.031   7.749  13.611  1.1992  0.1957  0.6118
  662MOL0    Cl91263   8.019   7.810  13.774 -0.1178  0.0529  0.0459
  662MOL0     C91264   8.972   7.748  12.958  0.1884 -1.2655  0.9463
  662MOL0     C91265   9.051   7.722  12.848  0.8513 -0.4700  0.1020
  662MOL0     O91266   9.040   7.514  12.568  0.0134  0.1326  0.6894
  662MOL0     C91267   9.401   7.599  12.524 -0.2930 -0.2238  0.1095
  662MOL0     C91268   9.493   7.641  12.429 -0.6253  0.5578 -0.8896
  662MOL0     N91269   9.819   8.175  12.057 -1.0427 -0.2731 -0.1636
  662MOL0     N91270   9.897   8.281  12.090  0.7506 -0.0607  0.0900
  662MOL0     C91271   9.886   8.732  11.293 -0.9125 -0.4785  0.0425
  662MOL0     C91272   9.771   8.710  11.214 -0.1827  0.0400 -0.5093
  662MOL0     C91273   9.452   8.635  10.926 -0.9390 -0.4068  0.2399
  662MOL0     C91274   9.431   8.502  10.879 -0.5210 -0.9464  0.9085
  662MOL0     C91275   9.347   8.473  10.773 -0.3721 -1.1943 -0.1524
  662MOL0     C91276   9.285   8.587  10.712  0.6920 -0.1665  0.0489
  662MOL0     O91277   9.201   8.562  10.608  0.6658  0.4901 -0.4113
  662MOL0     C91278   9.251   8.556  10.476 -0.5671 -0.3849 -0.1799
  662MOL0     C91279   9.253   8.413  10.426  0.6380  0.0378  0.2848
  662MOL0     C91280   9.267   8.413  10.276 -0.5003  0.3487  0.9530
  662MOL0     C91281   9.403   8.371  10.239 -0.4519 -0.2717  1.2144
  662MOL0     C91282   9.445   8.384  10.100  0.2651  0.1058 -0.2654
  662MOL0     C91283   9.461   8.406   9.979 -0.0261  0.3683  0.2258
  662MOL0     C91284   9.292   8.720  10.760 -0.2986  0.5547 -0.0296
  662MOL0     C91285   9.375   8.744  10.875 -0.2231 -0.3410  0.5372
  662MOL0     C91286   9.396   8.891  10.910 -0.4618  0.4393  0.5237
  662MOL0     H91287   9.826   8.382  11.149 -1.1769  1.9429 -2.1314
  662MOL0     H91288  10.022   8.419  11.301 -1.8981 -1.2018  4.2254
  662MOL0     H91289  10.226   8.519  11.364  0.0441  1.6979 -0.6555
  662MOL0     H91290  10.116   8.484  11.507  3.3490 -1.8471  1.5615
  662MOL0     H91291  10.349   8.560  11.565 -0.1396 -0.2390 -1.0702
  662MOL0     H91292  10.317   8.719  11.499  2.1724 -2.0752 -0.9581
  662MOL0     H91293  10.127   8.739  11.681 -2.1907 -1.7530 -0.9901
  662MOL0     H91294  10.136   8.567  11.714 -1.5937  1.6248  2.1589
  662MOL0     H91295  10.373   8.614  11.792  1.8456  2.4222  2.0164
  662MOL0     H91296  10.328   8.785  11.774 -3.6322  1.1872 -1.7668
  662MOL0     H91297  10.133   8.716  11.953 -0.6081 -0.9921 -3.2453
  662MOL0     H91298  10.286   8.761  12.013 -0.9144 -0.0532  0.7569
  662MOL0     H91299  10.359   8.522  12.028 -1.5044 -3.0333 -0.2617
  662MOL0     H91300  10.236   8.564  12.136  2.9816  0.5441  1.7760
  662MOL0     H91301  10.177   8.411  11.876 -4.9689 -2.6469 -0.4396
  662MOL0     H91302  10.056   8.497  11.960  0.5294 -1.8124 -1.4058
  662MOL0     H91303  10.233   8.283  12.108  0.1841  1.3737  1.3226
  662MOL0     H91304  10.120   8.390  12.181 -1.3229 -2.7063  1.6988
  662MOL0     H91305  10.117   8.082  11.961  0.3948  0.3034  1.5240
  662MOL0     H91306   9.935   7.888  11.970 -2.9678 -2.7479 -0.4871
  662MOL0     H91307   9.799   7.951  11.864 -3.1132  2.8752  0.3428
  662MOL0     H91308   9.799   7.907  12.160  1.0528  3.9699 -1.6733
  662MOL0     H91309   9.653   7.967  12.080 -2.2200 -1.7688 -0.5505
  662MOL0     H91310   9.690   7.748  11.916 -0.1674  1.9580 -0.8510
  662MOL0     H91311   9.758   7.688  12.065 -1.0811 -0.9015  0.8676
  662MOL0     H91312   9.485   7.823  12.070  0.9530  1.3987 -2.0479
  662MOL0     H91313   9.515   7.643  12.044  0.2068  1.3685 -1.9287
  662MOL0     H91314   9.282   7.682  12.165  1.7076 -1.1455 -0.3064
  662MOL0     H91315   9.019   7.506  12.326  0.7304  1.0293 -0.5176
  662MOL0     H91316   9.096   7.596  12.191 -2.2767  0.1815 -0.2025
  662MOL0     H91317   9.024   7.674  12.330 -1.4445 -0.2201  1.0823
  662MOL0     H91318   9.131   7.400  12.909  0.9917  0.0599 -2.0638
  662MOL0     H91319   8.986   7.451  13.111  1.4721  0.7042  2.1776
  662MOL0     H91320   8.765   7.865  13.141  0.2177  0.1256  1.8409
  662MOL0     H91321   8.696   7.743  13.026  3.9195 -1.7323 -0.9539
  662MOL0     H91322   8.591   7.612  13.210 -0.0707 -0.5970 -1.0724
  662MOL0     H91323   8.677   7.704  13.341 -1.1559  1.0161 -0.3756
  662MOL0     H91324   8.472   7.804  13.156 -2.1898  1.9837  1.2718
  662MOL0     H91325   8.546   7.899  13.291 -1.2140 -0.3126  2.0341
  662MOL0     H91326   8.420   7.716  13.434  1.5965  1.7591  0.2379
  662MOL0     H91327   8.381   7.639  13.285  1.1233 -0.1807  0.9732
  662MOL0     H91328   8.281   7.933  13.352 -0.8139  0.1394  2.3569
  662MOL0     H91329   8.252   7.839  13.213  0.3725 -1.0345 -0.6543
  662MOL0     H91330   8.161   7.646  13.388  1.8433 -0.3168 -0.5837
  662MOL0     H91331   8.060   7.781  13.357  1.0206  0.8014  0.5451
  662MOL0     H91332   8.163   7.901  13.557  1.7806  0.3944  1.6129
  662MOL0     H91333   8.249   7.753  13.601  0.0620  2.0181  2.4389
  662MOL0     H91334   8.031   7.639  13.611 -0.3747  0.1672  1.5237
  662MOL0     H91335   7.946   7.773  13.546  1.9161  1.3085  0.0555
  662MOL0     H91336   8.950   7.854  12.964 -1.7052 -1.3187 -2.4669
  662MOL0     H91337   9.077   7.802  12.779  1.4885  0.6084  1.5355
  662MOL0     H91338   9.433   7.575  12.626 -0.8505  5.1496  1.8703
  662MOL0     H91339   9.598   7.651  12.457 -0.3987  1.2224 -1.9111
  662MOL0     H91340   9.903   8.825  11.347  0.1075  0.6070 -2.0208
  662MOL0     H91341   9.712   8.801  11.212 -1.9992 -1.0163  1.4469
  662MOL0     H91342   9.493   8.424  10.921 -0.5650  0.3739  3.6404
  662MOL0     H91343   9.339   8.373  10.733 -0.6243 -0.7917 -1.1449
  662MOL0     H91344   9.178   8.614  10.419 -1.8230 -1.5254  0.2216
  662MOL0     H91345   9.354   8.594  10.473  0.4566 -2.2934  4.0094
  662MOL0     H91346   9.161   8.361  10.455  2.4315 -2.7440  1.3643
  662MOL0     H91347   9.331   8.351  10.471  1.2121  2.5375  3.0742
  662MOL0     H91348   9.209   8.331  10.231  0.4386 -0.4482  1.1670
  662MOL0     H91349   9.244   8.501  10.216  0.0939 -0.8882 -1.1907
  662MOL0     H91350   9.415   8.266  10.269 -4.9373 -1.7049 -1.0881
  662MOL0     H91351   9.485   8.428  10.284  3.7257 -1.8825 -3.3757
  662MOL0     H91352   9.459   8.405   9.871  1.0937  0.1092  0.1982
  662MOL0     H91353   9.248   8.793  10.692 -0.3348 -0.5289 -1.2051
  662MOL0     H91354   9.473   8.911  10.985 -0.6637 -2.5374  1.6360
  662MOL0     H91355   9.420   8.947  10.818 -0.0043 -3.6997 -2.1485
  662MOL0     H91356   9.304   8.932  10.954  0.2692  1.3388  1.2421
  663MOL0     O91357   4.098  11.012   1.894  0.6696  0.1879 -0.7800
  663MOL0     C91358   4.119  11.122   1.844 -0.4321 -0.1549 -0.7714
  663MOL0     O91359   4.220  11.206   1.876 -0.2832 -0.1238  0.1310
  663MOL0     C91360   4.324  11.147   1.945 -0.5377 -0.3526 -0.2132
  663MOL0     C91361   4.421  11.082   1.865 -0.3159 -0.6690  0.8059
  663MOL0     C91362   4.535  11.026   1.922 -1.2308 -0.3550  0.4690
  663MOL0     C91363   4.557  11.047   2.063  0.3719  0.6814  1.1650
  663MOL0     O91364   4.671  11.014   2.107 -0.4031  0.7192 -0.1249
  663MOL0     C91365   4.661  10.913   2.202  0.4862 -0.0821 -0.2841
  663MOL0     C91366   4.798  10.877   2.260 -0.0646  0.3724 -0.6257
  663MOL0     C91367   4.911  10.994   2.269  0.0307  1.0298 -0.4852
  663MOL0     C91368   4.872  11.095   2.375  0.0560 -0.4426 -0.3811
  663MOL0     C91369   5.001  11.186   2.407  1.1673  1.0037  0.4733
  663MOL0     C91370   5.036  11.287   2.294  0.3557 -0.1346  0.8232
  663MOL0     C91371   5.151  11.376   2.338  0.1952 -0.7231 -0.4933
  663MOL0     C91372   5.114  11.478   2.446  0.0249  0.5655  0.2291
  663MOL0     N91373   5.217  11.565   2.476  0.7360  0.5674  0.1491
  663MOL0     C91374   5.341  11.572   2.414 -0.0567 -1.4515 -0.2601
  663MOL0     C91375   5.390  11.692   2.455  0.0953 -0.4331 -0.1465
  663MOL0     C91376   5.520  11.753   2.435  0.3637 -0.3326 -0.2676
  663MOL0     C91377   5.585  11.762   2.567 -0.1057 -0.8629  0.5642
  663MOL0     C91378   5.731  11.794   2.545  0.2876  0.4922  0.3222
  663MOL0     C91379   5.767  11.934   2.495 -0.6110 -1.2800  0.1345
  663MOL0     O91380   5.907  11.956   2.521 -0.1126  0.0960 -0.2259
  663MOL0     C91381   5.954  12.083   2.489  0.2908  0.2097  0.9062
  663MOL0     C91382   5.878  12.185   2.436 -0.2265 -1.1210 -0.1872
  663MOL0     C91383   5.928  12.300   2.376 -0.5961 -0.4398 -0.0265
  663MOL0     C91384   5.827  12.403   2.344 -0.3471 -0.1235  1.1250
  663MOL0     C91385   6.068  12.326   2.381  0.4672 -0.3785  0.3568
  663MOL0     C91386   6.121  12.447   2.326  0.1664  0.2828  0.3736
  663MOL0     O91387   6.069  12.502   2.204  0.3905 -0.1792 -0.5467
  663MOL0     C91388   6.109  12.635   2.172 -0.0539 -0.4277  0.2489
  663MOL0     C91389   6.201  12.646   2.075  0.3242  0.2757 -0.3180
  663MOL0     C91390   6.247  12.765   2.026  0.2497 -0.2322 -0.2446
  663MOL0     C91391   6.211  12.886   2.087  0.5287 -0.7260  0.5347
  663MOL0     O91392   6.228  13.014   2.049  0.3456  0.1927 -0.3327
  663MOL0     C91393   6.334  13.026   1.947  0.4352 -0.0122  0.3694
  663MOL0     C91394   6.416  13.156   1.948  0.8432 -0.7091 -0.1328
  663MOL0     C91395   6.332  13.273   1.883 -0.7449  0.2199 -0.4323
  663MOL0     C91396   6.417  13.394   1.905 -0.3636 -0.4235 -0.1204
  663MOL0     C91397   6.334  13.505   1.825 -1.2919  0.5419 -0.9437
  663MOL0     C91398   6.403  13.638   1.867 -0.3815  0.1238 -0.5528
  663MOL0     C91399   6.370  13.737   1.763 -0.2335 -0.5148  0.5108
  663MOL0     C91400   6.379  13.884   1.830 -0.2481 -0.6493 -0.1718
  663MOL0    Cl91401   6.239  13.921   1.948 -0.1033  0.4334 -0.2038
  663MOL0     C91402   6.115  12.880   2.190  0.4725 -0.3511 -0.6204
  663MOL0     C91403   6.067  12.751   2.238  0.9473  0.6934 -0.1036
  663MOL0     O91404   6.216  12.500   2.391  0.4507  1.2904  0.4226
  663MOL0     C91405   6.143  12.238   2.464 -0.2155  0.0709 -0.1645
  663MOL0     C91406   6.089  12.115   2.504  0.4864  0.2497 -0.0266
  663MOL0     N91407   5.293  11.763   2.531 -0.0397 -0.0609 -0.3088
  663MOL0     N91408   5.206  11.673   2.554  0.5480  0.4300  0.7457
  663MOL0     C91409   4.457  11.119   2.135 -0.6338 -0.5064  1.1368
  663MOL0     C91410   4.345  11.168   2.075  0.6997 -0.1909  0.3620
  663MOL0     C91411   4.021  11.179   1.758  0.5946  0.1314  0.0143
  663MOL0     C91412   3.876  11.152   1.777  0.0333 -0.0521 -0.0368
  663MOL0     C91413   3.783  11.200   1.681  0.0702 -0.1310  0.5923
  663MOL0     C91414   3.823  11.269   1.563  0.1484  0.8622  0.2566
  663MOL0     O91415   3.744  11.323   1.474  0.5267 -1.0319  0.6672
  663MOL0     C91416   3.665  11.222   1.408 -0.0498 -0.9166  0.5748
  663MOL0     C91417   3.597  11.266   1.283  0.4871 -0.7318  0.8696
  663MOL0     C91418   3.558  11.156   1.197 -0.6917  0.1579  0.3751
  663MOL0     C91419   3.550  11.198   1.052  0.6134  0.4837  0.1431
  663MOL0     C91420   3.459  11.110   0.978 -1.0033 -0.2777 -0.5052
  663MOL0     C91421   3.387  11.029   0.919  0.0838 -0.3888  0.0507
  663MOL0     C91422   3.963  11.287   1.550 -0.4236 -0.7473 -0.0934
  663MOL0     C91423   4.056  11.249   1.644  0.5399  0.7303  1.8715
  663MOL0     C91424   4.199  11.267   1.600 -0.4925  0.0441  0.1092
  663MOL0     H91425   4.404  11.074   1.758  0.5884  1.1355  0.4859
  663MOL0     H91426   4.599  10.960   1.866 -0.7504  0.9502 -0.5913
  663MOL0     H91427   4.617  10.817   2.174 -0.4174 -1.0404  3.7758
  663MOL0     H91428   4.601  10.945   2.288  0.4357 -0.7653 -0.0609
  663MOL0     H91429   4.780  10.827   2.355 -1.2159 -3.3310 -2.5666
  663MOL0     H91430   4.850  10.800   2.202  0.6095 -2.6219  3.5553
  663MOL0     H91431   5.004  10.942   2.297 -0.5205 -1.5077 -2.9490
  663MOL0     H91432   4.938  11.046   2.176 -0.3527  2.2014  0.0367
  663MOL0     H91433   4.783  11.155   2.352  0.4888  0.7907  1.0028
  663MOL0     H91434   4.844  11.036   2.464  2.0005 -2.0108 -0.7462
  663MOL0     H91435   5.094  11.129   2.417  1.2348  1.1313  0.5714
  663MOL0     H91436   4.996  11.230   2.507  1.1616  1.5801  0.2221
  663MOL0     H91437   5.064  11.234   2.203 -0.4791  0.0606  0.4508
  663MOL0     H91438   4.953  11.354   2.273 -1.3453 -2.0182  1.2580
  663MOL0     H91439   5.169  11.441   2.252 -0.5354  1.8228  1.1383
  663MOL0     H91440   5.236  11.318   2.373  1.6854  1.9035  0.5830
  663MOL0     H91441   5.025  11.532   2.413  1.9526  3.1610 -1.0892
  663MOL0     H91442   5.103  11.418   2.536  3.8432 -1.6741 -0.5496
  663MOL0     H91443   5.396  11.498   2.357  1.4405 -3.1536  3.0720
  663MOL0     H91444   5.506  11.855   2.397  0.6077  0.7194  2.2537
  663MOL0     H91445   5.589  11.707   2.364  0.1814 -0.5346 -0.3148
  663MOL0     H91446   5.534  11.840   2.624 -2.7464 -2.3249  0.3351
  663MOL0     H91447   5.563  11.677   2.632  1.0799 -2.6188 -1.2055
  663MOL0     H91448   5.792  11.791   2.636  2.6121 -1.2169 -1.1760
  663MOL0     H91449   5.756  11.709   2.481 -4.2644 -1.5458  0.8828
  663MOL0     H91450   5.747  11.953   2.389 -4.2228  0.8730  1.0284
  663MOL0     H91451   5.706  12.011   2.544  2.2075  0.7202  0.8210
  663MOL0     H91452   5.773  12.173   2.413 -0.4471 -1.0599  0.7592
  663MOL0     H91453   5.866  12.504   2.326  2.9121 -0.9141  3.0028
  663MOL0     H91454   5.738  12.410   2.408 -0.8509 -0.9388  0.5341
  663MOL0     H91455   5.779  12.368   2.252  1.5832 -1.4532  0.5828
  663MOL0     H91456   6.241  12.552   2.038  0.5690 -0.9572  2.7822
  663MOL0     H91457   6.323  12.762   1.949 -0.6433  2.0675 -1.3017
  663MOL0     H91458   6.406  12.946   1.967 -1.2868 -1.5118  0.9082
  663MOL0     H91459   6.281  13.004   1.854  1.1332  0.4860 -0.1520
  663MOL0     H91460   6.441  13.177   2.052  1.2163  3.3075 -0.8645
  663MOL0     H91461   6.504  13.143   1.884  0.4902  1.0217 -1.0048
  663MOL0     H91462   6.237  13.284   1.936 -0.5219 -1.1014  0.2888
  663MOL0     H91463   6.305  13.251   1.779 -0.8196 -4.1289  0.2854
  663MOL0     H91464   6.520  13.384   1.870  1.3663 -0.2115  4.2276
  663MOL0     H91465   6.422  13.405   2.014  0.0916  0.4689 -0.2186
  663MOL0     H91466   6.352  13.495   1.718  0.8155 -3.6194 -0.4272
  663MOL0     H91467   6.228  13.505   1.854 -1.0219 -3.0701  0.7066
  663MOL0     H91468   6.512  13.629   1.877 -0.1609  3.0126  0.6205
  663MOL0     H91469   6.377  13.677   1.966  3.7911  3.3739 -0.4421
  663MOL0     H91470   6.274  13.722   1.713  0.1766 -0.8609 -0.1902
  663MOL0     H91471   6.450  13.741   1.688  1.1990  3.5278  1.9894
  663MOL0     H91472   6.374  13.963   1.755 -2.7320 -2.1864 -1.8203
  663MOL0     H91473   6.475  13.889   1.882 -2.1949  0.3048  3.6184
  663MOL0     H91474   6.075  12.977   2.216  4.1290  0.5138  2.6985
  663MOL0     H91475   5.986  12.739   2.309  1.7404 -3.5008  0.3669
  663MOL0     H91476   6.249  12.256   2.479  0.1716 -1.9084 -0.2461
  663MOL0     H91477   6.134  12.038   2.566 -1.9356 -0.5781  0.8040
  663MOL0     H91478   4.477  11.121   2.242  2.1655 -1.7561  0.7381
  663MOL0     H91479   4.268  11.211   2.138 -0.1133 -0.8968 -0.1264
  663MOL0     H91480   3.843  11.085   1.856  2.8145 -1.3347  0.1824
  663MOL0     H91481   3.679  11.187   1.707  0.3516  1.6515  2.9521
  663MOL0     H91482   3.742  11.150   1.379  3.2807  2.7489 -0.7656
  663MOL0     H91483   3.589  11.170   1.466 -0.5615  1.7756  2.5320
  663MOL0     H91484   3.669  11.327   1.227 -1.1996 -0.1289 -0.7339
  663MOL0     H91485   3.508  11.320   1.318 -0.4473 -1.4777 -0.2825
  663MOL0     H91486   3.615  11.063   1.210 -1.0468  0.1807  2.4253
  663MOL0     H91487   3.458  11.132   1.235 -0.8558 -0.7112 -0.5583
  663MOL0     H91488   3.652  11.191   1.013  0.8925 -0.1833  0.9682
  663MOL0     H91489   3.517  11.303   1.050  1.9637  0.9355  0.6447
  663MOL0     H91490   3.325  10.954   0.874 -0.4588  0.0207  0.1130
  663MOL0     H91491   4.003  11.342   1.465 -1.0993 -1.2546 -0.7522
  663MOL0     H91492   4.249  11.170   1.609 -3.0315 -1.2401  1.8070
  663MOL0     H91493   4.220  11.307   1.501  0.2561  1.7795  0.9321
  663MOL0     H91494   4.242  11.340   1.670 -1.1493 -0.6832  1.3133
  664MOL0     O91495   2.819   0.959   0.036  0.3690 -1.0102  1.0356
  664MOL0     C91496   2.864   0.876   0.101 -1.5128 -0.0561 -0.3845
  664MOL0     O91497   2.988   0.887   0.165  0.1720  0.3808  0.3889
  664MOL0     C91498   3.066   1.001   0.136  0.0174  0.3693  0.2870
  664MOL0     C91499   3.039   1.125   0.192 -0.3158 -0.2818 -0.6638
  664MOL0     C91500   3.110   1.238   0.163  0.3646  0.2085 -0.4145
  664MOL0     C91501   3.208   1.231   0.065  0.3624  0.8038 -0.0893
  664MOL0     O91502   3.285   1.338   0.019  0.7449 -0.7379 -1.0543
  664MOL0     C91503   3.380   1.379   0.121 -1.0711  0.4328 -0.5417
  664MOL0     C91504   3.464   1.494   0.096 -1.3111  0.7642 -0.8355
  664MOL0     C91505   3.554   1.509   0.222  0.0134  0.4038 -1.3378
  664MOL0     C91506   3.649   1.623   0.217  0.6183  0.0009  0.8001
  664MOL0     C91507   3.749   1.635   0.331  0.4611  0.3226  0.3057
  664MOL0     C91508   3.806   1.777   0.339 -0.9834 -0.1665  0.0917
  664MOL0     C91509   3.906   1.798   0.455 -0.6135 -0.2615  0.1321
  664MOL0     C91510   4.001   1.912   0.447  0.4163  0.0630  1.4588
  664MOL0     N91511   3.940   2.044   0.456 -0.3049 -0.4094  0.8442
  664MOL0     C91512   3.857   2.102   0.555 -0.3046 -0.0930 -0.3214
  664MOL0     C91513   3.829   2.226   0.530  0.2961 -0.3279 -0.2673
  664MOL0     C91514   3.733   2.336   0.588  0.0487  0.0556  0.1007
  664MOL0     C91515   3.743   2.339   0.741  0.3076  0.3165  0.3416
  664MOL0     C91516   3.619   2.406   0.794  1.0790  0.9089 -0.6214
  664MOL0     C91517   3.606   2.559   0.756  0.4812 -0.3223 -0.6563
  664MOL0     O91518   3.481   2.609   0.794  0.3430 -0.1677 -0.0710
  664MOL0     C91519   3.427   2.626   0.919 -0.4581  0.2060 -0.0629
  664MOL0     C91520   3.503   2.634   1.040  0.9055 -0.7103 -0.1012
  664MOL0     C91521   3.439   2.666   1.163  1.0501 -1.1630  0.0346
  664MOL0     C91522   3.523   2.705   1.286  0.5866 -0.5980 -0.0978
  664MOL0     C91523   3.296   2.688   1.168 -0.4364 -0.1640 -0.1179
  664MOL0     C91524   3.227   2.725   1.287  0.0453  0.2195  0.5540
  664MOL0     O91525   3.233   2.853   1.322 -0.3439  0.0899 -0.0295
  664MOL0     C91526   3.160   2.894   1.424  0.0131  0.1685  0.7073
  664MOL0     C91527   3.037   2.947   1.405  1.0116  0.3335  0.5045
  664MOL0     C91528   2.970   3.016   1.500  0.1329 -0.1727 -0.0985
  664MOL0     C91529   3.034   3.036   1.634  0.4240 -0.0567  0.8382
  664MOL0     O91530   2.974   3.098   1.740  0.2598 -0.2966 -1.0815
  664MOL0     C91531   2.840   3.147   1.729 -0.3346  0.3698  0.0731
  664MOL0     C91532   2.835   3.288   1.788  0.4486 -0.4444  0.0849
  664MOL0     C91533   2.896   3.293   1.929  0.1143  0.5034 -0.0354
  664MOL0     C91534   2.884   3.428   1.993 -0.0385 -0.0448  0.0509
  664MOL0     C91535   2.987   3.440   2.104 -0.1047  0.2236  0.3168
  664MOL0     C91536   2.987   3.587   2.155 -0.1929  0.7310  0.9072
  664MOL0     C91537   3.084   3.615   2.272 -0.5539  0.0128  0.1793
  664MOL0     C91538   3.071   3.767   2.291 -0.3222  0.5882 -0.0025
  664MOL0    Cl91539   3.133   3.869   2.161  0.1972 -0.1952 -0.1085
  664MOL0     C91540   3.167   2.989   1.648  0.3125  0.1541  0.6322
  664MOL0     C91541   3.230   2.916   1.542  0.2502 -0.0095  0.1997
  664MOL0     O91542   3.160   2.633   1.340  0.3258 -0.0405 -0.6056
  664MOL0     C91543   3.221   2.676   1.050 -0.5984  0.4434  0.1835
  664MOL0     C91544   3.288   2.647   0.929 -0.0291 -0.0023  0.6763
  664MOL0     N91545   3.895   2.247   0.415 -0.4422 -1.2389 -0.8660
  664MOL0     N91546   3.944   2.143   0.360  0.4758  0.8663 -0.0937
  664MOL0     C91547   3.239   1.100   0.015 -0.0884 -1.1252  0.5562
  664MOL0     C91548   3.163   0.986   0.040  0.6705  1.3718 -1.2181
  664MOL0     C91549   2.780   0.761   0.147 -0.4928 -0.5261  0.3591
  664MOL0     C91550   2.828   0.667   0.251 -1.2383  0.5269  0.0860
  664MOL0     C91551   2.750   0.557   0.283 -0.1239  0.6426  0.8012
  664MOL0     C91552   2.626   0.547   0.227  0.7127  1.1119  0.1804
  664MOL0     O91553   2.543   0.441   0.274 -0.2046 -0.1040 -0.1137
  664MOL0     C91554   2.434   0.495   0.348 -0.9252 -0.4520 -0.2143
  664MOL0     C91555   2.339   0.381   0.388 -0.5984  0.4555 -0.1752
  664MOL0     C91556   2.384   0.291   0.501 -0.4375  0.0806  1.3073
  664MOL0     C91557   2.289   0.169   0.550 -0.0255  0.0819  1.0766
  664MOL0     C91558   2.366   0.083   0.641 -0.2470 -1.0161  0.3641
  664MOL0     C91559   2.420   0.009   0.723  0.3346  1.2267 -0.0676
  664MOL0     C91560   2.582   0.635   0.126 -0.3350 -0.8868  0.9748
  664MOL0     C91561   2.655   0.746   0.080  0.5671 -0.7899  0.1068
  664MOL0     C91562   2.593   0.816  -0.029  0.2312 -0.2953  0.0583
  664MOL0     H91563   2.968   1.121   0.274 -0.8738  4.3805 -0.6743
  664MOL0     H91564   3.090   1.336   0.206 -3.2146  0.1557 -1.5779
  664MOL0     H91565   3.445   1.297   0.152  0.4405  1.6388 -0.3790
  664MOL0     H91566   3.331   1.413   0.212  0.5397  2.1484 -0.2384
  664MOL0     H91567   3.528   1.491   0.007  2.2247 -2.7677  1.4784
  664MOL0     H91568   3.413   1.589   0.084 -0.9623  1.3619  1.7782
  664MOL0     H91569   3.490   1.504   0.311 -0.8376 -3.0024 -2.0103
  664MOL0     H91570   3.610   1.415   0.230 -1.1263 -0.2480 -0.6362
  664MOL0     H91571   3.708   1.627   0.124 -0.8385  2.3226 -0.1093
  664MOL0     H91572   3.577   1.705   0.217  1.9723  1.2954 -1.3493
  664MOL0     H91573   3.820   1.552   0.323  0.5824  0.6062 -3.3652
  664MOL0     H91574   3.684   1.616   0.417 -0.1253  0.7175 -0.0409
  664MOL0     H91575   3.862   1.783   0.245  2.0684  3.3145  1.8371
  664MOL0     H91576   3.727   1.851   0.356 -1.5047 -1.2010  2.5855
  664MOL0     H91577   3.965   1.709   0.475 -0.8127  0.0775  2.5770
  664MOL0     H91578   3.850   1.821   0.546  0.8725 -1.7515  1.4761
  664MOL0     H91579   4.082   1.905   0.519  1.2396 -0.2905  0.5145
  664MOL0     H91580   4.045   1.911   0.347 -2.2846  0.7903  0.1391
  664MOL0     H91581   3.817   2.036   0.631 -0.5639 -0.1627 -0.5138
  664MOL0     H91582   3.628   2.319   0.561 -0.5227 -0.5011  2.4402
  664MOL0     H91583   3.740   2.437   0.548 -3.9597  1.8067  3.1025
  664MOL0     H91584   3.752   2.236   0.775 -1.7604  1.4713  5.0957
  664MOL0     H91585   3.831   2.388   0.784  2.5283 -2.6567 -0.4126
  664MOL0     H91586   3.533   2.363   0.741  0.6715  3.0689 -1.8165
  664MOL0     H91587   3.606   2.394   0.902 -1.4702 -2.9321 -1.1436
  664MOL0     H91588   3.692   2.609   0.802  0.8752 -1.4913 -0.0655
  664MOL0     H91589   3.612   2.580   0.649  0.1083  0.5423 -0.5137
  664MOL0     H91590   3.611   2.630   1.045  0.9230  0.4472  0.8322
  664MOL0     H91591   3.489   2.645   1.371  2.1607 -1.3913  0.0044
  664MOL0     H91592   3.511   2.811   1.308  2.2808  0.0988 -2.1333
  664MOL0     H91593   3.630   2.684   1.280  0.4943 -1.7146  1.6011
  664MOL0     H91594   2.988   2.924   1.311 -0.5242  2.2608  0.7826
  664MOL0     H91595   2.875   3.053   1.465  0.3931 -0.7654 -1.5050
  664MOL0     H91596   2.818   3.155   1.622  0.9090 -1.1176 -0.3297
  664MOL0     H91597   2.774   3.078   1.782  0.9720 -1.0613 -0.0729
  664MOL0     H91598   2.890   3.358   1.724 -2.8955 -0.3248 -3.0201
  664MOL0     H91599   2.730   3.320   1.780  0.3032 -0.8698  0.2684
  664MOL0     H91600   2.999   3.258   1.920  0.6191  1.6398  1.0644
  664MOL0     H91601   2.841   3.224   1.993  0.1978 -2.0933 -2.5840
  664MOL0     H91602   2.782   3.457   2.019  0.8860  1.6679  2.0642
  664MOL0     H91603   2.913   3.501   1.917 -0.9958  0.3132  0.0133
  664MOL0     H91604   2.966   3.378   2.192 -0.0582 -1.5679 -0.8850
  664MOL0     H91605   3.088   3.412   2.071  0.2384 -0.2720  1.7105
  664MOL0     H91606   2.890   3.605   2.202 -2.2602 -1.6895 -2.0168
  664MOL0     H91607   3.015   3.643   2.066 -0.1834 -3.1937 -1.8382
  664MOL0     H91608   3.184   3.577   2.251 -0.1375  1.5920 -0.9413
  664MOL0     H91609   3.046   3.566   2.362  1.4506  1.2145  1.7603
  664MOL0     H91610   3.128   3.799   2.379  0.1829 -2.3652  0.8701
  664MOL0     H91611   2.968   3.796   2.314  0.4464  3.6230  0.0098
  664MOL0     H91612   3.237   3.024   1.723  1.6467 -1.2210  0.0769
  664MOL0     H91613   3.327   2.871   1.561  0.1115 -1.8292 -2.7331
  664MOL0     H91614   3.114   2.693   1.042 -0.3019  1.7189 -4.2907
  664MOL0     H91615   3.238   2.636   0.833  1.0920 -0.7461  0.1575
  664MOL0     H91616   3.312   1.093  -0.065  0.7054  1.3231  0.9764
  664MOL0     H91617   3.198   0.889   0.005  0.7838  0.5133  1.0697
  664MOL0     H91618   2.928   0.685   0.288  1.0477 -3.0182 -3.5662
  664MOL0     H91619   2.797   0.482   0.346 -1.6236 -0.8908  0.1618
  664MOL0     H91620   2.467   0.539   0.442  0.4104 -0.2286 -0.7703
  664MOL0     H91621   2.386   0.568   0.281  0.9611  1.2983  0.2391
  664MOL0     H91622   2.310   0.322   0.300 -1.1698 -1.3618  1.1600
  664MOL0     H91623   2.245   0.424   0.424 -1.3561 -1.6841  0.5678
  664MOL0     H91624   2.479   0.252   0.465 -2.3146 -1.1464 -2.9020
  664MOL0     H91625   2.398   0.358   0.587 -0.0334 -0.6567  1.8173
  664MOL0     H91626   2.259   0.111   0.463  1.4193 -1.1841  1.3567
  664MOL0     H91627   2.202   0.212   0.600  0.2391  4.3904 -1.7087
  664MOL0     H91628   2.461  -0.043   0.807 -0.6896 -2.1951 -1.4661
  664MOL0     H91629   2.485   0.607   0.087  0.1957 -2.6401  0.7868
  664MOL0     H91630   2.503   0.772  -0.072 -1.2691  2.5505  0.0447
  664MOL0     H91631   2.566   0.914   0.013  1.8675 -0.1882  0.9420
  664MOL0     H91632   2.667   0.819  -0.110  0.4690 -1.8122  0.2012
  665MOL0     O91633   2.879   2.482   9.098  1.1684  0.3354 -0.2450
  665MOL0     C91634   2.765   2.463   9.052  0.2958 -0.1933  0.6769
  665MOL0     O91635   2.725   2.344   9.005  0.0420  0.0246  0.2586
  665MOL0     C91636   2.801   2.229   9.033  0.2847 -0.7955 -0.5024
  665MOL0     C91637   2.789   2.154   9.154  0.2175  0.1407 -0.1302
  665MOL0     C91638   2.879   2.053   9.180  0.1968 -0.1131  0.0031
  665MOL0     C91639   2.969   2.015   9.080  0.1691  0.0050  0.7543
  665MOL0     O91640   3.041   1.902   9.117 -0.4921  0.2495  0.2935
  665MOL0     C91641   3.157   1.868   9.045 -0.3693 -0.6705 -0.0669
  665MOL0     C91642   3.207   1.726   9.066  0.3150 -1.0055 -0.9488
  665MOL0     C91643   3.332   1.700   8.990 -0.9735 -0.5166 -0.9280
  665MOL0     C91644   3.387   1.551   8.988  0.1147 -0.2193  0.0985
  665MOL0     C91645   3.517   1.531   8.904  0.0483 -0.1019 -0.1219
  665MOL0     C91646   3.635   1.594   8.967 -0.3243  0.5677 -0.4492
  665MOL0     C91647   3.769   1.573   8.887  0.0299  0.6425  0.2905
  665MOL0     C91648   3.890   1.628   8.953  0.6209 -0.5058  0.4705
  665MOL0     N91649   3.917   1.550   9.078 -0.4547  0.1983  0.0691
  665MOL0     C91650   3.866   1.581   9.205  0.9309 -0.2906 -0.0899
  665MOL0     C91651   3.920   1.480   9.290  0.6476  0.7566  0.6262
  665MOL0     C91652   3.912   1.479   9.434  0.0317  0.2847 -0.8469
  665MOL0     C91653   3.890   1.611   9.489 -1.7606  0.1847 -0.2938
  665MOL0     C91654   3.900   1.603   9.639 -0.0389  0.7643  0.4997
  665MOL0     C91655   3.913   1.740   9.688 -0.3315 -0.2963  0.2711
  665MOL0     O91656   4.056   1.777   9.692 -0.3172  0.0536  0.0340
  665MOL0     C91657   4.090   1.895   9.753  0.8046 -0.2249 -0.7809
  665MOL0     C91658   4.213   1.962   9.725  1.0218  0.6256 -0.5524
  665MOL0     C91659   4.244   2.075   9.794  0.3836 -0.0099 -1.5589
  665MOL0     C91660   4.385   2.129   9.784  0.1851  0.4073  0.2621
  665MOL0     C91661   4.154   2.129   9.895  0.6560  0.0824 -0.7121
  665MOL0     C91662   4.190   2.248   9.982  0.1602  0.0946  0.0670
  665MOL0     O91663   4.309   2.244  10.043 -0.2836  1.1726  1.0105
  665MOL0     C91664   4.352   2.354  10.097  0.3718 -0.9815 -0.3220
  665MOL0     C91665   4.451   2.416  10.020 -0.2657 -0.9712  0.9101
  665MOL0     C91666   4.501   2.543  10.062 -0.0213 -0.5164 -0.2284
  665MOL0     C91667   4.443   2.606  10.178  0.1052  0.1943  1.0193
  665MOL0     O91668   4.510   2.716  10.217  0.2095 -0.7525 -0.4217
  665MOL0     C91669   4.501   2.739  10.358  0.1126  0.8334  0.1071
  665MOL0     C91670   4.588   2.858  10.391 -0.8207  0.0650 -0.7204
  665MOL0     C91671   4.627   2.868  10.538 -0.0711  0.2625  0.7959
  665MOL0     C91672   4.646   3.019  10.591 -0.6064 -0.7975 -0.1742
  665MOL0     C91673   4.647   3.041  10.747 -0.1014  0.1743  0.4703
  665MOL0     C91674   4.746   3.161  10.782 -0.0018 -0.7495 -0.1007
  665MOL0     C91675   4.680   3.295  10.724 -0.1669  0.0045 -0.0555
  665MOL0     C91676   4.548   3.344  10.798  0.1349 -0.6416 -0.5475
  665MOL0    Cl91677   4.575   3.374  10.975 -0.5485  0.2759 -0.2818
  665MOL0     C91678   4.326   2.551  10.236  0.9306  0.4242 -0.2405
  665MOL0     C91679   4.284   2.423  10.200 -0.1706 -0.2250  1.0432
  665MOL0     O91680   4.094   2.318  10.016 -0.6109 -0.5671 -0.1729
  665MOL0     C91681   4.025   2.077   9.906 -0.5546  0.3629 -0.5578
  665MOL0     C91682   3.995   1.962   9.834  0.2715 -0.5364 -0.0554
  665MOL0     N91683   4.001   1.400   9.205  0.0020  0.2988 -1.0583
  665MOL0     N91684   4.003   1.436   9.087  0.8717 -0.1193 -0.5108
  665MOL0     C91685   2.981   2.093   8.962 -0.3687 -0.1182  0.5507
  665MOL0     C91686   2.895   2.191   8.935  1.1548 -1.2431 -1.3736
  665MOL0     C91687   2.687   2.589   9.020 -0.1789 -0.6167  0.6165
  665MOL0     C91688   2.616   2.579   8.896  1.1051  0.6176 -0.0525
  665MOL0     C91689   2.543   2.684   8.858 -0.7026  0.2862  0.3964
  665MOL0     C91690   2.524   2.794   8.937  0.6415 -0.9505 -0.1180
  665MOL0     O91691   2.427   2.874   8.890  0.2053 -0.4676  1.1579
  665MOL0     C91692   2.432   3.010   8.935 -0.3944  0.1723  0.1661
  665MOL0     C91693   2.310   3.083   8.883 -0.3714  0.0751  1.3015
  665MOL0     C91694   2.323   3.117   8.732  0.6259 -0.1072  0.6127
  665MOL0     C91695   2.186   3.180   8.680  0.1344 -0.5111  0.1067
  665MOL0     C91696   2.190   3.222   8.536 -0.2521  0.3110 -0.1330
  665MOL0     C91697   2.200   3.243   8.419  0.5121  0.0210 -0.3572
  665MOL0     C91698   2.583   2.805   9.070 -0.0824  0.5946  0.4833
  665MOL0     C91699   2.673   2.702   9.103  0.3503  0.2548  0.9062
  665MOL0     C91700   2.725   2.712   9.240 -1.0620  0.0343  0.8881
  665MOL0     H91701   2.719   2.180   9.233  2.3153 -2.4798  2.8332
  665MOL0     H91702   2.859   1.994   9.269 -0.3262 -0.7141 -0.5069
  665MOL0     H91703   3.230   1.944   9.076 -3.8001  0.6956  6.2268
  665MOL0     H91704   3.134   1.880   8.939 -1.9065 -0.7468  0.2435
  665MOL0     H91705   3.228   1.717   9.172 -1.4164 -1.7271 -0.6189
  665MOL0     H91706   3.121   1.659   9.054 -1.1529  0.2560  1.6667
  665MOL0     H91707   3.320   1.722   8.884  1.5380  0.7840 -1.0110
  665MOL0     H91708   3.409   1.761   9.037 -0.6527  0.4718 -2.6468
  665MOL0     H91709   3.394   1.502   9.085 -3.3933 -0.2142  0.4827
  665MOL0     H91710   3.308   1.495   8.937 -2.4894  3.0366  0.2072
  665MOL0     H91711   3.512   1.582   8.808 -0.4563  0.5816  0.2611
  665MOL0     H91712   3.543   1.426   8.889 -0.8836 -0.3286 -0.2339
  665MOL0     H91713   3.606   1.699   8.968 -1.4432  0.2805 -0.8451
  665MOL0     H91714   3.656   1.548   9.064  2.5699 -0.3168 -1.3984
  665MOL0     H91715   3.761   1.627   8.792  2.0713 -0.8442 -0.8189
  665MOL0     H91716   3.792   1.468   8.872  1.5683  0.6080  2.4391
  665MOL0     H91717   3.972   1.624   8.881  0.0565  0.8916 -0.2749
  665MOL0     H91718   3.881   1.733   8.982  0.2349 -0.8161  1.5449
  665MOL0     H91719   3.813   1.666   9.246  0.9055 -0.3624  0.0263
  665MOL0     H91720   4.008   1.441   9.469 -1.8109 -4.0492  0.1978
  665MOL0     H91721   3.829   1.420   9.474  1.1139  1.2863  3.4799
  665MOL0     H91722   3.947   1.689   9.438 -2.8287  0.6353 -0.8398
  665MOL0     H91723   3.788   1.646   9.469 -1.9099  2.4721  3.4585
  665MOL0     H91724   3.811   1.555   9.681 -0.7767  0.4495 -1.3320
  665MOL0     H91725   3.993   1.554   9.668  1.9947  1.9523 -3.3031
  665MOL0     H91726   3.858   1.813   9.627 -0.1200  0.0223  0.4548
  665MOL0     H91727   3.875   1.744   9.791  0.1774  3.2681  0.4466
  665MOL0     H91728   4.294   1.921   9.665  3.8183  0.7508  2.7849
  665MOL0     H91729   4.404   2.225   9.832 -1.8739 -0.6060  3.4387
  665MOL0     H91730   4.410   2.136   9.677  2.8656 -1.1066  0.6905
  665MOL0     H91731   4.454   2.057   9.828  1.9165  2.1110  0.4794
  665MOL0     H91732   4.497   2.379   9.929 -1.6658  1.1395 -0.7478
  665MOL0     H91733   4.575   2.606  10.014 -1.1302  2.7406  1.9761
  665MOL0     H91734   4.397   2.764  10.383 -0.0854  1.1369 -0.9837
  665MOL0     H91735   4.536   2.644  10.399  1.1060 -0.0068 -2.5231
  665MOL0     H91736   4.672   2.848  10.322  0.0716 -1.1098  0.4738
  665MOL0     H91737   4.550   2.959  10.371  1.2894  0.5108 -2.8511
  665MOL0     H91738   4.723   2.817  10.554  0.5173  1.5710  1.6080
  665MOL0     H91739   4.546   2.819  10.593 -2.6948  1.7883 -1.4377
  665MOL0     H91740   4.572   3.083  10.542 -0.1159 -0.0830  0.0082
  665MOL0     H91741   4.742   3.043  10.544 -0.2268  0.3342  1.1202
  665MOL0     H91742   4.554   3.040  10.803  0.2340  0.3551  1.0418
  665MOL0     H91743   4.700   2.958  10.795  0.1971 -0.2131 -0.4914
  665MOL0     H91744   4.844   3.147  10.735  0.0500  0.9279 -0.5693
  665MOL0     H91745   4.765   3.148  10.889 -0.8346 -0.7652  0.0477
  665MOL0     H91746   4.673   3.298  10.615 -0.8589 -1.9497 -0.1052
  665MOL0     H91747   4.747   3.379  10.741 -0.4882  0.4118 -0.7744
  665MOL0     H91748   4.464   3.278  10.776  0.0854 -0.9005  0.3840
  665MOL0     H91749   4.533   3.446  10.763  0.4813  0.0774  1.2988
  665MOL0     H91750   4.281   2.602  10.321 -2.4972 -1.2844 -0.8383
  665MOL0     H91751   4.188   2.380  10.226 -0.9530  0.7635 -0.0520
  665MOL0     H91752   3.951   2.135   9.961  1.4758  1.4554  1.1623
  665MOL0     H91753   3.900   1.912   9.843  1.7474 -3.8064 -1.1365
  665MOL0     H91754   3.045   2.070   8.877 -1.2517 -1.5263  0.2214
  665MOL0     H91755   2.892   2.237   8.837 -0.4758  2.5642  0.2907
  665MOL0     H91756   2.623   2.488   8.836  0.6155  1.1799 -0.9837
  665MOL0     H91757   2.484   2.679   8.767 -0.2787 -1.8437  0.1933
  665MOL0     H91758   2.427   3.005   9.044  2.3433 -2.1520  0.3022
  665MOL0     H91759   2.526   3.061   8.916 -1.5563  2.2811 -0.2069
  665MOL0     H91760   2.319   3.176   8.940  1.5320  1.2952 -0.8251
  665MOL0     H91761   2.225   3.019   8.910  1.6758 -1.9077  3.5559
  665MOL0     H91762   2.397   3.197   8.722  0.4669 -0.0498 -0.1986
  665MOL0     H91763   2.361   3.029   8.678 -0.0860 -0.4610  0.6734
  665MOL0     H91764   2.154   3.264   8.742  0.8381  1.2155 -1.7503
  665MOL0     H91765   2.108   3.105   8.697 -0.9884  0.7871  0.9329
  665MOL0     H91766   2.190   3.271   8.315 -0.8470  0.7325 -0.0593
  665MOL0     H91767   2.552   2.889   9.131  0.0083  2.2977 -1.6765
  665MOL0     H91768   2.831   2.692   9.225 -1.4084  0.3467 -2.8730
  665MOL0     H91769   2.712   2.807   9.293  0.6906  0.6560  0.2785
  665MOL0     H91770   2.678   2.629   9.294 -2.8332 -0.1378 -0.8054
  666MOL0     O91771   3.553   3.151   1.224  0.3767  0.1554  1.1363
  666MOL0     C91772   3.654   3.089   1.243 -0.2914  0.6655 -0.1327
  666MOL0     O91773   3.732   3.022   1.146  0.5345 -0.8561  0.0089
  666MOL0     C91774   3.696   3.037   1.021 -0.1242  0.0763  0.1974
  666MOL0     C91775   3.783   3.117   0.936  0.1867  1.4429  0.1094
  666MOL0     C91776   3.752   3.142   0.801 -0.3479  0.8398  0.6000
  666MOL0     C91777   3.655   3.056   0.741  0.6835 -0.0231  0.9257
  666MOL0     O91778   3.632   3.064   0.606 -0.1076  1.4028  0.3330
  666MOL0     C91779   3.729   3.121   0.518  1.0763 -0.3635  0.0809
  666MOL0     C91780   3.849   3.029   0.507 -0.2331  0.3713  0.5509
  666MOL0     C91781   3.806   2.883   0.445 -0.6337 -0.3862 -0.2142
  666MOL0     C91782   3.933   2.805   0.413 -0.5220  0.3103  0.1427
  666MOL0     C91783   3.955   2.714   0.535  0.6219  0.0516  0.0487
  666MOL0     C91784   4.069   2.616   0.506 -1.5250  0.2550 -1.3933
  666MOL0     C91785   4.108   2.521   0.623  0.8031 -0.1443  0.7913
  666MOL0     C91786   4.196   2.394   0.599  1.1321 -0.2519  0.2731
  666MOL0     N91787   4.328   2.415   0.547  0.3181  0.1467  0.2367
  666MOL0     C91788   4.427   2.490   0.601 -0.0381  0.6008 -0.4459
  666MOL0     C91789   4.531   2.484   0.511  0.0681  0.5536  0.9755
  666MOL0     C91790   4.661   2.557   0.517 -0.1269  0.7476 -0.4316
  666MOL0     C91791   4.761   2.469   0.598  0.3631 -0.2225  0.8689
  666MOL0     C91792   4.901   2.541   0.624  0.5463 -0.3903 -0.3124
  666MOL0     C91793   4.968   2.472   0.742 -0.8776  0.7588  0.3195
  666MOL0     O91794   5.083   2.554   0.776 -0.7668 -0.0762  0.1671
  666MOL0     C91795   5.214   2.518   0.735  0.3185 -0.5461  0.1444
  666MOL0     C91796   5.304   2.623   0.761 -0.5916  0.1017  0.6456
  666MOL0     C91797   5.444   2.595   0.729 -0.2828 -0.6126  0.7314
  666MOL0     C91798   5.531   2.727   0.748  0.5759  0.2296  0.3661
  666MOL0     C91799   5.481   2.477   0.654 -0.6723 -0.1857 -0.1776
  666MOL0     C91800   5.607   2.445   0.589  0.7795 -0.3176  0.2616
  666MOL0     O91801   5.613   2.397   0.456  0.4871 -0.4182  0.5138
  666MOL0     C91802   5.732   2.404   0.390 -0.7590 -0.1060  0.0686
  666MOL0     C91803   5.758   2.521   0.325 -0.1759 -0.6503 -0.1330
  666MOL0     C91804   5.875   2.543   0.239  0.7326 -0.5862 -0.5095
  666MOL0     C91805   5.967   2.435   0.240  0.3087 -0.2522  0.0685
  666MOL0     O91806   6.083   2.436   0.161  0.2026  1.4943 -0.1684
  666MOL0     C91807   6.067   2.480   0.035 -0.1597  0.2347  0.2220
  666MOL0     C91808   6.192   2.444  -0.052 -0.6068  0.3948  0.5090
  666MOL0     C91809   6.170   2.296  -0.081  0.8530 -0.6384  0.6775
  666MOL0     C91810   6.293   2.263  -0.179  0.5498  1.2790 -0.4739
  666MOL0     C91811   6.254   2.268  -0.329 -0.8357  0.2100  0.0356
  666MOL0     C91812   6.379   2.242  -0.417 -0.6605 -0.7052  0.7899
  666MOL0     C91813   6.334   2.250  -0.561 -0.2346  0.1469 -0.6731
  666MOL0     C91814   6.465   2.231  -0.637  0.2128  0.1963  0.5493
  666MOL0    Cl91815   6.528   2.075  -0.610 -0.5644 -0.4735  0.0770
  666MOL0     C91816   5.955   2.329   0.326  0.0827 -0.6294 -0.0309
  666MOL0     C91817   5.829   2.312   0.392 -0.0340  0.5446  0.5644
  666MOL0     O91818   5.698   2.466   0.661  0.0572  0.2186 -0.9093
  666MOL0     C91819   5.383   2.392   0.626 -0.7847  0.3782  0.9246
  666MOL0     C91820   5.251   2.406   0.671 -0.3658 -0.4769  0.0089
  666MOL0     N91821   4.488   2.409   0.398  0.3946  0.2397  0.9266
  666MOL0     N91822   4.375   2.362   0.428  0.2203 -0.0085 -0.2551
  666MOL0     C91823   3.567   2.990   0.821  1.0373  0.1242 -1.0442
  666MOL0     C91824   3.584   2.972   0.963  0.2743 -0.6736 -0.6685
  666MOL0     C91825   3.713   3.093   1.384 -0.6754 -0.7491  0.2441
  666MOL0     C91826   3.858   3.109   1.378 -0.1056 -0.4470 -0.3584
  666MOL0     C91827   3.924   3.127   1.498  0.3249 -0.3485 -1.7804
  666MOL0     C91828   3.858   3.131   1.631  0.2965 -1.1486  0.3216
  666MOL0     O91829   3.934   3.146   1.749  0.0185 -0.4357 -0.1389
  666MOL0     C91830   4.071   3.185   1.752  0.0337 -0.6395 -0.6165
  666MOL0     C91831   4.161   3.066   1.730 -0.0201  0.4658 -0.5100
  666MOL0     C91832   4.149   2.938   1.813  0.9738 -0.6530  0.5233
  666MOL0     C91833   4.149   2.953   1.961 -0.5535 -0.1509 -0.1446
  666MOL0     C91834   4.267   3.027   2.015 -0.5816 -0.0250  0.4611
  666MOL0     C91835   4.373   3.078   2.047 -0.1669  0.6769 -0.1322
  666MOL0     C91836   3.714   3.110   1.631 -0.5808  1.0066 -0.1152
  666MOL0     C91837   3.643   3.095   1.510  0.0141 -0.4214 -0.7615
  666MOL0     C91838   3.491   3.083   1.516 -0.5216  0.1633  1.1932
  666MOL0     H91839   3.867   3.170   0.981 -1.1020  2.9351  0.8280
  666MOL0     H91840   3.814   3.210   0.744  0.8265  0.3166  1.2217
  666MOL0     H91841   3.749   3.223   0.550  0.8505 -1.0982  2.8168
  666MOL0     H91842   3.673   3.128   0.424  0.8669  2.1850  0.3310
  666MOL0     H91843   3.914   3.080   0.435  0.0723 -1.1224 -0.2758
  666MOL0     H91844   3.914   3.017   0.595  1.3615 -0.9489 -0.7287
  666MOL0     H91845   3.729   2.827   0.499 -2.7768  0.0956 -2.5900
  666MOL0     H91846   3.756   2.907   0.351 -1.9915  2.5281  1.1289
  666MOL0     H91847   3.919   2.746   0.322  2.2387 -0.5833  0.1942
  666MOL0     H91848   4.017   2.869   0.386 -1.2746  0.2328 -2.6764
  666MOL0     H91849   3.864   2.655   0.550 -0.7537  2.5333  2.5224
  666MOL0     H91850   3.969   2.773   0.626  0.6506 -2.4765  1.7557
  666MOL0     H91851   4.066   2.561   0.412  1.0450 -0.8010 -0.9281
  666MOL0     H91852   4.152   2.687   0.501 -2.0730  1.1679  0.8729
  666MOL0     H91853   4.012   2.484   0.660 -1.0930  2.9753 -0.6045
  666MOL0     H91854   4.143   2.575   0.711 -0.6786 -1.3292  2.1734
  666MOL0     H91855   4.209   2.325   0.682 -1.4434 -1.7449 -0.4386
  666MOL0     H91856   4.152   2.339   0.515  1.7564 -1.6482  0.8302
  666MOL0     H91857   4.431   2.539   0.697 -3.4582  0.5648 -0.1739
  666MOL0     H91858   4.647   2.647   0.577  0.1676 -1.5142  3.4121
  666MOL0     H91859   4.696   2.594   0.421  1.0149  1.1652  0.1271
  666MOL0     H91860   4.708   2.465   0.693 -0.5777  2.2671  0.5119
  666MOL0     H91861   4.782   2.376   0.544  0.2848  0.8755 -1.1501
  666MOL0     H91862   4.972   2.543   0.541  2.1519  1.2288  1.0111
  666MOL0     H91863   4.868   2.643   0.641 -0.5787 -0.4846 -1.7257
  666MOL0     H91864   4.905   2.456   0.830 -3.4917  0.7876 -1.4559
  666MOL0     H91865   5.000   2.372   0.712  2.9369  1.0412  2.6755
  666MOL0     H91866   5.268   2.720   0.791 -0.5507 -0.1088  1.3949
  666MOL0     H91867   5.471   2.819   0.737  0.6288  0.1337 -0.8276
  666MOL0     H91868   5.608   2.730   0.671  1.0491 -1.6615  0.7295
  666MOL0     H91869   5.584   2.707   0.841  2.6188 -1.2239 -1.0298
  666MOL0     H91870   5.683   2.598   0.332  0.0059 -0.6188  2.3864
  666MOL0     H91871   5.908   2.633   0.187  3.5176 -0.5396  1.1222
  666MOL0     H91872   5.975   2.438  -0.006 -1.3549  2.2397  0.7230
  666MOL0     H91873   6.063   2.589   0.032  0.7839  0.2615 -0.6657
  666MOL0     H91874   6.174   2.482  -0.152  1.1852  1.2961  0.4800
  666MOL0     H91875   6.294   2.461  -0.016 -0.1427 -4.2112  2.0883
  666MOL0     H91876   6.073   2.283  -0.130  0.5518  2.0321  0.3981
  666MOL0     H91877   6.164   2.237   0.011  0.7103 -1.1091  0.3675
  666MOL0     H91878   6.319   2.157  -0.171 -1.3860  0.7990 -0.1172
  666MOL0     H91879   6.384   2.319  -0.153  0.2961  1.2372  0.5483
  666MOL0     H91880   6.174   2.197  -0.350  0.2202 -1.4144  1.2806
  666MOL0     H91881   6.212   2.367  -0.350  3.2984  2.0156 -0.6362
  666MOL0     H91882   6.412   2.139  -0.401  0.4121 -0.1172  2.7117
  666MOL0     H91883   6.458   2.312  -0.389 -0.5544 -0.4360 -0.1600
  666MOL0     H91884   6.285   2.346  -0.579  0.3431  1.3845  3.3850
  666MOL0     H91885   6.270   2.162  -0.579  0.2639 -0.3992  0.1777
  666MOL0     H91886   6.533   2.315  -0.620  0.2171  0.5311 -1.0010
  666MOL0     H91887   6.440   2.251  -0.741 -1.8033  2.2988  1.3440
  666MOL0     H91888   6.027   2.249   0.332  0.9618  0.2498  1.6916
  666MOL0     H91889   5.804   2.218   0.439 -1.3764 -0.2149 -1.5097
  666MOL0     H91890   5.398   2.297   0.576 -0.6997  1.3821 -1.0896
  666MOL0     H91891   5.176   2.327   0.677 -3.3010  2.2484  2.7286
  666MOL0     H91892   3.487   2.936   0.770  0.4609  2.9682 -3.4338
  666MOL0     H91893   3.520   2.912   1.026  0.6366  0.8627  1.2491
  666MOL0     H91894   3.912   3.113   1.284 -3.0426  2.2669 -2.1030
  666MOL0     H91895   4.032   3.141   1.494  0.0718  3.4765  0.0644
  666MOL0     H91896   4.095   3.271   1.689  0.6226  1.9658  2.8730
  666MOL0     H91897   4.084   3.223   1.854 -3.1387  0.7910 -0.6123
  666MOL0     H91898   4.261   3.103   1.756  0.3047 -0.6509 -0.0869
  666MOL0     H91899   4.170   3.039   1.624 -1.6523 -0.7116 -0.3723
  666MOL0     H91900   4.060   2.888   1.774 -0.9441  2.2179  0.9549
  666MOL0     H91901   4.233   2.870   1.793  1.2362 -0.5948  1.4129
  666MOL0     H91902   4.160   2.859   2.017  0.4778 -0.4394 -0.8026
  666MOL0     H91903   4.060   3.009   1.990 -0.6189  0.4119 -1.3819
  666MOL0     H91904   4.475   3.086   2.081  1.5444 -2.9214 -3.5707
  666MOL0     H91905   3.664   3.105   1.727 -1.2047 -4.5207 -0.3783
  666MOL0     H91906   3.446   3.174   1.473 -0.6748 -0.6802 -0.5136
  666MOL0     H91907   3.469   2.994   1.456 -1.2777  1.9668 -1.4296
  666MOL0     H91908   3.458   3.070   1.619  2.0666  0.3228  2.0980
  667MOL0     O91909   9.461   3.884   7.717 -0.9392  0.2524 -0.8527
  667MOL0     C91910   9.451   3.943   7.610 -1.0061  0.0957 -0.1749
  667MOL0     O91911   9.334   3.949   7.540  0.4965  0.3941 -0.4245
  667MOL0     C91912   9.225   3.886   7.592  0.2658 -0.2230  0.6956
  667MOL0     C91913   9.165   3.936   7.707 -0.5694  0.6087 -0.5422
  667MOL0     C91914   9.055   3.876   7.775 -0.4731  0.4739  0.3866
  667MOL0     C91915   8.998   3.767   7.716  0.6686  0.6991 -0.5780
  667MOL0     O91916   8.884   3.703   7.771  0.5180 -0.4789  0.3691
  667MOL0     C91917   8.892   3.682   7.909 -0.4986 -0.6197 -0.0824
  667MOL0     C91918   8.790   3.582   7.953  0.4691  0.6593  0.7029
  667MOL0     C91919   8.787   3.581   8.106 -0.0462 -0.0628  0.0711
  667MOL0     C91920   8.680   3.482   8.143  0.3746  0.2589  0.0473
  667MOL0     C91921   8.635   3.481   8.289  0.3314  0.8631  0.1371
  667MOL0     C91922   8.590   3.620   8.341 -0.1390 -0.8452 -0.7524
  667MOL0     C91923   8.462   3.636   8.434 -0.8461 -0.4741 -0.0250
  667MOL0     C91924   8.340   3.562   8.374  0.5098 -0.3764 -0.4364
  667MOL0     N91925   8.224   3.568   8.456 -0.4128 -0.1581 -0.5616
  667MOL0     C91926   8.205   3.575   8.594  0.6173 -0.3288 -0.5639
  667MOL0     C91927   8.067   3.591   8.610 -0.3398 -0.8350  0.1319
  667MOL0     C91928   8.012   3.594   8.744  0.0653 -0.8801  0.7351
  667MOL0     C91929   8.012   3.729   8.809 -0.0265 -0.6803  0.3497
  667MOL0     C91930   7.889   3.807   8.762 -0.9480  0.4695 -0.3395
  667MOL0     C91931   7.933   3.958   8.790 -0.0591 -0.5227  0.1907
  667MOL0     O91932   7.815   4.040   8.783  0.1089  0.1614 -0.3485
  667MOL0     C91933   7.730   4.055   8.893  0.6524 -0.7476  0.6115
  667MOL0     C91934   7.737   4.007   9.033 -0.4473 -0.5912  0.0457
  667MOL0     C91935   7.631   4.031   9.119  1.7094  0.1367  0.2104
  667MOL0     C91936   7.640   3.964   9.255 -0.5844  1.3124 -0.8108
  667MOL0     C91937   7.522   4.104   9.083  0.3562  0.3977 -0.8820
  667MOL0     C91938   7.413   4.150   9.177  0.0621  0.3445  1.2820
  667MOL0     O91939   7.422   4.129   9.306 -0.3797 -0.7694 -0.4439
  667MOL0     C91940   7.346   4.210   9.391  0.3014 -0.3492  0.6614
  667MOL0     C91941   7.407   4.304   9.473 -0.0527 -0.7887 -0.3038
  667MOL0     C91942   7.332   4.382   9.559  0.3406 -0.4328 -0.3129
  667MOL0     C91943   7.188   4.380   9.557  0.0556 -0.3128  0.8858
  667MOL0     O91944   7.098   4.467   9.622 -0.1706  0.6342 -0.6984
  667MOL0     C91945   7.160   4.532   9.737  0.2621 -0.1751 -0.0197
  667MOL0     C91946   7.056   4.572   9.842 -0.5712 -0.4273 -1.2450
  667MOL0     C91947   7.075   4.515   9.983  0.1180  0.2124  1.1135
  667MOL0     C91948   6.969   4.560  10.088  0.0474  1.0481 -0.9935
  667MOL0     C91949   6.818   4.537  10.055  0.0617 -0.1069 -0.2972
  667MOL0     C91950   6.783   4.395  10.021 -0.2925 -0.4169  0.4551
  667MOL0     C91951   6.638   4.367  10.036  0.2806 -0.1800 -0.0414
  667MOL0     C91952   6.627   4.217  10.085 -0.3584 -0.0626  0.2526
  667MOL0    Cl91953   6.705   4.121   9.962  0.0243  0.3966 -0.1699
  667MOL0     C91954   7.127   4.288   9.471 -1.1566 -0.5936  0.5493
  667MOL0     C91955   7.207   4.193   9.406  0.1797 -0.3322 -0.7597
  667MOL0     O91956   7.311   4.196   9.125  0.7224 -0.1121 -0.4264
  667MOL0     C91957   7.521   4.144   8.955  0.2593  0.5544  0.1072
  667MOL0     C91958   7.614   4.119   8.860 -0.6960  0.0362 -0.4350
  667MOL0     N91959   8.019   3.601   8.482  1.0786  0.4897 -0.7606
  667MOL0     N91960   8.109   3.569   8.395 -0.3429  0.7649  0.0380
  667MOL0     C91961   9.055   3.717   7.599 -0.5244  0.3818 -0.2835
  667MOL0     C91962   9.166   3.775   7.536  0.6235 -0.0702  0.2254
  667MOL0     C91963   9.575   4.018   7.549  0.4966 -0.0145  0.0609
  667MOL0     C91964   9.557   4.118   7.445 -0.8378  0.6496  0.1850
  667MOL0     C91965   9.676   4.181   7.387  0.4137  0.2986 -0.7113
  667MOL0     C91966   9.802   4.160   7.434  1.4203  0.5045 -0.3216
  667MOL0     O91967   9.909   4.221   7.384  0.2496 -0.1187 -0.0064
  667MOL0     C91968   9.902   4.333   7.298 -0.1735 -0.3382 -0.0740
  667MOL0     C91969  10.024   4.414   7.341 -0.0313 -0.9051  0.4137
  667MOL0     C91970  10.153   4.342   7.285 -0.1742  0.5374  0.2044
  667MOL0     C91971  10.284   4.423   7.273 -0.1843 -0.3064 -0.9409
  667MOL0     C91972  10.381   4.409   7.386 -0.3862 -0.4417  0.6254
  667MOL0     C91973  10.462   4.393   7.479 -0.2695 -0.1897  1.0309
  667MOL0     C91974   9.815   4.058   7.536 -0.8515 -0.1818 -0.7301
  667MOL0     C91975   9.709   3.992   7.600 -0.3005 -1.0262  1.3305
  667MOL0     C91976   9.743   3.877   7.691 -0.4088  0.6083  0.0101
  667MOL0     H91977   9.204   4.028   7.748 -0.8637  0.0250  1.1372
  667MOL0     H91978   9.010   3.917   7.865 -0.6626 -0.7551  0.8754
  667MOL0     H91979   8.875   3.777   7.959 -1.7543  0.6448 -2.6852
  667MOL0     H91980   8.995   3.652   7.930 -0.1502 -0.1108 -1.0211
  667MOL0     H91981   8.694   3.616   7.914  1.2228  2.2760  0.1736
  667MOL0     H91982   8.814   3.483   7.912  1.3425  1.6549 -1.3491
  667MOL0     H91983   8.881   3.555   8.155 -0.9112 -1.2602  1.1962
  667MOL0     H91984   8.763   3.684   8.133 -0.2567 -0.3758  1.1341
  667MOL0     H91985   8.586   3.493   8.089  0.0278  2.4174  0.9516
  667MOL0     H91986   8.719   3.382   8.122  0.4408  0.8573 -3.1936
  667MOL0     H91987   8.713   3.446   8.358  1.7955  1.0339 -1.3597
  667MOL0     H91988   8.551   3.411   8.296 -0.7486  1.7227 -2.8527
  667MOL0     H91989   8.669   3.672   8.396 -1.8017 -4.5313  6.1767
  667MOL0     H91990   8.565   3.676   8.250 -0.2916 -2.1682 -1.5558
  667MOL0     H91991   8.449   3.744   8.426  3.3721  0.0608 -2.0225
  667MOL0     H91992   8.477   3.601   8.537  2.2709 -1.3253 -0.6692
  667MOL0     H91993   8.320   3.611   8.278 -0.2501  0.9266  0.3710
  667MOL0     H91994   8.357   3.454   8.361 -0.6927 -0.4504 -1.5947
  667MOL0     H91995   8.265   3.547   8.680 -2.3755  1.9001  2.5476
  667MOL0     H91996   8.081   3.536   8.806  0.6222 -1.2437 -0.1968
  667MOL0     H91997   7.918   3.540   8.734  1.0661 -2.3828 -1.2062
  667MOL0     H91998   8.004   3.713   8.917  3.3402  0.5742  0.9049
  667MOL0     H91999   8.104   3.783   8.786 -0.3974 -0.6459 -1.0933
  667MOL0     H92000   7.872   3.788   8.655  2.3781  0.1392 -0.9174
  667MOL0     H92001   7.802   3.780   8.823  0.3173  1.1503  1.8534
  667MOL0     H92002   7.973   3.963   8.892  2.9609 -0.5224 -0.9036
  667MOL0     H92003   8.011   3.976   8.716 -2.0861 -1.2004 -2.2752
  667MOL0     H92004   7.823   3.957   9.075 -0.3784 -0.1167  0.4795
  667MOL0     H92005   7.709   3.880   9.264 -3.0645 -1.0698 -2.4777
  667MOL0     H92006   7.539   3.927   9.278 -0.1712  2.1866  3.3158
  667MOL0     H92007   7.678   4.034   9.330  0.3081 -0.4806  0.4761
  667MOL0     H92008   7.515   4.308   9.481 -0.1520 -1.1945  2.0186
  667MOL0     H92009   7.390   4.451   9.620  4.1164 -1.2677 -2.6487
  667MOL0     H92010   7.223   4.454   9.782 -0.0654 -2.1450 -2.7011
  667MOL0     H92011   7.210   4.624   9.704 -0.8102  0.5662  0.3927
  667MOL0     H92012   7.062   4.680   9.851  3.3189 -0.4380 -1.9827
  667MOL0     H92013   6.959   4.533   9.809 -0.6207  0.5334 -2.2603
  667MOL0     H92014   7.171   4.554  10.020  1.1398 -2.8227  1.8879
  667MOL0     H92015   7.075   4.406   9.983  0.7998  0.2006  2.2414
  667MOL0     H92016   6.980   4.667  10.105 -1.4765  0.7799  2.3004
  667MOL0     H92017   6.997   4.502  10.177  3.5997 -0.2517 -2.7203
  667MOL0     H92018   6.754   4.574  10.137 -0.8374  0.5610 -1.2664
  667MOL0     H92019   6.790   4.605   9.974 -2.1018  0.6724  1.0226
  667MOL0     H92020   6.839   4.339  10.097  1.6501  0.1037 -0.5278
  667MOL0     H92021   6.833   4.367   9.928 -1.6791  0.2849 -0.5293
  667MOL0     H92022   6.586   4.375   9.941  0.3505  3.4156  0.0825
  667MOL0     H92023   6.583   4.427  10.109  3.1910 -0.3800  2.5566
  667MOL0     H92024   6.525   4.194  10.117  0.3583  0.4856  3.2123
  667MOL0     H92025   6.691   4.199  10.172 -1.8692 -3.2262  0.8480
  667MOL0     H92026   7.020   4.279   9.455 -0.8434 -0.7522 -1.8124
  667MOL0     H92027   7.147   4.123   9.348 -0.4145  1.1844 -2.0798
  667MOL0     H92028   7.433   4.200   8.929 -0.4946 -0.8413 -0.4541
  667MOL0     H92029   7.585   4.154   8.762  1.6659  3.0711 -0.2194
  667MOL0     H92030   9.004   3.635   7.549  0.7568 -1.1057  0.7486
  667MOL0     H92031   9.188   3.731   7.440 -1.8407 -4.0802  1.2760
  667MOL0     H92032   9.456   4.134   7.408 -2.0439 -0.7656  2.6462
  667MOL0     H92033   9.662   4.248   7.302  4.3075 -1.5962 -3.1563
  667MOL0     H92034   9.900   4.316   7.190 -1.5872  0.3912 -0.1762
  667MOL0     H92035   9.808   4.383   7.322  0.3547  0.8256 -0.3846
  667MOL0     H92036  10.031   4.412   7.450  0.7335 -2.0832  0.3599
  667MOL0     H92037  10.016   4.520   7.313  1.7506 -0.1344  2.5114
  667MOL0     H92038  10.168   4.256   7.351  1.4902  2.1685  2.1266
  667MOL0     H92039  10.150   4.296   7.186 -0.8265 -0.2867  0.5988
  667MOL0     H92040  10.260   4.530   7.268  0.7424  0.0863  1.3320
  667MOL0     H92041  10.334   4.388   7.182 -0.5385  0.2594 -1.3571
  667MOL0     H92042  10.524   4.360   7.559 -1.3561  0.2318  2.0757
  667MOL0     H92043   9.919   4.045   7.565 -1.7357 -0.2080  2.9996
  667MOL0     H92044   9.849   3.851   7.704 -0.5928 -1.5793 -2.1549
  667MOL0     H92045   9.716   3.904   7.794  4.3577  1.0594  1.3863
  667MOL0     H92046   9.680   3.789   7.677 -1.1649  1.4456 -2.2015
  668MOL0     O92047   0.483   8.931   2.540 -0.5452  0.3318  0.7011
  668MOL0     C92048   0.386   9.003   2.508 -0.3540  0.4747 -0.3728
  668MOL0     O92049   0.369   9.128   2.544 -0.1371 -0.0716  0.3639
  668MOL0     C92050   0.454   9.202   2.614 -0.2184  1.3756  0.0488
  668MOL0     C92051   0.581   9.236   2.562 -0.3566 -0.4884  0.2780
  668MOL0     C92052   0.668   9.312   2.642  0.0974 -1.0662  0.3616
  668MOL0     C92053   0.644   9.349   2.770  0.0521 -0.3734 -0.5382
  668MOL0     O92054   0.721   9.434   2.850  0.2504 -0.0811 -0.0492
  668MOL0     C92055   0.824   9.511   2.781 -1.2800  0.6730 -0.2567
  668MOL0     C92056   0.827   9.646   2.863  0.2059  0.0568  0.0334
  668MOL0     C92057   0.970   9.709   2.851 -0.8199  0.0929 -0.0956
  668MOL0     C92058   0.970   9.850   2.907 -0.1781  0.3869 -0.2432
  668MOL0     C92059   1.106   9.877   2.984 -1.2112  0.8109 -1.0159
  668MOL0     C92060   1.106   9.832   3.127 -0.3997  0.3858 -0.0472
  668MOL0     C92061   1.239   9.860   3.195  0.6130  0.2001  0.3616
  668MOL0     C92062   1.246   9.972   3.296  0.0836  0.3168  0.6075
  668MOL0     N92063   1.145   9.962   3.402  0.6670 -0.1446 -0.9537
  668MOL0     C92064   1.025  10.033   3.417 -0.6312  0.3060 -0.4424
  668MOL0     C92065   0.961   9.970   3.513  0.0522 -0.6355 -0.1062
  668MOL0     C92066   0.813   9.992   3.559  0.6778 -0.5405  1.0531
  668MOL0     C92067   0.805  10.064   3.696 -0.2239 -0.4525  0.5416
  668MOL0     C92068   0.848   9.978   3.822  0.6270 -0.3327 -0.2943
  668MOL0     C92069   0.824   9.828   3.829 -0.5463  0.0660  0.5942
  668MOL0     O92070   0.684   9.802   3.815  0.8124 -0.1279  0.1746
  668MOL0     C92071   0.622   9.678   3.788 -0.2185 -1.2799 -0.2733
  668MOL0     C92072   0.485   9.666   3.756 -0.0526  0.4890  0.9313
  668MOL0     C92073   0.413   9.539   3.767  0.5204  0.3776 -0.5526
  668MOL0     C92074   0.255   9.536   3.748  0.2722 -0.2145 -0.4804
  668MOL0     C92075   0.493   9.425   3.793  0.9340 -0.1883 -0.5324
  668MOL0     C92076   0.428   9.293   3.821  0.5020 -0.5420 -0.6542
  668MOL0     O92077   0.352   9.224   3.731 -0.4018  0.1109 -0.1467
  668MOL0     C92078   0.275   9.125   3.776 -0.9408  0.2210 -0.7275
  668MOL0     C92079   0.271   9.003   3.714 -0.3410 -0.8279  0.1281
  668MOL0     C92080   0.197   8.899   3.769  0.5025 -0.4924 -1.2152
  668MOL0     C92081   0.119   8.928   3.879  0.1462  0.2103 -0.1196
  668MOL0     O92082   0.068   8.816   3.940  0.2399 -0.2473  0.7094
  668MOL0     C92083  -0.040   8.813   4.029 -0.0983  0.3127  0.4166
  668MOL0     C92084  -0.066   8.668   4.091  0.4005 -0.5251 -0.7273
  668MOL0     C92085  -0.166   8.677   4.218  0.3588  0.6538  0.8408
  668MOL0     C92086  -0.183   8.529   4.255  0.5294  0.4710 -1.1696
  668MOL0     C92087  -0.329   8.485   4.260  1.1507 -0.0022  0.3090
  668MOL0     C92088  -0.408   8.549   4.371 -1.1831  0.6605  0.1049
  668MOL0     C92089  -0.554   8.516   4.351  0.9670  0.1384 -1.4344
  668MOL0     C92090  -0.620   8.560   4.215 -0.2376  0.0349 -0.1541
  668MOL0    Cl92091  -0.605   8.430   4.087 -0.1910  0.0461 -0.1218
  668MOL0     C92092   0.109   9.056   3.937 -0.8223  0.7593 -0.5628
  668MOL0     C92093   0.190   9.152   3.884 -0.3363  0.8180  0.0085
  668MOL0     O92094   0.463   9.253   3.928  0.0404  1.0395 -0.3718
  668MOL0     C92095   0.632   9.439   3.810 -0.4528  0.2013 -0.0392
  668MOL0     C92096   0.697   9.560   3.808 -0.2505  0.4382  0.1582
  668MOL0     N92097   1.038   9.868   3.561  1.0683  0.1862 -0.7500
  668MOL0     N92098   1.146   9.859   3.497  0.1683  1.1023 -0.3244
  668MOL0     C92099   0.518   9.309   2.822  0.3831 -0.4938 -0.4796
  668MOL0     C92100   0.421   9.248   2.746 -0.5037 -0.1236 -0.3032
  668MOL0     C92101   0.276   8.951   2.423 -0.4680 -0.6440  0.2198
  668MOL0     C92102   0.173   9.041   2.395  0.3815  1.0765  0.4556
  668MOL0     C92103   0.066   9.002   2.307  0.3726 -0.0149 -0.2966
  668MOL0     C92104   0.062   8.870   2.256 -0.4323  0.5340  0.8936
  668MOL0     O92105  -0.036   8.840   2.163 -0.4466 -0.1865  0.2714
  668MOL0     C92106   0.019   8.753   2.067 -0.2927 -0.5094  0.1651
  668MOL0     C92107  -0.074   8.775   1.947  0.6268  0.3513  0.3551
  668MOL0     C92108  -0.197   8.677   1.921 -0.0518  0.2185 -0.5914
  668MOL0     C92109  -0.168   8.555   1.843  0.1843 -0.1237  1.1902
  668MOL0     C92110  -0.293   8.529   1.760 -0.5284 -0.2032  0.2973
  668MOL0     C92111  -0.394   8.526   1.702 -0.0137  0.4957  0.2970
  668MOL0     C92112   0.165   8.782   2.304  0.4609 -1.0015 -0.1401
  668MOL0     C92113   0.266   8.816   2.387 -0.0133 -0.5030  0.6130
  668MOL0     C92114   0.355   8.705   2.425 -0.0422 -0.6781 -0.4804
  668MOL0     H92115   0.615   9.206   2.463  0.8473  4.0560 -0.9155
  668MOL0     H92116   0.757   9.352   2.595 -2.2033  4.6612  0.0251
  668MOL0     H92117   0.803   9.523   2.674 -3.2218  0.5932  0.0929
  668MOL0     H92118   0.921   9.461   2.794 -0.7426  1.0123 -2.4766
  668MOL0     H92119   0.761   9.718   2.813  0.2350  0.4618  0.5692
  668MOL0     H92120   0.798   9.626   2.966  0.2504 -1.3651 -0.2123
  668MOL0     H92121   1.044   9.651   2.906  1.2087  2.3976 -0.2746
  668MOL0     H92122   1.004   9.717   2.747 -2.9437  1.7620 -0.7510
  668MOL0     H92123   0.956   9.919   2.824  2.1696  0.5067 -0.6228
  668MOL0     H92124   0.890   9.870   2.979  2.3969  2.4816  2.3084
  668MOL0     H92125   1.120   9.985   2.997  1.2313  0.8647 -3.4288
  668MOL0     H92126   1.184   9.822   2.932 -0.0162 -1.3909  2.7444
  668MOL0     H92127   1.030   9.872   3.194  1.3731  0.4547  2.0245
  668MOL0     H92128   1.083   9.725   3.131 -4.6313  0.9895 -2.3576
  668MOL0     H92129   1.307   9.880   3.111  0.6119 -0.8710  0.0939
  668MOL0     H92130   1.281   9.771   3.243 -0.8863 -2.2789 -2.5162
  668MOL0     H92131   1.348   9.969   3.335  0.2160  1.0200  0.3403
  668MOL0     H92132   1.245  10.072   3.252 -0.1810  0.6787  1.4174
  668MOL0     H92133   0.995  10.118   3.357  3.6443  1.7958 -0.8162
  668MOL0     H92134   0.755   9.899   3.549  2.4574 -1.5624 -0.2807
  668MOL0     H92135   0.762  10.065   3.496 -0.6721 -2.5339 -0.2975
  668MOL0     H92136   0.879  10.144   3.693  0.5848 -1.2056 -1.7659
  668MOL0     H92137   0.707  10.109   3.714  0.2912  0.6934  0.5495
  668MOL0     H92138   0.945  10.007   3.863  0.3618  0.0373  0.0766
  668MOL0     H92139   0.782  10.010   3.903  0.6121  0.7849 -0.7258
  668MOL0     H92140   0.877   9.785   3.743  1.9479  1.1671  1.4837
  668MOL0     H92141   0.874   9.805   3.923 -0.8120 -0.5926  0.5793
  668MOL0     H92142   0.418   9.749   3.734  0.0253 -0.2341 -2.5278
  668MOL0     H92143   0.219   9.638   3.728 -1.6002 -1.0558 -1.6070
  668MOL0     H92144   0.213   9.503   3.843 -0.4168  1.2278 -0.2561
  668MOL0     H92145   0.222   9.469   3.668 -4.5024  0.7245  0.4068
  668MOL0     H92146   0.337   8.989   3.629  0.4110 -1.5352  0.8153
  668MOL0     H92147   0.206   8.800   3.724  1.1249 -0.6252 -0.8153
  668MOL0     H92148  -0.010   8.879   4.111 -1.9714  0.4404  1.0262
  668MOL0     H92149  -0.132   8.838   3.975 -0.4133 -0.9572  0.3359
  668MOL0     H92150  -0.098   8.600   4.012 -0.4692 -0.8056 -0.1444
  668MOL0     H92151   0.024   8.619   4.131 -1.8049 -2.0303  2.9581
  668MOL0     H92152  -0.252   8.739   4.193  0.1162 -0.1008 -0.2493
  668MOL0     H92153  -0.111   8.732   4.295  1.3060 -1.1264  1.4961
  668MOL0     H92154  -0.142   8.524   4.357  0.3127  0.0701 -1.1012
  668MOL0     H92155  -0.142   8.454   4.187 -2.7719 -1.0252 -1.6730
  668MOL0     H92156  -0.375   8.501   4.163  3.5061  0.5811 -0.7779
  668MOL0     H92157  -0.333   8.377   4.275 -0.1568 -0.2891 -1.8470
  668MOL0     H92158  -0.370   8.650   4.384  1.5717 -0.3005  0.2123
  668MOL0     H92159  -0.387   8.498   4.465 -3.6657 -2.4480 -0.8510
  668MOL0     H92160  -0.613   8.563   4.430  2.6240  1.9229 -1.2002
  668MOL0     H92161  -0.563   8.407   4.361 -0.6684 -0.2029 -5.0215
  668MOL0     H92162  -0.583   8.659   4.188 -1.5704  1.4882  2.8951
  668MOL0     H92163  -0.728   8.565   4.234 -0.1703 -4.9992  3.7561
  668MOL0     H92164   0.068   9.073   4.036  3.6661  1.2511  1.4811
  668MOL0     H92165   0.200   9.251   3.926  1.4646 -0.2255  2.2324
  668MOL0     H92166   0.684   9.350   3.842 -2.2243 -0.6221  0.7072
  668MOL0     H92167   0.805   9.559   3.821 -0.0090 -1.2913 -1.5465
  668MOL0     H92168   0.509   9.331   2.928  3.6005  2.2445 -0.5707
  668MOL0     H92169   0.325   9.227   2.792 -2.0815  0.4906 -3.0585
  668MOL0     H92170   0.162   9.144   2.426  2.3667  1.5782 -0.3486
  668MOL0     H92171  -0.014   9.069   2.278  1.7130  1.1060 -1.5136
  668MOL0     H92172   0.119   8.791   2.045 -1.1891  2.7647  1.1036
  668MOL0     H92173   0.013   8.649   2.102 -0.6114  0.3224  2.8000
  668MOL0     H92174  -0.012   8.780   1.857  2.2423  3.8425  1.4817
  668MOL0     H92175  -0.118   8.875   1.957 -4.8385 -1.6195 -0.6714
  668MOL0     H92176  -0.222   8.638   2.020  1.6642 -1.8432 -0.8983
  668MOL0     H92177  -0.279   8.735   1.877  0.5678  0.9711 -0.7847
  668MOL0     H92178  -0.158   8.471   1.912 -4.2419  0.0736  2.3426
  668MOL0     H92179  -0.084   8.570   1.774 -0.7488  1.8005  0.3862
  668MOL0     H92180  -0.492   8.534   1.659 -1.4820  0.7996  3.4089
  668MOL0     H92181   0.169   8.678   2.273 -1.2118 -1.2374  0.3040
  668MOL0     H92182   0.461   8.730   2.411 -0.7206  1.5286 -2.3813
  668MOL0     H92183   0.338   8.660   2.523 -3.1008  0.4874 -0.3753
  668MOL0     H92184   0.352   8.617   2.361  1.2227 -1.7310  0.8389
  669MOL0     O92185   2.395   2.817   3.948  0.2257 -0.0732  0.3449
  669MOL0     C92186   2.452   2.927   3.947  0.5387  0.7792 -0.7623
  669MOL0     O92187   2.586   2.936   3.957 -0.1964  0.1575 -0.8477
  669MOL0     C92188   2.647   2.824   4.016 -0.2087  0.9045 -0.4851
  669MOL0     C92189   2.634   2.791   4.153 -0.6669 -0.6596  1.0563
  669MOL0     C92190   2.702   2.681   4.207 -0.0070 -0.4364 -0.8839
  669MOL0     C92191   2.766   2.590   4.128 -0.1825  0.3939  0.2783
  669MOL0     O92192   2.843   2.485   4.176 -0.7725 -0.4109  0.6248
  669MOL0     C92193   2.818   2.442   4.309 -0.6015  0.0685  0.2720
  669MOL0     C92194   2.873   2.297   4.325  0.0495  0.0243 -0.6349
  669MOL0     C92195   2.855   2.250   4.470  0.9838  0.2783 -0.8268
  669MOL0     C92196   2.925   2.129   4.506  0.5278 -0.0219  0.5217
  669MOL0     C92197   2.845   1.997   4.500  0.5401 -0.2881 -0.0364
  669MOL0     C92198   2.755   1.975   4.625 -0.4275 -0.4184  0.3995
  669MOL0     C92199   2.665   1.857   4.636  0.1604 -0.4267  0.4228
  669MOL0     C92200   2.728   1.723   4.593  0.3156 -0.4481 -0.3468
  669MOL0     N92201   2.823   1.685   4.687  0.4776  0.2041  0.3941
  669MOL0     C92202   2.950   1.723   4.696 -0.4743  0.8536 -0.0401
  669MOL0     C92203   3.013   1.646   4.793 -0.4309 -0.3254  0.0671
  669MOL0     C92204   3.161   1.643   4.816 -0.2908 -0.0905 -0.6406
  669MOL0     C92205   3.224   1.596   4.682  0.1635 -0.2364 -0.0229
  669MOL0     C92206   3.373   1.617   4.686  0.2768 -0.5652  1.0622
  669MOL0     C92207   3.437   1.532   4.786  0.2850  0.1801 -0.8475
  669MOL0     O92208   3.576   1.509   4.760  0.0920  0.3278 -0.2287
  669MOL0     C92209   3.622   1.439   4.653 -0.0673 -0.1679 -0.3103
  669MOL0     C92210   3.540   1.346   4.587  0.1897 -0.4313 -0.8798
  669MOL0     C92211   3.586   1.273   4.484 -0.6731 -0.1904 -0.8943
  669MOL0     C92212   3.478   1.191   4.411 -0.2379  0.1243 -0.1360
  669MOL0     C92213   3.719   1.280   4.445  0.4030  0.2851 -0.3384
  669MOL0     C92214   3.773   1.189   4.334  0.0419  0.0692 -0.6455
  669MOL0     O92215   3.898   1.222   4.301 -0.1866  0.1581 -0.2283
  669MOL0     C92216   3.939   1.227   4.171 -0.1511 -0.0760 -0.0146
  669MOL0     C92217   4.073   1.257   4.149  0.4981  0.0761  1.0142
  669MOL0     C92218   4.114   1.266   4.016 -0.9874 -0.3028 -0.4010
  669MOL0     C92219   4.038   1.240   3.900  0.0108  0.2639  0.0214
  669MOL0     O92220   4.095   1.252   3.778  0.3534 -0.0862  0.2831
  669MOL0     C92221   4.000   1.277   3.665 -0.6059  0.3261  0.7739
  669MOL0     C92222   3.943   1.148   3.604 -0.8929 -0.5084  0.5386
  669MOL0     C92223   4.058   1.074   3.535  0.2059 -0.2816  0.3770
  669MOL0     C92224   3.989   0.964   3.447  0.7045  0.5218  0.7809
  669MOL0     C92225   4.096   0.889   3.379  0.8824  0.4089  0.1791
  669MOL0     C92226   4.051   0.797   3.272  0.3084  0.4183  0.7698
  669MOL0     C92227   4.147   0.733   3.171  0.4920  0.1614 -0.6903
  669MOL0     C92228   4.111   0.592   3.139  0.3567  0.3693 -0.0996
  669MOL0    Cl92229   4.213   0.530   3.008 -0.3943 -0.3080 -0.3826
  669MOL0     C92230   3.903   1.218   3.925  0.5045  0.6135 -0.3940
  669MOL0     C92231   3.855   1.205   4.056  0.4941 -0.8307  0.4907
  669MOL0     O92232   3.720   1.085   4.307 -0.3951  0.2492  0.1997
  669MOL0     C92233   3.801   1.366   4.523 -0.5274  0.2420 -1.1286
  669MOL0     C92234   3.757   1.448   4.626  0.2418  0.6772 -1.1600
  669MOL0     N92235   2.916   1.560   4.846  1.0580  0.2569  0.2439
  669MOL0     N92236   2.802   1.589   4.782  0.0833 -0.3292 -0.1040
  669MOL0     C92237   2.772   2.603   3.986  0.0394 -0.8560 -0.8640
  669MOL0     C92238   2.719   2.729   3.935  0.6138 -0.3798 -0.6881
  669MOL0     C92239   2.378   3.056   3.927  0.0199 -0.3439  0.0732
  669MOL0     C92240   2.453   3.175   3.943  0.0555  0.6610 -0.6927
  669MOL0     C92241   2.396   3.298   3.915 -0.3278 -0.8215 -0.7991
  669MOL0     C92242   2.260   3.305   3.875 -0.1640  0.0952 -0.0657
  669MOL0     O92243   2.186   3.415   3.861  0.1244 -0.3763  0.6180
  669MOL0     C92244   2.227   3.541   3.915  0.2731 -0.9481  0.4425
  669MOL0     C92245   2.117   3.643   3.895 -0.2777  0.1585 -1.6356
  669MOL0     C92246   2.073   3.674   3.746 -0.0223 -0.2935  0.8158
  669MOL0     C92247   1.965   3.789   3.741 -0.2716 -0.2109  0.2683
  669MOL0     C92248   1.846   3.736   3.811  0.0668  0.4408 -0.9447
  669MOL0     C92249   1.728   3.691   3.835 -0.0162 -0.1789  0.0428
  669MOL0     C92250   2.185   3.185   3.869  0.1678  0.0356 -1.2223
  669MOL0     C92251   2.242   3.054   3.887  0.4858 -0.7732  0.3911
  669MOL0     C92252   2.148   2.935   3.846 -0.1511  0.3996  0.4215
  669MOL0     H92253   2.595   2.863   4.224  0.1946  0.1983  0.6819
  669MOL0     H92254   2.705   2.672   4.315 -1.6264  0.1550 -0.7638
  669MOL0     H92255   2.716   2.435   4.347 -0.2719  0.9128  1.3699
  669MOL0     H92256   2.879   2.510   4.370  1.6826 -0.0587 -1.7250
  669MOL0     H92257   2.814   2.229   4.261 -2.2063 -0.0634  1.3945
  669MOL0     H92258   2.977   2.298   4.292 -0.0585 -0.8816 -1.0578
  669MOL0     H92259   2.905   2.323   4.533  1.1020  1.0878 -1.8410
  669MOL0     H92260   2.754   2.247   4.512  0.2422 -2.1914 -2.5493
  669MOL0     H92261   3.008   2.111   4.436  0.0182  2.6301 -0.8801
  669MOL0     H92262   2.955   2.130   4.611 -1.3695  1.8452  1.1150
  669MOL0     H92263   2.917   1.917   4.479  0.2351 -0.1745 -1.6491
  669MOL0     H92264   2.782   1.988   4.411 -1.0751 -3.4139  1.2372
  669MOL0     H92265   2.817   1.983   4.715 -0.0118  2.6536 -0.0532
  669MOL0     H92266   2.686   2.060   4.621 -0.4797 -0.4305  0.9716
  669MOL0     H92267   2.578   1.873   4.573  0.6565 -1.1146 -0.4594
  669MOL0     H92268   2.628   1.847   4.738  0.2353  0.6423  0.5670
  669MOL0     H92269   2.657   1.640   4.579 -1.1564  0.9779 -1.6436
  669MOL0     H92270   2.771   1.727   4.493  2.5407 -0.5382  0.5446
  669MOL0     H92271   3.006   1.793   4.635 -1.8182  4.1523  2.2339
  669MOL0     H92272   3.189   1.576   4.898  1.0348  2.2810  0.9501
  669MOL0     H92273   3.194   1.739   4.856  1.4251 -1.4777  1.4925
  669MOL0     H92274   3.202   1.490   4.666 -4.4094  0.6768 -1.1771
  669MOL0     H92275   3.176   1.649   4.599  2.4443  1.3545 -0.4317
  669MOL0     H92276   3.410   1.594   4.585 -1.9842 -2.8818  0.6333
  669MOL0     H92277   3.386   1.721   4.714  0.9323 -1.3986  4.2029
  669MOL0     H92278   3.434   1.575   4.886  1.2585 -1.1054 -0.2285
  669MOL0     H92279   3.381   1.439   4.800 -0.3017  0.5124 -0.9486
  669MOL0     H92280   3.433   1.345   4.607 -0.1537 -3.0376 -2.3237
  669MOL0     H92281   3.484   1.196   4.302  1.4309 -0.4864 -0.0977
  669MOL0     H92282   3.374   1.221   4.428 -0.4572 -0.8789  0.4153
  669MOL0     H92283   3.488   1.085   4.439  0.8653  0.7120  1.8804
  669MOL0     H92284   4.143   1.262   4.232  2.6611 -0.5835 -0.6844
  669MOL0     H92285   4.221   1.277   3.997 -0.6231  0.5367  1.7846
  669MOL0     H92286   3.923   1.340   3.711 -1.9386 -1.3191  0.9209
  669MOL0     H92287   4.048   1.322   3.578 -3.2574 -1.0140 -1.5751
  669MOL0     H92288   3.902   1.086   3.684  0.3737  1.1855  2.6086
  669MOL0     H92289   3.869   1.183   3.531  0.1687 -0.7241 -0.6936
  669MOL0     H92290   4.121   1.033   3.614 -1.4373 -1.4748  1.1404
  669MOL0     H92291   4.119   1.148   3.482  3.4119 -1.5185  2.0450
  669MOL0     H92292   3.923   0.996   3.366  3.7383 -1.9174 -3.0306
  669MOL0     H92293   3.928   0.893   3.503  0.2293 -1.7807 -2.3708
  669MOL0     H92294   4.165   0.962   3.335  3.4681 -1.3142  1.1460
  669MOL0     H92295   4.148   0.818   3.444 -0.6559 -1.8511 -0.9285
  669MOL0     H92296   3.970   0.848   3.219  2.2889  1.9768 -0.9562
  669MOL0     H92297   4.011   0.713   3.329  1.6615 -1.1860 -0.5578
  669MOL0     H92298   4.246   0.726   3.216  0.9257  2.0701 -1.2500
  669MOL0     H92299   4.162   0.805   3.090  3.4708 -0.4550 -0.8075
  669MOL0     H92300   4.011   0.585   3.094  0.3712 -0.7976  0.0002
  669MOL0     H92301   4.125   0.529   3.228  0.5554  1.2877  0.5272
  669MOL0     H92302   3.827   1.233   3.849  0.7947 -2.3248 -1.4102
  669MOL0     H92303   3.749   1.182   4.057  0.3047 -0.5213 -2.5744
  669MOL0     H92304   3.909   1.358   4.512 -0.8375 -0.9122 -4.8756
  669MOL0     H92305   3.824   1.499   4.695 -3.5254 -0.5539  4.0542
  669MOL0     H92306   2.822   2.532   3.921 -1.1083 -1.4936 -1.0912
  669MOL0     H92307   2.730   2.767   3.834 -0.3905  1.4937 -0.1443
  669MOL0     H92308   2.551   3.172   3.988  0.5660  1.1341 -1.7403
  669MOL0     H92309   2.451   3.388   3.941 -2.0340  0.6071 -1.9060
  669MOL0     H92310   2.251   3.535   4.022  0.4789  2.5790  0.7210
  669MOL0     H92311   2.307   3.583   3.854 -1.8333 -1.3850 -2.8415
  669MOL0     H92312   2.143   3.733   3.951 -1.1109 -0.3452 -0.4075
  669MOL0     H92313   2.028   3.598   3.938  1.2937  0.3314  2.1578
  669MOL0     H92314   2.159   3.710   3.689 -1.9786  0.5662 -1.7741
  669MOL0     H92315   2.035   3.581   3.702 -2.2730  0.7021  0.5814
  669MOL0     H92316   1.934   3.806   3.637  0.3615 -1.6971 -0.1792
  669MOL0     H92317   1.997   3.884   3.784  0.3310 -0.5943  0.6657
  669MOL0     H92318   1.631   3.654   3.865 -1.1905  2.9042  0.3658
  669MOL0     H92319   2.087   3.201   3.826  0.2227 -3.0552 -2.7997
  669MOL0     H92320   2.099   2.893   3.934  0.1105  1.0650  0.8957
  669MOL0     H92321   2.073   2.965   3.773  0.9729 -0.2809 -1.0617
  669MOL0     H92322   2.199   2.856   3.791 -1.6968 -1.8558  2.0386
  670MOL0     O92323   4.988  11.205   3.543  0.0375  0.0001  0.4116
  670MOL0     C92324   5.085  11.195   3.623 -0.3789  0.2211 -0.2759
  670MOL0     O92325   5.094  11.102   3.727 -0.1631  0.0645  0.5951
  670MOL0     C92326   4.979  11.048   3.778  0.3432  0.8933  1.1249
  670MOL0     C92327   4.886  11.130   3.848 -0.1594  0.3086  0.1194
  670MOL0     C92328   4.796  11.067   3.931 -0.1400 -0.0060  0.1127
  670MOL0     C92329   4.796  10.921   3.949 -0.2313 -0.0447  0.8922
  670MOL0     O92330   4.728  10.850   4.040  0.2934 -0.3549 -0.1710
  670MOL0     C92331   4.678  10.905   4.162  0.2081  0.3496 -0.2724
  670MOL0     C92332   4.799  10.922   4.264 -0.0090  0.8106  1.3072
  670MOL0     C92333   4.779  11.048   4.350  0.4491  0.6108 -0.1789
  670MOL0     C92334   4.884  11.037   4.459 -1.6396 -0.3120  0.5234
  670MOL0     C92335   4.865  11.134   4.584  0.6606  0.4887  0.4749
  670MOL0     C92336   4.774  11.057   4.679  0.6375  0.2666 -0.0175
  670MOL0     C92337   4.779  11.114   4.818 -0.5999 -0.6318 -0.2330
  670MOL0     C92338   4.733  11.263   4.815  0.0066 -0.2302 -0.1764
  670MOL0     N92339   4.721  11.318   4.948 -0.3488  0.0099  0.0923
  670MOL0     C92340   4.609  11.310   5.031  0.0160  0.5553  1.0052
  670MOL0     C92341   4.624  11.398   5.129 -0.5291 -0.0008 -0.0179
  670MOL0     C92342   4.534  11.410   5.248 -0.5235  0.2780 -0.5255
  670MOL0     C92343   4.562  11.292   5.346 -0.3041 -0.0086 -0.4462
  670MOL0     C92344   4.648  11.348   5.468 -0.1820  0.1903 -0.1864
  670MOL0     C92345   4.725  11.233   5.544  0.3310 -0.2654  0.0556
  670MOL0     O92346   4.626  11.144   5.599 -0.0504  0.7218  0.6164
  670MOL0     C92347   4.564  11.176   5.715 -0.8117  0.0317 -0.6993
  670MOL0     C92348   4.459  11.095   5.767 -0.1551 -0.4557  0.5582
  670MOL0     C92349   4.377  11.135   5.881 -0.0892  0.0653 -0.0564
  670MOL0     C92350   4.260  11.047   5.898 -0.7013 -0.0721  0.2496
  670MOL0     C92351   4.412  11.252   5.946  0.4270 -0.4723  0.4838
  670MOL0     C92352   4.347  11.299   6.074 -0.0556 -1.6210  0.0239
  670MOL0     O92353   4.395  11.412   6.129  0.5355 -0.0176  1.1601
  670MOL0     C92354   4.355  11.470   6.252 -0.1211  0.9381 -0.1075
  670MOL0     C92355   4.452  11.549   6.311  0.5302  0.1327 -0.3321
  670MOL0     C92356   4.421  11.619   6.425  0.8719  0.3920 -0.0371
  670MOL0     C92357   4.298  11.605   6.488  0.8456  0.5695 -0.0299
  670MOL0     O92358   4.251  11.687   6.581  0.2034  0.2874  0.0172
  670MOL0     C92359   4.133  11.645   6.668  1.4214 -0.4992 -0.3081
  670MOL0     C92360   4.102  11.753   6.764 -0.2803 -0.9292  1.0837
  670MOL0     C92361   3.994  11.716   6.867 -0.6371 -0.6974 -0.0502
  670MOL0     C92362   3.977  11.832   6.983 -0.3331  1.4542 -0.0311
  670MOL0     C92363   3.831  11.834   7.038 -0.5517  1.1512  0.4298
  670MOL0     C92364   3.845  11.935   7.159  0.8946  1.0684  0.5626
  670MOL0     C92365   3.699  11.951   7.214 -0.4774 -0.5141  0.7566
  670MOL0     C92366   3.683  12.021   7.347  0.5519 -0.0723 -0.6718
  670MOL0    Cl92367   3.771  11.932   7.474  0.1722 -0.2500 -0.1444
  670MOL0     C92368   4.210  11.510   6.430 -0.2509 -0.8469  0.1403
  670MOL0     C92369   4.233  11.444   6.313 -0.0180  0.3347  0.2856
  670MOL0     O92370   4.253  11.237   6.119  0.4505  1.4489  0.0183
  670MOL0     C92371   4.520  11.329   5.899 -0.0913  0.0938  0.3251
  670MOL0     C92372   4.581  11.296   5.782 -0.4245  0.4598  0.0320
  670MOL0     N92373   4.750  11.460   5.106 -0.2605  0.8505 -0.0504
  670MOL0     N92374   4.805  11.399   5.007 -0.5288  0.2495 -0.4253
  670MOL0     C92375   4.882  10.849   3.868  0.9692 -0.4024 -0.2019
  670MOL0     C92376   4.972  10.911   3.786  0.6449 -0.0345 -0.3599
  670MOL0     C92377   5.215  11.250   3.582 -0.5529  0.2782  0.1566
  670MOL0     C92378   5.328  11.208   3.642 -0.0580 -0.7988  0.7786
  670MOL0     C92379   5.452  11.260   3.612 -0.6700 -0.7385 -0.2626
  670MOL0     C92380   5.469  11.336   3.505 -0.2746 -0.7048  0.4302
  670MOL0     O92381   5.588  11.383   3.453 -0.6755 -0.5407 -0.6795
  670MOL0     C92382   5.712  11.358   3.523 -0.1893 -0.3625  0.9083
  670MOL0     C92383   5.732  11.442   3.646  0.3351 -0.1987 -0.3835
  670MOL0     C92384   5.842  11.392   3.736 -0.3219  0.5727  0.2984
  670MOL0     C92385   5.891  11.507   3.824 -0.0519  0.6206  0.9560
  670MOL0     C92386   5.988  11.592   3.751  0.4549 -0.8403  0.1945
  670MOL0     C92387   6.063  11.662   3.682  0.0971  0.3228 -0.2450
  670MOL0     C92388   5.354  11.398   3.447  0.6217  0.0656  0.5212
  670MOL0     C92389   5.225  11.356   3.491  0.6761 -0.2245  0.7289
  670MOL0     C92390   5.109  11.414   3.401  0.2860  0.5564 -1.0089
  670MOL0     H92391   4.878  11.238   3.841  4.1085  0.7107 -3.8799
  670MOL0     H92392   4.719  11.132   3.972 -1.7185 -1.0711 -1.0413
  670MOL0     H92393   4.595  10.847   4.203 -1.7108  2.4671 -0.8737
  670MOL0     H92394   4.634  11.003   4.138 -1.1515 -0.4115 -1.0180
  670MOL0     H92395   4.817  10.833   4.324  0.8305  1.2933  1.7828
  670MOL0     H92396   4.888  10.953   4.209 -0.5837  1.9674  0.9843
  670MOL0     H92397   4.782  11.136   4.285  0.8708 -0.3472 -1.4846
  670MOL0     H92398   4.681  11.056   4.399  0.4211 -0.3067 -0.0802
  670MOL0     H92399   4.898  10.935   4.497 -1.3976 -1.4115 -2.2716
  670MOL0     H92400   4.981  11.062   4.415 -2.9483  0.1922 -2.2403
  670MOL0     H92401   4.818  11.229   4.555 -0.5050 -0.4876 -0.9351
  670MOL0     H92402   4.966  11.159   4.618  1.6081 -0.1350 -1.7421
  670MOL0     H92403   4.674  11.054   4.635  1.5255  0.3350 -2.1636
  670MOL0     H92404   4.810  10.954   4.687 -0.3749 -0.1046 -0.1209
  670MOL0     H92405   4.885  11.124   4.844 -1.5075 -0.0967  3.9412
  670MOL0     H92406   4.733  11.053   4.896  0.3788  0.0634  0.9318
  670MOL0     H92407   4.806  11.320   4.757  2.1917 -3.7738 -1.2170
  670MOL0     H92408   4.637  11.259   4.762  0.9401 -1.8774 -1.8875
  670MOL0     H92409   4.524  11.247   5.008 -2.7389  3.1833  3.2050
  670MOL0     H92410   4.432  11.391   5.212 -0.7568 -1.3626  0.8525
  670MOL0     H92411   4.534  11.509   5.296 -0.9440  0.3360 -0.6406
  670MOL0     H92412   4.477  11.252   5.401  0.8126  0.8320  2.0512
  670MOL0     H92413   4.618  11.206   5.310 -1.5269 -0.7480 -0.6365
  670MOL0     H92414   4.717  11.424   5.430 -1.5786  2.1892  1.0841
  670MOL0     H92415   4.578  11.401   5.533 -0.3706  0.4329 -0.5826
  670MOL0     H92416   4.791  11.176   5.478  2.3920  1.5124  0.4680
  670MOL0     H92417   4.787  11.269   5.626 -0.4418  2.5512 -0.5100
  670MOL0     H92418   4.427  11.008   5.711 -0.4947  0.6089 -0.9780
  670MOL0     H92419   4.197  11.053   5.988 -1.3223 -4.1515  0.2813
  670MOL0     H92420   4.286  10.942   5.882 -1.1598  0.0761 -1.6744
  670MOL0     H92421   4.205  11.054   5.804  1.2904 -1.4423 -1.0633
  670MOL0     H92422   4.545  11.556   6.255  0.1759 -1.0088 -1.1098
  670MOL0     H92423   4.485  11.696   6.465  0.7757  1.3560 -1.6310
  670MOL0     H92424   4.038  11.619   6.620  0.6949 -1.0586  1.3913
  670MOL0     H92425   4.169  11.559   6.725  3.8279  1.1888  0.9027
  670MOL0     H92426   4.198  11.782   6.805  0.0743 -0.4076 -0.0664
  670MOL0     H92427   4.065  11.836   6.702 -1.4943 -0.8000  1.9370
  670MOL0     H92428   4.030  11.624   6.915  0.2534 -1.4000 -1.9475
  670MOL0     H92429   3.899  11.693   6.817 -1.1034  3.0872 -1.1935
  670MOL0     H92430   3.985  11.929   6.933 -0.3916  1.8178  0.6531
  670MOL0     H92431   4.061  11.830   7.053  1.5141 -2.7459 -2.0088
  670MOL0     H92432   3.759  11.862   6.961  0.9616 -1.8778 -2.3762
  670MOL0     H92433   3.813  11.734   7.080 -0.5936  1.5110  1.2799
  670MOL0     H92434   3.883  12.032   7.124  3.5206  0.6638  2.0535
  670MOL0     H92435   3.915  11.902   7.237  2.5156 -0.9806 -1.6014
  670MOL0     H92436   3.642  11.858   7.203  1.5021 -1.6703 -0.4483
  670MOL0     H92437   3.649  12.021   7.147  3.0222  1.2718 -0.2182
  670MOL0     H92438   3.577  12.017   7.371 -0.3046 -1.7994 -4.0986
  670MOL0     H92439   3.721  12.123   7.341 -2.5212  1.5568  3.3426
  670MOL0     H92440   4.110  11.491   6.468  0.5300 -3.4306  1.1437
  670MOL0     H92441   4.159  11.387   6.257  0.6523 -0.1979 -0.0610
  670MOL0     H92442   4.535  11.427   5.943  2.0179  0.3522 -0.8560
  670MOL0     H92443   4.662  11.362   5.750  0.2303 -0.5945 -0.5470
  670MOL0     H92444   4.882  10.740   3.871 -1.3545 -0.4441  1.3858
  670MOL0     H92445   5.037  10.847   3.727 -1.0767 -0.6907 -1.6474
  670MOL0     H92446   5.317  11.127   3.715  2.1383  0.2064  2.3195
  670MOL0     H92447   5.543  11.223   3.658  1.4863  3.2123 -0.9415
  670MOL0     H92448   5.710  11.250   3.541 -2.1075  0.0344  3.6335
  670MOL0     H92449   5.791  11.365   3.447 -2.1951 -2.4124 -1.5481
  670MOL0     H92450   5.640  11.449   3.705  0.3819 -0.3176 -0.2964
  670MOL0     H92451   5.750  11.544   3.610  2.1558 -0.9811 -1.8669
  670MOL0     H92452   5.792  11.311   3.791 -0.8158  0.1563 -0.7229
  670MOL0     H92453   5.920  11.342   3.678  1.1918  2.5357  0.5554
  670MOL0     H92454   5.941  11.477   3.917 -0.3303 -1.6146  0.4561
  670MOL0     H92455   5.803  11.563   3.856  0.4065  2.7480 -1.2094
  670MOL0     H92456   6.124  11.716   3.612  3.0930 -2.9714 -0.4454
  670MOL0     H92457   5.374  11.457   3.358 -0.6823  0.1078  0.2378
  670MOL0     H92458   5.148  11.461   3.310 -4.6647  0.4809 -3.5112
  670MOL0     H92459   5.050  11.332   3.358  0.4561  0.4324 -1.0110
  670MOL0     H92460   5.031  11.477   3.443 -2.5446 -1.1855 -3.2767
  671MOL0     O92461  10.521   4.671   7.571 -1.0253 -0.5630 -0.5215
  671MOL0     C92462  10.533   4.792   7.559 -0.5099  0.3493 -0.5952
  671MOL0     O92463  10.433   4.885   7.572  0.3970  0.3072 -0.2562
  671MOL0     C92464  10.296   4.857   7.574 -0.6258 -1.1956  0.5081
  671MOL0     C92465  10.208   4.970   7.578 -0.0090 -0.3554  0.0567
  671MOL0     C92466  10.066   4.942   7.574 -0.0417  0.4040 -0.2211
  671MOL0     C92467  10.006   4.817   7.565  0.8618 -0.1412  0.2029
  671MOL0     O92468   9.862   4.826   7.569  0.1240 -0.8692 -0.5985
  671MOL0     C92469   9.782   4.702   7.544 -0.4990  0.0549  0.2757
  671MOL0     C92470   9.783   4.608   7.663  0.0691  0.4057 -0.1903
  671MOL0     C92471   9.670   4.510   7.664  0.0280  1.5642  0.7596
  671MOL0     C92472   9.719   4.383   7.736 -0.2863 -0.3345 -1.2200
  671MOL0     C92473   9.599   4.304   7.778  0.3661  0.3331 -0.0835
  671MOL0     C92474   9.540   4.333   7.918 -0.1001  0.1516 -0.1952
  671MOL0     C92475   9.419   4.242   7.949  0.0392 -0.7877  0.6227
  671MOL0     C92476   9.290   4.310   7.890 -0.2682  0.0121  0.5226
  671MOL0     N92477   9.167   4.259   7.949 -0.3578  0.2612  0.0088
  671MOL0     C92478   9.045   4.306   7.905  0.6324  0.5785 -0.1580
  671MOL0     C92479   8.952   4.227   7.961 -0.1837  1.0241  0.1250
  671MOL0     C92480   8.799   4.232   7.951 -0.2019  0.8162  0.5492
  671MOL0     C92481   8.745   4.093   7.914 -0.3757  0.7232  0.2726
  671MOL0     C92482   8.593   4.084   7.884  0.0793 -0.6483  0.4645
  671MOL0     C92483   8.546   3.933   7.874  0.1700  0.1434  0.4651
  671MOL0     O92484   8.547   3.863   7.998  0.1989 -0.3593 -0.8283
  671MOL0     C92485   8.421   3.857   8.058  0.7139  0.5474 -0.2687
  671MOL0     C92486   8.331   3.750   8.021 -0.1165  0.4236  0.1484
  671MOL0     C92487   8.203   3.741   8.081  0.1180 -0.0957  0.1966
  671MOL0     C92488   8.126   3.620   8.065  0.5545 -0.2913 -0.3182
  671MOL0     C92489   8.157   3.845   8.167 -0.4872 -0.7099  0.2081
  671MOL0     C92490   8.011   3.859   8.208  0.0733  0.2143 -0.0597
  671MOL0     O92491   7.984   3.903   8.334  0.7271  1.3090  0.3309
  671MOL0     C92492   7.848   3.916   8.382 -0.4713 -0.5641  0.1564
  671MOL0     C92493   7.806   4.043   8.419 -0.2421  0.1995 -0.2406
  671MOL0     C92494   7.680   4.073   8.463  0.3569 -0.4409  0.4286
  671MOL0     C92495   7.579   3.978   8.449  0.0156 -0.6496  0.1826
  671MOL0     O92496   7.447   4.017   8.464  0.8546 -0.4169 -0.2415
  671MOL0     C92497   7.340   3.916   8.443 -0.6492  0.3164 -0.5219
  671MOL0     C92498   7.205   3.987   8.480 -0.2350 -0.5486 -0.7012
  671MOL0     C92499   7.190   4.036   8.624 -0.2867 -0.2673  0.5954
  671MOL0     C92500   7.046   4.092   8.636 -0.2491 -0.6921  0.4087
  671MOL0     C92501   7.022   4.128   8.785 -0.5739  0.6683  0.2279
  671MOL0     C92502   7.062   4.014   8.882 -0.2584  0.5532  0.6851
  671MOL0     C92503   6.955   4.021   8.994 -0.2940  0.1125 -0.0980
  671MOL0     C92504   6.942   3.893   9.079 -0.4119  0.1087 -0.2203
  671MOL0    Cl92505   6.863   3.762   8.988 -0.2909  0.1046 -0.6293
  671MOL0     C92506   7.621   3.841   8.413 -0.4140 -0.5221  0.2416
  671MOL0     C92507   7.754   3.812   8.378 -0.5346 -0.3003 -0.2653
  671MOL0     O92508   7.927   3.850   8.115 -0.5925  0.4230 -0.5762
  671MOL0     C92509   8.254   3.940   8.206  0.1422  0.5952 -1.0962
  671MOL0     C92510   8.383   3.945   8.158 -0.3521  0.2976  0.0576
  671MOL0     N92511   9.024   4.127   8.019 -0.4373  0.1589  0.6501
  671MOL0     N92512   9.151   4.148   8.015  0.7601  0.2581 -0.1278
  671MOL0     C92513  10.091   4.709   7.551  0.8009 -0.8918 -0.5813
  671MOL0     C92514  10.228   4.736   7.575 -1.0348  0.1643  0.2160
  671MOL0     C92515  10.671   4.846   7.545  0.4327  0.1489  0.5961
  671MOL0     C92516  10.684   4.968   7.475 -1.1018 -0.3184  0.4983
  671MOL0     C92517  10.801   5.033   7.448 -0.6174  1.2846  0.5662
  671MOL0     C92518  10.917   4.948   7.448 -0.3252  0.9053  0.0641
  671MOL0     O92519  11.041   4.987   7.403  0.1472 -0.3168  0.0467
  671MOL0     C92520  11.048   5.076   7.297  0.2627 -0.8099  0.4769
  671MOL0     C92521  11.177   5.051   7.212 -0.0983  1.0665 -0.0615
  671MOL0     C92522  11.292   5.143   7.267 -0.3884  0.2637 -0.1222
  671MOL0     C92523  11.420   5.106   7.205 -0.2773 -0.6477 -0.3812
  671MOL0     C92524  11.430   5.117   7.053 -0.0150  0.1864 -0.0962
  671MOL0     C92525  11.422   5.117   6.935 -0.2473  0.8146 -0.4221
  671MOL0     C92526  10.904   4.825   7.517  0.0382 -0.0670  0.9427
  671MOL0     C92527  10.792   4.773   7.571  0.1653  0.4208 -1.1756
  671MOL0     C92528  10.807   4.646   7.639  0.7885 -0.7068 -0.5218
  671MOL0     H92529  10.248   5.071   7.582 -0.6351 -0.1483  1.7355
  671MOL0     H92530   9.996   5.026   7.576 -0.7669 -0.1957  0.7365
  671MOL0     H92531   9.808   4.647   7.454  0.1708  0.1273  0.4170
  671MOL0     H92532   9.683   4.738   7.519 -1.2346 -1.4745  0.8264
  671MOL0     H92533   9.881   4.560   7.659  0.9606  2.2224 -2.9006
  671MOL0     H92534   9.760   4.668   7.752 -3.5370  1.8886 -1.9120
  671MOL0     H92535   9.574   4.549   7.698 -2.1650 -3.7986  1.7476
  671MOL0     H92536   9.654   4.480   7.560  0.0161  0.9862  0.9239
  671MOL0     H92537   9.777   4.321   7.667 -0.2530 -0.5653 -0.9861
  671MOL0     H92538   9.776   4.413   7.825  2.6582 -1.0089 -2.7459
  671MOL0     H92539   9.619   4.199   7.756 -0.7141  0.2018 -0.5278
  671MOL0     H92540   9.518   4.327   7.707  1.0131 -0.0279 -0.9648
  671MOL0     H92541   9.627   4.318   7.982  1.3241  0.1062 -2.0540
  671MOL0     H92542   9.514   4.439   7.929  0.2391  0.0195  2.7069
  671MOL0     H92543   9.400   4.253   8.057  1.0382  3.2321  0.5298
  671MOL0     H92544   9.432   4.141   7.911  0.1340  0.4715 -3.0615
  671MOL0     H92545   9.292   4.419   7.898  1.4209 -0.1347  3.0732
  671MOL0     H92546   9.284   4.277   7.786  1.6154 -0.3203  0.4791
  671MOL0     H92547   9.008   4.387   7.843 -3.9723  0.4511  2.0412
  671MOL0     H92548   8.770   4.311   7.882 -0.3563  0.2076 -0.0879
  671MOL0     H92549   8.761   4.262   8.050  1.4637 -0.6378  1.7037
  671MOL0     H92550   8.792   4.064   7.820  0.3865 -2.2093  1.4197
  671MOL0     H92551   8.774   4.016   7.987 -0.8951  2.0452  1.9266
  671MOL0     H92552   8.544   4.129   7.971 -1.7004  0.9072 -1.2487
  671MOL0     H92553   8.572   4.132   7.789  0.6528 -0.8137  0.2484
  671MOL0     H92554   8.442   3.938   7.841 -1.5504 -5.4710  3.6953
  671MOL0     H92555   8.609   3.889   7.796  1.3372 -0.1762  1.5493
  671MOL0     H92556   8.376   3.664   7.972 -0.3594  0.6089 -0.4129
  671MOL0     H92557   8.202   3.547   8.091  0.0487 -0.9774 -0.7182
  671MOL0     H92558   8.095   3.615   7.960  2.4710  2.7860 -1.1696
  671MOL0     H92559   8.042   3.605   8.134  2.4382  0.5534  2.3184
  671MOL0     H92560   7.890   4.111   8.427  1.7525 -2.2412  0.7751
  671MOL0     H92561   7.652   4.173   8.495 -0.3838 -1.2787  2.5208
  671MOL0     H92562   7.333   3.890   8.336 -0.9478  0.6043 -0.5769
  671MOL0     H92563   7.357   3.820   8.493 -0.3616 -0.3153 -1.7857
  671MOL0     H92564   7.187   4.074   8.416 -2.7132 -0.5085 -0.0558
  671MOL0     H92565   7.125   3.917   8.455 -1.2240 -0.0152  0.8284
  671MOL0     H92566   7.249   4.122   8.655 -4.0862  2.6525  0.5192
  671MOL0     H92567   7.212   3.950   8.688 -1.8651 -1.2316 -0.0776
  671MOL0     H92568   6.967   4.022   8.607 -0.2909 -0.3674 -0.2867
  671MOL0     H92569   7.037   4.189   8.586  2.7499  1.0343  2.8139
  671MOL0     H92570   7.071   4.221   8.815 -1.2686  1.8119 -1.9165
  671MOL0     H92571   6.917   4.158   8.784 -0.6726  0.6758 -3.3049
  671MOL0     H92572   7.165   4.035   8.913  0.3597  0.8869 -1.4110
  671MOL0     H92573   7.052   3.916   8.835  3.1656  0.1075  0.6582
  671MOL0     H92574   6.861   4.039   8.942  0.5016 -0.1553 -1.6713
  671MOL0     H92575   6.966   4.108   9.060  1.2867  1.9979 -2.6708
  671MOL0     H92576   6.891   3.902   9.176 -0.3938  1.3309 -0.3025
  671MOL0     H92577   7.048   3.875   9.098 -0.8034  0.3225  2.5652
  671MOL0     H92578   7.543   3.769   8.389  0.4072 -1.4152  0.2051
  671MOL0     H92579   7.772   3.708   8.351 -2.3158 -1.1400  1.5122
  671MOL0     H92580   8.228   4.024   8.270 -2.0778 -0.7067 -0.1855
  671MOL0     H92581   8.442   4.023   8.204 -2.9749  1.8448  1.0521
  671MOL0     H92582  10.072   4.603   7.536  4.4511 -1.9769  1.1471
  671MOL0     H92583  10.284   4.643   7.572 -2.2698 -0.5992  0.2848
  671MOL0     H92584  10.598   5.033   7.457 -0.7246  1.0045  2.9570
  671MOL0     H92585  10.798   5.133   7.405  0.2402 -0.3819 -3.9181
  671MOL0     H92586  10.968   5.062   7.225  0.0701 -4.2710  1.1885
  671MOL0     H92587  11.043   5.181   7.328 -0.2515 -0.5019 -0.6037
  671MOL0     H92588  11.167   5.096   7.113  0.6112 -0.0194 -0.6451
  671MOL0     H92589  11.188   4.943   7.200 -1.0204  1.1777 -2.2564
  671MOL0     H92590  11.270   5.249   7.247  0.5967  1.4204  4.0568
  671MOL0     H92591  11.298   5.121   7.374  4.1734 -0.4993 -0.3342
  671MOL0     H92592  11.426   5.002   7.238 -2.1832 -0.2877  1.2969
  671MOL0     H92593  11.500   5.167   7.248 -0.1416 -0.9957 -0.1354
  671MOL0     H92594  11.407   5.101   6.830  0.5982 -0.5671 -0.3651
  671MOL0     H92595  11.001   4.777   7.531  0.4137  0.1212 -0.8360
  671MOL0     H92596  10.909   4.607   7.632  2.0713  1.1348  3.9161
  671MOL0     H92597  10.782   4.665   7.744 -1.0576 -3.8027 -0.2705
  671MOL0     H92598  10.737   4.574   7.597  0.1653 -0.0803 -0.5589
  672MOL0     O92599   3.935   2.024   9.282 -0.0670  0.3980 -1.0913
  672MOL0     C92600   3.999   2.086   9.366  0.3948  0.0057 -0.3356
  672MOL0     O92601   4.135   2.080   9.377 -0.2318 -0.1514 -0.1869
  672MOL0     C92602   4.204   1.982   9.300  0.2024  0.1162 -0.5769
  672MOL0     C92603   4.174   1.843   9.318 -0.1208  0.5652  0.1006
  672MOL0     C92604   4.228   1.757   9.225 -0.4942 -0.7867  0.2145
  672MOL0     C92605   4.299   1.806   9.111  0.0286  0.2915  0.3110
  672MOL0     O92606   4.367   1.726   9.030  0.5465  0.2117  0.1432
  672MOL0     C92607   4.293   1.614   8.985 -0.6944 -0.2344  0.2404
  672MOL0     C92608   4.406   1.521   8.935 -0.7081  0.2985 -0.1643
  672MOL0     C92609   4.365   1.398   8.858 -0.2382  0.6085 -0.2947
  672MOL0     C92610   4.479   1.288   8.877 -0.1065 -0.2617  0.0017
  672MOL0     C92611   4.461   1.148   8.822  0.4583 -0.4556  0.3742
  672MOL0     C92612   4.468   1.148   8.663  0.1036 -0.2599 -1.5531
  672MOL0     C92613   4.409   1.024   8.598  0.1383  0.3043 -0.6553
  672MOL0     C92614   4.417   1.051   8.452  0.8336 -0.2284  0.7042
  672MOL0     N92615   4.306   0.992   8.373 -0.0910  1.0384  0.0822
  672MOL0     C92616   4.295   0.859   8.345 -0.3665 -1.0941  0.8195
  672MOL0     C92617   4.186   0.842   8.262 -0.4875  0.4976  0.5752
  672MOL0     C92618   4.162   0.694   8.227 -0.5792 -0.7608 -0.6971
  672MOL0     C92619   4.039   0.672   8.138 -0.1037 -0.6730 -0.8368
  672MOL0     C92620   4.017   0.522   8.134 -0.1102  1.0199  1.2757
  672MOL0     C92621   3.901   0.484   8.040 -0.1562 -0.2437 -0.8835
  672MOL0     O92622   3.943   0.518   7.910 -0.1836  0.3253 -0.2108
  672MOL0     C92623   3.841   0.554   7.817 -0.9669 -0.2533 -0.2131
  672MOL0     C92624   3.887   0.622   7.706 -0.3213  1.3422 -1.3245
  672MOL0     C92625   3.803   0.680   7.612  0.4308  0.8007  0.4089
  672MOL0     C92626   3.868   0.762   7.508 -0.4003  0.0667 -0.1774
  672MOL0     C92627   3.668   0.653   7.631 -0.0126 -0.6210  0.0680
  672MOL0     C92628   3.575   0.727   7.550  0.3920 -1.0759 -0.1537
  672MOL0     O92629   3.466   0.653   7.513 -0.2065 -0.6708 -0.4694
  672MOL0     C92630   3.392   0.688   7.404  0.6909 -0.1451  1.1842
  672MOL0     C92631   3.442   0.769   7.295  0.4266 -0.2129  0.2443
  672MOL0     C92632   3.376   0.805   7.188 -0.4467 -0.5014  0.1835
  672MOL0     C92633   3.241   0.750   7.169  0.6804  0.0666 -0.0782
  672MOL0     O92634   3.176   0.767   7.054 -0.6014  0.5677  0.0296
  672MOL0     C92635   3.100   0.660   6.993  0.9732  0.6928  0.3186
  672MOL0     C92636   3.028   0.702   6.866  0.5501  0.1169 -0.5178
  672MOL0     C92637   2.950   0.594   6.802  1.6059 -0.9563 -0.1919
  672MOL0     C92638   3.030   0.489   6.727  0.0010 -0.4950  0.4193
  672MOL0     C92639   2.942   0.377   6.663 -0.3429 -0.8819 -0.8781
  672MOL0     C92640   3.029   0.252   6.643 -0.1832  0.0431  0.1127
  672MOL0     C92641   2.970   0.152   6.545 -1.1861  0.6402  0.2816
  672MOL0     C92642   2.989   0.204   6.402 -0.2189  0.8398 -0.0891
  672MOL0    Cl92643   3.150   0.214   6.331  0.1027 -0.0059 -0.2744
  672MOL0     C92644   3.194   0.662   7.271 -0.2697  0.1467 -0.4015
  672MOL0     C92645   3.267   0.635   7.388 -0.4722 -0.9865 -0.6966
  672MOL0     O92646   3.579   0.849   7.533  1.2321  0.9071  0.1310
  672MOL0     C92647   3.620   0.572   7.730  0.4028 -0.4310  0.2845
  672MOL0     C92648   3.708   0.520   7.825 -0.8057 -1.1514  0.0022
  672MOL0     N92649   4.135   0.963   8.246 -0.4791 -0.3105  0.1570
  672MOL0     N92650   4.205   1.049   8.312 -0.4589 -0.0890 -0.3644
  672MOL0     C92651   4.330   1.944   9.103 -0.0645 -0.3402 -0.0260
  672MOL0     C92652   4.276   2.026   9.196 -0.3113  0.2196 -0.1060
  672MOL0     C92653   3.921   2.149   9.489  0.7614 -0.2905 -0.2940
  672MOL0     C92654   3.793   2.104   9.520  0.0462  0.9001  0.4001
  672MOL0     C92655   3.707   2.161   9.616  0.5821 -0.1984 -0.2958
  672MOL0     C92656   3.756   2.257   9.700  0.1531  0.4120  0.8417
  672MOL0     O92657   3.692   2.307   9.811 -0.0098 -0.3899 -0.1907
  672MOL0     C92658   3.580   2.378   9.778  0.2050  0.2709  0.0654
  672MOL0     C92659   3.583   2.504   9.856  0.9901 -0.1668 -0.6240
  672MOL0     C92660   3.658   2.613   9.781  0.2205  0.3420 -0.9503
  672MOL0     C92661   3.618   2.637   9.637  0.9900 -0.4523  0.4999
  672MOL0     C92662   3.482   2.666   9.642  1.2359  0.9631 -0.6974
  672MOL0     C92663   3.358   2.678   9.662  0.1013  0.7485 -0.7804
  672MOL0     C92664   3.889   2.302   9.674  0.0165  0.5112 -0.1560
  672MOL0     C92665   3.962   2.251   9.567  0.1919  0.4996 -1.1031
  672MOL0     C92666   4.089   2.328   9.548  0.4294  0.3354 -0.5773
  672MOL0     H92667   4.121   1.806   9.404  1.2469  0.0610  0.7531
  672MOL0     H92668   4.216   1.651   9.245  0.4937 -0.7086  1.2554
  672MOL0     H92669   4.227   1.646   8.904  0.7475 -1.7192 -1.6167
  672MOL0     H92670   4.237   1.560   9.062 -0.9024 -1.7873 -0.9686
  672MOL0     H92671   4.480   1.566   8.868  0.2218  1.6353  1.6569
  672MOL0     H92672   4.466   1.480   9.017  0.7126  0.8111 -0.9055
  672MOL0     H92673   4.272   1.355   8.896 -0.2661  2.2994  1.7353
  672MOL0     H92674   4.361   1.432   8.754  0.3273 -1.8083 -1.1779
  672MOL0     H92675   4.572   1.325   8.833 -0.3240  0.9736  0.5590
  672MOL0     H92676   4.493   1.276   8.985 -0.2197 -3.1459 -0.2322
  672MOL0     H92677   4.367   1.110   8.861 -0.9475  3.3933  1.2176
  672MOL0     H92678   4.539   1.094   8.876 -0.3578  0.1283  2.2012
  672MOL0     H92679   4.416   1.235   8.623 -3.4670 -1.9077 -0.9019
  672MOL0     H92680   4.569   1.149   8.621  0.0411  2.8507 -1.8857
  672MOL0     H92681   4.305   1.013   8.628  0.1896  1.1080 -0.1447
  672MOL0     H92682   4.453   0.927   8.622 -0.2264 -0.1372 -1.7150
  672MOL0     H92683   4.407   1.160   8.442 -0.8919  0.0045  3.7799
  672MOL0     H92684   4.520   1.026   8.423  0.7998  0.9114 -0.5547
  672MOL0     H92685   4.363   0.779   8.376  0.2007 -1.1377 -0.4585
  672MOL0     H92686   4.135   0.645   8.321  2.3093 -0.0969  0.5841
  672MOL0     H92687   4.245   0.639   8.181 -1.1332 -1.3852 -0.9614
  672MOL0     H92688   3.963   0.732   8.189  0.8973 -0.1658  0.0952
  672MOL0     H92689   4.056   0.724   8.043 -0.7604  0.9496 -0.1152
  672MOL0     H92690   4.101   0.466   8.092 -2.4996 -1.3931 -0.6068
  672MOL0     H92691   3.981   0.475   8.226 -0.0596 -4.4479 -1.1248
  672MOL0     H92692   3.877   0.378   8.049  0.2987 -0.1941  1.5648
  672MOL0     H92693   3.814   0.541   8.074 -0.2768 -0.4273 -0.8875
  672MOL0     H92694   3.991   0.653   7.696  0.4844 -0.1886  1.4506
  672MOL0     H92695   3.976   0.746   7.500 -0.3738  0.0753  0.1805
  672MOL0     H92696   3.856   0.867   7.534  2.1237  0.8332 -1.7228
  672MOL0     H92697   3.811   0.738   7.417 -2.3797 -1.3073  1.3507
  672MOL0     H92698   3.538   0.818   7.308  0.2969  0.1088  0.0256
  672MOL0     H92699   3.416   0.871   7.111  3.8193 -3.4887 -0.5111
  672MOL0     H92700   3.158   0.567   6.988  0.1755 -0.1239  3.5506
  672MOL0     H92701   3.024   0.623   7.062  2.2137 -0.3614  1.1643
  672MOL0     H92702   2.957   0.784   6.880  1.0432  0.4379  0.1340
  672MOL0     H92703   3.105   0.726   6.792  0.7527 -0.7673 -0.6035
  672MOL0     H92704   2.879   0.632   6.728  1.3520 -4.5361 -1.9974
  672MOL0     H92705   2.880   0.541   6.868  3.4158  0.0228  2.6755
  672MOL0     H92706   3.101   0.435   6.791  3.2206  1.2648 -1.3786
  672MOL0     H92707   3.083   0.547   6.651  0.1032 -1.0067  0.0929
  672MOL0     H92708   2.849   0.361   6.718 -0.8636 -0.6448 -1.6663
  672MOL0     H92709   2.901   0.415   6.568 -2.4354  2.5105  1.1822
  672MOL0     H92710   3.068   0.205   6.733  3.0958  1.8836 -0.1876
  672MOL0     H92711   3.121   0.292   6.600  2.4467 -1.4222  3.9137
  672MOL0     H92712   2.861   0.151   6.560 -1.5448  2.4116 -1.7129
  672MOL0     H92713   3.012   0.052   6.558 -0.4492  1.0044  0.7592
  672MOL0     H92714   2.945   0.304   6.398 -2.3004 -0.0513 -0.9234
  672MOL0     H92715   2.923   0.154   6.331  2.0846 -1.5903 -0.7092
  672MOL0     H92716   3.094   0.622   7.261 -0.2443 -0.1632  0.4613
  672MOL0     H92717   3.215   0.591   7.473 -0.2153  0.3488  0.1797
  672MOL0     H92718   3.517   0.539   7.726  0.1950  0.2660 -0.2606
  672MOL0     H92719   3.666   0.457   7.903  2.2304 -0.8408  2.0584
  672MOL0     H92720   4.393   1.984   9.025 -0.7822 -2.5261 -1.8680
  672MOL0     H92721   4.278   2.134   9.180 -0.5243 -0.0998 -2.7355
  672MOL0     H92722   3.758   2.009   9.481 -0.8176  1.6053 -0.5918
  672MOL0     H92723   3.623   2.107   9.659  1.1500  0.2982  1.5322
  672MOL0     H92724   3.573   2.400   9.671  0.8982  2.8684  0.4698
  672MOL0     H92725   3.495   2.323   9.819 -0.9864  2.6464  0.9952
  672MOL0     H92726   3.619   2.469   9.953  0.2673 -2.1797 -1.0360
  672MOL0     H92727   3.481   2.535   9.882  0.8203  2.7818 -4.0662
  672MOL0     H92728   3.639   2.706   9.834  2.6017  0.4272 -0.1323
  672MOL0     H92729   3.764   2.601   9.802  0.0634  1.1937  0.4150
  672MOL0     H92730   3.628   2.553   9.568 -5.9540  0.1549 -1.9697
  672MOL0     H92731   3.671   2.724   9.598  0.4267  0.4041  1.5798
  672MOL0     H92732   3.252   2.684   9.670  0.0367 -1.0111  0.3576
  672MOL0     H92733   3.937   2.373   9.740  1.4370 -1.4946  1.0828
  672MOL0     H92734   4.113   2.341   9.442 -1.6033  2.0763 -0.8872
  672MOL0     H92735   4.070   2.429   9.585  1.3869  1.0227 -1.8847
  672MOL0     H92736   4.172   2.285   9.606 -0.3121 -2.7795 -1.5999
  673MOL0     O92737   6.389   3.823   5.845 -0.4032  0.3354 -0.1048
  673MOL0     C92738   6.272   3.790   5.839  0.5070 -0.6768 -0.4632
  673MOL0     O92739   6.170   3.872   5.789 -0.2499 -0.2356  0.5231
  673MOL0     C92740   6.217   3.990   5.725 -0.5882  0.2877 -0.4898
  673MOL0     C92741   6.302   4.086   5.783  0.2031 -0.2617 -0.1567
  673MOL0     C92742   6.336   4.205   5.709  0.1644  0.6446 -0.3130
  673MOL0     C92743   6.273   4.237   5.586  0.7907  0.1935 -1.0213
  673MOL0     O92744   6.324   4.345   5.507  0.0440 -0.0820  0.1194
  673MOL0     C92745   6.348   4.466   5.576 -0.3786 -0.1706  0.4779
  673MOL0     C92746   6.424   4.554   5.473  0.3037  0.1568 -0.5926
  673MOL0     C92747   6.332   4.628   5.387  0.4101 -0.0612 -0.9056
  673MOL0     C92748   6.400   4.676   5.264 -0.2235  0.6321 -0.7741
  673MOL0     C92749   6.294   4.757   5.186  0.4658 -0.4617 -0.5250
  673MOL0     C92750   6.341   4.819   5.057 -0.1477 -0.4457 -0.4236
  673MOL0     C92751   6.232   4.903   4.983 -0.9744 -0.1217 -0.8726
  673MOL0     C92752   6.171   5.023   5.059  0.0246 -0.1025 -0.5884
  673MOL0     N92753   6.262   5.131   5.090  0.1333  0.1758 -0.1782
  673MOL0     C92754   6.293   5.229   5.000 -0.4793  0.0964 -0.1736
  673MOL0     C92755   6.374   5.314   5.068 -0.4652 -0.4385  0.8792
  673MOL0     C92756   6.436   5.437   5.011 -0.4983  1.3275 -0.1048
  673MOL0     C92757   6.358   5.565   5.040 -0.0551 -0.1704  0.8607
  673MOL0     C92758   6.363   5.667   4.927 -0.2878 -1.0776 -0.2022
  673MOL0     C92759   6.387   5.808   4.987 -0.6855  0.7550  0.5412
  673MOL0     O92760   6.465   5.877   4.892  0.2679 -1.0237  0.4271
  673MOL0     C92761   6.480   6.015   4.904  0.3191  0.1592  0.1452
  673MOL0     C92762   6.554   6.076   4.800  0.3129  0.0630  0.4231
  673MOL0     C92763   6.558   6.217   4.788 -0.1820 -0.2014 -0.2796
  673MOL0     C92764   6.634   6.279   4.665  0.3686 -1.3812  0.7416
  673MOL0     C92765   6.496   6.298   4.882  0.4668 -0.0229  0.4882
  673MOL0     C92766   6.492   6.446   4.876  0.4412  0.1579 -0.6863
  673MOL0     O92767   6.376   6.507   4.929  0.9790 -0.5931  0.6789
  673MOL0     C92768   6.365   6.638   4.940 -0.0479 -0.8214  0.2025
  673MOL0     C92769   6.443   6.710   5.026 -0.5321  0.1114 -0.2295
  673MOL0     C92770   6.445   6.851   5.031  1.4220  0.3465 -0.8288
  673MOL0     C92771   6.360   6.916   4.949  1.5468  0.8747  0.1007
  673MOL0     O92772   6.373   7.046   4.935  0.2555  0.6483 -0.2488
  673MOL0     C92773   6.502   7.117   4.931 -0.1322  1.4441 -0.2619
  673MOL0     C92774   6.586   7.062   4.821 -0.6118  0.4559  0.2110
  673MOL0     C92775   6.714   7.151   4.808  0.6791  0.2113 -0.0469
  673MOL0     C92776   6.822   7.091   4.720  0.6800  0.1141 -0.0621
  673MOL0     C92777   6.947   7.173   4.711 -0.0671  0.1304 -0.5836
  673MOL0     C92778   6.929   7.309   4.653  0.6820 -0.4181  0.0075
  673MOL0     C92779   6.956   7.332   4.504 -1.2537 -0.2645 -0.3394
  673MOL0     C92780   6.834   7.333   4.419  0.2750  0.2260 -0.0975
  673MOL0    Cl92781   6.808   7.163   4.354  0.3803 -0.0881  0.1661
  673MOL0     C92782   6.262   6.850   4.870 -0.0356  0.1882 -0.9395
  673MOL0     C92783   6.263   6.711   4.867 -0.1918  0.3873 -0.2383
  673MOL0     O92784   6.593   6.509   4.836 -0.8294 -0.5114  0.2242
  673MOL0     C92785   6.439   6.242   4.995 -0.5020  0.3227 -0.1729
  673MOL0     C92786   6.421   6.100   5.001 -1.1306  0.0376 -0.5859
  673MOL0     N92787   6.397   5.262   5.193  0.5892  0.7820 -0.1643
  673MOL0     N92788   6.326   5.153   5.209  0.1681  0.3493 -0.5001
  673MOL0     C92789   6.181   4.145   5.535  0.4559  0.4280 -1.0599
  673MOL0     C92790   6.164   4.019   5.598 -0.2009  0.8560  0.2990
  673MOL0     C92791   6.227   3.671   5.900 -0.7054 -0.3113 -0.1230
  673MOL0     C92792   6.094   3.635   5.887  0.0078  0.8012  0.0370
  673MOL0     C92793   6.045   3.507   5.923 -0.2183  0.0131  1.2241
  673MOL0     C92794   6.122   3.416   5.998  0.2852 -0.2081  0.6343
  673MOL0     O92795   6.089   3.286   6.044 -0.0017  0.4326  0.1825
  673MOL0     C92796   5.971   3.225   5.995 -0.1717 -0.6966  0.2064
  673MOL0     C92797   5.964   3.074   6.020 -0.2962  0.5694  0.0523
  673MOL0     C92798   6.025   3.028   6.154  0.1469  0.1798  0.3793
  673MOL0     C92799   5.954   3.082   6.275  0.9206  0.0232 -0.6064
  673MOL0     C92800   6.004   3.025   6.405  0.1367 -1.1104  0.5320
  673MOL0     C92801   6.056   2.954   6.486 -0.4367  0.4784  0.0489
  673MOL0     C92802   6.259   3.451   6.013  0.3123  0.1290  0.2923
  673MOL0     C92803   6.308   3.573   5.965  0.4826 -0.5030 -0.5270
  673MOL0     C92804   6.458   3.600   6.003  0.5224 -0.5602 -0.5728
  673MOL0     H92805   6.338   4.050   5.879  0.1379 -1.3940 -0.5339
  673MOL0     H92806   6.425   4.256   5.746  1.2691 -0.6554 -1.1031
  673MOL0     H92807   6.411   4.468   5.665  0.9257  0.9672 -0.4355
  673MOL0     H92808   6.254   4.511   5.612 -0.6533 -0.5240  0.2088
  673MOL0     H92809   6.484   4.630   5.525  1.0717 -0.7077 -0.1878
  673MOL0     H92810   6.499   4.496   5.418  1.1204  1.3232 -0.7680
  673MOL0     H92811   6.256   4.555   5.357 -0.1087 -0.1881  0.6382
  673MOL0     H92812   6.289   4.707   5.449 -0.8511  0.4029 -2.2860
  673MOL0     H92813   6.489   4.731   5.298  0.0364 -0.4668  0.4192
  673MOL0     H92814   6.437   4.591   5.207 -0.7810 -1.7636  2.1938
  673MOL0     H92815   6.256   4.830   5.258  1.8548  2.7284 -2.7240
  673MOL0     H92816   6.207   4.698   5.157  1.5956 -0.4282 -4.6163
  673MOL0     H92817   6.425   4.885   5.081  0.4875 -1.0499 -0.9355
  673MOL0     H92818   6.367   4.743   4.983 -1.8774  0.0920 -1.6632
  673MOL0     H92819   6.150   4.837   4.951 -0.8588  0.4109 -2.3345
  673MOL0     H92820   6.288   4.953   4.904  2.2020 -2.3474 -0.1788
  673MOL0     H92821   6.077   5.049   5.011 -0.0123  2.1056  0.5787
  673MOL0     H92822   6.138   4.998   5.160  1.5175 -0.0251 -0.0447
  673MOL0     H92823   6.257   5.247   4.900 -0.0394  1.1919 -0.1516
  673MOL0     H92824   6.440   5.415   4.904 -0.9661 -1.2248  0.3319
  673MOL0     H92825   6.542   5.446   5.035 -0.1094 -0.9798 -0.7240
  673MOL0     H92826   6.258   5.522   5.055  0.9626 -3.3301 -0.3910
  673MOL0     H92827   6.412   5.596   5.129 -1.3136 -1.8532  2.2789
  673MOL0     H92828   6.440   5.632   4.858 -1.2922 -0.5475 -1.6330
  673MOL0     H92829   6.270   5.666   4.869 -1.8860 -6.2369  1.8206
  673MOL0     H92830   6.286   5.850   5.000 -1.2922 -0.0742 -1.2153
  673MOL0     H92831   6.441   5.807   5.082  2.9528  2.4271 -1.2904
  673MOL0     H92832   6.599   6.015   4.723 -1.8472 -0.3278 -0.5887
  673MOL0     H92833   6.729   6.317   4.704 -1.2430  0.6560  3.0118
  673MOL0     H92834   6.586   6.365   4.618  0.7791 -1.0975  0.8371
  673MOL0     H92835   6.670   6.208   4.590  0.7132 -0.6036  0.1595
  673MOL0     H92836   6.515   6.642   5.071 -1.9502  0.6658  3.1323
  673MOL0     H92837   6.523   6.902   5.085  1.4175  0.2992 -0.7779
  673MOL0     H92838   6.494   7.226   4.922  0.5768  1.3959 -1.8454
  673MOL0     H92839   6.557   7.105   5.025 -0.1972  1.1621 -0.2580
  673MOL0     H92840   6.628   6.969   4.860 -0.0744  0.6490  0.0937
  673MOL0     H92841   6.523   7.043   4.734 -0.4422  1.9558 -0.2654
  673MOL0     H92842   6.765   7.180   4.900  0.2835 -4.4331  1.9316
  673MOL0     H92843   6.675   7.245   4.770 -1.6881 -0.2720  1.0493
  673MOL0     H92844   6.773   7.070   4.624 -2.1905  0.9737  1.1204
  673MOL0     H92845   6.848   6.993   4.759  1.2924 -0.7102 -2.3391
  673MOL0     H92846   6.986   7.183   4.813  0.3426  0.6187 -0.7805
  673MOL0     H92847   7.025   7.120   4.654 -0.3674 -1.0020  0.0270
  673MOL0     H92848   7.000   7.372   4.706  0.7803  0.6124 -1.3100
  673MOL0     H92849   6.832   7.353   4.679  1.2375  1.4513 -0.9259
  673MOL0     H92850   7.034   7.266   4.465 -0.3327  0.3394  0.4233
  673MOL0     H92851   6.998   7.432   4.495  0.4033 -0.8455  0.4263
  673MOL0     H92852   6.851   7.388   4.326  2.1525 -1.3616 -0.7583
  673MOL0     H92853   6.753   7.374   4.480  1.4861  0.5700  1.3196
  673MOL0     H92854   6.199   6.911   4.806 -1.3071 -0.3226 -0.2241
  673MOL0     H92855   6.193   6.658   4.804 -1.9838 -2.1366  3.4782
  673MOL0     H92856   6.388   6.307   5.066 -2.4992 -1.9056  0.5707
  673MOL0     H92857   6.346   6.056   5.066 -2.4527  2.6519 -0.2114
  673MOL0     H92858   6.130   4.166   5.441  0.6752  1.8032 -0.8822
  673MOL0     H92859   6.097   3.946   5.553 -1.8704  2.2415  0.4069
  673MOL0     H92860   6.015   3.688   5.835  1.2337  0.6133 -2.1918
  673MOL0     H92861   5.940   3.484   5.904 -1.0139  4.3680 -0.6293
  673MOL0     H92862   5.886   3.274   6.042 -0.9838 -0.3240 -1.5619
  673MOL0     H92863   5.969   3.242   5.887 -0.5888  0.6205  0.4035
  673MOL0     H92864   5.999   3.019   5.933 -1.8669  1.0141 -0.9011
  673MOL0     H92865   5.860   3.040   6.020 -0.7612  1.6132 -3.2969
  673MOL0     H92866   6.025   2.919   6.157 -0.7706 -0.0087 -2.6865
  673MOL0     H92867   6.129   3.057   6.167  0.5267 -0.9083 -0.1306
  673MOL0     H92868   5.849   3.052   6.267  0.9805 -0.3301 -0.1069
  673MOL0     H92869   5.980   3.188   6.270 -0.1939  0.2809 -1.3565
  673MOL0     H92870   6.112   2.891   6.553  1.7397  2.4177  0.1745
  673MOL0     H92871   6.322   3.382   6.068  0.7412  0.1446 -0.1731
  673MOL0     H92872   6.491   3.501   6.036  1.2325 -0.6969 -1.6459
  673MOL0     H92873   6.527   3.620   5.920  2.5738  2.7787  1.7019
  673MOL0     H92874   6.467   3.673   6.083 -1.2513 -2.0008  1.0230
  674MOL0     O92875   8.495  10.361   4.349  0.0966 -1.0046 -0.1438
  674MOL0     C92876   8.535  10.400   4.239  1.2853 -0.3684 -0.9007
  674MOL0     O92877   8.477  10.489   4.157  0.6585  0.5615 -0.4545
  674MOL0     C92878   8.361  10.557   4.194 -0.0428  0.0907  0.4044
  674MOL0     C92879   8.357  10.688   4.161 -0.2630 -0.0735 -0.4911
  674MOL0     C92880   8.252  10.770   4.166 -0.3256  0.2902  0.0159
  674MOL0     C92881   8.123  10.723   4.214  0.9927  0.0042 -0.1601
  674MOL0     O92882   8.020  10.814   4.243 -1.0079  0.8457 -0.3614
  674MOL0     C92883   8.018  10.931   4.162  0.1407 -0.4150 -0.8608
  674MOL0     C92884   7.878  11.001   4.151  0.1167  0.1673 -0.1687
  674MOL0     C92885   7.818  11.046   4.281  0.0780  1.0172  0.0219
  674MOL0     C92886   7.672  11.069   4.264 -0.3863  0.3395  0.7529
  674MOL0     C92887   7.592  11.131   4.382 -0.8030 -0.2070  0.1886
  674MOL0     C92888   7.652  11.264   4.434 -0.4921  1.1907 -0.5720
  674MOL0     C92889   7.581  11.326   4.551  0.0062 -0.8703 -0.6364
  674MOL0     C92890   7.660  11.454   4.582  0.0885  0.3943 -0.6174
  674MOL0     N92891   7.671  11.549   4.468  0.3994 -0.2329 -1.3215
  674MOL0     C92892   7.570  11.588   4.387 -0.9157 -0.4261  0.2013
  674MOL0     C92893   7.618  11.636   4.271 -0.2742 -0.2313 -1.1410
  674MOL0     C92894   7.544  11.659   4.147 -0.6996  0.5680 -0.3830
  674MOL0     C92895   7.562  11.561   4.031 -0.1485  0.3492 -0.5508
  674MOL0     C92896   7.493  11.429   4.051 -0.0458  0.3632  0.2295
  674MOL0     C92897   7.557  11.335   3.952  0.1753  0.0767 -0.4166
  674MOL0     O92898   7.478  11.217   3.921 -1.0858  0.0573 -0.2621
  674MOL0     C92899   7.528  11.116   3.843  0.7456 -0.3505  0.7952
  674MOL0     C92900   7.660  11.119   3.789  0.4587 -0.4480 -0.5070
  674MOL0     C92901   7.721  11.019   3.726  0.0191  0.4197 -0.0163
  674MOL0     C92902   7.859  11.049   3.667 -0.2053 -0.8356  0.8900
  674MOL0     C92903   7.644  10.901   3.698  0.1461 -0.4761  0.7162
  674MOL0     C92904   7.697  10.778   3.641 -0.1117  0.7829  1.4991
  674MOL0     O92905   7.606  10.692   3.594 -0.1394  0.0954  0.1925
  674MOL0     C92906   7.652  10.560   3.574  0.3515 -0.9514 -0.2514
  674MOL0     C92907   7.615  10.496   3.463  0.0151 -0.6210  0.1689
  674MOL0     C92908   7.661  10.374   3.429 -0.2487 -0.2124  0.5886
  674MOL0     C92909   7.750  10.303   3.520  0.0321  0.4097  0.0277
  674MOL0     O92910   7.788  10.173   3.495  0.3090 -0.3496  0.1916
  674MOL0     C92911   7.778  10.087   3.606 -0.9968  1.0238  1.0628
  674MOL0     C92912   7.908  10.023   3.640 -0.4889 -0.2264  0.7612
  674MOL0     C92913   7.902   9.896   3.719 -0.5338 -0.1834 -0.2825
  674MOL0     C92914   8.045   9.837   3.723 -0.8760  0.0904 -0.1971
  674MOL0     C92915   8.039   9.697   3.793 -0.1825 -0.4610 -0.2798
  674MOL0     C92916   7.942   9.692   3.913  0.1769 -0.8061 -0.2824
  674MOL0     C92917   7.960   9.552   3.979  0.0510 -0.8374 -0.4615
  674MOL0     C92918   7.864   9.539   4.102 -0.2246 -0.3259  0.0212
  674MOL0    Cl92919   7.702   9.487   4.050  0.5813 -0.2950  0.2385
  674MOL0     C92920   7.789  10.369   3.637  1.2148 -0.4854 -0.7988
  674MOL0     C92921   7.740  10.492   3.664 -1.2347  0.2816 -1.0693
  674MOL0     O92922   7.818  10.754   3.640  0.1306  0.7333 -0.7307
  674MOL0     C92923   7.513  10.893   3.756 -0.0749 -0.2595  0.6574
  674MOL0     C92924   7.459  10.998   3.829  0.1207 -0.6183 -0.7424
  674MOL0     N92925   7.754  11.618   4.287 -0.0990  1.1057 -0.5579
  674MOL0     N92926   7.785  11.563   4.399 -0.4404 -0.3127  0.9992
  674MOL0     C92927   8.115  10.587   4.242  0.7756 -0.1920 -0.7536
  674MOL0     C92928   8.229  10.506   4.232 -0.1847 -0.1643  0.4526
  674MOL0     C92929   8.646  10.320   4.181 -0.5605  0.3551  0.5685
  674MOL0     C92930   8.651  10.307   4.036 -0.1573  0.3496 -0.5706
  674MOL0     C92931   8.745  10.218   3.982  0.3777 -0.4352 -0.1634
  674MOL0     C92932   8.839  10.148   4.049  0.5466 -0.8312 -0.0978
  674MOL0     O92933   8.937  10.089   3.970 -0.4340  0.4419  0.1554
  674MOL0     C92934   9.035  10.001   4.028  0.2795  0.3153 -0.0540
  674MOL0     C92935   8.971   9.867   4.060  0.4031 -0.0805  0.1827
  674MOL0     C92936   8.870   9.861   4.177 -0.0973  0.2414  0.0813
  674MOL0     C92937   8.825   9.716   4.195  0.3333 -0.9656  0.8583
  674MOL0     C92938   8.748   9.662   4.091  0.5027 -0.2845  0.3469
  674MOL0     C92939   8.681   9.608   4.007 -0.3923  0.8215 -1.4042
  674MOL0     C92940   8.845  10.172   4.191 -0.1207  0.2925 -0.0391
  674MOL0     C92941   8.750  10.247   4.262 -1.2368  0.0208  0.3554
  674MOL0     C92942   8.759  10.244   4.411  0.2857 -0.9353 -0.5612
  674MOL0     H92943   8.457  10.721   4.133  0.9239 -2.8478  0.1134
  674MOL0     H92944   8.268  10.874   4.139  1.6308  0.3814  1.3210
  674MOL0     H92945   8.039  10.919   4.055 -2.6996  2.5163 -1.9265
  674MOL0     H92946   8.082  11.008   4.205 -1.5634  1.8324 -2.1511
  674MOL0     H92947   7.877  11.084   4.080  1.0129 -0.1988 -0.6382
  674MOL0     H92948   7.811  10.925   4.109  1.3738 -0.9522 -0.2287
  674MOL0     H92949   7.850  10.982   4.365  1.3662  2.4506  0.6766
  674MOL0     H92950   7.864  11.144   4.299 -0.9996  1.0606  3.1581
  674MOL0     H92951   7.657  11.142   4.184 -0.7478  1.0215  1.4275
  674MOL0     H92952   7.625  10.977   4.230 -2.9881  2.5727 -2.3917
  674MOL0     H92953   7.600  11.057   4.462  1.8653 -0.0743  0.1399
  674MOL0     H92954   7.491  11.134   4.338  0.6255  2.1103 -3.4320
  674MOL0     H92955   7.755  11.248   4.463 -0.3425  0.7174 -1.3310
  674MOL0     H92956   7.640  11.326   4.344  0.7247  2.5004  0.1190
  674MOL0     H92957   7.566  11.260   4.637  2.0585 -3.4370 -2.0958
  674MOL0     H92958   7.485  11.361   4.513 -0.5747 -2.9183 -1.1593
  674MOL0     H92959   7.605  11.513   4.656  1.0281  1.2479 -0.5783
  674MOL0     H92960   7.755  11.423   4.625  0.2325  0.6510 -0.7506
  674MOL0     H92961   7.463  11.578   4.404 -1.1740 -1.7392 -1.7880
  674MOL0     H92962   7.582  11.750   4.099  0.6339  0.8996  1.2204
  674MOL0     H92963   7.436  11.664   4.165 -0.1211 -0.1203  4.3870
  674MOL0     H92964   7.512  11.604   3.943 -2.0260  0.2751  0.4351
  674MOL0     H92965   7.667  11.535   4.012 -0.9767 -3.1197 -0.8761
  674MOL0     H92966   7.490  11.393   4.154 -0.5747  1.2074  0.5199
  674MOL0     H92967   7.391  11.441   4.013  0.9081 -1.0683 -3.1475
  674MOL0     H92968   7.599  11.382   3.863  1.9391 -1.2932 -0.3663
  674MOL0     H92969   7.646  11.300   4.005 -1.5155 -1.5965  1.5250
  674MOL0     H92970   7.710  11.215   3.798 -0.9503  0.1725  1.1481
  674MOL0     H92971   7.932  11.037   3.748  0.2867  2.8180  1.1683
  674MOL0     H92972   7.865  11.153   3.634  2.4848 -1.1297  0.1653
  674MOL0     H92973   7.891  10.981   3.588  4.9710  0.9167  1.0871
  674MOL0     H92974   7.560  10.544   3.382 -1.6647 -0.7118  1.2044
  674MOL0     H92975   7.641  10.342   3.327  2.0766  1.9637 -0.6594
  674MOL0     H92976   7.749  10.134   3.701  0.6858  1.6653  1.2913
  674MOL0     H92977   7.707  10.007   3.581  1.0881 -0.1981 -1.4435
  674MOL0     H92978   7.955  10.003   3.543 -1.0738  0.0765  0.4140
  674MOL0     H92979   7.972  10.096   3.691 -0.1148  2.1661 -2.7716
  674MOL0     H92980   7.834   9.828   3.666 -1.2947  1.5801 -1.6879
  674MOL0     H92981   7.870   9.910   3.822  3.1302  0.6976  0.8916
  674MOL0     H92982   8.099   9.907   3.788  1.1063 -0.7424 -0.8613
  674MOL0     H92983   8.103   9.830   3.631  0.3374  0.2697  0.5276
  674MOL0     H92984   7.998   9.620   3.727 -1.2198  0.3383 -0.5980
  674MOL0     H92985   8.139   9.672   3.830 -0.1190 -0.8114 -0.6765
  674MOL0     H92986   7.835   9.700   3.892  0.6293  3.3313 -1.7804
  674MOL0     H92987   7.959   9.776   3.981 -0.0587  0.2843 -1.5357
  674MOL0     H92988   8.061   9.561   4.018 -1.0154 -0.3362  2.4712
  674MOL0     H92989   7.942   9.474   3.904 -0.1709 -2.0951  0.8615
  674MOL0     H92990   7.865   9.631   4.161 -0.9814  0.7365 -1.5616
  674MOL0     H92991   7.900   9.446   4.147  0.2381 -0.8786 -1.4158
  674MOL0     H92992   7.865  10.334   3.707 -0.5293 -0.5184  1.1453
  674MOL0     H92993   7.775  10.533   3.759 -1.5663 -2.0585  0.1435
  674MOL0     H92994   7.477  10.791   3.755  2.3194 -1.1528  0.4913
  674MOL0     H92995   7.369  10.978   3.886  0.1429 -2.3472 -1.2724
  674MOL0     H92996   8.026  10.542   4.284 -0.1149  0.3834 -1.9750
  674MOL0     H92997   8.221  10.402   4.262  1.7521 -0.4599  0.0309
  674MOL0     H92998   8.594  10.378   3.977  0.9399  2.4481  0.7665
  674MOL0     H92999   8.747  10.215   3.873 -0.6567  3.9764 -0.4967
  674MOL0     H93000   9.115   9.980   3.957  0.1898 -0.6462  0.1237
  674MOL0     H93001   9.079  10.038   4.121 -0.3153 -0.5358  0.5794
  674MOL0     H93002   9.052   9.794   4.065  1.2509  0.9184  1.9637
  674MOL0     H93003   8.918   9.845   3.967  0.1893 -1.9511  0.6938
  674MOL0     H93004   8.917   9.897   4.268  1.4311  0.5427 -0.8033
  674MOL0     H93005   8.783   9.927   4.167 -3.3592 -3.3900  1.6130
  674MOL0     H93006   8.779   9.710   4.294  2.9576  2.6365  2.5402
  674MOL0     H93007   8.904   9.641   4.209  0.0130 -1.6650 -0.8545
  674MOL0     H93008   8.624   9.566   3.927 -2.1582 -0.9306  0.6272
  674MOL0     H93009   8.931  10.129   4.242 -1.1088  2.9015  4.3505
  674MOL0     H93010   8.756  10.345   4.453 -1.3426 -0.8420 -0.8368
  674MOL0     H93011   8.691  10.183   4.470  0.7995 -0.4202  0.5988
  674MOL0     H93012   8.847  10.189   4.447  0.0088 -2.8211 -2.5087
  675MOL0     O93013   5.746   8.270   4.607 -0.6142  0.0388 -0.1231
  675MOL0     C93014   5.769   8.379   4.655 -0.4493 -0.0957 -0.0142
  675MOL0     O93015   5.879   8.412   4.725  0.5191  0.2113  0.4082
  675MOL0     C93016   5.944   8.325   4.809  0.2741 -0.3568  0.2222
  675MOL0     C93017   5.944   8.185   4.813  0.3846  1.1247  0.4437
  675MOL0     C93018   6.017   8.115   4.908 -0.5826 -0.5263 -0.5570
  675MOL0     C93019   6.091   8.181   5.002  0.4661 -1.1666 -0.2454
  675MOL0     O93020   6.154   8.111   5.096 -0.0864 -0.1143  0.0062
  675MOL0     C93021   6.129   8.146   5.232 -0.2109  0.0673 -0.1152
  675MOL0     C93022   6.160   8.027   5.328  0.3930 -0.9000  0.4989
  675MOL0     C93023   6.298   7.965   5.319  0.3358 -0.0418 -0.6110
  675MOL0     C93024   6.309   7.851   5.411 -0.2212  0.6359 -0.8367
  675MOL0     C93025   6.436   7.766   5.391 -0.3785 -0.3928 -0.2679
  675MOL0     C93026   6.564   7.846   5.415  0.2093 -0.0442  0.3769
  675MOL0     C93027   6.606   7.893   5.560 -0.5819 -0.2791 -0.0994
  675MOL0     C93028   6.620   7.777   5.662  0.1020 -0.3357 -0.1871
  675MOL0     N93029   6.750   7.705   5.650 -0.1094  0.5860 -0.4288
  675MOL0     C93030   6.798   7.629   5.751  0.2257  0.0929 -0.2859
  675MOL0     C93031   6.912   7.581   5.702  0.7264  0.2706  0.4920
  675MOL0     C93032   7.001   7.479   5.782  0.7510 -0.2513  0.3346
  675MOL0     C93033   7.098   7.551   5.874  0.0209  0.3473  0.1521
  675MOL0     C93034   7.245   7.533   5.845 -0.3605 -0.0162  0.6630
  675MOL0     C93035   7.290   7.640   5.748 -0.0524  0.3235  0.0968
  675MOL0     O93036   7.421   7.615   5.699  0.3915 -0.1633 -0.6229
  675MOL0     C93037   7.432   7.676   5.574 -0.1985  0.1846  0.1093
  675MOL0     C93038   7.528   7.777   5.562  0.8519 -0.1041  0.2823
  675MOL0     C93039   7.541   7.849   5.439  0.2507  0.2046 -0.8577
  675MOL0     C93040   7.634   7.970   5.458  0.0594 -0.6300  0.2010
  675MOL0     C93041   7.464   7.821   5.330 -0.3753  0.1445 -0.5014
  675MOL0     C93042   7.487   7.895   5.198  0.5294 -0.3956 -0.2768
  675MOL0     O93043   7.510   7.803   5.097  0.5731 -0.3937  0.1500
  675MOL0     C93044   7.527   7.837   4.965  0.4422  0.6472 -0.6078
  675MOL0     C93045   7.619   7.762   4.886  0.6792 -0.0422  0.0037
  675MOL0     C93046   7.662   7.813   4.764 -1.0261  0.3926 -0.4387
  675MOL0     C93047   7.593   7.923   4.705 -0.3944 -0.2635  0.7654
  675MOL0     O93048   7.608   7.968   4.571 -0.0145 -0.3595  0.2693
  675MOL0     C93049   7.720   8.063   4.554 -0.3215 -0.0397  0.1951
  675MOL0     C93050   7.758   8.064   4.412 -0.0983  0.3600 -0.5414
  675MOL0     C93051   7.867   8.165   4.362  0.5345  0.1331 -0.1259
  675MOL0     C93052   7.810   8.303   4.356  0.4845  0.0086  0.1109
  675MOL0     C93053   7.724   8.335   4.234  0.7073 -0.3023  0.0338
  675MOL0     C93054   7.802   8.390   4.115 -0.4959  0.1613  0.2103
  675MOL0     C93055   7.773   8.305   3.996  0.3149 -0.1337  0.2429
  675MOL0     C93056   7.828   8.372   3.871 -0.7935 -0.9633  0.0152
  675MOL0    Cl93057   7.714   8.512   3.843 -0.1276  0.4095  0.0406
  675MOL0     C93058   7.494   7.982   4.775  0.7239 -0.1388 -0.4348
  675MOL0     C93059   7.457   7.936   4.899 -0.0922  0.2431  0.5947
  675MOL0     O93060   7.493   8.016   5.184  0.0276  0.6926  0.5544
  675MOL0     C93061   7.373   7.711   5.339 -0.2603  0.7975  0.6030
  675MOL0     C93062   7.353   7.652   5.465  0.6763  1.1287  0.2185
  675MOL0     N93063   6.951   7.646   5.578 -1.1021  0.7446 -0.3387
  675MOL0     N93064   6.846   7.720   5.553  0.0673  0.1685 -0.2179
  675MOL0     C93065   6.098   8.323   4.996  0.1844  0.4548  0.5420
  675MOL0     C93066   6.032   8.393   4.891 -0.7327 -0.0823 -0.1159
  675MOL0     C93067   5.660   8.488   4.653  0.8380  0.5123  0.5114
  675MOL0     C93068   5.669   8.596   4.744 -0.5012  0.0023 -0.1127
  675MOL0     C93069   5.592   8.711   4.738 -0.2678 -0.0292  0.0072
  675MOL0     C93070   5.479   8.710   4.658  0.3795  0.8263  0.9407
  675MOL0     O93071   5.396   8.819   4.652  0.9813 -0.2299 -0.3169
  675MOL0     C93072   5.445   8.953   4.639  0.1305  0.0449  0.6893
  675MOL0     C93073   5.334   9.047   4.591 -0.1368  0.0666 -1.2153
  675MOL0     C93074   5.387   9.192   4.596  0.3854 -0.1867  0.1812
  675MOL0     C93075   5.295   9.296   4.529 -0.5066  0.1133 -0.4300
  675MOL0     C93076   5.265   9.249   4.394 -0.4796 -0.3274 -0.3916
  675MOL0     C93077   5.234   9.198   4.293 -0.0668  0.0353  0.6341
  675MOL0     C93078   5.459   8.591   4.575 -0.4227  0.0416  0.0171
  675MOL0     C93079   5.549   8.486   4.561  0.3464  0.8269 -0.0273
  675MOL0     C93080   5.509   8.369   4.463  0.7605 -0.1016  0.1488
  675MOL0     H93081   5.875   8.125   4.755  1.4641  0.6152 -0.3335
  675MOL0     H93082   6.011   8.007   4.919 -2.7556 -0.2436  1.9975
  675MOL0     H93083   6.038   8.201   5.258  1.0469  1.6615  1.1803
  675MOL0     H93084   6.211   8.218   5.245  0.5509 -0.4865 -1.7138
  675MOL0     H93085   6.150   8.062   5.431 -1.6949  0.9285 -0.2442
  675MOL0     H93086   6.096   7.941   5.307  0.7144 -1.2027  0.7383
  675MOL0     H93087   6.300   7.921   5.219 -0.4071 -0.3448 -0.4983
  675MOL0     H93088   6.380   8.037   5.325 -0.3367  0.7085 -0.2256
  675MOL0     H93089   6.305   7.882   5.516  1.8289 -1.2463 -0.1260
  675MOL0     H93090   6.232   7.774   5.409  3.5680 -3.6429  0.5516
  675MOL0     H93091   6.427   7.736   5.286 -3.2937  0.9735 -0.5003
  675MOL0     H93092   6.426   7.680   5.458  0.2200  0.7495  1.3374
  675MOL0     H93093   6.639   7.771   5.387 -0.6647 -1.1892  1.0198
  675MOL0     H93094   6.571   7.927   5.342  0.2127 -0.6154 -0.2577
  675MOL0     H93095   6.529   7.960   5.597 -1.1580 -1.7712  1.5557
  675MOL0     H93096   6.705   7.939   5.562  0.4675 -2.3549  2.3173
  675MOL0     H93097   6.596   7.813   5.762  1.1892 -0.2516  0.0559
  675MOL0     H93098   6.546   7.699   5.638  1.3619 -1.7143  0.2286
  675MOL0     H93099   6.761   7.599   5.848  2.3110 -0.5743  0.3515
  675MOL0     H93100   7.057   7.428   5.704  1.2672  1.0019 -0.1257
  675MOL0     H93101   6.941   7.408   5.840 -1.7969  0.6565 -1.0284
  675MOL0     H93102   7.094   7.658   5.896 -3.3382  0.1052  1.3510
  675MOL0     H93103   7.080   7.500   5.969 -2.4250  0.6222 -0.0941
  675MOL0     H93104   7.304   7.542   5.936  2.1046  1.9454 -0.9795
  675MOL0     H93105   7.267   7.436   5.800  1.4617 -0.1677  1.7975
  675MOL0     H93106   7.213   7.643   5.671 -0.9690  3.1652  1.0003
  675MOL0     H93107   7.308   7.737   5.795  1.7838 -1.2357  2.8897
  675MOL0     H93108   7.602   7.785   5.641  0.8135  3.0042  0.1049
  675MOL0     H93109   7.612   8.009   5.558  0.7321 -2.6613  1.1889
  675MOL0     H93110   7.619   8.049   5.384 -0.1350  0.4892  1.3981
  675MOL0     H93111   7.737   7.938   5.438  0.9244  3.4137 -3.2170
  675MOL0     H93112   7.694   7.692   4.921  2.0661  2.3140  2.0300
  675MOL0     H93113   7.747   7.759   4.723 -1.9881 -1.3845 -0.1860
  675MOL0     H93114   7.688   8.166   4.570  0.6431  0.1771  0.8494
  675MOL0     H93115   7.803   8.037   4.620  0.9101  0.0972 -1.2419
  675MOL0     H93116   7.782   7.958   4.397 -2.2617 -0.0201 -1.8787
  675MOL0     H93117   7.668   8.076   4.351  0.8640  3.6025 -1.4743
  675MOL0     H93118   7.911   8.121   4.272 -1.4215 -2.8182  0.1983
  675MOL0     H93119   7.944   8.157   4.439  2.2470 -1.5435 -1.8809
  675MOL0     H93120   7.888   8.377   4.372  1.1025 -0.9832  2.0376
  675MOL0     H93121   7.744   8.317   4.442 -0.0742 -0.8742 -0.1569
  675MOL0     H93122   7.689   8.235   4.207 -0.0966 -0.2630  0.8643
  675MOL0     H93123   7.630   8.392   4.239  0.7120 -0.1419 -1.3758
  675MOL0     H93124   7.909   8.398   4.135 -0.0963  1.8522 -2.1859
  675MOL0     H93125   7.773   8.493   4.092 -1.3119  0.2049  1.3287
  675MOL0     H93126   7.666   8.296   3.973  1.1537 -2.6543 -3.9255
  675MOL0     H93127   7.792   8.198   4.011 -1.6272 -0.5119  0.2973
  675MOL0     H93128   7.829   8.308   3.783 -0.6303 -0.9236 -0.0127
  675MOL0     H93129   7.930   8.411   3.884 -0.0412 -1.1890 -3.9960
  675MOL0     H93130   7.453   8.071   4.729 -1.4161  0.6101  2.6082
  675MOL0     H93131   7.378   7.978   4.961 -0.1545  1.3505 -0.2143
  675MOL0     H93132   7.308   7.683   5.257 -0.2600  3.4019 -0.3834
  675MOL0     H93133   7.272   7.580   5.469  0.2855  1.3823 -2.0047
  675MOL0     H93134   6.172   8.368   5.061  1.3005  0.5765 -0.7615
  675MOL0     H93135   6.031   8.499   4.868  1.6218  0.3258  1.3299
  675MOL0     H93136   5.751   8.584   4.814 -0.5221 -2.3283 -0.3911
  675MOL0     H93137   5.603   8.785   4.816  0.0693  1.1080 -1.0818
  675MOL0     H93138   5.469   8.978   4.742  2.2962  0.3031  0.1664
  675MOL0     H93139   5.535   8.969   4.580  0.1949  1.9478  1.2330
  675MOL0     H93140   5.245   9.023   4.650  2.0058 -4.4980  0.7134
  675MOL0     H93141   5.314   9.008   4.491 -1.6311 -2.4248 -0.0467
  675MOL0     H93142   5.399   9.231   4.698  3.1782  1.5764 -0.7289
  675MOL0     H93143   5.490   9.195   4.562  0.9121  3.0877  1.6847
  675MOL0     H93144   5.340   9.396   4.541  0.6186 -0.1516 -2.0350
  675MOL0     H93145   5.196   9.289   4.575 -1.2650  0.0474 -1.9959
  675MOL0     H93146   5.213   9.165   4.193  2.1890  0.7753 -0.1626
  675MOL0     H93147   5.372   8.572   4.513 -2.0472 -2.0968  2.7633
  675MOL0     H93148   5.425   8.403   4.402 -1.1155  0.4297  2.8750
  675MOL0     H93149   5.590   8.340   4.394  0.2243 -0.1834 -0.4612
  675MOL0     H93150   5.470   8.278   4.509 -4.8849  0.5359 -2.5367
  676MOL0     O93151   0.489   4.640  10.982  0.8185  0.2475 -0.4586
  676MOL0     C93152   0.416   4.740  10.998  0.4318  0.6778 -0.4390
  676MOL0     O93153   0.452   4.861  11.055  0.1292  0.0134 -1.2851
  676MOL0     C93154   0.587   4.882  11.083 -0.0719 -0.0632  0.1840
  676MOL0     C93155   0.662   4.955  10.991 -0.1747  0.6854  0.6871
  676MOL0     C93156   0.798   4.990  11.015 -0.2425  0.7796  0.4236
  676MOL0     C93157   0.856   4.944  11.136 -0.0011 -0.6017 -0.2051
  676MOL0     O93158   0.987   4.979  11.154 -0.4372  0.2551 -0.3879
  676MOL0     C93159   1.060   4.885  11.234 -0.1379  0.0419 -0.1639
  676MOL0     C93160   1.203   4.871  11.178  0.3067  0.1307 -0.0900
  676MOL0     C93161   1.225   4.789  11.053  0.0342 -0.4942 -0.2259
  676MOL0     C93162   1.374   4.770  11.012  0.7145 -1.1557  0.1382
  676MOL0     C93163   1.399   4.746  10.861  0.1262  0.5542  0.0500
  676MOL0     C93164   1.546   4.747  10.845 -0.6268 -0.8128  0.0464
  676MOL0     C93165   1.587   4.893  10.812  0.3249 -0.1677 -0.2671
  676MOL0     C93166   1.733   4.897  10.777  0.0968  0.3692  0.3574
  676MOL0     N93167   1.837   4.812  10.860 -0.2287  0.1195  0.5219
  676MOL0     C93168   1.900   4.703  10.812  0.4597  0.1823 -0.1716
  676MOL0     C93169   1.962   4.662  10.929  0.2425  0.1214  0.5632
  676MOL0     C93170   2.051   4.549  10.948 -0.0709  0.0662  0.0965
  676MOL0     C93171   2.188   4.605  10.897 -0.5689  0.4433 -0.1435
  676MOL0     C93172   2.311   4.523  10.954  0.3719  0.5500 -0.0607
  676MOL0     C93173   2.427   4.542  10.864  0.4122 -0.9853 -0.4916
  676MOL0     O93174   2.426   4.689  10.854 -0.4711 -0.1540  0.2789
  676MOL0     C93175   2.535   4.745  10.783  1.3530 -0.3045 -1.0238
  676MOL0     C93176   2.605   4.679  10.675  0.4684 -0.0044  0.7829
  676MOL0     C93177   2.697   4.761  10.604 -0.5484 -0.4847 -0.0409
  676MOL0     C93178   2.766   4.702  10.480 -0.2232 -0.6610 -0.4121
  676MOL0     C93179   2.728   4.897  10.646 -0.6892 -0.6768 -0.6993
  676MOL0     C93180   2.835   4.981  10.576  0.4179 -0.4936 -0.7359
  676MOL0     O93181   2.877   5.078  10.661 -0.0806 -0.5356  0.1403
  676MOL0     C93182   2.977   5.154  10.604  1.0320 -0.0985  0.5570
  676MOL0     C93183   2.948   5.251  10.509 -0.9211  0.2604 -0.8864
  676MOL0     C93184   3.057   5.314  10.442 -0.1363 -0.2933 -0.4754
  676MOL0     C93185   3.184   5.252  10.446 -0.0582  0.0696  0.5179
  676MOL0     O93186   3.285   5.287  10.353 -0.9516 -0.3929  0.2311
  676MOL0     C93187   3.267   5.422  10.298 -1.7389  0.4258  0.5992
  676MOL0     C93188   3.409   5.479  10.281 -0.2216 -0.2629  0.2768
  676MOL0     C93189   3.456   5.531  10.414  0.3676  0.6554  0.5602
  676MOL0     C93190   3.602   5.567  10.435  0.0097 -0.9207  0.2398
  676MOL0     C93191   3.639   5.588  10.585 -1.6653  0.0335 -0.3264
  676MOL0     C93192   3.737   5.704  10.605 -0.0436 -0.4108 -0.2514
  676MOL0     C93193   3.802   5.718  10.741 -0.5205 -0.6753 -0.6257
  676MOL0     C93194   3.858   5.860  10.769  0.6277  0.2636 -0.2357
  676MOL0    Cl93195   3.974   5.892  10.653 -0.6422  0.0596 -0.4930
  676MOL0     C93196   3.210   5.166  10.557 -0.1403  0.2856  0.8091
  676MOL0     C93197   3.108   5.122  10.642  0.2528  0.4809  0.4139
  676MOL0     O93198   2.875   4.960  10.459  0.0614 -0.2835 -0.5853
  676MOL0     C93199   2.646   4.956  10.740 -0.2023 -0.3933 -0.7180
  676MOL0     C93200   2.558   4.879  10.812 -0.1740  1.3204 -0.1340
  676MOL0     N93201   1.936   4.743  11.039 -0.3830  0.0322 -0.3148
  676MOL0     N93202   1.863   4.843  10.991 -0.5950  0.9480  0.2350
  676MOL0     C93203   0.782   4.875  11.225  0.3722 -0.6668  0.0455
  676MOL0     C93204   0.645   4.834  11.200 -0.3230 -0.3295  1.2584
  676MOL0     C93205   0.270   4.723  10.979  0.3901  0.7842  1.0523
  676MOL0     C93206   0.231   4.596  10.921  0.3408  0.4202  0.4879
  676MOL0     C93207   0.096   4.567  10.888 -0.3659  0.3546  0.1121
  676MOL0     C93208  -0.007   4.660  10.923  0.2333 -0.0674  0.4887
  676MOL0     O93209  -0.146   4.642  10.913 -0.4137  0.1249 -0.0809
  676MOL0     C93210  -0.204   4.553  10.816 -0.4509 -0.5820  0.0504
  676MOL0     C93211  -0.353   4.581  10.803 -0.2543  0.1339 -0.3299
  676MOL0     C93212  -0.427   4.497  10.709  0.3192 -0.6416 -0.1648
  676MOL0     C93213  -0.548   4.558  10.642 -0.4294 -0.4230 -0.6532
  676MOL0     C93214  -0.670   4.544  10.713  0.1093 -0.7533 -0.0067
  676MOL0     C93215  -0.772   4.521  10.777  0.2722 -0.9204 -0.0809
  676MOL0     C93216   0.031   4.780  10.978 -0.1750 -0.6958  0.4823
  676MOL0     C93217   0.167   4.817  10.996 -0.4486  0.5129  0.0142
  676MOL0     C93218   0.195   4.955  11.057  0.8256  0.6981  1.2331
  676MOL0     H93219   0.607   4.994  10.906 -2.4569  1.1336  2.2711
  676MOL0     H93220   0.864   5.034  10.941 -3.2803  0.4476 -2.7273
  676MOL0     H93221   1.028   4.781  11.250  1.9116 -0.2009  3.4762
  676MOL0     H93222   1.076   4.939  11.328  3.0956  1.1153 -1.1946
  676MOL0     H93223   1.246   4.971  11.170  2.1434 -0.5435  0.6730
  676MOL0     H93224   1.256   4.806  11.249 -0.3373 -3.0942 -2.3079
  676MOL0     H93225   1.187   4.692  11.085  1.5978 -1.1915 -0.3932
  676MOL0     H93226   1.166   4.833  10.972 -0.3389  1.5529  1.0991
  676MOL0     H93227   1.431   4.856  11.050 -3.3920  1.8515  0.2102
  676MOL0     H93228   1.413   4.682  11.065  1.8464 -0.3680  0.6746
  676MOL0     H93229   1.349   4.815  10.792 -2.2955  1.2456  2.3254
  676MOL0     H93230   1.368   4.647  10.827 -1.2675  0.8402  0.3957
  676MOL0     H93231   1.601   4.707  10.930  1.9147  0.4457 -0.9116
  676MOL0     H93232   1.557   4.687  10.754 -2.2589  0.2827 -0.9371
  676MOL0     H93233   1.565   4.963  10.893  1.9287 -0.0919  0.1484
  676MOL0     H93234   1.539   4.922  10.718 -0.1560 -1.1220 -0.3236
  676MOL0     H93235   1.742   4.846  10.681 -1.9633 -4.1419  2.2819
  676MOL0     H93236   1.769   4.999  10.759  2.0450 -0.2491  0.5645
  676MOL0     H93237   1.900   4.644  10.721 -1.6338  0.1187 -0.1859
  676MOL0     H93238   2.021   4.464  10.886 -0.5477 -1.4002  2.2518
  676MOL0     H93239   2.053   4.521  11.053  0.6024 -1.9397 -0.3931
  676MOL0     H93240   2.177   4.602  10.788 -2.2622 -1.3617  0.0089
  676MOL0     H93241   2.206   4.706  10.934  0.1838  0.0172  0.6970
  676MOL0     H93242   2.342   4.545  11.056  0.5995 -1.8129  0.4154
  676MOL0     H93243   2.290   4.416  10.944  1.6185  0.4811 -2.7752
  676MOL0     H93244   2.527   4.522  10.902  1.8356 -0.9884 -3.8502
  676MOL0     H93245   2.427   4.501  10.762  1.9807  0.2105 -1.0208
  676MOL0     H93246   2.565   4.591  10.626 -0.7996 -0.5190  2.6069
  676MOL0     H93247   2.756   4.593  10.478  1.4178 -0.8314 -1.8213
  676MOL0     H93248   2.873   4.720  10.491 -0.6039  0.8945  1.1511
  676MOL0     H93249   2.728   4.746  10.387 -3.9230 -2.7070 -0.0693
  676MOL0     H93250   2.842   5.270  10.518 -0.6574  0.7644  5.6998
  676MOL0     H93251   3.010   5.385  10.376  1.0449  1.6763  0.6983
  676MOL0     H93252   3.221   5.415  10.199 -0.2440 -0.7246 -0.0572
  676MOL0     H93253   3.217   5.498  10.358 -0.2175  2.4873 -0.6107
  676MOL0     H93254   3.469   5.395  10.246  0.4013 -0.0161  0.7414
  676MOL0     H93255   3.421   5.554  10.202 -1.3419 -0.1743  0.1693
  676MOL0     H93256   3.447   5.450  10.486  0.9988  0.8436  0.8578
  676MOL0     H93257   3.394   5.619  10.435  2.8944  3.3256 -2.1264
  676MOL0     H93258   3.629   5.660  10.383  1.3112 -1.7452 -0.6111
  676MOL0     H93259   3.656   5.478  10.402  2.1704  1.1106 -2.1692
  676MOL0     H93260   3.559   5.617  10.654 -0.3050  1.1516  0.8546
  676MOL0     H93261   3.692   5.501  10.626  0.9169  0.8371 -1.7353
  676MOL0     H93262   3.682   5.797  10.583  2.6203  1.4448  0.3908
  676MOL0     H93263   3.822   5.700  10.536  1.5851  1.5963  1.4885
  676MOL0     H93264   3.881   5.646  10.764 -3.8577 -4.8594 -0.9877
  676MOL0     H93265   3.716   5.704  10.808 -0.8018 -1.6872 -1.1856
  676MOL0     H93266   3.896   5.839  10.869 -0.2846 -1.3310 -0.1949
  676MOL0     H93267   3.779   5.935  10.767  0.4443  0.0750 -0.1068
  676MOL0     H93268   3.308   5.120  10.564  0.0774  0.3461 -1.1719
  676MOL0     H93269   3.138   5.046  10.714 -1.0990 -2.3998 -1.8916
  676MOL0     H93270   2.653   5.063  10.757 -2.5859  0.0592 -2.0897
  676MOL0     H93271   2.500   4.926  10.891 -2.0903 -0.4549 -0.3773
  676MOL0     H93272   0.818   4.855  11.325 -3.0586  2.2406  2.1307
  676MOL0     H93273   0.582   4.777  11.268 -0.7278 -1.2550  0.1460
  676MOL0     H93274   0.305   4.525  10.884 -1.7316 -1.3281 -0.5609
  676MOL0     H93275   0.065   4.476  10.838 -1.9667  0.9134  0.0428
  676MOL0     H93276  -0.147   4.566  10.723 -1.4620  1.9051 -0.2826
  676MOL0     H93277  -0.187   4.448  10.841  1.4087 -0.0912  1.0122
  676MOL0     H93278  -0.359   4.689  10.793 -0.9626  0.4720  2.8031
  676MOL0     H93279  -0.402   4.564  10.899 -2.0027 -1.3491 -1.3978
  676MOL0     H93280  -0.362   4.461  10.629 -1.7441 -1.0877 -1.7309
  676MOL0     H93281  -0.462   4.407  10.760  0.6215  0.3032  1.8175
  676MOL0     H93282  -0.575   4.493  10.558 -2.7269 -2.6693  1.6532
  676MOL0     H93283  -0.528   4.655  10.595  0.0832 -0.5192 -0.6373
  676MOL0     H93284  -0.866   4.512  10.827  0.1150  3.6289  0.9003
  676MOL0     H93285  -0.057   4.838  11.005 -0.2540 -0.0631 -1.0400
  676MOL0     H93286   0.232   4.946  11.160 -3.0200 -1.2728  2.6731
  676MOL0     H93287   0.257   5.013  10.989  2.1736 -0.1299  1.7142
  676MOL0     H93288   0.098   5.006  11.051  1.5508  1.9681 -0.6590
  677MOL0     O93289  10.067   7.377   8.690 -0.7501  0.0144 -0.8985
  677MOL0     C93290  10.077   7.498   8.699  0.4609  0.2290 -0.5152
  677MOL0     O93291  10.045   7.583   8.607  0.5173 -0.9034 -0.5646
  677MOL0     C93292   9.996   7.524   8.490 -0.1213  0.4403 -1.6141
  677MOL0     C93293  10.034   7.569   8.368  1.2548 -0.5854  1.0946
  677MOL0     C93294   9.990   7.515   8.244 -0.4717  0.9310  0.4824
  677MOL0     C93295   9.901   7.419   8.239 -1.1670  0.6627 -1.1438
  677MOL0     O93296   9.882   7.356   8.118 -0.3999  0.2889 -0.8246
  677MOL0     C93297   9.810   7.233   8.108 -0.9321 -0.1735 -1.6274
  677MOL0     C93298   9.776   7.216   7.963  0.1894  0.0187  0.9719
  677MOL0     C93299   9.682   7.322   7.915  0.4076 -0.1913 -0.5875
  677MOL0     C93300   9.656   7.292   7.766  0.3056  0.3062  0.5042
  677MOL0     C93301   9.766   7.364   7.679 -0.7360 -0.0410  0.4019
  677MOL0     C93302   9.747   7.341   7.532 -0.2405 -0.8651  0.0244
  677MOL0     C93303   9.685   7.207   7.496 -0.6901  0.1286  0.2000
  677MOL0     C93304   9.709   7.170   7.339  0.5721  0.1375  0.1210
  677MOL0     N93305   9.615   7.254   7.258 -0.2799 -0.6211 -0.0172
  677MOL0     C93306   9.479   7.222   7.231  0.2422  0.0214 -0.3821
  677MOL0     C93307   9.418   7.326   7.186  0.3415 -0.8300  0.3537
  677MOL0     C93308   9.279   7.341   7.140 -0.5798 -0.9616  0.2613
  677MOL0     C93309   9.278   7.385   6.990  0.4276 -0.9046  0.0830
  677MOL0     C93310   9.140   7.460   6.970  0.5343  0.1858  0.3770
  677MOL0     C93311   9.100   7.463   6.820  0.1878  0.2075 -0.2669
  677MOL0     O93312   9.036   7.586   6.776 -0.8720 -0.6194 -0.5327
  677MOL0     C93313   8.954   7.653   6.860  0.2980 -0.0406 -0.4784
  677MOL0     C93314   8.850   7.592   6.925 -0.2561 -0.1657 -0.6341
  677MOL0     C93315   8.760   7.669   7.004 -0.4993  0.3442  0.0299
  677MOL0     C93316   8.633   7.599   7.058  0.1570  0.5603  0.2438
  677MOL0     C93317   8.784   7.813   7.025  0.3697 -0.6695  0.0565
  677MOL0     C93318   8.696   7.901   7.103  0.5723  0.3923  0.4211
  677MOL0     O93319   8.584   7.855   7.164  0.0602  0.2291 -0.4324
  677MOL0     C93320   8.519   7.926   7.257  0.5306  0.0947  1.4829
  677MOL0     C93321   8.579   7.989   7.362 -0.0510 -0.0149 -1.5952
  677MOL0     C93322   8.512   8.060   7.459  0.6312 -0.8162 -0.6286
  677MOL0     C93323   8.377   8.037   7.481 -0.7021  0.8221 -0.2927
  677MOL0     O93324   8.291   8.086   7.575 -0.0921 -0.0905 -0.8186
  677MOL0     C93325   8.342   8.137   7.702 -1.0295  0.1879  0.8818
  677MOL0     C93326   8.332   8.034   7.813 -0.5465 -0.4725  0.6612
  677MOL0     C93327   8.414   7.906   7.795  0.2347 -0.8829  0.2008
  677MOL0     C93328   8.367   7.777   7.870 -0.0439 -0.3775  0.6845
  677MOL0     C93329   8.420   7.642   7.817 -1.1466 -0.0726 -0.1693
  677MOL0     C93330   8.570   7.621   7.829 -1.0929  0.5007  0.0846
  677MOL0     C93331   8.597   7.467   7.800  0.4186 -0.1479 -0.1871
  677MOL0     C93332   8.635   7.394   7.925  0.4143 -0.5045  0.5627
  677MOL0    Cl93333   8.724   7.254   7.855  0.3766  0.1460  0.6464
  677MOL0     C93334   8.313   7.965   7.375  0.0126  0.2720 -0.4382
  677MOL0     C93335   8.378   7.926   7.253 -0.8735 -0.5055 -0.4268
  677MOL0     O93336   8.725   8.020   7.096  0.5024  0.2406  0.0127
  677MOL0     C93337   8.885   7.868   6.944 -0.8821  0.5806 -0.0240
  677MOL0     C93338   8.979   7.799   6.857  1.2057  0.2964 -0.2875
  677MOL0     N93339   9.516   7.426   7.176  0.6285  0.0138  0.0304
  677MOL0     N93340   9.634   7.387   7.216  0.2116 -0.3204  0.4313
  677MOL0     C93341   9.840   7.385   8.363 -0.4843  0.0582 -0.8253
  677MOL0     C93342   9.880   7.435   8.488  0.4661 -0.1932  0.1677
  677MOL0     C93343  10.138   7.543   8.824  0.9818 -0.3781 -0.3847
  677MOL0     C93344  10.088   7.664   8.875  0.1134 -0.8596  0.4028
  677MOL0     C93345  10.155   7.729   8.980 -0.3567  0.5378  0.5501
  677MOL0     C93346  10.259   7.667   9.037 -0.5204 -0.7388  0.1956
  677MOL0     O93347  10.309   7.733   9.144  0.0444  0.3089  0.0678
  677MOL0     C93348  10.392   7.668   9.246  0.4804 -0.2859 -0.5008
  677MOL0     C93349  10.547   7.667   9.213  0.7391 -0.2231  0.2223
  677MOL0     C93350  10.632   7.585   9.304 -0.0271 -1.3982 -0.0837
  677MOL0     C93351  10.632   7.634   9.449 -0.3938 -0.4178  0.4514
  677MOL0     C93352  10.517   7.604   9.534 -0.5565  0.1840 -0.7970
  677MOL0     C93353  10.424   7.576   9.602  0.0972  0.0413 -0.2352
  677MOL0     C93354  10.298   7.540   9.003 -0.0560 -0.0720  0.7013
  677MOL0     C93355  10.237   7.475   8.899 -0.1394 -0.0421 -0.5616
  677MOL0     C93356  10.287   7.328   8.866  0.1100 -1.4526  0.5444
  677MOL0     H93357  10.099   7.656   8.356 -1.6890  1.4946 -1.3696
  677MOL0     H93358  10.033   7.537   8.147  2.6085 -2.4999  0.8530
  677MOL0     H93359   9.719   7.243   8.166 -3.2392 -3.0230 -4.4003
  677MOL0     H93360   9.872   7.157   8.156  0.6089  2.6199  1.1873
  677MOL0     H93361   9.872   7.224   7.911 -0.0012  1.0188  0.7464
  677MOL0     H93362   9.719   7.124   7.949 -0.0979  0.7120 -4.3468
  677MOL0     H93363   9.589   7.316   7.972  1.9600  0.8683  2.3131
  677MOL0     H93364   9.714   7.427   7.919 -0.5007  0.0646  1.4990
  677MOL0     H93365   9.657   7.188   7.732 -0.3527  1.0354 -1.9765
  677MOL0     H93366   9.556   7.332   7.744  0.7627  1.5466  0.5883
  677MOL0     H93367   9.864   7.322   7.704 -0.9090 -0.6814  0.0500
  677MOL0     H93368   9.771   7.472   7.693  1.1968  0.1690 -1.5203
  677MOL0     H93369   9.676   7.416   7.496 -0.6626 -2.4716 -2.8186
  677MOL0     H93370   9.843   7.344   7.478 -0.2211 -2.5356 -0.0827
  677MOL0     H93371   9.580   7.208   7.524 -1.2317  1.2451 -1.6888
  677MOL0     H93372   9.741   7.130   7.550 -1.5502 -0.7809 -0.1769
  677MOL0     H93373   9.812   7.187   7.305 -0.3590 -0.1787 -3.2699
  677MOL0     H93374   9.677   7.068   7.314  2.4074  0.2624 -3.5619
  677MOL0     H93375   9.440   7.123   7.250  1.0941 -0.4383 -0.9558
  677MOL0     H93376   9.235   7.426   7.195  1.9361 -0.3506  1.5050
  677MOL0     H93377   9.228   7.249   7.168  1.4640 -1.8339  1.3240
  677MOL0     H93378   9.346   7.469   6.975 -2.9320  1.7741 -1.5457
  677MOL0     H93379   9.318   7.314   6.918  6.0276 -0.8374  2.5889
  677MOL0     H93380   9.058   7.403   7.015  1.2992 -2.1668 -1.0375
  677MOL0     H93381   9.157   7.563   7.002  4.6036 -0.0744 -0.4482
  677MOL0     H93382   9.186   7.453   6.752  0.0834 -0.4335 -0.3131
  677MOL0     H93383   9.035   7.377   6.802  0.5463 -0.3769  1.1137
  677MOL0     H93384   8.836   7.486   6.911  2.2887 -0.7484  0.7267
  677MOL0     H93385   8.546   7.643   7.007  0.7029  2.3988  0.8196
  677MOL0     H93386   8.621   7.623   7.164 -2.0585 -0.6525  0.3429
  677MOL0     H93387   8.636   7.490   7.044  2.0880  0.6832 -0.4849
  677MOL0     H93388   8.686   8.000   7.358  0.1716 -0.5517  1.2157
  677MOL0     H93389   8.583   8.112   7.524 -0.7643  2.8397 -1.7640
  677MOL0     H93390   8.446   8.169   7.692 -0.7792 -0.4337  1.4204
  677MOL0     H93391   8.282   8.224   7.728 -1.0268  0.8996 -1.2982
  677MOL0     H93392   8.343   8.084   7.909 -3.0111  1.3034  0.1278
  677MOL0     H93393   8.224   8.012   7.813 -1.6754  3.3079 -4.0855
  677MOL0     H93394   8.520   7.926   7.811  0.8302 -1.6928 -2.3422
  677MOL0     H93395   8.411   7.876   7.690  1.2102  0.8469 -0.3612
  677MOL0     H93396   8.257   7.771   7.865 -0.2889  2.8113 -0.1502
  677MOL0     H93397   8.384   7.785   7.977  2.4135 -1.3168  0.4290
  677MOL0     H93398   8.364   7.562   7.866 -3.0192  0.5477 -1.1981
  677MOL0     H93399   8.396   7.624   7.712  2.1894 -0.5867 -0.9726
  677MOL0     H93400   8.605   7.637   7.932 -2.6700  0.2260  0.6813
  677MOL0     H93401   8.619   7.679   7.750  1.6510  2.1353  2.7736
  677MOL0     H93402   8.683   7.458   7.732  0.4727 -0.2836 -0.1021
  677MOL0     H93403   8.521   7.403   7.755  1.5178 -1.2738 -0.5356
  677MOL0     H93404   8.544   7.372   7.981  0.5301  1.5713  1.6743
  677MOL0     H93405   8.699   7.456   7.988 -3.4439  2.6346  1.7882
  677MOL0     H93406   8.205   7.954   7.375 -0.0009 -1.8055  4.2255
  677MOL0     H93407   8.328   7.880   7.169 -0.7819 -0.4659 -0.5032
  677MOL0     H93408   8.897   7.976   6.947  0.2300  0.4512  0.7062
  677MOL0     H93409   9.053   7.846   6.793 -0.5431 -0.4048 -3.0033
  677MOL0     H93410   9.772   7.300   8.357 -1.5913  0.6947  1.5509
  677MOL0     H93411   9.832   7.411   8.582  0.5102  1.5621  0.6733
  677MOL0     H93412  10.017   7.734   8.830  2.8259  0.3158 -2.4461
  677MOL0     H93413  10.137   7.832   9.011 -3.0776 -0.5025  2.8143
  677MOL0     H93414  10.382   7.728   9.337  0.1509 -0.0239 -0.7091
  677MOL0     H93415  10.366   7.562   9.260  4.7483 -1.4183  0.3697
  677MOL0     H93416  10.585   7.768   9.192 -0.7636  0.2232 -0.4829
  677MOL0     H93417  10.556   7.615   9.117 -2.6309 -0.0362 -0.3241
  677MOL0     H93418  10.597   7.482   9.312  0.8744 -1.7249 -0.1988
  677MOL0     H93419  10.739   7.592   9.282 -0.2600 -2.5828 -1.7715
  677MOL0     H93420  10.646   7.742   9.460  2.1879 -0.5802 -0.7046
  677MOL0     H93421  10.712   7.589   9.509 -2.0280 -0.2739  2.9175
  677MOL0     H93422  10.326   7.573   9.646 -0.2215  0.7393 -0.8738
  677MOL0     H93423  10.378   7.490   9.057 -1.3831 -0.2141  2.6647
  677MOL0     H93424  10.390   7.322   8.900 -0.4261 -2.9161  2.0440
  677MOL0     H93425  10.226   7.245   8.905 -0.3165 -0.9602  0.9508
  677MOL0     H93426  10.297   7.327   8.757  1.4111  1.6326  0.5251
  678MOL0     O93427   6.977   0.744   4.251 -1.0141 -0.0185 -0.5316
  678MOL0     C93428   6.961   0.792   4.362 -0.3887 -0.4780 -0.5141
  678MOL0     O93429   6.839   0.802   4.424 -0.6236 -0.2581  0.7017
  678MOL0     C93430   6.729   0.762   4.345 -0.0033 -0.6545  0.2013
  678MOL0     C93431   6.719   0.625   4.300  0.3233 -1.1200  0.2821
  678MOL0     C93432   6.602   0.580   4.240  0.8811 -0.9567  1.1265
  678MOL0     C93433   6.495   0.664   4.220 -0.2351  0.1189 -0.0856
  678MOL0     O93434   6.385   0.605   4.169  0.0231 -0.8041  0.6559
  678MOL0     C93435   6.311   0.696   4.080  0.2560 -0.0074 -0.5992
  678MOL0     C93436   6.239   0.617   3.963 -0.6054 -0.4669 -0.1474
  678MOL0     C93437   6.143   0.506   4.015  0.3521  0.2255 -1.1116
  678MOL0     C93438   6.005   0.556   4.048 -0.6297 -1.0207  0.5058
  678MOL0     C93439   5.907   0.461   4.090  0.0766 -0.2190  0.0278
  678MOL0     C93440   5.855   0.364   3.974 -0.6558 -0.6395 -0.6769
  678MOL0     C93441   5.790   0.450   3.849 -0.0589 -0.4672 -0.8552
  678MOL0     C93442   5.730   0.362   3.751 -0.7793 -0.1086 -0.4360
  678MOL0     N93443   5.618   0.286   3.791  0.0205  0.3439 -0.1891
  678MOL0     C93444   5.497   0.326   3.847  0.3778  0.5481 -0.0085
  678MOL0     C93445   5.424   0.216   3.856  0.2264 -0.7724  0.3161
  678MOL0     C93446   5.287   0.213   3.910 -0.3935 -0.2650  0.0660
  678MOL0     C93447   5.166   0.156   3.833 -0.2464 -0.4035 -0.4746
  678MOL0     C93448   5.115   0.257   3.718 -0.4905 -1.1107  0.2345
  678MOL0     C93449   5.020   0.372   3.766  0.1068 -0.5455 -0.8227
  678MOL0     O93450   5.096   0.455   3.853 -0.1346  0.2210  0.5126
  678MOL0     C93451   5.141   0.572   3.810 -0.4033  0.0321  0.0177
  678MOL0     C93452   5.232   0.583   3.712 -0.5272 -0.3390 -0.1241
  678MOL0     C93453   5.275   0.702   3.657 -0.9024 -1.1337  0.5274
  678MOL0     C93454   5.385   0.692   3.545 -0.3658 -1.0548  0.5749
  678MOL0     C93455   5.222   0.827   3.698 -0.0745 -0.2023 -0.2483
  678MOL0     C93456   5.258   0.960   3.653 -0.0784  0.7428  1.0410
  678MOL0     O93457   5.319   0.965   3.530 -0.3551 -1.4034 -0.8803
  678MOL0     C93458   5.368   1.087   3.490 -0.1380 -0.6962  0.9648
  678MOL0     C93459   5.298   1.162   3.386  0.5248  0.8251  0.7842
  678MOL0     C93460   5.339   1.279   3.340 -0.0524  0.0746  0.1528
  678MOL0     C93461   5.465   1.327   3.381  1.3301  0.2455 -0.3417
  678MOL0     O93462   5.495   1.452   3.320  0.0837 -0.0473  0.9781
  678MOL0     C93463   5.599   1.529   3.384 -0.6512  0.5026 -0.4877
  678MOL0     C93464   5.634   1.659   3.314  0.6756 -0.2801 -0.4953
  678MOL0     C93465   5.764   1.721   3.355  0.7324 -0.4711 -0.0458
  678MOL0     C93466   5.767   1.872   3.313  0.3171 -0.4944  0.6337
  678MOL0     C93467   5.901   1.907   3.257 -0.3760  0.1129  0.7829
  678MOL0     C93468   5.942   2.043   3.214 -0.1556 -0.5167  0.4490
  678MOL0     C93469   6.073   2.051   3.143  0.5437  0.0343  0.7814
  678MOL0     C93470   6.079   2.034   2.987  0.9397 -0.7859 -0.5006
  678MOL0    Cl93471   5.984   2.172   2.910  0.2165  0.2113 -0.2651
  678MOL0     C93472   5.544   1.263   3.477 -0.4699  0.8446  0.0829
  678MOL0     C93473   5.498   1.142   3.530 -0.1201  0.1487  0.1878
  678MOL0     O93474   5.239   1.055   3.722  0.4287  0.5425 -0.8612
  678MOL0     C93475   5.132   0.816   3.816  0.5929 -0.2662  0.1889
  678MOL0     C93476   5.083   0.684   3.852 -0.6446  0.2463  0.3698
  678MOL0     N93477   5.501   0.110   3.806  0.4934 -0.3028 -0.3296
  678MOL0     N93478   5.615   0.147   3.789 -1.0554 -0.1106 -0.7711
  678MOL0     C93479   6.505   0.794   4.272 -0.2278 -0.1203  0.3565
  678MOL0     C93480   6.623   0.844   4.333  0.5669  0.2006 -0.1865
  678MOL0     C93481   7.074   0.863   4.429  0.0321 -0.2608  0.3481
  678MOL0     C93482   7.058   0.979   4.495 -0.1850 -0.6483  0.5550
  678MOL0     C93483   7.171   1.047   4.551  0.2642  1.1604 -0.5916
  678MOL0     C93484   7.295   1.009   4.536 -0.2462  1.3526 -0.5332
  678MOL0     O93485   7.396   1.082   4.594 -0.2367  0.2003 -0.1198
  678MOL0     C93486   7.536   1.037   4.597  0.6692  0.6388 -0.6928
  678MOL0     C93487   7.613   1.159   4.647  0.0659 -0.2044 -0.2438
  678MOL0     C93488   7.753   1.116   4.686 -0.3859  0.3932 -0.7195
  678MOL0     C93489   7.830   1.235   4.751 -0.1323  0.6124 -0.5021
  678MOL0     C93490   7.783   1.269   4.891  0.7684 -0.1863 -0.2347
  678MOL0     C93491   7.753   1.305   5.006  0.1132  0.3622  0.0486
  678MOL0     C93492   7.313   0.890   4.468 -0.8382 -0.8742  0.5651
  678MOL0     C93493   7.206   0.813   4.422  0.4172 -0.0983  0.4105
  678MOL0     C93494   7.238   0.668   4.385  0.3121 -0.6899 -0.0861
  678MOL0     H93495   6.804   0.558   4.296  1.8589  0.3363  3.8971
  678MOL0     H93496   6.611   0.483   4.192  0.4455 -0.6432  0.3904
  678MOL0     H93497   6.372   0.779   4.044  0.6547  0.1226  0.3562
  678MOL0     H93498   6.231   0.730   4.147 -1.8801 -4.1389 -0.7139
  678MOL0     H93499   6.185   0.681   3.893 -2.5519 -1.0669  0.7431
  678MOL0     H93500   6.315   0.559   3.910 -1.5440 -0.9942 -0.9286
  678MOL0     H93501   6.143   0.421   3.945 -0.7030  0.5502 -1.5224
  678MOL0     H93502   6.202   0.470   4.100  3.0742  0.9295 -2.5803
  678MOL0     H93503   6.012   0.640   4.118 -2.2146  1.4193 -2.0139
  678MOL0     H93504   5.950   0.608   3.969 -0.0766 -0.1460  0.6798
  678MOL0     H93505   5.821   0.521   4.121  2.4622  2.9894  1.0115
  678MOL0     H93506   5.940   0.410   4.181 -0.8833  2.4707  2.0176
  678MOL0     H93507   5.927   0.292   3.935 -0.4955 -1.5325  1.1504
  678MOL0     H93508   5.785   0.302   4.031  2.1107 -2.2321  1.2865
  678MOL0     H93509   5.863   0.511   3.794 -2.8278  1.3302 -2.7727
  678MOL0     H93510   5.711   0.517   3.885 -0.7728 -0.5716 -2.2047
  678MOL0     H93511   5.682   0.434   3.683 -0.1481  1.4364  0.6829
  678MOL0     H93512   5.793   0.292   3.696 -3.1519 -2.2065 -0.6382
  678MOL0     H93513   5.468   0.422   3.890  2.4539  1.4614 -0.5056
  678MOL0     H93514   5.263   0.315   3.940  0.5107  0.8979 -2.8194
  678MOL0     H93515   5.294   0.151   4.000 -1.8924 -1.3248 -0.4940
  678MOL0     H93516   5.194   0.057   3.795 -0.6649 -1.2521  1.3180
  678MOL0     H93517   5.083   0.143   3.903 -0.2080  1.4963 -0.0117
  678MOL0     H93518   5.205   0.301   3.673  0.6705  0.4401  3.6641
  678MOL0     H93519   5.068   0.208   3.632  1.3049 -0.5804 -1.1234
  678MOL0     H93520   4.973   0.425   3.683  1.0191  0.6896 -0.5700
  678MOL0     H93521   4.937   0.321   3.817 -0.7235  2.1704  0.7556
  678MOL0     H93522   5.287   0.496   3.679  1.1790  0.6820 -0.0755
  678MOL0     H93523   5.398   0.591   3.506  0.7299  0.2310 -2.7695
  678MOL0     H93524   5.487   0.720   3.571 -0.5550  0.9284 -0.5617
  678MOL0     H93525   5.357   0.740   3.450 -1.8785 -1.0142  1.0158
  678MOL0     H93526   5.200   1.127   3.355 -0.0883  0.8203  2.6265
  678MOL0     H93527   5.296   1.340   3.261  1.7251 -0.7639 -1.5587
  678MOL0     H93528   5.570   1.560   3.485  1.0531  1.1086 -0.1487
  678MOL0     H93529   5.684   1.460   3.391 -0.5484  0.7782  2.8967
  678MOL0     H93530   5.649   1.645   3.207  0.7872  1.7746 -0.7843
  678MOL0     H93531   5.552   1.732   3.319 -0.9660 -2.0931  1.0321
  678MOL0     H93532   5.850   1.664   3.317  0.5766 -1.5514  1.1392
  678MOL0     H93533   5.772   1.717   3.464  2.0821 -1.5017 -0.1606
  678MOL0     H93534   5.771   1.936   3.402  3.3862  0.1970  0.0955
  678MOL0     H93535   5.686   1.896   3.244  0.8910  0.2334  0.2045
  678MOL0     H93536   5.972   1.880   3.336  2.6864 -0.1420 -1.8081
  678MOL0     H93537   5.925   1.845   3.169 -2.0056  3.3141 -2.1557
  678MOL0     H93538   5.960   2.106   3.301  1.4324 -1.7656  1.0753
  678MOL0     H93539   5.862   2.085   3.151  0.0862 -0.6528  0.0489
  678MOL0     H93540   6.151   1.982   3.175  0.9202 -2.3820 -4.3504
  678MOL0     H93541   6.121   2.147   3.166  2.2181 -1.0053  1.7911
  678MOL0     H93542   6.038   1.936   2.961 -1.1392 -0.4155  1.0863
  678MOL0     H93543   6.185   2.045   2.961  0.6395 -1.2743 -2.0086
  678MOL0     H93544   5.648   1.279   3.504  0.6110 -1.5791 -2.1226
  678MOL0     H93545   5.552   1.081   3.602 -2.6128 -2.3961  0.0842
  678MOL0     H93546   5.085   0.908   3.851 -0.4067 -1.0216  0.8522
  678MOL0     H93547   5.002   0.671   3.923 -0.1609  3.2077  1.6276
  678MOL0     H93548   6.418   0.857   4.261 -0.8445 -0.6145  2.0551
  678MOL0     H93549   6.620   0.938   4.387 -1.6159 -0.3773  0.7747
  678MOL0     H93550   6.971   1.029   4.536  1.0344  2.7906 -0.7073
  678MOL0     H93551   7.152   1.140   4.604 -2.5575 -0.0603  0.7523
  678MOL0     H93552   7.547   0.951   4.663  1.9322  1.1492 -0.2025
  678MOL0     H93553   7.569   0.999   4.500  0.7862 -0.9775 -0.0504
  678MOL0     H93554   7.566   1.194   4.740 -4.4131 -2.1217 -1.5239
  678MOL0     H93555   7.622   1.238   4.571 -0.8785 -1.2505 -1.4777
  678MOL0     H93556   7.745   1.026   4.747  3.2753  1.7536  2.1671
  678MOL0     H93557   7.807   1.084   4.597 -1.1790 -2.7193 -0.2120
  678MOL0     H93558   7.822   1.317   4.679 -0.4684 -0.1591 -1.3600
  678MOL0     H93559   7.936   1.210   4.765  0.0923  2.5933  2.3403
  678MOL0     H93560   7.747   1.353   5.101  1.5486 -1.4644  1.1213
  678MOL0     H93561   7.418   0.861   4.459  0.3455  3.5471 -5.5091
  678MOL0     H93562   7.330   0.635   4.432  1.3928 -0.3485 -1.8592
  678MOL0     H93563   7.157   0.610   4.431 -0.4303  0.1849 -0.2451
  678MOL0     H93564   7.235   0.655   4.276  0.8578  1.0804 -0.3461
  679MOL0     O93565   4.834   9.217   6.290  0.5709  0.1723 -0.8899
  679MOL0     C93566   4.914   9.142   6.244  0.0099  0.3737 -0.7045
  679MOL0     O93567   4.889   9.007   6.220 -0.6179 -0.1866 -0.1954
  679MOL0     C93568   4.756   8.989   6.187  1.1275 -0.3449  0.6139
  679MOL0     C93569   4.709   9.001   6.057 -0.4045  0.3502 -0.2928
  679MOL0     C93570   4.575   8.972   6.030 -0.6593  0.6666 -0.3118
  679MOL0     C93571   4.484   8.938   6.127  0.4470  0.4285  0.1102
  679MOL0     O93572   4.364   8.909   6.083 -0.0212  0.3318 -0.6478
  679MOL0     C93573   4.300   8.795   6.134  0.2860 -0.4234 -0.0624
  679MOL0     C93574   4.348   8.668   6.064  0.6087 -0.7385  1.0251
  679MOL0     C93575   4.292   8.541   6.120 -0.9366  0.2724 -0.1272
  679MOL0     C93576   4.350   8.417   6.049  0.2353 -0.1002  0.2291
  679MOL0     C93577   4.354   8.291   6.140  0.5498 -0.1409 -1.2008
  679MOL0     C93578   4.273   8.165   6.080  0.1616  0.6963 -0.1290
  679MOL0     C93579   4.125   8.178   6.076  1.0505 -0.2016  0.0628
  679MOL0     C93580   4.062   8.094   5.962  1.0729 -0.2512 -0.6643
  679MOL0     N93581   4.085   7.951   5.973 -0.5756 -0.0622  0.0807
  679MOL0     C93582   4.097   7.862   5.877  0.0684  0.2666  0.9399
  679MOL0     C93583   4.124   7.742   5.935  0.0042 -0.7685 -0.7376
  679MOL0     C93584   4.161   7.625   5.850  0.6144  0.1662  0.9215
  679MOL0     C93585   4.289   7.568   5.904  0.8313 -0.4795 -0.1882
  679MOL0     C93586   4.350   7.460   5.814  0.7729  0.2918  0.0691
  679MOL0     C93587   4.406   7.521   5.684  0.4132  0.1089 -0.6620
  679MOL0     O93588   4.471   7.650   5.676  0.3634  0.2193  0.5766
  679MOL0     C93589   4.607   7.638   5.697  0.2269  0.1996  0.4788
  679MOL0     C93590   4.701   7.607   5.601  0.0494 -0.1371 -0.0989
  679MOL0     C93591   4.842   7.580   5.617 -0.0398  0.3145  0.5084
  679MOL0     C93592   4.918   7.535   5.488 -0.0048 -0.5252 -0.7757
  679MOL0     C93593   4.890   7.574   5.752 -0.0031  0.1240  0.0739
  679MOL0     C93594   5.038   7.554   5.805  1.5824 -0.2600 -0.3948
  679MOL0     O93595   5.044   7.547   5.938  0.1074 -0.1595  0.1063
  679MOL0     C93596   5.161   7.568   6.000  0.5041 -0.1470  0.1401
  679MOL0     C93597   5.259   7.464   6.005 -1.0665 -0.4750  0.6549
  679MOL0     C93598   5.387   7.484   6.061  0.3956  0.1927 -0.1514
  679MOL0     C93599   5.423   7.615   6.103  1.3891 -0.9218  0.1327
  679MOL0     O93600   5.549   7.653   6.143  0.4128  0.2609 -0.2463
  679MOL0     C93601   5.638   7.563   6.208 -0.1740 -0.0857  0.0477
  679MOL0     C93602   5.765   7.634   6.252 -1.0144 -0.0470  0.2281
  679MOL0     C93603   5.723   7.732   6.364 -0.2828  0.6828  0.1358
  679MOL0     C93604   5.845   7.820   6.401  0.3005 -0.7380  0.1627
  679MOL0     C93605   5.949   7.743   6.488  0.2278  1.1938  0.1623
  679MOL0     C93606   6.107   7.779   6.480  0.1817 -0.0115  0.4858
  679MOL0     C93607   6.132   7.931   6.460 -0.8102  0.3664  0.8183
  679MOL0     C93608   6.281   7.962   6.479 -0.2474 -0.4446 -1.4068
  679MOL0    Cl93609   6.331   7.920   6.654 -0.0813 -0.4916  0.6987
  679MOL0     C93610   5.329   7.721   6.094  0.9541 -0.8309 -0.2790
  679MOL0     C93611   5.196   7.692   6.056  0.0794 -0.8267 -0.7084
  679MOL0     O93612   5.120   7.533   5.730 -0.1402 -0.5263 -0.3034
  679MOL0     C93613   4.791   7.611   5.851 -0.0899  0.1570 -0.1497
  679MOL0     C93614   4.657   7.646   5.830  0.0639  0.2676  0.0265
  679MOL0     N93615   4.137   7.770   6.072  0.5476  0.1850 -0.3108
  679MOL0     N93616   4.102   7.893   6.095  0.5219 -0.4232 -0.2146
  679MOL0     C93617   4.537   8.916   6.262  0.9446 -0.0313  0.3680
  679MOL0     C93618   4.670   8.947   6.290 -0.0509  0.2037  0.5713
  679MOL0     C93619   5.047   9.187   6.210 -0.4151  0.2228  0.3980
  679MOL0     C93620   5.139   9.091   6.164  0.3260  0.1133  0.2780
  679MOL0     C93621   5.264   9.120   6.121  0.1179 -0.4370 -1.1413
  679MOL0     C93622   5.307   9.253   6.121  0.3982 -0.0060 -0.5579
  679MOL0     O93623   5.432   9.303   6.078 -0.3135  0.5026 -0.4115
  679MOL0     C93624   5.533   9.216   6.026 -0.7261  0.0632 -0.1519
  679MOL0     C93625   5.665   9.292   5.998  0.4571 -1.1086  0.0605
  679MOL0     C93626   5.631   9.409   5.898 -0.6473 -0.2529  0.0972
  679MOL0     C93627   5.761   9.453   5.823  0.1959 -0.4412 -0.0158
  679MOL0     C93628   5.819   9.343   5.738 -0.3696 -1.4154  0.0786
  679MOL0     C93629   5.853   9.249   5.667 -0.7406 -0.3607 -1.2231
  679MOL0     C93630   5.219   9.354   6.167 -1.0161 -0.7020  0.3423
  679MOL0     C93631   5.091   9.319   6.205  0.6106  0.2453  0.0654
  679MOL0     C93632   4.991   9.436   6.248 -0.0679  0.7403  0.7614
  679MOL0     H93633   4.779   9.025   5.978  1.0528 -2.1315  0.1375
  679MOL0     H93634   4.527   8.994   5.935 -4.3732  0.6360  1.3780
  679MOL0     H93635   4.197   8.795   6.097  1.0900 -4.3245 -2.9708
  679MOL0     H93636   4.272   8.775   6.238 -1.1422 -2.0252 -0.7200
  679MOL0     H93637   4.324   8.683   5.958  0.8283  0.6115  1.1446
  679MOL0     H93638   4.457   8.657   6.059  0.5575 -1.0347  0.4712
  679MOL0     H93639   4.322   8.545   6.225  1.4593 -2.4915 -0.5925
  679MOL0     H93640   4.183   8.537   6.109 -0.6760 -2.2963 -3.3670
  679MOL0     H93641   4.280   8.396   5.967  2.5017  0.3992 -1.9870
  679MOL0     H93642   4.449   8.437   6.007 -1.0522  3.9529 -1.3854
  679MOL0     H93643   4.306   8.311   6.236 -3.3396  0.1022 -3.0053
  679MOL0     H93644   4.456   8.265   6.168 -0.1777 -2.8949 -0.8173
  679MOL0     H93645   4.319   8.149   5.982  0.0383 -2.1219  0.1730
  679MOL0     H93646   4.299   8.080   6.143  0.9308  2.8929  2.6980
  679MOL0     H93647   4.093   8.282   6.065  1.7475  0.0371  0.2189
  679MOL0     H93648   4.087   8.137   6.169  3.3204 -0.4479  0.9484
  679MOL0     H93649   3.955   8.110   5.976  0.8127 -2.0728 -0.4072
  679MOL0     H93650   4.093   8.134   5.865  1.7185  1.7958  0.3219
  679MOL0     H93651   4.103   7.881   5.770 -0.0069  0.5388  0.9846
  679MOL0     H93652   4.156   7.639   5.742 -2.1248  1.0438  1.0954
  679MOL0     H93653   4.088   7.549   5.880  0.4198  1.0681  2.8874
  679MOL0     H93654   4.361   7.649   5.918 -0.5888  0.5026  2.2001
  679MOL0     H93655   4.279   7.537   6.009  1.9200  3.0044  1.0988
  679MOL0     H93656   4.433   7.414   5.868  0.8797  1.1982  0.7000
  679MOL0     H93657   4.276   7.384   5.788  1.0773  0.8561 -2.8573
  679MOL0     H93658   4.475   7.446   5.644  0.7345  0.5549 -0.9494
  679MOL0     H93659   4.321   7.525   5.615 -1.1784 -1.0011  1.1249
  679MOL0     H93660   4.663   7.604   5.499  2.7541  2.2701 -1.3227
  679MOL0     H93661   4.900   7.607   5.407  0.0630 -0.2338 -0.5345
  679MOL0     H93662   4.896   7.429   5.475  1.0533 -1.8193  5.1620
  679MOL0     H93663   5.026   7.539   5.503  0.1908 -0.5251 -2.0687
  679MOL0     H93664   5.229   7.371   5.958  2.2629 -0.3881 -2.0217
  679MOL0     H93665   5.466   7.409   6.071  1.5778  1.6726  3.2517
  679MOL0     H93666   5.595   7.513   6.295 -0.9415 -0.6724 -0.6560
  679MOL0     H93667   5.670   7.499   6.125  1.7261  1.0702 -0.1856
  679MOL0     H93668   5.847   7.569   6.281  3.4330  3.9530 -1.9754
  679MOL0     H93669   5.814   7.695   6.175  0.9442 -1.1850  0.5179
  679MOL0     H93670   5.676   7.682   6.449 -1.7701  1.8713  0.0717
  679MOL0     H93671   5.648   7.793   6.311 -0.8836 -0.6389 -0.5986
  679MOL0     H93672   5.820   7.915   6.450  2.1331  0.6989 -1.5175
  679MOL0     H93673   5.890   7.860   6.309  1.8971  0.2580  1.3170
  679MOL0     H93674   5.913   7.757   6.590 -3.9136 -1.4621 -0.7143
  679MOL0     H93675   5.947   7.634   6.482 -2.7816  1.2298 -2.0820
  679MOL0     H93676   6.154   7.720   6.400 -0.5022 -2.7538  1.9713
  679MOL0     H93677   6.138   7.744   6.579 -0.8477 -0.7803  0.5517
  679MOL0     H93678   6.067   7.991   6.524 -1.8380 -1.8998  2.0009
  679MOL0     H93679   6.119   7.943   6.352  0.6469  1.1252  0.6996
  679MOL0     H93680   6.321   8.064   6.469  0.3434 -0.4871  0.2799
  679MOL0     H93681   6.333   7.898   6.408  1.1840 -3.5890  2.1602
  679MOL0     H93682   5.364   7.823   6.110  0.7103 -0.8693  0.5150
  679MOL0     H93683   5.128   7.772   6.030  1.0726  0.8969  1.6113
  679MOL0     H93684   4.815   7.609   5.957 -2.3560 -0.5535  0.3990
  679MOL0     H93685   4.593   7.657   5.917 -2.9551 -2.6265 -1.6263
  679MOL0     H93686   4.474   8.885   6.345  0.4953 -1.5498 -0.4900
  679MOL0     H93687   4.709   8.927   6.389  0.9623 -2.9294 -0.3402
  679MOL0     H93688   5.121   8.984   6.156  0.2061  0.1664 -0.1886
  679MOL0     H93689   5.330   9.044   6.081 -0.8952  0.0764 -4.0693
  679MOL0     H93690   5.553   9.139   6.101 -0.3035 -2.9408 -3.1138
  679MOL0     H93691   5.489   9.172   5.936  0.6802  0.6189 -1.1470
  679MOL0     H93692   5.737   9.213   5.972  0.3549 -0.7660 -1.3110
  679MOL0     H93693   5.700   9.334   6.093  2.6261 -2.6247  0.0036
  679MOL0     H93694   5.553   9.390   5.825  0.5207 -0.0810 -1.2314
  679MOL0     H93695   5.601   9.484   5.973 -0.8931  0.0949 -0.3442
  679MOL0     H93696   5.842   9.480   5.892  1.0524 -1.1395 -0.7285
  679MOL0     H93697   5.740   9.540   5.761  0.1574 -1.8709 -2.1019
  679MOL0     H93698   5.858   9.166   5.601 -4.1527 -0.3034 -1.7405
  679MOL0     H93699   5.264   9.453   6.170  0.7261 -1.4599  0.4890
  679MOL0     H93700   4.901   9.421   6.188  2.2705 -1.5713 -2.5403
  679MOL0     H93701   4.971   9.432   6.355 -1.3817 -2.2872  0.4947
  679MOL0     H93702   5.044   9.529   6.225  2.2287 -0.0727  2.3760
  680MOL0     O93703   9.226   3.148   4.820 -0.0060 -0.5068  0.0520
  680MOL0     C93704   9.343   3.143   4.858  0.4101  0.7503 -0.7448
  680MOL0     O93705   9.438   3.077   4.790 -0.2630 -0.4432  0.7193
  680MOL0     C93706   9.415   3.051   4.660 -0.2709  0.4029 -0.1032
  680MOL0     C93707   9.317   2.955   4.614 -0.2104 -0.3398 -0.5208
  680MOL0     C93708   9.319   2.918   4.477  0.0226 -0.0515  0.2775
  680MOL0     C93709   9.404   2.987   4.388  0.4189 -0.6159  0.9586
  680MOL0     O93710   9.402   2.950   4.253 -0.3731 -0.2982 -0.1676
  680MOL0     C93711   9.394   3.054   4.154  0.4442 -1.1608 -0.6306
  680MOL0     C93712   9.321   3.011   4.018  0.3094 -0.7512 -0.7173
  680MOL0     C93713   9.171   2.994   4.032 -0.0035 -0.3090  0.0498
  680MOL0     C93714   9.105   2.928   3.912  0.6370  0.1486 -0.1655
  680MOL0     C93715   8.952   2.954   3.938 -0.0150  0.1763  0.2388
  680MOL0     C93716   8.863   2.900   3.833  0.5699 -0.1392  0.0453
  680MOL0     C93717   8.840   2.746   3.834  0.4866 -1.3121  0.9162
  680MOL0     C93718   8.821   2.693   3.695  0.2362  0.3187  0.6869
  680MOL0     N93719   8.809   2.551   3.700  0.2442  0.9776  0.6532
  680MOL0     C93720   8.815   2.465   3.588  0.8223 -0.3980 -0.0732
  680MOL0     C93721   8.776   2.346   3.638  0.0118  0.6800  0.1807
  680MOL0     C93722   8.773   2.217   3.560  1.0238 -0.4647 -0.3880
  680MOL0     C93723   8.629   2.191   3.519 -0.1739  0.4614  0.3684
  680MOL0     C93724   8.539   2.146   3.632 -0.2991  0.1998  1.1711
  680MOL0     C93725   8.396   2.156   3.605  0.6695 -0.6197 -0.0742
  680MOL0     O93726   8.325   2.105   3.712  0.4557  0.4287  0.0905
  680MOL0     C93727   8.189   2.094   3.698 -0.4787 -0.0948  0.4840
  680MOL0     C93728   8.124   2.139   3.584  0.5216  0.3195 -0.0464
  680MOL0     C93729   7.983   2.123   3.574  0.2745 -0.0430  0.6184
  680MOL0     C93730   7.921   2.187   3.446 -0.0473 -0.4272  1.0207
  680MOL0     C93731   7.899   2.069   3.680  0.0049  0.4499 -0.5316
  680MOL0     C93732   7.754   2.079   3.679  0.2803 -0.1028 -0.0820
  680MOL0     O93733   7.676   2.188   3.633 -0.1504  0.3982 -0.5899
  680MOL0     C93734   7.533   2.184   3.621  0.1884  0.1625 -0.0902
  680MOL0     C93735   7.443   2.129   3.716 -0.0089 -0.3938  0.2456
  680MOL0     C93736   7.308   2.128   3.706 -0.3312  0.4793  0.9410
  680MOL0     C93737   7.245   2.194   3.603  0.1808  1.1752  0.8442
  680MOL0     O93738   7.113   2.192   3.584  0.5417  1.4520 -0.5919
  680MOL0     C93739   7.043   2.064   3.620 -0.4349  0.3558  0.3967
  680MOL0     C93740   6.902   2.057   3.557 -1.0246  0.2814  0.1989
  680MOL0     C93741   6.798   2.152   3.604  0.2817  0.3334 -0.0516
  680MOL0     C93742   6.781   2.140   3.758  1.3925  0.3306  0.2098
  680MOL0     C93743   6.638   2.168   3.791 -0.7706  0.0459 -1.4129
  680MOL0     C93744   6.617   2.180   3.952  0.1803 -0.8283 -0.0225
  680MOL0     C93745   6.665   2.051   4.025  0.2263 -0.0475  0.6619
  680MOL0     C93746   6.628   2.060   4.176  0.3693  0.0148 -0.1218
  680MOL0    Cl93747   6.679   1.916   4.278 -0.1786  0.2214  0.2135
  680MOL0     C93748   7.323   2.269   3.519 -0.6795 -0.1452  0.2727
  680MOL0     C93749   7.467   2.265   3.524 -0.1621 -0.8444 -0.0434
  680MOL0     O93750   7.703   1.974   3.717  0.4866  0.5344  0.0158
  680MOL0     C93751   7.969   2.016   3.795  0.4281  0.0209 -0.3666
  680MOL0     C93752   8.115   2.028   3.797  0.6950 -0.2684 -0.7972
  680MOL0     N93753   8.745   2.359   3.767  0.9217  0.3455  0.6009
  680MOL0     N93754   8.746   2.483   3.801  0.0467 -0.3900 -0.5887
  680MOL0     C93755   9.491   3.089   4.436 -0.6927 -0.2731  0.0740
  680MOL0     C93756   9.489   3.122   4.570  0.1872  0.3205  0.0829
  680MOL0     C93757   9.380   3.206   4.986 -0.3493  0.8664  0.2544
  680MOL0     C93758   9.278   3.269   5.069 -0.2673  1.0618 -0.1319
  680MOL0     C93759   9.315   3.311   5.198  0.4933 -0.1622  0.2106
  680MOL0     C93760   9.447   3.313   5.242 -0.7032 -1.2088  0.2382
  680MOL0     O93761   9.492   3.360   5.367  1.5168 -0.1143 -0.4103
  680MOL0     C93762   9.389   3.433   5.436  0.7370  0.7326  0.0898
  680MOL0     C93763   9.443   3.459   5.571  0.6075  0.4318  0.4560
  680MOL0     C93764   9.346   3.510   5.672 -0.0557  0.0313  0.2601
  680MOL0     C93765   9.405   3.581   5.794 -0.1296  0.5379 -0.3047
  680MOL0     C93766   9.472   3.711   5.769 -0.5068  0.0523 -0.2113
  680MOL0     C93767   9.502   3.823   5.719 -0.2350  0.6103 -0.4655
  680MOL0     C93768   9.543   3.274   5.152 -0.2497 -0.1089  0.4870
  680MOL0     C93769   9.514   3.223   5.019 -0.9321  0.2072 -1.6021
  680MOL0     C93770   9.633   3.174   4.946 -0.0909  1.1358  0.9201
  680MOL0     H93771   9.241   2.922   4.685 -1.3477 -2.6761 -2.6586
  680MOL0     H93772   9.246   2.847   4.440 -2.1816  1.5386  1.3528
  680MOL0     H93773   9.496   3.086   4.132  0.5661 -1.5428 -0.6237
  680MOL0     H93774   9.329   3.133   4.194  2.5218  0.5916 -0.5148
  680MOL0     H93775   9.349   3.082   3.941  3.3426 -0.0486  0.8789
  680MOL0     H93776   9.371   2.917   3.995  2.4997  0.8857 -3.0190
  680MOL0     H93777   9.162   2.936   4.124 -0.1354  0.4531  0.5276
  680MOL0     H93778   9.143   3.099   4.046  1.3058 -0.1017  1.2995
  680MOL0     H93779   9.142   2.965   3.816 -1.5358 -1.6611 -1.8327
  680MOL0     H93780   9.136   2.823   3.916  1.7940  0.3797 -1.9708
  680MOL0     H93781   8.935   3.062   3.945 -0.5539  0.2278 -1.3898
  680MOL0     H93782   8.919   2.907   4.030  0.4203 -0.3932  0.1152
  680MOL0     H93783   8.766   2.951   3.841  0.3945 -0.7818  2.6923
  680MOL0     H93784   8.902   2.929   3.735 -5.0228 -2.8515 -3.5537
  680MOL0     H93785   8.747   2.732   3.891 -1.3714  0.9170 -1.3478
  680MOL0     H93786   8.917   2.689   3.886 -0.3539 -0.4339  3.2751
  680MOL0     H93787   8.734   2.734   3.643 -0.9165 -2.7273 -0.0128
  680MOL0     H93788   8.908   2.720   3.634  1.2588 -2.5928  0.6753
  680MOL0     H93789   8.862   2.473   3.491  3.1424 -0.8047  0.9293
  680MOL0     H93790   8.825   2.144   3.623  1.2196  0.2240  0.2660
  680MOL0     H93791   8.839   2.226   3.473 -0.0165  1.1981 -1.0515
  680MOL0     H93792   8.580   2.280   3.479 -2.3491 -0.8763 -0.1288
  680MOL0     H93793   8.628   2.107   3.450  2.8643 -0.4867  1.3176
  680MOL0     H93794   8.562   2.041   3.652  0.5537 -0.0961 -1.1164
  680MOL0     H93795   8.576   2.199   3.720  2.4350  0.2574  0.1015
  680MOL0     H93796   8.361   2.258   3.586  1.1346 -0.7488 -1.7558
  680MOL0     H93797   8.385   2.096   3.514  2.4493 -1.8866  0.4715
  680MOL0     H93798   8.180   2.194   3.509 -0.2463 -1.1451 -1.7925
  680MOL0     H93799   7.835   2.134   3.404 -2.2731  2.4169  1.6921
  680MOL0     H93800   7.998   2.201   3.370 -3.0939 -0.6801 -2.3911
  680MOL0     H93801   7.885   2.289   3.462  0.1713  0.3651 -2.7749
  680MOL0     H93802   7.475   2.074   3.803  1.9900  2.4436  1.4497
  680MOL0     H93803   7.246   2.080   3.781 -3.1317 -1.3014 -2.2273
  680MOL0     H93804   7.101   1.979   3.584  0.6996  0.5798  1.5871
  680MOL0     H93805   7.032   2.050   3.728  0.5375  0.7254  0.5553
  680MOL0     H93806   6.917   2.071   3.449 -2.2983  0.8429  0.0707
  680MOL0     H93807   6.861   1.959   3.580 -1.4587  0.4831  0.2936
  680MOL0     H93808   6.707   2.118   3.552  2.1116 -0.4070 -3.0295
  680MOL0     H93809   6.816   2.251   3.562  2.0868  0.1149  0.1346
  680MOL0     H93810   6.834   2.230   3.791 -0.8373  2.1078 -0.7859
  680MOL0     H93811   6.810   2.041   3.792 -1.4547 -2.6317 -4.7187
  680MOL0     H93812   6.596   2.250   3.730 -0.3366 -1.3013 -3.6417
  680MOL0     H93813   6.571   2.088   3.760 -5.1346  1.8617  2.2068
  680MOL0     H93814   6.519   2.225   3.972  2.0693  3.3375  1.1316
  680MOL0     H93815   6.689   2.257   3.982  1.2391 -2.1649  0.9626
  680MOL0     H93816   6.771   2.023   4.022  0.5470  1.1822 -1.1492
  680MOL0     H93817   6.606   1.964   3.992  0.0119 -0.3184  1.7211
  680MOL0     H93818   6.520   2.077   4.178 -0.1458 -2.8441  1.7747
  680MOL0     H93819   6.669   2.152   4.220 -2.7067  2.3959 -1.7763
  680MOL0     H93820   7.298   2.318   3.425  3.0974  1.7318  0.0468
  680MOL0     H93821   7.528   2.310   3.447 -1.6094 -1.8270 -1.8277
  680MOL0     H93822   7.915   1.994   3.887 -1.5657 -0.1380 -1.5126
  680MOL0     H93823   8.176   1.993   3.879  2.9436  0.8328 -1.8967
  680MOL0     H93824   9.564   3.138   4.373 -3.0632  1.2659 -1.6037
  680MOL0     H93825   9.552   3.206   4.597 -0.4740  1.2961 -1.2891
  680MOL0     H93826   9.177   3.272   5.030 -0.2690 -0.5327 -0.3431
  680MOL0     H93827   9.230   3.354   5.249  1.3219 -1.2511  2.6625
  680MOL0     H93828   9.356   3.522   5.381  3.5291 -0.1793 -3.3809
  680MOL0     H93829   9.295   3.377   5.446  0.1689  1.7241  0.5539
  680MOL0     H93830   9.524   3.531   5.554 -0.0218  1.2164  0.7456
  680MOL0     H93831   9.481   3.364   5.609 -2.9306 -1.7654 -1.0180
  680MOL0     H93832   9.291   3.582   5.611  3.0707  1.2472 -1.4055
  680MOL0     H93833   9.278   3.426   5.691 -0.1441  0.0050 -0.1569
  680MOL0     H93834   9.470   3.507   5.842 -1.6254 -1.0298 -0.5638
  680MOL0     H93835   9.318   3.598   5.858 -0.4671 -1.1557 -0.2599
  680MOL0     H93836   9.511   3.912   5.660 -0.2050  0.7084 -0.3142
  680MOL0     H93837   9.645   3.291   5.184 -0.1991 -0.0731  0.3099
  680MOL0     H93838   9.643   3.209   4.843 -0.7735  0.8586  0.7546
  680MOL0     H93839   9.723   3.208   4.999  1.9866 -2.1971 -0.1766
  680MOL0     H93840   9.658   3.067   4.944  1.2753  1.4240  1.0630
  681MOL0     O93841   3.012   1.072   9.660  0.2324 -0.1862  0.9208
  681MOL0     C93842   3.052   1.167   9.589 -0.5383  0.2765 -0.0233
  681MOL0     O93843   3.094   1.288   9.639  0.1112 -0.7242  0.3210
  681MOL0     C93844   3.115   1.331   9.772 -0.2338 -0.4941 -0.3231
  681MOL0     C93845   3.217   1.419   9.796  0.8048  0.1978 -0.1500
  681MOL0     C93846   3.238   1.467   9.923  0.2566 -0.7119  0.8507
  681MOL0     C93847   3.146   1.449  10.032 -0.1323 -0.1702 -0.2164
  681MOL0     O93848   3.138   1.512  10.159 -0.5148 -0.0514 -0.3221
  681MOL0     C93849   3.172   1.649  10.178 -0.1619 -0.1653  0.4897
  681MOL0     C93850   3.160   1.681  10.321 -0.3995  0.6780 -1.0392
  681MOL0     C93851   3.196   1.833  10.351 -0.7100  0.2555 -0.5595
  681MOL0     C93852   3.345   1.854  10.321 -0.0259 -0.6529  0.7959
  681MOL0     C93853   3.379   2.008  10.335  0.7312 -0.0383 -0.1410
  681MOL0     C93854   3.531   2.044  10.315  0.2875  0.7272 -0.1468
  681MOL0     C93855   3.580   2.006  10.176  0.8500  0.2665  0.3979
  681MOL0     C93856   3.505   2.078  10.058  0.5117 -0.5772  0.4204
  681MOL0     N93857   3.522   1.998   9.936 -0.1992 -0.3462  0.2125
  681MOL0     C93858   3.431   1.984   9.830 -0.0459 -0.3538 -0.3193
  681MOL0     C93859   3.485   1.905   9.730 -0.3861  0.3741 -0.1464
  681MOL0     C93860   3.411   1.868   9.600 -0.7182  0.6690 -0.1171
  681MOL0     C93861   3.473   1.738   9.538 -0.3345  0.2682  0.9785
  681MOL0     C93862   3.382   1.668   9.427  0.3238  0.2331 -0.7418
  681MOL0     C93863   3.443   1.553   9.365  0.5014 -0.1218 -0.4148
  681MOL0     O93864   3.484   1.440   9.456 -0.4116 -0.3071  0.6299
  681MOL0     C93865   3.529   1.317   9.410  0.8831 -0.0007 -0.3881
  681MOL0     C93866   3.594   1.313   9.286  0.7883 -0.3024  0.3353
  681MOL0     C93867   3.623   1.187   9.238 -0.0354 -1.0164  0.3885
  681MOL0     C93868   3.647   1.175   9.081 -0.0551  0.2815 -0.3913
  681MOL0     C93869   3.612   1.066   9.316 -0.1767 -1.4912 -0.2074
  681MOL0     C93870   3.640   0.931   9.275  0.1881 -0.1578 -0.2667
  681MOL0     O93871   3.594   0.826   9.361 -0.2539  0.0438  0.1579
  681MOL0     C93872   3.674   0.715   9.364 -0.3119  0.3442  0.1244
  681MOL0     C93873   3.673   0.626   9.258 -0.3994  0.5771  0.3321
  681MOL0     C93874   3.738   0.502   9.251  0.4058 -0.3165  0.1771
  681MOL0     C93875   3.818   0.468   9.364  0.1178  0.9548 -0.0341
  681MOL0     O93876   3.875   0.348   9.354  0.6239 -0.1613  0.0721
  681MOL0     C93877   3.987   0.321   9.436  1.1062 -0.2949 -0.2496
  681MOL0     C93878   4.030   0.173   9.419  0.1990 -0.5231  0.5812
  681MOL0     C93879   4.168   0.151   9.486  0.1038 -0.4070 -0.7292
  681MOL0     C93880   4.154   0.141   9.637  0.4278  0.7965  0.2406
  681MOL0     C93881   4.286   0.087   9.710 -0.1042  0.2873  0.2020
  681MOL0     C93882   4.270   0.106   9.863 -0.0908 -0.8453 -0.5453
  681MOL0     C93883   4.149   0.048   9.922  1.2587 -0.6994 -0.8367
  681MOL0     C93884   4.161  -0.107   9.931  0.0920  0.3337 -0.9942
  681MOL0    Cl93885   4.032  -0.189  10.018  0.0576 -0.2455  0.0661
  681MOL0     C93886   3.821   0.553   9.480  0.0719  0.1631 -0.1817
  681MOL0     C93887   3.754   0.674   9.477  0.4451  0.1730 -0.2324
  681MOL0     O93888   3.733   0.929   9.198 -0.0114  0.0627  0.2840
  681MOL0     C93889   3.573   1.083   9.450 -0.1684  0.6987 -0.1611
  681MOL0     C93890   3.523   1.203   9.494 -0.5609 -0.1852  0.2831
  681MOL0     N93891   3.615   1.881   9.781  0.4801 -0.0868  0.1776
  681MOL0     N93892   3.640   1.943   9.891 -0.3185 -0.2709 -1.2666
  681MOL0     C93893   3.055   1.345  10.011  1.1340  0.0342 -0.1981
  681MOL0     C93894   3.036   1.300   9.880  0.4649  0.3850 -0.2952
  681MOL0     C93895   3.046   1.143   9.442  0.3638 -0.7331 -0.5852
  681MOL0     C93896   3.017   1.248   9.356  0.6687  0.0263 -0.7153
  681MOL0     C93897   3.021   1.231   9.220  0.3091  0.1849  0.3067
  681MOL0     C93898   3.042   1.114   9.153  0.7537 -0.2257 -0.1419
  681MOL0     O93899   3.047   1.121   9.023 -0.2886 -0.3146  0.1975
  681MOL0     C93900   3.047   1.006   8.940  0.0718  0.3388  0.1269
  681MOL0     C93901   3.103   1.049   8.811 -0.3591 -0.0749  0.1030
  681MOL0     C93902   3.125   0.921   8.722  0.1565  0.6220  0.3413
  681MOL0     C93903   3.004   0.829   8.679 -0.6908 -0.6750  0.3517
  681MOL0     C93904   2.885   0.899   8.645  0.8520  0.6149 -0.1446
  681MOL0     C93905   2.769   0.948   8.619 -0.3717  0.5684  0.0276
  681MOL0     C93906   3.056   1.002   9.244 -0.1194 -0.0420  0.1878
  681MOL0     C93907   3.075   1.022   9.381 -0.2072 -0.3618 -0.7315
  681MOL0     C93908   3.118   0.899   9.455  0.0562 -0.5454 -1.2448
  681MOL0     H93909   3.274   1.470   9.719  1.2100  1.7352  1.1004
  681MOL0     H93910   3.313   1.543   9.947  0.2944 -1.1897  2.4005
  681MOL0     H93911   3.099   1.705  10.119 -0.2945 -1.2594 -0.4023
  681MOL0     H93912   3.272   1.671  10.141 -1.0593 -2.1360 -3.6148
  681MOL0     H93913   3.063   1.652  10.361  2.3213 -3.7945  3.4540
  681MOL0     H93914   3.238   1.630  10.377  0.0024  1.8333 -0.5030
  681MOL0     H93915   3.135   1.905  10.297 -0.2707  2.1728  1.3573
  681MOL0     H93916   3.167   1.857  10.454 -0.5558 -1.8194  0.0261
  681MOL0     H93917   3.390   1.796  10.402  0.9610 -2.1176 -0.7499
  681MOL0     H93918   3.379   1.809  10.228 -2.2292 -1.9745  0.5542
  681MOL0     H93919   3.342   2.049  10.430  1.2700  2.2024 -0.8340
  681MOL0     H93920   3.317   2.061  10.263 -0.3152 -2.7963 -1.4256
  681MOL0     H93921   3.550   2.151  10.327  4.1703  0.1620  0.0253
  681MOL0     H93922   3.586   1.987  10.391  1.9555  3.3397  0.7490
  681MOL0     H93923   3.566   1.898  10.169  0.2620  0.3357  0.4033
  681MOL0     H93924   3.688   2.019  10.165  0.8637 -0.5646 -0.5168
  681MOL0     H93925   3.398   2.084  10.079  0.6932 -0.3125  1.3349
  681MOL0     H93926   3.534   2.182  10.044  0.3922 -0.2442  2.3937
  681MOL0     H93927   3.326   2.011   9.821 -0.3180 -1.7969 -1.9572
  681MOL0     H93928   3.439   1.939   9.522  0.3826 -1.3037 -1.5998
  681MOL0     H93929   3.306   1.870   9.630  0.1086 -0.6116  3.3845
  681MOL0     H93930   3.573   1.741   9.494 -2.0795 -1.4756 -3.7625
  681MOL0     H93931   3.474   1.665   9.619  1.1643 -0.0598  0.7009
  681MOL0     H93932   3.287   1.633   9.469  0.7133  0.5339  0.4192
  681MOL0     H93933   3.358   1.740   9.349 -1.3879  0.5001 -0.0172
  681MOL0     H93934   3.365   1.509   9.303 -0.5435 -1.7963  1.9312
  681MOL0     H93935   3.528   1.590   9.307 -0.3051 -1.3043 -2.4454
  681MOL0     H93936   3.600   1.403   9.225  1.7184  0.6035  1.6856
  681MOL0     H93937   3.601   1.253   9.020 -2.4121 -1.3849 -0.8797
  681MOL0     H93938   3.599   1.087   9.037  0.1704  1.5215 -3.3609
  681MOL0     H93939   3.752   1.176   9.049 -1.1784  1.3421 -4.6350
  681MOL0     H93940   3.608   0.651   9.175 -0.8987 -0.1307  0.5019
  681MOL0     H93941   3.719   0.430   9.172  0.6958  0.1816 -0.3607
  681MOL0     H93942   4.075   0.380   9.412  3.5057 -1.4999  4.4692
  681MOL0     H93943   3.970   0.334   9.543 -1.1538 -1.1419 -0.4429
  681MOL0     H93944   3.956   0.107   9.464  0.5896 -1.1143  0.3639
  681MOL0     H93945   4.039   0.155   9.311 -2.2547 -0.8598  0.3776
  681MOL0     H93946   4.243   0.226   9.462  1.2022 -1.2729 -0.0922
  681MOL0     H93947   4.219   0.059   9.455 -1.0436 -1.9111  1.6017
  681MOL0     H93948   4.084   0.061   9.663  2.1334 -0.4674  1.0862
  681MOL0     H93949   4.112   0.224   9.695  0.0650 -2.4707  5.2698
  681MOL0     H93950   4.319  -0.015   9.686  1.9840  0.6295  1.3984
  681MOL0     H93951   4.360   0.166   9.691 -2.1857  3.1599  2.9721
  681MOL0     H93952   4.273   0.213   9.887  2.1272 -0.4641 -2.1885
  681MOL0     H93953   4.357   0.062   9.913 -0.6076 -1.3768 -0.1007
  681MOL0     H93954   4.055   0.069   9.870  0.8122 -2.6243 -0.8781
  681MOL0     H93955   4.143   0.087  10.024 -1.1759 -3.5668  0.2663
  681MOL0     H93956   4.250  -0.130   9.991 -0.1163 -2.4747 -1.6490
  681MOL0     H93957   4.178  -0.154   9.834  0.1442  0.4947 -1.0648
  681MOL0     H93958   3.873   0.523   9.571  1.6600 -0.7909 -1.3617
  681MOL0     H93959   3.767   0.750   9.553 -0.6895  0.3588 -0.1979
  681MOL0     H93960   3.577   1.003   9.523  3.7489  0.3572 -0.5341
  681MOL0     H93961   3.477   1.202   9.592 -0.9031  0.5229  0.1430
  681MOL0     H93962   2.994   1.306  10.092 -3.7297  0.7918 -3.1218
  681MOL0     H93963   2.969   1.216   9.868 -0.3455  1.1220 -1.1782
  681MOL0     H93964   2.994   1.341   9.408  1.5167 -0.2746  0.2313
  681MOL0     H93965   2.993   1.318   9.161 -1.5717  0.0674  0.9538
  681MOL0     H93966   3.112   0.928   8.981  1.0076  1.0605  0.0668
  681MOL0     H93967   2.946   0.967   8.930 -0.0425  0.3326  1.2005
  681MOL0     H93968   3.202   1.090   8.830 -0.3641  1.2290 -2.2370
  681MOL0     H93969   3.048   1.128   8.759  0.5524  2.9557  3.3494
  681MOL0     H93970   3.173   0.961   8.632  0.3217  1.3034  0.7236
  681MOL0     H93971   3.201   0.854   8.763  1.5303  0.9696 -1.4650
  681MOL0     H93972   2.987   0.768   8.767  0.0029 -2.5293 -0.7519
  681MOL0     H93973   3.024   0.759   8.597 -0.4508 -2.5488  1.9580
  681MOL0     H93974   2.677   0.998   8.596 -0.3486  0.5604 -0.0826
  681MOL0     H93975   3.058   0.898   9.216  1.4725  0.4855 -1.9339
  681MOL0     H93976   3.026   0.861   9.501  1.2242  1.6503  3.5613
  681MOL0     H93977   3.160   0.823   9.388  0.0324 -0.7802 -0.9970
  681MOL0     H93978   3.189   0.912   9.538  0.2027 -0.7380 -1.3392
  682MOL0     O93979   5.580   8.854   3.286  0.6664 -0.0339 -0.0319
  682MOL0     C93980   5.668   8.777   3.323  0.4358 -0.8028 -0.2544
  682MOL0     O93981   5.790   8.810   3.386  0.2399 -0.2133 -0.6573
  682MOL0     C93982   5.833   8.938   3.371  0.4143 -0.5837  0.5696
  682MOL0     C93983   5.827   8.996   3.245 -0.0773 -0.6832 -0.3186
  682MOL0     C93984   5.868   9.128   3.226  0.3253  0.2816  0.4024
  682MOL0     C93985   5.908   9.213   3.340 -0.1499  1.1508  1.0575
  682MOL0     O93986   5.922   9.345   3.324 -0.0997 -0.4926 -0.2154
  682MOL0     C93987   5.959   9.393   3.197 -0.3664 -0.0255 -1.1936
  682MOL0     C93988   6.015   9.533   3.201  0.4313  0.6233 -1.4051
  682MOL0     C93989   6.003   9.589   3.061 -0.3834 -0.0884 -0.9698
  682MOL0     C93990   6.023   9.737   3.072 -0.1506 -0.1686  0.5690
  682MOL0     C93991   6.033   9.805   2.928 -0.2838  0.7073  0.5260
  682MOL0     C93992   6.049   9.955   2.941 -0.1205  0.6621  1.6447
  682MOL0     C93993   6.045  10.021   2.798 -0.2990  0.4569  0.7115
  682MOL0     C93994   5.904  10.020   2.751  0.7230  0.1736 -0.5261
  682MOL0     N93995   5.900  10.046   2.606 -1.0787 -0.8803  0.0096
  682MOL0     C93996   5.936  10.168   2.548 -0.1926 -0.1158  0.2075
  682MOL0     C93997   5.954  10.154   2.417  0.1648 -0.4796 -0.4115
  682MOL0     C93998   5.974  10.271   2.321  0.7425 -0.9884 -0.2902
  682MOL0     C93999   5.890  10.399   2.354  0.3818 -0.1170  0.3152
  682MOL0     C94000   5.957  10.519   2.285 -0.8982  0.2306  0.1964
  682MOL0     C94001   5.876  10.646   2.311 -0.7172  1.0002 -0.8303
  682MOL0     O94002   5.743  10.644   2.273  0.2583 -0.6583  0.6586
  682MOL0     C94003   5.691  10.701   2.153 -0.4059  0.3085 -0.0016
  682MOL0     C94004   5.728  10.818   2.087 -0.4868 -0.9953 -0.4900
  682MOL0     C94005   5.669  10.857   1.962  1.0900 -0.4572 -0.1145
  682MOL0     C94006   5.707  10.988   1.902 -0.2550  0.2924 -0.7482
  682MOL0     C94007   5.563  10.776   1.911  1.1335 -0.8731 -0.5206
  682MOL0     C94008   5.486  10.800   1.788 -0.1301 -0.0521 -0.7369
  682MOL0     O94009   5.413  10.699   1.729  0.3310 -0.5499 -0.0192
  682MOL0     C94010   5.358  10.733   1.610  0.4639 -0.3723 -0.3489
  682MOL0     C94011   5.433  10.746   1.491  0.0020 -0.0579 -0.7202
  682MOL0     C94012   5.371  10.780   1.369  0.6545 -0.3891  0.4391
  682MOL0     C94013   5.228  10.795   1.357 -0.8916 -1.2001  0.4718
  682MOL0     O94014   5.180  10.837   1.234  0.3156  0.7527 -0.2185
  682MOL0     C94015   5.062  10.916   1.223  0.8821  0.2325 -0.2152
  682MOL0     C94016   5.006  10.897   1.081 -0.1823 -0.2636  1.2568
  682MOL0     C94017   4.875  10.974   1.071 -0.1255 -1.6908 -0.0413
  682MOL0     C94018   4.853  11.108   0.990 -0.1904 -0.6204  0.5901
  682MOL0     C94019   4.728  11.200   1.020 -0.3593  0.8913  0.0651
  682MOL0     C94020   4.602  11.157   0.936 -0.2982  0.3071 -0.1341
  682MOL0     C94021   4.481  11.252   0.954 -0.3425 -0.1873  1.0055
  682MOL0     C94022   4.343  11.187   0.922  0.5547  0.3907 -0.2223
  682MOL0    Cl94023   4.338  11.033   0.834  0.2372  0.0662 -0.4671
  682MOL0     C94024   5.157  10.796   1.482 -0.8382  0.3914  0.9560
  682MOL0     C94025   5.221  10.756   1.604  0.5498 -0.1458  0.3823
  682MOL0     O94026   5.479  10.920   1.756  0.1989  0.3213 -0.7266
  682MOL0     C94027   5.544  10.654   1.970  0.8133 -0.5908 -0.5870
  682MOL0     C94028   5.595  10.624   2.090 -1.0237  0.2713 -0.6307
  682MOL0     N94029   5.935  10.018   2.389  0.6250 -0.1844 -0.4022
  682MOL0     N94030   5.897   9.957   2.496 -1.4347  0.2995 -0.5020
  682MOL0     C94031   5.897   9.148   3.467 -0.1399 -0.0625 -0.5426
  682MOL0     C94032   5.860   9.010   3.485  1.0558  0.4373  0.5550
  682MOL0     C94033   5.652   8.637   3.285  0.2639 -1.3563  0.1216
  682MOL0     C94034   5.697   8.539   3.374 -0.7295 -0.2761  0.4437
  682MOL0     C94035   5.685   8.399   3.343  0.3196 -0.5304  0.7984
  682MOL0     C94036   5.623   8.354   3.225  0.4270 -1.2734 -0.6573
  682MOL0     O94037   5.607   8.214   3.203 -0.2079 -0.1188 -0.0423
  682MOL0     C94038   5.550   8.175   3.072  0.0599  0.3086 -1.0326
  682MOL0     C94039   5.577   8.032   3.032 -0.3608  0.0922  0.0642
  682MOL0     C94040   5.489   7.975   2.923  0.7937  0.3515  0.0183
  682MOL0     C94041   5.502   8.056   2.789  0.3163  0.4370 -0.1710
  682MOL0     C94042   5.408   8.162   2.791 -0.4911  0.2801  0.0452
  682MOL0     C94043   5.310   8.236   2.787  0.4165 -1.0133 -0.3478
  682MOL0     C94044   5.566   8.454   3.148 -0.4680 -0.9390  0.3410
  682MOL0     C94045   5.580   8.592   3.166 -0.2763 -0.1979  0.5302
  682MOL0     C94046   5.523   8.680   3.059  0.4016  0.8374 -0.7191
  682MOL0     H94047   5.798   8.945   3.154  0.9191 -1.0304 -0.4560
  682MOL0     H94048   5.861   9.174   3.129 -0.8460 -1.1783 -0.2500
  682MOL0     H94049   5.885   9.392   3.117  1.7661 -0.2574 -3.2968
  682MOL0     H94050   6.047   9.333   3.170  0.1059  1.3678 -2.9364
  682MOL0     H94051   5.966   9.600   3.272 -1.0189 -1.1960 -0.5788
  682MOL0     H94052   6.119   9.515   3.231 -0.2883 -2.9027 -0.5960
  682MOL0     H94053   6.078   9.536   3.003  0.2395  1.1954 -1.3750
  682MOL0     H94054   5.909   9.561   3.012 -1.2060 -1.8020  1.3885
  682MOL0     H94055   5.943   9.785   3.129  2.5268  2.2739  2.5344
  682MOL0     H94056   6.121   9.745   3.120  0.6037 -0.8196 -0.8131
  682MOL0     H94057   5.945   9.772   2.871  1.0916 -2.4453 -0.0186
  682MOL0     H94058   6.123   9.779   2.872 -0.1610 -0.2953  1.1603
  682MOL0     H94059   5.967   9.995   3.001 -1.4063  1.9456 -0.8135
  682MOL0     H94060   6.143   9.958   2.997  1.7962 -1.5269 -1.1876
  682MOL0     H94061   6.123   9.970   2.741  0.4337  1.0168  1.2104
  682MOL0     H94062   6.083  10.124   2.798 -3.2974  1.7804 -2.4538
  682MOL0     H94063   5.854   9.925   2.768 -2.3633  1.5157 -1.4277
  682MOL0     H94064   5.841  10.086   2.811 -1.0461 -0.5707 -1.5086
  682MOL0     H94065   5.952  10.258   2.605 -0.3438 -1.1154  1.8916
  682MOL0     H94066   5.941  10.256   2.218 -2.9835 -0.3874  0.6573
  682MOL0     H94067   6.081  10.291   2.311  0.1096  2.4477 -1.5720
  682MOL0     H94068   5.797  10.386   2.299  2.3295 -1.4037 -2.9498
  682MOL0     H94069   5.880  10.420   2.461  1.2763  0.4445  0.2990
  682MOL0     H94070   6.062  10.534   2.312  0.0189 -0.7461 -2.4937
  682MOL0     H94071   5.944  10.499   2.178  1.4815 -1.2849  0.0924
  682MOL0     H94072   5.878  10.650   2.421 -1.0201 -0.3057 -0.7537
  682MOL0     H94073   5.932  10.726   2.263  1.6241 -1.0474 -1.7224
  682MOL0     H94074   5.818  10.866   2.124 -0.5696  0.3236 -1.8931
  682MOL0     H94075   5.713  10.974   1.794  1.9523 -2.1061 -0.4150
  682MOL0     H94076   5.801  11.023   1.946  0.7637 -0.6376 -2.1522
  682MOL0     H94077   5.632  11.067   1.916  1.0693  2.4358 -4.3936
  682MOL0     H94078   5.541  10.754   1.498 -0.0712  1.1774 -0.7319
  682MOL0     H94079   5.434  10.798   1.283 -1.3420 -2.4083 -1.6124
  682MOL0     H94080   4.983  10.880   1.290  1.3476 -0.7715 -0.1764
  682MOL0     H94081   5.085  11.021   1.241 -0.2772  1.0218 -2.8611
  682MOL0     H94082   5.078  10.940   1.011 -0.8214  0.8945  1.2947
  682MOL0     H94083   4.978  10.795   1.054  3.3870 -0.6161 -1.9730
  682MOL0     H94084   4.849  11.004   1.172  1.4554 -0.5780  0.0774
  682MOL0     H94085   4.796  10.902   1.049 -2.7489  0.7271  0.8380
  682MOL0     H94086   4.849  11.083   0.883  2.3103  0.2062  0.2364
  682MOL0     H94087   4.938  11.178   0.990 -0.5184 -0.0948 -2.2629
  682MOL0     H94088   4.708  11.214   1.127 -0.3721 -0.6009  0.2873
  682MOL0     H94089   4.753  11.297   0.979  2.3174 -0.3665 -1.5225
  682MOL0     H94090   4.569  11.063   0.982 -2.5191  0.5013 -1.2426
  682MOL0     H94091   4.647  11.140   0.838  2.9974  0.1466  1.2601
  682MOL0     H94092   4.506  11.334   0.886  1.8087 -0.8598  0.8935
  682MOL0     H94093   4.478  11.302   1.052 -1.0400  0.3702  0.7082
  682MOL0     H94094   4.283  11.257   0.864 -0.6727  0.0110  0.5532
  682MOL0     H94095   4.292  11.167   1.017 -1.8709 -0.8411 -1.7013
  682MOL0     H94096   5.049  10.809   1.476 -0.7806  0.5209 -4.1064
  682MOL0     H94097   5.175  10.741   1.702  0.2228 -1.1593  0.0911
  682MOL0     H94098   5.463  10.595   1.928 -1.5717  1.8873  0.2199
  682MOL0     H94099   5.568  10.531   2.140  1.5093 -1.4952 -2.2699
  682MOL0     H94100   5.914   9.217   3.549  1.8829  1.7198 -2.3435
  682MOL0     H94101   5.869   8.970   3.586  0.5881  0.9537  0.8067
  682MOL0     H94102   5.770   8.563   3.451  0.8390  0.8207 -1.2997
  682MOL0     H94103   5.739   8.336   3.413  1.3066  2.7336  3.2343
  682MOL0     H94104   5.442   8.177   3.086 -0.0751 -3.3851 -0.6299
  682MOL0     H94105   5.577   8.248   2.995  1.0643  0.7950 -0.2621
  682MOL0     H94106   5.557   7.975   3.123 -2.0094 -0.7370 -0.7759
  682MOL0     H94107   5.683   8.019   3.008 -0.9143 -1.4823 -1.8011
  682MOL0     H94108   5.519   7.872   2.902  0.0774  0.4353 -1.5570
  682MOL0     H94109   5.393   7.976   2.976  2.1369  0.9465  2.5859
  682MOL0     H94110   5.478   7.995   2.702  0.0423 -2.2734  1.6598
  682MOL0     H94111   5.606   8.090   2.778 -0.4159  3.0802  0.4145
  682MOL0     H94112   5.245   8.322   2.785  1.3669 -0.2874 -1.1404
  682MOL0     H94113   5.502   8.431   3.063 -1.8387 -0.5088  1.2126
  682MOL0     H94114   5.431   8.729   3.091  0.1709 -1.8742  3.6487
  682MOL0     H94115   5.592   8.758   3.024  0.8802  0.8277  0.1570
  682MOL0     H94116   5.502   8.629   2.965 -1.9222  2.1038 -0.9561
  683MOL0     O94117  11.377   4.208   6.193  0.4870 -0.1957 -0.0803
  683MOL0     C94118  11.436   4.218   6.086 -0.2957 -1.1145  0.1582
  683MOL0     O94119  11.498   4.325   6.038 -0.0394 -1.6549  0.3954
  683MOL0     C94120  11.471   4.457   6.086  0.3296  0.0541 -0.5553
  683MOL0     C94121  11.489   4.558   5.992  0.3778 -0.3129  0.3772
  683MOL0     C94122  11.470   4.691   6.039 -0.3781  0.1918  0.0396
  683MOL0     C94123  11.420   4.724   6.167  0.0237 -0.1641  0.0826
  683MOL0     O94124  11.381   4.856   6.200 -0.0654  0.0315  0.1825
  683MOL0     C94125  11.253   4.873   6.273  0.6741 -0.3602 -1.0779
  683MOL0     C94126  11.238   5.024   6.308  0.1944  0.6260 -0.5783
  683MOL0     C94127  11.229   5.122   6.185 -0.5471  0.6113  0.6598
  683MOL0     C94128  11.114   5.221   6.193 -0.8513  0.7475  0.7736
  683MOL0     C94129  11.151   5.320   6.294 -0.1232 -0.9261 -0.3226
  683MOL0     C94130  11.045   5.432   6.308  0.0449 -0.1525  0.6151
  683MOL0     C94131  11.074   5.544   6.203 -1.7461  0.2587  0.2152
  683MOL0     C94132  10.980   5.664   6.190  0.6943 -0.5780  0.6649
  683MOL0     N94133  10.848   5.628   6.145 -1.0829 -0.8261 -0.1632
  683MOL0     C94134  10.818   5.530   6.049 -0.1989  0.5960  0.3872
  683MOL0     C94135  10.692   5.497   6.088  0.0040  0.9030  1.0672
  683MOL0     C94136  10.637   5.364   6.031 -0.1839 -0.4887 -0.1452
  683MOL0     C94137  10.542   5.302   6.139  0.0174  0.7176 -0.0784
  683MOL0     C94138  10.412   5.388   6.134  0.3067 -0.1719  0.1239
  683MOL0     C94139  10.368   5.445   6.262 -0.2213  0.6339  0.6441
  683MOL0     O94140  10.346   5.335   6.340  0.1751  0.4568 -0.3722
  683MOL0     C94141  10.312   5.372   6.469  0.6408  0.2421 -0.3146
  683MOL0     C94142  10.412   5.368   6.569 -0.5202 -0.2907 -0.8614
  683MOL0     C94143  10.379   5.407   6.703  0.2644  0.0304  0.2063
  683MOL0     C94144  10.495   5.431   6.790  0.5349  0.0926  0.4454
  683MOL0     C94145  10.240   5.436   6.733 -0.1527 -0.5598  0.1905
  683MOL0     C94146  10.185   5.478   6.865 -1.1479 -0.2616 -0.3996
  683MOL0     O94147  10.076   5.567   6.867  0.0678 -0.6821 -0.3367
  683MOL0     C94148  10.022   5.603   6.992 -0.0501 -0.3807  0.3557
  683MOL0     C94149  10.018   5.738   7.034 -0.9221 -0.2369 -0.0715
  683MOL0     C94150   9.989   5.770   7.164  0.6086  0.2846 -0.0557
  683MOL0     C94151   9.953   5.670   7.247  0.2920 -0.2127 -0.3158
  683MOL0     O94152   9.904   5.691   7.370  0.1563  0.2661 -0.9528
  683MOL0     C94153   9.980   5.642   7.481  0.0558  0.5076  0.3802
  683MOL0     C94154   9.891   5.647   7.613  0.7061  0.0037  0.4956
  683MOL0     C94155   9.780   5.557   7.632  0.0844  0.9155  0.5883
  683MOL0     C94156   9.828   5.411   7.624  0.0371  0.5861 -0.9219
  683MOL0     C94157   9.737   5.315   7.707 -0.4133 -0.7150  0.7651
  683MOL0     C94158   9.794   5.171   7.696  0.4969  0.9409  0.0557
  683MOL0     C94159   9.708   5.060   7.760  0.0855  0.0331 -0.6124
  683MOL0     C94160   9.574   5.035   7.689 -0.7669 -0.3245 -0.9759
  683MOL0    Cl94161   9.502   4.892   7.778  0.2578 -0.4619 -0.0264
  683MOL0     C94162   9.947   5.541   7.206 -0.3350  0.8328 -0.9329
  683MOL0     C94163   9.989   5.510   7.085  0.9062  0.5337  0.2187
  683MOL0     O94164  10.252   5.455   6.963  0.5800  0.8159  0.3333
  683MOL0     C94165  10.145   5.436   6.624 -0.6508 -0.1606 -1.2118
  683MOL0     C94166  10.177   5.396   6.498  0.5441 -0.3756  0.1822
  683MOL0     N94167  10.644   5.584   6.185  0.6642  0.0063  0.6493
  683MOL0     N94168  10.741   5.659   6.216  0.4036  0.6183 -0.4834
  683MOL0     C94169  11.412   4.624   6.266 -0.2044  0.0062  0.3720
  683MOL0     C94170  11.434   4.494   6.223 -0.3487  0.6511 -0.2534
  683MOL0     C94171  11.453   4.100   5.997 -0.2777 -0.3751 -0.6060
  683MOL0     C94172  11.578   4.083   5.933  0.1134 -0.8702 -0.4828
  683MOL0     C94173  11.595   3.987   5.828  0.7915 -0.3002  0.6261
  683MOL0     C94174  11.495   3.906   5.785 -0.9371  0.1483 -0.0707
  683MOL0     O94175  11.524   3.831   5.676 -0.0804 -0.3456 -0.3345
  683MOL0     C94176  11.436   3.718   5.646 -0.9455  0.8307  0.6291
  683MOL0     C94177  11.474   3.667   5.502 -0.6959  0.5056  0.8535
  683MOL0     C94178  11.483   3.778   5.406  0.4367 -0.6421 -0.2136
  683MOL0     C94179  11.480   3.724   5.268 -0.5904 -0.7168  1.2063
  683MOL0     C94180  11.513   3.820   5.162  0.0135  0.8726 -0.2985
  683MOL0     C94181  11.560   3.887   5.073 -0.3715 -0.2525  0.7517
  683MOL0     C94182  11.369   3.915   5.851 -0.8218  0.5168  0.1315
  683MOL0     C94183  11.356   4.004   5.958 -0.8552  0.1392  0.2966
  683MOL0     C94184  11.223   4.016   6.024  0.2472 -0.1776 -0.8556
  683MOL0     H94185  11.522   4.523   5.895  0.0796 -1.2358  0.5967
  683MOL0     H94186  11.479   4.770   5.965 -4.3278  2.9419  2.1244
  683MOL0     H94187  11.264   4.802   6.355  5.6557 -0.9288 -1.8951
  683MOL0     H94188  11.163   4.851   6.214 -0.1374 -2.9330  0.9558
  683MOL0     H94189  11.148   5.022   6.370  1.8947 -0.2316  2.0218
  683MOL0     H94190  11.313   5.055   6.382  0.5240 -3.2187  0.9765
  683MOL0     H94191  11.324   5.172   6.168 -0.3816 -0.0258 -0.3456
  683MOL0     H94192  11.223   5.061   6.095  1.5885 -2.8914  2.6490
  683MOL0     H94193  11.089   5.265   6.096 -1.6893 -1.3235  0.0069
  683MOL0     H94194  11.035   5.152   6.223  1.3953 -2.2219  0.2596
  683MOL0     H94195  11.249   5.366   6.278  0.1690 -0.9404  1.2492
  683MOL0     H94196  11.156   5.291   6.399 -1.4912  1.5132  0.5017
  683MOL0     H94197  10.941   5.401   6.319  0.6041 -1.4895  2.8944
  683MOL0     H94198  11.071   5.460   6.410  0.1210  0.9618  0.2958
  683MOL0     H94199  11.085   5.506   6.101  0.4297  1.3522 -0.0014
  683MOL0     H94200  11.173   5.582   6.228 -1.4210 -1.8665  2.4573
  683MOL0     H94201  10.962   5.707   6.289  0.4748  1.4258 -0.1809
  683MOL0     H94202  11.030   5.742   6.131 -0.5946 -1.5918 -1.8982
  683MOL0     H94203  10.888   5.474   5.988 -0.7470  1.9908 -1.6219
  683MOL0     H94204  10.724   5.301   6.012  1.9131  2.1443  0.1601
  683MOL0     H94205  10.583   5.387   5.938 -1.5721 -0.0265  0.7411
  683MOL0     H94206  10.526   5.198   6.109  3.9126 -0.0738  0.0778
  683MOL0     H94207  10.590   5.302   6.238 -0.0627  0.2139 -0.0398
  683MOL0     H94208  10.400   5.455   6.049 -2.2134  0.2787  0.7338
  683MOL0     H94209  10.336   5.314   6.107  1.3007 -0.9243 -0.6957
  683MOL0     H94210  10.452   5.497   6.309 -0.9764 -0.2250  3.0910
  683MOL0     H94211  10.285   5.516   6.253 -1.2018 -0.1796  2.6805
  683MOL0     H94212  10.515   5.352   6.540 -0.0429 -0.9594  1.0226
  683MOL0     H94213  10.499   5.349   6.862  0.3140 -1.0728 -0.8166
  683MOL0     H94214  10.490   5.520   6.854 -0.2885 -0.6979  1.5078
  683MOL0     H94215  10.589   5.432   6.733  0.4165  1.3526  0.2392
  683MOL0     H94216  10.045   5.810   6.957 -1.1740 -0.5114 -0.4226
  683MOL0     H94217   9.978   5.867   7.212 -0.5796 -0.7206  1.8497
  683MOL0     H94218  10.033   5.547   7.466  2.0563  1.6839 -0.5227
  683MOL0     H94219  10.064   5.706   7.509  0.1005  1.0020 -0.8011
  683MOL0     H94220   9.958   5.648   7.700 -0.5123 -2.7112  1.5576
  683MOL0     H94221   9.851   5.749   7.616 -2.1958 -1.0599  0.3948
  683MOL0     H94222   9.717   5.581   7.545 -0.4864 -0.8002  0.4910
  683MOL0     H94223   9.736   5.568   7.731  0.3240 -0.6655  0.9028
  683MOL0     H94224   9.923   5.393   7.676  0.4862  2.7552 -0.9315
  683MOL0     H94225   9.846   5.373   7.523  1.5153 -0.5814 -0.2556
  683MOL0     H94226   9.724   5.353   7.809  0.2709  0.1724  0.5352
  683MOL0     H94227   9.638   5.325   7.662 -0.3351  1.1120  0.9027
  683MOL0     H94228   9.888   5.170   7.752 -1.6746  1.6076  4.1553
  683MOL0     H94229   9.817   5.149   7.592 -0.1482 -4.7446  0.8431
  683MOL0     H94230   9.691   5.094   7.862  0.1355  1.5686 -1.0934
  683MOL0     H94231   9.764   4.965   7.764 -1.7036 -1.0261  0.4799
  683MOL0     H94232   9.599   5.017   7.584  3.2628  0.7470 -0.3422
  683MOL0     H94233   9.519   5.129   7.698  0.3406  0.5835 -3.0518
  683MOL0     H94234   9.926   5.455   7.270  1.1414 -0.2332 -1.8104
  683MOL0     H94235   9.997   5.408   7.049  3.5528  0.6215  0.3294
  683MOL0     H94236  10.041   5.459   6.649 -0.2058 -1.5574  2.5626
  683MOL0     H94237  10.104   5.401   6.417  0.1617 -0.9091  0.4943
  683MOL0     H94238  11.390   4.659   6.367  2.0807  1.7490  0.3381
  683MOL0     H94239  11.434   4.420   6.302  1.0727 -0.3087 -1.0904
  683MOL0     H94240  11.663   4.143   5.964 -0.7345 -0.4873  1.2038
  683MOL0     H94241  11.699   3.985   5.796  1.3287  1.1715  2.1213
  683MOL0     H94242  11.440   3.638   5.722  0.4146  0.2964  0.0360
  683MOL0     H94243  11.336   3.761   5.639 -0.6317  1.4489 -0.1370
  683MOL0     H94244  11.406   3.591   5.462 -0.8817  1.2371 -0.2902
  683MOL0     H94245  11.575   3.625   5.504 -0.8785  0.0074  0.1041
  683MOL0     H94246  11.390   3.835   5.414  1.2815  0.9533 -1.1961
  683MOL0     H94247  11.565   3.848   5.423 -0.3475  0.2332  0.1101
  683MOL0     H94248  11.382   3.680   5.250  0.1889 -1.6644 -1.0851
  683MOL0     H94249  11.547   3.639   5.249  1.2857  0.9277  0.0751
  683MOL0     H94250  11.612   3.967   5.025  0.1115 -0.6290  0.6394
  683MOL0     H94251  11.277   3.872   5.813 -0.6141 -0.8883  1.1147
  683MOL0     H94252  11.222   4.031   6.132  4.6394  1.5201 -0.8519
  683MOL0     H94253  11.181   4.111   5.991 -2.0996 -1.1178 -0.7660
  683MOL0     H94254  11.155   3.943   5.978 -1.1520  0.4063  0.2176
  684MOL0     O94255   7.996   7.120   2.196 -0.0281 -0.4944 -0.4545
  684MOL0     C94256   7.996   7.049   2.300 -0.4863  0.5218  0.0961
  684MOL0     O94257   7.956   7.087   2.416  0.6244 -0.5984  0.2756
  684MOL0     C94258   7.882   7.206   2.422 -0.7577 -0.4340  0.4757
  684MOL0     C94259   7.745   7.196   2.443 -0.4795 -0.4317 -0.9050
  684MOL0     C94260   7.666   7.315   2.425 -0.8126 -0.3824  0.3037
  684MOL0     C94261   7.726   7.439   2.395  0.9940 -0.0585 -0.6486
  684MOL0     O94262   7.649   7.551   2.404  0.8652 -0.6923 -0.3439
  684MOL0     C94263   7.705   7.689   2.405  0.6569 -0.3772 -0.8458
  684MOL0     C94264   7.584   7.777   2.386 -0.1066 -0.4517  0.0565
  684MOL0     C94265   7.504   7.771   2.261  0.3362  0.8524 -0.4543
  684MOL0     C94266   7.562   7.832   2.135  0.0827 -0.2211  0.8507
  684MOL0     C94267   7.465   7.808   2.010 -0.3385  0.0163 -0.0148
  684MOL0     C94268   7.523   7.868   1.882  1.5841  0.9085 -0.9841
  684MOL0     C94269   7.426   7.970   1.817  0.3813 -0.2708 -0.4591
  684MOL0     C94270   7.277   7.905   1.787 -0.3454 -0.1880  0.1910
  684MOL0     N94271   7.207   8.015   1.712  0.2626  0.4435  0.0521
  684MOL0     C94272   7.140   8.010   1.592 -0.0107 -0.3036 -0.3351
  684MOL0     C94273   7.079   8.128   1.584 -0.4139 -0.0867  0.5141
  684MOL0     C94274   7.000   8.156   1.458  0.9156 -0.2683  0.6110
  684MOL0     C94275   7.061   8.278   1.379 -0.4669  0.4321 -0.1754
  684MOL0     C94276   6.983   8.298   1.244  0.2046 -0.0758  0.0241
  684MOL0     C94277   7.034   8.397   1.146  0.1437 -0.9378 -0.0654
  684MOL0     O94278   7.023   8.530   1.193 -0.0366  0.6317 -0.3688
  684MOL0     C94279   6.918   8.605   1.154  0.4167 -0.1276  0.2075
  684MOL0     C94280   6.897   8.655   1.028  0.5297 -0.1849  1.0259
  684MOL0     C94281   6.777   8.720   0.996  0.4934 -0.5534  0.2201
  684MOL0     C94282   6.750   8.772   0.854 -0.2854 -1.5823  0.4381
  684MOL0     C94283   6.670   8.733   1.095  0.6772  0.6700  0.8403
  684MOL0     C94284   6.535   8.801   1.074  0.2420  0.0343 -0.9339
  684MOL0     O94285   6.484   8.837   0.953 -0.6360 -0.3412 -0.1364
  684MOL0     C94286   6.375   8.912   0.958  0.2410  0.2794 -0.0920
  684MOL0     C94287   6.253   8.866   0.890 -0.2201 -0.3660 -0.3008
  684MOL0     C94288   6.142   8.962   0.886 -0.3805  0.2992 -1.4770
  684MOL0     C94289   6.144   9.080   0.961 -0.1240 -0.7735 -0.0627
  684MOL0     O94290   6.034   9.160   0.952  0.1823 -0.8691  0.3058
  684MOL0     C94291   6.014   9.284   1.017  0.4739 -0.3361 -0.4155
  684MOL0     C94292   5.867   9.316   1.012 -0.1462 -0.9112 -0.6797
  684MOL0     C94293   5.803   9.307   0.874 -0.4212 -0.4833  0.0819
  684MOL0     C94294   5.664   9.240   0.876  0.3845  0.3625 -1.3190
  684MOL0     C94295   5.599   9.231   0.734 -0.3592  0.0974  0.6337
  684MOL0     C94296   5.612   9.085   0.667 -0.6294  0.2343 -0.4197
  684MOL0     C94297   5.753   9.027   0.653  0.5575 -0.3162 -0.7846
  684MOL0     C94298   5.757   8.913   0.550  0.5277 -0.5251  0.3365
  684MOL0    Cl94299   5.918   8.843   0.551 -0.2277 -0.5736 -0.6137
  684MOL0     C94300   6.266   9.126   1.008 -0.2572  0.6118  0.8245
  684MOL0     C94301   6.373   9.045   1.004  0.5290  0.1523 -0.0051
  684MOL0     O94302   6.475   8.814   1.181 -0.6407  0.5773  0.5886
  684MOL0     C94303   6.709   8.673   1.217  0.1347 -0.5873 -0.2624
  684MOL0     C94304   6.832   8.621   1.251  0.3157  0.3804 -0.2655
  684MOL0     N94305   7.109   8.204   1.696 -0.6178  0.1703 -0.3287
  684MOL0     N94306   7.179   8.133   1.776 -0.0389  0.1404  0.2895
  684MOL0     C94307   7.861   7.448   2.373  0.1528  0.6847 -1.0703
  684MOL0     C94308   7.940   7.332   2.391  1.6463  0.1602  0.2529
  684MOL0     C94309   8.052   6.901   2.288  0.9261  0.0706 -0.3867
  684MOL0     C94310   8.165   6.862   2.371 -0.2896 -1.0505  0.6036
  684MOL0     C94311   8.223   6.734   2.362  0.0399  0.1468 -0.7488
  684MOL0     C94312   8.175   6.635   2.270 -0.8736  0.1714  0.2768
  684MOL0     O94313   8.231   6.509   2.274  0.3095  0.3052 -0.1661
  684MOL0     C94314   8.147   6.417   2.341 -0.1148 -0.2338 -0.6965
  684MOL0     C94315   8.179   6.278   2.286  0.2152  0.3211 -0.3834
  684MOL0     C94316   8.104   6.172   2.364 -0.1738 -1.5337  0.6503
  684MOL0     C94317   8.090   6.054   2.274  0.6882  0.7713 -1.2212
  684MOL0     C94318   7.999   5.963   2.351  0.1897 -0.2736  0.0569
  684MOL0     C94319   7.937   5.874   2.410  0.1617 -0.4228  0.2582
  684MOL0     C94320   8.068   6.668   2.193 -0.0212  0.5121 -0.4898
  684MOL0     C94321   8.005   6.791   2.202 -0.0253  0.2137 -0.6598
  684MOL0     C94322   7.893   6.810   2.102 -0.1858 -0.5871 -0.0479
  684MOL0     H94323   7.698   7.100   2.462 -1.9719  0.8473  2.7857
  684MOL0     H94324   7.560   7.330   2.441 -1.5679 -0.1705 -3.7033
  684MOL0     H94325   7.781   7.711   2.330 -0.2875  0.5785 -1.5540
  684MOL0     H94326   7.747   7.703   2.505  2.1256  2.1708 -1.7380
  684MOL0     H94327   7.524   7.738   2.469 -1.6074  2.7488  0.5897
  684MOL0     H94328   7.605   7.883   2.402 -0.0760 -0.6506  1.4822
  684MOL0     H94329   7.479   7.667   2.239 -0.5491  0.4695  2.0726
  684MOL0     H94330   7.406   7.816   2.279  0.8228  0.9859  2.2124
  684MOL0     H94331   7.574   7.937   2.165 -5.5076  1.4724 -1.4970
  684MOL0     H94332   7.659   7.789   2.111  3.0935  4.6840  2.7176
  684MOL0     H94333   7.372   7.856   2.044 -1.3080 -2.5136  1.2191
  684MOL0     H94334   7.452   7.700   1.993  1.6723 -0.1098 -0.9762
  684MOL0     H94335   7.618   7.916   1.907  2.1565  0.4386 -2.1698
  684MOL0     H94336   7.541   7.794   1.803 -1.0722 -0.0114 -0.8082
  684MOL0     H94337   7.474   8.009   1.726 -1.5756 -0.5185 -1.6632
  684MOL0     H94338   7.426   8.054   1.887 -2.1633 -0.5072 -0.0899
  684MOL0     H94339   7.268   7.812   1.729 -1.3422 -0.8500  1.3779
  684MOL0     H94340   7.215   7.887   1.875  0.3080 -1.2474  0.4644
  684MOL0     H94341   7.143   7.930   1.519 -1.4383 -0.8417  0.1564
  684MOL0     H94342   6.896   8.179   1.484  0.8448 -2.0996  2.0990
  684MOL0     H94343   7.002   8.070   1.390 -0.9055  0.9953 -1.1861
  684MOL0     H94344   7.061   8.371   1.437  1.5033  1.0390 -1.0414
  684MOL0     H94345   7.169   8.263   1.366  0.4146  4.0635  1.5408
  684MOL0     H94346   6.988   8.203   1.189 -2.0186 -1.2959  1.7409
  684MOL0     H94347   6.877   8.319   1.258  0.0483 -0.6195 -0.3300
  684MOL0     H94348   7.139   8.375   1.123  0.4660 -2.4825  2.4757
  684MOL0     H94349   6.987   8.393   1.048  1.6980  2.3043 -1.0792
  684MOL0     H94350   6.979   8.650   0.956  0.6682 -2.7091  1.2943
  684MOL0     H94351   6.742   8.881   0.845 -1.0789 -1.8119 -5.2052
  684MOL0     H94352   6.652   8.736   0.821 -0.5757 -1.1480  0.8218
  684MOL0     H94353   6.817   8.734   0.776  0.8455 -1.3169  1.2527
  684MOL0     H94354   6.239   8.763   0.859 -1.2120 -0.3266 -0.0129
  684MOL0     H94355   6.050   8.938   0.835 -1.5233 -1.3071  1.1317
  684MOL0     H94356   6.056   9.271   1.117  0.7943 -4.8675 -0.8993
  684MOL0     H94357   6.069   9.359   0.959 -3.7155  1.1347 -2.8942
  684MOL0     H94358   5.812   9.248   1.077  2.5959 -0.1579  2.7632
  684MOL0     H94359   5.863   9.420   1.047 -0.1537 -0.3527 -2.2436
  684MOL0     H94360   5.867   9.240   0.815  2.3859  0.8782  1.3854
  684MOL0     H94361   5.797   9.410   0.837 -0.7108 -0.1177  1.1359
  684MOL0     H94362   5.611   9.297   0.953  1.6674 -0.3999  0.1974
  684MOL0     H94363   5.679   9.136   0.907 -3.0936 -0.2778 -1.4693
  684MOL0     H94364   5.496   9.265   0.746 -0.3440 -0.0121  1.0964
  684MOL0     H94365   5.653   9.307   0.677 -0.1241  1.5430  2.6925
  684MOL0     H94366   5.576   9.111   0.567 -0.5317  3.8624  0.3505
  684MOL0     H94367   5.548   9.017   0.723 -0.7691  1.9191  1.5991
  684MOL0     H94368   5.795   8.978   0.741 -1.3838 -2.2446 -0.8361
  684MOL0     H94369   5.821   9.106   0.622  2.6640 -2.2260 -1.3525
  684MOL0     H94370   5.744   8.952   0.448 -0.8522 -1.8166 -0.0180
  684MOL0     H94371   5.689   8.831   0.572 -1.2026  1.2713  2.0951
  684MOL0     H94372   6.282   9.202   1.083  4.5933 -1.4993  2.3076
  684MOL0     H94373   6.467   9.090   1.037  0.3106  2.6112 -2.3585
  684MOL0     H94374   6.643   8.674   1.302  0.8981  1.0196  0.3510
  684MOL0     H94375   6.840   8.572   1.348 -3.1762 -1.8883 -0.9223
  684MOL0     H94376   7.911   7.538   2.338 -1.3222  1.1682 -2.0089
  684MOL0     H94377   8.047   7.332   2.372  1.9158  1.7201  1.5860
  684MOL0     H94378   8.207   6.931   2.443 -2.6827  0.9476  0.2331
  684MOL0     H94379   8.316   6.708   2.413  0.4895  0.1716 -1.5392
  684MOL0     H94380   8.159   6.431   2.449  3.2534 -0.5705 -0.9280
  684MOL0     H94381   8.043   6.440   2.318 -0.0468  1.5165  0.6360
  684MOL0     H94382   8.286   6.255   2.291 -0.0128 -1.8888 -3.0121
  684MOL0     H94383   8.140   6.263   2.185 -2.2877 -0.4560  0.6257
  684MOL0     H94384   8.161   6.144   2.453 -1.5877 -0.6100  1.8649
  684MOL0     H94385   8.008   6.218   2.388  0.3172 -0.2260  0.1819
  684MOL0     H94386   8.184   6.003   2.248  0.6270 -2.3937  3.5276
  684MOL0     H94387   8.034   6.074   2.182 -0.3409  0.3953 -0.6799
  684MOL0     H94388   7.872   5.804   2.460 -2.0403  0.5562 -1.0740
  684MOL0     H94389   8.027   6.595   2.124 -2.8178  0.4241  1.1091
  684MOL0     H94390   7.935   6.880   2.029  0.6881  1.3889  2.2394
  684MOL0     H94391   7.863   6.723   2.043 -1.1890  1.7415 -3.3163
  684MOL0     H94392   7.808   6.863   2.147 -1.4096  2.7754 -5.3164
  685MOL0     O94393  11.189   9.793   2.299  0.0400  0.1542  0.6509
  685MOL0     C94394  11.248   9.797   2.408 -0.2749 -0.0174 -0.2621
  685MOL0     O94395  11.188   9.804   2.533  0.1843  0.5815 -0.5688
  685MOL0     C94396  11.052   9.801   2.539  0.1036 -0.1959  0.1026
  685MOL0     C94397  10.958   9.880   2.463  0.0988 -0.3395 -0.2016
  685MOL0     C94398  10.822   9.871   2.482 -0.0317  0.0428  0.3053
  685MOL0     C94399  10.774   9.765   2.560  0.3905 -0.7104 -0.3462
  685MOL0     O94400  10.644   9.738   2.571 -0.1682  0.0159 -0.4641
  685MOL0     C94401  10.555   9.834   2.638 -0.2663  0.6410 -0.5886
  685MOL0     C94402  10.432   9.755   2.697  0.0674  0.2925  0.4463
  685MOL0     C94403  10.455   9.621   2.761 -0.3432 -0.5040 -0.4833
  685MOL0     C94404  10.315   9.566   2.827 -0.7668  0.0323 -0.3095
  685MOL0     C94405  10.332   9.432   2.904  0.0246  0.5210  0.4814
  685MOL0     C94406  10.204   9.351   2.925  1.1407 -0.5279  0.7901
  685MOL0     C94407  10.122   9.311   2.802 -0.0131  0.7991  0.0274
  685MOL0     C94408  10.010   9.205   2.823 -0.2177 -0.3544 -0.1757
  685MOL0     N94409   9.899   9.260   2.904 -0.2186 -0.3018 -0.1813
  685MOL0     C94410   9.791   9.327   2.855 -0.0322  0.3553  0.0412
  685MOL0     C94411   9.723   9.357   2.967  0.0845 -0.4253  0.4387
  685MOL0     C94412   9.592   9.433   2.969 -0.1403  0.8336 -0.9106
  685MOL0     C94413   9.625   9.575   2.924  0.4946  0.0947 -0.0576
  685MOL0     C94414   9.502   9.665   2.949 -0.0585 -0.4581 -0.8481
  685MOL0     C94415   9.402   9.666   2.828  0.7033 -0.0013  0.3761
  685MOL0     O94416   9.359   9.535   2.817  0.1731  0.6976 -0.6211
  685MOL0     C94417   9.234   9.508   2.749 -0.1802 -1.2632  0.5422
  685MOL0     C94418   9.153   9.608   2.680  0.4591  0.5377 -0.4825
  685MOL0     C94419   9.035   9.569   2.606 -0.3036 -0.1333  0.2476
  685MOL0     C94420   8.967   9.674   2.516 -0.0643 -0.1521  0.4924
  685MOL0     C94421   8.994   9.435   2.611  0.8102  0.1393 -0.0101
  685MOL0     C94422   8.878   9.386   2.530 -0.2337  0.0436 -0.0354
  685MOL0     O94423   8.831   9.459   2.423 -0.4993 -0.5529 -0.4639
  685MOL0     C94424   8.719   9.434   2.354 -0.1707 -0.6206  0.0609
  685MOL0     C94425   8.737   9.399   2.218  0.6731  0.0983  0.0209
  685MOL0     C94426   8.627   9.378   2.139 -0.4658 -0.9377  0.0800
  685MOL0     C94427   8.496   9.396   2.189 -0.1123  0.6753 -0.0221
  685MOL0     O94428   8.390   9.390   2.104 -0.0006  0.9776  0.3595
  685MOL0     C94429   8.392   9.282   2.010 -0.2408 -0.7428  1.0438
  685MOL0     C94430   8.256   9.248   1.961 -1.1182  0.0796  0.0504
  685MOL0     C94431   8.170   9.214   2.086  0.7585 -0.3292  0.5617
  685MOL0     C94432   8.210   9.088   2.172 -0.6243  0.3140 -0.4348
  685MOL0     C94433   8.248   9.124   2.313 -0.0952  0.0924  0.1002
  685MOL0     C94434   8.131   9.166   2.391 -0.1752  0.1638  0.0758
  685MOL0     C94435   8.043   9.055   2.453  0.6868  1.3729  1.1789
  685MOL0     C94436   8.039   9.049   2.607  0.1226 -0.2568  1.0901
  685MOL0    Cl94437   7.927   9.165   2.686  0.2485 -0.3768  0.2263
  685MOL0     C94438   8.481   9.410   2.328 -0.6933  0.3532 -0.2296
  685MOL0     C94439   8.593   9.431   2.417 -0.6769 -1.0727  0.2663
  685MOL0     O94440   8.836   9.275   2.561  0.0270 -0.0695  0.6334
  685MOL0     C94441   9.075   9.337   2.672  0.7276 -0.0132 -0.7707
  685MOL0     C94442   9.186   9.375   2.743 -0.2737 -0.7934  0.3737
  685MOL0     N94443   9.801   9.347   3.083 -0.0303 -0.1639 -1.0506
  685MOL0     N94444   9.901   9.283   3.039  0.3951  0.2209 -0.5781
  685MOL0     C94445  10.868   9.673   2.623  0.1293 -0.3190 -0.0324
  685MOL0     C94446  11.006   9.694   2.617  0.3454 -0.1443 -0.2519
  685MOL0     C94447  11.395   9.809   2.415 -0.9677 -0.5154 -0.3317
  685MOL0     C94448  11.464   9.889   2.520 -0.2656  0.5001  0.2576
  685MOL0     C94449  11.601   9.903   2.521  0.3018  0.7566 -0.1932
  685MOL0     C94450  11.674   9.844   2.422 -0.5111  0.2845  0.5643
  685MOL0     O94451  11.808   9.852   2.434 -0.0078 -0.6354  0.0015
  685MOL0     C94452  11.910   9.811   2.347 -0.5897 -0.0181 -0.0507
  685MOL0     C94453  11.932   9.655   2.342  0.4841 -0.5167  0.0956
  685MOL0     C94454  11.938   9.595   2.488  0.0523 -0.3220 -0.1307
  685MOL0     C94455  12.079   9.552   2.520 -0.0504 -0.4922 -0.5353
  685MOL0     C94456  12.164   9.674   2.530 -0.4624 -0.3787 -0.4076
  685MOL0     C94457  12.244   9.766   2.553  0.0370  0.2891  0.2720
  685MOL0     C94458  11.613   9.776   2.319 -0.7227  0.1809  0.7811
  685MOL0     C94459  11.474   9.755   2.308 -0.8458  0.8455  0.6435
  685MOL0     C94460  11.424   9.681   2.187  0.0944  0.8435  1.2332
  685MOL0     H94461  11.021   9.944   2.401  3.0456 -4.5600 -2.0072
  685MOL0     H94462  10.759   9.926   2.412  0.0717 -0.6116 -0.3114
  685MOL0     H94463  10.521   9.897   2.555 -2.3384  1.0063  0.4750
  685MOL0     H94464  10.591   9.904   2.714  3.0923  0.0523 -1.4490
  685MOL0     H94465  10.379   9.819   2.767 -0.2758 -0.5389  0.9586
  685MOL0     H94466  10.361   9.723   2.620  0.3888  0.7342 -0.0412
  685MOL0     H94467  10.480   9.545   2.686  2.2230  1.0348 -1.3141
  685MOL0     H94468  10.534   9.637   2.835  1.4650  2.5071 -2.8079
  685MOL0     H94469  10.263   9.641   2.888 -1.7116 -0.8613  0.0132
  685MOL0     H94470  10.242   9.555   2.746  2.1746 -1.0707 -3.0197
  685MOL0     H94471  10.388   9.462   2.993 -3.1817 -0.6103  3.0622
  685MOL0     H94472  10.395   9.376   2.834 -0.9746  0.3344 -0.2823
  685MOL0     H94473  10.225   9.266   2.989  1.7787 -0.5584  0.5502
  685MOL0     H94474  10.137   9.415   2.983  1.6697  0.5792  0.2095
  685MOL0     H94475  10.190   9.270   2.727 -0.1781 -0.8544  0.7325
  685MOL0     H94476  10.063   9.396   2.766 -2.9765 -1.0271  0.2342
  685MOL0     H94477   9.964   9.162   2.733 -2.7469 -1.4652  1.5175
  685MOL0     H94478  10.058   9.126   2.880  0.9425 -0.9605 -1.9093
  685MOL0     H94479   9.752   9.339   2.755  0.9100  3.9468 -0.0631
  685MOL0     H94480   9.539   9.434   3.065  0.5829 -3.6291 -0.2433
  685MOL0     H94481   9.526   9.390   2.894 -2.9192  0.1982  1.7025
  685MOL0     H94482   9.708   9.610   2.986  0.4268 -2.2047  1.4846
  685MOL0     H94483   9.665   9.572   2.823  0.0659 -2.4988 -0.2126
  685MOL0     H94484   9.465   9.637   3.048  0.2039 -0.2040 -0.6755
  685MOL0     H94485   9.534   9.769   2.961 -0.3649 -0.6139  2.0964
  685MOL0     H94486   9.327   9.743   2.847  0.7849  0.0579  0.4624
  685MOL0     H94487   9.457   9.693   2.738 -2.9788 -0.2663 -2.1759
  685MOL0     H94488   9.163   9.716   2.678  2.5271  0.3850 -1.8439
  685MOL0     H94489   8.859   9.663   2.530  0.0726 -2.2176  0.2364
  685MOL0     H94490   8.992   9.657   2.411 -3.0315  0.8469 -0.4687
  685MOL0     H94491   8.990   9.777   2.543 -2.2526  0.3566  0.6140
  685MOL0     H94492   8.839   9.381   2.186  1.6365 -0.8062  3.1880
  685MOL0     H94493   8.644   9.354   2.035 -0.8284 -3.6257  0.5651
  685MOL0     H94494   8.462   9.304   1.928  0.3824 -1.4034  1.3809
  685MOL0     H94495   8.430   9.200   2.072  2.2695 -2.8855 -2.8574
  685MOL0     H94496   8.218   9.342   1.921  1.0712  1.4711  1.0393
  685MOL0     H94497   8.265   9.173   1.883  1.7332  1.0701 -0.7219
  685MOL0     H94498   8.062   9.225   2.070  1.2769  4.2853 -1.2862
  685MOL0     H94499   8.182   9.296   2.156  3.0190 -1.4736  1.6238
  685MOL0     H94500   8.301   9.052   2.122  1.6000  1.7235  2.3327
  685MOL0     H94501   8.128   9.015   2.170 -0.0235 -0.4075 -3.0907
  685MOL0     H94502   8.300   9.038   2.358  3.2537  1.3792 -0.9937
  685MOL0     H94503   8.322   9.204   2.300 -2.7204  2.2699 -2.9207
  685MOL0     H94504   8.077   9.241   2.334  3.8618  2.4142 -1.2353
  685MOL0     H94505   8.158   9.224   2.480 -1.4318 -2.4672  2.3388
  685MOL0     H94506   8.088   8.960   2.424 -0.2565  1.1208  0.4500
  685MOL0     H94507   7.941   9.055   2.412  1.3667 -0.9860 -0.7208
  685MOL0     H94508   8.142   9.063   2.640  0.6637 -1.1626 -0.1632
  685MOL0     H94509   8.017   8.946   2.636 -0.3461 -0.3604  0.3858
  685MOL0     H94510   8.382   9.408   2.372 -0.7894  0.4584 -0.4389
  685MOL0     H94511   8.586   9.431   2.525  0.3195 -0.9900  0.3399
  685MOL0     H94512   9.047   9.233   2.663  0.6644 -0.0404 -0.2681
  685MOL0     H94513   9.241   9.284   2.766  4.8600  1.1942 -2.2179
  685MOL0     H94514  10.838   9.585   2.679 -2.8546  1.1804  0.9479
  685MOL0     H94515  11.077   9.627   2.665  0.8474  2.1175  2.4537
  685MOL0     H94516  11.411   9.946   2.595 -0.2011 -0.2675  0.8965
  685MOL0     H94517  11.647   9.963   2.598 -0.4617  0.2715  0.6592
  685MOL0     H94518  11.895   9.843   2.244  0.1525 -0.1040 -0.1941
  685MOL0     H94519  12.006   9.848   2.385 -1.5568  0.4979  2.0497
  685MOL0     H94520  12.026   9.640   2.289  1.5900 -2.9110  2.5156
  685MOL0     H94521  11.850   9.610   2.285 -1.4734  3.1380 -0.2799
  685MOL0     H94522  11.906   9.669   2.561  1.6937 -0.1821  0.4773
  685MOL0     H94523  11.874   9.508   2.507 -2.4200  1.5925  0.8086
  685MOL0     H94524  12.110   9.478   2.446 -0.4720 -1.4513  0.2307
  685MOL0     H94525  12.077   9.507   2.620 -0.5144 -0.6512 -0.6139
  685MOL0     H94526  12.331   9.827   2.566  0.2843 -0.2409  1.1278
  685MOL0     H94527  11.672   9.735   2.238 -1.3998 -1.8875  1.2639
  685MOL0     H94528  11.398   9.585   2.232  2.4978 -0.3936  0.1604
  685MOL0     H94529  11.336   9.723   2.138 -0.0759 -0.6519  0.1810
  685MOL0     H94530  11.497   9.657   2.109 -2.8146 -2.5596 -0.7470
  686MOL0     O94531   8.067   0.581   6.259  0.6288  0.6133  0.3698
  686MOL0     C94532   8.004   0.680   6.253  0.4939 -0.0970 -0.5312
  686MOL0     O94533   7.869   0.686   6.304  0.9385  0.2335 -0.2775
  686MOL0     C94534   7.798   0.591   6.381  0.5458 -0.5406  0.3355
  686MOL0     C94535   7.842   0.480   6.448 -1.1779 -0.2017  0.9205
  686MOL0     C94536   7.750   0.380   6.488 -0.1949 -0.9947 -0.8821
  686MOL0     C94537   7.614   0.387   6.453  0.9244  0.0625 -0.7250
  686MOL0     O94538   7.545   0.276   6.476 -0.2080 -0.1237 -0.4109
  686MOL0     C94539   7.422   0.253   6.407 -0.5773 -0.4062 -0.5439
  686MOL0     C94540   7.311   0.248   6.512 -0.4155 -0.7502 -0.2984
  686MOL0     C94541   7.330   0.116   6.594 -0.2397 -0.7622  0.4086
  686MOL0     C94542   7.331  -0.008   6.514 -0.4833 -0.6025 -0.4705
  686MOL0     C94543   7.271  -0.126   6.571 -0.0704 -0.6467  0.1903
  686MOL0     C94544   7.342  -0.163   6.708 -0.0336  0.0674  0.1422
  686MOL0     C94545   7.318  -0.311   6.740 -0.5039 -0.1921  0.0771
  686MOL0     C94546   7.427  -0.400   6.680 -1.1420  0.0584  0.6036
  686MOL0     N94547   7.453  -0.527   6.753  0.1491 -0.6308 -0.4815
  686MOL0     C94548   7.572  -0.564   6.805 -0.1833  0.8113 -1.5557
  686MOL0     C94549   7.540  -0.659   6.901 -0.0278  0.1730  0.5775
  686MOL0     C94550   7.629  -0.736   6.986 -0.1266 -0.6793 -0.7640
  686MOL0     C94551   7.617  -0.695   7.137  0.0350  0.0108 -0.4228
  686MOL0     C94552   7.645  -0.543   7.160 -0.3903  0.8209 -0.4877
  686MOL0     C94553   7.642  -0.503   7.307 -0.5290  0.1301 -0.4893
  686MOL0     O94554   7.768  -0.558   7.372  0.2338 -0.4482 -0.1479
  686MOL0     C94555   7.801  -0.522   7.502  1.1947 -0.6593  0.1465
  686MOL0     C94556   7.722  -0.461   7.593  0.0152 -0.9276  0.0168
  686MOL0     C94557   7.774  -0.435   7.723  0.2703  0.1025 -0.6611
  686MOL0     C94558   7.691  -0.361   7.820  0.0953  0.0153 -0.0359
  686MOL0     C94559   7.908  -0.457   7.757  0.8075 -0.5683 -0.1468
  686MOL0     C94560   7.974  -0.400   7.868  0.5221  0.9892 -0.4355
  686MOL0     O94561   8.008  -0.486   7.963 -0.6120 -0.4846  0.8417
  686MOL0     C94562   7.997  -0.467   8.098 -0.1647  0.7817 -0.1436
  686MOL0     C94563   8.071  -0.560   8.176  0.2002  0.7565 -0.0269
  686MOL0     C94564   8.073  -0.546   8.316  0.2886 -0.3248  0.3786
  686MOL0     C94565   8.006  -0.429   8.378  0.4107  0.5540 -0.0726
  686MOL0     O94566   7.992  -0.391   8.511  0.0544  0.6781 -1.2690
  686MOL0     C94567   8.085  -0.434   8.620  0.2957  0.1091  0.0765
  686MOL0     C94568   8.033  -0.391   8.751  0.7706 -0.1609 -1.4188
  686MOL0     C94569   8.112  -0.443   8.869 -1.1141  0.0906 -0.2693
  686MOL0     C94570   8.088  -0.590   8.895  0.6610  0.4395  0.0890
  686MOL0     C94571   8.143  -0.639   9.032  0.0226 -1.3170  1.0249
  686MOL0     C94572   8.078  -0.769   9.079 -0.4851  0.3624  0.1844
  686MOL0     C94573   8.108  -0.795   9.228 -0.6702  0.7913  0.0063
  686MOL0     C94574   8.025  -0.912   9.288 -0.0811 -0.1318 -0.1410
  686MOL0    Cl94575   8.038  -0.929   9.467  0.4728 -0.0375  0.0472
  686MOL0     C94576   7.932  -0.351   8.293  1.1135  0.6864  0.0641
  686MOL0     C94577   7.930  -0.363   8.159 -0.0134  0.4495 -0.3364
  686MOL0     O94578   7.956  -0.282   7.881 -0.5144  0.0192  0.7987
  686MOL0     C94579   7.984  -0.518   7.661 -0.1262  0.8216  0.1081
  686MOL0     C94580   7.926  -0.557   7.537 -0.3148  0.0013 -0.0070
  686MOL0     N94581   7.407  -0.679   6.903  0.2360 -0.6691  0.4816
  686MOL0     N94582   7.352  -0.596   6.814 -0.1241  0.7565  0.4932
  686MOL0     C94583   7.571   0.512   6.403  0.1633  0.1106 -0.3137
  686MOL0     C94584   7.658   0.618   6.371  0.7370  0.7408 -1.2963
  686MOL0     C94585   8.062   0.803   6.222  0.8309  0.7691 -0.0149
  686MOL0     C94586   8.167   0.809   6.129 -0.2225 -0.1569 -0.4650
  686MOL0     C94587   8.215   0.927   6.078 -0.6428 -0.0100  0.4877
  686MOL0     C94588   8.164   1.052   6.119  0.7803 -0.3267 -0.1611
  686MOL0     O94589   8.217   1.161   6.053  0.2793 -0.1247 -0.1776
  686MOL0     C94590   8.194   1.291   6.118 -0.5827 -0.4249 -0.2288
  686MOL0     C94591   8.288   1.404   6.068 -0.0747 -0.4031 -0.4116
  686MOL0     C94592   8.276   1.435   5.921  0.1432 -0.7312  1.0717
  686MOL0     C94593   8.361   1.329   5.833 -0.6946 -0.6249  0.1995
  686MOL0     C94594   8.356   1.366   5.687  0.2196  0.1631  0.6967
  686MOL0     C94595   8.326   1.392   5.570  0.1144  0.5937 -0.7675
  686MOL0     C94596   8.068   1.049   6.214  1.0114 -0.0569 -0.7641
  686MOL0     C94597   8.012   0.926   6.267 -0.5186  0.0350  0.2399
  686MOL0     C94598   7.918   0.942   6.381  0.0207 -0.4156 -0.5039
  686MOL0     H94599   7.946   0.449   6.455 -0.8848 -0.8831 -3.4343
  686MOL0     H94600   7.783   0.293   6.544 -2.3515 -0.0559  2.0714
  686MOL0     H94601   7.426   0.159   6.351 -3.6411 -3.4943  3.7894
  686MOL0     H94602   7.408   0.329   6.329  0.5890 -0.3573 -0.7188
  686MOL0     H94603   7.319   0.335   6.579 -2.0336 -1.1975  0.5144
  686MOL0     H94604   7.213   0.255   6.463  0.2861  3.6776 -1.5301
  686MOL0     H94605   7.418   0.112   6.659 -2.2222 -4.0148  3.2757
  686MOL0     H94606   7.239   0.109   6.654 -0.2336 -1.5302  0.3411
  686MOL0     H94607   7.275  -0.001   6.420 -1.2375 -3.6991 -0.3808
  686MOL0     H94608   7.436  -0.023   6.491  0.1689 -1.2182  2.4770
  686MOL0     H94609   7.273  -0.201   6.491 -0.7296 -0.0895 -0.3576
  686MOL0     H94610   7.163  -0.107   6.575 -0.1828 -0.8019 -1.4995
  686MOL0     H94611   7.448  -0.142   6.695  0.2009 -0.7954  0.5676
  686MOL0     H94612   7.304  -0.110   6.796  1.4002 -0.2878  1.0135
  686MOL0     H94613   7.220  -0.343   6.705 -0.6507 -0.0714  0.3722
  686MOL0     H94614   7.324  -0.333   6.847  0.1443 -1.8148 -0.2584
  686MOL0     H94615   7.409  -0.416   6.573 -0.7437 -0.7886  0.6558
  686MOL0     H94616   7.521  -0.346   6.690  0.5312 -2.1527 -1.8531
  686MOL0     H94617   7.672  -0.540   6.771  1.6126 -0.9065  1.9852
  686MOL0     H94618   7.733  -0.724   6.956 -0.1781  0.3202 -0.5773
  686MOL0     H94619   7.599  -0.842   6.982 -0.5309 -0.5677 -0.7648
  686MOL0     H94620   7.511  -0.704   7.161 -0.3786 -0.5104 -2.2947
  686MOL0     H94621   7.686  -0.751   7.201 -0.0761  2.2649  1.7869
  686MOL0     H94622   7.748  -0.535   7.123  0.6680 -1.6539  1.6373
  686MOL0     H94623   7.575  -0.484   7.100 -4.1512 -1.1850  1.5605
  686MOL0     H94624   7.637  -0.394   7.320  2.3527  0.1454  1.2670
  686MOL0     H94625   7.550  -0.550   7.343 -2.2266 -0.4034 -4.8492
  686MOL0     H94626   7.627  -0.417   7.563  0.4236 -0.1220 -0.1320
  686MOL0     H94627   7.582  -0.371   7.809 -0.3283  0.3449  3.0646
  686MOL0     H94628   7.723  -0.259   7.845  1.6177 -0.8438  1.6840
  686MOL0     H94629   7.700  -0.411   7.916  1.5113 -0.4476 -0.3978
  686MOL0     H94630   8.115  -0.652   8.139  0.4513 -0.6361  3.3770
  686MOL0     H94631   8.137  -0.618   8.366  1.1097 -0.5799 -0.9795
  686MOL0     H94632   8.106  -0.541   8.623 -0.1185  0.0267  3.2238
  686MOL0     H94633   8.177  -0.376   8.608 -0.3502  1.1018 -0.1824
  686MOL0     H94634   8.035  -0.282   8.751 -2.4782 -0.0075 -1.0745
  686MOL0     H94635   7.930  -0.426   8.767  1.9013 -3.0019  0.6172
  686MOL0     H94636   8.087  -0.393   8.963  0.6815  2.6401 -1.0402
  686MOL0     H94637   8.215  -0.412   8.849 -1.1936 -0.2195 -1.2520
  686MOL0     H94638   8.123  -0.646   8.808 -2.1477  0.6339 -1.2800
  686MOL0     H94639   7.979  -0.601   8.888  0.2640  4.2098 -3.5199
  686MOL0     H94640   8.252  -0.638   9.030  0.0694  0.5895 -1.3923
  686MOL0     H94641   8.123  -0.554   9.098  1.1216 -0.6869  0.5812
  686MOL0     H94642   8.111  -0.846   9.009 -1.0837 -1.7815  2.1381
  686MOL0     H94643   7.970  -0.755   9.069 -0.5954 -0.6248 -0.0791
  686MOL0     H94644   8.080  -0.701   9.277 -1.6396  0.6972 -0.3374
  686MOL0     H94645   8.212  -0.817   9.252 -1.7445 -0.5641  4.2386
  686MOL0     H94646   8.051  -1.007   9.240 -2.8873 -1.6440  1.1300
  686MOL0     H94647   7.923  -0.897   9.253  0.4329  1.8465 -0.9426
  686MOL0     H94648   7.867  -0.278   8.341  1.1270  0.9575 -0.3194
  686MOL0     H94649   7.881  -0.283   8.104 -1.7380 -0.6749 -0.5247
  686MOL0     H94650   8.086  -0.541   7.691 -0.2049 -0.9942 -0.8153
  686MOL0     H94651   7.981  -0.616   7.464 -0.7852 -0.6343  0.1349
  686MOL0     H94652   7.466   0.537   6.390 -0.1109  0.0855  1.6068
  686MOL0     H94653   7.618   0.703   6.317  0.0200  1.5077  0.3574
  686MOL0     H94654   8.205   0.719   6.081  0.0429  1.3876 -3.3892
  686MOL0     H94655   8.294   0.915   6.005 -1.9913  0.5225 -1.1171
  686MOL0     H94656   8.090   1.324   6.109 -0.0486  0.8575 -2.0844
  686MOL0     H94657   8.228   1.281   6.222  0.7646  0.4194 -0.5582
  686MOL0     H94658   8.392   1.376   6.088  0.3860  0.2813 -1.6715
  686MOL0     H94659   8.262   1.496   6.122 -0.1036  0.2028 -1.4149
  686MOL0     H94660   8.170   1.417   5.902  0.8021 -2.1179 -1.8533
  686MOL0     H94661   8.314   1.534   5.893  2.3085 -1.5076  1.1104
  686MOL0     H94662   8.329   1.229   5.862 -1.8959  0.5814  3.4047
  686MOL0     H94663   8.465   1.333   5.865 -0.8079  0.4469  0.4562
  686MOL0     H94664   8.288   1.416   5.473 -1.2776 -1.6288 -0.8412
  686MOL0     H94665   8.028   1.140   6.256  1.6259  0.2521 -0.8385
  686MOL0     H94666   7.913   0.857   6.449 -2.4055  0.3837  0.4496
  686MOL0     H94667   7.952   1.022   6.447 -0.8600 -1.6162  1.5231
  686MOL0     H94668   7.811   0.955   6.360 -0.9355 -1.2508  3.0735
  687MOL0     O94669   4.591   7.051   5.075  0.5671 -0.3765 -0.4063
  687MOL0     C94670   4.715   7.075   5.062  0.1170  1.0656  0.2633
  687MOL0     O94671   4.790   7.140   5.152 -0.1803 -0.0615 -0.1915
  687MOL0     C94672   4.758   7.132   5.288 -1.0282 -1.0404 -0.5028
  687MOL0     C94673   4.638   7.106   5.352  0.1436  0.1480 -0.0212
  687MOL0     C94674   4.613   7.098   5.494 -0.0613  1.4673 -0.4466
  687MOL0     C94675   4.725   7.112   5.572  0.1273  0.5031 -0.4534
  687MOL0     O94676   4.722   7.097   5.709  0.2665  0.6706  0.2985
  687MOL0     C94677   4.706   7.216   5.785 -0.2312 -0.0806  0.2456
  687MOL0     C94678   4.662   7.180   5.930 -1.0018  0.1968  0.2355
  687MOL0     C94679   4.694   7.298   6.027 -1.1118  0.0949  0.0978
  687MOL0     C94680   4.646   7.268   6.168 -0.7594  0.6464  0.3520
  687MOL0     C94681   4.694   7.375   6.260 -0.6522  1.2148 -0.2467
  687MOL0     C94682   4.655   7.353   6.410  0.0793  0.1603 -0.7482
  687MOL0     C94683   4.719   7.458   6.503  0.0158  0.3163 -0.0206
  687MOL0     C94684   4.722   7.451   6.656 -1.0200 -0.3044  0.7814
  687MOL0     N94685   4.790   7.333   6.710  0.3913  0.2488  0.4916
  687MOL0     C94686   4.707   7.235   6.740 -0.4682  0.1642 -0.1831
  687MOL0     C94687   4.789   7.147   6.810 -1.0994  0.5864  0.8788
  687MOL0     C94688   4.760   7.015   6.866 -0.3965  0.0936 -0.0264
  687MOL0     C94689   4.607   7.007   6.906  0.2028 -0.7150  0.3107
  687MOL0     C94690   4.562   6.858   6.923 -0.3933  0.5118  0.2421
  687MOL0     C94691   4.441   6.856   7.015 -0.5133 -0.6689 -0.0196
  687MOL0     O94692   4.471   6.893   7.149  0.2345 -0.0132  0.0767
  687MOL0     C94693   4.571   6.820   7.214 -0.3548  0.7183  1.1902
  687MOL0     C94694   4.569   6.684   7.229  0.1501  0.8251  0.1417
  687MOL0     C94695   4.678   6.601   7.282  0.9792  0.4283  0.1629
  687MOL0     C94696   4.642   6.455   7.269 -1.0806  0.3990 -0.1502
  687MOL0     C94697   4.790   6.660   7.331  0.0384  0.1662 -0.1426
  687MOL0     C94698   4.911   6.591   7.377  0.7882 -1.0283 -0.8817
  687MOL0     O94699   5.022   6.592   7.303  0.1455  0.2470  0.1945
  687MOL0     C94700   5.013   6.645   7.179 -1.1814  1.2620 -0.2288
  687MOL0     C94701   5.087   6.768   7.166  0.6421  0.2644  0.2675
  687MOL0     C94702   5.088   6.829   7.041  0.6418 -0.2947  0.1075
  687MOL0     C94703   5.030   6.772   6.930 -0.1061 -0.0939 -0.8085
  687MOL0     O94704   5.056   6.838   6.817 -0.9898  0.7821  0.6545
  687MOL0     C94705   5.004   6.782   6.699  1.1066 -0.3221  0.9415
  687MOL0     C94706   5.064   6.649   6.656 -0.2769  0.2446  0.4648
  687MOL0     C94707   5.213   6.671   6.608 -0.9368 -0.5642  0.2031
  687MOL0     C94708   5.301   6.550   6.600  0.0144 -0.0882 -0.3328
  687MOL0     C94709   5.437   6.577   6.536  0.7639  0.7109  0.2801
  687MOL0     C94710   5.526   6.675   6.609 -0.0816  1.3380 -0.2378
  687MOL0     C94711   5.652   6.693   6.521  0.8511  0.3727  0.3754
  687MOL0     C94712   5.634   6.777   6.405 -0.1491 -0.2960 -0.5612
  687MOL0    Cl94713   5.526   6.922   6.439 -0.2033  0.1526  0.4452
  687MOL0     C94714   4.942   6.655   6.953 -0.5873  0.1475 -0.2256
  687MOL0     C94715   4.933   6.594   7.076 -0.2031  0.4041 -0.7542
  687MOL0     O94716   4.894   6.521   7.475  0.1755  0.5418  0.5550
  687MOL0     C94717   4.786   6.804   7.330  1.4244  0.3465 -0.2564
  687MOL0     C94718   4.682   6.879   7.267  1.0664 -0.2694 -0.2130
  687MOL0     N94719   4.919   7.197   6.818 -0.2836 -0.4936  0.3688
  687MOL0     N94720   4.918   7.324   6.769  0.6848 -0.0175  0.0577
  687MOL0     C94721   4.853   7.116   5.516  0.2477  1.0464 -0.4657
  687MOL0     C94722   4.873   7.128   5.379 -0.5655  0.2122  0.5596
  687MOL0     C94723   4.772   7.021   4.936  0.0253  0.7142 -0.4440
  687MOL0     C94724   4.715   6.903   4.883  0.5471 -1.1684 -0.5548
  687MOL0     C94725   4.759   6.852   4.766  0.5733  0.3572 -1.0318
  687MOL0     C94726   4.853   6.908   4.693  0.5401 -0.6276  0.0345
  687MOL0     O94727   4.903   6.854   4.586  0.2130 -0.0128  0.3537
  687MOL0     C94728   4.879   6.920   4.458 -0.2754  0.4088  0.1584
  687MOL0     C94729   4.995   6.892   4.366 -0.0149  0.9645 -0.4065
  687MOL0     C94730   4.988   6.759   4.291 -0.5869  0.5375 -0.6935
  687MOL0     C94731   5.009   6.791   4.141  0.2101 -0.4826 -0.6164
  687MOL0     C94732   4.947   6.687   4.064 -0.6498 -0.4225 -0.8152
  687MOL0     C94733   4.901   6.605   3.996  0.3177  1.1569  0.4365
  687MOL0     C94734   4.918   7.019   4.738  0.8476  0.6685 -0.0361
  687MOL0     C94735   4.877   7.077   4.867  0.5846 -0.5829  0.0305
  687MOL0     C94736   4.949   7.208   4.913  0.3946  0.3958 -0.2678
  687MOL0     H94737   4.555   7.117   5.283  0.4128  0.2804 -0.3260
  687MOL0     H94738   4.517   7.086   5.544  1.0274  4.3539  2.7354
  687MOL0     H94739   4.625   7.277   5.743  0.7807  1.5254  0.5548
  687MOL0     H94740   4.797   7.276   5.796  0.5726 -1.0643 -0.7692
  687MOL0     H94741   4.557   7.158   5.947 -1.7479  0.2847 -3.5417
  687MOL0     H94742   4.713   7.095   5.977 -1.6643  0.3280  1.2114
  687MOL0     H94743   4.802   7.310   6.041 -1.3029  1.6819  0.4815
  687MOL0     H94744   4.632   7.382   5.994 -1.1676 -0.0167 -0.0799
  687MOL0     H94745   4.536   7.262   6.171 -0.7855 -1.2550 -1.6711
  687MOL0     H94746   4.692   7.174   6.198  3.8471  2.8481  1.1308
  687MOL0     H94747   4.654   7.473   6.230  1.0463  1.5027 -1.7111
  687MOL0     H94748   4.802   7.378   6.249 -0.7010 -1.1952 -2.0018
  687MOL0     H94749   4.550   7.335   6.438  0.0322  0.7830 -0.5119
  687MOL0     H94750   4.701   7.255   6.429  0.1506  0.2190 -0.6230
  687MOL0     H94751   4.676   7.550   6.463  0.2665  0.6772  0.5314
  687MOL0     H94752   4.823   7.469   6.472 -0.5181  0.2391 -1.9156
  687MOL0     H94753   4.782   7.534   6.694  0.6482  1.5343 -4.8132
  687MOL0     H94754   4.620   7.464   6.692 -0.7218  2.2767  0.8496
  687MOL0     H94755   4.600   7.235   6.720 -0.5078 -2.4176 -0.2705
  687MOL0     H94756   4.830   7.008   6.949  0.8352 -1.5989 -1.1482
  687MOL0     H94757   4.777   6.935   6.794 -2.8819 -2.0957  1.6367
  687MOL0     H94758   4.587   7.072   6.991 -0.2653 -1.1618  0.5445
  687MOL0     H94759   4.536   7.056   6.839  2.2059  1.8534 -0.1106
  687MOL0     H94760   4.550   6.805   6.828  0.3562  1.1705 -0.2376
  687MOL0     H94761   4.645   6.809   6.976 -1.1616  1.3066  2.2975
  687MOL0     H94762   4.360   6.909   6.964  0.3972 -2.2364 -3.3899
  687MOL0     H94763   4.399   6.756   7.023 -0.8266 -0.5848 -0.5412
  687MOL0     H94764   4.480   6.627   7.203  1.1152 -0.6928  0.0168
  687MOL0     H94765   4.557   6.429   7.206  0.5187 -0.5961 -2.0202
  687MOL0     H94766   4.637   6.418   7.372  0.1683  0.1105 -0.1676
  687MOL0     H94767   4.733   6.406   7.232  1.1007 -0.5252  5.3464
  687MOL0     H94768   5.141   6.810   7.251  3.6081  1.2757 -1.9390
  687MOL0     H94769   5.134   6.924   7.017 -3.1889  1.7785  0.3116
  687MOL0     H94770   4.901   6.745   6.699  2.1330 -3.5228  1.4919
  687MOL0     H94771   5.009   6.856   6.619 -5.0121  1.1822  1.4467
  687MOL0     H94772   5.058   6.576   6.737  0.8562  0.3234  0.6458
  687MOL0     H94773   5.017   6.608   6.566  0.7202 -0.7087  0.3621
  687MOL0     H94774   5.253   6.729   6.692 -2.6187 -1.9518  2.0463
  687MOL0     H94775   5.201   6.718   6.510 -0.2704  0.4457  0.5877
  687MOL0     H94776   5.250   6.473   6.541 -0.1857  1.5569 -2.4273
  687MOL0     H94777   5.324   6.507   6.698  2.0690  1.1225 -0.2125
  687MOL0     H94778   5.490   6.482   6.523 -2.1298 -0.7096 -2.6739
  687MOL0     H94779   5.415   6.620   6.438 -1.6329 -0.5154  0.1987
  687MOL0     H94780   5.563   6.633   6.702  0.1332 -2.1322 -1.7506
  687MOL0     H94781   5.468   6.767   6.621 -2.2115  0.0947 -0.4412
  687MOL0     H94782   5.674   6.599   6.470 -3.2027  0.8679 -2.8456
  687MOL0     H94783   5.723   6.735   6.592 -2.3492  2.9750  2.3728
  687MOL0     H94784   5.576   6.711   6.340  0.9301 -0.7286 -1.1059
  687MOL0     H94785   5.733   6.793   6.361  0.2973 -2.1333 -0.3066
  687MOL0     H94786   4.884   6.612   6.872 -2.4910 -1.7473  2.0183
  687MOL0     H94787   4.864   6.513   7.096  2.5227 -2.3043 -1.5093
  687MOL0     H94788   4.867   6.859   7.377  1.8066 -0.7186  0.3640
  687MOL0     H94789   4.704   6.985   7.260 -0.6045  0.4333  3.1535
  687MOL0     H94790   4.940   7.089   5.575  1.2091  1.1054 -1.8117
  687MOL0     H94791   4.968   7.115   5.329 -1.1802  0.8278 -0.8104
  687MOL0     H94792   4.628   6.862   4.931 -1.6031  3.1548 -0.2184
  687MOL0     H94793   4.716   6.757   4.735  2.3243 -1.1149  0.7794
  687MOL0     H94794   4.779   6.894   4.421 -1.5862  2.8344  1.7403
  687MOL0     H94795   4.886   7.028   4.469 -2.0451  0.5099  0.6386
  687MOL0     H94796   5.094   6.916   4.406 -0.3694  0.3202  0.8968
  687MOL0     H94797   4.993   6.973   4.292 -0.9440  1.6583  0.3615
  687MOL0     H94798   5.066   6.694   4.332  0.7122  0.7893 -2.6634
  687MOL0     H94799   4.892   6.710   4.313 -0.7891  1.0602 -0.3804
  687MOL0     H94800   5.118   6.784   4.127  0.1706 -1.9180 -0.3885
  687MOL0     H94801   4.970   6.890   4.115 -1.5807  0.4514  4.5116
  687MOL0     H94802   4.860   6.517   3.952  0.3882  1.3333  0.0174
  687MOL0     H94803   4.993   7.066   4.675  0.6730 -0.4960 -1.1633
  687MOL0     H94804   5.018   7.194   4.997  0.0706 -2.1218 -0.3558
  687MOL0     H94805   5.001   7.246   4.824 -0.6518  0.2694 -0.9513
  687MOL0     H94806   4.875   7.276   4.955  2.3235  1.4678  1.5920
  688MOL0     O94807   8.324   9.842   1.868  0.1058  0.3178  0.0776
  688MOL0     C94808   8.394   9.749   1.908 -0.5776 -0.7172  0.0894
  688MOL0     O94809   8.425   9.729   2.041 -0.0116 -0.1715  0.1706
  688MOL0     C94810   8.396   9.825   2.138  0.0162 -0.0109  0.7629
  688MOL0     C94811   8.283   9.911   2.146 -0.5841 -0.1042 -0.1650
  688MOL0     C94812   8.277  10.013   2.244 -0.2468  0.2145 -0.8107
  688MOL0     C94813   8.377  10.024   2.346  0.7133  0.3714  0.2178
  688MOL0     O94814   8.369  10.116   2.450  0.1563 -0.8899  0.0064
  688MOL0     C94815   8.237  10.177   2.476  0.3274  0.5379  0.2903
  688MOL0     C94816   8.242  10.229   2.624 -0.6373 -0.2673  0.5713
  688MOL0     C94817   8.230  10.116   2.725  0.2548 -0.1000 -0.2245
  688MOL0     C94818   8.173  10.159   2.853 -0.2857 -0.0073  0.5104
  688MOL0     C94819   8.192  10.041   2.955  0.2441 -1.3123 -0.3053
  688MOL0     C94820   8.108  10.048   3.083  0.0851  0.5135  0.3281
  688MOL0     C94821   8.111   9.915   3.166 -0.2988 -0.4931  0.4547
  688MOL0     C94822   8.001   9.927   3.273 -0.1571  0.0051 -0.5940
  688MOL0     N94823   7.959   9.797   3.330 -0.1114  1.2354 -0.0326
  688MOL0     C94824   7.824   9.772   3.365 -0.3772  0.0670 -0.3347
  688MOL0     C94825   7.814   9.642   3.397  0.2184 -0.1400  1.5165
  688MOL0     C94826   7.691   9.566   3.443 -0.3534 -0.9661  0.7239
  688MOL0     C94827   7.725   9.500   3.574  0.3764  0.8966  0.0922
  688MOL0     C94828   7.607   9.516   3.678 -0.6905  0.1775 -0.3955
  688MOL0     C94829   7.475   9.455   3.623 -0.4954 -0.2978  0.0732
  688MOL0     O94830   7.378   9.447   3.733  0.1398 -0.2445  0.6750
  688MOL0     C94831   7.275   9.538   3.719  0.6762  1.0152  0.2351
  688MOL0     C94832   7.257   9.639   3.819 -0.1785  0.5111 -0.4308
  688MOL0     C94833   7.150   9.735   3.815  0.6964  0.6437 -0.0059
  688MOL0     C94834   7.153   9.830   3.925  0.1543  0.7133  1.2321
  688MOL0     C94835   7.058   9.731   3.698 -0.0134 -0.1582 -0.4366
  688MOL0     C94836   6.950   9.822   3.685 -0.2626  0.1270  0.8139
  688MOL0     O94837   6.828   9.783   3.635 -0.5158 -0.1409  0.3520
  688MOL0     C94838   6.720   9.868   3.615 -1.2141  0.3658 -2.0466
  688MOL0     C94839   6.615   9.807   3.556  1.0598  0.9206 -0.1350
  688MOL0     C94840   6.501   9.881   3.513 -0.1949  0.5345 -0.1653
  688MOL0     C94841   6.481  10.011   3.550  0.0008 -0.2047 -0.7891
  688MOL0     O94842   6.364  10.068   3.506  0.4345 -0.1781 -0.3327
  688MOL0     C94843   6.359  10.210   3.492 -0.6331 -0.3216 -0.9900
  688MOL0     C94844   6.423  10.259   3.361  0.0381  0.2823  0.7449
  688MOL0     C94845   6.336  10.221   3.230 -0.4413 -0.8023 -0.0758
  688MOL0     C94846   6.274  10.351   3.161 -0.1245 -0.4463 -0.0603
  688MOL0     C94847   6.170  10.415   3.242 -0.1767 -0.9510  0.5597
  688MOL0     C94848   6.064  10.495   3.150  0.3930  0.0925 -1.0814
  688MOL0     C94849   5.993  10.410   3.048  0.6227  0.0055 -0.1030
  688MOL0     C94850   5.862  10.482   3.001 -0.7343 -0.2881 -0.4881
  688MOL0    Cl94851   5.870  10.659   2.959  0.1776 -0.2350  0.7698
  688MOL0     C94852   6.571  10.068   3.643 -0.5656 -0.4253  0.2626
  688MOL0     C94853   6.692   9.994   3.673 -0.3526  0.1647 -0.2134
  688MOL0     O94854   6.976   9.935   3.723 -0.4215 -0.3799  0.2544
  688MOL0     C94855   7.086   9.643   3.601  1.1592 -0.4103 -0.1511
  688MOL0     C94856   7.186   9.548   3.608 -0.2603 -0.0797  0.0998
  688MOL0     N94857   7.938   9.581   3.371  1.5659  0.8029 -0.6182
  688MOL0     N94858   8.021   9.672   3.330 -0.5549  0.6269 -0.0996
  688MOL0     C94859   8.489   9.937   2.341 -0.9544 -0.7134 -0.6071
  688MOL0     C94860   8.497   9.847   2.237 -0.1269  0.0230 -0.1446
  688MOL0     C94861   8.454   9.655   1.811  0.1550  0.4514  0.3915
  688MOL0     C94862   8.536   9.553   1.863 -0.3396  0.8284 -0.0239
  688MOL0     C94863   8.603   9.457   1.782  0.7825 -0.1060  0.1646
  688MOL0     C94864   8.581   9.454   1.646  0.0253 -0.1129  0.1795
  688MOL0     O94865   8.640   9.371   1.549  0.6636  0.0744 -0.0561
  688MOL0     C94866   8.684   9.235   1.593  0.0573  0.8407  0.6591
  688MOL0     C94867   8.716   9.159   1.468 -0.5506  1.1483 -0.1942
  688MOL0     C94868   8.822   9.058   1.496 -0.2537  0.5536 -0.3645
  688MOL0     C94869   8.782   8.955   1.613 -0.0803 -0.4988 -0.2029
  688MOL0     C94870   8.805   9.002   1.746 -0.3179 -0.5957  0.6336
  688MOL0     C94871   8.831   9.042   1.860  0.7273  0.6033  0.2682
  688MOL0     C94872   8.505   9.562   1.592  0.1862  0.4841  0.0362
  688MOL0     C94873   8.436   9.658   1.672 -0.5014  1.1125 -0.3930
  688MOL0     C94874   8.343   9.746   1.600  0.1854 -0.6883 -0.8540
  688MOL0     H94875   8.201   9.892   2.078  2.2528 -2.6092 -3.2867
  688MOL0     H94876   8.193  10.082   2.239  0.3853  0.9746 -1.0260
  688MOL0     H94877   8.164  10.098   2.465  1.6899 -0.6052 -1.0527
  688MOL0     H94878   8.218  10.252   2.398 -1.0394 -1.0954 -1.0045
  688MOL0     H94879   8.345  10.264   2.634 -0.0435  0.0151 -4.2944
  688MOL0     H94880   8.172  10.312   2.638 -1.0037 -0.3724 -0.5631
  688MOL0     H94881   8.165  10.038   2.685 -0.2342 -1.5918  3.1573
  688MOL0     H94882   8.327  10.069   2.746 -0.7157 -2.0723  0.1130
  688MOL0     H94883   8.232  10.245   2.884 -2.8361  1.4135  1.7434
  688MOL0     H94884   8.066  10.178   2.847 -0.0518  0.9836 -0.8325
  688MOL0     H94885   8.298  10.046   2.981  0.0998  0.7987  0.0163
  688MOL0     H94886   8.175   9.943   2.908  0.8098 -1.4774 -0.1702
  688MOL0     H94887   8.111  10.139   3.143  1.6561 -0.4113  1.7463
  688MOL0     H94888   8.006  10.064   3.048 -0.1400 -1.5038 -0.0669
  688MOL0     H94889   8.214   9.901   3.200 -0.2249 -4.4278 -0.9493
  688MOL0     H94890   8.094   9.830   3.099  0.7089  0.3052 -0.8756
  688MOL0     H94891   8.056   9.982   3.350  2.3962 -1.2239 -1.4173
  688MOL0     H94892   7.909   9.971   3.232  1.7509  3.7924 -1.2645
  688MOL0     H94893   7.749   9.846   3.388  1.5443  2.9125 -2.4876
  688MOL0     H94894   7.665   9.494   3.365 -0.3071 -0.6811  0.4456
  688MOL0     H94895   7.606   9.634   3.446 -1.4916 -2.2413 -1.0291
  688MOL0     H94896   7.741   9.393   3.563 -1.6611  0.2669  2.3277
  688MOL0     H94897   7.814   9.538   3.626  1.6707 -3.4992  1.5409
  688MOL0     H94898   7.639   9.473   3.773  3.2480  0.0690 -1.6054
  688MOL0     H94899   7.592   9.622   3.700  0.7446  0.2983  0.1148
  688MOL0     H94900   7.441   9.521   3.542 -0.2356 -0.4460 -0.1583
  688MOL0     H94901   7.482   9.354   3.583 -0.4892 -1.0425  1.8673
  688MOL0     H94902   7.330   9.642   3.899  0.0127 -0.8592 -0.5232
  688MOL0     H94903   7.152   9.934   3.892  0.2283 -0.2700 -2.1723
  688MOL0     H94904   7.240   9.808   3.989  0.4183  0.7318  0.8817
  688MOL0     H94905   7.066   9.824   3.991  1.5197  0.0899  3.0909
  688MOL0     H94906   6.621   9.701   3.533 -0.3950  0.6710  0.4960
  688MOL0     H94907   6.419   9.834   3.458 -0.5662  0.1854  0.6758
  688MOL0     H94908   6.255  10.244   3.503  0.6992  3.9567  0.9417
  688MOL0     H94909   6.406  10.258   3.579  1.0794  0.0977 -2.0942
  688MOL0     H94910   6.444  10.367   3.362 -1.6486  0.8769 -4.0753
  688MOL0     H94911   6.521  10.212   3.346 -0.2129  0.3988 -1.5019
  688MOL0     H94912   6.265  10.152   3.278  1.6200 -2.6341  0.5040
  688MOL0     H94913   6.398  10.168   3.157 -0.8297 -2.2796  0.6296
  688MOL0     H94914   6.230  10.307   3.071 -0.6521  2.1208 -1.1528
  688MOL0     H94915   6.348  10.427   3.134  0.3952 -0.4556  1.2841
  688MOL0     H94916   6.112  10.332   3.286  0.5294 -2.2641 -0.9041
  688MOL0     H94917   6.214  10.484   3.314 -4.1444  3.5001 -0.7554
  688MOL0     H94918   6.127  10.566   3.095  1.6798  1.6386  2.1243
  688MOL0     H94919   5.989  10.536   3.219 -1.7928 -2.3431 -1.8414
  688MOL0     H94920   5.968  10.308   3.082 -1.9057  0.5396 -0.1812
  688MOL0     H94921   6.064  10.389   2.967  2.7423  1.3220  1.3235
  688MOL0     H94922   5.789  10.483   3.083  0.7929 -2.8788  1.0145
  688MOL0     H94923   5.831  10.435   2.908  1.7598  1.4653 -2.3504
  688MOL0     H94924   6.546  10.152   3.707  1.2657  0.7749 -0.5246
  688MOL0     H94925   6.764  10.041   3.738 -1.2408  0.5368  0.5204
  688MOL0     H94926   7.016   9.633   3.519 -3.4060  0.4934  3.2477
  688MOL0     H94927   7.193   9.479   3.524 -1.6137 -0.0805 -0.0304
  688MOL0     H94928   8.567   9.943   2.416 -2.3612 -1.9668  1.0180
  688MOL0     H94929   8.582   9.779   2.231  1.9295  2.0210  3.0775
  688MOL0     H94930   8.568   9.546   1.967 -1.1875  1.7793  0.3191
  688MOL0     H94931   8.681   9.399   1.832 -0.2491  0.0341  2.0364
  688MOL0     H94932   8.770   9.244   1.660  1.4652 -0.9722 -0.8115
  688MOL0     H94933   8.605   9.179   1.644  1.0096 -1.3836 -0.1966
  688MOL0     H94934   8.755   9.235   1.400  0.3946 -0.1571 -1.1588
  688MOL0     H94935   8.627   9.126   1.413  1.6322 -1.8692 -2.2187
  688MOL0     H94936   8.839   9.008   1.401 -1.0399  2.8093 -1.7563
  688MOL0     H94937   8.914   9.102   1.536  0.4400 -1.6696  0.6350
  688MOL0     H94938   8.841   8.864   1.601  2.4216  0.9161  0.6200
  688MOL0     H94939   8.674   8.939   1.604 -0.2907  1.1034 -1.0779
  688MOL0     H94940   8.861   9.071   1.958  2.4066  0.7357 -0.2446
  688MOL0     H94941   8.491   9.565   1.485 -0.4257 -1.9631 -0.0075
  688MOL0     H94942   8.335   9.728   1.492 -1.0465  1.4261 -1.1673
  688MOL0     H94943   8.238   9.744   1.631  0.1137 -0.3412 -1.0605
  688MOL0     H94944   8.380   9.849   1.603  1.1751 -0.7692 -4.6661
  689MOL0     O94945   8.485   6.205   9.812  0.5022 -0.4145  0.0647
  689MOL0     C94946   8.362   6.189   9.800 -1.1276  0.9555 -0.8742
  689MOL0     O94947   8.307   6.103   9.703  0.0851  0.3298  0.5143
  689MOL0     C94948   8.376   6.057   9.596  0.6933 -0.0123  0.5251
  689MOL0     C94949   8.466   6.136   9.527  0.1619 -0.8011  0.1812
  689MOL0     C94950   8.534   6.088   9.404  0.1099  0.2150  0.2516
  689MOL0     C94951   8.494   5.965   9.353  0.6193 -0.0576  0.1806
  689MOL0     O94952   8.527   5.899   9.232 -0.2852 -0.8735 -0.5052
  689MOL0     C94953   8.583   5.969   9.122  0.1273 -0.1180  0.8823
  689MOL0     C94954   8.470   6.001   9.020 -0.3940 -0.5547  0.0064
  689MOL0     C94955   8.404   5.873   8.963 -0.9552 -0.2127 -0.2248
  689MOL0     C94956   8.254   5.882   8.937  0.1556  0.3291 -0.2911
  689MOL0     C94957   8.215   5.761   8.849  0.7520 -0.6881  0.3247
  689MOL0     C94958   8.254   5.633   8.907 -0.6289 -0.8935 -0.3809
  689MOL0     C94959   8.184   5.511   8.849  0.3728  0.3681  0.3171
  689MOL0     C94960   8.249   5.446   8.722  0.7095 -0.4433  0.5658
  689MOL0     N94961   8.158   5.358   8.638 -0.0513 -0.6116 -0.2682
  689MOL0     C94962   8.079   5.263   8.690 -0.3296  0.3204 -0.1357
  689MOL0     C94963   8.021   5.197   8.585 -0.3362  0.2781  0.7296
  689MOL0     C94964   7.919   5.085   8.593  0.5746  0.3916  0.7604
  689MOL0     C94965   7.775   5.141   8.604 -0.0462  0.0416  1.2875
  689MOL0     C94966   7.660   5.049   8.656 -0.2743  1.0395  0.6888
  689MOL0     C94967   7.519   5.086   8.624  0.7238  0.3031  0.5706
  689MOL0     O94968   7.439   4.970   8.599  0.1815  0.8115  0.4738
  689MOL0     C94969   7.333   4.971   8.509  0.8331  0.6975 -0.7912
  689MOL0     C94970   7.294   4.851   8.442  0.6735  0.0579 -0.3186
  689MOL0     C94971   7.193   4.848   8.343  0.2025  0.2195 -0.1509
  689MOL0     C94972   7.172   4.723   8.275  0.0663  0.4265  0.1941
  689MOL0     C94973   7.140   4.970   8.295  0.8622  0.8954  0.5194
  689MOL0     C94974   7.040   4.974   8.186  0.6554  0.1212  0.3115
  689MOL0     O94975   7.065   5.029   8.068 -0.2854 -0.0783 -0.0754
  689MOL0     C94976   6.995   4.989   7.954  0.0506  0.2305  0.2695
  689MOL0     C94977   6.952   4.861   7.930  0.8083 -0.0194  0.5064
  689MOL0     C94978   6.890   4.833   7.808  0.0687  0.9726 -0.5168
  689MOL0     C94979   6.886   4.919   7.700 -0.1933  0.1030 -0.2815
  689MOL0     O94980   6.830   4.874   7.586  0.5701  0.5529 -0.4595
  689MOL0     C94981   6.775   4.971   7.509 -0.2361  0.5715 -0.0103
  689MOL0     C94982   6.653   4.923   7.421 -0.2604 -0.3728 -1.0151
  689MOL0     C94983   6.540   4.867   7.512  0.0030 -0.9118  0.3210
  689MOL0     C94984   6.462   4.968   7.594  0.1595  0.2461  0.1917
  689MOL0     C94985   6.420   4.923   7.731 -0.8744  0.1776 -0.7971
  689MOL0     C94986   6.296   4.830   7.726  0.4530 -0.5398 -0.4451
  689MOL0     C94987   6.337   4.685   7.735 -0.7022  0.2114 -1.0747
  689MOL0     C94988   6.261   4.604   7.649  0.2234  0.6698  0.8966
  689MOL0    Cl94989   6.092   4.577   7.732 -0.2031 -0.3204 -0.0179
  689MOL0     C94990   6.931   5.051   7.726  0.9827  0.6279  0.0175
  689MOL0     C94991   6.975   5.082   7.853  0.9161 -0.3914 -0.0086
  689MOL0     O94992   6.933   4.927   8.213  0.2737  0.3136 -0.6127
  689MOL0     C94993   7.181   5.089   8.355 -0.2089  0.0489 -0.6346
  689MOL0     C94994   7.272   5.087   8.459 -0.2831  0.5264 -0.6319
  689MOL0     N94995   8.069   5.255   8.466 -0.5441  0.4431 -0.1143
  689MOL0     N94996   8.158   5.346   8.503 -0.4510  0.5583  0.3163
  689MOL0     C94997   8.405   5.884   9.431  0.1158 -0.3795 -0.6593
  689MOL0     C94998   8.346   5.928   9.555  0.1982  0.9041 -0.1122
  689MOL0     C94999   8.277   6.260   9.902 -0.6726 -0.1732  0.8169
  689MOL0     C95000   8.341   6.324  10.015 -0.0408  0.9835  0.5325
  689MOL0     C95001   8.275   6.397  10.106  0.9669 -0.0781 -0.1217
  689MOL0     C95002   8.130   6.407  10.108 -0.2483  0.0314  0.0657
  689MOL0     O95003   8.068   6.485  10.201 -0.4304 -0.7986  0.1955
  689MOL0     C95004   7.932   6.480  10.216 -0.0056 -0.4770  0.9530
  689MOL0     C95005   7.891   6.542  10.344 -0.4625  0.1491 -0.0758
  689MOL0     C95006   7.933   6.446  10.454  0.6186  0.0233 -0.7343
  689MOL0     C95007   7.852   6.311  10.473 -0.0588  0.5893 -0.5934
  689MOL0     C95008   7.712   6.340  10.487  1.1355  0.4641  1.1346
  689MOL0     C95009   7.594   6.358  10.511  0.1480 -0.5855  0.0822
  689MOL0     C95010   8.058   6.339  10.004 -0.0285 -0.1619 -0.3537
  689MOL0     C95011   8.125   6.271   9.904  0.4086  1.1735  0.0588
  689MOL0     C95012   8.049   6.214   9.794  0.3978 -0.0845 -0.1488
  689MOL0     H95013   8.486   6.230   9.578  3.6290 -1.3120 -0.0507
  689MOL0     H95014   8.599   6.163   9.361 -0.7183  1.8860  1.7555
  689MOL0     H95015   8.655   5.907   9.067 -1.0231 -1.7464  1.1399
  689MOL0     H95016   8.625   6.066   9.147  1.2822 -0.7917  1.6574
  689MOL0     H95017   8.393   6.049   9.081  0.9271  0.4566  0.9431
  689MOL0     H95018   8.518   6.062   8.943 -1.4827 -0.9167 -0.9929
  689MOL0     H95019   8.463   5.849   8.874  0.2072 -2.1336  1.0042
  689MOL0     H95020   8.429   5.786   9.024  1.0830 -0.7727 -1.7380
  689MOL0     H95021   8.204   5.868   9.034  2.1830  0.1397  0.7776
  689MOL0     H95022   8.217   5.976   8.896 -2.6586 -1.3727 -1.9764
  689MOL0     H95023   8.248   5.778   8.746  0.5341  2.7084  0.7146
  689MOL0     H95024   8.105   5.764   8.846  0.7629  0.0338  0.5261
  689MOL0     H95025   8.361   5.618   8.886 -0.4392 -0.3125  0.1121
  689MOL0     H95026   8.244   5.637   9.016  0.8677  1.0610 -0.2575
  689MOL0     H95027   8.090   5.534   8.797  1.8186  2.8937 -1.3860
  689MOL0     H95028   8.163   5.450   8.937 -0.1352  0.4756  0.2757
  689MOL0     H95029   8.270   5.537   8.665  2.1587  0.6353  2.6506
  689MOL0     H95030   8.349   5.407   8.744  1.3392  0.4978 -0.5285
  689MOL0     H95031   8.066   5.249   8.797 -0.5136 -0.9608 -0.3119
  689MOL0     H95032   7.938   5.019   8.678 -1.4406  1.2075  1.9270
  689MOL0     H95033   7.929   5.031   8.499  0.5810  0.2015  0.8713
  689MOL0     H95034   7.780   5.232   8.664 -0.6978  1.1157 -0.2477
  689MOL0     H95035   7.741   5.176   8.506 -1.0462  3.1996  2.6458
  689MOL0     H95036   7.669   4.953   8.605 -0.7091  0.9372  0.8026
  689MOL0     H95037   7.666   5.027   8.763 -0.5700 -0.8774  0.3443
  689MOL0     H95038   7.481   5.149   8.705 -0.5205 -0.9497  0.9938
  689MOL0     H95039   7.517   5.138   8.528 -0.8394 -1.3468 -0.3538
  689MOL0     H95040   7.341   4.756   8.464  0.3402 -0.2285 -0.8483
  689MOL0     H95041   7.267   4.669   8.277 -0.0812  0.1902  2.0402
  689MOL0     H95042   7.138   4.738   8.172  0.9514  0.7912 -0.0548
  689MOL0     H95043   7.097   4.658   8.321  0.3785 -0.3996 -0.4314
  689MOL0     H95044   6.969   4.779   7.999 -1.5043 -1.4494 -0.4984
  689MOL0     H95045   6.859   4.730   7.797  0.9411  0.5452  0.7996
  689MOL0     H95046   6.737   5.058   7.563  1.3147  1.5746 -0.4639
  689MOL0     H95047   6.850   5.017   7.443 -1.0760 -1.1407 -2.2876
  689MOL0     H95048   6.620   4.993   7.343 -0.9668  0.6358  0.1539
  689MOL0     H95049   6.700   4.839   7.368  3.8202 -0.8475  2.7927
  689MOL0     H95050   6.584   4.793   7.578  1.1811 -1.0442 -0.5701
  689MOL0     H95051   6.472   4.813   7.446 -1.4414  2.2660 -1.0143
  689MOL0     H95052   6.372   4.990   7.537  0.7268 -1.8105 -1.6726
  689MOL0     H95053   6.515   5.064   7.592  1.4994 -0.3659 -4.1733
  689MOL0     H95054   6.493   4.868   7.792  0.0786  1.2330 -0.9548
  689MOL0     H95055   6.399   5.018   7.781 -1.3197  0.5956 -1.7593
  689MOL0     H95056   6.235   4.846   7.638 -3.3362  1.6713  2.3081
  689MOL0     H95057   6.245   4.863   7.817 -1.5919  0.3460 -1.8492
  689MOL0     H95058   6.349   4.652   7.838  1.5913  5.0009  0.4667
  689MOL0     H95059   6.443   4.685   7.708 -0.6386  1.5912 -0.8793
  689MOL0     H95060   6.303   4.504   7.642 -1.3096  0.0704 -0.2621
  689MOL0     H95061   6.247   4.655   7.554 -1.4894 -0.2172  0.6384
  689MOL0     H95062   6.926   5.115   7.638 -2.5146 -1.1396 -1.2614
  689MOL0     H95063   7.012   5.183   7.869  0.3004  0.2087 -2.0964
  689MOL0     H95064   7.118   5.170   8.318 -1.0593 -1.6165 -3.1280
  689MOL0     H95065   7.288   5.181   8.510 -0.3123 -0.9866  2.3915
  689MOL0     H95066   8.379   5.791   9.381  1.2259 -0.4178 -1.2016
  689MOL0     H95067   8.287   5.856   9.611 -3.3489 -0.2235 -4.7625
  689MOL0     H95068   8.444   6.293  10.025 -0.8320 -2.3327 -0.4029
  689MOL0     H95069   8.336   6.430  10.189  1.4567 -0.6031 -0.2679
  689MOL0     H95070   7.891   6.550  10.143  2.8108  0.8520  0.5159
  689MOL0     H95071   7.895   6.379  10.198  1.2354 -1.0880  1.6964
  689MOL0     H95072   7.784   6.561  10.343 -0.1640  2.1749 -2.6126
  689MOL0     H95073   7.945   6.636  10.363  1.2269 -0.2575 -2.3848
  689MOL0     H95074   8.033   6.408  10.434  2.1595  0.1213  5.1568
  689MOL0     H95075   7.944   6.502  10.547 -2.5902 -3.5566  2.1735
  689MOL0     H95076   7.891   6.248  10.552  1.8367  0.3627 -1.6469
  689MOL0     H95077   7.873   6.249  10.386  0.5111  0.3856 -0.3148
  689MOL0     H95078   7.497   6.381  10.549 -1.7538 -0.2837 -4.4002
  689MOL0     H95079   7.950   6.334   9.998  0.0096  0.4420 -2.4470
  689MOL0     H95080   8.057   6.277   9.704 -2.6868  1.3196  0.4151
  689MOL0     H95081   8.077   6.114   9.761  0.2466 -1.0579  2.4681
  689MOL0     H95082   7.942   6.206   9.814  0.3919  1.6005  0.6785
  690MOL0     O95083   9.931   9.861   2.158  0.1893  0.5799  0.3403
  690MOL0     C95084   9.922   9.821   2.270 -0.4873 -0.1635 -0.5174
  690MOL0     O95085   9.819   9.861   2.353  0.4299 -0.2761 -0.5437
  690MOL0     C95086   9.848   9.857   2.487 -0.7791  0.5871  0.4453
  690MOL0     C95087   9.758   9.815   2.580 -0.1075  0.1168 -0.2772
  690MOL0     C95088   9.792   9.818   2.712  0.1524  0.1085 -0.2242
  690MOL0     C95089   9.913   9.878   2.761 -0.3245  0.1834 -0.6069
  690MOL0     O95090   9.928   9.886   2.900 -0.0218 -1.1011 -0.1718
  690MOL0     C95091  10.031   9.971   2.945  0.5987  0.6693  0.2836
  690MOL0     C95092  10.054   9.941   3.096  0.0900 -0.4528 -0.1943
  690MOL0     C95093   9.921   9.958   3.176  0.4014 -0.8884 -0.2136
  690MOL0     C95094   9.852  10.100   3.184  0.1065 -0.6113 -0.4458
  690MOL0     C95095   9.710  10.099   3.240  0.0333  0.2148 -1.0252
  690MOL0     C95096   9.670  10.240   3.267  1.2722  1.0837 -0.6738
  690MOL0     C95097   9.547  10.241   3.355  0.1791  0.6729  0.4571
  690MOL0     C95098   9.506  10.393   3.386 -0.4931  0.7400 -0.1641
  690MOL0     N95099   9.459  10.463   3.274 -0.7683 -0.1735 -0.5882
  690MOL0     C95100   9.531  10.559   3.196  0.2997  0.2483 -0.2635
  690MOL0     C95101   9.441  10.606   3.102 -0.7645  0.3774  0.4043
  690MOL0     C95102   9.467  10.708   3.001  0.2047 -0.0824 -0.2940
  690MOL0     C95103   9.462  10.653   2.852  1.0138 -0.7433 -0.0034
  690MOL0     C95104   9.447  10.764   2.745  0.0674 -0.8146  0.9054
  690MOL0     C95105   9.354  10.710   2.634  0.5773  0.5177 -0.4483
  690MOL0     O95106   9.393  10.581   2.577  0.6508  0.3976 -0.2111
  690MOL0     C95107   9.349  10.541   2.455  0.5045 -0.5297  0.3605
  690MOL0     C95108   9.238  10.597   2.390  0.8534  0.3583 -0.4196
  690MOL0     C95109   9.178  10.533   2.281  0.0529 -0.4130  0.0840
  690MOL0     C95110   9.052  10.603   2.221  0.1874  0.9946  0.4405
  690MOL0     C95111   9.236  10.420   2.223  0.9765 -0.2259 -0.6076
  690MOL0     C95112   9.187  10.344   2.099 -0.0093  0.3680 -0.3771
  690MOL0     O95113   9.250  10.226   2.068  0.5093  0.2153 -0.7239
  690MOL0     C95114   9.224  10.174   1.944 -1.3729 -0.5530  0.5373
  690MOL0     C95115   9.232  10.256   1.827 -0.2526 -0.2789 -0.4869
  690MOL0     C95116   9.239  10.195   1.701 -0.2219  0.9287 -0.5828
  690MOL0     C95117   9.218  10.055   1.686 -0.6960 -0.6182 -0.0706
  690MOL0     O95118   9.227   9.994   1.564  0.4467  0.6909  0.0992
  690MOL0     C95119   9.202  10.073   1.448 -0.5225 -0.0948  0.3413
  690MOL0     C95120   9.141   9.972   1.344 -0.6318 -0.7254  0.4465
  690MOL0     C95121   9.005   9.920   1.387  0.8394 -0.1823  0.0921
  690MOL0     C95122   8.935   9.863   1.271  1.0640  0.8309 -0.0451
  690MOL0     C95123   8.796   9.790   1.299  0.9466 -0.6531 -0.6111
  690MOL0     C95124   8.728   9.737   1.186  0.4371 -0.9218  0.4803
  690MOL0     C95125   8.595   9.683   1.239  0.5616 -1.2856  0.4594
  690MOL0     C95126   8.522   9.585   1.146 -0.6170 -0.8008 -0.6082
  690MOL0    Cl95127   8.430   9.667   1.023 -0.4050 -0.4791  0.1049
  690MOL0     C95128   9.203   9.976   1.806  0.4457  0.4723  1.1215
  690MOL0     C95129   9.208  10.032   1.930  0.0258 -0.3393 -0.1961
  690MOL0     O95130   9.092  10.394   2.037 -0.5523 -0.7868 -0.0358
  690MOL0     C95131   9.355  10.376   2.288 -0.5898 -0.3334  0.3946
  690MOL0     C95132   9.412  10.436   2.402 -0.0052 -0.0095  0.3101
  690MOL0     N95133   9.323  10.549   3.134 -1.2052  0.0720 -0.8642
  690MOL0     N95134   9.331  10.457   3.228 -0.2408  0.5219 -0.1979
  690MOL0     C95135  10.009   9.900   2.663 -1.0937 -0.0846  0.3601
  690MOL0     C95136   9.973   9.898   2.530 -0.3878 -0.0523 -0.1304
  690MOL0     C95137  10.018   9.714   2.302 -1.5661 -1.4573  0.4548
  690MOL0     C95138   9.970   9.610   2.373  0.6240 -0.7431  0.5285
  690MOL0     C95139  10.050   9.516   2.431 -0.6190  1.6465  0.9879
  690MOL0     C95140  10.184   9.507   2.393  0.8084 -0.6536 -0.7052
  690MOL0     O95141  10.253   9.397   2.428 -0.0543  0.4883 -0.5362
  690MOL0     C95142  10.370   9.366   2.354 -0.4245 -0.5541  0.5082
  690MOL0     C95143  10.424   9.226   2.386 -0.4215 -0.2007 -0.4946
  690MOL0     C95144  10.327   9.114   2.346 -0.3961  0.1797  0.7569
  690MOL0     C95145  10.345   9.085   2.201 -1.1064  0.6212 -0.6440
  690MOL0     C95146  10.229   9.019   2.150 -0.0238 -0.4695 -0.4974
  690MOL0     C95147  10.129   8.972   2.089 -1.1180 -0.9111 -0.2759
  690MOL0     C95148  10.240   9.619   2.325  0.5465  0.1937 -0.4942
  690MOL0     C95149  10.159   9.724   2.279  0.1005 -0.3585  0.1850
  690MOL0     C95150  10.223   9.849   2.214  0.5773  0.8236  1.1130
  690MOL0     H95151   9.658   9.785   2.549 -1.7751  0.4901  4.0075
  690MOL0     H95152   9.726   9.805   2.797  3.3769 -0.1414  2.5029
  690MOL0     H95153  10.004  10.076   2.930  0.1814  0.1057 -5.0686
  690MOL0     H95154  10.126   9.953   2.893  0.5307 -0.2744  0.4690
  690MOL0     H95155  10.091   9.839   3.106  1.6938  0.0760 -0.3936
  690MOL0     H95156  10.125  10.015   3.135 -0.5665  0.9883 -1.5878
  690MOL0     H95157   9.846   9.887   3.140 -0.1066 -0.1589 -0.6300
  690MOL0     H95158   9.956   9.921   3.273 -0.9520  1.2426  1.1879
  690MOL0     H95159   9.917  10.142   3.261 -3.4166  0.0757  2.4182
  690MOL0     H95160   9.859  10.151   3.087 -0.9203  1.2102  0.3845
  690MOL0     H95161   9.713  10.033   3.327  2.9647  0.8907 -0.5034
  690MOL0     H95162   9.639  10.055   3.169  2.3247 -5.3272 -0.3471
  690MOL0     H95163   9.749  10.288   3.326 -0.0605  2.6839 -0.1187
  690MOL0     H95164   9.655  10.298   3.176 -2.8131 -0.7959 -1.4489
  690MOL0     H95165   9.561  10.181   3.446  2.6916  0.3493 -0.0732
  690MOL0     H95166   9.459  10.218   3.296  0.1871  1.3005  0.1846
  690MOL0     H95167   9.433  10.397   3.467  0.4628 -0.2115  0.7758
  690MOL0     H95168   9.597  10.446   3.415 -0.8829  2.1894 -1.4722
  690MOL0     H95169   9.631  10.595   3.216 -0.2716  1.4897  0.4926
  690MOL0     H95170   9.569  10.748   3.009  0.6087 -0.3248 -3.1754
  690MOL0     H95171   9.399  10.791   3.023 -1.3866 -1.4109 -0.0466
  690MOL0     H95172   9.560  10.607   2.838  1.5258  0.2911  0.0285
  690MOL0     H95173   9.385  10.576   2.850  1.8747 -1.6676  0.8856
  690MOL0     H95174   9.419  10.861   2.786  2.6247  1.7896 -2.8310
  690MOL0     H95175   9.545  10.770   2.697  0.1325  0.6863  1.1869
  690MOL0     H95176   9.257  10.704   2.684  1.6309  2.2850  1.9916
  690MOL0     H95177   9.359  10.778   2.548  0.4126  1.4226  0.2458
  690MOL0     H95178   9.192  10.688   2.427  0.0385 -0.7040  1.3282
  690MOL0     H95179   8.967  10.538   2.202 -0.1493  1.7379 -0.6426
  690MOL0     H95180   9.086  10.673   2.144 -0.7502  1.4774  0.4481
  690MOL0     H95181   9.018  10.672   2.300  0.2072  0.8016  0.6178
  690MOL0     H95182   9.249  10.363   1.819 -3.6104  0.3184 -1.2100
  690MOL0     H95183   9.277  10.248   1.615 -2.3077 -2.1473 -3.6662
  690MOL0     H95184   9.143  10.162   1.473 -0.6716  0.0019 -0.3249
  690MOL0     H95185   9.302  10.103   1.415  0.5422 -4.2573 -0.8176
  690MOL0     H95186   9.145  10.026   1.249  1.3536 -1.4195  0.0793
  690MOL0     H95187   9.209   9.888   1.331  0.5661  0.2527  0.1260
  690MOL0     H95188   8.944   9.998   1.434 -1.9659 -1.2165 -1.5661
  690MOL0     H95189   9.010   9.836   1.457  0.6704 -1.7454 -1.6773
  690MOL0     H95190   8.995   9.780   1.232  1.2993  1.6308 -1.4601
  690MOL0     H95191   8.931   9.945   1.199 -3.0664  2.2974  1.5455
  690MOL0     H95192   8.797   9.712   1.375 -0.6082 -0.4585 -0.3643
  690MOL0     H95193   8.742   9.867   1.355  1.0764 -1.1024  0.1430
  690MOL0     H95194   8.794   9.658   1.149  2.7520  2.2973 -2.9995
  690MOL0     H95195   8.715   9.814   1.109  0.3163  0.5875  1.9318
  690MOL0     H95196   8.533   9.765   1.276  0.7660 -0.6114 -0.6572
  690MOL0     H95197   8.610   9.611   1.320 -0.7178 -0.4475  1.4847
  690MOL0     H95198   8.450   9.521   1.198 -1.5871  0.7459 -0.0006
  690MOL0     H95199   8.600   9.515   1.114  0.6247  0.8813 -1.4416
  690MOL0     H95200   9.188   9.870   1.789  1.8994  0.4222 -0.0342
  690MOL0     H95201   9.188   9.973   2.019 -1.8736  0.2888 -0.1616
  690MOL0     H95202   9.411  10.294   2.244  4.6703  3.2280 -0.4542
  690MOL0     H95203   9.499  10.394   2.451 -0.7137  0.3792  1.9508
  690MOL0     H95204  10.104   9.950   2.678 -3.2407  4.3464  0.9507
  690MOL0     H95205  10.034   9.936   2.448  0.1406  3.0793  1.5617
  690MOL0     H95206   9.862   9.618   2.375  0.4969  0.5137 -3.3479
  690MOL0     H95207  10.014   9.436   2.495  4.0018  0.1426  2.0817
  690MOL0     H95208  10.339   9.360   2.249  1.5175 -3.5096 -0.0137
  690MOL0     H95209  10.448   9.442   2.368 -0.5235 -0.7350  2.2151
  690MOL0     H95210  10.430   9.222   2.495  3.5284 -0.7005 -0.5799
  690MOL0     H95211  10.527   9.217   2.350 -0.5709  0.4689 -1.1042
  690MOL0     H95212  10.354   9.026   2.406  2.4465  1.1899  1.0943
  690MOL0     H95213  10.225   9.143   2.374 -1.3625 -0.2641 -2.0144
  690MOL0     H95214  10.432   9.020   2.191 -2.1247 -1.0783  0.9242
  690MOL0     H95215  10.356   9.186   2.161  2.2531  0.7410  0.2209
  690MOL0     H95216  10.035   8.951   2.041  0.7097 -2.7706 -3.3291
  690MOL0     H95217  10.348   9.621   2.315  0.6567 -3.0700 -1.0135
  690MOL0     H95218  10.175   9.874   2.119  2.2750 -0.9192 -0.3053
  690MOL0     H95219  10.220   9.941   2.273 -1.4884  1.0667  0.6900
  690MOL0     H95220  10.326   9.817   2.194  0.4283  0.7573  0.4118
  691MOL0     O95221   7.990  10.375   5.416 -0.0824  0.4532  0.0364
  691MOL0     C95222   7.897  10.453   5.411  0.4453 -0.0936 -0.0966
  691MOL0     O95223   7.766  10.428   5.448 -0.4604  0.5090 -0.6253
  691MOL0     C95224   7.727  10.293   5.476  0.0962 -0.5134  0.3046
  691MOL0     C95225   7.697  10.209   5.366 -0.0263  0.2622 -0.4215
  691MOL0     C95226   7.646  10.072   5.381  0.5575  0.2078  0.1532
  691MOL0     C95227   7.636  10.021   5.511 -0.4962 -0.3701 -0.6608
  691MOL0     O95228   7.603   9.892   5.527 -0.1621 -0.0006  0.1001
  691MOL0     C95229   7.715   9.802   5.503 -0.6081  0.9483  0.0429
  691MOL0     C95230   7.717   9.763   5.362 -0.0061 -0.1438  0.3266
  691MOL0     C95231   7.788   9.638   5.325  0.1142  0.5004 -0.0804
  691MOL0     C95232   7.686   9.516   5.326  1.8033  0.2110 -0.3553
  691MOL0     C95233   7.745   9.390   5.258  0.2638  0.0710 -0.3673
  691MOL0     C95234   7.623   9.298   5.220  0.0400 -0.1069  0.6752
  691MOL0     C95235   7.549   9.268   5.346  0.7727 -0.3029  0.5441
  691MOL0     C95236   7.475   9.130   5.318  0.0188  0.2375 -0.1113
  691MOL0     N95237   7.417   9.058   5.429  0.0069  0.2433 -0.3485
  691MOL0     C95238   7.421   9.088   5.568 -0.1084  0.0655 -0.4008
  691MOL0     C95239   7.383   8.975   5.627  0.1565  0.4556  0.6651
  691MOL0     C95240   7.369   8.964   5.776  0.1564  0.1671 -0.8413
  691MOL0     C95241   7.213   8.924   5.806 -0.4858 -0.2905  0.0241
  691MOL0     C95242   7.176   8.936   5.961 -0.1726  0.7163  0.3654
  691MOL0     C95243   7.078   9.046   5.974 -0.1112 -0.6055  0.9588
  691MOL0     O95244   6.949   9.012   5.911 -0.0831  0.4077  0.1283
  691MOL0     C95245   6.847   9.102   5.936 -0.7322 -0.2152  0.5408
  691MOL0     C95246   6.819   9.192   5.839 -0.1025 -0.6931  0.6166
  691MOL0     C95247   6.711   9.284   5.849 -0.0640  0.4004  0.0217
  691MOL0     C95248   6.687   9.362   5.725  0.8366  1.0217 -0.2917
  691MOL0     C95249   6.621   9.278   5.963 -0.4768  1.1374 -0.1334
  691MOL0     C95250   6.507   9.372   5.988 -0.4212  0.0027 -0.1823
  691MOL0     O95251   6.466   9.456   5.884 -0.6114  0.4046  0.4441
  691MOL0     C95252   6.374   9.554   5.909 -0.3019  0.4756 -0.9599
  691MOL0     C95253   6.248   9.522   5.859  0.5120 -1.4127  0.4298
  691MOL0     C95254   6.146   9.611   5.889  0.2016  0.5297 -0.6757
  691MOL0     C95255   6.163   9.730   5.945  0.0965  0.0454  0.9671
  691MOL0     O95256   6.054   9.814   5.967  0.4515  0.8347 -0.5589
  691MOL0     C95257   5.951   9.828   5.867  0.7468  0.1842  0.2800
  691MOL0     C95258   5.895   9.974   5.861  1.1797 -0.3650  0.2989
  691MOL0     C95259   5.845  10.042   5.993  0.5121  0.5260  0.3737
  691MOL0     C95260   5.692  10.059   6.004  0.6795 -0.6519  0.2177
  691MOL0     C95261   5.641  10.156   6.117  1.1693  0.1269 -0.1048
  691MOL0     C95262   5.483  10.158   6.111 -0.8479 -0.3990  0.2273
  691MOL0     C95263   5.416  10.246   6.222 -0.0086  1.6612 -1.6680
  691MOL0     C95264   5.442  10.198   6.372  0.5258  0.2089 -0.6337
  691MOL0    Cl95265   5.389  10.330   6.483 -0.5828  0.2791  0.1602
  691MOL0     C95266   6.285   9.757   6.002  0.1207 -0.2619  0.3699
  691MOL0     C95267   6.395   9.670   5.978 -0.2768 -0.6748 -0.1396
  691MOL0     O95268   6.466   9.374   6.100  1.1435  0.2495  0.2171
  691MOL0     C95269   6.654   9.178   6.062  0.0075  0.1756  0.5423
  691MOL0     C95270   6.761   9.092   6.039 -1.1216  0.1963 -1.1530
  691MOL0     N95271   7.343   8.879   5.527 -0.4663 -0.7871 -0.9151
  691MOL0     N95272   7.356   8.941   5.409  0.7357 -0.3691 -0.1135
  691MOL0     C95273   7.655  10.107   5.610 -0.1958  0.3619  0.4703
  691MOL0     C95274   7.700  10.239   5.597  0.2097  0.4167 -0.5116
  691MOL0     C95275   7.926  10.591   5.374  0.0295  0.7061  0.1511
  691MOL0     C95276   7.911  10.678   5.486  0.8044  0.5751  0.1379
  691MOL0     C95277   7.951  10.813   5.468  0.2734  0.1615 -0.1424
  691MOL0     C95278   8.006  10.849   5.350  0.1225  0.6151  0.8379
  691MOL0     O95279   8.044  10.981   5.352 -0.3168  0.3225 -0.2532
  691MOL0     C95280   8.140  11.024   5.261  0.3969  0.6042 -0.2723
  691MOL0     C95281   8.061  11.066   5.141 -0.7445  0.5098 -0.3220
  691MOL0     C95282   8.149  11.124   5.028  0.4137 -0.2481  0.5046
  691MOL0     C95283   8.187  11.018   4.924 -0.0846 -0.5588 -0.9285
  691MOL0     C95284   8.280  10.920   4.977  0.1157  1.2693  0.5888
  691MOL0     C95285   8.369  10.842   5.025  0.0005 -0.2128 -0.4300
  691MOL0     C95286   8.025  10.755   5.246  1.0067 -0.9006  0.4409
  691MOL0     C95287   7.987  10.625   5.254 -0.2372 -0.4507 -0.3746
  691MOL0     C95288   8.017  10.534   5.139  0.8927  0.3121  0.5327
  691MOL0     H95289   7.712  10.241   5.263  1.1649 -4.2744 -1.8615
  691MOL0     H95290   7.623  10.012   5.294  1.3850 -0.7302  0.5595
  691MOL0     H95291   7.699   9.704   5.548  0.3367  1.0440  0.6203
  691MOL0     H95292   7.806   9.848   5.542 -1.0784  0.5885  1.6346
  691MOL0     H95293   7.612   9.759   5.334 -0.3366 -0.2197  1.5089
  691MOL0     H95294   7.768   9.846   5.312 -0.9556  1.6371  2.1457
  691MOL0     H95295   7.834   9.664   5.230 -0.3698  2.1107  0.0885
  691MOL0     H95296   7.862   9.621   5.404 -0.7468  2.7225  1.3257
  691MOL0     H95297   7.674   9.490   5.432  1.5361 -2.2609 -0.9370
  691MOL0     H95298   7.592   9.554   5.285  0.4871 -2.2306  0.2118
  691MOL0     H95299   7.821   9.334   5.313 -0.9097 -0.5479  0.6854
  691MOL0     H95300   7.790   9.420   5.163  1.4482 -3.0138 -0.9346
  691MOL0     H95301   7.560   9.347   5.145  1.2513  2.4824  1.2650
  691MOL0     H95302   7.670   9.206   5.185  1.0741 -0.4347  2.7943
  691MOL0     H95303   7.488   9.354   5.375  2.5288  1.0675  0.3598
  691MOL0     H95304   7.619   9.254   5.428  4.1297  2.2851 -1.5882
  691MOL0     H95305   7.393   9.152   5.249  1.3228  1.7738 -1.2450
  691MOL0     H95306   7.524   9.055   5.255  1.7189 -1.0396  2.5316
  691MOL0     H95307   7.459   9.170   5.628 -1.0746  0.6651 -0.5841
  691MOL0     H95308   7.389   9.062   5.821 -1.0822  0.9045 -1.8397
  691MOL0     H95309   7.439   8.890   5.817  0.1856 -0.2226 -1.5830
  691MOL0     H95310   7.156   9.004   5.757  1.7603  1.7366  0.5390
  691MOL0     H95311   7.189   8.829   5.756  1.7424 -1.3581  0.8204
  691MOL0     H95312   7.121   8.847   5.993 -1.8100 -0.7476 -5.4414
  691MOL0     H95313   7.259   8.948   6.032  1.3813  3.4779 -1.7034
  691MOL0     H95314   7.070   9.078   6.078 -0.4952  1.3305  0.3773
  691MOL0     H95315   7.111   9.132   5.914  0.3620 -1.7681 -0.5136
  691MOL0     H95316   6.881   9.185   5.750 -1.8727  2.2913 -1.0294
  691MOL0     H95317   6.588   9.345   5.680  1.0680 -0.4782 -0.2977
  691MOL0     H95318   6.760   9.338   5.647 -0.6888 -1.4223 -1.1045
  691MOL0     H95319   6.691   9.468   5.749 -0.7938  1.5657 -2.1764
  691MOL0     H95320   6.226   9.431   5.804 -0.5511 -2.2409  2.1611
  691MOL0     H95321   6.043   9.589   5.860  0.1794  1.2979 -1.2045
  691MOL0     H95322   5.975   9.795   5.765  3.9015 -0.0717  0.9872
  691MOL0     H95323   5.861   9.777   5.903  2.3224 -1.6038  1.9369
  691MOL0     H95324   5.986  10.029   5.836 -0.2853  2.4449  0.6816
  691MOL0     H95325   5.832   9.990   5.773  3.9864 -0.9788 -1.9813
  691MOL0     H95326   5.891  10.140   6.011  2.8710 -0.8873  2.8695
  691MOL0     H95327   5.883   9.980   6.075  0.0567 -0.9165 -0.4718
  691MOL0     H95328   5.645   9.962   6.018 -3.1424  0.6639 -2.1105
  691MOL0     H95329   5.665  10.099   5.906  0.5894 -1.3583 -0.0496
  691MOL0     H95330   5.672  10.110   6.211  0.5599  0.2116  0.1385
  691MOL0     H95331   5.680  10.256   6.095  1.3546 -0.0238 -0.4722
  691MOL0     H95332   5.446  10.057   6.130 -1.0656 -0.1441  1.2522
  691MOL0     H95333   5.442  10.195   6.017  0.3499 -2.3267 -1.1196
  691MOL0     H95334   5.309  10.263   6.209 -0.2958  1.4368  0.1666
  691MOL0     H95335   5.468  10.342   6.215  0.7048  1.3977 -0.2527
  691MOL0     H95336   5.547  10.170   6.387 -0.1723 -1.5364  1.4197
  691MOL0     H95337   5.373  10.115   6.382  2.5668 -1.5440 -0.3955
  691MOL0     H95338   6.301   9.854   6.049  1.4655  0.3536 -1.2361
  691MOL0     H95339   6.490   9.683   6.029  0.7276 -0.7261 -1.9182
  691MOL0     H95340   6.595   9.171   6.153  1.1840 -1.5637  1.2206
  691MOL0     H95341   6.764   9.016   6.117 -2.4619  1.6034  0.3272
  691MOL0     H95342   7.653  10.063   5.709  0.5153  1.7778  1.1428
  691MOL0     H95343   7.717  10.300   5.685  1.4398 -0.2085 -0.2887
  691MOL0     H95344   7.873  10.640   5.580  0.7627  0.8828  0.2442
  691MOL0     H95345   7.942  10.894   5.540 -0.7064  3.7990 -4.0062
  691MOL0     H95346   8.197  11.100   5.316  0.2997  2.1534 -2.1869
  691MOL0     H95347   8.225  10.964   5.228  1.5456  2.2369 -0.4114
  691MOL0     H95348   7.987  11.142   5.165 -0.6601  0.8137 -0.9812
  691MOL0     H95349   8.002  10.983   5.103 -4.6746  1.3198  3.3112
  691MOL0     H95350   8.099  11.211   4.984 -1.4492 -0.3739  2.2076
  691MOL0     H95351   8.238  11.162   5.077  2.3632 -0.3412 -2.6881
  691MOL0     H95352   8.237  11.059   4.836 -0.3010 -2.2845 -1.8842
  691MOL0     H95353   8.097  10.971   4.885 -0.7561  1.7511 -2.3862
  691MOL0     H95354   8.459  10.788   5.045 -1.1612 -1.5656  1.5026
  691MOL0     H95355   8.060  10.779   5.146 -0.2139  0.3603  0.2771
  691MOL0     H95356   8.095  10.468   5.178 -1.3652 -2.8329  0.1731
  691MOL0     H95357   7.924  10.481   5.115 -0.9928  2.8720  1.6358
  691MOL0     H95358   8.057  10.591   5.055  1.2415 -3.1004 -1.8222
  692MOL0     O95359   6.019   4.316   7.328  0.3250  0.4157 -0.5681
  692MOL0     C95360   6.001   4.221   7.406  0.5638 -0.6353 -0.1074
  692MOL0     O95361   6.101   4.135   7.442 -0.1950 -0.2086 -0.2562
  692MOL0     C95362   6.211   4.131   7.364 -0.1753  0.2501 -1.0870
  692MOL0     C95363   6.228   4.012   7.292 -0.0251 -0.4169 -1.3039
  692MOL0     C95364   6.338   3.992   7.205 -0.0786 -0.3535 -0.6812
  692MOL0     C95365   6.416   4.095   7.177 -0.3486 -0.6712  0.7078
  692MOL0     O95366   6.515   4.093   7.087 -0.0333  0.3139  0.5094
  692MOL0     C95367   6.601   3.976   7.077 -0.1487 -0.5568 -0.6202
  692MOL0     C95368   6.566   3.905   6.949 -0.4607  0.5330 -0.3834
  692MOL0     C95369   6.628   3.763   6.933 -0.3495 -0.3470  0.1199
  692MOL0     C95370   6.775   3.772   6.916 -0.4268 -0.7274 -0.1016
  692MOL0     C95371   6.854   3.634   6.924  0.0780  0.3178 -0.7556
  692MOL0     C95372   6.831   3.514   6.828  0.1504  0.2328  0.0740
  692MOL0     C95373   6.845   3.545   6.676  0.3268  0.2606 -0.4889
  692MOL0     C95374   6.816   3.424   6.579  0.1980 -0.4545 -0.5201
  692MOL0     N95375   6.673   3.394   6.565 -0.2707 -0.2668 -0.0791
  692MOL0     C95376   6.593   3.443   6.466  0.8500  1.3139  0.3635
  692MOL0     C95377   6.466   3.383   6.481 -0.2659 -0.4638 -0.6225
  692MOL0     C95378   6.359   3.397   6.374  0.0071  0.5323 -0.1959
  692MOL0     C95379   6.206   3.413   6.417  0.1241  0.0908 -1.0140
  692MOL0     C95380   6.184   3.547   6.493 -0.4001 -0.5142  0.6236
  692MOL0     C95381   6.031   3.569   6.502  0.3876  0.2699 -0.7399
  692MOL0     O95382   5.970   3.589   6.372  0.6425  0.1420  0.2103
  692MOL0     C95383   5.978   3.716   6.336 -0.5792  0.2999  0.7008
  692MOL0     C95384   5.935   3.829   6.400 -1.0967 -0.1344 -0.0325
  692MOL0     C95385   5.972   3.960   6.361 -0.6152 -0.1653 -0.0278
  692MOL0     C95386   5.900   4.078   6.430  0.4001 -1.2745  0.5214
  692MOL0     C95387   6.054   3.980   6.248 -0.4679 -0.7009  0.1141
  692MOL0     C95388   6.116   4.113   6.205  0.7120 -0.4463  0.2655
  692MOL0     O95389   6.235   4.115   6.135 -0.5660  0.4268  1.0862
  692MOL0     C95390   6.299   4.234   6.109 -0.5624 -0.8687  0.6933
  692MOL0     C95391   6.426   4.267   6.154 -0.4168  0.3515 -0.3392
  692MOL0     C95392   6.491   4.396   6.116 -0.0456  0.2328 -0.5037
  692MOL0     C95393   6.422   4.482   6.030  0.6473 -0.5744  0.6176
  692MOL0     O95394   6.475   4.583   5.960 -0.0892 -0.6416 -0.1453
  692MOL0     C95395   6.599   4.564   5.900  0.3195 -0.0316 -0.0443
  692MOL0     C95396   6.616   4.692   5.820 -0.4278  0.4024  0.9551
  692MOL0     C95397   6.767   4.737   5.802  0.3665  0.9458 -0.7351
  692MOL0     C95398   6.768   4.886   5.761 -0.1582 -0.3577 -0.5495
  692MOL0     C95399   6.908   4.945   5.773 -0.4181  0.3444  0.1733
  692MOL0     C95400   6.942   4.970   5.922  0.3441 -0.6935 -0.6801
  692MOL0     C95401   7.048   5.081   5.929  0.0069 -0.5818  0.4681
  692MOL0     C95402   7.109   5.095   6.069 -0.2057 -0.2839 -0.2857
  692MOL0    Cl95403   7.004   5.192   6.176 -0.0360  0.0123 -0.3557
  692MOL0     C95404   6.297   4.441   5.981  0.1112 -0.4698 -0.5187
  692MOL0     C95405   6.244   4.322   6.006  0.0885  0.3278 -0.3625
  692MOL0     O95406   6.063   4.222   6.256 -0.1009  0.7706  0.4291
  692MOL0     C95407   6.098   3.864   6.184 -0.1615 -0.7291 -0.2730
  692MOL0     C95408   6.046   3.741   6.222  0.3876  1.5638 -0.3993
  692MOL0     N95409   6.475   3.305   6.602 -0.7926  0.0048  1.9680
  692MOL0     N95410   6.597   3.310   6.647 -0.5832 -0.2627  0.4316
  692MOL0     C95411   6.405   4.222   7.238 -0.1134 -0.6748 -0.0910
  692MOL0     C95412   6.302   4.235   7.336 -0.2083 -0.4893  0.6553
  692MOL0     C95413   5.872   4.203   7.467  0.2599 -1.1851 -0.2798
  692MOL0     C95414   5.824   4.307   7.549  0.8049  0.1554 -1.2040
  692MOL0     C95415   5.703   4.297   7.622  0.2023 -0.1323  0.3557
  692MOL0     C95416   5.621   4.182   7.602  0.9275 -0.7965  0.2658
  692MOL0     O95417   5.506   4.172   7.679 -0.5720 -1.7582  0.0967
  692MOL0     C95418   5.442   4.044   7.692 -0.0873  0.4044  0.1875
  692MOL0     C95419   5.322   4.067   7.786 -0.7887  0.0365  0.6266
  692MOL0     C95420   5.225   3.953   7.748  0.1731 -0.1705 -0.4779
  692MOL0     C95421   5.126   3.982   7.635 -0.3466  0.5369 -0.0771
  692MOL0     C95422   5.039   4.077   7.679  0.4896 -0.6420 -0.9158
  692MOL0     C95423   4.983   4.183   7.718 -0.6070  1.0896  0.4992
  692MOL0     C95424   5.674   4.074   7.534  0.4569  1.0824 -0.1746
  692MOL0     C95425   5.799   4.086   7.464  0.6938  0.5677 -0.7229
  692MOL0     C95426   5.850   3.971   7.379 -0.2902  0.4336 -0.7234
  692MOL0     H95427   6.185   3.916   7.320 -1.1167 -0.8138 -3.9849
  692MOL0     H95428   6.354   3.902   7.147 -0.2817 -1.7237  1.2621
  692MOL0     H95429   6.597   3.917   7.169 -1.1074  1.4471  0.6954
  692MOL0     H95430   6.701   4.020   7.086 -0.8623  1.1884 -0.7102
  692MOL0     H95431   6.459   3.890   6.931 -0.2283 -1.7836 -0.0522
  692MOL0     H95432   6.605   3.978   6.877  1.7933  1.9225  2.0511
  692MOL0     H95433   6.612   3.705   7.024 -0.5005 -1.0397 -0.3423
  692MOL0     H95434   6.579   3.710   6.852  0.3131 -0.7964  0.0089
  692MOL0     H95435   6.796   3.817   6.818 -0.2314  1.4150  0.8614
  692MOL0     H95436   6.804   3.839   6.997 -1.5050  0.0389 -0.3226
  692MOL0     H95437   6.848   3.614   7.031 -2.0342  3.8075 -0.0776
  692MOL0     H95438   6.961   3.654   6.910  0.2438  0.4486  0.5588
  692MOL0     H95439   6.913   3.444   6.841  2.9088  2.8436 -1.7376
  692MOL0     H95440   6.738   3.465   6.857 -0.0118  1.6260  2.0898
  692MOL0     H95441   6.946   3.581   6.656  1.9404 -1.9817  2.7574
  692MOL0     H95442   6.778   3.628   6.652 -1.2975 -1.8183 -3.9307
  692MOL0     H95443   6.864   3.448   6.484 -0.3327  0.3714 -0.5885
  692MOL0     H95444   6.866   3.332   6.611  0.8573  0.2756  0.6387
  692MOL0     H95445   6.621   3.511   6.386  1.5985  0.2931 -0.2647
  692MOL0     H95446   6.358   3.294   6.338 -0.6791  0.4929 -0.0768
  692MOL0     H95447   6.386   3.474   6.301 -1.4449  0.8862 -0.3877
  692MOL0     H95448   6.153   3.418   6.322  0.0085 -1.4032 -1.0505
  692MOL0     H95449   6.167   3.322   6.462  0.5380 -0.2513 -1.3361
  692MOL0     H95450   6.214   3.520   6.595 -1.7993 -3.5651  0.3361
  692MOL0     H95451   6.232   3.630   6.441 -1.8458  0.9431  1.5164
  692MOL0     H95452   5.989   3.483   6.554 -0.9543  0.1614 -1.9567
  692MOL0     H95453   6.008   3.647   6.575  3.7903 -1.8661  3.0209
  692MOL0     H95454   5.854   3.820   6.472 -1.2024  0.7578 -0.0295
  692MOL0     H95455   5.832   4.034   6.504  0.2817 -2.5310 -0.3122
  692MOL0     H95456   5.836   4.123   6.354 -0.5313 -4.2179 -0.5702
  692MOL0     H95457   5.971   4.147   6.477 -0.0609 -0.0805 -0.4900
  692MOL0     H95458   6.489   4.192   6.202  2.2537  0.6211 -3.1392
  692MOL0     H95459   6.594   4.419   6.143  0.5328 -3.0630  0.5804
  692MOL0     H95460   6.689   4.559   5.963  0.4764 -0.1990 -0.2825
  692MOL0     H95461   6.598   4.491   5.819 -0.9213 -0.3667  0.2411
  692MOL0     H95462   6.569   4.683   5.721  0.2757  1.5368  0.4933
  692MOL0     H95463   6.572   4.776   5.875  0.3562  0.8341  0.9439
  692MOL0     H95464   6.813   4.684   5.718  1.0299 -0.6560  0.5851
  692MOL0     H95465   6.820   4.700   5.890  1.0596 -3.9801 -2.9269
  692MOL0     H95466   6.706   4.959   5.815  1.0552  1.1981 -1.1748
  692MOL0     H95467   6.735   4.886   5.657  1.7712 -0.7286 -1.1890
  692MOL0     H95468   6.978   4.872   5.731  0.1571  1.1275 -0.2627
  692MOL0     H95469   6.919   5.039   5.718 -2.2538 -2.3764 -5.5856
  692MOL0     H95470   6.977   4.875   5.964  0.9320 -0.1844  0.0002
  692MOL0     H95471   6.852   5.012   5.968 -1.8838 -0.8917 -4.4021
  692MOL0     H95472   7.012   5.175   5.887  1.5726 -0.6494 -1.1751
  692MOL0     H95473   7.136   5.058   5.868 -0.6273  1.1327 -1.1799
  692MOL0     H95474   7.204   5.143   6.049 -0.9701  2.2964  1.7506
  692MOL0     H95475   7.132   5.002   6.121 -2.9875  0.1834  2.0476
  692MOL0     H95476   6.252   4.512   5.913 -0.3613 -1.4120 -1.2107
  692MOL0     H95477   6.154   4.289   5.954 -0.6625  4.4863 -2.1411
  692MOL0     H95478   6.166   3.873   6.099 -0.0700  0.0327 -0.1269
  692MOL0     H95479   6.089   3.653   6.176  2.4405  1.7866  0.9636
  692MOL0     H95480   6.471   4.303   7.209  4.2752 -3.8332  0.0874
  692MOL0     H95481   6.287   4.328   7.390  1.8640  0.5057 -0.3707
  692MOL0     H95482   5.882   4.397   7.566 -0.8263  0.7804  1.8776
  692MOL0     H95483   5.663   4.378   7.682 -3.3995 -0.2505 -1.6054
  692MOL0     H95484   5.403   4.000   7.600 -0.9962  0.2477  0.6419
  692MOL0     H95485   5.512   3.967   7.725 -1.0570 -0.4458  0.3041
  692MOL0     H95486   5.270   4.162   7.771  0.5870  0.9959  1.7785
  692MOL0     H95487   5.353   4.059   7.890  2.5247 -3.7493 -0.4092
  692MOL0     H95488   5.274   3.863   7.708  0.1540  1.2033 -3.8914
  692MOL0     H95489   5.178   3.937   7.846 -0.0280 -4.4169 -1.0878
  692MOL0     H95490   5.076   3.893   7.597  2.5870  0.2358 -3.8566
  692MOL0     H95491   5.185   4.011   7.548 -0.5592 -4.0836 -2.0230
  692MOL0     H95492   4.962   4.284   7.749  0.1564  1.5154 -0.3131
  692MOL0     H95493   5.606   3.991   7.516  0.5835 -0.0678  3.6275
  692MOL0     H95494   5.797   3.876   7.395 -1.7616  1.1551 -1.1216
  692MOL0     H95495   5.849   3.996   7.273 -0.1099 -0.8834 -1.0474
  692MOL0     H95496   5.953   3.947   7.408 -0.9339 -0.4476  0.9903
  693MOL0     O95497   5.213   4.442   0.571 -0.2659 -0.2811 -0.9117
  693MOL0     C95498   5.128   4.521   0.616 -0.7098 -0.4063  0.0625
  693MOL0     O95499   5.085   4.642   0.560  0.5127  0.2945  0.7906
  693MOL0     C95500   5.085   4.661   0.423  0.9292 -0.4696  0.7321
  693MOL0     C95501   4.987   4.753   0.374  0.7600 -1.1458 -0.4913
  693MOL0     C95502   4.971   4.774   0.242 -0.9010  0.0972  1.1907
  693MOL0     C95503   5.058   4.710   0.145  0.9564 -0.3081 -0.7901
  693MOL0     O95504   5.036   4.735   0.011 -0.3127  0.1395  0.1338
  693MOL0     C95505   5.105   4.659  -0.095  0.3718 -0.4520  0.5342
  693MOL0     C95506   5.037   4.711  -0.219  0.8205 -0.5726  1.0573
  693MOL0     C95507   5.090   4.688  -0.360  0.3909  0.3272 -0.0044
  693MOL0     C95508   4.995   4.764  -0.458 -0.9337  0.3368 -0.0121
  693MOL0     C95509   5.024   4.738  -0.607 -0.0051  0.2561  0.7297
  693MOL0     C95510   5.167   4.762  -0.658  0.4677  0.3213  0.0716
  693MOL0     C95511   5.220   4.902  -0.633 -0.3784 -0.3900  0.6672
  693MOL0     C95512   5.317   4.943  -0.741 -1.0292  0.3017 -0.3021
  693MOL0     N95513   5.262   4.942  -0.879  0.1274  0.1176 -0.0537
  693MOL0     C95514   5.271   4.829  -0.962 -0.2828  0.6625 -0.0465
  693MOL0     C95515   5.192   4.869  -1.069 -0.3095  0.2960  0.5625
  693MOL0     C95516   5.172   4.780  -1.186 -0.5439 -0.8477 -0.4993
  693MOL0     C95517   5.289   4.788  -1.284 -0.5482  0.5928  1.0475
  693MOL0     C95518   5.250   4.700  -1.411  0.0397  0.5096 -0.5910
  693MOL0     C95519   5.199   4.556  -1.372  0.8620 -0.4218  0.3782
  693MOL0     O95520   5.295   4.498  -1.285 -0.1590 -0.2630 -0.7440
  693MOL0     C95521   5.254   4.405  -1.185 -0.6499 -0.1437 -0.8883
  693MOL0     C95522   5.353   4.380  -1.091 -0.1272  0.5716 -0.2473
  693MOL0     C95523   5.344   4.279  -1.001 -0.0781  0.2082 -0.5734
  693MOL0     C95524   5.470   4.262  -0.913 -0.2583  1.1747  0.8529
  693MOL0     C95525   5.236   4.188  -1.010  0.5779 -0.4996 -0.2702
  693MOL0     C95526   5.208   4.076  -0.917  0.1261  0.3003 -0.3764
  693MOL0     O95527   5.083   4.051  -0.870  0.3378 -0.1417  0.3023
  693MOL0     C95528   5.062   3.936  -0.798 -0.0477  0.0483  0.0812
  693MOL0     C95529   4.981   3.834  -0.852 -0.4840  0.4811  0.4174
  693MOL0     C95530   4.980   3.709  -0.777 -0.1354 -0.0186 -0.3370
  693MOL0     C95531   5.036   3.701  -0.653 -0.5385  0.0521 -1.2056
  693MOL0     O95532   5.022   3.593  -0.561  0.2608 -0.0011 -0.7415
  693MOL0     C95533   4.893   3.526  -0.582  0.2189  0.3915  0.2315
  693MOL0     C95534   4.865   3.424  -0.478 -0.3363  0.7171  1.0601
  693MOL0     C95535   4.808   3.481  -0.360  0.2442  0.4569  0.3181
  693MOL0     C95536   4.767   3.365  -0.272  0.4279 -0.0088  0.1822
  693MOL0     C95537   4.689   3.409  -0.154 -0.0990  0.2169 -0.9472
  693MOL0     C95538   4.608   3.305  -0.080  0.3373 -0.2295  0.3786
  693MOL0     C95539   4.461   3.352  -0.045  0.2274 -0.2064 -0.3755
  693MOL0     C95540   4.376   3.342  -0.169 -0.2324  0.7851 -0.3796
  693MOL0    Cl95541   4.216   3.401  -0.115  0.2160 -0.0789 -0.3475
  693MOL0     C95542   5.121   3.806  -0.613  0.3282 -0.2673 -0.0767
  693MOL0     C95543   5.132   3.920  -0.681  0.5719 -0.4117 -0.4252
  693MOL0     O95544   5.310   4.004  -0.895  0.8223 -0.3265  0.3439
  693MOL0     C95545   5.131   4.217  -1.100 -0.0743  0.7373 -0.0929
  693MOL0     C95546   5.134   4.334  -1.174  0.1753 -0.6531 -0.5881
  693MOL0     N95547   5.132   4.995  -1.043 -0.1889  0.2619  0.4273
  693MOL0     N95548   5.167   5.033  -0.924  0.2620  0.0668  0.7058
  693MOL0     C95549   5.158   4.638   0.189 -0.1380  0.2989  0.5421
  693MOL0     C95550   5.182   4.613   0.325  0.6315 -0.7028 -0.2312
  693MOL0     C95551   5.107   4.514   0.763  0.1954 -0.2626  0.2865
  693MOL0     C95552   4.985   4.466   0.815 -0.7705 -0.0801  0.0291
  693MOL0     C95553   4.967   4.461   0.957 -1.0660  0.7066 -1.1171
  693MOL0     C95554   5.070   4.507   1.041  0.0698  1.1322 -0.7126
  693MOL0     O95555   5.041   4.490   1.177 -0.6250 -0.4048  0.3667
  693MOL0     C95556   5.156   4.474   1.260 -0.3146  0.8139  0.4052
  693MOL0     C95557   5.101   4.449   1.391 -0.0105 -0.2616 -0.5963
  693MOL0     C95558   5.219   4.427   1.489  0.4226 -0.3128  0.3840
  693MOL0     C95559   5.172   4.367   1.623  0.0121  0.1483 -0.6032
  693MOL0     C95560   5.069   4.456   1.679  0.0190 -1.1839 -0.5513
  693MOL0     C95561   4.972   4.529   1.705  0.7006  0.3057  0.1061
  693MOL0     C95562   5.183   4.570   0.991 -0.3064 -0.9042  0.1547
  693MOL0     C95563   5.208   4.568   0.854 -0.3588 -0.2208  0.1882
  693MOL0     C95564   5.332   4.619   0.803 -0.2536  0.1340 -0.0327
  693MOL0     H95565   4.912   4.804   0.433  1.4481  0.2128 -0.7541
  693MOL0     H95566   4.888   4.832   0.201 -1.2529 -1.5495 -0.5657
  693MOL0     H95567   5.095   4.550  -0.091 -0.2646 -0.3578  1.7059
  693MOL0     H95568   5.210   4.690  -0.108 -0.9587  3.3538 -4.4556
  693MOL0     H95569   4.928   4.702  -0.211  0.2475  2.3502 -1.7632
  693MOL0     H95570   5.050   4.819  -0.208 -2.4724 -0.1463  1.9701
  693MOL0     H95571   5.198   4.708  -0.357  0.4227  0.5011 -1.3552
  693MOL0     H95572   5.073   4.582  -0.380 -5.8833  0.2267  3.3861
  693MOL0     H95573   4.891   4.748  -0.430 -1.0784 -0.6306 -1.0244
  693MOL0     H95574   5.003   4.870  -0.434  1.5289  0.1472  0.3306
  693MOL0     H95575   4.968   4.803  -0.675 -0.1422  1.3908  1.8740
  693MOL0     H95576   4.995   4.634  -0.625  0.2587  0.3748 -0.5007
  693MOL0     H95577   5.230   4.681  -0.618  1.2359 -0.2024 -2.0641
  693MOL0     H95578   5.151   4.745  -0.765 -0.5750  1.5717  0.0084
  693MOL0     H95579   5.267   4.901  -0.534 -0.9468  0.7142  0.9769
  693MOL0     H95580   5.148   4.985  -0.632  2.1209  1.9984 -1.6474
  693MOL0     H95581   5.359   5.041  -0.718 -3.7000  1.6356 -0.7317
  693MOL0     H95582   5.397   4.868  -0.745 -1.0712  0.1559  0.9942
  693MOL0     H95583   5.329   4.738  -0.954 -1.6208 -0.2071  0.0678
  693MOL0     H95584   5.076   4.799  -1.235 -0.0139  1.3486 -0.7880
  693MOL0     H95585   5.171   4.679  -1.144 -2.3652  0.0010  1.7551
  693MOL0     H95586   5.307   4.895  -1.302 -5.6271  1.7043  1.0084
  693MOL0     H95587   5.374   4.749  -1.228 -0.4320 -0.8445 -0.0766
  693MOL0     H95588   5.167   4.741  -1.469 -1.8638  0.4027  1.9070
  693MOL0     H95589   5.341   4.692  -1.472 -0.0055  0.9635 -0.7203
  693MOL0     H95590   5.100   4.567  -1.327  0.5150 -1.8542  0.0250
  693MOL0     H95591   5.184   4.504  -1.467  0.1426  2.2029 -1.0302
  693MOL0     H95592   5.451   4.421  -1.115 -0.6179 -0.1445 -4.0178
  693MOL0     H95593   5.496   4.161  -0.879  3.7170  1.5931 -0.4595
  693MOL0     H95594   5.442   4.316  -0.822  0.7252 -0.5545  2.2524
  693MOL0     H95595   5.558   4.310  -0.957 -0.6726  1.4800  0.3495
  693MOL0     H95596   4.927   3.850  -0.945 -2.2106  1.3772  1.5281
  693MOL0     H95597   4.931   3.625  -0.827  2.2656 -0.8007 -1.5482
  693MOL0     H95598   4.808   3.594  -0.578 -1.1985 -1.2995  0.2965
  693MOL0     H95599   4.906   3.478  -0.679 -1.3756  1.3314 -0.4755
  693MOL0     H95600   4.787   3.354  -0.509 -0.3696  1.2675 -0.1169
  693MOL0     H95601   4.964   3.387  -0.449  0.1284  1.0604 -0.0556
  693MOL0     H95602   4.720   3.539  -0.389 -0.1291  0.1992  0.9175
  693MOL0     H95603   4.882   3.540  -0.305  2.1573 -2.6442  1.3326
  693MOL0     H95604   4.851   3.305  -0.236  2.1204  1.5714 -0.9444
  693MOL0     H95605   4.707   3.291  -0.327 -0.2444 -0.6965  1.7766
  693MOL0     H95606   4.765   3.437  -0.080 -1.3726  0.1361  0.4361
  693MOL0     H95607   4.628   3.498  -0.173 -2.0736 -1.1203 -1.1966
  693MOL0     H95608   4.662   3.284   0.013  1.5629  1.3237  0.0691
  693MOL0     H95609   4.591   3.211  -0.133 -1.7342  0.0241  0.5445
  693MOL0     H95610   4.463   3.454  -0.004 -1.3689  1.3573 -3.7703
  693MOL0     H95611   4.434   3.290   0.041  2.9115  2.6189  2.8308
  693MOL0     H95612   4.367   3.249  -0.226  0.4644  0.0668  0.6417
  693MOL0     H95613   4.411   3.418  -0.240 -2.6327  2.8048  0.4628
  693MOL0     H95614   5.164   3.796  -0.514  0.5603 -1.3388 -0.2746
  693MOL0     H95615   5.187   4.008  -0.649 -2.2168  0.4784  2.5627
  693MOL0     H95616   5.047   4.151  -1.117 -0.5155  1.6525 -1.6699
  693MOL0     H95617   5.046   4.338  -1.239  1.0916 -0.4027 -1.8502
  693MOL0     H95618   5.228   4.604   0.114  0.7062  3.0340 -0.0545
  693MOL0     H95619   5.270   4.563   0.363  0.6228  0.2057  1.0492
  693MOL0     H95620   4.909   4.442   0.741 -1.7121  1.4465  0.4380
  693MOL0     H95621   4.877   4.414   0.996  0.2343 -1.9960 -1.1141
  693MOL0     H95622   5.219   4.392   1.225  1.2315  1.5207  1.3942
  693MOL0     H95623   5.220   4.560   1.282  1.8560 -1.5886  4.9593
  693MOL0     H95624   5.033   4.364   1.380  2.8427 -2.5169 -2.3862
  693MOL0     H95625   5.058   4.543   1.425  3.2080  1.3901 -0.7781
  693MOL0     H95626   5.278   4.349   1.440 -1.3199 -4.4032  3.9860
  693MOL0     H95627   5.278   4.512   1.524  4.2231 -2.8773  0.8486
  693MOL0     H95628   5.256   4.344   1.689 -0.3482  0.1884 -0.1218
  693MOL0     H95629   5.111   4.277   1.606  1.9478 -0.8915 -2.4778
  693MOL0     H95630   4.890   4.597   1.716 -0.2656 -0.3924 -2.2081
  693MOL0     H95631   5.242   4.630   1.060 -0.4072 -0.5037 -0.1007
  693MOL0     H95632   5.405   4.546   0.766  0.9677 -0.3251  3.0096
  693MOL0     H95633   5.311   4.693   0.725 -1.2034  1.6093  1.5692
  693MOL0     H95634   5.382   4.680   0.879  2.1042 -0.7877 -0.7330
  694MOL0     O95635   9.143   0.688  11.206 -0.2000  0.5192 -0.2650
  694MOL0     C95636   9.125   0.599  11.287  0.5101  0.9640 -0.0237
  694MOL0     O95637   9.169   0.467  11.278 -0.3074  0.4503  0.1841
  694MOL0     C95638   9.261   0.413  11.185  1.5785 -0.2012  0.1080
  694MOL0     C95639   9.350   0.479  11.107 -0.5443 -0.0751  0.6251
  694MOL0     C95640   9.454   0.427  11.038  0.3034  0.6840  1.1313
  694MOL0     C95641   9.466   0.292  11.020 -0.2359 -0.6792 -0.0584
  694MOL0     O95642   9.559   0.242  10.936 -0.2942  0.0261 -0.0705
  694MOL0     C95643   9.588   0.104  10.942  0.9305 -0.0581 -0.2576
  694MOL0     C95644   9.691   0.070  10.851 -0.9199 -0.3819  0.2953
  694MOL0     C95645   9.826   0.137  10.879 -1.1739 -0.7754  0.5373
  694MOL0     C95646   9.921   0.110  10.756  0.3091  0.5074 -0.3144
  694MOL0     C95647  10.063   0.160  10.786 -0.6948  0.6385  0.2142
  694MOL0     C95648  10.149   0.142  10.663 -0.8956  0.6463  0.7240
  694MOL0     C95649  10.297   0.123  10.692 -0.0647  0.4512  0.5919
  694MOL0     C95650  10.337  -0.012  10.753  0.0537  1.0047 -0.2953
  694MOL0     N95651  10.340  -0.119  10.651  0.6607 -0.2072 -0.1503
  694MOL0     C95652  10.315  -0.254  10.672 -0.0767  0.0849 -0.7188
  694MOL0     C95653  10.303  -0.315  10.551  0.0157 -0.7156 -0.4741
  694MOL0     C95654  10.277  -0.466  10.527  0.1674 -0.0697 -0.3258
  694MOL0     C95655  10.137  -0.497  10.470  0.1923  0.8927  0.5999
  694MOL0     C95656  10.150  -0.626  10.376  0.1399 -0.2181  0.0941
  694MOL0     C95657  10.014  -0.693  10.339 -0.2357  0.0662  0.0814
  694MOL0     O95658   9.928  -0.606  10.261  0.0411  0.8684  0.3621
  694MOL0     C95659   9.789  -0.634  10.267 -0.1464 -0.0267  0.3094
  694MOL0     C95660   9.700  -0.534  10.304 -0.0644  0.0640 -0.9622
  694MOL0     C95661   9.565  -0.546  10.280  0.6261 -0.1313  0.2142
  694MOL0     C95662   9.459  -0.464  10.352 -0.2479 -0.0164 -0.8628
  694MOL0     C95663   9.510  -0.658  10.209  0.2065  0.1998  0.3887
  694MOL0     C95664   9.362  -0.692  10.186 -0.0706  0.5807 -0.6085
  694MOL0     O95665   9.319  -0.820  10.181 -0.3025  0.8451 -0.2971
  694MOL0     C95666   9.186  -0.841  10.143 -0.0903  0.7581  0.1667
  694MOL0     C95667   9.063  -0.782  10.189  0.5208 -0.2366  0.2443
  694MOL0     C95668   8.933  -0.826  10.141  0.1343 -0.4475 -0.6514
  694MOL0     C95669   8.934  -0.902  10.025  0.3646  1.1273  0.2223
  694MOL0     O95670   8.816  -0.931   9.966 -0.1232  0.0632  0.1571
  694MOL0     C95671   8.803  -1.010   9.842 -0.2705 -0.3946  0.0457
  694MOL0     C95672   8.662  -0.996   9.795  0.7489  0.1083 -0.8955
  694MOL0     C95673   8.582  -1.104   9.876 -0.0165  0.7028 -0.8250
  694MOL0     C95674   8.515  -1.211   9.792  0.7140 -0.3829 -0.7381
  694MOL0     C95675   8.447  -1.310   9.893 -0.0234 -0.4222 -0.3753
  694MOL0     C95676   8.335  -1.378   9.820  0.2985  0.2286  0.5049
  694MOL0     C95677   8.255  -1.456   9.917 -1.0413  0.2593 -0.3602
  694MOL0     C95678   8.156  -1.543   9.840  0.5030 -0.9522 -0.0534
  694MOL0    Cl95679   8.048  -1.435   9.737  0.1921 -0.1411 -0.0215
  694MOL0     C95680   9.050  -0.965   9.989 -0.3897  0.0664  0.3545
  694MOL0     C95681   9.173  -0.937  10.046 -0.3616  0.3618 -0.2836
  694MOL0     O95682   9.293  -0.593  10.161  0.3878  0.3718 -0.2237
  694MOL0     C95683   9.601  -0.752  10.154  0.7218  0.5210 -0.8705
  694MOL0     C95684   9.739  -0.740  10.192 -0.4571  0.4318  0.0984
  694MOL0     N95685  10.336  -0.218  10.459 -0.9522 -0.6846  0.3201
  694MOL0     N95686  10.352  -0.101  10.519  0.4538  0.8722  0.4642
  694MOL0     C95687   9.372   0.212  11.101 -0.1701 -0.0577  0.2911
  694MOL0     C95688   9.276   0.271  11.179  0.2950 -0.2975 -0.0777
  694MOL0     C95689   9.080   0.643  11.434 -0.8340 -0.3000  0.2741
  694MOL0     C95690   9.078   0.540  11.533 -0.1313 -0.4698  0.8746
  694MOL0     C95691   9.060   0.559  11.664  0.8449  0.3181 -0.1436
  694MOL0     C95692   9.015   0.683  11.714 -0.4384  1.0585  1.2705
  694MOL0     O95693   8.988   0.720  11.844  0.5217 -0.2404 -0.8906
  694MOL0     C95694   8.974   0.616  11.952  1.2363  0.5001  1.2974
  694MOL0     C95695   9.099   0.586  12.033 -1.2589  0.2801 -0.7066
  694MOL0     C95696   9.073   0.453  12.108 -0.3774 -0.4621 -0.0792
  694MOL0     C95697   9.170   0.436  12.221 -0.1981 -0.7885  0.8348
  694MOL0     C95698   9.131   0.517  12.334  0.7687  0.5556 -1.0015
  694MOL0     C95699   9.084   0.588  12.422 -0.8383 -0.7818  0.6759
  694MOL0     C95700   9.002   0.781  11.614  1.0225  0.4360  0.2587
  694MOL0     C95701   9.040   0.771  11.476  0.2383 -0.1786 -0.3383
  694MOL0     C95702   9.024   0.893  11.398 -0.5636 -0.0562 -0.0857
  694MOL0     H95703   9.343   0.587  11.100 -0.9078  0.0018  1.8419
  694MOL0     H95704   9.521   0.481  10.971 -0.0523 -1.5537 -1.1640
  694MOL0     H95705   9.508   0.038  10.908  1.9144 -0.5125 -1.7932
  694MOL0     H95706   9.625   0.072  11.040  1.2733  1.4817  0.1411
  694MOL0     H95707   9.696  -0.039  10.840  2.5506 -0.1609 -2.0350
  694MOL0     H95708   9.662   0.107  10.752  3.8270 -0.4461 -1.3488
  694MOL0     H95709   9.816   0.246  10.892  0.7776 -0.7521  2.4656
  694MOL0     H95710   9.860   0.096  10.974 -0.1505  0.8887  0.9335
  694MOL0     H95711   9.918   0.002  10.739 -0.3168  0.4785 -0.0663
  694MOL0     H95712   9.887   0.170  10.671 -0.9855  2.5656  1.5473
  694MOL0     H95713  10.105   0.101  10.868 -1.2540 -2.5547 -1.6158
  694MOL0     H95714  10.061   0.258  10.834 -0.5829 -0.5584  2.9062
  694MOL0     H95715  10.116   0.059  10.600 -1.5485  2.0242 -0.8439
  694MOL0     H95716  10.128   0.227  10.597 -0.2806  1.0797  1.0784
  694MOL0     H95717  10.335   0.197  10.763  1.4359 -1.0626  1.4277
  694MOL0     H95718  10.361   0.145  10.606 -1.1009  2.5691  0.2993
  694MOL0     H95719  10.431  -0.003  10.809  0.8970  0.3815 -1.5693
  694MOL0     H95720  10.253  -0.050  10.810 -0.2216 -2.0973 -2.5222
  694MOL0     H95721  10.324  -0.310  10.765  2.9172 -0.7308 -1.4252
  694MOL0     H95722  10.309  -0.524  10.615  0.5909 -2.0854 -1.7454
  694MOL0     H95723  10.353  -0.497  10.455  0.8673 -1.6914  1.0380
  694MOL0     H95724  10.070  -0.512  10.555  2.0544  2.1871  2.3973
  694MOL0     H95725  10.086  -0.418  10.413  0.2636 -0.4995 -1.5431
  694MOL0     H95726  10.212  -0.602  10.289  0.3836  1.0217  0.5905
  694MOL0     H95727  10.206  -0.700  10.433  1.1591 -0.7846 -1.5726
  694MOL0     H95728  10.041  -0.762  10.259 -0.2192 -0.2179  0.3326
  694MOL0     H95729   9.976  -0.736  10.433  2.1936  0.8608  1.5294
  694MOL0     H95730   9.745  -0.445  10.347 -0.1114  0.2597 -1.3107
  694MOL0     H95731   9.375  -0.520  10.393 -0.3514  1.3646  0.9261
  694MOL0     H95732   9.428  -0.387  10.280 -0.6300 -2.1116 -3.0548
  694MOL0     H95733   9.502  -0.411  10.438 -1.1792 -0.3388 -0.1864
  694MOL0     H95734   9.072  -0.703  10.262  0.4143 -1.0037  1.1183
  694MOL0     H95735   8.832  -0.793  10.164 -0.7774 -3.0402 -0.6189
  694MOL0     H95736   8.851  -0.974   9.751 -3.4294  2.4100 -0.7440
  694MOL0     H95737   8.845  -1.110   9.858 -0.4506 -0.6173 -0.8340
  694MOL0     H95738   8.617  -0.899   9.818  2.2937  0.7244 -0.3464
  694MOL0     H95739   8.642  -1.010   9.688  2.6076 -2.0012 -1.0394
  694MOL0     H95740   8.502  -1.063   9.939  1.3153 -1.8267  2.8483
  694MOL0     H95741   8.650  -1.138   9.954  2.2559  4.2802 -1.0441
  694MOL0     H95742   8.580  -1.273   9.729  0.7116 -1.8012  0.5986
  694MOL0     H95743   8.436  -1.156   9.740  2.5158  2.7628 -0.3502
  694MOL0     H95744   8.513  -1.391   9.926 -3.9382 -3.4602  0.7849
  694MOL0     H95745   8.413  -1.259   9.984  0.4204 -0.8415  0.0322
  694MOL0     H95746   8.379  -1.436   9.738  5.5735 -0.5175  3.3930
  694MOL0     H95747   8.272  -1.298   9.781  1.3953  0.6434 -0.4645
  694MOL0     H95748   8.204  -1.394   9.992  1.1299  1.4351  0.2404
  694MOL0     H95749   8.317  -1.523   9.977 -0.3335  3.2611  2.5415
  694MOL0     H95750   8.085  -1.597   9.904 -0.3359  0.1124 -0.0532
  694MOL0     H95751   8.205  -1.623   9.784 -0.2589 -1.3557 -0.1647
  694MOL0     H95752   9.060  -1.031   9.903  0.6008  0.1780  0.3735
  694MOL0     H95753   9.269  -0.976  10.013 -0.3622 -1.0725  1.2559
  694MOL0     H95754   9.571  -0.835  10.090  0.3303 -1.8279  2.1213
  694MOL0     H95755   9.811  -0.810  10.149  0.0588  0.6952  0.5191
  694MOL0     H95756   9.362   0.106  11.077 -0.3559 -0.1193  0.6415
  694MOL0     H95757   9.206   0.212  11.238 -0.0913 -0.2475 -0.4848
  694MOL0     H95758   9.081   0.434  11.510  0.6041 -0.7417  2.1806
  694MOL0     H95759   9.072   0.470  11.725 -1.0232  0.1390  0.0068
  694MOL0     H95760   8.906   0.655  12.029  3.3148 -0.0636  3.5343
  694MOL0     H95761   8.945   0.521  11.907 -0.3351  0.3010  2.6320
  694MOL0     H95762   9.123   0.675  12.092  1.9069 -1.7057  1.3243
  694MOL0     H95763   9.194   0.570  11.982 -1.6265 -1.9842 -0.7670
  694MOL0     H95764   8.974   0.464  12.155 -0.8203 -5.5982  0.7516
  694MOL0     H95765   9.077   0.379  12.029  0.5320  1.3368 -1.8030
  694MOL0     H95766   9.269   0.457  12.180 -0.6427 -0.9491 -0.3748
  694MOL0     H95767   9.162   0.337  12.267  1.9000 -1.6130 -0.4145
  694MOL0     H95768   9.038   0.660  12.487  2.9337  2.1144  0.5129
  694MOL0     H95769   8.966   0.870  11.665 -0.4952 -0.2564  0.4472
  694MOL0     H95770   8.980   0.973  11.459 -1.8505 -0.7170 -0.0953
  694MOL0     H95771   9.117   0.922  11.349  0.9009 -1.2911  1.8096
  694MOL0     H95772   8.950   0.871  11.321 -1.4671 -0.0816  0.7616
  695MOL0     O95773  11.125   0.637   2.532 -0.1124  0.5062  0.3120
  695MOL0     C95774  11.235   0.684   2.559  0.4151  1.1183 -0.1953
  695MOL0     O95775  11.317   0.724   2.467  0.7983 -0.1843 -0.2712
  695MOL0     C95776  11.308   0.694   2.334 -0.3994  0.7105 -0.2200
  695MOL0     C95777  11.343   0.783   2.234  0.6253  0.6547  0.7398
  695MOL0     C95778  11.311   0.765   2.099  0.1147 -1.5151  0.0575
  695MOL0     C95779  11.262   0.648   2.057  0.5204  0.1831 -1.3514
  695MOL0     O95780  11.235   0.636   1.916  0.3265 -0.5263 -0.0347
  695MOL0     C95781  11.112   0.571   1.870  0.7302 -0.1281  0.2011
  695MOL0     C95782  11.105   0.581   1.718 -0.6795  0.1011 -0.5113
  695MOL0     C95783  10.976   0.513   1.678 -1.2183 -0.7411 -0.2360
  695MOL0     C95784  10.940   0.546   1.533  0.0783 -0.3254 -0.2308
  695MOL0     C95785  10.998   0.468   1.411  0.8481 -0.6920  0.1524
  695MOL0     C95786  10.945   0.510   1.272  0.5433  0.6720  0.4274
  695MOL0     C95787  11.027   0.632   1.242 -0.5602  0.4660  0.6330
  695MOL0     C95788  10.964   0.712   1.126  0.2862  0.1595  0.2315
  695MOL0     N95789  10.868   0.812   1.176  0.6537 -0.7449  0.4678
  695MOL0     C95790  10.887   0.938   1.199  0.1942 -0.2518 -0.1351
  695MOL0     C95791  10.765   1.005   1.202 -0.8098  0.1536  0.1952
  695MOL0     C95792  10.738   1.145   1.234  0.1266  0.1316 -0.0568
  695MOL0     C95793  10.609   1.205   1.189 -0.1030  0.2934 -0.5579
  695MOL0     C95794  10.614   1.358   1.193 -0.3457  0.2865  0.8855
  695MOL0     C95795  10.520   1.414   1.298  0.0069 -0.1702 -0.1647
  695MOL0     O95796  10.595   1.421   1.424 -0.2622  0.3653  0.7197
  695MOL0     C95797  10.539   1.512   1.514  0.7968 -0.7264 -0.0860
  695MOL0     C95798  10.398   1.514   1.534  0.1082  0.3413  0.2938
  695MOL0     C95799  10.346   1.586   1.637 -0.1825  0.4728 -0.7965
  695MOL0     C95800  10.206   1.598   1.642 -0.1388  0.7070  0.4260
  695MOL0     C95801  10.436   1.645   1.729 -0.1874 -0.0064 -0.5090
  695MOL0     C95802  10.398   1.727   1.849 -0.7800  0.1779  0.9440
  695MOL0     O95803  10.285   1.703   1.906 -0.4521 -0.4553  0.0715
  695MOL0     C95804  10.253   1.800   2.006 -0.0714  0.0803 -0.2730
  695MOL0     C95805  10.262   1.789   2.146  0.4428  0.2216  0.1804
  695MOL0     C95806  10.205   1.886   2.232 -0.0616 -0.6859  1.0926
  695MOL0     C95807  10.145   2.006   2.192 -0.3182 -0.0988 -0.3134
  695MOL0     O95808  10.082   2.089   2.285 -0.1277  0.2655 -0.4356
  695MOL0     C95809  10.006   2.195   2.230  0.3156 -0.3224  0.4911
  695MOL0     C95810   9.980   2.295   2.339 -0.6519 -0.6470 -0.5370
  695MOL0     C95811   9.877   2.395   2.287 -0.0570 -0.4737 -0.6637
  695MOL0     C95812   9.837   2.496   2.392 -0.6618 -0.0485  0.0470
  695MOL0     C95813   9.941   2.608   2.423 -0.7022 -0.3191  0.0629
  695MOL0     C95814   9.953   2.652   2.574 -0.1058  0.3639  0.2924
  695MOL0     C95815  10.091   2.722   2.593  0.1015 -0.9180 -0.6611
  695MOL0     C95816  10.102   2.867   2.534 -1.1923  0.4217  0.0530
  695MOL0    Cl95817  10.034   2.986   2.633  0.0271 -0.2229  0.1758
  695MOL0     C95818  10.154   2.027   2.051  0.1939 -0.6984 -0.2135
  695MOL0     C95819  10.195   1.925   1.966 -0.4475  0.2138  0.3934
  695MOL0     O95820  10.472   1.821   1.879 -0.1989  0.5107  0.0716
  695MOL0     C95821  10.579   1.645   1.703  0.4318  0.3062  0.2884
  695MOL0     C95822  10.629   1.568   1.605 -0.3567  0.1665 -0.0050
  695MOL0     N95823  10.669   0.913   1.184 -0.1828  0.6534  0.2642
  695MOL0     N95824  10.733   0.798   1.164 -0.4737 -0.4444  0.0114
  695MOL0     C95825  11.223   0.552   2.147 -0.2916  0.1277  0.7937
  695MOL0     C95826  11.249   0.565   2.287  0.3213 -0.5682 -0.1934
  695MOL0     C95827  11.279   0.686   2.711  0.0540 -0.0945  0.2012
  695MOL0     C95828  11.403   0.748   2.735  1.1210  0.5903 -0.6958
  695MOL0     C95829  11.436   0.778   2.869  0.4560 -0.2943  0.1331
  695MOL0     C95830  11.349   0.752   2.974 -0.0668 -0.0741  0.9448
  695MOL0     O95831  11.368   0.786   3.105 -1.1866 -0.2362  0.2815
  695MOL0     C95832  11.483   0.871   3.148  0.3181  0.3372  0.1899
  695MOL0     C95833  11.429   0.967   3.254 -0.3005 -0.1601  0.1591
  695MOL0     C95834  11.273   0.999   3.243 -0.7089  0.2449  0.5202
  695MOL0     C95835  11.247   1.078   3.116  0.7348 -0.1283 -1.1074
  695MOL0     C95836  11.307   1.211   3.103 -0.7654 -0.0725 -0.3778
  695MOL0     C95837  11.368   1.318   3.090 -0.6037  0.0018  0.2919
  695MOL0     C95838  11.230   0.675   2.951 -0.3259 -0.7883  0.4953
  695MOL0     C95839  11.194   0.643   2.817 -0.0969 -0.1859 -0.1626
  695MOL0     C95840  11.083   0.541   2.801 -0.3556 -0.3542  0.4102
  695MOL0     H95841  11.393   0.876   2.261 -0.0491  1.3052 -0.1955
  695MOL0     H95842  11.328   0.849   2.033  0.5020 -1.3671  0.3384
  695MOL0     H95843  11.027   0.620   1.919 -0.1222 -0.7752 -0.5867
  695MOL0     H95844  11.115   0.464   1.892  3.9054 -0.2554 -0.2944
  695MOL0     H95845  11.097   0.688   1.697 -2.2863  0.7877  2.8775
  695MOL0     H95846  11.192   0.529   1.675 -1.1157  0.8938 -2.4517
  695MOL0     H95847  10.985   0.404   1.683 -3.2250 -0.8858  0.9184
  695MOL0     H95848  10.894   0.536   1.746 -0.4773  0.7638  0.1903
  695MOL0     H95849  10.831   0.546   1.538  0.1196 -0.0951  0.9390
  695MOL0     H95850  10.957   0.654   1.532  3.0902 -0.6787  1.5258
  695MOL0     H95851  10.982   0.361   1.421  1.2227 -1.0557 -2.4581
  695MOL0     H95852  11.104   0.493   1.418  0.4988  2.0793 -2.0914
  695MOL0     H95853  10.961   0.431   1.199  0.6995 -0.0436  1.2237
  695MOL0     H95854  10.839   0.537   1.274  0.4177  0.2519 -0.3749
  695MOL0     H95855  11.130   0.606   1.219 -0.6968 -0.4743  1.0286
  695MOL0     H95856  11.036   0.691   1.334 -0.0418  2.1042 -0.4277
  695MOL0     H95857  11.047   0.761   1.074  0.7518  1.1280  1.8158
  695MOL0     H95858  10.915   0.635   1.067 -3.2341  0.2877  2.6617
  695MOL0     H95859  10.984   0.985   1.190  1.9384 -3.5005 -0.0298
  695MOL0     H95860  10.814   1.206   1.184 -1.2117  1.6407 -0.3384
  695MOL0     H95861  10.756   1.162   1.341 -0.5434 -2.8445  0.6345
  695MOL0     H95862  10.600   1.177   1.083 -0.4050  2.9131 -1.2972
  695MOL0     H95863  10.518   1.173   1.241 -2.2138  3.0659 -2.2428
  695MOL0     H95864  10.714   1.396   1.214  0.0681  1.2037 -2.2156
  695MOL0     H95865  10.581   1.403   1.099 -3.8848 -1.2822  1.2161
  695MOL0     H95866  10.487   1.514   1.267 -4.4354 -1.3513  0.0961
  695MOL0     H95867  10.433   1.349   1.307  1.0869 -1.4976  1.4993
  695MOL0     H95868  10.327   1.469   1.465 -0.0614  1.1525 -0.0815
  695MOL0     H95869  10.160   1.690   1.680 -2.7180  0.4971 -1.8752
  695MOL0     H95870  10.171   1.519   1.709  0.2301  0.6640  0.5705
  695MOL0     H95871  10.158   1.587   1.545 -2.6451  0.5839  1.5992
  695MOL0     H95872  10.306   1.699   2.189  1.4586 -0.8741 -2.8393
  695MOL0     H95873  10.191   1.858   2.337 -0.9943 -1.6394  0.7384
  695MOL0     H95874  10.040   2.249   2.140 -0.9933 -1.3821 -0.6896
  695MOL0     H95875   9.915   2.160   2.180  1.9221 -1.6357 -1.7276
  695MOL0     H95876   9.944   2.244   2.429  0.2687  0.3130  0.4050
  695MOL0     H95877  10.075   2.348   2.354 -1.6617  0.9649  0.3504
  695MOL0     H95878   9.782   2.356   2.250 -0.3710  2.2270 -3.0824
  695MOL0     H95879   9.913   2.451   2.200  1.4591 -1.3908 -0.6570
  695MOL0     H95880   9.830   2.427   2.477 -0.4531  1.3823  1.2558
  695MOL0     H95881   9.743   2.551   2.389  0.5712  2.2366  1.0512
  695MOL0     H95882  10.035   2.565   2.386  0.1895  1.4923  0.1085
  695MOL0     H95883   9.914   2.703   2.377  0.5203  0.6685  1.3076
  695MOL0     H95884   9.936   2.569   2.643 -2.7962  0.0021 -0.6650
  695MOL0     H95885   9.880   2.725   2.610 -0.0117  0.7178 -0.2298
  695MOL0     H95886  10.179   2.667   2.560  0.8412  1.0866 -2.2664
  695MOL0     H95887  10.103   2.741   2.700 -1.3243 -0.6945 -0.5141
  695MOL0     H95888  10.063   2.868   2.432 -0.7172 -0.2478 -0.1436
  695MOL0     H95889  10.207   2.896   2.518 -1.6125  3.3706  1.8538
  695MOL0     H95890  10.116   2.118   2.007 -0.4806 -0.4611  0.8323
  695MOL0     H95891  10.183   1.939   1.859 -2.4332  1.8047  0.7754
  695MOL0     H95892  10.652   1.686   1.771  0.9989 -1.6581  0.9239
  695MOL0     H95893  10.731   1.567   1.570 -0.8369  1.5273 -1.5394
  695MOL0     H95894  11.193   0.453   2.114  1.8541  0.1228 -1.4471
  695MOL0     H95895  11.213   0.495   2.362  1.3063  0.2638  1.1212
  695MOL0     H95896  11.466   0.788   2.656 -0.2524  0.2824 -1.9924
  695MOL0     H95897  11.539   0.809   2.878  0.3749 -0.2317  0.9182
  695MOL0     H95898  11.565   0.811   3.189 -1.4481 -2.5920 -0.2800
  695MOL0     H95899  11.526   0.927   3.064 -2.6501 -0.8539 -2.3502
  695MOL0     H95900  11.483   1.059   3.276  0.0273 -0.2800 -0.1296
  695MOL0     H95901  11.429   0.910   3.347 -0.3680  0.4019  0.5069
  695MOL0     H95902  11.213   0.907   3.244 -0.5517  0.1434  0.6006
  695MOL0     H95903  11.245   1.062   3.329 -0.7692 -0.1872  0.8200
  695MOL0     H95904  11.139   1.099   3.115  1.0738  1.9172 -0.0931
  695MOL0     H95905  11.285   1.019   3.032  3.1099 -2.2419  1.2691
  695MOL0     H95906  11.428   1.406   3.081 -1.5612  0.7715  1.0893
  695MOL0     H95907  11.167   0.656   3.037 -0.2699  0.7290  0.9095
  695MOL0     H95908  10.992   0.583   2.758 -1.4749 -3.5097 -0.5925
  695MOL0     H95909  11.134   0.464   2.741  1.5797  0.2530  1.1860
  695MOL0     H95910  11.057   0.503   2.900 -1.5592 -1.6723 -0.3668
  696MOL0     O95911   6.188   3.043   4.026  0.0280  0.0689  0.1260
  696MOL0     C95912   6.161   3.083   3.918  0.4708 -0.5144  0.8993
  696MOL0     O95913   6.173   3.008   3.805 -0.7006  0.1172 -0.7575
  696MOL0     C95914   6.159   2.872   3.826  0.0480 -1.3036 -0.7342
  696MOL0     C95915   6.020   2.847   3.821 -0.1989 -0.1760  0.7158
  696MOL0     C95916   5.969   2.716   3.817 -0.7373  0.4500  0.5424
  696MOL0     C95917   6.060   2.617   3.816 -0.6826 -0.4615 -0.3674
  696MOL0     O95918   6.027   2.479   3.821  0.7460 -0.4821 -0.5280
  696MOL0     C95919   5.897   2.441   3.792  0.2929 -0.2202  0.2776
  696MOL0     C95920   5.891   2.295   3.751  0.7824 -0.7617 -0.0578
  696MOL0     C95921   5.952   2.216   3.860 -0.1515 -0.0082  0.0086
  696MOL0     C95922   5.976   2.068   3.818 -0.0643 -0.1864  0.5083
  696MOL0     C95923   5.860   1.980   3.800  0.6554  0.7763  0.4291
  696MOL0     C95924   5.886   1.843   3.742 -0.6989 -0.9468  0.5019
  696MOL0     C95925   5.978   1.763   3.834 -0.1627  0.3133  0.2529
  696MOL0     C95926   5.975   1.611   3.796  0.4062 -0.6003 -0.0855
  696MOL0     N95927   6.077   1.552   3.702 -0.3243 -0.0845  1.0622
  696MOL0     C95928   6.135   1.430   3.720  0.6933  0.5570  0.3546
  696MOL0     C95929   6.206   1.403   3.607  0.0722 -0.5245 -0.8640
  696MOL0     C95930   6.287   1.289   3.568  0.4834  0.0906 -0.5478
  696MOL0     C95931   6.412   1.327   3.481  0.0329  1.0050  0.0619
  696MOL0     C95932   6.532   1.244   3.526  0.3664 -0.4446  0.2275
  696MOL0     C95933   6.569   1.128   3.434  0.4630  0.9253  0.1641
  696MOL0     O95934   6.672   1.070   3.514 -0.4700  0.2388 -0.4241
  696MOL0     C95935   6.747   0.960   3.463  0.8917  0.5157 -0.0239
  696MOL0     C95936   6.726   0.900   3.334 -0.2971  0.1311 -0.4188
  696MOL0     C95937   6.803   0.791   3.293  0.4777  0.6635 -0.6914
  696MOL0     C95938   6.769   0.745   3.151  0.2054  0.1537 -0.6088
  696MOL0     C95939   6.909   0.741   3.385 -1.1452  0.5497  0.5979
  696MOL0     C95940   6.997   0.627   3.343 -0.6359  0.4867 -0.0240
  696MOL0     O95941   7.122   0.631   3.403  0.3852  1.2193 -0.3388
  696MOL0     C95942   7.216   0.529   3.370  0.2962 -1.1653 -0.4543
  696MOL0     C95943   7.350   0.566   3.379  0.1646 -0.0471  0.6946
  696MOL0     C95944   7.447   0.475   3.353 -0.4851  0.3123 -0.4277
  696MOL0     C95945   7.418   0.341   3.317  0.5429  0.4396  0.7458
  696MOL0     O95946   7.534   0.280   3.297 -0.9215 -0.3813 -0.3410
  696MOL0     C95947   7.534   0.145   3.268 -0.0042 -0.7648  0.0548
  696MOL0     C95948   7.668   0.098   3.217 -0.8898  0.8368 -0.6163
  696MOL0     C95949   7.682   0.157   3.084 -1.7131  1.0394  0.4091
  696MOL0     C95950   7.828   0.163   3.052 -0.1237  0.2806  0.0520
  696MOL0     C95951   7.895   0.030   2.993  0.8916 -0.4925 -0.2335
  696MOL0     C95952   7.852   0.026   2.839  0.3410 -1.0335  1.0324
  696MOL0     C95953   7.868  -0.097   2.764 -0.3674  0.8087 -0.3860
  696MOL0     C95954   7.757  -0.200   2.787 -0.9490 -0.3320 -0.3557
  696MOL0    Cl95955   7.596  -0.172   2.708 -0.1713 -0.0065  0.4337
  696MOL0     C95956   7.286   0.302   3.307  0.0875 -0.7571  1.0921
  696MOL0     C95957   7.189   0.397   3.325  0.5973  0.0673  1.1085
  696MOL0     O95958   6.961   0.546   3.253  0.4762 -0.3024 -0.8911
  696MOL0     C95959   6.921   0.798   3.514 -0.2141 -0.0021  1.1680
  696MOL0     C95960   6.841   0.906   3.552 -1.6230  0.2617  0.1014
  696MOL0     N95961   6.189   1.510   3.526 -0.1044 -0.5066  0.1055
  696MOL0     N95962   6.100   1.592   3.573 -0.5633 -1.0670  0.2901
  696MOL0     C95963   6.203   2.645   3.813 -0.6887  1.3373 -0.5861
  696MOL0     C95964   6.252   2.771   3.804 -0.3824 -0.0774  0.1333
  696MOL0     C95965   6.150   3.233   3.900  0.5957  1.0296 -0.9733
  696MOL0     C95966   6.192   3.286   3.777  0.5684  0.4294  0.3774
  696MOL0     C95967   6.160   3.419   3.746 -0.0599 -0.2171 -0.2341
  696MOL0     C95968   6.092   3.496   3.835 -0.3259 -0.1756 -0.8141
  696MOL0     O95969   6.061   3.624   3.817  0.5360  0.6785 -1.0158
  696MOL0     C95970   6.094   3.681   3.694 -0.6115 -0.3574  0.2505
  696MOL0     C95971   6.043   3.820   3.707 -0.3374 -0.7549  0.6000
  696MOL0     C95972   6.092   3.914   3.595  0.1499  0.5847  0.1561
  696MOL0     C95973   6.001   4.029   3.557 -0.2295 -0.2101  0.0429
  696MOL0     C95974   6.067   4.124   3.466  0.1357  0.7630 -0.3308
  696MOL0     C95975   6.144   4.190   3.403  0.1997  0.4310  0.0484
  696MOL0     C95976   6.070   3.448   3.963 -0.1233  0.2351 -0.0925
  696MOL0     C95977   6.090   3.316   3.999  0.0295 -0.0270  0.2746
  696MOL0     C95978   6.050   3.273   4.141  0.3349  0.7054 -1.5425
  696MOL0     H95979   5.944   2.925   3.821 -0.6116 -0.4418 -2.3192
  696MOL0     H95980   5.868   2.683   3.837 -0.9648 -0.4578 -1.7741
  696MOL0     H95981   5.846   2.499   3.715  0.8166 -2.1793 -1.6102
  696MOL0     H95982   5.840   2.450   3.885  0.3507 -0.0667  0.2991
  696MOL0     H95983   5.784   2.271   3.751  0.4986 -0.4290 -4.5445
  696MOL0     H95984   5.927   2.271   3.650 -1.1590 -2.2286 -0.4590
  696MOL0     H95985   6.049   2.249   3.897  0.1658  1.6882 -2.1421
  696MOL0     H95986   5.896   2.213   3.954  3.1121 -1.6392  2.0796
  696MOL0     H95987   6.027   2.075   3.722 -1.2512 -1.2857 -0.2301
  696MOL0     H95988   6.044   2.019   3.888 -0.8042  0.6119  1.8245
  696MOL0     H95989   5.783   2.020   3.734 -2.1031  0.5242  3.2519
  696MOL0     H95990   5.818   1.967   3.900  1.0385 -2.0514  0.2909
  696MOL0     H95991   5.792   1.789   3.728 -0.9559 -0.6477  1.0597
  696MOL0     H95992   5.936   1.850   3.645 -0.0074  2.0325  0.9815
  696MOL0     H95993   5.950   1.757   3.939  0.3698  2.7147  0.5790
  696MOL0     H95994   6.079   1.805   3.839  0.7437 -1.7230  0.0974
  696MOL0     H95995   5.993   1.556   3.889 -0.0265  0.7817  0.8325
  696MOL0     H95996   5.873   1.585   3.767 -0.4784  1.1858  1.2735
  696MOL0     H95997   6.122   1.370   3.810 -2.7490  0.4723 -0.0627
  696MOL0     H95998   6.220   1.225   3.510 -3.2032  3.3786 -0.3013
  696MOL0     H95999   6.308   1.230   3.657 -0.4619 -0.6667 -0.8100
  696MOL0     H96000   6.394   1.311   3.375 -1.0330  0.2619  0.3382
  696MOL0     H96001   6.425   1.435   3.482 -3.0205  1.4689 -1.1993
  696MOL0     H96002   6.618   1.311   3.517  0.3388 -0.6759 -2.2334
  696MOL0     H96003   6.528   1.216   3.632  2.9903 -4.0502 -0.4479
  696MOL0     H96004   6.484   1.059   3.425 -0.6041  2.4599 -3.0510
  696MOL0     H96005   6.585   1.163   3.332 -3.3154  2.0067 -0.2100
  696MOL0     H96006   6.655   0.939   3.262 -4.0766 -1.3115  2.2224
  696MOL0     H96007   6.692   0.804   3.102 -0.2270 -1.3543 -1.8083
  696MOL0     H96008   6.730   0.644   3.147  0.7459 -0.1169  0.4889
  696MOL0     H96009   6.860   0.748   3.089  1.5841 -1.4048  1.2336
  696MOL0     H96010   7.371   0.665   3.419 -0.2032  0.6091 -0.6517
  696MOL0     H96011   7.552   0.494   3.371  0.0267 -1.5506 -1.1852
  696MOL0     H96012   7.495   0.087   3.352 -2.3269  1.8651  0.9513
  696MOL0     H96013   7.463   0.129   3.187 -3.4706  2.9174  1.9679
  696MOL0     H96014   7.751   0.114   3.286 -1.7222  1.9559  0.1537
  696MOL0     H96015   7.650  -0.009   3.198 -0.1759  0.9503 -2.0643
  696MOL0     H96016   7.653   0.262   3.082 -1.8889  1.2345  4.3867
  696MOL0     H96017   7.627   0.108   3.003  0.0839 -0.3189 -0.0476
  696MOL0     H96018   7.881   0.194   3.142  0.9429 -0.9068 -0.1307
  696MOL0     H96019   7.838   0.249   2.986 -4.2079 -0.5066 -1.9289
  696MOL0     H96020   8.004   0.032   3.003  0.8666  0.9326 -0.0799
  696MOL0     H96021   7.847  -0.053   3.046  2.2692  0.4169  2.5986
  696MOL0     H96022   7.920   0.094   2.788 -0.6564 -0.5783  0.2756
  696MOL0     H96023   7.751   0.066   2.824  0.8098 -0.0328  0.4345
  696MOL0     H96024   7.964  -0.147   2.781 -0.3667  0.8951 -0.1308
  696MOL0     H96025   7.865  -0.066   2.660 -0.1886  1.0337 -0.3238
  696MOL0     H96026   7.743  -0.226   2.892 -1.2915 -2.8349 -0.9498
  696MOL0     H96027   7.800  -0.294   2.750 -1.5881 -0.4486 -0.8255
  696MOL0     H96028   7.243   0.205   3.282 -2.8110  0.7154 -0.0534
  696MOL0     H96029   7.085   0.364   3.322  0.6025  0.0563  1.0476
  696MOL0     H96030   7.000   0.773   3.583  0.8983 -2.7948 -0.9410
  696MOL0     H96031   6.870   0.961   3.641 -0.3554  3.7848 -2.2634
  696MOL0     H96032   6.265   2.556   3.808 -2.5837 -0.1932  1.0720
  696MOL0     H96033   6.359   2.791   3.797  0.0144 -2.0897 -0.2337
  696MOL0     H96034   6.262   3.234   3.713  2.4000  3.6028 -0.4142
  696MOL0     H96035   6.197   3.463   3.654 -1.4790  0.8036 -0.3519
  696MOL0     H96036   6.204   3.674   3.688 -0.7298 -1.2412 -2.0107
  696MOL0     H96037   6.055   3.623   3.610  0.8568 -3.7386  1.7096
  696MOL0     H96038   6.058   3.860   3.808  0.2457 -2.4629  1.2256
  696MOL0     H96039   5.934   3.813   3.698 -0.8571 -0.1577  4.5832
  696MOL0     H96040   6.190   3.955   3.619 -0.0123  1.4014 -0.4864
  696MOL0     H96041   6.100   3.857   3.502 -0.3196  5.3683 -3.2224
  696MOL0     H96042   5.974   4.087   3.645 -2.2732  0.2476 -0.8382
  696MOL0     H96043   5.914   3.995   3.500 -0.6589 -1.3891  1.3741
  696MOL0     H96044   6.207   4.263   3.356 -2.2178  0.3877 -3.7546
  696MOL0     H96045   6.020   3.507   4.039  0.6135 -0.7308  1.1948
  696MOL0     H96046   6.128   3.308   4.209  0.8101  2.0380 -2.7265
  696MOL0     H96047   5.955   3.317   4.172  1.1503  2.0018 -0.8106
  696MOL0     H96048   6.039   3.164   4.153  3.2483  0.4322 -0.6183
  697MOL0     O96049   5.284  10.844   2.647 -0.0833  0.1140 -0.4402
  697MOL0     C96050   5.340  10.739   2.609 -0.0398 -0.1140 -0.3954
  697MOL0     O96051   5.355  10.710   2.475  0.4476  1.1167 -0.0884
  697MOL0     C96052   5.325  10.788   2.371 -0.0266  0.1078  0.0893
  697MOL0     C96053   5.313  10.926   2.383  0.8487 -0.4403 -0.2900
  697MOL0     C96054   5.276  10.995   2.263  1.7228 -0.8139 -0.5822
  697MOL0     C96055   5.244  10.932   2.143 -0.2354 -0.2073  1.3696
  697MOL0     O96056   5.204  11.012   2.038 -0.9624 -0.9324  0.4189
  697MOL0     C96057   5.107  10.969   1.947  0.4087 -0.8414  0.6063
  697MOL0     C96058   5.045  11.093   1.891 -0.2887 -0.8131 -0.0146
  697MOL0     C96059   4.959  11.072   1.761 -0.4243  0.2058 -0.1633
  697MOL0     C96060   4.900  11.208   1.702  0.2314  0.0155 -0.2132
  697MOL0     C96061   4.804  11.267   1.798  0.0438 -0.3796  0.4094
  697MOL0     C96062   4.878  11.372   1.876  0.5007  0.1100 -0.0402
  697MOL0     C96063   4.892  11.509   1.795 -0.3223  0.3049 -0.7747
  697MOL0     C96064   4.974  11.607   1.869 -0.8829 -0.4653 -0.3142
  697MOL0     N96065   4.917  11.660   1.993  0.1738  0.1583  0.0293
  697MOL0     C96066   4.860  11.780   2.026  0.2541 -0.0180  0.1320
  697MOL0     C96067   4.851  11.779   2.161 -0.1198 -1.2017 -0.2492
  697MOL0     C96068   4.804  11.902   2.243 -0.2259  0.6597  0.3887
  697MOL0     C96069   4.920  12.001   2.266 -0.8697  0.6321 -0.3367
  697MOL0     C96070   5.026  11.956   2.370 -0.3134 -0.3838  0.1961
  697MOL0     C96071   5.152  12.057   2.367 -0.4921 -0.4636  0.7872
  697MOL0     O96072   5.137  12.196   2.406 -0.3194 -0.0725 -0.8189
  697MOL0     C96073   5.108  12.199   2.540  1.1728  0.5950  0.0412
  697MOL0     C96074   5.052  12.314   2.575  0.3599 -0.0378 -0.0293
  697MOL0     C96075   5.014  12.354   2.711 -0.0959 -0.2114  0.5149
  697MOL0     C96076   4.958  12.498   2.723  0.1146  0.8363  0.5420
  697MOL0     C96077   5.032  12.250   2.816  0.5735  0.4357 -0.2761
  697MOL0     C96078   5.008  12.273   2.963 -0.0475  0.3441 -0.3395
  697MOL0     O96079   4.951  12.383   3.008  0.2992  0.1911 -0.7797
  697MOL0     C96080   4.945  12.414   3.139  0.6667 -0.8586  0.4617
  697MOL0     C96081   4.911  12.554   3.162  0.3263 -0.4392 -0.3290
  697MOL0     C96082   4.914  12.609   3.291  0.1020  0.3761 -0.6364
  697MOL0     C96083   4.958  12.544   3.403  0.7240 -0.0890 -1.1868
  697MOL0     O96084   4.987  12.618   3.519  0.7473 -0.4198  0.1884
  697MOL0     C96085   4.894  12.726   3.564 -0.9867  0.1128 -0.3338
  697MOL0     C96086   4.858  12.675   3.704 -0.1861  0.6570  0.1726
  697MOL0     C96087   4.774  12.547   3.695  0.1336  0.0864 -0.9921
  697MOL0     C96088   4.744  12.496   3.837  0.6329  1.0311 -0.5319
  697MOL0     C96089   4.616  12.419   3.845  0.1463  0.1353  0.0699
  697MOL0     C96090   4.500  12.506   3.825  0.0022  0.5935 -0.7075
  697MOL0     C96091   4.382  12.485   3.931  0.1893  0.2820  0.1412
  697MOL0     C96092   4.244  12.511   3.864  0.0792 -0.3506  0.2896
  697MOL0    Cl96093   4.209  12.389   3.744  0.1556  0.1711  0.2477
  697MOL0     C96094   4.980  12.406   3.387  0.5424 -0.5537 -0.3604
  697MOL0     C96095   4.975  12.341   3.256  0.7809 -0.0544  0.5207
  697MOL0     O96096   5.073  12.198   3.032  0.9039 -0.1528  0.2477
  697MOL0     C96097   5.079  12.126   2.774 -0.3106 -0.8516  1.1512
  697MOL0     C96098   5.121  12.097   2.644  1.2638  0.0739  0.6205
  697MOL0     N96099   4.895  11.661   2.207 -0.3775 -0.3580 -0.3367
  697MOL0     N96100   4.937  11.587   2.105 -0.1406 -0.1614 -0.3590
  697MOL0     C96101   5.264  10.796   2.138  0.9313  0.6056 -0.1495
  697MOL0     C96102   5.293  10.723   2.251 -1.2066  0.5200 -0.4491
  697MOL0     C96103   5.353  10.640   2.716 -0.2926  0.0734  1.4128
  697MOL0     C96104   5.273  10.637   2.832  1.2395  0.2051  0.3693
  697MOL0     C96105   5.266  10.532   2.915 -0.9964 -0.0602 -0.4504
  697MOL0     C96106   5.362  10.430   2.891 -0.2685  0.0049 -0.4903
  697MOL0     O96107   5.374  10.311   2.961 -0.5434 -0.1969  0.4531
  697MOL0     C96108   5.257  10.240   2.992  0.4290  0.5678  0.2452
  697MOL0     C96109   5.282  10.091   2.949 -0.2158 -0.1812 -0.7551
  697MOL0     C96110   5.344   9.995   3.055  1.2427  0.3191 -1.0627
  697MOL0     C96111   5.457  10.040   3.155 -0.1438 -0.0535  1.1620
  697MOL0     C96112   5.581  10.093   3.094 -1.1643  0.4172  0.0006
  697MOL0     C96113   5.670  10.165   3.055 -0.0247  0.3436  0.1410
  697MOL0     C96114   5.464  10.444   2.796  0.1521 -0.4921  0.1144
  697MOL0     C96115   5.461  10.547   2.709 -0.9861  0.5921 -0.2418
  697MOL0     C96116   5.581  10.534   2.612 -0.5804  0.0046  0.4367
  697MOL0     H96117   5.335  10.979   2.475 -2.7187  3.1926 -1.2288
  697MOL0     H96118   5.291  11.102   2.271  1.2505 -0.0513 -6.0353
  697MOL0     H96119   5.028  10.912   1.994  0.3541 -1.6074 -0.3862
  697MOL0     H96120   5.137  10.906   1.863  2.3628 -1.5451  1.7533
  697MOL0     H96121   4.990  11.151   1.965  0.3704  1.9479 -1.5491
  697MOL0     H96122   5.125  11.165   1.870 -0.5220 -0.0938  1.4392
  697MOL0     H96123   5.010  11.018   1.680  3.1890  2.4823  0.3556
  697MOL0     H96124   4.876  11.007   1.789 -2.1247  1.6241 -1.6111
  697MOL0     H96125   4.976  11.277   1.664 -2.7106  1.8649 -3.2743
  697MOL0     H96126   4.846  11.181   1.611 -0.5495 -2.8964  0.9719
  697MOL0     H96127   4.746  11.187   1.844 -3.2610 -0.1057 -2.7576
  697MOL0     H96128   4.727  11.320   1.741 -1.9228 -3.1270  0.3386
  697MOL0     H96129   4.829  11.383   1.974 -1.7427  0.7420 -1.1771
  697MOL0     H96130   4.985  11.347   1.886  1.0425  2.7367  1.6794
  697MOL0     H96131   4.801  11.554   1.754  0.1337  1.2928 -0.7459
  697MOL0     H96132   4.945  11.486   1.702 -0.6508  0.6342 -1.0476
  697MOL0     H96133   5.074  11.564   1.884 -0.7544  0.5372  2.2996
  697MOL0     H96134   4.992  11.703   1.819  0.0761  0.7361  2.1369
  697MOL0     H96135   4.844  11.867   1.963  0.4648  0.7159  1.0678
  697MOL0     H96136   4.751  11.872   2.334  0.2108  0.1457  0.4811
  697MOL0     H96137   4.729  11.953   2.181  3.6237  1.9818 -3.7701
  697MOL0     H96138   4.975  12.009   2.172  2.2934  2.0008  1.4921
  697MOL0     H96139   4.876  12.092   2.307  0.3547 -0.0855  2.9132
  697MOL0     H96140   4.983  11.950   2.470 -1.3659 -3.2613 -0.3260
  697MOL0     H96141   5.065  11.859   2.340 -0.5451 -0.2109 -0.7089
  697MOL0     H96142   5.242  12.013   2.411  1.1019  2.7872  1.1232
  697MOL0     H96143   5.176  12.059   2.260  1.5558  1.5930  1.1910
  697MOL0     H96144   5.012  12.382   2.500  0.3365 -0.1153 -0.0865
  697MOL0     H96145   4.857  12.508   2.764  0.1796 -0.2524  0.9983
  697MOL0     H96146   4.945  12.532   2.619 -1.5763 -0.4871  0.2808
  697MOL0     H96147   5.022  12.570   2.774 -0.2501  2.3267 -0.9927
  697MOL0     H96148   4.910  12.613   3.070  1.8824 -0.2362 -0.2512
  697MOL0     H96149   4.893  12.715   3.287  0.2573  0.4524  0.3382
  697MOL0     H96150   4.945  12.823   3.568  0.2914 -0.5715  1.6370
  697MOL0     H96151   4.804  12.728   3.502  0.2790 -1.5417 -2.3453
  697MOL0     H96152   4.953  12.673   3.758 -1.7120 -2.0564  3.0700
  697MOL0     H96153   4.802  12.750   3.761 -3.1330  0.1550 -1.8225
  697MOL0     H96154   4.828  12.472   3.635  0.1540  1.9225 -3.4314
  697MOL0     H96155   4.684  12.568   3.637  1.1337  0.4861 -2.4573
  697MOL0     H96156   4.760  12.579   3.907 -1.7484 -3.0299  5.7577
  697MOL0     H96157   4.825  12.425   3.859  0.5947  0.9125 -0.7730
  697MOL0     H96158   4.599  12.327   3.790 -1.7977 -0.6544  1.8289
  697MOL0     H96159   4.607  12.380   3.947  1.4211 -2.9468 -0.8929
  697MOL0     H96160   4.455  12.506   3.726 -1.1899 -0.8290 -0.1962
  697MOL0     H96161   4.528  12.611   3.839  1.0289 -0.0892  4.4532
  697MOL0     H96162   4.395  12.550   4.018  1.9278  3.1440 -2.0896
  697MOL0     H96163   4.376  12.382   3.969 -0.5575  0.7244  1.2839
  697MOL0     H96164   4.234  12.606   3.811  0.5440  1.9809  3.9893
  697MOL0     H96165   4.166  12.501   3.941 -0.5804  0.7053 -0.2084
  697MOL0     H96166   5.012  12.349   3.473 -0.4694  0.3492  0.6487
  697MOL0     H96167   5.005  12.237   3.245  1.2056  0.2455 -1.7131
  697MOL0     H96168   5.102  12.047   2.846 -0.8359 -0.9604  1.2005
  697MOL0     H96169   5.173  12.003   2.630 -0.5081 -0.7300 -1.1305
  697MOL0     H96170   5.243  10.733   2.053 -0.4967  0.9422 -0.0649
  697MOL0     H96171   5.313  10.617   2.246  2.4503  0.9743  0.9285
  697MOL0     H96172   5.191  10.707   2.840  0.7624 -0.5498  2.7374
  697MOL0     H96173   5.189  10.516   2.989 -1.7479  3.8341 -0.1640
  697MOL0     H96174   5.229  10.251   3.097 -1.4023 -0.4497 -0.0959
  697MOL0     H96175   5.175  10.281   2.932 -0.2901 -0.7260  0.3078
  697MOL0     H96176   5.343  10.094   2.859 -1.0612 -2.4759 -1.4905
  697MOL0     H96177   5.187  10.050   2.913 -0.5107  1.3445 -1.7827
  697MOL0     H96178   5.270   9.954   3.124  2.2088  2.5236  1.4454
  697MOL0     H96179   5.392   9.925   2.985 -0.4883  1.6293 -3.7415
  697MOL0     H96180   5.502   9.946   3.188  2.1647 -0.5041 -2.6306
  697MOL0     H96181   5.425  10.100   3.241  0.4063 -1.1413  2.1479
  697MOL0     H96182   5.746  10.223   3.006  0.4766 -2.2549 -2.4699
  697MOL0     H96183   5.535  10.362   2.802 -0.6830 -1.4046 -1.7662
  697MOL0     H96184   5.667  10.549   2.678  0.9871 -2.6061 -0.8291
  697MOL0     H96185   5.593  10.433   2.572 -1.2001 -0.6935  1.9179
  697MOL0     H96186   5.587  10.603   2.528  0.9207 -0.7122 -0.0849
  698MOL0     O96187   4.275   8.411   0.388 -0.7294  0.1052  0.1839
  698MOL0     C96188   4.195   8.502   0.358  0.5981 -0.3505 -0.5740
  698MOL0     O96189   4.230   8.625   0.306  0.1143  0.5887  0.2283
  698MOL0     C96190   4.355   8.685   0.318  0.3356  0.0862 -0.8717
  698MOL0     C96191   4.340   8.822   0.337  0.5155 -0.0564 -0.6417
  698MOL0     C96192   4.453   8.909   0.355  0.2269 -0.0435  0.6529
  698MOL0     C96193   4.579   8.854   0.352  0.2410 -0.8326 -0.2167
  698MOL0     O96194   4.683   8.933   0.384  0.5846 -0.7172  0.4699
  698MOL0     C96195   4.789   8.868   0.469  0.0706 -0.2114 -0.3870
  698MOL0     C96196   4.743   8.859   0.613  0.5602 -0.3104 -0.6336
  698MOL0     C96197   4.850   8.844   0.719  0.4075  0.6912 -0.0896
  698MOL0     C96198   4.811   8.829   0.865  0.2722  0.5752 -0.2887
  698MOL0     C96199   4.930   8.863   0.968  0.3918 -0.2669  0.2853
  698MOL0     C96200   4.893   8.822   1.108 -0.0153  0.2257 -0.2300
  698MOL0     C96201   5.008   8.819   1.217 -0.9177 -0.4019  0.2794
  698MOL0     C96202   5.040   8.945   1.291  0.9981  0.0169 -0.0461
  698MOL0     N96203   5.158   8.937   1.377  0.3040  0.8984 -0.5638
  698MOL0     C96204   5.166   8.953   1.510  0.8379 -0.0126 -0.2335
  698MOL0     C96205   5.300   8.953   1.543 -0.2842  0.2978 -0.4525
  698MOL0     C96206   5.362   8.960   1.681 -1.2153  0.5395  0.7698
  698MOL0     C96207   5.474   8.865   1.700 -0.5978 -0.3770 -0.8274
  698MOL0     C96208   5.563   8.896   1.815  0.6979 -1.0229 -0.1283
  698MOL0     C96209   5.652   8.774   1.833  0.1972 -0.5091 -0.0611
  698MOL0     O96210   5.746   8.780   1.938  0.0212  0.5558  0.0992
  698MOL0     C96211   5.838   8.680   1.955  0.3272 -0.0735 -0.1605
  698MOL0     C96212   5.944   8.701   2.049 -0.0199 -0.2196  0.8063
  698MOL0     C96213   6.047   8.607   2.077 -0.0441  0.0017 -1.1730
  698MOL0     C96214   6.175   8.652   2.167 -0.1399 -0.7455  0.5397
  698MOL0     C96215   6.028   8.482   2.008 -0.4735 -1.1458  0.4356
  698MOL0     C96216   6.144   8.391   2.006 -0.5822  0.4223  0.4307
  698MOL0     O96217   6.204   8.365   2.122 -0.8741  0.3749  0.1456
  698MOL0     C96218   6.327   8.288   2.129 -0.4658  0.1644 -0.1061
  698MOL0     C96219   6.433   8.295   2.043  0.1045  0.5418  0.7845
  698MOL0     C96220   6.551   8.218   2.052  0.4915  0.1076  0.2642
  698MOL0     C96221   6.560   8.131   2.169 -0.0390 -0.1222  0.5397
  698MOL0     O96222   6.671   8.056   2.207  0.3786 -0.3381  0.8691
  698MOL0     C96223   6.796   8.126   2.206  0.1152  0.4499 -0.8339
  698MOL0     C96224   6.917   8.039   2.250  0.1033  0.0724  0.2413
  698MOL0     C96225   7.041   8.113   2.215  0.2194 -0.3536  0.8198
  698MOL0     C96226   7.165   8.042   2.282  0.5734  0.1067 -0.8368
  698MOL0     C96227   7.185   8.087   2.432 -0.0867  0.1344  0.2336
  698MOL0     C96228   7.321   8.038   2.487  0.0395  0.3997  0.0862
  698MOL0     C96229   7.396   8.120   2.601 -1.0243 -0.9245 -0.4088
  698MOL0     C96230   7.419   8.266   2.571 -0.9696  0.4766 -0.4982
  698MOL0    Cl96231   7.306   8.387   2.651 -0.1699  0.1090  0.0933
  698MOL0     C96232   6.454   8.133   2.257  0.3007 -0.0393  0.6088
  698MOL0     C96233   6.346   8.202   2.236 -0.9884  0.3085  1.2564
  698MOL0     O96234   6.169   8.330   1.900  0.2582 -0.0225 -0.5417
  698MOL0     C96235   5.914   8.461   1.936  0.3677  0.2379  0.5970
  698MOL0     C96236   5.820   8.556   1.893 -0.8507  0.4373  1.3354
  698MOL0     N96237   5.372   8.959   1.423  0.4692  0.2950  0.2728
  698MOL0     N96238   5.288   8.945   1.330 -0.5127  0.2268  0.8303
  698MOL0     C96239   4.590   8.717   0.316  0.3503  0.0305 -0.3821
  698MOL0     C96240   4.478   8.633   0.311 -0.6964 -0.2009  0.8974
  698MOL0     C96241   4.052   8.470   0.362 -0.0116  0.1255 -0.5547
  698MOL0     C96242   4.011   8.370   0.463  0.6256 -0.0723  0.8020
  698MOL0     C96243   3.873   8.357   0.471 -0.1609 -0.8630 -0.8527
  698MOL0     C96244   3.780   8.424   0.390  0.0424 -0.0220 -0.0736
  698MOL0     O96245   3.642   8.432   0.404  0.2062  0.3250 -0.6552
  698MOL0     C96246   3.585   8.405   0.532  1.0201  1.0926  0.5116
  698MOL0     C96247   3.547   8.264   0.559  0.2851  0.6731 -0.2109
  698MOL0     C96248   3.488   8.186   0.440 -0.7790 -0.2606  0.2678
  698MOL0     C96249   3.402   8.071   0.491 -0.3577  0.6995 -0.2046
  698MOL0     C96250   3.405   7.982   0.375 -0.2808  0.4499  0.0252
  698MOL0     C96251   3.419   7.897   0.287 -0.5163 -0.2425 -0.2470
  698MOL0     C96252   3.823   8.488   0.279 -0.8135 -0.4214 -0.6393
  698MOL0     C96253   3.960   8.514   0.263 -0.3909 -0.1919  0.3087
  698MOL0     C96254   3.996   8.600   0.148 -0.7532  0.3235  1.1653
  698MOL0     H96255   4.245   8.873   0.328 -0.8614 -1.5324  3.3095
  698MOL0     H96256   4.442   9.016   0.366  1.6589 -0.0851  2.9958
  698MOL0     H96257   4.878   8.932   0.474  0.9916 -1.2298 -2.4201
  698MOL0     H96258   4.834   8.775   0.431  2.0853  0.0107  1.2889
  698MOL0     H96259   4.704   8.960   0.629  2.1245  0.0826  0.9497
  698MOL0     H96260   4.673   8.777   0.633  0.9636 -0.8758 -1.4806
  698MOL0     H96261   4.903   8.751   0.700 -1.0348 -0.1886  0.0812
  698MOL0     H96262   4.910   8.936   0.718  0.4337  0.7477  1.9913
  698MOL0     H96263   4.733   8.902   0.884 -2.2311 -1.0057 -3.5591
  698MOL0     H96264   4.763   8.734   0.891 -1.1305  2.0691  3.1421
  698MOL0     H96265   4.942   8.971   0.981 -1.3885 -0.1546  1.5160
  698MOL0     H96266   5.020   8.810   0.937  0.7836  0.8990 -0.6578
  698MOL0     H96267   4.808   8.886   1.134 -0.4843 -0.8290  0.9438
  698MOL0     H96268   4.856   8.719   1.104  1.8899 -0.5205  0.4565
  698MOL0     H96269   5.098   8.793   1.160 -1.9528 -0.8072 -1.2380
  698MOL0     H96270   5.004   8.736   1.289 -0.0906 -1.2191 -0.5706
  698MOL0     H96271   5.052   9.030   1.223 -2.3149 -0.4857 -1.4468
  698MOL0     H96272   4.951   8.959   1.352 -0.3818 -0.4314 -1.8675
  698MOL0     H96273   5.097   8.979   1.590  1.1941 -0.9250  0.3835
  698MOL0     H96274   5.283   8.946   1.754  0.6136  0.0983  2.7594
  698MOL0     H96275   5.401   9.063   1.683 -0.1022  0.1418  0.6203
  698MOL0     H96276   5.427   8.767   1.707 -3.2696  0.6069 -3.1806
  698MOL0     H96277   5.542   8.875   1.615  2.1467  0.1073  1.2603
  698MOL0     H96278   5.621   8.989   1.816  0.1541 -0.6138  2.7653
  698MOL0     H96279   5.490   8.910   1.896  1.3340  1.3811  0.1152
  698MOL0     H96280   5.589   8.688   1.855  0.7419 -0.6039  1.2318
  698MOL0     H96281   5.699   8.755   1.737 -2.3949  2.4783 -2.1234
  698MOL0     H96282   5.961   8.798   2.094 -1.1118  0.9482 -1.1442
  698MOL0     H96283   6.168   8.587   2.255 -0.1159 -0.2549  0.9103
  698MOL0     H96284   6.168   8.756   2.201 -0.0847 -1.1218  1.7830
  698MOL0     H96285   6.272   8.634   2.121  0.9889  1.3236  1.9341
  698MOL0     H96286   6.408   8.354   1.955 -1.4675  1.1354  1.5918
  698MOL0     H96287   6.632   8.227   1.980  1.1578  2.4645  1.2226
  698MOL0     H96288   6.802   8.173   2.107 -0.3932 -0.2043 -1.1901
  698MOL0     H96289   6.780   8.205   2.279  1.6135 -1.9122  2.3132
  698MOL0     H96290   6.906   8.011   2.355 -2.5307 -0.3393 -0.0926
  698MOL0     H96291   6.909   7.940   2.203 -1.7220 -0.0351  0.7055
  698MOL0     H96292   7.029   8.213   2.256 -0.9852 -0.1883  0.1152
  698MOL0     H96293   7.058   8.118   2.107  0.3999 -1.3762  0.7871
  698MOL0     H96294   7.257   8.049   2.224  1.6475 -3.0796  0.2627
  698MOL0     H96295   7.146   7.934   2.286 -1.8428  0.4930  2.9034
  698MOL0     H96296   7.178   8.196   2.431  1.9444  0.3541 -3.1236
  698MOL0     H96297   7.101   8.047   2.489 -0.4673 -0.4261 -0.6947
  698MOL0     H96298   7.387   8.032   2.400  0.5404  3.0441  0.2118
  698MOL0     H96299   7.316   7.932   2.513 -3.8401  0.1746 -0.9304
  698MOL0     H96300   7.496   8.076   2.608 -0.7188 -0.0327  3.6113
  698MOL0     H96301   7.342   8.104   2.695 -1.0168 -2.5433 -0.6435
  698MOL0     H96302   7.421   8.291   2.464 -1.0231  3.2469  0.1024
  698MOL0     H96303   7.516   8.283   2.619  0.5749 -1.1779 -2.7978
  698MOL0     H96304   6.471   8.061   2.337  0.4568 -0.0467  0.5703
  698MOL0     H96305   6.269   8.170   2.306 -1.2032 -3.9716 -0.6530
  698MOL0     H96306   5.897   8.369   1.879  4.2571  0.3935 -1.0933
  698MOL0     H96307   5.744   8.529   1.820  3.4227 -1.7249 -2.8341
  698MOL0     H96308   4.690   8.678   0.303 -0.9937 -3.4106 -1.7001
  698MOL0     H96309   4.494   8.527   0.289 -1.5445  0.1584 -1.9319
  698MOL0     H96310   4.087   8.324   0.525 -0.6416 -1.5544  1.3166
  698MOL0     H96311   3.845   8.308   0.563 -1.0906  3.2130  1.2900
  698MOL0     H96312   3.638   8.445   0.619 -1.9019  0.1895  2.8988
  698MOL0     H96313   3.488   8.456   0.541  0.9617  1.0428  0.1695
  698MOL0     H96314   3.474   8.275   0.639  1.5533  2.0831  0.8225
  698MOL0     H96315   3.632   8.198   0.579  0.5957  1.5071  1.3509
  698MOL0     H96316   3.422   8.249   0.381 -3.7176 -2.1957  1.2494
  698MOL0     H96317   3.574   8.160   0.378 -0.4759  1.5634 -0.1391
  698MOL0     H96318   3.302   8.109   0.514  0.0121 -0.2235  3.7240
  698MOL0     H96319   3.446   8.024   0.580  0.1655  1.0876 -0.2564
  698MOL0     H96320   3.429   7.818   0.214 -1.2617 -1.6183  1.0824
  698MOL0     H96321   3.755   8.544   0.215 -0.5013 -0.0356 -0.6358
  698MOL0     H96322   4.099   8.581   0.116 -1.5776 -0.2570 -1.4358
  698MOL0     H96323   3.930   8.575   0.064 -1.9234  0.3399  2.0648
  698MOL0     H96324   3.989   8.706   0.172  1.3885  1.2290 -1.7044
  699MOL0     O96325   0.035   7.296   6.680 -0.0865 -0.3089  0.3943
  699MOL0     C96326  -0.003   7.274   6.571  1.2129  1.1281 -0.3264
  699MOL0     O96327   0.030   7.339   6.449  0.2997  0.8072  0.1303
  699MOL0     C96328   0.097   7.459   6.444 -0.2006  0.2975  0.1181
  699MOL0     C96329   0.087   7.557   6.544 -0.0185  0.1387 -0.3429
  699MOL0     C96330   0.168   7.668   6.538  0.6381 -0.1660  1.2341
  699MOL0     C96331   0.256   7.701   6.430 -0.1351 -0.9695  0.0595
  699MOL0     O96332   0.327   7.824   6.424  0.2816  0.3407 -0.7187
  699MOL0     C96333   0.279   7.929   6.496 -0.7900 -0.4325  0.9999
  699MOL0     C96334   0.362   8.058   6.448  0.0481  0.5314 -0.2567
  699MOL0     C96335   0.333   8.184   6.523 -0.3582 -0.2573 -0.3880
  699MOL0     C96336   0.459   8.274   6.525 -0.5104  0.0065  0.5247
  699MOL0     C96337   0.419   8.400   6.605  0.0729 -0.0491 -0.0612
  699MOL0     C96338   0.531   8.503   6.598  0.3044 -0.6641 -0.6792
  699MOL0     C96339   0.541   8.578   6.468 -1.3825  0.9352 -0.1713
  699MOL0     C96340   0.448   8.694   6.448  0.5118 -0.2623 -0.5514
  699MOL0     N96341   0.503   8.787   6.348 -0.0343  0.2148  0.5693
  699MOL0     C96342   0.600   8.884   6.363 -0.0939 -0.5437 -0.1038
  699MOL0     C96343   0.596   8.947   6.243  0.7510 -0.0744  0.5543
  699MOL0     C96344   0.662   9.068   6.205  0.0514 -0.2246 -0.1203
  699MOL0     C96345   0.784   9.059   6.111  0.3132 -0.1066 -0.1593
  699MOL0     C96346   0.840   9.178   6.047 -1.0987 -0.2578  0.1541
  699MOL0     C96347   0.731   9.249   5.976 -0.2049 -0.6141 -0.0927
  699MOL0     O96348   0.794   9.338   5.885  0.1496 -0.1307  0.2174
  699MOL0     C96349   0.701   9.428   5.824  0.3122 -1.0310 -0.4083
  699MOL0     C96350   0.563   9.452   5.854 -0.7251  0.4026 -0.0824
  699MOL0     C96351   0.488   9.556   5.791  0.4367  0.8557  0.8932
  699MOL0     C96352   0.344   9.582   5.847 -0.2717 -0.8701 -0.1218
  699MOL0     C96353   0.555   9.621   5.685 -0.5031 -0.6503  0.0989
  699MOL0     C96354   0.483   9.714   5.589 -0.2030  0.0206  0.1345
  699MOL0     O96355   0.352   9.699   5.589 -0.1048 -0.9737  0.0818
  699MOL0     C96356   0.277   9.804   5.536 -0.0664  0.4915  0.0495
  699MOL0     C96357   0.236   9.811   5.402  0.1697  0.2226  1.1093
  699MOL0     C96358   0.148   9.905   5.357  0.2261 -0.3147 -0.0537
  699MOL0     C96359   0.098  10.003   5.445 -0.7165  0.3330 -0.6853
  699MOL0     O96360   0.006  10.097   5.398 -0.0210 -0.4323  0.2950
  699MOL0     C96361   0.049  10.171   5.279 -0.2423 -0.2992  0.2206
  699MOL0     C96362   0.089  10.317   5.325 -0.2910  0.4586 -0.3860
  699MOL0     C96363   0.241  10.347   5.319 -0.8049  0.6650 -0.2916
  699MOL0     C96364   0.333  10.270   5.422  0.0903 -0.2554  0.5229
  699MOL0     C96365   0.480  10.306   5.392 -0.2685  0.3255 -0.4203
  699MOL0     C96366   0.571  10.227   5.480  0.2965  0.0415  0.9822
  699MOL0     C96367   0.647  10.129   5.382 -0.7961 -0.4876  0.3516
  699MOL0     C96368   0.763  10.057   5.465  0.0156  0.1404  0.4020
  699MOL0    Cl96369   0.854   9.968   5.348 -0.5432  0.2347  0.4763
  699MOL0     C96370   0.149  10.012   5.580  0.4601 -1.0290  0.8021
  699MOL0     C96371   0.235   9.909   5.621  0.1629 -0.2760 -0.0469
  699MOL0     O96372   0.544   9.810   5.535  0.9206 -0.2539  0.0059
  699MOL0     C96373   0.692   9.595   5.654 -0.4518 -0.5206 -0.1019
  699MOL0     C96374   0.764   9.502   5.724  0.0753  0.4734 -1.0695
  699MOL0     N96375   0.509   8.889   6.165 -0.0010 -0.3154  1.0398
  699MOL0     N96376   0.455   8.784   6.220 -0.2864 -1.1157 -0.1182
  699MOL0     C96377   0.265   7.606   6.325  0.3915  0.1469  0.1077
  699MOL0     C96378   0.178   7.491   6.330  0.7467  0.2005  0.6261
  699MOL0     C96379  -0.115   7.175   6.551  0.9235  0.9561 -0.8994
  699MOL0     C96380  -0.182   7.152   6.348  0.0491  1.1205  0.2961
  699MOL0     C96381  -0.338   7.015   6.307  1.0732 -0.3693 -0.4940
  699MOL0     C96382  -0.438   6.908   6.467 -0.4928 -0.9035  0.1720
  699MOL0     O96383  -0.539   6.820   6.439  0.0084 -0.1482  0.0382
  699MOL0     C96384  -0.538   6.768   6.301 -0.2457  0.4085 -1.0422
  699MOL0     C96385  -0.677   6.775   6.237 -0.4864 -0.6125 -0.4528
  699MOL0     C96386  -0.668   6.739   6.081  0.4208 -0.9646  0.1997
  699MOL0     C96387  -0.793   6.781   6.010  0.5168  0.2722  1.2920
  699MOL0     C96388  -0.905   6.704   6.061 -0.2636  0.8618  0.9308
  699MOL0     C96389  -0.993   6.636   6.112  0.1405 -0.6580 -0.4377
  699MOL0     C96390  -0.370   6.932   6.663 -0.1055  0.1569 -0.4822
  699MOL0     C96391  -0.212   7.062   6.710 -0.5209  0.8788  0.3467
  699MOL0     C96392  -0.176   7.092   6.846  0.2593 -0.8666 -0.8016
  699MOL0     H96393   0.012   7.529   6.617  0.4479 -1.2193 -0.3528
  699MOL0     H96394   0.170   7.732   6.626  1.4585 -2.2508  2.8154
  699MOL0     H96395   0.270   7.908   6.603 -5.7288 -2.1509  0.5153
  699MOL0     H96396   0.175   7.945   6.469 -1.2195  1.2805  3.3438
  699MOL0     H96397   0.469   8.040   6.467 -0.0668  0.6427  0.5188
  699MOL0     H96398   0.346   8.074   6.341  2.2081  0.0834 -0.7102
  699MOL0     H96399   0.251   8.238   6.474  1.3837  0.1918 -2.9609
  699MOL0     H96400   0.316   8.160   6.628  1.3149  2.4704  0.6056
  699MOL0     H96401   0.537   8.221   6.580 -1.0678 -0.5374  0.8202
  699MOL0     H96402   0.489   8.291   6.422  1.8832  1.3199  1.3735
  699MOL0     H96403   0.378   8.373   6.703 -0.0707  2.3037  0.5898
  699MOL0     H96404   0.328   8.448   6.567  0.2908 -1.3775 -2.4824
  699MOL0     H96405   0.515   8.577   6.676  0.3920 -3.2876  2.0356
  699MOL0     H96406   0.625   8.448   6.615  0.8190  0.5609  0.6179
  699MOL0     H96407   0.536   8.513   6.381  1.5477  3.3107 -2.2954
  699MOL0     H96408   0.641   8.622   6.471  0.4987 -2.8160 -1.9959
  699MOL0     H96409   0.349   8.655   6.425  1.7497 -2.6339 -2.2242
  699MOL0     H96410   0.449   8.755   6.539  3.1022 -1.5804  0.4053
  699MOL0     H96411   0.650   8.919   6.453  0.2334 -0.0475 -0.4785
  699MOL0     H96412   0.683   9.127   6.294 -2.4207  0.2373  0.2113
  699MOL0     H96413   0.587   9.132   6.157  1.1187  1.2138  0.0582
  699MOL0     H96414   0.859   9.020   6.181  0.0573  1.7964  1.2852
  699MOL0     H96415   0.766   8.983   6.035 -1.1623  1.3305 -1.3322
  699MOL0     H96416   0.884   9.247   6.119  0.8349 -0.0719 -1.1432
  699MOL0     H96417   0.913   9.148   5.971 -2.7865  1.9048 -2.5520
  699MOL0     H96418   0.661   9.191   5.915 -1.0480  0.0903  0.1764
  699MOL0     H96419   0.682   9.307   6.055 -0.7218  1.8777 -2.1007
  699MOL0     H96420   0.513   9.402   5.936  1.0953 -0.0941  0.7928
  699MOL0     H96421   0.340   9.577   5.956  0.7575 -1.7194 -0.1081
  699MOL0     H96422   0.273   9.504   5.820  0.7940 -2.0203  0.3160
  699MOL0     H96423   0.304   9.677   5.809  0.0768 -1.0170 -0.8890
  699MOL0     H96424   0.269   9.728   5.340  0.9112  1.6608 -0.5042
  699MOL0     H96425   0.101   9.899   5.259  2.8791 -0.0994 -1.4129
  699MOL0     H96426   0.124  10.127   5.213 -1.6838 -1.7843 -0.4893
  699MOL0     H96427  -0.040  10.174   5.216  0.3512  0.1639 -0.6186
  699MOL0     H96428   0.033  10.389   5.266  2.9202  2.1688 -1.5422
  699MOL0     H96429   0.068  10.326   5.432 -1.7665 -2.5462 -0.2906
  699MOL0     H96430   0.252  10.453   5.344 -2.3263  1.1668 -1.5859
  699MOL0     H96431   0.270  10.334   5.214 -3.3423 -3.6267 -0.6893
  699MOL0     H96432   0.315  10.163   5.411  2.2716 -0.5016 -1.6436
  699MOL0     H96433   0.310  10.303   5.524  3.1681  1.9591  0.6240
  699MOL0     H96434   0.499  10.305   5.284 -2.4826  0.4360 -0.8444
  699MOL0     H96435   0.497  10.409   5.425  2.0345 -0.6300  1.6882
  699MOL0     H96436   0.513  10.167   5.551  0.5083 -2.5271 -0.8663
  699MOL0     H96437   0.637  10.303   5.524  1.7151  0.7533 -2.0776
  699MOL0     H96438   0.694  10.192   5.306 -0.5390  0.1867  1.0583
  699MOL0     H96439   0.580  10.063   5.327 -0.1509 -1.5228  0.7817
  699MOL0     H96440   0.730   9.992   5.546  1.0761  2.0662  2.5071
  699MOL0     H96441   0.830  10.125   5.521 -0.1655  0.1874  0.5637
  699MOL0     H96442   0.127  10.095   5.646 -0.5707  0.4738 -1.3092
  699MOL0     H96443   0.253   9.909   5.728 -1.3546 -0.5818  0.2407
  699MOL0     H96444   0.751   9.652   5.584  0.0368  1.1562  1.5927
  699MOL0     H96445   0.870   9.492   5.703  0.0503 -2.3448 -0.1934
  699MOL0     H96446   0.321   7.622   6.234 -0.0399  2.7435  0.2142
  699MOL0     H96447   0.173   7.419   6.248 -0.6799  0.6364  0.3140
  699MOL0     H96448  -0.132   7.207   6.269 -1.5246  1.1609 -0.7042
  699MOL0     H96449  -0.371   7.015   6.204 -0.8491  3.0307 -0.0460
  699MOL0     H96450  -0.459   6.819   6.244  0.0983  0.0796 -0.8657
  699MOL0     H96451  -0.508   6.664   6.313 -2.6012 -0.0404  2.5694
  699MOL0     H96452  -0.721   6.874   6.250  2.8092  0.8097  1.0263
  699MOL0     H96453  -0.741   6.706   6.292 -2.2952  0.0265 -1.6631
  699MOL0     H96454  -0.583   6.788   6.033  1.1286 -0.4897  1.8455
  699MOL0     H96455  -0.660   6.632   6.060 -0.0111 -0.6344 -1.8773
  699MOL0     H96456  -0.787   6.764   5.902 -0.1578 -0.7799  1.4045
  699MOL0     H96457  -0.803   6.889   6.024  0.5196  0.3896  0.4536
  699MOL0     H96458  -1.043   6.554   6.158  2.1072  0.0519  3.4202
  699MOL0     H96459  -0.416   6.867   6.737  0.3496 -1.1196 -1.2890
  699MOL0     H96460  -0.167   7.007   6.914  1.4444  0.0802  0.2733
  699MOL0     H96461  -0.081   7.146   6.857  0.9839 -1.0481 -4.8432
  699MOL0     H96462  -0.252   7.162   6.882  0.4335 -1.6570  1.2222
  700MOL0     O96463   7.604   0.244   3.623  0.1176  0.1871 -0.1454
  700MOL0     C96464   7.656   0.228   3.736 -0.7194 -0.2788  0.1387
  700MOL0     O96465   7.627   0.307   3.844 -0.2050  0.2191 -0.3132
  700MOL0     C96466   7.513   0.377   3.863  0.4015 -1.3552 -0.1342
  700MOL0     C96467   7.457   0.459   3.764 -0.3916 -0.1435  0.7844
  700MOL0     C96468   7.342   0.531   3.789 -0.5588 -0.9252 -0.1116
  700MOL0     C96469   7.282   0.536   3.910  0.8363  0.5526  0.1340
  700MOL0     O96470   7.180   0.613   3.942 -0.1527  0.5051 -0.1888
  700MOL0     C96471   7.168   0.732   3.874 -0.2513  0.5789  0.4290
  700MOL0     C96472   7.062   0.814   3.931  0.2855  0.8660  0.1755
  700MOL0     C96473   6.941   0.733   3.930  0.8286  0.3237 -0.9183
  700MOL0     C96474   6.827   0.820   3.968  0.8006  0.0698 -0.6170
  700MOL0     C96475   6.690   0.768   3.931  0.2541  0.4558  0.4672
  700MOL0     C96476   6.666   0.766   3.785  0.3773  0.2506 -0.1028
  700MOL0     C96477   6.517   0.751   3.750 -0.5545 -0.4269 -0.1858
  700MOL0     C96478   6.495   0.765   3.594 -0.3825  0.1050 -0.3529
  700MOL0     N96479   6.348   0.777   3.578 -0.7139  0.3663 -1.2214
  700MOL0     C96480   6.251   0.677   3.590  0.5804  0.3751 -0.0275
  700MOL0     C96481   6.134   0.735   3.555 -0.3546 -0.5785 -0.3395
  700MOL0     C96482   6.011   0.661   3.535 -0.1812  0.7395 -0.2448
  700MOL0     C96483   5.934   0.740   3.428  1.4646 -0.0743 -0.1785
  700MOL0     C96484   5.804   0.668   3.387  0.4160  0.2114 -0.6561
  700MOL0     C96485   5.719   0.724   3.283 -0.4834 -0.2005  1.0514
  700MOL0     O96486   5.648   0.827   3.346  0.3651 -0.1433 -0.0909
  700MOL0     C96487   5.586   0.911   3.259  1.2764 -0.1706 -0.6337
  700MOL0     C96488   5.465   0.881   3.194 -0.6527  0.1022 -0.2526
  700MOL0     C96489   5.405   0.977   3.098 -0.6925 -0.4833 -0.4681
  700MOL0     C96490   5.274   0.941   3.026 -0.9278  0.2972  0.4115
  700MOL0     C96491   5.478   1.104   3.073  0.2237  0.3050  0.1782
  700MOL0     C96492   5.435   1.219   2.992 -0.1352 -0.8707 -0.4299
  700MOL0     O96493   5.523   1.326   2.978  0.7311 -0.4016 -0.5025
  700MOL0     C96494   5.474   1.442   2.916 -0.1659  0.5509 -0.3890
  700MOL0     C96495   5.420   1.548   2.991  0.1875 -1.2679  0.5299
  700MOL0     C96496   5.418   1.681   2.930  1.0372 -0.3533  0.2600
  700MOL0     C96497   5.462   1.699   2.801  0.0676  0.2341 -0.3714
  700MOL0     O96498   5.469   1.820   2.737 -0.3405  0.2503 -0.5829
  700MOL0     C96499   5.381   1.826   2.629 -1.2220 -0.5819  1.2126
  700MOL0     C96500   5.247   1.885   2.648  0.8738  0.3960  0.1729
  700MOL0     C96501   5.167   1.905   2.528  0.4031 -0.4098  0.0320
  700MOL0     C96502   5.018   1.922   2.551  0.0298 -0.5608  0.0480
  700MOL0     C96503   4.940   1.912   2.417  0.0055  0.0561  0.4822
  700MOL0     C96504   4.894   1.772   2.394 -0.2070  0.2888 -0.2213
  700MOL0     C96505   4.869   1.726   2.240 -0.4207 -0.3926  0.6645
  700MOL0     C96506   4.998   1.709   2.171  0.1167  0.1156 -0.1349
  700MOL0    Cl96507   5.086   1.552   2.198 -0.6013  0.4273 -0.0373
  700MOL0     C96508   5.519   1.602   2.738  0.7785  1.0060 -0.4963
  700MOL0     C96509   5.525   1.469   2.789  0.5789  0.2474 -0.2399
  700MOL0     O96510   5.321   1.216   2.938 -0.0564  0.0346  0.1574
  700MOL0     C96511   5.601   1.121   3.141  0.4646  0.3015  0.2843
  700MOL0     C96512   5.655   1.021   3.230 -0.1199  0.5019 -0.3757
  700MOL0     N96513   6.164   0.868   3.540 -0.7160  0.0334  0.7596
  700MOL0     N96514   6.285   0.896   3.552  0.2404  0.3957  0.2614
  700MOL0     C96515   7.344   0.469   4.014  0.1389 -0.2203  1.7772
  700MOL0     C96516   7.445   0.381   3.995  0.8609 -0.1356 -0.0395
  700MOL0     C96517   7.753   0.117   3.768  0.0136 -0.0018  0.3830
  700MOL0     C96518   7.744   0.009   3.683  0.6372  0.3435 -0.4287
  700MOL0     C96519   7.850  -0.080   3.677  0.6182  0.9788  0.6335
  700MOL0     C96520   7.960  -0.080   3.761 -0.4401 -0.1409  0.5110
  700MOL0     O96521   8.063  -0.178   3.763  0.6894  0.2305 -0.3581
  700MOL0     C96522   8.197  -0.124   3.780 -0.7188 -0.0988  0.2934
  700MOL0     C96523   8.308  -0.214   3.724  0.5781 -0.6627 -0.4346
  700MOL0     C96524   8.452  -0.172   3.773 -0.8218  0.7346 -0.6587
  700MOL0     C96525   8.551  -0.285   3.755 -1.1288 -0.0305  0.1256
  700MOL0     C96526   8.692  -0.243   3.782 -0.1646 -0.9594 -0.1255
  700MOL0     C96527   8.803  -0.213   3.816  0.3523 -0.3737  0.2494
  700MOL0     C96528   7.955   0.017   3.861  0.1275  0.0651 -1.5789
  700MOL0     C96529   7.858   0.115   3.869 -0.8909  0.1370 -0.1406
  700MOL0     C96530   7.862   0.212   3.987 -0.1443 -0.1245  0.0959
  700MOL0     H96531   7.496   0.452   3.663 -2.0055 -1.5126  0.2101
  700MOL0     H96532   7.314   0.591   3.703  2.0703 -0.0630 -0.4728
  700MOL0     H96533   7.149   0.701   3.771 -2.6451  3.6974 -0.2215
  700MOL0     H96534   7.264   0.784   3.886 -0.3576  0.4552  2.0441
  700MOL0     H96535   7.095   0.839   4.033 -2.1666 -2.0753  1.8561
  700MOL0     H96536   7.043   0.904   3.871 -3.9344  1.5964  2.2111
  700MOL0     H96537   6.913   0.686   3.835 -0.9356 -0.9407  0.1897
  700MOL0     H96538   6.946   0.645   3.994 -0.4135  0.9022  0.0070
  700MOL0     H96539   6.814   0.828   4.076  0.8256 -0.4969 -0.5689
  700MOL0     H96540   6.835   0.920   3.924  0.6973 -0.1531 -1.1581
  700MOL0     H96541   6.615   0.834   3.975 -0.4223  1.7470 -2.4190
  700MOL0     H96542   6.674   0.669   3.975  0.7895 -0.1081 -0.5767
  700MOL0     H96543   6.695   0.869   3.760  1.2239 -0.0525 -0.3707
  700MOL0     H96544   6.715   0.682   3.736 -1.2067 -1.7651  1.5560
  700MOL0     H96545   6.459   0.827   3.803 -0.1399  1.1957 -1.9031
  700MOL0     H96546   6.486   0.653   3.785 -2.4505 -0.1710 -1.0376
  700MOL0     H96547   6.539   0.852   3.545 -0.9607  1.2840  1.1473
  700MOL0     H96548   6.521   0.671   3.545  0.9985 -0.6508  1.6845
  700MOL0     H96549   6.278   0.574   3.613  3.5979  0.8404 -1.0405
  700MOL0     H96550   5.958   0.663   3.631  1.1468 -0.7845  0.5806
  700MOL0     H96551   6.039   0.565   3.489  1.0345  1.1947 -0.4749
  700MOL0     H96552   5.902   0.838   3.464  1.1979 -0.0073 -0.5997
  700MOL0     H96553   5.997   0.746   3.339  0.7461  0.9274 -0.6419
  700MOL0     H96554   5.830   0.572   3.342 -2.3134 -0.6847 -0.5049
  700MOL0     H96555   5.744   0.658   3.478  0.7602  3.4561  0.0621
  700MOL0     H96556   5.780   0.769   3.204  0.9215 -0.9322  1.6703
  700MOL0     H96557   5.644   0.654   3.244 -0.7933  1.4145 -1.4939
  700MOL0     H96558   5.411   0.787   3.202  0.0244 -0.2514  0.2869
  700MOL0     H96559   5.280   0.964   2.919  1.0971 -2.1103 -0.1075
  700MOL0     H96560   5.192   0.998   3.068 -3.1336 -1.4292 -1.2987
  700MOL0     H96561   5.251   0.835   3.040  2.5963 -0.6436  0.1518
  700MOL0     H96562   5.389   1.543   3.095 -0.6465  1.9493  0.5376
  700MOL0     H96563   5.375   1.769   2.977  2.9729  0.3332  0.8229
  700MOL0     H96564   5.425   1.897   2.559 -0.0261 -0.8081  1.7127
  700MOL0     H96565   5.384   1.732   2.573  2.3788  0.7481 -1.1967
  700MOL0     H96566   5.189   1.822   2.715 -0.1261  0.8897 -0.2082
  700MOL0     H96567   5.257   1.982   2.697  2.5605  0.1174  0.4546
  700MOL0     H96568   5.174   1.816   2.465 -0.4851  0.0707 -0.7675
  700MOL0     H96569   5.212   1.980   2.463 -0.6595  0.5168  0.3360
  700MOL0     H96570   5.004   2.015   2.606  2.4626  2.2585 -3.6035
  700MOL0     H96571   4.980   1.842   2.616 -0.8970  1.2629  1.8618
  700MOL0     H96572   4.846   1.964   2.439 -1.9595 -2.1163 -1.9777
  700MOL0     H96573   4.980   1.952   2.323 -1.9276  0.0306 -0.4074
  700MOL0     H96574   4.798   1.749   2.441  0.4030 -3.7515 -0.5690
  700MOL0     H96575   4.961   1.701   2.444  0.5359  2.1522  1.5733
  700MOL0     H96576   4.814   1.806   2.190  4.6098  3.7857  1.0101
  700MOL0     H96577   4.808   1.635   2.237  0.1080 -1.1385  4.9862
  700MOL0     H96578   5.071   1.789   2.189 -1.4812  1.3672  1.0369
  700MOL0     H96579   4.984   1.710   2.063  1.3634 -0.8668 -0.3212
  700MOL0     H96580   5.560   1.611   2.638  2.2404 -2.4373 -0.3716
  700MOL0     H96581   5.560   1.396   2.717 -1.2071  3.2615 -4.5408
  700MOL0     H96582   5.666   1.205   3.120  1.7034  0.2629  3.3677
  700MOL0     H96583   5.749   1.047   3.277  0.1149  0.9362 -1.0690
  700MOL0     H96584   7.297   0.475   4.112 -1.6842 -1.5397  1.0340
  700MOL0     H96585   7.477   0.320   4.079 -1.7706  0.4630  1.5127
  700MOL0     H96586   7.662  -0.011   3.615 -0.0507 -1.6066  0.8763
  700MOL0     H96587   7.829  -0.155   3.601  4.6456  1.2135 -0.9122
  700MOL0     H96588   8.196  -0.030   3.724  0.4387 -1.8443 -2.9013
  700MOL0     H96589   8.221  -0.099   3.884  1.9759 -0.6060 -0.1485
  700MOL0     H96590   8.307  -0.212   3.615 -0.2485 -1.7249 -0.4649
  700MOL0     H96591   8.296  -0.317   3.760  4.1908 -0.8239  0.7323
  700MOL0     H96592   8.496  -0.091   3.715  1.8521  2.9748  3.9254
  700MOL0     H96593   8.455  -0.127   3.873 -3.1492  0.3698 -0.3562
  700MOL0     H96594   8.546  -0.305   3.647 -0.5486 -1.2456  0.3098
  700MOL0     H96595   8.527  -0.371   3.818 -0.6907  0.8186  1.5002
  700MOL0     H96596   8.900  -0.182   3.851  0.3172  1.2963 -1.0184
  700MOL0     H96597   8.024   0.016   3.945 -1.4559  0.5242 -0.2230
  700MOL0     H96598   7.767   0.264   4.001 -0.2352  0.1890 -1.5107
  700MOL0     H96599   7.871   0.166   4.086 -0.1982  0.2873  0.2931
  700MOL0     H96600   7.947   0.280   3.976  0.9451 -1.2187  1.3439
  701MOL0     O96601   1.604   8.195  10.818 -0.7825 -0.2926  0.3153
  701MOL0     C96602   1.603   8.084  10.875  0.2695 -0.0371  0.0390
  701MOL0     O96603   1.673   7.970  10.838 -0.2005  0.1871 -0.7037
  701MOL0     C96604   1.729   7.945  10.715 -0.5568  0.0890 -0.2153
  701MOL0     C96605   1.726   7.817  10.675 -0.1706  1.3656 -1.0285
  701MOL0     C96606   1.756   7.779  10.544 -0.2805 -0.7389  0.5922
  701MOL0     C96607   1.808   7.878  10.459  0.3330 -0.4374 -0.4832
  701MOL0     O96608   1.858   7.857  10.334 -0.7250  0.5011  0.3477
  701MOL0     C96609   1.874   7.728  10.282 -1.0618  0.2482 -0.2081
  701MOL0     C96610   1.734   7.701  10.221 -0.8400  0.2133 -0.0394
  701MOL0     C96611   1.724   7.756  10.077 -0.1374 -0.3417 -0.4942
  701MOL0     C96612   1.653   7.888  10.042  0.5379 -0.3415 -1.3947
  701MOL0     C96613   1.738   8.011  10.064  0.5968 -0.0152 -0.6285
  701MOL0     C96614   1.660   8.128   9.998 -0.3994 -1.1105  0.9555
  701MOL0     C96615   1.547   8.183  10.087 -0.7909  0.3134 -0.2936
  701MOL0     C96616   1.481   8.300  10.018  0.1961  0.3541  0.3409
  701MOL0     N96617   1.352   8.340  10.068  0.5196 -0.0313 -0.6569
  701MOL0     C96618   1.300   8.467  10.070  0.6469  0.6012  0.4265
  701MOL0     C96619   1.188   8.468  10.149 -0.9285  0.4223 -0.2531
  701MOL0     C96620   1.099   8.583  10.183  0.5104 -0.7337 -0.1381
  701MOL0     C96621   1.136   8.724  10.140  0.7465  0.1382  0.6271
  701MOL0     C96622   1.041   8.814  10.218  0.2067  0.0443  0.2653
  701MOL0     C96623   1.039   8.952  10.161  0.3122  0.1885  0.0371
  701MOL0     O96624   1.160   9.033  10.167 -0.5411  0.3213  0.3898
  701MOL0     C96625   1.155   9.166  10.140  1.0821  0.7909  0.7018
  701MOL0     C96626   1.275   9.239  10.150 -0.1820  0.3598  0.7054
  701MOL0     C96627   1.269   9.375  10.135 -0.1052  0.1134 -0.2721
  701MOL0     C96628   1.404   9.444  10.163  0.3395  0.4577 -0.1503
  701MOL0     C96629   1.149   9.435  10.073 -0.6139  0.0216  0.3903
  701MOL0     C96630   1.148   9.583  10.055  0.4717 -0.3544  1.0065
  701MOL0     O96631   1.040   9.660  10.101 -0.0833  0.1284  0.4867
  701MOL0     C96632   1.025   9.788  10.075 -0.2385  1.5495 -0.4775
  701MOL0     C96633   0.903   9.828  10.014  0.9158  0.2356 -0.4502
  701MOL0     C96634   0.876   9.964   9.977  0.4416 -0.4137 -0.0286
  701MOL0     C96635   0.968  10.061   9.997  0.0746  0.2747 -0.0378
  701MOL0     O96636   0.924  10.179   9.956 -0.3282 -0.9702  0.3491
  701MOL0     C96637   1.024  10.272   9.906  0.0197  0.9676  0.7902
  701MOL0     C96638   0.955  10.399   9.853  0.2703  0.9033  1.1039
  701MOL0     C96639   0.967  10.523   9.950  0.0189  1.0672 -0.3629
  701MOL0     C96640   1.097  10.597   9.953 -0.6284  0.1008  0.1508
  701MOL0     C96641   1.108  10.688   9.823 -0.6509  0.1850  0.7825
  701MOL0     C96642   1.233  10.780   9.830 -0.4209  0.7838  0.4987
  701MOL0     C96643   1.224  10.882   9.712  0.0166  0.2351  0.5825
  701MOL0     C96644   1.113  10.986   9.736 -1.2844  0.3146 -0.4847
  701MOL0    Cl96645   1.149  11.135   9.614  0.2863  0.5126 -0.4257
  701MOL0     C96646   1.085  10.024  10.065 -0.0577 -0.0116 -0.8075
  701MOL0     C96647   1.114   9.890  10.107 -0.0254  0.0131  0.5835
  701MOL0     O96648   1.226   9.623   9.961 -0.7681  0.4032 -0.7013
  701MOL0     C96649   1.041   9.357  10.043  0.3064  1.4409  0.4923
  701MOL0     C96650   1.045   9.220  10.073  0.7563 -0.0148 -0.9704
  701MOL0     N96651   1.178   8.344  10.205  0.6060  0.0659 -0.2467
  701MOL0     N96652   1.267   8.268  10.145 -0.4151 -1.0484 -0.5964
  701MOL0     C96653   1.832   8.009  10.507 -0.4489  0.5178 -1.1332
  701MOL0     C96654   1.790   8.041  10.635  0.4678  1.1189  0.8708
  701MOL0     C96655   1.508   8.052  10.982 -0.1229 -0.1112 -0.8416
  701MOL0     C96656   1.510   7.931  11.040  0.2950 -0.1207 -0.8659
  701MOL0     C96657   1.436   7.898  11.157  0.1743  0.3629 -0.5924
  701MOL0     C96658   1.356   7.991  11.212  0.1202 -0.3479 -0.5609
  701MOL0     O96659   1.281   7.964  11.324  1.0714 -0.2921 -0.4291
  701MOL0     C96660   1.333   8.000  11.450 -0.0562  0.0739 -0.4198
  701MOL0     C96661   1.240   7.966  11.568 -0.8605 -0.1251 -0.6948
  701MOL0     C96662   1.267   8.034  11.708 -0.7488 -0.1646 -0.4717
  701MOL0     C96663   1.410   8.088  11.735  0.2889 -1.0860  0.1316
  701MOL0     C96664   1.529   8.005  11.705 -0.1819 -0.2653  0.1753
  701MOL0     C96665   1.617   7.927  11.665 -0.5899 -0.9615  0.8587
  701MOL0     C96666   1.345   8.116  11.147 -0.0805 -0.5860  0.0934
  701MOL0     C96667   1.408   8.148  11.024 -0.2935  0.6741 -0.4477
  701MOL0     C96668   1.376   8.284  10.960  0.0203  0.4540 -0.2658
  701MOL0     H96669   1.685   7.742  10.741 -0.5956  1.6899 -0.9180
  701MOL0     H96670   1.749   7.674  10.515 -0.6566 -0.8585  1.0985
  701MOL0     H96671   1.904   7.666  10.367 -2.3056  0.2742  0.2662
  701MOL0     H96672   1.943   7.724  10.197 -2.5092  1.6663 -1.5103
  701MOL0     H96673   1.725   7.592  10.216 -2.2297  0.2709  0.7761
  701MOL0     H96674   1.655   7.743  10.284 -0.4574  0.8269  0.0388
  701MOL0     H96675   1.820   7.766  10.027  1.3058  0.7150  2.2515
  701MOL0     H96676   1.663   7.681  10.026 -2.2481  0.0532  1.2709
  701MOL0     H96677   1.620   7.877   9.938 -4.4987 -4.3142  0.1934
  701MOL0     H96678   1.559   7.894  10.098  0.6440 -1.0390 -1.1270
  701MOL0     H96679   1.840   7.986  10.031  0.4782 -0.2860 -0.7933
  701MOL0     H96680   1.753   8.038  10.168  2.5207  1.6580 -1.2772
  701MOL0     H96681   1.735   8.208   9.995 -1.2733 -0.2913  0.2075
  701MOL0     H96682   1.637   8.104   9.894  3.4565  0.5606 -0.4828
  701MOL0     H96683   1.588   8.212  10.184 -0.3020 -3.0605  0.6163
  701MOL0     H96684   1.479   8.101  10.111  1.5292 -0.6135  4.2882
  701MOL0     H96685   1.558   8.378  10.012  1.5335 -1.0426 -3.2005
  701MOL0     H96686   1.471   8.271   9.913  1.1670  0.8470  0.0924
  701MOL0     H96687   1.328   8.539   9.994 -1.1886  0.8012 -0.1196
  701MOL0     H96688   1.091   8.585  10.292 -0.8287 -0.4413 -0.2183
  701MOL0     H96689   0.998   8.547  10.160 -0.5321  1.4369  0.8337
  701MOL0     H96690   1.238   8.751  10.168  0.1418  2.5376  0.7353
  701MOL0     H96691   1.107   8.716  10.035 -0.3696  0.8419  0.8580
  701MOL0     H96692   0.945   8.761  10.220  1.2553 -1.9548  1.1563
  701MOL0     H96693   1.074   8.820  10.323  1.2793 -0.5465 -0.0158
  701MOL0     H96694   1.009   8.957  10.055  1.2263  1.4931 -0.1878
  701MOL0     H96695   0.963   9.000  10.222 -0.1638  0.9040 -1.0777
  701MOL0     H96696   1.361   9.182  10.185 -1.6566 -1.3034  1.7782
  701MOL0     H96697   1.458   9.399  10.246 -2.6473 -1.1395  1.0519
  701MOL0     H96698   1.393   9.549  10.193 -0.3516  0.3009  0.1558
  701MOL0     H96699   1.452   9.454  10.065 -1.8017 -1.5267 -1.5067
  701MOL0     H96700   0.825   9.753  10.010  0.8133  0.3856 -1.4994
  701MOL0     H96701   0.783   9.989   9.927  0.7799  0.3793 -0.2711
  701MOL0     H96702   1.094  10.294   9.988 -1.2922  1.1491  1.9118
  701MOL0     H96703   1.095  10.226   9.837 -0.1989 -0.4248  1.4610
  701MOL0     H96704   1.004  10.416   9.757 -0.7750 -3.4846 -0.4693
  701MOL0     H96705   0.850  10.375   9.833  1.8131 -4.4772 -2.5984
  701MOL0     H96706   0.955  10.488  10.053  3.7437 -0.3102 -0.2469
  701MOL0     H96707   0.894  10.604   9.938 -2.0626 -0.1589  2.9340
  701MOL0     H96708   1.174  10.520   9.938  0.1870  1.2773 -2.3568
  701MOL0     H96709   1.129  10.648  10.043 -3.5059 -1.1116  2.0111
  701MOL0     H96710   1.114  10.626   9.733  2.6671  1.3235  0.1049
  701MOL0     H96711   1.013  10.742   9.809 -1.7203 -1.2527  2.0948
  701MOL0     H96712   1.308  10.703   9.813 -0.2800  1.4457 -2.2595
  701MOL0     H96713   1.243  10.832   9.926 -1.0708  0.9736  0.4719
  701MOL0     H96714   1.207  10.834   9.615 -2.3260  3.9307 -1.0770
  701MOL0     H96715   1.315  10.942   9.707  0.2562  0.2320  3.4418
  701MOL0     H96716   1.118  11.022   9.839 -1.3542  1.3152 -0.8198
  701MOL0     H96717   1.019  10.930   9.733 -1.2365  0.2584 -1.5851
  701MOL0     H96718   1.131  10.115  10.102  0.5109 -1.2103  1.6472
  701MOL0     H96719   1.183   9.882  10.190 -1.1153 -1.4654  1.3871
  701MOL0     H96720   0.961   9.412   9.994  1.6603  2.6305 -0.4820
  701MOL0     H96721   0.957   9.168  10.037  0.0965  0.1461  0.3502
  701MOL0     H96722   1.872   8.076  10.431  3.6486 -1.2456 -0.7928
  701MOL0     H96723   1.804   8.138  10.683 -0.5901  0.4523  2.6262
  701MOL0     H96724   1.577   7.853  11.006 -1.2386 -1.2208 -1.4962
  701MOL0     H96725   1.447   7.800  11.202 -0.4439  0.2913 -0.5950
  701MOL0     H96726   1.429   7.950  11.460 -0.3489 -0.5192 -0.5609
  701MOL0     H96727   1.357   8.106  11.467 -2.0415  0.7116 -1.2841
  701MOL0     H96728   1.236   7.858  11.579  2.2763 -0.2198  0.6848
  701MOL0     H96729   1.145   8.015  11.544 -1.5388  0.1689  2.1957
  701MOL0     H96730   1.196   8.118  11.716 -1.5625 -0.9732  1.4182
  701MOL0     H96731   1.237   7.960  11.782  0.3668  0.4681  0.6646
  701MOL0     H96732   1.415   8.132  11.835 -1.0708 -0.5770 -0.0050
  701MOL0     H96733   1.406   8.164  11.656 -3.0354 -3.0777 -1.8060
  701MOL0     H96734   1.700   7.865  11.636  2.3410  2.2467  1.7305
  701MOL0     H96735   1.267   8.182  11.181 -2.0575 -2.1341 -1.1650
  701MOL0     H96736   1.313   8.342  11.027  3.4877 -0.2350  4.1236
  701MOL0     H96737   1.477   8.326  10.962  1.0348 -1.7440  3.1933
  701MOL0     H96738   1.329   8.268  10.862  1.4607 -0.7963 -0.8037
  702MOL0     O96739   5.260   4.476   8.093 -0.1644  0.1701 -0.1747
  702MOL0     C96740   5.366   4.455   8.029  0.8225  0.3116  0.8938
  702MOL0     O96741   5.406   4.525   7.922 -0.4293 -0.7555 -0.1995
  702MOL0     C96742   5.321   4.618   7.872  1.0498 -0.2786  0.8089
  702MOL0     C96743   5.305   4.752   7.915 -0.3721  0.3435  0.8751
  702MOL0     C96744   5.212   4.846   7.860  0.7063  0.1071  0.6257
  702MOL0     C96745   5.117   4.787   7.775  1.1828 -0.0538  0.0746
  702MOL0     O96746   5.028   4.868   7.715  0.2548 -0.4899  0.5058
  702MOL0     C96747   4.891   4.839   7.737  0.8277  1.1080  0.1913
  702MOL0     C96748   4.806   4.944   7.673 -0.1739 -0.0857  0.8751
  702MOL0     C96749   4.818   5.081   7.724  0.3121 -0.1528 -0.6273
  702MOL0     C96750   4.670   5.141   7.728 -0.6761  0.0379  0.1497
  702MOL0     C96751   4.666   5.297   7.761 -0.0495  0.0376 -0.1954
  702MOL0     C96752   4.693   5.385   7.633 -1.1793  0.6024 -0.8651
  702MOL0     C96753   4.699   5.532   7.671 -0.2940  1.8057 -0.0432
  702MOL0     C96754   4.835   5.572   7.727 -0.1734 -0.1958 -0.4194
  702MOL0     N96755   4.835   5.712   7.758 -0.5724  0.4801 -0.3997
  702MOL0     C96756   4.896   5.810   7.677  0.2230  0.3891  0.0422
  702MOL0     C96757   4.891   5.920   7.756  0.0587  0.3483 -0.1750
  702MOL0     C96758   4.956   6.052   7.721 -0.2596  0.9602  1.0267
  702MOL0     C96759   4.871   6.134   7.614  0.4514  1.0904 -0.6594
  702MOL0     C96760   4.751   6.203   7.683 -0.4921 -0.7275 -1.4751
  702MOL0     C96761   4.794   6.318   7.779 -0.4997 -0.8135  0.0903
  702MOL0     O96762   4.755   6.447   7.733  0.0941  0.0640 -0.5747
  702MOL0     C96763   4.784   6.554   7.814 -0.4530  0.1964 -0.5492
  702MOL0     C96764   4.755   6.684   7.783  0.0159  0.5226 -0.1880
  702MOL0     C96765   4.773   6.799   7.866 -0.9902  0.2922 -0.1241
  702MOL0     C96766   4.711   6.921   7.810 -1.5962 -0.0254 -0.3210
  702MOL0     C96767   4.824   6.783   7.999 -0.3565  0.4871  1.0972
  702MOL0     C96768   4.860   6.898   8.089  0.2875 -0.5039 -0.8654
  702MOL0     O96769   4.944   6.858   8.189  0.2055 -0.5399  0.4780
  702MOL0     C96770   5.009   6.949   8.271 -0.2117  0.7057 -0.2825
  702MOL0     C96771   4.936   7.016   8.362  0.9642 -0.1414 -0.2125
  702MOL0     C96772   4.991   7.113   8.447 -0.2646 -0.0207 -0.2475
  702MOL0     C96773   5.123   7.159   8.421  0.1504 -0.6035  0.3475
  702MOL0     O96774   5.185   7.248   8.506  0.0928  0.1512  0.0113
  702MOL0     C96775   5.093   7.317   8.602 -0.6526 -0.1516 -0.0890
  702MOL0     C96776   5.191   7.418   8.676  0.5367  0.6180  0.6263
  702MOL0     C96777   5.180   7.554   8.609 -0.2159  1.0266  0.4653
  702MOL0     C96778   5.129   7.663   8.706 -0.1757 -0.4661  1.3847
  702MOL0     C96779   5.140   7.806   8.649  0.7424  0.0098 -0.5318
  702MOL0     C96780   5.050   7.842   8.534 -0.3352 -0.1613 -0.8683
  702MOL0     C96781   5.022   7.988   8.528  1.0872 -0.3122  1.2068
  702MOL0     C96782   5.144   8.068   8.489  0.5428 -0.2492  0.2091
  702MOL0    Cl96783   5.216   8.131   8.644 -0.0538 -0.2569  0.5208
  702MOL0     C96784   5.191   7.102   8.314  0.5000 -0.8074 -0.1182
  702MOL0     C96785   5.141   6.991   8.249 -0.7769 -0.1902  0.3185
  702MOL0     O96786   4.804   7.005   8.085  0.4360 -0.2538 -0.3801
  702MOL0     C96787   4.848   6.648   8.028 -0.5537  0.4356 -0.2454
  702MOL0     C96788   4.825   6.538   7.947 -0.5220 -0.2659 -0.0031
  702MOL0     N96789   4.826   5.893   7.878 -0.7384  0.0203 -0.1033
  702MOL0     N96790   4.789   5.763   7.880 -0.2355 -0.2899 -0.8285
  702MOL0     C96791   5.126   4.655   7.726 -0.5015  0.0349 -1.1501
  702MOL0     C96792   5.229   4.579   7.770  0.6275  0.2109  0.1188
  702MOL0     C96793   5.464   4.350   8.072  0.4886  0.0158 -0.1878
  702MOL0     C96794   5.570   4.315   7.980  0.5178 -0.0083 -0.8136
  702MOL0     C96795   5.681   4.250   8.022 -0.0550 -0.4164  0.2099
  702MOL0     C96796   5.693   4.217   8.156 -0.6984 -0.1157  0.0037
  702MOL0     O96797   5.809   4.172   8.220 -0.0310  0.0761 -0.3486
  702MOL0     C96798   5.916   4.096   8.167  0.8787  0.7091 -0.6595
  702MOL0     C96799   5.876   3.944   8.164  0.6186  0.5138 -0.3690
  702MOL0     C96800   5.937   3.867   8.051 -0.0736  0.0424 -0.0878
  702MOL0     C96801   5.876   3.903   7.912  0.1968 -0.3683  0.4760
  702MOL0     C96802   5.962   3.852   7.804  0.5216  0.0464 -1.1424
  702MOL0     C96803   6.028   3.820   7.712 -0.1102  0.6575  0.2201
  702MOL0     C96804   5.593   4.251   8.251  0.0478  0.9376 -0.7115
  702MOL0     C96805   5.470   4.312   8.206  0.5774 -0.3458 -0.4810
  702MOL0     C96806   5.372   4.345   8.315  0.2865  0.0919  0.3832
  702MOL0     H96807   5.387   4.769   7.984  0.2068 -2.4694  1.0319
  702MOL0     H96808   5.191   4.949   7.889  0.9538  0.3597 -0.0588
  702MOL0     H96809   4.871   4.825   7.844 -1.7179  2.9447  0.0382
  702MOL0     H96810   4.872   4.741   7.693  2.7041  0.5956  0.4267
  702MOL0     H96811   4.833   4.934   7.568  0.0581  0.9087  0.8275
  702MOL0     H96812   4.699   4.922   7.675 -0.4245  0.7642 -0.9536
  702MOL0     H96813   4.854   5.090   7.827 -0.3508  0.7399 -0.4582
  702MOL0     H96814   4.882   5.128   7.648 -2.2810  1.9849 -1.6568
  702MOL0     H96815   4.605   5.108   7.646  0.6435  1.9726 -1.8037
  702MOL0     H96816   4.627   5.085   7.811 -0.6383  1.0313  0.8571
  702MOL0     H96817   4.735   5.328   7.841  2.8117  0.2346 -2.5647
  702MOL0     H96818   4.565   5.328   7.791 -0.6670 -1.8551 -0.2037
  702MOL0     H96819   4.782   5.356   7.576 -1.2324  1.8130 -1.6086
  702MOL0     H96820   4.605   5.372   7.570 -1.9302  0.1935  0.2482
  702MOL0     H96821   4.613   5.550   7.737  0.1498  2.9428  0.2453
  702MOL0     H96822   4.675   5.585   7.579  0.5678 -0.6411 -1.7666
  702MOL0     H96823   4.859   5.519   7.819 -1.1110  1.0354  0.5814
  702MOL0     H96824   4.910   5.552   7.650  1.5523 -0.5760  1.3106
  702MOL0     H96825   4.957   5.794   7.589 -0.8511 -2.3599 -0.3150
  702MOL0     H96826   5.052   6.022   7.676 -1.1974 -1.1008  0.2213
  702MOL0     H96827   4.984   6.110   7.809  1.2766  1.1697  0.4302
  702MOL0     H96828   4.934   6.203   7.557  2.5337 -0.0724  0.1547
  702MOL0     H96829   4.823   6.071   7.538 -3.6483  3.9895 -0.7949
  702MOL0     H96830   4.687   6.245   7.605  1.3399  2.8074 -1.3169
  702MOL0     H96831   4.696   6.126   7.738  0.3306 -2.0725 -2.4779
  702MOL0     H96832   4.765   6.283   7.879  1.3384 -0.3307  0.8312
  702MOL0     H96833   4.902   6.329   7.772 -0.7272  2.4806  0.4818
  702MOL0     H96834   4.697   6.700   7.693 -2.0006  0.3325  1.0248
  702MOL0     H96835   4.704   6.905   7.702 -2.3239 -0.7692 -0.1752
  702MOL0     H96836   4.770   7.007   7.843 -3.5354 -0.6734  6.2544
  702MOL0     H96837   4.615   6.930   7.861 -0.2913  0.2288  2.2323
  702MOL0     H96838   4.835   6.986   8.389  0.3849  1.8687  0.0838
  702MOL0     H96839   4.938   7.162   8.529  2.2954  0.0235  1.4985
  702MOL0     H96840   5.010   7.372   8.555 -0.5083  4.1439  3.9660
  702MOL0     H96841   5.056   7.260   8.687 -0.5996  4.3970  3.3265
  702MOL0     H96842   5.146   7.437   8.775 -1.8906 -1.2125 -0.0389
  702MOL0     H96843   5.295   7.386   8.682  0.5901  0.7484  0.3931
  702MOL0     H96844   5.115   7.543   8.522  0.0308 -0.4861  0.4494
  702MOL0     H96845   5.282   7.580   8.576  0.8655 -1.0949  1.9261
  702MOL0     H96846   5.171   7.657   8.807 -2.6477 -0.6718  2.4655
  702MOL0     H96847   5.021   7.647   8.713 -0.0175 -1.7330  1.0306
  702MOL0     H96848   5.114   7.863   8.738 -1.5144 -1.2158 -0.3555
  702MOL0     H96849   5.239   7.839   8.616  0.2028  1.3333 -0.8943
  702MOL0     H96850   4.955   7.792   8.555  0.4679 -0.1867  3.8724
  702MOL0     H96851   5.098   7.807   8.442  0.2287 -0.0207 -0.6331
  702MOL0     H96852   4.978   8.026   8.620  2.2315  0.1206  1.6015
  702MOL0     H96853   4.955   7.990   8.442  1.6140 -3.8681  0.5735
  702MOL0     H96854   5.117   8.156   8.429  0.6229 -0.5497 -0.2743
  702MOL0     H96855   5.214   8.006   8.433 -1.8007 -0.9646 -2.1324
  702MOL0     H96856   5.295   7.126   8.295 -0.1927  1.6664 -1.2639
  702MOL0     H96857   5.200   6.931   8.180  2.1657  0.2909  2.2523
  702MOL0     H96858   4.884   6.619   8.126  2.1094  1.3349 -0.8571
  702MOL0     H96859   4.845   6.446   8.001 -0.5432  1.1036  2.5014
  702MOL0     H96860   5.063   4.617   7.646 -2.7310 -1.9401  1.4001
  702MOL0     H96861   5.234   4.485   7.715  0.1079  0.1186  0.2228
  702MOL0     H96862   5.545   4.337   7.877 -1.2535  0.5335 -0.3105
  702MOL0     H96863   5.758   4.229   7.949  0.7498  4.4458 -0.6769
  702MOL0     H96864   5.942   4.123   8.065  1.8442 -4.4217 -2.0334
  702MOL0     H96865   6.000   4.091   8.238 -0.1491 -1.9126  0.4883
  702MOL0     H96866   5.767   3.936   8.157  0.4359 -1.1711  2.5464
  702MOL0     H96867   5.903   3.896   8.259  3.6598 -2.1213 -2.3967
  702MOL0     H96868   6.045   3.884   8.052  0.0484 -0.5170  2.2824
  702MOL0     H96869   5.925   3.761   8.077  2.3459 -0.9247 -2.4945
  702MOL0     H96870   5.865   4.011   7.904  1.1923  0.1021  3.8952
  702MOL0     H96871   5.770   3.878   7.905 -0.3512  1.5991  1.0951
  702MOL0     H96872   6.083   3.794   7.624  1.6228 -0.2420  1.5058
  702MOL0     H96873   5.607   4.241   8.359 -1.3708 -2.9612 -0.7262
  702MOL0     H96874   5.270   4.334   8.278  0.7109  2.0239 -1.5786
  702MOL0     H96875   5.375   4.271   8.396  1.7115 -1.3388 -0.8827
  702MOL0     H96876   5.403   4.442   8.355  2.7589 -0.8529  0.9808
  703MOL0     O96877  11.283   9.958   7.571  0.1713 -0.1601  0.0368
  703MOL0     C96878  11.181   9.897   7.609 -0.5339 -0.9353  0.2311
  703MOL0     O96879  11.175   9.766   7.631 -0.2965 -0.3115  0.5325
  703MOL0     C96880  11.293   9.706   7.635  0.1767 -0.4028 -0.3793
  703MOL0     C96881  11.327   9.628   7.521 -0.6447 -0.2329  0.5994
  703MOL0     C96882  11.447   9.558   7.524 -0.8095 -0.4288 -0.0720
  703MOL0     C96883  11.535   9.555   7.633  0.8813 -0.2614 -0.6709
  703MOL0     O96884  11.654   9.492   7.642 -0.6359  0.1304 -0.5379
  703MOL0     C96885  11.713   9.437   7.523 -0.6630 -0.3926 -0.0350
  703MOL0     C96886  11.834   9.365   7.569 -0.6613 -1.1942 -0.1106
  703MOL0     C96887  11.799   9.217   7.590 -0.4236  0.3902  0.3270
  703MOL0     C96888  11.921   9.155   7.657 -0.2040 -0.0781  0.6733
  703MOL0     C96889  11.927   9.000   7.651 -0.0211  1.1419 -1.3246
  703MOL0     C96890  11.960   8.962   7.516 -0.3206  0.5670  1.1013
  703MOL0     C96891  11.881   8.842   7.457  1.3008  0.3787  0.9424
  703MOL0     C96892  11.968   8.792   7.339  1.3316  0.6821  0.7296
  703MOL0     N96893  11.905   8.723   7.227 -0.1394  0.4032 -0.2379
  703MOL0     C96894  11.765   8.683   7.226 -1.4696 -0.0594  0.3938
  703MOL0     C96895  11.766   8.601   7.118  0.3945 -0.8683  1.3079
  703MOL0     C96896  11.650   8.524   7.054 -0.0369 -0.2411 -0.1313
  703MOL0     C96897  11.529   8.621   7.041  0.0518 -0.0467 -0.3432
  703MOL0     C96898  11.409   8.545   6.986  0.5207 -0.5406  0.3710
  703MOL0     C96899  11.283   8.594   7.065 -0.1084  0.4588  0.4178
  703MOL0     O96900  11.251   8.734   7.013 -0.1801  0.4077  0.2659
  703MOL0     C96901  11.121   8.778   7.030  0.0226  0.1586  0.8148
  703MOL0     C96902  11.070   8.877   6.942  0.1183 -0.7070  0.2205
  703MOL0     C96903  10.928   8.917   6.934 -1.1339  0.6926  0.1806
  703MOL0     C96904  10.894   9.005   6.812 -0.1078 -0.7068 -0.2695
  703MOL0     C96905  10.840   8.860   7.032  0.2476  0.0096  0.6114
  703MOL0     C96906  10.690   8.879   7.024 -0.1243  0.0621 -0.1152
  703MOL0     O96907  10.644   8.935   6.913  0.1196 -0.4253 -0.4956
  703MOL0     C96908  10.520   8.980   6.898  0.2665  0.6098  0.1839
  703MOL0     C96909  10.426   8.891   6.857 -0.3787 -0.0491 -0.3879
  703MOL0     C96910  10.296   8.931   6.820  0.4657 -0.6434  0.0329
  703MOL0     C96911  10.251   9.065   6.829 -0.6692 -1.5250 -0.0182
  703MOL0     O96912  10.129   9.108   6.787  0.5124  0.3724  0.0494
  703MOL0     C96913  10.022   9.021   6.820  0.1504 -0.0678  0.6674
  703MOL0     C96914   9.907   9.094   6.886 -0.9428  0.3425 -0.3745
  703MOL0     C96915   9.955   9.202   6.987  0.3666 -0.9961 -0.3884
  703MOL0     C96916   9.965   9.150   7.134 -0.5366  0.1794 -0.9035
  703MOL0     C96917  10.008   9.264   7.230  0.9397 -0.0148  0.1146
  703MOL0     C96918  10.144   9.320   7.234 -0.8055 -0.5104 -0.1040
  703MOL0     C96919  10.174   9.445   7.321  0.4209  0.4852 -0.8635
  703MOL0     C96920  10.121   9.584   7.274 -0.2987  0.9112 -1.4575
  703MOL0    Cl96921  10.187   9.664   7.132  0.4640  0.4672  0.6261
  703MOL0     C96922  10.346   9.158   6.888  0.3109  0.5771 -0.2955
  703MOL0     C96923  10.478   9.117   6.923  0.4752  0.1462 -0.9256
  703MOL0     O96924  10.621   8.840   7.119  0.0073 -1.0625  0.1359
  703MOL0     C96925  10.891   8.776   7.132 -0.2949 -0.3269 -0.1720
  703MOL0     C96926  11.029   8.738   7.133 -0.2117 -0.2501 -0.5347
  703MOL0     N96927  11.893   8.577   7.070 -0.1848 -0.1434 -0.3946
  703MOL0     N96928  11.974   8.660   7.129  0.5268 -0.1124 -0.1956
  703MOL0     C96929  11.501   9.637   7.746 -0.0455 -0.3899  0.0347
  703MOL0     C96930  11.382   9.721   7.735 -0.3655 -1.0215 -0.0112
  703MOL0     C96931  11.059   9.978   7.644  0.1458  0.2793 -0.5806
  703MOL0     C96932  10.974   9.944   7.752 -0.6816  0.4025 -0.3192
  703MOL0     C96933  10.863  10.019   7.789 -0.6062  0.1801  0.4665
  703MOL0     C96934  10.818  10.118   7.703  0.3646 -0.1208  0.3688
  703MOL0     O96935  10.699  10.172   7.724 -0.1723 -0.7885 -0.3192
  703MOL0     C96936  10.593  10.076   7.693  0.5815 -0.4242  0.0009
  703MOL0     C96937  10.490  10.074   7.803 -0.1890 -0.7151 -1.0807
  703MOL0     C96938  10.369   9.982   7.789 -0.1142  1.0130 -0.7977
  703MOL0     C96939  10.290   9.975   7.660 -0.1907  0.1343  1.3125
  703MOL0     C96940  10.295   9.841   7.607  0.1461 -0.0161  0.2016
  703MOL0     C96941  10.308   9.728   7.566 -0.1170  0.0485  0.2536
  703MOL0     C96942  10.894  10.157   7.594  0.2105 -0.5648 -0.0416
  703MOL0     C96943  11.013  10.091   7.562  0.2364 -0.8200 -0.0859
  703MOL0     C96944  11.094  10.150   7.459 -0.8900 -0.5237  0.3547
  703MOL0     H96945  11.246   9.621   7.449 -1.5501  1.9873  1.3017
  703MOL0     H96946  11.472   9.496   7.439 -2.7696 -0.0978 -0.9489
  703MOL0     H96947  11.742   9.524   7.464 -3.1666  0.5530  0.0178
  703MOL0     H96948  11.656   9.373   7.456 -1.7604  1.1730 -0.6487
  703MOL0     H96949  11.920   9.374   7.502  0.4361 -1.6700  1.1942
  703MOL0     H96950  11.867   9.413   7.662 -0.7455 -0.6929 -0.3365
  703MOL0     H96951  11.711   9.213   7.654 -1.0848 -1.8313 -0.6104
  703MOL0     H96952  11.780   9.164   7.496  3.0052 -0.8215  0.1564
  703MOL0     H96953  12.007   9.197   7.605  0.1630  0.3894  1.6346
  703MOL0     H96954  11.933   9.194   7.759  3.6365  2.3417 -0.5007
  703MOL0     H96955  11.832   8.961   7.690  1.6132 -0.8440  0.9737
  703MOL0     H96956  12.007   8.965   7.717  1.0087  3.6131 -1.1369
  703MOL0     H96957  11.945   9.043   7.444 -0.4279 -0.9417 -0.6381
  703MOL0     H96958  12.066   8.938   7.517 -0.5323 -0.4741  0.1113
  703MOL0     H96959  11.781   8.866   7.419  2.0032 -0.0972 -1.3345
  703MOL0     H96960  11.865   8.763   7.531 -3.9698  1.0944  0.9614
  703MOL0     H96961  12.023   8.879   7.300 -1.7773  1.5240 -2.2828
  703MOL0     H96962  12.042   8.718   7.372  1.1057 -0.8184 -1.8898
  703MOL0     H96963  11.685   8.700   7.297 -2.2367  1.2950 -0.7449
  703MOL0     H96964  11.623   8.449   7.128 -0.7870  1.9611  1.9674
  703MOL0     H96965  11.678   8.491   6.953 -1.9858  1.7752 -1.4389
  703MOL0     H96966  11.508   8.682   7.129 -2.4177 -1.3112  0.0486
  703MOL0     H96967  11.540   8.700   6.967  0.9041 -0.3652 -0.5655
  703MOL0     H96968  11.401   8.551   6.877  2.3542  1.5999  0.2798
  703MOL0     H96969  11.425   8.446   7.030  1.6423  0.7742  3.2459
  703MOL0     H96970  11.196   8.529   7.049  1.7720 -1.6498 -2.1812
  703MOL0     H96971  11.299   8.603   7.173  0.3618  0.4597  0.3522
  703MOL0     H96972  11.144   8.925   6.878 -1.3694  0.2574 -0.8497
  703MOL0     H96973  10.846   8.952   6.730 -1.3495  0.6789 -0.4928
  703MOL0     H96974  10.987   9.054   6.782 -0.7900  0.7641 -0.0932
  703MOL0     H96975  10.838   9.092   6.848 -1.4807 -1.8137  0.3375
  703MOL0     H96976  10.451   8.786   6.841  3.0790  0.6750 -0.5347
  703MOL0     H96977  10.231   8.851   6.786 -4.5133  1.7961  2.8158
  703MOL0     H96978   9.994   8.955   6.737 -0.7784  1.9394 -0.6989
  703MOL0     H96979  10.054   8.947   6.893  0.6281 -1.3194 -0.7562
  703MOL0     H96980   9.848   9.140   6.807 -1.5421 -1.5518 -1.0773
  703MOL0     H96981   9.841   9.022   6.934 -2.5333 -0.6746 -3.7978
  703MOL0     H96982   9.892   9.291   6.987  4.4319  2.2532 -1.8201
  703MOL0     H96983  10.051   9.246   6.955  1.5240  0.9347  4.7149
  703MOL0     H96984  10.025   9.059   7.150  0.2631  0.5822 -1.5394
  703MOL0     H96985   9.866   9.117   7.165  0.4222 -0.3958  1.7899
  703MOL0     H96986   9.930   9.341   7.220  1.3079  0.5089  1.1268
  703MOL0     H96987   9.994   9.241   7.336  1.5074 -0.2144  0.1504
  703MOL0     H96988  10.174   9.339   7.130 -0.8329 -0.5391 -0.1175
  703MOL0     H96989  10.213   9.243   7.270 -0.9316  0.0623  1.4318
  703MOL0     H96990  10.279   9.445   7.354  0.4559 -2.9913 -0.6140
  703MOL0     H96991  10.110   9.422   7.407  3.4610 -4.3570  0.5089
  703MOL0     H96992  10.152   9.649   7.357 -0.7066  1.0755 -1.4332
  703MOL0     H96993  10.012   9.580   7.266 -0.3528  0.2977 -0.5399
  703MOL0     H96994  10.323   9.264   6.887  1.4244  0.8430  0.4769
  703MOL0     H96995  10.544   9.197   6.956 -0.7037 -0.1759  2.5802
  703MOL0     H96996  10.827   8.734   7.209 -1.5205  0.0508 -0.9573
  703MOL0     H96997  11.050   8.662   7.207 -1.9511 -1.0481 -0.8197
  703MOL0     H96998  11.567   9.634   7.833  1.2050  3.0549 -0.6218
  703MOL0     H96999  11.352   9.794   7.810 -1.8358 -1.0941 -0.4996
  703MOL0     H97000  10.995   9.873   7.831 -2.3492 -2.0366 -1.9311
  703MOL0     H97001  10.801  10.007   7.877 -0.2732  1.8937  0.9766
  703MOL0     H97002  10.546  10.109   7.599 -3.3931  1.2172  2.3153
  703MOL0     H97003  10.632   9.976   7.674 -0.8068 -0.7756 -1.2058
  703MOL0     H97004  10.450  10.175   7.812 -0.0550 -0.7966  0.8789
  703MOL0     H97005  10.542  10.065   7.898  1.2810  2.8824 -1.3858
  703MOL0     H97006  10.398   9.880   7.818 -5.8354 -1.1243 -1.3903
  703MOL0     H97007  10.297  10.016   7.864  1.2227  0.8153  0.6294
  703MOL0     H97008  10.333  10.043   7.586  2.3240 -0.0533  2.4990
  703MOL0     H97009  10.189  10.013   7.676 -0.1513  0.7740  0.1515
  703MOL0     H97010  10.315   9.624   7.544 -2.6319 -0.3218  0.8793
  703MOL0     H97011  10.860  10.236   7.527 -0.2378 -0.4787  0.2853
  703MOL0     H97012  11.181  10.204   7.498 -1.4504  0.2338  0.5767
  703MOL0     H97013  11.137  10.072   7.395  0.7630  1.3662 -0.9771
  703MOL0     H97014  11.046  10.222   7.392 -1.4875  0.1903  1.5301
  704MOL0     O97015   9.640  10.046   0.498 -0.0190  0.5525  0.2800
  704MOL0     C97016   9.679   9.994   0.603  0.8529  0.5878  0.3982
  704MOL0     O97017   9.812   9.967   0.638  0.1440  0.0133 -0.8785
  704MOL0     C97018   9.912   9.987   0.550 -1.2465 -0.0264 -0.0885
  704MOL0     C97019  10.039  10.004   0.618  0.4041 -0.9197 -0.5807
  704MOL0     C97020  10.153  10.011   0.535  0.2772  1.3520  0.3294
  704MOL0     C97021  10.137   9.985   0.389  0.0584  0.7355 -1.3173
  704MOL0     O97022  10.248   9.984   0.309 -0.5492 -0.0198 -0.0971
  704MOL0     C97023  10.382   9.991   0.364 -0.5269  0.1358 -1.7088
  704MOL0     C97024  10.474  10.019   0.246 -1.1242 -0.0102  0.4346
  704MOL0     C97025  10.512   9.896   0.163  0.1305 -0.0003  0.2424
  704MOL0     C97026  10.420   9.851   0.052 -1.0089 -0.7772 -0.3434
  704MOL0     C97027  10.491   9.750  -0.036 -0.1136  0.6513  1.2448
  704MOL0     C97028  10.518   9.617   0.044  0.7765 -0.0587 -0.3573
  704MOL0     C97029  10.553   9.503  -0.054 -0.3541  0.5312 -0.4060
  704MOL0     C97030  10.620   9.391   0.035  0.2708  0.4792  0.2633
  704MOL0     N97031  10.619   9.261  -0.026  0.2731  0.2140  0.1631
  704MOL0     C97032  10.508   9.189  -0.069 -0.3554  0.0452 -0.7639
  704MOL0     C97033  10.559   9.073  -0.103  0.2821 -0.2171  0.0570
  704MOL0     C97034  10.489   8.941  -0.139  0.3604 -0.5498  0.3537
  704MOL0     C97035  10.475   8.908  -0.296 -0.1111  0.0158 -0.9394
  704MOL0     C97036  10.380   8.992  -0.370  0.0181 -0.6280 -0.1017
  704MOL0     C97037  10.227   8.986  -0.331  0.4738 -0.0868  0.5728
  704MOL0     O97038  10.150   9.042  -0.438  0.4537 -0.5029  0.1025
  704MOL0     C97039  10.140   9.178  -0.432  0.0411 -0.5505  0.4824
  704MOL0     C97040  10.222   9.260  -0.515 -0.7798 -0.5510 -0.2827
  704MOL0     C97041  10.231   9.397  -0.497 -0.0641 -1.0095  0.2821
  704MOL0     C97042  10.321   9.474  -0.594 -0.2773  0.6048 -0.9157
  704MOL0     C97043  10.153   9.455  -0.390  0.2824  1.1543  0.5152
  704MOL0     C97044  10.155   9.592  -0.347  0.0807 -0.4080 -0.0661
  704MOL0     O97045  10.030   9.661  -0.333 -0.0948  0.8492  0.6054
  704MOL0     C97046  10.039   9.789  -0.315 -0.8424  0.1736  0.7687
  704MOL0     C97047  10.069   9.885  -0.420  0.1477 -0.0785  1.4348
  704MOL0     C97048  10.099  10.015  -0.396 -0.7125  1.5932 -0.5176
  704MOL0     C97049  10.120  10.057  -0.264  0.7444 -1.3426 -1.1760
  704MOL0     O97050  10.168  10.188  -0.236  0.1222  0.2742  0.0716
  704MOL0     C97051  10.314  10.194  -0.217 -0.2606 -0.3933 -0.7324
  704MOL0     C97052  10.375  10.317  -0.283  0.8990 -0.5868 -0.3095
  704MOL0     C97053  10.523  10.332  -0.256 -0.2987  0.5391 -0.7281
  704MOL0     C97054  10.620  10.312  -0.370 -0.0143  0.0304 -0.5967
  704MOL0     C97055  10.759  10.286  -0.320 -0.7720 -1.0803 -0.3208
  704MOL0     C97056  10.815  10.417  -0.263 -0.0210 -0.1545  0.6625
  704MOL0     C97057  10.956  10.399  -0.205  0.5061 -1.0343  0.9042
  704MOL0     C97058  10.965  10.474  -0.066 -0.1983 -0.2796  0.9246
  704MOL0    Cl97059  10.902  10.632  -0.082 -0.5361 -0.0805 -0.0305
  704MOL0     C97060  10.098   9.968  -0.163 -0.2818 -0.7047  0.4410
  704MOL0     C97061  10.060   9.839  -0.189 -0.0696  0.2969 -1.0307
  704MOL0     O97062  10.267   9.643  -0.326 -0.2164 -0.3324  0.0049
  704MOL0     C97063  10.072   9.370  -0.311  0.0090  0.2874  0.2132
  704MOL0     C97064  10.061   9.234  -0.336  1.3400 -0.2915 -0.7278
  704MOL0     N97065  10.689   9.076  -0.103 -0.8300 -0.0003 -0.6266
  704MOL0     N97066  10.728   9.187  -0.049 -0.3539 -0.8679  1.0358
  704MOL0     C97067  10.012   9.970   0.329  0.5337  0.1666  0.2566
  704MOL0     C97068   9.903   9.964   0.408  1.6128  0.1156 -0.9488
  704MOL0     C97069   9.578   9.948   0.703 -0.6576  0.2597  0.2002
  704MOL0     C97070   9.460   9.904   0.660  0.4194 -1.0645 -1.0477
  704MOL0     C97071   9.362   9.861   0.739 -0.1993  0.3543 -1.1164
  704MOL0     C97072   9.372   9.869   0.880 -0.0449 -0.3884 -0.5457
  704MOL0     O97073   9.277   9.838   0.975  0.0661 -0.2244 -0.3169
  704MOL0     C97074   9.143   9.779   0.930 -0.3696  0.1237 -0.0873
  704MOL0     C97075   9.061   9.901   0.886  0.9509  0.4443  0.3242
  704MOL0     C97076   8.897   9.877   0.872 -0.6896  0.0293 -1.1491
  704MOL0     C97077   8.868   9.744   0.801  0.4024  0.0521  0.5944
  704MOL0     C97078   8.733   9.763   0.738 -0.2999  1.0443 -0.2332
  704MOL0     C97079   8.623   9.801   0.693  0.0848  0.8751 -0.3558
  704MOL0     C97080   9.495   9.912   0.932 -0.7756 -0.8518 -0.4180
  704MOL0     C97081   9.593   9.955   0.847  0.4013 -0.9640  0.1383
  704MOL0     C97082   9.723  10.006   0.905  0.2889 -0.7669  0.1899
  704MOL0     H97083  10.052  10.016   0.725  1.2785 -2.0689 -0.5382
  704MOL0     H97084  10.250  10.012   0.583  1.4823 -2.6470 -1.5318
  704MOL0     H97085  10.405   9.891   0.400  0.0147 -1.2248 -5.4275
  704MOL0     H97086  10.386  10.081   0.427 -3.0120 -0.1280 -1.0631
  704MOL0     H97087  10.443  10.098   0.177  1.1563 -1.1479 -2.0900
  704MOL0     H97088  10.573  10.048   0.282  1.3588 -2.2998 -3.6911
  704MOL0     H97089  10.605   9.932   0.117  1.3153 -2.2685  0.7429
  704MOL0     H97090  10.540   9.810   0.224 -1.2088 -0.5190  0.1611
  704MOL0     H97091  10.327   9.802   0.081  0.3451 -2.9974  0.5079
  704MOL0     H97092  10.397   9.939  -0.010 -1.4313 -0.5008  0.1984
  704MOL0     H97093  10.585   9.779  -0.083  0.6094 -1.1760  1.4827
  704MOL0     H97094  10.423   9.744  -0.122  0.6303  1.1683  0.6032
  704MOL0     H97095  10.597   9.633   0.118  0.7139  0.1967 -0.3416
  704MOL0     H97096  10.427   9.593   0.099 -0.4371 -0.6107 -2.4812
  704MOL0     H97097  10.621   9.530  -0.135  0.9317 -1.7280 -0.1636
  704MOL0     H97098  10.461   9.466  -0.099 -1.1969 -0.9610  2.3151
  704MOL0     H97099  10.724   9.423   0.033  0.5232 -0.2119  1.4892
  704MOL0     H97100  10.582   9.387   0.137 -0.4670 -3.6078  0.0238
  704MOL0     H97101  10.401   9.208  -0.063 -1.1261 -3.7398  0.1379
  704MOL0     H97102  10.386   8.940  -0.103 -2.4717  0.0774 -6.3467
  704MOL0     H97103  10.552   8.861  -0.098  0.5323 -0.1933  0.7971
  704MOL0     H97104  10.573   8.918  -0.343 -0.7158  1.3062 -1.9837
  704MOL0     H97105  10.444   8.803  -0.302 -2.0378  0.5853 -1.8351
  704MOL0     H97106  10.429   9.090  -0.380  1.1502 -0.9032  2.0246
  704MOL0     H97107  10.397   8.959  -0.472  3.6483 -0.2644  0.2392
  704MOL0     H97108  10.198   8.880  -0.323  3.3685 -0.9829  0.3149
  704MOL0     H97109  10.202   9.036  -0.237 -2.7192  2.6884 -1.5209
  704MOL0     H97110  10.277   9.217  -0.598 -0.7057 -0.3038 -0.3620
  704MOL0     H97111  10.420   9.475  -0.546 -0.2696 -0.1295 -0.9014
  704MOL0     H97112  10.301   9.581  -0.597  0.5528  1.1446  3.7848
  704MOL0     H97113  10.327   9.439  -0.697 -0.5868 -0.1342 -0.6941
  704MOL0     H97114  10.056   9.842  -0.519 -3.7993 -0.1256  1.7938
  704MOL0     H97115  10.131  10.085  -0.472  0.7512  1.4950 -0.0200
  704MOL0     H97116  10.334  10.189  -0.110 -1.3838  1.1371 -0.4114
  704MOL0     H97117  10.363  10.106  -0.259  1.4642 -1.4260  3.0004
  704MOL0     H97118  10.368  10.297  -0.390  2.0921 -2.1560 -0.1408
  704MOL0     H97119  10.320  10.406  -0.250  0.6205  0.0044 -2.2400
  704MOL0     H97120  10.546  10.259  -0.178 -2.6349  0.9340  0.4388
  704MOL0     H97121  10.544  10.434  -0.223  0.8681  0.7856 -2.1295
  704MOL0     H97122  10.622  10.393  -0.443  5.7195  0.1210 -0.8329
  704MOL0     H97123  10.584  10.218  -0.414  1.3637 -1.2333  0.8273
  704MOL0     H97124  10.757  10.208  -0.244 -0.3501 -2.5515 -1.7559
  704MOL0     H97125  10.823  10.253  -0.402  1.1749  0.9459  0.2971
  704MOL0     H97126  10.750  10.447  -0.180  0.7515  2.1035  0.5132
  704MOL0     H97127  10.800  10.494  -0.339 -2.1255  1.1557  2.2925
  704MOL0     H97128  11.035  10.438  -0.269  1.6195 -3.4861  0.7145
  704MOL0     H97129  10.975  10.293  -0.191  1.7322 -1.3720 -2.4825
  704MOL0     H97130  11.066  10.494  -0.029  0.4635 -1.6545 -0.0578
  704MOL0     H97131  10.914  10.413   0.009 -0.1058  0.2984  1.4626
  704MOL0     H97132  10.117   9.987  -0.058 -1.3708  0.0848  0.5121
  704MOL0     H97133  10.031   9.781  -0.102 -3.4880  2.5334 -0.4795
  704MOL0     H97134  10.010   9.400  -0.227 -0.2398 -0.2032  0.2056
  704MOL0     H97135  10.002   9.171  -0.269  2.8178 -1.4219 -0.4214
  704MOL0     H97136  10.003   9.975   0.221 -2.7677  4.8776  0.4503
  704MOL0     H97137   9.803   9.941   0.374  1.6377  0.8431 -1.5308
  704MOL0     H97138   9.447   9.882   0.555 -1.7223  0.0222 -1.0838
  704MOL0     H97139   9.270   9.820   0.699  0.1506 -1.1214 -0.4452
  704MOL0     H97140   9.154   9.703   0.852  0.3435 -1.2958  1.3359
  704MOL0     H97141   9.091   9.736   1.016  1.6954  0.2661  1.3244
  704MOL0     H97142   9.101   9.932   0.789  2.5618  1.5512  1.2963
  704MOL0     H97143   9.076   9.992   0.945  2.0876 -0.2585  1.1547
  704MOL0     H97144   8.850   9.878   0.970  0.4962 -0.3160 -0.5609
  704MOL0     H97145   8.861   9.971   0.828 -0.3502 -0.6398 -2.9551
  704MOL0     H97146   8.862   9.675   0.886 -0.6362 -0.1184  0.3960
  704MOL0     H97147   8.944   9.712   0.729  1.7333 -2.4861  2.9400
  704MOL0     H97148   8.528   9.829   0.650 -0.0763  1.3049  0.2787
  704MOL0     H97149   9.515   9.913   1.039  4.4998  2.0817 -1.0488
  704MOL0     H97150   9.732  10.110   0.871  2.2310 -1.4648 -1.6564
  704MOL0     H97151   9.717  10.001   1.014 -2.1145  1.9363  0.2738
  704MOL0     H97152   9.805   9.941   0.875  0.4791 -0.5488  0.2294
  705MOL0     O97153   1.696   3.513   7.967 -0.8940 -0.5164  0.0001
  705MOL0     C97154   1.631   3.488   8.069 -0.0195  0.2346 -0.3838
  705MOL0     O97155   1.493   3.490   8.081 -0.4400 -0.6159 -0.6442
  705MOL0     C97156   1.434   3.461   7.962 -0.0573 -0.2569  0.0883
  705MOL0     C97157   1.470   3.349   7.887  1.0123 -0.8080 -0.2128
  705MOL0     C97158   1.423   3.335   7.751 -0.4075  0.6606 -0.5098
  705MOL0     C97159   1.328   3.431   7.704 -0.3386 -0.4869 -0.9432
  705MOL0     O97160   1.281   3.409   7.582  0.7922 -1.4381  1.0448
  705MOL0     C97161   1.290   3.525   7.500  0.5822 -0.0719 -0.2917
  705MOL0     C97162   1.233   3.471   7.367 -0.1540  0.6840  0.8494
  705MOL0     C97163   1.191   3.591   7.277 -0.2905  0.3576  0.2544
  705MOL0     C97164   1.291   3.611   7.162 -0.5056  0.0950 -0.0305
  705MOL0     C97165   1.285   3.751   7.115 -0.4802  0.6111 -0.0302
  705MOL0     C97166   1.380   3.772   7.004 -0.0176  0.8707 -0.1746
  705MOL0     C97167   1.334   3.719   6.858  0.4697 -0.6950  0.2205
  705MOL0     C97168   1.407   3.811   6.752  0.3629  0.4149  0.3381
  705MOL0     N97169   1.425   3.732   6.629 -0.0865  0.3095 -0.7400
  705MOL0     C97170   1.362   3.615   6.589 -0.2922 -0.3866 -0.3884
  705MOL0     C97171   1.398   3.586   6.463 -0.4690 -0.1584  0.1594
  705MOL0     C97172   1.353   3.471   6.382  0.3230  0.3991  0.0297
  705MOL0     C97173   1.201   3.455   6.369  0.9907 -1.4494 -1.4532
  705MOL0     C97174   1.163   3.321   6.305 -0.0455  0.6527  0.4796
  705MOL0     C97175   1.206   3.198   6.381 -0.6418  0.3123  0.0228
  705MOL0     O97176   1.173   3.218   6.520 -0.6712 -0.1340  0.1400
  705MOL0     C97177   1.222   3.133   6.611 -0.1290  0.0392 -0.0837
  705MOL0     C97178   1.181   3.167   6.738 -0.6795  0.4574  0.2265
  705MOL0     C97179   1.210   3.081   6.850  1.2744  0.0016  0.0730
  705MOL0     C97180   1.140   3.115   6.981 -0.1966 -0.0416  0.1535
  705MOL0     C97181   1.293   2.974   6.829 -0.2290 -0.3841  0.5974
  705MOL0     C97182   1.323   2.885   6.952 -1.0156 -0.0385  1.0770
  705MOL0     O97183   1.223   2.844   7.034  0.3007 -0.1684 -0.3985
  705MOL0     C97184   1.241   2.767   7.146 -0.4507 -1.2566 -0.0361
  705MOL0     C97185   1.204   2.629   7.152 -0.1223  1.3145 -1.4058
  705MOL0     C97186   1.238   2.550   7.269 -0.3095  0.3411  1.0404
  705MOL0     C97187   1.307   2.614   7.377 -0.4505  0.9314  0.1085
  705MOL0     O97188   1.359   2.547   7.483  0.5441 -0.2580 -0.0586
  705MOL0     C97189   1.405   2.414   7.446  0.7503 -1.0629  0.0523
  705MOL0     C97190   1.503   2.353   7.549 -0.3322 -0.0671 -0.2084
  705MOL0     C97191   1.632   2.424   7.584 -0.3623  0.0333  0.3877
  705MOL0     C97192   1.692   2.337   7.692  1.0570  1.0433 -0.3132
  705MOL0     C97193   1.825   2.393   7.738  0.7055 -0.5261  0.6042
  705MOL0     C97194   1.867   2.327   7.875 -0.0590  0.3749 -0.0471
  705MOL0     C97195   2.000   2.401   7.915  1.2076 -0.1170  0.4888
  705MOL0     C97196   2.096   2.332   8.007 -1.1623  1.3314 -0.2026
  705MOL0    Cl97197   2.216   2.441   8.085 -0.4057  0.3952 -0.5617
  705MOL0     C97198   1.341   2.750   7.362  0.4212 -0.6521 -0.7096
  705MOL0     C97199   1.304   2.821   7.260 -0.5657  0.2296  0.3124
  705MOL0     O97200   1.442   2.844   6.947  0.9056  0.2783  0.1084
  705MOL0     C97201   1.351   2.947   6.698 -0.8890 -1.0371 -0.5348
  705MOL0     C97202   1.308   3.022   6.593 -0.2552 -0.0776  0.4340
  705MOL0     N97203   1.488   3.682   6.430  0.1925  0.2501 -0.1566
  705MOL0     N97204   1.500   3.768   6.523 -0.3528  0.7169 -0.1694
  705MOL0     C97205   1.272   3.522   7.788  1.0810  0.0872  0.3257
  705MOL0     C97206   1.332   3.542   7.911  0.0139 -0.7877 -1.3533
  705MOL0     C97207   1.723   3.498   8.190 -0.0458 -0.2553  0.3450
  705MOL0     C97208   1.816   3.389   8.229  0.6094  0.7927  0.4329
  705MOL0     C97209   1.880   3.391   8.350 -0.1459 -0.7067 -0.5561
  705MOL0     C97210   1.859   3.495   8.434 -0.2518 -0.0109 -0.3492
  705MOL0     O97211   1.914   3.499   8.563 -0.5422 -0.8141  0.0289
  705MOL0     C97212   1.866   3.585   8.671  0.5097  0.0983  0.7547
  705MOL0     C97213   1.909   3.526   8.804  0.8080  0.5259  0.2657
  705MOL0     C97214   1.804   3.577   8.916 -1.0367  0.0906 -0.8508
  705MOL0     C97215   1.816   3.497   9.042 -0.8711  0.4561  0.5540
  705MOL0     C97216   1.950   3.514   9.109  0.1497 -0.5183 -0.4235
  705MOL0     C97217   2.062   3.522   9.148  0.5378  0.7329  1.0347
  705MOL0     C97218   1.776   3.606   8.403  0.3383 -0.5579 -0.3100
  705MOL0     C97219   1.705   3.604   8.280 -0.8378 -0.6163 -0.2955
  705MOL0     C97220   1.609   3.708   8.266  0.1006  0.3117  0.5260
  705MOL0     H97221   1.563   3.299   7.911  0.3878 -0.8772  2.2935
  705MOL0     H97222   1.476   3.271   7.681  0.1325  0.7673 -0.2040
  705MOL0     H97223   1.385   3.580   7.497  0.0028  0.9571 -0.1879
  705MOL0     H97224   1.216   3.600   7.531  0.4789 -0.6082  0.8215
  705MOL0     H97225   1.309   3.402   7.329 -0.4184  0.3863  0.8566
  705MOL0     H97226   1.141   3.415   7.387  0.6443 -0.7841  0.5515
  705MOL0     H97227   1.094   3.564   7.235  0.4414  1.8241 -2.6775
  705MOL0     H97228   1.184   3.689   7.325 -2.2819  0.7778 -0.7666
  705MOL0     H97229   1.394   3.599   7.196 -0.8928  1.3538  1.6774
  705MOL0     H97230   1.285   3.532   7.086 -1.4516 -0.1381  0.2830
  705MOL0     H97231   1.305   3.814   7.202  1.6886 -2.3170  1.8006
  705MOL0     H97232   1.189   3.783   7.074 -0.2107  1.4514 -0.0173
  705MOL0     H97233   1.384   3.881   6.994 -1.7472  0.7318 -4.6547
  705MOL0     H97234   1.475   3.722   7.023 -0.4266 -0.7490 -2.0159
  705MOL0     H97235   1.226   3.735   6.848  0.9973  2.6035 -1.3610
  705MOL0     H97236   1.360   3.613   6.853  3.1518 -0.1496  1.0294
  705MOL0     H97237   1.339   3.893   6.726 -0.9321 -0.7009  0.0739
  705MOL0     H97238   1.510   3.837   6.777  0.3161  0.3610  0.5863
  705MOL0     H97239   1.284   3.557   6.636 -1.2833 -0.1064 -1.6100
  705MOL0     H97240   1.399   3.387   6.436  1.0573  0.4522 -0.4927
  705MOL0     H97241   1.398   3.472   6.282  2.5915  2.0643  0.9931
  705MOL0     H97242   1.161   3.456   6.471  2.6886  0.8462 -0.7255
  705MOL0     H97243   1.160   3.532   6.303 -3.2028 -2.7278 -0.6836
  705MOL0     H97244   1.054   3.314   6.300  0.0677 -3.7026  0.6671
  705MOL0     H97245   1.202   3.318   6.202 -1.5874 -0.5491 -0.0977
  705MOL0     H97246   1.153   3.112   6.339  1.3937 -1.2565  0.5194
  705MOL0     H97247   1.309   3.176   6.351 -1.6864 -3.7048 -1.2894
  705MOL0     H97248   1.112   3.251   6.742 -1.4032 -0.1412  0.5187
  705MOL0     H97249   1.088   3.210   6.968  1.8979  0.9335 -1.7632
  705MOL0     H97250   1.211   3.122   7.064 -0.1609  1.4031  0.0148
  705MOL0     H97251   1.060   3.042   6.996 -2.6205  2.6512  1.2575
  705MOL0     H97252   1.152   2.594   7.063  0.8500  0.0145 -1.4902
  705MOL0     H97253   1.214   2.444   7.273 -1.2787  0.4721 -0.5003
  705MOL0     H97254   1.313   2.356   7.459 -1.5059  2.1570 -0.5436
  705MOL0     H97255   1.443   2.413   7.344 -0.8121 -0.4977 -0.5515
  705MOL0     H97256   1.444   2.353   7.641  1.6688  0.9819  1.1624
  705MOL0     H97257   1.523   2.250   7.519 -1.6996 -0.3874 -0.0690
  705MOL0     H97258   1.617   2.523   7.626  1.0963 -0.6515  2.6845
  705MOL0     H97259   1.694   2.422   7.493  2.6480  2.2185  2.2184
  705MOL0     H97260   1.714   2.234   7.664 -0.0847  0.7601 -0.2487
  705MOL0     H97261   1.624   2.331   7.778  1.1397 -2.0468 -0.3265
  705MOL0     H97262   1.898   2.369   7.661  0.7358 -1.5301  0.9259
  705MOL0     H97263   1.815   2.502   7.744  3.0094 -0.1643 -1.0204
  705MOL0     H97264   1.891   2.222   7.858 -0.6279  0.1438  0.5159
  705MOL0     H97265   1.794   2.343   7.955 -1.5036  2.5482 -1.6807
  705MOL0     H97266   1.976   2.500   7.956 -1.2309 -0.5751  0.3147
  705MOL0     H97267   2.056   2.428   7.825  0.6559  2.1076  0.7317
  705MOL0     H97268   2.148   2.248   7.959 -2.0938  1.0567 -0.7531
  705MOL0     H97269   2.046   2.292   8.096 -1.4526  1.4569 -0.3103
  705MOL0     H97270   1.401   2.802   7.436 -0.6662  0.4543 -0.5717
  705MOL0     H97271   1.326   2.927   7.262 -0.6019  0.2326  0.8128
  705MOL0     H97272   1.412   2.860   6.679  2.5676  0.6270  1.8187
  705MOL0     H97273   1.338   3.010   6.489 -4.1669 -0.8547 -0.7695
  705MOL0     H97274   1.190   3.587   7.761 -0.2336  0.6811  4.8334
  705MOL0     H97275   1.297   3.623   7.974  1.5953 -3.3632  3.3618
  705MOL0     H97276   1.853   3.317   8.157  0.5154  1.2888 -0.1229
  705MOL0     H97277   1.960   3.327   8.385 -0.0533 -0.3320 -0.0558
  705MOL0     H97278   1.903   3.687   8.662 -0.3057  0.2157 -2.1087
  705MOL0     H97279   1.758   3.586   8.655  0.5853  1.2128  0.2589
  705MOL0     H97280   2.007   3.571   8.822  2.1613 -1.8370 -0.7556
  705MOL0     H97281   1.901   3.417   8.798 -1.0134  0.4762  2.2021
  705MOL0     H97282   1.820   3.682   8.941 -0.8145  0.0728 -0.9199
  705MOL0     H97283   1.698   3.569   8.889 -1.3799 -0.5189  0.5871
  705MOL0     H97284   1.807   3.389   9.028  2.0492  0.1169  0.5379
  705MOL0     H97285   1.744   3.531   9.117  0.1803  1.1565  1.2809
  705MOL0     H97286   2.165   3.536   9.175 -0.1069  2.8441  2.7246
  705MOL0     H97287   1.756   3.688   8.471 -3.7237 -1.0600 -0.6065
  705MOL0     H97288   1.612   3.742   8.162 -1.0918 -0.2272  0.2987
  705MOL0     H97289   1.514   3.657   8.282 -0.4757  0.0441 -2.9128
  705MOL0     H97290   1.610   3.795   8.332  3.7355  1.7718 -1.1744
  706MOL0     O97291   2.730  10.142   4.190  0.0253  0.3296  0.1252
  706MOL0     C97292   2.845  10.194   4.207  0.7794 -0.1846 -0.2631
  706MOL0     O97293   2.944  10.182   4.114  0.3216  0.2507  0.0334
  706MOL0     C97294   2.952  10.082   4.023  0.6979  0.9696 -0.4099
  706MOL0     C97295   3.030  10.098   3.908 -0.2479  0.8540  0.3746
  706MOL0     C97296   3.053   9.994   3.821 -0.1912  0.7754  0.5359
  706MOL0     C97297   3.006   9.862   3.850  0.0768 -0.1687  1.0145
  706MOL0     O97298   3.042   9.757   3.774  0.0072  0.2077 -1.1988
  706MOL0     C97299   2.953   9.648   3.770 -0.5870  0.5708  1.0937
  706MOL0     C97300   3.030   9.518   3.804  1.0245  0.9864 -0.0456
  706MOL0     C97301   3.137   9.486   3.695  0.2866  0.7981 -0.6701
  706MOL0     C97302   3.204   9.353   3.749 -0.2633 -0.1272 -0.3904
  706MOL0     C97303   3.295   9.288   3.635 -0.2575 -0.7529  0.2188
  706MOL0     C97304   3.296   9.144   3.662 -0.4779 -1.1183  0.0879
  706MOL0     C97305   3.343   9.073   3.540 -0.4579  0.0581  1.2903
  706MOL0     C97306   3.368   8.933   3.572  0.0224  0.3164 -0.5577
  706MOL0     N97307   3.366   8.845   3.460 -0.1550  0.0278  0.0936
  706MOL0     C97308   3.260   8.820   3.369  1.0003  0.0895 -0.4764
  706MOL0     C97309   3.307   8.738   3.274 -0.2964  0.8968 -0.7108
  706MOL0     C97310   3.235   8.668   3.161 -0.0700  0.0015  0.6454
  706MOL0     C97311   3.178   8.524   3.174  0.0568 -0.2373 -0.1599
  706MOL0     C97312   3.303   8.423   3.175  0.0490 -0.2419  0.4924
  706MOL0     C97313   3.270   8.280   3.216  0.2634 -0.4731  0.0236
  706MOL0     O97314   3.158   8.263   3.300  0.3237  0.6117 -0.2700
  706MOL0     C97315   3.114   8.131   3.328 -1.3646  0.1506 -0.9406
  706MOL0     C97316   2.985   8.117   3.367 -0.3896  0.3928 -0.1878
  706MOL0     C97317   2.940   7.986   3.404  0.3653 -0.7338  0.0665
  706MOL0     C97318   2.799   7.989   3.440  0.5705 -0.5356 -0.1344
  706MOL0     C97319   3.025   7.869   3.398  0.0720 -0.4685 -0.0051
  706MOL0     C97320   2.970   7.727   3.418 -0.4936 -0.3397 -0.5546
  706MOL0     O97321   3.069   7.640   3.430  0.1064  0.0689  0.3910
  706MOL0     C97322   3.043   7.512   3.469 -0.2152 -0.9038  0.3012
  706MOL0     C97323   3.097   7.476   3.595 -0.3048  0.7719 -0.1040
  706MOL0     C97324   3.080   7.345   3.648 -0.1059 -0.7594  0.0002
  706MOL0     C97325   3.000   7.252   3.581 -0.2289 -0.9877  0.5496
  706MOL0     O97326   2.999   7.129   3.638  0.1697  0.3946  0.2014
  706MOL0     C97327   2.963   7.021   3.552 -0.6244  0.4342 -0.2413
  706MOL0     C97328   2.987   6.902   3.646 -0.4454 -0.3363  0.5714
  706MOL0     C97329   3.148   6.858   3.658  1.0616 -0.1170  0.5268
  706MOL0     C97330   3.160   6.752   3.765 -0.5790 -0.0928  0.4395
  706MOL0     C97331   3.286   6.664   3.735  0.2624  1.0202 -0.0911
  706MOL0     C97332   3.311   6.558   3.849  0.4501  0.0639  0.3014
  706MOL0     C97333   3.431   6.476   3.813 -0.1473 -0.2117 -0.3235
  706MOL0     C97334   3.497   6.394   3.936 -0.2100  0.0067 -0.5130
  706MOL0    Cl97335   3.581   6.522   4.020 -0.1690 -0.2444  0.1992
  706MOL0     C97336   2.941   7.285   3.461  0.3524 -0.4311 -0.1412
  706MOL0     C97337   2.961   7.416   3.397 -0.8669 -0.4271 -0.1237
  706MOL0     O97338   2.851   7.700   3.415  1.0434 -0.4943 -0.1151
  706MOL0     C97339   3.156   7.893   3.352 -0.1552  0.0260  0.5323
  706MOL0     C97340   3.196   8.025   3.326 -0.6145  0.5491  0.2387
  706MOL0     N97341   3.441   8.706   3.319 -0.9097  0.7053  0.1143
  706MOL0     N97342   3.475   8.778   3.417 -0.1175  0.3771  0.1153
  706MOL0     C97343   2.926   9.848   3.967  0.6949 -0.1557  0.4168
  706MOL0     C97344   2.891   9.960   4.042 -0.3937  1.0861  0.3422
  706MOL0     C97345   2.885  10.243   4.340  1.1069  0.1321 -0.6319
  706MOL0     C97346   2.983  10.339   4.342 -0.6638 -0.7704 -0.7313
  706MOL0     C97347   3.011  10.408   4.462 -0.3934 -0.5997 -0.3778
  706MOL0     C97348   2.941  10.386   4.580  0.0168 -0.4403 -1.1690
  706MOL0     O97349   2.967  10.462   4.699 -0.1687 -0.0960  0.0861
  706MOL0     C97350   2.855  10.491   4.786  0.7187 -0.1481  0.1755
  706MOL0     C97351   2.851  10.638   4.799 -0.8910  0.2649 -1.1690
  706MOL0     C97352   2.721  10.696   4.867 -0.6363  0.0850  0.6831
  706MOL0     C97353   2.754  10.847   4.884 -1.0055 -0.3638 -0.8675
  706MOL0     C97354   2.776  10.917   4.757  0.4231  0.1308  0.0332
  706MOL0     C97355   2.787  10.963   4.647 -0.0960 -0.0136 -0.2356
  706MOL0     C97356   2.838  10.288   4.576  0.5130 -0.4069 -0.0036
  706MOL0     C97357   2.818  10.211   4.461 -0.0588 -0.6628  0.3958
  706MOL0     C97358   2.708  10.107   4.471 -0.0499  0.0214 -1.1244
  706MOL0     H97359   3.078  10.193   3.889  2.0376 -0.0264  1.2738
  706MOL0     H97360   3.127  10.012   3.743 -0.7864 -0.4482 -0.3416
  706MOL0     H97361   2.935   9.631   3.664  2.4458 -0.4429  0.6499
  706MOL0     H97362   2.858   9.661   3.823 -0.6716  1.6232  0.7010
  706MOL0     H97363   3.072   9.537   3.904 -1.3055  2.3115  0.7637
  706MOL0     H97364   2.954   9.442   3.822 -1.7956  3.4589 -0.7843
  706MOL0     H97365   3.086   9.453   3.604 -0.8348 -2.4892  0.9927
  706MOL0     H97366   3.220   9.556   3.679  0.3537  1.2975  1.5138
  706MOL0     H97367   3.260   9.368   3.841 -3.7376  1.9894  1.6021
  706MOL0     H97368   3.128   9.284   3.786  1.8282 -1.8365  0.9598
  706MOL0     H97369   3.394   9.333   3.638 -1.2088  1.4420  0.2213
  706MOL0     H97370   3.257   9.308   3.534 -1.5749 -1.0268  0.6422
  706MOL0     H97371   3.356   9.122   3.751 -1.0202 -0.4456  0.6277
  706MOL0     H97372   3.197   9.098   3.672 -1.8677  1.4769 -0.8391
  706MOL0     H97373   3.439   9.104   3.496 -1.2842 -2.9066 -3.2592
  706MOL0     H97374   3.276   9.086   3.454  1.2070 -2.9936 -0.6708
  706MOL0     H97375   3.451   8.913   3.640 -1.3581 -2.3100  0.5032
  706MOL0     H97376   3.289   8.893   3.636 -0.3137 -1.4957 -2.0342
  706MOL0     H97377   3.163   8.868   3.370  0.9146  0.0609  2.6104
  706MOL0     H97378   3.305   8.656   3.078  0.9511  0.8044  1.3775
  706MOL0     H97379   3.137   8.712   3.140 -0.9572 -1.4178  1.6108
  706MOL0     H97380   3.112   8.529   3.261  1.2074  4.9616  0.7267
  706MOL0     H97381   3.117   8.497   3.088 -3.4067  0.8875  1.7650
  706MOL0     H97382   3.345   8.416   3.074  1.0208  1.0639  0.7768
  706MOL0     H97383   3.371   8.455   3.255  0.0298 -1.2268  0.9193
  706MOL0     H97384   3.262   8.232   3.119 -3.4285 -0.0887  0.0188
  706MOL0     H97385   3.356   8.238   3.269  1.4398  3.5939  1.7937
  706MOL0     H97386   2.934   8.213   3.366  1.6945  1.5755  0.4057
  706MOL0     H97387   2.733   7.954   3.360 -0.7886  1.7028 -0.1016
  706MOL0     H97388   2.763   8.088   3.470  0.5235 -0.3985 -0.6388
  706MOL0     H97389   2.805   7.926   3.529 -0.2728 -0.4634 -0.0191
  706MOL0     H97390   3.173   7.540   3.637  0.5497  0.5882 -1.3370
  706MOL0     H97391   3.137   7.301   3.729 -0.0092 -4.1080 -1.7406
  706MOL0     H97392   2.855   7.020   3.534 -0.3797 -2.3105 -2.0735
  706MOL0     H97393   3.019   7.006   3.459  1.8814 -5.0603  1.6987
  706MOL0     H97394   2.949   6.928   3.746  0.7544  0.5135  0.8201
  706MOL0     H97395   2.928   6.820   3.603 -2.4973  2.7399 -3.0275
  706MOL0     H97396   3.198   6.954   3.676 -2.9003  3.3031 -3.8766
  706MOL0     H97397   3.195   6.819   3.568  1.5194 -1.6189  1.3865
  706MOL0     H97398   3.076   6.682   3.763 -0.2651 -1.0371  5.5401
  706MOL0     H97399   3.165   6.792   3.867 -0.2994 -0.7754  0.6968
  706MOL0     H97400   3.279   6.617   3.637 -3.9140 -0.5497  0.7573
  706MOL0     H97401   3.376   6.727   3.735  0.2066  1.1162  0.8518
  706MOL0     H97402   3.226   6.488   3.853  0.5702 -0.0602  0.7976
  706MOL0     H97403   3.327   6.625   3.934 -0.8434  3.0206 -1.6171
  706MOL0     H97404   3.510   6.535   3.766  1.3306 -2.2995 -0.6158
  706MOL0     H97405   3.396   6.395   3.748 -0.1094 -0.5592  0.0759
  706MOL0     H97406   3.568   6.321   3.897  2.9358  2.8176 -0.5797
  706MOL0     H97407   3.424   6.345   4.001  2.2842 -0.9699  1.7163
  706MOL0     H97408   2.866   7.231   3.405 -1.8546  0.1795  2.0394
  706MOL0     H97409   2.926   7.432   3.295 -1.1024 -3.7860 -0.6688
  706MOL0     H97410   3.232   7.816   3.352  0.7579  0.8880 -0.6120
  706MOL0     H97411   3.301   8.041   3.308 -0.2395  0.5005  2.1278
  706MOL0     H97412   2.910   9.747   4.003  1.8518 -0.3179  0.5115
  706MOL0     H97413   2.836   9.953   4.134 -1.2420  3.3417  0.0835
  706MOL0     H97414   3.046  10.344   4.254 -0.6099 -0.9371 -0.7036
  706MOL0     H97415   3.097  10.473   4.474 -0.4329 -0.8833  2.0073
  706MOL0     H97416   2.757  10.465   4.747  0.8165 -4.1507  2.0717
  706MOL0     H97417   2.855  10.427   4.875 -2.0894 -1.6529 -0.8146
  706MOL0     H97418   2.875  10.685   4.703  0.7517  0.1302 -0.8555
  706MOL0     H97419   2.942  10.656   4.856 -0.1698 -3.9501 -0.6754
  706MOL0     H97420   2.636  10.696   4.798  1.4313  3.9020 -2.2618
  706MOL0     H97421   2.698  10.656   4.966 -2.2046 -0.9299 -0.0539
  706MOL0     H97422   2.847  10.858   4.940 -1.7341 -1.1865  0.5774
  706MOL0     H97423   2.677  10.903   4.939  0.8589 -0.6266  2.2326
  706MOL0     H97424   2.808  10.993   4.546 -0.6819 -1.3497 -0.7832
  706MOL0     H97425   2.782  10.258   4.664  0.2092  1.3825  0.4624
  706MOL0     H97426   2.733  10.024   4.405 -0.3991  2.0278 -3.9887
  706MOL0     H97427   2.717  10.069   4.573  0.8130  1.5545 -0.6067
  706MOL0     H97428   2.605  10.139   4.452  0.3156  2.2827  0.3481
  707MOL0     O97429  10.272   6.764   5.323  0.8598  0.0938  0.0113
  707MOL0     C97430  10.170   6.808   5.273  0.4860  0.8790 -0.4131
  707MOL0     O97431  10.129   6.938   5.262  0.2722 -0.3063 -0.1272
  707MOL0     C97432  10.225   7.032   5.249  0.7300  0.7872 -0.6786
  707MOL0     C97433  10.355   7.027   5.201  0.1244 -0.3401  0.1216
  707MOL0     C97434  10.442   7.133   5.199 -0.2960  0.4502  0.9099
  707MOL0     C97435  10.396   7.250   5.262 -0.6780  0.1220  0.1669
  707MOL0     O97436  10.468   7.364   5.288 -0.6788 -0.9819  0.1089
  707MOL0     C97437  10.591   7.357   5.215  0.8972  0.5383  0.3897
  707MOL0     C97438  10.663   7.495   5.241 -0.7979  0.1096  1.1158
  707MOL0     C97439  10.765   7.518   5.131 -0.3396 -0.4812 -0.3994
  707MOL0     C97440  10.879   7.416   5.139  0.4005 -0.8654  0.4478
  707MOL0     C97441  10.998   7.474   5.061  0.6654  0.2399 -0.2856
  707MOL0     C97442  11.086   7.365   5.002  1.3269  0.2799 -0.5423
  707MOL0     C97443  11.195   7.431   4.918  0.1581  0.1754 -0.0529
  707MOL0     C97444  11.280   7.330   4.840  0.4925 -1.0105  0.0871
  707MOL0     N97445  11.382   7.277   4.926 -0.1922 -0.0407  0.0741
  707MOL0     C97446  11.514   7.253   4.885  0.2496 -0.7645 -0.6179
  707MOL0     C97447  11.561   7.173   4.983 -0.0253 -0.1648  0.2262
  707MOL0     C97448  11.697   7.126   5.001 -0.5973 -0.0535  0.3399
  707MOL0     C97449  11.716   6.973   5.062 -0.6097 -0.3004  0.4588
  707MOL0     C97450  11.653   6.924   5.201 -0.4607  0.1125 -0.2048
  707MOL0     C97451  11.712   7.010   5.315  1.3839  0.0933 -0.1011
  707MOL0     O97452  11.653   6.985   5.445 -0.1574 -0.1490  0.8107
  707MOL0     C97453  11.702   7.033   5.563  0.0199 -0.7858 -0.4830
  707MOL0     C97454  11.630   6.992   5.680 -0.3090 -0.2861 -0.0938
  707MOL0     C97455  11.673   7.034   5.810 -0.2471 -0.0274  0.2038
  707MOL0     C97456  11.605   6.971   5.934 -0.0316  0.7396 -0.0051
  707MOL0     C97457  11.781   7.121   5.816 -0.4527 -0.5771 -0.3045
  707MOL0     C97458  11.839   7.160   5.946 -0.4221 -0.3999 -0.1966
  707MOL0     O97459  11.907   7.066   6.023 -0.2621  0.8840  0.3818
  707MOL0     C97460  11.974   7.092   6.143  0.3895 -0.3155 -0.4941
  707MOL0     C97461  12.115   7.097   6.152  0.2621 -0.8207 -0.8972
  707MOL0     C97462  12.186   7.118   6.276  1.4063  0.2837 -0.7803
  707MOL0     C97463  12.113   7.145   6.392  0.2589  0.6793  0.3001
  707MOL0     O97464  12.181   7.165   6.504 -0.4507 -0.0211  0.5723
  707MOL0     C97465  12.136   7.262   6.603  0.1203  0.3113 -0.3275
  707MOL0     C97466  12.190   7.401   6.562 -0.6750 -0.1287  0.3561
  707MOL0     C97467  12.347   7.405   6.535  0.6272  0.1597 -0.6684
  707MOL0     C97468  12.402   7.504   6.427 -0.3834  1.2913 -0.0643
  707MOL0     C97469  12.560   7.512   6.422  0.4413 -0.4621 -0.2314
  707MOL0     C97470  12.632   7.390   6.373  0.1151 -0.6911 -1.0453
  707MOL0     C97471  12.660   7.397   6.225 -0.0961  0.5390  0.2300
  707MOL0     C97472  12.641   7.262   6.148 -0.3556  0.3639 -0.1179
  707MOL0    Cl97473  12.764   7.145   6.189  0.1202 -0.0753  0.1188
  707MOL0     C97474  11.973   7.133   6.384 -0.9549 -0.7245  0.3395
  707MOL0     C97475  11.911   7.099   6.260 -0.3678 -0.2506 -0.6369
  707MOL0     O97476  11.825   7.276   5.973  0.0525 -0.3496 -0.7610
  707MOL0     C97477  11.844   7.165   5.706  0.9391  0.8654  0.5244
  707MOL0     C97478  11.805   7.119   5.584 -0.0200 -0.2156 -0.1060
  707MOL0     N97479  11.464   7.146   5.072 -0.1419  0.1416 -0.1117
  707MOL0     N97480  11.354   7.201   5.034  0.0721  0.6852  0.3327
  707MOL0     C97481  10.267   7.267   5.308 -0.1364 -0.4678 -0.0642
  707MOL0     C97482  10.180   7.157   5.301  0.2244 -0.2711 -0.4029
  707MOL0     C97483  10.079   6.693   5.241  0.4105 -0.8588 -0.1283
  707MOL0     C97484   9.971   6.680   5.325 -1.0825  0.6003  0.0019
  707MOL0     C97485   9.889   6.572   5.308 -1.3989  0.5254  0.3893
  707MOL0     C97486   9.906   6.483   5.201 -1.3672  0.6208 -0.6282
  707MOL0     O97487   9.807   6.388   5.197 -0.7729  0.3009  0.2656
  707MOL0     C97488   9.814   6.298   5.074  0.5232  0.1141 -0.2386
  707MOL0     C97489   9.917   6.182   5.098  0.3673 -0.4197 -0.0252
  707MOL0     C97490   9.949   6.110   4.962  0.9100  0.2084  1.3486
  707MOL0     C97491  10.068   6.152   4.876  0.3363  0.3278 -0.2717
  707MOL0     C97492  10.199   6.088   4.899 -0.2246  0.2104 -0.9814
  707MOL0     C97493  10.306   6.056   4.939 -0.6793  0.9809  0.2570
  707MOL0     C97494  10.009   6.499   5.107  0.4320  0.4449  0.6938
  707MOL0     C97495  10.095   6.608   5.130 -1.0104  0.9603  0.0663
  707MOL0     C97496  10.217   6.610   5.040 -0.5429 -0.0110  0.3128
  707MOL0     H97497  10.406   6.940   5.160 -2.9924 -1.6578 -1.2361
  707MOL0     H97498  10.538   7.117   5.152  0.2125  0.1626  2.0142
  707MOL0     H97499  10.560   7.348   5.111 -2.7478 -1.9801  1.5096
  707MOL0     H97500  10.659   7.277   5.246 -2.2918 -1.1047  3.8148
  707MOL0     H97501  10.595   7.580   5.233 -0.0539  0.5485 -1.3469
  707MOL0     H97502  10.700   7.499   5.344  0.6980  0.6182  0.5806
  707MOL0     H97503  10.728   7.518   5.028  2.3039 -0.2137 -1.4353
  707MOL0     H97504  10.817   7.614   5.139 -0.7018 -0.0675 -2.3740
  707MOL0     H97505  10.908   7.404   5.244  2.5676  1.5101  0.1978
  707MOL0     H97506  10.825   7.327   5.105 -3.9821  1.8703 -0.4935
  707MOL0     H97507  11.064   7.530   5.127 -2.0571  5.4978 -1.4230
  707MOL0     H97508  10.957   7.547   4.990 -0.8756  0.7266  1.0238
  707MOL0     H97509  11.128   7.300   5.079 -0.7992 -1.5757 -0.8556
  707MOL0     H97510  11.026   7.304   4.934  0.6221  3.0657 -2.5960
  707MOL0     H97511  11.254   7.491   4.987 -1.5499  2.6585 -0.6074
  707MOL0     H97512  11.142   7.497   4.848  0.0191  0.7879  0.6212
  707MOL0     H97513  11.221   7.246   4.802  0.3162 -2.1929  2.7865
  707MOL0     H97514  11.330   7.380   4.756  2.4259 -2.2002  0.4846
  707MOL0     H97515  11.559   7.285   4.791 -1.0890  0.8803 -0.7595
  707MOL0     H97516  11.758   7.200   5.055 -2.7069  1.0936  1.2414
  707MOL0     H97517  11.737   7.129   4.899  2.3595  1.7217  1.4084
  707MOL0     H97518  11.671   6.903   4.992 -2.0393  0.2865  0.7514
  707MOL0     H97519  11.824   6.957   5.051 -0.3026  1.5520  0.3792
  707MOL0     H97520  11.546   6.946   5.204 -0.4937  0.2488  4.3036
  707MOL0     H97521  11.654   6.815   5.209 -2.1953  0.0245 -0.7261
  707MOL0     H97522  11.818   6.983   5.324  1.5098 -1.4669 -3.9461
  707MOL0     H97523  11.695   7.115   5.291 -0.3380  0.0965  0.9545
  707MOL0     H97524  11.539   6.934   5.678 -0.4487 -1.1638  7.2276
  707MOL0     H97525  11.661   6.881   5.960 -2.1342  0.0233  2.3307
  707MOL0     H97526  11.507   6.939   5.897 -0.2655 -1.9993  2.6276
  707MOL0     H97527  11.589   7.029   6.025 -0.4925  2.9459 -1.3985
  707MOL0     H97528  12.178   7.074   6.067  0.8249  3.1313 -1.7325
  707MOL0     H97529  12.295   7.122   6.274  1.4181  0.1787 -0.3978
  707MOL0     H97530  12.027   7.272   6.602 -0.2570 -2.6713 -3.2585
  707MOL0     H97531  12.189   7.238   6.696  3.7403 -1.6066 -2.6818
  707MOL0     H97532  12.140   7.436   6.471  2.3344  0.0019 -1.3889
  707MOL0     H97533  12.156   7.461   6.646 -2.7234 -0.5920 -0.0896
  707MOL0     H97534  12.375   7.300   6.520 -0.3079 -0.5545  2.0760
  707MOL0     H97535  12.398   7.429   6.629 -0.4865  3.0048 -0.7215
  707MOL0     H97536  12.355   7.602   6.439 -0.5890  1.3792 -1.4191
  707MOL0     H97537  12.382   7.470   6.325  2.1273  0.1436 -0.2518
  707MOL0     H97538  12.587   7.602   6.367 -4.3394  1.4589  0.0561
  707MOL0     H97539  12.583   7.539   6.526 -0.1187 -0.1408 -0.1845
  707MOL0     H97540  12.585   7.292   6.390 -1.6986  0.2747 -0.3143
  707MOL0     H97541  12.720   7.371   6.436 -1.9029  0.2539  2.3237
  707MOL0     H97542  12.765   7.419   6.206  0.2597 -1.2228 -0.0132
  707MOL0     H97543  12.601   7.477   6.179  3.9237  1.4500 -4.2007
  707MOL0     H97544  12.650   7.280   6.041  0.0036  0.4207 -0.0785
  707MOL0     H97545  12.543   7.220   6.172 -0.5278 -0.3145 -1.8433
  707MOL0     H97546  11.904   7.135   6.468  1.0034 -0.3893  2.0138
  707MOL0     H97547  11.806   7.077   6.245 -1.0717  3.7870 -3.3144
  707MOL0     H97548  11.940   7.216   5.709  1.9830 -0.9840  4.2354
  707MOL0     H97549  11.873   7.136   5.501  2.8204 -0.5645  2.0219
  707MOL0     H97550  10.225   7.345   5.371 -1.1749 -1.7486  0.8996
  707MOL0     H97551  10.084   7.168   5.350  0.7810  1.7112  0.3535
  707MOL0     H97552   9.954   6.735   5.417 -0.2325 -1.6798  1.6343
  707MOL0     H97553   9.806   6.561   5.377 -0.2131 -1.2201  1.6384
  707MOL0     H97554   9.718   6.246   5.065  0.0279  0.6724  1.4827
  707MOL0     H97555   9.823   6.357   4.982  2.2371  1.3783  0.6833
  707MOL0     H97556   9.870   6.118   5.173 -3.2865  3.7587  1.7061
  707MOL0     H97557  10.013   6.224   5.129 -0.9040  4.7021 -2.0580
  707MOL0     H97558   9.981   6.007   4.985 -0.5509 -0.8978 -1.2187
  707MOL0     H97559   9.863   6.110   4.895  1.6303  1.9848  0.3515
  707MOL0     H97560  10.087   6.260   4.880 -1.2755  0.7408 -2.0502
  707MOL0     H97561  10.038   6.143   4.771  0.3217  2.8530 -0.5487
  707MOL0     H97562  10.403   6.013   4.959 -1.1450 -1.9693 -2.8276
  707MOL0     H97563  10.014   6.433   5.020 -0.8847 -0.3239  1.1784
  707MOL0     H97564  10.223   6.703   4.982 -1.5811 -0.5827 -0.7464
  707MOL0     H97565  10.298   6.604   5.113 -0.2197 -1.9253 -0.1495
  707MOL0     H97566  10.228   6.523   4.975  1.1171 -0.2396  0.8414
  708MOL0     O97567  10.674   5.941   0.584 -0.3128 -0.5174  0.2586
  708MOL0     C97568  10.691   6.002   0.472 -0.0541  0.3604  0.5267
  708MOL0     O97569  10.747   6.120   0.449 -0.7437 -0.2983 -0.7412
  708MOL0     C97570  10.746   6.222   0.539 -0.8057 -0.0547 -0.4559
  708MOL0     C97571  10.801   6.347   0.498  0.0354  0.5627 -0.2148
  708MOL0     C97572  10.789   6.457   0.579  0.9368 -0.1541  0.3265
  708MOL0     C97573  10.741   6.450   0.709 -0.2745  0.4987  0.5111
  708MOL0     O97574  10.734   6.564   0.793  0.0671 -0.5073 -0.2999
  708MOL0     C97575  10.858   6.612   0.855 -1.4452 -0.2575  0.9935
  708MOL0     C97576  10.942   6.684   0.760 -0.0611 -0.0415  0.8296
  708MOL0     C97577  10.873   6.805   0.703  0.8713 -0.0945  0.8173
  708MOL0     C97578  10.960   6.890   0.614 -0.6420  0.7018 -0.5934
  708MOL0     C97579  10.877   7.000   0.534 -0.1770  0.2250 -0.1309
  708MOL0     C97580  10.822   6.943   0.400 -0.9753  0.1118 -0.0972
  708MOL0     C97581  10.929   6.924   0.290 -0.7584  0.4501  0.2964
  708MOL0     C97582  10.993   7.055   0.238 -0.5676  0.2417  0.3173
  708MOL0     N97583  10.909   7.108   0.138 -0.4440  0.0173  0.1942
  708MOL0     C97584  10.818   7.198   0.153  0.2350  0.3727  1.1609
  708MOL0     C97585  10.773   7.226   0.018 -0.3240  0.2312 -0.2715
  708MOL0     C97586  10.675   7.331  -0.021 -0.0328 -0.1010 -1.0240
  708MOL0     C97587  10.749   7.459  -0.057  0.1230 -0.2113  0.7842
  708MOL0     C97588  10.805   7.467  -0.200 -0.3745 -0.1332  0.0328
  708MOL0     C97589  10.838   7.618  -0.233 -0.4847  0.2851  0.2212
  708MOL0     O97590  10.891   7.608  -0.361 -0.0786  0.1257  1.0651
  708MOL0     C97591  11.018   7.655  -0.399 -0.3273  0.4117  0.8505
  708MOL0     C97592  11.033   7.750  -0.510 -1.1067  0.0808 -0.1011
  708MOL0     C97593  11.160   7.799  -0.557 -0.9991  0.4108 -1.0902
  708MOL0     C97594  11.153   7.888  -0.679 -0.7075 -0.8369 -0.2585
  708MOL0     C97595  11.280   7.761  -0.483 -0.5204  0.2297  0.8372
  708MOL0     C97596  11.417   7.798  -0.509 -0.5449  0.1447  0.8369
  708MOL0     O97597  11.518   7.757  -0.421 -0.8589 -0.0222  0.6489
  708MOL0     C97598  11.650   7.793  -0.452  0.3745  0.0645 -0.4145
  708MOL0     C97599  11.723   7.742  -0.561 -0.2158 -0.5919  1.0658
  708MOL0     C97600  11.860   7.767  -0.582  0.2363 -0.8093  0.1408
  708MOL0     C97601  11.919   7.860  -0.497 -0.4749  0.3103  0.1212
  708MOL0     O97602  12.053   7.905  -0.497  0.3392  0.1364 -0.2827
  708MOL0     C97603  12.137   7.872  -0.611  0.4560 -0.0811 -0.3848
  708MOL0     C97604  12.278   7.890  -0.573 -0.3258 -0.0959  0.2762
  708MOL0     C97605  12.308   8.037  -0.538  0.8396  0.7640  0.3123
  708MOL0     C97606  12.451   8.059  -0.504  0.2196  0.4748  0.2392
  708MOL0     C97607  12.489   8.200  -0.461 -0.3452  0.0736  0.5450
  708MOL0     C97608  12.487   8.317  -0.566  0.1196  0.2183 -0.1893
  708MOL0     C97609  12.527   8.452  -0.508 -0.1080  0.2379 -0.5986
  708MOL0     C97610  12.478   8.573  -0.587 -0.3487  0.5212 -0.1913
  708MOL0    Cl97611  12.297   8.593  -0.594  0.2263 -0.1035 -0.2984
  708MOL0     C97612  11.850   7.914  -0.381  0.7507  2.0321  0.8834
  708MOL0     C97613  11.716   7.886  -0.371 -0.1399  0.3533 -0.1867
  708MOL0     O97614  11.436   7.882  -0.595 -0.1193 -0.0425  0.0169
  708MOL0     C97615  11.268   7.666  -0.369  0.2991  0.6715  0.4335
  708MOL0     C97616  11.139   7.609  -0.331  0.0149  0.8121  0.1840
  708MOL0     N97617  10.856   7.163  -0.066  0.0060 -0.4504  0.5713
  708MOL0     N97618  10.931   7.093   0.008  0.1953  1.2307 -0.9615
  708MOL0     C97619  10.695   6.327   0.759 -0.1108  0.1580  0.4355
  708MOL0     C97620  10.694   6.214   0.670 -0.2328 -0.2109 -0.5980
  708MOL0     C97621  10.621   5.929   0.369  0.2300  0.2854  0.5683
  708MOL0     C97622  10.694   5.848   0.277  0.2404  0.2306 -0.1616
  708MOL0     C97623  10.615   5.769   0.196  0.7306  0.5655  0.4871
  708MOL0     C97624  10.476   5.767   0.185  0.1162  0.4844 -0.1742
  708MOL0     O97625  10.405   5.691   0.094  0.1353  0.3320  0.3043
  708MOL0     C97626  10.460   5.571   0.036 -0.8542  0.7390  0.9500
  708MOL0     C97627  10.496   5.601  -0.117  0.5092 -0.2815  0.4992
  708MOL0     C97628  10.526   5.471  -0.204 -0.2667 -0.2812 -0.6826
  708MOL0     C97629  10.615   5.373  -0.128 -0.0525  0.1902  0.0213
  708MOL0     C97630  10.606   5.243  -0.194 -0.1553  0.5331  0.0758
  708MOL0     C97631  10.585   5.131  -0.256 -1.0990 -0.7981 -0.5376
  708MOL0     C97632  10.410   5.867   0.252  0.7660 -0.6424  0.0159
  708MOL0     C97633  10.483   5.944   0.357  0.7477  0.7617 -1.5051
  708MOL0     C97634  10.407   6.040   0.449 -0.0601 -0.6382 -0.4917
  708MOL0     H97635  10.862   6.345   0.408  1.1671  1.0010  0.5325
  708MOL0     H97636  10.824   6.557   0.554 -1.0013 -0.6359 -5.9279
  708MOL0     H97637  10.912   6.522   0.886 -0.2846 -0.7178 -2.0781
  708MOL0     H97638  10.839   6.669   0.946 -3.8688 -2.8477  2.2781
  708MOL0     H97639  11.038   6.702   0.809  0.8290 -2.4680  0.1240
  708MOL0     H97640  10.974   6.610   0.686  2.7115  3.4960 -1.8903
  708MOL0     H97641  10.778   6.780   0.655  1.2332 -3.1307  1.4804
  708MOL0     H97642  10.837   6.863   0.788 -1.3251 -0.1314 -0.0355
  708MOL0     H97643  11.039   6.933   0.677 -1.1724  2.0859 -0.8468
  708MOL0     H97644  11.014   6.827   0.543 -0.1956  0.4680 -0.0573
  708MOL0     H97645  10.945   7.081   0.506 -1.0193  1.2609  0.6972
  708MOL0     H97646  10.798   7.031   0.604 -3.3424 -1.9469 -2.4389
  708MOL0     H97647  10.765   6.851   0.416 -0.6156 -0.2530 -0.8235
  708MOL0     H97648  10.743   7.012   0.370  0.4250  2.9237  2.1514
  708MOL0     H97649  10.864   6.870   0.221 -3.7233 -2.9341  5.1572
  708MOL0     H97650  11.008   6.852   0.313 -1.6540  0.0780  2.4820
  708MOL0     H97651  11.017   7.122   0.320 -0.5075  1.1601 -0.4291
  708MOL0     H97652  11.087   7.036   0.184  0.5420  2.8191  1.1673
  708MOL0     H97653  10.777   7.246   0.241 -4.4522  0.3177 -0.6850
  708MOL0     H97654  10.618   7.347   0.071  1.0900  0.2618 -0.3615
  708MOL0     H97655  10.623   7.306  -0.114  0.9143 -2.6067 -0.9606
  708MOL0     H97656  10.674   7.538  -0.048  2.3519  1.8941  2.1059
  708MOL0     H97657  10.822   7.469   0.024 -0.3216 -1.0328  1.3029
  708MOL0     H97658  10.904   7.420  -0.208  0.9840  2.7127 -1.6893
  708MOL0     H97659  10.733   7.425  -0.271 -1.8642  3.3330 -0.7147
  708MOL0     H97660  10.754   7.686  -0.218  1.9759  3.1175  2.3349
  708MOL0     H97661  10.913   7.654  -0.162  3.0919 -0.1386 -3.0083
  708MOL0     H97662  10.945   7.797  -0.552 -1.2908  0.9836  1.2406
  708MOL0     H97663  11.154   7.995  -0.660 -0.6741 -0.8851  0.0077
  708MOL0     H97664  11.061   7.861  -0.732 -0.1115 -2.3281 -0.5988
  708MOL0     H97665  11.239   7.868  -0.744  0.1749  2.2150 -0.1900
  708MOL0     H97666  11.675   7.666  -0.622  1.8556 -1.9912  1.0441
  708MOL0     H97667  11.905   7.724  -0.671 -0.7283  1.1236 -1.3583
  708MOL0     H97668  12.113   7.773  -0.650 -0.1864 -0.5931  1.1980
  708MOL0     H97669  12.107   7.953  -0.678 -1.3582  0.2600  0.7591
  708MOL0     H97670  12.308   7.824  -0.492 -0.0683 -1.1682 -0.6754
  708MOL0     H97671  12.346   7.865  -0.655  2.6382  2.0175  1.8934
  708MOL0     H97672  12.243   8.062  -0.454 -2.4435 -3.0512 -0.7705
  708MOL0     H97673  12.279   8.104  -0.619  0.9065 -0.7905 -1.0408
  708MOL0     H97674  12.515   8.020  -0.583  0.2005 -1.2351  1.0296
  708MOL0     H97675  12.468   8.000  -0.413  0.6706 -1.0146 -0.7774
  708MOL0     H97676  12.419   8.226  -0.381 -0.5445 -3.6089  1.7849
  708MOL0     H97677  12.588   8.181  -0.418 -0.6414 -0.2734  1.0838
  708MOL0     H97678  12.381   8.313  -0.593 -0.0489 -3.1314  0.5259
  708MOL0     H97679  12.548   8.295  -0.654 -0.2058  0.7794 -0.5629
  708MOL0     H97680  12.631   8.453  -0.473 -1.1580 -4.2926  3.8528
  708MOL0     H97681  12.469   8.460  -0.415  0.3588 -0.3375 -0.2486
  708MOL0     H97682  12.517   8.576  -0.689 -1.8330 -1.5256 -0.8911
  708MOL0     H97683  12.520   8.658  -0.532  2.1278  0.3177 -1.6603
  708MOL0     H97684  11.887   7.985  -0.308 -0.7998  3.5296  0.2776
  708MOL0     H97685  11.655   7.930  -0.292  1.9084  1.2505  0.9807
  708MOL0     H97686  11.354   7.630  -0.313  0.7622 -1.2004 -1.3809
  708MOL0     H97687  11.135   7.543  -0.245  0.4716  1.0533  0.3904
  708MOL0     H97688  10.657   6.337   0.860  0.1343 -0.3669  0.5834
  708MOL0     H97689  10.644   6.127   0.711 -1.3185  0.8225  0.3631
  708MOL0     H97690  10.801   5.830   0.274 -0.1922 -2.8367 -0.2805
  708MOL0     H97691  10.678   5.713   0.127  0.8568  2.2798 -0.8691
  708MOL0     H97692  10.556   5.552   0.084  1.8485  2.4422 -3.1842
  708MOL0     H97693  10.385   5.491   0.037  0.9699 -1.1003  3.5235
  708MOL0     H97694  10.580   5.670  -0.125  0.2576  0.4089  3.0438
  708MOL0     H97695  10.406   5.644  -0.163 -0.2961 -3.4342 -1.1466
  708MOL0     H97696  10.428   5.423  -0.215 -1.4439  1.6855  0.6137
  708MOL0     H97697  10.552   5.486  -0.309 -2.8661  1.2100 -1.1815
  708MOL0     H97698  10.574   5.354  -0.029  1.3966  1.6755  0.9572
  708MOL0     H97699  10.719   5.407  -0.125 -0.5274  1.9296 -1.5037
  708MOL0     H97700  10.578   5.040  -0.313  1.4642 -1.3875 -0.0118
  708MOL0     H97701  10.304   5.880   0.232  1.1538  2.0532 -0.7144
  708MOL0     H97702  10.418   6.145   0.422 -2.5626 -0.0427  0.5383
  708MOL0     H97703  10.298   6.024   0.445 -1.6114  5.8452  2.5455
  708MOL0     H97704  10.435   6.029   0.554 -1.7198  0.1158  0.0667
  709MOL0     O97705   5.344   0.332   8.389  0.0996  0.1782  0.0866
  709MOL0     C97706   5.229   0.352   8.431 -0.2346  0.3345 -0.2408
  709MOL0     O97707   5.203   0.418   8.550  0.0882  0.1368  0.4134
  709MOL0     C97708   5.290   0.512   8.595 -0.8958  0.4444 -0.4016
  709MOL0     C97709   5.418   0.477   8.642 -0.9834 -1.5021  0.2627
  709MOL0     C97710   5.506   0.586   8.680  0.4332  0.3939  0.8625
  709MOL0     C97711   5.482   0.717   8.651 -1.2879 -0.3728  0.1680
  709MOL0     O97712   5.594   0.810   8.651  0.6271 -0.2892  0.6666
  709MOL0     C97713   5.733   0.782   8.628 -0.5865 -0.0774 -0.5358
  709MOL0     C97714   5.788   0.874   8.513  0.2838  0.7104 -0.6089
  709MOL0     C97715   5.932   0.849   8.475 -0.6826  0.1136 -0.5662
  709MOL0     C97716   6.045   0.914   8.569  1.1131  0.7356  0.0253
  709MOL0     C97717   6.150   0.988   8.482 -0.3151  0.3908 -1.1921
  709MOL0     C97718   6.096   1.084   8.377  0.1173 -0.3101  0.3613
  709MOL0     C97719   6.201   1.174   8.312 -0.4245  0.2105  0.1266
  709MOL0     C97720   6.225   1.309   8.388  0.3680  0.2568 -0.0727
  709MOL0     N97721   6.215   1.315   8.532 -0.1559  0.9061  0.1152
  709MOL0     C97722   6.319   1.284   8.616  0.3217  0.0454 -0.0410
  709MOL0     C97723   6.273   1.297   8.740  0.7976 -0.2137 -0.6487
  709MOL0     C97724   6.326   1.276   8.883  0.1683 -0.0435 -0.1619
  709MOL0     C97725   6.231   1.181   8.967  0.2231  1.3426 -0.6243
  709MOL0     C97726   6.311   1.088   9.065 -0.1742 -0.6902 -0.9993
  709MOL0     C97727   6.376   1.171   9.186 -0.2838  0.2500 -0.3899
  709MOL0     O97728   6.287   1.266   9.252 -0.1227  0.6409  0.5908
  709MOL0     C97729   6.325   1.392   9.298  0.3427 -0.3977 -0.4323
  709MOL0     C97730   6.239   1.501   9.296 -0.0113  0.2983 -0.2958
  709MOL0     C97731   6.290   1.629   9.334 -0.0980  0.0436 -1.5133
  709MOL0     C97732   6.185   1.746   9.325 -0.2339 -0.7139 -0.7733
  709MOL0     C97733   6.419   1.655   9.380  0.3279  0.4056 -0.2119
  709MOL0     C97734   6.467   1.789   9.418 -0.0576 -0.5467 -1.0693
  709MOL0     O97735   6.425   1.901   9.356  0.0373 -0.3695 -0.3091
  709MOL0     C97736   6.512   2.003   9.340 -0.0497  0.7363 -1.0981
  709MOL0     C97737   6.656   1.985   9.326  0.2043 -0.6154  0.7421
  709MOL0     C97738   6.738   2.097   9.292  0.1277 -0.5124  0.2246
  709MOL0     C97739   6.683   2.227   9.306 -0.7690 -0.0341 -0.5961
  709MOL0     O97740   6.777   2.320   9.271 -0.2659  0.3778 -0.9669
  709MOL0     C97741   6.743   2.458   9.277 -0.1138 -0.5411 -0.0883
  709MOL0     C97742   6.843   2.547   9.199 -0.0412 -0.2271 -0.2212
  709MOL0     C97743   6.996   2.525   9.242 -0.5006  0.4839 -0.8931
  709MOL0     C97744   7.082   2.644   9.209 -0.0232  0.6149 -0.9783
  709MOL0     C97745   7.225   2.636   9.261  0.6889  0.0673 -0.1754
  709MOL0     C97746   7.305   2.765   9.229 -1.3223 -0.3270  0.9024
  709MOL0     C97747   7.442   2.786   9.311 -0.1405 -0.5464 -0.6229
  709MOL0     C97748   7.564   2.748   9.228  0.4943  0.7924  0.1770
  709MOL0    Cl97749   7.575   2.570   9.215  0.5274 -0.1055 -0.4738
  709MOL0     C97750   6.545   2.245   9.314  0.3842 -0.0697 -0.6652
  709MOL0     C97751   6.466   2.129   9.326  0.4598 -0.3456  0.8929
  709MOL0     O97752   6.552   1.785   9.516  0.4473 -0.1757 -0.3398
  709MOL0     C97753   6.499   1.540   9.392 -1.0530 -0.2562 -1.3270
  709MOL0     C97754   6.455   1.415   9.345  0.8170  0.1056 -0.3888
  709MOL0     N97755   6.133   1.322   8.733 -1.2980 -0.9869  0.0133
  709MOL0     N97756   6.103   1.336   8.611  0.0334 -0.6915 -0.4860
  709MOL0     C97757   5.355   0.749   8.591 -0.2287  0.2488  0.5251
  709MOL0     C97758   5.261   0.650   8.564 -0.3421 -0.1846 -0.3262
  709MOL0     C97759   5.120   0.264   8.379 -0.7044  0.4209  0.8467
  709MOL0     C97760   5.026   0.232   8.473 -0.0030  0.0444 -0.7930
  709MOL0     C97761   4.925   0.145   8.442  0.8344 -0.4191 -0.5845
  709MOL0     C97762   4.896   0.109   8.308  0.4483 -0.4987  0.1685
  709MOL0     O97763   4.786   0.029   8.270 -0.4229 -0.5300 -0.3010
  709MOL0     C97764   4.660   0.012   8.336 -0.7155  0.7275 -0.0757
  709MOL0     C97765   4.588   0.149   8.338 -0.4350  0.3178  1.3499
  709MOL0     C97766   4.556   0.194   8.193 -0.5258 -0.8804  1.0360
  709MOL0     C97767   4.478   0.330   8.197 -0.3495  0.5575  0.2381
  709MOL0     C97768   4.445   0.361   8.057  0.0613  0.8733 -0.4025
  709MOL0     C97769   4.387   0.397   7.957  0.0125  0.9448  0.1152
  709MOL0     C97770   5.000   0.131   8.215 -0.1356 -0.3954 -0.0772
  709MOL0     C97771   5.113   0.205   8.248  0.5270  0.4968 -0.6167
  709MOL0     C97772   5.208   0.233   8.142  0.2184  0.3062 -0.0005
  709MOL0     H97773   5.461   0.377   8.642 -0.2909 -1.3786 -3.7182
  709MOL0     H97774   5.602   0.559   8.723 -0.9484  1.4442  5.0781
  709MOL0     H97775   5.744   0.674   8.613 -1.1514 -0.2103 -0.0151
  709MOL0     H97776   5.770   0.823   8.723 -2.4642  3.5127 -1.1796
  709MOL0     H97777   5.728   0.844   8.426 -0.7374 -0.4614  0.4570
  709MOL0     H97778   5.777   0.978   8.544  2.8648  0.1799  2.5510
  709MOL0     H97779   5.956   0.743   8.485  0.8286  0.5771  1.2402
  709MOL0     H97780   5.945   0.865   8.368  1.9251  1.4282 -0.1317
  709MOL0     H97781   5.999   0.977   8.646 -1.8948  1.3298 -2.0819
  709MOL0     H97782   6.082   0.822   8.617 -3.4973 -1.4876 -0.1370
  709MOL0     H97783   6.215   0.919   8.427 -0.2334 -0.2603 -0.3024
  709MOL0     H97784   6.219   1.042   8.548 -0.4572  2.2967 -2.5427
  709MOL0     H97785   6.056   1.020   8.298  3.2010 -2.6285  0.4753
  709MOL0     H97786   6.019   1.151   8.415  1.1141  0.0385  1.8261
  709MOL0     H97787   6.173   1.192   8.208  3.4731 -4.5343 -2.1650
  709MOL0     H97788   6.294   1.116   8.306 -0.9101 -0.5304 -0.4302
  709MOL0     H97789   6.318   1.347   8.344 -0.5558  3.2816  0.3260
  709MOL0     H97790   6.149   1.381   8.358 -1.6364 -0.0954  3.5626
  709MOL0     H97791   6.425   1.274   8.595 -0.2093  1.1034 -4.0047
  709MOL0     H97792   6.338   1.378   8.921 -1.4549  0.3983 -0.7516
  709MOL0     H97793   6.425   1.230   8.868 -1.0568 -2.6705 -0.6817
  709MOL0     H97794   6.162   1.241   9.028  0.5467 -3.6392  5.6786
  709MOL0     H97795   6.178   1.114   8.899  0.1815  1.0612 -0.3159
  709MOL0     H97796   6.244   1.013   9.106  0.5821 -0.8004  0.0854
  709MOL0     H97797   6.394   1.040   9.013 -0.1309 -1.4197 -0.2743
  709MOL0     H97798   6.433   1.113   9.259  1.7847  0.9331 -1.4018
  709MOL0     H97799   6.452   1.244   9.157  1.2554 -0.1724  2.2441
  709MOL0     H97800   6.136   1.488   9.266  0.4350 -1.2494 -1.2578
  709MOL0     H97801   6.091   1.698   9.297 -1.8529  1.5157  0.4801
  709MOL0     H97802   6.225   1.812   9.248  0.3965  0.9848  0.9196
  709MOL0     H97803   6.173   1.791   9.425  1.6168  0.4820 -1.0275
  709MOL0     H97804   6.694   1.885   9.346 -0.0387 -1.0458 -0.7435
  709MOL0     H97805   6.843   2.073   9.274 -0.6950 -4.0368 -0.6752
  709MOL0     H97806   6.643   2.487   9.241  0.8624 -0.5646 -3.1557
  709MOL0     H97807   6.740   2.493   9.380 -0.4465  1.8788 -0.8635
  709MOL0     H97808   6.834   2.505   9.099 -1.7151  2.4690 -1.3128
  709MOL0     H97809   6.814   2.652   9.193 -2.4051 -0.8635 -1.0084
  709MOL0     H97810   7.045   2.437   9.201  0.5311  0.6108  0.0232
  709MOL0     H97811   7.003   2.504   9.349  0.3112 -0.4643 -1.1189
  709MOL0     H97812   7.033   2.736   9.244  1.7936  1.1902  0.1887
  709MOL0     H97813   7.077   2.668   9.103 -1.0470  1.0108 -0.8607
  709MOL0     H97814   7.233   2.627   9.370 -0.5791 -1.3636 -0.1582
  709MOL0     H97815   7.272   2.551   9.211 -0.9189 -0.3252 -1.1101
  709MOL0     H97816   7.240   2.845   9.264 -2.6690 -1.2322  0.5147
  709MOL0     H97817   7.319   2.787   9.123 -3.0894 -1.1753  0.4514
  709MOL0     H97818   7.440   2.735   9.407  5.0333 -1.0070 -0.4962
  709MOL0     H97819   7.457   2.893   9.324  1.7964 -0.5467 -2.3833
  709MOL0     H97820   7.652   2.771   9.288 -0.0690  1.0001  0.9471
  709MOL0     H97821   7.562   2.805   9.135  0.1324  2.8503  1.3730
  709MOL0     H97822   6.495   2.341   9.325 -0.9733 -0.9883  2.2871
  709MOL0     H97823   6.363   2.162   9.331  0.2889 -0.1690 -1.9666
  709MOL0     H97824   6.591   1.565   9.444 -2.0819  3.7265 -1.0991
  709MOL0     H97825   6.516   1.325   9.353 -0.0949 -0.4024  1.2901
  709MOL0     H97826   5.342   0.855   8.571 -0.7896  0.2258  0.7540
  709MOL0     H97827   5.171   0.691   8.519  0.3739  1.9590  0.0940
  709MOL0     H97828   5.030   0.261   8.578  0.0563 -1.8769 -0.2203
  709MOL0     H97829   4.856   0.122   8.523  0.5944  3.0836  0.3641
  709MOL0     H97830   4.597  -0.055   8.278 -0.6207  2.9593 -2.9895
  709MOL0     H97831   4.678  -0.014   8.441 -2.2781 -1.1621 -0.2163
  709MOL0     H97832   4.650   0.221   8.392  1.0537  0.0825  0.0140
  709MOL0     H97833   4.501   0.150   8.405  0.2130  3.9393  2.3529
  709MOL0     H97834   4.649   0.195   8.137 -1.0534 -1.1228  0.1381
  709MOL0     H97835   4.496   0.128   8.130 -2.1938  2.3044 -1.0093
  709MOL0     H97836   4.535   0.417   8.231  1.0376 -0.1482 -0.2012
  709MOL0     H97837   4.386   0.312   8.254  0.7115 -0.8509  1.6186
  709MOL0     H97838   4.369   0.421   7.854 -0.3195  0.9198  0.1681
  709MOL0     H97839   4.976   0.091   8.117 -0.0218 -3.8247  1.1712
  709MOL0     H97840   5.280   0.151   8.142 -0.2708 -0.1469  1.3667
  709MOL0     H97841   5.161   0.247   8.044  2.0882  3.7394 -0.5917
  709MOL0     H97842   5.246   0.335   8.157  2.0864 -0.2876 -0.3520
  710MOL0     O97843   0.355   0.629   1.491 -1.0560 -0.2979  0.4853
  710MOL0     C97844   0.254   0.626   1.560 -0.7116  0.1989  0.0212
  710MOL0     O97845   0.165   0.528   1.558 -0.8322 -0.6540  0.1678
  710MOL0     C97846   0.199   0.415   1.491 -0.7079  0.3689  0.1326
  710MOL0     C97847   0.123   0.361   1.392  0.2356  0.2544 -0.8844
  710MOL0     C97848   0.158   0.237   1.330  0.4013  0.0100 -0.6874
  710MOL0     C97849   0.287   0.183   1.364  0.5773  0.4298  0.9597
  710MOL0     O97850   0.343   0.081   1.289  0.1523 -0.4984 -0.4926
  710MOL0     C97851   0.363  -0.045   1.352  0.0111  0.4581 -0.1439
  710MOL0     C97852   0.329  -0.181   1.281 -0.0381 -0.6304 -0.7210
  710MOL0     C97853   0.319  -0.297   1.379  0.9359 -0.2257  0.1276
  710MOL0     C97854   0.210  -0.397   1.334 -0.0282 -0.7296 -0.9417
  710MOL0     C97855   0.216  -0.526   1.409  0.0873 -0.3385  0.5675
  710MOL0     C97856   0.074  -0.582   1.395 -0.0297  0.2076 -0.0458
  710MOL0     C97857   0.050  -0.647   1.256  0.8755 -0.4745  0.0420
  710MOL0     C97858  -0.103  -0.665   1.233  0.1743 -0.2147  0.3812
  710MOL0     N97859  -0.131  -0.736   1.103  0.1151 -0.2572 -0.0169
  710MOL0     C97860  -0.100  -0.867   1.063  0.0010 -0.4908 -0.5417
  710MOL0     C97861  -0.162  -0.876   0.944 -0.2543  0.2812 -0.3301
  710MOL0     C97862  -0.168  -0.999   0.868  0.3679  0.2714  0.9821
  710MOL0     C97863  -0.312  -1.017   0.801 -1.4942  0.9670  0.5115
  710MOL0     C97864  -0.303  -1.114   0.673  0.1371 -0.7952 -0.0241
  710MOL0     C97865  -0.444  -1.139   0.619 -0.7440 -0.1460  0.1183
  710MOL0     O97866  -0.531  -1.185   0.723 -1.2724  0.4520 -0.1741
  710MOL0     C97867  -0.659  -1.212   0.683  0.3490 -0.8143 -0.7589
  710MOL0     C97868  -0.706  -1.272   0.558  0.3079 -0.1029 -1.0878
  710MOL0     C97869  -0.835  -1.275   0.518  0.0935  0.2575 -0.3759
  710MOL0     C97870  -0.866  -1.321   0.381 -0.3015 -0.5273 -0.2508
  710MOL0     C97871  -0.932  -1.239   0.619 -0.4658 -0.5308  0.0638
  710MOL0     C97872  -1.078  -1.238   0.600 -0.2124  0.4743 -0.5184
  710MOL0     O97873  -1.160  -1.212   0.706 -0.0409 -0.5021 -0.5389
  710MOL0     C97874  -1.294  -1.189   0.703 -0.2955  0.3834  0.2268
  710MOL0     C97875  -1.355  -1.073   0.777 -0.4999  0.3977  0.6664
  710MOL0     C97876  -1.487  -1.061   0.770  0.1185 -0.3443  0.7705
  710MOL0     C97877  -1.573  -1.156   0.704 -0.0114  0.4459 -0.9786
  710MOL0     O97878  -1.710  -1.136   0.708 -0.1730 -0.0301  0.3497
  710MOL0     C97879  -1.788  -1.218   0.612  0.1168 -0.2772 -0.7313
  710MOL0     C97880  -1.939  -1.166   0.603  0.2648 -0.5400 -0.5301
  710MOL0     C97881  -2.007  -1.227   0.721  0.6642 -0.4535 -0.3475
  710MOL0     C97882  -2.146  -1.272   0.687 -0.8174  0.0753  0.3744
  710MOL0     C97883  -2.231  -1.322   0.810 -0.5725 -0.5372  0.6878
  710MOL0     C97884  -2.356  -1.404   0.765 -0.1617  0.6150 -0.2804
  710MOL0     C97885  -2.438  -1.328   0.654 -0.8387 -1.4942 -0.2294
  710MOL0     C97886  -2.561  -1.418   0.622 -1.0584  0.1422 -0.2131
  710MOL0    Cl97887  -2.694  -1.409   0.734 -0.2367  0.2110 -0.0800
  710MOL0     C97888  -1.505  -1.261   0.637  0.4981 -0.3463 -0.7298
  710MOL0     C97889  -1.366  -1.287   0.641  0.3892  0.3065  0.7605
  710MOL0     O97890  -1.118  -1.278   0.490 -0.1247  0.1564 -0.0682
  710MOL0     C97891  -0.887  -1.196   0.744  0.3968 -0.2066  0.6816
  710MOL0     C97892  -0.756  -1.182   0.782 -0.7589  0.0901  0.6839
  710MOL0     N97893  -0.207  -0.751   0.904 -0.1728  0.7094  0.3939
  710MOL0     N97894  -0.203  -0.676   1.001 -0.4130 -0.5644  0.3872
  710MOL0     C97895   0.365   0.248   1.463  1.3706  0.0666 -0.4209
  710MOL0     C97896   0.310   0.356   1.537 -0.8120  0.3663  0.1343
  710MOL0     C97897   0.239   0.735   1.665  1.0741 -0.3116  0.6413
  710MOL0     C97898   0.118   0.749   1.735 -0.3641 -0.1005 -0.5592
  710MOL0     C97899   0.102   0.844   1.834  0.9721  0.6536  0.4651
  710MOL0     C97900   0.187   0.932   1.857  0.0717 -0.7788 -0.1083
  710MOL0     O97901   0.168   1.019   1.956  0.1005 -0.3231  0.1319
  710MOL0     C97902   0.158   1.161   1.930 -0.3457  0.2864  0.4500
  710MOL0     C97903   0.014   1.212   1.903 -0.5991 -0.0581  0.1403
  710MOL0     C97904  -0.090   1.168   2.015 -0.6290  0.2798 -0.3712
  710MOL0     C97905  -0.065   1.229   2.159  0.1523 -0.2635 -0.3544
  710MOL0     C97906  -0.158   1.172   2.264 -0.5518 -0.2298  0.8272
  710MOL0     C97907  -0.221   1.134   2.361 -0.9300  0.6713  0.6470
  710MOL0     C97908   0.304   0.930   1.790 -0.6638  0.3516 -0.0285
  710MOL0     C97909   0.338   0.824   1.702  0.2372 -0.5411 -0.4665
  710MOL0     C97910   0.485   0.818   1.660  0.3250  0.1658  0.8013
  710MOL0     H97911   0.024   0.398   1.366 -1.1379 -2.4082  0.2142
  710MOL0     H97912   0.090   0.199   1.253 -1.0254  1.3026 -0.1265
  710MOL0     H97913   0.305  -0.045   1.445 -2.0340  0.7916 -1.3569
  710MOL0     H97914   0.469  -0.052   1.377  0.9383  3.1334 -2.6264
  710MOL0     H97915   0.229  -0.173   1.237 -0.3364 -0.3972 -0.0124
  710MOL0     H97916   0.402  -0.205   1.202  1.8331  3.1630 -0.3933
  710MOL0     H97917   0.414  -0.336   1.418  0.1046  1.2668  4.0800
  710MOL0     H97918   0.277  -0.264   1.474 -0.2617 -0.1047 -0.4211
  710MOL0     H97919   0.116  -0.341   1.343  0.4027 -0.1882  0.3690
  710MOL0     H97920   0.230  -0.414   1.228 -0.5359 -2.9173 -0.7304
  710MOL0     H97921   0.244  -0.509   1.514  0.7651  1.1263  0.1790
  710MOL0     H97922   0.289  -0.599   1.372 -3.4876 -3.2292 -1.3683
  710MOL0     H97923   0.064  -0.663   1.468 -0.3497 -0.1163 -0.4413
  710MOL0     H97924   0.003  -0.504   1.423 -2.0864 -1.0979 -1.3495
  710MOL0     H97925   0.094  -0.747   1.255 -1.0418 -1.3662  0.3301
  710MOL0     H97926   0.106  -0.582   1.189  2.0487 -1.7662 -0.2590
  710MOL0     H97927  -0.150  -0.735   1.303  0.4875 -1.8572 -0.9976
  710MOL0     H97928  -0.139  -0.562   1.226  3.2315  0.8528 -1.8068
  710MOL0     H97929  -0.044  -0.934   1.128 -2.9711 -1.1695  1.5330
  710MOL0     H97930  -0.167  -1.087   0.933  0.7475  0.5180  1.3080
  710MOL0     H97931  -0.086  -1.029   0.801 -1.3464 -1.1182 -0.6293
  710MOL0     H97932  -0.378  -1.061   0.876 -1.9327 -0.8310 -0.8371
  710MOL0     H97933  -0.349  -0.920   0.769 -0.7420  0.6750 -1.3795
  710MOL0     H97934  -0.237  -1.081   0.592 -0.5881 -0.7018 -0.5842
  710MOL0     H97935  -0.255  -1.200   0.721 -0.5685 -0.2348  1.7512
  710MOL0     H97936  -0.490  -1.048   0.580  0.2410  0.4238  0.2626
  710MOL0     H97937  -0.442  -1.220   0.545  1.0043 -1.1724  1.2215
  710MOL0     H97938  -0.637  -1.274   0.474  0.5674  0.4777 -0.8960
  710MOL0     H97939  -0.922  -1.415   0.390 -1.4752  0.3748  3.6042
  710MOL0     H97940  -0.770  -1.342   0.332  0.4675 -1.0373  1.3821
  710MOL0     H97941  -0.917  -1.241   0.328  2.5338  0.6387 -1.4190
  710MOL0     H97942  -1.286  -1.012   0.835 -0.3913 -0.6327  1.6731
  710MOL0     H97943  -1.544  -0.992   0.830 -3.6185 -2.4173 -0.1108
  710MOL0     H97944  -1.736  -1.191   0.519 -0.2790  1.6166 -0.4526
  710MOL0     H97945  -1.774  -1.324   0.631  3.0351 -0.9186 -5.0562
  710MOL0     H97946  -1.950  -1.057   0.598 -0.8451 -0.6736 -1.4069
  710MOL0     H97947  -1.992  -1.195   0.512 -1.5127 -0.2599  0.3627
  710MOL0     H97948  -2.014  -1.154   0.802  0.9134  2.2811 -2.6500
  710MOL0     H97949  -1.951  -1.308   0.768 -1.5202  0.2513  3.9925
  710MOL0     H97950  -2.137  -1.346   0.607  4.4321 -1.5181  2.0037
  710MOL0     H97951  -2.207  -1.192   0.644 -0.1088 -0.9385 -2.8544
  710MOL0     H97952  -2.174  -1.386   0.878 -0.8651 -2.8774 -1.1681
  710MOL0     H97953  -2.257  -1.230   0.864  1.0690  0.1599  0.3712
  710MOL0     H97954  -2.414  -1.419   0.856 -2.1898  0.0149 -1.6051
  710MOL0     H97955  -2.307  -1.496   0.731  0.9243  1.0270  0.1248
  710MOL0     H97956  -2.368  -1.320   0.571  1.3374  1.2962  1.6829
  710MOL0     H97957  -2.475  -1.232   0.690  2.3105 -0.5411  0.8116
  710MOL0     H97958  -2.515  -1.516   0.633 -1.1601  0.1739  0.6025
  710MOL0     H97959  -2.591  -1.399   0.519 -4.7318  1.3124  0.9061
  710MOL0     H97960  -1.559  -1.340   0.586  0.9761 -0.4542 -1.0745
  710MOL0     H97961  -1.334  -1.372   0.581 -5.0868 -2.2304  0.8446
  710MOL0     H97962  -0.957  -1.159   0.818 -0.6203 -0.4446 -0.1351
  710MOL0     H97963  -0.723  -1.138   0.876  0.8725 -0.9371  0.6367
  710MOL0     H97964   0.467   0.214   1.472  0.5059 -3.0838 -1.4114
  710MOL0     H97965   0.379   0.388   1.615  1.0260 -0.9929 -0.8302
  710MOL0     H97966   0.032   0.688   1.711 -1.0929  1.2562 -1.5282
  710MOL0     H97967  -0.001   0.847   1.865  0.4172  1.9484 -1.3018
  710MOL0     H97968   0.214   1.214   2.008  2.6070 -1.6026 -0.2289
  710MOL0     H97969   0.212   1.172   1.835  0.5162 -1.9910  0.6084
  710MOL0     H97970  -0.004   1.182   1.800  1.1668 -0.0736 -0.2085
  710MOL0     H97971   0.025   1.320   1.891 -0.4017 -0.2691 -1.9478
  710MOL0     H97972  -0.187   1.211   1.988 -1.4595 -0.4200  1.3841
  710MOL0     H97973  -0.097   1.060   2.028 -1.7222  0.3501 -0.3036
  710MOL0     H97974  -0.075   1.337   2.154 -4.0196 -0.2574  3.2173
  710MOL0     H97975   0.040   1.219   2.188  0.4632  1.0278 -0.9578
  710MOL0     H97976  -0.275   1.081   2.437  1.2079 -1.2312  0.9657
  710MOL0     H97977   0.376   0.998   1.834 -3.1390  2.2768  1.2957
  710MOL0     H97978   0.543   0.822   1.752 -0.4469  0.5600  1.2774
  710MOL0     H97979   0.513   0.716   1.633  0.0518  0.4568 -0.6851
  710MOL0     H97980   0.509   0.894   1.585  0.2786 -0.5987 -0.0010
  711MOL0     O97981   0.317   9.838  11.208 -0.0891 -0.4489  0.0972
  711MOL0     C97982   0.229   9.828  11.119  0.7124  0.0489 -0.2758
  711MOL0     O97983   0.089   9.815  11.148 -0.6547 -0.2070  0.1439
  711MOL0     C97984   0.061   9.820  11.280  0.2194 -0.5402  0.1695
  711MOL0     C97985   0.025   9.698  11.336 -0.0328  0.0009  1.8117
  711MOL0     C97986  -0.019   9.697  11.463 -0.8573  0.4397 -0.0625
  711MOL0     C97987  -0.027   9.815  11.539 -0.2031 -0.0879  0.0341
  711MOL0     O97988  -0.084   9.826  11.664 -0.0510  0.3750  0.5175
  711MOL0     C97989  -0.119   9.700  11.727  0.2135 -0.2249 -0.1202
  711MOL0     C97990  -0.112   9.717  11.875  1.1234 -0.0917 -0.6568
  711MOL0     C97991  -0.005   9.795  11.948 -0.4813  0.6959  0.4135
  711MOL0     C97992   0.142   9.757  11.913  0.7718  0.1352  0.1646
  711MOL0     C97993   0.250   9.867  11.937  0.9302  0.1107  0.2506
  711MOL0     C97994   0.246   9.997  11.849  0.9460 -0.3335 -0.2998
  711MOL0     C97995   0.311   9.976  11.712 -0.2027 -0.6965 -0.1863
  711MOL0     C97996   0.462  10.009  11.718 -1.0280  0.2340  0.7474
  711MOL0     N97997   0.520  10.039  11.583 -0.8362 -0.2575 -0.2104
  711MOL0     C97998   0.513   9.979  11.458 -0.3430  0.0187 -0.2491
  711MOL0     C97999   0.614  10.047  11.401  0.0916 -0.5584  0.2415
  711MOL0     C98000   0.682  10.035  11.266  0.4723 -0.3827 -0.2236
  711MOL0     C98001   0.805   9.934  11.251  0.4046 -0.4130  0.1550
  711MOL0     C98002   0.909   9.953  11.365 -0.9458  0.5076  0.4226
  711MOL0     C98003   1.010   9.831  11.367  0.2320  0.8437 -0.5399
  711MOL0     O98004   1.066   9.811  11.240 -0.2716 -0.5718  0.4903
  711MOL0     C98005   1.147   9.699  11.217  0.1188 -0.2889 -1.0827
  711MOL0     C98006   1.190   9.607  11.316  0.3422 -0.6352  0.0983
  711MOL0     C98007   1.283   9.509  11.283  1.0502 -1.1021 -0.0719
  711MOL0     C98008   1.320   9.411  11.389  0.2595  0.3862  0.1203
  711MOL0     C98009   1.328   9.501  11.147 -0.2994  0.0618 -0.4008
  711MOL0     C98010   1.430   9.400  11.106  1.1390 -1.2411 -0.0482
  711MOL0     O98011   1.479   9.433  10.986  0.3273 -0.3345 -0.5941
  711MOL0     C98012   1.583   9.361  10.946  0.4810 -0.2509  0.2716
  711MOL0     C98013   1.556   9.226  10.911  0.4350  0.4119 -0.5326
  711MOL0     C98014   1.646   9.138  10.858 -0.9578  0.2021 -0.1896
  711MOL0     C98015   1.779   9.182  10.833  0.9196  0.1615 -0.2439
  711MOL0     O98016   1.868   9.108  10.761 -0.5175 -0.6121  0.7014
  711MOL0     C98017   1.910   8.977  10.806 -0.1562 -0.2958 -0.6327
  711MOL0     C98018   2.033   8.974  10.896 -1.3356  0.1890 -0.1965
  711MOL0     C98019   2.004   8.874  11.010  1.2106  0.1545  0.2377
  711MOL0     C98020   2.125   8.842  11.104 -0.2517 -0.3468  0.1153
  711MOL0     C98021   2.090   8.731  11.209 -0.4510  0.4372  0.2038
  711MOL0     C98022   2.220   8.690  11.275 -0.3568 -0.9650 -0.2826
  711MOL0     C98023   2.180   8.602  11.389  0.0859  0.6828 -0.3048
  711MOL0     C98024   2.299   8.541  11.468  0.8703 -0.3754 -0.3671
  711MOL0    Cl98025   2.407   8.679  11.540 -0.2886  0.0048  0.2447
  711MOL0     C98026   1.808   9.318  10.860  0.9883  0.6295  1.2763
  711MOL0     C98027   1.711   9.406  10.918  0.1639  0.1293  0.1449
  711MOL0     O98028   1.464   9.300  11.172 -0.0104  0.5588  0.1338
  711MOL0     C98029   1.292   9.601  11.053  0.9763 -0.2753 -0.3650
  711MOL0     C98030   1.194   9.696  11.082 -0.9219  0.6129 -0.8622
  711MOL0     N98031   0.666  10.154  11.481  0.0780  0.4825  0.1210
  711MOL0     N98032   0.605  10.150  11.588 -0.0686 -0.0471 -0.2212
  711MOL0     C98033   0.037   9.931  11.488 -0.4893 -0.6029 -0.9007
  711MOL0     C98034   0.070   9.940  11.358 -0.9864  0.1196  0.9575
  711MOL0     C98035   0.274   9.827  10.980  0.7457 -0.7746  0.3787
  711MOL0     C98036   0.175   9.859  10.889  0.0344  0.8429  0.2042
  711MOL0     C98037   0.202   9.858  10.753 -0.7220 -0.3577  0.9627
  711MOL0     C98038   0.330   9.825  10.711  0.1775 -0.2989  0.0496
  711MOL0     O98039   0.347   9.826  10.574 -0.2590  0.4503  0.0053
  711MOL0     C98040   0.464   9.756  10.517  0.8954  0.4773 -0.0042
  711MOL0     C98041   0.487   9.792  10.367  0.6154 -0.4676 -0.3040
  711MOL0     C98042   0.377   9.784  10.266 -1.3685 -0.7956 -0.1994
  711MOL0     C98043   0.426   9.816  10.122  0.0986  0.7865 -0.7694
  711MOL0     C98044   0.460   9.688  10.047 -0.9649 -0.4596  0.5504
  711MOL0     C98045   0.466   9.580   9.989  0.6909 -0.3832 -0.4828
  711MOL0     C98046   0.425   9.788  10.797  0.1934  0.1424  0.1163
  711MOL0     C98047   0.405   9.790  10.938  0.4220  0.0503 -0.7471
  711MOL0     C98048   0.529   9.752  11.016  0.1080  0.0662 -0.3784
  711MOL0     H98049   0.031   9.607  11.278 -1.8274  1.1536 -0.3313
  711MOL0     H98050  -0.049   9.598  11.498 -1.3863  0.5958 -0.0780
  711MOL0     H98051  -0.046   9.625  11.697 -0.9931 -0.6470 -2.2414
  711MOL0     H98052  -0.221   9.668  11.705  0.6521 -0.7544 -1.5176
  711MOL0     H98053  -0.206   9.770  11.894 -0.8255 -3.6404  0.4048
  711MOL0     H98054  -0.121   9.615  11.912 -0.9581  0.0365 -0.6746
  711MOL0     H98055  -0.032   9.901  11.940 -1.3276  0.5020  0.5402
  711MOL0     H98056  -0.009   9.776  12.055  0.4180  1.8595  0.6747
  711MOL0     H98057   0.158   9.662  11.963  0.2284  0.3195  0.7022
  711MOL0     H98058   0.158   9.752  11.805  0.3517  0.9879  0.0564
  711MOL0     H98059   0.349   9.825  11.919  1.0568 -0.9353  2.8651
  711MOL0     H98060   0.251   9.897  12.042 -0.5770 -0.9893  0.6206
  711MOL0     H98061   0.142  10.027  11.837  1.2631  0.7817 -0.3238
  711MOL0     H98062   0.299  10.070  11.911  1.6138 -0.9159 -0.1678
  711MOL0     H98063   0.274  10.052  11.643 -4.2232 -0.8834  1.4610
  711MOL0     H98064   0.287   9.876  11.678 -0.2753 -1.1472  1.1220
  711MOL0     H98065   0.472  10.096  11.783 -0.6594  1.9406 -1.4950
  711MOL0     H98066   0.522   9.929  11.764 -0.3056  0.8772  0.9415
  711MOL0     H98067   0.452   9.904  11.408 -3.5496  1.5318  1.1404
  711MOL0     H98068   0.713  10.135  11.234 -2.1384 -0.2900 -2.9248
  711MOL0     H98069   0.607  10.003  11.192 -1.0872  3.5246 -0.5734
  711MOL0     H98070   0.750   9.841  11.267 -4.0768  0.9866 -4.3934
  711MOL0     H98071   0.854   9.931  11.153  2.2235 -1.2623  1.0490
  711MOL0     H98072   0.965  10.047  11.356  0.7538 -0.4314  0.8208
  711MOL0     H98073   0.847   9.949  11.456 -3.6081  1.2440 -1.2333
  711MOL0     H98074   1.093   9.853  11.435  1.2625 -0.1107 -1.4529
  711MOL0     H98075   0.962   9.738  11.399  5.0012 -3.6695 -4.6455
  711MOL0     H98076   1.144   9.607  11.415 -3.6057  1.5324 -1.5152
  711MOL0     H98077   1.267   9.430  11.482 -0.1201 -1.9692  0.4493
  711MOL0     H98078   1.429   9.400  11.401  0.0695 -1.2583  0.5902
  711MOL0     H98079   1.283   9.312  11.362  1.0773 -0.3908  1.6753
  711MOL0     H98080   1.461   9.179  10.932  1.2127 -1.0096 -0.1084
  711MOL0     H98081   1.617   9.037  10.834 -0.4035  0.6226 -2.8978
  711MOL0     H98082   1.828   8.921  10.851 -1.3591  2.6174  1.0548
  711MOL0     H98083   1.944   8.926  10.715  0.2040  1.7954 -1.7411
  711MOL0     H98084   2.125   8.947  10.844  0.0996 -0.1639  2.3623
  711MOL0     H98085   2.030   9.075  10.937 -3.0814  0.0815  0.0281
  711MOL0     H98086   1.960   8.787  10.961  2.7764 -0.9198  0.6773
  711MOL0     H98087   1.933   8.923  11.077 -0.0592 -1.4129  0.0940
  711MOL0     H98088   2.170   8.929  11.153  1.8715 -1.5407  0.3708
  711MOL0     H98089   2.202   8.805  11.036 -0.7821  1.2571 -1.4574
  711MOL0     H98090   2.019   8.774  11.280 -0.1387  0.2509  0.6342
  711MOL0     H98091   2.044   8.659  11.142  0.5462 -1.4038  1.4269
  711MOL0     H98092   2.272   8.780  11.311  1.2893 -2.3690  1.0280
  711MOL0     H98093   2.298   8.647  11.212 -1.3745 -1.0943 -1.5030
  711MOL0     H98094   2.141   8.515  11.335 -0.8016  1.1917 -0.4987
  711MOL0     H98095   2.113   8.654  11.458 -1.9404  0.1741 -1.7962
  711MOL0     H98096   2.359   8.480  11.400  0.1393  2.0387 -3.4198
  711MOL0     H98097   2.248   8.490  11.550 -0.9583 -0.4442 -1.5044
  711MOL0     H98098   1.905   9.363  10.842  1.2699 -0.3133  0.3094
  711MOL0     H98099   1.751   9.501  10.952 -2.6453  1.3166  0.4480
  711MOL0     H98100   1.324   9.606  10.949 -2.9869 -0.0819 -1.7443
  711MOL0     H98101   1.148   9.772  11.020 -1.2381  1.3200  0.2155
  711MOL0     H98102   0.053  10.021  11.545 -0.1388 -1.7749  0.9293
  711MOL0     H98103   0.123  10.023  11.312  1.9338 -1.9113  0.4206
  711MOL0     H98104   0.073   9.883  10.919 -1.8911 -1.0648 -3.9510
  711MOL0     H98105   0.133   9.880  10.673  1.5400  2.0688 -0.4703
  711MOL0     H98106   0.555   9.787  10.569 -0.3708  2.6687  1.0798
  711MOL0     H98107   0.439   9.650  10.524 -0.9344  0.8607 -0.1592
  711MOL0     H98108   0.580   9.739  10.348 -0.1938 -1.9201 -0.3391
  711MOL0     H98109   0.501   9.899  10.386  0.9413 -0.9256  2.4533
  711MOL0     H98110   0.333   9.684  10.273  2.0874 -2.3452  4.0275
  711MOL0     H98111   0.303   9.855  10.305 -0.6827 -1.6519  2.9488
  711MOL0     H98112   0.510   9.886  10.130 -1.1066  2.1834  0.1324
  711MOL0     H98113   0.338   9.856  10.072 -1.2228 -2.2437 -1.0514
  711MOL0     H98114   0.474   9.499   9.919 -1.7805 -0.8842 -0.2864
  711MOL0     H98115   0.527   9.771  10.766 -0.4813 -1.8271 -1.2415
  711MOL0     H98116   0.605   9.695  10.962 -1.1708 -2.1947  0.0803
  711MOL0     H98117   0.582   9.844  11.041  1.1561 -1.2891  2.8020
  711MOL0     H98118   0.511   9.695  11.107  6.2153 -1.0967  0.5397
  712MOL0     O98119   8.983   7.737   9.322 -0.2220  1.2940 -0.1805
  712MOL0     C98120   8.903   7.687   9.247  0.2931  0.2302 -0.0731
  712MOL0     O98121   8.831   7.571   9.270 -0.5271 -0.4260 -1.0966
  712MOL0     C98122   8.830   7.523   9.406  0.2984 -0.1521 -0.6177
  712MOL0     C98123   8.890   7.403   9.441 -0.4925 -0.3674  0.5732
  712MOL0     C98124   8.884   7.361   9.574 -0.3485  0.4220  0.2995
  712MOL0     C98125   8.824   7.442   9.674  0.4989 -1.0242 -1.3185
  712MOL0     O98126   8.810   7.413   9.810 -0.3023 -0.9252  0.0832
  712MOL0     C98127   8.859   7.288   9.863 -0.6272  0.2478  0.1112
  712MOL0     C98128   8.956   7.308   9.975 -0.6560 -0.1187  0.6773
  712MOL0     C98129   9.073   7.415   9.938 -0.0230 -0.7325 -0.0538
  712MOL0     C98130   9.203   7.427  10.025  0.5784  0.2132 -0.3850
  712MOL0     C98131   9.184   7.518  10.150  0.1997  0.5391 -0.6053
  712MOL0     C98132   9.308   7.530  10.235  0.5856  1.2780  0.0279
  712MOL0     C98133   9.303   7.651  10.339  0.4575  0.3023 -0.4762
  712MOL0     C98134   9.302   7.785  10.267 -0.1137  0.9665  0.2392
  712MOL0     N98135   9.333   7.881  10.377 -0.6271  0.2861 -0.7134
  712MOL0     C98136   9.460   7.938  10.405  0.5453 -0.7753  0.4177
  712MOL0     C98137   9.455   7.943  10.541 -0.8794 -0.1644  1.0562
  712MOL0     C98138   9.570   7.995  10.616 -0.4965  0.5043 -0.0968
  712MOL0     C98139   9.544   8.134  10.662 -0.2792 -0.2499 -0.0583
  712MOL0     C98140   9.635   8.179  10.779  0.1094 -0.2332 -0.2272
  712MOL0     C98141   9.785   8.154  10.758  0.0937  0.0959  0.4637
  712MOL0     O98142   9.845   8.229  10.646 -0.0488  0.1419  0.5390
  712MOL0     C98143   9.829   8.363  10.646  0.0557  0.9931 -0.6376
  712MOL0     C98144   9.800   8.430  10.535 -0.5563 -0.1987  0.0266
  712MOL0     C98145   9.776   8.567  10.535  0.5751 -0.8189 -0.0790
  712MOL0     C98146   9.763   8.630  10.403 -0.3106  0.3770 -0.1681
  712MOL0     C98147   9.785   8.642  10.656  0.3171  0.4211  0.2309
  712MOL0     C98148   9.764   8.791  10.676 -0.1748  0.2598 -0.6708
  712MOL0     O98149   9.777   8.846  10.794 -0.3420  0.1516 -0.5934
  712MOL0     C98150   9.774   8.987  10.805 -0.2268  0.4316 -0.1256
  712MOL0     C98151   9.873   9.054  10.881  0.1649  0.1380  0.7392
  712MOL0     C98152   9.860   9.186  10.909 -0.9553  0.3165 -0.5155
  712MOL0     C98153   9.739   9.250  10.882  0.4428 -0.5075 -0.4984
  712MOL0     O98154   9.709   9.386  10.920  1.0461  0.6656 -0.1280
  712MOL0     C98155   9.790   9.440  11.031  0.4750 -0.2791  0.1037
  712MOL0     C98156   9.907   9.515  10.978  1.6508 -0.7240 -0.1065
  712MOL0     C98157   9.860   9.649  10.926 -0.2276  0.3540 -0.9953
  712MOL0     C98158   9.988   9.691  10.840  0.3414  0.5890 -0.2862
  712MOL0     C98159   9.975   9.837  10.792  0.2805  0.5316  0.1307
  712MOL0     C98160  10.101   9.938  10.807  0.7200  0.4129 -0.2812
  712MOL0     C98161  10.072  10.057  10.719  0.2170 -0.6314  0.4716
  712MOL0     C98162  10.154  10.182  10.754  0.5133  0.2231  0.9455
  712MOL0    Cl98163  10.123  10.255  10.917  0.4454 -0.3392  0.2230
  712MOL0     C98164   9.652   9.182  10.803 -0.0775 -0.0736 -0.3432
  712MOL0     C98165   9.663   9.050  10.759 -0.4614 -0.8192  0.2724
  712MOL0     O98166   9.738   8.855  10.575  0.3696 -0.0735 -0.3334
  712MOL0     C98167   9.826   8.568  10.765  0.7488  0.2307 -0.0620
  712MOL0     C98168   9.856   8.431  10.759  0.1074  0.4141 -0.6321
  712MOL0     N98169   9.328   7.903  10.589  0.3141  1.0909  1.1094
  712MOL0     N98170   9.260   7.867  10.489  0.3366 -0.1899  0.8215
  712MOL0     C98171   8.761   7.558   9.640  0.5672 -0.0756 -0.0049
  712MOL0     C98172   8.761   7.601   9.504  0.0055 -0.2762  0.5506
  712MOL0     C98173   8.877   7.777   9.127 -0.5098 -0.1332  0.7183
  712MOL0     C98174   8.891   7.910   9.143  0.3191 -0.1306  0.0513
  712MOL0     C98175   8.873   8.003   9.038 -0.1751 -0.0006 -0.3613
  712MOL0     C98176   8.837   7.964   8.916  0.3602  0.1108  0.2815
  712MOL0     O98177   8.828   8.029   8.798  0.4144 -0.2599  0.1457
  712MOL0     C98178   8.710   8.039   8.724 -0.7676 -0.7575  0.2146
  712MOL0     C98179   8.680   8.188   8.747  0.5130 -0.3871  0.2340
  712MOL0     C98180   8.558   8.217   8.648 -0.0029  0.3426 -0.4688
  712MOL0     C98181   8.409   8.206   8.705  0.3871  0.3328 -0.7558
  712MOL0     C98182   8.390   8.263   8.839  0.1927 -0.0811  1.0895
  712MOL0     C98183   8.351   8.292   8.949 -1.6456 -0.0544 -0.7083
  712MOL0     C98184   8.815   7.829   8.901  0.5680 -0.1168  0.0798
  712MOL0     C98185   8.833   7.731   9.003 -0.2974  0.0676  0.9812
  712MOL0     C98186   8.799   7.581   8.974 -0.0716 -0.7617  0.2939
  712MOL0     H98187   8.943   7.354   9.360 -1.4957  2.5381 -2.0423
  712MOL0     H98188   8.933   7.270   9.607  0.0987 -0.0271 -1.4888
  712MOL0     H98189   8.894   7.213   9.791  2.5365  0.0748  1.6773
  712MOL0     H98190   8.771   7.246   9.913  0.3870 -0.3771  1.4353
  712MOL0     H98191   8.896   7.338  10.062 -1.8798  3.3818 -1.1931
  712MOL0     H98192   8.999   7.210   9.999 -4.5682 -2.0503  0.4672
  712MOL0     H98193   9.085   7.418   9.829 -3.3964  0.7794 -0.5303
  712MOL0     H98194   9.039   7.519   9.952  0.8210 -0.6507  1.5539
  712MOL0     H98195   9.224   7.324  10.054  2.4799  0.1618 -1.8281
  712MOL0     H98196   9.275   7.482   9.963  0.5355  0.3317 -0.3320
  712MOL0     H98197   9.107   7.463  10.204  0.3736 -0.6414 -1.5271
  712MOL0     H98198   9.131   7.611  10.128 -2.0328 -0.3269  0.7283
  712MOL0     H98199   9.324   7.437  10.291 -1.4743 -1.3603 -3.3945
  712MOL0     H98200   9.396   7.544  10.171  2.5500  2.4468  2.7492
  712MOL0     H98201   9.383   7.637  10.412 -1.5699 -2.4323  1.4687
  712MOL0     H98202   9.213   7.643  10.400 -0.7217  2.5423 -1.8229
  712MOL0     H98203   9.376   7.788  10.187  0.4932  1.6054  0.8128
  712MOL0     H98204   9.204   7.816  10.229  0.8115  3.5515 -0.2619
  712MOL0     H98205   9.538   7.971  10.337 -1.9244 -0.3949 -2.4362
  712MOL0     H98206   9.644   7.992  10.536  1.2266 -2.6604  1.4271
  712MOL0     H98207   9.603   7.924  10.692  3.4066 -1.5758 -3.3370
  712MOL0     H98208   9.554   8.204  10.579 -0.1125  0.7913  0.8209
  712MOL0     H98209   9.447   8.135  10.712  0.7913 -1.2558  2.1901
  712MOL0     H98210   9.624   8.288  10.789  2.0628  0.1209 -1.3802
  712MOL0     H98211   9.605   8.128  10.871  0.0130 -1.9848 -1.1815
  712MOL0     H98212   9.840   8.165  10.852 -0.4906  1.8653  0.6409
  712MOL0     H98213   9.800   8.048  10.736 -0.7385 -0.0671  0.6482
  712MOL0     H98214   9.782   8.365  10.450 -4.5664  0.2627  0.3351
  712MOL0     H98215   9.834   8.713  10.398 -0.9227  0.8587 -1.4487
  712MOL0     H98216   9.669   8.681  10.381  0.1160  0.7820 -1.1059
  712MOL0     H98217   9.779   8.562  10.319  2.4028 -2.9271  2.6869
  712MOL0     H98218   9.961   8.996  10.905  0.3267 -0.3472 -0.8790
  712MOL0     H98219   9.935   9.233  10.971 -0.1889  1.4710 -2.2487
  712MOL0     H98220   9.729   9.512  11.087 -0.8398  0.5346 -2.2414
  712MOL0     H98221   9.817   9.363  11.103  2.2705  1.8103  1.8377
  712MOL0     H98222   9.981   9.531  11.057  1.3396  0.7660 -0.0926
  712MOL0     H98223   9.957   9.454  10.903  0.4968 -0.8042 -0.8325
  712MOL0     H98224   9.842   9.722  11.006  2.3483 -2.0005  2.0308
  712MOL0     H98225   9.773   9.639  10.861 -0.5934 -2.1469 -0.2316
  712MOL0     H98226   9.997   9.629  10.750 -1.3763  0.3543 -0.3176
  712MOL0     H98227  10.082   9.685  10.896 -0.4415  2.9580  1.4711
  712MOL0     H98228   9.930   9.848  10.693 -3.6813  4.4158  1.9893
  712MOL0     H98229   9.901   9.890  10.853 -0.6250  0.7649 -1.1381
  712MOL0     H98230  10.185   9.876  10.775  0.6830  0.9588 -1.4936
  712MOL0     H98231  10.119   9.970  10.910  1.6601  0.4693 -0.4564
  712MOL0     H98232   9.968  10.091  10.726  0.4643  0.4325 -0.5579
  712MOL0     H98233  10.089  10.022  10.616  1.0185 -2.4350  1.1887
  712MOL0     H98234  10.133  10.253  10.674  0.1424 -1.2623 -0.3384
  712MOL0     H98235  10.259  10.150  10.746 -0.0955 -1.6392 -0.3181
  712MOL0     H98236   9.568   9.243  10.771  1.4191  2.6741  0.6413
  712MOL0     H98237   9.580   9.008  10.704 -0.8836 -1.6917  1.5303
  712MOL0     H98238   9.826   8.630  10.854 -0.3767  1.9272 -1.1681
  712MOL0     H98239   9.898   8.392  10.851 -3.2918  1.1747  1.4259
  712MOL0     H98240   8.720   7.628   9.712  2.1291  2.4383 -1.4142
  712MOL0     H98241   8.726   7.695   9.462 -2.0110 -1.3974 -0.4416
  712MOL0     H98242   8.919   7.961   9.234  0.6537  1.1715 -0.7515
  712MOL0     H98243   8.873   8.110   9.059 -3.4557 -0.1137  0.8323
  712MOL0     H98244   8.739   8.023   8.620  2.4275 -0.2566  0.8994
  712MOL0     H98245   8.640   7.970   8.772 -1.8969 -0.1117 -0.4611
  712MOL0     H98246   8.759   8.263   8.736 -1.8991  2.2358 -0.3989
  712MOL0     H98247   8.642   8.201   8.849 -0.9617  2.6256 -0.5611
  712MOL0     H98248   8.567   8.318   8.607 -1.1151  0.7784  0.2826
  712MOL0     H98249   8.550   8.153   8.560 -0.2791  0.2936 -0.4107
  712MOL0     H98250   8.373   8.103   8.710 -2.6267  1.1919 -2.1443
  712MOL0     H98251   8.334   8.257   8.644 -0.0553  1.6156  0.7957
  712MOL0     H98252   8.325   8.328   9.046  2.5162 -0.6980  0.8516
  712MOL0     H98253   8.787   7.790   8.804 -2.1887 -0.2600  0.8521
  712MOL0     H98254   8.852   7.511   9.039 -1.4820 -0.0042  2.3309
  712MOL0     H98255   8.692   7.558   8.987 -0.8618  2.0163 -0.6703
  712MOL0     H98256   8.824   7.561   8.869 -2.0953  0.6025 -0.5082
  713MOL0     O98257   7.942   1.346   7.502 -0.4977 -0.1113  0.0779
  713MOL0     C98258   8.028   1.283   7.445 -0.3354  0.5883  0.8422
  713MOL0     O98259   8.151   1.248   7.501 -0.2261  0.2603  0.3814
  713MOL0     C98260   8.189   1.255   7.636  1.0080 -0.4915 -0.7796
  713MOL0     C98261   8.154   1.355   7.727  1.0865 -0.6018 -0.0084
  713MOL0     C98262   8.190   1.349   7.858  0.4111  0.6284  0.2344
  713MOL0     C98263   8.274   1.243   7.905 -0.3267  0.3652 -0.7956
  713MOL0     O98264   8.309   1.223   8.033  0.1386  0.0172 -0.0441
  713MOL0     C98265   8.382   1.329   8.088  0.6880 -0.1608  0.1847
  713MOL0     C98266   8.515   1.276   8.160 -0.0516 -1.7454  1.3969
  713MOL0     C98267   8.492   1.153   8.244 -0.0221  0.0601 -0.4832
  713MOL0     C98268   8.604   1.129   8.339 -0.0487  0.6354 -0.1263
  713MOL0     C98269   8.723   1.054   8.282  0.3777 -1.2830 -0.7289
  713MOL0     C98270   8.837   1.041   8.391  0.2893 -0.0774  0.1764
  713MOL0     C98271   8.947   1.138   8.361 -0.6817  0.2208 -0.1749
  713MOL0     C98272   9.029   1.150   8.488  0.1442  0.2641  0.7851
  713MOL0     N98273   9.141   1.232   8.452 -0.3115 -0.3762 -0.8147
  713MOL0     C98274   9.143   1.370   8.418 -0.3736 -1.2230 -0.9299
  713MOL0     C98275   9.264   1.385   8.365 -0.8289  1.0301 -0.7029
  713MOL0     C98276   9.330   1.516   8.318 -0.3454 -0.1505  0.1279
  713MOL0     C98277   9.370   1.510   8.168  0.0324  0.3736 -0.4286
  713MOL0     C98278   9.428   1.649   8.123 -1.2979  0.0173 -0.1612
  713MOL0     C98279   9.510   1.622   7.989 -1.4914 -0.3825 -0.1012
  713MOL0     O98280   9.637   1.579   8.032 -0.5428  0.6769 -0.9159
  713MOL0     C98281   9.736   1.600   7.942 -0.5858 -0.1097  0.5085
  713MOL0     C98282   9.775   1.730   7.911 -0.3438  0.3069 -0.2289
  713MOL0     C98283   9.853   1.755   7.791 -0.3126 -1.0385 -0.3836
  713MOL0     C98284   9.893   1.895   7.765  0.0258 -0.9586 -1.1831
  713MOL0     C98285   9.902   1.651   7.714 -0.1329  0.5563  0.5223
  713MOL0     C98286   9.974   1.670   7.589 -0.2749  0.3203 -0.6964
  713MOL0     O98287   9.977   1.558   7.521 -0.2543  0.7929 -0.0846
  713MOL0     C98288  10.026   1.566   7.392 -0.2663  0.9808 -0.6514
  713MOL0     C98289  10.136   1.494   7.349  0.1977 -0.3470 -0.8383
  713MOL0     C98290  10.213   1.522   7.228  0.2595 -0.8186  0.1690
  713MOL0     C98291  10.172   1.625   7.144 -0.2200 -0.5468  0.2085
  713MOL0     O98292  10.246   1.666   7.032 -0.5485  0.1221  0.9362
  713MOL0     C98293  10.173   1.668   6.909  0.6529  0.0903  0.4278
  713MOL0     C98294  10.144   1.815   6.857  0.4817  0.2592 -0.2789
  713MOL0     C98295  10.268   1.903   6.819  0.1698  1.0523  0.8236
  713MOL0     C98296  10.325   1.971   6.938 -0.3462  0.0554 -0.3378
  713MOL0     C98297  10.476   2.009   6.929 -0.2328  0.0152  0.1170
  713MOL0     C98298  10.564   1.887   6.949 -0.4569  0.7236  0.2448
  713MOL0     C98299  10.721   1.901   6.914 -0.2879  0.0614 -0.3950
  713MOL0     C98300  10.775   2.032   6.971  0.0498  0.4331 -0.0619
  713MOL0    Cl98301  10.737   2.172   6.862 -0.1575 -0.0039  0.2260
  713MOL0     C98302  10.058   1.694   7.188  0.2148 -0.3657  1.0132
  713MOL0     C98303   9.988   1.663   7.301  0.7298 -0.2118 -0.5907
  713MOL0     O98304  10.036   1.769   7.563  0.0605  0.0855 -0.1063
  713MOL0     C98305   9.861   1.519   7.751  0.2033 -0.4941 -0.3151
  713MOL0     C98306   9.777   1.499   7.857  0.5893  0.9526 -0.8287
  713MOL0     N98307   9.331   1.256   8.363  0.1138  0.9846 -0.3931
  713MOL0     N98308   9.259   1.172   8.421 -0.1660 -0.0208 -0.7243
  713MOL0     C98309   8.338   1.161   7.810  0.7769  0.4003 -0.5974
  713MOL0     C98310   8.297   1.178   7.673  0.8080  1.0033 -0.9679
  713MOL0     C98311   7.999   1.243   7.299  0.7049 -0.3329  0.4134
  713MOL0     C98312   7.948   1.353   7.216 -0.0021 -0.8059 -0.1518
  713MOL0     C98313   7.915   1.334   7.084 -0.7582 -0.8606  0.4618
  713MOL0     C98314   7.930   1.211   7.019 -0.2452  0.1513 -1.1439
  713MOL0     O98315   7.898   1.185   6.892  0.2298  0.2540  0.9370
  713MOL0     C98316   7.757   1.200   6.859 -0.2107 -0.9164  0.1872
  713MOL0     C98317   7.723   1.121   6.729  0.2932  0.0164  0.5825
  713MOL0     C98318   7.580   1.077   6.701  0.3927  0.2816  0.3751
  713MOL0     C98319   7.576   0.997   6.561 -0.3482  0.3393 -0.7432
  713MOL0     C98320   7.444   0.938   6.544 -0.0080  0.0416 -0.0298
  713MOL0     C98321   7.334   0.895   6.528  0.5831 -0.0241 -0.5289
  713MOL0     C98322   7.972   1.102   7.100  0.8915 -0.3756 -0.0750
  713MOL0     C98323   8.025   1.117   7.232 -0.2345 -0.6816 -0.8287
  713MOL0     C98324   8.080   1.004   7.311 -0.8846  0.0207  0.1904
  713MOL0     H98325   8.086   1.436   7.704  2.2635 -0.0614 -1.7496
  713MOL0     H98326   8.150   1.416   7.933  5.2537  2.2488  1.7516
  713MOL0     H98327   8.323   1.396   8.152 -0.6693 -0.3471 -0.8356
  713MOL0     H98328   8.425   1.387   8.006 -0.7415  0.6649 -0.0025
  713MOL0     H98329   8.594   1.265   8.086  1.1073  0.3534  2.2564
  713MOL0     H98330   8.545   1.363   8.218  0.1054 -1.4873  0.9258
  713MOL0     H98331   8.402   1.170   8.303 -1.0256 -0.1163 -1.9212
  713MOL0     H98332   8.472   1.071   8.175 -4.1584  1.0367 -0.6823
  713MOL0     H98333   8.651   1.224   8.366  2.9707 -1.3561  2.4074
  713MOL0     H98334   8.563   1.080   8.429  0.0455  2.8243  1.1797
  713MOL0     H98335   8.765   1.109   8.198  1.7317 -0.1659  0.6101
  713MOL0     H98336   8.696   0.954   8.247 -2.6581 -1.3367  1.4163
  713MOL0     H98337   8.788   1.076   8.483 -1.7491  3.1523 -1.9241
  713MOL0     H98338   8.884   0.943   8.396  0.3432 -0.3343 -3.1906
  713MOL0     H98339   8.911   1.239   8.339 -0.3291 -0.1685 -2.9280
  713MOL0     H98340   9.010   1.103   8.279 -3.4361 -0.4848 -2.1435
  713MOL0     H98341   8.974   1.178   8.579 -2.3705 -2.2061  0.1662
  713MOL0     H98342   9.060   1.046   8.504 -1.0698 -1.1145 -4.1330
  713MOL0     H98343   9.075   1.453   8.434  1.2648  0.6030 -2.8756
  713MOL0     H98344   9.411   1.535   8.390 -0.4468 -2.2135  0.8685
  713MOL0     H98345   9.258   1.597   8.331 -0.4948  0.0516 -1.7375
  713MOL0     H98346   9.438   1.425   8.158  0.9353  0.7974  1.6486
  713MOL0     H98347   9.284   1.488   8.105 -0.6666  0.2846  0.5357
  713MOL0     H98348   9.347   1.720   8.109 -0.8128  0.3931 -1.1572
  713MOL0     H98349   9.489   1.680   8.208 -1.8350 -1.4000  0.7688
  713MOL0     H98350   9.461   1.543   7.932  0.4042 -2.6352  1.1830
  713MOL0     H98351   9.520   1.714   7.931  1.5631 -0.6641 -0.2135
  713MOL0     H98352   9.751   1.822   7.963  0.4787  0.4921 -0.1510
  713MOL0     H98353   9.999   1.907   7.738  1.2652  1.9697  3.7018
  713MOL0     H98354   9.862   1.950   7.855 -3.0962  0.1112 -2.7684
  713MOL0     H98355   9.823   1.933   7.690  1.9658  1.0075 -2.1096
  713MOL0     H98356  10.170   1.419   7.420 -2.2232  0.7407  1.6520
  713MOL0     H98357  10.309   1.476   7.211  1.2409  0.3647  2.0971
  713MOL0     H98358  10.238   1.623   6.834  2.4551  0.1462  1.8875
  713MOL0     H98359  10.074   1.621   6.919  0.5848  0.5477  2.3395
  713MOL0     H98360  10.077   1.816   6.771  1.5107  1.6737 -1.1114
  713MOL0     H98361  10.083   1.868   6.930 -0.1282  2.3073 -2.1798
  713MOL0     H98362  10.256   1.976   6.740  0.1369 -0.9986 -1.1729
  713MOL0     H98363  10.343   1.832   6.783 -0.0171 -0.6650  3.4709
  713MOL0     H98364  10.319   1.908   7.027  2.6986 -4.3451 -2.8610
  713MOL0     H98365  10.281   2.069   6.959  0.9750  1.1903 -2.4963
  713MOL0     H98366  10.495   2.057   6.833  2.4893  0.2016  0.6936
  713MOL0     H98367  10.509   2.072   7.012  0.9105 -0.2631 -0.1198
  713MOL0     H98368  10.520   1.823   6.871  0.7019 -3.7756  2.9313
  713MOL0     H98369  10.556   1.838   7.046 -2.7261 -2.3471 -1.2922
  713MOL0     H98370  10.745   1.892   6.808  4.2085 -0.1427  0.4298
  713MOL0     H98371  10.775   1.823   6.968  0.1744 -0.3649 -1.4430
  713MOL0     H98372  10.884   2.036   6.976  0.1091 -0.7456 -0.1419
  713MOL0     H98373  10.733   2.048   7.071  2.5805 -2.6295  1.6668
  713MOL0     H98374  10.025   1.784   7.138  0.3487  0.5189  2.4306
  713MOL0     H98375   9.900   1.723   7.325  0.3092 -2.0594  3.2412
  713MOL0     H98376   9.888   1.434   7.689  2.0614 -0.1666 -0.0091
  713MOL0     H98377   9.748   1.397   7.876 -1.3414  2.0095  2.7203
  713MOL0     H98378   8.386   1.066   7.832  2.3046  1.1904 -0.3701
  713MOL0     H98379   8.350   1.111   7.607  0.5079  2.1717 -2.4605
  713MOL0     H98380   7.938   1.452   7.261 -2.8990 -0.3333 -1.5735
  713MOL0     H98381   7.868   1.411   7.024  0.0536 -1.8242 -1.4968
  713MOL0     H98382   7.697   1.161   6.941 -1.2825 -0.4833 -0.3693
  713MOL0     H98383   7.723   1.304   6.864 -0.6829 -1.1284  1.8103
  713MOL0     H98384   7.789   1.034   6.730 -2.2131 -2.0319  0.0290
  713MOL0     H98385   7.745   1.195   6.653 -0.0971  0.5023  0.9358
  713MOL0     H98386   7.535   1.013   6.777 -2.0401  2.5909  1.0286
  713MOL0     H98387   7.515   1.165   6.697 -0.1880 -0.1962 -2.1644
  713MOL0     H98388   7.662   0.929   6.565 -0.6531 -0.0100  2.1472
  713MOL0     H98389   7.595   1.071   6.482 -2.9001  1.3687 -0.4877
  713MOL0     H98390   7.234   0.858   6.536  0.6158 -0.6856 -2.5881
  713MOL0     H98391   7.999   1.003   7.063  2.4682  0.5093 -1.4422
  713MOL0     H98392   8.013   0.983   7.395 -2.4265  0.7311 -0.8169
  713MOL0     H98393   8.093   0.918   7.246  0.5054  0.5450 -0.2560
  713MOL0     H98394   8.179   1.034   7.345 -1.3404  1.3400  0.4088
  714MOL0     O98395   2.357   3.455   3.313  0.2234  1.1612  0.0816
  714MOL0     C98396   2.254   3.389   3.318 -0.0598 -0.2808 -0.5248
  714MOL0     O98397   2.128   3.437   3.294 -0.7214 -0.1665  0.1953
  714MOL0     C98398   2.116   3.572   3.280  0.2305  0.7528 -0.5668
  714MOL0     C98399   2.042   3.607   3.168  0.5995 -0.2576 -0.6586
  714MOL0     C98400   2.009   3.736   3.145 -0.3261 -0.6485  0.1888
  714MOL0     C98401   2.039   3.835   3.238 -0.9394  0.7473  0.3124
  714MOL0     O98402   1.996   3.964   3.211 -0.2731  0.2518  0.2042
  714MOL0     C98403   2.066   4.035   3.110  0.0569  0.8362 -0.4236
  714MOL0     C98404   2.138   4.160   3.176  0.0993 -0.7906 -0.0055
  714MOL0     C98405   2.240   4.226   3.086 -0.3060 -1.4092  0.3181
  714MOL0     C98406   2.172   4.301   2.975 -0.5367 -0.2364 -1.1608
  714MOL0     C98407   2.280   4.334   2.871 -0.9234  1.3565 -0.4251
  714MOL0     C98408   2.305   4.206   2.774 -0.7395  0.4717  0.3605
  714MOL0     C98409   2.417   4.239   2.670  1.0755  0.1954  0.0854
  714MOL0     C98410   2.400   4.148   2.552 -0.2151 -0.6663 -0.2514
  714MOL0     N98411   2.526   4.118   2.487  0.9088  0.0659  0.1510
  714MOL0     C98412   2.542   4.127   2.349 -1.1230 -0.3008  0.3511
  714MOL0     C98413   2.675   4.101   2.331 -0.5182  0.1749 -0.6822
  714MOL0     C98414   2.755   4.109   2.206  0.3949  0.7943  0.9596
  714MOL0     C98415   2.708   4.011   2.094  0.4328  0.0494  0.3737
  714MOL0     C98416   2.819   3.966   2.009 -0.3425  0.0503  0.4398
  714MOL0     C98417   2.775   3.855   1.918  0.0596 -1.0932 -0.1160
  714MOL0     O98418   2.674   3.910   1.822  0.0339 -0.1956  0.4113
  714MOL0     C98419   2.603   3.830   1.727 -0.3463  0.5337 -0.0662
  714MOL0     C98420   2.656   3.725   1.648 -0.2901  0.4814  0.1692
  714MOL0     C98421   2.584   3.645   1.550 -0.1059  0.4690 -0.6090
  714MOL0     C98422   2.650   3.524   1.485 -1.1612 -0.3447 -0.4177
  714MOL0     C98423   2.449   3.697   1.521 -1.7458  0.1330 -0.0090
  714MOL0     C98424   2.357   3.646   1.410 -0.5239 -0.4309  0.4009
  714MOL0     O98425   2.238   3.711   1.398 -0.0581  0.1995  0.3873
  714MOL0     C98426   2.135   3.654   1.331 -0.5294  0.9018  0.0624
  714MOL0     C98427   2.013   3.711   1.349  0.1439 -0.8899 -0.1551
  714MOL0     C98428   1.889   3.670   1.285  0.3198 -0.4749 -0.8701
  714MOL0     C98429   1.892   3.577   1.189  0.1602  0.3584  1.0804
  714MOL0     O98430   1.769   3.544   1.142 -0.4604 -0.3560 -0.0855
  714MOL0     C98431   1.739   3.401   1.169 -0.7564 -0.1296  0.0369
  714MOL0     C98432   1.734   3.328   1.034  0.9287  0.0054 -0.7990
  714MOL0     C98433   1.705   3.174   1.051  0.7196 -0.1132  0.1765
  714MOL0     C98434   1.563   3.145   1.121 -0.6511  0.8483  0.2115
  714MOL0     C98435   1.499   3.004   1.097  0.2225  1.0287  0.0660
  714MOL0     C98436   1.377   2.973   1.189  0.1416  0.1651 -0.0684
  714MOL0     C98437   1.328   2.823   1.167 -0.0220  0.2565  0.1376
  714MOL0     C98438   1.219   2.781   1.264 -0.9768 -0.5135 -0.6482
  714MOL0    Cl98439   1.287   2.776   1.435 -0.0923 -0.2149  0.3246
  714MOL0     C98440   2.015   3.520   1.155 -0.7281 -0.4253 -0.4077
  714MOL0     C98441   2.129   3.546   1.239  0.5495 -0.4293  0.1012
  714MOL0     O98442   2.385   3.540   1.355 -1.1141 -0.2639 -0.0714
  714MOL0     C98443   2.403   3.817   1.592  0.3768  0.7581 -0.0654
  714MOL0     C98444   2.469   3.870   1.702 -0.5516 -0.2591  1.0031
  714MOL0     N98445   2.732   4.091   2.458 -0.0606  1.2187 -0.7489
  714MOL0     N98446   2.644   4.118   2.551 -0.2792 -0.3134 -0.0347
  714MOL0     C98447   2.099   3.796   3.360 -1.3342 -0.3157 -0.4384
  714MOL0     C98448   2.138   3.665   3.383 -0.2089 -0.1880 -0.4442
  714MOL0     C98449   2.270   3.248   3.362 -0.4042 -0.0409 -0.1511
  714MOL0     C98450   2.177   3.154   3.319 -0.2131 -0.0509  0.3396
  714MOL0     C98451   2.177   3.023   3.368 -1.0916  0.7801 -0.3619
  714MOL0     C98452   2.259   2.983   3.469  0.7595 -0.1029  0.3752
  714MOL0     O98453   2.278   2.858   3.531 -0.7473 -0.2335 -0.3920
  714MOL0     C98454   2.242   2.745   3.453 -0.0142  0.0975 -0.0190
  714MOL0     C98455   2.294   2.607   3.512  0.7795  0.0250  0.3749
  714MOL0     C98456   2.440   2.610   3.552 -0.5751 -0.7082  0.7001
  714MOL0     C98457   2.546   2.670   3.464 -0.4285  0.4551  0.2610
  714MOL0     C98458   2.614   2.788   3.509  0.0750  0.8164  0.0560
  714MOL0     C98459   2.668   2.893   3.529 -0.2839 -0.2054  0.1360
  714MOL0     C98460   2.347   3.071   3.513 -0.4738  0.1449  0.0296
  714MOL0     C98461   2.366   3.203   3.459  0.6094 -0.8601 -0.2118
  714MOL0     C98462   2.472   3.293   3.512 -0.1088 -0.2637  0.7891
  714MOL0     H98463   2.010   3.531   3.098 -0.8244 -0.4470  0.1646
  714MOL0     H98464   1.962   3.772   3.054  1.2091 -0.3142 -0.5125
  714MOL0     H98465   2.006   4.064   3.023 -0.7189  2.6574  0.6501
  714MOL0     H98466   2.143   3.967   3.073 -1.8355 -1.6061 -0.1135
  714MOL0     H98467   2.058   4.231   3.199  2.7487  3.2478 -2.0283
  714MOL0     H98468   2.194   4.130   3.265 -1.4194 -3.5059  0.1233
  714MOL0     H98469   2.307   4.291   3.142 -0.7497 -0.0824 -0.6576
  714MOL0     H98470   2.296   4.149   3.032 -0.8363 -1.3660 -0.3083
  714MOL0     H98471   2.090   4.245   2.927 -2.7547  3.2285 -1.7552
  714MOL0     H98472   2.132   4.389   3.026 -0.9921 -2.4509  2.7005
  714MOL0     H98473   2.377   4.362   2.913 -0.9991 -0.4920  1.1677
  714MOL0     H98474   2.244   4.421   2.815  0.2042  1.8110 -0.4585
  714MOL0     H98475   2.337   4.117   2.828  1.0536 -0.6735 -2.3984
  714MOL0     H98476   2.216   4.194   2.711  0.5820  3.2272 -2.3057
  714MOL0     H98477   2.503   4.222   2.736 -2.3935 -4.1829  4.2130
  714MOL0     H98478   2.399   4.342   2.641 -2.2633 -0.0311  0.9461
  714MOL0     H98479   2.365   4.050   2.585  2.3705 -1.1358  1.4528
  714MOL0     H98480   2.336   4.196   2.478  5.3333  1.9223 -4.1357
  714MOL0     H98481   2.472   4.165   2.275 -2.5327 -0.0798  1.7312
  714MOL0     H98482   2.860   4.100   2.234  0.3974 -0.1705  0.6792
  714MOL0     H98483   2.752   4.209   2.162  3.9086  0.0640 -1.3168
  714MOL0     H98484   2.648   3.927   2.130 -0.8600  0.7391 -0.0902
  714MOL0     H98485   2.640   4.066   2.028  0.9234 -1.4492 -1.4728
  714MOL0     H98486   2.864   4.049   1.955  0.2302 -1.7612 -2.0201
  714MOL0     H98487   2.884   3.927   2.088 -0.5402  1.0737  1.1174
  714MOL0     H98488   2.866   3.812   1.873  1.5427  4.2925 -3.1600
  714MOL0     H98489   2.749   3.774   1.987  0.4618  0.5443  2.0820
  714MOL0     H98490   2.760   3.695   1.643 -1.2305 -2.9849 -2.3043
  714MOL0     H98491   2.655   3.524   1.376  0.9306 -1.0172 -0.3512
  714MOL0     H98492   2.602   3.436   1.528  4.4719 -3.0301  1.3277
  714MOL0     H98493   2.753   3.504   1.517 -0.7732 -0.2106 -1.5485
  714MOL0     H98494   2.016   3.792   1.422  3.9182 -1.6812  0.8020
  714MOL0     H98495   1.794   3.722   1.294 -0.4115 -1.7690 -0.7296
  714MOL0     H98496   1.824   3.361   1.226 -1.0977 -0.0155  0.6387
  714MOL0     H98497   1.658   3.384   1.241 -1.2036  0.3211 -0.3549
  714MOL0     H98498   1.654   3.383   0.984  0.6073 -1.1328 -1.5621
  714MOL0     H98499   1.827   3.356   0.985  1.9860  0.3029  1.2666
  714MOL0     H98500   1.799   3.129   1.086  0.0019 -1.1995  0.7481
  714MOL0     H98501   1.695   3.141   0.948 -2.7649  2.0331 -0.3578
  714MOL0     H98502   1.496   3.224   1.087 -1.4274  0.2293  0.2812
  714MOL0     H98503   1.567   3.157   1.230  3.0865 -0.0773  0.3034
  714MOL0     H98504   1.463   2.998   0.994  1.9762 -1.7874 -0.4775
  714MOL0     H98505   1.578   2.929   1.102 -0.6782  0.0446 -0.2368
  714MOL0     H98506   1.304   3.047   1.152  1.3624  0.3126 -2.4082
  714MOL0     H98507   1.399   2.996   1.293 -0.1490  0.4034 -0.0574
  714MOL0     H98508   1.416   2.760   1.186 -0.8273 -1.3554 -1.2721
  714MOL0     H98509   1.299   2.809   1.063  1.8336 -0.9006 -0.2663
  714MOL0     H98510   1.164   2.688   1.249 -1.5440 -1.1105  3.6992
  714MOL0     H98511   1.146   2.861   1.278  1.0169  1.2156  0.5107
  714MOL0     H98512   2.039   3.430   1.099  5.9805 -0.7745  2.1398
  714MOL0     H98513   2.209   3.476   1.217  2.0399  0.5014  2.2110
  714MOL0     H98514   2.315   3.869   1.555 -0.2663  0.6552  1.2578
  714MOL0     H98515   2.437   3.953   1.764 -0.3407 -0.0843  0.8791
  714MOL0     H98516   2.130   3.870   3.432  1.2669 -0.8942 -0.8557
  714MOL0     H98517   2.164   3.634   3.484 -0.1380  0.8742 -0.1229
  714MOL0     H98518   2.097   3.185   3.253  0.3420 -0.0370 -0.3398
  714MOL0     H98519   2.099   2.954   3.339 -0.1242 -1.1468  1.3413
  714MOL0     H98520   2.133   2.748   3.441  0.1116  1.7964 -1.0518
  714MOL0     H98521   2.266   2.761   3.348 -4.8808  2.2453 -1.0622
  714MOL0     H98522   2.269   2.535   3.432  1.9477  1.5259 -1.4149
  714MOL0     H98523   2.235   2.569   3.596 -2.1279  0.3634 -1.3662
  714MOL0     H98524   2.448   2.652   3.653 -1.6088  2.0651 -0.2638
  714MOL0     H98525   2.477   2.509   3.573  0.0425 -0.5777  0.2590
  714MOL0     H98526   2.484   2.683   3.375 -0.9746 -1.4394  0.3192
  714MOL0     H98527   2.622   2.594   3.445 -2.2102 -1.2009 -0.5723
  714MOL0     H98528   2.734   2.976   3.514  0.2506 -0.6865 -0.2053
  714MOL0     H98529   2.403   3.041   3.601 -2.2385 -0.7265  0.8943
  714MOL0     H98530   2.542   3.331   3.438  1.3980  1.1717  2.8251
  714MOL0     H98531   2.432   3.385   3.554 -1.5025 -0.8181  0.7370
  714MOL0     H98532   2.517   3.242   3.598 -3.3148 -2.4793  1.3248
  715MOL0     O98533   6.998   2.466  10.563 -0.0516  0.2790 -0.5919
  715MOL0     C98534   6.933   2.545  10.645 -0.7681  0.6049  0.3492
  715MOL0     O98535   6.798   2.521  10.684 -0.2697  0.0064  0.4326
  715MOL0     C98536   6.722   2.426  10.622 -0.3625  0.6915  0.0726
  715MOL0     C98537   6.713   2.289  10.679 -0.1989 -0.1914 -0.0276
  715MOL0     C98538   6.645   2.190  10.612  0.0630  0.2498  0.2736
  715MOL0     C98539   6.576   2.214  10.495 -1.0407 -1.0933  0.0338
  715MOL0     O98540   6.496   2.123  10.445 -0.5458 -0.4461  0.2463
  715MOL0     C98541   6.547   2.075  10.328 -0.3660 -0.0836  0.6722
  715MOL0     C98542   6.494   1.938  10.296 -0.2773  0.1830  1.3475
  715MOL0     C98543   6.357   1.951  10.267  1.0183  0.1255 -0.2222
  715MOL0     C98544   6.317   1.841  10.162  0.1243 -0.0533 -0.7809
  715MOL0     C98545   6.303   1.701  10.217 -1.4056  0.2248 -0.0945
  715MOL0     C98546   6.221   1.674  10.340  0.2487  0.2696  0.9146
  715MOL0     C98547   6.082   1.739  10.335 -0.1978 -0.8266  0.0046
  715MOL0     C98548   5.991   1.672  10.442  0.1231  0.2955 -0.1841
  715MOL0     N98549   5.909   1.569  10.372 -0.2402  0.0933 -0.4694
  715MOL0     C98550   5.791   1.588  10.305  0.2237  0.6139 -0.2997
  715MOL0     C98551   5.750   1.469  10.258 -0.3887  0.7277  0.3841
  715MOL0     C98552   5.633   1.441  10.172 -0.5459 -0.7416 -0.2582
  715MOL0     C98553   5.682   1.345  10.064  0.3345  0.8318 -0.8576
  715MOL0     C98554   5.581   1.355   9.951 -0.0156  0.0138 -0.1023
  715MOL0     C98555   5.608   1.245   9.848 -1.1005 -0.0658  0.1238
  715MOL0     O98556   5.722   1.279   9.778 -0.2909  0.0038  1.5087
  715MOL0     C98557   5.765   1.191   9.680  0.8528 -0.4053  0.4096
  715MOL0     C98558   5.856   1.237   9.593 -0.1540  0.0934 -0.0304
  715MOL0     C98559   5.904   1.160   9.482 -1.1787 -0.2136  0.7518
  715MOL0     C98560   5.984   1.219   9.372 -1.2000 -0.0899  0.2497
  715MOL0     C98561   5.866   1.031   9.477 -0.7904  0.8097  0.0739
  715MOL0     C98562   5.925   0.937   9.390 -0.5863  0.5523 -1.1160
  715MOL0     O98563   6.064   0.918   9.411  0.3802  0.2800  0.6689
  715MOL0     C98564   6.114   0.795   9.384  0.7289  0.2007  0.0003
  715MOL0     C98565   6.141   0.772   9.252 -0.7566  0.3015 -0.4703
  715MOL0     C98566   6.192   0.649   9.203  0.5226  0.3094 -0.8802
  715MOL0     C98567   6.232   0.549   9.291  0.0081 -0.1858  0.2807
  715MOL0     O98568   6.272   0.422   9.260  0.3664  0.3044  0.6330
  715MOL0     C98569   6.388   0.415   9.173 -0.1635 -0.0626 -0.3668
  715MOL0     C98570   6.438   0.278   9.175  0.4098 -0.3928 -0.1054
  715MOL0     C98571   6.322   0.166   9.161 -0.8952 -1.4174  0.9032
  715MOL0     C98572   6.379   0.035   9.201 -0.2746 -0.0200  0.1672
  715MOL0     C98573   6.272  -0.085   9.201 -0.3309  0.6632 -0.5062
  715MOL0     C98574   6.341  -0.220   9.157 -0.6804 -0.0293 -0.0355
  715MOL0     C98575   6.251  -0.332   9.168  0.8550  0.6533  0.1643
  715MOL0     C98576   6.222  -0.421   9.046 -0.1537 -0.4303 -0.0868
  715MOL0    Cl98577   6.392  -0.466   8.993  0.0276 -0.2083 -0.3287
  715MOL0     C98578   6.207   0.574   9.426  1.1488 -0.2484 -0.1183
  715MOL0     C98579   6.146   0.704   9.479  0.0703 -0.1764  0.1324
  715MOL0     O98580   5.864   0.882   9.305 -0.0224 -0.5830 -0.0070
  715MOL0     C98581   5.773   0.978   9.570 -0.4319  0.0078 -0.6803
  715MOL0     C98582   5.725   1.055   9.674 -0.3973 -0.0272 -0.0520
  715MOL0     N98583   5.844   1.383  10.302 -0.7786 -0.0379  0.2563
  715MOL0     N98584   5.950   1.438  10.363 -0.1068  0.4104  0.4979
  715MOL0     C98585   6.593   2.339  10.436  0.2956  0.4295 -0.7125
  715MOL0     C98586   6.659   2.442  10.499 -0.3327 -0.1964  0.4147
  715MOL0     C98587   7.008   2.660  10.708  1.3436 -0.3908  0.3547
  715MOL0     C98588   7.103   2.718  10.627 -0.1054  0.0733  0.3532
  715MOL0     C98589   7.168   2.836  10.653  0.6859  1.2442  0.6421
  715MOL0     C98590   7.148   2.899  10.777  0.3016  0.9429 -0.1918
  715MOL0     O98591   7.190   3.024  10.799  0.3548 -0.6690  0.5603
  715MOL0     C98592   7.314   3.062  10.747  0.9533 -0.5038  0.5496
  715MOL0     C98593   7.368   3.187  10.818  0.1557 -0.3990  0.2934
  715MOL0     C98594   7.269   3.299  10.833  0.4389 -0.2548  1.2154
  715MOL0     C98595   7.348   3.430  10.842  0.2855 -0.4432 -0.1966
  715MOL0     C98596   7.400   3.435  10.982 -0.1748 -0.1198  0.3982
  715MOL0     C98597   7.439   3.472  11.092 -0.3594 -0.3055  0.0497
  715MOL0     C98598   7.060   2.839  10.864 -0.0186 -0.1395  0.4711
  715MOL0     C98599   6.984   2.720  10.829 -0.7479 -0.1193 -0.4049
  715MOL0     C98600   6.880   2.672  10.937 -0.4380  0.9088  0.6458
  715MOL0     H98601   6.759   2.276  10.777 -1.0665 -4.5410 -0.0172
  715MOL0     H98602   6.627   2.094  10.657 -2.6157  1.0814  1.1451
  715MOL0     H98603   6.656   2.063  10.322 -0.6168 -2.2065 -0.8651
  715MOL0     H98604   6.527   2.145  10.246  1.4363 -0.7087 -0.3788
  715MOL0     H98605   6.552   1.904  10.209  1.8249  3.7850  1.1570
  715MOL0     H98606   6.515   1.876  10.384 -0.3102 -0.0741  1.1750
  715MOL0     H98607   6.296   1.933  10.356 -1.7565  3.1834 -1.2952
  715MOL0     H98608   6.322   2.045  10.224 -1.0571  0.9462  2.9032
  715MOL0     H98609   6.219   1.863  10.119  0.8376  2.7986 -1.1185
  715MOL0     H98610   6.384   1.843  10.075  2.7834  0.7361  1.1417
  715MOL0     H98611   6.405   1.668  10.238 -0.4644 -0.0403 -4.2533
  715MOL0     H98612   6.273   1.640  10.131 -0.9978 -1.6991  1.0774
  715MOL0     H98613   6.216   1.565  10.352 -0.5223  0.2491  0.4772
  715MOL0     H98614   6.272   1.724  10.423  2.7164  1.1151 -0.9987
  715MOL0     H98615   6.031   1.735  10.238 -0.7248 -1.4542  0.3002
  715MOL0     H98616   6.086   1.844  10.365 -1.6298 -0.7109 -0.1377
  715MOL0     H98617   6.054   1.634  10.522 -0.9297 -0.0769  0.4813
  715MOL0     H98618   5.937   1.748  10.498  3.4148  2.9020 -0.1904
  715MOL0     H98619   5.729   1.677  10.311 -0.4410  0.0913  0.8861
  715MOL0     H98620   5.596   1.537  10.134 -1.8115 -1.3581 -0.6464
  715MOL0     H98621   5.548   1.385  10.213 -1.8256  1.5276  0.3675
  715MOL0     H98622   5.780   1.382  10.032  0.5633  0.1625 -0.9393
  715MOL0     H98623   5.697   1.240  10.093 -4.3604  0.7546  2.4271
  715MOL0     H98624   5.483   1.339   9.999  1.1268  2.9851  3.7257
  715MOL0     H98625   5.593   1.447   9.895  4.9113 -1.7536 -2.5471
  715MOL0     H98626   5.639   1.150   9.892 -0.9265 -0.9639 -1.8118
  715MOL0     H98627   5.515   1.243   9.790 -0.2170  0.1456 -1.3481
  715MOL0     H98628   5.864   1.345   9.600  1.1180 -0.0320  0.8845
  715MOL0     H98629   6.022   1.144   9.302 -1.3683 -1.9839  2.0957
  715MOL0     H98630   6.074   1.252   9.424  1.0009 -4.4751 -0.3410
  715MOL0     H98631   5.943   1.308   9.323  0.5574 -0.0227 -1.1968
  715MOL0     H98632   6.119   0.852   9.181 -3.3440  1.2875  1.3178
  715MOL0     H98633   6.201   0.632   9.096  4.5550 -0.2613 -0.5942
  715MOL0     H98634   6.358   0.461   9.078  0.5115  0.3564 -0.3794
  715MOL0     H98635   6.462   0.480   9.220  1.0688 -1.8198  0.2061
  715MOL0     H98636   6.507   0.265   9.091 -1.3003 -3.2843 -1.2236
  715MOL0     H98637   6.508   0.266   9.257 -1.0081  0.7964  1.3427
  715MOL0     H98638   6.277   0.155   9.062 -1.5728 -0.7456  1.1319
  715MOL0     H98639   6.236   0.181   9.226 -1.8942  0.0063 -0.6865
  715MOL0     H98640   6.432   0.033   9.297 -0.6513 -1.9082  0.3755
  715MOL0     H98641   6.446  -0.001   9.123  0.7623  1.2906  0.4293
  715MOL0     H98642   6.223  -0.095   9.298 -1.1710  1.6675 -0.8145
  715MOL0     H98643   6.198  -0.059   9.125 -1.3073 -3.3059 -1.1646
  715MOL0     H98644   6.431  -0.228   9.218  0.4244  3.7748 -0.8895
  715MOL0     H98645   6.371  -0.218   9.052  0.0120  0.2365  0.1621
  715MOL0     H98646   6.155  -0.296   9.207 -0.1371 -0.9996 -0.6382
  715MOL0     H98647   6.295  -0.407   9.235 -0.9216 -1.4271 -0.8639
  715MOL0     H98648   6.174  -0.366   8.964  1.9288  2.4606  0.4617
  715MOL0     H98649   6.170  -0.513   9.072 -2.6516  0.5303 -1.3116
  715MOL0     H98650   6.209   0.488   9.492 -3.3280 -0.5754 -0.0609
  715MOL0     H98651   6.109   0.718   9.579  2.2753 -1.7946  1.2801
  715MOL0     H98652   5.738   0.876   9.568 -4.1979  0.9726  2.5431
  715MOL0     H98653   5.659   1.020   9.753  0.9944 -2.8554 -0.0305
  715MOL0     H98654   6.540   2.343  10.341  1.1953 -0.8360 -1.2946
  715MOL0     H98655   6.655   2.541  10.455  1.2461  0.8860  2.5527
  715MOL0     H98656   7.122   2.663  10.535  0.6441 -0.5765  0.8884
  715MOL0     H98657   7.234   2.876  10.577 -0.2553  4.3746  1.3481
  715MOL0     H98658   7.388   2.981  10.745  1.6640  0.0987 -2.4037
  715MOL0     H98659   7.313   3.086  10.640 -2.0937  1.7056  0.9501
  715MOL0     H98660   7.465   3.218  10.776  0.1748  3.1441  2.5883
  715MOL0     H98661   7.393   3.151  10.919  0.9674 -1.0711 -0.1295
  715MOL0     H98662   7.203   3.309  10.746  2.6487  1.8854 -0.3976
  715MOL0     H98663   7.207   3.277  10.920  0.0809  0.8460  1.2577
  715MOL0     H98664   7.279   3.513  10.827  1.1282 -0.1184 -2.7652
  715MOL0     H98665   7.433   3.436  10.773  1.1957  2.0564  1.0083
  715MOL0     H98666   7.468   3.507  11.189 -0.9493 -1.5519  0.6906
  715MOL0     H98667   7.045   2.904  10.949  0.7602 -0.7094  1.0547
  715MOL0     H98668   6.876   2.563  10.929  0.7937  0.3304  5.2023
  715MOL0     H98669   6.907   2.676  11.043 -0.1027 -1.8145  0.7233
  715MOL0     H98670   6.789   2.729  10.915 -0.4430  0.6054 -0.1223
  716MOL0     O98671   0.746   2.342  11.476 -0.2676  0.1278  0.3949
  716MOL0     C98672   0.655   2.404  11.419 -0.6330  0.6772  0.8249
  716MOL0     O98673   0.520   2.382  11.431  0.2428  0.7498  0.1869
  716MOL0     C98674   0.487   2.286  11.515 -0.5480 -0.7067  1.3313
  716MOL0     C98675   0.523   2.285  11.657  0.9169  0.1994  0.3529
  716MOL0     C98676   0.461   2.194  11.733  0.2594  0.0984 -0.6101
  716MOL0     C98677   0.397   2.089  11.676 -0.3363  0.5283  0.7654
  716MOL0     O98678   0.354   1.990  11.757  0.4777  0.5940 -0.3219
  716MOL0     C98679   0.439   1.930  11.860  0.5344  0.2781  0.9801
  716MOL0     C98680   0.355   1.900  11.982  0.6979 -0.1323 -0.2226
  716MOL0     C98681   0.418   1.816  12.094 -0.0421 -0.3025  1.2170
  716MOL0     C98682   0.318   1.826  12.222  0.3232 -0.6656  0.3758
  716MOL0     C98683   0.353   1.720  12.331  0.3491  0.5166 -0.3354
  716MOL0     C98684   0.370   1.576  12.277  1.4276  1.0423  0.3457
  716MOL0     C98685   0.258   1.527  12.187 -0.0269  0.6723 -0.8348
  716MOL0     C98686   0.121   1.519  12.255  0.9564 -0.1719  0.8415
  716MOL0     N98687   0.119   1.452  12.382 -0.0810  0.3940 -0.0548
  716MOL0     C98688   0.048   1.503  12.487  0.3633  0.0307  0.2093
  716MOL0     C98689   0.032   1.395  12.562  0.7457  0.2434  0.6223
  716MOL0     C98690  -0.038   1.375  12.688 -0.6092  0.9914 -0.7986
  716MOL0     C98691   0.076   1.334  12.787 -0.1950 -0.1601  0.0755
  716MOL0     C98692   0.012   1.312  12.923 -0.7577  0.1907  0.0683
  716MOL0     C98693   0.107   1.282  13.039  1.1832 -0.1598  0.5176
  716MOL0     O98694   0.175   1.152  13.038  0.5293  0.1842 -0.3282
  716MOL0     C98695   0.094   1.036  13.032  0.0557 -0.3209  1.5798
  716MOL0     C98696   0.136   0.935  12.956 -0.0747 -0.0980 -1.2660
  716MOL0     C98697   0.057   0.830  12.923  0.5180  1.4145  0.2796
  716MOL0     C98698   0.102   0.732  12.824  0.2963  0.1176 -0.1840
  716MOL0     C98699  -0.082   0.824  12.976  0.8853  0.9726  0.2076
  716MOL0     C98700  -0.188   0.713  12.956  0.4448 -0.1949 -1.4454
  716MOL0     O98701  -0.135   0.593  12.934 -0.1820 -0.3955  0.4100
  716MOL0     C98702  -0.221   0.487  12.936 -0.3709 -0.6531  0.4234
  716MOL0     C98703  -0.283   0.454  12.812 -0.2197  0.3928 -1.0557
  716MOL0     C98704  -0.373   0.340  12.809  0.6924 -0.9333  0.7154
  716MOL0     C98705  -0.397   0.261  12.922  0.8797 -0.2343  0.0791
  716MOL0     O98706  -0.444   0.132  12.901  0.2296  0.9404 -0.2331
  716MOL0     C98707  -0.354   0.027  12.913 -0.3358  0.0383 -0.4428
  716MOL0     C98708  -0.395  -0.071  12.810  0.0381 -0.1223  0.4299
  716MOL0     C98709  -0.345  -0.019  12.676  0.1090  0.2879 -0.4986
  716MOL0     C98710  -0.408  -0.099  12.553 -0.2805  0.6096  0.2344
  716MOL0     C98711  -0.331  -0.234  12.529 -0.1834  0.2442 -0.4788
  716MOL0     C98712  -0.423  -0.320  12.445 -0.0310  0.8768  0.5650
  716MOL0     C98713  -0.375  -0.464  12.401  0.7420 -0.3443 -0.5004
  716MOL0     C98714  -0.490  -0.568  12.358 -0.1153 -0.1555 -0.1186
  716MOL0    Cl98715  -0.547  -0.529  12.191 -0.6844  0.2003  0.0276
  716MOL0     C98716  -0.322   0.291  13.038  0.0330  0.8916 -0.3835
  716MOL0     C98717  -0.245   0.408  13.050 -0.2772 -0.2447 -0.6016
  716MOL0     O98718  -0.311   0.750  12.945 -0.2742 -0.2443 -0.4989
  716MOL0     C98719  -0.122   0.919  13.061 -0.3624 -0.2942 -0.3056
  716MOL0     C98720  -0.034   1.021  13.096 -0.3562  0.2189 -0.2432
  716MOL0     N98721   0.071   1.281  12.490  0.1146  0.6341 -0.2597
  716MOL0     N98722   0.126   1.316  12.382 -0.3276 -0.1743  0.5891
  716MOL0     C98723   0.369   2.086  11.541  0.9230  0.5021 -0.1177
  716MOL0     C98724   0.407   2.187  11.468  0.2339 -0.2658 -0.1312
  716MOL0     C98725   0.702   2.510  11.332 -0.1099  0.4982 -1.4927
  716MOL0     C98726   0.830   2.485  11.267 -0.1416 -0.2034  0.1766
  716MOL0     C98727   0.876   2.577  11.162 -0.3340  0.4711 -0.6802
  716MOL0     C98728   0.792   2.682  11.134  0.1190 -0.3189  0.8677
  716MOL0     O98729   0.833   2.788  11.057 -0.3815  0.4486  0.1253
  716MOL0     C98730   0.878   2.745  10.934  0.4225  0.5866  0.1197
  716MOL0     C98731   0.813   2.829  10.820 -0.3165 -0.3199 -0.1947
  716MOL0     C98732   0.898   2.942  10.763 -0.8888 -0.8917 -0.5069
  716MOL0     C98733   0.884   3.058  10.869  0.0353  1.0709 -0.1284
  716MOL0     C98734   0.951   3.166  10.809  0.1947 -0.5484  0.4578
  716MOL0     C98735   0.995   3.279  10.769 -1.1718  0.1144  0.4783
  716MOL0     C98736   0.677   2.705  11.208  0.0130 -0.6317 -0.2033
  716MOL0     C98737   0.629   2.633  11.320 -0.3472  0.4563  0.4133
  716MOL0     C98738   0.507   2.679  11.395 -1.0825  0.0545 -1.1228
  716MOL0     H98739   0.589   2.364  11.689  1.7359 -0.2390 -0.2322
  716MOL0     H98740   0.466   2.199  11.841  0.2170 -0.0521 -0.6000
  716MOL0     H98741   0.515   2.005  11.885  0.1382  0.5219  1.4603
  716MOL0     H98742   0.479   1.833  11.827  1.2871  1.1562 -0.7793
  716MOL0     H98743   0.313   1.996  12.011  0.1648 -0.7450  1.0990
  716MOL0     H98744   0.273   1.834  11.952  0.1000  0.0525  0.9627
  716MOL0     H98745   0.429   1.711  12.064 -1.1176 -0.6482  1.9405
  716MOL0     H98746   0.519   1.851  12.114 -0.9101  2.4277  1.1247
  716MOL0     H98747   0.318   1.928  12.262 -0.9458 -0.4797 -0.0630
  716MOL0     H98748   0.214   1.821  12.189  0.4270 -0.2837 -0.0231
  716MOL0     H98749   0.269   1.716  12.401 -2.9091  1.3095 -3.8425
  716MOL0     H98750   0.447   1.759  12.372 -0.0580  0.8078  0.3446
  716MOL0     H98751   0.469   1.558  12.234  1.8984 -2.1174  2.4031
  716MOL0     H98752   0.379   1.499  12.354  0.3225 -2.5410 -2.7980
  716MOL0     H98753   0.286   1.429  12.150  1.0392  0.6886 -0.1266
  716MOL0     H98754   0.249   1.575  12.089  0.5847  1.5211 -0.4938
  716MOL0     H98755   0.067   1.614  12.260 -0.4873 -0.7201 -2.2327
  716MOL0     H98756   0.060   1.451  12.196 -1.1315  1.9128  0.4815
  716MOL0     H98757   0.026   1.603  12.522  1.2126  0.0070  0.8464
  716MOL0     H98758  -0.114   1.297  12.686  1.1182 -0.7752 -0.9023
  716MOL0     H98759  -0.078   1.473  12.717  1.4799  1.8225 -0.5285
  716MOL0     H98760   0.116   1.235  12.761 -3.1075 -1.7460  1.1590
  716MOL0     H98761   0.141   1.422  12.791 -0.5800  0.1943 -1.1316
  716MOL0     H98762  -0.039   1.405  12.949 -0.2980  0.2610  0.7401
  716MOL0     H98763  -0.051   1.225  12.901 -2.4293  1.7323 -1.5038
  716MOL0     H98764   0.188   1.354  13.028  2.0905 -1.1958  0.2234
  716MOL0     H98765   0.051   1.299  13.132 -1.9094  2.5729 -1.6421
  716MOL0     H98766   0.234   0.942  12.908  0.7948 -0.0598  0.4489
  716MOL0     H98767   0.184   0.778  12.768 -0.9697  0.8922 -1.4928
  716MOL0     H98768   0.016   0.724  12.756 -0.7596  1.2927  0.9622
  716MOL0     H98769   0.141   0.634  12.854 -0.1016 -1.3273 -3.8217
  716MOL0     H98770  -0.282   0.515  12.722 -0.2874  0.8798 -0.7272
  716MOL0     H98771  -0.408   0.309  12.711  3.4698 -0.1723 -0.5936
  716MOL0     H98772  -0.250   0.053  12.894 -0.0902  0.5445  1.3755
  716MOL0     H98773  -0.363  -0.009  13.016 -1.0179  2.9756  0.6239
  716MOL0     H98774  -0.344  -0.166  12.827  2.2706  1.5212  4.0146
  716MOL0     H98775  -0.504  -0.085  12.807  0.1292 -0.8441  0.3074
  716MOL0     H98776  -0.237  -0.032  12.675  0.8302  4.3562  1.5812
  716MOL0     H98777  -0.354   0.090  12.669 -1.0887  0.2420  0.1144
  716MOL0     H98778  -0.398  -0.039  12.462 -2.2499  0.3709 -0.2025
  716MOL0     H98779  -0.513  -0.116  12.578  0.2162 -1.4737  1.0544
  716MOL0     H98780  -0.244  -0.199  12.471  0.1627  3.2464  1.6180
  716MOL0     H98781  -0.306  -0.285  12.622 -1.3851 -0.8161 -0.7086
  716MOL0     H98782  -0.438  -0.270  12.349  1.4115 -4.6412 -3.0341
  716MOL0     H98783  -0.519  -0.329  12.497 -1.2223  1.5412 -1.4212
  716MOL0     H98784  -0.314  -0.512  12.478 -0.7732  0.1259  1.0464
  716MOL0     H98785  -0.304  -0.454  12.318  2.4200 -2.2777  0.6071
  716MOL0     H98786  -0.572  -0.559  12.430 -0.9735 -0.3086 -1.0434
  716MOL0     H98787  -0.459  -0.673  12.360 -3.7878 -1.5537 -3.0844
  716MOL0     H98788  -0.333   0.214  13.114  0.2179 -0.6242 -1.8222
  716MOL0     H98789  -0.197   0.439  13.142  2.9626 -1.3356 -1.7773
  716MOL0     H98790  -0.218   0.922  13.110  0.6023  1.5766  1.6556
  716MOL0     H98791  -0.065   1.098  13.166  2.5872 -1.3091  3.0864
  716MOL0     H98792   0.328   2.009  11.477 -0.9377  0.4237  1.0966
  716MOL0     H98793   0.385   2.182  11.362  1.6921  1.1117 -0.5325
  716MOL0     H98794   0.881   2.390  11.277 -1.7420 -1.0137  0.9389
  716MOL0     H98795   0.967   2.542  11.114 -2.2940 -2.0269 -2.9088
  716MOL0     H98796   0.987   2.751  10.931  0.7945 -2.1721  3.2701
  716MOL0     H98797   0.847   2.641  10.921  0.6700  0.6171 -0.7933
  716MOL0     H98798   0.710   2.861  10.840  0.1930  3.5714 -2.7848
  716MOL0     H98799   0.800   2.753  10.742  0.4159  0.5971 -1.2480
  716MOL0     H98800   1.004   2.915  10.761 -0.5458  0.4218 -1.3941
  716MOL0     H98801   0.862   2.973  10.665 -0.2200 -0.4166 -0.6108
  716MOL0     H98802   0.927   3.033  10.967 -1.8096 -2.6529 -0.0951
  716MOL0     H98803   0.783   3.098  10.883 -1.3463 -2.2082  0.2540
  716MOL0     H98804   1.041   3.373  10.746  0.7253  0.1222  3.7260
  716MOL0     H98805   0.615   2.787  11.175  0.6780  0.0620  0.2340
  716MOL0     H98806   0.420   2.670  11.330 -1.4929  1.5981 -0.8333
  716MOL0     H98807   0.499   2.614  11.483  1.7697  0.0884 -0.7436
  716MOL0     H98808   0.521   2.783  11.425 -0.5867  0.0437 -1.3055
  717MOL0     O98809   0.406   6.390   7.462 -0.0215  0.1194 -0.2710
  717MOL0     C98810   0.328   6.467   7.507 -0.5508 -0.1433 -0.0860
  717MOL0     O98811   0.360   6.598   7.551  0.0903 -0.3391 -0.5765
  717MOL0     C98812   0.488   6.656   7.525 -0.7183 -0.1948  1.1831
  717MOL0     C98813   0.606   6.604   7.480 -0.9107  0.0458  0.2557
  717MOL0     C98814   0.713   6.692   7.457 -0.7410  0.2397 -0.1453
  717MOL0     C98815   0.708   6.829   7.451  1.7112 -0.4921  0.4204
  717MOL0     O98816   0.807   6.920   7.415  0.1577 -0.6935 -0.7775
  717MOL0     C98817   0.950   6.889   7.424 -0.4388  0.5198  0.1797
  717MOL0     C98818   1.003   6.916   7.575 -0.9221 -0.2397  0.8192
  717MOL0     C98819   0.967   7.045   7.636 -0.1079 -0.0375 -0.5062
  717MOL0     C98820   0.882   7.032   7.771 -0.8466 -0.8462 -0.1385
  717MOL0     C98821   0.786   7.151   7.798  0.5215  1.2709  0.4653
  717MOL0     C98822   0.755   7.166   7.944  0.0516 -0.9830  0.0670
  717MOL0     C98823   0.673   7.303   7.974  0.1447 -0.5887 -0.0756
  717MOL0     C98824   0.546   7.323   7.884 -0.0474  0.6019  0.3816
  717MOL0     N98825   0.476   7.443   7.919 -0.4680 -0.5105 -0.2408
  717MOL0     C98826   0.379   7.486   7.838 -0.8456 -0.0272 -0.4418
  717MOL0     C98827   0.351   7.608   7.884 -0.0434 -0.0814  0.5299
  717MOL0     C98828   0.259   7.720   7.834  0.5909 -0.4095  0.1770
  717MOL0     C98829   0.336   7.831   7.749 -0.8253 -0.1149  0.0940
  717MOL0     C98830   0.239   7.886   7.648 -0.7813  0.2521  0.2463
  717MOL0     C98831   0.145   7.977   7.715  0.0901 -0.3562  0.5274
  717MOL0     O98832   0.063   8.043   7.617  1.2874 -0.1537 -0.5533
  717MOL0     C98833  -0.075   8.050   7.637 -0.7434 -0.3107 -0.4981
  717MOL0     C98834  -0.144   8.053   7.760 -0.4374 -0.7248 -0.2281
  717MOL0     C98835  -0.276   8.096   7.768  0.4394  0.4614 -0.9219
  717MOL0     C98836  -0.339   8.122   7.907 -0.4350  0.9014  0.0871
  717MOL0     C98837  -0.356   8.099   7.656  0.3933  0.5662  1.0084
  717MOL0     C98838  -0.506   8.117   7.650 -0.5976  0.6564  0.1770
  717MOL0     O98839  -0.576   8.186   7.744 -0.2629  0.2144  0.6909
  717MOL0     C98840  -0.711   8.164   7.715 -0.0149 -0.0413 -0.6573
  717MOL0     C98841  -0.792   8.082   7.790 -0.5662  0.4467  0.1898
  717MOL0     C98842  -0.930   8.090   7.777 -0.4125 -1.0070  0.1039
  717MOL0     C98843  -0.986   8.169   7.681 -0.2438 -0.8264 -0.3059
  717MOL0     O98844  -1.123   8.189   7.644 -0.8205  0.3555 -0.0485
  717MOL0     C98845  -1.211   8.114   7.719  1.0039  0.6120 -0.2163
  717MOL0     C98846  -1.354   8.103   7.659 -1.1940  0.0642  0.4946
  717MOL0     C98847  -1.362   8.040   7.518 -0.1105  0.3350  0.7938
  717MOL0     C98848  -1.408   8.151   7.423 -0.8459 -0.4615  0.2899
  717MOL0     C98849  -1.451   8.106   7.287 -0.4363  0.9589  0.3604
  717MOL0     C98850  -1.336   8.045   7.197 -0.2808  0.5642  0.7598
  717MOL0     C98851  -1.374   7.966   7.081  0.8249  0.5627  0.4785
  717MOL0     C98852  -1.418   8.059   6.979 -1.0342  0.1800  0.1300
  717MOL0    Cl98853  -1.487   7.971   6.834  0.2885 -0.2190  0.7150
  717MOL0     C98854  -0.911   8.254   7.608 -0.6880 -0.7354 -0.7396
  717MOL0     C98855  -0.775   8.240   7.622 -0.8171  0.2641 -0.2252
  717MOL0     O98856  -0.550   8.057   7.548  0.2636 -0.9052  0.1001
  717MOL0     C98857  -0.293   8.075   7.531  0.2704 -0.1567  0.2458
  717MOL0     C98858  -0.153   8.056   7.520 -0.5957  1.2554  0.1562
  717MOL0     N98859   0.439   7.644   7.986 -1.4503 -0.4991 -0.6093
  717MOL0     N98860   0.517   7.551   8.004  1.4328  1.0634 -0.3510
  717MOL0     C98861   0.587   6.881   7.488 -0.0299 -0.9760 -1.4768
  717MOL0     C98862   0.482   6.797   7.535  0.1440 -0.7421 -0.2498
  717MOL0     C98863   0.187   6.430   7.506  0.1646 -0.5610  0.7209
  717MOL0     C98864   0.093   6.528   7.485 -0.3324 -0.2844 -0.2351
  717MOL0     C98865  -0.045   6.506   7.451 -0.2217 -0.1434 -0.7236
  717MOL0     C98866  -0.093   6.368   7.438  0.4063 -0.5644 -1.4298
  717MOL0     O98867  -0.224   6.353   7.401  0.6465 -0.8190 -0.0067
  717MOL0     C98868  -0.306   6.233   7.432 -0.2343 -0.0564  0.1039
  717MOL0     C98869  -0.312   6.156   7.305 -0.3091  0.4784  0.0267
  717MOL0     C98870  -0.388   6.024   7.314 -0.0168 -0.5836 -1.4162
  717MOL0     C98871  -0.293   5.907   7.308  0.5116  0.8136  0.3279
  717MOL0     C98872  -0.188   5.897   7.415  0.1247  1.3309  0.0774
  717MOL0     C98873  -0.115   5.891   7.507 -0.0553 -0.3827  0.0254
  717MOL0     C98874   0.009   6.273   7.471  1.0954  0.0155 -0.9860
  717MOL0     C98875   0.138   6.304   7.508 -0.2911  0.8730 -0.4198
  717MOL0     C98876   0.226   6.191   7.542  0.2066  0.4635  0.0830
  717MOL0     H98877   0.632   6.500   7.466  3.2049  1.1916 -2.3945
  717MOL0     H98878   0.809   6.644   7.442 -1.7835 -2.0011 -0.0561
  717MOL0     H98879   1.013   6.946   7.355 -0.7946  0.1043 -0.4984
  717MOL0     H98880   0.972   6.787   7.390  5.1417  2.0066 -1.6817
  717MOL0     H98881   0.990   6.823   7.631  3.6312 -1.6228  0.0640
  717MOL0     H98882   1.112   6.918   7.564 -1.1779  0.6745 -2.9054
  717MOL0     H98883   1.061   7.094   7.661  0.1570 -0.8556  0.1358
  717MOL0     H98884   0.905   7.101   7.566 -3.0924  0.5608  2.3253
  717MOL0     H98885   0.827   6.937   7.776  1.9115 -2.5551  0.0629
  717MOL0     H98886   0.962   7.034   7.846 -0.4672  1.9908 -0.4978
  717MOL0     H98887   0.699   7.142   7.733  0.7815  2.7573 -0.1344
  717MOL0     H98888   0.842   7.242   7.774  3.6358 -0.3419  1.0878
  717MOL0     H98889   0.682   7.088   7.968 -1.6761 -0.0083 -1.8189
  717MOL0     H98890   0.846   7.152   8.004  0.2235 -2.1637 -0.4364
  717MOL0     H98891   0.740   7.385   7.947 -1.2495  0.1467 -1.4089
  717MOL0     H98892   0.633   7.314   8.076  0.8401 -0.7474  0.2242
  717MOL0     H98893   0.582   7.349   7.784  0.1632  2.9042  1.0035
  717MOL0     H98894   0.484   7.233   7.880 -0.2250  0.7443 -2.7597
  717MOL0     H98895   0.355   7.441   7.742  2.3006  0.1628 -1.4493
  717MOL0     H98896   0.231   7.771   7.926 -0.5418 -0.5400 -0.0860
  717MOL0     H98897   0.175   7.680   7.778  1.8521 -0.1321 -2.0456
  717MOL0     H98898   0.382   7.906   7.814 -0.5789 -1.0572  1.0399
  717MOL0     H98899   0.419   7.782   7.697 -0.6913 -2.9418  2.7212
  717MOL0     H98900   0.290   7.933   7.563  0.9776 -1.7035  0.1569
  717MOL0     H98901   0.181   7.802   7.610  0.4735 -0.9636  0.9433
  717MOL0     H98902   0.081   7.922   7.784 -0.5268 -1.0439 -0.5526
  717MOL0     H98903   0.203   8.051   7.770  0.1377  0.5609 -0.7174
  717MOL0     H98904  -0.095   8.038   7.855 -1.3350  1.7768  0.6926
  717MOL0     H98905  -0.263   8.148   7.981 -0.6077 -2.8948  1.8476
  717MOL0     H98906  -0.403   8.041   7.944 -0.6942  0.0639 -2.0546
  717MOL0     H98907  -0.400   8.213   7.911  0.6742  1.7066 -0.6518
  717MOL0     H98908  -0.757   8.021   7.872 -2.8880 -0.8752  0.2999
  717MOL0     H98909  -0.986   8.039   7.855  1.5392  1.7619  3.5873
  717MOL0     H98910  -1.178   8.010   7.730 -4.3286 -1.3585  0.0281
  717MOL0     H98911  -1.203   8.161   7.817  1.7976 -1.0321  0.5635
  717MOL0     H98912  -1.404   8.023   7.713 -1.7751 -0.8439 -1.2950
  717MOL0     H98913  -1.414   8.195   7.655 -0.7132  0.4230  1.4055
  717MOL0     H98914  -1.442   7.966   7.503 -1.4499  1.9965 -0.7092
  717MOL0     H98915  -1.265   7.998   7.491 -0.5584  1.0504 -2.3251
  717MOL0     H98916  -1.327   8.223   7.411 -1.8977  0.6224 -0.6215
  717MOL0     H98917  -1.494   8.208   7.459  0.4348  1.2155  0.8171
  717MOL0     H98918  -1.523   8.026   7.306 -2.3650  2.3476 -0.7676
  717MOL0     H98919  -1.495   8.182   7.221 -0.8796 -1.6532 -2.6238
  717MOL0     H98920  -1.285   7.974   7.263 -0.6216 -0.8690 -0.4528
  717MOL0     H98921  -1.264   8.120   7.166 -1.3634  0.7672 -1.4679
  717MOL0     H98922  -1.453   7.893   7.098  1.9568 -1.3893 -1.9883
  717MOL0     H98923  -1.294   7.899   7.046 -1.9138 -1.8920 -1.5663
  717MOL0     H98924  -1.322   8.099   6.945 -0.5013 -1.8980 -1.0099
  717MOL0     H98925  -1.477   8.143   7.018  1.4090  1.7306  0.6643
  717MOL0     H98926  -0.960   8.325   7.543 -2.1038 -0.1069  0.9351
  717MOL0     H98927  -0.723   8.311   7.559 -1.8681 -0.0199 -1.4681
  717MOL0     H98928  -0.349   8.086   7.439  0.8830  0.0923 -0.1061
  717MOL0     H98929  -0.114   8.044   7.420  0.2055 -3.5891  0.8245
  717MOL0     H98930   0.576   6.988   7.496 -1.8556 -1.0805 -2.1620
  717MOL0     H98931   0.390   6.849   7.559  1.0948  1.8293 -1.7077
  717MOL0     H98932   0.115   6.634   7.490  0.6300 -0.4539 -0.6831
  717MOL0     H98933  -0.099   6.596   7.423 -0.2398  1.3390  3.4400
  717MOL0     H98934  -0.270   6.173   7.516  2.2182  0.2584 -0.6360
  717MOL0     H98935  -0.407   6.269   7.456  0.4456  0.7549  1.9229
  717MOL0     H98936  -0.205   6.145   7.287 -0.1991 -1.0457  1.3480
  717MOL0     H98937  -0.351   6.207   7.217  0.0252 -0.9024 -0.9696
  717MOL0     H98938  -0.445   6.017   7.407  2.0162 -3.0865 -0.2307
  717MOL0     H98939  -0.467   6.039   7.239 -2.3087 -0.8967  0.7816
  717MOL0     H98940  -0.251   5.902   7.207 -0.2290  0.2903  0.0291
  717MOL0     H98941  -0.352   5.814   7.306  0.8356  0.5968 -2.1667
  717MOL0     H98942  -0.038   5.880   7.581 -1.6264 -1.3088  1.5960
  717MOL0     H98943  -0.040   6.177   7.487 -0.3914  0.5104 -2.2760
  717MOL0     H98944   0.170   6.103   7.575  0.9936  0.8499  2.7154
  717MOL0     H98945   0.271   6.155   7.449 -0.0642  1.8571 -0.6108
  717MOL0     H98946   0.304   6.219   7.614 -0.2904  0.5143  0.6052
  718MOL0     O98947   2.663   1.789   4.232 -0.1516 -0.9290 -1.4073
  718MOL0     C98948   2.630   1.768   4.116 -0.1439  0.0886 -0.0963
  718MOL0     O98949   2.564   1.651   4.071 -0.1979 -0.0876  0.4720
  718MOL0     C98950   2.476   1.594   4.164  0.9680  0.1096 -0.0259
  718MOL0     C98951   2.521   1.538   4.280  0.5937  0.1171 -0.4014
  718MOL0     C98952   2.434   1.484   4.374  0.3221 -0.0602  0.3955
  718MOL0     C98953   2.298   1.471   4.345  0.1556  0.2066 -0.2752
  718MOL0     O98954   2.202   1.405   4.409  0.1848  0.1853  0.1175
  718MOL0     C98955   2.211   1.394   4.553 -0.2043 -0.3826 -0.5859
  718MOL0     C98956   2.279   1.260   4.596 -0.4267 -0.7140  0.1433
  718MOL0     C98957   2.236   1.133   4.515 -1.0343 -0.8085 -0.2838
  718MOL0     C98958   2.321   1.016   4.555  1.1368  0.1255 -0.2799
  718MOL0     C98959   2.294   0.894   4.465  0.1898  0.8405 -0.4759
  718MOL0     C98960   2.358   0.763   4.512 -0.4322  0.6197  0.1605
  718MOL0     C98961   2.276   0.638   4.449  0.0181  0.2362 -0.6892
  718MOL0     C98962   2.357   0.507   4.482 -0.4942 -0.2467  0.5708
  718MOL0     N98963   2.290   0.379   4.471 -0.4653  0.7070  0.0541
  718MOL0     C98964   2.184   0.335   4.541  0.3768 -0.2171 -0.1120
  718MOL0     C98965   2.144   0.226   4.483  0.4541 -0.9175 -0.4065
  718MOL0     C98966   2.033   0.157   4.560  0.3167 -0.4340  0.7191
  718MOL0     C98967   2.099   0.100   4.688 -0.1066  0.3502  0.7259
  718MOL0     C98968   1.993   0.006   4.762  0.2985 -0.0739  0.4198
  718MOL0     C98969   2.054  -0.041   4.897  0.2921 -0.2542  0.0256
  718MOL0     O98970   2.187  -0.090   4.880  0.6306  0.5973  0.3608
  718MOL0     C98971   2.222  -0.219   4.912 -0.9115  0.3997  0.5527
  718MOL0     C98972   2.332  -0.280   4.842  0.4707  0.0645 -0.0097
  718MOL0     C98973   2.372  -0.406   4.876 -0.3304 -1.0281 -0.1494
  718MOL0     C98974   2.497  -0.461   4.802  0.4240 -0.4585 -0.2823
  718MOL0     C98975   2.305  -0.485   4.970  0.4722 -0.6636  0.3462
  718MOL0     C98976   2.345  -0.623   5.010  0.4805 -0.3274 -0.0145
  718MOL0     O98977   2.327  -0.635   5.144 -0.1912  0.2487  0.0995
  718MOL0     C98978   2.282  -0.757   5.209 -1.0355  0.1495 -0.3718
  718MOL0     C98979   2.274  -0.771   5.350  1.2380  0.6188 -0.7558
  718MOL0     C98980   2.211  -0.885   5.411 -0.5706 -0.5627  1.0273
  718MOL0     C98981   2.165  -0.979   5.320 -0.1663  0.5734  0.4131
  718MOL0     O98982   2.113  -1.086   5.383  0.4226  1.0643 -0.0081
  718MOL0     C98983   2.008  -1.074   5.471  0.0152  0.5629  0.2746
  718MOL0     C98984   2.045  -1.120   5.607 -0.0791 -0.3067  0.5621
  718MOL0     C98985   2.038  -1.275   5.619  0.8902  0.5999 -0.0364
  718MOL0     C98986   2.172  -1.329   5.643  1.1312 -0.4806  0.0512
  718MOL0     C98987   2.182  -1.486   5.637 -0.2654 -0.1058  1.2863
  718MOL0     C98988   2.330  -1.523   5.668 -0.1108  0.0195  0.0594
  718MOL0     C98989   2.378  -1.653   5.592  0.6734 -0.2996  0.4554
  718MOL0     C98990   2.531  -1.651   5.592  0.2223 -0.7311 -0.5573
  718MOL0    Cl98991   2.610  -1.549   5.468 -0.0923 -0.5361  0.1060
  718MOL0     C98992   2.185  -0.979   5.178  0.0079 -0.4038  0.0194
  718MOL0     C98993   2.240  -0.867   5.122 -0.2784 -0.4385 -0.2526
  718MOL0     O98994   2.404  -0.700   4.940  0.5495  0.8093  0.0954
  718MOL0     C98995   2.198  -0.423   5.046 -0.9719 -1.1960  0.1056
  718MOL0     C98996   2.155  -0.298   5.015  0.5811 -0.1348 -0.4422
  718MOL0     N98997   2.213   0.198   4.374 -0.3599 -0.7562  0.7941
  718MOL0     N98998   2.309   0.288   4.371 -0.0626  0.5698  0.4361
  718MOL0     C98999   2.253   1.542   4.227  0.2003 -0.0653  0.3288
  718MOL0     C99000   2.340   1.606   4.148  0.0764 -0.9096  0.2902
  718MOL0     C99001   2.652   1.876   4.019  0.2000 -0.6900 -0.9755
  718MOL0     C99002   2.697   1.998   4.076 -0.8802 -0.2610 -0.2584
  718MOL0     C99003   2.727   2.104   3.989 -0.2670  0.0563  0.5276
  718MOL0     C99004   2.711   2.108   3.846 -0.8432  0.2736 -0.6622
  718MOL0     O99005   2.740   2.211   3.774  1.2110  1.4039 -0.3829
  718MOL0     C99006   2.726   2.210   3.630 -0.6736  0.1037 -0.2389
  718MOL0     C99007   2.846   2.145   3.578 -1.1340  0.4097  0.1737
  718MOL0     C99008   2.835   2.135   3.420  0.3092 -0.4360 -0.1218
  718MOL0     C99009   2.930   2.030   3.363 -0.2727  0.1367 -0.5120
  718MOL0     C99010   2.864   1.899   3.387 -0.3949 -0.4376  0.1260
  718MOL0     C99011   2.820   1.790   3.401  0.0272  0.8785  0.6080
  718MOL0     C99012   2.662   1.974   3.793  0.3717  0.8587 -1.2991
  718MOL0     C99013   2.622   1.868   3.882 -0.0920  0.0180  0.1487
  718MOL0     C99014   2.571   1.752   3.802  0.7006 -0.0856  0.5753
  718MOL0     H99015   2.628   1.541   4.296  0.8146  0.5870 -1.8559
  718MOL0     H99016   2.490   1.435   4.453 -0.2161  1.6531  1.9211
  718MOL0     H99017   2.111   1.395   4.599  1.6796 -0.0202  3.9880
  718MOL0     H99018   2.256   1.478   4.607 -2.4587 -0.1285  1.0540
  718MOL0     H99019   2.386   1.271   4.576 -0.8492 -1.4405 -3.0258
  718MOL0     H99020   2.252   1.238   4.700 -3.9529 -0.0578 -0.4995
  718MOL0     H99021   2.135   1.101   4.542 -0.2834 -6.2222 -2.6469
  718MOL0     H99022   2.238   1.149   4.407 -2.4044  2.2808  0.0223
  718MOL0     H99023   2.424   1.048   4.535  0.0780  5.7994  1.5824
  718MOL0     H99024   2.305   0.990   4.660 -1.9421 -2.8966 -1.3161
  718MOL0     H99025   2.326   0.920   4.364  3.5567 -1.1896 -0.0715
  718MOL0     H99026   2.186   0.875   4.471  0.4830 -0.4255  2.0333
  718MOL0     H99027   2.464   0.767   4.485 -0.2628  3.6515  0.9348
  718MOL0     H99028   2.348   0.760   4.621  1.7406 -0.5391  0.3734
  718MOL0     H99029   2.275   0.652   4.340 -0.9516 -1.6428 -0.9673
  718MOL0     H99030   2.175   0.625   4.490  0.5602  0.1697  0.6710
  718MOL0     H99031   2.452   0.505   4.429 -2.0087 -0.1447 -2.3811
  718MOL0     H99032   2.375   0.516   4.589 -3.2406  2.5866  0.9529
  718MOL0     H99033   2.148   0.377   4.634  0.5874 -0.4411  0.0716
  718MOL0     H99034   1.987   0.085   4.492  2.6954 -0.0155 -1.4936
  718MOL0     H99035   1.964   0.236   4.591  2.8820  2.8532 -1.3163
  718MOL0     H99036   2.187   0.040   4.664  0.1753  0.6976  0.8748
  718MOL0     H99037   2.126   0.181   4.756 -1.0688  0.6415  0.7861
  718MOL0     H99038   1.900   0.057   4.787 -0.9110 -2.0966  0.3213
  718MOL0     H99039   1.965  -0.071   4.689 -4.2096 -0.7486  2.5251
  718MOL0     H99040   2.050   0.051   4.956 -2.5739  2.1543 -3.4581
  718MOL0     H99041   1.979  -0.113   4.933  0.1714 -0.1720 -0.0633
  718MOL0     H99042   2.387  -0.221   4.769  0.3954  0.5900  0.3601
  718MOL0     H99043   2.468  -0.543   4.736 -0.1059 -0.1240 -0.4710
  718MOL0     H99044   2.565  -0.501   4.878  2.8009 -1.1840 -2.6393
  718MOL0     H99045   2.545  -0.384   4.741  1.4556 -2.3491 -1.9670
  718MOL0     H99046   2.310  -0.680   5.399 -1.3517  1.5964 -0.5154
  718MOL0     H99047   2.184  -0.881   5.516 -0.5245 -0.1124  1.0228
  718MOL0     H99048   1.975  -0.970   5.478 -1.6549  0.0546  0.3604
  718MOL0     H99049   1.920  -1.122   5.427  0.8013 -0.1351 -0.5763
  718MOL0     H99050   2.137  -1.077   5.646 -0.0318 -1.8009  2.2209
  718MOL0     H99051   1.965  -1.081   5.671 -0.6777 -0.4928 -0.0504
  718MOL0     H99052   1.985  -1.323   5.537 -2.3660  4.1479 -0.2718
  718MOL0     H99053   1.983  -1.300   5.711  5.0690 -1.2600  2.2798
  718MOL0     H99054   2.214  -1.300   5.740  0.3027 -1.5290  0.7500
  718MOL0     H99055   2.241  -1.284   5.571  0.1659  0.8298 -0.0971
  718MOL0     H99056   2.115  -1.537   5.706  1.8862 -2.5489  1.7286
  718MOL0     H99057   2.162  -1.507   5.531  0.3947  0.8319  0.9504
  718MOL0     H99058   2.346  -1.514   5.775 -0.3082 -0.3650  0.1223
  718MOL0     H99059   2.392  -1.439   5.637  1.1508 -1.7924 -2.8268
  718MOL0     H99060   2.342  -1.648   5.489 -0.8740 -0.7336  0.9491
  718MOL0     H99061   2.344  -1.747   5.637 -0.8305 -1.8005 -3.4120
  718MOL0     H99062   2.568  -1.748   5.559  1.2037 -0.4025 -0.4788
  718MOL0     H99063   2.577  -1.631   5.689 -2.6115  0.3435  0.6739
  718MOL0     H99064   2.143  -1.065   5.127  0.0100 -0.7415  0.5769
  718MOL0     H99065   2.238  -0.857   5.014 -2.0039 -2.6158 -0.5090
  718MOL0     H99066   2.152  -0.481   5.125 -0.4072  0.1219  1.4387
  718MOL0     H99067   2.074  -0.257   5.074 -0.3683 -2.4691 -0.0286
  718MOL0     H99068   2.149   1.540   4.194  0.4593 -1.0965 -0.4768
  718MOL0     H99069   2.302   1.658   4.060 -2.0368 -2.1807  0.3942
  718MOL0     H99070   2.727   2.009   4.180  0.4930 -0.6031 -0.5989
  718MOL0     H99071   2.751   2.193   4.046 -2.6902 -1.2680  3.9038
  718MOL0     H99072   2.642   2.156   3.585 -2.0831 -1.8915  4.1562
  718MOL0     H99073   2.715   2.315   3.603 -0.5711 -0.0127 -0.7310
  718MOL0     H99074   2.859   2.047   3.626 -1.8426  0.4787  0.5219
  718MOL0     H99075   2.939   2.200   3.597 -0.6708  0.3752 -1.8134
  718MOL0     H99076   2.729   2.119   3.401  0.5305 -0.8508 -1.0901
  718MOL0     H99077   2.848   2.236   3.381  0.2598  0.4491  2.0360
  718MOL0     H99078   3.036   2.037   3.390  0.5183 -1.9875 -2.6755
  718MOL0     H99079   2.938   2.047   3.255  3.9769  1.0711 -0.2320
  718MOL0     H99080   2.790   1.690   3.423 -1.7054  1.3167  0.3359
  718MOL0     H99081   2.661   1.954   3.687  1.4295 -3.4518 -0.7059
  718MOL0     H99082   2.468   1.733   3.835  0.4509 -0.3603 -0.3415
  718MOL0     H99083   2.581   1.763   3.693  4.0210  1.0513  0.8766
  718MOL0     H99084   2.626   1.662   3.829 -1.8942 -1.0898  2.9717
  719MOL0     O99085  10.012   8.997   9.270 -1.0539  0.3335 -0.3729
  719MOL0     C99086   9.975   8.938   9.164 -0.0493 -0.7881 -0.8294
  719MOL0     O99087   9.847   8.916   9.127 -0.1477  0.3708 -0.0518
  719MOL0     C99088   9.753   8.941   9.224  0.7326 -0.2458  1.0108
  719MOL0     C99089   9.743   8.857   9.336  0.5145 -1.0212 -0.2299
  719MOL0     C99090   9.634   8.878   9.426  0.3021 -0.1214  0.0783
  719MOL0     C99091   9.539   8.980   9.391 -0.2814  0.5257 -0.6435
  719MOL0     O99092   9.436   9.013   9.472 -1.0944 -0.1246  0.3283
  719MOL0     C99093   9.479   9.042   9.609  0.3516  0.6327  0.8136
  719MOL0     C99094   9.372   9.114   9.685 -0.0507  0.3921 -0.7543
  719MOL0     C99095   9.258   9.020   9.742 -0.1836  0.2745  0.0786
  719MOL0     C99096   9.131   9.089   9.782 -0.3678 -0.7612  0.2618
  719MOL0     C99097   8.998   9.003   9.806 -0.4708 -0.3426  0.3920
  719MOL0     C99098   8.886   9.096   9.863 -0.9504  0.2847  0.7960
  719MOL0     C99099   8.822   9.020   9.978 -0.4020 -0.2304 -0.2975
  719MOL0     C99100   8.696   9.099  10.029 -0.3300  0.9664  0.3150
  719MOL0     N99101   8.646   9.038  10.154 -0.6982  0.3556 -0.6638
  719MOL0     C99102   8.698   9.060  10.288 -0.3264  0.3581  0.9860
  719MOL0     C99103   8.603   9.025  10.370 -0.3983  0.5725  0.2297
  719MOL0     C99104   8.591   9.035  10.525 -0.4992  0.5785 -0.1214
  719MOL0     C99105   8.706   9.097  10.617 -0.0529  0.0387 -0.0678
  719MOL0     C99106   8.638   9.117  10.756 -0.2018  0.1773 -0.3736
  719MOL0     C99107   8.615   8.983  10.842 -0.0737  0.5496 -0.4038
  719MOL0     O99108   8.509   8.989  10.939 -0.8797  0.0880  1.0391
  719MOL0     C99109   8.433   8.873  10.932 -0.0462 -0.4334  0.4661
  719MOL0     C99110   8.470   8.773  11.028  0.3339 -0.9026 -0.9594
  719MOL0     C99111   8.398   8.653  11.033  0.3563  0.2064 -0.3533
  719MOL0     C99112   8.454   8.545  11.124  1.0886 -0.4295 -1.5068
  719MOL0     C99113   8.280   8.633  10.955  0.4023  0.0110 -0.2383
  719MOL0     C99114   8.195   8.518  10.957 -0.3450  0.3888 -0.7049
  719MOL0     O99115   8.124   8.492  10.842 -0.4017  0.0118  0.0335
  719MOL0     C99116   8.025   8.401  10.828 -1.2562  0.1048 -0.1111
  719MOL0     C99117   7.939   8.431  10.725  0.5922 -0.4446 -0.1793
  719MOL0     C99118   7.848   8.335  10.682  0.0287 -1.2890  0.7963
  719MOL0     C99119   7.841   8.217  10.747  0.3302  0.0963  0.6443
  719MOL0     O99120   7.731   8.128  10.707 -0.9329 -0.2726 -0.1342
  719MOL0     C99121   7.706   8.013  10.790  0.9158  0.3968 -0.7913
  719MOL0     C99122   7.573   7.939  10.755 -0.4189  0.1783 -0.3560
  719MOL0     C99123   7.441   8.021  10.756 -0.5845  0.4793  0.3212
  719MOL0     C99124   7.346   7.979  10.646 -0.0496  0.6411  0.0524
  719MOL0     C99125   7.302   7.833  10.664 -0.4269  1.0245 -0.6463
  719MOL0     C99126   7.201   7.796  10.563 -0.3376 -0.3825  1.1476
  719MOL0     C99127   7.169   7.644  10.561 -0.3747  1.3254 -0.4304
  719MOL0     C99128   7.273   7.572  10.475 -0.5021  0.2063  0.2163
  719MOL0    Cl99129   7.238   7.405  10.457 -0.7390 -0.0004  0.4866
  719MOL0     C99130   7.931   8.183  10.857  0.3442 -0.0849 -1.3191
  719MOL0     C99131   8.030   8.278  10.890  0.1125 -0.0260 -0.0934
  719MOL0     O99132   8.201   8.452  11.062 -0.5096 -0.6441  0.2828
  719MOL0     C99133   8.257   8.733  10.863  0.5509  0.3891 -0.8304
  719MOL0     C99134   8.324   8.857  10.849  0.6505  0.2833 -0.5492
  719MOL0     N99135   8.510   8.961  10.292  0.4237  0.7679  0.7205
  719MOL0     N99136   8.533   8.966  10.168 -0.0297  0.4551  0.7698
  719MOL0     C99137   9.552   9.061   9.283  0.1350  0.2864 -0.0455
  719MOL0     C99138   9.661   9.040   9.205 -0.4324  0.4304 -0.2841
  719MOL0     C99139  10.084   8.881   9.079 -0.1633 -0.7198 -0.2420
  719MOL0     C99140  10.194   8.963   9.063 -0.3731 -0.7508  0.2782
  719MOL0     C99141  10.305   8.931   8.985  0.1134 -0.0389 -0.4294
  719MOL0     C99142  10.309   8.797   8.943 -0.7994  0.5031 -0.1118
  719MOL0     O99143  10.400   8.747   8.847 -0.6823 -0.0353  0.5354
  719MOL0     C99144  10.471   8.841   8.766  0.5291 -0.3560 -0.3440
  719MOL0     C99145  10.570   8.761   8.679 -0.3749  0.4589  0.3448
  719MOL0     C99146  10.680   8.847   8.636 -0.0949  0.1090  0.4145
  719MOL0     C99147  10.721   8.839   8.491  0.4976  0.7939 -0.2043
  719MOL0     C99148  10.782   8.710   8.453  0.3027 -0.0418 -1.1134
  719MOL0     C99149  10.810   8.597   8.432  0.3464  0.1544  0.0807
  719MOL0     C99150  10.202   8.710   8.964 -0.0728 -0.2684  0.3369
  719MOL0     C99151  10.086   8.752   9.038 -0.6669  0.7680 -0.0018
  719MOL0     C99152   9.966   8.660   9.038  0.6947  0.6818  1.5846
  719MOL0     H99153   9.821   8.782   9.343  1.7699  0.3777  1.4836
  719MOL0     H99154   9.619   8.818   9.515  0.5871  1.3556  1.1521
  719MOL0     H99155   9.576   9.091   9.597  1.8029 -2.2082 -0.2222
  719MOL0     H99156   9.489   8.949   9.666  2.3087 -2.2481 -3.6151
  719MOL0     H99157   9.403   9.161   9.779 -3.5983  2.7469 -0.5781
  719MOL0     H99158   9.335   9.191   9.618  1.9060 -0.5213 -3.0407
  719MOL0     H99159   9.228   8.955   9.659 -3.5257  0.8728  0.7030
  719MOL0     H99160   9.290   8.958   9.826 -1.7578 -0.9915 -0.2011
  719MOL0     H99161   9.159   9.147   9.870 -2.4630 -0.3516  0.7051
  719MOL0     H99162   9.094   9.158   9.705  2.0314 -0.4220 -0.6837
  719MOL0     H99163   9.035   8.927   9.876  0.8796 -0.2944 -0.2320
  719MOL0     H99164   8.955   8.949   9.722 -1.1820 -1.1168  1.2293
  719MOL0     H99165   8.922   9.193   9.899  0.5486  0.2510 -0.5006
  719MOL0     H99166   8.814   9.125   9.786  1.5962  1.4562 -1.2848
  719MOL0     H99167   8.898   9.002  10.055 -1.8319  0.5111  1.3534
  719MOL0     H99168   8.794   8.919   9.949 -0.3529 -1.1182  2.4467
  719MOL0     H99169   8.718   9.205  10.047  4.4628  0.1245  0.6816
  719MOL0     H99170   8.627   9.079   9.947 -0.6921  1.5692  0.4683
  719MOL0     H99171   8.791   9.112  10.308 -1.1762  1.7486  1.4214
  719MOL0     H99172   8.602   8.928  10.547 -1.1366  0.1496 -1.8026
  719MOL0     H99173   8.492   9.074  10.550 -1.6923 -1.3265 -1.6193
  719MOL0     H99174   8.797   9.037  10.615 -1.1036 -1.6187 -1.0399
  719MOL0     H99175   8.731   9.194  10.574  1.1420 -0.0010  0.5103
  719MOL0     H99176   8.703   9.181  10.817 -0.4560 -0.6164  0.7824
  719MOL0     H99177   8.540   9.160  10.734  0.4087  1.1667 -1.2601
  719MOL0     H99178   8.600   8.892  10.784  0.6571  0.7423 -0.9136
  719MOL0     H99179   8.707   8.968  10.898 -0.9131  0.5447  1.0269
  719MOL0     H99180   8.550   8.792  11.099 -3.0002  0.1140  2.8683
  719MOL0     H99181   8.553   8.567  11.165  0.5964 -1.9278  0.7101
  719MOL0     H99182   8.457   8.452  11.067  1.0044  0.1769 -2.5232
  719MOL0     H99183   8.382   8.531  11.206 -1.9214 -0.6941 -4.0101
  719MOL0     H99184   7.937   8.523  10.669 -0.5049 -1.8756 -2.6606
  719MOL0     H99185   7.781   8.334  10.597  3.0872  3.0633 -2.0514
  719MOL0     H99186   7.794   7.951  10.770  2.0467  2.2362 -1.8932
  719MOL0     H99187   7.696   8.034  10.897 -1.1300 -1.8358 -0.4671
  719MOL0     H99188   7.585   7.877  10.666 -0.2040 -1.2463  0.6337
  719MOL0     H99189   7.562   7.868  10.838 -2.0154  1.5204  0.6488
  719MOL0     H99190   7.458   8.128  10.740 -0.4824  0.4409  0.1773
  719MOL0     H99191   7.398   8.006  10.856 -0.7337 -0.1328  0.1684
  719MOL0     H99192   7.402   7.981  10.552 -1.5238 -2.2523 -1.0099
  719MOL0     H99193   7.258   8.044  10.640 -1.0786 -0.8373 -2.1692
  719MOL0     H99194   7.387   7.764  10.657  0.5758  2.3552 -2.2289
  719MOL0     H99195   7.245   7.826  10.757  1.3104  0.1217  0.3953
  719MOL0     H99196   7.250   7.821  10.468  1.1053 -0.8825  1.7286
  719MOL0     H99197   7.105   7.844  10.582 -2.0300 -2.7662 -0.6263
  719MOL0     H99198   7.067   7.629  10.524  0.0947  1.7271 -1.9889
  719MOL0     H99199   7.172   7.607  10.663  4.1685 -0.6332 -1.0697
  719MOL0     H99200   7.375   7.588  10.510 -0.1846  0.5168 -0.8260
  719MOL0     H99201   7.261   7.610  10.373 -1.7382 -2.1705 -0.6109
  719MOL0     H99202   7.941   8.082  10.894 -0.8945  0.5269  0.8183
  719MOL0     H99203   8.119   8.255  10.948 -1.2384 -0.0581  2.0960
  719MOL0     H99204   8.173   8.714  10.798  2.0879 -0.0908 -2.7830
  719MOL0     H99205   8.281   8.930  10.781 -1.2967  0.0765  0.3894
  719MOL0     H99206   9.487   9.146   9.266 -1.0296 -0.6645 -0.4440
  719MOL0     H99207   9.679   9.106   9.121  1.3713  1.0997  0.5796
  719MOL0     H99208  10.178   9.067   9.088  2.9125 -0.2485  0.8009
  719MOL0     H99209  10.381   8.997   8.945  0.3962  0.8783  1.4876
  719MOL0     H99210  10.390   8.894   8.713  0.4663  0.9244  0.9676
  719MOL0     H99211  10.533   8.908   8.826  1.3148 -2.2219  1.0054
  719MOL0     H99212  10.522   8.713   8.593  0.7811  0.0472 -0.0914
  719MOL0     H99213  10.619   8.685   8.741  0.0779  0.5494  0.1014
  719MOL0     H99214  10.649   8.950   8.657  0.5705  0.1903  1.0495
  719MOL0     H99215  10.770   8.822   8.693  0.9510  1.3480 -0.6238
  719MOL0     H99216  10.789   8.921   8.467  1.2810  0.4582  0.8373
  719MOL0     H99217  10.637   8.848   8.420 -0.4231  0.8172  0.8673
  719MOL0     H99218  10.844   8.498   8.410  2.5672  0.9164 -0.1713
  719MOL0     H99219  10.196   8.612   8.919  2.0029  1.3641 -3.9859
  719MOL0     H99220   9.993   8.554   9.045 -3.9337 -0.9137 -0.4589
  719MOL0     H99221   9.917   8.670   9.135  0.0325 -2.2550  1.6646
  719MOL0     H99222   9.901   8.677   8.952  2.1450  0.8363  0.4744
  720MOL0     O99223   9.931   1.279   5.742  0.0861  0.6694 -0.0495
  720MOL0     C99224   9.971   1.245   5.859  1.0545 -1.3311  0.6779
  720MOL0     O99225   9.904   1.168   5.944  0.4732  0.2529  0.0135
  720MOL0     C99226   9.771   1.145   5.929 -0.0771  0.6767  0.5203
  720MOL0     C99227   9.671   1.235   5.914 -0.2537  0.6104 -0.8371
  720MOL0     C99228   9.542   1.189   5.896  0.2120  0.3605 -0.7525
  720MOL0     C99229   9.507   1.057   5.915 -0.6016 -0.9625 -0.6997
  720MOL0     O99230   9.376   1.032   5.928  0.1154  0.4209  0.2682
  720MOL0     C99231   9.341   0.900   5.897  0.0771  0.5305 -0.1942
  720MOL0     C99232   9.193   0.906   5.850  0.2409  0.5582 -0.4990
  720MOL0     C99233   9.136   0.770   5.796 -0.1946  0.2947  0.9498
  720MOL0     C99234   8.981   0.775   5.763  0.2251 -0.1444 -0.5069
  720MOL0     C99235   8.918   0.634   5.744 -0.7582 -0.4217 -0.0846
  720MOL0     C99236   8.776   0.645   5.715  0.1288  0.6959  0.0091
  720MOL0     C99237   8.714   0.516   5.672 -0.5471 -0.3109  0.6110
  720MOL0     C99238   8.561   0.508   5.673 -0.6701 -0.3069  0.1356
  720MOL0     N99239   8.501   0.500   5.802 -1.3129  0.8865 -0.2855
  720MOL0     C99240   8.530   0.396   5.882  0.3463  0.3990  0.3822
  720MOL0     C99241   8.455   0.409   5.994 -0.3776 -0.5456  1.2634
  720MOL0     C99242   8.472   0.326   6.120  0.0622 -0.0632  0.1050
  720MOL0     C99243   8.354   0.363   6.219 -0.1428  0.8481  0.8990
  720MOL0     C99244   8.375   0.299   6.354 -0.0903  0.2098  0.4025
  720MOL0     C99245   8.252   0.334   6.434 -0.0451 -0.8407 -0.0369
  720MOL0     O99246   8.269   0.268   6.558 -0.2328 -0.0447  0.3873
  720MOL0     C99247   8.335   0.331   6.664  0.7537 -0.2705  0.1275
  720MOL0     C99248   8.376   0.460   6.661 -1.1126 -0.3911  0.5600
  720MOL0     C99249   8.449   0.519   6.773 -0.5208 -0.2437 -0.4376
  720MOL0     C99250   8.481   0.666   6.755 -0.7986  0.2895  0.7646
  720MOL0     C99251   8.466   0.451   6.894  0.0202  0.3989 -0.0635
  720MOL0     C99252   8.538   0.495   7.012  0.4299 -0.0388 -0.5375
  720MOL0     O99253   8.569   0.406   7.104  0.8373  0.1907  0.0365
  720MOL0     C99254   8.637   0.423   7.222  0.3621  0.0332 -0.1402
  720MOL0     C99255   8.641   0.306   7.315 -0.9671 -0.0511  0.3468
  720MOL0     C99256   8.723   0.319   7.431 -0.5180  0.0237  0.4610
  720MOL0     C99257   8.793   0.439   7.463 -0.6452 -0.7502 -0.2502
  720MOL0     O99258   8.863   0.438   7.585  0.4669  0.2247  0.6960
  720MOL0     C99259   8.868   0.566   7.639 -0.0726 -0.4818  0.2671
  720MOL0     C99260   8.881   0.560   7.792  0.0422  0.2080  0.5197
  720MOL0     C99261   8.773   0.471   7.853  0.2613  0.1775  0.8491
  720MOL0     C99262   8.794   0.477   8.009  1.3050  0.4211 -0.1300
  720MOL0     C99263   8.902   0.388   8.066 -0.0443  0.1795  0.4676
  720MOL0     C99264   8.866   0.240   8.092 -0.2945 -0.4629 -0.8483
  720MOL0     C99265   8.992   0.157   8.136 -1.4164  0.2711 -0.1841
  720MOL0     C99266   8.967   0.006   8.161  0.4225 -0.1183 -0.6250
  720MOL0    Cl99267   9.072  -0.049   8.286  0.4224  1.1153 -0.1434
  720MOL0     C99268   8.781   0.547   7.380 -0.5062  0.0217 -0.8318
  720MOL0     C99269   8.702   0.543   7.260  0.0746  0.2045  0.1781
  720MOL0     O99270   8.574   0.613   7.015  0.1689 -0.9572 -0.2987
  720MOL0     C99271   8.416   0.321   6.890  0.4450  0.1234 -0.4899
  720MOL0     C99272   8.362   0.260   6.778  0.5848  0.2427  0.9573
  720MOL0     N99273   8.410   0.544   5.984  0.3642  0.1214  0.5042
  720MOL0     N99274   8.427   0.592   5.870  0.1715  0.2217 -0.7541
  720MOL0     C99275   9.612   0.964   5.935 -0.8270  0.7225  0.7940
  720MOL0     C99276   9.744   1.004   5.935  0.4493 -0.6815  1.3705
  720MOL0     C99277  10.096   1.295   5.907 -0.5474  0.7939 -1.0404
  720MOL0     C99278  10.201   1.256   5.833 -0.3384 -0.4030 -0.1423
  720MOL0     C99279  10.331   1.304   5.858  0.8036  1.1030  0.3435
  720MOL0     C99280  10.344   1.390   5.977  0.7552  0.3776 -0.1207
  720MOL0     O99281  10.458   1.457   6.013  0.0920 -0.1083  0.3044
  720MOL0     C99282  10.568   1.460   5.910 -0.0619  0.7355 -0.6515
  720MOL0     C99283  10.668   1.574   5.932  0.1824  0.8885  0.3398
  720MOL0     C99284  10.613   1.714   5.938  0.6210 -0.5831 -0.6213
  720MOL0     C99285  10.736   1.818   5.949  0.4737 -0.3920 -0.8943
  720MOL0     C99286  10.675   1.928   6.019  0.2135  0.0274  0.0224
  720MOL0     C99287  10.648   2.038   6.068  0.0272 -0.1884  0.6599
  720MOL0     C99288  10.233   1.421   6.050  0.8125  0.3423  0.0626
  720MOL0     C99289  10.105   1.375   6.017 -0.0312  1.2499  0.1684
  720MOL0     C99290   9.983   1.421   6.091 -0.7217  0.6068  0.5005
  720MOL0     H99291   9.706   1.338   5.914  0.3646  0.4855  1.8183
  720MOL0     H99292   9.464   1.265   5.889 -1.2861 -1.0366  0.1033
  720MOL0     H99293   9.342   0.844   5.991 -0.2612  0.4233 -0.2536
  720MOL0     H99294   9.405   0.848   5.826  1.3223  0.4166  0.9821
  720MOL0     H99295   9.143   0.949   5.937  0.1347  0.1447 -0.3562
  720MOL0     H99296   9.190   0.987   5.777 -1.3206  1.4268  0.4784
  720MOL0     H99297   9.177   0.749   5.697 -1.4352 -1.0597  0.6931
  720MOL0     H99298   9.152   0.682   5.859 -1.1186 -1.7985 -1.5671
  720MOL0     H99299   8.922   0.825   5.840 -0.4452 -0.8036 -0.5792
  720MOL0     H99300   8.960   0.843   5.680  0.9752  0.1084 -0.5015
  720MOL0     H99301   8.928   0.573   5.835 -0.5430  0.5323  0.5414
  720MOL0     H99302   8.970   0.586   5.661 -0.1230 -0.6015  0.4167
  720MOL0     H99303   8.721   0.684   5.801  0.1431 -3.2848  2.0992
  720MOL0     H99304   8.759   0.708   5.628 -1.0660 -2.0277 -1.8566
  720MOL0     H99305   8.755   0.438   5.737 -0.8113 -0.6669  0.3516
  720MOL0     H99306   8.747   0.500   5.569 -0.9320  3.0635 -0.1458
  720MOL0     H99307   8.533   0.604   5.627  1.7832  0.2532 -0.2879
  720MOL0     H99308   8.533   0.423   5.611 -0.3557 -1.5389  1.6184
  720MOL0     H99309   8.600   0.317   5.861 -2.0260 -1.3154 -1.7620
  720MOL0     H99310   8.569   0.342   6.167  0.6264 -1.4525 -0.5379
  720MOL0     H99311   8.453   0.225   6.083 -1.2230  0.8474 -1.9647
  720MOL0     H99312   8.375   0.469   6.235  0.1540  1.2861 -1.9542
  720MOL0     H99313   8.261   0.348   6.164  1.0803  2.6653 -1.8696
  720MOL0     H99314   8.370   0.191   6.337  0.9550  0.2395 -0.1696
  720MOL0     H99315   8.463   0.324   6.415  2.1023 -2.0329 -1.6632
  720MOL0     H99316   8.239   0.440   6.455 -0.6905 -0.9815  0.2829
  720MOL0     H99317   8.164   0.300   6.379 -0.7045  2.8721 -1.5696
  720MOL0     H99318   8.377   0.519   6.570 -2.2438 -0.7281  0.3199
  720MOL0     H99319   8.445   0.705   6.660  2.5961 -0.4172 -0.9950
  720MOL0     H99320   8.590   0.680   6.749 -1.2285  4.0071 -2.1013
  720MOL0     H99321   8.449   0.730   6.838 -1.2843  0.0919  0.7291
  720MOL0     H99322   8.604   0.211   7.278 -1.9284  0.9086 -1.2495
  720MOL0     H99323   8.745   0.244   7.506  3.2575  1.0761  0.6092
  720MOL0     H99324   8.954   0.622   7.601  1.1777 -1.8447  0.9837
  720MOL0     H99325   8.784   0.630   7.612  2.5531  2.8896 -0.6451
  720MOL0     H99326   8.982   0.521   7.808  0.1259 -0.7913 -2.0319
  720MOL0     H99327   8.872   0.658   7.841 -1.5759 -0.4716  1.6656
  720MOL0     H99328   8.792   0.368   7.823 -0.2882 -0.2610  1.9718
  720MOL0     H99329   8.669   0.496   7.828  0.0654 -0.5411  0.9313
  720MOL0     H99330   8.697   0.467   8.059  0.4834  2.3410 -1.2095
  720MOL0     H99331   8.819   0.577   8.046  0.9076  0.8213 -0.9040
  720MOL0     H99332   8.996   0.408   8.013 -0.5728  1.4489 -0.0162
  720MOL0     H99333   8.931   0.414   8.167  1.3365  0.6371 -0.0268
  720MOL0     H99334   8.824   0.195   8.001  0.8949 -3.3193 -0.1105
  720MOL0     H99335   8.795   0.235   8.175  2.1850 -3.2382  1.3426
  720MOL0     H99336   9.025   0.193   8.234 -0.4437 -0.4751 -0.2243
  720MOL0     H99337   9.075   0.182   8.069  1.1135  0.3731  2.7500
  720MOL0     H99338   8.998  -0.047   8.070 -0.2914 -2.5168  0.4676
  720MOL0     H99339   8.862  -0.015   8.182  0.2204  3.5446  3.2886
  720MOL0     H99340   8.829   0.644   7.389 -0.1809 -0.0522 -1.6970
  720MOL0     H99341   8.689   0.643   7.219 -1.1273  1.5954  3.5871
  720MOL0     H99342   8.434   0.247   6.967 -0.7415 -1.6932 -1.8662
  720MOL0     H99343   8.327   0.158   6.776 -1.7073  0.9773  0.5369
  720MOL0     H99344   9.591   0.862   5.967 -1.8395  0.5168 -0.4245
  720MOL0     H99345   9.832   0.942   5.950  0.3639 -0.7674  1.5165
  720MOL0     H99346  10.199   1.190   5.747  0.2851  0.1231 -0.5671
  720MOL0     H99347  10.408   1.270   5.790  0.0190  0.5980 -0.3198
  720MOL0     H99348  10.609   1.359   5.907  1.8279  1.4489  0.0136
  720MOL0     H99349  10.536   1.472   5.806 -1.3917 -1.1050 -0.5086
  720MOL0     H99350  10.746   1.566   5.856  1.1637 -1.0295  1.4900
  720MOL0     H99351  10.720   1.557   6.026  3.3628  3.3740 -0.7713
  720MOL0     H99352  10.541   1.740   5.860  0.5501  1.1061 -0.0398
  720MOL0     H99353  10.556   1.725   6.031  2.2494 -0.8729  0.4577
  720MOL0     H99354  10.788   1.835   5.854  3.2425 -1.7096  0.2533
  720MOL0     H99355  10.809   1.768   6.013 -1.2593  0.7376  2.1645
  720MOL0     H99356  10.636   2.125   6.129  1.8324  0.6271 -0.0707
  720MOL0     H99357  10.257   1.489   6.131  2.3389 -1.7220  1.4499
  720MOL0     H99358   9.920   1.346   6.140 -0.9466  0.5486  0.1291
  720MOL0     H99359  10.016   1.485   6.173  2.5965 -2.7326  2.1250
  720MOL0     H99360   9.918   1.473   6.020 -0.9579  3.0853  2.4111
  721MOL0     O99361   9.928  10.013   9.439 -0.5929 -0.5435  0.1855
  721MOL0     C99362   9.816   9.969   9.427  0.5075 -0.1877 -0.2211
  721MOL0     O99363   9.778   9.842   9.435 -0.4138  0.7210 -0.1976
  721MOL0     C99364   9.871   9.739   9.397  0.3278 -0.2284 -0.8211
  721MOL0     C99365   9.892   9.711   9.260  0.0144  0.1444 -0.5799
  721MOL0     C99366   9.971   9.610   9.210 -0.0888 -0.9570  0.0184
  721MOL0     C99367  10.043   9.532   9.304  0.0551 -0.0156  0.0653
  721MOL0     O99368  10.120   9.431   9.249 -0.1446  0.1105 -0.0040
  721MOL0     C99369  10.206   9.366   9.353 -0.5944  0.0132 -0.7833
  721MOL0     C99370  10.316   9.273   9.290 -1.0216 -0.1738  0.1536
  721MOL0     C99371  10.411   9.212   9.400  0.2236 -0.5094  0.1349
  721MOL0     C99372  10.329   9.127   9.503  1.0475 -0.3098  0.2026
  721MOL0     C99373  10.417   9.022   9.563 -1.0744  0.6511 -0.5085
  721MOL0     C99374  10.430   8.883   9.491 -0.0178 -0.9422 -0.2669
  721MOL0     C99375  10.290   8.831   9.436  0.1200 -0.9367  0.2933
  721MOL0     C99376  10.290   8.678   9.410 -0.2744  0.9294  1.0450
  721MOL0     N99377  10.416   8.622   9.354  1.4898  0.0686  0.0523
  721MOL0     C99378  10.448   8.622   9.221  0.4884  0.0215 -0.4422
  721MOL0     C99379  10.579   8.569   9.220  0.1261 -0.0233 -0.9977
  721MOL0     C99380  10.650   8.571   9.086  0.1792 -0.9248  0.6788
  721MOL0     C99381  10.580   8.476   8.998 -1.1746  0.2245 -0.2588
  721MOL0     C99382  10.646   8.454   8.854  1.2442  0.5187  1.1532
  721MOL0     C99383  10.659   8.305   8.815  0.4496 -0.4790 -0.3564
  721MOL0     O99384  10.784   8.262   8.876 -0.6312  0.1258 -0.0766
  721MOL0     C99385  10.813   8.130   8.842 -0.5304 -0.9074 -0.2908
  721MOL0     C99386  10.814   8.072   8.708  0.1508 -0.5789  0.3573
  721MOL0     C99387  10.827   7.941   8.685 -1.0493  0.8794  0.0894
  721MOL0     C99388  10.826   7.875   8.554 -0.0154  0.9153  0.7290
  721MOL0     C99389  10.840   7.859   8.798  0.4337  0.1629  0.3877
  721MOL0     C99390  10.868   7.713   8.798 -0.1375 -0.2131  0.2843
  721MOL0     O99391  11.002   7.681   8.806  0.8037  0.5175  0.2277
  721MOL0     C99392  11.056   7.555   8.785 -0.3735 -0.0495 -0.2544
  721MOL0     C99393  11.195   7.523   8.800 -0.1359 -0.5688 -0.1453
  721MOL0     C99394  11.260   7.415   8.745  0.2641  0.5556  0.0508
  721MOL0     C99395  11.189   7.316   8.683  0.5088  0.8709 -0.5774
  721MOL0     O99396  11.265   7.204   8.629 -0.2437 -0.0927  0.3380
  721MOL0     C99397  11.198   7.093   8.562  0.1102  0.6856 -0.4502
  721MOL0     C99398  11.314   7.014   8.498  0.0151 -0.5269  0.2353
  721MOL0     C99399  11.371   7.068   8.363 -0.6153  0.5181  0.0454
  721MOL0     C99400  11.489   6.991   8.294  0.6310 -0.7867  0.7054
  721MOL0     C99401  11.467   6.843   8.283 -0.2567 -0.3657 -0.0320
  721MOL0     C99402  11.569   6.791   8.183  0.2593 -0.1108  0.1165
  721MOL0     C99403  11.586   6.641   8.182 -0.3045 -0.8204  0.4309
  721MOL0     C99404  11.709   6.594   8.097  0.1982  0.5163 -0.9995
  721MOL0    Cl99405  11.706   6.407   8.092 -0.0052 -0.2690  0.3225
  721MOL0     C99406  11.052   7.338   8.670 -0.0188  1.2303 -1.0736
  721MOL0     C99407  10.985   7.457   8.712 -0.6024  0.0474  0.0783
  721MOL0     O99408  10.774   7.639   8.825  1.1166 -1.1251 -0.3508
  721MOL0     C99409  10.836   7.912   8.927  0.0280 -0.4310  0.2300
  721MOL0     C99410  10.842   8.047   8.950 -0.3193 -0.7374 -1.2580
  721MOL0     N99411  10.613   8.535   9.343 -0.2731  0.1949 -0.7409
  721MOL0     N99412  10.515   8.566   9.422 -0.4175  0.5009 -0.4050
  721MOL0     C99413  10.027   9.564   9.436  0.8176  0.3930 -0.2627
  721MOL0     C99414   9.939   9.663   9.489  0.0755 -0.3764  0.0218
  721MOL0     C99415   9.717  10.079   9.427 -0.3335 -1.0661  0.0771
  721MOL0     C99416   9.748  10.197   9.365  0.2179  0.0614  0.7714
  721MOL0     C99417   9.652  10.301   9.352  0.5814  0.9610 -0.9085
  721MOL0     C99418   9.527  10.298   9.411 -0.6716 -0.4866 -0.0979
  721MOL0     O99419   9.443  10.409   9.405  0.4430  0.2944 -0.7279
  721MOL0     C99420   9.488  10.530   9.338  0.8183  1.2239 -0.6424
  721MOL0     C99421   9.584  10.610   9.420 -0.9243 -0.5314  0.1091
  721MOL0     C99422   9.604  10.747   9.357 -1.0056 -0.5392  0.0059
  721MOL0     C99423   9.700  10.841   9.433  0.7043  1.2396  0.4964
  721MOL0     C99424   9.734  10.961   9.355 -0.3680  0.8990  0.5662
  721MOL0     C99425   9.780  11.050   9.296 -0.5357  0.7567  0.4842
  721MOL0     C99426   9.497  10.188   9.484  0.8648  0.0165  0.1595
  721MOL0     C99427   9.590  10.072   9.493  0.0903 -0.1420 -1.0986
  721MOL0     C99428   9.537   9.943   9.559 -0.0394  0.2330 -0.9228
  721MOL0     H99429   9.839   9.773   9.188  0.5208 -1.4275 -2.4015
  721MOL0     H99430   9.970   9.597   9.102  0.7292 -0.7079 -0.0316
  721MOL0     H99431  10.143   9.310   9.424 -0.7602  1.6559  0.4239
  721MOL0     H99432  10.267   9.444   9.398 -0.4372 -0.6739  0.2420
  721MOL0     H99433  10.260   9.196   9.236  0.4551  1.3005 -3.8632
  721MOL0     H99434  10.380   9.332   9.224 -2.2774  1.3257  0.2247
  721MOL0     H99435  10.473   9.141   9.345 -2.6458 -1.7077 -1.7854
  721MOL0     H99436  10.461   9.299   9.442 -0.8776  0.3336 -0.2559
  721MOL0     H99437  10.289   9.191   9.582 -1.2417  3.5617 -3.6847
  721MOL0     H99438  10.238   9.086   9.458  3.1052 -2.7921 -2.0595
  721MOL0     H99439  10.389   9.019   9.669  2.9516  0.8192  0.7200
  721MOL0     H99440  10.522   9.046   9.579 -0.5315 -3.1982  3.6084
  721MOL0     H99441  10.513   8.893   9.420 -1.2814 -3.0017 -2.1596
  721MOL0     H99442  10.470   8.822   9.572  1.6579  1.4945  0.8879
  721MOL0     H99443  10.254   8.884   9.347 -1.6002 -0.3264  1.2983
  721MOL0     H99444  10.214   8.859   9.510 -2.3119  2.6524 -3.1243
  721MOL0     H99445  10.296   8.625   9.505  0.5006 -1.9629 -0.5093
  721MOL0     H99446  10.210   8.644   9.345  0.9976  0.2983 -0.2598
  721MOL0     H99447  10.391   8.653   9.134 -1.1875 -0.0875  0.5849
  721MOL0     H99448  10.758   8.555   9.093  0.1246 -2.7887 -1.6626
  721MOL0     H99449  10.628   8.671   9.048 -0.8055 -1.1404  0.6666
  721MOL0     H99450  10.585   8.378   9.046  0.6503  0.4404  0.0755
  721MOL0     H99451  10.478   8.507   8.975 -2.2112 -3.1412 -0.6869
  721MOL0     H99452  10.573   8.488   8.780  2.2677 -1.2990 -0.8066
  721MOL0     H99453  10.744   8.503   8.847  0.2725  2.3952 -0.3883
  721MOL0     H99454  10.568   8.255   8.850 -0.2020  0.3064 -0.8904
  721MOL0     H99455  10.661   8.305   8.706 -4.7044  1.0119 -0.7243
  721MOL0     H99456  10.794   8.136   8.623  2.2155  1.2374  1.1503
  721MOL0     H99457  10.762   7.787   8.553 -1.2768  1.7245  2.8644
  721MOL0     H99458  10.926   7.836   8.533  0.3861  2.5216 -0.5838
  721MOL0     H99459  10.798   7.948   8.477  1.5059  3.4689  2.4315
  721MOL0     H99460  11.267   7.599   8.829 -0.4110 -0.1243 -0.6060
  721MOL0     H99461  11.368   7.404   8.749  0.0669 -1.5882  2.5952
  721MOL0     H99462  11.153   7.027   8.636  0.9584  0.5491 -0.0492
  721MOL0     H99463  11.120   7.118   8.489  2.2950  1.9935 -2.4581
  721MOL0     H99464  11.389   6.987   8.574 -0.0390 -0.5496  0.2824
  721MOL0     H99465  11.277   6.911   8.487  3.7376 -1.9326 -0.8593
  721MOL0     H99466  11.411   7.170   8.368 -2.0489  1.1023  0.1544
  721MOL0     H99467  11.277   7.068   8.308  0.1145 -0.8312 -1.2673
  721MOL0     H99468  11.585   7.010   8.343 -0.3511  0.4047  2.2409
  721MOL0     H99469  11.490   7.034   8.194 -0.2010  2.1151  1.8405
  721MOL0     H99470  11.494   6.800   8.380  2.5896  0.0992 -0.5204
  721MOL0     H99471  11.366   6.822   8.246 -0.2603 -0.7622  0.1886
  721MOL0     H99472  11.663   6.841   8.205 -1.7850  4.3375 -0.2463
  721MOL0     H99473  11.554   6.827   8.081 -3.2211 -1.6586 -0.0757
  721MOL0     H99474  11.504   6.582   8.140  0.6287 -1.6538 -0.2768
  721MOL0     H99475  11.598   6.596   8.282  0.6530 -0.2954  0.5662
  721MOL0     H99476  11.808   6.623   8.133  0.4133 -0.4083 -0.8135
  721MOL0     H99477  11.703   6.633   7.996  1.7401  1.2684 -0.8355
  721MOL0     H99478  10.991   7.251   8.648  0.7627  1.2650 -3.7366
  721MOL0     H99479  10.878   7.453   8.728 -0.6621 -3.7979 -0.1662
  721MOL0     H99480  10.834   7.832   9.000 -4.1157 -1.5106 -0.8058
  721MOL0     H99481  10.854   8.090   9.049 -0.7829  2.9767 -2.6572
  721MOL0     H99482  10.082   9.504   9.508 -1.8017 -1.4505  0.3487
  721MOL0     H99483   9.924   9.690   9.593 -1.0059  4.5542 -1.1478
  721MOL0     H99484   9.843  10.219   9.317  1.0594  0.6805  2.6267
  721MOL0     H99485   9.694  10.387   9.301  1.8860  2.6498  2.6507
  721MOL0     H99486   9.521  10.503   9.237 -0.5790 -0.6741 -0.6413
  721MOL0     H99487   9.411  10.605   9.321 -0.9288 -0.5971 -1.1976
  721MOL0     H99488   9.678  10.557   9.436 -3.3348 -4.9956  1.2073
  721MOL0     H99489   9.525  10.629   9.511 -0.8525 -1.7135  0.4187
  721MOL0     H99490   9.633  10.746   9.251  0.9467 -0.5007  0.5148
  721MOL0     H99491   9.505  10.793   9.342 -1.9413 -2.0435  1.2169
  721MOL0     H99492   9.795  10.788   9.448 -0.7143 -1.3366  0.9117
  721MOL0     H99493   9.669  10.875   9.532  2.2762  1.1831  1.0429
  721MOL0     H99494   9.822  11.134   9.245  0.7189 -1.2022 -1.9362
  721MOL0     H99495   9.401  10.187   9.535  0.7498 -1.3571 -0.0284
  721MOL0     H99496   9.432   9.949   9.590 -0.6742 -5.0148 -1.1751
  721MOL0     H99497   9.527   9.865   9.483 -2.0697  1.1701 -1.7007
  721MOL0     H99498   9.603   9.914   9.641 -0.2228  2.5628  0.1175
  722MOL0     O99499   7.976   2.810   0.536 -0.1873 -0.3817 -0.2163
  722MOL0     C99500   7.920   2.761   0.442  0.2765  1.2364  0.2219
  722MOL0     O99501   7.789   2.791   0.399 -0.3109 -0.5507 -0.4613
  722MOL0     C99502   7.714   2.883   0.457 -0.0169 -0.8578 -0.1408
  722MOL0     C99503   7.742   3.020   0.449 -0.1730 -0.3937 -0.0984
  722MOL0     C99504   7.660   3.118   0.504 -0.0164 -0.6492  0.2028
  722MOL0     C99505   7.553   3.074   0.590 -0.8341  0.3245 -0.0209
  722MOL0     O99506   7.477   3.156   0.662 -0.3343 -0.0630 -0.7252
  722MOL0     C99507   7.548   3.258   0.728 -0.1424 -0.2709  0.1987
  722MOL0     C99508   7.527   3.390   0.667 -0.4835 -0.9168  0.3276
  722MOL0     C99509   7.561   3.509   0.771  0.7526 -0.1489 -0.2885
  722MOL0     C99510   7.562   3.644   0.700  0.0424 -0.5083  0.6898
  722MOL0     C99511   7.572   3.763   0.792  0.0347 -0.1270 -0.0547
  722MOL0     C99512   7.513   3.884   0.719 -0.3417  0.2693 -0.3140
  722MOL0     C99513   7.500   3.995   0.825 -0.1486 -0.7154  0.1440
  722MOL0     C99514   7.632   4.049   0.880 -0.9975  0.4562  0.5879
  722MOL0     N99515   7.607   4.159   0.970 -0.5214 -0.0261  0.2587
  722MOL0     C99516   7.564   4.156   1.103  0.1575  0.0911 -0.1272
  722MOL0     C99517   7.557   4.286   1.141  0.6974  0.2058 -0.7291
  722MOL0     C99518   7.485   4.350   1.258 -0.6541  0.2797  0.1844
  722MOL0     C99519   7.579   4.353   1.379 -0.0019 -0.3669  0.8812
  722MOL0     C99520   7.516   4.419   1.504 -0.1549 -0.7598  0.1357
  722MOL0     C99521   7.438   4.553   1.491 -0.4430  0.5750 -0.3185
  722MOL0     O99522   7.333   4.552   1.409 -0.3624  0.3521  0.4632
  722MOL0     C99523   7.232   4.635   1.447  0.7347 -0.4157 -0.0036
  722MOL0     C99524   7.244   4.767   1.499  0.6071  0.5714 -0.3072
  722MOL0     C99525   7.122   4.843   1.537  0.1497 -0.7688  0.2763
  722MOL0     C99526   7.149   4.995   1.563  0.3256 -0.1662  0.6255
  722MOL0     C99527   6.994   4.791   1.529 -0.2443  1.5430 -0.2320
  722MOL0     C99528   6.865   4.867   1.560  0.4892 -0.2319  0.3593
  722MOL0     O99529   6.866   4.958   1.660  0.7068 -0.2518 -0.5757
  722MOL0     C99530   6.761   5.037   1.684 -0.4250 -1.1162  0.5540
  722MOL0     C99531   6.724   5.152   1.608 -0.0541  0.7205  0.6245
  722MOL0     C99532   6.613   5.229   1.638 -0.0298 -0.2898  0.7291
  722MOL0     C99533   6.529   5.197   1.740  0.1146 -0.3004 -0.5290
  722MOL0     O99534   6.415   5.266   1.772  0.9887  0.3792 -0.0928
  722MOL0     C99535   6.338   5.308   1.662  0.9081  0.3535  0.6821
  722MOL0     C99536   6.369   5.460   1.665 -0.1365 -0.4104 -0.6979
  722MOL0     C99537   6.287   5.545   1.571  0.7432  0.4823  1.1871
  722MOL0     C99538   6.144   5.559   1.627 -0.4149  0.8905  0.1209
  722MOL0     C99539   6.065   5.672   1.561 -0.3823  1.4501 -1.0866
  722MOL0     C99540   6.089   5.805   1.626 -0.5659  0.1929  0.2378
  722MOL0     C99541   6.008   5.904   1.548  0.0256  0.2962 -0.0763
  722MOL0     C99542   6.053   6.046   1.573  0.6101  0.1582 -0.5207
  722MOL0    Cl99543   6.178   6.085   1.453 -0.1811 -0.2245  0.1034
  722MOL0     C99544   6.563   5.077   1.814 -0.2786 -0.8169  1.3540
  722MOL0     C99545   6.679   5.004   1.789 -0.2818 -0.6622 -1.0880
  722MOL0     O99546   6.780   4.858   1.474  0.0042 -0.1331  0.7272
  722MOL0     C99547   6.991   4.651   1.489  0.0046 -1.1073  1.0163
  722MOL0     C99548   7.107   4.573   1.457  1.1601  0.0009 -0.0237
  722MOL0     N99549   7.596   4.363   1.035 -0.0420 -0.2781  0.3637
  722MOL0     N99550   7.632   4.291   0.929  0.7014 -1.0168 -0.3286
  722MOL0     C99551   7.521   2.939   0.593  0.3930 -0.2350  0.2993
  722MOL0     C99552   7.601   2.847   0.518 -0.9593 -1.2153 -0.8113
  722MOL0     C99553   7.982   2.640   0.386 -0.1847  0.4063  0.1512
  722MOL0     C99554   8.121   2.633   0.406 -1.4494  0.5436  0.3976
  722MOL0     C99555   8.191   2.519   0.357  0.7942 -0.6941 -0.4868
  722MOL0     C99556   8.129   2.419   0.287 -0.5222 -0.3761 -0.4594
  722MOL0     O99557   8.200   2.315   0.228  0.3424 -0.2378 -0.4372
  722MOL0     C99558   8.343   2.313   0.232  0.2696  0.7772 -0.4276
  722MOL0     C99559   8.402   2.382   0.112  0.0181  0.1024  0.9015
  722MOL0     C99560   8.555   2.352   0.108 -0.8441  0.1665  0.3273
  722MOL0     C99561   8.640   2.445   0.017  0.4776  0.1728  0.1702
  722MOL0     C99562   8.761   2.380  -0.030 -0.8397  0.9129 -0.6528
  722MOL0     C99563   8.864   2.332  -0.084  0.3731  0.1207  0.8513
  722MOL0     C99564   7.993   2.416   0.274 -0.1993 -0.0526 -0.2132
  722MOL0     C99565   7.919   2.524   0.331 -0.2735 -0.8072 -0.4272
  722MOL0     C99566   7.772   2.499   0.333 -0.2146 -0.1378  0.3315
  722MOL0     H99567   7.839   3.041   0.403  0.7601  3.1256  3.0064
  722MOL0     H99568   7.700   3.218   0.495  0.2554 -0.7875 -0.1644
  722MOL0     H99569   7.653   3.229   0.737 -0.7342 -1.7986  3.3375
  722MOL0     H99570   7.522   3.268   0.834  3.8351  3.5395  1.0841
  722MOL0     H99571   7.598   3.405   0.586 -0.2061 -4.3115 -0.2141
  722MOL0     H99572   7.422   3.401   0.638 -0.5834  1.3765  1.3766
  722MOL0     H99573   7.477   3.506   0.841  1.9551 -0.4313  1.1772
  722MOL0     H99574   7.651   3.491   0.830  0.4325 -0.5799  0.0758
  722MOL0     H99575   7.644   3.649   0.628 -1.6144  2.9369 -1.2232
  722MOL0     H99576   7.469   3.655   0.643  0.7855  1.7511 -0.2019
  722MOL0     H99577   7.677   3.788   0.815 -0.4758  3.8842 -1.3058
  722MOL0     H99578   7.514   3.741   0.882 -2.8790  2.7141 -1.0556
  722MOL0     H99579   7.558   3.912   0.623  0.1148  1.6439  0.2799
  722MOL0     H99580   7.409   3.860   0.694 -0.5746  1.8711 -1.0043
  722MOL0     H99581   7.435   3.954   0.903 -1.8734 -0.3747 -1.0598
  722MOL0     H99582   7.457   4.080   0.772  0.5962 -0.4974 -0.1214
  722MOL0     H99583   7.672   3.960   0.932 -2.0122 -1.2376 -1.3838
  722MOL0     H99584   7.696   4.071   0.795  0.0127  2.6127  1.8209
  722MOL0     H99585   7.530   4.073   1.164  0.3001  1.0539  1.3177
  722MOL0     H99586   7.396   4.297   1.295  0.1142 -0.2840  1.2921
  722MOL0     H99587   7.457   4.452   1.230  1.7179  1.1433  0.7464
  722MOL0     H99588   7.621   4.256   1.408  0.2151 -0.8148 -0.8734
  722MOL0     H99589   7.662   4.421   1.359 -0.0533  1.1027  4.6737
  722MOL0     H99590   7.435   4.350   1.528 -1.3016  0.4614 -0.0929
  722MOL0     H99591   7.588   4.417   1.586  1.1396 -1.4302 -0.9764
  722MOL0     H99592   7.402   4.589   1.588 -0.8527 -0.4346 -0.0820
  722MOL0     H99593   7.513   4.628   1.463 -0.9443  1.5087  0.7504
  722MOL0     H99594   7.341   4.816   1.493  2.0407 -1.4945  2.9263
  722MOL0     H99595   7.148   5.011   1.671 -0.3442 -0.2947  0.6400
  722MOL0     H99596   7.063   5.051   1.527 -0.4006 -2.4895 -1.5252
  722MOL0     H99597   7.239   5.038   1.517 -2.4050  4.8225 -0.7831
  722MOL0     H99598   6.789   5.183   1.528 -0.6600  0.6959  0.1128
  722MOL0     H99599   6.595   5.315   1.576 -2.7914 -0.3318  1.3199
  722MOL0     H99600   6.364   5.263   1.566 -2.6612  0.4128 -0.4536
  722MOL0     H99601   6.232   5.289   1.683  0.6252 -1.2020 -1.7009
  722MOL0     H99602   6.346   5.483   1.770 -1.2230 -0.5680 -0.8821
  722MOL0     H99603   6.472   5.486   1.642 -0.4151  2.0890  0.5436
  722MOL0     H99604   6.296   5.491   1.476 -0.3939  1.2602  0.6155
  722MOL0     H99605   6.337   5.642   1.563 -0.6366  1.0891 -1.4882
  722MOL0     H99606   6.148   5.583   1.734 -3.7738 -0.0607  0.5621
  722MOL0     H99607   6.087   5.465   1.629 -0.2851  0.7688 -1.2137
  722MOL0     H99608   6.079   5.660   1.453  2.7386  0.2201 -0.6285
  722MOL0     H99609   5.957   5.658   1.568 -0.6357  3.2908 -0.7823
  722MOL0     H99610   6.194   5.835   1.611 -1.5354  2.1945 -3.8932
  722MOL0     H99611   6.069   5.802   1.734  2.2515 -0.0007  0.8434
  722MOL0     H99612   5.904   5.895   1.580  0.9741  1.1586  3.8247
  722MOL0     H99613   6.011   5.889   1.440 -1.7296 -1.2742  0.0398
  722MOL0     H99614   6.076   6.070   1.677  0.4824  1.3551 -0.7609
  722MOL0     H99615   5.969   6.113   1.553  0.5285  0.0473 -0.5521
  722MOL0     H99616   6.492   5.064   1.895  0.0826  0.3688  1.8904
  722MOL0     H99617   6.684   4.916   1.851 -1.8782 -0.3741 -0.5052
  722MOL0     H99618   6.892   4.608   1.483 -0.9319  0.8629  1.2948
  722MOL0     H99619   7.098   4.468   1.432 -0.0122 -0.4192  1.9474
  722MOL0     H99620   7.438   2.899   0.651 -0.0202 -0.6510 -0.5635
  722MOL0     H99621   7.577   2.742   0.530  0.4864 -1.6311 -1.3960
  722MOL0     H99622   8.178   2.714   0.449  0.4612 -1.2467  1.4049
  722MOL0     H99623   8.298   2.533   0.371  0.4024  1.2630  1.0895
  722MOL0     H99624   8.384   2.347   0.328  1.7689 -0.2551 -0.6696
  722MOL0     H99625   8.374   2.208   0.228 -1.0260  0.4219 -2.1849
  722MOL0     H99626   8.387   2.488   0.135  1.0760  0.3204  0.6429
  722MOL0     H99627   8.346   2.353   0.023  0.7720 -0.4602  0.6001
  722MOL0     H99628   8.587   2.360   0.212 -1.0542  0.6576  0.3595
  722MOL0     H99629   8.564   2.252   0.066  0.6237  0.4958 -0.1938
  722MOL0     H99630   8.681   2.534   0.065  3.4320  0.4723 -2.5883
  722MOL0     H99631   8.580   2.474  -0.070  4.0897  2.4266 -1.8191
  722MOL0     H99632   8.950   2.281  -0.122  0.6166  0.7577  0.5201
  722MOL0     H99633   7.946   2.328   0.231  2.7608 -2.1004  0.4606
  722MOL0     H99634   7.748   2.397   0.304  0.3218  0.4317 -2.4141
  722MOL0     H99635   7.725   2.531   0.427 -1.4658  0.2268 -0.3942
  722MOL0     H99636   7.727   2.569   0.262 -0.0303  0.1296  0.4755
  723MOL0     O99637   6.909   0.056   5.360 -0.3177 -0.0831  1.0989
  723MOL0     C99638   6.842   0.098   5.268  0.1767  0.2802  0.4627
  723MOL0     O99639   6.722   0.147   5.288 -0.9446 -0.3261 -0.2910
  723MOL0     C99640   6.637   0.108   5.387 -1.0488 -0.3692  0.5361
  723MOL0     C99641   6.566  -0.003   5.355  1.3260 -0.2249  0.1002
  723MOL0     C99642   6.465  -0.055   5.438  0.6245 -0.3162 -0.6975
  723MOL0     C99643   6.434   0.016   5.559 -0.9515 -0.3602  0.7279
  723MOL0     O99644   6.330  -0.012   5.645  0.5036 -0.1707 -0.0631
  723MOL0     C99645   6.255  -0.128   5.612 -0.0415 -0.2369 -0.7753
  723MOL0     C99646   6.151  -0.143   5.726 -0.6767 -0.2178  0.2171
  723MOL0     C99647   6.051  -0.253   5.687  0.1472  0.6146  0.3328
  723MOL0     C99648   6.004  -0.336   5.801 -0.6104 -0.3564  1.3666
  723MOL0     C99649   5.907  -0.253   5.870  1.0366 -1.1477 -0.1380
  723MOL0     C99650   5.783  -0.335   5.920  0.4852  0.3623  0.0182
  723MOL0     C99651   5.835  -0.421   6.037 -0.2364  0.3373  0.4411
  723MOL0     C99652   5.722  -0.515   6.084 -0.2935 -0.1364 -0.6180
  723MOL0     N99653   5.685  -0.597   5.973 -0.3784 -0.3530  0.0111
  723MOL0     C99654   5.779  -0.671   5.899  0.5435 -0.4006 -0.7980
  723MOL0     C99655   5.703  -0.729   5.801  0.2828 -0.5244 -0.9688
  723MOL0     C99656   5.753  -0.822   5.698  0.1639  0.3911 -0.3701
  723MOL0     C99657   5.834  -0.763   5.593  0.0512 -0.4909 -0.1920
  723MOL0     C99658   5.898  -0.883   5.524  0.0041  1.0562  0.2505
  723MOL0     C99659   5.938  -0.851   5.382 -0.2147 -0.3435 -0.7150
  723MOL0     O99660   6.076  -0.804   5.374  1.2094  0.3049  0.5206
  723MOL0     C99661   6.132  -0.803   5.249 -0.2980  0.6231  0.0954
  723MOL0     C99662   6.071  -0.839   5.126  0.0371  0.2512  0.8794
  723MOL0     C99663   6.133  -0.819   4.997 -0.4515  0.3275 -0.0312
  723MOL0     C99664   6.066  -0.880   4.867  0.5097 -0.1586  0.0760
  723MOL0     C99665   6.264  -0.753   4.994  0.2279  0.8182 -0.7996
  723MOL0     C99666   6.335  -0.709   4.875 -0.6807 -0.0754 -0.2911
  723MOL0     O99667   6.468  -0.678   4.897 -0.4485  0.1462 -0.9587
  723MOL0     C99668   6.561  -0.629   4.797  0.5800  0.4128  0.9663
  723MOL0     C99669   6.528  -0.582   4.664 -0.2180  0.2267  0.2249
  723MOL0     C99670   6.642  -0.561   4.578  0.3505  0.5608  0.5230
  723MOL0     C99671   6.774  -0.571   4.623  0.0448  0.0611 -0.7189
  723MOL0     O99672   6.882  -0.545   4.535  0.0348  0.8324 -0.4322
  723MOL0     C99673   7.015  -0.582   4.573 -0.5210 -0.7549 -0.5786
  723MOL0     C99674   7.106  -0.542   4.453 -0.4102  0.6824 -0.5674
  723MOL0     C99675   7.071  -0.639   4.337  0.0742 -0.6980 -0.1927
  723MOL0     C99676   7.164  -0.635   4.220  0.6147  0.2090 -0.2424
  723MOL0     C99677   7.101  -0.673   4.076 -0.0261  0.1027 -0.2634
  723MOL0     C99678   7.080  -0.821   4.080 -0.2690  0.9477 -0.0070
  723MOL0     C99679   7.188  -0.897   4.005  0.3077 -0.5485  0.3032
  723MOL0     C99680   7.201  -0.895   3.857  0.1514  0.8238  0.7786
  723MOL0    Cl99681   7.038  -0.890   3.790  0.4502 -0.1006 -0.1677
  723MOL0     C99682   6.800  -0.596   4.761  0.1203  0.7002  0.0853
  723MOL0     C99683   6.693  -0.643   4.842  0.1971 -0.7058 -0.5971
  723MOL0     O99684   6.278  -0.709   4.768 -0.2273  0.1377 -0.1568
  723MOL0     C99685   6.329  -0.732   5.124  0.1406 -1.1559 -0.9472
  723MOL0     C99686   6.261  -0.757   5.243  0.3164  0.8001 -0.9908
  723MOL0     N99687   5.572  -0.691   5.827 -0.3224 -0.3641  0.0006
  723MOL0     N99688   5.558  -0.628   5.940 -1.1979 -0.0657 -0.3180
  723MOL0     C99689   6.504   0.135   5.582  0.0233  0.3458  0.8639
  723MOL0     C99690   6.603   0.185   5.496  0.5424 -0.1880 -0.8778
  723MOL0     C99691   6.890   0.109   5.126  0.4481  0.3299 -0.8775
  723MOL0     C99692   7.020   0.059   5.097 -0.1682  0.2197  0.2215
  723MOL0     C99693   7.069   0.058   4.972 -0.7624  1.1904  0.3418
  723MOL0     C99694   7.009   0.116   4.863 -0.6614  0.2877 -0.2526
  723MOL0     O99695   7.072   0.123   4.738  0.8498 -0.1659 -0.6537
  723MOL0     C99696   7.207   0.144   4.733  0.4453  0.2169  0.2739
  723MOL0     C99697   7.248   0.137   4.586 -0.0055  1.1588 -0.8563
  723MOL0     C99698   7.381   0.217   4.570 -0.2078 -0.0188  0.0692
  723MOL0     C99699   7.383   0.277   4.430  0.5780  0.0002 -0.7047
  723MOL0     C99700   7.522   0.303   4.394  1.3635 -0.8278 -0.1255
  723MOL0     C99701   7.629   0.345   4.365  0.4903 -0.5366  0.0936
  723MOL0     C99702   6.882   0.168   4.887 -0.4253  0.5105  0.7813
  723MOL0     C99703   6.820   0.165   5.012  1.1024 -0.6835  0.2908
  723MOL0     C99704   6.673   0.197   5.017 -0.7243  0.8799 -0.1800
  723MOL0     H99705   6.581  -0.077   5.277  3.7624 -1.1317  1.3271
  723MOL0     H99706   6.421  -0.148   5.406 -1.2852 -0.2005  1.3548
  723MOL0     H99707   6.319  -0.216   5.609  1.3119  0.5351  1.8715
  723MOL0     H99708   6.198  -0.124   5.519  1.5429  0.7151 -1.7347
  723MOL0     H99709   6.208  -0.170   5.815 -0.4088  2.3321  0.8922
  723MOL0     H99710   6.103  -0.046   5.734  2.1420  1.3859 -0.9398
  723MOL0     H99711   5.974  -0.206   5.626 -0.0179  0.4020  0.3775
  723MOL0     H99712   6.095  -0.322   5.614 -0.0738 -1.0936  1.7299
  723MOL0     H99713   5.964  -0.424   5.749  0.5471  0.5675 -1.2064
  723MOL0     H99714   6.085  -0.376   5.862 -1.8976 -4.9128  0.5298
  723MOL0     H99715   5.867  -0.173   5.807 -0.8004 -2.3475 -0.5503
  723MOL0     H99716   5.960  -0.201   5.951  0.1454  3.1794 -2.0365
  723MOL0     H99717   5.717  -0.259   5.963 -0.6412 -0.4800 -0.1756
  723MOL0     H99718   5.738  -0.377   5.830  1.2513  3.5708 -2.0252
  723MOL0     H99719   5.864  -0.355   6.119  1.7655  1.9491 -1.4485
  723MOL0     H99720   5.919  -0.483   6.005 -2.2034 -0.7606 -3.2257
  723MOL0     H99721   5.751  -0.590   6.159 -1.1658  1.8630  1.8666
  723MOL0     H99722   5.637  -0.460   6.125 -2.8125 -2.2679 -2.6792
  723MOL0     H99723   5.887  -0.673   5.908  0.6765  0.4766 -1.9043
  723MOL0     H99724   5.667  -0.879   5.662 -0.5941 -1.8929  4.2267
  723MOL0     H99725   5.795  -0.908   5.750 -4.3667 -1.5437  0.5856
  723MOL0     H99726   5.770  -0.713   5.520  0.5380  0.6660  0.1514
  723MOL0     H99727   5.908  -0.689   5.625  0.2221 -0.4544 -0.6626
  723MOL0     H99728   5.980  -0.927   5.581 -1.9323 -3.1730  0.1660
  723MOL0     H99729   5.817  -0.956   5.513 -0.4582  1.4354  1.0301
  723MOL0     H99730   5.935  -0.944   5.326 -1.7251 -0.9813  0.3502
  723MOL0     H99731   5.862  -0.785   5.339 -2.3079 -1.7747  0.6036
  723MOL0     H99732   5.969  -0.873   5.133 -0.0414  0.7256  2.2171
  723MOL0     H99733   6.011  -0.969   4.899 -2.1176  1.2160 -0.3498
  723MOL0     H99734   6.138  -0.907   4.790  0.3819 -1.8536  0.5191
  723MOL0     H99735   6.000  -0.804   4.825  0.2320  0.4033  1.4555
  723MOL0     H99736   6.425  -0.564   4.635 -1.3402 -3.6256  1.2159
  723MOL0     H99737   6.614  -0.545   4.474 -0.8142  2.1720  1.0506
  723MOL0     H99738   7.051  -0.524   4.659  0.6223 -1.2201 -0.7205
  723MOL0     H99739   7.026  -0.690   4.590  1.4516 -0.4370  0.5422
  723MOL0     H99740   7.086  -0.437   4.432  1.3377  1.3871  1.0119
  723MOL0     H99741   7.212  -0.545   4.478  0.0078  2.1451 -1.9962
  723MOL0     H99742   6.971  -0.603   4.308  0.5863  2.6060  1.6862
  723MOL0     H99743   7.069  -0.742   4.371  3.9881 -1.1302 -0.8299
  723MOL0     H99744   7.240  -0.714   4.223 -1.2055 -1.6432 -0.6891
  723MOL0     H99745   7.208  -0.535   4.223 -1.1125  0.9670  2.2088
  723MOL0     H99746   7.012  -0.630   4.030 -0.8008 -2.2929 -1.1878
  723MOL0     H99747   7.174  -0.636   4.004  0.4364  0.9859  0.6333
  723MOL0     H99748   6.990  -0.870   4.042  0.3547 -0.1742 -0.0589
  723MOL0     H99749   7.074  -0.866   4.180  0.2012  0.7847 -0.0463
  723MOL0     H99750   7.170  -1.000   4.038 -1.4671 -0.4351 -0.1722
  723MOL0     H99751   7.289  -0.874   4.039  1.0831 -2.8348 -0.2551
  723MOL0     H99752   7.244  -0.990   3.823  0.0228 -0.8535  4.7448
  723MOL0     H99753   7.255  -0.807   3.822  1.2077 -0.0726  0.1042
  723MOL0     H99754   6.896  -0.589   4.811  0.1023  0.9986  0.0841
  723MOL0     H99755   6.712  -0.667   4.946  0.1919  1.1545 -0.1330
  723MOL0     H99756   6.433  -0.705   5.139  0.2977 -3.2074  3.0964
  723MOL0     H99757   6.323  -0.736   5.330  3.0741 -1.1114 -2.3500
  723MOL0     H99758   6.484   0.182   5.678  0.7073 -1.5007  1.9732
  723MOL0     H99759   6.656   0.276   5.521  0.4366 -1.1402  3.4982
  723MOL0     H99760   7.097   0.033   5.169 -1.0036 -0.2375  0.9616
  723MOL0     H99761   7.171   0.020   4.963 -0.7476  1.1139  0.8336
  723MOL0     H99762   7.228   0.239   4.782 -1.9296  1.4171 -0.9140
  723MOL0     H99763   7.263   0.071   4.792  1.4515 -0.0833 -1.0077
  723MOL0     H99764   7.163   0.180   4.531 -0.3894  0.9927 -0.4041
  723MOL0     H99765   7.255   0.032   4.558  0.3114  1.1817 -0.8604
  723MOL0     H99766   7.387   0.291   4.649  0.4013 -0.3098  0.3054
  723MOL0     H99767   7.468   0.150   4.565 -0.8426 -0.8680 -3.9411
  723MOL0     H99768   7.336   0.376   4.438  0.5277  0.0399 -1.4409
  723MOL0     H99769   7.324   0.220   4.358 -0.6953  0.6879 -0.2461
  723MOL0     H99770   7.728   0.383   4.348  1.0966 -1.8594  0.5072
  723MOL0     H99771   6.813   0.196   4.809 -0.4421 -1.3269  0.0794
  723MOL0     H99772   6.614   0.109   5.044 -2.7009  1.8049 -1.2738
  723MOL0     H99773   6.643   0.259   5.101 -0.5847  0.5104  0.1438
  723MOL0     H99774   6.649   0.249   4.924 -3.2109  0.2500  0.0423
  724MOL0     O99775   9.864   7.256  11.285  0.2088 -0.1434 -0.3124
  724MOL0     C99776   9.819   7.367  11.274  0.4117 -1.1005  0.6048
  724MOL0     O99777   9.833   7.452  11.157 -0.6864  0.4698 -1.3508
  724MOL0     C99778   9.924   7.417  11.061  0.0279  0.1485  0.3842
  724MOL0     C99779  10.062   7.399  11.079 -0.1625  0.5915 -0.7594
  724MOL0     C99780  10.154   7.418  10.975  0.0739 -0.9570  0.5540
  724MOL0     C99781  10.108   7.452  10.849  0.2350 -0.8708 -0.4330
  724MOL0     O99782  10.201   7.477  10.749 -0.6357  0.4151 -0.4613
  724MOL0     C99783  10.149   7.528  10.627  0.7625 -0.5284 -0.2839
  724MOL0     C99784  10.256   7.573  10.534  0.7855  0.4966 -0.4626
  724MOL0     C99785  10.323   7.456  10.475  0.6577  0.1114 -0.3260
  724MOL0     C99786  10.433   7.483  10.374 -0.3830 -0.1154 -0.0204
  724MOL0     C99787  10.474   7.343  10.320 -0.1097 -0.5323 -1.2825
  724MOL0     C99788  10.396   7.314  10.199  0.2665  0.5584  0.4000
  724MOL0     C99789  10.396   7.175  10.142  0.0523 -0.4612  0.2439
  724MOL0     C99790  10.365   7.054  10.246 -0.7599 -1.0105  0.8542
  724MOL0     N99791  10.239   7.066  10.327  0.4196 -0.1187 -0.3332
  724MOL0     C99792  10.238   7.077  10.462  0.7180 -0.5707  0.9426
  724MOL0     C99793  10.115   7.118  10.492  0.7943 -0.0159 -0.7210
  724MOL0     C99794  10.044   7.153  10.627 -0.2793  0.1023 -0.4041
  724MOL0     C99795  10.014   7.043  10.725  0.3237  0.3920  0.0725
  724MOL0     C99796   9.899   6.971  10.650  0.0422  0.0107  0.3165
  724MOL0     C99797   9.817   6.870  10.726 -0.1663  0.0004 -0.2971
  724MOL0     O99798   9.786   6.934  10.852  0.0654 -0.4026 -0.0734
  724MOL0     C99799   9.700   7.042  10.850 -0.7914 -0.2585  0.5255
  724MOL0     C99800   9.598   7.064  10.748  0.7692 -0.2616  0.6059
  724MOL0     C99801   9.492   7.160  10.768 -0.5825  1.1829  0.7031
  724MOL0     C99802   9.383   7.175  10.658  0.5700  0.7396 -0.4258
  724MOL0     C99803   9.477   7.221  10.894  0.3600  0.2143  0.6440
  724MOL0     C99804   9.359   7.306  10.921 -0.7023 -0.1156  0.6007
  724MOL0     O99805   9.384   7.431  10.878 -0.3119 -0.8470  0.2684
  724MOL0     C99806   9.286   7.526  10.902  0.5954 -0.7056  0.0735
  724MOL0     C99807   9.222   7.545  11.023 -0.6242  0.3561 -1.4085
  724MOL0     C99808   9.127   7.642  11.049  0.3728 -0.5127 -0.0770
  724MOL0     C99809   9.071   7.712  10.942  0.1577  0.0018  1.4099
  724MOL0     O99810   8.975   7.802  10.956 -0.2110 -0.5055  0.5725
  724MOL0     C99811   8.900   7.813  11.076  0.7123 -0.5639  0.2494
  724MOL0     C99812   8.758   7.878  11.058 -0.5731 -0.7233  0.2580
  724MOL0     C99813   8.738   7.983  10.953 -0.1531 -0.3781  0.3094
  724MOL0     C99814   8.661   8.106  11.012  0.1404  0.4792  0.0122
  724MOL0     C99815   8.650   8.221  10.898 -0.3644 -0.1907  0.3837
  724MOL0     C99816   8.546   8.194  10.789  0.3182 -0.5727  0.2361
  724MOL0     C99817   8.548   8.314  10.688  0.0224 -0.0352  0.2389
  724MOL0     C99818   8.475   8.439  10.732  0.0793  0.0226  0.5726
  724MOL0    Cl99819   8.511   8.579  10.609  0.1822  0.1133  0.2029
  724MOL0     C99820   9.126   7.692  10.809 -0.4928 -0.5864  0.0121
  724MOL0     C99821   9.241   7.609  10.804 -0.0834  0.9730 -0.1795
  724MOL0     O99822   9.253   7.260  10.954  0.3806  0.4313 -0.0085
  724MOL0     C99823   9.581   7.218  10.975  0.2869 -0.3879  0.0180
  724MOL0     C99824   9.700   7.135  10.955 -0.6394  0.4286 -0.0872
  724MOL0     N99825  10.050   7.144  10.379 -0.8034  0.4833 -0.2072
  724MOL0     N99826  10.117   7.106  10.283  0.0727  0.7632  0.6375
  724MOL0     C99827   9.966   7.460  10.827 -0.2647  0.7673 -1.3999
  724MOL0     C99828   9.876   7.451  10.935  0.2996 -0.4314  0.6104
  724MOL0     C99829   9.743   7.435  11.376 -0.0247 -0.5646  0.1463
  724MOL0     C99830   9.732   7.579  11.366  0.4709  0.0888 -0.0966
  724MOL0     C99831   9.667   7.648  11.474 -0.0153  0.6808  0.3119
  724MOL0     C99832   9.607   7.580  11.581  0.7237 -1.0476 -0.5759
  724MOL0     O99833   9.559   7.643  11.690 -0.0363  0.2960 -0.0252
  724MOL0     C99834   9.455   7.737  11.677  0.2882 -0.4931 -0.6920
  724MOL0     C99835   9.313   7.682  11.654 -0.0011 -0.4931  0.5952
  724MOL0     C99836   9.265   7.609  11.770  0.1905 -0.3897 -0.2536
  724MOL0     C99837   9.147   7.521  11.742 -1.2064  0.1094 -0.3154
  724MOL0     C99838   9.093   7.458  11.864 -0.1737 -0.3034  0.3020
  724MOL0     C99839   9.068   7.399  11.964 -0.9052  1.2661 -0.6887
  724MOL0     C99840   9.610   7.440  11.586 -1.0309 -0.0102 -0.1943
  724MOL0     C99841   9.680   7.368  11.485  0.0029 -0.2528  0.0549
  724MOL0     C99842   9.678   7.218  11.522  1.0475  0.2959 -0.3080
  724MOL0     H99843  10.099   7.384  11.180  1.9540 -2.8969 -1.9024
  724MOL0     H99844  10.260   7.404  10.991  0.1169 -2.3320 -0.6779
  724MOL0     H99845  10.088   7.617  10.643  0.7733 -0.7423  1.0510
  724MOL0     H99846  10.084   7.455  10.577  1.1468 -0.9808 -0.1304
  724MOL0     H99847  10.204   7.625  10.453  0.5312  1.5212  0.3357
  724MOL0     H99848  10.327   7.643  10.579  1.6149 -0.5613 -0.1070
  724MOL0     H99849  10.369   7.390  10.550  1.4077  1.8256  0.7743
  724MOL0     H99850  10.252   7.387  10.429  2.0426  0.1038 -2.5941
  724MOL0     H99851  10.398   7.543  10.289 -1.3263 -0.6026  0.0123
  724MOL0     H99852  10.519   7.528  10.426 -1.6586 -0.3485  2.3840
  724MOL0     H99853  10.435   7.271  10.393 -1.9407  1.2217 -0.4434
  724MOL0     H99854  10.582   7.344  10.298  0.9033  5.4851  1.9088
  724MOL0     H99855  10.290   7.337  10.209 -0.1121 -1.5157  1.7291
  724MOL0     H99856  10.448   7.367  10.118  1.3992 -1.1695 -0.0512
  724MOL0     H99857  10.499   7.175  10.104 -0.1204  0.4493 -0.2441
  724MOL0     H99858  10.324   7.162  10.060  0.7431  0.6486 -0.5717
  724MOL0     H99859  10.354   6.964  10.185 -3.5812 -0.6253  0.6641
  724MOL0     H99860  10.449   7.059  10.316 -0.5144 -1.0591  0.5647
  724MOL0     H99861  10.317   7.066  10.535 -1.1920 -3.3474  2.7798
  724MOL0     H99862   9.957   7.216  10.604  1.3140  3.2389  1.4181
  724MOL0     H99863  10.109   7.222  10.681 -0.1300 -1.0127  0.8815
  724MOL0     H99864  10.099   6.974  10.718  1.1439  1.4023 -0.1171
  724MOL0     H99865   9.988   7.070  10.827 -1.2860  0.8253 -0.4222
  724MOL0     H99866   9.838   7.050  10.605  1.4734  1.2087  0.3862
  724MOL0     H99867   9.944   6.909  10.572 -2.6616 -3.3451  1.1743
  724MOL0     H99868   9.737   6.840  10.658  1.1124 -1.9660 -1.0181
  724MOL0     H99869   9.873   6.782  10.758 -1.7757  0.3588  4.3209
  724MOL0     H99870   9.595   7.003  10.658 -0.6225  0.1949  0.3242
  724MOL0     H99871   9.351   7.279  10.653 -0.1831  0.4828 -3.9620
  724MOL0     H99872   9.296   7.122  10.699  1.8359 -1.3576 -0.2925
  724MOL0     H99873   9.399   7.130  10.560 -1.3269 -1.9463  0.3592
  724MOL0     H99874   9.240   7.471  11.100  2.8989  0.1911 -2.2177
  724MOL0     H99875   9.080   7.660  11.145  0.1837  1.1113 -0.4440
  724MOL0     H99876   8.881   7.711  11.112  0.8364 -0.8771 -0.5407
  724MOL0     H99877   8.957   7.867  11.152  0.9474 -0.3742 -0.0615
  724MOL0     H99878   8.696   7.795  11.024 -1.7283  0.2641 -0.0778
  724MOL0     H99879   8.723   7.917  11.154 -3.0222 -1.4021 -0.3018
  724MOL0     H99880   8.687   7.948  10.863 -0.4359  0.7605  0.0185
  724MOL0     H99881   8.838   8.020  10.934 -0.4264  0.0173 -0.3513
  724MOL0     H99882   8.690   8.141  11.111 -1.0117  0.0813  0.5153
  724MOL0     H99883   8.559   8.065  11.017  0.9184 -2.0674 -2.4012
  724MOL0     H99884   8.630   8.311  10.957 -0.5846 -1.2168  1.9264
  724MOL0     H99885   8.750   8.230  10.855 -1.6999 -1.4762 -3.3088
  724MOL0     H99886   8.451   8.193  10.843 -0.0636  3.2750 -0.1171
  724MOL0     H99887   8.556   8.099  10.735  0.4217 -2.3439  3.1246
  724MOL0     H99888   8.519   8.285  10.587  1.8509 -4.8958  0.8209
  724MOL0     H99889   8.652   8.345  10.671 -0.5497  2.9521  1.5761
  724MOL0     H99890   8.490   8.459  10.839 -0.7418  1.2661  0.4739
  724MOL0     H99891   8.367   8.419  10.733  0.1535 -0.4409  1.5252
  724MOL0     H99892   9.100   7.741  10.716  2.1152 -2.9045 -2.1196
  724MOL0     H99893   9.286   7.585  10.709  0.6283 -1.2047  0.6336
  724MOL0     H99894   9.567   7.272  11.068  3.5775  1.0705 -0.1756
  724MOL0     H99895   9.773   7.122  11.034  0.1431  0.2194 -0.8276
  724MOL0     H99896   9.922   7.460  10.729 -3.0333 -0.7077 -0.2583
  724MOL0     H99897   9.770   7.468  10.919  0.5085  0.1780 -0.1735
  724MOL0     H99898   9.775   7.636  11.285  2.6367 -1.5677 -0.1711
  724MOL0     H99899   9.692   7.754  11.469  3.5649  0.0356  1.3133
  724MOL0     H99900   9.453   7.794  11.770  2.1180 -0.0557 -0.8918
  724MOL0     H99901   9.478   7.800  11.590  1.6940 -4.3871 -3.4221
  724MOL0     H99902   9.312   7.625  11.561 -0.2579  2.6114 -1.4490
  724MOL0     H99903   9.250   7.771  11.640 -2.5675 -1.6857  3.2977
  724MOL0     H99904   9.351   7.550  11.804 -0.6436 -0.7690  1.2838
  724MOL0     H99905   9.239   7.687  11.842 -2.6055  2.4409 -4.0099
  724MOL0     H99906   9.182   7.452  11.665  0.3411  0.6648 -0.1605
  724MOL0     H99907   9.071   7.576  11.686  1.8539  1.0247 -3.9606
  724MOL0     H99908   9.045   7.344  12.053  3.2350  1.7160  0.8974
  724MOL0     H99909   9.559   7.380  11.661 -1.4863 -0.0060 -0.4943
  724MOL0     H99910   9.576   7.181  11.530  0.6938  1.5697  1.9091
  724MOL0     H99911   9.719   7.162  11.438 -1.9856 -1.0603 -1.0085
  724MOL0     H99912   9.735   7.188  11.610 -3.0499 -2.7736  1.5980
  725MOL0     O99913   1.545   4.168   6.721  0.1046 -0.0344  0.2208
  725MOL0     C99914   1.603   4.126   6.825 -0.2022 -0.0550 -0.2486
  725MOL0     O99915   1.731   4.075   6.828 -0.9919 -0.2107  0.5834
  725MOL0     C99916   1.789   4.036   6.714  0.1526  0.6031  0.1024
  725MOL0     C99917   1.932   4.049   6.707 -0.1020 -0.6015  0.2213
  725MOL0     C99918   1.997   4.055   6.581  0.1232  0.0422  0.5185
  725MOL0     C99919   1.922   4.013   6.471  1.0289  0.1457 -0.5655
  725MOL0     O99920   1.999   4.020   6.357 -0.5677 -0.5480  0.6591
  725MOL0     C99921   1.938   3.973   6.236  0.2149 -0.6015 -0.4208
  725MOL0     C99922   2.043   3.961   6.129 -0.2128 -0.2938  0.1381
  725MOL0     C99923   2.117   4.092   6.108  0.0732 -1.0084  0.1951
  725MOL0     C99924   2.191   4.108   5.976  0.5524  0.1270  0.4912
  725MOL0     C99925   2.151   4.254   5.918  0.0964 -0.5556  0.6930
  725MOL0     C99926   2.191   4.380   5.998 -0.1395 -0.0669  0.4598
  725MOL0     C99927   2.105   4.505   5.959  0.0289 -0.3761 -0.4911
  725MOL0     C99928   2.135   4.636   6.027 -0.3307  0.1486  0.1979
  725MOL0     N99929   2.070   4.754   5.970 -0.4346 -0.2963  0.1708
  725MOL0     C99930   2.073   4.794   5.833 -0.2580  1.0002 -0.4567
  725MOL0     C99931   2.028   4.917   5.830  0.5049 -0.2019  0.7302
  725MOL0     C99932   2.007   4.993   5.703  0.5991 -0.7673  0.2892
  725MOL0     C99933   1.860   5.046   5.685  0.8698 -0.0299  0.0028
  725MOL0     C99934   1.766   4.923   5.675  0.4289 -0.2502  0.2501
  725MOL0     C99935   1.630   4.961   5.615  0.0977 -0.8350 -0.6867
  725MOL0     O99936   1.648   5.006   5.478 -0.8367  0.0479 -0.1261
  725MOL0     C99937   1.532   5.053   5.424  0.0419  1.3429  0.4996
  725MOL0     C99938   1.540   5.092   5.290 -0.0528 -0.3741  0.7847
  725MOL0     C99939   1.436   5.141   5.207  0.4620  0.3812  0.2178
  725MOL0     C99940   1.469   5.163   5.062  0.7870  0.8007  0.0577
  725MOL0     C99941   1.314   5.162   5.267  0.1332 -0.0247 -0.0086
  725MOL0     C99942   1.189   5.216   5.202 -1.1770  0.2189 -0.1761
  725MOL0     O99943   1.114   5.290   5.297  0.8921  0.2772 -0.5137
  725MOL0     C99944   1.005   5.361   5.256  0.3292 -0.7229 -0.5295
  725MOL0     C99945   0.980   5.408   5.127  0.3263 -0.5871  0.3276
  725MOL0     C99946   0.859   5.466   5.089  0.0120  0.0901  0.5857
  725MOL0     C99947   0.758   5.493   5.186 -0.3236 -0.3454 -0.0124
  725MOL0     O99948   0.639   5.546   5.150  0.1984 -0.1814  0.0423
  725MOL0     C99949   0.601   5.655   5.234 -0.1436 -0.4261 -0.4534
  725MOL0     C99950   0.708   5.772   5.232  0.8014 -0.1667  0.3095
  725MOL0     C99951   0.667   5.863   5.340  0.4996  0.3140  0.7010
  725MOL0     C99952   0.770   5.980   5.331 -0.2186 -0.6661  0.6770
  725MOL0     C99953   0.772   6.094   5.424 -0.1587 -0.3641 -0.0039
  725MOL0     C99954   0.658   6.184   5.398  0.0200  0.3543 -0.2325
  725MOL0     C99955   0.666   6.311   5.478  0.1318  0.1179  0.0846
  725MOL0     C99956   0.761   6.427   5.450  0.2764  0.0298  0.4580
  725MOL0    Cl99957   0.716   6.503   5.291 -0.1114  0.3618  0.9526
  725MOL0     C99958   0.789   5.444   5.311  0.0966  0.3729  0.0254
  725MOL0     C99959   0.906   5.383   5.343 -0.0506  0.2298 -0.0938
  725MOL0     O99960   1.162   5.181   5.092  0.8652 -0.3749  1.1161
  725MOL0     C99961   1.307   5.127   5.415  0.5076  1.1968  1.3030
  725MOL0     C99962   1.414   5.072   5.489 -0.7597  0.7743  0.2865
  725MOL0     N99963   2.000   4.955   5.961 -0.0980  0.8536 -0.0901
  725MOL0     N99964   2.015   4.857   6.040  0.1714  0.0107  0.1706
  725MOL0     C99965   1.789   3.973   6.486  0.0669  0.2434 -0.5996
  725MOL0     C99966   1.722   3.974   6.607 -0.6197 -0.1659 -0.1587
  725MOL0     C99967   1.527   4.147   6.951  0.4321  0.6272  0.4276
  725MOL0     C99968   1.580   4.084   7.071  0.4483  0.1735 -0.0923
  725MOL0     C99969   1.521   4.110   7.197  0.4473  0.0016  0.5840
  725MOL0     C99970   1.395   4.171   7.211  0.3351  0.4540  0.5235
  725MOL0     O99971   1.327   4.192   7.325  1.0159  0.0096 -0.5962
  725MOL0     C99972   1.395   4.170   7.451 -0.3375 -0.1820 -0.5343
  725MOL0     C99973   1.293   4.196   7.571 -0.5512 -0.7606  0.1281
  725MOL0     C99974   1.284   4.349   7.591  0.7642 -0.2700 -0.1137
  725MOL0     C99975   1.221   4.369   7.731 -0.2492  0.4875 -0.3723
  725MOL0     C99976   1.186   4.508   7.766  0.0598 -0.8849  0.1136
  725MOL0     C99977   1.152   4.623   7.794 -0.3022 -0.2669  0.5804
  725MOL0     C99978   1.341   4.219   7.096 -1.0238  0.0882  0.2183
  725MOL0     C99979   1.400   4.214   6.962  0.1544 -0.1097 -0.1773
  725MOL0     C99980   1.312   4.276   6.852  0.3524  0.4081 -0.1575
  725MOL0     H99981   1.973   4.086   6.800 -0.7732  0.2740  0.1879
  725MOL0     H99982   2.099   4.084   6.557  0.3001 -0.5146  0.5858
  725MOL0     H99983   1.862   4.046   6.207 -0.0834  0.3096  2.4063
  725MOL0     H99984   1.886   3.879   6.256  3.3602 -1.9011  2.7060
  725MOL0     H99985   2.114   3.880   6.150  0.3842  0.8490  2.8612
  725MOL0     H99986   1.983   3.941   6.040 -0.5448  1.9090 -0.1913
  725MOL0     H99987   2.049   4.177   6.124 -0.3542 -1.1256 -0.9021
  725MOL0     H99988   2.200   4.093   6.179  0.9264 -1.7642 -0.7788
  725MOL0     H99989   2.299   4.117   5.991  0.5518  0.1896  0.4587
  725MOL0     H99990   2.171   4.035   5.896 -1.3746 -0.0269  1.0636
  725MOL0     H99991   2.041   4.252   5.910  0.1837 -0.2279 -0.7586
  725MOL0     H99992   2.202   4.259   5.822 -1.5121  2.6876 -0.1307
  725MOL0     H99993   2.179   4.348   6.102  1.0324 -2.7123 -0.1278
  725MOL0     H99994   2.298   4.404   6.003 -0.8732  3.6565  3.5169
  725MOL0     H99995   1.999   4.481   5.971  0.2004 -0.0333  2.2277
  725MOL0     H99996   2.112   4.521   5.851  0.6443 -1.2652 -0.5978
  725MOL0     H99997   2.095   4.631   6.128 -1.2211 -0.1098 -0.1592
  725MOL0     H99998   2.244   4.633   6.026 -0.2173 -5.0102  0.6678
  725MOL0     H99999   2.101   4.725   5.753  3.8529 -1.2832  2.5785
  725MOL0     H    0   2.026   4.936   5.611 -0.3203  1.4749 -1.3692
  725MOL0     H    1   2.083   5.072   5.704  0.7825 -0.9226 -0.3881
  725MOL0     H    2   1.835   5.119   5.763  0.8830  1.6008 -1.4508
  725MOL0     H    3   1.859   5.102   5.591  3.4492 -2.0499 -1.3685
  725MOL0     H    4   1.814   4.858   5.602  0.3920  1.6258 -1.5314
  725MOL0     H    5   1.767   4.867   5.769  0.6742 -1.4382 -0.4437
  725MOL0     H    6   1.566   4.873   5.620 -1.5011  0.3631  2.6562
  725MOL0     H    7   1.593   5.048   5.670 -0.6011 -1.1875 -0.5933
  725MOL0     H    8   1.630   5.066   5.236 -1.7671 -2.2265 -1.3961
  725MOL0     H    9   1.431   5.081   5.000 -0.4990 -0.4513  2.3493
  725MOL0     H   10   1.577   5.174   5.056  0.9815  0.7730  2.4839
  725MOL0     H   11   1.427   5.256   5.021  2.5564  0.7547 -2.0092
  725MOL0     H   12   1.066   5.412   5.061 -0.3899 -0.4547 -0.6284
  725MOL0     H   13   0.854   5.499   4.985 -0.9484  0.8304  0.8513
  725MOL0     H   14   0.508   5.703   5.203  0.4249  1.8062  1.0848
  725MOL0     H   15   0.573   5.622   5.335 -1.1371  0.7246 -0.3302
  725MOL0     H   16   0.812   5.739   5.243 -0.2207 -5.0592 -2.1043
  725MOL0     H   17   0.691   5.803   5.129 -3.2731 -2.4397  0.1046
  725MOL0     H   18   0.677   5.821   5.440  2.8885 -1.3909 -0.1780
  725MOL0     H   19   0.565   5.902   5.329  0.5594  0.3344  0.1830
  725MOL0     H   20   0.759   6.016   5.228  1.7447  0.7101  0.8984
  725MOL0     H   21   0.867   5.929   5.341 -0.1236 -0.9209 -1.2047
  725MOL0     H   22   0.766   6.051   5.525 -0.2706 -1.9184 -0.6326
  725MOL0     H   23   0.865   6.150   5.432 -0.0028 -0.8113  2.1850
  725MOL0     H   24   0.566   6.128   5.417 -0.6870  1.0844 -1.3672
  725MOL0     H   25   0.663   6.216   5.293  1.2984 -0.6023 -0.4874
  725MOL0     H   26   0.664   6.299   5.586 -0.2855 -1.2663 -0.0652
  725MOL0     H   27   0.578   6.370   5.453  0.0819  1.4586  3.0368
  725MOL0     H   28   0.861   6.385   5.432 -0.1568 -0.3863 -1.0873
  725MOL0     H   29   0.773   6.510   5.521  2.8680  0.1208  0.0342
  725MOL0     H   30   0.700   5.440   5.372  0.1559 -2.3966  0.0634
  725MOL0     H   31   0.921   5.337   5.440 -3.5700 -0.4375  0.2823
  725MOL0     H   32   1.209   5.131   5.461  0.4904 -0.6378  1.4728
  725MOL0     H   33   1.397   5.042   5.591  0.8407  1.2574  0.7343
  725MOL0     H   34   1.734   3.950   6.396  1.7995  2.5376 -2.3670
  725MOL0     H   35   1.614   3.967   6.608 -0.7221  1.2039 -0.3226
  725MOL0     H   36   1.665   4.016   7.071  0.5034  0.1275  2.6566
  725MOL0     H   37   1.569   4.066   7.285 -0.7249  0.3995  1.4468
  725MOL0     H   38   1.427   4.065   7.461 -1.5396 -0.3397  2.9177
  725MOL0     H   39   1.490   4.223   7.462  0.1823 -0.7752 -1.8766
  725MOL0     H   40   1.345   4.163   7.662  0.7303  2.5450  0.7351
  725MOL0     H   41   1.192   4.153   7.575 -0.7622 -0.2380  0.4693
  725MOL0     H   42   1.378   4.403   7.580 -0.4259  1.9831  0.1770
  725MOL0     H   43   1.212   4.390   7.520  0.0027 -1.2327  0.0786
  725MOL0     H   44   1.275   4.312   7.807  0.0473 -0.0969 -1.0121
  725MOL0     H   45   1.125   4.315   7.730  0.9340 -1.7484 -2.1862
  725MOL0     H   46   1.110   4.720   7.805  2.4507  1.3870 -1.9060
  725MOL0     H   47   1.242   4.264   7.095 -0.9028  0.3473 -1.3297
  725MOL0     H   48   1.287   4.207   6.771  0.5224  2.4092 -1.9996
  725MOL0     H   49   1.219   4.318   6.890 -0.0182 -0.8088  0.3530
  725MOL0     H   50   1.380   4.349   6.808  1.3216 -0.1281  0.4164
  726MOL0     O   51   2.511   8.095  11.003  0.2599 -0.1096  0.1633
  726MOL0     C   52   2.520   7.981  11.058 -0.1169 -0.1503  0.9247
  726MOL0     O   53   2.437   7.903  11.129  0.2248 -0.5811  0.9009
  726MOL0     C   54   2.336   7.955  11.204 -0.4951 -0.5215 -0.2439
  726MOL0     C   55   2.342   8.091  11.256  0.4011  1.2165  0.2412
  726MOL0     C   56   2.241   8.136  11.352  0.0752 -0.4458 -0.1225
  726MOL0     C   57   2.132   8.051  11.387  0.0812 -0.4155  0.1996
  726MOL0     O   58   2.036   8.086  11.476  0.2220 -0.0860 -0.2228
  726MOL0     C   59   2.091   8.143  11.601 -0.3214  0.8051  0.4717
  726MOL0     C   60   1.997   8.113  11.714  0.2857  0.6229  1.1433
  726MOL0     C   61   1.991   7.964  11.753  0.1840 -0.5503  0.7121
  726MOL0     C   62   1.928   7.943  11.893  0.1629 -0.8575 -0.5995
  726MOL0     C   63   1.956   7.797  11.942 -0.1942  0.2378 -0.0956
  726MOL0     C   64   1.888   7.693  11.844 -1.1916 -0.2848 -0.6176
  726MOL0     C   65   1.919   7.552  11.877  0.5638  1.7331 -0.5656
  726MOL0     C   66   2.056   7.506  11.824  0.3257 -0.5964  0.5190
  726MOL0     N   67   2.057   7.492  11.677 -1.1205  0.8109  0.0923
  726MOL0     C   68   1.969   7.421  11.603 -0.0142  0.2275  0.7504
  726MOL0     C   69   1.994   7.456  11.476  0.9667 -0.1625  0.4231
  726MOL0     C   70   1.923   7.431  11.347 -0.6726  0.8032 -0.4155
  726MOL0     C   71   1.774   7.439  11.364  0.3689 -1.1799 -0.4217
  726MOL0     C   72   1.733   7.587  11.398  0.3556 -0.0732 -0.4677
  726MOL0     C   73   1.757   7.683  11.276 -0.3439 -0.2176 -1.0510
  726MOL0     O   74   1.713   7.821  11.308 -1.2675  1.0322  0.7756
  726MOL0     C   75   1.775   7.932  11.257 -0.5040  0.6942 -0.3709
  726MOL0     C   76   1.746   8.049  11.318 -0.8040  0.4159 -0.1687
  726MOL0     C   77   1.796   8.172  11.269 -0.2350 -0.6231  0.5953
  726MOL0     C   78   1.755   8.297  11.352  0.3028  0.6778 -0.6571
  726MOL0     C   79   1.883   8.177  11.153  0.1253 -0.2251 -0.2553
  726MOL0     C   80   1.949   8.303  11.107 -0.9812  0.9561 -0.4998
  726MOL0     O   81   2.011   8.304  10.988  0.8106  0.1467  0.0784
  726MOL0     C   82   1.958   8.379  10.882  0.3618  0.2263 -0.9746
  726MOL0     C   83   2.010   8.338  10.759 -0.0008  0.1433 -0.6100
  726MOL0     C   84   2.006   8.431  10.658 -0.6779  0.3796 -0.3587
  726MOL0     C   85   1.920   8.541  10.670  0.4281  0.7839 -0.0106
  726MOL0     O   86   1.913   8.630  10.569 -0.3685 -0.4587 -0.9272
  726MOL0     C   87   2.038   8.682  10.535 -1.3295 -0.3670 -0.7271
  726MOL0     C   88   2.022   8.749  10.397 -0.5377  0.2931  0.3898
  726MOL0     C   89   2.095   8.886  10.406  0.3158  0.8684  0.5351
  726MOL0     C   90   2.074   8.975  10.277  0.3817  0.0248  0.2364
  726MOL0     C   91   2.130   9.127  10.285  0.3209 -0.2415 -0.1485
  726MOL0     C   92   2.112   9.212  10.151  0.0639  0.5513  0.3024
  726MOL0     C   93   2.166   9.348  10.168  0.3146  0.3768 -0.2399
  726MOL0     C   94   2.142   9.434  10.039 -0.1231 -0.0207  0.7211
  726MOL0    Cl   95   2.186   9.598  10.073 -0.2298 -0.0981 -0.3106
  726MOL0     C   96   1.847   8.564  10.782  0.0973 -0.2636  0.3478
  726MOL0     C   97   1.864   8.482  10.887  1.1886 -0.0039 -0.1473
  726MOL0     O   98   1.950   8.401  11.188 -0.4315  0.0133 -0.3587
  726MOL0     C   99   1.899   8.055  11.084  0.5255 -0.8090 -0.2280
  726MOL0     C  100   1.855   7.936  11.137 -0.7758  0.6677 -0.3013
  726MOL0     N  101   2.107   7.535  11.479 -0.7097 -0.3787  1.0781
  726MOL0     N  102   2.145   7.551  11.600  0.0653  0.2606 -0.4745
  726MOL0     C  103   2.116   7.923  11.317  0.0507 -0.3598  0.0066
  726MOL0     C  104   2.225   7.878  11.240 -0.5624 -0.2617 -0.2796
  726MOL0     C  105   2.645   7.906  11.048  0.2144  1.1943 -0.1394
  726MOL0     C  106   2.731   7.882  11.153  0.4014 -0.1759  0.8635
  726MOL0     C  107   2.849   7.818  11.141 -0.8217  0.1572 -0.0120
  726MOL0     C  108   2.882   7.768  11.008  1.0281 -0.3880 -0.9237
  726MOL0     O  109   2.990   7.697  10.995 -0.4291 -0.0217  0.3464
  726MOL0     C  110   3.094   7.782  10.939 -0.9824 -1.1738 -0.6190
  726MOL0     C  111   3.159   7.882  11.038  0.2438 -0.2643  0.0018
  726MOL0     C  112   3.310   7.885  11.011  0.2849 -0.6003 -0.1726
  726MOL0     C  113   3.387   7.978  11.104  0.0441 -0.1898  0.7649
  726MOL0     C  114   3.350   8.118  11.123 -0.0329 -0.4225  0.5625
  726MOL0     C  115   3.309   8.223  11.159 -0.8619 -0.2893  0.1530
  726MOL0     C  116   2.801   7.792  10.902 -0.3451 -0.0685 -0.4883
  726MOL0     C  117   2.675   7.855  10.919 -0.5451  0.0125 -0.4719
  726MOL0     C  118   2.587   7.854  10.796 -1.0005 -0.0583 -0.0636
  726MOL0     H  119   2.425   8.156  11.227  1.5904 -0.1004  0.5736
  726MOL0     H  120   2.239   8.240  11.382  2.5663 -1.5090  4.9855
  726MOL0     H  121   2.114   8.250  11.596  3.2735  0.1200 -0.4271
  726MOL0     H  122   2.184   8.096  11.634  1.1558  3.2284  0.0481
  726MOL0     H  123   2.013   8.171  11.806 -2.3147 -1.6127  3.1765
  726MOL0     H  124   1.901   8.154  11.684  1.2304  1.2848 -1.2078
  726MOL0     H  125   1.936   7.921  11.668  3.1727 -2.6262 -0.3418
  726MOL0     H  126   2.090   7.917  11.750 -0.5519 -2.1244 -0.7627
  726MOL0     H  127   1.976   8.008  11.967  0.8727 -0.2357 -1.5853
  726MOL0     H  128   1.822   7.964  11.910  0.1962 -0.5127 -0.8229
  726MOL0     H  129   1.917   7.792  12.044  1.8154  4.5632  1.1194
  726MOL0     H  130   2.065   7.801  11.946 -0.1579 -0.7115  0.1386
  726MOL0     H  131   1.782   7.714  11.857 -0.9658  0.0736  0.7282
  726MOL0     H  132   1.922   7.712  11.741  4.0849  1.8943  1.2111
  726MOL0     H  133   1.835   7.493  11.838  1.6966  0.1408 -0.6817
  726MOL0     H  134   1.919   7.543  11.986  0.3226 -1.2286 -0.7090
  726MOL0     H  135   2.129   7.585  11.845 -2.2977  2.6348 -1.4614
  726MOL0     H  136   2.084   7.406  11.858  2.5286  0.0925  0.8444
  726MOL0     H  137   1.879   7.372  11.641 -2.3304  2.6023 -1.2554
  726MOL0     H  138   1.951   7.327  11.330  1.2704  1.0404  0.9694
  726MOL0     H  139   1.967   7.500  11.274  1.2819  4.7308  3.9167
  726MOL0     H  140   1.728   7.409  11.269  3.5999 -2.8199 -1.6004
  726MOL0     H  141   1.737   7.370  11.440  2.4281 -2.3687 -0.4565
  726MOL0     H  142   1.626   7.577  11.423 -0.3150  2.2738 -2.0483
  726MOL0     H  143   1.787   7.635  11.481 -1.6753  0.5214  0.5917
  726MOL0     H  144   1.863   7.681  11.250  0.3848 -1.2845  1.7210
  726MOL0     H  145   1.700   7.634  11.197  0.0157 -1.1721 -0.7309
  726MOL0     H  146   1.688   8.046  11.410  0.7965 -1.8027  0.8504
  726MOL0     H  147   1.701   8.272  11.443  0.6987 -0.7786 -0.7866
  726MOL0     H  148   1.685   8.369  11.309  0.5381  0.5470 -1.2702
  726MOL0     H  149   1.849   8.345  11.382  0.9051 -0.0588 -1.3171
  726MOL0     H  150   2.077   8.252  10.758  1.3076  1.1092 -0.2251
  726MOL0     H  151   2.057   8.416  10.564  0.0279  3.6894 -0.6070
  726MOL0     H  152   2.065   8.757  10.610  4.2319  0.9807 -3.5216
  726MOL0     H  153   2.132   8.627  10.540 -1.3733 -0.5373 -1.5684
  726MOL0     H  154   2.045   8.680  10.316 -2.6138  0.4641 -0.4137
  726MOL0     H  155   1.919   8.785  10.385 -0.5971 -0.0169 -0.0324
  726MOL0     H  156   2.200   8.863  10.428 -0.2587 -4.8740 -1.2454
  726MOL0     H  157   2.066   8.954  10.487 -3.1777  1.9437 -1.3763
  726MOL0     H  158   1.967   8.985  10.260  0.2423  0.3231  1.2396
  726MOL0     H  159   2.125   8.919  10.198  1.6686 -1.1994  1.8584
  726MOL0     H  160   2.071   9.167  10.368  1.3979 -1.2462  1.1454
  726MOL0     H  161   2.235   9.108  10.310  1.3286 -1.6485 -4.6495
  726MOL0     H  162   2.004   9.210  10.134  0.1884 -1.1178 -0.5361
  726MOL0     H  163   2.144   9.164  10.058 -1.2156  0.4530 -0.1068
  726MOL0     H  164   2.275   9.349  10.174  0.6078  4.4095 -2.5903
  726MOL0     H  165   2.125   9.399  10.256 -3.6662  1.9800 -2.7250
  726MOL0     H  166   2.037   9.427  10.008 -0.6109  1.9980  1.7303
  726MOL0     H  167   2.210   9.403   9.960 -0.3883 -1.2882  0.9665
  726MOL0     H  168   1.779   8.648  10.794 -2.7466 -2.1103 -1.5043
  726MOL0     H  169   1.809   8.505  10.977 -0.7005  1.7750 -1.6360
  726MOL0     H  170   1.944   8.056  10.985  1.2814  0.1798  0.1014
  726MOL0     H  171   1.863   7.837  11.093 -1.1922 -0.6339  2.3150
  726MOL0     H  172   2.028   7.861  11.334 -2.4538  2.1649 -2.6954
  726MOL0     H  173   2.212   7.778  11.199  1.9796  0.2491 -2.6126
  726MOL0     H  174   2.700   7.925  11.248  2.0029 -0.2909  1.4758
  726MOL0     H  175   2.929   7.815  11.214  1.2603  0.2716 -2.1765
  726MOL0     H  176   3.172   7.714  10.901  0.3346 -1.3923  2.1836
  726MOL0     H  177   3.064   7.831  10.846  2.0347 -0.1519 -1.1670
  726MOL0     H  178   3.146   7.850  11.142  0.5543 -0.9104 -0.1518
  726MOL0     H  179   3.114   7.981  11.026  0.8065  0.3493  2.3793
  726MOL0     H  180   3.337   7.781  11.032 -0.8081 -0.7532  0.5895
  726MOL0     H  181   3.342   7.899  10.908  0.1127  1.4608  0.0092
  726MOL0     H  182   3.492   7.990  11.079 -0.3227 -1.8338 -2.0032
  726MOL0     H  183   3.398   7.946  11.208  3.6263 -2.5839 -0.1570
  726MOL0     H  184   3.294   8.322  11.197 -0.0075 -0.4111  0.8325
  726MOL0     H  185   2.831   7.770  10.800 -0.4506  3.5080 -1.3924
  726MOL0     H  186   2.513   7.775  10.808 -0.6402 -0.2923  0.6477
  726MOL0     H  187   2.545   7.955  10.786 -0.5131  0.2846  1.1892
  726MOL0     H  188   2.649   7.830  10.709 -0.1258  0.8428  0.2925
  727MOL0     O  189   1.315   1.849   5.066 -0.4560  0.5438  0.5826
  727MOL0     C  190   1.362   1.865   4.955 -0.0884  0.6684  0.3300
  727MOL0     O  191   1.344   1.773   4.856 -0.1533 -0.9025 -0.3325
  727MOL0     C  192   1.317   1.639   4.882  0.0986  0.5504 -0.4008
  727MOL0     C  193   1.327   1.573   5.013  1.0279 -0.4252  0.3002
  727MOL0     C  194   1.274   1.441   5.023 -0.4480 -0.2707  0.2562
  727MOL0     C  195   1.225   1.372   4.910 -0.1697  0.8472 -0.0605
  727MOL0     O  196   1.183   1.244   4.924 -0.4520  0.4195  0.4398
  727MOL0     C  197   1.049   1.233   4.983 -0.4371  0.4838 -0.1644
  727MOL0     C  198   1.037   1.093   5.042 -0.8276  0.6885  0.0695
  727MOL0     C  199   0.925   1.072   5.138 -1.1797  0.6631 -0.5848
  727MOL0     C  200   0.959   0.980   5.262  0.2577 -0.8860 -0.1348
  727MOL0     C  201   0.856   0.986   5.374 -0.5438  0.2443 -0.0672
  727MOL0     C  202   0.895   0.880   5.480  1.3590  0.2772  0.3227
  727MOL0     C  203   0.789   0.880   5.590  0.5311  0.6181  0.9351
  727MOL0     C  204   0.799   0.982   5.698 -0.6450  0.0872 -0.6683
  727MOL0     N  205   0.735   0.936   5.818  0.3904 -0.9501 -0.6237
  727MOL0     C  206   0.601   0.910   5.822 -0.2777 -0.2941 -0.2559
  727MOL0     C  207   0.581   0.846   5.940  0.1888 -0.1454 -0.0204
  727MOL0     C  208   0.461   0.768   5.980  0.9347  0.4821 -0.2535
  727MOL0     C  209   0.417   0.765   6.128  0.5624 -1.2627  0.6218
  727MOL0     C  210   0.385   0.619   6.158 -0.2849  0.0379  0.1770
  727MOL0     C  211   0.383   0.593   6.317  0.8525 -0.6031  0.3890
  727MOL0     O  212   0.282   0.663   6.385  0.5304 -0.4115 -0.7814
  727MOL0     C  213   0.154   0.619   6.396  0.2594  0.3588  0.1496
  727MOL0     C  214   0.062   0.682   6.479 -0.0517  0.3336  0.4710
  727MOL0     C  215  -0.067   0.630   6.503 -0.4365  0.2860  0.0875
  727MOL0     C  216  -0.158   0.722   6.573 -0.0152 -0.1447  0.0753
  727MOL0     C  217  -0.107   0.507   6.445  0.1997  0.5140 -0.0491
  727MOL0     C  218  -0.237   0.443   6.481 -1.1038  0.3049 -1.0113
  727MOL0     O  219  -0.288   0.489   6.597  0.1968  0.1718  0.1279
  727MOL0     C  220  -0.411   0.453   6.654  0.8226 -0.0233  0.4487
  727MOL0     C  221  -0.435   0.475   6.789  0.0245 -1.3674  0.3585
  727MOL0     C  222  -0.547   0.452   6.869  0.1719 -0.2435  0.1390
  727MOL0     C  223  -0.657   0.392   6.805  0.3426 -0.0254 -0.3590
  727MOL0     O  224  -0.773   0.374   6.870  0.8422 -1.0925  0.6128
  727MOL0     C  225  -0.772   0.292   6.987  0.2492  0.3746 -1.0164
  727MOL0     C  226  -0.837   0.368   7.094  0.0298  0.3271 -0.1559
  727MOL0     C  227  -0.831   0.295   7.225  0.4011 -1.5811 -0.2692
  727MOL0     C  228  -0.705   0.319   7.302  0.2541  0.3472  0.4219
  727MOL0     C  229  -0.701   0.460   7.374 -0.4347  0.8449  0.4332
  727MOL0     C  230  -0.803   0.485   7.486 -0.4848  0.1863 -0.0182
  727MOL0     C  231  -0.815   0.367   7.573  0.4311 -0.5208 -0.2974
  727MOL0     C  232  -0.702   0.353   7.677  1.0948 -1.9377  0.0385
  727MOL0    Cl  233  -0.578   0.243   7.624  0.2561 -0.1422 -0.4425
  727MOL0     C  234  -0.640   0.352   6.663 -0.8559 -0.8778 -1.1368
  727MOL0     C  235  -0.523   0.378   6.590 -0.8221 -0.9923 -0.6006
  727MOL0     O  236  -0.272   0.349   6.422  0.5290  0.1981 -0.5978
  727MOL0     C  237  -0.016   0.448   6.353  1.0695 -0.5817 -0.7408
  727MOL0     C  238   0.107   0.507   6.326 -0.7284  0.0463 -0.4020
  727MOL0     N  239   0.714   0.832   6.004  0.6003 -0.8851  0.8612
  727MOL0     N  240   0.798   0.907   5.938  0.1711  0.5716  0.4077
  727MOL0     C  241   1.220   1.440   4.790  0.4447 -1.2931 -0.1835
  727MOL0     C  242   1.269   1.567   4.775 -0.7033  0.2840  0.8987
  727MOL0     C  243   1.421   1.997   4.926 -0.6171 -0.2326 -0.1499
  727MOL0     C  244   1.374   2.058   4.810 -0.4019 -0.7137 -0.0157
  727MOL0     C  245   1.428   2.178   4.765  0.0607  0.1992  0.4527
  727MOL0     C  246   1.519   2.252   4.843 -0.3370  0.0251  0.1844
  727MOL0     O  247   1.579   2.377   4.821  1.0681  0.5028 -0.0762
  727MOL0     C  248   1.510   2.455   4.722 -0.4443  1.0912 -0.2675
  727MOL0     C  249   1.439   2.574   4.801 -1.2966  0.3140 -0.3032
  727MOL0     C  250   1.380   2.674   4.702  0.0798  0.3190  0.2144
  727MOL0     C  251   1.300   2.792   4.753 -0.4272 -0.8725 -0.6329
  727MOL0     C  252   1.366   2.871   4.857  1.3000  0.6380 -1.1253
  727MOL0     C  253   1.429   2.934   4.942 -0.2761 -0.8577  0.2718
  727MOL0     C  254   1.574   2.190   4.954 -0.8087 -0.0229  0.1529
  727MOL0     C  255   1.524   2.064   5.006  0.0165  0.3360 -0.0405
  727MOL0     C  256   1.577   2.011   5.137  0.5138  0.7381 -0.3728
  727MOL0     H  257   1.339   1.625   5.108 -2.6271  2.1443 -0.4407
  727MOL0     H  258   1.283   1.399   5.123 -1.0553 -1.6053 -0.2255
  727MOL0     H  259   0.962   1.251   4.920 -1.7274  1.3875  1.7545
  727MOL0     H  260   1.049   1.299   5.070 -0.7004 -1.8209  1.7003
  727MOL0     H  261   1.021   1.030   4.954 -0.0577 -0.2356  0.5732
  727MOL0     H  262   1.130   1.060   5.088 -1.2398  0.5254  0.8016
  727MOL0     H  263   0.890   1.164   5.186 -3.7792 -1.1174  1.1871
  727MOL0     H  264   0.838   1.027   5.090 -1.5409  1.5628 -0.7925
  727MOL0     H  265   0.965   0.879   5.220 -2.1781 -1.0410 -0.2575
  727MOL0     H  266   1.057   1.012   5.298 -1.0131  3.0449  0.3022
  727MOL0     H  267   0.757   0.962   5.334 -1.1268 -2.2003  2.5238
  727MOL0     H  268   0.856   1.079   5.432  0.3837  0.5365 -0.5234
  727MOL0     H  269   0.896   0.788   5.421  1.4504  1.8169 -2.1964
  727MOL0     H  270   0.991   0.900   5.527  0.2069  0.8346  2.5924
  727MOL0     H  271   0.799   0.783   5.640  0.0652  1.2986  2.3929
  727MOL0     H  272   0.688   0.896   5.550  0.7869 -2.5285 -1.3978
  727MOL0     H  273   0.903   1.004   5.723 -1.4184  1.3123  1.8093
  727MOL0     H  274   0.749   1.073   5.661 -2.1585 -0.1894  0.5824
  727MOL0     H  275   0.519   0.930   5.755 -2.3456 -1.6391  1.7473
  727MOL0     H  276   0.469   0.665   5.944 -1.1927  0.7026 -1.5625
  727MOL0     H  277   0.369   0.797   5.926  0.5270 -0.6771 -0.2002
  727MOL0     H  278   0.500   0.804   6.186  0.9416  1.5288 -1.5776
  727MOL0     H  279   0.342   0.841   6.153  3.7123  1.3538  2.8062
  727MOL0     H  280   0.292   0.589   6.108  0.9720  0.2643 -2.4119
  727MOL0     H  281   0.460   0.550   6.121 -1.1483 -0.9391  0.2051
  727MOL0     H  282   0.365   0.487   6.334 -2.8580 -0.2802 -0.5670
  727MOL0     H  283   0.474   0.627   6.368 -0.9055  3.5472  1.1762
  727MOL0     H  284   0.106   0.774   6.518 -1.4786  2.9814 -3.4441
  727MOL0     H  285  -0.166   0.693   6.678  3.0223 -0.5410  0.2774
  727MOL0     H  286  -0.263   0.708   6.544 -1.1992 -3.8998  4.8408
  727MOL0     H  287  -0.119   0.823   6.558  0.2283 -0.5562 -2.6594
  727MOL0     H  288  -0.348   0.526   6.831 -2.1867  4.2678 -0.9160
  727MOL0     H  289  -0.547   0.474   6.975  3.7209  2.0572 -0.1884
  727MOL0     H  290  -0.833   0.202   6.975 -1.2746  0.9031  1.9218
  727MOL0     H  291  -0.668   0.261   7.007  0.1170  1.4366  1.7649
  727MOL0     H  292  -0.779   0.460   7.107  2.4970 -1.0857 -0.4383
  727MOL0     H  293  -0.939   0.389   7.062  1.2085  1.6229 -3.4685
  727MOL0     H  294  -0.826   0.186   7.221  1.2761 -1.6852  2.0118
  727MOL0     H  295  -0.920   0.319   7.284  0.3099  2.6898 -1.8044
  727MOL0     H  296  -0.627   0.333   7.227  3.2652  0.3733  3.3494
  727MOL0     H  297  -0.672   0.233   7.360  1.3125  0.9528  0.7524
  727MOL0     H  298  -0.605   0.473   7.425  0.7438  1.3571 -1.7811
  727MOL0     H  299  -0.704   0.539   7.298  0.6781 -1.4727 -2.2276
  727MOL0     H  300  -0.897   0.518   7.443  0.0381  0.2099 -1.1625
  727MOL0     H  301  -0.772   0.568   7.551  1.7917 -2.2532  2.3133
  727MOL0     H  302  -0.823   0.268   7.527 -0.2220 -0.0243 -1.3069
  727MOL0     H  303  -0.901   0.370   7.640  0.6205 -0.3063 -0.0641
  727MOL0     H  304  -0.752   0.311   7.765 -2.3019  1.1610 -0.1709
  727MOL0     H  305  -0.668   0.452   7.707  0.4783 -1.6821 -0.0793
  727MOL0     H  306  -0.723   0.310   6.606 -0.8247 -0.7050 -1.3090
  727MOL0     H  307  -0.513   0.347   6.487  4.8962  3.6044 -1.9179
  727MOL0     H  308  -0.066   0.384   6.281  1.1101 -0.2071 -1.1115
  727MOL0     H  309   0.167   0.468   6.244  1.1462  0.0812  0.8931
  727MOL0     H  310   1.189   1.379   4.706  0.2988 -1.5987  0.0905
  727MOL0     H  311   1.283   1.608   4.675  0.2897 -0.8609  0.5416
  727MOL0     H  312   1.304   2.006   4.745 -2.5146 -0.1961  1.7096
  727MOL0     H  313   1.395   2.200   4.664 -1.0777 -3.7600 -0.1867
  727MOL0     H  314   1.580   2.478   4.641 -1.4882  0.6879 -1.3123
  727MOL0     H  315   1.428   2.409   4.667  0.6655 -0.7308 -0.5058
  727MOL0     H  316   1.512   2.632   4.859 -1.4866 -2.3494  2.8978
  727MOL0     H  317   1.367   2.536   4.873  0.6060  0.3126  1.7141
  727MOL0     H  318   1.462   2.721   4.645  0.0981 -1.0349 -0.9357
  727MOL0     H  319   1.313   2.621   4.634 -1.1928  0.6156  1.2119
  727MOL0     H  320   1.197   2.760   4.773 -0.4093 -0.7695 -0.3564
  727MOL0     H  321   1.297   2.860   4.668  2.1169  2.2260  1.5021
  727MOL0     H  322   1.479   2.999   5.012 -0.3732  0.3964 -0.7928
  727MOL0     H  323   1.656   2.242   5.002 -1.2976 -0.9247  2.0808
  727MOL0     H  324   1.487   1.989   5.194 -0.2749  2.8893 -0.7041
  727MOL0     H  325   1.633   1.917   5.126 -0.6701 -0.1216  0.6913
  727MOL0     H  326   1.635   2.088   5.188 -0.4497 -0.0556  2.0470
  728MOL0     O  327   7.549   9.015   1.731 -0.1376  0.1403 -0.2479
  728MOL0     C  328   7.617   9.001   1.835 -0.1494  0.7482  0.5115
  728MOL0     O  329   7.574   9.041   1.959  0.2451  0.3399  0.1909
  728MOL0     C  330   7.446   9.085   1.968 -1.6960  0.4324  0.8510
  728MOL0     C  331   7.337   9.007   1.934 -0.1651  0.9689  0.8011
  728MOL0     C  332   7.204   9.053   1.954  0.0078  0.5877 -0.5557
  728MOL0     C  333   7.188   9.181   2.002 -0.6183  0.2810 -1.2754
  728MOL0     O  334   7.055   9.215   2.025  0.5542 -0.3307  0.7808
  728MOL0     C  335   7.022   9.344   2.074  0.6094 -0.8081  0.1281
  728MOL0     C  336   7.003   9.338   2.230  0.0282  0.0467  0.0617
  728MOL0     C  337   6.888   9.238   2.272 -0.3415  0.5409  0.7641
  728MOL0     C  338   6.946   9.127   2.354  0.1400 -0.9181 -0.0416
  728MOL0     C  339   6.928   9.146   2.500 -0.2414 -0.0292 -0.2895
  728MOL0     C  340   6.961   9.026   2.591  0.2179 -1.1659  0.0765
  728MOL0     C  341   6.964   9.062   2.736  1.0330  0.1670  0.6695
  728MOL0     C  342   7.039   8.956   2.809 -0.5023 -1.1240  0.2556
  728MOL0     N  343   7.036   8.960   2.954 -0.8147  0.1708  0.6797
  728MOL0     C  344   6.932   8.903   3.021  0.1163  0.8276  0.2733
  728MOL0     C  345   6.949   8.927   3.157  0.8887  0.3853  1.2065
  728MOL0     C  346   6.861   8.889   3.277  0.1065 -0.4274 -0.4189
  728MOL0     C  347   6.730   8.962   3.270 -0.1481 -1.0772  0.0170
  728MOL0     C  348   6.766   9.113   3.289 -0.3646 -0.1400  0.3306
  728MOL0     C  349   6.649   9.198   3.332  0.0669 -0.4086 -0.3209
  728MOL0     O  350   6.605   9.142   3.453  0.2935  0.6407 -0.0542
  728MOL0     C  351   6.603   9.228   3.558  0.3175 -0.8781 -0.4066
  728MOL0     C  352   6.489   9.318   3.566 -0.4888 -0.0603 -0.0053
  728MOL0     C  353   6.491   9.420   3.660 -1.1270 -0.5186  0.0187
  728MOL0     C  354   6.387   9.528   3.645  0.0660 -0.1511  0.3202
  728MOL0     C  355   6.595   9.416   3.758 -0.0828  0.3419  0.6893
  728MOL0     C  356   6.608   9.510   3.875 -0.3721 -0.3046  0.1888
  728MOL0     O  357   6.710   9.496   3.971 -0.0042  0.4702 -0.2447
  728MOL0     C  358   6.758   9.604   4.037 -0.7962  0.4890 -0.4940
  728MOL0     C  359   6.746   9.742   4.008  0.3309 -1.2802  0.3636
  728MOL0     C  360   6.815   9.829   4.098  0.5871 -0.2362  0.7195
  728MOL0     C  361   6.896   9.781   4.208 -0.1871 -1.9358 -0.3160
  728MOL0     O  362   6.948   9.879   4.282 -0.3535  0.0978 -0.6840
  728MOL0     C  363   7.050   9.853   4.391 -0.6602  0.1984  0.3563
  728MOL0     C  364   7.184   9.794   4.334 -0.1148 -0.3258 -1.2533
  728MOL0     C  365   7.301   9.891   4.353 -0.9225 -0.0296  0.2002
  728MOL0     C  366   7.433   9.830   4.307 -0.3085 -0.6534 -0.7925
  728MOL0     C  367   7.552   9.923   4.314 -0.8216 -0.1112  0.3238
  728MOL0     C  368   7.687   9.853   4.289 -0.0986 -0.0380  0.4381
  728MOL0     C  369   7.762   9.792   4.407 -0.2167 -1.3117  0.8779
  728MOL0     C  370   7.699   9.669   4.469 -0.3313  1.5551 -0.0276
  728MOL0    Cl  371   7.806   9.593   4.584  0.0678  0.1376  0.5588
  728MOL0     C  372   6.895   9.644   4.230 -0.7062  0.0668  0.3346
  728MOL0     C  373   6.831   9.550   4.141 -0.0357 -0.0413  0.1318
  728MOL0     O  374   6.527   9.604   3.884 -0.1718 -0.6414  0.1037
  728MOL0     C  375   6.694   9.316   3.754 -0.6060  0.7684 -0.2361
  728MOL0     C  376   6.697   9.214   3.658  0.2011 -0.6352  0.8141
  728MOL0     N  377   7.071   8.994   3.164  0.1225 -0.3324  0.0157
  728MOL0     N  378   7.114   9.023   3.042  0.4693  0.2779 -0.3463
  728MOL0     C  379   7.297   9.260   2.038  1.0897 -0.0656  0.0637
  728MOL0     C  380   7.427   9.201   2.021 -0.9836  0.2341 -0.6739
  728MOL0     C  381   7.747   8.932   1.834  0.7809  0.3935 -0.0846
  728MOL0     C  382   7.845   8.967   1.929  0.7124  0.2905 -0.0267
  728MOL0     C  383   7.964   8.897   1.927  0.6564  0.6127 -0.8586
  728MOL0     C  384   7.994   8.797   1.836 -0.6830 -0.3411  0.2292
  728MOL0     O  385   8.116   8.736   1.829 -0.4447 -0.2090 -0.0322
  728MOL0     C  386   8.168   8.689   1.711  0.8432  0.4254 -0.5526
  728MOL0     C  387   8.317   8.650   1.733 -0.7842 -0.5524  0.4076
  728MOL0     C  388   8.406   8.776   1.748  0.7213  0.4525 -0.6148
  728MOL0     C  389   8.380   8.871   1.857 -0.1898 -0.4723  0.1766
  728MOL0     C  390   8.412   8.807   1.989 -0.6691  0.3010  0.8122
  728MOL0     C  391   8.449   8.764   2.092  0.2862 -0.5323 -0.2975
  728MOL0     C  392   7.895   8.770   1.742 -0.9428 -0.2346  0.4327
  728MOL0     C  393   7.764   8.829   1.743  0.2132 -0.1723  0.6468
  728MOL0     C  394   7.674   8.789   1.635 -0.3232 -0.0713 -0.4629
  728MOL0     H  395   7.353   8.912   1.884 -1.5315  1.5456 -0.8017
  728MOL0     H  396   7.122   8.988   1.927  1.3264 -1.2248 -0.3302
  728MOL0     H  397   6.925   9.385   2.043  0.1759 -0.8877  1.3157
  728MOL0     H  398   7.101   9.409   2.037 -0.2768 -1.2353 -2.7338
  728MOL0     H  399   7.098   9.306   2.274 -0.0180  1.0279  0.9170
  728MOL0     H  400   6.987   9.439   2.267  1.8425  1.2106 -2.0816
  728MOL0     H  401   6.809   9.299   2.317 -1.2488  0.8100 -1.0757
  728MOL0     H  402   6.853   9.193   2.179 -0.1465  0.5047  0.7070
  728MOL0     H  403   6.896   9.032   2.334 -0.2016 -1.3165  2.4387
  728MOL0     H  404   7.054   9.119   2.338  0.4371 -1.5250  2.0868
  728MOL0     H  405   6.826   9.181   2.514 -0.3317 -0.1549 -0.6143
  728MOL0     H  406   6.992   9.230   2.527 -0.6457  0.5126 -0.9840
  728MOL0     H  407   6.891   8.941   2.585 -0.5104 -0.4978 -1.8571
  728MOL0     H  408   7.058   8.987   2.558 -0.0666 -1.0239 -0.9616
  728MOL0     H  409   6.861   9.065   2.773 -0.0158  0.5967 -2.0562
  728MOL0     H  410   7.024   9.152   2.754  3.1203 -0.9692 -0.2635
  728MOL0     H  411   6.991   8.861   2.784  1.1764 -2.3107  1.3264
  728MOL0     H  412   7.145   8.952   2.779 -0.4179 -1.2712  0.5719
  728MOL0     H  413   6.856   8.850   2.964 -0.8922 -0.3187  2.5731
  728MOL0     H  414   6.911   8.910   3.372 -1.9945  0.7186  0.4964
  728MOL0     H  415   6.842   8.781   3.282 -2.0678 -0.1023  5.2581
  728MOL0     H  416   6.677   8.943   3.176  0.1451  0.3150 -0.4592
  728MOL0     H  417   6.667   8.934   3.354 -2.4965 -0.2868 -1.3889
  728MOL0     H  418   6.842   9.131   3.366 -0.6595 -0.6158  0.7454
  728MOL0     H  419   6.806   9.152   3.196 -0.6308 -1.2843 -0.2812
  728MOL0     H  420   6.689   9.297   3.358 -1.7085  0.0672  0.8095
  728MOL0     H  421   6.559   9.208   3.271  1.3537  2.5761 -1.9650
  728MOL0     H  422   6.428   9.308   3.476 -0.7020 -0.1686  0.1513
  728MOL0     H  423   6.305   9.512   3.716  0.2700  1.4503  0.9568
  728MOL0     H  424   6.332   9.512   3.552  0.1121 -0.8961  0.4176
  728MOL0     H  425   6.426   9.630   3.646 -0.0999 -0.0863  0.0657
  728MOL0     H  426   6.707   9.793   3.920  1.3152  2.7346  2.0083
  728MOL0     H  427   6.813   9.935   4.073 -0.8709 -0.1086  1.2677
  728MOL0     H  428   7.068   9.938   4.457 -1.9154 -1.9553  3.7253
  728MOL0     H  429   7.010   9.781   4.463  0.0273  0.9392  1.5223
  728MOL0     H  430   7.210   9.695   4.371  2.8393  0.3205 -1.3244
  728MOL0     H  431   7.177   9.785   4.225 -0.4497  3.0292 -1.6334
  728MOL0     H  432   7.311   9.913   4.459  2.7817  0.6190 -0.1633
  728MOL0     H  433   7.283   9.982   4.294 -0.3122  0.4276  0.7110
  728MOL0     H  434   7.413   9.792   4.206 -2.0015  0.8486 -1.0833
  728MOL0     H  435   7.439   9.738   4.366 -3.3849 -0.1132  0.5701
  728MOL0     H  436   7.543  10.009   4.247 -0.6316  0.8602  1.5090
  728MOL0     H  437   7.555   9.964   4.415 -0.9154  0.6416  0.0324
  728MOL0     H  438   7.762   9.926   4.256  0.4565 -0.1758  1.3581
  728MOL0     H  439   7.693   9.791   4.199  0.8233 -2.3959  2.0355
  728MOL0     H  440   7.767   9.863   4.491 -0.7722 -1.6757  1.2197
  728MOL0     H  441   7.864   9.764   4.381  0.6823  1.8162  0.5562
  728MOL0     H  442   7.677   9.597   4.389  1.5361  0.5265  0.3305
  728MOL0     H  443   7.605   9.686   4.522 -0.6069  0.1307 -0.0105
  728MOL0     H  444   6.965   9.596   4.298 -0.2129 -3.3436 -2.3274
  728MOL0     H  445   6.827   9.441   4.149  0.2696  0.0192  1.3029
  728MOL0     H  446   6.777   9.301   3.822  1.4476  0.1751 -2.7382
  728MOL0     H  447   6.766   9.130   3.657  3.9300  2.0677 -2.4913
  728MOL0     H  448   7.293   9.366   2.057  0.2769  0.0128 -0.4734
  728MOL0     H  449   7.509   9.264   2.053 -1.2982  0.1121  0.4091
  728MOL0     H  450   7.827   9.045   2.002  1.6846 -0.4563  1.0448
  728MOL0     H  451   8.035   8.889   2.009  1.4391 -4.0966 -1.6855
  728MOL0     H  452   8.116   8.595   1.693  2.1618 -1.3007  3.6496
  728MOL0     H  453   8.153   8.755   1.625 -0.2311  0.2289 -0.5260
  728MOL0     H  454   8.362   8.585   1.658 -0.2410  1.7591 -1.3824
  728MOL0     H  455   8.314   8.580   1.817  1.4170 -2.9749 -1.3929
  728MOL0     H  456   8.510   8.742   1.745  0.2423 -1.0656 -0.7404
  728MOL0     H  457   8.387   8.841   1.661 -1.9324 -0.6770 -0.9739
  728MOL0     H  458   8.279   8.910   1.844 -0.5572 -1.6323 -0.6619
  728MOL0     H  459   8.449   8.954   1.840 -0.3072 -0.7041 -1.6981
  728MOL0     H  460   8.466   8.750   2.197 -0.8895  1.2410  0.1790
  728MOL0     H  461   7.909   8.683   1.678 -0.2937 -2.3948  3.3061
  728MOL0     H  462   7.721   8.708   1.579  0.5971 -0.8725  1.3853
  728MOL0     H  463   7.579   8.758   1.679  1.9642 -3.8445  2.3660
  728MOL0     H  464   7.655   8.867   1.561  1.3028  0.8897  0.0742
  729MOL0     O  465   9.237   2.722   8.427 -0.2352 -0.4619  0.0665
  729MOL0     C  466   9.344   2.768   8.468  0.2449  0.8357  1.5586
  729MOL0     O  467   9.415   2.708   8.569  0.5153 -0.0176  0.5181
  729MOL0     C  468   9.385   2.593   8.649 -0.4567 -0.1689  0.1300
  729MOL0     C  469   9.278   2.498   8.616 -0.7460 -0.2766  0.1083
  729MOL0     C  470   9.256   2.387   8.699  0.2107 -0.7721  0.6695
  729MOL0     C  471   9.327   2.372   8.815 -0.2397  0.2702  0.6346
  729MOL0     O  472   9.293   2.271   8.896 -0.4262 -0.5075 -0.6630
  729MOL0     C  473   9.412   2.229   8.971  0.8064  0.5678  0.6398
  729MOL0     C  474   9.372   2.092   9.036 -0.3625 -0.3943 -0.0704
  729MOL0     C  475   9.364   1.983   8.939 -0.5522  0.4328  0.1496
  729MOL0     C  476   9.501   1.910   8.921 -0.5976  0.5365 -0.9349
  729MOL0     C  477   9.488   1.809   8.805 -0.1100 -0.1124  0.4023
  729MOL0     C  478   9.413   1.684   8.835  0.4307  0.5508 -0.0776
  729MOL0     C  479   9.401   1.603   8.701 -0.9152 -0.2204  0.6391
  729MOL0     C  480   9.314   1.471   8.712  0.2263  0.4330 -0.3168
  729MOL0     N  481   9.176   1.492   8.767  0.3441 -0.4582  0.2954
  729MOL0     C  482   9.143   1.503   8.899 -0.2597 -0.6339  0.1636
  729MOL0     C  483   9.015   1.455   8.914 -0.4892  0.1047 -0.1994
  729MOL0     C  484   8.937   1.454   9.041 -0.5142 -0.0977 -0.6918
  729MOL0     C  485   8.995   1.372   9.153  0.1332  0.6160  0.5544
  729MOL0     C  486   9.012   1.224   9.135 -0.4029  0.1218 -0.3808
  729MOL0     C  487   8.886   1.142   9.093 -0.1686 -0.1858 -0.2779
  729MOL0     O  488   8.752   1.194   9.149 -0.7800  0.2838  0.3664
  729MOL0     C  489   8.640   1.117   9.115 -0.6662 -0.2328 -0.1161
  729MOL0     C  490   8.636   0.979   9.081  0.1322  0.1537  0.1229
  729MOL0     C  491   8.518   0.905   9.056  0.3172 -0.1781 -0.7473
  729MOL0     C  492   8.540   0.759   9.011 -0.2091 -0.6818 -1.2277
  729MOL0     C  493   8.400   0.975   9.078  0.4061  0.8485 -0.1306
  729MOL0     C  494   8.266   0.916   9.058  0.5425  0.3743 -0.9939
  729MOL0     O  495   8.155   1.000   9.038 -0.2116  0.0029 -0.0978
  729MOL0     C  496   8.030   0.950   9.031 -0.0385 -0.2845  0.1050
  729MOL0     C  497   7.938   1.014   8.935 -1.2604  0.2007  0.1467
  729MOL0     C  498   7.805   0.989   8.958  0.2751 -0.0346  0.4644
  729MOL0     C  499   7.762   0.881   9.044  0.0080 -0.0980 -0.1482
  729MOL0     O  500   7.627   0.857   9.071 -0.0984  0.4236 -0.1660
  729MOL0     C  501   7.525   0.938   9.013  0.7781  0.5324 -0.5091
  729MOL0     C  502   7.399   0.918   9.089  0.1377  0.6483  0.8703
  729MOL0     C  503   7.295   1.032   9.057 -0.1605 -0.8807 -0.8829
  729MOL0     C  504   7.285   1.143   9.170  1.0023 -0.5186 -0.2536
  729MOL0     C  505   7.199   1.263   9.120 -0.0629 -0.3352 -0.8500
  729MOL0     C  506   7.049   1.218   9.124 -0.6229  0.2080 -2.0547
  729MOL0     C  507   6.954   1.254   9.017 -0.1940 -0.5899 -0.5679
  729MOL0     C  508   6.824   1.175   9.016 -0.1918  0.4142 -0.6547
  729MOL0    Cl  509   6.726   1.238   8.886 -0.1496  0.1742  0.1117
  729MOL0     C  510   7.860   0.793   9.094 -0.5315  0.3900 -0.3247
  729MOL0     C  511   7.993   0.825   9.100  0.0882 -0.1331  0.0240
  729MOL0     O  512   8.267   0.795   9.059  0.3519 -0.8668  0.2604
  729MOL0     C  513   8.401   1.102   9.118  0.5498 -0.1240  0.5626
  729MOL0     C  514   8.516   1.181   9.132 -0.6182 -0.4706  0.1732
  729MOL0     N  515   8.970   1.429   8.788 -0.9652 -0.7428  0.0037
  729MOL0     N  516   9.060   1.456   8.699  0.7554 -2.0608  0.3513
  729MOL0     C  517   9.421   2.466   8.856 -0.0570 -0.5207 -0.1146
  729MOL0     C  518   9.457   2.571   8.769  0.0299 -0.4229 -0.1306
  729MOL0     C  519   9.415   2.874   8.393  0.5683  1.1005 -0.1964
  729MOL0     C  520   9.522   2.936   8.462  0.0090  0.6390  0.6055
  729MOL0     C  521   9.594   3.029   8.399  0.7669  0.2175  0.2338
  729MOL0     C  522   9.565   3.068   8.267 -0.3242 -0.1997 -0.9650
  729MOL0     O  523   9.622   3.168   8.196  0.3860 -0.4634  0.7498
  729MOL0     C  524   9.717   3.262   8.256  0.4407  0.1065  0.2211
  729MOL0     C  525   9.864   3.253   8.201 -0.1955 -0.4283  0.2048
  729MOL0     C  526   9.971   3.247   8.308 -0.4246  0.2808 -0.6718
  729MOL0     C  527  10.116   3.192   8.283  0.2360 -0.6683 -0.4273
  729MOL0     C  528  10.199   3.305   8.237  0.0034  0.3015  0.2700
  729MOL0     C  529  10.260   3.407   8.208  0.1594  0.4958  0.8222
  729MOL0     C  530   9.464   3.008   8.200  0.1967 -0.5987 -0.1529
  729MOL0     C  531   9.384   2.910   8.260  0.3735 -0.1614 -0.2194
  729MOL0     C  532   9.272   2.848   8.164  0.1031  0.3681  1.0046
  729MOL0     H  533   9.230   2.511   8.519  4.6285 -0.2027 -2.9653
  729MOL0     H  534   9.189   2.309   8.665  2.3439 -2.7663  0.7684
  729MOL0     H  535   9.435   2.302   9.049 -1.5805  3.8522 -1.4288
  729MOL0     H  536   9.503   2.215   8.911  0.9049 -3.8350  1.4996
  729MOL0     H  537   9.451   2.068   9.108  0.0622  1.2974  0.0746
  729MOL0     H  538   9.274   2.109   9.082 -1.1736 -0.0712 -1.8335
  729MOL0     H  539   9.288   1.910   8.970 -0.4022  0.3142  0.2435
  729MOL0     H  540   9.338   2.018   8.839  0.7026 -2.9384 -1.5340
  729MOL0     H  541   9.580   1.979   8.892  1.0620  1.0788  3.9423
  729MOL0     H  542   9.533   1.858   9.012  0.5726  1.2574 -0.9253
  729MOL0     H  543   9.592   1.792   8.775  0.4888  1.9614  1.0782
  729MOL0     H  544   9.436   1.854   8.720 -0.3657 -0.7601  0.2148
  729MOL0     H  545   9.455   1.633   8.923  0.4564  1.3859  0.4040
  729MOL0     H  546   9.309   1.707   8.861 -0.0152 -1.4897  0.1473
  729MOL0     H  547   9.498   1.571   8.661 -1.8516  1.0382 -2.9605
  729MOL0     H  548   9.351   1.660   8.623 -0.1920 -0.7830 -0.2598
  729MOL0     H  549   9.301   1.430   8.611  0.8391  1.3418 -0.7810
  729MOL0     H  550   9.358   1.396   8.779  0.0548 -1.2786 -2.0354
  729MOL0     H  551   9.210   1.535   8.977 -1.9988 -2.0259  2.3553
  729MOL0     H  552   8.835   1.445   9.004  0.2171 -2.5912 -2.3972
  729MOL0     H  553   8.958   1.558   9.070 -0.9002 -0.2260  0.0756
  729MOL0     H  554   9.096   1.413   9.159  0.4294  1.6959 -5.4172
  729MOL0     H  555   8.936   1.386   9.244 -2.2164  0.6513 -0.8713
  729MOL0     H  556   9.080   1.206   9.051 -2.5552  1.8226 -2.6401
  729MOL0     H  557   9.041   1.178   9.230 -0.4338 -1.0398 -0.9067
  729MOL0     H  558   8.888   1.138   8.984  1.8812  3.2825 -0.5235
  729MOL0     H  559   8.902   1.040   9.127  0.3859 -0.1270 -0.3570
  729MOL0     H  560   8.725   0.920   9.066 -1.3074 -1.2644 -4.3991
  729MOL0     H  561   8.528   0.692   9.097 -0.9903  0.4078 -0.4617
  729MOL0     H  562   8.644   0.737   8.983 -0.6968 -2.5831 -1.7109
  729MOL0     H  563   8.474   0.736   8.926 -1.0316 -2.1185 -0.2380
  729MOL0     H  564   7.977   1.092   8.871 -0.3854 -0.0968  0.3058
  729MOL0     H  565   7.728   1.052   8.916  1.6171  1.0185 -0.4920
  729MOL0     H  566   7.554   1.038   9.045 -0.0855 -0.3215  3.4965
  729MOL0     H  567   7.510   0.924   8.906 -0.9357  2.2426 -0.5482
  729MOL0     H  568   7.352   0.825   9.056  1.3418  0.1819  0.3943
  729MOL0     H  569   7.419   0.914   9.197  2.3192  2.4796  0.6031
  729MOL0     H  570   7.200   0.982   9.036  0.0395 -2.1312  0.9336
  729MOL0     H  571   7.327   1.080   8.964  0.7223  0.9476  0.3005
  729MOL0     H  572   7.388   1.178   9.175  0.2702  1.5590  2.9376
  729MOL0     H  573   7.257   1.101   9.267  1.5902 -2.7196 -0.9671
  729MOL0     H  574   7.219   1.335   9.200 -1.0168 -1.5215  0.4945
  729MOL0     H  575   7.225   1.294   9.018 -0.1057  1.9710 -0.2202
  729MOL0     H  576   7.019   1.250   9.224  2.5480  0.8063 -1.1679
  729MOL0     H  577   7.047   1.110   9.141 -1.3024  0.3269 -1.3232
  729MOL0     H  578   6.995   1.247   8.916  1.0138  1.3010 -0.2636
  729MOL0     H  579   6.935   1.362   9.017  2.3657 -0.0643 -1.6260
  729MOL0     H  580   6.764   1.197   9.104  0.4751 -0.3945  0.0237
  729MOL0     H  581   6.830   1.067   8.999  0.0917 -0.0649  2.0860
  729MOL0     H  582   7.832   0.706   9.153 -1.6413 -1.1411 -2.9471
  729MOL0     H  583   8.062   0.770   9.163 -1.9717 -1.6781  1.0473
  729MOL0     H  584   8.313   1.165   9.126  2.6647  3.1674  0.3968
  729MOL0     H  585   8.508   1.287   9.155 -0.9580 -1.1911  4.2030
  729MOL0     H  586   9.458   2.466   8.957 -4.9219 -0.2926  1.9666
  729MOL0     H  587   9.552   2.620   8.785  1.4073 -3.2281  0.9593
  729MOL0     H  588   9.534   2.908   8.567 -2.0548  2.1485  1.3022
  729MOL0     H  589   9.670   3.082   8.456  1.4618  3.1855 -3.0739
  729MOL0     H  590   9.683   3.364   8.235  1.4488  0.5841  0.8075
  729MOL0     H  591   9.720   3.255   8.365 -1.4826  1.3747  0.3957
  729MOL0     H  592   9.873   3.330   8.124  2.3998 -0.1158  0.7258
  729MOL0     H  593   9.856   3.155   8.152 -2.6339 -1.1309  1.8273
  729MOL0     H  594   9.985   3.341   8.363 -2.3124 -1.3072  2.8190
  729MOL0     H  595   9.938   3.190   8.395  2.2717  0.8439  0.8284
  729MOL0     H  596  10.109   3.107   8.214  1.9960 -1.1088 -0.1008
  729MOL0     H  597  10.160   3.155   8.376  2.3150 -0.8705 -1.4354
  729MOL0     H  598  10.318   3.496   8.188 -0.0378 -0.2517 -5.0841
  729MOL0     H  599   9.448   3.024   8.094 -2.0564 -0.6640  0.1419
  729MOL0     H  600   9.258   2.916   8.080  0.7622 -3.3497 -2.4319
  729MOL0     H  601   9.304   2.750   8.126  2.1979  0.1499  3.1091
  729MOL0     H  602   9.170   2.850   8.206 -0.7989  2.8328 -1.0556
  730MOL0     O  603   6.408   4.641   9.707 -0.0972 -0.1308 -0.1908
  730MOL0     C  604   6.399   4.524   9.741 -0.4063  0.1143 -0.6669
  730MOL0     O  605   6.348   4.486   9.861  0.2249  0.5729 -0.0007
  730MOL0     C  606   6.297   4.568   9.953 -0.9316 -1.0288 -0.0246
  730MOL0     C  607   6.344   4.690   9.988  0.3608 -0.3119 -0.2644
  730MOL0     C  608   6.277   4.763  10.088  0.3593  0.3950 -1.2765
  730MOL0     C  609   6.164   4.719  10.154  1.4265 -0.6308  0.5874
  730MOL0     O  610   6.100   4.790  10.254 -0.1757 -0.2965 -0.0639
  730MOL0     C  611   6.066   4.734  10.382  0.2009 -0.6868  0.3460
  730MOL0     C  612   6.190   4.660  10.444  0.6931  0.8381  0.4841
  730MOL0     C  613   6.314   4.739  10.492 -0.8852  0.5248  0.4338
  730MOL0     C  614   6.276   4.858  10.586 -0.6211 -0.8004 -0.5492
  730MOL0     C  615   6.195   4.821  10.708  0.4051 -0.9259  0.5081
  730MOL0     C  616   6.245   4.708  10.786 -0.5043  0.7435 -0.7129
  730MOL0     C  617   6.134   4.645  10.888 -0.1713  1.1815 -0.6091
  730MOL0     C  618   6.171   4.503  10.934 -0.0552 -0.0269 -0.4457
  730MOL0     N  619   6.125   4.398  10.845 -0.0488 -0.2455 -0.2685
  730MOL0     C  620   6.003   4.350  10.860  0.4975 -0.5394 -0.3125
  730MOL0     C  621   5.993   4.241  10.796 -0.4474 -0.8621  0.4586
  730MOL0     C  622   5.857   4.169  10.780  0.5516  0.1163 -0.0171
  730MOL0     C  623   5.872   4.039  10.703 -0.2018  0.5073 -0.7685
  730MOL0     C  624   5.744   3.967  10.651 -0.0831 -0.7323 -0.1274
  730MOL0     C  625   5.655   3.911  10.761 -0.7854 -0.5466  0.7798
  730MOL0     O  626   5.728   3.812  10.833  0.4806  0.5245 -0.6322
  730MOL0     C  627   5.693   3.788  10.960  0.3808 -0.3350 -0.1527
  730MOL0     C  628   5.566   3.728  10.981  0.0672  0.0001  0.8241
  730MOL0     C  629   5.526   3.688  11.116  0.1629  0.3682 -0.4585
  730MOL0     C  630   5.384   3.641  11.143 -0.4197 -0.2319  1.0739
  730MOL0     C  631   5.631   3.679  11.211  0.5123  0.6230 -0.5978
  730MOL0     C  632   5.614   3.631  11.360  0.1505 -0.0470  1.0130
  730MOL0     O  633   5.724   3.570  11.413 -0.1419  0.3421 -0.1941
  730MOL0     C  634   5.700   3.514  11.540 -0.0532  0.6426 -0.4368
  730MOL0     C  635   5.639   3.387  11.563  1.0299 -0.4684  0.9523
  730MOL0     C  636   5.622   3.342  11.698 -0.3578 -0.0349  0.8762
  730MOL0     C  637   5.648   3.430  11.803 -0.4561 -0.6573  0.6225
  730MOL0     O  638   5.633   3.379  11.924  0.1304 -0.3509 -0.0429
  730MOL0     C  639   5.501   3.338  11.952 -1.2748  0.1590  0.9148
  730MOL0     C  640   5.422   3.450  12.023 -0.8006  0.6827  0.7094
  730MOL0     C  641   5.264   3.421  12.025 -0.5863 -0.1975  0.4559
  730MOL0     C  642   5.201   3.533  12.111 -0.3897  0.1560  1.0359
  730MOL0     C  643   5.066   3.494  12.161  0.2432  0.3624  0.0861
  730MOL0     C  644   5.013   3.594  12.266  0.6300  0.4038 -0.9656
  730MOL0     C  645   4.863   3.567  12.303  0.4828  0.3860  0.5713
  730MOL0     C  646   4.827   3.584  12.445  0.5845  0.4650  0.6458
  730MOL0    Cl  647   4.900   3.732  12.522 -0.2769  0.2752  0.0735
  730MOL0     C  648   5.694   3.557  11.788 -0.7279 -0.4293  0.1709
  730MOL0     C  649   5.742   3.588  11.655 -0.1617  0.3595 -0.1142
  730MOL0     O  650   5.510   3.652  11.416  0.5136  0.5892 -0.1085
  730MOL0     C  651   5.753   3.736  11.186 -0.9389  1.1435  0.0846
  730MOL0     C  652   5.785   3.795  11.060  0.5095 -0.1098 -0.0663
  730MOL0     N  653   6.121   4.221  10.739  1.2718  0.7048 -1.2498
  730MOL0     N  654   6.194   4.309  10.781  0.0572  0.0171  0.6526
  730MOL0     C  655   6.123   4.591  10.125  0.7735 -0.1305  0.0799
  730MOL0     C  656   6.183   4.517  10.020  0.1958  0.1082 -0.4274
  730MOL0     C  657   6.428   4.430   9.635  0.7460  0.0957  0.9563
  730MOL0     C  658   6.318   4.364   9.585 -0.0370 -0.2314 -0.5378
  730MOL0     C  659   6.338   4.253   9.494  0.5562 -0.2834 -0.0625
  730MOL0     C  660   6.462   4.219   9.444 -0.0354 -0.4499  0.1870
  730MOL0     O  661   6.463   4.139   9.336  0.0916  0.4405  0.1249
  730MOL0     C  662   6.591   4.123   9.268  0.8936 -0.1724  1.0379
  730MOL0     C  663   6.564   4.003   9.170  0.2663 -0.0642  0.5412
  730MOL0     C  664   6.518   3.878   9.236  0.4817 -0.6368  0.2942
  730MOL0     C  665   6.442   3.790   9.145 -0.1634 -0.0936  0.2676
  730MOL0     C  666   6.355   3.699   9.217 -0.3108  0.0390  0.0066
  730MOL0     C  667   6.273   3.621   9.258 -0.1520  0.5374  0.6294
  730MOL0     C  668   6.573   4.292   9.488  0.8027 -0.4306  0.5340
  730MOL0     C  669   6.550   4.403   9.583 -0.2492  0.0986  0.2938
  730MOL0     C  670   6.675   4.479   9.617 -0.2235 -1.2388 -0.0472
  730MOL0     H  671   6.435   4.727   9.942  0.0229  1.2080  0.2569
  730MOL0     H  672   6.309   4.860  10.122 -1.0547 -0.2174  2.1597
  730MOL0     H  673   5.991   4.656  10.397  0.4089 -0.8851  0.3691
  730MOL0     H  674   6.025   4.814  10.445  2.9104  1.5648 -0.5429
  730MOL0     H  675   6.152   4.606  10.531 -3.2379 -0.8620 -1.9872
  730MOL0     H  676   6.227   4.580  10.378 -0.9394  1.4741 -1.2958
  730MOL0     H  677   6.381   4.664  10.534  1.9682  0.6779 -3.2744
  730MOL0     H  678   6.374   4.777  10.408  0.3626 -1.4383  0.3733
  730MOL0     H  679   6.369   4.902  10.623 -1.2004 -0.2183  0.2545
  730MOL0     H  680   6.224   4.944  10.542 -0.2270  0.7088  1.7707
  730MOL0     H  681   6.087   4.805  10.696  0.2622 -2.0456  2.8106
  730MOL0     H  682   6.191   4.914  10.766 -1.1022  1.1360 -2.6014
  730MOL0     H  683   6.277   4.630  10.717 -0.4384  0.7355 -0.6730
  730MOL0     H  684   6.334   4.741  10.840 -2.7007  2.7960  1.9476
  730MOL0     H  685   6.032   4.646  10.848 -0.3559  2.0629 -0.1540
  730MOL0     H  686   6.134   4.711  10.975  1.0162 -1.0892  1.2047
  730MOL0     H  687   6.278   4.489  10.948 -0.4274 -2.7244  0.2001
  730MOL0     H  688   6.118   4.484  11.028 -2.9972  2.5450 -1.3940
  730MOL0     H  689   5.919   4.397  10.911 -0.8125 -0.1149 -2.7025
  730MOL0     H  690   5.790   4.228  10.717  0.5410  1.4408  1.1585
  730MOL0     H  691   5.801   4.154  10.873 -0.4639  0.1764 -0.6190
  730MOL0     H  692   5.924   4.057  10.609  2.5800 -2.9949 -0.0720
  730MOL0     H  693   5.930   3.971  10.766 -0.6618  0.1237 -0.7550
  730MOL0     H  694   5.699   4.043  10.587 -0.5664  0.1055  1.1675
  730MOL0     H  695   5.760   3.888  10.577  3.5703 -1.3942  1.1673
  730MOL0     H  696   5.624   3.994  10.826  1.3139  0.2512  0.8428
  730MOL0     H  697   5.565   3.868  10.718  0.5875 -3.3312  0.4757
  730MOL0     H  698   5.493   3.700  10.905 -2.2808  0.3663  2.8113
  730MOL0     H  699   5.325   3.631  11.051 -1.1523  0.4039  1.4617
  730MOL0     H  700   5.341   3.714  11.212  0.4139  0.3896  0.9515
  730MOL0     H  701   5.389   3.546  11.198 -1.3630 -2.1253 -1.8754
  730MOL0     H  702   5.595   3.329  11.483 -0.4673 -1.4841  2.4393
  730MOL0     H  703   5.579   3.246  11.723  4.2225 -1.9630  2.4405
  730MOL0     H  704   5.448   3.285  11.872 -1.7242  2.0074 -0.0667
  730MOL0     H  705   5.511   3.268  12.036 -0.1097 -1.1814 -0.2839
  730MOL0     H  706   5.466   3.480  12.118  1.6094  0.9030 -0.3998
  730MOL0     H  707   5.430   3.538  11.958  3.3838 -1.7317 -2.6041
  730MOL0     H  708   5.241   3.323  12.069 -0.6173 -1.3117 -1.8901
  730MOL0     H  709   5.236   3.410  11.919 -0.8524 -1.7343  0.6521
  730MOL0     H  710   5.218   3.631  12.064  0.6364 -0.8295 -0.7534
  730MOL0     H  711   5.263   3.541  12.201 -0.6414  1.2086  1.1295
  730MOL0     H  712   4.989   3.477  12.086 -2.4401  1.5602  2.4047
  730MOL0     H  713   5.079   3.393  12.200 -0.1208 -1.0799 -3.2576
  730MOL0     H  714   5.026   3.693  12.222  1.1591  0.5294 -0.5246
  730MOL0     H  715   5.081   3.590  12.351  2.8717 -3.0547 -2.6839
  730MOL0     H  716   4.845   3.461  12.282  2.6747  0.4556 -2.2201
  730MOL0     H  717   4.795   3.613  12.231  0.9029  0.5463  0.2688
  730MOL0     H  718   4.840   3.496  12.508 -0.1036 -2.5219 -2.9841
  730MOL0     H  719   4.720   3.605  12.455  0.4522 -0.2342  0.7826
  730MOL0     H  720   5.714   3.620  11.874  1.5699 -0.6991 -0.1127
  730MOL0     H  721   5.805   3.675  11.643  1.7338 -0.8638  0.4521
  730MOL0     H  722   5.837   3.744  11.253  1.6038  2.2346 -2.9600
  730MOL0     H  723   5.868   3.856  11.027 -0.6345  2.3748  1.3459
  730MOL0     H  724   6.035   4.566  10.184  1.2667 -0.4825  0.6656
  730MOL0     H  725   6.142   4.422   9.987  0.2509  0.5682 -1.9203
  730MOL0     H  726   6.227   4.381   9.640 -0.0060  1.3111 -0.9205
  730MOL0     H  727   6.261   4.182   9.465  0.3626 -1.9161  3.8486
  730MOL0     H  728   6.616   4.216   9.217  1.0049 -0.2491  0.9513
  730MOL0     H  729   6.678   4.103   9.332  2.4359  1.2622 -0.4936
  730MOL0     H  730   6.651   3.978   9.110  0.0673  0.5004  0.0097
  730MOL0     H  731   6.496   4.046   9.096  0.5229  0.7567  0.7619
  730MOL0     H  732   6.598   3.821   9.284  0.9614 -0.6632 -0.5207
  730MOL0     H  733   6.450   3.910   9.316  0.3170  0.9466 -0.4328
  730MOL0     H  734   6.497   3.719   9.082  0.8692 -1.0658  2.1812
  730MOL0     H  735   6.380   3.846   9.074 -3.4940 -0.1961  2.8284
  730MOL0     H  736   6.194   3.563   9.301  1.4960 -0.2910  2.6898
  730MOL0     H  737   6.673   4.268   9.454  0.2598 -3.4038  0.7614
  730MOL0     H  738   6.682   4.486   9.726  1.8162 -1.8272 -0.1061
  730MOL0     H  739   6.768   4.433   9.586 -0.6924 -3.4989  1.6924
  730MOL0     H  740   6.679   4.579   9.572 -0.9215 -2.8144 -4.1039
  731MOL0     O  741   9.132   5.359   9.134 -0.0759 -0.1550 -0.7023
  731MOL0     C  742   9.196   5.283   9.202 -0.6801  0.6233 -0.1326
  731MOL0     O  743   9.300   5.319   9.277  0.0915  0.0956 -0.2377
  731MOL0     C  744   9.358   5.437   9.253 -0.2463  0.3816  0.5072
  731MOL0     C  745   9.461   5.462   9.157 -0.6878  0.7929  0.0450
  731MOL0     C  746   9.513   5.587   9.143 -0.2453 -0.1275  0.6984
  731MOL0     C  747   9.474   5.698   9.220 -0.4176 -0.3688 -0.1574
  731MOL0     O  748   9.516   5.823   9.201  0.5363  0.5275 -0.4228
  731MOL0     C  749   9.414   5.911   9.165 -0.3759 -1.2381  0.8218
  731MOL0     C  750   9.491   6.043   9.174 -0.1097 -0.2136 -0.0284
  731MOL0     C  751   9.399   6.165   9.185  0.1016 -0.9855 -0.4683
  731MOL0     C  752   9.489   6.293   9.179  0.2152  1.2252  0.1668
  731MOL0     C  753   9.411   6.422   9.221 -0.2561 -0.4289  0.5058
  731MOL0     C  754   9.495   6.548   9.183 -1.9235 -0.2666 -0.3271
  731MOL0     C  755   9.424   6.682   9.219  0.2470  0.4969  0.5291
  731MOL0     C  756   9.519   6.809   9.211 -0.0196 -0.3194 -0.5012
  731MOL0     N  757   9.456   6.940   9.201  0.1355 -0.5940  0.6647
  731MOL0     C  758   9.370   6.973   9.297  0.0979 -0.3122  0.4277
  731MOL0     C  759   9.337   7.095   9.255  0.2512  0.2370  0.9454
  731MOL0     C  760   9.251   7.188   9.329  0.4738  0.1858 -0.1600
  731MOL0     C  761   9.320   7.309   9.377  0.4487 -0.6908 -1.8093
  731MOL0     C  762   9.224   7.418   9.435  0.0425  0.9079 -0.2557
  731MOL0     C  763   9.293   7.541   9.490 -0.4929 -0.1648 -0.2456
  731MOL0     O  764   9.342   7.503   9.620  0.4188 -0.6888 -0.5180
  731MOL0     C  765   9.429   7.594   9.681  0.3062 -0.0834  1.1131
  731MOL0     C  766   9.495   7.542   9.789 -0.9878  0.2308 -0.5333
  731MOL0     C  767   9.565   7.625   9.880  0.4753  0.4215  0.2994
  731MOL0     C  768   9.640   7.554   9.990 -0.2714 -0.1397 -0.0181
  731MOL0     C  769   9.579   7.759   9.855  0.3635 -0.0759 -0.0138
  731MOL0     C  770   9.638   7.851   9.946 -0.0600 -0.9596  0.7718
  731MOL0     O  771   9.707   7.956   9.882  0.0835 -0.1624 -0.0241
  731MOL0     C  772   9.773   8.047   9.964  0.2715 -0.3643 -0.1743
  731MOL0     C  773   9.915   8.040   9.984  0.1600 -0.0455 -0.5634
  731MOL0     C  774   9.993   8.125  10.059 -0.1312  0.3046  0.5527
  731MOL0     C  775   9.923   8.230  10.122 -0.0607 -0.5260 -0.0246
  731MOL0     O  776   9.988   8.320  10.198  0.4992  0.1535  0.7738
  731MOL0     C  777  10.090   8.393  10.131 -0.7915  0.0216  0.0962
  731MOL0     C  778  10.119   8.530  10.191  0.0055 -1.1567 -0.2027
  731MOL0     C  779  10.143   8.534  10.340  0.5248  0.6482 -0.1362
  731MOL0     C  780  10.176   8.668  10.391  0.2877  0.2700 -0.4417
  731MOL0     C  781  10.221   8.664  10.541  0.8462 -0.0699  0.5553
  731MOL0     C  782  10.258   8.797  10.594 -0.2989  0.3972 -0.6737
  731MOL0     C  783  10.160   8.917  10.573  0.0767  0.9807  0.3466
  731MOL0     C  784  10.196   9.057  10.622 -0.1305  0.3652 -0.0463
  731MOL0    Cl  785  10.337   9.126  10.533 -0.1676 -0.2937  0.0812
  731MOL0     C  786   9.789   8.252  10.113  0.4317  0.3079 -0.0441
  731MOL0     C  787   9.705   8.154  10.044 -0.6925  0.3901  0.1856
  731MOL0     O  788   9.621   7.839  10.067 -0.7672 -0.4245  0.3333
  731MOL0     C  789   9.496   7.811   9.752 -0.9476 -0.7130  0.0266
  731MOL0     C  790   9.439   7.736   9.655  0.7340  0.8904 -0.3874
  731MOL0     N  791   9.376   7.125   9.126  0.2118  0.1987 -0.3441
  731MOL0     N  792   9.452   7.030   9.092 -0.1553 -1.3303 -0.4620
  731MOL0     C  793   9.380   5.665   9.317 -0.2877  0.0054 -0.0897
  731MOL0     C  794   9.323   5.543   9.334  0.4938 -0.6065 -0.1342
  731MOL0     C  795   9.134   5.148   9.218  0.4490 -0.3791 -0.1415
  731MOL0     C  796   9.155   5.031   9.392 -0.0802  0.2157  0.4160
  731MOL0     C  797   9.046   4.849   9.408  0.8358  0.3633  0.0626
  731MOL0     C  798   8.917   4.784   9.238  0.2892 -0.5262 -0.3613
  731MOL0     O  799   8.838   4.668   9.237  0.0659 -0.2108 -0.5784
  731MOL0     C  800   8.830   4.590   9.355 -1.0214 -0.4778 -0.2869
  731MOL0     C  801   8.734   4.656   9.451 -0.5402 -0.1069 -0.3589
  731MOL0     C  802   8.715   4.565   9.573  0.1574  0.1292 -0.4586
  731MOL0     C  803   8.565   4.548   9.610 -1.2030 -0.3529 -0.0498
  731MOL0     C  804   8.490   4.480   9.504 -0.3141  1.0607  0.4308
  731MOL0     C  805   8.457   4.407   9.413  0.3704 -1.9150 -0.2093
  731MOL0     C  806   8.907   4.910   9.069  0.6268  0.3536  0.5773
  731MOL0     C  807   9.014   5.086   9.057 -0.1819 -0.5691 -0.6714
  731MOL0     C  808   8.996   5.164   8.929  0.0331  0.9054 -0.2947
  731MOL0     H  809   9.507   5.387   9.093  2.2344  1.0397  1.7165
  731MOL0     H  810   9.588   5.596   9.065  1.1446 -1.3361  1.8324
  731MOL0     H  811   9.333   5.921   9.238 -0.1751 -1.7146  1.1173
  731MOL0     H  812   9.383   5.882   9.064 -0.3468 -0.2704  0.5209
  731MOL0     H  813   9.536   6.036   9.273  1.7643 -0.8288 -0.8844
  731MOL0     H  814   9.560   6.059   9.091  0.0396 -1.5530 -0.1776
  731MOL0     H  815   9.310   6.178   9.122  0.4171  0.2614 -0.6788
  731MOL0     H  816   9.360   6.164   9.288 -0.9733  2.1574 -0.7555
  731MOL0     H  817   9.568   6.263   9.248  0.6275 -2.2882 -1.5897
  731MOL0     H  818   9.533   6.301   9.079  4.0271  2.7896  1.7923
  731MOL0     H  819   9.382   6.419   9.327 -0.3229  0.4813  0.5190
  731MOL0     H  820   9.321   6.434   9.160 -0.4393 -0.9352  0.6676
  731MOL0     H  821   9.586   6.533   9.243 -1.6387  0.1789 -0.6372
  731MOL0     H  822   9.521   6.544   9.076 -0.1222 -0.5370  0.0763
  731MOL0     H  823   9.365   6.679   9.311 -1.9133  0.4642 -0.7692
  731MOL0     H  824   9.350   6.698   9.140  0.1947 -2.0596 -0.0256
  731MOL0     H  825   9.580   6.823   9.301 -1.6055 -0.4903  0.6316
  731MOL0     H  826   9.587   6.793   9.126  2.4748  2.4344  0.7890
  731MOL0     H  827   9.343   6.931   9.393 -1.2847  0.9085  0.5966
  731MOL0     H  828   9.182   7.155   9.408  0.7467 -2.5615 -0.9710
  731MOL0     H  829   9.182   7.218   9.249 -1.2494 -1.1414  0.7584
  731MOL0     H  830   9.387   7.269   9.454 -2.0702  0.0101  0.9217
  731MOL0     H  831   9.386   7.357   9.304 -1.8275  3.0552 -1.6609
  731MOL0     H  832   9.165   7.450   9.348 -2.1564  1.8233  1.4787
  731MOL0     H  833   9.164   7.375   9.515 -0.9217 -0.4038 -1.6258
  731MOL0     H  834   9.380   7.570   9.430 -0.5943  0.6968  0.0017
  731MOL0     H  835   9.232   7.633   9.486 -0.7906 -0.3622 -4.3711
  731MOL0     H  836   9.497   7.435   9.802  4.3655 -0.1269 -2.0223
  731MOL0     H  837   9.747   7.570   9.972 -0.5559  0.5411 -1.1916
  731MOL0     H  838   9.622   7.446   9.995  0.4383 -0.2124  1.8178
  731MOL0     H  839   9.603   7.592  10.085  0.6032 -2.1330  1.1920
  731MOL0     H  840   9.968   7.954   9.944 -0.7531 -0.3387 -1.1834
  731MOL0     H  841  10.100   8.113  10.058 -0.3853 -2.6251 -0.3949
  731MOL0     H  842  10.184   8.340  10.147 -0.6119 -0.3732 -1.9527
  731MOL0     H  843  10.072   8.391  10.023 -0.6877  0.3579  0.0741
  731MOL0     H  844  10.205   8.573  10.137 -1.7673 -0.4543 -2.6225
  731MOL0     H  845  10.027   8.585  10.172  0.3510  0.4034  2.1501
  731MOL0     H  846  10.228   8.467  10.354  0.7042  0.7589 -0.6732
  731MOL0     H  847  10.059   8.496  10.398  0.6313 -0.9729 -0.9776
  731MOL0     H  848  10.082   8.721  10.374 -1.1318 -1.8937  0.3517
  731MOL0     H  849  10.250   8.716  10.326 -1.7480  2.5168 -1.2449
  731MOL0     H  850  10.140   8.615  10.594  0.4730  0.5511  0.5673
  731MOL0     H  851  10.317   8.612  10.549  1.6368  1.1785 -0.4648
  731MOL0     H  852  10.355   8.831  10.554 -0.7345  0.8026 -1.4070
  731MOL0     H  853  10.283   8.788  10.700 -1.4392 -0.6981 -0.4734
  731MOL0     H  854  10.068   8.885  10.623  0.4640 -0.2837  0.2615
  731MOL0     H  855  10.154   8.931  10.465  0.1877 -3.7213 -0.4652
  731MOL0     H  856  10.203   9.051  10.731  2.3248  3.2240  0.0919
  731MOL0     H  857  10.113   9.123  10.594 -0.4218 -0.5488 -1.4060
  731MOL0     H  858   9.740   8.331  10.168  1.0084  0.7258 -0.1179
  731MOL0     H  859   9.598   8.151  10.026 -0.2782 -0.7394 -2.5560
  731MOL0     H  860   9.490   7.919   9.749  0.0124 -0.6470  0.2304
  731MOL0     H  861   9.377   7.785   9.581 -0.3331 -2.0243 -1.5364
  731MOL0     H  862   9.369   5.738   9.396  3.2657 -0.5802  1.1204
  731MOL0     H  863   9.245   5.521   9.406 -1.2686  1.7543 -1.1986
  731MOL0     H  864   9.222   5.056   9.474  4.4939 -2.1701 -2.1969
  731MOL0     H  865   9.042   4.799   9.505 -3.0902 -1.1288 -0.6823
  731MOL0     H  866   8.788   4.494   9.323  0.4116 -0.8452 -1.1633
  731MOL0     H  867   8.932   4.578   9.392  0.0409  1.3466 -2.4224
  731MOL0     H  868   8.640   4.692   9.407 -1.6389  1.1867  2.7595
  731MOL0     H  869   8.779   4.750   9.485 -1.3265  0.1093  0.1210
  731MOL0     H  870   8.754   4.466   9.547 -0.2993  0.4513 -2.5465
  731MOL0     H  871   8.773   4.603   9.657 -0.9998 -0.8634  0.8414
  731MOL0     H  872   8.517   4.643   9.633 -2.2276 -1.2305  1.5941
  731MOL0     H  873   8.550   4.487   9.699  0.8239  0.1584  0.7027
  731MOL0     H  874   8.414   4.361   9.326 -2.9570 -1.0732  0.8185
  731MOL0     H  875   8.841   4.878   8.988  0.7678  2.6173 -0.5275
  731MOL0     H  876   9.091   5.185   8.878  2.0794 -0.5614  2.6298
  731MOL0     H  877   8.927   5.110   8.864  1.9037 -2.2902  0.1513
  731MOL0     H  878   8.957   5.261   8.963 -1.1312  0.7531 -1.1501
  732MOL0     O  879   1.097   5.907   5.128  0.8763 -0.0391 -0.2514
  732MOL0     C  880   1.168   5.823   5.086  1.6978 -0.0317  0.3509
  732MOL0     O  881   1.131   5.742   4.980  0.9277 -0.5048 -0.0308
  732MOL0     C  882   1.049   5.802   4.886 -0.7357  0.4108 -0.6699
  732MOL0     C  883   0.917   5.802   4.917  0.3467  0.8090  0.3830
  732MOL0     C  884   0.822   5.842   4.811 -0.5091 -0.4368  0.8219
  732MOL0     C  885   0.884   5.918   4.704 -0.4824 -0.5367  0.1519
  732MOL0     O  886   0.810   5.980   4.603 -0.6120  0.5708  0.0776
  732MOL0     C  887   0.677   5.942   4.591  0.7167  0.1841  0.3003
  732MOL0     C  888   0.675   5.803   4.528 -0.5054 -0.0141 -0.5047
  732MOL0     C  889   0.534   5.744   4.522 -0.1612  0.2465 -0.9281
  732MOL0     C  890   0.459   5.678   4.652 -0.0398 -0.2112 -0.0364
  732MOL0     C  891   0.542   5.564   4.709  0.1406 -1.2275  0.6122
  732MOL0     C  892   0.455   5.475   4.799  0.0182 -0.2343  0.8646
  732MOL0     C  893   0.540   5.365   4.878  0.5919 -0.4671  1.0142
  732MOL0     C  894   0.500   5.217   4.829 -0.0384  0.2939 -0.0244
  732MOL0     N  895   0.589   5.113   4.887 -0.1248 -1.2953 -0.5874
  732MOL0     C  896   0.688   5.139   4.982 -0.5364  0.2526  0.3959
  732MOL0     C  897   0.742   5.013   5.007  0.2643  0.3725  1.2278
  732MOL0     C  898   0.855   4.980   5.095 -0.2220  0.6858 -0.2858
  732MOL0     C  899   0.935   4.857   5.047 -0.0128 -0.2004 -0.2815
  732MOL0     C  900   1.011   4.792   5.169  0.5437 -0.5304  0.9284
  732MOL0     C  901   1.090   4.671   5.119  0.6602  0.3828  0.6699
  732MOL0     O  902   1.210   4.647   5.198  0.8448  0.2641 -0.2875
  732MOL0     C  903   1.330   4.680   5.139 -0.3177 -0.1037 -0.5161
  732MOL0     C  904   1.452   4.632   5.202  0.2867  0.2468 -0.2480
  732MOL0     C  905   1.581   4.663   5.155 -0.1198  0.2080 -0.3436
  732MOL0     C  906   1.698   4.583   5.216 -0.0396 -0.9831  0.5920
  732MOL0     C  907   1.597   4.741   5.040  0.3922 -0.2983  1.1129
  732MOL0     C  908   1.730   4.772   4.978  0.0273  1.2472 -0.6679
  732MOL0     O  909   1.730   4.856   4.874  0.9037  0.4747 -0.6486
  732MOL0     C  910   1.847   4.878   4.812  0.0167  0.0598 -0.4793
  732MOL0     C  911   1.877   4.829   4.682  0.9313  0.4426  0.1659
  732MOL0     C  912   1.986   4.854   4.609 -0.4437 -0.6426  0.4365
  732MOL0     C  913   2.080   4.948   4.652  0.4966  0.4170  0.0774
  732MOL0     O  914   2.196   4.988   4.594  0.0068 -0.1923  0.8360
  732MOL0     C  915   2.183   5.021   4.453  0.8430  0.6766 -0.3175
  732MOL0     C  916   2.306   5.096   4.397  0.0155 -0.6082 -0.1119
  732MOL0     C  917   2.292   5.079   4.247  0.5378 -0.0852 -0.1416
  732MOL0     C  918   2.401   5.165   4.188  0.0525  0.6802 -0.9366
  732MOL0     C  919   2.452   5.099   4.064  0.6578  0.0033  0.9457
  732MOL0     C  920   2.549   5.197   4.005 -0.2577 -0.3812  0.0079
  732MOL0     C  921   2.617   5.138   3.880  0.1280 -0.5667 -0.1980
  732MOL0     C  922   2.658   5.246   3.779 -0.2628  0.0672  0.2330
  732MOL0    Cl  923   2.774   5.366   3.862 -0.1925 -0.1204  0.1925
  732MOL0     C  924   2.043   5.010   4.777 -0.4391  0.3861  0.7141
  732MOL0     C  925   1.934   4.980   4.858  0.8783  0.3084  1.3133
  732MOL0     O  926   1.826   4.706   5.015  1.2105  0.9386 -0.7088
  732MOL0     C  927   1.476   4.788   4.975 -0.7595 -0.0989  0.3498
  732MOL0     C  928   1.345   4.767   5.029 -0.0198 -0.0276 -0.3156
  732MOL0     N  929   0.670   4.927   4.928  0.0561  0.6624 -0.1841
  732MOL0     N  930   0.577   4.984   4.859  0.0691  0.0349  0.0427
  732MOL0     C  931   1.024   5.916   4.686 -0.0291  0.2735  0.8681
  732MOL0     C  932   1.114   5.853   4.774 -0.8665 -0.5326  0.2568
  732MOL0     C  933   1.277   5.762   5.170 -1.2294  0.4110 -1.0670
  732MOL0     C  934   1.293   5.615   5.170 -0.3510 -0.3652 -0.3789
  732MOL0     C  935   1.372   5.560   5.270 -0.5064 -0.3149  0.7943
  732MOL0     C  936   1.426   5.628   5.375 -0.1257 -0.6622 -1.6017
  732MOL0     O  937   1.503   5.572   5.478  0.1954  0.2981 -0.1064
  732MOL0     C  938   1.553   5.439   5.445 -0.1433 -0.0130 -0.0495
  732MOL0     C  939   1.674   5.388   5.529  0.1658  0.9020 -0.0513
  732MOL0     C  940   1.809   5.455   5.503 -0.0183 -0.2495  0.1363
  732MOL0     C  941   1.885   5.380   5.388 -0.1082  0.4978  0.3761
  732MOL0     C  942   2.006   5.457   5.339  0.8367 -0.0769  0.1507
  732MOL0     C  943   2.114   5.510   5.334 -0.2478  0.2086  1.1038
  732MOL0     C  944   1.414   5.772   5.382 -0.4246  0.5554 -0.1898
  732MOL0     C  945   1.347   5.844   5.279  0.7109  0.5333 -0.5192
  732MOL0     C  946   1.353   5.996   5.286  0.4796  0.0603  0.4623
  732MOL0     H  947   0.895   5.757   5.013 -0.2334  3.2486  1.4772
  732MOL0     H  948   0.715   5.823   4.817 -0.3755 -0.8965  2.3875
  732MOL0     H  949   0.628   6.007   4.518  2.4214  0.4023 -0.6899
  732MOL0     H  950   0.603   5.955   4.672  1.6143  1.0647  1.0017
  732MOL0     H  951   0.713   5.820   4.427 -2.5255  1.0332 -1.1381
  732MOL0     H  952   0.743   5.736   4.581  0.9614  0.6898 -1.4593
  732MOL0     H  953   0.465   5.817   4.479 -1.6560 -0.9184 -0.6135
  732MOL0     H  954   0.546   5.667   4.445 -2.6184  0.3512 -1.4922
  732MOL0     H  955   0.432   5.751   4.730 -0.6284 -1.3199  0.8394
  732MOL0     H  956   0.365   5.644   4.608 -0.4374  0.4665  0.2629
  732MOL0     H  957   0.626   5.611   4.761  0.9318  0.6276 -2.1404
  732MOL0     H  958   0.590   5.495   4.638 -0.0470 -0.8125  0.0754
  732MOL0     H  959   0.395   5.540   4.864 -0.7079 -0.3550  0.3229
  732MOL0     H  960   0.372   5.431   4.743 -3.8242  4.8763  1.7441
  732MOL0     H  961   0.509   5.384   4.981 -1.2108 -1.0226  0.6111
  732MOL0     H  962   0.648   5.372   4.862  0.2399 -1.5980 -2.9389
  732MOL0     H  963   0.397   5.201   4.861 -0.2445  2.0520  0.2818
  732MOL0     H  964   0.522   5.210   4.722 -0.0446 -1.1834  0.0474
  732MOL0     H  965   0.719   5.235   5.023  2.3333 -0.1805 -0.5392
  732MOL0     H  966   0.824   4.976   5.200 -0.3933 -1.0718 -0.3689
  732MOL0     H  967   0.927   5.062   5.095  1.6843 -0.9154 -0.4262
  732MOL0     H  968   0.868   4.775   5.023  0.7009 -1.5932  2.1497
  732MOL0     H  969   1.006   4.882   4.967  0.2823  0.3101  0.1317
  732MOL0     H  970   1.078   4.864   5.217  0.0204 -1.2371  2.8086
  732MOL0     H  971   0.938   4.757   5.242  2.7447 -2.2263  2.4451
  732MOL0     H  972   1.017   4.590   5.131 -0.9249  1.5908 -0.3175
  732MOL0     H  973   1.106   4.681   5.011  3.4614 -3.3204  0.5444
  732MOL0     H  974   1.431   4.564   5.283  0.4153 -1.9841 -1.9936
  732MOL0     H  975   1.773   4.649   5.261 -1.0789 -0.8514  2.1835
  732MOL0     H  976   1.750   4.531   5.134 -0.9646  2.2388 -2.2710
  732MOL0     H  977   1.672   4.517   5.299  1.8230 -1.4771  0.8413
  732MOL0     H  978   1.807   4.769   4.625  0.5747  1.7848 -0.8878
  732MOL0     H  979   1.993   4.799   4.516  0.5218  4.2843 -2.7679
  732MOL0     H  980   2.166   4.930   4.395 -0.2546  0.6188  0.0690
  732MOL0     H  981   2.097   5.087   4.438 -0.8601 -0.5598  3.0084
  732MOL0     H  982   2.302   5.202   4.425  4.0190 -0.4153  0.2016
  732MOL0     H  983   2.394   5.057   4.449  2.1946  3.6348 -0.1912
  732MOL0     H  984   2.196   5.109   4.205  0.6147 -0.8460 -0.8882
  732MOL0     H  985   2.302   4.974   4.216 -2.8921 -0.4550 -0.3439
  732MOL0     H  986   2.492   5.174   4.249  0.8068 -2.3225 -1.4308
  732MOL0     H  987   2.358   5.265   4.181 -0.9238  0.9347  4.4679
  732MOL0     H  988   2.488   5.001   4.096  4.6190  1.1900  0.7725
  732MOL0     H  989   2.372   5.084   3.990 -0.5422 -2.2265  2.5809
  732MOL0     H  990   2.631   5.222   4.074 -1.1332  3.1909 -0.0516
  732MOL0     H  991   2.497   5.290   3.982 -0.6755 -0.8246 -0.8660
  732MOL0     H  992   2.539   5.086   3.823 -1.8564  2.1206 -0.1023
  732MOL0     H  993   2.710   5.083   3.899  2.8585  2.6171 -3.0129
  732MOL0     H  994   2.572   5.304   3.742 -0.3901 -0.1046  0.2606
  732MOL0     H  995   2.722   5.213   3.696  1.1541  0.8732  0.9603
  732MOL0     H  996   2.108   5.092   4.809 -0.6845  3.0131 -4.4032
  732MOL0     H  997   1.913   5.027   4.953  0.5571 -2.9241  2.9828
  732MOL0     H  998   1.493   4.857   4.894  1.6883 -0.0583  0.8296
  732MOL0     H  999   1.257   4.826   5.006 -2.1918 -1.9491  2.4211
  732MOL0     H 1000   1.075   5.959   4.601 -1.4482 -1.5805 -1.0164
  732MOL0     H 1001   1.222   5.846   4.765 -0.4398  2.8385  1.1957
  732MOL0     H 1002   1.246   5.549   5.097  0.0866 -3.2668  1.7558
  732MOL0     H 1003   1.384   5.455   5.244  3.0830  0.6729 -2.5326
  732MOL0     H 1004   1.467   5.371   5.443  0.2936 -0.5905  0.7147
  732MOL0     H 1005   1.585   5.444   5.340 -0.6517 -0.4414 -0.2278
  732MOL0     H 1006   1.683   5.281   5.507 -0.2271  0.7497  0.5097
  732MOL0     H 1007   1.652   5.380   5.636 -1.0489  1.3389 -0.2495
  732MOL0     H 1008   1.800   5.562   5.483  2.3954  0.1511  0.8241
  732MOL0     H 1009   1.878   5.447   5.588 -0.0775  2.0828  0.4892
  732MOL0     H 1010   1.819   5.352   5.305  2.3069 -1.3841 -1.0302
  732MOL0     H 1011   1.922   5.286   5.429  2.1057  0.9629 -0.4353
  732MOL0     H 1012   2.215   5.545   5.334 -0.9883  2.5935 -0.9153
  732MOL0     H 1013   1.470   5.815   5.464 -0.1755  1.2398 -0.7109
  732MOL0     H 1014   1.398   6.041   5.197 -1.5372  2.8042  0.6765
  732MOL0     H 1015   1.250   6.032   5.299 -0.0400 -1.9663  2.6191
  732MOL0     H 1016   1.397   6.036   5.378 -1.2683  1.8326  0.6120
  733MOL0     O 1017   6.893  11.056   8.517  0.7668  0.5130  0.4518
  733MOL0     C 1018   6.776  11.018   8.534  0.2291 -0.1266  0.6123
  733MOL0     O 1019   6.726  10.948   8.637  0.7424  0.4328  0.2044
  733MOL0     C 1020   6.820  10.923   8.734  0.6122  0.6143 -0.3076
  733MOL0     C 1021   6.935  10.845   8.713 -0.2837 -0.2992  0.5899
  733MOL0     C 1022   7.027  10.836   8.813 -0.4828 -0.1585  1.3441
  733MOL0     C 1023   6.999  10.895   8.936 -0.0067  0.0930 -1.4406
  733MOL0     O 1024   7.088  10.886   9.049 -0.5394  0.3933  0.4044
  733MOL0     C 1025   7.140  10.754   9.057 -0.2903 -0.1048  0.9847
  733MOL0     C 1026   7.203  10.731   9.191 -0.6498  0.3356 -0.2114
  733MOL0     C 1027   7.247  10.583   9.218  1.0801 -0.4479 -0.3128
  733MOL0     C 1028   7.382  10.546   9.156 -0.9443  0.2273 -0.8217
  733MOL0     C 1029   7.416  10.409   9.190  0.3582 -0.3899  0.2828
  733MOL0     C 1030   7.447  10.385   9.338  0.0901 -0.4639  0.7409
  733MOL0     C 1031   7.529  10.258   9.354  0.3673 -0.1017  0.2926
  733MOL0     C 1032   7.467  10.138   9.295 -0.2384  0.0045  0.2322
  733MOL0     N 1033   7.499  10.019   9.359  0.1428  0.2661 -0.4137
  733MOL0     C 1034   7.411   9.945   9.439 -0.4339  0.7084 -0.1613
  733MOL0     C 1035   7.490   9.844   9.475 -0.1282  0.8539  0.1012
  733MOL0     C 1036   7.446   9.716   9.544  0.6853 -0.0828 -0.3925
  733MOL0     C 1037   7.430   9.720   9.689  0.0031 -0.5107 -0.0418
  733MOL0     C 1038   7.354   9.601   9.756 -0.0615 -0.1515  0.3193
  733MOL0     C 1039   7.454   9.490   9.762 -0.2480  0.1008 -0.2291
  733MOL0     O 1040   7.575   9.505   9.840  0.7550  0.0004  0.2953
  733MOL0     C 1041   7.684   9.444   9.776  0.8669  1.3042  0.2654
  733MOL0     C 1042   7.727   9.310   9.797  0.0186  0.1963 -0.0539
  733MOL0     C 1043   7.823   9.255   9.718 -0.0421 -0.4138 -0.3103
  733MOL0     C 1044   7.839   9.110   9.762  0.3980 -0.3270  0.4118
  733MOL0     C 1045   7.886   9.325   9.611 -0.3791  0.3587  0.2562
  733MOL0     C 1046   7.998   9.277   9.519  0.8557  0.0300  0.1696
  733MOL0     O 1047   8.044   9.353   9.415  0.1783 -0.5115  0.3772
  733MOL0     C 1048   8.142   9.306   9.337  0.3618 -0.0206 -0.5791
  733MOL0     C 1049   8.269   9.372   9.329  0.1790 -0.5132  0.6733
  733MOL0     C 1050   8.371   9.331   9.253 -0.5720 -0.6395  0.1903
  733MOL0     C 1051   8.357   9.216   9.182  0.1401  0.2062  0.8239
  733MOL0     O 1052   8.459   9.174   9.098 -0.0402 -0.2894  1.1878
  733MOL0     C 1053   8.433   9.171   8.960  0.0578 -0.0521 -0.4199
  733MOL0     C 1054   8.563   9.190   8.876 -0.5012 -0.1757  0.1246
  733MOL0     C 1055   8.586   9.121   8.740  0.3090  0.4895 -0.1838
  733MOL0     C 1056   8.737   9.108   8.708 -1.0099 -0.2141  0.0370
  733MOL0     C 1057   8.788   9.037   8.580  0.3476 -0.3827 -1.5184
  733MOL0     C 1058   8.950   9.034   8.583 -0.0054 -1.2966 -0.4210
  733MOL0     C 1059   8.998   8.954   8.459  0.3259 -0.3026 -0.1458
  733MOL0     C 1060   9.140   8.894   8.492 -0.1392 -0.5869 -0.9609
  733MOL0    Cl 1061   9.269   9.014   8.504  0.5559 -0.2714 -0.3366
  733MOL0     C 1062   8.241   9.140   9.192 -0.3620 -0.2400 -0.7829
  733MOL0     C 1063   8.132   9.187   9.265  0.6735  0.1927  0.4038
  733MOL0     O 1064   8.018   9.158   9.536  0.1956  0.5055  0.1798
  733MOL0     C 1065   7.834   9.449   9.590  0.6643 -0.5457  1.3432
  733MOL0     C 1066   7.739   9.507   9.669 -0.0194  0.4667 -0.1991
  733MOL0     N 1067   7.622   9.859   9.433  0.5879  0.6716  0.1170
  733MOL0     N 1068   7.620   9.965   9.371 -0.5692  0.7544  0.1047
  733MOL0     C 1069   6.882  10.960   8.958  0.0497 -0.7204 -0.3269
  733MOL0     C 1070   6.791  10.976   8.860  0.6043 -0.0176  0.2343
  733MOL0     C 1071   6.683  11.034   8.412 -0.1676  0.8404 -0.3700
  733MOL0     C 1072   6.550  11.072   8.445 -0.4175 -0.3059 -0.2450
  733MOL0     C 1073   6.450  11.092   8.345 -0.0564 -0.5020 -0.2165
  733MOL0     C 1074   6.479  11.075   8.216 -0.1695  0.2296  0.1021
  733MOL0     O 1075   6.372  11.102   8.135  0.2052 -0.2983 -0.6998
  733MOL0     C 1076   6.350  11.035   8.013 -0.3128  0.2253  1.2116
  733MOL0     C 1077   6.260  10.913   8.039 -0.0856  0.0571 -1.0887
  733MOL0     C 1078   6.151  10.878   7.936 -0.2931 -0.2724 -0.1280
  733MOL0     C 1079   6.188  10.795   7.816  0.2873 -1.0208 -0.2392
  733MOL0     C 1080   6.283  10.863   7.727  0.4647  0.3992  0.2283
  733MOL0     C 1081   6.373  10.926   7.675  1.5908 -0.1348 -0.0100
  733MOL0     C 1082   6.607  11.036   8.170  0.1368  1.1842  1.1596
  733MOL0     C 1083   6.712  11.024   8.270  0.0308 -0.1866  0.0324
  733MOL0     C 1084   6.847  10.997   8.214 -0.0073 -0.9240  0.9939
  733MOL0     H 1085   6.947  10.806   8.612 -2.8638 -0.5174  0.3009
  733MOL0     H 1086   7.126  10.792   8.804 -1.0557 -1.6396  1.8799
  733MOL0     H 1087   7.214  10.728   8.980 -2.2057 -0.5340 -0.8333
  733MOL0     H 1088   7.062  10.678   9.048  0.8714 -1.3782  1.2438
  733MOL0     H 1089   7.297  10.786   9.193  1.0543 -2.2810 -1.7093
  733MOL0     H 1090   7.126  10.761   9.263  1.6877  3.2101  1.2762
  733MOL0     H 1091   7.264  10.569   9.325  3.2512  2.2261 -0.1815
  733MOL0     H 1092   7.160  10.531   9.177 -1.9000  2.2428  2.0373
  733MOL0     H 1093   7.387  10.568   9.049  0.7342  2.6474 -0.3261
  733MOL0     H 1094   7.467  10.604   9.194  0.0017 -0.2287 -2.1524
  733MOL0     H 1095   7.498  10.367   9.132  0.8588  0.6490  0.1995
  733MOL0     H 1096   7.329  10.347   9.167  0.6788 -0.0692 -2.0961
  733MOL0     H 1097   7.505  10.469   9.378  0.6478 -1.2843  1.6972
  733MOL0     H 1098   7.356  10.372   9.397 -0.0920 -0.6472  0.4253
  733MOL0     H 1099   7.545  10.247   9.462  0.5630 -1.9166  0.1024
  733MOL0     H 1100   7.628  10.277   9.312 -0.3289  0.1515 -1.2794
  733MOL0     H 1101   7.358  10.138   9.297 -0.3477 -1.8654 -1.6275
  733MOL0     H 1102   7.506  10.125   9.193 -0.0938  1.9404 -0.0080
  733MOL0     H 1103   7.307   9.961   9.465 -0.3798  1.0533 -0.1483
  733MOL0     H 1104   7.523   9.644   9.516  0.1509 -0.9063  0.2071
  733MOL0     H 1105   7.349   9.697   9.498 -0.7519  2.7190  1.2129
  733MOL0     H 1106   7.529   9.735   9.733  0.1493  2.7752 -1.2595
  733MOL0     H 1107   7.364   9.805   9.706 -0.2571 -0.8844  0.8733
  733MOL0     H 1108   7.311   9.622   9.854 -1.3058  0.1587 -0.2684
  733MOL0     H 1109   7.269   9.568   9.695 -0.2153 -1.3324  1.1404
  733MOL0     H 1110   7.405   9.396   9.789  1.3146 -1.1928 -1.6774
  733MOL0     H 1111   7.466   9.479   9.654 -2.5667  0.0614 -0.5214
  733MOL0     H 1112   7.681   9.258   9.880  1.4905 -0.9169  0.1172
  733MOL0     H 1113   7.742   9.065   9.784 -1.4941  2.2585 -2.0014
  733MOL0     H 1114   7.912   9.091   9.842 -0.7834 -4.6112  0.7378
  733MOL0     H 1115   7.869   9.045   9.679 -3.3722 -2.1504  0.2855
  733MOL0     H 1116   8.262   9.456   9.398 -0.3236 -0.0047  0.0222
  733MOL0     H 1117   8.463   9.389   9.246 -1.9337  1.5682 -0.6783
  733MOL0     H 1118   8.408   9.070   8.927  1.0576 -0.1323 -0.9694
  733MOL0     H 1119   8.353   9.241   8.934  1.8401  2.6699  0.9802
  733MOL0     H 1120   8.585   9.298   8.870  1.1700 -0.3948  1.4681
  733MOL0     H 1121   8.639   9.159   8.949 -3.0188  0.1328  3.1270
  733MOL0     H 1122   8.523   9.168   8.664 -1.2875  0.4882  1.0692
  733MOL0     H 1123   8.543   9.021   8.753 -2.1752  1.4314 -0.4830
  733MOL0     H 1124   8.785   9.057   8.792 -2.2408 -0.8395  0.3894
  733MOL0     H 1125   8.776   9.210   8.703  2.8306 -1.5813 -1.3464
  733MOL0     H 1126   8.749   8.936   8.591 -1.5075  0.2717 -1.6235
  733MOL0     H 1127   8.750   9.085   8.489 -3.5884 -2.1417 -1.0427
  733MOL0     H 1128   8.990   8.974   8.665  2.3770 -1.2254 -1.4539
  733MOL0     H 1129   8.995   9.133   8.597 -2.9062  0.1596 -0.5935
  733MOL0     H 1130   9.011   9.016   8.370  0.0112 -2.4153 -1.7271
  733MOL0     H 1131   8.928   8.871   8.447  0.3120 -1.1056  4.0986
  733MOL0     H 1132   9.163   8.817   8.417  0.4898  0.6386 -2.0707
  733MOL0     H 1133   9.132   8.843   8.588  0.2860  0.3732 -0.4078
  733MOL0     H 1134   8.239   9.049   9.133 -0.5372  0.8921 -2.5736
  733MOL0     H 1135   8.044   9.123   9.274 -0.6859  1.3038 -3.1482
  733MOL0     H 1136   7.863   9.512   9.507 -0.6897 -0.1085  1.1740
  733MOL0     H 1137   7.712   9.610   9.649 -0.8430  0.1918 -0.5420
  733MOL0     H 1138   6.866  11.003   9.057 -1.5015 -1.6297 -0.1487
  733MOL0     H 1139   6.702  11.039   8.855  0.2502 -0.5198 -3.8475
  733MOL0     H 1140   6.514  11.097   8.544 -0.1474  1.6891 -0.6084
  733MOL0     H 1141   6.351  11.118   8.378  0.2524 -1.5708  1.6569
  733MOL0     H 1142   6.298  11.098   7.941 -0.2640  0.9213  1.7795
  733MOL0     H 1143   6.446  11.017   7.964 -0.2820 -1.6951  1.8813
  733MOL0     H 1144   6.201  10.925   8.130 -0.2943  0.9235 -1.3312
  733MOL0     H 1145   6.304  10.815   8.059 -0.5795 -0.3159 -1.7981
  733MOL0     H 1146   6.070  10.818   7.981  0.2915 -1.8925 -1.1556
  733MOL0     H 1147   6.112  10.975   7.905  3.7297  1.0971 -1.5124
  733MOL0     H 1148   6.092  10.771   7.770  0.0218 -2.4470  0.9982
  733MOL0     H 1149   6.228  10.700   7.852 -2.3215 -1.7963  0.8115
  733MOL0     H 1150   6.455  10.959   7.615  1.4220  1.6615  0.6757
  733MOL0     H 1151   6.633  11.013   8.066 -1.5663  2.0624  0.5107
  733MOL0     H 1152   6.911  10.942   8.283 -1.6930 -7.3019 -1.8184
  733MOL0     H 1153   6.837  10.937   8.123  2.8076  0.3506 -0.3056
  733MOL0     H 1154   6.898  11.091   8.189 -3.5231  1.0933  0.7535
  734MOL0     O 1155   6.592   3.859   6.614 -0.5679  1.1631 -0.5214
  734MOL0     C 1156   6.511   3.864   6.528  1.0421 -0.0029  1.4190
  734MOL0     O 1157   6.372   3.842   6.536  0.2438  0.5545 -0.3892
  734MOL0     C 1158   6.320   3.806   6.658 -0.6450  0.3641 -0.5210
  734MOL0     C 1159   6.237   3.902   6.717 -0.3132 -0.4905 -0.5531
  734MOL0     C 1160   6.172   3.878   6.842 -0.1977  0.1465  0.4774
  734MOL0     C 1161   6.197   3.765   6.911  0.4903 -0.0645  1.1944
  734MOL0     O 1162   6.145   3.729   7.029 -0.6217 -0.0435 -0.4111
  734MOL0     C 1163   6.014   3.772   7.047 -0.0019  0.3703 -0.4671
  734MOL0     C 1164   5.945   3.710   7.169 -0.1381 -0.4962 -0.2481
  734MOL0     C 1165   5.919   3.565   7.171 -1.0197 -0.1076 -0.2798
  734MOL0     C 1166   6.051   3.495   7.212 -0.3052  0.0471  0.5541
  734MOL0     C 1167   6.014   3.346   7.249  0.6117 -0.6157  0.3483
  734MOL0     C 1168   6.123   3.283   7.339  0.9808 -0.0071  0.7028
  734MOL0     C 1169   6.086   3.137   7.348  0.1064  0.3741  0.2748
  734MOL0     C 1170   6.195   3.049   7.405 -0.9095  0.1119 -0.3603
  734MOL0     N 1171   6.252   3.099   7.518 -0.1729  0.4085 -0.9791
  734MOL0     C 1172   6.175   3.119   7.630 -0.6777  0.4172 -0.3707
  734MOL0     C 1173   6.273   3.150   7.726 -0.0702 -0.5424  0.1536
  734MOL0     C 1174   6.233   3.165   7.870  0.5851 -0.0731  0.1107
  734MOL0     C 1175   6.314   3.276   7.950 -1.0477 -0.5238 -0.7370
  734MOL0     C 1176   6.305   3.430   7.900 -0.6006  0.4684 -0.2325
  734MOL0     C 1177   6.347   3.443   7.755  0.4260  0.1545  1.0250
  734MOL0     O 1178   6.370   3.585   7.727  0.1870 -0.0026  0.1227
  734MOL0     C 1179   6.462   3.623   7.620  0.7958 -0.4584 -1.5197
  734MOL0     C 1180   6.495   3.759   7.616 -0.8928 -0.7574 -0.4148
  734MOL0     C 1181   6.594   3.816   7.538  0.2361  0.0023  0.5596
  734MOL0     C 1182   6.616   3.962   7.538  0.2219 -0.1065  0.0330
  734MOL0     C 1183   6.668   3.723   7.452  0.2989 -0.3413  0.7419
  734MOL0     C 1184   6.788   3.773   7.370 -0.9771 -0.0504 -0.9590
  734MOL0     O 1185   6.841   3.893   7.387  0.3122  0.6156 -0.1658
  734MOL0     C 1186   6.965   3.921   7.338  0.9285 -0.4447 -0.4185
  734MOL0     C 1187   7.069   3.871   7.417 -0.0830 -0.5677  1.0117
  734MOL0     C 1188   7.203   3.879   7.379  0.0514 -0.1586  0.0653
  734MOL0     C 1189   7.236   3.952   7.258 -0.5198  1.3719 -0.1413
  734MOL0     O 1190   7.363   3.984   7.218 -0.6162  0.0138 -0.2538
  734MOL0     C 1191   7.448   4.043   7.322 -0.2171 -0.2531 -0.0318
  734MOL0     C 1192   7.571   3.956   7.355 -0.4311  0.8806  0.1450
  734MOL0     C 1193   7.653   3.926   7.224  0.0470  0.1599  0.5400
  734MOL0     C 1194   7.781   3.851   7.266  0.1344 -0.1618 -0.3232
  734MOL0     C 1195   7.893   3.830   7.158  0.0022 -0.0784  0.1578
  734MOL0     C 1196   7.961   3.963   7.115  0.6459 -0.9817  0.4225
  734MOL0     C 1197   8.115   3.944   7.077  1.1646 -0.4689  0.2573
  734MOL0     C 1198   8.167   4.068   7.003 -0.2416  0.8385  0.2703
  734MOL0    Cl 1199   8.211   4.208   7.115 -0.0501 -0.4444  0.2193
  734MOL0     C 1200   7.134   3.993   7.175 -0.3996 -0.4803 -0.4222
  734MOL0     C 1201   7.001   3.983   7.217  0.1365  0.6556  0.2020
  734MOL0     O 1202   6.831   3.687   7.286  0.3319 -0.8150 -0.8279
  734MOL0     C 1203   6.633   3.587   7.456  0.7636 -0.2728 -0.4705
  734MOL0     C 1204   6.529   3.539   7.539 -0.1342  0.5361  0.3671
  734MOL0     N 1205   6.398   3.157   7.662  0.6955 -1.0569 -0.5209
  734MOL0     N 1206   6.388   3.128   7.533  0.0344  0.9913 -0.7741
  734MOL0     C 1207   6.283   3.666   6.854  0.3797 -0.7628 -0.3132
  734MOL0     C 1208   6.341   3.680   6.728  1.0579  0.0322 -0.6819
  734MOL0     C 1209   6.548   3.888   6.384  0.6719  0.6389 -0.4859
  734MOL0     C 1210   6.441   3.902   6.285 -1.3860  0.3447  0.3162
  734MOL0     C 1211   6.470   3.905   6.152  0.5300  0.6301  0.2922
  734MOL0     C 1212   6.595   3.918   6.111 -0.1105 -0.1365 -0.1688
  734MOL0     O 1213   6.611   3.926   5.976  0.0588 -0.1150  0.4702
  734MOL0     C 1214   6.731   3.937   5.907 -0.1417 -0.0145 -0.2214
  734MOL0     C 1215   6.735   4.090   5.880  1.4610  0.5380  0.1548
  734MOL0     C 1216   6.870   4.135   5.822  0.1198 -0.1823  0.0494
  734MOL0     C 1217   6.888   4.285   5.815  0.4001  0.7947  0.8285
  734MOL0     C 1218   6.794   4.324   5.706 -0.3473  0.0747  0.5075
  734MOL0     C 1219   6.745   4.368   5.607  0.3625 -0.4617  1.2566
  734MOL0     C 1220   6.702   3.937   6.196  0.8288  0.7261 -0.2604
  734MOL0     C 1221   6.679   3.908   6.336 -0.4074  0.0495  1.2959
  734MOL0     C 1222   6.803   3.881   6.423  0.6362 -0.6181  0.1091
  734MOL0     H 1223   6.221   3.997   6.667 -3.7172  0.1739  1.4905
  734MOL0     H 1224   6.104   3.954   6.877 -2.1290 -0.5618 -1.4940
  734MOL0     H 1225   5.954   3.746   6.959  2.1241  0.1730 -1.9351
  734MOL0     H 1226   6.012   3.880   7.062 -0.9749  0.7120 -2.6728
  734MOL0     H 1227   6.020   3.726   7.248  0.0917 -3.8851  0.3551
  734MOL0     H 1228   5.848   3.756   7.190  0.3823  0.8109 -0.5632
  734MOL0     H 1229   5.833   3.541   7.235 -0.9300  2.5490  0.9645
  734MOL0     H 1230   5.897   3.524   7.072 -0.2908 -2.0090  0.2825
  734MOL0     H 1231   6.123   3.509   7.131 -3.1949  3.2335 -1.7381
  734MOL0     H 1232   6.095   3.535   7.304 -2.8940  1.7870  1.1722
  734MOL0     H 1233   6.003   3.299   7.151  1.1806  2.1551 -1.1200
  734MOL0     H 1234   5.918   3.338   7.302 -0.1673 -2.2813 -1.2172
  734MOL0     H 1235   6.218   3.309   7.291  1.7087  1.2400  2.6958
  734MOL0     H 1236   6.118   3.348   7.427 -0.7827  3.6208 -1.8290
  734MOL0     H 1237   6.072   3.087   7.251  1.2088 -2.5647  1.5071
  734MOL0     H 1238   5.992   3.128   7.404 -2.1130 -0.0674 -3.1703
  734MOL0     H 1239   6.144   2.952   7.409  1.0549 -0.9642  0.4949
  734MOL0     H 1240   6.278   3.041   7.334 -1.4784 -1.5848 -0.8981
  734MOL0     H 1241   6.068   3.112   7.646 -0.5505  1.7905  1.4795
  734MOL0     H 1242   6.260   3.076   7.927 -2.5602  0.0462  1.9655
  734MOL0     H 1243   6.130   3.202   7.872  1.4740  2.6413  0.0241
  734MOL0     H 1244   6.299   3.282   8.058  2.7661  4.0024 -0.1055
  734MOL0     H 1245   6.419   3.249   7.941 -0.6556 -0.2878  2.2876
  734MOL0     H 1246   6.204   3.471   7.904 -0.8638 -0.2659  0.8792
  734MOL0     H 1247   6.370   3.477   7.974  0.4873 -0.4467 -0.5715
  734MOL0     H 1248   6.445   3.397   7.743  0.4536  0.1302  1.3504
  734MOL0     H 1249   6.275   3.395   7.687  0.5939  0.1117  0.8762
  734MOL0     H 1250   6.425   3.828   7.662 -3.7524 -0.5751 -4.5633
  734MOL0     H 1251   6.721   3.969   7.567 -0.0044  3.8799  0.4588
  734MOL0     H 1252   6.549   4.019   7.604  1.8166  1.6274  0.2264
  734MOL0     H 1253   6.623   4.019   7.445  1.7933  0.0878  0.2505
  734MOL0     H 1254   7.038   3.817   7.506 -1.2712 -1.3209  0.1721
  734MOL0     H 1255   7.285   3.824   7.425 -1.3304  0.1207  3.1147
  734MOL0     H 1256   7.482   4.145   7.302  0.6384 -0.2695  1.2247
  734MOL0     H 1257   7.383   4.058   7.408 -0.8306  1.3080 -0.7282
  734MOL0     H 1258   7.638   4.010   7.422 -1.8799 -0.1016  2.5293
  734MOL0     H 1259   7.552   3.860   7.403  2.1876  1.1264  1.8204
  734MOL0     H 1260   7.665   4.021   7.170 -2.0128  0.1955  0.0444
  734MOL0     H 1261   7.594   3.862   7.157  0.5309  0.3620 -0.0842
  734MOL0     H 1262   7.759   3.749   7.300  0.3663 -0.3997 -0.8779
  734MOL0     H 1263   7.816   3.915   7.348 -0.2266  1.1456 -1.1551
  734MOL0     H 1264   7.963   3.761   7.205 -2.9654 -3.9389 -0.5328
  734MOL0     H 1265   7.850   3.783   7.069 -0.4379 -2.4773  1.5530
  734MOL0     H 1266   7.957   4.036   7.196  2.8551  0.3966 -0.5794
  734MOL0     H 1267   7.906   4.015   7.036  2.1910  0.0231 -0.0430
  734MOL0     H 1268   8.107   3.874   6.993 -2.6624  2.0119 -1.7464
  734MOL0     H 1269   8.174   3.903   7.159 -3.1956 -3.9622  2.0947
  734MOL0     H 1270   8.092   4.108   6.934 -1.3279  1.5165  1.7763
  734MOL0     H 1271   8.259   4.041   6.952 -0.2951  0.1630  0.5148
  734MOL0     H 1272   7.161   4.050   7.086  2.2585 -1.2869 -0.2156
  734MOL0     H 1273   6.907   4.004   7.167 -0.2666  0.8024  1.0063
  734MOL0     H 1274   6.680   3.506   7.402  0.0733  1.6933 -4.3131
  734MOL0     H 1275   6.496   3.435   7.535  1.7753 -0.0830 -2.9370
  734MOL0     H 1276   6.286   3.565   6.894 -2.8470 -0.3205  1.4373
  734MOL0     H 1277   6.405   3.607   6.681  2.2203  1.8989 -2.1734
  734MOL0     H 1278   6.340   3.891   6.322 -0.0218 -2.0577  3.8168
  734MOL0     H 1279   6.392   3.891   6.078  1.1338 -0.0435 -0.2306
  734MOL0     H 1280   6.819   3.897   5.957 -0.0626  0.9203  0.4062
  734MOL0     H 1281   6.731   3.876   5.815  1.6964  1.4008 -1.2123
  734MOL0     H 1282   6.721   4.147   5.972  2.2186  1.6903 -0.4058
  734MOL0     H 1283   6.654   4.115   5.810 -1.4159 -5.3569  0.7892
  734MOL0     H 1284   6.954   4.110   5.887  2.2400 -0.8564 -2.7498
  734MOL0     H 1285   6.877   4.091   5.722 -2.6945  1.1384 -0.8345
  734MOL0     H 1286   6.993   4.305   5.795  0.7417  0.2260  2.0066
  734MOL0     H 1287   6.849   4.334   5.905  2.1699  1.2567  1.3847
  734MOL0     H 1288   6.707   4.406   5.515  2.8102 -2.3922 -0.6904
  734MOL0     H 1289   6.793   3.983   6.158  1.7930 -2.2996 -1.9020
  734MOL0     H 1290   6.807   3.951   6.507  1.7861 -1.3100  0.6686
  734MOL0     H 1291   6.797   3.776   6.454  2.5050 -0.0204  2.9186
  734MOL0     H 1292   6.898   3.885   6.369  1.7703 -3.5454  1.6288
  735MOL0     O 1293   8.360   8.920   5.255 -0.4797  0.1624 -0.2950
  735MOL0     C 1294   8.400   8.823   5.184  1.2560  0.1901 -0.5578
  735MOL0     O 1295   8.438   8.701   5.232  0.4487  0.9511 -0.2248
  735MOL0     C 1296   8.400   8.681   5.367 -0.1068  0.1956 -0.6060
  735MOL0     C 1297   8.268   8.629   5.391 -0.0176  0.2058  0.4824
  735MOL0     C 1298   8.224   8.601   5.525  0.0348 -0.5681  0.7745
  735MOL0     C 1299   8.311   8.641   5.636  0.5649 -0.1295  0.3904
  735MOL0     O 1300   8.273   8.603   5.769 -0.2189  0.5432 -0.2326
  735MOL0     C 1301   8.151   8.527   5.789  0.2572  0.3010  0.7669
  735MOL0     C 1302   8.113   8.485   5.931  0.9090 -0.6568  0.2145
  735MOL0     C 1303   8.208   8.377   5.976 -0.3230 -0.0390  0.7790
  735MOL0     C 1304   8.160   8.315   6.106 -0.1218 -0.3431  0.7898
  735MOL0     C 1305   8.247   8.202   6.159 -1.0689 -0.0139 -0.5072
  735MOL0     C 1306   8.181   8.140   6.290  0.5490 -0.9346  0.1671
  735MOL0     C 1307   8.264   8.034   6.362  0.1934 -0.2594 -0.4972
  735MOL0     C 1308   8.219   8.021   6.505  0.9184  0.6253  0.3184
  735MOL0     N 1309   8.085   7.966   6.527  0.4940 -0.4476  1.0740
  735MOL0     C 1310   7.966   8.044   6.523 -0.7400  0.2442  0.4452
  735MOL0     C 1311   7.869   7.955   6.581 -0.1683 -1.0593 -0.1750
  735MOL0     C 1312   7.721   7.975   6.592 -0.3192 -0.4833 -0.9016
  735MOL0     C 1313   7.685   8.125   6.599 -1.2757  0.4868 -0.6901
  735MOL0     C 1314   7.534   8.149   6.606 -0.8981  0.5079 -0.9566
  735MOL0     C 1315   7.489   8.102   6.750 -0.7209 -0.0092 -0.4633
  735MOL0     O 1316   7.348   8.096   6.765 -0.0672  0.9150  0.6680
  735MOL0     C 1317   7.296   8.208   6.825 -0.0936  0.0350 -0.2972
  735MOL0     C 1318   7.236   8.304   6.748  0.5245  0.0151  0.1611
  735MOL0     C 1319   7.176   8.418   6.797 -0.4545  0.9213  0.2904
  735MOL0     C 1320   7.162   8.538   6.701  0.6357  1.5403  0.2069
  735MOL0     C 1321   7.167   8.425   6.942 -0.3328 -0.5542  1.1411
  735MOL0     C 1322   7.135   8.563   6.991  0.6732  0.2399  0.1479
  735MOL0     O 1323   7.233   8.648   7.025  0.2604  0.6048 -0.2083
  735MOL0     C 1324   7.221   8.758   7.101  0.4415  0.1348  0.3740
  735MOL0     C 1325   7.334   8.839   7.117 -0.5795 -0.1948  0.5556
  735MOL0     C 1326   7.345   8.946   7.209  0.5992 -0.0998 -0.7456
  735MOL0     C 1327   7.233   8.981   7.291 -0.4133 -0.0219  0.8051
  735MOL0     O 1328   7.212   9.080   7.379  0.0696 -0.4479 -0.5211
  735MOL0     C 1329   7.310   9.179   7.401  0.3919 -0.4017 -0.2372
  735MOL0     C 1330   7.374   9.169   7.540  0.6127  0.8145  0.1225
  735MOL0     C 1331   7.501   9.266   7.562 -0.4620 -0.2495  0.6417
  735MOL0     C 1332   7.635   9.228   7.486 -0.2762 -0.4071 -0.2154
  735MOL0     C 1333   7.688   9.090   7.514 -1.3623  0.3347 -0.5401
  735MOL0     C 1334   7.827   9.060   7.467 -0.2671  0.7178 -0.3164
  735MOL0     C 1335   7.854   8.909   7.441  0.1149  0.7906  0.5554
  735MOL0     C 1336   7.816   8.872   7.299 -0.2525 -0.2313 -0.7714
  735MOL0    Cl 1337   7.650   8.813   7.296  0.5352 -0.2204  0.1923
  735MOL0     C 1338   7.122   8.897   7.277  0.2470 -0.3683  0.1147
  735MOL0     C 1339   7.116   8.791   7.188  0.0434  0.1349  0.0857
  735MOL0     O 1340   7.016   8.602   6.972 -0.1067  0.2870  0.1266
  735MOL0     C 1341   7.220   8.332   7.018 -0.5598  1.0409  0.0937
  735MOL0     C 1342   7.286   8.223   6.963 -0.2507  0.2300 -1.0834
  735MOL0     N 1343   7.928   7.839   6.599 -1.4755  0.6848 -0.3638
  735MOL0     N 1344   8.052   7.844   6.570 -0.4226 -0.0534  0.6482
  735MOL0     C 1345   8.435   8.700   5.610 -0.5046  0.4193 -0.5432
  735MOL0     C 1346   8.481   8.722   5.481  0.1847 -0.6617 -0.2767
  735MOL0     C 1347   8.392   8.844   5.032  0.0968 -0.1764  0.3805
  735MOL0     C 1348   8.361   8.724   4.958 -0.7011  0.8434 -0.1454
  735MOL0     C 1349   8.349   8.728   4.815  0.1099 -0.0236 -0.2077
  735MOL0     C 1350   8.354   8.856   4.758 -0.2186  0.9198 -0.2466
  735MOL0     O 1351   8.346   8.853   4.621 -0.5435 -0.0835 -0.6015
  735MOL0     C 1352   8.217   8.899   4.576 -0.8846 -0.2408  0.9926
  735MOL0     C 1353   8.201   8.855   4.429  0.2322  0.8222 -0.3016
  735MOL0     C 1354   8.059   8.864   4.367 -0.3881  0.3873 -0.2487
  735MOL0     C 1355   8.023   8.766   4.249  1.1124 -0.2692 -0.1671
  735MOL0     C 1356   7.926   8.823   4.155 -0.1755 -0.2864 -0.1557
  735MOL0     C 1357   7.841   8.886   4.096  0.3485 -0.2623 -0.1959
  735MOL0     C 1358   8.374   8.977   4.840 -0.1510 -0.4902 -0.1566
  735MOL0     C 1359   8.399   8.969   4.971  0.1751 -0.8234 -0.4660
  735MOL0     C 1360   8.431   9.102   5.039 -0.5193  0.3895  0.5931
  735MOL0     H 1361   8.216   8.596   5.302  0.8320 -0.4565  0.2097
  735MOL0     H 1362   8.127   8.552   5.529  0.2212 -1.1460 -0.9443
  735MOL0     H 1363   8.161   8.436   5.728  2.5502 -0.1526  1.7059
  735MOL0     H 1364   8.076   8.594   5.748  1.5422  0.9279 -0.6431
  735MOL0     H 1365   8.127   8.573   5.994  1.2264 -1.0395  0.6926
  735MOL0     H 1366   8.010   8.450   5.929  0.4235  0.7566 -1.1146
  735MOL0     H 1367   8.198   8.298   5.901 -1.5746 -0.5329  1.4286
  735MOL0     H 1368   8.310   8.415   5.989 -1.2456  2.1182  2.3558
  735MOL0     H 1369   8.156   8.394   6.182 -2.9052 -0.1197  0.5246
  735MOL0     H 1370   8.059   8.273   6.094 -0.4725  0.9065 -0.9201
  735MOL0     H 1371   8.349   8.239   6.168 -1.4059  1.5375 -2.3334
  735MOL0     H 1372   8.243   8.124   6.082 -1.0232 -0.0686 -0.4536
  735MOL0     H 1373   8.156   8.227   6.352  1.0137 -0.9975  0.4463
  735MOL0     H 1374   8.085   8.094   6.266 -0.0279 -0.8424  2.1138
  735MOL0     H 1375   8.364   8.075   6.383  0.3440 -0.7461 -0.2358
  735MOL0     H 1376   8.272   7.939   6.308  3.2407 -0.6311  0.3746
  735MOL0     H 1377   8.284   7.955   6.562  0.7463  0.3639  0.2112
  735MOL0     H 1378   8.216   8.119   6.554 -1.5774  0.5290  0.4918
  735MOL0     H 1379   7.952   8.146   6.488 -0.6607  0.9152  2.2431
  735MOL0     H 1380   7.686   7.918   6.678  1.0890  2.3093  1.6966
  735MOL0     H 1381   7.667   7.926   6.510  0.6379 -0.5455 -1.5159
  735MOL0     H 1382   7.730   8.170   6.688 -2.8689  0.5954  0.0883
  735MOL0     H 1383   7.721   8.165   6.504 -0.9545 -3.7737 -2.5987
  735MOL0     H 1384   7.516   8.256   6.593  2.4946  1.6382  1.9763
  735MOL0     H 1385   7.488   8.092   6.525  1.2568  0.8767 -2.5254
  735MOL0     H 1386   7.519   8.002   6.782 -0.2857  0.4132  0.4750
  735MOL0     H 1387   7.531   8.179   6.815 -1.6794 -0.6693  0.9766
  735MOL0     H 1388   7.251   8.290   6.641 -2.1182 -1.0492 -0.1455
  735MOL0     H 1389   7.224   8.510   6.615  0.3542 -1.1072  0.7904
  735MOL0     H 1390   7.205   8.629   6.744  1.9614  0.4685  1.2205
  735MOL0     H 1391   7.058   8.533   6.667  0.6028 -0.7142  0.4557
  735MOL0     H 1392   7.422   8.835   7.054  1.4870  0.5805  3.2007
  735MOL0     H 1393   7.437   9.002   7.218 -0.1153  0.9145  0.6298
  735MOL0     H 1394   7.385   9.190   7.323 -0.4740  3.4082 -0.7470
  735MOL0     H 1395   7.259   9.274   7.382  0.7932 -0.3223 -0.9334
  735MOL0     H 1396   7.303   9.185   7.622  1.9885 -0.5296  1.6407
  735MOL0     H 1397   7.417   9.070   7.559  3.4196  1.7994 -0.5759
  735MOL0     H 1398   7.524   9.254   7.668  0.8492 -2.6682  0.1486
  735MOL0     H 1399   7.471   9.369   7.540 -1.0782 -0.2776  1.3237
  735MOL0     H 1400   7.717   9.287   7.526 -0.0777 -1.4671  0.9976
  735MOL0     H 1401   7.615   9.232   7.378 -2.1521 -3.3738 -0.0941
  735MOL0     H 1402   7.692   9.069   7.621  0.3292 -1.7474 -0.9502
  735MOL0     H 1403   7.617   9.017   7.476 -3.2436  0.8731  1.7316
  735MOL0     H 1404   7.896   9.093   7.545 -3.7423  0.5630  3.1825
  735MOL0     H 1405   7.856   9.124   7.383 -0.4381  0.7336 -0.3641
  735MOL0     H 1406   7.816   8.844   7.521  0.7954 -0.0426  0.2112
  735MOL0     H 1407   7.963   8.906   7.450  0.1271  1.5608  0.7417
  735MOL0     H 1408   7.877   8.792   7.255  0.6178  1.4462 -2.8145
  735MOL0     H 1409   7.820   8.956   7.229  1.1987 -1.2535 -1.9992
  735MOL0     H 1410   7.027   8.924   7.321 -0.4590 -2.4080 -0.0583
  735MOL0     H 1411   7.026   8.731   7.194 -0.4876  1.0471  1.9248
  735MOL0     H 1412   7.215   8.338   7.126  1.0958  1.4919  0.1737
  735MOL0     H 1413   7.331   8.147   7.026  0.6791 -1.1450 -3.2733
  735MOL0     H 1414   8.493   8.729   5.697  0.3916  0.9171 -1.2884
  735MOL0     H 1415   8.578   8.764   5.456  0.0460 -0.8766 -1.2182
  735MOL0     H 1416   8.355   8.630   5.011  0.2562 -1.7319 -4.1704
  735MOL0     H 1417   8.329   8.650   4.742  1.4694  1.0532 -1.8278
  735MOL0     H 1418   8.135   8.865   4.640  0.1714 -2.2203  1.3640
  735MOL0     H 1419   8.218   9.008   4.568  0.3151 -0.3917 -2.5614
  735MOL0     H 1420   8.218   8.747   4.429 -2.1476  0.3803 -1.6278
  735MOL0     H 1421   8.285   8.894   4.371  1.1415 -0.2741  0.2329
  735MOL0     H 1422   7.998   8.840   4.455  0.1698  0.6291  0.2099
  735MOL0     H 1423   8.050   8.972   4.348  1.0962  0.3871 -1.1291
  735MOL0     H 1424   7.987   8.672   4.290  1.1151 -0.3658 -0.3885
  735MOL0     H 1425   8.114   8.759   4.189  1.7864  2.3062  0.4312
  735MOL0     H 1426   7.764   8.923   4.030  0.2581 -0.6015 -0.2846
  735MOL0     H 1427   8.362   9.068   4.782  0.2938 -0.5344 -0.3276
  735MOL0     H 1428   8.535   9.099   5.072 -0.3293  2.4321  0.2998
  735MOL0     H 1429   8.411   9.185   4.970  1.9661  0.3452 -0.2536
  735MOL0     H 1430   8.379   9.128   5.132  0.5518 -1.5492  1.7977
  736MOL0     O 1431  10.233   6.082   8.152  0.2627  0.7233  0.4164
  736MOL0     C 1432  10.205   6.146   8.245 -0.4444 -0.8776 -0.3515
  736MOL0     O 1433  10.278   6.166   8.346  0.3998  0.0884 -0.1633
  736MOL0     C 1434  10.405   6.120   8.353 -0.2122 -0.8703 -0.2264
  736MOL0     C 1435  10.452   6.105   8.488  0.5859 -0.2582  0.3906
  736MOL0     C 1436  10.588   6.067   8.512 -0.7259 -0.6536  0.8895
  736MOL0     C 1437  10.681   6.041   8.406  0.0851 -0.7422 -0.2695
  736MOL0     O 1438  10.812   6.000   8.419 -0.6043 -0.4496 -0.6079
  736MOL0     C 1439  10.855   5.889   8.343  0.6039  0.2983  0.6745
  736MOL0     C 1440  10.771   5.764   8.394 -0.1474 -0.2389  0.4633
  736MOL0     C 1441  10.820   5.725   8.531 -0.1988  0.7618  0.0949
  736MOL0     C 1442  10.739   5.601   8.567 -0.9111  0.3990 -0.9348
  736MOL0     C 1443  10.725   5.577   8.721  0.6587 -0.0163 -0.9226
  736MOL0     C 1444  10.676   5.685   8.818  0.2406  0.1621  0.1582
  736MOL0     C 1445  10.537   5.748   8.785 -0.5492  0.5768  0.8879
  736MOL0     C 1446  10.484   5.824   8.916 -0.0859  0.0501 -0.5354
  736MOL0     N 1447  10.357   5.899   8.889 -0.0579  1.0389 -1.1525
  736MOL0     C 1448  10.257   5.935   8.986  0.1104 -0.7994 -0.1427
  736MOL0     C 1449  10.174   6.020   8.919  0.0212  0.7697 -0.4377
  736MOL0     C 1450  10.057   6.095   8.972  0.3264 -0.2926 -0.2975
  736MOL0     C 1451  10.097   6.179   9.087 -1.5354  0.3642  0.7560
  736MOL0     C 1452   9.979   6.286   9.124 -0.5469  0.2923  0.4354
  736MOL0     C 1453   9.863   6.206   9.203  0.4927 -0.5153  1.2447
  736MOL0     O 1454   9.822   6.298   9.303 -0.5881 -0.3653 -0.1499
  736MOL0     C 1455   9.839   6.262   9.437 -0.2304 -0.1922 -0.1126
  736MOL0     C 1456   9.739   6.271   9.525  0.1013  0.1098  0.2459
  736MOL0     C 1457   9.759   6.242   9.664  0.5523  1.3086 -0.0762
  736MOL0     C 1458   9.637   6.241   9.755  0.3623  0.4177 -0.5396
  736MOL0     C 1459   9.886   6.197   9.704  0.3552  0.1916 -0.6117
  736MOL0     C 1460   9.906   6.162   9.839 -0.8153  0.2803 -0.6471
  736MOL0     O 1461  10.014   6.215   9.903  0.9885 -0.6427 -0.1399
  736MOL0     C 1462  10.036   6.189  10.032  0.0909 -0.4964  0.0102
  736MOL0     C 1463  10.161   6.224  10.077 -0.3883  0.6238  0.2932
  736MOL0     C 1464  10.203   6.220  10.210  0.4433 -0.5632 -0.5439
  736MOL0     C 1465  10.122   6.166  10.304  0.0760  0.4055  0.0278
  736MOL0     O 1466  10.176   6.159  10.435  0.2514  0.3165  0.7604
  736MOL0     C 1467  10.091   6.139  10.550  0.0187 -0.2935  0.0310
  736MOL0     C 1468  10.096   5.991  10.586  0.3395 -0.0736  0.9576
  736MOL0     C 1469  10.018   5.947  10.711 -0.3556  0.6146 -0.4589
  736MOL0     C 1470   9.981   5.790  10.707  0.0258 -0.6769 -0.2756
  736MOL0     C 1471   9.889   5.750  10.830 -0.5945 -0.0468  0.2630
  736MOL0     C 1472   9.817   5.623  10.800 -0.3974 -0.1298 -0.1250
  736MOL0     C 1473   9.737   5.583  10.931 -0.5013  0.0165 -0.6299
  736MOL0     C 1474   9.613   5.507  10.906 -0.0552  0.5935  0.1202
  736MOL0    Cl 1475   9.570   5.421  11.065  0.1423 -0.7544 -0.5278
  736MOL0     C 1476  10.002   6.120  10.268  1.3492 -0.1959  0.1519
  736MOL0     C 1477   9.955   6.141  10.137  0.6419 -0.0046 -0.7248
  736MOL0     O 1478   9.829   6.074   9.882  0.3475 -0.2939 -0.4769
  736MOL0     C 1479   9.994   6.201   9.616 -0.5353 -0.9708 -0.7264
  736MOL0     C 1480   9.977   6.239   9.483  0.1716  0.0131  0.6095
  736MOL0     N 1481  10.207   6.023   8.789  0.0526  0.1063 -0.2946
  736MOL0     N 1482  10.321   5.964   8.774  1.1844  0.7526 -0.2494
  736MOL0     C 1483  10.624   6.045   8.275 -0.1003  1.0747 -0.5456
  736MOL0     C 1484  10.496   6.088   8.252  0.5335  0.2132 -0.3689
  736MOL0     C 1485  10.070   6.208   8.246 -0.3543 -0.1806 -0.3205
  736MOL0     C 1486  10.012   6.288   8.138 -0.9352 -0.4156  0.2488
  736MOL0     C 1487   9.878   6.332   8.146 -0.7852  0.2669 -0.4844
  736MOL0     C 1488   9.805   6.331   8.261  0.1156 -0.0244  0.2440
  736MOL0     O 1489   9.686   6.394   8.251 -0.1103  0.1912 -0.2996
  736MOL0     C 1490   9.694   6.532   8.308 -0.5405 -0.2751 -0.5649
  736MOL0     C 1491   9.580   6.540   8.414 -0.5674  0.2199  1.0311
  736MOL0     C 1492   9.627   6.473   8.538  0.2731 -0.0877  0.9650
  736MOL0     C 1493   9.538   6.501   8.665 -0.3102 -0.7157  0.5965
  736MOL0     C 1494   9.600   6.416   8.769  1.2184  0.0446  0.3418
  736MOL0     C 1495   9.658   6.362   8.857 -1.2783 -0.1734 -0.0584
  736MOL0     C 1496   9.863   6.261   8.364 -0.0538 -1.3245  0.2226
  736MOL0     C 1497   9.980   6.198   8.357 -0.3737  0.4392  0.0335
  736MOL0     C 1498   9.999   6.123   8.485  0.1027 -0.0847  0.2264
  736MOL0     H 1499  10.385   6.126   8.571 -0.1170 -1.2927  0.1047
  736MOL0     H 1500  10.624   6.057   8.614  0.1484 -0.4318  0.6072
  736MOL0     H 1501  10.951   5.840   8.362 -1.5510 -6.9962 -3.2345
  736MOL0     H 1502  10.855   5.901   8.235  2.0613 -1.5642  0.4242
  736MOL0     H 1503  10.664   5.784   8.381  0.0778  1.1261  0.5159
  736MOL0     H 1504  10.808   5.684   8.330  0.2966 -0.0406  0.4690
  736MOL0     H 1505  10.922   5.687   8.526 -0.9544 -1.4485  0.0358
  736MOL0     H 1506  10.819   5.816   8.592 -1.7002 -1.3256  3.5251
  736MOL0     H 1507  10.641   5.619   8.521 -0.1826  3.1034 -1.5846
  736MOL0     H 1508  10.783   5.509   8.526 -0.0417  0.7661 -0.8433
  736MOL0     H 1509  10.815   5.529   8.761 -2.3101 -3.6766  2.2239
  736MOL0     H 1510  10.662   5.489   8.739  0.5914  0.1521 -0.3250
  736MOL0     H 1511  10.675   5.646   8.920  3.0772 -1.0465 -0.1564
  736MOL0     H 1512  10.749   5.767   8.824 -3.1690  3.3444  1.5831
  736MOL0     H 1513  10.459   5.678   8.754 -1.9059  1.6427  1.7972
  736MOL0     H 1514  10.538   5.823   8.705 -1.6641 -1.4538 -1.1529
  736MOL0     H 1515  10.472   5.754   9.000 -0.8217  2.6368  1.6462
  736MOL0     H 1516  10.560   5.893   8.952 -3.2903  2.5246  2.2538
  736MOL0     H 1517  10.253   5.895   9.087  0.1862 -0.8807 -0.1725
  736MOL0     H 1518   9.986   6.019   9.006 -0.1381 -1.0392 -2.7051
  736MOL0     H 1519  10.019   6.159   8.891 -0.2093  1.3168  1.1729
  736MOL0     H 1520  10.121   6.116   9.173  0.1784  0.6236  0.4898
  736MOL0     H 1521  10.185   6.232   9.050 -0.0371 -2.4509  0.0507
  736MOL0     H 1522  10.018   6.365   9.188  0.3477 -0.3776  0.7429
  736MOL0     H 1523   9.931   6.331   9.036 -0.9947 -1.3109 -0.1881
  736MOL0     H 1524   9.785   6.172   9.133  0.5936  1.1256  0.2741
  736MOL0     H 1525   9.912   6.123   9.256  3.6216  1.1014  1.1146
  736MOL0     H 1526   9.639   6.299   9.494  0.2501  1.4002  0.8362
  736MOL0     H 1527   9.608   6.140   9.784 -1.5526  1.8045  3.0833
  736MOL0     H 1528   9.553   6.285   9.699  0.9460 -0.7184 -2.3934
  736MOL0     H 1529   9.648   6.308   9.841 -1.1627 -0.9181  0.7510
  736MOL0     H 1530  10.233   6.257  10.003 -2.3728 -1.0765 -2.5934
  736MOL0     H 1531  10.303   6.256  10.230  0.5041  0.5721 -2.5543
  736MOL0     H 1532  10.128   6.205  10.628  0.7728  2.4356 -2.4463
  736MOL0     H 1533   9.985   6.155  10.532 -0.4950 -1.0930  2.1043
  736MOL0     H 1534  10.058   5.926  10.506  1.2205 -2.4553  2.3778
  736MOL0     H 1535  10.195   5.949  10.606  0.6532 -1.0110 -2.0995
  736MOL0     H 1536   9.927   6.006  10.718 -0.0770  0.9687  0.1955
  736MOL0     H 1537  10.071   5.955  10.807 -4.6791 -1.0607  2.3613
  736MOL0     H 1538  10.071   5.729  10.701  1.0838  0.8455 -0.2981
  736MOL0     H 1539   9.921   5.778  10.616  1.1891 -1.8789 -0.9218
  736MOL0     H 1540   9.939   5.751  10.928  0.5104  2.1054 -0.2384
  736MOL0     H 1541   9.815   5.830  10.834  0.9742  1.4612  0.5724
  736MOL0     H 1542   9.890   5.545  10.782 -1.0954 -1.8492  3.5376
  736MOL0     H 1543   9.752   5.630  10.712 -0.7706  0.9801  0.2244
  736MOL0     H 1544   9.709   5.672  10.987 -1.7340 -1.0707  0.5378
  736MOL0     H 1545   9.810   5.518  10.982 -1.0427  0.7904  1.2016
  736MOL0     H 1546   9.629   5.432  10.828  0.1214  1.5930 -0.8229
  736MOL0     H 1547   9.526   5.564  10.874 -0.7035 -0.2082  0.3939
  736MOL0     H 1548   9.948   6.070  10.348  2.0998  1.6860  1.9093
  736MOL0     H 1549   9.848   6.124  10.141  0.5865  0.5489  2.2237
  736MOL0     H 1550  10.096   6.184   9.649 -1.0691  2.1274  3.2013
  736MOL0     H 1551  10.059   6.243   9.412  0.7951  0.3776  1.3312
  736MOL0     H 1552  10.683   6.004   8.194 -0.0226 -0.2721  0.1632
  736MOL0     H 1553  10.460   6.107   8.151 -3.3426 -2.2296  0.3375
  736MOL0     H 1554  10.057   6.314   8.043  0.8882  2.2756  1.7065
  736MOL0     H 1555   9.829   6.380   8.062 -0.1425 -1.1375 -1.7119
  736MOL0     H 1556   9.790   6.547   8.358 -0.8649 -1.4370  0.4510
  736MOL0     H 1557   9.701   6.606   8.228  1.1989  0.1485 -0.0580
  736MOL0     H 1558   9.494   6.489   8.371  0.1821  0.0321 -0.2796
  736MOL0     H 1559   9.553   6.641   8.448 -0.2433  0.4602  0.5911
  736MOL0     H 1560   9.622   6.367   8.510  2.5924  0.2025 -0.8922
  736MOL0     H 1561   9.730   6.496   8.564  0.5461 -0.1636 -0.0131
  736MOL0     H 1562   9.432   6.478   8.648  0.2553 -3.1649 -0.1049
  736MOL0     H 1563   9.546   6.603   8.704  1.5230 -0.6566  0.1349
  736MOL0     H 1564   9.710   6.291   8.918  2.4123  0.3652 -2.2367
  736MOL0     H 1565   9.798   6.240   8.448 -0.8342 -2.2579 -0.5779
  736MOL0     H 1566  10.096   6.072   8.479 -0.8048 -1.7818 -3.9684
  736MOL0     H 1567  10.016   6.201   8.560  0.9167 -0.1436  0.1180
  736MOL0     H 1568   9.921   6.051   8.511  0.5445 -0.2305  1.1964
  737MOL0     O 1569   5.723   5.878   1.220  0.3853 -0.0258 -0.2937
  737MOL0     C 1570   5.817   5.801   1.230 -1.3153  0.7323 -0.1639
  737MOL0     O 1571   5.946   5.827   1.192  0.0203 -0.4100 -0.0455
  737MOL0     C 1572   5.949   5.919   1.090 -0.2164 -0.4048  0.8073
  737MOL0     C 1573   5.914   5.892   0.958 -0.6984 -0.3569 -0.2864
  737MOL0     C 1574   5.942   5.996   0.868 -0.4145 -0.8540  0.1404
  737MOL0     C 1575   5.968   6.129   0.909 -1.0133 -0.4308  0.0760
  737MOL0     O 1576   5.966   6.230   0.811  0.6665 -0.1546  0.1681
  737MOL0     C 1577   5.931   6.361   0.855  0.0162  0.2379 -1.0015
  737MOL0     C 1578   5.961   6.458   0.741  0.8949  0.7376 -0.1498
  737MOL0     C 1579   5.878   6.579   0.772  0.9957  0.2583 -0.2878
  737MOL0     C 1580   5.867   6.675   0.652  0.0775 -0.3884  0.0759
  737MOL0     C 1581   5.963   6.792   0.667 -1.0621  0.8905  0.4543
  737MOL0     C 1582   6.113   6.757   0.658  0.6015  1.5747  0.2723
  737MOL0     C 1583   6.212   6.874   0.615 -0.0033  0.3283  0.0126
  737MOL0     C 1584   6.226   6.878   0.465 -0.0701  0.1597  0.0623
  737MOL0     N 1585   6.350   6.958   0.423 -0.0098 -0.6089 -0.3570
  737MOL0     C 1586   6.479   6.957   0.468  0.3214  0.1936 -0.2016
  737MOL0     C 1587   6.558   6.994   0.361  0.0784 -0.1658  0.1494
  737MOL0     C 1588   6.704   7.029   0.370 -0.5505  0.7472  0.2837
  737MOL0     C 1589   6.762   7.035   0.223 -0.8545  0.2742  0.2823
  737MOL0     C 1590   6.907   7.074   0.229  0.7247  0.6552  0.1512
  737MOL0     C 1591   6.941   7.175   0.112  0.1319 -0.9875  0.0469
  737MOL0     O 1592   6.931   7.308   0.169 -0.3154 -0.1564 -0.0585
  737MOL0     C 1593   6.958   7.403   0.074 -0.8151  0.3474 -1.0640
  737MOL0     C 1594   6.955   7.531   0.132 -0.4926 -0.4416  0.3185
  737MOL0     C 1595   6.986   7.644   0.056 -0.8816  0.0426 -0.7698
  737MOL0     C 1596   7.000   7.768   0.147 -0.3824  0.2066  0.0556
  737MOL0     C 1597   7.020   7.641  -0.084  0.0445  0.5411  0.2834
  737MOL0     C 1598   7.056   7.763  -0.155  0.5920  0.0410  0.4019
  737MOL0     O 1599   7.083   7.737  -0.295  0.1249 -0.3061 -0.9824
  737MOL0     C 1600   7.140   7.841  -0.366 -0.0049  0.1634  0.6666
  737MOL0     C 1601   7.067   7.926  -0.448  1.1114  0.4362 -0.3667
  737MOL0     C 1602   7.131   8.028  -0.521 -0.6485 -0.2694 -0.2871
  737MOL0     C 1603   7.264   8.051  -0.501 -0.0317 -0.4440  0.4891
  737MOL0     O 1604   7.317   8.156  -0.564 -0.9465 -0.1633 -0.1394
  737MOL0     C 1605   7.443   8.208  -0.507 -0.6740  0.5827  0.2745
  737MOL0     C 1606   7.483   8.332  -0.586 -0.3410 -0.6838  0.4775
  737MOL0     C 1607   7.628   8.383  -0.559 -0.1385 -0.1490  0.2174
  737MOL0     C 1608   7.663   8.503  -0.646  0.2093 -0.0329 -0.5475
  737MOL0     C 1609   7.753   8.608  -0.592  0.3327 -0.2242  0.8700
  737MOL0     C 1610   7.759   8.726  -0.689 -0.1804  0.2436  0.2771
  737MOL0     C 1611   7.854   8.832  -0.645 -0.9792  0.0913 -0.5106
  737MOL0     C 1612   7.913   8.912  -0.753  0.6145 -0.3092  0.3140
  737MOL0    Cl 1613   7.767   9.014  -0.799 -0.4481 -0.4210 -0.1156
  737MOL0     C 1614   7.346   7.957  -0.435 -0.0726  0.9454 -0.1103
  737MOL0     C 1615   7.277   7.857  -0.367  0.0386 -0.3473  0.3897
  737MOL0     O 1616   7.079   7.869  -0.102  0.3697  0.0088 -0.8920
  737MOL0     C 1617   7.018   7.514  -0.135 -0.7314 -0.3880  1.0501
  737MOL0     C 1618   6.993   7.400  -0.060 -0.0915  0.2092  0.8828
  737MOL0     N 1619   6.470   7.014   0.251  0.1018  0.2744  0.4074
  737MOL0     N 1620   6.352   7.004   0.306 -0.4585 -0.0177  0.0133
  737MOL0     C 1621   5.996   6.154   1.043  0.0072 -0.1361  0.3612
  737MOL0     C 1622   6.001   6.046   1.129  0.4038 -0.1172  0.0415
  737MOL0     C 1623   5.790   5.661   1.274  0.6684  0.5856 -0.8772
  737MOL0     C 1624   5.894   5.565   1.274 -0.0401 -0.4570  0.0634
  737MOL0     C 1625   5.877   5.439   1.318  0.6557  0.2785 -0.1143
  737MOL0     C 1626   5.757   5.386   1.356 -0.3130  0.4577  0.1573
  737MOL0     O 1627   5.737   5.261   1.409  0.6530 -0.6272  0.1582
  737MOL0     C 1628   5.842   5.196   1.487 -0.4663  1.3847  0.2612
  737MOL0     C 1629   5.777   5.066   1.558  0.4487 -0.7697  0.2051
  737MOL0     C 1630   5.870   5.006   1.660  0.2189  0.1880 -0.0124
  737MOL0     C 1631   5.778   4.969   1.776  0.2512  0.4713  0.4484
  737MOL0     C 1632   5.847   4.871   1.856 -0.4648  0.1060 -0.5743
  737MOL0     C 1633   5.924   4.832   1.935  0.1648  0.5533 -0.4767
  737MOL0     C 1634   5.644   5.477   1.367  0.1639 -1.3617  0.1135
  737MOL0     C 1635   5.663   5.617   1.335  0.7750  0.1309  0.4495
  737MOL0     C 1636   5.550   5.709   1.372 -0.1418 -0.1914  0.3117
  737MOL0     H 1637   5.860   5.802   0.929 -3.0362  1.0037 -0.4162
  737MOL0     H 1638   5.940   5.981   0.761  1.2822 -1.2917  0.1339
  737MOL0     H 1639   5.989   6.391   0.943  0.0018  0.5444 -1.0949
  737MOL0     H 1640   5.829   6.366   0.897  1.2172  2.4060  2.0497
  737MOL0     H 1641   6.068   6.481   0.736  0.7995  0.9498 -1.3364
  737MOL0     H 1642   5.915   6.408   0.655  0.2057 -1.4929  1.4185
  737MOL0     H 1643   5.779   6.552   0.811  1.9135 -2.1187  0.5604
  737MOL0     H 1644   5.921   6.626   0.861 -0.4270  2.7469 -0.8153
  737MOL0     H 1645   5.890   6.621   0.560  3.1009 -0.7660  0.9182
  737MOL0     H 1646   5.768   6.721   0.649  1.0544  1.9252  0.6158
  737MOL0     H 1647   5.954   6.827   0.770 -0.2314 -2.6117  1.8484
  737MOL0     H 1648   5.942   6.877   0.601  4.1345 -0.0564 -3.0248
  737MOL0     H 1649   6.152   6.692   0.737  2.8587 -0.1894 -2.1243
  737MOL0     H 1650   6.117   6.682   0.578 -0.6896  0.0957  1.4985
  737MOL0     H 1651   6.311   6.864   0.660  0.2671  5.0932  0.9218
  737MOL0     H 1652   6.182   6.972   0.652  1.6505 -0.1720  3.0457
  737MOL0     H 1653   6.230   6.789   0.402 -2.2381  2.1799 -3.2936
  737MOL0     H 1654   6.136   6.920   0.418 -0.2154  1.1388  1.1773
  737MOL0     H 1655   6.513   6.928   0.567  1.0809 -4.0467 -1.4618
  737MOL0     H 1656   6.755   6.949   0.423  0.9236 -0.3135 -2.5389
  737MOL0     H 1657   6.717   7.125   0.422  0.3490  0.5953  0.3607
  737MOL0     H 1658   6.739   6.945   0.164 -1.5523  1.4920 -1.3724
  737MOL0     H 1659   6.712   7.118   0.173  1.0160 -0.4271 -3.0574
  737MOL0     H 1660   6.943   7.112   0.325  3.3579 -3.3845  0.9906
  737MOL0     H 1661   6.970   6.987   0.207  0.0997  0.2636 -0.1195
  737MOL0     H 1662   7.041   7.145   0.081  0.8437 -0.7647  1.9905
  737MOL0     H 1663   6.877   7.155   0.026 -1.1840 -0.0325  0.7660
  737MOL0     H 1664   6.953   7.534   0.240  2.9811  0.6765  0.4789
  737MOL0     H 1665   6.975   7.867   0.108  1.6953  0.7047 -0.1581
  737MOL0     H 1666   7.100   7.765   0.191  0.2881  0.4342 -1.3956
  737MOL0     H 1667   6.936   7.746   0.232 -1.4478  1.8494 -0.2778
  737MOL0     H 1668   6.959   7.926  -0.460  1.0734 -0.2486 -0.0815
  737MOL0     H 1669   7.081   8.086  -0.598 -1.4079 -1.0659 -0.4056
  737MOL0     H 1670   7.433   8.221  -0.399 -0.9694 -1.2727  0.5101
  737MOL0     H 1671   7.519   8.134  -0.536 -1.7868 -0.5679  0.2001
  737MOL0     H 1672   7.455   8.305  -0.689  2.2192  0.2716 -0.5489
  737MOL0     H 1673   7.412   8.408  -0.553  0.2636 -0.7296  1.9368
  737MOL0     H 1674   7.700   8.303  -0.579 -0.8920 -1.5947  2.8877
  737MOL0     H 1675   7.626   8.408  -0.453  1.2042  0.3306  0.1477
  737MOL0     H 1676   7.576   8.548  -0.694  0.0994  0.5490  0.1845
  737MOL0     H 1677   7.707   8.458  -0.736 -0.6244 -2.8285  0.3246
  737MOL0     H 1678   7.699   8.646  -0.504 -0.1361 -2.1655  1.4525
  737MOL0     H 1679   7.855   8.577  -0.571  0.1184  0.6605  3.7482
  737MOL0     H 1680   7.662   8.771  -0.711  0.3721  1.5869  0.4522
  737MOL0     H 1681   7.789   8.680  -0.783 -1.1576  0.0087  0.0662
  737MOL0     H 1682   7.940   8.791  -0.592  0.0056  0.7184 -1.5762
  737MOL0     H 1683   7.800   8.908  -0.587  0.0777 -0.1694  0.8794
  737MOL0     H 1684   7.962   8.863  -0.838  0.6717 -2.0365  1.3101
  737MOL0     H 1685   7.990   8.974  -0.707  0.2917  1.8658 -1.8633
  737MOL0     H 1686   7.454   7.950  -0.443 -0.2121 -1.5120 -0.7114
  737MOL0     H 1687   7.328   7.788  -0.302  0.4648  0.0763  0.5094
  737MOL0     H 1688   7.061   7.503  -0.235 -0.3597  1.6797  0.9470
  737MOL0     H 1689   6.991   7.311  -0.121  1.4016  1.7824 -1.6592
  737MOL0     H 1690   6.041   6.250   1.069 -0.4447 -0.6060  3.1697
  737MOL0     H 1691   6.048   6.056   1.227 -1.0383  0.0142  0.7463
  737MOL0     H 1692   5.990   5.601   1.238 -0.6131  0.8169 -0.2220
  737MOL0     H 1693   5.967   5.380   1.314 -1.5645 -3.4165 -4.4731
  737MOL0     H 1694   5.916   5.151   1.420 -0.4109 -1.0027  1.8104
  737MOL0     H 1695   5.892   5.275   1.544  2.5767  1.7073 -2.5174
  737MOL0     H 1696   5.748   4.989   1.487 -2.1811 -0.0183  0.3635
  737MOL0     H 1697   5.683   5.105   1.597  0.0259  0.1288 -1.6531
  737MOL0     H 1698   5.918   4.921   1.610 -1.9694 -0.0541 -1.8031
  737MOL0     H 1699   5.955   5.067   1.693 -0.2344 -1.1409  4.2451
  737MOL0     H 1700   5.698   4.911   1.728  0.5473 -1.0967  1.7472
  737MOL0     H 1701   5.734   5.053   1.830 -0.1277 -1.5321  3.4672
  737MOL0     H 1702   5.989   4.782   2.004  0.8167 -3.5120 -3.6331
  737MOL0     H 1703   5.559   5.439   1.421 -0.1934 -0.6706  0.0488
  737MOL0     H 1704   5.591   5.790   1.434  1.9880 -4.1486  4.6793
  737MOL0     H 1705   5.485   5.742   1.290 -1.3882 -1.6814  0.6657
  737MOL0     H 1706   5.485   5.657   1.442  1.4800  1.0065  2.8828
  738MOL0     O 1707  10.721   3.165   8.365 -0.1523  0.0139  0.1503
  738MOL0     C 1708  10.775   3.143   8.261  0.0185  0.3725 -0.5343
  738MOL0     O 1709  10.911   3.155   8.232  0.3457 -0.4373 -0.1364
  738MOL0     C 1710  10.979   3.237   8.323  0.7792 -0.5726  0.2020
  738MOL0     C 1711  11.019   3.364   8.273  0.1709  0.6618  1.4102
  738MOL0     C 1712  11.082   3.457   8.348  0.6700 -1.6494 -0.2528
  738MOL0     C 1713  11.102   3.434   8.483  0.5714 -0.9146 -1.0473
  738MOL0     O 1714  11.158   3.530   8.563  0.3078 -0.3539 -0.1828
  738MOL0     C 1715  11.086   3.573   8.679  0.1065 -0.1279  0.0519
  738MOL0     C 1716  11.137   3.709   8.720 -0.2193  0.0783  0.4899
  738MOL0     C 1717  11.051   3.766   8.833  0.5092 -0.3971  0.9972
  738MOL0     C 1718  11.087   3.904   8.887  0.4286  0.5746  1.4649
  738MOL0     C 1719  11.209   3.896   8.984  0.4925 -0.4373  0.3613
  738MOL0     C 1720  11.217   3.798   9.096 -0.3085 -0.8394  0.2147
  738MOL0     C 1721  11.336   3.827   9.195  0.4895 -0.3658 -0.0558
  738MOL0     C 1722  11.362   3.711   9.288 -0.2735  0.1272  0.3475
  738MOL0     N 1723  11.501   3.710   9.323  0.1494 -0.2494 -0.4128
  738MOL0     C 1724  11.566   3.805   9.399  0.4991  0.3443 -0.4519
  738MOL0     C 1725  11.700   3.780   9.362 -0.3291 -0.0268 -0.3682
  738MOL0     C 1726  11.826   3.837   9.412  0.6594  0.8512 -0.5198
  738MOL0     C 1727  11.834   3.985   9.386  0.4839  0.6206 -0.3438
  738MOL0     C 1728  11.923   4.022   9.269 -0.1050 -0.5780 -0.5117
  738MOL0     C 1729  11.887   3.938   9.143 -0.3611  0.8453  0.4644
  738MOL0     O 1730  11.774   3.991   9.065 -0.4664  0.2878 -0.2774
  738MOL0     C 1731  11.689   3.916   8.989 -0.5273  1.0442  0.9304
  738MOL0     C 1732  11.704   3.779   8.966 -0.0900  0.2279  0.1790
  738MOL0     C 1733  11.621   3.705   8.877 -0.6091 -0.0392 -0.2260
  738MOL0     C 1734  11.651   3.559   8.857 -0.3215  0.2578 -0.7612
  738MOL0     C 1735  11.548   3.776   8.779 -0.2387  0.1073 -0.6495
  738MOL0     C 1736  11.510   3.713   8.652  0.5922  0.4581 -0.3166
  738MOL0     O 1737  11.508   3.795   8.545  0.0085 -0.4688 -0.1068
  738MOL0     C 1738  11.479   3.750   8.418  0.6087  0.5030  0.1785
  738MOL0     C 1739  11.348   3.753   8.363  0.3843  1.1985 -0.1418
  738MOL0     C 1740  11.332   3.732   8.222  0.2729  0.5182  0.1865
  738MOL0     C 1741  11.434   3.697   8.145  0.2792  0.2897  1.4550
  738MOL0     O 1742  11.412   3.650   8.019  0.2707  0.4170 -0.4900
  738MOL0     C 1743  11.285   3.581   7.968 -0.4797  0.0364 -0.4684
  738MOL0     C 1744  11.188   3.684   7.917  0.5923  0.0107  1.1137
  738MOL0     C 1745  11.061   3.636   7.836 -0.9226 -0.1535 -0.1076
  738MOL0     C 1746  11.088   3.589   7.690  0.4985  0.0682  0.2919
  738MOL0     C 1747  10.974   3.496   7.636  1.0377 -0.3842 -0.4803
  738MOL0     C 1748  10.831   3.546   7.665 -0.3571  0.1245  0.3368
  738MOL0     C 1749  10.738   3.442   7.601  0.3264  0.1723  0.2714
  738MOL0     C 1750  10.707   3.465   7.450  0.5805  0.0172  0.2296
  738MOL0    Cl 1751  10.578   3.339   7.411 -0.3138 -0.1267  0.3260
  738MOL0     C 1752  11.562   3.692   8.188 -0.2694 -0.2593  0.3432
  738MOL0     C 1753  11.588   3.729   8.321  0.5763  0.0192 -1.3739
  738MOL0     O 1754  11.478   3.594   8.642 -0.6354 -0.2176 -0.1981
  738MOL0     C 1755  11.532   3.913   8.806 -0.9043 -0.5494  0.2438
  738MOL0     C 1756  11.597   3.983   8.908 -0.7261  0.8148  0.5589
  738MOL0     N 1757  11.710   3.671   9.277  0.9919  0.3315 -0.3892
  738MOL0     N 1758  11.584   3.627   9.258  0.0674 -0.1546 -0.5177
  738MOL0     C 1759  11.057   3.308   8.537 -0.0361  0.6997  0.4504
  738MOL0     C 1760  11.002   3.206   8.456  0.2960 -0.5681  0.1204
  738MOL0     C 1761  10.684   3.055   8.169 -0.0103 -0.3425  0.1441
  738MOL0     C 1762  10.750   2.982   8.069 -0.2831  0.0284 -0.0962
  738MOL0     C 1763  10.684   2.874   8.009 -0.4987 -0.1078 -0.5709
  738MOL0     C 1764  10.550   2.849   8.029  0.0411 -0.1248 -0.6408
  738MOL0     O 1765  10.489   2.748   7.952  0.7611 -0.3747 -0.6197
  738MOL0     C 1766  10.342   2.743   7.937 -0.2348 -0.0317 -0.0541
  738MOL0     C 1767  10.317   2.602   7.876  0.3310 -0.2974  1.0659
  738MOL0     C 1768  10.345   2.504   7.994 -0.0773 -0.5160  0.2631
  738MOL0     C 1769  10.340   2.360   7.961  0.4361 -0.0139  0.3243
  738MOL0     C 1770  10.468   2.322   7.898 -0.7227  0.5019 -0.2320
  738MOL0     C 1771  10.570   2.288   7.851 -0.2752  0.5087  0.5901
  738MOL0     C 1772  10.482   2.923   8.124 -0.7740 -0.6904  0.3874
  738MOL0     C 1773  10.547   3.026   8.193 -0.6170 -0.0536 -1.5538
  738MOL0     C 1774  10.457   3.108   8.290 -0.0638 -1.1380  0.6565
  738MOL0     H 1775  11.023   3.376   8.165  0.1021  2.7529  1.6062
  738MOL0     H 1776  11.111   3.553   8.307 -0.1478 -0.7895  1.1045
  738MOL0     H 1777  11.099   3.497   8.757  0.3199 -0.8537 -0.6790
  738MOL0     H 1778  10.981   3.581   8.651  0.4779 -0.7344 -1.5983
  738MOL0     H 1779  11.240   3.709   8.758  0.3586  0.4051 -0.9895
  738MOL0     H 1780  11.138   3.781   8.637 -0.1152  1.4098  1.6045
  738MOL0     H 1781  10.959   3.766   8.773  1.5634 -1.4498 -0.6919
  738MOL0     H 1782  11.043   3.697   8.918 -0.0108  0.5465  1.7381
  738MOL0     H 1783  11.124   3.960   8.801  1.8532 -2.6763 -0.1831
  738MOL0     H 1784  10.993   3.949   8.920 -0.7588 -0.1418 -0.7524
  738MOL0     H 1785  11.232   3.998   9.015 -2.6883  1.9317 -3.9174
  738MOL0     H 1786  11.295   3.885   8.917 -0.2533 -0.2458 -0.6524
  738MOL0     H 1787  11.124   3.805   9.154  0.6220  1.7906  1.5300
  738MOL0     H 1788  11.228   3.694   9.063 -0.6222 -2.0635  3.5347
  738MOL0     H 1789  11.319   3.918   9.253  3.4576  0.1643  0.0936
  738MOL0     H 1790  11.432   3.843   9.147  0.1981 -0.3266 -0.6306
  738MOL0     H 1791  11.303   3.719   9.379 -0.8257 -0.1340  0.0198
  738MOL0     H 1792  11.349   3.613   9.240  3.5218  0.0115 -0.7635
  738MOL0     H 1793  11.537   3.874   9.478  1.2480 -0.9316  0.9989
  738MOL0     H 1794  11.904   3.778   9.363  0.1849  1.3687 -1.9651
  738MOL0     H 1795  11.826   3.814   9.519 -0.2705  0.8372 -0.5136
  738MOL0     H 1796  11.734   4.028   9.380  0.1248  0.1495  1.5647
  738MOL0     H 1797  11.875   4.029   9.477  1.2269 -1.2987  0.3005
  738MOL0     H 1798  11.909   4.129   9.253  0.2340 -0.6607 -1.4499
  738MOL0     H 1799  12.026   4.010   9.305 -1.2447  0.3428  3.5558
  738MOL0     H 1800  11.980   3.938   9.085 -0.1568  0.8185  0.7901
  738MOL0     H 1801  11.878   3.831   9.160 -0.5204  0.4665 -1.7186
  738MOL0     H 1802  11.780   3.719   9.015 -0.7059 -1.5116 -0.8984
  738MOL0     H 1803  11.719   3.537   8.774 -1.8583 -0.0349 -1.9819
  738MOL0     H 1804  11.564   3.496   8.840  1.5348 -2.4980 -0.7876
  738MOL0     H 1805  11.684   3.516   8.952 -0.1498 -2.3616 -1.9123
  738MOL0     H 1806  11.269   3.766   8.436  0.6844  2.0672  0.0447
  738MOL0     H 1807  11.227   3.735   8.198  0.2495 -4.0597 -1.1064
  738MOL0     H 1808  11.315   3.516   7.885 -0.8900 -1.0578  0.2230
  738MOL0     H 1809  11.238   3.520   8.045 -0.9071  0.7810 -0.1309
  738MOL0     H 1810  11.152   3.730   8.010  0.6746 -2.0115  2.2008
  738MOL0     H 1811  11.239   3.759   7.856 -1.4795 -0.0276 -0.8070
  738MOL0     H 1812  10.989   3.719   7.834  0.2060  0.9500  1.6195
  738MOL0     H 1813  11.021   3.548   7.887  2.3750 -1.1431  1.0054
  738MOL0     H 1814  11.176   3.525   7.704 -0.7478 -1.8903 -0.4164
  738MOL0     H 1815  11.108   3.676   7.627 -0.5594  1.9461  2.4230
  738MOL0     H 1816  10.986   3.481   7.528  3.2813  0.1296 -0.3476
  738MOL0     H 1817  10.993   3.399   7.683 -0.9166 -1.0982 -1.0942
  738MOL0     H 1818  10.823   3.643   7.616  4.0180  0.0683 -0.8788
  738MOL0     H 1819  10.817   3.539   7.774  0.3931  0.1956  0.4423
  738MOL0     H 1820  10.652   3.442   7.670  0.1063 -1.4733  0.0407
  738MOL0     H 1821  10.779   3.341   7.605 -0.2448 -0.0570  3.3273
  738MOL0     H 1822  10.788   3.454   7.378  1.9928 -0.8118  1.8852
  738MOL0     H 1823  10.667   3.567   7.449 -0.4258 -0.3577  0.4946
  738MOL0     H 1824  11.645   3.650   8.132  1.4867  2.7570  0.4135
  738MOL0     H 1825  11.689   3.716   8.359 -0.1065 -2.0653 -0.1300
  738MOL0     H 1826  11.465   3.963   8.737  1.5441  0.5201 -1.5160
  738MOL0     H 1827  11.564   4.087   8.911 -2.6940  0.3376 -1.8296
  738MOL0     H 1828  11.070   3.296   8.644 -4.0514 -2.0365  0.8821
  738MOL0     H 1829  10.984   3.113   8.508 -2.4369 -0.4523 -0.5011
  738MOL0     H 1830  10.854   3.002   8.047 -0.9700  4.0575 -0.3931
  738MOL0     H 1831  10.735   2.804   7.943  1.7773  1.8571 -1.0686
  738MOL0     H 1832  10.294   2.734   8.035  1.2226  2.2069  0.9369
  738MOL0     H 1833  10.303   2.826   7.878  0.3746  0.4263  0.1698
  738MOL0     H 1834  10.395   2.595   7.799  1.1690  1.6229  1.6731
  738MOL0     H 1835  10.220   2.594   7.826  1.4102 -1.3255 -1.0159
  738MOL0     H 1836  10.444   2.519   8.038  0.1349 -0.7111 -0.1358
  738MOL0     H 1837  10.280   2.507   8.082  0.9613 -2.1956  1.1553
  738MOL0     H 1838  10.258   2.351   7.889  2.1381 -1.3561 -1.5336
  738MOL0     H 1839  10.338   2.301   8.053 -0.6265  3.6345  2.9027
  738MOL0     H 1840  10.665   2.282   7.801 -1.2326 -0.9434 -1.1662
  738MOL0     H 1841  10.381   2.897   8.151  0.9946 -3.1443  5.8965
  738MOL0     H 1842  10.489   3.097   8.394  1.0516  2.7400  0.8565
  738MOL0     H 1843  10.473   3.211   8.258  4.2401 -2.5243 -2.7434
  738MOL0     H 1844  10.352   3.078   8.292 -0.7552  1.0663  2.8945
  739MOL0     O 1845   2.893   7.949   5.947 -0.5270  0.2714 -0.2240
  739MOL0     C 1846   2.937   8.026   6.028 -0.9225 -0.4953  0.7547
  739MOL0     O 1847   2.995   7.991   6.150 -0.1561  0.6930  0.7470
  739MOL0     C 1848   2.954   7.860   6.190 -0.0860 -0.2141  0.3148
  739MOL0     C 1849   3.050   7.759   6.207 -0.2022  0.6785  0.1119
  739MOL0     C 1850   3.013   7.627   6.240  0.1730  0.4725 -0.0484
  739MOL0     C 1851   2.873   7.593   6.238 -0.8356  0.8776 -0.8354
  739MOL0     O 1852   2.838   7.465   6.260  0.0817  0.1216 -0.4770
  739MOL0     C 1853   2.868   7.433   6.398 -0.5991 -0.5855  0.1172
  739MOL0     C 1854   2.799   7.305   6.436 -0.0516  0.0468  0.6087
  739MOL0     C 1855   2.825   7.269   6.574 -0.2055 -0.6881 -0.1084
  739MOL0     C 1856   2.791   7.122   6.589 -0.1762  0.0121  0.5269
  739MOL0     C 1857   2.815   7.070   6.723 -0.0531  0.3308  0.5417
  739MOL0     C 1858   2.704   7.103   6.823 -1.0160 -0.5472  0.3945
  739MOL0     C 1859   2.572   7.034   6.781  0.6843 -0.2565  0.0299
  739MOL0     C 1860   2.474   7.063   6.894  0.6988  0.2777  0.0298
  739MOL0     N 1861   2.437   7.208   6.873  0.2764 -0.3519  0.4562
  739MOL0     C 1862   2.440   7.295   6.765 -0.6443  0.0887  0.3218
  739MOL0     C 1863   2.398   7.419   6.803 -0.6924  0.1940  0.6781
  739MOL0     C 1864   2.414   7.545   6.713 -0.2011  1.0874  0.8210
  739MOL0     C 1865   2.557   7.609   6.701 -0.4795 -0.2834 -0.7409
  739MOL0     C 1866   2.576   7.686   6.833 -1.5505  0.7198  0.4903
  739MOL0     C 1867   2.695   7.782   6.834  0.1253  0.5453 -1.5186
  739MOL0     O 1868   2.802   7.756   6.736  1.0190  0.0695  0.2687
  739MOL0     C 1869   2.929   7.806   6.758  0.8852  0.7865 -0.0800
  739MOL0     C 1870   3.031   7.763   6.667 -0.7264  1.0055 -0.0931
  739MOL0     C 1871   3.165   7.808   6.661 -0.2585  0.3059 -0.5631
  739MOL0     C 1872   3.256   7.749   6.555  0.3848  0.2136  0.2082
  739MOL0     C 1873   3.206   7.887   6.775 -0.1749 -0.0843  0.3513
  739MOL0     C 1874   3.346   7.930   6.797 -0.5870  0.9861 -0.0053
  739MOL0     O 1875   3.367   8.004   6.909 -0.8549 -0.5448 -0.3661
  739MOL0     C 1876   3.494   8.066   6.917 -0.5630  0.4845  0.5929
  739MOL0     C 1877   3.586   8.030   7.013  0.2994  0.2718  0.0697
  739MOL0     C 1878   3.711   8.089   7.014  0.7877  0.6092  0.1978
  739MOL0     C 1879   3.755   8.176   6.912 -0.3433 -0.9367 -0.1106
  739MOL0     O 1880   3.888   8.204   6.905 -0.8364  0.4612  1.2297
  739MOL0     C 1881   3.931   8.337   6.864 -0.2181  0.8140 -0.2622
  739MOL0     C 1882   3.896   8.451   6.968 -0.5751  0.8653 -0.2047
  739MOL0     C 1883   3.927   8.597   6.911 -0.0615  0.2371 -0.0586
  739MOL0     C 1884   4.078   8.614   6.882  0.6256  0.4392 -0.0646
  739MOL0     C 1885   4.103   8.738   6.796 -0.3692  0.1948 -0.6751
  739MOL0     C 1886   4.238   8.799   6.824  0.4996 -0.0165  0.0794
  739MOL0     C 1887   4.259   8.934   6.755 -0.1203 -0.5559  0.1925
  739MOL0     C 1888   4.380   8.915   6.657 -0.7619  1.1287  0.2118
  739MOL0    Cl 1889   4.442   9.073   6.589 -0.1466  0.3017 -0.2281
  739MOL0     C 1890   3.660   8.221   6.822 -0.0466 -0.5208  0.9495
  739MOL0     C 1891   3.528   8.167   6.825 -0.0313  0.3317  0.1509
  739MOL0     O 1892   3.434   7.905   6.715  0.1253  0.0146 -0.5266
  739MOL0     C 1893   3.110   7.916   6.870  0.4021  0.2666  0.7649
  739MOL0     C 1894   2.973   7.886   6.865  0.2656  0.6017  0.7510
  739MOL0     N 1895   2.367   7.408   6.937  0.1036  1.0795 -0.6060
  739MOL0     N 1896   2.387   7.283   6.975 -0.6689  0.1923  0.2709
  739MOL0     C 1897   2.776   7.694   6.218  0.3211  0.2151 -0.0525
  739MOL0     C 1898   2.821   7.818   6.189 -0.8712 -0.2690 -0.2380
  739MOL0     C 1899   2.913   8.175   6.017 -0.3347  0.4467  0.1219
  739MOL0     C 1900   2.927   8.255   6.136 -0.4274  0.2512 -0.2972
  739MOL0     C 1901   2.898   8.394   6.143 -0.6913 -0.0705 -0.1198
  739MOL0     C 1902   2.862   8.464   6.024 -0.0716  0.2727  0.6346
  739MOL0     O 1903   2.835   8.597   6.042 -0.4256  0.3783  0.4924
  739MOL0     C 1904   2.779   8.676   5.942 -0.2248  0.2051 -1.2201
  739MOL0     C 1905   2.898   8.734   5.876  0.0833 -0.1254  0.7882
  739MOL0     C 1906   2.849   8.805   5.747  1.2066 -0.8790  0.0975
  739MOL0     C 1907   2.965   8.880   5.666  0.5962  0.2031  1.3433
  739MOL0     C 1908   2.889   8.954   5.559 -0.6868  0.4998  0.5991
  739MOL0     C 1909   2.835   9.018   5.469 -0.8932  0.0570  0.2298
  739MOL0     C 1910   2.832   8.382   5.908  0.3520 -0.7378 -0.4869
  739MOL0     C 1911   2.863   8.245   5.904 -0.3678  1.0139  0.9167
  739MOL0     C 1912   2.840   8.167   5.776  0.0232  0.5544 -0.2493
  739MOL0     H 1913   3.154   7.788   6.201 -0.3486  1.4976  1.1657
  739MOL0     H 1914   3.099   7.562   6.254 -0.4298 -0.5899 -1.1216
  739MOL0     H 1915   2.828   7.515   6.458 -0.9108  0.3922 -1.3739
  739MOL0     H 1916   2.975   7.424   6.417 -0.8183  0.4112  2.0755
  739MOL0     H 1917   2.691   7.306   6.415 -0.6719  2.4712  3.3252
  739MOL0     H 1918   2.831   7.227   6.366 -2.6091 -0.5032 -0.0588
  739MOL0     H 1919   2.932   7.289   6.589 -0.4928  4.9989 -2.8859
  739MOL0     H 1920   2.767   7.327   6.646 -3.2275  0.1035 -2.9565
  739MOL0     H 1921   2.689   7.101   6.555 -0.7566 -1.3142  2.8427
  739MOL0     H 1922   2.863   7.072   6.524  0.4487  0.1607  1.0988
  739MOL0     H 1923   2.918   7.101   6.744  2.0782 -1.6877 -5.0615
  739MOL0     H 1924   2.812   6.961   6.725 -0.6167  0.2846 -1.1402
  739MOL0     H 1925   2.735   7.065   6.921  2.1655  1.2759  0.2305
  739MOL0     H 1926   2.695   7.212   6.832 -0.2168 -0.5984  2.3193
  739MOL0     H 1927   2.585   6.925   6.777 -0.3210 -0.5145  2.5180
  739MOL0     H 1928   2.536   7.064   6.682  0.8533  2.5145  0.7486
  739MOL0     H 1929   2.391   6.993   6.885  3.3093 -2.8946 -1.6919
  739MOL0     H 1930   2.522   7.038   6.989 -0.7440 -3.1778 -0.0303
  739MOL0     H 1931   2.461   7.265   6.663 -1.4500 -1.1832  0.5112
  739MOL0     H 1932   2.336   7.618   6.734 -0.0831  1.7326 -0.8258
  739MOL0     H 1933   2.389   7.510   6.612  0.7284  2.3910  0.1127
  739MOL0     H 1934   2.635   7.534   6.687 -2.2506 -2.4774  0.4295
  739MOL0     H 1935   2.573   7.676   6.616  1.1900  1.6201  0.9668
  739MOL0     H 1936   2.489   7.751   6.848 -3.1090 -0.9883 -0.6361
  739MOL0     H 1937   2.582   7.617   6.918 -1.8336  1.4283  1.1023
  739MOL0     H 1938   2.646   7.879   6.822 -2.0013 -0.4270 -1.0719
  739MOL0     H 1939   2.745   7.777   6.931  3.4744  2.2814 -2.9904
  739MOL0     H 1940   2.996   7.693   6.592 -2.1523 -0.1242  1.5251
  739MOL0     H 1941   3.310   7.836   6.515  1.1215  0.7273  2.1617
  739MOL0     H 1942   3.208   7.685   6.481  1.5261 -2.1299  1.3883
  739MOL0     H 1943   3.332   7.684   6.600 -0.1490 -2.0884 -2.0450
  739MOL0     H 1944   3.582   7.947   7.083  0.0064 -0.1679 -0.4578
  739MOL0     H 1945   3.773   8.038   7.086  0.8262  1.9158  1.1159
  739MOL0     H 1946   4.040   8.340   6.852 -0.2717 -0.9528 -1.4951
  739MOL0     H 1947   3.893   8.367   6.766  1.6500 -0.7611 -1.5583
  739MOL0     H 1948   3.789   8.441   6.986 -0.4242  4.2402  4.5382
  739MOL0     H 1949   3.947   8.429   7.063  3.0181 -0.6689 -2.2629
  739MOL0     H 1950   3.900   8.678   6.979 -5.8978 -3.1476  2.4174
  739MOL0     H 1951   3.873   8.594   6.816 -2.2250 -0.4907  1.1251
  739MOL0     H 1952   4.112   8.527   6.826 -2.2732 -1.7170  1.2435
  739MOL0     H 1953   4.129   8.610   6.979 -2.7276  0.2868  1.8538
  739MOL0     H 1954   4.097   8.709   6.691  1.5099 -0.5757 -0.6186
  739MOL0     H 1955   4.029   8.815   6.817  0.9218  1.1594  0.5343
  739MOL0     H 1956   4.312   8.724   6.793 -0.1915 -0.9497  0.6563
  739MOL0     H 1957   4.249   8.806   6.933  3.1191  0.7617 -0.1597
  739MOL0     H 1958   4.283   9.008   6.831  2.3454 -1.4300  0.3704
  739MOL0     H 1959   4.173   8.959   6.693 -0.1656 -0.2066  0.3949
  739MOL0     H 1960   4.353   8.851   6.573  0.5270 -1.9801  1.9911
  739MOL0     H 1961   4.462   8.876   6.718 -1.4713  1.1187  1.1874
  739MOL0     H 1962   3.688   8.294   6.746  2.4996  1.7594  3.8311
  739MOL0     H 1963   3.462   8.205   6.749 -2.2681 -3.4846 -0.0813
  739MOL0     H 1964   3.135   7.978   6.955 -2.1639  5.3657 -1.7366
  739MOL0     H 1965   2.913   7.913   6.952  0.2778  1.8116  0.4060
  739MOL0     H 1966   2.668   7.692   6.221  0.3423 -1.5430  2.4963
  739MOL0     H 1967   2.739   7.889   6.187 -0.3987  0.2784 -0.7692
  739MOL0     H 1968   2.946   8.208   6.232 -1.3072  3.5192  1.6682
  739MOL0     H 1969   2.892   8.439   6.241  0.0878 -0.7275  0.2358
  739MOL0     H 1970   2.712   8.630   5.870  0.5535 -0.9365 -1.2275
  739MOL0     H 1971   2.713   8.754   5.982 -3.2506 -2.0847 -1.3710
  739MOL0     H 1972   2.969   8.656   5.846 -3.3710 -2.7829 -1.2019
  739MOL0     H 1973   2.941   8.815   5.935  1.2296 -0.7616  0.8510
  739MOL0     H 1974   2.791   8.727   5.697  2.2271 -0.5021 -1.7585
  739MOL0     H 1975   2.784   8.882   5.789  0.0544  0.4952 -3.7884
  739MOL0     H 1976   3.031   8.796   5.641 -2.3572 -3.1876  3.7923
  739MOL0     H 1977   3.020   8.946   5.733 -1.4511  2.1583  1.2395
  739MOL0     H 1978   2.796   9.074   5.387 -0.5308  2.5831  1.6855
  739MOL0     H 1979   2.791   8.435   5.823 -0.4675  1.6537  1.2880
  739MOL0     H 1980   2.818   8.216   5.680 -0.9737 -1.9815 -1.4450
  739MOL0     H 1981   2.922   8.097   5.759 -0.7479 -0.2026 -0.9826
  739MOL0     H 1982   2.743   8.117   5.791 -0.7899  2.0112 -0.4289
  740MOL0     O 1983   7.141   8.939   9.245  0.3484 -0.3611 -0.6752
  740MOL0     C 1984   7.126   8.951   9.125 -0.4847 -0.7893  0.4607
  740MOL0     O 1985   7.011   8.921   9.052 -0.7094  0.5248 -0.2787
  740MOL0     C 1986   6.926   8.825   9.106 -0.3895  0.1287 -0.9036
  740MOL0     C 1987   6.972   8.702   9.165 -0.0076 -0.3171  0.1130
  740MOL0     C 1988   6.878   8.607   9.211 -0.3156 -0.6417  0.4414
  740MOL0     C 1989   6.746   8.629   9.204  0.5800 -0.5189 -0.0301
  740MOL0     O 1990   6.650   8.532   9.232  0.4247 -0.4289 -0.8719
  740MOL0     C 1991   6.660   8.485   9.376  0.0799 -0.2648  1.6260
  740MOL0     C 1992   6.529   8.443   9.438  0.1517 -0.3054 -0.6723
  740MOL0     C 1993   6.489   8.547   9.547  0.0587  0.3000  0.4127
  740MOL0     C 1994   6.469   8.688   9.477  0.1098 -0.2706 -0.2959
  740MOL0     C 1995   6.374   8.781   9.545  0.0638 -1.7285 -0.6893
  740MOL0     C 1996   6.421   8.826   9.693  0.7244  0.1715  0.3667
  740MOL0     C 1997   6.358   8.964   9.736 -0.2943  0.0451 -0.0411
  740MOL0     C 1998   6.415   9.006   9.872 -0.7859  0.3745  0.2700
  740MOL0     N 1999   6.306   9.039   9.956 -0.2922  0.0167 -1.2338
  740MOL0     C 2000   6.229   8.948  10.030 -0.5187  0.0022 -0.2671
  740MOL0     C 2001   6.163   9.016  10.120  0.3191  0.5180 -1.4605
  740MOL0     C 2002   6.064   8.939  10.205  0.1691  0.2164 -0.7865
  740MOL0     C 2003   5.974   9.025  10.290  0.5395 -0.8242 -0.0388
  740MOL0     C 2004   5.858   9.097  10.216  0.6260 -0.1482  0.5686
  740MOL0     C 2005   5.771   9.175  10.316  1.0141  0.5689 -0.0059
  740MOL0     O 2006   5.836   9.286  10.374 -0.0462 -0.0666  0.7022
  740MOL0     C 2007   5.764   9.380  10.440 -0.9307  0.4439 -0.1133
  740MOL0     C 2008   5.818   9.497  10.462 -0.6987 -0.8502 -0.0678
  740MOL0     C 2009   5.756   9.602  10.539 -0.0974  0.5077  0.5368
  740MOL0     C 2010   5.846   9.715  10.564 -0.0394 -0.3147  0.5791
  740MOL0     C 2011   5.621   9.588  10.586 -0.2678 -0.4279 -0.4526
  740MOL0     C 2012   5.537   9.690  10.664 -1.0715 -0.3902 -0.3133
  740MOL0     O 2013   5.434   9.635  10.734 -0.2136  0.3109  0.3707
  740MOL0     C 2014   5.353   9.715  10.816 -0.5007  0.0354  0.3164
  740MOL0     C 2015   5.409   9.779  10.921  0.5207  0.1005  0.4079
  740MOL0     C 2016   5.326   9.850  11.003  0.4632 -0.7476 -0.5966
  740MOL0     C 2017   5.184   9.873  10.981  0.4712 -0.6881  0.2034
  740MOL0     O 2018   5.090   9.942  11.056 -0.4628 -0.3430  0.4099
  740MOL0     C 2019   5.150  10.016  11.167  0.0405  0.1407 -0.7367
  740MOL0     C 2020   5.042  10.104  11.246  0.1321  0.1747 -0.1582
  740MOL0     C 2021   5.117  10.213  11.332  0.2092 -0.2386  0.3754
  740MOL0     C 2022   5.173  10.329  11.247  0.2479  1.0416  0.3111
  740MOL0     C 2023   5.249  10.441  11.320  0.6815 -0.2169  0.1841
  740MOL0     C 2024   5.352  10.398  11.420 -0.6577  0.1286  0.5872
  740MOL0     C 2025   5.449  10.514  11.449 -0.5993  0.5468  0.3602
  740MOL0     C 2026   5.535  10.487  11.575  0.5438 -0.5759  0.4556
  740MOL0    Cl 2027   5.661  10.605  11.602 -0.8080  0.5273 -0.1955
  740MOL0     C 2028   5.137   9.818  10.865 -0.5585 -0.0077  0.4510
  740MOL0     C 2029   5.222   9.736  10.774  1.2638  0.3829 -0.1209
  740MOL0     O 2030   5.564   9.808  10.661 -0.8180  0.7164  0.3869
  740MOL0     C 2031   5.568   9.465  10.561 -0.8278 -0.0305  0.1952
  740MOL0     C 2032   5.633   9.365  10.493 -0.0486 -0.0784 -0.3394
  740MOL0     N 2033   6.198   9.148  10.110 -0.6312 -0.3509  0.4217
  740MOL0     N 2034   6.274   9.164  10.007  0.1101 -0.3277  0.6975
  740MOL0     C 2035   6.696   8.743   9.142 -0.3347  0.2760 -0.9057
  740MOL0     C 2036   6.788   8.841   9.101  0.0837  0.0490 -0.6268
  740MOL0     C 2037   7.239   9.038   9.059 -0.3181  0.8616 -0.3456
  740MOL0     C 2038   7.234   9.175   9.045  0.0782 -0.0135  0.6085
  740MOL0     C 2039   7.324   9.243   8.970 -0.1089 -0.4159  0.6370
  740MOL0     C 2040   7.436   9.178   8.916  0.0751 -0.3205 -0.2260
  740MOL0     O 2041   7.535   9.246   8.846  0.3194 -0.6169 -0.3773
  740MOL0     C 2042   7.541   9.234   8.706 -0.2824 -0.9370 -0.7429
  740MOL0     C 2043   7.498   9.359   8.633 -0.8413  0.3345  0.5088
  740MOL0     C 2044   7.345   9.356   8.609 -0.7720  0.3057  0.3142
  740MOL0     C 2045   7.272   9.236   8.546 -0.2956  0.2474 -0.2729
  740MOL0     C 2046   7.341   9.210   8.420 -0.0621  0.9529 -0.1682
  740MOL0     C 2047   7.375   9.173   8.312 -0.2455  0.8997  0.4085
  740MOL0     C 2048   7.449   9.038   8.938  0.7065 -0.3871  0.0134
  740MOL0     C 2049   7.352   8.976   9.007 -0.4114  0.2463 -1.2847
  740MOL0     C 2050   7.379   8.828   9.027 -1.1539  0.9098  0.4079
  740MOL0     H 2051   7.077   8.676   9.166 -0.8334 -4.1821  0.5333
  740MOL0     H 2052   6.919   8.516   9.254  0.7992 -1.3896 -1.9945
  740MOL0     H 2053   6.712   8.558   9.439  1.5549  0.1634 -0.0065
  740MOL0     H 2054   6.716   8.392   9.362 -0.8026 -0.3900 -1.9705
  740MOL0     H 2055   6.450   8.434   9.363  1.9176 -1.2807 -2.5046
  740MOL0     H 2056   6.543   8.338   9.464  0.6902  0.1093  0.8412
  740MOL0     H 2057   6.408   8.510   9.611  1.2405 -0.2096  1.6939
  740MOL0     H 2058   6.573   8.532   9.616 -0.5372 -5.0096  0.4044
  740MOL0     H 2059   6.560   8.746   9.462  0.8885 -1.8390 -2.0232
  740MOL0     H 2060   6.426   8.649   9.384  0.9263 -1.0660 -0.3553
  740MOL0     H 2061   6.278   8.729   9.554  0.1533 -2.0808 -1.6905
  740MOL0     H 2062   6.349   8.873   9.491 -3.0077 -0.3375  2.6833
  740MOL0     H 2063   6.421   8.744   9.766 -2.5618  0.1783  0.5001
  740MOL0     H 2064   6.530   8.836   9.681  0.6362  0.6442 -0.0242
  740MOL0     H 2065   6.249   8.952   9.739 -0.3418 -0.2439 -1.7028
  740MOL0     H 2066   6.368   9.045   9.663 -1.2232 -0.6459 -0.9709
  740MOL0     H 2067   6.485   8.929   9.905 -2.3451 -1.1352  0.1770
  740MOL0     H 2068   6.479   9.095   9.862  0.4993  0.3563  5.5031
  740MOL0     H 2069   6.231   8.840  10.020 -0.0554  0.0586 -0.8387
  740MOL0     H 2070   6.116   8.867  10.269 -0.7858  2.0745  2.2989
  740MOL0     H 2071   6.005   8.878  10.135  0.1608 -0.9173  0.1878
  740MOL0     H 2072   5.938   8.964  10.374  2.9660 -3.4404 -0.7383
  740MOL0     H 2073   6.038   9.086  10.353 -0.4355 -0.3207  0.4832
  740MOL0     H 2074   5.896   9.175  10.150 -0.3495  0.9260  1.2485
  740MOL0     H 2075   5.795   9.026  10.161  1.0875  0.1389 -0.3415
  740MOL0     H 2076   5.696   9.227  10.255 -0.2684  0.6701  1.6072
  740MOL0     H 2077   5.736   9.099  10.385 -0.2862 -1.1281 -2.3847
  740MOL0     H 2078   5.912   9.529  10.419  0.1506  0.1393  2.3625
  740MOL0     H 2079   5.814   9.809  10.520  1.6487  1.1900  2.3662
  740MOL0     H 2080   5.951   9.687  10.550 -0.1721 -1.2177  1.2824
  740MOL0     H 2081   5.849   9.737  10.671  2.9848 -1.5075  0.8581
  740MOL0     H 2082   5.508   9.773  10.964  0.4519  3.1604  1.2612
  740MOL0     H 2083   5.382   9.907  11.076  1.7577 -1.8161 -0.7336
  740MOL0     H 2084   5.187   9.949  11.245 -4.2210 -1.8248 -0.1197
  740MOL0     H 2085   5.234  10.075  11.128  1.7168 -1.5146  0.1796
  740MOL0     H 2086   4.978  10.165  11.181  1.2866 -1.4605 -3.0168
  740MOL0     H 2087   4.983  10.027  11.297 -0.8008  0.2698 -1.0463
  740MOL0     H 2088   5.201  10.163  11.382  1.4349 -0.2739 -1.5962
  740MOL0     H 2089   5.048  10.239  11.412  0.7891  1.5217  0.3552
  740MOL0     H 2090   5.083  10.371  11.200 -1.3009 -2.6679 -0.4546
  740MOL0     H 2091   5.237  10.294  11.165 -0.5988  2.8976 -1.2283
  740MOL0     H 2092   5.295  10.512  11.251  1.4774  2.8119  3.5359
  740MOL0     H 2093   5.181  10.504  11.378 -0.4669  0.4055 -1.7476
  740MOL0     H 2094   5.405  10.306  11.392 -2.5131 -1.8854  3.1775
  740MOL0     H 2095   5.305  10.369  11.515 -0.6397  0.3323  0.6567
  740MOL0     H 2096   5.401  10.612  11.442  2.0047  2.0364  1.7117
  740MOL0     H 2097   5.531  10.492  11.379  0.0461  2.1638  0.5770
  740MOL0     H 2098   5.588  10.391  11.572 -3.1641 -3.3489  6.0619
  740MOL0     H 2099   5.465  10.481  11.659 -1.9506 -0.3211 -1.4593
  740MOL0     H 2100   5.031   9.818  10.842  0.0698  0.9676 -3.1607
  740MOL0     H 2101   5.172   9.689  10.689 -1.5565  3.0813 -0.1393
  740MOL0     H 2102   5.466   9.442  10.590 -2.1101 -0.9663 -4.3529
  740MOL0     H 2103   5.588   9.266  10.488 -1.1721  0.1118  2.9774
  740MOL0     H 2104   6.587   8.748   9.139 -0.6653 -3.4052 -0.6481
  740MOL0     H 2105   6.755   8.928   9.046 -1.2001 -2.6361 -4.5852
  740MOL0     H 2106   7.146   9.229   9.078 -0.1560 -0.0224  0.0173
  740MOL0     H 2107   7.315   9.350   8.953  2.6018 -0.3661 -0.9794
  740MOL0     H 2108   7.648   9.218   8.688 -0.0271 -0.4262  0.2476
  740MOL0     H 2109   7.498   9.139   8.673 -0.7422 -0.9990  0.0178
  740MOL0     H 2110   7.538   9.361   8.531 -0.5529 -0.5635  0.5931
  740MOL0     H 2111   7.523   9.445   8.694  1.0044 -1.8752  3.1037
  740MOL0     H 2112   7.298   9.368   8.707 -3.5295 -1.5984 -0.6728
  740MOL0     H 2113   7.319   9.444   8.551 -0.2543  0.1703 -0.1396
  740MOL0     H 2114   7.168   9.263   8.526 -0.6521 -2.4553 -2.8772
  740MOL0     H 2115   7.252   9.151   8.612  2.5397 -0.8929 -0.7702
  740MOL0     H 2116   7.418   9.136   8.221 -0.5789 -1.4512  1.1363
  740MOL0     H 2117   7.543   8.994   8.907  0.3576 -2.1683  1.3525
  740MOL0     H 2118   7.287   8.769   9.039 -0.1958 -0.4762  1.1721
  740MOL0     H 2119   7.426   8.778   8.942 -0.9156  0.8950  0.5467
  740MOL0     H 2120   7.442   8.808   9.114 -0.7211 -1.5764 -0.3857
  741MOL0     O 2121   6.091   0.415  10.239 -0.0581 -0.5671 -0.5987
  741MOL0     C 2122   6.178   0.475  10.297  0.3172 -0.1492 -0.3050
  741MOL0     O 2123   6.307   0.468  10.268 -0.6812 -0.0524  0.3151
  741MOL0     C 2124   6.365   0.376  10.185 -0.0674  0.4518  0.3062
  741MOL0     C 2125   6.309   0.262  10.133 -0.4346  0.6763  0.4204
  741MOL0     C 2126   6.378   0.176  10.045 -0.6865  0.2041 -0.2194
  741MOL0     C 2127   6.511   0.195  10.024 -0.6088  0.1367  0.8945
  741MOL0     O 2128   6.576   0.099   9.943  0.0124  0.6251 -0.0077
  741MOL0     C 2129   6.690   0.033  10.012  0.0012 -1.4684  0.2994
  741MOL0     C 2130   6.651  -0.082  10.112  0.9708  0.3231  0.1693
  741MOL0     C 2131   6.657  -0.206  10.022  0.3591  0.4281 -0.2718
  741MOL0     C 2132   6.564  -0.316  10.084  0.8184 -0.9793  1.4284
  741MOL0     C 2133   6.603  -0.379  10.211  0.1814  0.2968 -0.1979
  741MOL0     C 2134   6.559  -0.529  10.219  1.2067 -0.4210  0.0262
  741MOL0     C 2135   6.597  -0.590  10.354  0.3642 -0.1704 -0.0592
  741MOL0     C 2136   6.514  -0.714  10.378 -0.6251  0.3717  0.9220
  741MOL0     N 2137   6.539  -0.810  10.261 -0.6992  0.3077 -0.8395
  741MOL0     C 2138   6.655  -0.879  10.239  0.9980 -0.3696  0.7985
  741MOL0     C 2139   6.623  -0.954  10.131 -0.1135  0.6910  0.9483
  741MOL0     C 2140   6.721  -1.035  10.062 -0.8204 -0.2631 -0.5824
  741MOL0     C 2141   6.669  -1.154   9.983  0.4906 -0.0626  0.2323
  741MOL0     C 2142   6.775  -1.247   9.922 -0.0853 -0.0365 -0.4141
  741MOL0     C 2143   6.804  -1.368  10.006 -0.4760  0.3108 -0.0596
  741MOL0     O 2144   6.907  -1.321  10.101 -0.0972 -0.1294  0.5592
  741MOL0     C 2145   6.988  -1.409  10.166  0.7006 -0.3309  0.4884
  741MOL0     C 2146   7.111  -1.370  10.209  0.3996 -0.1207  0.8622
  741MOL0     C 2147   7.199  -1.463  10.279  0.3403 -0.8593 -0.0382
  741MOL0     C 2148   7.317  -1.402  10.350 -0.5417 -0.1523  0.3047
  741MOL0     C 2149   7.147  -1.593  10.315 -0.1546  0.4588  0.4191
  741MOL0     C 2150   7.220  -1.698  10.404  0.0399  0.0781  0.4192
  741MOL0     O 2151   7.161  -1.815  10.420  0.1109 -0.2959 -0.5232
  741MOL0     C 2152   7.206  -1.898  10.529  1.1681 -0.2619 -0.7288
  741MOL0     C 2153   7.179  -2.032  10.509  0.1380  0.7063  0.2090
  741MOL0     C 2154   7.228  -2.126  10.596 -0.2150 -0.7017  0.0620
  741MOL0     C 2155   7.307  -2.090  10.699  0.6154  0.1949 -0.1486
  741MOL0     O 2156   7.342  -2.189  10.788  0.0707  0.6571 -0.8992
  741MOL0     C 2157   7.441  -2.291  10.738  0.8249  1.6742 -0.2696
  741MOL0     C 2158   7.406  -2.410  10.814 -0.4486 -0.0799 -0.1569
  741MOL0     C 2159   7.438  -2.410  10.966 -0.3617  0.9958  1.3239
  741MOL0     C 2160   7.410  -2.548  11.019  0.5663  0.4878  0.4540
  741MOL0     C 2161   7.457  -2.566  11.167 -0.2556  0.6452 -0.2964
  741MOL0     C 2162   7.497  -2.713  11.206  0.1374  0.0759  1.5154
  741MOL0     C 2163   7.384  -2.801  11.168 -0.1450  0.2718  0.1969
  741MOL0     C 2164   7.414  -2.937  11.220  0.4240  1.1408 -0.2886
  741MOL0    Cl 2165   7.274  -3.050  11.220 -0.1047  0.5890  0.1531
  741MOL0     C 2166   7.319  -1.954  10.739 -0.9290  0.2043  0.9910
  741MOL0     C 2167   7.276  -1.859  10.652 -0.7421 -0.3463 -0.2648
  741MOL0     O 2168   7.335  -1.673  10.446 -0.3414  0.0353 -0.1450
  741MOL0     C 2169   7.014  -1.622  10.280  0.5877  1.0418  0.1116
  741MOL0     C 2170   6.946  -1.536  10.196  0.5818  0.2999 -0.5027
  741MOL0     N 2171   6.492  -0.939  10.099  0.0249  0.2092 -1.1968
  741MOL0     N 2172   6.444  -0.861  10.184 -0.2576 -0.2565  0.3622
  741MOL0     C 2173   6.575   0.307  10.084  1.5405  0.5374 -0.3343
  741MOL0     C 2174   6.500   0.394  10.163 -0.4061 -0.3711 -0.3474
  741MOL0     C 2175   6.141   0.592  10.386 -0.1226 -0.5461 -0.0407
  741MOL0     C 2176   6.251   0.669  10.443 -0.2519 -0.0998  1.0170
  741MOL0     C 2177   6.227   0.781  10.516 -0.3566 -0.4444  0.3925
  741MOL0     C 2178   6.102   0.816  10.564  0.0304  0.0343 -0.1782
  741MOL0     O 2179   6.087   0.916  10.657 -0.4370  0.3595 -0.4771
  741MOL0     C 2180   5.957   0.968  10.687  0.2257  0.2608 -0.2327
  741MOL0     C 2181   5.983   1.103  10.744 -0.8135  0.9382  0.0110
  741MOL0     C 2182   5.988   1.224  10.646  0.6798 -0.3365  0.4837
  741MOL0     C 2183   5.995   1.359  10.721  0.2346  0.3275  0.0841
  741MOL0     C 2184   5.885   1.395  10.813  0.3843  1.0720  0.3465
  741MOL0     C 2185   5.795   1.412  10.888 -0.3464  0.8848  0.2904
  741MOL0     C 2186   5.994   0.727  10.524  0.9705 -0.1973 -0.0091
  741MOL0     C 2187   6.013   0.624  10.426 -0.1630  0.1493  0.6777
  741MOL0     C 2188   5.885   0.556  10.392 -0.2558 -0.9409  0.3456
  741MOL0     H 2189   6.205   0.234  10.150 -0.4248  0.7033  0.5248
  741MOL0     H 2190   6.322   0.086  10.022 -1.3056  0.3035  0.8368
  741MOL0     H 2191   6.748   0.106  10.069 -1.7738 -0.4295  0.8728
  741MOL0     H 2192   6.748  -0.011   9.931  1.5511 -0.0618  0.5994
  741MOL0     H 2193   6.718  -0.076  10.198  0.2068  2.9176  0.6714
  741MOL0     H 2194   6.549  -0.068  10.150 -0.1186 -1.2162 -1.9473
  741MOL0     H 2195   6.605  -0.199   9.926 -0.9553  0.7733  0.4479
  741MOL0     H 2196   6.762  -0.234  10.007  0.7214  1.8011 -0.4726
  741MOL0     H 2197   6.460  -0.286  10.097 -0.0105 -1.2152 -2.9402
  741MOL0     H 2198   6.546  -0.390  10.005  2.3695  0.5878 -0.5261
  741MOL0     H 2199   6.557  -0.332  10.299 -0.7913 -3.1958  1.3492
  741MOL0     H 2200   6.709  -0.379  10.237 -0.1354  2.5669  1.3941
  741MOL0     H 2201   6.450  -0.525  10.223  1.2225  0.1443 -0.0224
  741MOL0     H 2202   6.597  -0.595  10.141 -0.3324  0.2288 -1.3411
  741MOL0     H 2203   6.591  -0.508  10.425 -0.5974  0.7506 -1.1652
  741MOL0     H 2204   6.703  -0.619  10.353  1.1660  2.2267 -3.2720
  741MOL0     H 2205   6.559  -0.755  10.469  2.1408  3.5300  1.1863
  741MOL0     H 2206   6.406  -0.699  10.375 -0.5317  1.1441 -1.9011
  741MOL0     H 2207   6.743  -0.837  10.287 -1.0245  4.0712  1.1763
  741MOL0     H 2208   6.778  -1.074  10.147  0.1595 -1.4852 -1.7585
  741MOL0     H 2209   6.789  -0.977   9.999  0.7174 -1.8826 -0.4819
  741MOL0     H 2210   6.584  -1.199  10.035 -0.3845 -0.1513 -1.2251
  741MOL0     H 2211   6.614  -1.102   9.904  0.6751  0.2458  0.3075
  741MOL0     H 2212   6.737  -1.289   9.828  2.4199  1.2446 -2.1134
  741MOL0     H 2213   6.869  -1.197   9.898  0.5710 -2.8582 -4.9229
  741MOL0     H 2214   6.716  -1.421  10.044  0.4796  0.2600  2.2698
  741MOL0     H 2215   6.856  -1.449   9.954 -0.8985 -0.0941  0.1354
  741MOL0     H 2216   7.139  -1.267  10.188  1.0495 -0.9792 -3.4250
  741MOL0     H 2217   7.333  -1.306  10.301  2.3923 -1.2555 -1.1535
  741MOL0     H 2218   7.412  -1.456  10.342  0.2255  0.5550  3.2864
  741MOL0     H 2219   7.299  -1.379  10.456 -0.6227  2.7331 -0.2497
  741MOL0     H 2220   7.113  -2.071  10.432  1.9426 -0.2208 -0.9431
  741MOL0     H 2221   7.212  -2.230  10.569 -0.1398 -0.2086 -2.0424
  741MOL0     H 2222   7.433  -2.311  10.631  0.0068  2.9348 -0.4665
  741MOL0     H 2223   7.546  -2.262  10.752  1.0270  0.3594  1.2369
  741MOL0     H 2224   7.302  -2.439  10.795  0.4986 -1.7435 -3.4894
  741MOL0     H 2225   7.467  -2.488  10.769  0.0086  0.6847 -0.8976
  741MOL0     H 2226   7.366  -2.339  11.009 -1.4934  0.4740  0.3696
  741MOL0     H 2227   7.537  -2.373  10.994  0.0040  1.6147 -0.6145
  741MOL0     H 2228   7.466  -2.614  10.953 -1.5720  1.3603 -2.4781
  741MOL0     H 2229   7.306  -2.580  11.003  0.8175  1.3576 -4.5651
  741MOL0     H 2230   7.540  -2.496  11.178  0.6485 -0.3674 -0.5066
  741MOL0     H 2231   7.370  -2.536  11.226 -0.0339  0.0371  0.3632
  741MOL0     H 2232   7.513  -2.723  11.313 -1.2781 -1.9724  1.5872
  741MOL0     H 2233   7.591  -2.733  11.153 -1.4950 -2.7214 -0.6447
  741MOL0     H 2234   7.386  -2.799  11.059  2.4749 -5.5365 -0.2413
  741MOL0     H 2235   7.284  -2.768  11.199 -3.0516 -1.8448 -5.5014
  741MOL0     H 2236   7.450  -2.938  11.323  1.0258 -2.6464 -0.3987
  741MOL0     H 2237   7.498  -2.970  11.159 -0.3607  1.0959 -1.3742
  741MOL0     H 2238   7.363  -1.930  10.836  0.0515  1.7258  0.2178
  741MOL0     H 2239   7.300  -1.757  10.681 -2.0906  0.1891 -0.9584
  741MOL0     H 2240   6.976  -1.719  10.311 -0.8463  1.4487 -0.3331
  741MOL0     H 2241   6.858  -1.585  10.155  0.7984  1.0766 -1.9578
  741MOL0     H 2242   6.679   0.336  10.075  2.1763 -1.1473  1.1100
  741MOL0     H 2243   6.554   0.468  10.222  3.5693 -3.8127  0.8121
  741MOL0     H 2244   6.355   0.646  10.424  0.1348  0.8956  1.8913
  741MOL0     H 2245   6.309   0.850  10.534  0.0654 -1.5529  3.3006
  741MOL0     H 2246   5.898   0.990  10.597 -0.5775  4.7713  1.1237
  741MOL0     H 2247   5.908   0.909  10.765  0.0927  2.7590  1.7324
  741MOL0     H 2248   6.080   1.104  10.796 -0.1335 -0.3858 -1.1628
  741MOL0     H 2249   5.906   1.134  10.815 -2.8541  0.6393 -1.9548
  741MOL0     H 2250   6.065   1.204  10.572  1.5255 -0.7957  1.4536
  741MOL0     H 2251   5.903   1.224  10.577  2.4870 -0.6949 -1.8580
  741MOL0     H 2252   5.988   1.432  10.640  0.2631  0.5917  0.3207
  741MOL0     H 2253   6.095   1.380  10.758  0.3555  0.1040 -0.1138
  741MOL0     H 2254   5.712   1.432  10.953 -1.5642  0.5228 -1.1096
  741MOL0     H 2255   5.896   0.750  10.566  0.2863  2.1426 -2.5578
  741MOL0     H 2256   5.878   0.530  10.286 -2.3844 -0.6628  0.3828
  741MOL0     H 2257   5.884   0.464  10.452 -0.4581  1.0500  3.6806
  741MOL0     H 2258   5.806   0.628  10.415  1.3916  1.4265 -0.8706
  742MOL0     O 2259   5.191  11.452   8.540 -0.3042  0.1891  0.8427
  742MOL0     C 2260   5.235  11.511   8.446  0.8226 -0.2678 -0.4320
  742MOL0     O 2261   5.327  11.605   8.456 -0.4347 -0.2590 -0.1462
  742MOL0     C 2262   5.379  11.617   8.582 -0.1179 -1.3998 -0.1728
  742MOL0     C 2263   5.512  11.602   8.597  0.2943 -0.0172  0.6579
  742MOL0     C 2264   5.574  11.626   8.724 -0.2554 -0.3324  0.0614
  742MOL0     C 2265   5.501  11.677   8.830 -0.1607 -0.1665  0.6969
  742MOL0     O 2266   5.570  11.698   8.951 -0.4459  1.0505 -0.1434
  742MOL0     C 2267   5.500  11.756   9.066  0.1493  0.0322 -1.1666
  742MOL0     C 2268   5.489  11.904   9.063  0.0010  0.1128  0.3118
  742MOL0     C 2269   5.454  11.967   9.202  0.4631  0.8873 -0.6952
  742MOL0     C 2270   5.527  12.092   9.245 -0.0416  0.4031  0.0118
  742MOL0     C 2271   5.459  12.149   9.371  0.1067  0.2689  0.4092
  742MOL0     C 2272   5.515  12.292   9.404  0.2580  0.2050 -0.6688
  742MOL0     C 2273   5.438  12.374   9.498  0.2750 -0.0606  0.2159
  742MOL0     C 2274   5.371  12.295   9.619  1.3648  0.6928  0.1867
  742MOL0     N 2275   5.307  12.386   9.718  0.1894 -1.1848 -1.1329
  742MOL0     C 2276   5.192  12.459   9.702  0.0110 -0.5444 -0.3628
  742MOL0     C 2277   5.184  12.526   9.818  0.1522 -0.3558  0.1111
  742MOL0     C 2278   5.070  12.629   9.836  0.1429 -0.4570  0.1787
  742MOL0     C 2279   5.096  12.771   9.801 -0.0550  0.0054 -0.3994
  742MOL0     C 2280   5.200  12.845   9.891  0.3968  0.3936  0.2838
  742MOL0     C 2281   5.128  12.922  10.000  0.5181  0.2367 -0.4964
  742MOL0     O 2282   5.206  12.951  10.121  0.0177 -0.1418  0.4011
  742MOL0     C 2283   5.253  13.083  10.126 -0.8065  0.0372 -0.0571
  742MOL0     C 2284   5.290  13.163  10.019  0.6112 -0.3356  0.1386
  742MOL0     C 2285   5.347  13.289  10.036 -0.3557 -0.8182 -0.1898
  742MOL0     C 2286   5.410  13.355   9.914  0.4461 -0.0751 -0.0905
  742MOL0     C 2287   5.362  13.339  10.164 -0.1718  0.4010  0.1606
  742MOL0     C 2288   5.409  13.479  10.204  0.2248 -0.0002 -0.2196
  742MOL0     O 2289   5.392  13.522  10.335 -0.6600 -0.0007  0.7731
  742MOL0     C 2290   5.421  13.648  10.375 -1.0494  0.2153 -0.1379
  742MOL0     C 2291   5.559  13.682  10.382 -0.0118  0.2746  0.9715
  742MOL0     C 2292   5.604  13.802  10.433 -0.2404 -0.6451 -0.6857
  742MOL0     C 2293   5.513  13.905  10.454 -0.3041  0.4273  0.6494
  742MOL0     O 2294   5.553  14.033  10.476 -0.0282 -0.4845 -0.3449
  742MOL0     C 2295   5.597  14.104  10.359 -0.2607  0.0945 -0.3279
  742MOL0     C 2296   5.523  14.235  10.323 -0.4770  0.0949 -0.3188
  742MOL0     C 2297   5.576  14.345  10.421 -0.1286  0.6671 -1.3303
  742MOL0     C 2298   5.695  14.419  10.366  0.2414 -0.1548 -0.5592
  742MOL0     C 2299   5.750  14.514  10.471 -0.0399 -0.2406 -0.1101
  742MOL0     C 2300   5.868  14.600  10.421 -0.4898 -0.6080  1.3212
  742MOL0     C 2301   5.834  14.685  10.307  0.2270  0.2763 -0.0222
  742MOL0     C 2302   5.951  14.771  10.269 -1.7065  0.0030  0.2848
  742MOL0    Cl 2303   6.005  14.891  10.399  0.1070 -0.4590  0.3397
  742MOL0     C 2304   5.378  13.876  10.453  0.5727 -0.6111  0.4711
  742MOL0     C 2305   5.330  13.741  10.419 -0.1834 -0.1260  0.6959
  742MOL0     O 2306   5.469  13.552  10.124 -0.0457  0.7656  0.5679
  742MOL0     C 2307   5.342  13.245  10.275  0.2670  0.2025 -0.0780
  742MOL0     C 2308   5.288  13.128  10.255 -0.7611  0.2628  0.0625
  742MOL0     N 2309   5.299  12.509   9.891  0.0936 -0.3702 -0.1462
  742MOL0     N 2310   5.375  12.432   9.829 -0.0244 -0.2130 -1.0434
  742MOL0     C 2311   5.360  11.701   8.804  0.0788 -0.5490  0.3569
  742MOL0     C 2312   5.300  11.680   8.678  0.0031 -0.5278 -0.0652
  742MOL0     C 2313   5.194  11.466   8.315  0.7244 -0.1638  0.2571
  742MOL0     C 2314   5.061  11.423   8.296 -0.3941  0.2334 -0.7582
  742MOL0     C 2315   5.018  11.383   8.163 -0.5809 -0.4305 -0.2267
  742MOL0     C 2316   5.099  11.406   8.056  0.7925 -0.7299 -0.0214
  742MOL0     O 2317   5.051  11.385   7.926 -0.8341  0.0313  0.2130
  742MOL0     C 2318   4.985  11.492   7.853 -0.1855  0.7812 -0.2433
  742MOL0     C 2319   4.830  11.499   7.879  0.4314 -0.3623  0.1357
  742MOL0     C 2320   4.763  11.609   7.812 -0.7138 -0.6220 -0.4855
  742MOL0     C 2321   4.619  11.613   7.844 -0.6204  0.4365  0.4513
  742MOL0     C 2322   4.567  11.718   7.758  0.3975  0.5724 -0.0679
  742MOL0     C 2323   4.525  11.819   7.700 -0.3440 -0.2475 -0.1043
  742MOL0     C 2324   5.230  11.434   8.082 -0.0705  0.1876  0.7153
  742MOL0     C 2325   5.281  11.474   8.206 -0.6576  0.3286  0.6827
  742MOL0     C 2326   5.428  11.518   8.217  0.2738 -0.6369  0.2590
  742MOL0     H 2327   5.579  11.549   8.530 -0.2354  0.0249  0.0723
  742MOL0     H 2328   5.679  11.605   8.742 -0.1324 -0.4705 -0.7546
  742MOL0     H 2329   5.555  11.726   9.156  2.9343 -0.9436 -3.0548
  742MOL0     H 2330   5.400  11.714   9.079  0.0641  0.0116 -1.9038
  742MOL0     H 2331   5.583  11.947   9.027 -1.3908  2.6733 -0.5187
  742MOL0     H 2332   5.418  11.934   8.985 -0.5828  0.6986  1.0581
  742MOL0     H 2333   5.346  11.979   9.212  0.5053  0.1763  0.9618
  742MOL0     H 2334   5.470  11.896   9.284 -3.1368  2.9045  2.0654
  742MOL0     H 2335   5.631  12.066   9.268 -0.1773 -1.8165 -1.5377
  742MOL0     H 2336   5.532  12.168   9.167 -3.7251  3.6518  2.5785
  742MOL0     H 2337   5.470  12.089   9.462 -1.3134 -1.1330 -0.2916
  742MOL0     H 2338   5.353  12.163   9.351  0.5500  3.2155 -0.3219
  742MOL0     H 2339   5.613  12.280   9.451 -0.6159  1.8551  1.7595
  742MOL0     H 2340   5.529  12.363   9.322  0.8967  0.4917 -0.3175
  742MOL0     H 2341   5.361  12.432   9.447 -1.1774 -1.5027  0.7010
  742MOL0     H 2342   5.509  12.440   9.549 -0.6020 -0.1717  1.6334
  742MOL0     H 2343   5.293  12.231   9.576  1.3010 -0.4097  1.8386
  742MOL0     H 2344   5.444  12.228   9.666  0.9381  0.2542  0.2296
  742MOL0     H 2345   5.121  12.458   9.619  2.6382 -2.3808 -2.8174
  742MOL0     H 2346   5.031  12.611   9.937  1.4625 -0.9983  0.6087
  742MOL0     H 2347   4.997  12.591   9.765 -0.7455 -1.1959  1.4515
  742MOL0     H 2348   5.144  12.797   9.706  2.6200  0.8895  1.0895
  742MOL0     H 2349   4.999  12.818   9.817 -0.5202 -1.3366  1.0474
  742MOL0     H 2350   5.279  12.777   9.924  0.8777  0.4844 -0.6340
  742MOL0     H 2351   5.257  12.917   9.831  1.4298 -1.4633 -1.0715
  742MOL0     H 2352   5.089  13.014   9.956  1.4957  0.4740 -0.9101
  742MOL0     H 2353   5.046  12.856  10.029 -1.4324  2.0118 -1.7535
  742MOL0     H 2354   5.302  13.126   9.918  1.6185 -0.9546  0.4731
  742MOL0     H 2355   5.405  13.464   9.908  3.8924  0.6073  4.4532
  742MOL0     H 2356   5.373  13.320   9.817  0.3576 -1.2125  0.3381
  742MOL0     H 2357   5.516  13.329   9.924  0.0320 -1.0488  2.6205
  742MOL0     H 2358   5.636  13.613  10.350  1.3672  2.6005 -1.0461
  742MOL0     H 2359   5.711  13.814  10.442 -0.6148  1.5182  2.6118
  742MOL0     H 2360   5.700  14.134  10.379  0.2164 -1.8588  0.2973
  742MOL0     H 2361   5.599  14.035  10.274  2.0260 -1.0167  0.5550
  742MOL0     H 2362   5.536  14.263  10.218 -0.4632  1.2396 -0.0255
  742MOL0     H 2363   5.414  14.227  10.337 -0.6200  2.6842  0.6811
  742MOL0     H 2364   5.608  14.294  10.512  1.3907 -4.4617 -4.3230
  742MOL0     H 2365   5.496  14.413  10.451  0.9783  2.3863 -2.1218
  742MOL0     H 2366   5.667  14.471  10.274  1.5362 -0.4010 -1.1138
  742MOL0     H 2367   5.767  14.348  10.326  0.5278  0.6559 -1.5249
  742MOL0     H 2368   5.670  14.580  10.502  0.3205 -0.4204  1.2573
  742MOL0     H 2369   5.793  14.456  10.553 -0.5172 -0.9764 -0.3713
  742MOL0     H 2370   5.933  14.526  10.371  0.6108  1.7613 -1.0225
  742MOL0     H 2371   5.920  14.657  10.498  0.4784  0.2091  0.1120
  742MOL0     H 2372   5.762  14.761  10.340  2.5867  2.5957  0.0272
  742MOL0     H 2373   5.808  14.626  10.219  0.4247 -0.3695  0.3427
  742MOL0     H 2374   5.927  14.826  10.177  4.6511 -1.5423 -2.8790
  742MOL0     H 2375   6.040  14.720  10.229  1.6101  5.1865  0.0254
  742MOL0     H 2376   5.306  13.945  10.496 -0.3131 -1.3655  0.2302
  742MOL0     H 2377   5.223  13.725  10.412 -0.6231  2.3267  0.7876
  742MOL0     H 2378   5.373  13.272  10.376  1.9756 -0.3864 -0.4175
  742MOL0     H 2379   5.277  13.063  10.341  0.6310 -1.2991 -0.8790
  742MOL0     H 2380   5.293  11.740   8.879 -0.6613  2.7037 -1.7737
  742MOL0     H 2381   5.198  11.710   8.659 -0.8248 -2.5712  0.9336
  742MOL0     H 2382   4.983  11.408   8.370  0.3150 -6.6865 -0.8016
  742MOL0     H 2383   4.909  11.381   8.158 -1.4928  5.7131  4.6114
  742MOL0     H 2384   5.016  11.590   7.892  2.3972 -0.2646  0.5341
  742MOL0     H 2385   5.004  11.479   7.746  0.5344 -0.0946 -0.0247
  742MOL0     H 2386   4.818  11.507   7.988 -0.4558  3.2620 -0.1025
  742MOL0     H 2387   4.785  11.408   7.838  0.2055  0.2238 -0.9544
  742MOL0     H 2388   4.807  11.695   7.863  4.1894 -2.9371 -0.2533
  742MOL0     H 2389   4.785  11.618   7.705 -0.2171 -2.6376 -0.5850
  742MOL0     H 2390   4.583  11.645   7.942 -1.2962 -0.3731  0.4744
  742MOL0     H 2391   4.569  11.518   7.824  0.5001 -0.2491  0.7551
  742MOL0     H 2392   4.513  11.905   7.638 -0.8116 -0.2024  0.0384
  742MOL0     H 2393   5.284  11.437   7.987 -0.5300 -4.1575  0.0902
  742MOL0     H 2394   5.470  11.507   8.117  0.9166 -1.6211  0.6180
  742MOL0     H 2395   5.440  11.626   8.227  0.4633 -0.6799  0.5235
  742MOL0     H 2396   5.490  11.469   8.293 -0.8974 -2.3395  0.1705
  743MOL0     O 2397   8.985   6.773   3.046 -0.1782  0.4782  0.2117
  743MOL0     C 2398   8.979   6.693   2.955  1.9041 -0.1569  0.9187
  743MOL0     O 2399   9.033   6.562   2.961  0.0163 -0.2308 -0.8660
  743MOL0     C 2400   9.084   6.529   3.085 -0.4177 -0.4625 -0.1299
  743MOL0     C 2401   9.220   6.546   3.114 -1.2998  0.1665 -1.0823
  743MOL0     C 2402   9.280   6.493   3.230 -0.3076  0.3533 -0.0010
  743MOL0     C 2403   9.203   6.427   3.328  0.4349  0.8269  0.7198
  743MOL0     O 2404   9.252   6.367   3.438  0.7638 -0.1044 -0.0286
  743MOL0     C 2405   9.377   6.402   3.492  0.3813 -0.2499 -0.2652
  743MOL0     C 2406   9.411   6.314   3.607  0.2065  0.5374  1.1369
  743MOL0     C 2407   9.547   6.330   3.659 -1.2777 -0.3302  0.1093
  743MOL0     C 2408   9.634   6.210   3.629 -0.0236 -0.4883 -0.1801
  743MOL0     C 2409   9.779   6.256   3.593  0.2038  1.1437  1.1196
  743MOL0     C 2410   9.870   6.139   3.541  0.4240  0.5211  1.0231
  743MOL0     C 2411   9.888   6.028   3.637 -0.0851 -0.4136 -0.4504
  743MOL0     C 2412   9.829   5.890   3.599  0.6523  0.3264 -0.5305
  743MOL0     N 2413   9.907   5.825   3.491  0.2593  0.4601  0.7583
  743MOL0     C 2414  10.010   5.730   3.505  0.2212 -0.0624 -0.2730
  743MOL0     C 2415  10.061   5.718   3.386 -0.1847  0.1294 -1.4014
  743MOL0     C 2416  10.171   5.622   3.345  0.3474 -0.0771 -1.0398
  743MOL0     C 2417  10.121   5.470   3.340 -0.5741  0.3964  0.3826
  743MOL0     C 2418  10.232   5.382   3.255 -0.2155 -0.3793  1.1196
  743MOL0     C 2419  10.184   5.242   3.235  0.5224 -0.2937 -0.4303
  743MOL0     O 2420  10.070   5.249   3.154 -0.2101  0.3365  0.2142
  743MOL0     C 2421  10.066   5.142   3.069 -0.7521  0.6431  0.4548
  743MOL0     C 2422  10.172   5.130   2.969  0.1861 -0.6810  0.4692
  743MOL0     C 2423  10.193   5.013   2.894  0.6669  0.3974 -0.3118
  743MOL0     C 2424  10.303   5.005   2.788  0.4534  0.5856 -0.5304
  743MOL0     C 2425  10.100   4.906   2.924  1.2897  0.9756 -0.3688
  743MOL0     C 2426  10.115   4.766   2.871  0.2466  0.3993 -0.2352
  743MOL0     O 2427  10.059   4.665   2.941  0.3154  0.1242  0.0391
  743MOL0     C 2428  10.066   4.541   2.874 -0.0289  0.7388  0.3863
  743MOL0     C 2429  10.124   4.437   2.950  0.5403 -0.1003  0.3124
  743MOL0     C 2430  10.133   4.306   2.899  0.5236 -0.5090 -0.6242
  743MOL0     C 2431  10.069   4.271   2.774  0.2065 -0.1760 -0.2654
  743MOL0     O 2432  10.092   4.154   2.702 -0.8918  0.2901  0.5286
  743MOL0     C 2433  10.069   4.025   2.766 -0.7732  0.0412 -0.4676
  743MOL0     C 2434  10.000   3.933   2.659  0.4414 -0.7642  0.1569
  743MOL0     C 2435  10.096   3.886   2.555  0.3212  0.1401 -0.0961
  743MOL0     C 2436  10.015   3.790   2.460  0.3152 -0.5282 -0.6505
  743MOL0     C 2437  10.077   3.777   2.320 -0.1848 -0.4251 -0.4442
  743MOL0     C 2438   9.972   3.725   2.220 -0.0743 -0.2375  0.3570
  743MOL0     C 2439   9.865   3.815   2.165  1.0241 -0.4240  0.5401
  743MOL0     C 2440   9.750   3.740   2.095 -0.3633  0.1548 -0.9675
  743MOL0    Cl 2441   9.631   3.856   2.032  0.2589  0.4355 -0.0442
  743MOL0     C 2442  10.011   4.374   2.703  0.4739  0.3298 -0.6353
  743MOL0     C 2443  10.007   4.513   2.752  0.3927 -0.9039  0.3185
  743MOL0     O 2444  10.188   4.750   2.775 -0.2763  1.1523 -0.1454
  743MOL0     C 2445   9.992   4.923   3.018 -0.6721  0.6758 -1.3792
  743MOL0     C 2446   9.987   5.031   3.093 -0.3108  0.1320 -0.7247
  743MOL0     N 2447  10.002   5.804   3.298  0.3841  0.7460  0.3330
  743MOL0     N 2448   9.921   5.867   3.358  0.0641 -0.2851  1.0417
  743MOL0     C 2449   9.071   6.408   3.296  0.0922 -0.2603 -0.0981
  743MOL0     C 2450   8.999   6.462   3.180  0.1956  0.2072 -0.2744
  743MOL0     C 2451   8.889   6.733   2.837 -0.0630  0.2582 -0.1858
  743MOL0     C 2452   8.816   6.852   2.850  0.1640 -0.3267 -0.2337
  743MOL0     C 2453   8.720   6.889   2.753 -0.1318  0.2326  0.3891
  743MOL0     C 2454   8.716   6.818   2.641  1.1987  0.0872  0.1632
  743MOL0     O 2455   8.634   6.854   2.527  0.5661 -0.1951  0.3407
  743MOL0     C 2456   8.540   6.963   2.540  0.3988  0.6500  0.6839
  743MOL0     C 2457   8.609   7.096   2.526 -0.7167 -0.3989  0.0792
  743MOL0     C 2458   8.507   7.203   2.575 -0.2302  1.2537 -1.2554
  743MOL0     C 2459   8.589   7.319   2.652  1.1810  0.3513  0.3474
  743MOL0     C 2460   8.677   7.389   2.559 -1.0250  0.1336  0.0894
  743MOL0     C 2461   8.741   7.462   2.487  0.0657 -0.4134 -0.1632
  743MOL0     C 2462   8.797   6.704   2.626  0.5850 -0.2686  0.4382
  743MOL0     C 2463   8.881   6.659   2.719 -0.1188  0.3099  0.6845
  743MOL0     C 2464   8.955   6.536   2.686 -0.3823  0.2765 -0.0534
  743MOL0     H 2465   9.289   6.589   3.043 -0.4537 -2.7715 -2.1820
  743MOL0     H 2466   9.389   6.498   3.234 -0.2057  5.1924 -2.4612
  743MOL0     H 2467   9.372   6.507   3.522  1.8151 -0.0168 -0.7478
  743MOL0     H 2468   9.456   6.408   3.417  1.1062 -0.1805  0.4856
  743MOL0     H 2469   9.341   6.340   3.687  0.4079  2.1005  0.8242
  743MOL0     H 2470   9.394   6.211   3.574  1.4608  1.3744 -2.5405
  743MOL0     H 2471   9.589   6.421   3.613 -1.6271 -1.1860 -2.0345
  743MOL0     H 2472   9.540   6.340   3.767  0.6431  0.0903  0.2260
  743MOL0     H 2473   9.651   6.149   3.719  0.3712 -0.5688 -0.3073
  743MOL0     H 2474   9.592   6.151   3.547 -0.3747 -0.5185  0.0169
  743MOL0     H 2475   9.823   6.299   3.684 -1.3825  2.4631  1.3009
  743MOL0     H 2476   9.787   6.338   3.522 -2.2266  1.9999  1.7560
  743MOL0     H 2477   9.836   6.113   3.440 -0.1877  2.3288  0.7356
  743MOL0     H 2478   9.964   6.192   3.520 -0.2950  2.9070  3.3436
  743MOL0     H 2479   9.843   6.059   3.732 -1.8533 -1.7743 -0.7826
  743MOL0     H 2480   9.992   6.011   3.667 -1.0031 -1.1241  2.7267
  743MOL0     H 2481   9.820   5.824   3.686 -2.0759 -1.2735 -1.9143
  743MOL0     H 2482   9.724   5.897   3.571  0.1204 -1.2513  0.8669
  743MOL0     H 2483  10.046   5.676   3.592  2.0344 -1.7470 -1.9765
  743MOL0     H 2484  10.261   5.639   3.405 -1.0295  0.8338  0.8676
  743MOL0     H 2485  10.206   5.647   3.245  0.0544  2.5437 -0.5482
  743MOL0     H 2486  10.111   5.437   3.444 -1.6803  0.7189  0.3929
  743MOL0     H 2487  10.023   5.467   3.290  0.4814  4.2746 -2.2917
  743MOL0     H 2488  10.253   5.417   3.154 -0.4721  3.2203  2.2009
  743MOL0     H 2489  10.324   5.366   3.311  1.5399  0.5435 -1.3602
  743MOL0     H 2490  10.270   5.189   3.192  1.0367  1.6558 -2.0042
  743MOL0     H 2491  10.166   5.198   3.333 -1.3484  0.5247 -0.3736
  743MOL0     H 2492  10.233   5.219   2.957 -0.9381  0.1874  1.0366
  743MOL0     H 2493  10.373   4.927   2.819 -0.8510 -1.1514 -1.7731
  743MOL0     H 2494  10.359   5.098   2.775  1.2030  0.1535 -0.3901
  743MOL0     H 2495  10.262   4.984   2.689  0.7503  2.5813 -1.1347
  743MOL0     H 2496  10.167   4.469   3.044  0.4317  2.5263 -0.4571
  743MOL0     H 2497  10.173   4.226   2.961 -0.6651 -0.0304  0.8193
  743MOL0     H 2498  10.159   3.973   2.798  0.6598  2.4247 -0.3557
  743MOL0     H 2499  10.007   4.037   2.856 -0.8336 -1.4026 -0.2907
  743MOL0     H 2500   9.957   3.844   2.706 -1.9206 -0.0779 -0.6011
  743MOL0     H 2501   9.911   3.979   2.617 -0.5501 -1.2414  1.6404
  743MOL0     H 2502  10.181   3.833   2.598  3.5473  1.8439 -3.7272
  743MOL0     H 2503  10.127   3.968   2.490  4.0869  0.7215  2.1966
  743MOL0     H 2504   9.918   3.840   2.455  1.8073  2.6252 -0.6702
  743MOL0     H 2505   9.995   3.691   2.502 -2.1663 -0.6658 -1.9673
  743MOL0     H 2506  10.118   3.874   2.290  0.2773 -0.7970 -1.0471
  743MOL0     H 2507  10.172   3.723   2.330  0.8762  1.6671  2.1465
  743MOL0     H 2508   9.915   3.649   2.274  0.9939 -2.6589 -1.7334
  743MOL0     H 2509  10.021   3.672   2.139 -1.1066  1.6773 -1.6309
  743MOL0     H 2510   9.903   3.889   2.094 -0.9964 -1.6386 -1.9637
  743MOL0     H 2511   9.827   3.873   2.249  1.6550  1.6389 -0.5275
  743MOL0     H 2512   9.700   3.680   2.172  2.4972  0.2207  1.0737
  743MOL0     H 2513   9.776   3.661   2.023  0.6945  1.4268 -2.0338
  743MOL0     H 2514   9.986   4.352   2.600  1.0145 -1.7339 -0.3588
  743MOL0     H 2515   9.948   4.589   2.702  0.5720  2.6733  4.8309
  743MOL0     H 2516   9.928   4.843   3.054  0.0854  1.3384  1.7266
  743MOL0     H 2517   9.916   5.048   3.173 -0.1544  0.8932 -0.7403
  743MOL0     H 2518   9.017   6.346   3.366 -0.2051  0.4372  0.3055
  743MOL0     H 2519   8.893   6.437   3.175 -0.3579  1.8923  1.4712
  743MOL0     H 2520   8.819   6.909   2.942  1.5923 -1.1675  0.2794
  743MOL0     H 2521   8.648   6.969   2.769 -2.9807 -2.1189  0.1104
  743MOL0     H 2522   8.475   6.956   2.453  0.5576 -2.2428  0.7015
  743MOL0     H 2523   8.489   6.955   2.636  3.6320 -3.1892  2.3586
  743MOL0     H 2524   8.651   7.119   2.428 -2.0249 -3.5175 -1.3379
  743MOL0     H 2525   8.695   7.095   2.594  0.3140  3.7927 -0.9036
  743MOL0     H 2526   8.448   7.232   2.488 -0.0827 -2.8237 -2.9282
  743MOL0     H 2527   8.434   7.170   2.650  0.1508 -1.7702 -2.0789
  743MOL0     H 2528   8.641   7.282   2.742 -0.3995 -2.2377  0.2841
  743MOL0     H 2529   8.518   7.398   2.677  0.9866  0.4590 -0.5352
  743MOL0     H 2530   8.800   7.536   2.438 -2.0664  2.4489  1.2700
  743MOL0     H 2531   8.801   6.663   2.526 -1.4189 -2.2697  1.1030
  743MOL0     H 2532   8.949   6.523   2.577  0.7476  1.1317 -0.2344
  743MOL0     H 2533   9.061   6.554   2.707 -0.0706 -0.5430 -0.8482
  743MOL0     H 2534   8.914   6.448   2.737 -2.5595  1.7656  0.8897
  744MOL0     O 2535   7.687   0.199  10.600  0.5058  1.2068  0.3953
  744MOL0     C 2536   7.763   0.301  10.574  0.6349 -0.4218 -0.5430
  744MOL0     O 2537   7.867   0.337  10.641  0.1932  1.2508  0.2110
  744MOL0     C 2538   7.942   0.237  10.700  0.0933  0.2148 -0.9745
  744MOL0     C 2539   8.078   0.235  10.663  0.5291 -0.2962  0.6781
  744MOL0     C 2540   8.168   0.145  10.713  0.3515  0.4353  0.0996
  744MOL0     C 2541   8.119   0.054  10.817  0.0411 -0.0012 -0.2343
  744MOL0     O 2542   8.197  -0.034  10.889 -0.1161  0.6852 -0.6512
  744MOL0     C 2543   8.287  -0.111  10.806  0.2659 -0.4775 -0.1798
  744MOL0     C 2544   8.243  -0.258  10.797  0.1410 -0.4617 -1.0521
  744MOL0     C 2545   8.238  -0.315  10.941  0.0532 -0.0475 -0.1581
  744MOL0     C 2546   8.246  -0.472  10.936 -1.2697  0.1795 -0.3605
  744MOL0     C 2547   8.318  -0.538  11.057  0.0519  0.3404 -0.3764
  744MOL0     C 2548   8.249  -0.525  11.193  0.4516  0.2633  0.4256
  744MOL0     C 2549   8.099  -0.553  11.198  0.3976  0.3642  0.0957
  744MOL0     C 2550   8.053  -0.592  11.343  0.6360 -0.2001 -0.2470
  744MOL0     N 2551   8.065  -0.485  11.443  0.6469  0.6127 -0.3102
  744MOL0     C 2552   8.054  -0.348  11.439  0.8936 -1.6741  0.2831
  744MOL0     C 2553   8.062  -0.305  11.572  0.5457  0.0271 -0.2838
  744MOL0     C 2554   8.033  -0.167  11.625  0.2267  0.1424  0.4603
  744MOL0     C 2555   7.881  -0.147  11.625  0.5836 -0.6500 -0.1601
  744MOL0     C 2556   7.854  -0.000  11.643  0.7190  0.2596 -0.8511
  744MOL0     C 2557   7.722   0.021  11.725  1.1427 -0.6474  0.1256
  744MOL0     O 2558   7.698   0.159  11.737 -1.2380  0.2759  0.5084
  744MOL0     C 2559   7.605   0.189  11.834 -0.0305  0.1381 -0.2427
  744MOL0     C 2560   7.630   0.300  11.914  0.0708 -0.1192 -0.3898
  744MOL0     C 2561   7.532   0.349  12.004  0.7971 -0.0643 -0.6798
  744MOL0     C 2562   7.579   0.464  12.088 -0.1554  0.5105  0.0629
  744MOL0     C 2563   7.404   0.289  12.006 -0.4363 -0.7420 -0.1930
  744MOL0     C 2564   7.320   0.336  12.111 -0.0949 -0.0859 -0.0738
  744MOL0     O 2565   7.275   0.241  12.206 -0.2454  0.4479  0.4656
  744MOL0     C 2566   7.156   0.267  12.261 -0.2577 -1.0725  0.7743
  744MOL0     C 2567   7.047   0.209  12.195  0.1389 -0.6562  0.3249
  744MOL0     C 2568   6.919   0.243  12.244 -0.0903 -0.4708  0.6153
  744MOL0     C 2569   6.906   0.337  12.345  0.2506 -0.6395  0.8078
  744MOL0     O 2570   6.780   0.379  12.386 -0.0123 -0.1390 -0.5719
  744MOL0     C 2571   6.730   0.327  12.509 -0.1645  0.1644  0.4301
  744MOL0     C 2572   6.596   0.386  12.554 -0.3841  0.6775 -0.1719
  744MOL0     C 2573   6.606   0.533  12.550 -0.2221  0.3715 -0.6942
  744MOL0     C 2574   6.716   0.584  12.634  0.6503  0.3351 -0.1364
  744MOL0     C 2575   6.715   0.543  12.782 -0.3945 -0.5507 -0.1364
  744MOL0     C 2576   6.623   0.627  12.879 -0.1741  0.3551 -1.2638
  744MOL0     C 2577   6.654   0.602  13.027  0.4652 -0.1633  0.4000
  744MOL0     C 2578   6.553   0.675  13.120 -0.5508  0.3852 -1.0702
  744MOL0    Cl 2579   6.454   0.538  13.204 -0.1264  0.2550  0.2745
  744MOL0     C 2580   7.020   0.387  12.411  0.3187  0.0540  0.4454
  744MOL0     C 2581   7.143   0.351  12.371  0.6517 -1.0403 -0.3160
  744MOL0     O 2582   7.273   0.445  12.092 -0.3167  0.1851 -0.2308
  744MOL0     C 2583   7.379   0.179  11.928 -0.0812 -0.6018 -0.3998
  744MOL0     C 2584   7.482   0.122  11.848 -0.5918  0.0199 -0.9346
  744MOL0     N 2585   8.089  -0.415  11.651  0.0168 -0.8084 -0.0243
  744MOL0     N 2586   8.076  -0.518  11.578 -0.5382 -0.2854  0.6749
  744MOL0     C 2587   7.988   0.060  10.859  0.0764  0.5106  0.5395
  744MOL0     C 2588   7.906   0.148  10.796  0.5836  0.4580  0.6569
  744MOL0     C 2589   7.741   0.386  10.452 -0.3157 -0.7353 -0.3557
  744MOL0     C 2590   7.852   0.467  10.397 -1.0883  0.7965 -0.5652
  744MOL0     C 2591   7.839   0.569  10.304  0.2359  0.2377 -0.3524
  744MOL0     C 2592   7.722   0.573  10.232 -0.1852  1.3484  0.1503
  744MOL0     O 2593   7.709   0.649  10.119  0.4567 -0.4174 -0.1131
  744MOL0     C 2594   7.688   0.784  10.149  0.5308 -0.1901 -0.2839
  744MOL0     C 2595   7.540   0.807  10.142  0.1755 -0.0087  0.2861
  744MOL0     C 2596   7.511   0.941  10.191  0.3599 -0.0054 -0.0869
  744MOL0     C 2597   7.388   0.995  10.122  0.7347  0.3870  0.2356
  744MOL0     C 2598   7.271   0.914  10.146  1.1712 -1.0006 -0.6666
  744MOL0     C 2599   7.169   0.850  10.169 -0.4028 -0.6901  0.6391
  744MOL0     C 2600   7.612   0.493  10.266 -0.1450  0.2990 -0.1218
  744MOL0     C 2601   7.623   0.407  10.382  0.3099 -0.2535 -1.1138
  744MOL0     C 2602   7.504   0.338  10.434  0.2884  0.4155 -1.0171
  744MOL0     H 2603   8.124   0.304  10.593  2.2378 -2.5819 -0.5669
  744MOL0     H 2604   8.269   0.130  10.677 -0.4026 -2.5824 -1.0677
  744MOL0     H 2605   8.394  -0.101  10.827  0.0090 -0.5871  1.2618
  744MOL0     H 2606   8.278  -0.084  10.700 -1.3440  0.4446  0.1584
  744MOL0     H 2607   8.151  -0.265  10.739  1.6287 -2.4452 -3.3235
  744MOL0     H 2608   8.315  -0.309  10.733 -0.9794 -2.1653 -1.0018
  744MOL0     H 2609   8.324  -0.281  11.000 -1.3190 -1.2028  2.6584
  744MOL0     H 2610   8.143  -0.282  10.984  1.3532 -0.4604  3.3690
  744MOL0     H 2611   8.141  -0.504  10.935 -0.9632 -1.1338  2.0045
  744MOL0     H 2612   8.291  -0.510  10.844  0.0818  1.2483 -0.1662
  744MOL0     H 2613   8.418  -0.494  11.062  1.9559 -3.6855  1.9789
  744MOL0     H 2614   8.348  -0.640  11.030  0.6469  0.0164  1.3640
  744MOL0     H 2615   8.307  -0.590  11.259 -2.7160 -1.2815  1.9347
  744MOL0     H 2616   8.253  -0.422  11.229 -0.9707 -0.1279  1.7809
  744MOL0     H 2617   8.076  -0.638  11.134 -1.3294  0.5665  0.3966
  744MOL0     H 2618   8.049  -0.463  11.160 -2.5789 -2.2493 -2.8162
  744MOL0     H 2619   7.950  -0.627  11.337 -0.5241  2.6328  1.3533
  744MOL0     H 2620   8.104  -0.676  11.391  0.5546 -0.4993 -0.6750
  744MOL0     H 2621   8.021  -0.292  11.352  3.7131 -1.7496 -0.9444
  744MOL0     H 2622   8.087  -0.091  11.567 -0.3762  0.7112  0.6254
  744MOL0     H 2623   8.059  -0.156  11.731 -4.6082 -0.0005  1.8736
  744MOL0     H 2624   7.828  -0.187  11.539 -1.2190 -2.6144  1.7279
  744MOL0     H 2625   7.841  -0.198  11.713  0.7917  0.9436  0.9230
  744MOL0     H 2626   7.940   0.054  11.685 -0.7386  3.7046 -1.9380
  744MOL0     H 2627   7.843   0.044  11.543 -2.8854 -0.7113 -1.0122
  744MOL0     H 2628   7.642  -0.024  11.666 -0.7608  4.7805 -2.1190
  744MOL0     H 2629   7.743  -0.015  11.826  0.1575  0.7785  0.8764
  744MOL0     H 2630   7.713   0.362  11.883 -2.3976  3.8124  0.1393
  744MOL0     H 2631   7.670   0.510  12.049  0.7402 -1.5922 -0.4487
  744MOL0     H 2632   7.585   0.425  12.190  0.1514 -0.1485 -0.2013
  744MOL0     H 2633   7.507   0.546  12.093  1.9722  2.4596  0.1283
  744MOL0     H 2634   7.062   0.135  12.118  0.1831  0.5773 -0.8824
  744MOL0     H 2635   6.828   0.207  12.197 -0.9164 -0.7962  2.4095
  744MOL0     H 2636   6.712   0.220  12.493  1.6839 -0.0664 -0.2892
  744MOL0     H 2637   6.816   0.332  12.577  0.9279 -1.6296 -0.7533
  744MOL0     H 2638   6.533   0.350  12.471  1.5285  1.1124 -1.8890
  744MOL0     H 2639   6.557   0.356  12.652 -2.3631 -0.9558 -1.3664
  744MOL0     H 2640   6.517   0.575  12.599  2.2875  1.7893  3.1209
  744MOL0     H 2641   6.608   0.564  12.445 -0.8566 -0.8321 -1.0858
  744MOL0     H 2642   6.708   0.693  12.630  1.0032  0.3569 -0.2390
  744MOL0     H 2643   6.803   0.545  12.580 -1.9990 -0.3890 -4.3514
  744MOL0     H 2644   6.689   0.437  12.791 -0.2552 -0.6204 -0.5452
  744MOL0     H 2645   6.816   0.556  12.823 -0.2289  1.5245 -1.0568
  744MOL0     H 2646   6.522   0.593  12.852 -0.1857 -1.4205  0.8113
  744MOL0     H 2647   6.624   0.735  12.861 -3.3356  0.1877 -3.3781
  744MOL0     H 2648   6.755   0.641  13.047  1.3533 -0.5186 -2.8105
  744MOL0     H 2649   6.659   0.494  13.043  0.3140 -0.4070 -1.0226
  744MOL0     H 2650   6.494   0.740  13.055 -3.0716  1.5817  2.1375
  744MOL0     H 2651   6.613   0.726  13.195  0.9174 -2.5500 -0.0832
  744MOL0     H 2652   6.999   0.448  12.498 -4.4414  1.0126 -1.0599
  744MOL0     H 2653   7.229   0.383  12.430 -0.2369  0.5321  0.1620
  744MOL0     H 2654   7.290   0.117  11.934  1.1486 -2.3981  0.3647
  744MOL0     H 2655   7.461   0.035  11.786  0.9965  1.5416 -3.7836
  744MOL0     H 2656   7.957  -0.005  10.941 -0.4871 -1.6188 -1.2517
  744MOL0     H 2657   7.800   0.134  10.817  1.2142 -0.1762  3.7735
  744MOL0     H 2658   7.952   0.462  10.440 -0.4336 -0.3231 -2.1179
  744MOL0     H 2659   7.916   0.639  10.274 -1.7956  1.8676 -2.1041
  744MOL0     H 2660   7.715   0.817  10.250 -2.1097 -1.1633  0.8082
  744MOL0     H 2661   7.727   0.849  10.069  1.4607 -3.5788 -2.8107
  744MOL0     H 2662   7.477   0.734  10.193 -1.5856  0.2169 -1.4302
  744MOL0     H 2663   7.516   0.803  10.035 -0.2302 -3.0799  0.4007
  744MOL0     H 2664   7.485   0.939  10.297  1.6045 -0.2513  0.2341
  744MOL0     H 2665   7.598   1.006  10.182  1.5147 -1.3556  0.8166
  744MOL0     H 2666   7.414   1.002  10.016  1.5004  3.4536  0.5474
  744MOL0     H 2667   7.377   1.100  10.150  3.8845  1.0477 -0.6392
  744MOL0     H 2668   7.091   0.777  10.164 -0.7046 -0.2972 -0.9905
  744MOL0     H 2669   7.532   0.501  10.193 -0.2012 -1.3159 -0.2779
  744MOL0     H 2670   7.490   0.378  10.535  0.7293 -0.2246 -0.6911
  744MOL0     H 2671   7.425   0.365  10.363 -1.0807 -2.1768 -0.6125
  744MOL0     H 2672   7.515   0.230  10.450  2.9321  0.4983 -1.8226
  745MOL0     O 2673   8.620   2.617   0.304 -0.7976  0.9539  0.4555
  745MOL0     C 2674   8.612   2.717   0.371  0.4735  0.7830 -0.4515
  745MOL0     O 2675   8.538   2.724   0.484 -0.6065  0.3602 -1.0976
  745MOL0     C 2676   8.489   2.624   0.550 -0.1236  0.5692 -0.2190
  745MOL0     C 2677   8.530   2.487   0.558  0.5450 -0.6244  0.3309
  745MOL0     C 2678   8.467   2.397   0.640 -0.5016  0.3960  0.7188
  745MOL0     C 2679   8.361   2.439   0.727  0.6186 -0.1833  0.1355
  745MOL0     O 2680   8.296   2.350   0.799 -0.4157  0.3403 -0.8907
  745MOL0     C 2681   8.262   2.225   0.736 -0.5807  0.2972  0.0260
  745MOL0     C 2682   8.182   2.252   0.612 -0.0619  0.0582  0.1116
  745MOL0     C 2683   8.100   2.138   0.558  0.1910  1.1058 -0.4483
  745MOL0     C 2684   8.173   2.013   0.515  0.3235 -0.0611 -0.1254
  745MOL0     C 2685   8.215   1.914   0.615 -0.2989  0.2690  0.0309
  745MOL0     C 2686   8.241   1.778   0.547 -0.0123  0.2891  1.2247
  745MOL0     C 2687   8.275   1.675   0.652 -0.0128  0.7128 -0.3492
  745MOL0     C 2688   8.291   1.528   0.601  0.0901 -0.5451  0.1182
  745MOL0     N 2689   8.333   1.448   0.719  0.1013 -0.4618  0.0247
  745MOL0     C 2690   8.447   1.464   0.790  0.6647 -0.3562  0.0640
  745MOL0     C 2691   8.441   1.387   0.899  1.3409 -1.0980 -0.1688
  745MOL0     C 2692   8.545   1.394   1.006 -0.3594 -0.2451  1.4204
  745MOL0     C 2693   8.507   1.510   1.104  0.0610  0.6105  0.5445
  745MOL0     C 2694   8.620   1.571   1.192 -0.2491  0.2280  0.9293
  745MOL0     C 2695   8.722   1.483   1.258 -0.5526  0.1919 -0.6998
  745MOL0     O 2696   8.827   1.444   1.160 -0.3498  0.2121 -0.4907
  745MOL0     C 2697   8.901   1.337   1.191  0.3069  1.2480 -0.9979
  745MOL0     C 2698   8.904   1.274   1.316 -0.5686 -0.3420 -0.5393
  745MOL0     C 2699   8.994   1.163   1.338  0.0979  0.7021 -0.4350
  745MOL0     C 2700   8.984   1.082   1.462  0.2779  0.3835  0.0508
  745MOL0     C 2701   9.073   1.117   1.217 -1.2284  0.0830 -1.2994
  745MOL0     C 2702   9.182   1.005   1.230  0.5803  1.4984  0.2471
  745MOL0     O 2703   9.213   0.944   1.110  0.4930 -0.4245 -0.1131
  745MOL0     C 2704   9.322   0.866   1.094  0.6425  0.7358 -0.1558
  745MOL0     C 2705   9.427   0.859   1.183 -0.2654  0.1019  0.0364
  745MOL0     C 2706   9.527   0.770   1.145 -0.3819  0.6445 -0.6725
  745MOL0     C 2707   9.524   0.684   1.032 -0.1476 -0.3967 -0.9484
  745MOL0     O 2708   9.635   0.605   1.023 -0.8412  0.3686 -0.1529
  745MOL0     C 2709   9.648   0.536   0.899  0.2019  0.6256 -0.1189
  745MOL0     C 2710   9.591   0.397   0.912  0.4229 -0.1773  0.0149
  745MOL0     C 2711   9.675   0.316   1.023  0.2578  0.1995  0.5938
  745MOL0     C 2712   9.620   0.174   1.034 -0.0848 -0.6541 -0.2886
  745MOL0     C 2713   9.714   0.095   1.126 -0.3539  0.0877 -0.3771
  745MOL0     C 2714   9.663  -0.047   1.156  0.0753  0.0736  0.4468
  745MOL0     C 2715   9.722  -0.098   1.282 -0.6596  0.3248 -0.8591
  745MOL0     C 2716   9.743  -0.250   1.289 -0.4937  0.1101  0.2022
  745MOL0    Cl 2717   9.838  -0.266   1.437 -0.0889  0.3738  0.3844
  745MOL0     C 2718   9.418   0.698   0.947 -0.7750  1.1055 -0.1508
  745MOL0     C 2719   9.321   0.788   0.973  0.5754  0.7435 -0.8720
  745MOL0     O 2720   9.213   0.968   1.342 -0.5696 -0.7892  0.0119
  745MOL0     C 2721   9.066   1.184   1.100  0.1110  0.8092  0.3287
  745MOL0     C 2722   8.983   1.291   1.088  0.1579 -0.4412  0.3032
  745MOL0     N 2723   8.313   1.335   0.907 -0.4514  0.3440 -0.5970
  745MOL0     N 2724   8.243   1.380   0.802  0.4138 -0.1153  1.6117
  745MOL0     C 2725   8.324   2.573   0.724 -0.3416  0.0169 -0.1553
  745MOL0     C 2726   8.393   2.667   0.644  0.6161  1.0380 -1.1176
  745MOL0     C 2727   8.682   2.838   0.325 -0.2544 -0.0522 -0.1706
  745MOL0     C 2728   8.684   2.863   0.189 -0.3411  0.2091 -0.6684
  745MOL0     C 2729   8.759   2.965   0.129 -0.0019  0.7821 -0.7939
  745MOL0     C 2730   8.821   3.059   0.218  0.1019 -2.2117  0.1788
  745MOL0     O 2731   8.893   3.161   0.179  0.2325 -0.0960  0.1091
  745MOL0     C 2732   8.910   3.195   0.040  0.2839  0.0688  1.3062
  745MOL0     C 2733   8.943   3.355   0.025 -0.3013  0.2615 -0.5237
  745MOL0     C 2734   8.846   3.448   0.096  0.2598 -0.7051 -0.0198
  745MOL0     C 2735   8.876   3.470   0.246  1.3170  0.3018 -0.1833
  745MOL0     C 2736   9.016   3.512   0.287  0.0689 -0.4395 -0.0023
  745MOL0     C 2737   9.126   3.529   0.338 -0.0216  0.7568 -0.0687
  745MOL0     C 2738   8.818   3.042   0.347 -0.1800  0.7149 -0.7157
  745MOL0     C 2739   8.746   2.933   0.410  0.3028  0.2460  0.5841
  745MOL0     C 2740   8.727   2.922   0.563  0.6254 -0.1676 -0.0234
  745MOL0     H 2741   8.605   2.437   0.498 -1.5075 -0.0685 -2.9309
  745MOL0     H 2742   8.508   2.297   0.633  4.2939  2.2509 -2.8636
  745MOL0     H 2743   8.202   2.166   0.806  0.7116  0.2592  1.1417
  745MOL0     H 2744   8.352   2.165   0.719  0.5692  1.9281  0.1776
  745MOL0     H 2745   8.112   2.335   0.626 -1.1555 -0.5843 -1.2290
  745MOL0     H 2746   8.248   2.279   0.529  2.1632  1.3603  2.1710
  745MOL0     H 2747   8.025   2.101   0.629  1.8582  2.4410  2.1538
  745MOL0     H 2748   8.049   2.189   0.476 -0.1265  0.3726 -0.7131
  745MOL0     H 2749   8.101   1.960   0.452  0.6602 -0.0212 -0.5549
  745MOL0     H 2750   8.255   2.052   0.453  2.6211 -3.9559  0.1067
  745MOL0     H 2751   8.146   1.900   0.698 -0.8502 -3.7258 -0.9006
  745MOL0     H 2752   8.307   1.963   0.649 -1.1195  0.9167  1.3807
  745MOL0     H 2753   8.145   1.757   0.500  0.2852  2.1588 -0.3701
  745MOL0     H 2754   8.318   1.784   0.470 -0.2838  0.2871  0.9497
  745MOL0     H 2755   8.217   1.681   0.745 -1.3706  0.0270 -1.1149
  745MOL0     H 2756   8.374   1.704   0.686  0.3584  0.4430 -1.1808
  745MOL0     H 2757   8.200   1.482   0.561  0.7510 -0.0673 -2.0564
  745MOL0     H 2758   8.354   1.523   0.512 -2.2592 -3.1897 -1.5620
  745MOL0     H 2759   8.524   1.537   0.770 -1.0319  1.5310  0.1925
  745MOL0     H 2760   8.641   1.415   0.957  0.6330 -1.0665  2.9478
  745MOL0     H 2761   8.558   1.302   1.062  0.0277 -0.6939  0.6204
  745MOL0     H 2762   8.455   1.586   1.044  0.4848  1.4798  1.2585
  745MOL0     H 2763   8.423   1.467   1.159  1.1534 -1.8087  0.4620
  745MOL0     H 2764   8.667   1.646   1.128 -0.1223  0.4979  1.3352
  745MOL0     H 2765   8.556   1.626   1.262  1.2559  1.1340  1.6389
  745MOL0     H 2766   8.777   1.531   1.339 -1.2984  0.2839 -0.2337
  745MOL0     H 2767   8.666   1.396   1.294  4.0752 -3.1581 -0.6444
  745MOL0     H 2768   8.838   1.309   1.395 -0.3451  0.9289 -0.8898
  745MOL0     H 2769   8.889   1.107   1.511  0.5434  2.5073 -0.4184
  745MOL0     H 2770   9.066   1.096   1.533 -0.8634  1.0146  1.2983
  745MOL0     H 2771   8.978   0.979   1.426  0.9114  2.1523 -6.1164
  745MOL0     H 2772   9.439   0.897   1.284  1.5438 -0.1359 -0.0567
  745MOL0     H 2773   9.621   0.769   1.199 -0.8750 -0.2256  0.2029
  745MOL0     H 2774   9.602   0.589   0.815 -0.5507  0.5719  0.2464
  745MOL0     H 2775   9.752   0.514   0.873 -0.1236 -2.5211  0.8847
  745MOL0     H 2776   9.483   0.392   0.931  0.2624  0.5890 -0.6278
  745MOL0     H 2777   9.585   0.344   0.816 -0.7022  0.8111 -0.4978
  745MOL0     H 2778   9.685   0.371   1.117  4.7195  0.0494  0.4487
  745MOL0     H 2779   9.780   0.317   0.990  0.3899 -1.8954  0.8167
  745MOL0     H 2780   9.625   0.132   0.933  0.1884  2.9554 -1.9277
  745MOL0     H 2781   9.516   0.186   1.066  0.6085  1.7960  1.3256
  745MOL0     H 2782   9.814   0.092   1.082 -0.8030 -1.3662 -1.3785
  745MOL0     H 2783   9.727   0.145   1.222  0.0820  0.6599 -0.7317
  745MOL0     H 2784   9.692  -0.107   1.069  0.5231  1.4571 -0.3851
  745MOL0     H 2785   9.555  -0.064   1.164  0.0820 -1.3117 -1.5840
  745MOL0     H 2786   9.661  -0.061   1.365 -0.6369 -0.9819 -0.2208
  745MOL0     H 2787   9.824  -0.064   1.303 -1.6226  1.4380  2.7913
  745MOL0     H 2788   9.819  -0.278   1.215 -0.9022 -0.1057 -0.1384
  745MOL0     H 2789   9.656  -0.315   1.277 -1.6801  1.5466  0.6683
  745MOL0     H 2790   9.425   0.629   0.864  4.4831 -1.2526  1.8083
  745MOL0     H 2791   9.233   0.793   0.909 -2.3306 -0.4127  2.6839
  745MOL0     H 2792   9.130   1.165   1.014 -0.1416  1.2813  0.0325
  745MOL0     H 2793   8.971   1.343   0.993  1.3354  1.3291  1.0799
  745MOL0     H 2794   8.243   2.608   0.788  1.8570  1.7963  1.8651
  745MOL0     H 2795   8.386   2.775   0.638 -0.9912  0.9041 -2.2154
  745MOL0     H 2796   8.628   2.794   0.127 -1.9814  1.3661 -0.5502
  745MOL0     H 2797   8.751   2.974   0.021 -1.9893 -0.1128 -0.7657
  745MOL0     H 2798   8.985   3.135  -0.013 -0.0998  0.8355 -0.1844
  745MOL0     H 2799   8.816   3.177  -0.014  1.1150  1.5906 -0.7981
  745MOL0     H 2800   8.921   3.360  -0.082 -2.3640 -1.9187 -0.2948
  745MOL0     H 2801   9.047   3.383   0.041 -1.7315  5.1084  2.0951
  745MOL0     H 2802   8.850   3.544   0.044  2.2582  0.3985  1.9996
  745MOL0     H 2803   8.741   3.419   0.082  0.2153  0.0928 -1.4740
  745MOL0     H 2804   8.859   3.385   0.312 -0.6559  0.1868 -0.7695
  745MOL0     H 2805   8.797   3.540   0.277  0.9487  0.5859 -1.6644
  745MOL0     H 2806   9.225   3.530   0.377  0.3054  1.9441 -0.8688
  745MOL0     H 2807   8.863   3.108   0.422  1.6439 -1.1170 -0.1076
  745MOL0     H 2808   8.736   2.814   0.578  0.8561 -0.0810  0.4868
  745MOL0     H 2809   8.806   2.967   0.623 -1.5666 -0.4246  3.3902
  745MOL0     H 2810   8.627   2.960   0.589  1.3018  1.3400  0.4588
  746MOL0     O 2811   2.096  11.223  10.254  0.3970  0.3694  0.9821
  746MOL0     C 2812   2.202  11.245  10.204  0.3060 -0.1915 -0.5692
  746MOL0     O 2813   2.254  11.180  10.099 -0.1224 -0.0923 -0.7006
  746MOL0     C 2814   2.175  11.090  10.027 -0.1853 -0.4072 -1.0378
  746MOL0     C 2815   2.178  11.110   9.891  0.1204  0.0309  0.0555
  746MOL0     C 2816   2.099  11.032   9.793  0.3973  0.2939 -0.8386
  746MOL0     C 2817   2.011  10.943   9.856  0.2056 -0.2605  1.4171
  746MOL0     O 2818   1.912  10.865   9.799  0.6659 -0.4223 -0.5291
  746MOL0     C 2819   1.837  10.913   9.689 -0.5860  0.5916  1.1474
  746MOL0     C 2820   1.717  10.834   9.651 -0.0237 -0.3010 -0.0675
  746MOL0     C 2821   1.635  10.909   9.553  0.5470 -0.1297  0.2242
  746MOL0     C 2822   1.528  10.818   9.502  1.4848  0.4407 -0.1604
  746MOL0     C 2823   1.436  10.892   9.404  0.2390 -0.5540  0.2679
  746MOL0     C 2824   1.367  10.793   9.307 -0.1829  0.8849  0.1118
  746MOL0     C 2825   1.268  10.850   9.217  0.3472 -0.6090 -0.6490
  746MOL0     C 2826   1.132  10.887   9.281 -0.4884  0.4853 -0.2030
  746MOL0     N 2827   1.056  10.771   9.326 -0.3660 -0.0874 -0.8411
  746MOL0     C 2828   1.006  10.658   9.254 -2.0777  0.2283 -0.7516
  746MOL0     C 2829   0.954  10.572   9.350  0.3404 -0.0879  0.4293
  746MOL0     C 2830   0.903  10.434   9.337 -0.1416  0.8550  0.7948
  746MOL0     C 2831   1.004  10.321   9.310 -0.8989 -1.1919  0.3077
  746MOL0     C 2832   0.919  10.206   9.269  0.4885 -0.6024  0.2525
  746MOL0     C 2833   0.888  10.196   9.116  0.0558 -0.9939 -0.5312
  746MOL0     O 2834   0.817  10.312   9.069  0.1090 -0.5062 -0.5766
  746MOL0     C 2835   0.801  10.313   8.935 -0.2994  0.6181  0.9613
  746MOL0     C 2836   0.675  10.270   8.881 -0.1910  0.2508  0.2521
  746MOL0     C 2837   0.647  10.272   8.738  0.5637  0.8407  0.9122
  746MOL0     C 2838   0.521  10.193   8.693  0.3675  1.6464 -0.2144
  746MOL0     C 2839   0.750  10.329   8.658  0.3493 -0.4680 -0.6895
  746MOL0     C 2840   0.729  10.339   8.515  0.1752  0.1870 -0.5592
  746MOL0     O 2841   0.745  10.224   8.437  0.6129 -0.2581 -0.1033
  746MOL0     C 2842   0.751  10.226   8.308  0.5872  0.6568  0.4878
  746MOL0     C 2843   0.861  10.159   8.249 -0.4711  0.8038  0.3294
  746MOL0     C 2844   0.866  10.142   8.113 -0.2061 -0.2438  0.7065
  746MOL0     C 2845   0.768  10.221   8.037 -0.6076 -0.8546  0.0102
  746MOL0     O 2846   0.789  10.216   7.902  0.3206 -0.3613  0.4053
  746MOL0     C 2847   0.766  10.337   7.835 -0.1396 -0.7121 -0.4513
  746MOL0     C 2848   0.843  10.329   7.697  0.1765  0.4564 -0.0524
  746MOL0     C 2849   0.752  10.253   7.593 -0.0700  0.1617 -0.5160
  746MOL0     C 2850   0.718  10.336   7.469 -0.4581 -0.6725 -0.4382
  746MOL0     C 2851   0.839  10.381   7.378 -0.1082  0.6343  1.1095
  746MOL0     C 2852   0.888  10.267   7.295 -0.3693  0.7680 -0.3718
  746MOL0     C 2853   1.000  10.320   7.201 -0.4071 -0.5945 -0.2587
  746MOL0     C 2854   0.948  10.405   7.084 -0.0435  0.5826 -0.0551
  746MOL0    Cl 2855   0.881  10.304   6.956 -0.0556  0.0509  0.3470
  746MOL0     C 2856   0.661  10.291   8.090 -1.0929  0.3494  0.3814
  746MOL0     C 2857   0.654  10.290   8.229 -0.4592  1.1968 -0.1295
  746MOL0     O 2858   0.704  10.453   8.476  0.0618 -0.0357 -0.2673
  746MOL0     C 2859   0.864  10.384   8.716 -0.1658 -0.4386 -0.0113
  746MOL0     C 2860   0.894  10.375   8.844 -0.6735 -0.2009 -0.1659
  746MOL0     N 2861   0.973  10.633   9.472  0.1906  0.3009 -0.2041
  746MOL0     N 2862   1.019  10.751   9.455 -1.0348  0.1255 -0.0548
  746MOL0     C 2863   2.007  10.923   9.996 -0.0440  0.3562  1.0103
  746MOL0     C 2864   2.086  10.997  10.091 -0.4098  1.2150  0.3561
  746MOL0     C 2865   2.289  11.350  10.263  0.3349  0.5097  0.0549
  746MOL0     C 2866   2.416  11.322  10.322 -0.6042 -0.5448  0.1250
  746MOL0     C 2867   2.505  11.429  10.366 -0.9707 -0.6388  0.3537
  746MOL0     C 2868   2.454  11.561  10.375 -0.0230  0.1700  0.9407
  746MOL0     O 2869   2.551  11.653  10.428 -0.1364  0.4095  0.3670
  746MOL0     C 2870   2.503  11.790  10.446 -0.4400  0.2798 -0.6012
  746MOL0     C 2871   2.576  11.896  10.360  0.1960  0.3253 -0.8034
  746MOL0     C 2872   2.532  12.031  10.403 -0.6386  0.3936 -0.8979
  746MOL0     C 2873   2.617  12.144  10.345 -0.4364 -0.3662 -0.3176
  746MOL0     C 2874   2.560  12.208  10.225 -0.2677  0.2833  0.1077
  746MOL0     C 2875   2.511  12.258  10.125 -1.5168 -0.5973 -0.4049
  746MOL0     C 2876   2.327  11.589  10.318 -0.3252  1.1865  0.8756
  746MOL0     C 2877   2.236  11.486  10.264 -0.4604  0.0119 -0.3446
  746MOL0     C 2878   2.097  11.526  10.234  0.2603  0.9764 -0.8527
  746MOL0     H 2879   2.263  11.165   9.853  0.6484 -0.9025 -0.1350
  746MOL0     H 2880   2.099  11.044   9.685 -0.3910 -0.5763 -0.9493
  746MOL0     H 2881   1.902  10.938   9.604 -0.2458  0.6735  1.4275
  746MOL0     H 2882   1.805  11.017   9.706  1.2121  1.3458  0.1807
  746MOL0     H 2883   1.724  10.729   9.620 -1.9092  0.1031 -2.0773
  746MOL0     H 2884   1.654  10.817   9.739 -0.8259 -0.2108 -0.6154
  746MOL0     H 2885   1.597  10.987   9.620  3.4206 -0.2051  2.1093
  746MOL0     H 2886   1.695  10.950   9.471  1.3468 -1.3705  0.1657
  746MOL0     H 2887   1.587  10.740   9.454  1.1645  0.4951 -0.6538
  746MOL0     H 2888   1.473  10.788   9.592 -1.8188 -0.8103 -2.3855
  746MOL0     H 2889   1.489  10.964   9.341 -0.1887 -1.4808 -1.1824
  746MOL0     H 2890   1.354  10.940   9.458  0.4570  0.1997 -0.0453
  746MOL0     H 2891   1.441  10.741   9.246 -1.3181  0.4063 -0.8975
  746MOL0     H 2892   1.315  10.717   9.365  0.6607 -0.1146 -0.4109
  746MOL0     H 2893   1.254  10.779   9.136  0.2885 -2.4362  0.8790
  746MOL0     H 2894   1.313  10.937   9.169  1.0871 -1.2666 -1.1831
  746MOL0     H 2895   1.144  10.953   9.368  0.3219  0.0879 -0.0016
  746MOL0     H 2896   1.074  10.942   9.207 -0.8744 -0.5856 -0.7086
  746MOL0     H 2897   1.010  10.644   9.146 -0.3171  1.6797 -0.9217
  746MOL0     H 2898   0.835  10.444   9.252 -0.9100 -1.0794  1.1169
  746MOL0     H 2899   0.845  10.402   9.424  1.1043  0.6939  1.5905
  746MOL0     H 2900   1.068  10.350   9.226  1.1980 -0.8776  1.9036
  746MOL0     H 2901   1.059  10.293   9.401  0.4681  1.1018  0.2702
  746MOL0     H 2902   0.977  10.118   9.298  2.7363  1.3936  2.2392
  746MOL0     H 2903   0.826  10.197   9.324 -0.2683  2.4569 -0.3876
  746MOL0     H 2904   0.980  10.170   9.063  0.2943  0.1205 -0.6957
  746MOL0     H 2905   0.821  10.110   9.117  0.3151 -1.2208 -1.7443
  746MOL0     H 2906   0.608  10.212   8.943 -0.3987  0.6678  0.4260
  746MOL0     H 2907   0.495  10.108   8.757 -0.7402  1.6873 -0.5829
  746MOL0     H 2908   0.527  10.146   8.594 -2.0011 -1.4388  0.9437
  746MOL0     H 2909   0.434  10.258   8.678 -0.9470 -0.3428 -1.9278
  746MOL0     H 2910   0.940  10.121   8.313 -1.6872 -0.5563  1.0821
  746MOL0     H 2911   0.951  10.102   8.059 -0.6944 -1.4245  0.7693
  746MOL0     H 2912   0.660  10.352   7.814 -0.2263 -1.9434 -0.9784
  746MOL0     H 2913   0.801  10.420   7.898  0.4619 -1.5975  0.4106
  746MOL0     H 2914   0.871  10.429   7.660 -2.7867  1.0686 -0.8864
  746MOL0     H 2915   0.934  10.272   7.720 -0.7520 -1.2293 -0.4150
  746MOL0     H 2916   0.665  10.223   7.651  1.8395 -2.1776  1.3810
  746MOL0     H 2917   0.790  10.157   7.554 -1.3556  0.1775 -1.8968
  746MOL0     H 2918   0.677  10.427   7.512  1.0601 -0.8561  1.5529
  746MOL0     H 2919   0.641  10.278   7.417  0.4608 -5.7403  3.1055
  746MOL0     H 2920   0.799  10.462   7.316 -0.8157 -0.2741  0.3512
  746MOL0     H 2921   0.919  10.419   7.442  1.2215  0.4197 -0.3744
  746MOL0     H 2922   0.808  10.221   7.237  0.1932  0.1596 -0.6803
  746MOL0     H 2923   0.932  10.193   7.362  0.6561  2.6402  1.1215
  746MOL0     H 2924   1.058  10.241   7.153  1.4469  0.7817 -0.3484
  746MOL0     H 2925   1.072  10.370   7.265  1.5145  0.1828 -2.8791
  746MOL0     H 2926   1.038  10.451   7.044  1.9623 -2.1609  0.9869
  746MOL0     H 2927   0.886  10.485   7.126 -1.3980 -1.4859  2.2080
  746MOL0     H 2928   0.585  10.354   8.046 -1.6026  1.6095  2.8606
  746MOL0     H 2929   0.576  10.346   8.280 -0.6104  1.2565 -0.4229
  746MOL0     H 2930   0.940  10.433   8.657  1.1123 -0.4947  1.5383
  746MOL0     H 2931   0.984  10.434   8.859 -1.3312  0.7997 -0.0335
  746MOL0     H 2932   1.944  10.842  10.031 -0.8273  0.0416 -0.9844
  746MOL0     H 2933   2.085  10.973  10.197  0.2377 -4.2323 -0.5793
  746MOL0     H 2934   2.461  11.224  10.307 -1.2447 -0.4178 -3.5555
  746MOL0     H 2935   2.605  11.399  10.394  0.5031  0.3982 -3.3085
  746MOL0     H 2936   2.394  11.799  10.437 -0.4497  1.2751  0.4232
  746MOL0     H 2937   2.515  11.814  10.551 -1.2840  1.4547 -0.7542
  746MOL0     H 2938   2.544  11.871  10.258  0.2516 -1.8381 -0.3332
  746MOL0     H 2939   2.682  11.882  10.380 -0.3056  0.1363  2.1948
  746MOL0     H 2940   2.432  12.051  10.362 -1.2905  0.0242  0.4309
  746MOL0     H 2941   2.536  12.026  10.512  0.1831 -1.9928 -0.9956
  746MOL0     H 2942   2.719  12.106  10.331  0.2047  0.6580  1.2944
  746MOL0     H 2943   2.628  12.211  10.431 -0.0068 -1.1333  0.2315
  746MOL0     H 2944   2.480  12.307  10.035  0.6303 -0.8682 -1.3549
  746MOL0     H 2945   2.299  11.694  10.313 -0.5939  1.0644 -1.0740
  746MOL0     H 2946   2.069  11.482  10.137  2.6747  1.9671 -2.0955
  746MOL0     H 2947   2.025  11.492  10.308 -0.1715 -3.7704 -3.1001
  746MOL0     H 2948   2.097  11.633  10.211 -1.0893  1.1475 -0.1968
  747MOL0     O 2949   9.457   6.961   9.626  0.1145  0.4985 -0.0542
  747MOL0     C 2950   9.496   7.004   9.733 -0.0234 -0.4280  0.1594
  747MOL0     O 2951   9.625   7.053   9.751  0.2160  0.1686 -0.2252
  747MOL0     C 2952   9.691   7.068   9.628 -0.4807 -1.3265 -0.3904
  747MOL0     C 2953   9.670   7.166   9.533 -0.2363 -1.0741  0.7669
  747MOL0     C 2954   9.739   7.165   9.410  0.0668  0.6258 -0.1834
  747MOL0     C 2955   9.843   7.077   9.389  0.2260 -0.1613  0.8965
  747MOL0     O 2956   9.916   7.060   9.272 -0.3285  0.2949 -0.5703
  747MOL0     C 2957   9.851   7.110   9.153  0.3443  0.3939 -0.2882
  747MOL0     C 2958   9.945   7.063   9.038 -0.6045 -0.4753 -0.1432
  747MOL0     C 2959   9.893   7.126   8.903  0.6007 -0.2834  0.1294
  747MOL0     C 2960   9.773   7.055   8.855  0.5589 -0.5229  0.3187
  747MOL0     C 2961   9.737   7.103   8.713  0.0037 -0.0847 -0.3826
  747MOL0     C 2962   9.629   7.021   8.657  0.4047  0.9660  0.4049
  747MOL0     C 2963   9.636   6.998   8.511  0.1470  0.3761  0.4781
  747MOL0     C 2964   9.747   6.918   8.455 -0.5286  0.0869 -0.2405
  747MOL0     N 2965   9.737   6.907   8.307  0.0768 -0.5071 -0.0833
  747MOL0     C 2966   9.844   6.880   8.232  0.0211  0.1441 -0.4389
  747MOL0     C 2967   9.810   6.867   8.104  0.2020  0.3702  0.6949
  747MOL0     C 2968   9.900   6.833   7.986  0.6274  0.4852 -0.2476
  747MOL0     C 2969   9.951   6.686   7.999 -0.1009 -0.2834  0.8628
  747MOL0     C 2970  10.030   6.664   7.871  0.8602 -0.5231  1.0250
  747MOL0     C 2971  10.133   6.561   7.881 -1.3090  0.1870 -0.3730
  747MOL0     O 2972  10.218   6.561   7.772  0.2724  0.1703 -0.4446
  747MOL0     C 2973  10.338   6.501   7.803 -0.6020 -0.5629  0.5733
  747MOL0     C 2974  10.363   6.364   7.811 -0.9891 -0.2217 -0.1208
  747MOL0     C 2975  10.501   6.313   7.836  0.2055  0.5382  0.4694
  747MOL0     C 2976  10.508   6.164   7.857  0.4368  0.3970 -0.2220
  747MOL0     C 2977  10.609   6.397   7.850  0.7240  0.2458 -0.3125
  747MOL0     C 2978  10.746   6.360   7.875  0.0236 -0.4960  0.0516
  747MOL0     O 2979  10.782   6.230   7.868  0.7455  0.9679  0.2345
  747MOL0     C 2980  10.911   6.180   7.858  0.1065  0.0858  0.2275
  747MOL0     C 2981  10.984   6.170   7.968 -1.0436  0.0382 -0.4236
  747MOL0     C 2982  11.113   6.137   7.960 -0.0177 -0.1015  0.5268
  747MOL0     C 2983  11.177   6.114   7.833  0.5380  0.4294 -1.3436
  747MOL0     O 2984  11.300   6.066   7.819  0.3678  0.0633  0.6113
  747MOL0     C 2985  11.394   6.102   7.922  0.1098 -0.7780  0.2131
  747MOL0     C 2986  11.535   6.081   7.863  0.1784 -0.6554 -0.3956
  747MOL0     C 2987  11.593   5.938   7.885 -0.3053  0.8590 -0.8113
  747MOL0     C 2988  11.734   5.913   7.822  0.8367 -1.0155 -0.4101
  747MOL0     C 2989  11.792   5.781   7.870 -0.8798  0.4808 -0.1989
  747MOL0     C 2990  11.930   5.744   7.810  0.1976  0.5349 -0.2845
  747MOL0     C 2991  11.938   5.713   7.662  0.0379  0.1194  0.1265
  747MOL0     C 2992  12.076   5.670   7.605 -0.7493 -0.4955 -0.2458
  747MOL0    Cl 2993  12.158   5.531   7.709 -0.1040  0.0021  0.3655
  747MOL0     C 2994  11.093   6.113   7.718 -0.0464 -0.0402 -0.3449
  747MOL0     C 2995  10.958   6.141   7.733  0.9850  0.2411  0.0338
  747MOL0     O 2996  10.817   6.450   7.922 -0.2592  0.5924 -0.3289
  747MOL0     C 2997  10.577   6.536   7.847  0.6724  0.0906  0.9407
  747MOL0     C 2998  10.448   6.586   7.819 -0.1630 -0.1287 -0.4122
  747MOL0     N 2999   9.668   6.895   8.105  0.6855  0.3301 -0.1475
  747MOL0     N 3000   9.625   6.919   8.231  0.5650 -0.5935  0.4244
  747MOL0     C 3001   9.871   6.979   9.487  0.4874  0.0597 -0.7491
  747MOL0     C 3002   9.792   6.974   9.599  0.9089  0.6075  0.0820
  747MOL0     C 3003   9.397   6.993   9.850  0.4185  0.0248 -0.1907
  747MOL0     C 3004   9.457   6.972   9.973  0.0122 -0.2123  0.9661
  747MOL0     C 3005   9.384   6.948  10.097 -0.4042 -0.2120  1.9411
  747MOL0     C 3006   9.245   6.952  10.099 -0.3177  0.5172  0.2597
  747MOL0     O 3007   9.164   6.942  10.213 -0.4244 -0.8186 -0.0674
  747MOL0     C 3008   9.204   7.019  10.322 -0.6600 -0.1175 -0.0066
  747MOL0     C 3009   9.083   7.027  10.425  0.7008 -0.0739  0.0977
  747MOL0     C 3010   8.970   7.121  10.383 -0.4757 -0.6763  0.3528
  747MOL0     C 3011   9.009   7.275  10.386  0.3247  0.4956 -0.4794
  747MOL0     C 3012   9.017   7.316  10.526 -0.5716 -0.0017  1.2888
  747MOL0     C 3013   9.054   7.328  10.642  0.4373 -0.7065  0.9359
  747MOL0     C 3014   9.182   6.970   9.973 -0.1132  0.1640  0.2559
  747MOL0     C 3015   9.257   6.978   9.848  1.1243  0.0426  1.0294
  747MOL0     C 3016   9.180   7.009   9.712 -0.0608  0.1425 -0.0923
  747MOL0     H 3017   9.597   7.244   9.550 -0.6536 -0.5679 -2.7257
  747MOL0     H 3018   9.723   7.250   9.343  0.1385  2.9057  2.5145
  747MOL0     H 3019   9.832   7.217   9.158  0.2864  0.4635 -1.6627
  747MOL0     H 3020   9.764   7.044   9.144  2.0275 -2.1374  0.7766
  747MOL0     H 3021  10.041   7.110   9.060 -0.7494  1.4154 -3.0757
  747MOL0     H 3022   9.950   6.954   9.032 -0.3785 -0.5215  0.7405
  747MOL0     H 3023   9.868   7.233   8.911 -1.6960 -0.7640  0.2398
  747MOL0     H 3024   9.976   7.108   8.835  2.0877  3.4772  0.6736
  747MOL0     H 3025   9.782   6.946   8.853 -0.9625 -0.7500  2.3393
  747MOL0     H 3026   9.686   7.069   8.920 -0.2922 -2.1450 -0.3965
  747MOL0     H 3027   9.826   7.100   8.649  0.7366  1.8377  0.4641
  747MOL0     H 3028   9.717   7.210   8.722  0.8032 -0.1024  2.9197
  747MOL0     H 3029   9.622   6.918   8.694  0.6284  0.7774 -0.0707
  747MOL0     H 3030   9.528   7.058   8.679 -1.4139 -1.7835 -2.5394
  747MOL0     H 3031   9.639   7.093   8.457  0.9819 -0.9716 -1.9918
  747MOL0     H 3032   9.533   6.975   8.481  0.2663  1.1948 -0.6651
  747MOL0     H 3033   9.844   6.949   8.494 -0.1781  0.2583 -1.2088
  747MOL0     H 3034   9.737   6.814   8.487  1.2338 -0.0057  0.1176
  747MOL0     H 3035   9.941   6.884   8.282 -0.9773  0.5859  1.5757
  747MOL0     H 3036   9.987   6.899   7.994  0.2148  1.0473 -0.3663
  747MOL0     H 3037   9.855   6.871   7.893 -4.4415 -0.8888  1.3040
  747MOL0     H 3038  10.008   6.671   8.091 -0.0699 -3.4089  0.4211
  747MOL0     H 3039   9.861   6.624   8.005 -2.6675  3.2628  2.8416
  747MOL0     H 3040   9.957   6.641   7.793 -3.3480  1.6358  3.9667
  747MOL0     H 3041  10.089   6.752   7.842 -0.1974  0.4465  1.7668
  747MOL0     H 3042  10.189   6.569   7.975 -0.2390 -2.7162 -0.6696
  747MOL0     H 3043  10.090   6.462   7.893 -0.7527 -0.1530 -1.0924
  747MOL0     H 3044  10.278   6.297   7.806 -1.4697  0.3007  0.7618
  747MOL0     H 3045  10.552   6.125   7.764 -0.8666  3.5555 -2.3196
  747MOL0     H 3046  10.409   6.118   7.862 -0.0238  1.4758  0.8632
  747MOL0     H 3047  10.571   6.133   7.941 -2.0103  1.8944  2.3215
  747MOL0     H 3048  10.944   6.170   8.069 -0.0282  3.3057  0.1124
  747MOL0     H 3049  11.170   6.107   8.048 -1.2645 -2.3175  0.6412
  747MOL0     H 3050  11.391   6.211   7.934  2.8749 -0.0997 -3.5896
  747MOL0     H 3051  11.385   6.044   8.014  1.1975  0.6277  1.2534
  747MOL0     H 3052  11.530   6.103   7.756  3.1088  0.1728 -0.4493
  747MOL0     H 3053  11.598   6.157   7.910 -1.2682 -0.2367  0.9543
  747MOL0     H 3054  11.518   5.870   7.842 -4.3287  3.6200  1.1616
  747MOL0     H 3055  11.602   5.912   7.991  1.0950 -2.2656 -1.5759
  747MOL0     H 3056  11.798   5.995   7.855 -0.2010 -1.5589  3.3849
  747MOL0     H 3057  11.730   5.918   7.712  2.1356  1.8735 -0.4216
  747MOL0     H 3058  11.811   5.780   7.978  3.6087 -2.0013 -0.7568
  747MOL0     H 3059  11.720   5.700   7.854  0.2429 -1.4270  3.2440
  747MOL0     H 3060  11.962   5.657   7.867  0.1279  1.9811  2.0629
  747MOL0     H 3061  11.998   5.826   7.833  0.4774  0.4123 -0.6649
  747MOL0     H 3062  11.902   5.794   7.598  1.4602 -0.4523 -1.4646
  747MOL0     H 3063  11.874   5.624   7.651 -2.2142  1.5612  0.9766
  747MOL0     H 3064  12.137   5.760   7.594 -0.9172 -0.3545 -0.0263
  747MOL0     H 3065  12.057   5.639   7.502  0.9408  1.7685 -1.3201
  747MOL0     H 3066  11.144   6.085   7.626  1.4375  2.6090 -0.4297
  747MOL0     H 3067  10.887   6.143   7.651 -0.1720  4.4703  0.8540
  747MOL0     H 3068  10.644   6.620   7.855 -0.3549  0.9824  0.3548
  747MOL0     H 3069  10.437   6.694   7.823 -2.5976 -0.3322  1.2137
  747MOL0     H 3070   9.942   6.898   9.474  1.1656  0.0489  2.2807
  747MOL0     H 3071   9.802   6.884   9.658 -0.8179 -1.5679 -2.6884
  747MOL0     H 3072   9.564   6.987   9.981 -0.0490  1.8775 -1.2103
  747MOL0     H 3073   9.436   6.922  10.189  1.0339 -1.0635  0.9394
  747MOL0     H 3074   9.292   6.967  10.361 -1.6608 -0.8474  1.3902
  747MOL0     H 3075   9.248   7.119  10.312  2.1922 -1.4446 -2.1156
  747MOL0     H 3076   9.118   7.065  10.522 -1.7922  1.3167  0.5083
  747MOL0     H 3077   9.046   6.927  10.449 -0.5354  0.0657 -1.1732
  747MOL0     H 3078   8.943   7.101  10.279 -2.1734  0.6979  0.4849
  747MOL0     H 3079   8.888   7.107  10.454 -0.9513 -2.2932 -0.4657
  747MOL0     H 3080   8.929   7.334  10.341 -1.8050  0.8892  3.4071
  747MOL0     H 3081   9.098   7.287  10.323  0.1909 -2.3755 -1.3598
  747MOL0     H 3082   9.088   7.303  10.741  1.1183  0.0146  0.8936
  747MOL0     H 3083   9.074   6.976   9.967 -0.0746  1.9324  0.6137
  747MOL0     H 3084   9.216   7.105   9.674 -1.1816  2.4197  4.0117
  747MOL0     H 3085   9.207   6.930   9.641 -0.6959  0.1418 -0.3351
  747MOL0     H 3086   9.074   7.014   9.737  0.4423  2.3108  1.9774
  748MOL0     O 3087   6.097   9.714   7.783  0.4751 -0.3496  0.4537
  748MOL0     C 3088   6.044   9.688   7.891  0.1902  0.0697 -0.5353
  748MOL0     O 3089   6.051   9.563   7.957 -0.4468  0.2688  0.0986
  748MOL0     C 3090   6.172   9.487   7.939  0.4781 -0.2991 -0.3696
  748MOL0     C 3091   6.296   9.534   7.897 -0.2088  0.0672 -0.2366
  748MOL0     C 3092   6.404   9.451   7.884  0.1183 -1.0808  0.3109
  748MOL0     C 3093   6.401   9.311   7.909  1.0655 -0.5813  0.2846
  748MOL0     O 3094   6.500   9.234   7.896 -0.2001  0.3930 -0.4202
  748MOL0     C 3095   6.556   9.203   7.766  0.5786 -0.2977 -1.0823
  748MOL0     C 3096   6.469   9.102   7.682  0.2404 -0.8931  0.1122
  748MOL0     C 3097   6.480   8.959   7.706  0.5246  0.4169  0.5321
  748MOL0     C 3098   6.413   8.905   7.833  0.7337  0.0499  0.4756
  748MOL0     C 3099   6.261   8.885   7.843 -0.1078  0.1304  0.6773
  748MOL0     C 3100   6.219   8.787   7.731 -0.0017  0.1527  0.1313
  748MOL0     C 3101   6.078   8.730   7.751  0.7326  0.6016 -1.6262
  748MOL0     C 3102   5.974   8.840   7.716 -1.0655 -0.7375  0.6948
  748MOL0     N 3103   5.832   8.793   7.736  0.2372  0.6677  0.1597
  748MOL0     C 3104   5.773   8.695   7.658  1.0080 -0.1452 -0.3908
  748MOL0     C 3105   5.641   8.700   7.709  0.6329  0.0047  0.1958
  748MOL0     C 3106   5.516   8.629   7.644  0.3694  0.4318  0.4071
  748MOL0     C 3107   5.458   8.544   7.755 -0.2001 -0.2633 -0.5765
  748MOL0     C 3108   5.348   8.455   7.706  0.4464 -0.4017 -0.1490
  748MOL0     C 3109   5.403   8.325   7.634 -0.0468 -0.2724  0.3452
  748MOL0     O 3110   5.471   8.224   7.714 -0.2311 -0.0390  0.6863
  748MOL0     C 3111   5.497   8.101   7.660 -0.3419 -0.3640  0.3744
  748MOL0     C 3112   5.581   8.018   7.729 -2.6984  0.2704  0.8538
  748MOL0     C 3113   5.628   7.894   7.683  0.6931  1.3696  0.2531
  748MOL0     C 3114   5.716   7.810   7.766 -0.2163 -0.6528 -0.5390
  748MOL0     C 3115   5.576   7.848   7.559  0.8683  0.0983  0.0362
  748MOL0     C 3116   5.625   7.725   7.490  0.4602 -0.0644 -0.0172
  748MOL0     O 3117   5.545   7.665   7.410  0.0385  0.7422  1.1473
  748MOL0     C 3118   5.585   7.538   7.375  0.6803 -0.5137 -0.3103
  748MOL0     C 3119   5.612   7.510   7.235  0.4971  0.9229 -0.7211
  748MOL0     C 3120   5.649   7.378   7.203 -0.1269 -0.4522  0.0752
  748MOL0     C 3121   5.648   7.280   7.301  0.1606  0.4640 -0.5392
  748MOL0     O 3122   5.668   7.154   7.249 -0.6957 -0.4940  0.5083
  748MOL0     C 3123   5.634   7.026   7.314  0.3562 -0.2089 -0.2213
  748MOL0     C 3124   5.481   7.007   7.320  0.3372 -0.6627 -0.0799
  748MOL0     C 3125   5.436   6.908   7.424 -0.2051  0.0046  0.4645
  748MOL0     C 3126   5.428   6.973   7.566 -0.9422  0.0637  0.1191
  748MOL0     C 3127   5.385   6.874   7.675 -0.4698  0.5630  0.3355
  748MOL0     C 3128   5.236   6.891   7.699  0.8746  0.2081  0.4274
  748MOL0     C 3129   5.180   6.818   7.818 -0.9967  0.0354 -0.6388
  748MOL0     C 3130   5.200   6.665   7.820  0.0472 -0.5929 -0.3781
  748MOL0    Cl 3131   5.358   6.607   7.856 -0.1517  0.6073  0.2420
  748MOL0     C 3132   5.612   7.308   7.433  0.2606 -0.1376 -0.6563
  748MOL0     C 3133   5.575   7.438   7.466 -0.1925  0.0610  1.1205
  748MOL0     O 3134   5.744   7.698   7.514  0.4938  0.6362 -0.4829
  748MOL0     C 3135   5.499   7.937   7.488  0.0371  1.0126 -0.7993
  748MOL0     C 3136   5.445   8.047   7.539  0.0339 -0.4506  0.0329
  748MOL0     N 3137   5.634   8.783   7.826 -0.2865  0.4520  0.4869
  748MOL0     N 3138   5.746   8.840   7.826  0.3795 -0.1056  0.5203
  748MOL0     C 3139   6.271   9.270   7.965 -0.0996  0.2961 -1.0493
  748MOL0     C 3140   6.163   9.359   7.974 -0.0340 -0.3071  0.0372
  748MOL0     C 3141   5.954   9.792   7.953  0.3312  0.3205  0.3747
  748MOL0     C 3142   5.938   9.911   7.875  0.8108 -0.1627  0.3940
  748MOL0     C 3143   5.880  10.025   7.924  0.3095  0.0447 -0.6962
  748MOL0     C 3144   5.806  10.019   8.046 -0.6878 -0.0281  0.5948
  748MOL0     O 3145   5.735  10.126   8.099 -0.4055 -0.2958 -0.3693
  748MOL0     C 3146   5.597  10.140   8.066  0.3683  0.1894  0.2322
  748MOL0     C 3147   5.503  10.090   8.176  0.1091  0.4372 -0.1616
  748MOL0     C 3148   5.493  10.182   8.305  0.1025  0.0433  0.4649
  748MOL0     C 3149   5.631  10.203   8.372 -0.5899 -0.1735 -0.3520
  748MOL0     C 3150   5.611  10.245   8.512 -0.1780  0.2603  0.4079
  748MOL0     C 3151   5.563  10.283   8.619 -0.0000  0.0292  1.1893
  748MOL0     C 3152   5.812   9.896   8.124 -1.0627  0.4750  0.7037
  748MOL0     C 3153   5.897   9.794   8.084  0.1000 -0.0718 -1.3717
  748MOL0     C 3154   5.923   9.689   8.187  0.8964 -0.0495  0.6108
  748MOL0     H 3155   6.306   9.640   7.873 -0.8308  1.0641  3.2749
  748MOL0     H 3156   6.501   9.497   7.866  0.1686 -2.5494 -4.3489
  748MOL0     H 3157   6.650   9.154   7.791  0.6670 -1.0167 -2.7341
  748MOL0     H 3158   6.571   9.294   7.707  0.2274 -0.5738 -1.6042
  748MOL0     H 3159   6.366   9.136   7.700  0.3531 -0.7071  0.4164
  748MOL0     H 3160   6.488   9.118   7.576  0.8002 -2.0001  0.0329
  748MOL0     H 3161   6.457   8.900   7.616  1.2758 -0.2272  0.7577
  748MOL0     H 3162   6.586   8.936   7.713  0.0818 -3.1581 -1.5210
  748MOL0     H 3163   6.454   8.808   7.860  1.4316  0.1846 -0.0770
  748MOL0     H 3164   6.440   8.959   7.924  1.0141 -2.4252  1.9446
  748MOL0     H 3165   6.206   8.978   7.830 -0.7722 -0.0190  2.1780
  748MOL0     H 3166   6.223   8.846   7.938 -2.1220 -3.8234 -1.4912
  748MOL0     H 3167   6.233   8.834   7.634 -2.5451 -1.2297 -1.0085
  748MOL0     H 3168   6.275   8.694   7.723 -1.8462 -0.9226 -1.1411
  748MOL0     H 3169   6.066   8.691   7.853 -1.6609  1.5451 -1.4728
  748MOL0     H 3170   6.061   8.650   7.678  2.0288 -0.9530 -0.3244
  748MOL0     H 3171   5.990   8.922   7.786 -1.8588  0.6991 -0.7413
  748MOL0     H 3172   5.994   8.879   7.616  2.8399  0.8212  1.8863
  748MOL0     H 3173   5.819   8.646   7.572  2.4015 -1.4878  1.0466
  748MOL0     H 3174   5.534   8.569   7.554 -1.9377  1.3130 -0.7316
  748MOL0     H 3175   5.447   8.707   7.608  0.1007  1.2990  2.6627
  748MOL0     H 3176   5.530   8.489   7.818 -0.7978  0.9127  1.2203
  748MOL0     H 3177   5.408   8.614   7.823 -0.3643 -2.3107  1.5611
  748MOL0     H 3178   5.294   8.434   7.799  2.0190  2.8092  1.6764
  748MOL0     H 3179   5.274   8.503   7.642 -0.6026 -0.0928  1.2348
  748MOL0     H 3180   5.324   8.275   7.578  1.9575 -0.0125 -3.0201
  748MOL0     H 3181   5.470   8.364   7.557  1.3351  0.9665  2.0898
  748MOL0     H 3182   5.600   8.049   7.831 -0.1344  1.7008  0.0234
  748MOL0     H 3183   5.817   7.842   7.738  0.1245 -0.0667  1.2054
  748MOL0     H 3184   5.692   7.704   7.767 -1.2187 -0.4529 -1.5247
  748MOL0     H 3185   5.703   7.849   7.868 -2.5330 -0.8970 -0.6859
  748MOL0     H 3186   5.592   7.586   7.161  0.8324  3.0458  1.2520
  748MOL0     H 3187   5.674   7.350   7.101 -1.3786  0.6997 -0.5696
  748MOL0     H 3188   5.680   6.958   7.242  3.6724  0.0108  1.5088
  748MOL0     H 3189   5.684   7.030   7.412  1.9069 -0.5573 -0.9659
  748MOL0     H 3190   5.432   7.101   7.346 -2.2252 -1.3426 -2.0646
  748MOL0     H 3191   5.444   6.969   7.224 -2.0166 -1.0714  0.9087
  748MOL0     H 3192   5.515   6.834   7.414 -0.1055 -0.1687  2.2869
  748MOL0     H 3193   5.337   6.865   7.404 -0.7036  0.6228  1.5007
  748MOL0     H 3194   5.360   7.059   7.561 -3.5190 -1.8857 -0.1487
  748MOL0     H 3195   5.526   7.010   7.598 -0.8476 -0.5129  0.5127
  748MOL0     H 3196   5.391   6.771   7.638  3.7385  0.2478  1.3974
  748MOL0     H 3197   5.458   6.865   7.756  0.4782 -1.6644 -0.6781
  748MOL0     H 3198   5.189   6.848   7.610  2.2281 -2.0274  0.7284
  748MOL0     H 3199   5.208   6.997   7.699  0.1211  0.0456 -1.3844
  748MOL0     H 3200   5.072   6.834   7.821 -0.9393  0.3535 -0.0407
  748MOL0     H 3201   5.215   6.860   7.913 -2.3903  2.4080 -1.0968
  748MOL0     H 3202   5.167   6.628   7.723  1.8975  1.7968 -2.0437
  748MOL0     H 3203   5.130   6.625   7.893  2.7922 -1.4336  2.0172
  748MOL0     H 3204   5.605   7.244   7.520 -1.2981  2.4662  1.3016
  748MOL0     H 3205   5.526   7.457   7.561  0.3927  1.4224  1.1649
  748MOL0     H 3206   5.464   7.906   7.390 -2.4763  1.7830 -0.2190
  748MOL0     H 3207   5.378   8.098   7.471  1.2211  1.8492  0.4877
  748MOL0     H 3208   6.247   9.171   8.001  0.4396  0.8015  0.8139
  748MOL0     H 3209   6.068   9.320   8.011 -0.8657  2.5320  1.1903
  748MOL0     H 3210   5.986   9.920   7.778 -2.2611  0.6108 -1.2123
  748MOL0     H 3211   5.867  10.122   7.879 -2.8200  2.5488  4.6857
  748MOL0     H 3212   5.575  10.244   8.043 -0.3079 -0.2560 -1.3252
  748MOL0     H 3213   5.579  10.081   7.975 -3.6946  1.2800  0.1237
  748MOL0     H 3214   5.535   9.990   8.205  0.1580  0.3449 -0.5287
  748MOL0     H 3215   5.404  10.070   8.134  0.7197  0.5881 -1.7658
  748MOL0     H 3216   5.446  10.275   8.270 -3.6844 -1.4640  1.0849
  748MOL0     H 3217   5.411  10.147   8.369 -0.2247  0.0933  0.0765
  748MOL0     H 3218   5.680  10.279   8.310 -0.3137  0.4049  0.5694
  748MOL0     H 3219   5.684  10.107   8.379 -2.6416 -1.4224 -0.9829
  748MOL0     H 3220   5.520  10.327   8.706 -0.8843 -0.0757  0.8116
  748MOL0     H 3221   5.752   9.890   8.214  0.8139  1.5246  2.1122
  748MOL0     H 3222   5.869   9.600   8.151  2.4153 -0.3552 -1.0362
  748MOL0     H 3223   6.026   9.655   8.181  1.8857  2.9212 -0.6882
  748MOL0     H 3224   5.894   9.714   8.290 -2.9156  0.9428 -0.5251
  749MOL0     O 3225   3.664   2.071   6.685 -0.3682 -0.4476  0.1041
  749MOL0     C 3226   3.599   2.096   6.785  0.5610 -0.1932  0.3972
  749MOL0     O 3227   3.508   1.998   6.840 -0.3599  0.1118 -0.0573
  749MOL0     C 3228   3.485   1.883   6.779 -0.4829  0.0755  0.0258
  749MOL0     C 3229   3.466   1.853   6.642  0.4627 -0.0702  0.0255
  749MOL0     C 3230   3.426   1.733   6.590  0.5031  0.2065 -0.4593
  749MOL0     C 3231   3.400   1.620   6.673 -0.1270  0.4134 -0.6898
  749MOL0     O 3232   3.369   1.491   6.639  0.9303  0.4793  0.9769
  749MOL0     C 3233   3.379   1.447   6.494  0.3777  0.8837  0.5221
  749MOL0     C 3234   3.245   1.459   6.424  0.3316 -0.3628  0.2515
  749MOL0     C 3235   3.261   1.445   6.267  0.8859 -0.4257  0.7416
  749MOL0     C 3236   3.215   1.299   6.212  0.1678 -0.0238  0.2642
  749MOL0     C 3237   3.308   1.177   6.259  0.3601 -0.2147  0.3185
  749MOL0     C 3238   3.452   1.190   6.206 -1.3829 -1.1615  1.3483
  749MOL0     C 3239   3.550   1.086   6.254  1.4354  0.0325  0.3661
  749MOL0     C 3240   3.691   1.131   6.210 -0.6257 -0.1594  0.1613
  749MOL0     N 3241   3.755   1.241   6.279 -0.3349 -0.2451  0.0087
  749MOL0     C 3242   3.808   1.233   6.400 -0.4348  0.7464  0.3213
  749MOL0     C 3243   3.873   1.353   6.420  0.4471 -0.1233  0.1274
  749MOL0     C 3244   3.929   1.408   6.544 -0.5435  0.0256 -0.3976
  749MOL0     C 3245   3.847   1.409   6.671  0.7344 -0.0518 -0.3341
  749MOL0     C 3246   3.753   1.532   6.661  1.1305 -1.0237 -0.4927
  749MOL0     C 3247   3.803   1.665   6.700  0.3035 -0.1047 -0.1557
  749MOL0     O 3248   3.902   1.660   6.805 -0.0099  0.4540  0.5978
  749MOL0     C 3249   3.908   1.779   6.874 -0.0020  1.5172  0.6831
  749MOL0     C 3250   3.951   1.758   7.004  1.0753 -0.1413 -0.5538
  749MOL0     C 3251   3.975   1.864   7.091  0.3973 -0.6590 -0.2676
  749MOL0     C 3252   4.037   1.831   7.231 -0.4881 -0.9835  0.1121
  749MOL0     C 3253   3.950   1.990   7.042  0.7245  0.4781 -1.1290
  749MOL0     C 3254   3.993   2.107   7.120 -0.4054 -0.0902 -0.7626
  749MOL0     O 3255   4.093   2.179   7.046  0.1029  0.6230  0.2875
  749MOL0     C 3256   4.142   2.296   7.107  0.0575 -0.2472 -0.1911
  749MOL0     C 3257   4.051   2.403   7.142  0.0429  0.0542  0.8242
  749MOL0     C 3258   4.095   2.522   7.199 -0.3758  0.4329 -0.3595
  749MOL0     C 3259   4.226   2.557   7.205 -0.4499 -0.1892  0.5714
  749MOL0     O 3260   4.251   2.686   7.230  0.0961  0.0400  0.1202
  749MOL0     C 3261   4.385   2.740   7.250  0.5469  1.0066 -0.2843
  749MOL0     C 3262   4.436   2.685   7.391 -0.2591  0.5243 -0.2859
  749MOL0     C 3263   4.346   2.717   7.505  0.6821  0.6592  0.4598
  749MOL0     C 3264   4.409   2.680   7.639  0.4340 -0.5360  0.7207
  749MOL0     C 3265   4.322   2.736   7.746 -0.3679  1.2128 -0.6199
  749MOL0     C 3266   4.369   2.684   7.881  0.6217 -0.2807 -1.1105
  749MOL0     C 3267   4.274   2.754   7.984  0.6032  0.5197 -0.1167
  749MOL0     C 3268   4.272   2.691   8.120  1.0635  0.3623  0.8388
  749MOL0    Cl 3269   4.433   2.667   8.183  0.2184  0.3473  0.0272
  749MOL0     C 3270   4.319   2.456   7.163  1.2750  0.3585 -0.6028
  749MOL0     C 3271   4.279   2.330   7.120 -0.6609  0.9015 -0.8669
  749MOL0     O 3272   3.947   2.133   7.235  0.5371  0.7023  0.1441
  749MOL0     C 3273   3.909   2.011   6.912  0.9166  0.4325  0.4078
  749MOL0     C 3274   3.892   1.905   6.822  0.3350 -0.2218 -0.3268
  749MOL0     N 3275   3.828   1.432   6.313 -0.5821  0.9294  0.3524
  749MOL0     N 3276   3.781   1.358   6.220  0.2401 -0.2376 -0.4290
  749MOL0     C 3277   3.412   1.638   6.810 -0.5617 -0.3819 -0.1583
  749MOL0     C 3278   3.458   1.766   6.858 -0.2296  0.2958  0.8253
  749MOL0     C 3279   3.618   2.223   6.860 -0.0994  0.8177 -0.4164
  749MOL0     C 3280   3.546   2.223   6.987  0.8015  0.1840  0.3101
  749MOL0     C 3281   3.562   2.332   7.070 -0.3109  0.1077 -0.3461
  749MOL0     C 3282   3.628   2.448   7.032 -0.3116  0.0070  0.4755
  749MOL0     O 3283   3.617   2.551   7.116 -1.0635  0.1758 -0.3290
  749MOL0     C 3284   3.664   2.684   7.067  0.5419  0.0533  0.6372
  749MOL0     C 3285   3.604   2.782   7.169  0.1575 -0.0345  0.0785
  749MOL0     C 3286   3.624   2.920   7.123 -0.8258 -0.6526  0.0711
  749MOL0     C 3287   3.531   3.012   7.196  0.4085  0.0702  0.4073
  749MOL0     C 3288   3.396   3.034   7.148 -1.1681 -0.2512  0.2750
  749MOL0     C 3289   3.279   3.022   7.114  0.5944 -0.1658  0.6307
  749MOL0     C 3290   3.694   2.449   6.909 -0.4416 -0.3483 -0.8991
  749MOL0     C 3291   3.691   2.333   6.818  0.3600 -1.3421 -0.5377
  749MOL0     C 3292   3.773   2.346   6.695 -0.0841 -0.4369  0.4939
  749MOL0     H 3293   3.475   1.923   6.560 -4.4043  0.2481 -0.5107
  749MOL0     H 3294   3.401   1.731   6.485  0.6847  3.4003 -0.6582
  749MOL0     H 3295   3.399   1.340   6.491 -0.7477  0.6807 -0.0751
  749MOL0     H 3296   3.461   1.498   6.442  0.2852 -0.1995 -0.7352
  749MOL0     H 3297   3.175   1.386   6.466  1.4835 -1.6403  0.0260
  749MOL0     H 3298   3.198   1.557   6.436  1.9163  0.6778 -1.3616
  749MOL0     H 3299   3.200   1.526   6.228  2.7667  1.4055  1.4308
  749MOL0     H 3300   3.363   1.469   6.237  1.2412 -2.2559  0.3379
  749MOL0     H 3301   3.113   1.285   6.251  0.7653  1.0499  2.3450
  749MOL0     H 3302   3.213   1.285   6.104  1.2049 -1.1270  0.3724
  749MOL0     H 3303   3.268   1.081   6.224 -4.5147  1.7976 -0.4448
  749MOL0     H 3304   3.296   1.177   6.368 -2.8558 -0.2585  0.0707
  749MOL0     H 3305   3.457   1.174   6.098  0.5856  2.2370  0.8017
  749MOL0     H 3306   3.493   1.290   6.223  1.7080 -1.7905 -1.4257
  749MOL0     H 3307   3.533   0.987   6.210  1.5303  0.2075 -0.0640
  749MOL0     H 3308   3.541   1.076   6.362 -2.6729  2.9525  0.5167
  749MOL0     H 3309   3.758   1.045   6.217  0.5158  0.4489 -2.0000
  749MOL0     H 3310   3.681   1.150   6.102 -3.1855 -2.4024 -0.0912
  749MOL0     H 3311   3.806   1.147   6.466 -0.3165  2.2985  2.4055
  749MOL0     H 3312   3.978   1.506   6.538  3.1580 -1.2763  3.4337
  749MOL0     H 3313   4.011   1.339   6.567 -0.8246 -0.3621 -0.5602
  749MOL0     H 3314   3.783   1.321   6.674 -0.4616  0.7715 -1.0067
  749MOL0     H 3315   3.911   1.407   6.760 -0.4326 -1.1895  0.5236
  749MOL0     H 3316   3.706   1.532   6.562 -0.6282 -6.4349 -0.0007
  749MOL0     H 3317   3.684   1.502   6.740  1.5365 -0.8242 -0.0539
  749MOL0     H 3318   3.842   1.727   6.619 -1.1990 -1.1802 -1.7920
  749MOL0     H 3319   3.722   1.723   6.745  3.8163  1.8085  4.5024
  749MOL0     H 3320   3.990   1.662   7.037  0.6061 -0.1673 -0.0633
  749MOL0     H 3321   4.048   1.723   7.238  1.0050 -0.8125  0.7866
  749MOL0     H 3322   3.982   1.886   7.309  2.4273 -0.6835  2.1438
  749MOL0     H 3323   4.140   1.865   7.247 -1.3133  0.7170  2.5609
  749MOL0     H 3324   3.945   2.393   7.119  0.6555 -0.5042 -2.0293
  749MOL0     H 3325   4.019   2.592   7.230 -1.2320 -0.3767 -0.5796
  749MOL0     H 3326   4.455   2.716   7.170  0.6925  0.4792 -0.0064
  749MOL0     H 3327   4.377   2.847   7.270  1.3139  0.3908  4.5959
  749MOL0     H 3328   4.459   2.578   7.397 -2.1598  0.1663  2.9290
  749MOL0     H 3329   4.533   2.735   7.402  0.8552 -2.0524  3.4292
  749MOL0     H 3330   4.247   2.672   7.497  0.5614  1.2052 -1.5242
  749MOL0     H 3331   4.333   2.826   7.506  0.1891  0.6056  1.1636
  749MOL0     H 3332   4.504   2.732   7.649 -0.2128  0.3763  2.6899
  749MOL0     H 3333   4.421   2.571   7.641 -5.2110 -1.6658 -2.4592
  749MOL0     H 3334   4.321   2.844   7.757 -3.7083  1.1215  1.3169
  749MOL0     H 3335   4.219   2.704   7.731 -0.2193  0.3187  0.1184
  749MOL0     H 3336   4.472   2.703   7.914 -0.8445  1.9551  2.7567
  749MOL0     H 3337   4.348   2.576   7.878 -0.3842 -0.2240  1.6257
  749MOL0     H 3338   4.172   2.751   7.946  1.1055  2.4023 -1.7203
  749MOL0     H 3339   4.309   2.857   7.983 -0.3722  0.8619 -0.7775
  749MOL0     H 3340   4.228   2.591   8.110  1.3219  0.4326 -1.7005
  749MOL0     H 3341   4.202   2.751   8.178 -2.4124  1.4131 -3.8236
  749MOL0     H 3342   4.425   2.478   7.150  1.9363 -2.4303 -0.5524
  749MOL0     H 3343   4.356   2.260   7.090 -0.5517  0.4435  0.3852
  749MOL0     H 3344   3.912   2.115   6.882  1.9506  0.9611  2.2339
  749MOL0     H 3345   3.861   1.918   6.718 -0.7637 -0.4778 -0.0465
  749MOL0     H 3346   3.395   1.552   6.874 -0.8658 -0.2513 -0.0597
  749MOL0     H 3347   3.471   1.779   6.965 -3.5869  2.2440  1.1352
  749MOL0     H 3348   3.480   2.140   7.009  0.8865 -0.0637 -0.3678
  749MOL0     H 3349   3.494   2.335   7.155  0.0189  2.1273 -0.1113
  749MOL0     H 3350   3.772   2.689   7.078  0.4978  2.8269  0.6206
  749MOL0     H 3351   3.633   2.718   6.967 -0.1384 -1.2296  0.3845
  749MOL0     H 3352   3.645   2.777   7.271 -2.8003 -1.5076  1.3105
  749MOL0     H 3353   3.498   2.759   7.175  0.3316 -0.5560  4.0229
  749MOL0     H 3354   3.724   2.958   7.148 -0.4884 -3.0426  2.8606
  749MOL0     H 3355   3.604   2.921   7.016 -1.4255  0.5992  0.1748
  749MOL0     H 3356   3.593   3.102   7.190  2.4827 -1.2221  1.2379
  749MOL0     H 3357   3.519   2.974   7.298 -2.1673 -2.5553 -0.7311
  749MOL0     H 3358   3.177   3.024   7.079  1.2513 -0.0479 -1.4512
  749MOL0     H 3359   3.740   2.544   6.883 -0.4367 -0.0709  0.0843
  749MOL0     H 3360   3.872   2.299   6.701  3.1720  5.1563 -1.6089
  749MOL0     H 3361   3.721   2.312   6.605 -0.8777  2.2744 -0.1610
  749MOL0     H 3362   3.784   2.453   6.672 -3.6131 -0.0595 -0.0595
  750MOL0     O 3363   2.365   0.924   0.533 -0.1523 -0.5653 -0.8686
  750MOL0     C 3364   2.298   0.868   0.449  0.5927 -1.4495  0.4176
  750MOL0     O 3365   2.206   0.765   0.467 -0.4409 -0.0411  0.4186
  750MOL0     C 3366   2.203   0.680   0.583 -0.4115  0.1635  1.1456
  750MOL0     C 3367   2.299   0.670   0.678 -0.9546  0.4096  0.0068
  750MOL0     C 3368   2.294   0.580   0.782  0.7523  0.7537  0.3420
  750MOL0     C 3369   2.180   0.501   0.802 -0.8152 -0.0041 -0.2009
  750MOL0     O 3370   2.185   0.413   0.909  0.2611  0.0217  0.4352
  750MOL0     C 3371   2.276   0.305   0.902 -0.7078  0.2863  0.0667
  750MOL0     C 3372   2.242   0.186   0.991  0.1682 -0.0483 -0.5594
  750MOL0     C 3373   2.272   0.225   1.144  0.6750  0.0238  0.3222
  750MOL0     C 3374   2.181   0.323   1.223  1.2982 -0.0293  0.3219
  750MOL0     C 3375   2.032   0.285   1.234  0.3180 -0.5750 -0.3127
  750MOL0     C 3376   1.934   0.393   1.278  0.3915 -0.3345 -0.4294
  750MOL0     C 3377   1.785   0.360   1.242 -0.6256  0.3571 -0.0185
  750MOL0     C 3378   1.721   0.478   1.180 -0.4249  0.1703  0.1313
  750MOL0     N 3379   1.575   0.447   1.146 -0.2057 -0.7425 -0.2233
  750MOL0     C 3380   1.466   0.475   1.231  1.8580  0.8185  1.1895
  750MOL0     C 3381   1.360   0.429   1.156  0.1960  0.1511  0.3464
  750MOL0     C 3382   1.222   0.431   1.213  0.4789  0.2873  0.4835
  750MOL0     C 3383   1.171   0.284   1.233  0.1241 -0.1807  0.2961
  750MOL0     C 3384   1.030   0.280   1.297 -0.2629  0.8796 -0.1667
  750MOL0     C 3385   0.907   0.252   1.207 -0.1256  0.7052  0.1600
  750MOL0     O 3386   0.913   0.106   1.158 -0.6139 -0.0824 -0.6151
  750MOL0     C 3387   0.812   0.068   1.073  0.5307 -0.0424 -0.8678
  750MOL0     C 3388   0.838  -0.056   1.006  1.2005  0.3844 -0.1785
  750MOL0     C 3389   0.733  -0.114   0.937  0.5695 -0.5608  1.0135
  750MOL0     C 3390   0.757  -0.237   0.862  0.6875  0.9274  0.6052
  750MOL0     C 3391   0.600  -0.051   0.928 -0.0699 -0.2792  0.0799
  750MOL0     C 3392   0.490  -0.110   0.848 -0.9130 -0.3853 -0.8448
  750MOL0     O 3393   0.373  -0.110   0.907  0.6314  0.0458 -0.7585
  750MOL0     C 3394   0.257  -0.140   0.834 -0.7497  1.1035  0.4352
  750MOL0     C 3395   0.148  -0.055   0.855 -0.7239  0.1340  0.1766
  750MOL0     C 3396   0.037  -0.081   0.775 -0.1298 -1.0090  0.3302
  750MOL0     C 3397   0.028  -0.194   0.684  0.2314  0.5874  0.0803
  750MOL0     O 3398  -0.081  -0.226   0.611  0.3253  0.3492 -0.6290
  750MOL0     C 3399  -0.077  -0.165   0.479  0.0084  0.2938 -0.2160
  750MOL0     C 3400  -0.095  -0.007   0.465  0.2920  0.1268  0.2245
  750MOL0     C 3401  -0.244   0.024   0.487 -0.6548 -0.6559 -0.4390
  750MOL0     C 3402  -0.319   0.067   0.361  0.0222  0.0904  1.1992
  750MOL0     C 3403  -0.473   0.072   0.371  0.1835 -0.6674 -0.8009
  750MOL0     C 3404  -0.549   0.100   0.244 -1.0184  0.6868  0.8157
  750MOL0     C 3405  -0.694   0.136   0.277 -0.7989  0.7698  0.1141
  750MOL0     C 3406  -0.742   0.215   0.162  0.3795 -0.9287  0.4018
  750MOL0    Cl 3407  -0.669   0.374   0.167  0.4553  0.0494  0.1720
  750MOL0     C 3408   0.140  -0.280   0.675  0.0742  0.6124 -0.2432
  750MOL0     C 3409   0.252  -0.247   0.749  0.0727  0.3453  0.2742
  750MOL0     O 3410   0.518  -0.135   0.729  0.7437 -0.2259 -0.0561
  750MOL0     C 3411   0.569   0.071   1.003 -0.1969 -0.4871 -0.2127
  750MOL0     C 3412   0.680   0.126   1.075 -0.2923  1.0591  0.0057
  750MOL0     N 3413   1.408   0.385   1.038  0.0092  0.2944  0.0541
  750MOL0     N 3414   1.533   0.389   1.029 -0.3954  0.2061  0.1129
  750MOL0     C 3415   2.079   0.517   0.718  0.3472 -0.3327  0.3818
  750MOL0     C 3416   2.088   0.600   0.597 -0.3568 -0.8942 -0.4746
  750MOL0     C 3417   2.305   0.940   0.314 -0.0888  0.7510  0.5939
  750MOL0     C 3418   2.191   0.931   0.228 -1.3635  0.4609 -1.0130
  750MOL0     C 3419   2.183   0.993   0.112 -0.3532 -0.5231  0.9150
  750MOL0     C 3420   2.284   1.085   0.064  0.3712  0.1237  0.1772
  750MOL0     O 3421   2.272   1.156  -0.052 -0.1099 -0.7321 -0.1032
  750MOL0     C 3422   2.385   1.197  -0.116  0.1971  0.1036 -0.1776
  750MOL0     C 3423   2.348   1.290  -0.242 -0.3151 -0.5084 -0.4933
  750MOL0     C 3424   2.416   1.416  -0.243  0.3592 -0.5123  0.0046
  750MOL0     C 3425   2.328   1.525  -0.310 -0.5201  0.4571 -0.2728
  750MOL0     C 3426   2.341   1.658  -0.247 -0.4270 -0.0435 -0.3410
  750MOL0     C 3427   2.344   1.769  -0.200  0.5530  0.9397  0.8481
  750MOL0     C 3428   2.389   1.104   0.151 -0.1960  0.3785 -0.0845
  750MOL0     C 3429   2.401   1.026   0.268  0.0928  0.3304  0.0307
  750MOL0     C 3430   2.531   1.051   0.340  0.4578 -0.2037  0.3950
  750MOL0     H 3431   2.386   0.734   0.690 -1.0711  0.3271  1.4615
  750MOL0     H 3432   2.379   0.563   0.846  0.7337  0.0644  0.1888
  750MOL0     H 3433   2.380   0.335   0.919 -0.5556 -0.6037  0.7322
  750MOL0     H 3434   2.279   0.266   0.800  2.7836  1.2677 -0.3479
  750MOL0     H 3435   2.136   0.160   0.988 -0.0084  0.1496  1.8620
  750MOL0     H 3436   2.301   0.098   0.965  3.4694  0.8135  2.9371
  750MOL0     H 3437   2.252   0.136   1.204  0.2723 -1.8196 -2.3942
  750MOL0     H 3438   2.376   0.254   1.162  1.0152 -0.2738 -1.0714
  750MOL0     H 3439   2.214   0.329   1.327  1.3965  1.6514  0.2067
  750MOL0     H 3440   2.193   0.424   1.185 -1.4128  2.2603  4.6654
  750MOL0     H 3441   2.032   0.213   1.316 -0.2508  0.1777  0.3555
  750MOL0     H 3442   1.995   0.238   1.142  0.8899 -0.4262 -0.6258
  750MOL0     H 3443   1.938   0.399   1.387  0.9467 -2.0036 -0.3447
  750MOL0     H 3444   1.949   0.494   1.239 -0.1887 -0.5158 -1.1473
  750MOL0     H 3445   1.728   0.306   1.318  0.3831 -2.1618 -0.9428
  750MOL0     H 3446   1.796   0.289   1.160  2.1462  0.6365  0.0311
  750MOL0     H 3447   1.729   0.571   1.237  2.3888 -0.0911  0.3119
  750MOL0     H 3448   1.771   0.495   1.085  2.4399  2.6546  1.8974
  750MOL0     H 3449   1.448   0.523   1.326 -3.1613  1.0795  0.3978
  750MOL0     H 3450   1.167   0.476   1.130  0.6617 -0.5767 -0.1196
  750MOL0     H 3451   1.218   0.480   1.311  0.2394 -1.8398  1.5780
  750MOL0     H 3452   1.167   0.236   1.135 -0.5186  0.1170  0.1719
  750MOL0     H 3453   1.247   0.226   1.285 -0.0879 -2.0793 -1.3814
  750MOL0     H 3454   1.039   0.200   1.372 -0.1666  2.6870  1.8772
  750MOL0     H 3455   1.012   0.359   1.371  1.7188 -0.7829  2.2782
  750MOL0     H 3456   0.822   0.261   1.274  2.2979  1.8395  3.3555
  750MOL0     H 3457   0.890   0.317   1.121 -1.8503  2.5648  1.7907
  750MOL0     H 3458   0.934  -0.107   1.010  1.7421  1.4556  1.3423
  750MOL0     H 3459   0.855  -0.281   0.884  0.4588  0.9979  1.7983
  750MOL0     H 3460   0.749  -0.219   0.754  2.6611 -1.0142  0.0441
  750MOL0     H 3461   0.685  -0.317   0.880  2.2297 -0.0879  2.6009
  750MOL0     H 3462   0.162   0.015   0.937  2.0716  0.0655 -0.1399
  750MOL0     H 3463  -0.056  -0.026   0.788 -0.6280 -1.8832  0.5449
  750MOL0     H 3464   0.020  -0.188   0.433  0.9129 -0.0543  1.7686
  750MOL0     H 3465  -0.155  -0.212   0.417 -0.0141 -0.6853  0.5291
  750MOL0     H 3466  -0.044   0.055   0.538 -0.2809  2.0936 -0.9793
  750MOL0     H 3467  -0.083   0.031   0.363 -0.2862 -1.3463 -0.4226
  750MOL0     H 3468  -0.248   0.103   0.563  1.4875 -1.1042  0.2086
  750MOL0     H 3469  -0.297  -0.061   0.529 -0.0113 -1.0635 -0.4326
  750MOL0     H 3470  -0.287  -0.004   0.284  2.8324 -0.3703  2.6841
  750MOL0     H 3471  -0.280   0.162   0.323 -0.9589  0.5054  1.1865
  750MOL0     H 3472  -0.488  -0.031   0.404  2.5565 -0.8258  0.0197
  750MOL0     H 3473  -0.492   0.137   0.457  0.4658  1.1221 -2.0423
  750MOL0     H 3474  -0.544   0.015   0.176  1.3874  1.1037  0.4108
  750MOL0     H 3475  -0.503   0.188   0.197 -1.3135  0.4007 -0.0192
  750MOL0     H 3476  -0.703   0.186   0.373 -1.2021 -2.3818  1.8627
  750MOL0     H 3477  -0.751   0.043   0.285  3.8652 -2.4141  0.0748
  750MOL0     H 3478  -0.849   0.238   0.167  0.3254 -1.0253 -0.3100
  750MOL0     H 3479  -0.726   0.164   0.067 -2.8578 -0.2961 -0.5768
  750MOL0     H 3480   0.142  -0.370   0.615  3.6157  0.2116  0.2676
  750MOL0     H 3481   0.338  -0.306   0.719  0.7119  2.9158 -3.5663
  750MOL0     H 3482   0.474   0.124   0.998 -1.3075 -2.2465  0.9191
  750MOL0     H 3483   0.653   0.220   1.122  2.1154  0.5255  2.7732
  750MOL0     H 3484   1.993   0.452   0.731 -0.0173  0.5912  3.3282
  750MOL0     H 3485   1.997   0.590   0.539 -2.0254 -0.5987  1.9512
  750MOL0     H 3486   2.104   0.878   0.265 -1.3973  3.3586  4.0000
  750MOL0     H 3487   2.097   0.971   0.049  1.1282 -0.8101 -1.1347
  750MOL0     H 3488   2.454   1.259  -0.058 -2.8601  4.8162 -1.0089
  750MOL0     H 3489   2.431   1.105  -0.154 -2.5326 -2.3098  1.9092
  750MOL0     H 3490   2.239   1.303  -0.235 -0.3368 -0.8884 -0.0581
  750MOL0     H 3491   2.384   1.235  -0.330  1.3073 -3.2981  1.7331
  750MOL0     H 3492   2.447   1.448  -0.143 -3.0804  2.8754  0.2049
  750MOL0     H 3493   2.516   1.406  -0.286 -0.4963 -2.5856 -1.6956
  750MOL0     H 3494   2.224   1.492  -0.296 -0.1790  0.2067  2.1102
  750MOL0     H 3495   2.354   1.534  -0.416  3.2960 -1.0640  0.3972
  750MOL0     H 3496   2.341   1.865  -0.152 -1.4089 -0.2933  3.3987
  750MOL0     H 3497   2.476   1.161   0.120  1.5903 -1.7238  0.8124
  750MOL0     H 3498   2.515   1.148   0.388 -1.9351 -0.7553  0.8300
  750MOL0     H 3499   2.560   0.980   0.417  1.8496  0.6299  0.6756
  750MOL0     H 3500   2.606   1.047   0.261  1.5756  2.5843  1.2024
  751MOL0     O 3501   0.320   0.267  10.342  0.0848 -0.0114 -0.3290
  751MOL0     C 3502   0.246   0.371  10.329 -0.2845  0.2584 -0.0606
  751MOL0     O 3503   0.117   0.370  10.322  0.3499 -0.2585  0.7857
  751MOL0     C 3504   0.037   0.259  10.361 -0.7984  0.4515  0.5787
  751MOL0     C 3505   0.072   0.127  10.297 -0.9115  0.3921  0.5155
  751MOL0     C 3506   0.000   0.010  10.316 -0.0661  0.2912  0.2377
  751MOL0     C 3507  -0.113   0.017  10.400 -0.7676 -0.8666  0.8073
  751MOL0     O 3508  -0.189  -0.099  10.402  0.3774  0.3929  0.0216
  751MOL0     C 3509  -0.232  -0.127  10.539 -0.7808  0.0750 -1.1322
  751MOL0     C 3510  -0.282  -0.275  10.556  0.3043 -0.4108  0.4920
  751MOL0     C 3511  -0.359  -0.311  10.692 -0.3358  0.1947 -0.0466
  751MOL0     C 3512  -0.387  -0.467  10.708 -0.3661  0.2928  0.1621
  751MOL0     C 3513  -0.358  -0.524  10.841  0.5670 -0.1982 -0.4290
  751MOL0     C 3514  -0.220  -0.533  10.873  0.1977  0.3307  0.0776
  751MOL0     C 3515  -0.202  -0.584  11.017  0.1333 -0.1510  0.1141
  751MOL0     C 3516  -0.066  -0.628  11.055  1.1270  0.4845 -0.6578
  751MOL0     N 3517   0.041  -0.543  10.994  1.0345  0.4084  0.3795
  751MOL0     C 3518   0.152  -0.589  10.922 -0.5506 -0.0417 -0.5587
  751MOL0     C 3519   0.213  -0.477  10.875 -0.7406  1.3765 -0.7671
  751MOL0     C 3520   0.329  -0.468  10.789 -0.6716 -0.8820  0.2696
  751MOL0     C 3521   0.336  -0.325  10.735 -0.0499  0.1119  0.4205
  751MOL0     C 3522   0.431  -0.306  10.613 -0.1999 -0.0702 -0.4799
  751MOL0     C 3523   0.447  -0.152  10.581 -1.0154  0.0094  0.9408
  751MOL0     O 3524   0.474  -0.073  10.701 -0.4231  1.8104  0.0196
  751MOL0     C 3525   0.525   0.049  10.689  0.3802 -0.6922  0.2246
  751MOL0     C 3526   0.510   0.116  10.808  0.7925 -2.6633 -0.4490
  751MOL0     C 3527   0.548   0.250  10.831  0.1498  0.9161 -0.4089
  751MOL0     C 3528   0.525   0.309  10.969 -0.1555 -0.7466 -0.5724
  751MOL0     C 3529   0.600   0.316  10.722  0.9358 -0.6111  0.5859
  751MOL0     C 3530   0.612   0.466  10.736 -0.8674 -0.3868  0.0531
  751MOL0     O 3531   0.496   0.539  10.734  0.3426 -0.1330 -0.4054
  751MOL0     C 3532   0.511   0.669  10.760 -0.6035 -0.2894 -0.1902
  751MOL0     C 3533   0.487   0.767  10.668  0.1021  0.7172  0.1884
  751MOL0     C 3534   0.502   0.906  10.691  0.6248  0.6135 -1.3590
  751MOL0     C 3535   0.551   0.943  10.817 -0.1668 -0.8426  0.6123
  751MOL0     O 3536   0.591   1.079  10.842  0.6619 -0.2474  0.3058
  751MOL0     C 3537   0.615   1.162  10.725  0.7102 -0.0087  0.1912
  751MOL0     C 3538   0.645   1.300  10.776 -0.3000 -0.4067 -0.9670
  751MOL0     C 3539   0.678   1.395  10.666 -0.5909  0.3460  0.0252
  751MOL0     C 3540   0.732   1.516  10.727  0.0513 -0.2208  0.0814
  751MOL0     C 3541   0.763   1.634  10.621 -0.3822 -0.5402 -1.2180
  751MOL0     C 3542   0.895   1.607  10.551 -0.4665 -0.3447  0.1280
  751MOL0     C 3543   0.914   1.675  10.415  0.0601  1.2361  0.4017
  751MOL0     C 3544   0.948   1.827  10.429  0.5314  0.2000  0.7950
  751MOL0    Cl 3545   0.816   1.908  10.330 -0.5616 -0.0777 -0.0978
  751MOL0     C 3546   0.566   0.838  10.913  0.5785  0.5115  0.1997
  751MOL0     C 3547   0.541   0.704  10.889 -0.3264 -0.4143 -0.3772
  751MOL0     O 3548   0.727   0.511  10.714 -0.6034  0.0885  0.7227
  751MOL0     C 3549   0.632   0.249  10.597 -0.3168  0.2178 -0.2040
  751MOL0     C 3550   0.594   0.115  10.582  0.5901  0.7234 -0.7761
  751MOL0     N 3551   0.153  -0.374  10.945 -0.0677 -0.2090 -0.4007
  751MOL0     N 3552   0.050  -0.413  11.015 -0.2640 -0.5513 -0.2664
  751MOL0     C 3553  -0.161   0.146  10.442 -0.3035 -0.1019 -1.0032
  751MOL0     C 3554  -0.090   0.264  10.417  0.0314 -0.1108 -0.2303
  751MOL0     C 3555   0.327   0.504  10.308  0.1762  0.3182 -0.2777
  751MOL0     C 3556   0.456   0.515  10.368 -0.1985  0.5511  0.3640
  751MOL0     C 3557   0.548   0.619  10.349  0.3803  0.0109 -0.1978
  751MOL0     C 3558   0.502   0.729  10.278 -0.0707  0.4440  0.1298
  751MOL0     O 3559   0.569   0.846  10.263 -0.0682 -0.1176  0.3089
  751MOL0     C 3560   0.704   0.861  10.329  0.0300 -0.2520  0.2596
  751MOL0     C 3561   0.754   1.010  10.307 -0.1046  0.2630 -0.9480
  751MOL0     C 3562   0.890   1.021  10.373 -0.2510 -0.8308 -0.5886
  751MOL0     C 3563   0.945   1.162  10.339  0.2109  1.0766 -0.4082
  751MOL0     C 3564   1.062   1.171  10.422 -0.2936  0.8929  0.3311
  751MOL0     C 3565   1.172   1.182  10.476  0.2681 -0.3385  0.5786
  751MOL0     C 3566   0.375   0.733  10.225  0.3714 -0.0724  0.6991
  751MOL0     C 3567   0.286   0.622  10.235  0.2735  0.3249 -0.3522
  751MOL0     C 3568   0.147   0.630  10.191  0.8522 -0.4916  0.1330
  751MOL0     H 3569   0.154   0.125  10.227  1.2289 -2.6132  2.8553
  751MOL0     H 3570   0.040  -0.082  10.275 -0.4111 -0.9256  2.4599
  751MOL0     H 3571  -0.314  -0.060  10.566 -0.2988  1.6287 -3.2808
  751MOL0     H 3572  -0.154  -0.109  10.614 -1.1142  0.1107 -0.7860
  751MOL0     H 3573  -0.356  -0.301  10.479 -2.1182 -1.8556  3.1135
  751MOL0     H 3574  -0.196  -0.336  10.528  0.6931  0.2040  0.3305
  751MOL0     H 3575  -0.310  -0.267  10.778  2.4770 -3.5939  0.5688
  751MOL0     H 3576  -0.454  -0.258  10.692  1.2299  3.2855 -2.1362
  751MOL0     H 3577  -0.495  -0.477  10.699 -0.2042 -0.4315 -1.0918
  751MOL0     H 3578  -0.331  -0.524  10.634  4.1205  0.3400  3.0936
  751MOL0     H 3579  -0.394  -0.627  10.845  4.6253 -1.8861 -2.0085
  751MOL0     H 3580  -0.417  -0.475  10.919 -2.6900  0.4270 -3.0435
  751MOL0     H 3581  -0.168  -0.608  10.813  2.5955 -0.6460  3.1270
  751MOL0     H 3582  -0.179  -0.432  10.861 -3.5852  2.2626  1.7850
  751MOL0     H 3583  -0.272  -0.667  11.030 -0.8651  0.7371  0.6240
  751MOL0     H 3584  -0.256  -0.520  11.087 -1.3657  1.2181 -2.1562
  751MOL0     H 3585  -0.055  -0.618  11.164  0.9434  0.6249 -0.6497
  751MOL0     H 3586  -0.056  -0.736  11.044 -2.0266 -1.0883  6.1134
  751MOL0     H 3587   0.188  -0.687  10.892 -1.9128 -0.7842  0.1377
  751MOL0     H 3588   0.312  -0.540  10.709 -2.7958  1.0821 -1.1806
  751MOL0     H 3589   0.418  -0.502  10.843 -1.4378 -1.9217  0.9069
  751MOL0     H 3590   0.233  -0.297  10.708 -0.5420 -2.5131 -0.7568
  751MOL0     H 3591   0.368  -0.266  10.821 -2.9448  0.4269  1.3892
  751MOL0     H 3592   0.530  -0.347  10.634 -1.4115 -2.7537  0.4711
  751MOL0     H 3593   0.395  -0.372  10.533  2.7536  0.5491 -2.4956
  751MOL0     H 3594   0.517  -0.151  10.497  0.6774 -3.2721  2.1438
  751MOL0     H 3595   0.353  -0.112  10.540 -0.8692  0.4685  1.0528
  751MOL0     H 3596   0.463   0.069  10.894 -2.2945 -0.2287 -0.5971
  751MOL0     H 3597   0.598   0.388  10.984  1.1812 -1.3684 -3.2550
  751MOL0     H 3598   0.527   0.234  11.049 -1.9149 -0.1260  0.0887
  751MOL0     H 3599   0.427   0.358  10.967  1.2558  2.3082 -0.4671
  751MOL0     H 3600   0.450   0.737  10.571  3.4319  0.3600 -1.1190
  751MOL0     H 3601   0.476   0.964  10.602 -3.9123 -1.6804 -1.8224
  751MOL0     H 3602   0.695   1.116  10.666 -0.2809 -0.6810 -0.6545
  751MOL0     H 3603   0.523   1.172  10.668 -0.0587 -1.3224  1.1403
  751MOL0     H 3604   0.557   1.333  10.832  0.1143 -2.7041  1.2313
  751MOL0     H 3605   0.733   1.281  10.838 -1.4371 -3.5742 -0.1437
  751MOL0     H 3606   0.588   1.417  10.609  0.2425  1.5919 -0.8674
  751MOL0     H 3607   0.746   1.353  10.592 -1.6340 -2.0509  0.3577
  751MOL0     H 3608   0.825   1.485  10.774 -0.4032 -0.4660  0.8300
  751MOL0     H 3609   0.655   1.554  10.795  2.0603  2.8679  0.8261
  751MOL0     H 3610   0.680   1.648  10.550 -1.8331  2.2043  0.8262
  751MOL0     H 3611   0.767   1.732  10.669 -2.9431 -1.6531  1.5551
  751MOL0     H 3612   0.898   1.500  10.526 -2.5301  0.4409 -4.7061
  751MOL0     H 3613   0.969   1.642  10.622 -2.3624 -0.3872  2.2325
  751MOL0     H 3614   0.838   1.660  10.338  3.3986 -1.1641 -2.7528
  751MOL0     H 3615   0.999   1.626  10.367  0.7410  2.5128  0.2724
  751MOL0     H 3616   1.039   1.848  10.373 -0.3603  0.8844 -0.4380
  751MOL0     H 3617   0.957   1.846  10.537  1.7444 -1.1969  0.9633
  751MOL0     H 3618   0.598   0.879  11.008 -0.7821 -0.5401  1.1579
  751MOL0     H 3619   0.558   0.638  10.975  2.7133 -0.6133 -1.0051
  751MOL0     H 3620   0.675   0.302  10.513 -0.7764  0.5425 -0.2419
  751MOL0     H 3621   0.619   0.061  10.491 -0.5186  0.2208 -0.8006
  751MOL0     H 3622  -0.253   0.166  10.497  1.2002 -1.2516  2.1444
  751MOL0     H 3623  -0.125   0.364  10.440  0.4980  0.4012 -1.6260
  751MOL0     H 3624   0.491   0.430  10.427  0.8854  2.0952  2.0216
  751MOL0     H 3625   0.640   0.616  10.406 -2.7182 -0.2470  5.6240
  751MOL0     H 3626   0.690   0.828  10.433 -1.5793 -0.1137  0.1163
  751MOL0     H 3627   0.764   0.793  10.268 -0.6724 -0.2546 -0.4387
  751MOL0     H 3628   0.688   1.084  10.352  2.0728  1.8686 -0.2357
  751MOL0     H 3629   0.758   1.021  10.198  0.0460 -5.3348 -1.8331
  751MOL0     H 3630   0.893   1.008  10.482  5.3245  0.2330 -0.3145
  751MOL0     H 3631   0.958   0.945  10.336 -0.0607 -1.0782  0.2462
  751MOL0     H 3632   0.884   1.248  10.367  1.3976  1.0968  2.5787
  751MOL0     H 3633   0.967   1.161  10.232  3.0871 -0.9184  0.0573
  751MOL0     H 3634   1.262   1.196  10.533 -0.3432  2.2056  1.0176
  751MOL0     H 3635   0.347   0.817  10.163  2.2997 -1.2526 -1.9550
  751MOL0     H 3636   0.068   0.615  10.264 -1.9088 -0.3632 -2.6088
  751MOL0     H 3637   0.133   0.729  10.146  2.0242 -0.6797 -0.6955
  751MOL0     H 3638   0.136   0.566  10.103  2.0267  1.0473 -1.2191
  752MOL0     O 3639   0.894   3.323   7.088 -0.0514  0.4447  0.3298
  752MOL0     C 3640   0.812   3.389   7.151 -0.3720  0.1808  0.7853
  752MOL0     O 3641   0.779   3.380   7.287 -0.6789  0.4469 -0.6919
  752MOL0     C 3642   0.871   3.308   7.364  0.4805 -0.5904  0.2135
  752MOL0     C 3643   0.939   3.192   7.322 -0.2202 -0.3798 -0.2309
  752MOL0     C 3644   1.020   3.117   7.399  0.1157 -0.7214  0.6498
  752MOL0     C 3645   1.051   3.149   7.526  0.0351  0.9987 -0.4059
  752MOL0     O 3646   1.106   3.069   7.625 -0.2891 -0.4518  0.6195
  752MOL0     C 3647   1.141   2.932   7.596  0.3354 -0.1223 -0.1136
  752MOL0     C 3648   1.121   2.863   7.737  0.3839 -0.4365 -0.2772
  752MOL0     C 3649   1.005   2.774   7.766 -1.2204  0.0584 -0.1614
  752MOL0     C 3650   0.985   2.733   7.916  0.6418 -0.5309 -0.0314
  752MOL0     C 3651   1.091   2.646   7.982  0.4272  0.1606  0.0563
  752MOL0     C 3652   1.119   2.507   7.919  0.1497 -1.3562  0.2375
  752MOL0     C 3653   1.231   2.426   8.007  0.2591 -0.3579 -0.7406
  752MOL0     C 3654   1.258   2.291   7.960 -0.4142  0.0813  0.8080
  752MOL0     N 3655   1.378   2.239   8.024 -0.3015 -0.3284  0.5541
  752MOL0     C 3656   1.379   2.161   8.137 -0.4562 -0.3207  0.0145
  752MOL0     C 3657   1.510   2.126   8.149  0.6140  0.3757  0.7248
  752MOL0     C 3658   1.564   2.024   8.248  0.4653 -0.7075  1.0349
  752MOL0     C 3659   1.510   2.058   8.381  1.4956  0.7370 -0.2213
  752MOL0     C 3660   1.594   2.026   8.506  0.7686 -0.5088 -0.3090
  752MOL0     C 3661   1.672   1.889   8.500  0.3477  0.0927  0.0485
  752MOL0     O 3662   1.684   1.833   8.631 -0.1454  0.8048  0.4609
  752MOL0     C 3663   1.742   1.910   8.731 -0.2367  0.1102 -0.0812
  752MOL0     C 3664   1.858   1.993   8.707  0.9288  0.7161  0.6635
  752MOL0     C 3665   1.922   2.054   8.814 -0.3548  0.6243  0.8333
  752MOL0     C 3666   2.049   2.120   8.775  0.1050  0.1701  0.8894
  752MOL0     C 3667   1.874   2.028   8.947 -0.5275 -0.2716 -0.6897
  752MOL0     C 3668   1.954   2.055   9.072 -0.6866  0.1426  0.8795
  752MOL0     O 3669   1.887   2.053   9.188 -0.1744  1.1934 -0.1952
  752MOL0     C 3670   1.949   2.099   9.300  0.4481 -0.1439  0.3203
  752MOL0     C 3671   2.068   2.175   9.314 -1.1016 -0.2809  0.4009
  752MOL0     C 3672   2.120   2.193   9.448 -0.9450 -0.0104  0.1166
  752MOL0     C 3673   2.054   2.150   9.562  0.6472  1.0787  0.9744
  752MOL0     O 3674   2.081   2.190   9.688  0.2872 -0.7606 -0.3295
  752MOL0     C 3675   2.212   2.172   9.728 -0.0693 -0.9402 -0.5793
  752MOL0     C 3676   2.236   2.264   9.853  0.6104  0.7028  0.0179
  752MOL0     C 3677   2.364   2.230   9.936  0.8893  0.2285 -0.1786
  752MOL0     C 3678   2.358   2.293  10.083 -0.3782 -0.4257  0.0687
  752MOL0     C 3679   2.271   2.231  10.184 -0.2187  0.1907 -1.2269
  752MOL0     C 3680   2.290   2.273  10.336 -0.1966  0.6093 -0.5975
  752MOL0     C 3681   2.281   2.419  10.363 -0.1876  0.1398  0.2834
  752MOL0     C 3682   2.267   2.454  10.510 -0.5703 -0.2573 -0.6266
  752MOL0    Cl 3683   2.235   2.617  10.545  0.5679 -0.7594 -0.3041
  752MOL0     C 3684   1.931   2.085   9.542 -0.1051  0.6786  0.5267
  752MOL0     C 3685   1.880   2.055   9.422 -0.0105 -0.5306  0.8122
  752MOL0     O 3686   2.075   2.056   9.053  0.2001 -0.2275 -0.0219
  752MOL0     C 3687   1.753   1.958   8.964 -0.6883  0.2636  0.3711
  752MOL0     C 3688   1.690   1.896   8.859 -0.0291  0.6190  0.4204
  752MOL0     N 3689   1.588   2.185   8.038  0.5052  0.0895 -0.9086
  752MOL0     N 3690   1.502   2.249   7.973  0.5498  0.4384  0.5122
  752MOL0     C 3691   0.994   3.268   7.578  0.8069 -0.3281  0.1129
  752MOL0     C 3692   0.895   3.349   7.498 -0.3006 -0.8462 -0.6833
  752MOL0     C 3693   0.717   3.481   7.071 -0.2536 -0.0720  0.4845
  752MOL0     C 3694   0.593   3.522   7.133 -0.4741 -0.6684 -0.0606
  752MOL0     C 3695   0.520   3.626   7.085  0.5753  0.9979  0.3809
  752MOL0     C 3696   0.555   3.688   6.957  0.7762  0.0784 -0.3233
  752MOL0     O 3697   0.484   3.796   6.912  0.0888  0.4931 -0.2894
  752MOL0     C 3698   0.562   3.913   6.899  0.9787 -0.8389  0.7173
  752MOL0     C 3699   0.611   3.959   7.045  0.2264  0.8045 -0.1452
  752MOL0     C 3700   0.498   4.015   7.143 -0.9770  0.5983  0.6115
  752MOL0     C 3701   0.464   3.920   7.267 -0.1774  0.1405  0.1824
  752MOL0     C 3702   0.433   3.992   7.394 -0.2875 -0.7907 -0.4091
  752MOL0     C 3703   0.423   4.067   7.491  0.1527  0.0603 -0.0199
  752MOL0     C 3704   0.659   3.630   6.885 -0.3238 -0.8168  0.2358
  752MOL0     C 3705   0.754   3.537   6.937  1.3266 -0.0121 -0.4689
  752MOL0     C 3706   0.868   3.488   6.839 -0.3483 -0.3611 -0.1475
  752MOL0     H 3707   0.947   3.166   7.217  1.7422  2.8814 -1.0406
  752MOL0     H 3708   1.067   3.029   7.356  0.2235 -1.0117  1.3364
  752MOL0     H 3709   1.249   2.934   7.581  0.4927  1.8435  0.8543
  752MOL0     H 3710   1.086   2.876   7.520 -0.5834 -1.3729  1.4081
  752MOL0     H 3711   1.206   2.797   7.757  2.0543  0.9596 -2.3016
  752MOL0     H 3712   1.134   2.943   7.811  2.9234 -0.3232 -0.7365
  752MOL0     H 3713   0.917   2.832   7.738 -0.5968  2.5148  2.4933
  752MOL0     H 3714   1.017   2.682   7.708  0.4337  1.4678 -2.2068
  752MOL0     H 3715   0.968   2.822   7.978 -0.2809 -0.3094 -0.5726
  752MOL0     H 3716   0.895   2.672   7.925  0.0466  0.5488  2.1169
  752MOL0     H 3717   1.071   2.637   8.089  1.3664  0.9317  0.3137
  752MOL0     H 3718   1.186   2.699   7.970 -0.0072  0.3465 -4.2932
  752MOL0     H 3719   1.023   2.456   7.933 -0.3380 -0.2771  0.9740
  752MOL0     H 3720   1.131   2.514   7.810  1.1514  1.1037  0.4317
  752MOL0     H 3721   1.193   2.394   8.104 -0.8473 -0.1697 -1.0966
  752MOL0     H 3722   1.325   2.481   8.013 -0.8840  1.8928 -1.9353
  752MOL0     H 3723   1.185   2.210   7.964  3.0289 -3.2830  1.5167
  752MOL0     H 3724   1.283   2.294   7.854  2.6106  0.3555  1.4317
  752MOL0     H 3725   1.303   2.164   8.215  2.4477  2.7384  3.0287
  752MOL0     H 3726   1.673   2.035   8.241  0.3142  0.4503  0.0442
  752MOL0     H 3727   1.530   1.929   8.206  1.4739  0.2787 -2.3655
  752MOL0     H 3728   1.490   2.166   8.390 -0.1015  0.4840 -0.3243
  752MOL0     H 3729   1.409   2.015   8.388  2.6759 -2.1637  0.1498
  752MOL0     H 3730   1.665   2.107   8.523  2.8434 -2.3719  0.4276
  752MOL0     H 3731   1.524   2.012   8.588  2.3811 -1.2568  1.0074
  752MOL0     H 3732   1.621   1.813   8.440  0.0333  0.0094  0.4149
  752MOL0     H 3733   1.767   1.906   8.450  0.5195 -1.6266 -0.2788
  752MOL0     H 3734   1.910   1.995   8.612  0.5331  3.1324  0.4173
  752MOL0     H 3735   2.069   2.199   8.848 -0.0183  0.9944  0.0474
  752MOL0     H 3736   2.048   2.166   8.675  0.3316 -0.9610  0.3534
  752MOL0     H 3737   2.125   2.043   8.763 -0.4810 -0.0923 -1.7222
  752MOL0     H 3738   2.125   2.231   9.241 -0.7434 -0.7440  0.3206
  752MOL0     H 3739   2.210   2.250   9.467 -0.2287 -1.2357  0.4908
  752MOL0     H 3740   2.236   2.074   9.770  0.3094 -0.4518  0.3779
  752MOL0     H 3741   2.285   2.206   9.654 -1.1833  0.7333 -0.9660
  752MOL0     H 3742   2.233   2.364   9.807  1.3616  0.3577 -0.8044
  752MOL0     H 3743   2.141   2.251   9.905 -0.5090  0.1251 -2.0413
  752MOL0     H 3744   2.448   2.265   9.875  0.0510  2.0902 -0.3280
  752MOL0     H 3745   2.378   2.121   9.942 -1.7831 -0.1510  0.1912
  752MOL0     H 3746   2.329   2.398  10.074 -2.6761 -1.0124 -0.1943
  752MOL0     H 3747   2.451   2.293  10.140 -3.0628  2.8309  5.1975
  752MOL0     H 3748   2.166   2.260  10.174 -0.2971  1.7560  2.4626
  752MOL0     H 3749   2.277   2.122  10.190  0.1761  0.2492 -0.4809
  752MOL0     H 3750   2.392   2.256  10.373 -1.1564 -0.0345  1.9538
  752MOL0     H 3751   2.223   2.222  10.405  0.2895 -0.5377 -0.9473
  752MOL0     H 3752   2.190   2.449  10.311  2.3708  0.3098 -4.7071
  752MOL0     H 3753   2.368   2.469  10.319  1.0709 -0.6771  1.7716
  752MOL0     H 3754   2.356   2.426  10.567  2.3753  4.4938 -2.3180
  752MOL0     H 3755   2.184   2.396  10.552  0.4231 -0.4988  1.0831
  752MOL0     H 3756   1.872   2.051   9.627  0.2379  0.5966  0.7400
  752MOL0     H 3757   1.780   2.017   9.407 -1.9824  3.0721  3.2888
  752MOL0     H 3758   1.732   1.948   9.070  5.0363  1.5502  1.9802
  752MOL0     H 3759   1.607   1.828   8.876  1.4167 -1.5495 -0.6558
  752MOL0     H 3760   1.015   3.305   7.677  0.3817 -0.2639  0.1811
  752MOL0     H 3761   0.853   3.441   7.538  2.4173  1.6937 -3.1843
  752MOL0     H 3762   0.554   3.476   7.224  4.1735 -0.4860  2.2928
  752MOL0     H 3763   0.438   3.668   7.141 -0.0083 -1.2796  1.3306
  752MOL0     H 3764   0.647   3.902   6.831  0.9404 -1.2797  0.7405
  752MOL0     H 3765   0.502   4.001   6.875  1.2428 -0.6196  0.8481
  752MOL0     H 3766   0.674   4.049   7.036  0.7821  0.3797 -0.6022
  752MOL0     H 3767   0.683   3.888   7.087 -0.9231 -0.5527 -0.3916
  752MOL0     H 3768   0.548   4.108   7.174  1.6873 -0.8835  1.1111
  752MOL0     H 3769   0.416   4.033   7.073 -1.8765 -0.2484  1.4360
  752MOL0     H 3770   0.545   3.849   7.287  2.5540  2.9180 -0.1998
  752MOL0     H 3771   0.384   3.856   7.227  1.3568 -0.6689 -1.7306
  752MOL0     H 3772   0.408   4.129   7.577 -0.1665  0.0864 -0.0911
  752MOL0     H 3773   0.685   3.669   6.786 -0.4859 -6.6284 -2.5018
  752MOL0     H 3774   0.859   3.534   6.740  2.7170 -0.5995 -0.6482
  752MOL0     H 3775   0.970   3.516   6.866 -1.0766 -0.0355  2.5693
  752MOL0     H 3776   0.868   3.380   6.822 -1.6802 -0.5153  0.6829
  753MOL0     O 3777   4.287   1.561   0.546  0.6480  0.1842 -0.0092
  753MOL0     C 3778   4.357   1.633   0.615 -0.9779  0.4645 -0.0149
  753MOL0     O 3779   4.470   1.706   0.570  0.3066  0.5136 -0.2839
  753MOL0     C 3780   4.516   1.691   0.443 -0.3301  0.4725  0.6537
  753MOL0     C 3781   4.513   1.576   0.356 -0.1962 -0.7784 -1.2994
  753MOL0     C 3782   4.581   1.566   0.233  0.0186 -0.7579  0.0714
  753MOL0     C 3783   4.662   1.684   0.194 -1.0572  0.6773 -0.1745
  753MOL0     O 3784   4.738   1.679   0.081 -0.3359  0.4292 -0.4260
  753MOL0     C 3785   4.693   1.762  -0.030 -0.3348 -0.8651 -0.4711
  753MOL0     C 3786   4.755   1.695  -0.154 -1.0090  0.7688  0.1695
  753MOL0     C 3787   4.910   1.672  -0.160  0.9419 -0.0987  0.3966
  753MOL0     C 3788   4.950   1.603  -0.291  0.0648  0.0726 -0.2158
  753MOL0     C 3789   5.089   1.635  -0.300 -0.1928 -0.1611  0.5885
  753MOL0     C 3790   5.141   1.604  -0.437 -0.3143  0.5894  0.6262
  753MOL0     C 3791   5.274   1.668  -0.477 -0.2813  0.5424  0.8736
  753MOL0     C 3792   5.240   1.792  -0.566 -0.4390  0.4927  0.0454
  753MOL0     N 3793   5.197   1.759  -0.703  0.0439 -0.5465  0.4172
  753MOL0     C 3794   5.168   1.628  -0.756 -0.6347  0.1106  0.2008
  753MOL0     C 3795   5.139   1.654  -0.888 -1.4419  0.1188 -0.1229
  753MOL0     C 3796   5.134   1.560  -0.996  0.4156  0.2475  0.7204
  753MOL0     C 3797   5.004   1.577  -1.069  0.4222  0.6853  0.0473
  753MOL0     C 3798   5.013   1.679  -1.185  0.0380 -0.4206 -0.2301
  753MOL0     C 3799   4.881   1.695  -1.259  0.2476 -0.7672  0.4309
  753MOL0     O 3800   4.852   1.564  -1.322 -0.2810  0.6060 -0.4002
  753MOL0     C 3801   4.843   1.562  -1.456  1.3728 -0.0724 -0.1547
  753MOL0     C 3802   4.900   1.643  -1.545 -0.7112 -0.1196  0.9206
  753MOL0     C 3803   4.911   1.619  -1.684  0.5045 -0.1831  0.4965
  753MOL0     C 3804   5.013   1.708  -1.757 -0.4306 -0.7800 -0.8808
  753MOL0     C 3805   4.847   1.509  -1.742  0.6649 -0.0578  0.0032
  753MOL0     C 3806   4.840   1.483  -1.884 -0.9652  0.0257  0.5170
  753MOL0     O 3807   4.794   1.359  -1.917  0.1305 -0.8798  0.7080
  753MOL0     C 3808   4.814   1.321  -2.043  0.7963  0.5266 -0.4659
  753MOL0     C 3809   4.704   1.241  -2.089 -0.2722  0.9537 -1.0869
  753MOL0     C 3810   4.726   1.154  -2.201 -0.0194 -0.1985 -0.4399
  753MOL0     C 3811   4.843   1.153  -2.270  0.6048 -0.0933 -0.3205
  753MOL0     O 3812   4.879   1.066  -2.377 -0.1022  0.0616 -0.2097
  753MOL0     C 3813   4.765   0.997  -2.444  0.8811  0.1670  0.1803
  753MOL0     C 3814   4.823   0.873  -2.509  0.2625  0.0383 -0.4547
  753MOL0     C 3815   4.720   0.755  -2.534  0.4584  0.2665  0.1660
  753MOL0     C 3816   4.603   0.789  -2.630 -0.1962  0.8878  0.1424
  753MOL0     C 3817   4.517   0.669  -2.675 -0.0629 -0.2211 -0.5341
  753MOL0     C 3818   4.562   0.615  -2.810 -0.1868 -0.7046  1.1318
  753MOL0     C 3819   4.483   0.485  -2.849 -0.0391 -0.8544  0.6466
  753MOL0     C 3820   4.538   0.406  -2.961 -0.7235 -0.7330  0.8529
  753MOL0    Cl 3821   4.481   0.472  -3.112  0.5029  0.1292  0.3764
  753MOL0     C 3822   4.944   1.234  -2.221  0.2390  0.1498  0.8422
  753MOL0     C 3823   4.937   1.319  -2.112 -0.1754  0.1498  0.6452
  753MOL0     O 3824   4.879   1.571  -1.966 -0.4268  0.0125 -1.1533
  753MOL0     C 3825   4.775   1.432  -1.651  0.0547  0.0000 -0.7343
  753MOL0     C 3826   4.778   1.447  -1.514  0.0750 -0.0476  0.1765
  753MOL0     N 3827   5.118   1.785  -0.899  0.2068 -0.1255 -0.2364
  753MOL0     N 3828   5.158   1.854  -0.798  0.4029 -0.2663 -0.4260
  753MOL0     C 3829   4.684   1.782   0.285  0.3343 -0.4074 -0.6558
  753MOL0     C 3830   4.602   1.793   0.403  0.1150 -0.5220  0.3471
  753MOL0     C 3831   4.325   1.639   0.766  0.7267 -0.9751 -0.0870
  753MOL0     C 3832   4.335   1.772   0.816  0.4583  0.6878  0.8476
  753MOL0     C 3833   4.314   1.803   0.949 -0.6006 -0.7258 -0.3804
  753MOL0     C 3834   4.262   1.701   1.029 -0.0001  0.1186  0.1089
  753MOL0     O 3835   4.220   1.717   1.156 -0.3681  0.2513 -0.7890
  753MOL0     C 3836   4.213   1.851   1.203  0.6054 -0.1573 -1.7682
  753MOL0     C 3837   4.121   1.856   1.328 -0.6476  0.7720  0.1121
  753MOL0     C 3838   4.107   1.993   1.387  0.1448  0.2471  0.1251
  753MOL0     C 3839   4.238   2.031   1.446 -0.8442  0.0923 -0.0099
  753MOL0     C 3840   4.215   2.155   1.518  0.6239 -0.1991  0.9180
  753MOL0     C 3841   4.210   2.269   1.553  0.7187 -0.0965  0.7432
  753MOL0     C 3842   4.250   1.575   0.982 -0.3737  0.1509 -0.3528
  753MOL0     C 3843   4.282   1.545   0.854  0.6866  0.6125 -0.0983
  753MOL0     C 3844   4.266   1.408   0.799 -0.5469 -0.0201  0.3958
  753MOL0     H 3845   4.447   1.496   0.389  0.3684 -0.3728  0.9701
  753MOL0     H 3846   4.571   1.480   0.167 -1.7505 -1.8050  1.6004
  753MOL0     H 3847   4.701   1.868  -0.006 -5.6040 -0.3822  0.3496
  753MOL0     H 3848   4.586   1.757  -0.052  0.0040  2.0188 -3.6564
  753MOL0     H 3849   4.702   1.599  -0.158 -0.3847  0.4531 -1.9712
  753MOL0     H 3850   4.710   1.738  -0.243 -1.0806 -1.1072 -0.7614
  753MOL0     H 3851   4.967   1.763  -0.141  1.0628  0.6991 -3.1722
  753MOL0     H 3852   4.941   1.603  -0.081  2.4146  2.2982  2.0569
  753MOL0     H 3853   4.934   1.496  -0.283 -1.4697  0.2594 -0.3917
  753MOL0     H 3854   4.894   1.646  -0.375  0.8985 -0.9976 -1.3604
  753MOL0     H 3855   5.136   1.564  -0.231 -2.8324 -2.6494  0.0407
  753MOL0     H 3856   5.102   1.742  -0.284  2.6995 -0.8627  4.1621
  753MOL0     H 3857   5.151   1.496  -0.451 -2.9932  0.4428 -0.7261
  753MOL0     H 3858   5.068   1.632  -0.514 -0.8424 -1.2839  0.3986
  753MOL0     H 3859   5.333   1.594  -0.532 -0.2972  1.8953 -1.0831
  753MOL0     H 3860   5.331   1.695  -0.388  1.2473 -1.1775  0.4678
  753MOL0     H 3861   5.157   1.842  -0.516 -0.6058 -0.4144  0.6889
  753MOL0     H 3862   5.327   1.859  -0.567  0.6505 -0.8459 -1.4078
  753MOL0     H 3863   5.198   1.535  -0.708  0.1240  0.3097  0.1299
  753MOL0     H 3864   5.143   1.460  -0.953 -0.8160  0.2433  1.0078
  753MOL0     H 3865   5.227   1.564  -1.052 -0.1357 -1.6525 -0.4206
  753MOL0     H 3866   4.979   1.475  -1.100 -2.1853  0.5234  2.3440
  753MOL0     H 3867   4.924   1.613  -1.005 -1.6133  1.6321 -2.8309
  753MOL0     H 3868   5.045   1.772  -1.137 -1.4087  0.0893 -0.1966
  753MOL0     H 3869   5.086   1.660  -1.264  0.7145  3.6919 -0.8315
  753MOL0     H 3870   4.800   1.717  -1.189 -0.5415 -0.3074 -0.6070
  753MOL0     H 3871   4.882   1.779  -1.328 -0.4285  0.1557  1.5123
  753MOL0     H 3872   4.935   1.742  -1.518  1.1521 -0.3051 -0.5870
  753MOL0     H 3873   5.054   1.767  -1.675 -4.1053 -2.6746  2.6428
  753MOL0     H 3874   4.991   1.775  -1.841  1.0237 -0.3078 -0.9286
  753MOL0     H 3875   5.103   1.649  -1.780  0.6334  0.2444  0.4742
  753MOL0     H 3876   4.616   1.239  -2.025 -0.0117  5.1816 -0.3016
  753MOL0     H 3877   4.645   1.092  -2.238 -0.6679 -1.7489  3.0872
  753MOL0     H 3878   4.684   0.967  -2.378 -0.1082  1.8365 -0.2093
  753MOL0     H 3879   4.727   1.068  -2.519  1.8959  0.0710 -0.4528
  753MOL0     H 3880   4.874   0.909  -2.599  0.8793  3.4088  1.0967
  753MOL0     H 3881   4.901   0.827  -2.447  0.0337  0.6005  0.2563
  753MOL0     H 3882   4.664   0.743  -2.442 -1.5267  1.6555 -0.7994
  753MOL0     H 3883   4.772   0.662  -2.562  1.3193  0.3678  1.3275
  753MOL0     H 3884   4.645   0.859  -2.703  4.3933 -0.8499  0.7844
  753MOL0     H 3885   4.531   0.840  -2.565  1.9536  0.8830  2.7402
  753MOL0     H 3886   4.537   0.613  -2.584  1.5480  3.4613  1.5873
  753MOL0     H 3887   4.411   0.692  -2.664  0.3250  0.6415  2.0700
  753MOL0     H 3888   4.669   0.597  -2.816 -0.1830 -0.0499 -2.0041
  753MOL0     H 3889   4.550   0.698  -2.880 -1.3662 -1.0685  0.8763
  753MOL0     H 3890   4.383   0.519  -2.878 -2.0973 -1.7232  5.6492
  753MOL0     H 3891   4.463   0.423  -2.761 -1.0328 -0.1608  0.9287
  753MOL0     H 3892   4.494   0.306  -2.952 -2.9212  0.1848  0.9584
  753MOL0     H 3893   4.647   0.405  -2.972 -0.8129  1.5220 -1.0845
  753MOL0     H 3894   5.038   1.230  -2.275  0.6147 -2.0641  1.5782
  753MOL0     H 3895   5.020   1.378  -2.072 -0.0900  0.0929  0.5519
  753MOL0     H 3896   4.720   1.346  -1.687 -4.1020  0.7452  2.9557
  753MOL0     H 3897   4.732   1.377  -1.444  0.4645  0.4750  0.9572
  753MOL0     H 3898   4.752   1.861   0.255 -2.1416  1.7979 -0.7798
  753MOL0     H 3899   4.617   1.884   0.462  1.2604  0.9375 -2.0394
  753MOL0     H 3900   4.367   1.852   0.750 -0.7299  0.6202  0.1607
  753MOL0     H 3901   4.319   1.904   0.988 -0.0692 -1.7664  2.5667
  753MOL0     H 3902   4.316   1.887   1.219 -0.2782  1.2083  1.7619
  753MOL0     H 3903   4.164   1.915   1.130 -1.6969 -0.9532 -0.9923
  753MOL0     H 3904   4.149   1.775   1.396  1.7197  2.0133  0.7095
  753MOL0     H 3905   4.022   1.836   1.286 -0.0876  1.2539 -1.5081
  753MOL0     H 3906   4.086   2.059   1.303 -1.6429 -0.9737 -0.4527
  753MOL0     H 3907   4.034   1.984   1.469  1.9037 -2.2880  1.5662
  753MOL0     H 3908   4.320   2.055   1.379  1.1117 -1.3779  1.7224
  753MOL0     H 3909   4.279   1.961   1.519  3.4287  2.8930  0.6141
  753MOL0     H 3910   4.207   2.372   1.583 -1.7985  1.2102 -3.2484
  753MOL0     H 3911   4.232   1.492   1.049  0.9685 -0.7370 -1.0487
  753MOL0     H 3912   4.342   1.389   0.723 -0.8352  4.0229 -1.1574
  753MOL0     H 3913   4.265   1.341   0.885 -0.1970  1.2530  1.4226
  753MOL0     H 3914   4.167   1.394   0.754 -2.1953  0.0881  3.7069
  754MOL0     O 3915   9.172   0.367   4.929 -0.3499  1.2027 -0.8888
  754MOL0     C 3916   9.082   0.444   4.892 -1.0917 -0.7213 -0.4506
  754MOL0     O 3917   9.029   0.538   4.970 -0.9846 -0.0889 -0.2624
  754MOL0     C 3918   9.067   0.532   5.100  0.5577  0.2739 -0.6749
  754MOL0     C 3919   8.977   0.475   5.190  0.3190 -0.2993 -1.1540
  754MOL0     C 3920   9.021   0.468   5.325  0.7979 -0.9133 -0.0649
  754MOL0     C 3921   9.139   0.527   5.369 -0.1914  0.3136  0.3078
  754MOL0     O 3922   9.183   0.519   5.498 -1.0160  0.3205 -0.4478
  754MOL0     C 3923   9.202   0.389   5.562  0.5592  0.9873 -0.0114
  754MOL0     C 3924   9.325   0.316   5.522  0.6425 -0.5486 -0.0678
  754MOL0     C 3925   9.337   0.164   5.564 -0.6218 -0.0619  0.1868
  754MOL0     C 3926   9.347   0.149   5.708 -0.7677  0.4795  0.0721
  754MOL0     C 3927   9.390   0.005   5.763 -0.8538  0.2302 -0.1301
  754MOL0     C 3928   9.282  -0.106   5.742 -0.0869  0.0375 -0.4005
  754MOL0     C 3929   9.330  -0.242   5.803 -0.5298 -0.8065  0.2717
  754MOL0     C 3930   9.255  -0.284   5.929 -0.4436  0.4583  0.3251
  754MOL0     N 3931   9.329  -0.397   5.988  0.1666  0.4541  0.7563
  754MOL0     C 3932   9.434  -0.376   6.065 -0.3471 -0.4276 -0.0298
  754MOL0     C 3933   9.485  -0.494   6.111 -0.2420  0.3041  0.5591
  754MOL0     C 3934   9.603  -0.528   6.203 -0.7506 -0.5385  0.2308
  754MOL0     C 3935   9.726  -0.432   6.206 -1.3054  0.5449  1.1813
  754MOL0     C 3936   9.679  -0.303   6.272  0.7478  0.1596  0.0410
  754MOL0     C 3937   9.751  -0.290   6.401 -0.5915 -0.0414  0.1461
  754MOL0     O 3938   9.709  -0.395   6.491  0.9940 -0.2646  0.7934
  754MOL0     C 3939   9.798  -0.410   6.595  0.8073  0.1269 -0.2756
  754MOL0     C 3940   9.860  -0.313   6.667  0.2871 -1.1562  0.5402
  754MOL0     C 3941   9.952  -0.348   6.767 -0.3475 -1.1559  0.7047
  754MOL0     C 3942  10.037  -0.228   6.823 -0.1922 -0.2866 -0.8919
  754MOL0     C 3943   9.972  -0.480   6.798  0.8681 -0.5839 -0.5073
  754MOL0     C 3944  10.071  -0.514   6.902 -0.2906  0.5920  0.0047
  754MOL0     O 3945  10.020  -0.527   7.028  0.1571 -0.7473  0.2619
  754MOL0     C 3946  10.098  -0.586   7.119  0.3285  0.0823 -0.0868
  754MOL0     C 3947  10.046  -0.692   7.193  0.4045  0.2520  0.2228
  754MOL0     C 3948  10.130  -0.759   7.279  0.1460  0.4753 -0.3573
  754MOL0     C 3949  10.267  -0.715   7.302  0.1078 -0.5139 -0.0614
  754MOL0     O 3950  10.363  -0.765   7.381 -0.9348  0.2049  0.8543
  754MOL0     C 3951  10.327  -0.848   7.489 -0.0622  0.1676 -0.3126
  754MOL0     C 3952  10.436  -0.848   7.597 -0.4733  0.0648  0.0100
  754MOL0     C 3953  10.497  -0.709   7.637 -0.0699 -0.1292 -0.0711
  754MOL0     C 3954  10.389  -0.627   7.713 -0.2336  0.5597 -0.3470
  754MOL0     C 3955  10.438  -0.480   7.738  1.4172  0.6565  0.3848
  754MOL0     C 3956  10.544  -0.459   7.857  0.8825  0.1548 -0.5708
  754MOL0     C 3957  10.631  -0.343   7.825 -0.3676  0.1300 -1.1047
  754MOL0     C 3958  10.722  -0.301   7.943 -0.3761  0.3956 -0.8206
  754MOL0    Cl 3959  10.611  -0.278   8.087 -0.2369  0.3594  0.4439
  754MOL0     C 3960  10.308  -0.600   7.228 -0.4636 -0.1492 -0.3117
  754MOL0     C 3961  10.230  -0.545   7.141  1.0976  0.0898  0.5090
  754MOL0     O 3962  10.190  -0.521   6.865 -0.0268 -0.6421 -0.4761
  754MOL0     C 3963   9.916  -0.573   6.727 -0.3303 -0.0789  0.0995
  754MOL0     C 3964   9.829  -0.542   6.622 -0.4508 -1.4716  0.2507
  754MOL0     N 3965   9.404  -0.591   6.056  0.9984  0.2616  0.2286
  754MOL0     N 3966   9.310  -0.531   5.982  0.2435 -0.0506  0.5973
  754MOL0     C 3967   9.222   0.595   5.275 -0.2390  0.1652 -1.3036
  754MOL0     C 3968   9.183   0.590   5.144 -0.2526  0.0604 -1.2328
  754MOL0     C 3969   9.018   0.409   4.767 -0.9006 -0.3662 -0.1988
  754MOL0     C 3970   9.076   0.313   4.690  0.1081  0.2603  0.1353
  754MOL0     C 3971   9.032   0.291   4.557 -1.0101  0.6172  0.2680
  754MOL0     C 3972   8.930   0.355   4.503  0.1844  0.7302 -0.6975
  754MOL0     O 3973   8.864   0.319   4.385 -0.1773  0.0185 -0.1004
  754MOL0     C 3974   8.921   0.385   4.276  0.3072  0.0617 -0.6557
  754MOL0     C 3975   9.040   0.308   4.223 -1.0159  0.9407  0.0673
  754MOL0     C 3976   9.075   0.320   4.073  0.7782  0.2570  0.0978
  754MOL0     C 3977   9.179   0.216   4.047 -0.0611 -0.3841  1.7504
  754MOL0     C 3978   9.312   0.239   4.107 -0.3452 -0.6036  0.6019
  754MOL0     C 3979   9.411   0.280   4.162 -0.4612 -0.0431 -0.4928
  754MOL0     C 3980   8.867   0.444   4.584 -0.0082  0.7596 -0.0995
  754MOL0     C 3981   8.905   0.476   4.715 -0.5582 -0.9840 -0.3064
  754MOL0     C 3982   8.813   0.563   4.794 -1.0845  0.7339  0.5543
  754MOL0     H 3983   8.889   0.427   5.150  1.4029 -0.8454 -3.0327
  754MOL0     H 3984   8.956   0.407   5.387 -0.3023  0.1843 -0.1117
  754MOL0     H 3985   9.131   0.323   5.512  0.0627  1.4339  0.0972
  754MOL0     H 3986   9.192   0.397   5.671  1.6091  0.6859  0.1166
  754MOL0     H 3987   9.340   0.321   5.414 -1.6508  0.8420 -0.3800
  754MOL0     H 3988   9.399   0.376   5.577 -0.2677 -0.8221  1.5204
  754MOL0     H 3989   9.250   0.108   5.532 -1.7704  1.1661  1.0403
  754MOL0     H 3990   9.428   0.123   5.519 -0.3833  1.5141 -0.8574
  754MOL0     H 3991   9.423   0.220   5.743  1.8564 -1.2528 -1.7659
  754MOL0     H 3992   9.249   0.181   5.745 -0.6641  2.3589 -1.1588
  754MOL0     H 3993   9.414   0.019   5.869  3.0463 -0.5495 -0.7487
  754MOL0     H 3994   9.487  -0.024   5.723 -1.4186  0.6012 -1.8452
  754MOL0     H 3995   9.193  -0.077   5.799  0.1411 -0.6085  0.2917
  754MOL0     H 3996   9.275  -0.116   5.633 -0.9648 -1.1128 -0.2631
  754MOL0     H 3997   9.434  -0.224   5.830 -0.8996 -0.6219  1.6843
  754MOL0     H 3998   9.325  -0.317   5.724  0.2480 -1.3161  0.6935
  754MOL0     H 3999   9.242  -0.199   5.996 -0.4939  3.3127 -3.0130
  754MOL0     H 4000   9.159  -0.324   5.894 -0.0532 -0.5013  0.3158
  754MOL0     H 4001   9.471  -0.281   6.102  0.3938  0.0566 -1.8883
  754MOL0     H 4002   9.637  -0.630   6.180  2.6354 -0.0777  2.4682
  754MOL0     H 4003   9.561  -0.543   6.302 -1.5342  1.4240  0.2432
  754MOL0     H 4004   9.800  -0.486   6.266 -1.3733  0.7309  1.4359
  754MOL0     H 4005   9.773  -0.418   6.109 -2.1589  0.6197  0.7667
  754MOL0     H 4006   9.694  -0.214   6.210 -0.2391 -0.9137 -1.8319
  754MOL0     H 4007   9.574  -0.303   6.301  0.4659  1.6627 -0.8635
  754MOL0     H 4008   9.856  -0.293   6.370 -0.6674  0.3984 -0.1602
  754MOL0     H 4009   9.737  -0.196   6.456  0.8888  0.1265  0.2988
  754MOL0     H 4010   9.836  -0.213   6.632 -0.7494 -2.9986 -5.0887
  754MOL0     H 4011  10.135  -0.234   6.774  0.1603 -0.2606 -0.2140
  754MOL0     H 4012  10.063  -0.249   6.927 -2.1516 -2.9338 -0.8215
  754MOL0     H 4013   9.987  -0.132   6.814  1.0527  1.0471  3.7531
  754MOL0     H 4014   9.942  -0.720   7.185  1.1913 -4.2216  2.4908
  754MOL0     H 4015  10.077  -0.843   7.322 -0.9990  1.8269  1.0046
  754MOL0     H 4016  10.237  -0.821   7.545  0.4452  1.6870 -0.1949
  754MOL0     H 4017  10.315  -0.953   7.462  1.5998  0.4931 -2.5887
  754MOL0     H 4018  10.400  -0.890   7.691  3.5104 -3.3065  0.3133
  754MOL0     H 4019  10.516  -0.912   7.559  0.7734  2.1336 -1.0378
  754MOL0     H 4020  10.540  -0.654   7.553 -0.6963  0.8830  0.2478
  754MOL0     H 4021  10.572  -0.744   7.709 -0.4875  0.0642  0.4666
  754MOL0     H 4022  10.365  -0.678   7.806  3.8290 -2.6263 -0.7311
  754MOL0     H 4023  10.303  -0.627   7.646 -0.6236 -1.0220  0.1224
  754MOL0     H 4024  10.477  -0.443   7.643  0.0805 -0.0359 -0.4715
  754MOL0     H 4025  10.348  -0.423   7.760  0.7424  0.0690 -0.7550
  754MOL0     H 4026  10.607  -0.548   7.852  1.7755  0.7310  0.0969
  754MOL0     H 4027  10.502  -0.452   7.958  1.5534 -0.5059 -0.2413
  754MOL0     H 4028  10.571  -0.253   7.807  1.4504  1.4755 -0.6786
  754MOL0     H 4029  10.691  -0.359   7.735 -0.8715  1.3014 -1.6716
  754MOL0     H 4030  10.780  -0.210   7.923  0.7809 -0.7902 -3.2761
  754MOL0     H 4031  10.801  -0.371   7.969 -0.0056  1.7822  2.2432
  754MOL0     H 4032  10.411  -0.566   7.230  0.3954 -2.4216 -2.0613
  754MOL0     H 4033  10.280  -0.471   7.079 -1.4712  0.3322 -1.4731
  754MOL0     H 4034   9.941  -0.678   6.733 -1.3005 -0.5096 -2.0628
  754MOL0     H 4035   9.783  -0.610   6.551 -0.9866 -2.7215  1.7183
  754MOL0     H 4036   9.315   0.645   5.301  0.1421 -0.8382 -0.6780
  754MOL0     H 4037   9.232   0.635   5.058 -0.7136  0.4968 -1.2735
  754MOL0     H 4038   9.165   0.255   4.714  0.5783 -0.2240 -2.4480
  754MOL0     H 4039   9.080   0.210   4.503 -3.1573  0.7077 -1.9020
  754MOL0     H 4040   8.843   0.390   4.199  0.0817 -0.8720 -0.4946
  754MOL0     H 4041   8.945   0.484   4.317 -5.7876  0.5791  2.9414
  754MOL0     H 4042   9.026   0.200   4.234  1.3404  0.2914 -2.2787
  754MOL0     H 4043   9.128   0.342   4.278  0.4556 -0.9444 -1.0057
  754MOL0     H 4044   8.987   0.305   4.010  0.6175 -1.0569  0.5949
  754MOL0     H 4045   9.120   0.416   4.046  1.0567  0.5167  1.4154
  754MOL0     H 4046   9.192   0.228   3.939  1.0338 -1.9858  1.6634
  754MOL0     H 4047   9.145   0.114   4.068  0.1854 -0.2298  3.0043
  754MOL0     H 4048   9.492   0.316   4.222  1.1696 -1.4087 -1.7649
  754MOL0     H 4049   8.791   0.508   4.541  0.2857  2.7318  2.1164
  754MOL0     H 4050   8.717   0.574   4.744 -2.0582  2.0591  2.5701
  754MOL0     H 4051   8.797   0.514   4.890  1.2381 -0.7081  0.2953
  754MOL0     H 4052   8.860   0.658   4.822  1.7187 -1.0026  2.3297
  755MOL0     O 4053   6.131   5.266   0.911  1.0011 -0.6033  0.0487
  755MOL0     C 4054   6.081   5.374   0.919  0.5100  0.1998  0.4282
  755MOL0     O 4055   5.956   5.418   0.873  0.1280  0.5456  0.5152
  755MOL0     C 4056   5.866   5.322   0.840  0.1347  0.3984  0.3555
  755MOL0     C 4057   5.783   5.263   0.936 -0.7026  0.6489  0.4854
  755MOL0     C 4058   5.679   5.166   0.892 -0.8403  0.3284  0.2310
  755MOL0     C 4059   5.673   5.136   0.759  0.5629 -0.1996 -0.4578
  755MOL0     O 4060   5.572   5.048   0.708 -0.7333  0.5559  0.4015
  755MOL0     C 4061   5.632   4.914   0.682 -0.6018 -0.2197 -1.3434
  755MOL0     C 4062   5.561   4.844   0.565 -0.0177  0.9677  0.7883
  755MOL0     C 4063   5.631   4.713   0.531 -0.4196  0.0045 -0.8121
  755MOL0     C 4064   5.539   4.635   0.442  0.0646 -0.5429 -1.3774
  755MOL0     C 4065   5.626   4.532   0.379 -0.1168  0.5522  1.1320
  755MOL0     C 4066   5.652   4.413   0.481  0.1194  0.0271 -0.1748
  755MOL0     C 4067   5.722   4.284   0.431 -0.4153 -0.3090 -0.0601
  755MOL0     C 4068   5.859   4.309   0.376  0.9959  0.0043  0.2193
  755MOL0     N 4069   5.945   4.393   0.454 -0.6146 -1.0349  0.1876
  755MOL0     C 4070   6.034   4.340   0.545  0.3157  0.4361  0.7320
  755MOL0     C 4071   6.121   4.441   0.556 -0.0014  0.0642  0.0778
  755MOL0     C 4072   6.240   4.431   0.646 -0.7969  0.5208 -0.8322
  755MOL0     C 4073   6.289   4.569   0.692  0.3460 -0.0641  0.0389
  755MOL0     C 4074   6.424   4.544   0.779  0.0231 -0.4442 -0.2119
  755MOL0     C 4075   6.446   4.653   0.887  0.1922  0.3639  0.9367
  755MOL0     O 4076   6.459   4.778   0.822 -0.6800  0.5558  0.1598
  755MOL0     C 4077   6.498   4.881   0.896  0.3563  0.3289  0.2549
  755MOL0     C 4078   6.469   5.012   0.852  0.2855  0.7530  0.0905
  755MOL0     C 4079   6.522   5.129   0.903  0.4624 -0.0332 -0.7391
  755MOL0     C 4080   6.480   5.255   0.839 -0.5316  0.3058  0.4884
  755MOL0     C 4081   6.610   5.116   1.013 -0.5438 -0.5537 -0.0585
  755MOL0     C 4082   6.666   5.237   1.085 -0.7268  1.0793 -0.2024
  755MOL0     O 4083   6.688   5.228   1.223  0.4706  0.1328  0.0189
  755MOL0     C 4084   6.749   5.337   1.290 -0.7505 -0.3996  0.5903
  755MOL0     C 4085   6.887   5.327   1.318  1.1657  0.1827  0.1318
  755MOL0     C 4086   6.947   5.434   1.384  0.7006 -1.2174  0.1596
  755MOL0     C 4087   6.872   5.544   1.429  1.1493 -0.5073 -0.1051
  755MOL0     O 4088   6.933   5.640   1.501  0.0674 -0.2351  0.3453
  755MOL0     C 4089   6.890   5.784   1.491 -0.9827 -0.2167  0.3351
  755MOL0     C 4090   7.021   5.874   1.509 -0.0511  0.2250 -0.7936
  755MOL0     C 4091   6.979   6.008   1.573  0.8089  0.2668 -0.6237
  755MOL0     C 4092   6.943   5.987   1.730  0.0505  0.1779  0.1169
  755MOL0     C 4093   7.011   6.096   1.821 -0.0312 -0.1189  0.2207
  755MOL0     C 4094   7.147   6.040   1.861  0.3005  0.4138 -0.2689
  755MOL0     C 4095   7.201   6.157   1.940 -0.1603  0.2740  0.0822
  755MOL0     C 4096   7.352   6.143   1.976  1.3984 -0.4536  0.1441
  755MOL0    Cl 4097   7.379   6.247   2.115  0.1176  0.3160  0.3258
  755MOL0     C 4098   6.737   5.547   1.393  0.7516  0.2884  1.0669
  755MOL0     C 4099   6.673   5.441   1.332  0.1449  0.3379 -0.4819
  755MOL0     O 4100   6.704   5.322   1.019  0.0439 -0.3532  0.6466
  755MOL0     C 4101   6.643   4.983   1.061 -0.9349 -0.1859 -0.5175
  755MOL0     C 4102   6.585   4.866   1.004 -0.7651 -0.0765 -0.0861
  755MOL0     N 4103   6.092   4.543   0.473  1.0606  0.3273 -0.5089
  755MOL0     N 4104   5.986   4.517   0.409  0.3371 -0.2990 -0.9168
  755MOL0     C 4105   5.759   5.189   0.667  0.2525 -0.0917 -0.2309
  755MOL0     C 4106   5.864   5.279   0.710  0.4685  0.1154  0.1751
  755MOL0     C 4107   6.160   5.482   0.981 -0.3560  1.4379  1.5969
  755MOL0     C 4108   6.163   5.604   0.911 -0.9325 -0.5988  0.0335
  755MOL0     C 4109   6.242   5.712   0.958  0.1928 -0.0127 -0.1011
  755MOL0     C 4110   6.324   5.696   1.075 -0.2276 -0.0797 -1.1847
  755MOL0     O 4111   6.391   5.804   1.121 -0.1163  0.6947  0.2558
  755MOL0     C 4112   6.424   5.805   1.260 -0.3341  0.7053  0.6220
  755MOL0     C 4113   6.463   5.945   1.306 -0.2906 -0.3767  0.1935
  755MOL0     C 4114   6.570   6.001   1.216 -0.1696 -0.3591 -0.0827
  755MOL0     C 4115   6.591   6.151   1.252  0.6198  0.1261  0.4669
  755MOL0     C 4116   6.691   6.212   1.162  0.2510 -0.2936 -0.0060
  755MOL0     C 4117   6.758   6.255   1.079  0.6528  0.7129  0.4169
  755MOL0     C 4118   6.320   5.570   1.136  0.5745  0.8002  0.0484
  755MOL0     C 4119   6.242   5.458   1.089  0.5424 -0.5338 -1.5398
  755MOL0     C 4120   6.237   5.342   1.180 -0.5350 -0.2626 -0.0412
  755MOL0     H 4121   5.795   5.283   1.042  1.2655 -1.2115  0.6916
  755MOL0     H 4122   5.600   5.121   0.952 -2.1344 -0.8020 -2.2102
  755MOL0     H 4123   5.623   4.853   0.773  1.7753 -0.3376 -1.1233
  755MOL0     H 4124   5.741   4.921   0.672  0.1007 -1.8847  2.8741
  755MOL0     H 4125   5.453   4.825   0.568 -0.1078  1.2414 -0.3913
  755MOL0     H 4126   5.570   4.907   0.477  0.0788  2.3149  1.7333
  755MOL0     H 4127   5.732   4.731   0.493  1.0702  1.5112  3.3208
  755MOL0     H 4128   5.653   4.657   0.622  0.8172 -4.2259 -3.4502
  755MOL0     H 4129   5.451   4.595   0.491  0.0384  0.2176 -0.7850
  755MOL0     H 4130   5.506   4.704   0.364  1.4595 -1.1676 -2.5813
  755MOL0     H 4131   5.724   4.562   0.339  0.4431 -2.6922 -0.2721
  755MOL0     H 4132   5.569   4.498   0.292  1.6277 -2.9402  1.1919
  755MOL0     H 4133   5.697   4.446   0.575 -0.7492 -1.2807  0.7410
  755MOL0     H 4134   5.550   4.386   0.511  0.5612 -1.5957 -0.0603
  755MOL0     H 4135   5.659   4.233   0.357 -5.0567  1.9310  1.9292
  755MOL0     H 4136   5.727   4.208   0.509  2.1643 -0.6861 -0.5075
  755MOL0     H 4137   5.901   4.210   0.358  1.8180  0.3934 -0.0490
  755MOL0     H 4138   5.854   4.354   0.276 -0.0513 -1.8789 -0.6280
  755MOL0     H 4139   6.033   4.237   0.579  1.0179  0.1875  0.0367
  755MOL0     H 4140   6.324   4.404   0.582 -0.5174 -0.5835 -0.0152
  755MOL0     H 4141   6.228   4.359   0.727  0.5863  1.2924  0.0887
  755MOL0     H 4142   6.299   4.639   0.609  6.1474 -2.2658 -1.6392
  755MOL0     H 4143   6.207   4.606   0.754  1.0095  3.3429 -0.8963
  755MOL0     H 4144   6.395   4.464   0.848 -0.1057  0.3971  0.7319
  755MOL0     H 4145   6.513   4.514   0.723 -1.6587 -0.2350 -3.1913
  755MOL0     H 4146   6.369   4.641   0.964  0.9788 -2.8161  1.3673
  755MOL0     H 4147   6.541   4.626   0.934  1.7314  1.2428 -1.4501
  755MOL0     H 4148   6.403   5.025   0.766  0.0759  0.0453  0.1332
  755MOL0     H 4149   6.413   5.302   0.911  2.5771  1.7875  2.6701
  755MOL0     H 4150   6.444   5.241   0.737  1.1608  0.2776 -0.1317
  755MOL0     H 4151   6.568   5.319   0.830 -0.6227  0.6065  1.6207
  755MOL0     H 4152   6.938   5.233   1.297 -2.6028 -2.3166  1.1260
  755MOL0     H 4153   7.051   5.434   1.413  0.4195 -0.9676  1.2054
  755MOL0     H 4154   6.851   5.801   1.390  1.3765  2.4489 -0.2443
  755MOL0     H 4155   6.804   5.803   1.556 -1.3393 -2.5044  0.6445
  755MOL0     H 4156   7.095   5.817   1.566 -0.1725  0.0057 -0.8527
  755MOL0     H 4157   7.064   5.909   1.415  2.3994 -0.3774  0.0514
  755MOL0     H 4158   6.898   6.054   1.516  1.0260  3.3441  1.3324
  755MOL0     H 4159   7.060   6.081   1.577  1.7568 -0.7937  0.3108
  755MOL0     H 4160   6.967   5.884   1.755 -1.0286 -0.7623 -2.3258
  755MOL0     H 4161   6.835   6.000   1.738  0.3708  6.2276 -0.6474
  755MOL0     H 4162   7.015   6.194   1.774  1.8007  0.6876  1.9092
  755MOL0     H 4163   6.955   6.104   1.915  0.6257  0.4994  0.5685
  755MOL0     H 4164   7.206   6.018   1.771  0.6005  0.9488 -0.2075
  755MOL0     H 4165   7.145   5.943   1.911  0.1925  0.0433 -0.9773
  755MOL0     H 4166   7.139   6.171   2.029  1.9249  0.7988  1.5319
  755MOL0     H 4167   7.202   6.249   1.880  2.4822  0.5812  0.4573
  755MOL0     H 4168   7.411   6.175   1.890  2.2378  1.0359  1.2167
  755MOL0     H 4169   7.386   6.044   2.008 -2.4703 -1.8707  0.4552
  755MOL0     H 4170   6.687   5.641   1.415 -0.0540 -0.1428  1.1236
  755MOL0     H 4171   6.567   5.441   1.312 -0.0517  0.2201  0.5271
  755MOL0     H 4172   6.710   4.975   1.145 -1.7108  0.1437  0.1503
  755MOL0     H 4173   6.613   4.767   1.041 -2.0150 -0.2431  0.4800
  755MOL0     H 4174   5.760   5.162   0.562  0.7052  3.8893 -1.4264
  755MOL0     H 4175   5.935   5.315   0.637  0.3583 -1.9227 -1.0226
  755MOL0     H 4176   6.103   5.626   0.823  2.6581 -3.3056 -3.4597
  755MOL0     H 4177   6.240   5.800   0.894 -0.2446 -1.3055 -1.9447
  755MOL0     H 4178   6.328   5.778   1.305 -1.9429  2.6102 -1.4495
  755MOL0     H 4179   6.498   5.729   1.288 -0.5336  1.0580  2.1910
  755MOL0     H 4180   6.503   5.949   1.408  0.1689  1.4933 -0.0349
  755MOL0     H 4181   6.372   6.006   1.298 -0.3257 -0.1159  2.0908
  755MOL0     H 4182   6.661   5.940   1.208 -0.1412 -0.0201 -3.8291
  755MOL0     H 4183   6.529   6.011   1.116 -1.7783 -1.1356  0.4708
  755MOL0     H 4184   6.618   6.165   1.357  0.3581 -2.2309  0.9063
  755MOL0     H 4185   6.497   6.205   1.232  0.0530 -1.0251 -0.0747
  755MOL0     H 4186   6.827   6.279   1.000 -1.2105  0.3989 -1.4129
  755MOL0     H 4187   6.384   5.550   1.222  1.0570  1.2190 -0.2041
  755MOL0     H 4188   6.258   5.384   1.279 -1.4968  1.2749 -0.4558
  755MOL0     H 4189   6.137   5.299   1.181 -0.1304 -1.3028  1.7660
  755MOL0     H 4190   6.311   5.272   1.142 -0.7711  0.1207 -1.2499
  756MOL0     O 4191   2.712   2.246  11.340  0.2394 -0.1362 -0.4632
  756MOL0     C 4192   2.677   2.152  11.274 -0.8315  0.1104  0.3486
  756MOL0     O 4193   2.556   2.140  11.222  0.5495 -0.3270 -0.5188
  756MOL0     C 4194   2.461   2.236  11.252 -0.3926 -0.6039 -0.1666
  756MOL0     C 4195   2.353   2.205  11.334 -1.0057  0.8004  0.1567
  756MOL0     C 4196   2.256   2.290  11.376 -0.0937 -0.4741  0.2186
  756MOL0     C 4197   2.257   2.423  11.332 -0.5571  1.4788  0.1002
  756MOL0     O 4198   2.147   2.493  11.354  0.0712 -0.3805  0.6116
  756MOL0     C 4199   2.162   2.634  11.366  0.2475 -0.5142  0.2194
  756MOL0     C 4200   2.065   2.687  11.465 -0.5222 -0.2991 -0.6359
  756MOL0     C 4201   2.070   2.837  11.484 -0.3204 -0.1348 -1.1172
  756MOL0     C 4202   1.948   2.899  11.548  0.3351 -0.6811 -0.1317
  756MOL0     C 4203   1.950   3.054  11.568  0.0743  0.0007 -0.3965
  756MOL0     C 4204   1.814   3.102  11.625  0.4551 -0.2707 -0.2231
  756MOL0     C 4205   1.837   3.223  11.714 -0.1476 -0.7391  0.3532
  756MOL0     C 4206   1.855   3.171  11.862  0.2324 -0.6864  0.3714
  756MOL0     N 4207   1.898   3.280  11.949  0.0905 -0.2682 -0.7484
  756MOL0     C 4208   1.988   3.252  12.051 -0.2951  0.1799 -0.3170
  756MOL0     C 4209   1.980   3.366  12.126 -0.8602 -1.0889  0.7450
  756MOL0     C 4210   2.065   3.396  12.253  1.0983  0.1954 -0.4866
  756MOL0     C 4211   2.194   3.316  12.262  1.1982 -0.6605 -1.0928
  756MOL0     C 4212   2.296   3.370  12.157  0.1371 -0.8241  0.1286
  756MOL0     C 4213   2.439   3.323  12.171  0.2273  0.0093 -0.0341
  756MOL0     O 4214   2.505   3.331  12.050  0.3755  0.5091 -0.1600
  756MOL0     C 4215   2.585   3.429  12.015 -1.1036  0.5936  0.4316
  756MOL0     C 4216   2.596   3.552  12.081  1.0955 -0.1177 -0.7236
  756MOL0     C 4217   2.687   3.646  12.039  0.8222 -0.0360 -0.2216
  756MOL0     C 4218   2.698   3.779  12.117  0.4998  0.8657 -0.0049
  756MOL0     C 4219   2.767   3.628  11.926 -0.4920  0.5389  0.2971
  756MOL0     C 4220   2.877   3.715  11.870 -0.2370 -0.2866  0.9010
  756MOL0     O 4221   2.985   3.661  11.800  0.1001 -0.0078 -0.9951
  756MOL0     C 4222   3.100   3.732  11.769  0.8743 -0.7977 -0.2125
  756MOL0     C 4223   3.166   3.817  11.864  0.0771  0.1354  0.0579
  756MOL0     C 4224   3.278   3.894  11.819 -0.0004 -0.3728 -0.8657
  756MOL0     C 4225   3.333   3.883  11.689  0.2182  0.5616 -0.6280
  756MOL0     O 4226   3.434   3.965  11.654 -0.0239 -0.0779  0.4703
  756MOL0     C 4227   3.443   4.005  11.513  0.6469  0.2291  0.5848
  756MOL0     C 4228   3.552   4.111  11.490  0.3758 -0.2407  0.0306
  756MOL0     C 4229   3.693   4.095  11.559 -0.3246 -0.1203  0.9995
  756MOL0     C 4230   3.759   4.232  11.591  0.5441  0.0723 -0.0552
  756MOL0     C 4231   3.896   4.216  11.656 -0.3032 -0.0319  0.6442
  756MOL0     C 4232   3.940   4.367  11.677  0.7984 -0.1963 -0.4633
  756MOL0     C 4233   3.886   4.425  11.807 -0.0394 -0.1813 -0.7572
  756MOL0     C 4234   3.908   4.574  11.820 -0.9053  0.0884  0.6383
  756MOL0    Cl 4235   4.097   4.587  11.827 -0.3058  0.0578  0.1806
  756MOL0     C 4236   3.270   3.792  11.597 -0.2031 -0.2871 -1.0379
  756MOL0     C 4237   3.160   3.713  11.645 -0.2988 -0.9483 -0.5030
  756MOL0     O 4238   2.864   3.841  11.874  0.2439 -0.0797  0.0909
  756MOL0     C 4239   2.762   3.500  11.862  0.7080 -0.3629  0.4495
  756MOL0     C 4240   2.668   3.409  11.903  0.5378  0.2704  0.0815
  756MOL0     N 4241   1.879   3.451  12.079  0.2459 -0.7463 -0.1782
  756MOL0     N 4242   1.835   3.397  11.972 -0.0713 -0.0317 -0.1266
  756MOL0     C 4243   2.366   2.458  11.253  0.2486 -0.9511 -0.9509
  756MOL0     C 4244   2.463   2.370  11.214 -0.6618  1.3713  0.6608
  756MOL0     C 4245   2.778   2.038  11.255 -0.7266 -0.1705  0.6169
  756MOL0     C 4246   2.725   1.915  11.234 -0.0668 -0.1559 -0.2048
  756MOL0     C 4247   2.795   1.795  11.239  0.6112 -0.0614  0.4516
  756MOL0     C 4248   2.928   1.794  11.267  0.2238 -0.3668 -1.2109
  756MOL0     O 4249   2.998   1.679  11.285 -0.7371  0.0888  0.5075
  756MOL0     C 4250   3.146   1.672  11.253  1.1025  0.2085  0.0251
  756MOL0     C 4251   3.185   1.526  11.271 -0.1249 -0.2706  1.6892
  756MOL0     C 4252   3.338   1.526  11.313  0.1292 -0.3301  0.5006
  756MOL0     C 4253   3.409   1.394  11.313 -0.0981  1.0947  0.5921
  756MOL0     C 4254   3.367   1.298  11.209  0.1446  0.7194 -0.4159
  756MOL0     C 4255   3.331   1.206  11.141 -0.3688  0.1434 -1.0508
  756MOL0     C 4256   2.989   1.927  11.269  0.6277  0.8736  0.0799
  756MOL0     C 4257   2.914   2.046  11.262  0.5015 -0.3172  0.0607
  756MOL0     C 4258   2.992   2.173  11.242 -0.0165 -0.1619 -0.3506
  756MOL0     H 4259   2.351   2.106  11.377 -0.7234 -1.4411 -4.4316
  756MOL0     H 4260   2.178   2.257  11.443 -1.2220 -0.6140 -1.1284
  756MOL0     H 4261   2.143   2.672  11.265 -0.0877  0.0336  0.4821
  756MOL0     H 4262   2.264   2.655  11.400  0.1002 -0.9791  0.9558
  756MOL0     H 4263   1.961   2.668  11.438 -0.7960 -0.7823  0.6661
  756MOL0     H 4264   2.083   2.653  11.568  2.5149  2.8073  0.0513
  756MOL0     H 4265   2.153   2.858  11.551 -1.2371 -0.2362  0.0751
  756MOL0     H 4266   2.066   2.886  11.386  1.0929 -0.6594 -1.4650
  756MOL0     H 4267   1.854   2.875  11.499  0.1839 -2.1190  0.7999
  756MOL0     H 4268   1.928   2.856  11.647 -3.7723  2.1060  0.4823
  756MOL0     H 4269   1.970   3.102  11.472  0.5412  1.9098  0.6100
  756MOL0     H 4270   2.024   3.079  11.645 -1.0380 -0.0966  0.7489
  756MOL0     H 4271   1.751   3.136  11.543 -0.4595 -0.4949  0.3744
  756MOL0     H 4272   1.752   3.025  11.671  1.0009  0.5086  1.9730
  756MOL0     H 4273   1.756   3.295  11.707  0.1971 -0.4467 -0.8271
  756MOL0     H 4274   1.922   3.277  11.672 -1.8169  1.2321 -0.6548
  756MOL0     H 4275   1.759   3.141  11.904 -0.0883  1.6460  1.4196
  756MOL0     H 4276   1.923   3.085  11.870  0.1998 -0.5857  1.9557
  756MOL0     H 4277   2.055   3.167  12.052  0.8264  0.8805 -3.6725
  756MOL0     H 4278   1.998   3.365  12.333  0.7391 -1.5489 -1.4213
  756MOL0     H 4279   2.077   3.504  12.267 -1.1487  0.2893  1.2387
  756MOL0     H 4280   2.231   3.341  12.362 -1.4065  3.4970 -0.9151
  756MOL0     H 4281   2.174   3.210  12.247 -1.5145 -0.0197 -2.8203
  756MOL0     H 4282   2.256   3.339  12.060 -0.5514  1.7815 -0.5004
  756MOL0     H 4283   2.306   3.479  12.155  0.3345 -0.8451 -0.0739
  756MOL0     H 4284   2.491   3.376  12.251 -3.6252  1.9888  1.3970
  756MOL0     H 4285   2.428   3.219  12.204 -1.3863  0.4215  0.8149
  756MOL0     H 4286   2.532   3.576  12.165  3.2376  3.6400  0.0426
  756MOL0     H 4287   2.791   3.780  12.174  1.6476 -2.3646 -1.5756
  756MOL0     H 4288   2.608   3.782  12.179  0.8183  0.3122  0.4965
  756MOL0     H 4289   2.710   3.865  12.051 -1.1141  1.4400  0.4079
  756MOL0     H 4290   3.121   3.850  11.957 -1.7249  2.0009 -1.3714
  756MOL0     H 4291   3.343   3.953  11.882 -0.3080 -1.5794  0.6515
  756MOL0     H 4292   3.471   3.918  11.454 -1.5890  1.0621 -1.8815
  756MOL0     H 4293   3.349   4.049  11.479  1.4378  2.5905  1.2463
  756MOL0     H 4294   3.562   4.123  11.381 -1.6192 -0.3003 -0.1942
  756MOL0     H 4295   3.512   4.209  11.518  1.3242  0.3451 -0.5784
  756MOL0     H 4296   3.754   4.029  11.497 -0.0754  1.3450 -0.3813
  756MOL0     H 4297   3.673   4.040  11.652 -3.7848 -0.5143  0.1782
  756MOL0     H 4298   3.702   4.298  11.656  1.7870  1.3528 -0.2101
  756MOL0     H 4299   3.762   4.279  11.492 -0.7815 -4.4373 -2.5807
  756MOL0     H 4300   3.897   4.165  11.753  0.5829  3.7324  2.8081
  756MOL0     H 4301   3.963   4.166  11.586 -3.7128  1.5532 -4.3201
  756MOL0     H 4302   3.910   4.430  11.593 -1.2937  1.7587  1.6121
  756MOL0     H 4303   4.049   4.353  11.672  0.6947 -1.9623  1.0830
  756MOL0     H 4304   3.942   4.380  11.890  1.9255  1.2949 -1.2087
  756MOL0     H 4305   3.778   4.411  11.819 -0.1316 -0.3170 -1.6899
  756MOL0     H 4306   3.871   4.621  11.911 -3.8191  0.1265 -0.4732
  756MOL0     H 4307   3.859   4.627  11.737  0.0985  2.1762  1.2931
  756MOL0     H 4308   3.303   3.771  11.496 -0.3760 -2.0467 -0.7672
  756MOL0     H 4309   3.126   3.628  11.588  2.5483 -4.3962  2.4727
  756MOL0     H 4310   2.824   3.470  11.779 -0.2083  4.6059 -2.4512
  756MOL0     H 4311   2.648   3.316  11.851 -0.3023  0.7172 -0.4172
  756MOL0     H 4312   2.385   2.563  11.229  0.9931 -1.4378 -2.6814
  756MOL0     H 4313   2.555   2.405  11.168  0.5907 -1.6845  0.5776
  756MOL0     H 4314   2.620   1.901  11.211  0.3153 -3.1286 -0.5753
  756MOL0     H 4315   2.745   1.701  11.219 -0.5053  0.7985 -1.0209
  756MOL0     H 4316   3.158   1.703  11.148  1.9727  2.2301  0.6623
  756MOL0     H 4317   3.207   1.731  11.322  4.6038 -0.4910 -2.2158
  756MOL0     H 4318   3.166   1.462  11.184 -0.0578  2.5911 -0.5890
  756MOL0     H 4319   3.129   1.497  11.361  2.5107 -2.3381  2.7718
  756MOL0     H 4320   3.390   1.590  11.241 -0.5792 -0.9371 -0.5654
  756MOL0     H 4321   3.356   1.563  11.415  1.6686 -1.1791  0.5636
  756MOL0     H 4322   3.397   1.344  11.409 -1.1231 -1.2740 -0.6877
  756MOL0     H 4323   3.517   1.408  11.303  0.2504 -2.0837 -1.7681
  756MOL0     H 4324   3.299   1.121  11.084 -1.2180  0.3644 -0.9203
  756MOL0     H 4325   3.096   1.932  11.286  0.7502 -2.2890  0.8729
  756MOL0     H 4326   2.950   2.238  11.319  4.8946  2.6790  0.3392
  756MOL0     H 4327   3.099   2.162  11.263  0.6506  2.6680 -1.7798
  756MOL0     H 4328   2.969   2.225  11.149 -1.0301 -2.2264 -1.3265
  757MOL0     O 4329   7.760   1.141   0.723 -0.3551  0.2043  0.2926
  757MOL0     C 4330   7.759   1.166   0.840  0.5502 -0.2245 -0.4799
  757MOL0     O 4331   7.842   1.111   0.934  0.2287  0.3488 -0.1943
  757MOL0     C 4332   7.934   1.015   0.889  0.3771  0.4386 -0.5684
  757MOL0     C 4333   7.892   0.884   0.869  0.1302  0.9750 -0.1915
  757MOL0     C 4334   7.984   0.781   0.843  0.4561 -0.1340 -0.1056
  757MOL0     C 4335   8.111   0.818   0.825  0.2871  0.6221 -0.4224
  757MOL0     O 4336   8.182   0.702   0.789 -0.8653 -0.4285 -0.5133
  757MOL0     C 4337   8.326   0.718   0.819  0.4432  0.2590 -0.4219
  757MOL0     C 4338   8.390   0.588   0.785  0.3702 -0.4746 -0.5772
  757MOL0     C 4339   8.546   0.599   0.769 -0.7120  0.0879  1.0155
  757MOL0     C 4340   8.604   0.459   0.753  0.7723 -0.2147 -0.4487
  757MOL0     C 4341   8.739   0.437   0.801 -0.3391 -0.2205  0.1834
  757MOL0     C 4342   8.803   0.320   0.728  0.4141  0.9758 -0.2563
  757MOL0     C 4343   8.749   0.186   0.785 -0.3964 -0.5979 -0.4674
  757MOL0     C 4344   8.840   0.075   0.711 -0.0690  0.1808 -0.2425
  757MOL0     N 4345   8.849   0.081   0.561 -0.5173 -0.2810 -1.0421
  757MOL0     C 4346   8.735   0.087   0.490 -0.3267  1.1853  0.8140
  757MOL0     C 4347   8.781   0.093   0.369  0.7760 -0.1172 -0.3159
  757MOL0     C 4348   8.701   0.129   0.253 -0.1921 -0.1102  0.6843
  757MOL0     C 4349   8.680   0.275   0.220 -0.1346 -0.3401 -0.5265
  757MOL0     C 4350   8.612   0.362   0.323  0.0725 -0.7967  0.0182
  757MOL0     C 4351   8.594   0.504   0.263 -0.1921  0.2432 -0.4007
  757MOL0     O 4352   8.537   0.601   0.359  0.5595 -0.2753  0.2683
  757MOL0     C 4353   8.401   0.615   0.380 -0.2913 -0.3962 -0.2828
  757MOL0     C 4354   8.352   0.734   0.439 -0.1104  0.8155  0.2340
  757MOL0     C 4355   8.215   0.769   0.429  1.3642  1.0748 -0.3533
  757MOL0     C 4356   8.177   0.909   0.471 -0.5831 -0.0064  0.8214
  757MOL0     C 4357   8.127   0.683   0.372 -0.2682  0.0524 -0.0130
  757MOL0     C 4358   7.985   0.708   0.378 -1.2758 -0.3168  0.5391
  757MOL0     O 4359   7.933   0.818   0.329 -0.2257 -0.1609  0.0550
  757MOL0     C 4360   7.800   0.837   0.359  0.0676 -0.2925 -0.5874
  757MOL0     C 4361   7.753   0.895   0.481  0.4471  0.8869  0.5585
  757MOL0     C 4362   7.618   0.925   0.505  1.5443  0.5010  0.1701
  757MOL0     C 4363   7.510   0.913   0.405 -0.7422 -0.1906  0.1385
  757MOL0     O 4364   7.375   0.940   0.413 -0.1624  0.4824 -0.7249
  757MOL0     C 4365   7.276   0.894   0.318 -0.1099  0.0427 -0.6254
  757MOL0     C 4366   7.136   0.885   0.390  0.7726  0.4241 -0.4980
  757MOL0     C 4367   7.126   0.769   0.492  0.1268  0.7948  0.6691
  757MOL0     C 4368   6.968   0.745   0.531 -0.6515 -0.4396  0.8448
  757MOL0     C 4369   6.891   0.853   0.608 -0.1293  0.4282 -0.2117
  757MOL0     C 4370   6.964   0.878   0.742  0.6170  0.5716 -0.3055
  757MOL0     C 4371   6.900   0.993   0.813  0.3994 -0.1330 -0.1858
  757MOL0     C 4372   6.956   1.036   0.947 -0.2283 -0.2456  0.1976
  757MOL0    Cl 4373   7.126   1.083   0.932 -0.1011  0.4225  0.5301
  757MOL0     C 4374   7.564   0.861   0.279 -1.3719  0.0704 -0.0076
  757MOL0     C 4375   7.699   0.818   0.263  0.1145  0.0529  0.1809
  757MOL0     O 4376   7.920   0.617   0.410 -0.2283  0.8440 -0.9164
  757MOL0     C 4377   8.165   0.555   0.320  0.7028 -0.7228  0.0209
  757MOL0     C 4378   8.308   0.533   0.328  0.0522 -0.8483  0.3762
  757MOL0     N 4379   8.924   0.106   0.368  0.1006  0.2745 -0.2574
  757MOL0     N 4380   8.968   0.105   0.492 -0.1833  0.6933  0.5839
  757MOL0     C 4381   8.159   0.943   0.839 -1.0337 -1.0229  0.4034
  757MOL0     C 4382   8.071   1.041   0.887  0.0662 -0.0413 -0.8509
  757MOL0     C 4383   7.637   1.239   0.891 -1.1669 -0.1670 -0.1397
  757MOL0     C 4384   7.631   1.245   1.034  0.4187  0.3035  0.2649
  757MOL0     C 4385   7.524   1.306   1.104  0.1487  0.1465  1.0845
  757MOL0     C 4386   7.417   1.352   1.033 -1.2254  0.5459 -0.5627
  757MOL0     O 4387   7.303   1.413   1.080  0.3508  0.0491 -0.6140
  757MOL0     C 4388   7.250   1.369   1.201 -0.0316  0.0156  0.4686
  757MOL0     C 4389   7.097   1.422   1.215 -0.1288 -0.5338 -0.2342
  757MOL0     C 4390   7.078   1.572   1.164 -0.2663  0.0454  0.0663
  757MOL0     C 4391   7.182   1.670   1.216  0.5029 -0.6178 -0.7766
  757MOL0     C 4392   7.141   1.720   1.348  0.6051  0.2908 -0.5951
  757MOL0     C 4393   7.104   1.774   1.446  0.5676 -0.4737 -0.6761
  757MOL0     C 4394   7.431   1.360   0.885 -0.4029  0.7545 -0.1793
  757MOL0     C 4395   7.534   1.299   0.817  0.5351  0.1363  0.7664
  757MOL0     C 4396   7.527   1.307   0.671 -0.0069  0.2737  0.4147
  757MOL0     H 4397   7.787   0.858   0.868 -0.1001  1.7560  1.2409
  757MOL0     H 4398   7.946   0.684   0.812  0.2161 -0.9326  2.4402
  757MOL0     H 4399   8.348   0.742   0.924 -0.8029 -1.9957  0.4328
  757MOL0     H 4400   8.373   0.794   0.756  0.8366  1.7377  1.5570
  757MOL0     H 4401   8.361   0.517   0.863  1.0206 -2.5454 -2.1271
  757MOL0     H 4402   8.351   0.541   0.694 -0.1056 -1.8241  0.3029
  757MOL0     H 4403   8.562   0.654   0.676 -0.2291 -1.5395  0.0963
  757MOL0     H 4404   8.591   0.643   0.858  1.9077 -2.8806  1.3622
  757MOL0     H 4405   8.541   0.395   0.815 -1.0919  1.6250 -0.3281
  757MOL0     H 4406   8.589   0.437   0.647 -1.0460  0.8019 -0.4434
  757MOL0     H 4407   8.752   0.430   0.909 -1.6348  1.6554  0.4962
  757MOL0     H 4408   8.795   0.523   0.765 -1.3234  0.2023 -0.3889
  757MOL0     H 4409   8.785   0.319   0.620  0.6023  0.3799 -0.2827
  757MOL0     H 4410   8.911   0.321   0.741  0.5857 -3.1046 -0.2442
  757MOL0     H 4411   8.641   0.168   0.775 -0.2598 -1.0003 -1.2549
  757MOL0     H 4412   8.776   0.185   0.891 -0.6226  2.7951 -0.2783
  757MOL0     H 4413   8.943   0.084   0.747 -0.1511 -0.1616  0.0900
  757MOL0     H 4414   8.805  -0.020   0.753 -0.6627  0.3487 -0.3503
  757MOL0     H 4415   8.636   0.091   0.532  0.9581 -1.9399  4.8575
  757MOL0     H 4416   8.604   0.079   0.268  1.5779 -3.1247  3.6068
  757MOL0     H 4417   8.756   0.086   0.169 -0.8684  2.4834 -1.2006
  757MOL0     H 4418   8.778   0.320   0.201 -0.2200  0.1774  0.2221
  757MOL0     H 4419   8.627   0.284   0.124  1.3367  1.2817 -1.2615
  757MOL0     H 4420   8.509   0.328   0.335 -0.3809  0.1039 -1.0520
  757MOL0     H 4421   8.651   0.363   0.425 -2.0615  1.6753  0.9163
  757MOL0     H 4422   8.685   0.547   0.219  0.3691  0.4865  0.9510
  757MOL0     H 4423   8.534   0.505   0.172  0.2039  1.6862 -0.6691
  757MOL0     H 4424   8.424   0.811   0.463 -1.0290  0.9418  2.9411
  757MOL0     H 4425   8.270   0.962   0.492 -2.1389  3.5037 -0.3532
  757MOL0     H 4426   8.109   0.923   0.556 -0.4295  4.6781  0.4355
  757MOL0     H 4427   8.127   0.956   0.385  1.2333 -2.3947 -1.7528
  757MOL0     H 4428   7.822   0.923   0.560 -1.7494  0.2045  2.8455
  757MOL0     H 4429   7.596   0.966   0.603 -0.2554 -0.9108  0.4057
  757MOL0     H 4430   7.267   0.970   0.240  1.8106  2.4783  1.3491
  757MOL0     H 4431   7.299   0.791   0.290 -3.1266 -1.7381  2.5300
  757MOL0     H 4432   7.120   0.985   0.432 -1.2923 -0.1932  0.3038
  757MOL0     H 4433   7.064   0.862   0.311 -1.5476  1.2565  1.2486
  757MOL0     H 4434   7.185   0.791   0.581  1.4657 -0.3665  0.0998
  757MOL0     H 4435   7.164   0.675   0.450 -2.8911 -0.5860  0.7889
  757MOL0     H 4436   6.969   0.653   0.590  1.6122  0.0861  1.7379
  757MOL0     H 4437   6.913   0.723   0.439 -0.5754 -1.8748  1.1297
  757MOL0     H 4438   6.888   0.944   0.547 -4.6990  0.8627  0.2915
  757MOL0     H 4439   6.790   0.812   0.612 -1.5560  3.5018 -1.1900
  757MOL0     H 4440   7.072   0.895   0.739  0.6946  0.2503  0.3563
  757MOL0     H 4441   6.954   0.784   0.797 -2.2346 -1.3829 -3.7240
  757MOL0     H 4442   6.798   0.970   0.844  0.0364  2.2786  0.6916
  757MOL0     H 4443   6.895   1.069   0.735 -0.4555  1.5904  1.4550
  757MOL0     H 4444   6.944   0.954   1.019 -1.2863 -0.6666 -0.4288
  757MOL0     H 4445   6.889   1.118   0.973  0.5824 -0.1375  2.1215
  757MOL0     H 4446   7.494   0.862   0.196 -3.1398 -3.1231  1.2573
  757MOL0     H 4447   7.734   0.773   0.170  2.3198 -3.7006  2.5597
  757MOL0     H 4448   8.081   0.496   0.284 -0.2575 -0.2190  1.3571
  757MOL0     H 4449   8.346   0.455   0.263  3.4789  2.8010 -2.4937
  757MOL0     H 4450   8.261   0.973   0.816 -0.8034 -0.8971  1.5304
  757MOL0     H 4451   8.105   1.143   0.901 -2.1739  0.6901 -0.1335
  757MOL0     H 4452   7.700   1.201   1.106  1.1573  0.4843 -0.3114
  757MOL0     H 4453   7.503   1.302   1.210 -2.3907 -3.7932  0.6499
  757MOL0     H 4454   7.242   1.260   1.209  1.8390 -0.1324  0.7155
  757MOL0     H 4455   7.310   1.401   1.286  0.5293  2.0071 -0.6066
  757MOL0     H 4456   7.073   1.429   1.321 -0.8253  0.4117 -0.4364
  757MOL0     H 4457   7.031   1.349   1.167  0.1749 -2.8729  2.6520
  757MOL0     H 4458   7.088   1.570   1.055 -2.2883 -2.0905 -0.1594
  757MOL0     H 4459   6.976   1.596   1.195  0.8772  1.7559  2.9376
  757MOL0     H 4460   7.173   1.750   1.141  0.6935 -0.9762 -1.1895
  757MOL0     H 4461   7.286   1.639   1.232  1.5521  2.2524 -1.3592
  757MOL0     H 4462   7.058   1.831   1.525  2.2901  0.2014 -0.1130
  757MOL0     H 4463   7.341   1.381   0.829  0.6229  3.1346 -1.0441
  757MOL0     H 4464   7.537   1.212   0.618  1.3221  0.6690 -0.0735
  757MOL0     H 4465   7.432   1.345   0.631  0.2835 -1.1508 -1.8099
  757MOL0     H 4466   7.604   1.368   0.624 -0.0730  0.2066  0.2167
  758MOL0     O 4467   7.823   0.941   8.234  0.4848  0.0551  0.3780
  758MOL0     C 4468   7.937   0.984   8.246 -0.4275 -0.7505 -0.5005
  758MOL0     O 4469   8.034   0.963   8.158  0.0303  0.4665 -0.2499
  758MOL0     C 4470   8.020   0.894   8.040  0.8193  0.5782  0.4774
  758MOL0     C 4471   7.928   0.800   7.998 -0.1654 -1.1679 -0.2291
  758MOL0     C 4472   7.941   0.739   7.873  0.0408  0.6788 -0.3958
  758MOL0     C 4473   8.050   0.768   7.789  1.2652 -0.1827 -0.9152
  758MOL0     O 4474   8.072   0.692   7.679 -0.9361 -0.3528  0.5417
  758MOL0     C 4475   7.971   0.728   7.576  0.7462  0.6771  0.9820
  758MOL0     C 4476   8.013   0.683   7.441 -0.7991  1.2367  0.3812
  758MOL0     C 4477   8.161   0.685   7.420 -0.2433 -0.3370  0.2933
  758MOL0     C 4478   8.223   0.657   7.280 -0.1756  0.1066 -0.3061
  758MOL0     C 4479   8.183   0.529   7.209  0.4790  0.3753  0.2940
  758MOL0     C 4480   8.193   0.398   7.297 -0.3279 -0.6152  0.9919
  758MOL0     C 4481   8.273   0.281   7.235 -0.0742  0.0029  0.5568
  758MOL0     C 4482   8.180   0.170   7.193  0.6213 -0.6212 -0.1488
  758MOL0     N 4483   8.251   0.056   7.144  0.3867 -0.1700 -0.2645
  758MOL0     C 4484   8.368   0.005   7.190 -1.3639 -0.3141  0.3776
  758MOL0     C 4485   8.422  -0.072   7.092  0.2816 -0.4779 -0.3763
  758MOL0     C 4486   8.560  -0.137   7.090  0.2232 -0.5138 -0.3730
  758MOL0     C 4487   8.622  -0.137   6.944  0.1811  0.6133 -0.1853
  758MOL0     C 4488   8.652   0.009   6.900 -0.2393 -0.3843 -0.0083
  758MOL0     C 4489   8.710   0.014   6.763 -0.5049 -0.5731 -0.3034
  758MOL0     O 4490   8.624  -0.055   6.677 -0.0834 -0.3932 -0.7008
  758MOL0     C 4491   8.635  -0.022   6.545  0.2199  0.6640 -0.4268
  758MOL0     C 4492   8.730   0.078   6.499  1.3126 -0.5663  0.5290
  758MOL0     C 4493   8.752   0.095   6.361  0.3077  0.3457 -0.4726
  758MOL0     C 4494   8.845   0.209   6.324  0.3171  0.2929  0.0569
  758MOL0     C 4495   8.674   0.016   6.261 -0.3055 -0.2785 -0.6946
  758MOL0     C 4496   8.707   0.022   6.115  0.4439  0.7116 -0.8589
  758MOL0     O 4497   8.720  -0.099   6.051 -0.2560 -0.2655 -0.5189
  758MOL0     C 4498   8.787  -0.104   5.927  0.4604 -1.2808  0.5611
  758MOL0     C 4499   8.786  -0.006   5.828  0.2231 -0.6090  0.8287
  758MOL0     C 4500   8.849  -0.038   5.703 -0.1407  0.8149 -0.0322
  758MOL0     C 4501   8.906  -0.164   5.670  0.4095  0.8230 -0.4143
  758MOL0     O 4502   8.956  -0.188   5.544 -0.0264 -0.2705 -0.2199
  758MOL0     C 4503   9.019  -0.300   5.510 -0.4027  0.1552  0.1818
  758MOL0     C 4504   9.004  -0.322   5.362  0.6198 -0.7289  0.8944
  758MOL0     C 4505   9.059  -0.449   5.307  0.0584  0.5403  0.5295
  758MOL0     C 4506   8.962  -0.512   5.204  0.1693  1.4493  0.1859
  758MOL0     C 4507   9.025  -0.650   5.179  0.8320  0.2529  0.2413
  758MOL0     C 4508   8.945  -0.736   5.079  0.5961 -0.5956 -1.2002
  758MOL0     C 4509   8.935  -0.686   4.937 -0.3088  0.3024 -0.1001
  758MOL0     C 4510   8.874  -0.801   4.847  0.0342  0.7011 -0.1509
  758MOL0    Cl 4511   8.694  -0.805   4.872  0.4591 -0.1843 -0.1156
  758MOL0     C 4512   8.887  -0.261   5.767  0.1747  0.4785 -0.9784
  758MOL0     C 4513   8.833  -0.235   5.897  0.1340  0.6447 -0.6592
  758MOL0     O 4514   8.721   0.132   6.067  0.8746  0.3851 -0.6503
  758MOL0     C 4515   8.572  -0.068   6.308  0.8857  0.4418 -0.0972
  758MOL0     C 4516   8.560  -0.095   6.446  0.5846 -0.7833 -0.0541
  758MOL0     N 4517   8.327  -0.082   6.989 -0.7580  0.2622  0.0098
  758MOL0     N 4518   8.228  -0.001   7.019 -0.3065 -0.0294  0.0394
  758MOL0     C 4519   8.138   0.875   7.826  0.3921  0.0282  0.3931
  758MOL0     C 4520   8.118   0.930   7.954 -0.7949  0.1665  0.4427
  758MOL0     C 4521   7.973   1.079   8.347  0.2332  0.5941  0.0548
  758MOL0     C 4522   8.086   1.161   8.327 -0.4957  1.1681 -0.4874
  758MOL0     C 4523   8.114   1.258   8.430  0.1405  0.2950  0.5624
  758MOL0     C 4524   8.044   1.276   8.546 -0.2730  0.1096 -1.1852
  758MOL0     O 4525   8.078   1.378   8.639 -0.1655  0.8617  0.5829
  758MOL0     C 4526   8.137   1.321   8.753 -0.4609  0.7759 -0.4004
  758MOL0     C 4527   8.281   1.359   8.785  1.0754 -0.8832  0.0515
  758MOL0     C 4528   8.392   1.333   8.669  0.6899 -0.3703 -0.9132
  758MOL0     C 4529   8.523   1.392   8.733  0.4390 -0.5024 -0.6480
  758MOL0     C 4530   8.637   1.384   8.640 -0.1487  0.3766 -0.1158
  758MOL0     C 4531   8.736   1.388   8.568 -0.0991 -0.4010 -0.6427
  758MOL0     C 4532   7.939   1.190   8.567 -0.3889 -0.6994 -0.2354
  758MOL0     C 4533   7.903   1.094   8.468  0.5811 -0.0318 -0.3769
  758MOL0     C 4534   7.789   1.001   8.517  0.3639  0.5510 -0.0919
  758MOL0     H 4535   7.841   0.789   8.061 -2.0688  1.3393 -2.2091
  758MOL0     H 4536   7.859   0.674   7.841  1.5668 -2.7516  2.0074
  758MOL0     H 4537   7.956   0.836   7.578  1.5246  0.8067  0.3937
  758MOL0     H 4538   7.873   0.685   7.596 -0.4121  1.8363 -1.6648
  758MOL0     H 4539   7.973   0.582   7.428 -0.2981  1.0478  0.2670
  758MOL0     H 4540   7.962   0.748   7.370 -4.0387 -0.9034  0.5357
  758MOL0     H 4541   8.179   0.790   7.443  0.2194 -0.0228 -1.3988
  758MOL0     H 4542   8.211   0.625   7.497  0.4137 -1.3511 -0.8887
  758MOL0     H 4543   8.193   0.735   7.210  0.2630  1.6043  1.1202
  758MOL0     H 4544   8.332   0.661   7.284 -0.1693  3.3497 -0.9820
  758MOL0     H 4545   8.258   0.518   7.129 -0.2957 -1.6124 -0.2208
  758MOL0     H 4546   8.090   0.528   7.151  2.7113 -2.2964 -3.7391
  758MOL0     H 4547   8.239   0.424   7.393  1.6785 -2.1094  0.5117
  758MOL0     H 4548   8.089   0.371   7.316 -0.4868  0.6364  2.0316
  758MOL0     H 4549   8.335   0.251   7.320  0.9958 -1.3225 -0.6650
  758MOL0     H 4550   8.337   0.312   7.152 -1.5105  0.6838 -0.3348
  758MOL0     H 4551   8.133   0.143   7.288  0.4453 -3.8264 -1.0533
  758MOL0     H 4552   8.112   0.212   7.118 -0.5464 -0.5282  0.9237
  758MOL0     H 4553   8.419   0.042   7.278 -1.2751  1.0498 -0.2213
  758MOL0     H 4554   8.538  -0.242   7.110 -0.3643 -0.3153  0.0540
  758MOL0     H 4555   8.637  -0.097   7.158  0.3963 -2.5932  0.7326
  758MOL0     H 4556   8.719  -0.188   6.945 -0.0401  0.0288  2.8212
  758MOL0     H 4557   8.550  -0.180   6.875  3.5368 -2.3810 -2.1895
  758MOL0     H 4558   8.567   0.074   6.877 -0.1478 -1.3058 -3.5788
  758MOL0     H 4559   8.712   0.055   6.979 -2.0236 -0.8323  1.6782
  758MOL0     H 4560   8.732   0.118   6.740  4.9774 -0.5294  3.3172
  758MOL0     H 4561   8.814  -0.019   6.769  0.3934  2.0159 -0.5340
  758MOL0     H 4562   8.788   0.141   6.566  1.9058 -0.1773 -0.3347
  758MOL0     H 4563   8.893   0.176   6.232 -2.1980 -2.9459 -0.2665
  758MOL0     H 4564   8.909   0.239   6.408 -1.0032  2.7210  0.3026
  758MOL0     H 4565   8.784   0.295   6.295 -0.3900 -0.2189  0.0081
  758MOL0     H 4566   8.753   0.097   5.839 -0.7745 -0.9152  0.8313
  758MOL0     H 4567   8.842   0.035   5.623 -1.3269 -2.7405 -3.4950
  758MOL0     H 4568   9.120  -0.300   5.552 -0.5860  1.9010  0.7055
  758MOL0     H 4569   8.975  -0.393   5.549  1.2042 -0.9313 -0.5173
  758MOL0     H 4570   8.896  -0.305   5.355  0.1401 -2.8647  2.3487
  758MOL0     H 4571   9.061  -0.242   5.314  0.8727 -0.5243  1.5265
  758MOL0     H 4572   9.078  -0.528   5.379  4.1705  0.6310 -0.2430
  758MOL0     H 4573   9.157  -0.417   5.272 -0.5722  1.2083 -0.6983
  758MOL0     H 4574   8.935  -0.454   5.116  3.1965  0.5956 -1.4500
  758MOL0     H 4575   8.872  -0.542   5.258  1.3795 -3.5733 -0.0933
  758MOL0     H 4576   9.126  -0.634   5.140  0.8292  0.3708  0.2835
  758MOL0     H 4577   9.039  -0.705   5.273  2.6971  1.1236  0.5192
  758MOL0     H 4578   8.854  -0.767   5.131  2.2711 -2.2965  0.8940
  758MOL0     H 4579   8.994  -0.833   5.075 -2.0159 -2.0637 -0.1669
  758MOL0     H 4580   9.030  -0.652   4.897  0.3420  0.5275  1.5334
  758MOL0     H 4581   8.871  -0.598   4.938 -0.7322  0.0318  2.0695
  758MOL0     H 4582   8.917  -0.900   4.863 -1.4315 -0.1657 -1.3084
  758MOL0     H 4583   8.904  -0.776   4.745  0.5625  1.7186  0.2419
  758MOL0     H 4584   8.897  -0.368   5.756  0.2173  0.0841  2.0879
  758MOL0     H 4585   8.825  -0.319   5.965  0.0278 -2.6150 -4.3168
  758MOL0     H 4586   8.501  -0.111   6.238  1.2462  0.8770 -0.7444
  758MOL0     H 4587   8.482  -0.168   6.467 -0.0326 -0.4673 -1.1802
  758MOL0     H 4588   8.226   0.905   7.769  1.7468  1.3038  2.9604
  758MOL0     H 4589   8.197   0.998   7.983 -0.2994  0.7574 -2.0344
  758MOL0     H 4590   8.142   1.166   8.234  2.0955  1.4517  1.0115
  758MOL0     H 4591   8.210   1.306   8.419  0.6174 -0.8191 -0.3438
  758MOL0     H 4592   8.071   1.341   8.839  0.0245  0.4394  0.0602
  758MOL0     H 4593   8.143   1.213   8.767  0.8393  0.9500  0.5170
  758MOL0     H 4594   8.311   1.305   8.875  1.8369 -3.1070 -1.4680
  758MOL0     H 4595   8.289   1.466   8.807 -0.6263 -0.5783 -0.6186
  758MOL0     H 4596   8.400   1.225   8.652 -0.3922 -0.8644  1.3074
  758MOL0     H 4597   8.361   1.377   8.574  1.6808  3.1247  0.2352
  758MOL0     H 4598   8.550   1.344   8.828  0.3952 -1.9677 -1.3388
  758MOL0     H 4599   8.507   1.498   8.752  0.7908 -0.6844  0.8321
  758MOL0     H 4600   8.827   1.395   8.511 -0.6336 -0.6077 -1.5332
  758MOL0     H 4601   7.890   1.196   8.664  0.9062 -0.8342  0.4602
  758MOL0     H 4602   7.806   0.961   8.617 -1.2602 -0.0379 -0.0304
  758MOL0     H 4603   7.694   1.055   8.517  1.1495  2.0634 -1.6526
  758MOL0     H 4604   7.785   0.903   8.468 -0.7765 -0.4945  1.9824
  759MOL0     O 4605   3.047   9.330   4.454 -0.8900 -0.6387 -0.3616
  759MOL0     C 4606   3.120   9.371   4.358 -0.0439 -0.4638  0.4675
  759MOL0     O 4607   3.068   9.369   4.222  0.2573 -0.3551 -0.1019
  759MOL0     C 4608   2.952   9.436   4.194 -0.2241  0.8430 -0.1082
  759MOL0     C 4609   2.898   9.547   4.266 -0.2417 -0.6265  0.5159
  759MOL0     C 4610   2.776   9.610   4.221 -0.0357 -0.0920 -0.9320
  759MOL0     C 4611   2.713   9.562   4.106 -0.1879  0.9811 -0.3575
  759MOL0     O 4612   2.601   9.616   4.044 -0.3364 -0.0288 -0.5293
  759MOL0     C 4613   2.541   9.731   4.098  1.0172  0.3337 -0.4106
  759MOL0     C 4614   2.447   9.691   4.224 -0.6030  0.1158 -0.0961
  759MOL0     C 4615   2.391   9.828   4.273  0.7670  0.5408  0.1570
  759MOL0     C 4616   2.387   9.834   4.428 -0.1312  0.3148  0.4648
  759MOL0     C 4617   2.281   9.741   4.477 -0.7932 -0.1777  0.5242
  759MOL0     C 4618   2.211   9.779   4.607 -0.4021 -0.2936  0.7863
  759MOL0     C 4619   2.310   9.781   4.727  0.2314  0.1032  0.6729
  759MOL0     C 4620   2.243   9.828   4.855 -0.1832  0.6938  0.2023
  759MOL0     N 4621   2.240   9.715   4.952  0.3180  0.1548  0.1871
  759MOL0     C 4622   2.315   9.721   5.062 -0.5609 -0.4520 -0.0369
  759MOL0     C 4623   2.255   9.641   5.148  0.0026  0.7692 -1.0868
  759MOL0     C 4624   2.279   9.643   5.305  0.6260 -0.1324  0.0462
  759MOL0     C 4625   2.418   9.599   5.346 -0.5302 -0.3231 -0.8109
  759MOL0     C 4626   2.434   9.450   5.309 -1.9000  0.3955 -0.8388
  759MOL0     C 4627   2.583   9.406   5.348  0.2762  0.7261  0.3241
  759MOL0     O 4628   2.607   9.385   5.485 -0.1142 -0.2612  0.5884
  759MOL0     C 4629   2.550   9.280   5.547  0.3222  0.3136  0.1825
  759MOL0     C 4630   2.576   9.262   5.690  0.2465  0.6166  0.9849
  759MOL0     C 4631   2.518   9.161   5.770  0.3330  0.5478 -0.7334
  759MOL0     C 4632   2.536   9.157   5.918 -0.8650 -0.4611 -0.1072
  759MOL0     C 4633   2.450   9.058   5.707 -0.1963 -0.9252 -0.6105
  759MOL0     C 4634   2.404   8.957   5.798 -0.1728 -0.2308  0.8974
  759MOL0     O 4635   2.268   8.956   5.826 -0.5855 -0.1993 -0.4182
  759MOL0     C 4636   2.221   8.848   5.901  0.5475  0.2439  0.6306
  759MOL0     C 4637   2.208   8.724   5.837 -0.9941 -0.1881  0.9456
  759MOL0     C 4638   2.176   8.618   5.928  0.4163 -0.1039 -0.7811
  759MOL0     C 4639   2.153   8.637   6.063  0.0806 -0.2509 -0.0846
  759MOL0     O 4640   2.098   8.541   6.151 -0.3351 -0.6742 -0.1089
  759MOL0     C 4641   2.059   8.410   6.098 -0.2642  0.4056  0.3362
  759MOL0     C 4642   2.050   8.318   6.214 -0.4796  0.6210 -0.3437
  759MOL0     C 4643   2.012   8.166   6.181 -0.3876  0.3358 -0.4623
  759MOL0     C 4644   2.092   8.083   6.270  0.6827  0.7745 -0.4413
  759MOL0     C 4645   2.021   8.060   6.407 -0.2520  0.1543 -0.0954
  759MOL0     C 4646   1.908   7.954   6.395  0.2826 -0.3424 -0.0448
  759MOL0     C 4647   1.800   7.977   6.503 -0.2439  0.5880  0.8519
  759MOL0     C 4648   1.688   7.859   6.509 -0.2224 -0.9177 -0.1182
  759MOL0    Cl 4649   1.629   7.863   6.673 -0.3505  0.1186  0.2162
  759MOL0     C 4650   2.167   8.760   6.118  0.5207 -0.6949  0.1262
  759MOL0     C 4651   2.202   8.862   6.029 -0.0846  0.4816  0.2690
  759MOL0     O 4652   2.483   8.872   5.832 -0.4455  0.1223  0.3284
  759MOL0     C 4653   2.454   9.055   5.566 -0.2160  0.3538  0.2068
  759MOL0     C 4654   2.494   9.165   5.488  1.1000  0.4822  0.8458
  759MOL0     N 4655   2.152   9.579   5.077 -0.0004  0.4543  0.4207
  759MOL0     N 4656   2.148   9.623   4.952 -0.3136 -0.3922  0.4430
  759MOL0     C 4657   2.775   9.454   4.040 -0.0062 -0.0700  0.4069
  759MOL0     C 4658   2.889   9.389   4.079 -0.1453  1.0986 -0.4324
  759MOL0     C 4659   3.248   9.438   4.385  0.0934 -0.4020  0.4150
  759MOL0     C 4660   3.272   9.468   4.522 -0.1945 -0.1945  0.7878
  759MOL0     C 4661   3.397   9.519   4.565  0.4556  0.6889 -0.3803
  759MOL0     C 4662   3.496   9.555   4.465  0.4660 -0.4188 -0.3879
  759MOL0     O 4663   3.615   9.613   4.491 -0.4630 -0.5219 -0.0659
  759MOL0     C 4664   3.677   9.611   4.615  0.5105 -0.4861  0.1180
  759MOL0     C 4665   3.635   9.727   4.710  0.1597  0.4894  1.1149
  759MOL0     C 4666   3.733   9.753   4.820  0.3014 -0.1147  0.1998
  759MOL0     C 4667   3.715   9.633   4.918  0.3244  0.6329 -0.1774
  759MOL0     C 4668   3.835   9.589   4.991 -0.1573 -0.3653  0.5813
  759MOL0     C 4669   3.943   9.576   5.041  0.5013 -0.1400 -0.3622
  759MOL0     C 4670   3.471   9.519   4.329  0.5847  1.1001  0.0190
  759MOL0     C 4671   3.347   9.475   4.287 -0.6030  1.2127 -0.2689
  759MOL0     C 4672   3.337   9.448   4.134 -0.1683 -0.1701 -0.4992
  759MOL0     H 4673   2.959   9.585   4.347 -1.9818  1.0544  1.1202
  759MOL0     H 4674   2.753   9.708   4.261  0.3179 -1.4836  3.1829
  759MOL0     H 4675   2.484   9.795   4.030 -2.3073 -0.1992  1.6819
  759MOL0     H 4676   2.617   9.799   4.138  1.1475 -0.1050  0.0905
  759MOL0     H 4677   2.371   9.617   4.197 -1.1623  0.5484  0.2567
  759MOL0     H 4678   2.511   9.649   4.302  1.6353  2.4347 -0.5443
  759MOL0     H 4679   2.453   9.908   4.231 -0.2677  0.8970 -0.7541
  759MOL0     H 4680   2.292   9.831   4.226  1.2033 -0.8891 -0.9556
  759MOL0     H 4681   2.487   9.817   4.469 -0.9209  0.1634  2.4703
  759MOL0     H 4682   2.361   9.938   4.450 -2.1769  0.1079 -0.8079
  759MOL0     H 4683   2.328   9.645   4.503 -2.1800 -1.5288 -1.6673
  759MOL0     H 4684   2.212   9.713   4.397 -0.9616 -0.6067  0.8146
  759MOL0     H 4685   2.160   9.875   4.595  1.7128  0.7324 -0.7364
  759MOL0     H 4686   2.133   9.705   4.627  1.1606 -1.9866  0.9568
  759MOL0     H 4687   2.405   9.833   4.711  0.8918 -0.3826  2.7130
  759MOL0     H 4688   2.336   9.676   4.745 -0.6185 -0.2962 -0.3138
  759MOL0     H 4689   2.301   9.912   4.894  0.1979 -1.1550  4.0979
  759MOL0     H 4690   2.143   9.865   4.833 -0.9027 -0.8076  0.7521
  759MOL0     H 4691   2.390   9.793   5.092 -0.6083 -0.7569  0.8278
  759MOL0     H 4692   2.201   9.579   5.347  1.3365 -1.3698 -0.4674
  759MOL0     H 4693   2.267   9.746   5.339  0.9247 -0.5898  1.6453
  759MOL0     H 4694   2.494   9.651   5.285  1.3388 -1.9372  0.0284
  759MOL0     H 4695   2.439   9.620   5.451  0.2210  1.1550 -1.2177
  759MOL0     H 4696   2.361   9.382   5.354  1.2931 -1.7583  1.5914
  759MOL0     H 4697   2.429   9.435   5.201  1.8661  5.5870 -2.1115
  759MOL0     H 4698   2.618   9.328   5.280 -4.5690 -1.4833 -0.0147
  759MOL0     H 4699   2.654   9.488   5.332  3.6613 -2.0931 -0.1431
  759MOL0     H 4700   2.640   9.338   5.734  2.7689 -0.8052 -0.0195
  759MOL0     H 4701   2.593   9.242   5.956  2.7695 -3.1842  1.1096
  759MOL0     H 4702   2.604   9.076   5.946  0.8250  1.5796  2.1394
  759MOL0     H 4703   2.437   9.159   5.965 -1.1353  2.9825 -0.5467
  759MOL0     H 4704   2.232   8.729   5.731 -1.9751  3.4353  0.7785
  759MOL0     H 4705   2.161   8.519   5.887 -1.0690 -0.1898 -0.0867
  759MOL0     H 4706   1.964   8.424   6.046 -0.1191  2.9420  0.6192
  759MOL0     H 4707   2.146   8.373   6.042  1.4226  2.4914  1.4114
  759MOL0     H 4708   2.154   8.307   6.245  0.3200  0.1405 -2.9314
  759MOL0     H 4709   1.991   8.350   6.300 -2.0618 -0.5293 -0.9558
  759MOL0     H 4710   2.034   8.157   6.075  2.6720 -0.1322  0.1147
  759MOL0     H 4711   1.907   8.143   6.201 -0.8312  3.8532  2.3864
  759MOL0     H 4712   2.195   8.113   6.293  0.5655 -0.9161  2.9181
  759MOL0     H 4713   2.090   7.994   6.205 -3.5174 -0.5768  1.2122
  759MOL0     H 4714   2.087   8.033   6.490  1.2495  2.0894 -0.5955
  759MOL0     H 4715   1.977   8.156   6.435 -1.3318  0.5154 -2.7885
  759MOL0     H 4716   1.936   7.849   6.395  1.3503 -0.0957 -1.3885
  759MOL0     H 4717   1.853   7.970   6.302  0.8557  3.3940  0.0888
  759MOL0     H 4718   1.744   8.070   6.493 -1.9914 -0.4953  0.0686
  759MOL0     H 4719   1.859   7.985   6.595 -0.4049  2.9957  0.7876
  759MOL0     H 4720   1.722   7.756   6.499 -3.8708 -2.1643 -1.2074
  759MOL0     H 4721   1.614   7.884   6.432  1.2875  2.5202 -0.6576
  759MOL0     H 4722   2.148   8.785   6.222 -0.3913 -0.2795 -0.1324
  759MOL0     H 4723   2.200   8.966   6.059 -3.2761  1.0469 -1.5022
  759MOL0     H 4724   2.416   8.963   5.523  1.9475 -1.4995  2.0534
  759MOL0     H 4725   2.501   9.153   5.380 -0.6880  1.8196  0.5296
  759MOL0     H 4726   2.722   9.434   3.947  1.3924  1.8800 -0.8671
  759MOL0     H 4727   2.934   9.311   4.018 -1.8261 -1.0504  0.9255
  759MOL0     H 4728   3.196   9.439   4.593 -1.6337  0.3870 -0.4510
  759MOL0     H 4729   3.419   9.539   4.669  1.4552 -0.5458 -0.3229
  759MOL0     H 4730   3.665   9.518   4.671 -2.0728 -0.7188 -0.6854
  759MOL0     H 4731   3.784   9.615   4.595  0.4816  0.4832  0.1035
  759MOL0     H 4732   3.535   9.705   4.747 -0.4801 -0.6065 -1.0928
  759MOL0     H 4733   3.640   9.818   4.649 -0.5239 -0.3446 -0.2267
  759MOL0     H 4734   3.840   9.762   4.799  0.5921  0.3284  1.7259
  759MOL0     H 4735   3.699   9.842   4.874  2.3717 -0.4507  2.2026
  759MOL0     H 4736   3.682   9.551   4.854  0.1658  1.4444 -1.1588
  759MOL0     H 4737   3.630   9.653   4.984  1.1464 -0.0524  1.1355
  759MOL0     H 4738   4.043   9.559   5.077  0.3953 -0.5685 -0.2740
  759MOL0     H 4739   3.552   9.533   4.259  1.6828 -0.7155  0.8552
  759MOL0     H 4740   3.254   9.509   4.099 -3.1512 -3.8774 -0.5655
  759MOL0     H 4741   3.427   9.465   4.075 -1.3711 -1.4384 -2.8484
  759MOL0     H 4742   3.297   9.349   4.111 -3.5415  1.3853 -2.1407
  760MOL0     O 4743   2.189   3.031  11.168 -0.3155  0.3567  0.6178
  760MOL0     C 4744   2.191   3.065  11.052 -0.1169  0.2452 -0.0773
  760MOL0     O 4745   2.177   2.986  10.938 -0.0640 -0.4573 -0.0546
  760MOL0     C 4746   2.192   2.854  10.956  0.5139  0.0608  0.4542
  760MOL0     C 4747   2.312   2.805  10.919  0.6324 -0.1109 -0.0207
  760MOL0     C 4748   2.343   2.666  10.914  0.2108 -0.4557 -0.0875
  760MOL0     C 4749   2.232   2.577  10.928  0.1978  0.2078 -0.1606
  760MOL0     O 4750   2.273   2.449  10.919 -0.4389 -0.0958  0.5807
  760MOL0     C 4751   2.164   2.369  10.880 -0.3700  0.0438  0.7631
  760MOL0     C 4752   2.214   2.228  10.836  0.3074 -0.1219 -0.1071
  760MOL0     C 4753   2.238   2.128  10.947  0.3258  1.2426  0.1612
  760MOL0     C 4754   2.284   1.988  10.884  0.0771  0.3476 -0.2403
  760MOL0     C 4755   2.321   1.872  10.982  0.2102  0.2069 -0.5377
  760MOL0     C 4756   2.397   1.747  10.927  0.1193 -0.7874 -0.0185
  760MOL0     C 4757   2.531   1.789  10.862  0.6632  0.5753  0.3523
  760MOL0     C 4758   2.519   1.726  10.717 -0.6981  0.6005  0.3867
  760MOL0     N 4759   2.427   1.808  10.640  0.0668 -0.8437 -0.0512
  760MOL0     C 4760   2.291   1.791  10.615 -0.3862  0.5309  0.7968
  760MOL0     C 4761   2.255   1.871  10.511  0.1186 -0.3284 -0.1467
  760MOL0     C 4762   2.125   1.902  10.435 -0.4960  0.4793 -0.8676
  760MOL0     C 4763   2.074   1.800  10.332 -0.7693 -0.5897  0.0859
  760MOL0     C 4764   2.041   1.658  10.376  0.0539  0.4517 -0.1592
  760MOL0     C 4765   1.910   1.616  10.310 -0.0538 -0.4774 -0.1382
  760MOL0     O 4766   1.895   1.485  10.369 -0.4193  0.0645 -0.0174
  760MOL0     C 4767   1.851   1.394  10.285  0.1556 -0.7416  0.4874
  760MOL0     C 4768   1.719   1.368  10.288  0.0748  0.7342  0.8292
  760MOL0     C 4769   1.658   1.261  10.211 -0.1292  0.7972 -0.0018
  760MOL0     C 4770   1.518   1.221  10.259  0.4619  0.4841  0.0936
  760MOL0     C 4771   1.748   1.183  10.129  0.6923 -0.0091  0.3827
  760MOL0     C 4772   1.708   1.060  10.056 -0.0415  0.3098 -0.4871
  760MOL0     O 4773   1.813   0.967  10.019 -0.0389  0.1957  0.8397
  760MOL0     C 4774   1.802   0.875   9.925 -0.3666  0.1762 -0.6241
  760MOL0     C 4775   1.781   0.913   9.793  0.1434  0.5077  0.5499
  760MOL0     C 4776   1.738   0.827   9.702 -0.4297 -0.6369  0.0334
  760MOL0     C 4777   1.710   0.697   9.739  0.2679  1.0053  0.7073
  760MOL0     O 4778   1.646   0.607   9.659  1.0381 -0.1717  0.5087
  760MOL0     C 4779   1.702   0.579   9.530 -0.8572 -0.6079  0.7399
  760MOL0     C 4780   1.794   0.451   9.532  1.1261 -0.0453 -0.1203
  760MOL0     C 4781   1.931   0.488   9.586 -0.6164  0.1032 -0.4297
  760MOL0     C 4782   2.033   0.372   9.574 -0.5178 -0.3297 -0.5084
  760MOL0     C 4783   2.175   0.409   9.633 -0.3118  0.5157 -0.3465
  760MOL0     C 4784   2.226   0.549   9.589 -0.1821  0.3213  0.0276
  760MOL0     C 4785   2.369   0.555   9.644 -0.2685 -0.6722  0.1201
  760MOL0     C 4786   2.432   0.693   9.620 -0.4811 -0.8123  0.4563
  760MOL0    Cl 4787   2.515   0.705   9.458 -0.1852 -0.2694 -0.4993
  760MOL0     C 4788   1.733   0.651   9.873 -0.1328  0.0923 -0.6268
  760MOL0     C 4789   1.781   0.736   9.967 -1.2394  0.5318 -0.3896
  760MOL0     O 4790   1.596   1.060  10.013 -0.0858  0.5724 -0.4266
  760MOL0     C 4791   1.887   1.214  10.139  0.2557  0.0661 -0.1527
  760MOL0     C 4792   1.938   1.314  10.218  0.0992 -0.5128  0.8447
  760MOL0     N 4793   2.372   1.944  10.493 -0.0872 -0.3446  0.6878
  760MOL0     N 4794   2.473   1.909  10.569  0.1095 -0.0678  1.2264
  760MOL0     C 4795   2.103   2.631  10.945  0.9963  0.0981 -0.3905
  760MOL0     C 4796   2.075   2.769  10.974  0.4162 -0.6926  0.4621
  760MOL0     C 4797   2.171   3.203  11.008 -0.2095 -0.6151  0.0205
  760MOL0     C 4798   2.106   3.232  10.882  0.3908 -0.4391  0.3044
  760MOL0     C 4799   2.075   3.361  10.834  0.7031  0.7328 -0.5123
  760MOL0     C 4800   2.103   3.468  10.924 -0.8690  1.0368  0.5170
  760MOL0     O 4801   2.074   3.596  10.894 -0.2404  0.5885 -0.1351
  760MOL0     C 4802   2.012   3.631  10.771  1.1162 -0.3670 -0.2094
  760MOL0     C 4803   1.965   3.773  10.751 -0.8308 -0.0310  0.8033
  760MOL0     C 4804   2.077   3.877  10.781  0.7225 -0.4194  0.2871
  760MOL0     C 4805   2.016   4.009  10.802  0.6367  0.0162  0.2101
  760MOL0     C 4806   2.118   4.122  10.797  0.3115 -0.0081 -0.9871
  760MOL0     C 4807   2.177   4.221  10.780 -0.3642 -0.1772  0.3104
  760MOL0     C 4808   2.169   3.443  11.039 -0.3120 -0.4304 -0.5939
  760MOL0     C 4809   2.205   3.314  11.089 -1.0888 -0.5438  0.2213
  760MOL0     C 4810   2.291   3.305  11.218 -0.7793 -1.2018  0.1400
  760MOL0     H 4811   2.398   2.868  10.896  0.7483 -1.0529 -2.6245
  760MOL0     H 4812   2.446   2.638  10.894  0.3982 -0.1782  0.4724
  760MOL0     H 4813   2.098   2.414  10.805  0.8691  0.9999  0.2072
  760MOL0     H 4814   2.101   2.353  10.968  1.4482  0.7518  2.2739
  760MOL0     H 4815   2.133   2.192  10.771  0.2173  0.8258 -0.5366
  760MOL0     H 4816   2.305   2.243  10.776  1.3616  1.0702  1.7114
  760MOL0     H 4817   2.321   2.151  11.014  0.0823 -0.2714  1.0078
  760MOL0     H 4818   2.143   2.111  10.999  1.4814  0.8726  2.2844
  760MOL0     H 4819   2.204   1.954  10.817  0.8418 -1.1601 -0.4127
  760MOL0     H 4820   2.378   2.001  10.830  1.0174 -3.6609  0.1199
  760MOL0     H 4821   2.225   1.838  11.021 -0.7773  1.4542 -1.7951
  760MOL0     H 4822   2.380   1.912  11.066 -0.9916 -2.7855  1.9227
  760MOL0     H 4823   2.423   1.680  11.009  2.3079 -0.9521 -0.7973
  760MOL0     H 4824   2.329   1.695  10.858 -0.0419  2.3617 -2.4666
  760MOL0     H 4825   2.613   1.753  10.925 -0.0432 -3.3388 -0.6742
  760MOL0     H 4826   2.544   1.897  10.857  4.3909  0.1825 -1.3855
  760MOL0     H 4827   2.621   1.727  10.677 -0.1866  0.3922  1.6440
  760MOL0     H 4828   2.492   1.621  10.731 -3.5718  1.0901 -0.7630
  760MOL0     H 4829   2.217   1.728  10.663  0.2017 -0.4952  0.3892
  760MOL0     H 4830   2.142   1.997  10.385  2.6840  0.0451 -0.8048
  760MOL0     H 4831   2.037   1.922  10.498 -2.1748  0.7643 -3.1709
  760MOL0     H 4832   2.001   1.841  10.262 -0.2589 -1.1405 -0.7868
  760MOL0     H 4833   2.163   1.789  10.269 -0.6099 -2.1974  0.5587
  760MOL0     H 4834   2.113   1.579  10.353  0.0711 -0.1336  1.6948
  760MOL0     H 4835   2.050   1.643  10.484 -2.9167 -2.7830 -0.1898
  760MOL0     H 4836   1.834   1.692  10.332 -0.2569  0.0556 -2.4358
  760MOL0     H 4837   1.914   1.605  10.201 -1.3773 -0.3213 -0.2273
  760MOL0     H 4838   1.661   1.423  10.362  1.6245 -0.2123  2.8804
  760MOL0     H 4839   1.492   1.267  10.355 -2.2549 -0.0867 -0.2967
  760MOL0     H 4840   1.500   1.113  10.255  3.3347 -0.2674  2.9288
  760MOL0     H 4841   1.447   1.265  10.188  0.9199  2.4238  0.7687
  760MOL0     H 4842   1.788   1.020   9.774 -1.3217  0.7683  1.3004
  760MOL0     H 4843   1.718   0.863   9.601  2.0958 -1.5511 -0.8664
  760MOL0     H 4844   1.628   0.552   9.454  1.6707  0.4436 -2.2959
  760MOL0     H 4845   1.759   0.666   9.496 -2.5832 -0.5388 -2.3569
  760MOL0     H 4846   1.742   0.381   9.598  1.0980 -1.3635 -1.4752
  760MOL0     H 4847   1.794   0.401   9.435 -1.7898 -1.4831  0.5085
  760MOL0     H 4848   1.915   0.509   9.693 -1.0458 -0.2646 -0.4162
  760MOL0     H 4849   1.965   0.567   9.519 -2.4540 -0.0041 -1.5661
  760MOL0     H 4850   2.035   0.346   9.467 -0.4767  0.3674 -0.6798
  760MOL0     H 4851   1.990   0.295   9.639  1.5199 -2.2300 -1.2612
  760MOL0     H 4852   2.162   0.403   9.742  0.6512 -1.9758 -0.2971
  760MOL0     H 4853   2.242   0.332   9.594  0.7950  1.8686 -1.2161
  760MOL0     H 4854   2.151   0.618   9.629  0.1616  1.5694 -1.4159
  760MOL0     H 4855   2.233   0.552   9.480  3.7595  0.2911  0.1430
  760MOL0     H 4856   2.430   0.475   9.601  1.8483  1.9214 -2.0836
  760MOL0     H 4857   2.381   0.546   9.753  1.5126  1.1123  0.1261
  760MOL0     H 4858   2.497   0.731   9.698 -1.2732  3.3273 -0.6703
  760MOL0     H 4859   2.343   0.757   9.617 -1.2106 -1.7707  1.2077
  760MOL0     H 4860   1.728   0.548   9.908  2.0970 -0.0560 -0.5954
  760MOL0     H 4861   1.788   0.689  10.064 -1.1025  1.7425  0.2090
  760MOL0     H 4862   1.951   1.162  10.068 -1.7908  0.0756 -2.1355
  760MOL0     H 4863   2.046   1.319  10.224  0.1573 -0.9458  0.2903
  760MOL0     H 4864   2.016   2.566  10.952 -0.0321  1.2927 -1.5236
  760MOL0     H 4865   1.977   2.815  10.985 -0.5204 -1.1590 -3.8680
  760MOL0     H 4866   2.086   3.163  10.801 -2.0958  0.3198  0.1755
  760MOL0     H 4867   2.025   3.374  10.739 -1.6324 -1.0916  0.3468
  760MOL0     H 4868   2.084   3.607  10.693  2.3841  0.8819  0.5331
  760MOL0     H 4869   1.925   3.567  10.750 -0.8445  1.8570  0.6176
  760MOL0     H 4870   1.879   3.796  10.815 -3.5983  1.1045 -2.9818
  760MOL0     H 4871   1.930   3.797  10.651 -1.6091  3.3050  1.7649
  760MOL0     H 4872   2.125   3.859  10.878  0.8085  0.2450  0.3707
  760MOL0     H 4873   2.138   3.875  10.691  0.2782 -2.2322 -0.0244
  760MOL0     H 4874   1.968   4.008  10.900 -1.0147  0.4102 -0.5559
  760MOL0     H 4875   1.936   4.023  10.728  0.1432  0.9268  0.9016
  760MOL0     H 4876   2.250   4.297  10.761 -0.1535 -0.9133 -2.1703
  760MOL0     H 4877   2.199   3.527  11.102  4.3794 -1.4235 -1.1487
  760MOL0     H 4878   2.396   3.289  11.190 -0.4659  2.9952 -1.9449
  760MOL0     H 4879   2.296   3.394  11.282  1.8130 -0.8629 -0.4340
  760MOL0     H 4880   2.243   3.227  11.278 -0.5061  0.0291  2.0521
  761MOL0     O 4881   8.506   6.064   8.444 -0.0065 -0.6315  0.3707
  761MOL0     C 4882   8.432   5.976   8.479 -0.7630 -0.1467  0.1810
  761MOL0     O 4883   8.330   5.989   8.566  0.3225 -0.4019 -0.4735
  761MOL0     C 4884   8.282   6.113   8.616 -1.1140 -1.0235 -0.0857
  761MOL0     C 4885   8.173   6.188   8.568  0.5127  0.3997  0.0066
  761MOL0     C 4886   8.134   6.308   8.632  0.6314 -0.3183 -0.6300
  761MOL0     C 4887   8.198   6.355   8.743 -0.8120 -1.0599  0.3371
  761MOL0     O 4888   8.172   6.466   8.809 -0.2358 -0.7554  0.4829
  761MOL0     C 4889   8.041   6.517   8.784 -0.0243 -0.0247  0.3975
  761MOL0     C 4890   7.990   6.634   8.867 -0.3950  0.2874  0.5191
  761MOL0     C 4891   7.948   6.579   9.013 -0.7294 -0.0683 -0.0471
  761MOL0     C 4892   7.918   6.694   9.123  0.5797 -0.1037  0.9083
  761MOL0     C 4893   7.803   6.791   9.104 -0.3211 -0.6599  0.8581
  761MOL0     C 4894   7.670   6.723   9.099  0.0040 -0.6509 -0.0751
  761MOL0     C 4895   7.564   6.822   9.152  1.0040 -0.3585 -0.3787
  761MOL0     C 4896   7.534   6.946   9.073 -0.6082  0.6490  0.2721
  761MOL0     N 4897   7.437   6.933   8.972 -0.3538 -1.1084  0.0984
  761MOL0     C 4898   7.401   7.052   8.897 -0.3939  1.2083 -0.0340
  761MOL0     C 4899   7.303   7.013   8.818  0.2692 -0.3301  0.0392
  761MOL0     C 4900   7.220   7.078   8.711 -0.6270  0.2512  0.0175
  761MOL0     C 4901   7.271   7.209   8.657 -0.8155  1.6010  0.5375
  761MOL0     C 4902   7.265   7.319   8.766  0.0961 -1.3943 -1.2424
  761MOL0     C 4903   7.294   7.456   8.713 -0.1198 -0.3454  0.6041
  761MOL0     O 4904   7.223   7.484   8.595  0.2475  0.9939 -1.2498
  761MOL0     C 4905   7.217   7.615   8.552  1.3436  0.1832  0.1623
  761MOL0     C 4906   7.151   7.716   8.626 -0.3607  0.7598  0.0964
  761MOL0     C 4907   7.176   7.843   8.592 -0.1354  1.1997 -0.3724
  761MOL0     C 4908   7.143   7.948   8.701 -0.3268  0.3487  0.3556
  761MOL0     C 4909   7.211   7.873   8.455 -0.4080 -0.5618  0.3118
  761MOL0     C 4910   7.197   8.005   8.399  1.5557 -0.1218  0.1382
  761MOL0     O 4911   7.092   8.066   8.453 -0.3484 -0.6448  0.1499
  761MOL0     C 4912   7.052   8.188   8.409 -0.5279 -0.6960  0.8802
  761MOL0     C 4913   7.008   8.209   8.275 -0.1814  0.2932 -0.5330
  761MOL0     C 4914   6.951   8.328   8.230 -0.8916  0.8441  0.1717
  761MOL0     C 4915   6.945   8.437   8.308  0.0665 -1.0023 -0.1649
  761MOL0     O 4916   6.884   8.561   8.287  0.2158  0.3160  0.0970
  761MOL0     C 4917   6.910   8.620   8.163  0.9114 -0.2339  0.0520
  761MOL0     C 4918   7.028   8.704   8.187  0.3249 -0.6803 -0.9115
  761MOL0     C 4919   7.081   8.781   8.075 -0.1660  0.1868 -0.0111
  761MOL0     C 4920   6.978   8.844   7.983  0.0919 -0.2713 -0.8467
  761MOL0     C 4921   7.026   8.892   7.858 -0.4647  0.2410  0.0144
  761MOL0     C 4922   6.951   9.010   7.782  0.0811  0.1422  0.8030
  761MOL0     C 4923   7.025   9.025   7.646  0.0143 -0.5647  0.9466
  761MOL0     C 4924   6.944   9.122   7.549 -0.7722 -0.5434  0.3638
  761MOL0    Cl 4925   6.796   9.029   7.510 -0.1284 -0.3264  0.3790
  761MOL0     C 4926   6.976   8.416   8.442 -0.1009  0.1953  0.0008
  761MOL0     C 4927   7.035   8.297   8.493  0.2871 -0.4350 -0.5247
  761MOL0     O 4928   7.248   8.033   8.293 -0.1257 -0.1558 -0.2848
  761MOL0     C 4929   7.256   7.776   8.371  0.5539 -0.2611  0.7864
  761MOL0     C 4930   7.274   7.649   8.426  0.2823  0.2694  0.4304
  761MOL0     N 4931   7.268   6.879   8.849  0.2683  0.1998 -0.6767
  761MOL0     N 4932   7.344   6.835   8.947 -0.4171 -0.4215 -0.1241
  761MOL0     C 4933   8.308   6.281   8.785  0.7947 -0.5736  0.5903
  761MOL0     C 4934   8.356   6.166   8.724 -0.0535 -0.9275  0.4922
  761MOL0     C 4935   8.464   5.834   8.442 -1.0501 -0.3701  1.3687
  761MOL0     C 4936   8.371   5.734   8.477  0.3514  0.1361 -0.4740
  761MOL0     C 4937   8.384   5.603   8.432 -0.2001  1.0199 -0.1160
  761MOL0     C 4938   8.491   5.566   8.353  0.9115  0.5135 -0.5238
  761MOL0     O 4939   8.509   5.437   8.313  0.2001  0.4909  0.4257
  761MOL0     C 4940   8.457   5.325   8.382  0.3872 -0.2705  0.1756
  761MOL0     C 4941   8.537   5.200   8.351 -0.1435  0.3878  0.8230
  761MOL0     C 4942   8.513   5.161   8.209 -0.3861  0.2829 -0.2305
  761MOL0     C 4943   8.555   5.018   8.180  0.2808  0.4277  0.2628
  761MOL0     C 4944   8.691   4.981   8.213 -0.6205 -0.8341 -0.5353
  761MOL0     C 4945   8.806   4.956   8.254  0.2079  0.5008  0.0898
  761MOL0     C 4946   8.591   5.659   8.327  0.2331 -0.2431 -0.3640
  761MOL0     C 4947   8.581   5.793   8.366  0.0344  0.0653  0.4021
  761MOL0     C 4948   8.703   5.890   8.341 -0.2540 -0.2994  0.1211
  761MOL0     H 4949   8.110   6.165   8.483  0.9261 -0.8156  0.0152
  761MOL0     H 4950   8.046   6.353   8.587  2.4210  0.5572 -3.4506
  761MOL0     H 4951   7.968   6.437   8.803 -0.7016  1.5750  6.6346
  761MOL0     H 4952   8.030   6.552   8.681  0.1657 -1.1917 -0.0370
  761MOL0     H 4953   8.063   6.715   8.869  1.2408 -1.0684 -0.7628
  761MOL0     H 4954   7.904   6.662   8.807  1.6762  5.6295 -0.4322
  761MOL0     H 4955   7.867   6.505   9.004 -0.2635 -1.0662  2.7446
  761MOL0     H 4956   8.039   6.529   9.049  0.4727  0.5920 -2.0196
  761MOL0     H 4957   7.900   6.645   9.219 -0.8833 -0.8690  0.2750
  761MOL0     H 4958   8.017   6.741   9.125  0.4310  0.2460  0.3642
  761MOL0     H 4959   7.817   6.845   9.010  2.9345  0.2205  1.7227
  761MOL0     H 4960   7.806   6.868   9.182  1.4231  0.0929  0.0951
  761MOL0     H 4961   7.645   6.686   8.999 -0.7618 -0.3152 -0.0137
  761MOL0     H 4962   7.671   6.633   9.162  0.0487 -0.2189  0.5433
  761MOL0     H 4963   7.590   6.841   9.257 -0.8225 -1.4580  0.3145
  761MOL0     H 4964   7.476   6.757   9.149 -0.3036  1.3394 -0.7664
  761MOL0     H 4965   7.491   7.026   9.134 -1.3314 -0.1304  0.8121
  761MOL0     H 4966   7.623   6.984   9.022 -1.0864  2.8785  1.0255
  761MOL0     H 4967   7.452   7.146   8.911  2.6285 -0.7492  4.0534
  761MOL0     H 4968   7.116   7.095   8.742 -1.2206  0.6602 -2.0632
  761MOL0     H 4969   7.207   7.008   8.628 -2.7629  1.8431 -1.1061
  761MOL0     H 4970   7.377   7.195   8.632 -0.8227  2.8644 -0.2545
  761MOL0     H 4971   7.213   7.239   8.570  1.8339  2.9403 -0.8967
  761MOL0     H 4972   7.167   7.318   8.815  0.7130 -2.4698  0.0346
  761MOL0     H 4973   7.332   7.315   8.853 -1.1724  2.5361  0.1543
  761MOL0     H 4974   7.264   7.528   8.790 -0.2319 -1.5923  1.7799
  761MOL0     H 4975   7.400   7.480   8.704 -0.3234  0.5597  0.5934
  761MOL0     H 4976   7.119   7.706   8.729 -0.7239 -0.6008 -0.1274
  761MOL0     H 4977   7.166   7.898   8.795  0.9103  0.1416 -0.0449
  761MOL0     H 4978   7.038   7.977   8.715 -0.8444 -1.0320 -0.4933
  761MOL0     H 4979   7.193   8.045   8.694 -1.2095  0.8854  1.1597
  761MOL0     H 4980   6.998   8.136   8.195 -0.5481  0.6737 -0.8395
  761MOL0     H 4981   6.914   8.335   8.128 -1.4062 -1.0217  0.2065
  761MOL0     H 4982   6.945   8.545   8.090  1.1895 -0.2367  0.1875
  761MOL0     H 4983   6.825   8.680   8.129  0.2615 -0.6660  0.8761
  761MOL0     H 4984   7.016   8.772   8.272  2.7058  0.3106 -1.2785
  761MOL0     H 4985   7.115   8.645   8.216 -0.7889 -0.7511  2.8035
  761MOL0     H 4986   7.142   8.712   8.016  0.8031 -0.7695  2.0353
  761MOL0     H 4987   7.154   8.850   8.119  1.5590 -1.0348 -0.8095
  761MOL0     H 4988   6.937   8.929   8.038  0.6118 -0.6147  0.0792
  761MOL0     H 4989   6.899   8.771   7.960  1.0023 -1.2461 -0.9859
  761MOL0     H 4990   7.128   8.930   7.871 -0.6761  0.6719  0.4609
  761MOL0     H 4991   7.025   8.806   7.790 -0.1240 -2.5356  3.2830
  761MOL0     H 4992   6.956   9.104   7.837  1.3099  0.7922 -0.3645
  761MOL0     H 4993   6.847   8.993   7.754  0.0621  3.5528 -1.8799
  761MOL0     H 4994   7.036   8.929   7.596  0.6662 -0.6781  1.2968
  761MOL0     H 4995   7.121   9.077   7.658  0.0257  1.0591 -3.8817
  761MOL0     H 4996   6.996   9.139   7.455 -1.0231  1.5470  0.5611
  761MOL0     H 4997   6.900   9.214   7.589 -1.7644  0.5490 -2.9688
  761MOL0     H 4998   6.962   8.497   8.513 -1.4579  1.3251 -1.4718
  761MOL0     H 4999   7.056   8.285   8.599 -1.7776 -1.8755 -0.2171
  761MOL0     H 5000   7.289   7.796   8.270  4.8090 -3.5390  1.2710
  761MOL0     H 5001   7.323   7.576   8.362 -2.2925  1.1717 -2.9135
  761MOL0     H 5002   8.362   6.320   8.871 -1.9959 -0.2780  2.3112
  761MOL0     H 5003   8.445   6.111   8.753  0.8758  0.6464  0.7648
  761MOL0     H 5004   8.282   5.756   8.536 -0.7499  0.9910 -2.3366
  761MOL0     H 5005   8.306   5.528   8.439  0.6160 -0.0468 -1.8057
  761MOL0     H 5006   8.467   5.358   8.486  1.0253 -1.2308  0.4393
  761MOL0     H 5007   8.354   5.315   8.347  0.2812  1.3285 -0.0453
  761MOL0     H 5008   8.521   5.121   8.426  1.8107 -0.6262  0.2287
  761MOL0     H 5009   8.645   5.211   8.361 -0.1852  2.0095 -0.2423
  761MOL0     H 5010   8.407   5.172   8.185  0.1015 -0.6969 -3.1183
  761MOL0     H 5011   8.571   5.235   8.153 -1.2896 -0.1369 -1.7556
  761MOL0     H 5012   8.533   4.991   8.077  2.9876 -0.6716 -0.1124
  761MOL0     H 5013   8.488   4.958   8.242 -0.1126  1.9171  1.3324
  761MOL0     H 5014   8.908   4.969   8.285  0.0359  1.6306  0.2445
  761MOL0     H 5015   8.675   5.622   8.269 -1.2154 -1.5471 -1.7332
  761MOL0     H 5016   8.668   5.966   8.270 -0.2495  0.0067  0.4439
  761MOL0     H 5017   8.736   5.935   8.435 -0.2898 -1.7858  0.8733
  761MOL0     H 5018   8.786   5.833   8.299 -1.0853 -2.1909  0.9095
  762MOL0     O 5019   5.714   7.635   6.911  0.2771  0.1125  0.3164
  762MOL0     C 5020   5.832   7.684   6.903  0.9218  0.3750  0.4499
  762MOL0     O 5021   5.927   7.632   6.829 -0.2275 -0.4113  0.3591
  762MOL0     C 5022   5.900   7.531   6.740 -0.0510  0.0816 -0.6260
  762MOL0     C 5023   5.776   7.486   6.694 -0.3839  0.0014  0.0496
  762MOL0     C 5024   5.769   7.383   6.596 -0.2630  0.5346  0.2563
  762MOL0     C 5025   5.893   7.318   6.546  0.4991 -0.0697 -0.9199
  762MOL0     O 5026   5.913   7.204   6.465  0.2255 -0.4608 -0.3111
  762MOL0     C 5027   5.800   7.154   6.400  0.9768  0.1073 -0.3153
  762MOL0     C 5028   5.821   7.059   6.290  0.3325 -0.1005  0.2064
  762MOL0     C 5029   5.919   7.116   6.194  0.4612 -0.2969  0.5846
  762MOL0     C 5030   5.973   7.017   6.099  0.8495  0.3672  0.0023
  762MOL0     C 5031   5.992   7.061   5.952  0.0587  0.2221 -0.0702
  762MOL0     C 5032   6.030   6.953   5.846  0.7433  0.6536  0.2158
  762MOL0     C 5033   5.968   6.809   5.865  0.1785  0.3161 -0.2371
  762MOL0     C 5034   5.937   6.768   5.717 -0.2523 -0.3193 -0.0804
  762MOL0     N 5035   5.916   6.626   5.697  0.1102 -0.3732  0.5097
  762MOL0     C 5036   5.800   6.563   5.675  0.7275  1.2077  0.9690
  762MOL0     C 5037   5.838   6.432   5.673  0.7234  0.4707 -0.0092
  762MOL0     C 5038   5.752   6.318   5.672  0.4079 -0.0801  0.8569
  762MOL0     C 5039   5.640   6.328   5.774 -0.2528  0.0646 -0.3583
  762MOL0     C 5040   5.570   6.191   5.785  0.9923  0.6049  0.3772
  762MOL0     C 5041   5.479   6.188   5.906  0.1638 -0.0487  0.7032
  762MOL0     O 5042   5.376   6.091   5.889 -0.2506 -0.6759  0.7477
  762MOL0     C 5043   5.400   5.962   5.905 -0.8054  0.1371  0.1073
  762MOL0     C 5044   5.504   5.914   5.989 -0.5487  0.3407  0.2397
  762MOL0     C 5045   5.548   5.779   6.002  0.6477  0.9882 -0.2498
  762MOL0     C 5046   5.666   5.751   6.090  0.8185 -0.2328  0.7276
  762MOL0     C 5047   5.481   5.680   5.923 -0.8137  0.5214  0.5683
  762MOL0     C 5048   5.507   5.535   5.925  0.0258 -0.1371  0.0549
  762MOL0     O 5049   5.478   5.462   5.817  0.7805 -0.2086  0.2052
  762MOL0     C 5050   5.534   5.333   5.812 -0.1504 -0.6882 -0.3560
  762MOL0     C 5051   5.669   5.311   5.836 -0.2579 -0.1660 -0.2256
  762MOL0     C 5052   5.730   5.187   5.833 -1.1182  1.0451  0.3536
  762MOL0     C 5053   5.660   5.073   5.785  1.0497  0.2186 -0.9591
  762MOL0     O 5054   5.700   4.939   5.791  0.0217  0.8118  0.2222
  762MOL0     C 5055   5.761   4.888   5.913 -0.2099  0.5485 -0.2016
  762MOL0     C 5056   5.717   4.741   5.953  0.2714  0.0896  0.7440
  762MOL0     C 5057   5.571   4.709   5.909  0.1260 -0.7960  0.6000
  762MOL0     C 5058   5.520   4.586   5.961 -0.1299  0.2993  0.3250
  762MOL0     C 5059   5.367   4.590   5.992 -0.8273 -0.6176  0.1704
  762MOL0     C 5060   5.321   4.447   6.036  0.0034  0.9680 -0.4475
  762MOL0     C 5061   5.177   4.442   6.084 -0.2742 -0.1362 -1.1067
  762MOL0     C 5062   5.072   4.405   5.993 -0.1034 -0.5671  0.8510
  762MOL0    Cl 5063   4.967   4.285   6.058 -0.1017  0.0998 -0.0787
  762MOL0     C 5064   5.523   5.092   5.755  0.8848 -0.5254 -0.8113
  762MOL0     C 5065   5.460   5.222   5.781 -0.8241 -0.2004  0.0273
  762MOL0     O 5066   5.557   5.482   6.029 -0.2816 -1.1343  1.2549
  762MOL0     C 5067   5.384   5.731   5.837 -0.3556  0.7963  0.7406
  762MOL0     C 5068   5.335   5.862   5.836 -0.8807  1.0076  0.4183
  762MOL0     N 5069   5.972   6.415   5.705 -0.9870 -0.3938  0.3971
  762MOL0     N 5070   6.023   6.529   5.707  0.2446  0.1084 -0.4494
  762MOL0     C 5071   6.016   7.367   6.596 -0.1428  0.6764 -0.8342
  762MOL0     C 5072   6.012   7.470   6.694 -0.5632 -0.0055  0.5969
  762MOL0     C 5073   5.860   7.793   6.998  0.2750  0.4325 -0.0979
  762MOL0     C 5074   5.752   7.825   7.093 -0.4120  0.2343  0.5234
  762MOL0     C 5075   5.771   7.917   7.195  0.4972 -0.2715  0.2355
  762MOL0     C 5076   5.887   7.996   7.201 -1.1306 -0.0356  0.2934
  762MOL0     O 5077   5.910   8.084   7.309 -0.1673 -0.7589  0.2689
  762MOL0     C 5078   5.900   8.020   7.438  0.4546 -0.4575  0.1995
  762MOL0     C 5079   5.843   8.123   7.537 -1.2415  0.0727 -0.5481
  762MOL0     C 5080   5.935   8.243   7.566  0.1176  0.1239  0.4054
  762MOL0     C 5081   5.865   8.359   7.642 -0.6502  0.5972  0.0603
  762MOL0     C 5082   5.849   8.323   7.786 -0.0046  0.1921  0.0597
  762MOL0     C 5083   5.844   8.280   7.896 -0.3295  0.3441 -0.4951
  762MOL0     C 5084   5.977   8.001   7.099 -0.4093  0.5796  0.4227
  762MOL0     C 5085   5.967   7.891   7.000 -1.2187 -0.1955  0.4797
  762MOL0     C 5086   6.081   7.891   6.910 -1.3772 -0.4991  0.3845
  762MOL0     H 5087   5.680   7.533   6.713 -0.0547  1.0985 -0.8755
  762MOL0     H 5088   5.674   7.361   6.549 -1.6542  2.0076  2.2177
  762MOL0     H 5089   5.748   7.243   6.364  2.5208  0.7740 -0.9989
  762MOL0     H 5090   5.734   7.102   6.470  0.0315 -0.5163 -1.6237
  762MOL0     H 5091   5.875   6.974   6.334  1.8335  0.8812  0.3182
  762MOL0     H 5092   5.729   7.023   6.243  0.7735 -0.9530 -0.0245
  762MOL0     H 5093   5.879   7.194   6.128 -1.0379 -1.0311  0.5906
  762MOL0     H 5094   6.004   7.159   6.248  1.3487 -0.5312 -0.6020
  762MOL0     H 5095   6.063   6.976   6.144  0.3899  0.2335  0.8252
  762MOL0     H 5096   5.904   6.932   6.092  2.7851 -1.3216  0.5049
  762MOL0     H 5097   6.062   7.146   5.955  1.1844 -0.4577 -3.1915
  762MOL0     H 5098   5.895   7.105   5.926 -0.2946 -1.1710 -1.2292
  762MOL0     H 5099   5.989   7.002   5.757 -1.5724 -0.6053  0.5384
  762MOL0     H 5100   6.135   6.939   5.816  0.4667  1.2870 -1.1510
  762MOL0     H 5101   5.879   6.818   5.929  0.7897  2.9447  0.3328
  762MOL0     H 5102   6.046   6.751   5.916 -0.4219  0.1927  0.5525
  762MOL0     H 5103   5.852   6.811   5.664  0.6018 -0.7461 -1.8748
  762MOL0     H 5104   6.026   6.796   5.659 -1.9279  0.3276 -2.5000
  762MOL0     H 5105   5.702   6.606   5.657  1.6033  2.9414  0.1414
  762MOL0     H 5106   5.805   6.222   5.676 -0.9386 -1.1566 -2.8387
  762MOL0     H 5107   5.707   6.297   5.575 -0.2607  1.0587  0.9132
  762MOL0     H 5108   5.662   6.351   5.879 -1.6717  3.8811 -0.7586
  762MOL0     H 5109   5.565   6.398   5.736  2.3942  1.8563 -2.6410
  762MOL0     H 5110   5.500   6.181   5.702  2.9322 -1.7896 -1.0817
  762MOL0     H 5111   5.627   6.098   5.783 -2.5973 -1.7875  0.0416
  762MOL0     H 5112   5.542   6.170   5.993  3.5474  1.4095 -1.2153
  762MOL0     H 5113   5.436   6.288   5.920 -0.4226 -0.5144  2.3581
  762MOL0     H 5114   5.553   5.982   6.058 -1.1078  0.5310  0.4562
  762MOL0     H 5115   5.645   5.699   6.184  1.1572 -2.8453 -0.5577
  762MOL0     H 5116   5.717   5.846   6.106  2.7271 -1.1211  0.2291
  762MOL0     H 5117   5.734   5.681   6.041 -1.8724 -2.2869 -0.3403
  762MOL0     H 5118   5.734   5.393   5.864  1.3019 -2.4243  3.3605
  762MOL0     H 5119   5.833   5.183   5.866 -0.2774  4.3548 -1.3797
  762MOL0     H 5120   5.869   4.888   5.900  0.2005  3.6347  2.0473
  762MOL0     H 5121   5.750   4.960   5.995  1.4281  0.9982 -0.3398
  762MOL0     H 5122   5.785   4.671   5.904 -0.9836 -0.6779  0.0645
  762MOL0     H 5123   5.719   4.727   6.062  0.3648 -3.0645  0.4200
  762MOL0     H 5124   5.566   4.709   5.800 -1.5418  1.5222  0.5957
  762MOL0     H 5125   5.505   4.791   5.938 -1.7885 -2.1126  0.2058
  762MOL0     H 5126   5.583   4.564   6.048  1.5394  0.7387 -0.7337
  762MOL0     H 5127   5.537   4.510   5.885 -0.4693  0.6407 -0.0972
  762MOL0     H 5128   5.339   4.671   6.061  0.3061 -1.3014  1.4822
  762MOL0     H 5129   5.313   4.610   5.899 -0.6538 -1.9325 -0.2301
  762MOL0     H 5130   5.373   4.417   6.127 -1.9263 -0.2583  0.3162
  762MOL0     H 5131   5.352   4.371   5.964  4.2395  0.0316  2.0525
  762MOL0     H 5132   5.175   4.535   6.142  1.1136 -0.0536 -1.1641
  762MOL0     H 5133   5.182   4.366   6.163  1.0175  2.4068  1.4760
  762MOL0     H 5134   5.116   4.363   5.903 -5.7525  0.1690 -2.7242
  762MOL0     H 5135   5.024   4.499   5.964 -1.1996 -0.3185  3.2027
  762MOL0     H 5136   5.463   5.012   5.713 -0.3511 -0.6444  1.0262
  762MOL0     H 5137   5.360   5.246   5.746 -0.9758 -0.4198  0.3131
  762MOL0     H 5138   5.333   5.663   5.769  1.2578  0.5008 -0.2307
  762MOL0     H 5139   5.253   5.881   5.769 -1.3771 -0.1751  0.6636
  762MOL0     H 5140   6.114   7.326   6.573  0.5397  1.4859  0.5093
  762MOL0     H 5141   6.107   7.510   6.729  0.7151 -2.1456 -0.2144
  762MOL0     H 5142   5.657   7.774   7.107 -1.1756  1.8588  1.4804
  762MOL0     H 5143   5.693   7.942   7.266  3.2563  3.5343  2.3161
  762MOL0     H 5144   5.842   7.928   7.436 -1.2827  0.6215 -0.7338
  762MOL0     H 5145   5.999   8.003   7.483 -0.4978 -1.3536  2.0676
  762MOL0     H 5146   5.824   8.074   7.633  3.0012 -0.4367  0.2568
  762MOL0     H 5147   5.747   8.152   7.494  0.0225  2.6158 -1.9228
  762MOL0     H 5148   6.026   8.219   7.622 -0.6937 -2.7498  0.6437
  762MOL0     H 5149   5.960   8.284   7.467  2.1146 -0.9992  0.3881
  762MOL0     H 5150   5.766   8.378   7.601  0.0530  3.6809 -0.4605
  762MOL0     H 5151   5.927   8.450   7.641 -0.7806  0.7324  1.8208
  762MOL0     H 5152   5.839   8.236   7.993 -0.2705 -0.3990 -0.8204
  762MOL0     H 5153   6.046   8.085   7.089  1.4643 -0.8633  0.6145
  762MOL0     H 5154   6.043   7.929   6.814  0.8732  1.2849  0.1124
  762MOL0     H 5155   6.166   7.952   6.940 -1.3245 -0.2129 -0.3240
  762MOL0     H 5156   6.117   7.788   6.896 -1.6897 -0.6276  0.5056
  763MOL0     O 5157   4.324   5.054   7.947  0.3956 -0.3586 -0.3616
  763MOL0     C 5158   4.348   4.953   8.014 -0.1586  0.6340 -0.5061
  763MOL0     O 5159   4.328   4.930   8.148  0.3735  0.8170  0.1108
  763MOL0     C 5160   4.283   5.042   8.224 -0.0810 -0.6568 -0.2724
  763MOL0     C 5161   4.387   5.119   8.282 -0.7103  0.6331 -0.0025
  763MOL0     C 5162   4.344   5.239   8.352 -1.2885  0.1344 -0.0379
  763MOL0     C 5163   4.209   5.271   8.372  0.0520 -0.1841  0.0344
  763MOL0     O 5164   4.170   5.381   8.452  0.3027  0.0808 -0.2471
  763MOL0     C 5165   4.271   5.449   8.537 -0.1662  0.5156 -0.8470
  763MOL0     C 5166   4.211   5.576   8.615  0.2623 -1.1447  0.1976
  763MOL0     C 5167   4.294   5.605   8.744  0.4337 -0.6073  0.4381
  763MOL0     C 5168   4.236   5.728   8.825  0.1670 -0.5333  0.4230
  763MOL0     C 5169   4.337   5.802   8.914 -0.3505  0.3171  0.7951
  763MOL0     C 5170   4.292   5.948   8.952  0.4460  0.7066 -0.3084
  763MOL0     C 5171   4.331   5.972   9.094  0.4577  0.3855  0.0524
  763MOL0     C 5172   4.475   5.967   9.131 -0.0503 -0.1963 -0.2851
  763MOL0     N 5173   4.509   6.024   9.257 -0.9840 -0.4847  0.2206
  763MOL0     C 5174   4.500   5.954   9.375 -0.7325  1.3019  0.2162
  763MOL0     C 5175   4.558   6.033   9.468 -0.9718  0.0521  0.5845
  763MOL0     C 5176   4.567   6.017   9.625 -0.2679 -0.2825  0.8545
  763MOL0     C 5177   4.575   5.871   9.655 -0.5163  0.5869  0.0477
  763MOL0     C 5178   4.692   5.859   9.756  0.4704 -0.2679  0.1683
  763MOL0     C 5179   4.731   5.714   9.777  0.8504  0.0194 -0.6953
  763MOL0     O 5180   4.840   5.658   9.710 -0.2737  0.1311 -0.0494
  763MOL0     C 5181   4.887   5.542   9.746  0.5666  0.1268 -0.1217
  763MOL0     C 5182   4.835   5.456   9.845  0.5411 -0.3815 -0.3566
  763MOL0     C 5183   4.900   5.347   9.896 -0.0207 -0.2678 -0.3077
  763MOL0     C 5184   4.832   5.278  10.017  0.2826  0.6223  0.1168
  763MOL0     C 5185   5.030   5.310   9.845 -0.3518 -0.3783 -0.4825
  763MOL0     C 5186   5.119   5.202   9.891 -0.3308  0.7450 -0.7310
  763MOL0     O 5187   5.236   5.186   9.823 -0.0151  0.5248  0.3635
  763MOL0     C 5188   5.322   5.099   9.876  0.3374 -0.1681 -0.9561
  763MOL0     C 5189   5.327   4.964   9.854  1.0830 -0.1508 -0.5642
  763MOL0     C 5190   5.427   4.875   9.908  0.2356  0.1635  0.3914
  763MOL0     C 5191   5.542   4.933   9.952  1.0896 -0.2160  0.1697
  763MOL0     O 5192   5.650   4.869   9.992 -0.2764 -0.4866  0.2573
  763MOL0     C 5193   5.725   4.781   9.902  0.4536  0.1703 -0.5208
  763MOL0     C 5194   5.863   4.742   9.945  0.4599 -0.4957 -0.0809
  763MOL0     C 5195   5.973   4.855   9.914  0.9236  0.5259  0.2205
  763MOL0     C 5196   5.961   4.955   9.793  0.0841 -0.0519 -0.8371
  763MOL0     C 5197   6.079   5.064   9.790  1.4723 -0.1406 -0.4247
  763MOL0     C 5198   6.206   5.018   9.724  0.6399  0.5375  0.7028
  763MOL0     C 5199   6.308   5.117   9.712 -0.5239 -0.3514 -0.1639
  763MOL0     C 5200   6.436   5.056   9.645 -0.5742  0.7008  0.5127
  763MOL0    Cl 5201   6.536   5.192   9.567  0.1894  0.1305  0.4762
  763MOL0     C 5202   5.537   5.067   9.984  0.4707  0.7428  0.9073
  763MOL0     C 5203   5.427   5.143   9.954 -0.0067  0.0979 -0.7242
  763MOL0     O 5204   5.083   5.135   9.988 -0.5535  0.2788  0.1442
  763MOL0     C 5205   5.081   5.392   9.742 -0.3040 -0.4303 -0.6938
  763MOL0     C 5206   5.011   5.510   9.703 -0.1473 -1.2806  0.5135
  763MOL0     N 5207   4.595   6.151   9.398 -0.2622  0.0071  0.1262
  763MOL0     N 5208   4.573   6.143   9.275 -0.5905 -0.6294  0.3883
  763MOL0     C 5209   4.113   5.174   8.333 -0.2919 -0.0315 -0.1728
  763MOL0     C 5210   4.144   5.067   8.250  0.6475  0.9317 -0.9135
  763MOL0     C 5211   4.425   4.842   7.940 -0.2211  0.1688 -0.3285
  763MOL0     C 5212   4.553   4.811   7.989  0.4477 -0.5392  0.0164
  763MOL0     C 5213   4.636   4.715   7.922 -0.3671 -0.2533 -0.5398
  763MOL0     C 5214   4.602   4.673   7.796 -0.1323 -0.5793 -0.0707
  763MOL0     O 5215   4.688   4.580   7.729 -0.2946  0.2502 -1.0158
  763MOL0     C 5216   4.641   4.450   7.699  0.6144 -0.0492 -0.2733
  763MOL0     C 5217   4.726   4.403   7.578  0.5083 -0.4823 -0.4624
  763MOL0     C 5218   4.669   4.271   7.524 -0.4943 -0.2562  0.8446
  763MOL0     C 5219   4.695   4.224   7.378 -0.2390  0.5748 -0.1337
  763MOL0     C 5220   4.674   4.326   7.269  0.5850 -0.1487  0.6336
  763MOL0     C 5221   4.670   4.413   7.186 -1.1632 -0.5857 -1.0181
  763MOL0     C 5222   4.482   4.729   7.735 -0.4010 -0.8944 -0.2957
  763MOL0     C 5223   4.395   4.806   7.806  0.4988 -0.6967 -0.7482
  763MOL0     C 5224   4.243   4.828   7.749  0.2090  0.5965  0.3047
  763MOL0     H 5225   4.488   5.078   8.278 -2.0998 -3.9243  2.8420
  763MOL0     H 5226   4.429   5.292   8.394 -1.4915 -1.5152  2.7094
  763MOL0     H 5227   4.362   5.470   8.479  0.0423 -1.0807 -1.1363
  763MOL0     H 5228   4.313   5.388   8.617  0.5368  4.7726  2.3702
  763MOL0     H 5229   4.201   5.662   8.548 -2.3104 -3.0575 -2.1389
  763MOL0     H 5230   4.108   5.556   8.645  0.0255 -0.5945 -0.2359
  763MOL0     H 5231   4.298   5.518   8.811  1.9655 -1.1255 -0.2903
  763MOL0     H 5232   4.399   5.623   8.719 -0.0133  2.6653  0.3891
  763MOL0     H 5233   4.196   5.797   8.749  2.1154 -1.5985 -1.7136
  763MOL0     H 5234   4.158   5.694   8.894  0.6424 -0.8808  0.7908
  763MOL0     H 5235   4.426   5.820   8.853 -0.5196  0.1193  0.4859
  763MOL0     H 5236   4.356   5.746   9.005  1.1098  1.9895  1.5907
  763MOL0     H 5237   4.334   6.027   8.888 -0.9424  1.5966 -0.1552
  763MOL0     H 5238   4.185   5.933   8.934  1.0876 -2.3519 -2.5271
  763MOL0     H 5239   4.284   5.900   9.162  3.9907 -2.7799 -0.4961
  763MOL0     H 5240   4.278   6.066   9.110 -4.3359 -1.5032 -2.6624
  763MOL0     H 5241   4.517   5.866   9.132  0.7560  0.0712  2.9266
  763MOL0     H 5242   4.530   6.021   9.053  0.7774 -0.4347  0.1236
  763MOL0     H 5243   4.465   5.856   9.408  2.0758 -0.0443 -0.4264
  763MOL0     H 5244   4.475   6.064   9.660 -0.8126 -1.3291  0.8382
  763MOL0     H 5245   4.651   6.082   9.654 -0.9771  2.1733 -2.0702
  763MOL0     H 5246   4.479   5.832   9.690 -0.4538 -1.2986 -1.7068
  763MOL0     H 5247   4.597   5.812   9.566 -3.3634  2.7270 -2.2236
  763MOL0     H 5248   4.779   5.915   9.721 -1.0373  1.2693 -1.3662
  763MOL0     H 5249   4.662   5.905   9.851 -0.8726 -0.9236  0.0945
  763MOL0     H 5250   4.757   5.712   9.883 -0.9993 -0.9053 -0.2280
  763MOL0     H 5251   4.649   5.648   9.748  0.1620  0.4859  0.1523
  763MOL0     H 5252   4.739   5.486   9.886 -1.1304 -1.5679 -3.1340
  763MOL0     H 5253   4.747   5.332  10.060 -0.8401 -2.0116  1.4712
  763MOL0     H 5254   4.908   5.258  10.093  2.6141 -1.1687 -2.4561
  763MOL0     H 5255   4.803   5.176   9.989  3.4048 -1.2019  2.7982
  763MOL0     H 5256   5.233   4.931   9.811  1.2247 -0.1307 -0.8904
  763MOL0     H 5257   5.410   4.769   9.894 -1.8708  0.9219 -5.0802
  763MOL0     H 5258   5.673   4.685   9.905  0.2750  0.2735  2.3410
  763MOL0     H 5259   5.728   4.813   9.797  0.8252  1.0918 -0.2456
  763MOL0     H 5260   5.844   4.727  10.051 -0.5222  1.7046  0.1031
  763MOL0     H 5261   5.890   4.647   9.898  0.4391 -1.1348  1.1514
  763MOL0     H 5262   6.069   4.805   9.904  1.9616  2.7985 -2.4557
  763MOL0     H 5263   5.973   4.922  10.001 -0.5083  2.5315 -1.2236
  763MOL0     H 5264   5.867   5.007   9.809 -0.7405 -1.7956  0.4275
  763MOL0     H 5265   5.974   4.902   9.698  0.2373 -1.2364 -0.1743
  763MOL0     H 5266   6.029   5.144   9.735 -1.0356 -0.9663  0.5240
  763MOL0     H 5267   6.108   5.116   9.882 -0.4721  0.0745  0.1162
  763MOL0     H 5268   6.179   4.997   9.621  1.1128  0.7409  0.5344
  763MOL0     H 5269   6.242   4.934   9.785 -0.3227  0.3951  1.0909
  763MOL0     H 5270   6.344   5.161   9.806  0.8869  2.3657 -1.8193
  763MOL0     H 5271   6.261   5.198   9.654 -0.7970 -2.9248 -3.8370
  763MOL0     H 5272   6.409   4.989   9.563  1.2567 -2.0807  2.0285
  763MOL0     H 5273   6.508   5.003   9.708  0.1683  2.0500  0.8492
  763MOL0     H 5274   5.620   5.105  10.043  0.0626  0.9716  1.3433
  763MOL0     H 5275   5.444   5.246   9.982  0.8197  0.2892 -1.8401
  763MOL0     H 5276   5.176   5.373   9.693 -0.2855  1.1463 -1.3236
  763MOL0     H 5277   5.061   5.572   9.628 -2.8847 -1.9304 -2.0204
  763MOL0     H 5278   4.013   5.197   8.368 -0.1211  0.2595  0.1253
  763MOL0     H 5279   4.065   4.997   8.225  0.4826  1.4414 -1.8522
  763MOL0     H 5280   4.584   4.856   8.084 -0.0711 -0.9818  0.3974
  763MOL0     H 5281   4.723   4.682   7.978 -0.4124  2.8818  1.6788
  763MOL0     H 5282   4.648   4.375   7.779  1.7232  0.3553  0.0276
  763MOL0     H 5283   4.534   4.447   7.680  0.7773  1.6900 -1.6773
  763MOL0     H 5284   4.824   4.379   7.619 -0.3997 -2.3512  0.7513
  763MOL0     H 5285   4.725   4.483   7.503  1.9062 -0.0971 -0.0959
  763MOL0     H 5286   4.706   4.194   7.593  1.2397 -1.8591 -1.7031
  763MOL0     H 5287   4.561   4.285   7.523 -0.4836 -0.2105  0.0853
  763MOL0     H 5288   4.631   4.137   7.363 -2.5944  1.5021  3.1299
  763MOL0     H 5289   4.802   4.202   7.383 -0.3369  0.3404  1.7194
  763MOL0     H 5290   4.673   4.500   7.124  1.1121 -1.1233 -1.7747
  763MOL0     H 5291   4.460   4.715   7.629  0.6446 -2.0682 -0.3892
  763MOL0     H 5292   4.244   4.762   7.661  0.6660  0.4660  0.4035
  763MOL0     H 5293   4.161   4.794   7.812 -1.4552  1.2523 -1.4164
  763MOL0     H 5294   4.220   4.930   7.719 -0.3759  0.8219  1.4965
  764MOL0     O 5295   4.477   5.183   8.630  0.5213 -1.2637 -0.6402
  764MOL0     C 5296   4.523   5.080   8.663 -1.0234 -1.0082 -0.8947
  764MOL0     O 5297   4.465   4.982   8.730  0.5897  0.0025  0.6664
  764MOL0     C 5298   4.332   4.982   8.764 -0.5143 -0.7923 -0.6818
  764MOL0     C 5299   4.217   5.038   8.707 -0.3261  1.1935  1.0826
  764MOL0     C 5300   4.092   5.038   8.770 -0.0401  0.6175 -0.7914
  764MOL0     C 5301   4.073   4.977   8.897 -0.2072  0.5919  0.5521
  764MOL0     O 5302   3.954   4.967   8.958  0.2514 -0.0496 -0.1378
  764MOL0     C 5303   3.883   5.090   8.977 -0.0547  0.0041 -0.3656
  764MOL0     C 5304   3.914   5.134   9.122 -1.2790 -0.2820  0.3522
  764MOL0     C 5305   3.835   5.260   9.164  0.5704  0.4522  0.0995
  764MOL0     C 5306   3.693   5.220   9.206  0.0932  0.1266 -0.8303
  764MOL0     C 5307   3.686   5.173   9.354 -0.6037  0.7216  0.6388
  764MOL0     C 5308   3.571   5.241   9.445  0.5757  0.8570  0.2986
  764MOL0     C 5309   3.427   5.196   9.399  0.2309 -0.3306  0.4786
  764MOL0     C 5310   3.312   5.185   9.500 -0.7253 -0.5664  0.7476
  764MOL0     N 5311   3.270   5.311   9.570 -0.1761 -0.7153 -0.1503
  764MOL0     C 5312   3.257   5.329   9.705  0.0226  0.0126  1.3341
  764MOL0     C 5313   3.211   5.453   9.721 -0.1668  0.1278  0.0063
  764MOL0     C 5314   3.181   5.530   9.843  0.1855 -0.9087  0.2981
  764MOL0     C 5315   3.038   5.502   9.896 -0.2676 -1.5268 -0.4918
  764MOL0     C 5316   3.029   5.361   9.972  0.1939 -0.6720 -0.2061
  764MOL0     C 5317   2.886   5.337  10.034 -1.1335 -0.0607 -0.4905
  764MOL0     O 5318   2.855   5.446  10.119 -0.4538 -0.5871 -0.5367
  764MOL0     C 5319   2.744   5.440  10.206 -0.6494 -1.1515  0.6715
  764MOL0     C 5320   2.754   5.513  10.329 -0.8452  1.1311  0.5377
  764MOL0     C 5321   2.656   5.504  10.422 -0.3814 -0.2259 -0.2920
  764MOL0     C 5322   2.680   5.566  10.558  0.6184  0.7761  0.4858
  764MOL0     C 5323   2.542   5.427  10.393 -0.0399 -0.5157 -0.8131
  764MOL0     C 5324   2.429   5.420  10.486  0.6906  0.1164  0.0701
  764MOL0     O 5325   2.454   5.417  10.622 -0.2009 -0.2357 -0.9459
  764MOL0     C 5326   2.343   5.402  10.702  0.2192  0.6470  0.1440
  764MOL0     C 5327   2.318   5.269  10.740 -0.7391  0.9589  0.3688
  764MOL0     C 5328   2.213   5.236  10.822  0.1059 -0.9226 -0.3243
  764MOL0     C 5329   2.126   5.334  10.864  1.0680 -1.2577 -0.2192
  764MOL0     O 5330   2.023   5.322  10.953 -0.2418  0.7905 -0.8370
  764MOL0     C 5331   2.069   5.337  11.095 -0.2121  0.1668 -0.1938
  764MOL0     C 5332   1.938   5.353  11.189  0.5408 -0.3613 -0.0433
  764MOL0     C 5333   1.976   5.384  11.339 -0.6883  0.8632  0.1656
  764MOL0     C 5334   1.854   5.428  11.427 -0.2791  0.0084 -0.1825
  764MOL0     C 5335   1.794   5.552  11.392  1.5506  0.0566 -0.0840
  764MOL0     C 5336   1.865   5.693  11.422 -0.7713 -0.9046 -0.2532
  764MOL0     C 5337   1.915   5.753  11.292  1.0647 -0.1831  1.3033
  764MOL0     C 5338   2.029   5.861  11.300 -0.0438  0.0970 -0.8941
  764MOL0    Cl 5339   2.008   5.964  11.172 -0.1864  0.0511  0.3097
  764MOL0     C 5340   2.152   5.471  10.827 -0.6287  0.6175 -0.6341
  764MOL0     C 5341   2.254   5.502  10.749 -0.8720  0.3273  0.3316
  764MOL0     O 5342   2.318   5.404  10.437  0.4812 -0.5753  0.1072
  764MOL0     C 5343   2.538   5.369  10.268 -0.7900 -0.1147  0.1915
  764MOL0     C 5344   2.624   5.376  10.171 -0.4732 -0.0047  0.8040
  764MOL0     N 5345   3.205   5.512   9.599  0.6166  0.2755  0.3335
  764MOL0     N 5346   3.241   5.426   9.510  0.6625  0.1962  0.3967
  764MOL0     C 5347   4.184   4.906   8.943  0.3008 -0.2330 -0.8431
  764MOL0     C 5348   4.307   4.908   8.882  0.0270  0.4544  1.0391
  764MOL0     C 5349   4.681   5.064   8.656  0.4141  0.6375  1.0712
  764MOL0     C 5350   4.738   4.948   8.720 -0.2117 -0.6721  0.3258
  764MOL0     C 5351   4.870   4.917   8.705 -1.0174 -0.7423 -0.4741
  764MOL0     C 5352   4.952   4.990   8.624 -0.1793  0.2064 -0.0059
  764MOL0     O 5353   5.083   4.962   8.594 -0.7818  0.9662 -0.1217
  764MOL0     C 5354   5.120   4.827   8.568  0.6538 -0.5551 -0.3047
  764MOL0     C 5355   5.271   4.804   8.575  0.8082  0.2680  1.1026
  764MOL0     C 5356   5.340   4.891   8.461  0.9228 -0.5505  0.3026
  764MOL0     C 5357   5.306   4.848   8.318  0.2958  0.8249  1.1071
  764MOL0     C 5358   5.381   4.930   8.223  0.3121 -0.5677  0.9492
  764MOL0     C 5359   5.426   4.997   8.131  0.9520 -0.4227  0.1257
  764MOL0     C 5360   4.904   5.101   8.564  0.9697 -0.6131  0.4728
  764MOL0     C 5361   4.773   5.145   8.583 -0.1322 -0.8017 -0.6254
  764MOL0     C 5362   4.747   5.283   8.529 -0.3757  0.4622 -0.1599
  764MOL0     H 5363   4.221   5.090   8.612 -0.5187 -0.8823 -0.1406
  764MOL0     H 5364   4.003   5.085   8.730 -2.1791 -3.7434 -1.8109
  764MOL0     H 5365   3.777   5.068   8.965 -0.3002  0.3142  0.9995
  764MOL0     H 5366   3.911   5.180   8.921  0.2457  1.9083  2.6000
  764MOL0     H 5367   3.891   5.051   9.188  1.8476 -0.0172  1.9758
  764MOL0     H 5368   4.020   5.161   9.119 -1.2918 -0.2954 -0.4365
  764MOL0     H 5369   3.881   5.318   9.244 -1.9912  2.1130  0.4826
  764MOL0     H 5370   3.830   5.321   9.073 -1.1354 -1.5454 -1.2584
  764MOL0     H 5371   3.636   5.312   9.193  0.7496  0.5568 -0.7348
  764MOL0     H 5372   3.653   5.135   9.151 -0.6661  0.5051 -0.8721
  764MOL0     H 5373   3.772   5.201   9.416 -0.2535  1.2276 -0.0568
  764MOL0     H 5374   3.681   5.065   9.364  3.3906  0.5524  2.6533
  764MOL0     H 5375   3.594   5.204   9.546 -3.2196 -0.0252  0.9817
  764MOL0     H 5376   3.585   5.349   9.444 -0.9962  1.1462  2.2385
  764MOL0     H 5377   3.436   5.099   9.350  1.2149  0.8563 -1.8479
  764MOL0     H 5378   3.394   5.269   9.325  0.2373  2.0317  2.6571
  764MOL0     H 5379   3.225   5.161   9.439  0.3574 -1.1013 -0.6388
  764MOL0     H 5380   3.333   5.103   9.570  2.3523 -0.4983  0.0522
  764MOL0     H 5381   3.269   5.266   9.793 -1.6773  0.4245  1.8839
  764MOL0     H 5382   3.198   5.637   9.828 -2.0430  0.1012  3.7578
  764MOL0     H 5383   3.253   5.505   9.921  1.2152 -0.3640 -0.4562
  764MOL0     H 5384   3.012   5.587   9.959  4.8642  0.0616 -0.0365
  764MOL0     H 5385   2.975   5.500   9.807 -1.0252  1.6501 -0.1368
  764MOL0     H 5386   3.046   5.278   9.903  1.1215 -1.1782  0.6108
  764MOL0     H 5387   3.107   5.352  10.048  0.3955  0.5621 -0.2436
  764MOL0     H 5388   2.812   5.329   9.954 -0.1470  1.4436 -1.6086
  764MOL0     H 5389   2.881   5.245  10.094  1.2488  1.0267  1.5485
  764MOL0     H 5390   2.843   5.568  10.360  0.4917  0.5686 -2.0300
  764MOL0     H 5391   2.606   5.643  10.581 -0.6726 -0.6478  1.2792
  764MOL0     H 5392   2.782   5.604  10.563  1.8217 -2.2492  1.0417
  764MOL0     H 5393   2.684   5.495  10.641  0.0834  1.9417  1.5410
  764MOL0     H 5394   2.375   5.191  10.690  1.1376  0.6433  2.8070
  764MOL0     H 5395   2.204   5.136  10.864 -1.2198  0.4791  3.1276
  764MOL0     H 5396   2.126   5.249  11.125  0.6693  1.7068  2.9852
  764MOL0     H 5397   2.135   5.422  11.112  1.2280 -1.4423  3.0401
  764MOL0     H 5398   1.865   5.422  11.146  1.3522  1.9124  2.0499
  764MOL0     H 5399   1.895   5.253  11.199  1.8943 -1.2314 -2.1785
  764MOL0     H 5400   2.051   5.463  11.349 -0.8643  0.9721  0.6864
  764MOL0     H 5401   2.022   5.291  11.372  1.0861  1.1299 -1.4299
  764MOL0     H 5402   1.890   5.436  11.530  1.0823  0.6781 -0.6837
  764MOL0     H 5403   1.779   5.350  11.408  0.8816 -1.4941  1.1017
  764MOL0     H 5404   1.768   5.557  11.286 -0.8745  1.4547  0.4959
  764MOL0     H 5405   1.700   5.559  11.448  1.9323  4.1387  0.3169
  764MOL0     H 5406   1.952   5.677  11.486 -1.7997  0.3419  1.5066
  764MOL0     H 5407   1.797   5.770  11.460  1.8954  1.3578  0.2432
  764MOL0     H 5408   1.829   5.806  11.248 -0.6237 -2.9604  1.0077
  764MOL0     H 5409   1.944   5.677  11.219  0.4424  0.6030  0.1980
  764MOL0     H 5410   2.131   5.822  11.289 -0.8316 -1.4944 -3.5427
  764MOL0     H 5411   1.999   5.889  11.402 -4.0442 -1.3103 -1.5059
  764MOL0     H 5412   2.097   5.551  10.876  2.1056  2.4924 -0.4251
  764MOL0     H 5413   2.261   5.606  10.719 -3.1300  0.1241 -1.2008
  764MOL0     H 5414   2.453   5.307  10.241 -0.4844 -0.1151 -0.8148
  764MOL0     H 5415   2.604   5.320  10.080  3.8587 -1.2900  0.3848
  764MOL0     H 5416   4.185   4.856   9.040 -2.5309  0.9826 -0.0850
  764MOL0     H 5417   4.378   4.854   8.942  1.7887 -0.3053 -1.5505
  764MOL0     H 5418   4.674   4.882   8.777  0.3743 -2.0128 -0.5102
  764MOL0     H 5419   4.906   4.832   8.762 -1.8341 -1.1668 -0.5771
  764MOL0     H 5420   5.067   4.761   8.638 -2.5912  2.7043  0.6244
  764MOL0     H 5421   5.085   4.798   8.469  0.1073  1.3640 -0.7205
  764MOL0     H 5422   5.300   4.699   8.573  1.1418  0.3621  0.8111
  764MOL0     H 5423   5.303   4.831   8.676  1.3245  0.5180  0.8739
  764MOL0     H 5424   5.298   4.992   8.467  1.3678 -0.0790 -2.6682
  764MOL0     H 5425   5.449   4.894   8.473  0.7110 -0.6116  2.7143
  764MOL0     H 5426   5.199   4.872   8.311  0.5695  3.0954  3.1085
  764MOL0     H 5427   5.325   4.741   8.304  5.1455  1.7920 -2.3731
  764MOL0     H 5428   5.464   5.063   8.056 -0.3125  0.5201  0.2819
  764MOL0     H 5429   4.971   5.156   8.497  1.3618  0.2859  1.5692
  764MOL0     H 5430   4.837   5.330   8.488 -0.5578  0.7131 -0.2726
  764MOL0     H 5431   4.665   5.261   8.460 -1.6706 -0.8479  1.7183
  764MOL0     H 5432   4.708   5.357   8.599  2.4433  0.3064  1.7192
  765MOL0     O 5433   5.962   3.366   5.149  0.0392  0.9619  0.2869
  765MOL0     C 5434   5.948   3.390   5.028  0.6432 -0.2586 -0.8246
  765MOL0     O 5435   6.031   3.471   4.956 -0.0813  0.4832 -0.0257
  765MOL0     C 5436   6.096   3.579   5.002  0.2992 -0.3461  0.2084
  765MOL0     C 5437   6.053   3.643   5.117 -0.3718 -0.0050  0.7509
  765MOL0     C 5438   6.112   3.765   5.159 -0.2310  0.3097 -0.0821
  765MOL0     C 5439   6.205   3.828   5.077  0.7190 -0.5875  0.6749
  765MOL0     O 5440   6.259   3.955   5.091  0.1824  0.3281 -0.6816
  765MOL0     C 5441   6.266   4.021   5.216 -0.1970  0.1241  0.7362
  765MOL0     C 5442   6.353   4.143   5.189  0.7981 -0.2587 -0.8114
  765MOL0     C 5443   6.489   4.121   5.135 -0.3424 -0.2341 -1.1023
  765MOL0     C 5444   6.589   4.017   5.214 -0.7722 -0.4898 -0.7637
  765MOL0     C 5445   6.585   4.030   5.371  0.2127  0.0236 -1.4681
  765MOL0     C 5446   6.665   3.911   5.443  0.1882  0.1153  0.4865
  765MOL0     C 5447   6.601   3.777   5.444 -0.7043  0.3325  0.6789
  765MOL0     C 5448   6.501   3.761   5.558  0.7711 -0.0277  0.5843
  765MOL0     N 5449   6.401   3.668   5.525  0.8013 -0.9063  0.0580
  765MOL0     C 5450   6.418   3.537   5.526  1.0089 -0.2929  0.5927
  765MOL0     C 5451   6.291   3.487   5.514  0.4516  0.1488  0.2159
  765MOL0     C 5452   6.258   3.335   5.510  0.0286  0.1694  0.4432
  765MOL0     C 5453   6.221   3.288   5.647 -0.1613 -0.4852 -0.4073
  765MOL0     C 5454   6.188   3.136   5.648 -0.0008  0.3395  0.0175
  765MOL0     C 5455   6.073   3.078   5.564  0.5940 -1.5396  0.7026
  765MOL0     O 5456   6.010   2.962   5.616  0.8034 -0.0063  0.3836
  765MOL0     C 5457   5.881   2.927   5.583 -0.6304 -0.0376 -0.2112
  765MOL0     C 5458   5.805   2.847   5.680  0.3576 -0.1168  1.0426
  765MOL0     C 5459   5.671   2.804   5.662 -0.1111 -0.2184  0.4818
  765MOL0     C 5460   5.604   2.718   5.768 -0.4732 -0.4811  0.5837
  765MOL0     C 5461   5.611   2.834   5.542 -0.9419 -0.4389  0.1455
  765MOL0     C 5462   5.481   2.786   5.496  0.5853  0.1825  0.3476
  765MOL0     O 5463   5.422   2.869   5.406  0.4121  0.5237  0.2967
  765MOL0     C 5464   5.307   2.837   5.340  0.1975 -0.1418 -0.6961
  765MOL0     C 5465   5.312   2.835   5.201  0.1966  0.0281  0.3265
  765MOL0     C 5466   5.192   2.794   5.126 -0.0247 -0.2127 -0.2045
  765MOL0     C 5467   5.086   2.750   5.203 -0.1785  0.9324  1.3753
  765MOL0     O 5468   4.963   2.704   5.149  0.3283 -0.1150 -0.3690
  765MOL0     C 5469   4.906   2.804   5.066  0.1674  0.1481 -0.2605
  765MOL0     C 5470   4.757   2.821   5.105  0.8085  0.9025  0.6707
  765MOL0     C 5471   4.675   2.709   5.041 -0.1625 -0.0225  0.1971
  765MOL0     C 5472   4.558   2.688   5.132  0.0414  0.1962 -0.4745
  765MOL0     C 5473   4.442   2.610   5.074  0.0609 -0.9077 -0.1687
  765MOL0     C 5474   4.344   2.551   5.172 -0.2341  0.5015 -1.2110
  765MOL0     C 5475   4.403   2.424   5.249 -0.7616  0.7175  0.0350
  765MOL0     C 5476   4.318   2.296   5.217  0.2507  0.2376 -0.4801
  765MOL0    Cl 5477   4.159   2.308   5.319 -0.5257  0.6405  0.3575
  765MOL0     C 5478   5.082   2.745   5.338  0.5251 -0.9522 -0.4189
  765MOL0     C 5479   5.193   2.797   5.405  0.1619  0.4163  0.5802
  765MOL0     O 5480   5.429   2.682   5.536 -0.6920 -0.1656 -0.1620
  765MOL0     C 5481   5.687   2.913   5.441 -0.6374 -0.0536 -0.3346
  765MOL0     C 5482   5.826   2.952   5.463  0.5181  0.7696  0.5437
  765MOL0     N 5483   6.204   3.595   5.507 -0.0568 -0.1925  0.3326
  765MOL0     N 5484   6.269   3.706   5.517 -0.3477 -0.2329 -0.0627
  765MOL0     C 5485   6.249   3.769   4.968 -0.0360  0.2728  0.6794
  765MOL0     C 5486   6.199   3.646   4.925 -0.0948  0.1497 -0.0769
  765MOL0     C 5487   5.844   3.312   4.947  0.1172 -0.6537 -0.4106
  765MOL0     C 5488   5.859   3.316   4.805 -0.8897  0.6440 -0.5616
  765MOL0     C 5489   5.774   3.244   4.724 -0.8786  1.0508 -0.6983
  765MOL0     C 5490   5.677   3.151   4.784 -0.6662 -0.0890  0.1148
  765MOL0     O 5491   5.601   3.061   4.712  0.4426 -0.3247  0.6534
  765MOL0     C 5492   5.603   3.039   4.560  0.3538  0.0360 -0.0799
  765MOL0     C 5493   5.481   2.955   4.505  0.6348  0.5870 -0.4520
  765MOL0     C 5494   5.439   2.991   4.354 -0.3224 -0.2981 -0.1911
  765MOL0     C 5495   5.282   3.001   4.340  1.0545 -0.1244  0.2454
  765MOL0     C 5496   5.239   2.858   4.329 -0.1770 -0.0074 -0.2610
  765MOL0     C 5497   5.206   2.745   4.319  0.2136 -0.5583 -0.3322
  765MOL0     C 5498   5.653   3.149   4.919  0.2379 -1.0802  0.6117
  765MOL0     C 5499   5.736   3.234   5.002 -0.6865  0.4862  0.7377
  765MOL0     C 5500   5.691   3.249   5.135 -0.5692  0.3914  0.0006
  765MOL0     H 5501   5.982   3.597   5.185 -1.0158 -1.5697 -0.9022
  765MOL0     H 5502   6.074   3.815   5.248 -0.9439  1.3727 -0.9646
  765MOL0     H 5503   6.313   3.955   5.289 -1.6684 -1.1800  0.5692
  765MOL0     H 5504   6.165   4.055   5.244  0.2607  2.6289 -0.3341
  765MOL0     H 5505   6.309   4.219   5.124  0.5295  1.1377  0.9355
  765MOL0     H 5506   6.364   4.197   5.283  0.6427 -1.0811 -0.3087
  765MOL0     H 5507   6.475   4.084   5.033  1.0818  2.2471 -2.2880
  765MOL0     H 5508   6.536   4.219   5.118 -1.7933  0.8550  0.7652
  765MOL0     H 5509   6.558   3.916   5.185 -1.3088 -0.2032 -1.2178
  765MOL0     H 5510   6.692   4.022   5.180 -0.6805 -2.7999 -0.9773
  765MOL0     H 5511   6.487   4.016   5.418  0.6353 -0.7636 -0.7921
  765MOL0     H 5512   6.623   4.126   5.410 -0.4849 -0.0262 -0.6320
  765MOL0     H 5513   6.762   3.909   5.393  1.3711 -0.0501  2.6861
  765MOL0     H 5514   6.698   3.941   5.542  4.4572 -0.4153 -0.5989
  765MOL0     H 5515   6.681   3.705   5.461 -1.3870 -0.6345 -0.0786
  765MOL0     H 5516   6.562   3.758   5.344  2.6821  0.1375 -0.7281
  765MOL0     H 5517   6.548   3.724   5.649 -0.0743 -1.2705  0.5386
  765MOL0     H 5518   6.452   3.857   5.576 -1.3759 -0.9140 -0.1510
  765MOL0     H 5519   6.502   3.474   5.553  0.4195  0.0740  3.5771
  765MOL0     H 5520   6.343   3.281   5.466  2.3939  2.9503  1.3159
  765MOL0     H 5521   6.174   3.321   5.440 -0.1533 -1.1496  0.8908
  765MOL0     H 5522   6.296   3.304   5.725  1.4838 -3.2656 -1.2828
  765MOL0     H 5523   6.139   3.353   5.679  1.3982  0.8395  1.1268
  765MOL0     H 5524   6.285   3.086   5.636  1.7686  2.4445  3.6472
  765MOL0     H 5525   6.158   3.130   5.754  0.3006 -1.6526  0.0403
  765MOL0     H 5526   5.995   3.153   5.547  1.7025 -0.2047  1.3636
  765MOL0     H 5527   6.107   3.053   5.463 -4.4299  1.1801 -2.0501
  765MOL0     H 5528   5.853   2.823   5.774  0.4922  1.8457  1.5216
  765MOL0     H 5529   5.522   2.773   5.815 -0.7067  0.0478 -0.4173
  765MOL0     H 5530   5.673   2.702   5.851 -1.6359  0.4420  1.7635
  765MOL0     H 5531   5.572   2.623   5.722  2.0357 -1.9652  1.6443
  765MOL0     H 5532   5.404   2.853   5.147 -0.3895 -0.4091 -0.8527
  765MOL0     H 5533   5.180   2.790   5.018  2.5807  2.1986 -0.6974
  765MOL0     H 5534   4.947   2.904   5.081  1.3982 -0.6526  2.4862
  765MOL0     H 5535   4.911   2.758   4.967 -1.1167 -1.6233  0.4366
  765MOL0     H 5536   4.744   2.820   5.214 -2.1418 -0.1656  0.3961
  765MOL0     H 5537   4.715   2.911   5.060 -2.0573 -0.7506 -0.2370
  765MOL0     H 5538   4.735   2.619   5.025 -0.8195 -0.3247 -0.5905
  765MOL0     H 5539   4.653   2.737   4.938  0.7162  1.6275  0.4240
  765MOL0     H 5540   4.524   2.785   5.169  2.7037  1.3916 -0.9856
  765MOL0     H 5541   4.605   2.637   5.216  1.8620  0.4652 -1.2933
  765MOL0     H 5542   4.395   2.687   5.012 -0.2424  0.5520  1.7673
  765MOL0     H 5543   4.476   2.524   5.017 -0.4615 -0.6267 -0.9118
  765MOL0     H 5544   4.253   2.509   5.128  1.1161 -2.4671 -1.4524
  765MOL0     H 5545   4.319   2.631   5.242 -0.1297  0.0485 -0.6472
  765MOL0     H 5546   4.413   2.440   5.356  0.9781  1.2000 -0.1643
  765MOL0     H 5547   4.508   2.411   5.218 -0.1797 -0.4527  2.2905
  765MOL0     H 5548   4.378   2.205   5.215 -2.1163 -1.4861 -3.7582
  765MOL0     H 5549   4.288   2.293   5.111  3.8740  3.0355 -1.7897
  765MOL0     H 5550   4.996   2.720   5.399 -0.6757  0.4165 -1.4973
  765MOL0     H 5551   5.189   2.813   5.513  0.8331 -0.0548  0.6789
  765MOL0     H 5552   5.646   2.934   5.343 -3.1929  1.8511  1.0131
  765MOL0     H 5553   5.872   3.012   5.384 -0.5080  2.6435  1.2946
  765MOL0     H 5554   6.317   3.810   4.894  0.3812 -2.5650 -0.6509
  765MOL0     H 5555   6.225   3.607   4.827 -1.5450 -2.0762  0.3473
  765MOL0     H 5556   5.946   3.367   4.764  0.1793 -1.6410 -1.3357
  765MOL0     H 5557   5.805   3.237   4.621  1.3893 -1.9743  0.0719
  765MOL0     H 5558   5.580   3.139   4.524  0.4925 -0.6941 -2.3918
  765MOL0     H 5559   5.705   3.016   4.529  1.5653  1.8586  2.2810
  765MOL0     H 5560   5.407   2.975   4.583  2.2784  0.6419  1.1588
  765MOL0     H 5561   5.507   2.849   4.504 -1.0995  0.1096  0.5629
  765MOL0     H 5562   5.486   3.086   4.328  0.7342  0.0307  2.5951
  765MOL0     H 5563   5.476   2.915   4.285  0.9040 -0.4148  0.5627
  765MOL0     H 5564   5.242   3.061   4.258 -2.1162 -1.7719  0.4288
  765MOL0     H 5565   5.242   3.044   4.432 -0.7180 -1.1484 -0.0077
  765MOL0     H 5566   5.153   2.652   4.310  1.0161 -0.9165 -1.7334
  765MOL0     H 5567   5.586   3.072   4.955 -0.3187 -1.4555 -1.1667
  765MOL0     H 5568   5.593   3.206   5.157  0.0227 -0.6961  0.6328
  765MOL0     H 5569   5.758   3.183   5.192 -0.7752 -0.9005 -1.1838
  765MOL0     H 5570   5.692   3.353   5.167  0.3033  0.0390  1.2296
  766MOL0     O 5571   9.097   5.840   2.199 -0.3405  0.0894  0.0719
  766MOL0     C 5572   9.201   5.889   2.243  0.9136 -0.4272  0.1531
  766MOL0     O 5573   9.279   5.975   2.178  0.1358  0.9616 -0.3317
  766MOL0     C 5574   9.276   5.983   2.040  0.7815  0.6342 -0.3481
  766MOL0     C 5575   9.340   6.092   1.994  0.6619  0.5398 -0.4746
  766MOL0     C 5576   9.362   6.118   1.865 -0.1393 -0.1242 -0.3082
  766MOL0     C 5577   9.309   6.037   1.765 -0.6637 -0.0355 -0.4735
  766MOL0     O 5578   9.312   6.070   1.634 -0.7220 -0.2846 -0.5769
  766MOL0     C 5579   9.437   6.123   1.581 -0.1240  0.2432 -1.1674
  766MOL0     C 5580   9.473   6.043   1.456  0.2132 -0.5546  0.1218
  766MOL0     C 5581   9.580   6.121   1.378 -0.3848  1.1569 -0.9626
  766MOL0     C 5582   9.604   6.026   1.254  0.4840 -0.1132 -0.1042
  766MOL0     C 5583   9.702   6.097   1.161 -0.5345 -0.6143  0.1561
  766MOL0     C 5584   9.627   6.190   1.061 -0.9164 -0.4218 -0.5084
  766MOL0     C 5585   9.691   6.219   0.935 -0.6859  0.1616  0.8343
  766MOL0     C 5586   9.597   6.306   0.853  0.4630 -0.2565  0.1886
  766MOL0     N 5587   9.464   6.250   0.819 -0.5540  0.5309  0.4940
  766MOL0     C 5588   9.448   6.139   0.740  0.5380  0.2191  0.5269
  766MOL0     C 5589   9.320   6.111   0.733 -0.5054 -0.7392 -0.4547
  766MOL0     C 5590   9.276   5.979   0.670 -0.5778 -0.3718 -0.4560
  766MOL0     C 5591   9.226   5.892   0.784 -0.1768 -0.8830  0.9415
  766MOL0     C 5592   9.332   5.856   0.890 -0.4791  0.3484  0.3615
  766MOL0     C 5593   9.271   5.764   0.990  0.1856 -0.6867 -0.6133
  766MOL0     O 5594   9.317   5.776   1.122 -1.0967  0.6816 -0.6744
  766MOL0     C 5595   9.287   5.687   1.223 -0.7516 -0.2203  0.8860
  766MOL0     C 5596   9.337   5.723   1.345 -0.7800  0.4789  0.1896
  766MOL0     C 5597   9.304   5.658   1.459 -0.4647  0.0381  1.0248
  766MOL0     C 5598   9.383   5.685   1.574  0.5779 -0.3527 -1.2876
  766MOL0     C 5599   9.221   5.543   1.445  0.2370 -0.1899 -0.0575
  766MOL0     C 5600   9.186   5.455   1.563  0.4597  0.4315 -1.1599
  766MOL0     O 5601   9.167   5.325   1.535 -0.1004 -0.3149 -0.2743
  766MOL0     C 5602   9.063   5.252   1.584 -0.9805 -0.4953 -0.4081
  766MOL0     C 5603   8.965   5.301   1.678 -0.3777  0.7707  0.1064
  766MOL0     C 5604   8.888   5.208   1.733 -0.5313  0.1916 -0.0530
  766MOL0     C 5605   8.901   5.068   1.713  0.8014 -0.2258  0.4851
  766MOL0     O 5606   8.802   4.987   1.774 -0.0956 -0.2498  0.2425
  766MOL0     C 5607   8.814   4.844   1.761  1.1791  0.5921 -0.5117
  766MOL0     C 5608   8.822   4.771   1.895 -0.4179  0.3451 -0.3818
  766MOL0     C 5609   8.822   4.619   1.881  0.2170 -0.8874 -0.2175
  766MOL0     C 5610   8.851   4.548   2.013 -0.2224  0.6934 -0.5531
  766MOL0     C 5611   8.743   4.543   2.119 -0.0306  0.5009 -0.2559
  766MOL0     C 5612   8.793   4.528   2.261  0.7764 -0.8206 -0.6497
  766MOL0     C 5613   8.870   4.395   2.295  0.2544  0.2184 -0.6880
  766MOL0     C 5614   8.929   4.386   2.437  0.3570  0.1987  0.2006
  766MOL0    Cl 5615   9.058   4.262   2.424 -0.1034 -0.1474 -0.3172
  766MOL0     C 5616   8.993   5.027   1.617  0.6517 -0.4839 -0.2468
  766MOL0     C 5617   9.075   5.116   1.558 -0.4578 -0.2086  0.1948
  766MOL0     O 5618   9.163   5.503   1.678  0.0608  0.3382  0.1632
  766MOL0     C 5619   9.181   5.505   1.321 -0.2637 -0.9859  0.2846
  766MOL0     C 5620   9.226   5.567   1.204  0.1902  0.2781  0.5362
  766MOL0     N 5621   9.249   6.200   0.817 -0.0094  0.6694  0.5589
  766MOL0     N 5622   9.339   6.282   0.859 -0.1468 -0.0821  0.2699
  766MOL0     C 5623   9.230   5.925   1.804  0.8827 -0.2795 -0.2492
  766MOL0     C 5624   9.215   5.896   1.942 -1.2932 -0.3705 -0.3213
  766MOL0     C 5625   9.229   5.860   2.389 -0.7127  0.3744  0.5038
  766MOL0     C 5626   9.337   5.930   2.455  0.6359 -0.2190 -0.2518
  766MOL0     C 5627   9.365   5.914   2.589 -0.6736 -0.5435 -0.6853
  766MOL0     C 5628   9.280   5.830   2.667  0.2942 -0.5817 -0.6382
  766MOL0     O 5629   9.297   5.813   2.805  0.5285 -0.6234  0.6765
  766MOL0     C 5630   9.336   5.921   2.892 -1.0212  0.6370  0.4006
  766MOL0     C 5631   9.216   6.013   2.909 -0.4741  0.5317 -0.4739
  766MOL0     C 5632   9.129   5.997   3.033 -0.0386  0.1047  0.1567
  766MOL0     C 5633   9.021   6.103   3.030 -0.2318 -0.5683 -0.3411
  766MOL0     C 5634   8.934   6.067   3.146  0.6058  0.0481  0.4693
  766MOL0     C 5635   8.848   6.026   3.222  0.3204 -0.0827  0.2926
  766MOL0     C 5636   9.197   5.747   2.608  0.9514  0.0885  0.0959
  766MOL0     C 5637   9.164   5.753   2.468 -0.8139 -1.4603  0.5872
  766MOL0     C 5638   9.040   5.674   2.429 -0.2127  0.6915  0.3118
  766MOL0     H 5639   9.374   6.160   2.072  0.2715  1.8564 -1.4199
  766MOL0     H 5640   9.401   6.214   1.833 -2.8277  0.9727 -0.5876
  766MOL0     H 5641   9.510   6.104   1.660 -0.0518 -2.9540 -1.8750
  766MOL0     H 5642   9.446   6.232   1.572 -0.4083  1.2465  5.5216
  766MOL0     H 5643   9.505   5.948   1.498  3.5804  0.4930  0.2429
  766MOL0     H 5644   9.385   6.036   1.391 -3.5577  2.2218  4.2981
  766MOL0     H 5645   9.559   6.223   1.343 -0.4818  1.5089  0.0799
  766MOL0     H 5646   9.675   6.131   1.433 -0.1343  0.7579 -1.3166
  766MOL0     H 5647   9.640   5.938   1.307 -1.6086 -0.5468  0.6831
  766MOL0     H 5648   9.517   6.004   1.192  2.0909  0.1281 -2.5939
  766MOL0     H 5649   9.753   6.015   1.109 -2.6440 -1.0025 -1.4219
  766MOL0     H 5650   9.771   6.146   1.230 -1.6167 -2.1112  2.4350
  766MOL0     H 5651   9.539   6.129   1.040 -1.4698  0.4009 -0.6578
  766MOL0     H 5652   9.604   6.278   1.122 -2.8113 -1.3738  0.2493
  766MOL0     H 5653   9.719   6.129   0.881 -1.1811  0.8225 -0.5765
  766MOL0     H 5654   9.780   6.277   0.960  0.0747 -1.3866  1.8528
  766MOL0     H 5655   9.579   6.391   0.918 -0.0119  2.7825 -3.5564
  766MOL0     H 5656   9.652   6.334   0.762  1.5796  0.2416  1.0044
  766MOL0     H 5657   9.522   6.086   0.681  2.0069  3.7798 -1.1538
  766MOL0     H 5658   9.366   5.927   0.635 -0.2082  1.8027 -3.0300
  766MOL0     H 5659   9.205   5.989   0.588  0.4389 -1.2691 -1.4721
  766MOL0     H 5660   9.150   5.942   0.843  0.1860  2.5453 -1.2502
  766MOL0     H 5661   9.190   5.796   0.743 -3.4436  0.0709  1.3143
  766MOL0     H 5662   9.411   5.798   0.841 -1.3295 -0.9784  0.5129
  766MOL0     H 5663   9.372   5.947   0.935 -1.7990  2.0525 -1.7168
  766MOL0     H 5664   9.164   5.786   0.988  0.5771  1.3935 -0.5764
  766MOL0     H 5665   9.275   5.661   0.952 -2.6784 -1.2656  0.3782
  766MOL0     H 5666   9.400   5.811   1.345  0.8837 -0.4120  4.7769
  766MOL0     H 5667   9.333   5.732   1.659  0.1629 -2.8942 -0.0096
  766MOL0     H 5668   9.468   5.746   1.543 -0.8783  1.7080 -1.3851
  766MOL0     H 5669   9.418   5.587   1.608 -2.8953 -1.7627 -1.2936
  766MOL0     H 5670   8.963   5.404   1.713  3.0441  0.5204  1.4195
  766MOL0     H 5671   8.809   5.231   1.805 -3.3829 -2.2795 -2.0986
  766MOL0     H 5672   8.727   4.813   1.703  3.0913 -2.0963 -2.1594
  766MOL0     H 5673   8.905   4.822   1.704  0.7694  5.0589 -3.3527
  766MOL0     H 5674   8.913   4.808   1.944 -0.8080  1.1828 -0.2632
  766MOL0     H 5675   8.732   4.805   1.947  0.5358  3.3531 -0.4820
  766MOL0     H 5676   8.905   4.588   1.817  0.5579  2.2931 -1.4831
  766MOL0     H 5677   8.723   4.592   1.843 -0.0532 -0.8184  0.4242
  766MOL0     H 5678   8.940   4.590   2.062  0.7824 -2.2504  0.4084
  766MOL0     H 5679   8.877   4.448   1.977 -1.1400  0.3216 -0.2147
  766MOL0     H 5680   8.673   4.625   2.097 -4.3069 -2.4692  0.9655
  766MOL0     H 5681   8.682   4.455   2.095  3.8666 -1.5547 -3.8798
  766MOL0     H 5682   8.713   4.526   2.336  0.9409 -1.3524 -0.4856
  766MOL0     H 5683   8.864   4.607   2.285 -0.4082  0.2648 -0.6207
  766MOL0     H 5684   8.953   4.382   2.225  1.2198 -0.3729  0.5243
  766MOL0     H 5685   8.808   4.308   2.271  1.6193 -0.6652 -1.1800
  766MOL0     H 5686   8.850   4.347   2.502  0.3903 -3.1118 -1.5175
  766MOL0     H 5687   8.956   4.480   2.486 -1.8160  0.9110  0.1317
  766MOL0     H 5688   8.990   4.925   1.579  0.8233 -0.5505 -0.0762
  766MOL0     H 5689   9.140   5.081   1.479 -1.9898 -0.6554 -0.9028
  766MOL0     H 5690   9.111   5.423   1.304  0.5634 -1.1345 -3.1963
  766MOL0     H 5691   9.195   5.530   1.107  4.1145  1.4737 -1.3667
  766MOL0     H 5692   9.175   5.867   1.731 -0.9013 -1.6289  2.0312
  766MOL0     H 5693   9.158   5.810   1.973  0.7004 -0.4029  3.9024
  766MOL0     H 5694   9.400   5.997   2.399 -0.0141 -1.0024 -2.0058
  766MOL0     H 5695   9.447   5.967   2.636 -1.1761  1.2898 -1.7977
  766MOL0     H 5696   9.366   5.892   2.993 -4.2364  1.8617  1.8383
  766MOL0     H 5697   9.410   5.980   2.837  0.4029  0.1262  1.6922
  766MOL0     H 5698   9.153   6.010   2.820 -0.0116 -0.3816 -0.7772
  766MOL0     H 5699   9.253   6.116   2.914  3.1333 -0.6841  1.4662
  766MOL0     H 5700   9.082   5.898   3.041  0.5169 -0.2124 -0.4085
  766MOL0     H 5701   9.193   5.996   3.121 -1.2528 -0.5818  1.0752
  766MOL0     H 5702   8.956   6.090   2.942 -0.8114 -1.9288  0.2536
  766MOL0     H 5703   9.067   6.202   3.024 -0.3684 -0.5760 -2.2923
  766MOL0     H 5704   8.792   5.985   3.303 -0.1478  0.0345  0.0314
  766MOL0     H 5705   9.150   5.679   2.678  3.7340  0.0494  2.0799
  766MOL0     H 5706   8.966   5.744   2.389  1.3020  1.3615 -1.4400
  766MOL0     H 5707   9.062   5.588   2.365 -0.3088  1.1007 -0.2823
  766MOL0     H 5708   9.000   5.622   2.517  1.4944 -0.8455  0.2434
  767MOL0     O 5709   6.357   8.012   7.381 -1.0591 -0.0310 -0.1637
  767MOL0     C 5710   6.291   7.990   7.482  0.3074 -0.0769 -0.5514
  767MOL0     O 5711   6.211   7.875   7.496 -0.4668 -1.1366 -0.1553
  767MOL0     C 5712   6.192   7.789   7.393 -0.3422  0.1985 -0.0103
  767MOL0     C 5713   6.271   7.770   7.276  0.9682 -0.4378 -0.3663
  767MOL0     C 5714   6.228   7.682   7.177  0.6720  0.7527 -0.2303
  767MOL0     C 5715   6.121   7.599   7.192  0.5549  0.6573  0.3131
  767MOL0     O 5716   6.113   7.491   7.102  0.5922  0.2792  0.0885
  767MOL0     C 5717   5.999   7.402   7.111  0.7265  0.5513 -0.3956
  767MOL0     C 5718   6.038   7.271   7.044  0.1173  0.7573 -0.0287
  767MOL0     C 5719   5.951   7.146   7.080 -0.2945 -0.2955  0.2084
  767MOL0     C 5720   5.993   7.020   7.009 -0.5065  0.3431 -0.5033
  767MOL0     C 5721   6.090   6.932   7.083 -0.1474  0.2086 -0.4645
  767MOL0     C 5722   6.026   6.887   7.220  0.2423  1.1713  0.6300
  767MOL0     C 5723   6.130   6.791   7.286 -0.8509 -0.6187  0.1732
  767MOL0     C 5724   6.058   6.712   7.388  0.0547 -0.7494 -0.8371
  767MOL0     N 5725   6.138   6.612   7.453  0.7410 -0.3925 -0.5881
  767MOL0     C 5726   6.194   6.505   7.388  0.3077  0.2660 -0.2511
  767MOL0     C 5727   6.266   6.445   7.489  1.2959 -0.4582 -0.3967
  767MOL0     C 5728   6.337   6.310   7.475 -0.1261 -0.3278  0.1745
  767MOL0     C 5729   6.454   6.310   7.569 -0.6342  0.5325 -1.2151
  767MOL0     C 5730   6.428   6.202   7.683  0.4655 -0.7178  0.5805
  767MOL0     C 5731   6.537   6.194   7.786 -0.3217  0.6074  0.7369
  767MOL0     O 5732   6.481   6.132   7.899  0.1369 -0.0231  0.1373
  767MOL0     C 5733   6.553   6.142   8.019  0.4708  0.0931 -0.2061
  767MOL0     C 5734   6.480   6.130   8.140  0.4286 -0.5248 -0.2374
  767MOL0     C 5735   6.544   6.141   8.268  0.2717 -0.2666 -0.3259
  767MOL0     C 5736   6.458   6.108   8.390  0.1131  0.3659 -0.3121
  767MOL0     C 5737   6.681   6.174   8.278  0.4224  0.5562 -1.1834
  767MOL0     C 5738   6.746   6.185   8.411 -0.2129  0.4514 -0.4431
  767MOL0     O 5739   6.695   6.281   8.495 -0.3213 -0.4357 -0.2038
  767MOL0     C 5740   6.748   6.299   8.620  0.0969 -0.5144  0.7621
  767MOL0     C 5741   6.662   6.331   8.725 -0.5113 -0.1323  0.4067
  767MOL0     C 5742   6.711   6.369   8.851  0.3431 -0.1501 -0.1516
  767MOL0     C 5743   6.848   6.384   8.883  1.5428  0.2811  0.8361
  767MOL0     O 5744   6.890   6.434   9.004  0.0925  1.1897  0.1199
  767MOL0     C 5745   7.008   6.517   8.996 -0.1147  0.4240 -0.5206
  767MOL0     C 5746   7.045   6.584   9.120 -0.1371 -0.6975 -0.0632
  767MOL0     C 5747   7.195   6.585   9.149 -0.3849  0.2855 -0.8825
  767MOL0     C 5748   7.239   6.643   9.283 -0.5379  0.2648  1.1648
  767MOL0     C 5749   7.199   6.797   9.288  0.3563 -0.1145 -0.1682
  767MOL0     C 5750   7.268   6.894   9.386 -0.7848  0.3197  0.1320
  767MOL0     C 5751   7.331   6.839   9.519 -0.4132  0.6741 -0.4030
  767MOL0     C 5752   7.218   6.766   9.602  0.0037  0.1596 -0.0403
  767MOL0    Cl 5753   7.281   6.738   9.757  0.2300 -0.0262 -0.0439
  767MOL0     C 5754   6.939   6.334   8.784  0.6065  0.4198  0.3240
  767MOL0     C 5755   6.888   6.296   8.660 -0.0468 -0.1151  0.1161
  767MOL0     O 5756   6.855   6.126   8.420 -0.4686  0.6659  0.3664
  767MOL0     C 5757   6.750   6.195   8.158 -0.4225  0.0103  0.6641
  767MOL0     C 5758   6.680   6.192   8.034 -0.6556 -0.6865 -0.4498
  767MOL0     N 5759   6.268   6.521   7.603 -0.2035 -0.4402  0.2125
  767MOL0     N 5760   6.188   6.619   7.581  1.0902 -0.4800 -0.0632
  767MOL0     C 5761   6.049   7.607   7.313 -0.2020  0.7269 -0.0365
  767MOL0     C 5762   6.084   7.703   7.410 -0.4546 -0.0709 -0.7264
  767MOL0     C 5763   6.291   8.090   7.595  0.9276 -0.4168 -0.0072
  767MOL0     C 5764   6.292   8.229   7.554 -0.2605  0.9896 -0.0722
  767MOL0     C 5765   6.293   8.326   7.654  0.7408 -0.1846  0.2198
  767MOL0     C 5766   6.286   8.299   7.793 -0.3369 -1.0027  0.1390
  767MOL0     O 5767   6.302   8.410   7.878  0.0583  0.1364  0.2612
  767MOL0     C 5768   6.321   8.406   8.018  0.7704  0.5660 -0.5477
  767MOL0     C 5769   6.186   8.371   8.089 -0.4164 -0.1807 -0.7032
  767MOL0     C 5770   6.072   8.473   8.065  0.1493  0.0907  1.3842
  767MOL0     C 5771   6.088   8.603   8.131 -0.3625 -1.1749  0.4886
  767MOL0     C 5772   6.102   8.601   8.275 -0.3559 -0.2544  0.9575
  767MOL0     C 5773   6.120   8.609   8.392  0.4881 -0.1355 -0.2962
  767MOL0     C 5774   6.281   8.168   7.830 -0.0833 -0.1506 -0.0960
  767MOL0     C 5775   6.294   8.061   7.735  0.1721  0.1876  0.0404
  767MOL0     C 5776   6.280   7.924   7.790 -0.2388  0.1585 -0.6961
  767MOL0     H 5777   6.364   7.824   7.260  1.8537 -1.1631  1.9840
  767MOL0     H 5778   6.266   7.673   7.076 -2.0175  0.9121 -1.3334
  767MOL0     H 5779   5.899   7.441   7.090 -0.6085 -1.7262  1.2343
  767MOL0     H 5780   5.989   7.356   7.210 -1.6081 -0.4495 -1.0278
  767MOL0     H 5781   6.042   7.293   6.936  1.5521  1.9678  0.2332
  767MOL0     H 5782   6.140   7.240   7.068 -1.0770 -2.7419  1.0358
  767MOL0     H 5783   5.961   7.130   7.188  2.0557 -2.2347 -0.1911
  767MOL0     H 5784   5.848   7.169   7.053 -1.6140 -3.0823  2.3043
  767MOL0     H 5785   5.898   6.970   6.986  0.1586 -1.2565  0.0691
  767MOL0     H 5786   6.049   7.039   6.918  1.0432 -0.0501  0.3373
  767MOL0     H 5787   6.171   7.003   7.104  0.5227 -0.9950  1.2638
  767MOL0     H 5788   6.130   6.848   7.026 -0.6680  0.1052 -0.6799
  767MOL0     H 5789   6.009   6.969   7.289 -0.0019  1.4591  0.2283
  767MOL0     H 5790   5.926   6.844   7.209  0.6907  0.6923 -3.3579
  767MOL0     H 5791   6.218   6.846   7.322 -1.3537  0.9297 -0.8412
  767MOL0     H 5792   6.162   6.729   7.202 -3.1461  0.1674 -1.3784
  767MOL0     H 5793   6.012   6.775   7.465 -0.6896 -0.5797 -1.4097
  767MOL0     H 5794   5.984   6.666   7.321 -0.2581 -1.0867 -0.2708
  767MOL0     H 5795   6.184   6.459   7.290  2.6073  0.5306 -0.6809
  767MOL0     H 5796   6.373   6.301   7.373  0.6652  0.2249  0.3902
  767MOL0     H 5797   6.268   6.233   7.510 -0.0589  1.5428  5.3985
  767MOL0     H 5798   6.532   6.264   7.506  1.8142 -2.4311  3.3875
  767MOL0     H 5799   6.495   6.406   7.601  2.3627 -1.0126  0.0659
  767MOL0     H 5800   6.334   6.239   7.725  1.8699  3.1294  0.7755
  767MOL0     H 5801   6.405   6.099   7.655  0.6691 -1.2838  2.3727
  767MOL0     H 5802   6.613   6.129   7.741 -2.9489 -1.9202 -0.4794
  767MOL0     H 5803   6.569   6.297   7.804  2.8767  1.0854 -5.1301
  767MOL0     H 5804   6.374   6.106   8.139  0.4898 -0.8504  0.3583
  767MOL0     H 5805   6.472   6.170   8.479 -0.2065  1.5798 -1.0844
  767MOL0     H 5806   6.475   6.004   8.417 -3.2476 -0.3303 -0.4939
  767MOL0     H 5807   6.351   6.119   8.372 -0.5563 -3.2391  0.7303
  767MOL0     H 5808   6.556   6.321   8.705 -0.9406  1.8362  1.4178
  767MOL0     H 5809   6.639   6.396   8.928  0.2875  2.1137 -0.9203
  767MOL0     H 5810   7.097   6.465   8.958  0.8657  3.2525 -2.4785
  767MOL0     H 5811   6.988   6.590   8.918 -4.2655  0.1980  0.1353
  767MOL0     H 5812   7.008   6.685   9.102 -1.4789 -0.9612  1.0078
  767MOL0     H 5813   6.987   6.543   9.204  0.7177  0.8776  1.3671
  767MOL0     H 5814   7.246   6.626   9.061  3.9612  1.5265  1.8891
  767MOL0     H 5815   7.229   6.481   9.156 -0.9983  0.1466  0.3508
  767MOL0     H 5816   7.347   6.628   9.290 -0.1065  2.2429 -0.1605
  767MOL0     H 5817   7.192   6.597   9.370 -2.0676  2.0382  1.3496
  767MOL0     H 5818   7.195   6.839   9.187 -2.2570  0.1318 -0.0326
  767MOL0     H 5819   7.091   6.810   9.302  0.3024 -1.1856  0.5978
  767MOL0     H 5820   7.202   6.978   9.412 -1.0429  0.6072 -1.3587
  767MOL0     H 5821   7.355   6.942   9.340 -1.7282  1.0411 -0.9762
  767MOL0     H 5822   7.366   6.926   9.576 -0.9644  0.1754  0.7147
  767MOL0     H 5823   7.406   6.761   9.502  1.1974  1.1309  3.5234
  767MOL0     H 5824   7.179   6.676   9.554  0.8157 -0.3405  0.2104
  767MOL0     H 5825   7.126   6.824   9.609 -1.2811 -1.9383  1.7068
  767MOL0     H 5826   7.045   6.336   8.808  1.2372 -1.8247 -1.8665
  767MOL0     H 5827   6.952   6.286   8.573 -0.4973 -0.5254 -0.1717
  767MOL0     H 5828   6.856   6.214   8.167 -0.2922 -0.0468 -0.5019
  767MOL0     H 5829   6.736   6.225   7.946 -0.3631  0.3708  0.1174
  767MOL0     H 5830   5.970   7.535   7.333 -1.1923  1.7163 -0.2963
  767MOL0     H 5831   6.029   7.699   7.504  0.9055  1.9563  0.2266
  767MOL0     H 5832   6.304   8.258   7.450 -1.7996  0.4501 -0.4167
  767MOL0     H 5833   6.300   8.425   7.609 -2.3732 -1.1601 -2.7780
  767MOL0     H 5834   6.397   8.334   8.051 -0.5073  0.4330  2.4012
  767MOL0     H 5835   6.342   8.508   8.052 -2.5785  1.4244 -0.6334
  767MOL0     H 5836   6.211   8.354   8.195  1.5044  1.8249 -0.7585
  767MOL0     H 5837   6.138   8.275   8.068 -4.6263  1.2060  1.3434
  767MOL0     H 5838   6.064   8.487   7.956  0.6135 -2.2824  0.9923
  767MOL0     H 5839   5.976   8.431   8.098 -0.6050 -0.4812 -1.2441
  767MOL0     H 5840   6.004   8.666   8.098  0.8791  0.5602  0.5264
  767MOL0     H 5841   6.176   8.647   8.084 -0.6159 -3.6708 -2.6542
  767MOL0     H 5842   6.142   8.606   8.497 -2.4416  0.7553  0.4196
  767MOL0     H 5843   6.283   8.141   7.936  0.4623  2.0867  0.5150
  767MOL0     H 5844   6.358   7.860   7.749 -0.3058 -2.1799  2.4451
  767MOL0     H 5845   6.289   7.906   7.898  0.1072 -3.4938 -1.2007
  767MOL0     H 5846   6.180   7.887   7.765  0.5798 -3.0783  0.3759
  768MOL0     O 5847   3.072   6.025   2.101  0.2123 -0.0615 -0.3091
  768MOL0     C 5848   2.960   6.075   2.073  0.0033  0.5458 -0.7502
  768MOL0     O 5849   2.840   6.024   2.114  0.4077  0.1130  0.0719
  768MOL0     C 5850   2.850   5.941   2.223 -0.1071 -0.2324  0.4608
  768MOL0     C 5851   2.824   5.803   2.200 -0.0601  0.0163 -0.0439
  768MOL0     C 5852   2.829   5.706   2.307 -0.0818 -0.4409  0.3787
  768MOL0     C 5853   2.855   5.755   2.436 -0.5172  0.8154 -0.1557
  768MOL0     O 5854   2.857   5.662   2.531 -0.6619  0.1325 -0.5187
  768MOL0     C 5855   2.769   5.678   2.649 -1.0287 -0.1217  0.5945
  768MOL0     C 5856   2.846   5.636   2.782  0.5989 -0.0152 -0.0687
  768MOL0     C 5857   2.856   5.767   2.875  0.2537  0.2339  0.6253
  768MOL0     C 5858   2.811   5.750   3.026  0.6241 -0.1562  1.3491
  768MOL0     C 5859   2.816   5.869   3.115  0.5819 -0.7033 -0.0234
  768MOL0     C 5860   2.956   5.921   3.138  0.7195  0.4837  0.9058
  768MOL0     C 5861   2.979   5.984   3.268  0.8000 -1.1219 -0.3724
  768MOL0     C 5862   3.122   6.047   3.265 -0.0115 -0.1946  0.5229
  768MOL0     N 5863   3.226   5.942   3.252 -0.0848 -0.1085 -0.7215
  768MOL0     C 5864   3.322   5.937   3.161  0.3156  0.1942  0.6930
  768MOL0     C 5865   3.409   5.838   3.213 -0.3145 -0.5684 -0.3560
  768MOL0     C 5866   3.545   5.798   3.146 -0.8961  0.3194 -0.0005
  768MOL0     C 5867   3.656   5.820   3.243 -0.3996 -0.6164 -0.5124
  768MOL0     C 5868   3.797   5.797   3.163 -0.3447  0.0851  1.0044
  768MOL0     C 5869   3.918   5.836   3.249 -1.3719  0.5650  0.0913
  768MOL0     O 5870   4.038   5.843   3.172 -0.5357 -0.8414 -0.2801
  768MOL0     C 5871   4.161   5.885   3.217  0.0197 -0.7560 -0.4107
  768MOL0     C 5872   4.191   5.932   3.346 -0.5021  0.9941  0.5862
  768MOL0     C 5873   4.319   5.985   3.384 -0.0064  1.1010 -0.7427
  768MOL0     C 5874   4.340   6.016   3.534 -0.2818  0.0540  0.7091
  768MOL0     C 5875   4.408   6.010   3.282 -0.2471 -0.2180 -0.6425
  768MOL0     C 5876   4.527   6.101   3.306 -0.4191 -0.6645  0.4457
  768MOL0     O 5877   4.578   6.133   3.429  0.4346 -0.9500 -0.2417
  768MOL0     C 5878   4.705   6.181   3.458  0.1313  0.2232  0.5514
  768MOL0     C 5879   4.807   6.225   3.376 -0.3796 -0.2737 -0.0986
  768MOL0     C 5880   4.934   6.257   3.427 -0.5659 -0.3294  0.3676
  768MOL0     C 5881   4.947   6.271   3.571  0.9693  0.6333 -0.6623
  768MOL0     O 5882   5.057   6.322   3.630 -0.0628 -0.2756 -0.3135
  768MOL0     C 5883   5.135   6.420   3.562 -0.7089  1.1004  0.4061
  768MOL0     C 5884   5.097   6.552   3.635  0.0124  0.2024 -1.4581
  768MOL0     C 5885   4.971   6.601   3.588  0.2284  0.6646 -0.6458
  768MOL0     C 5886   4.957   6.754   3.600  0.2511 -0.1406  0.4688
  768MOL0     C 5887   4.804   6.795   3.608  0.1624  0.5877 -0.5771
  768MOL0     C 5888   4.796   6.944   3.634 -0.3907  0.0275  0.4499
  768MOL0     C 5889   4.884   6.997   3.746  0.0874 -0.7531  0.2245
  768MOL0     C 5890   4.855   7.137   3.783 -0.5037  0.0116  0.4824
  768MOL0    Cl 5891   4.901   7.251   3.667 -0.2345  0.2579 -0.5544
  768MOL0     C 5892   4.843   6.226   3.654  0.6610  0.4245 -0.8192
  768MOL0     C 5893   4.725   6.178   3.596  0.1711  0.6104  1.0975
  768MOL0     O 5894   4.566   6.157   3.200 -0.6110  0.1963  0.1036
  768MOL0     C 5895   4.377   5.960   3.148  0.1827  0.8177  0.4584
  768MOL0     C 5896   4.252   5.906   3.121 -0.0564  0.1245 -0.6047
  768MOL0     N 5897   3.350   5.783   3.325 -1.0783 -0.3849 -0.8230
  768MOL0     N 5898   3.240   5.846   3.347 -0.0964  0.2294  0.0223
  768MOL0     C 5899   2.879   5.891   2.463  0.3194  0.6207  1.2588
  768MOL0     C 5900   2.873   5.982   2.354 -0.9031  0.5419 -0.8452
  768MOL0     C 5901   2.966   6.181   1.962 -0.0040 -1.2347 -0.9523
  768MOL0     C 5902   3.095   6.226   1.927  0.4546  0.2707 -0.8846
  768MOL0     C 5903   3.115   6.295   1.815  0.2164 -0.0719 -0.1978
  768MOL0     C 5904   3.014   6.348   1.739  0.4907  1.2561  0.2429
  768MOL0     O 5905   3.049   6.399   1.613  1.1766 -1.2358 -0.2986
  768MOL0     C 5906   2.977   6.514   1.557 -0.1786  0.9280  1.2701
  768MOL0     C 5907   3.014   6.646   1.615  0.8599  0.0981 -0.5699
  768MOL0     C 5908   3.164   6.678   1.617  0.3901 -0.1385 -0.3911
  768MOL0     C 5909   3.213   6.759   1.494  0.2514 -0.6795  0.0126
  768MOL0     C 5910   3.198   6.685   1.375  0.1839  0.0871  0.0809
  768MOL0     C 5911   3.189   6.623   1.272  0.1543  1.3007  0.5636
  768MOL0     C 5912   2.882   6.312   1.769  0.4147 -0.2393 -0.6636
  768MOL0     C 5913   2.858   6.232   1.884 -0.6105 -0.0505  0.3253
  768MOL0     C 5914   2.721   6.204   1.932 -0.1335  0.0573 -1.0280
  768MOL0     H 5915   2.802   5.769   2.100 -1.3279  0.9606 -0.1129
  768MOL0     H 5916   2.810   5.602   2.280 -0.2535 -0.2886 -0.0999
  768MOL0     H 5917   2.682   5.614   2.633 -0.9811  0.3808 -2.1961
  768MOL0     H 5918   2.740   5.784   2.647 -1.1033 -0.0444  3.1561
  768MOL0     H 5919   2.790   5.554   2.828 -0.2200  0.0639 -0.9072
  768MOL0     H 5920   2.947   5.602   2.759  0.4673 -0.3896 -0.0970
  768MOL0     H 5921   2.960   5.802   2.878  0.1939  1.3207 -3.4233
  768MOL0     H 5922   2.811   5.856   2.830 -2.3347  0.8070  3.9967
  768MOL0     H 5923   2.711   5.705   3.019  0.5237  0.1913  0.3655
  768MOL0     H 5924   2.876   5.675   3.070  0.9717  0.0921  1.2586
  768MOL0     H 5925   2.774   5.853   3.215  2.6380 -0.7153  0.8919
  768MOL0     H 5926   2.747   5.938   3.065  2.0203  0.7949 -0.0480
  768MOL0     H 5927   3.025   5.836   3.130 -0.5574 -0.7339  2.1974
  768MOL0     H 5928   2.981   5.991   3.058  2.3493 -1.4462 -0.3757
  768MOL0     H 5929   2.951   5.913   3.346 -3.7037 -0.4169 -1.1186
  768MOL0     H 5930   2.910   6.065   3.291 -2.6728 -2.6386 -4.2526
  768MOL0     H 5931   3.129   6.111   3.176  1.1238  1.8794  2.0176
  768MOL0     H 5932   3.151   6.114   3.346  0.9866 -0.9453  0.8108
  768MOL0     H 5933   3.343   5.992   3.070 -2.9875  0.0099 -0.2965
  768MOL0     H 5934   3.564   5.847   3.050  0.2283 -2.6323 -1.4240
  768MOL0     H 5935   3.541   5.688   3.145  0.5496  0.2135  1.7863
  768MOL0     H 5936   3.639   5.925   3.271  1.4185 -0.6939  1.1173
  768MOL0     H 5937   3.649   5.772   3.341 -0.9405  0.3692 -0.0511
  768MOL0     H 5938   3.801   5.698   3.117  0.6570  0.9080 -0.7918
  768MOL0     H 5939   3.797   5.859   3.073  0.6294  0.2706  1.1169
  768MOL0     H 5940   3.909   5.930   3.303  2.0680  0.9680  0.1587
  768MOL0     H 5941   3.920   5.755   3.322  2.4120 -1.7698 -2.2804
  768MOL0     H 5942   4.112   5.935   3.420 -0.7180  1.4168  0.3406
  768MOL0     H 5943   4.325   6.119   3.567  2.8253  1.5786 -1.9613
  768MOL0     H 5944   4.437   5.974   3.564  0.3145 -0.5617 -1.8380
  768MOL0     H 5945   4.274   5.953   3.595  2.4573 -1.9708  1.8182
  768MOL0     H 5946   4.801   6.241   3.269 -2.3820  0.3773  0.0626
  768MOL0     H 5947   5.022   6.272   3.366 -0.1329 -1.2315  0.7508
  768MOL0     H 5948   5.240   6.395   3.578 -0.6017  1.3424  0.0900
  768MOL0     H 5949   5.129   6.426   3.453  2.7412 -0.2309  0.0158
  768MOL0     H 5950   5.092   6.529   3.742  3.1818  2.1014 -0.7625
  768MOL0     H 5951   5.169   6.632   3.615 -0.7194  1.9538  2.1198
  768MOL0     H 5952   4.904   6.561   3.665  3.0150  2.9411  3.3661
  768MOL0     H 5953   4.946   6.562   3.489 -0.2880  1.1218 -0.7006
  768MOL0     H 5954   5.012   6.810   3.524  0.5366 -2.9715 -1.5577
  768MOL0     H 5955   5.006   6.786   3.692 -0.6093 -1.0876  1.2720
  768MOL0     H 5956   4.761   6.783   3.508  1.6103  1.1694 -1.2892
  768MOL0     H 5957   4.760   6.735   3.688  0.8328  0.2119 -0.4804
  768MOL0     H 5958   4.693   6.970   3.661 -1.0690 -2.1122  0.0809
  768MOL0     H 5959   4.836   6.997   3.548  1.0957 -0.7894  0.6169
  768MOL0     H 5960   4.990   6.981   3.728 -0.0322 -1.2059 -0.0778
  768MOL0     H 5961   4.872   6.944   3.841  1.6887  1.7065  1.9087
  768MOL0     H 5962   4.886   7.178   3.880 -3.3443  0.7305  1.1846
  768MOL0     H 5963   4.746   7.141   3.789 -0.6346  5.3905 -0.1604
  768MOL0     H 5964   4.853   6.231   3.762 -2.9114  0.4787 -0.3604
  768MOL0     H 5965   4.635   6.156   3.653 -0.7299  0.2154 -0.4325
  768MOL0     H 5966   4.448   5.976   3.068  0.2365 -0.0101  0.3345
  768MOL0     H 5967   4.216   5.883   3.021  0.5345 -3.4368 -0.1385
  768MOL0     H 5968   2.888   5.913   2.569 -1.1464 -0.1795  1.5801
  768MOL0     H 5969   2.881   6.089   2.375 -0.0584  0.5360 -1.1113
  768MOL0     H 5970   3.177   6.215   1.997 -1.2456 -0.0777  1.1634
  768MOL0     H 5971   3.218   6.300   1.780  0.8351  0.7064  1.5813
  768MOL0     H 5972   2.986   6.517   1.448 -0.8648  0.6990  1.2060
  768MOL0     H 5973   2.872   6.508   1.584 -0.5578 -0.5351 -0.3741
  768MOL0     H 5974   2.988   6.649   1.721 -0.9054 -0.1889 -0.9581
  768MOL0     H 5975   2.953   6.723   1.568  1.5759  2.0847  1.6026
  768MOL0     H 5976   3.178   6.737   1.708 -0.2961 -1.7969  0.8347
  768MOL0     H 5977   3.225   6.587   1.626  0.4624  0.0061  0.7692
  768MOL0     H 5978   3.318   6.788   1.504  0.4560 -1.2906 -0.3003
  768MOL0     H 5979   3.163   6.855   1.483 -1.5064 -1.6136 -0.5205
  768MOL0     H 5980   3.167   6.568   1.183 -1.0599 -0.4014  1.8327
  768MOL0     H 5981   2.803   6.346   1.704  0.5405  1.3528 -0.0361
  768MOL0     H 5982   2.710   6.227   2.038  0.6862  1.7191 -1.2662
  768MOL0     H 5983   2.655   6.277   1.882 -1.7115 -2.6267 -3.1518
  768MOL0     H 5984   2.672   6.109   1.907 -1.4248  0.2221  0.7222
  769MOL0     O 5985   5.017   7.913   5.307 -0.2340 -0.1651 -0.2575
  769MOL0     C 5986   5.010   7.954   5.198  0.2707 -0.3104 -0.7711
  769MOL0     O 5987   5.107   7.932   5.096 -1.9839  0.6490 -0.4570
  769MOL0     C 5988   5.191   7.822   5.089  0.6020 -0.6298  0.2001
  769MOL0     C 5989   5.300   7.823   4.995  0.4473  0.4095  0.3642
  769MOL0     C 5990   5.390   7.720   4.973 -0.1253 -0.3024  0.5635
  769MOL0     C 5991   5.383   7.612   5.057  0.3109 -1.0069 -0.5070
  769MOL0     O 5992   5.481   7.512   5.032 -0.6542  0.2821 -0.5400
  769MOL0     C 5993   5.498   7.401   5.127  0.5999  0.0294  0.3142
  769MOL0     C 5994   5.606   7.312   5.056 -0.6944 -0.0523  0.2435
  769MOL0     C 5995   5.750   7.375   5.042 -0.4468  0.5686 -0.7106
  769MOL0     C 5996   5.839   7.293   4.946  0.9085  0.0177  0.2227
  769MOL0     C 5997   5.983   7.308   4.972 -0.0657  0.1260 -1.1314
  769MOL0     C 5998   6.035   7.440   4.910 -0.2347  0.1154  0.4806
  769MOL0     C 5999   6.187   7.461   4.939 -0.0419  0.3685  0.0125
  769MOL0     C 6000   6.207   7.613   4.961 -0.6008  0.2231  0.2653
  769MOL0     N 6001   6.357   7.645   4.985  0.4343 -0.5455 -0.0127
  769MOL0     C 6002   6.410   7.769   4.976 -1.0780  1.2280 -0.5376
  769MOL0     C 6003   6.551   7.759   4.966  0.4439 -0.3115 -0.5382
  769MOL0     C 6004   6.644   7.876   4.926  0.7211  0.2342 -0.3917
  769MOL0     C 6005   6.680   7.978   5.024 -0.0107  0.1654 -0.1232
  769MOL0     C 6006   6.569   8.062   5.074 -0.4011  0.3409  0.2775
  769MOL0     C 6007   6.519   8.176   4.983 -0.2500  0.2864 -0.4206
  769MOL0     O 6008   6.622   8.277   4.979 -0.3363  0.2216 -0.0992
  769MOL0     C 6009   6.603   8.412   4.942 -0.7655  0.7470  0.8210
  769MOL0     C 6010   6.486   8.480   4.934 -0.2697  0.3551 -0.4761
  769MOL0     C 6011   6.470   8.622   4.912  0.3243 -0.1583 -0.0338
  769MOL0     C 6012   6.333   8.678   4.921 -0.0944  0.8027 -0.8933
  769MOL0     C 6013   6.581   8.699   4.875 -0.6324  0.0689  0.0108
  769MOL0     C 6014   6.569   8.845   4.833  0.5874  0.3921 -0.0992
  769MOL0     O 6015   6.670   8.934   4.865 -0.6775 -0.0032 -0.2663
  769MOL0     C 6016   6.682   9.049   4.795 -0.2385 -0.2763  0.1137
  769MOL0     C 6017   6.632   9.169   4.848  0.8141 -0.5389 -1.1783
  769MOL0     C 6018   6.636   9.282   4.770 -0.3837 -0.3913 -0.9011
  769MOL0     C 6019   6.698   9.282   4.643  1.2421  0.5246  0.2263
  769MOL0     O 6020   6.707   9.396   4.570  0.0054 -1.0266 -0.1014
  769MOL0     C 6021   6.584   9.470   4.549 -0.1876  0.3633  0.4223
  769MOL0     C 6022   6.621   9.598   4.485 -0.1370 -1.1718  0.8364
  769MOL0     C 6023   6.503   9.706   4.473  0.9113  0.0701 -0.5445
  769MOL0     C 6024   6.556   9.839   4.431  0.8116 -1.2486 -0.2536
  769MOL0     C 6025   6.568   9.947   4.543  0.4106 -0.0838  1.2704
  769MOL0     C 6026   6.595  10.086   4.491 -0.0196  0.0712  0.0623
  769MOL0     C 6027   6.617  10.198   4.602  0.5916  0.3564  0.6542
  769MOL0     C 6028   6.670  10.325   4.546 -0.5255 -0.5916 -0.4558
  769MOL0    Cl 6029   6.828  10.302   4.456  0.4983 -0.3796  0.2625
  769MOL0     C 6030   6.754   9.166   4.592 -0.9411 -0.4050  0.1735
  769MOL0     C 6031   6.746   9.052   4.671  0.7396 -0.4397 -0.2277
  769MOL0     O 6032   6.483   8.875   4.748  0.5870 -0.1280  0.2521
  769MOL0     C 6033   6.699   8.629   4.875 -0.6450  0.0099 -0.3163
  769MOL0     C 6034   6.709   8.488   4.900  0.6693  0.1682 -0.9251
  769MOL0     N 6035   6.577   7.613   4.980 -0.8035 -0.6552 -0.4586
  769MOL0     N 6036   6.457   7.554   4.988 -1.3103 -0.2219  0.4935
  769MOL0     C 6037   5.289   7.608   5.161  0.3580 -0.7011  1.6795
  769MOL0     C 6038   5.183   7.709   5.164 -0.3371  0.7183 -1.0928
  769MOL0     C 6039   4.887   8.030   5.169  0.1403 -1.0910  0.5078
  769MOL0     C 6040   4.852   8.054   5.036 -0.0412  0.2183 -0.3373
  769MOL0     C 6041   4.743   8.133   5.003  0.9621  0.5693 -0.0104
  769MOL0     C 6042   4.661   8.187   5.099  0.2371  0.0084 -0.6070
  769MOL0     O 6043   4.548   8.253   5.068  0.0760 -0.0175 -0.3235
  769MOL0     C 6044   4.570   8.368   4.980 -0.4825  0.1210  0.5510
  769MOL0     C 6045   4.570   8.490   5.075 -0.1179  0.2114  0.2605
  769MOL0     C 6046   4.426   8.510   5.126  0.3490  0.4270  1.5703
  769MOL0     C 6047   4.331   8.569   5.018 -0.5627 -0.3729  0.4341
  769MOL0     C 6048   4.205   8.631   5.069 -0.9566 -0.1215  0.5528
  769MOL0     C 6049   4.106   8.682   5.109 -0.5631 -0.0493 -0.5780
  769MOL0     C 6050   4.689   8.165   5.234  0.1648 -0.5248  0.2426
  769MOL0     C 6051   4.804   8.100   5.270 -0.2936 -0.2309 -0.0710
  769MOL0     C 6052   4.846   8.102   5.413  0.1598 -0.5018 -0.0501
  769MOL0     H 6053   5.307   7.905   4.924 -3.5432 -1.0330 -2.0731
  769MOL0     H 6054   5.461   7.726   4.891 -1.0101 -2.1225 -0.3853
  769MOL0     H 6055   5.403   7.348   5.138 -0.0669  0.2272 -3.2159
  769MOL0     H 6056   5.539   7.440   5.220  0.8575 -1.8370  1.0144
  769MOL0     H 6057   5.608   7.221   5.116 -1.1383  0.2798  0.7753
  769MOL0     H 6058   5.566   7.290   4.956  1.5062  0.4937 -0.8176
  769MOL0     H 6059   5.747   7.479   5.010 -2.7142  0.0756 -2.3226
  769MOL0     H 6060   5.797   7.376   5.141  1.9717 -3.9433 -1.5108
  769MOL0     H 6061   5.822   7.185   4.946  2.1266 -0.2036  0.9543
  769MOL0     H 6062   5.819   7.322   4.843  1.4506  0.4295  0.2268
  769MOL0     H 6063   6.030   7.215   4.939 -1.8784 -0.9132 -0.9056
  769MOL0     H 6064   6.006   7.298   5.079 -2.6932 -0.6156 -0.5650
  769MOL0     H 6065   6.009   7.446   4.804  0.7841  0.5958  0.2403
  769MOL0     H 6066   5.977   7.523   4.952  0.3180 -0.3598  2.2773
  769MOL0     H 6067   6.249   7.440   4.851  0.2943  2.3994 -0.2785
  769MOL0     H 6068   6.209   7.398   5.026 -1.2632  0.5397  0.4642
  769MOL0     H 6069   6.172   7.669   4.874 -2.9237 -0.2342  0.8487
  769MOL0     H 6070   6.155   7.647   5.051  0.5310  0.0509  1.0125
  769MOL0     H 6071   6.355   7.863   4.980 -0.2953  1.6532  2.4714
  769MOL0     H 6072   6.596   7.922   4.839 -3.9052 -1.1229  1.1049
  769MOL0     H 6073   6.741   7.840   4.892  2.4996  1.2120  3.1888
  769MOL0     H 6074   6.718   7.938   5.119  0.8923  4.2163  1.4114
  769MOL0     H 6075   6.755   8.038   4.973  0.4438  1.9974  2.4967
  769MOL0     H 6076   6.487   7.991   5.091 -1.4338  1.0915 -1.3518
  769MOL0     H 6077   6.606   8.107   5.166 -1.0995  2.6013 -0.4824
  769MOL0     H 6078   6.501   8.130   4.885  1.2804 -2.3987  0.4698
  769MOL0     H 6079   6.421   8.207   5.020 -0.5696  0.6395 -1.5118
  769MOL0     H 6080   6.394   8.431   4.966 -0.1987 -1.9299 -3.3684
  769MOL0     H 6081   6.266   8.593   4.903  2.0136 -1.2137  0.2092
  769MOL0     H 6082   6.307   8.754   4.847  0.9006 -0.0443 -2.1496
  769MOL0     H 6083   6.316   8.714   5.023 -1.4132  0.4220 -0.9600
  769MOL0     H 6084   6.594   9.162   4.949  0.8387 -2.2008 -1.2605
  769MOL0     H 6085   6.595   9.371   4.816  2.5728  0.0826  1.0884
  769MOL0     H 6086   6.530   9.408   4.477  1.6744 -2.5146  1.3168
  769MOL0     H 6087   6.516   9.478   4.634 -0.9472 -4.2371  0.5327
  769MOL0     H 6088   6.704   9.656   4.527  1.0741 -2.9951  1.0610
  769MOL0     H 6089   6.652   9.569   4.385 -2.3874 -3.0252  0.5798
  769MOL0     H 6090   6.431   9.706   4.555  0.2766 -0.9388 -1.0777
  769MOL0     H 6091   6.447   9.656   4.394  0.4620 -1.8969  0.9294
  769MOL0     H 6092   6.486   9.884   4.360  0.4852  1.7071  1.7717
  769MOL0     H 6093   6.649   9.824   4.376  0.1486  2.0258 -2.5199
  769MOL0     H 6094   6.481   9.949   4.609 -0.9298 -1.8128 -0.3125
  769MOL0     H 6095   6.657   9.920   4.600 -0.7811 -1.7988  2.4268
  769MOL0     H 6096   6.496  10.105   4.448  0.0646 -1.0840 -0.6563
  769MOL0     H 6097   6.672  10.077   4.414 -0.5536 -1.0806 -0.3568
  769MOL0     H 6098   6.689  10.148   4.668 -1.3929 -4.7248 -0.5633
  769MOL0     H 6099   6.519  10.207   4.648  0.2219 -2.5640  0.6092
  769MOL0     H 6100   6.677  10.402   4.623 -3.9468 -0.7289  0.1616
  769MOL0     H 6101   6.599  10.374   4.479  0.2250  2.0093  0.5137
  769MOL0     H 6102   6.804   9.149   4.497 -0.9883 -1.9926  0.3999
  769MOL0     H 6103   6.772   8.953   4.635 -1.8552 -0.5776 -1.9635
  769MOL0     H 6104   6.798   8.668   4.854  0.9722 -2.7977  1.4156
  769MOL0     H 6105   6.808   8.442   4.900  0.3681 -0.7376  2.0512
  769MOL0     H 6106   5.263   7.514   5.209 -2.4847 -0.0782  1.5687
  769MOL0     H 6107   5.091   7.698   5.221 -0.4501  0.0772 -1.3981
  769MOL0     H 6108   4.908   8.016   4.952 -3.2836 -1.9021 -1.7391
  769MOL0     H 6109   4.719   8.164   4.902  0.4059  2.8673  0.7634
  769MOL0     H 6110   4.667   8.373   4.930  0.8791 -0.0688  3.0329
  769MOL0     H 6111   4.486   8.376   4.910 -1.3075 -0.5020  1.4436
  769MOL0     H 6112   4.601   8.583   5.026 -0.7386  1.2458  1.7550
  769MOL0     H 6113   4.625   8.461   5.165 -1.7395 -0.8987  0.9351
  769MOL0     H 6114   4.382   8.421   5.172  1.2482 -2.8379 -3.0994
  769MOL0     H 6115   4.429   8.589   5.201 -0.1258  0.2064  1.8263
  769MOL0     H 6116   4.310   8.492   4.943  0.5356 -0.8403  0.5817
  769MOL0     H 6117   4.385   8.648   4.965  0.2494 -1.9625 -1.2224
  769MOL0     H 6118   4.029   8.735   5.161  0.4019 -0.3874  1.2548
  769MOL0     H 6119   4.622   8.223   5.296 -0.4234 -1.7640  0.7938
  769MOL0     H 6120   4.942   8.154   5.409 -1.0769  1.8934 -0.5563
  769MOL0     H 6121   4.772   8.145   5.481 -1.6083 -3.3638  0.0243
  769MOL0     H 6122   4.848   8.003   5.459 -1.1008 -0.0849  0.9758
  770MOL0     O 6123   7.606   5.495   4.749 -0.5363 -0.3259 -0.1895
  770MOL0     C 6124   7.703   5.558   4.699 -0.0363  0.5222 -0.1585
  770MOL0     O 6125   7.830   5.550   4.747 -0.1945 -0.2916  0.7622
  770MOL0     C 6126   7.844   5.483   4.864  0.7191  0.0073  0.8066
  770MOL0     C 6127   7.939   5.383   4.867  0.8130  0.0821 -0.2860
  770MOL0     C 6128   7.965   5.320   4.992  0.2426 -0.1431  0.0295
  770MOL0     C 6129   7.896   5.347   5.110  0.8963  0.6296  0.4624
  770MOL0     O 6130   7.922   5.258   5.217  0.6654 -0.4521  0.1020
  770MOL0     C 6131   7.811   5.261   5.307  0.9616  0.9669  0.2529
  770MOL0     C 6132   7.691   5.164   5.290 -0.4315  0.2135  0.4100
  770MOL0     C 6133   7.718   5.012   5.282  0.4370  0.5275  0.1121
  770MOL0     C 6134   7.602   4.915   5.288 -0.2231 -0.4044  0.7133
  770MOL0     C 6135   7.645   4.776   5.248 -0.8330  0.7201  0.1010
  770MOL0     C 6136   7.527   4.680   5.226  0.1651  0.9010  0.5476
  770MOL0     C 6137   7.563   4.542   5.163 -0.5038 -0.1435 -0.6403
  770MOL0     C 6138   7.659   4.458   5.251 -0.2877  0.5822  0.2988
  770MOL0     N 6139   7.648   4.318   5.206  0.1885 -0.4553 -0.4588
  770MOL0     C 6140   7.550   4.233   5.255 -0.2277 -0.3112 -0.5768
  770MOL0     C 6141   7.537   4.153   5.148 -1.0012  0.3733 -0.6229
  770MOL0     C 6142   7.435   4.045   5.143  0.2249  0.3007  0.1391
  770MOL0     C 6143   7.454   3.938   5.253 -0.3970 -0.9174  1.4316
  770MOL0     C 6144   7.339   3.837   5.271  0.0507  0.6435 -0.7649
  770MOL0     C 6145   7.298   3.754   5.146  0.3861 -0.3658  0.0648
  770MOL0     O 6146   7.416   3.684   5.107  0.6315  0.4175  0.4496
  770MOL0     C 6147   7.431   3.678   4.973 -0.1384  0.0343  0.4089
  770MOL0     C 6148   7.566   3.665   4.927 -1.0307  0.1304 -0.9699
  770MOL0     C 6149   7.590   3.662   4.790  0.5104  0.8474  0.4967
  770MOL0     C 6150   7.737   3.649   4.760 -1.8343 -0.2354 -0.2768
  770MOL0     C 6151   7.489   3.647   4.698  0.4116 -0.0242 -0.8958
  770MOL0     C 6152   7.512   3.616   4.557 -0.0865 -0.5103  0.0341
  770MOL0     O 6153   7.420   3.655   4.476 -0.3067 -0.1617  0.6431
  770MOL0     C 6154   7.416   3.634   4.343  0.1404 -0.0899  0.9523
  770MOL0     C 6155   7.291   3.631   4.300 -0.1349  1.2886 -1.7571
  770MOL0     C 6156   7.260   3.617   4.165  0.3740  0.6212  0.4687
  770MOL0     C 6157   7.362   3.598   4.072 -0.6037  0.2121  0.9156
  770MOL0     O 6158   7.325   3.594   3.940  0.1793  0.1917  0.4033
  770MOL0     C 6159   7.425   3.651   3.847  0.4389 -0.3376 -0.2041
  770MOL0     C 6160   7.375   3.693   3.708 -0.4940 -0.5544 -0.1763
  770MOL0     C 6161   7.275   3.808   3.737  0.7764  0.4345 -0.7962
  770MOL0     C 6162   7.194   3.842   3.603 -0.3829  1.3910  1.1054
  770MOL0     C 6163   7.098   3.949   3.625 -0.4122  0.2050 -0.1851
  770MOL0     C 6164   6.971   3.924   3.552 -0.2029  0.7845 -0.1497
  770MOL0     C 6165   6.986   3.946   3.401 -0.9133  0.2285  0.0285
  770MOL0     C 6166   6.845   3.907   3.337 -1.2899 -0.4975 -1.1823
  770MOL0    Cl 6167   6.873   3.894   3.152  0.6731  0.6760  0.0987
  770MOL0     C 6168   7.494   3.597   4.117 -0.2248 -0.0133  0.5188
  770MOL0     C 6169   7.519   3.625   4.249 -0.2234 -0.3194  0.1655
  770MOL0     O 6170   7.608   3.549   4.524  0.2306 -0.0618 -0.7857
  770MOL0     C 6171   7.359   3.670   4.737  1.8435 -0.3516 -0.5580
  770MOL0     C 6172   7.319   3.694   4.873 -1.7901 -0.0391 -0.3481
  770MOL0     N 6173   7.619   4.187   5.039 -0.2216 -1.4601  0.3808
  770MOL0     N 6174   7.687   4.284   5.078 -0.0219 -0.3985 -0.6111
  770MOL0     C 6175   7.790   5.453   5.099 -0.6150 -0.2276 -0.2760
  770MOL0     C 6176   7.764   5.512   4.976 -0.5335 -0.0527  0.7227
  770MOL0     C 6177   7.672   5.654   4.584  0.2152 -0.3221 -1.0105
  770MOL0     C 6178   7.583   5.610   4.494  0.0952  0.1283 -0.2986
  770MOL0     C 6179   7.535   5.692   4.379  0.3936  0.2023  0.6884
  770MOL0     C 6180   7.604   5.813   4.357 -1.4165  0.0323 -0.0186
  770MOL0     O 6181   7.589   5.893   4.249  0.1600 -0.8201  0.1772
  770MOL0     C 6182   7.516   5.852   4.132  0.4087  0.4271 -0.0428
  770MOL0     C 6183   7.580   5.938   4.024  0.1487  0.3348 -0.3477
  770MOL0     C 6184   7.552   5.903   3.880  0.5001  0.1699  0.0151
  770MOL0     C 6185   7.620   5.985   3.777  0.0465  0.2769  0.7593
  770MOL0     C 6186   7.573   6.130   3.774 -0.5559  0.0583 -1.3476
  770MOL0     C 6187   7.530   6.244   3.797 -0.5764  0.8640 -0.6657
  770MOL0     C 6188   7.688   5.860   4.453  0.0940  0.1460  0.0290
  770MOL0     C 6189   7.726   5.790   4.575 -0.3369  0.1756 -0.3721
  770MOL0     C 6190   7.824   5.850   4.674  0.1429  0.3671 -0.1703
  770MOL0     H 6191   8.005   5.352   4.786  3.0181 -0.4795  1.6075
  770MOL0     H 6192   8.043   5.246   5.000 -0.4468 -0.8312  0.4209
  770MOL0     H 6193   7.773   5.355   5.348  2.4494  0.7219  2.3062
  770MOL0     H 6194   7.861   5.226   5.398  1.3333  0.0818 -0.2753
  770MOL0     H 6195   7.638   5.185   5.384 -0.4395  1.6475  0.0961
  770MOL0     H 6196   7.625   5.200   5.212 -0.8859  0.2836  0.8211
  770MOL0     H 6197   7.762   5.000   5.183 -0.5504 -0.1550 -0.2599
  770MOL0     H 6198   7.796   4.985   5.355 -0.9667 -1.1569  1.0568
  770MOL0     H 6199   7.541   4.918   5.379  0.0986 -1.8516  1.0011
  770MOL0     H 6200   7.522   4.947   5.220  0.1956  2.9177  1.5733
  770MOL0     H 6201   7.715   4.749   5.328 -1.6013 -0.0146  0.5293
  770MOL0     H 6202   7.690   4.765   5.149 -4.0317  1.6372 -1.5757
  770MOL0     H 6203   7.469   4.664   5.317  0.1807  0.5420  0.4975
  770MOL0     H 6204   7.454   4.722   5.156 -1.3730 -3.2041 -0.6415
  770MOL0     H 6205   7.611   4.563   5.067  3.8408  0.0433  1.3397
  770MOL0     H 6206   7.477   4.478   5.141  0.2123 -0.6832 -2.0271
  770MOL0     H 6207   7.760   4.489   5.225  0.1091  0.7815  2.0074
  770MOL0     H 6208   7.642   4.454   5.359 -0.5327  1.4858  0.3031
  770MOL0     H 6209   7.504   4.226   5.353 -2.5614  2.8117 -1.3069
  770MOL0     H 6210   7.441   4.000   5.044  1.6358 -1.8983  1.1558
  770MOL0     H 6211   7.336   4.092   5.148  1.4821  3.1904 -0.1414
  770MOL0     H 6212   7.544   3.883   5.224 -0.6604  0.1827 -1.9462
  770MOL0     H 6213   7.471   3.981   5.352  1.7367 -2.4901  1.8246
  770MOL0     H 6214   7.356   3.774   5.358 -0.9818 -0.9785 -1.7005
  770MOL0     H 6215   7.244   3.877   5.307 -1.8735 -4.7595  1.0929
  770MOL0     H 6216   7.211   3.689   5.160  0.8138 -2.4497 -4.9218
  770MOL0     H 6217   7.268   3.832   5.075  3.7946  1.6785  0.6343
  770MOL0     H 6218   7.652   3.678   4.992 -0.2770  0.7559 -2.0496
  770MOL0     H 6219   7.792   3.694   4.843 -4.7190 -0.5885  2.0027
  770MOL0     H 6220   7.767   3.712   4.675 -0.3657 -1.5913 -0.8025
  770MOL0     H 6221   7.767   3.545   4.753 -1.9010 -0.3824  1.2899
  770MOL0     H 6222   7.218   3.651   4.377 -0.1145  1.1111 -1.6904
  770MOL0     H 6223   7.157   3.615   4.129 -0.0782 -5.3672  0.9728
  770MOL0     H 6224   7.470   3.739   3.894  1.7351 -0.7525 -0.6055
  770MOL0     H 6225   7.511   3.586   3.829 -0.2666 -1.3646  0.0147
  770MOL0     H 6226   7.459   3.726   3.646  0.3877 -1.8990  0.2638
  770MOL0     H 6227   7.327   3.606   3.663  0.6768 -2.6549  2.3721
  770MOL0     H 6228   7.322   3.897   3.781  1.3211 -0.4718  0.5128
  770MOL0     H 6229   7.213   3.767   3.817  0.8662 -0.2651 -1.0742
  770MOL0     H 6230   7.152   3.748   3.567  1.6337 -1.2631  4.9939
  770MOL0     H 6231   7.275   3.872   3.536  1.9899 -1.5796  2.3898
  770MOL0     H 6232   7.081   3.963   3.732  0.9540 -0.0699  0.0831
  770MOL0     H 6233   7.133   4.045   3.586 -0.5150 -0.4799 -2.0821
  770MOL0     H 6234   6.894   3.988   3.596  0.2946  0.1470  1.7378
  770MOL0     H 6235   6.931   3.824   3.574 -1.5406  0.9685 -1.5777
  770MOL0     H 6236   7.056   3.873   3.359 -1.4214 -0.6079  0.5956
  770MOL0     H 6237   7.013   4.049   3.376  1.2850 -0.6753 -1.6384
  770MOL0     H 6238   6.790   3.999   3.355  0.1182  0.3685 -1.1859
  770MOL0     H 6239   6.799   3.814   3.373  0.3853 -1.1170 -0.5723
  770MOL0     H 6240   7.579   3.585   4.050 -1.2563  0.9284 -1.0024
  770MOL0     H 6241   7.620   3.656   4.276 -0.6826  1.7858 -0.3159
  770MOL0     H 6242   7.276   3.666   4.666  3.0321 -1.0151 -1.9718
  770MOL0     H 6243   7.217   3.718   4.902 -3.1758 -0.3857 -4.3477
  770MOL0     H 6244   7.720   5.480   5.178  0.1221  2.2280 -0.4004
  770MOL0     H 6245   7.693   5.594   4.976  0.3710  0.7596  1.1934
  770MOL0     H 6246   7.540   5.511   4.508  1.3230 -0.1367  2.0328
  770MOL0     H 6247   7.449   5.661   4.320  0.3709  1.5480 -0.0287
  770MOL0     H 6248   7.523   5.744   4.112 -1.8686  0.8606 -4.4087
  770MOL0     H 6249   7.412   5.882   4.147  0.8102  1.5904  0.5251
  770MOL0     H 6250   7.687   5.936   4.049  0.2149 -2.1827 -0.5480
  770MOL0     H 6251   7.533   6.036   4.029 -1.4650 -0.2715 -2.4203
  770MOL0     H 6252   7.562   5.795   3.862 -2.1019 -0.2712  0.8352
  770MOL0     H 6253   7.448   5.924   3.854 -0.1092 -0.2713  1.9644
  770MOL0     H 6254   7.594   5.944   3.679 -1.3765  3.2983 -0.2530
  770MOL0     H 6255   7.726   5.989   3.803  0.1458  3.7408  0.3469
  770MOL0     H 6256   7.491   6.343   3.814 -0.5036  0.5762  1.4431
  770MOL0     H 6257   7.740   5.953   4.435  0.5178 -0.1503 -0.2927
  770MOL0     H 6258   7.927   5.852   4.638  0.1762  0.7558 -0.0565
  770MOL0     H 6259   7.801   5.957   4.682  1.2541  0.5757  0.5042
  770MOL0     H 6260   7.811   5.799   4.770 -0.7701 -0.5271 -0.7481
  771MOL0     O 6261  11.550  11.061   9.248 -0.2032 -0.9140 -0.0445
  771MOL0     C 6262  11.555  11.176   9.216  0.6761 -0.4583 -0.2048
  771MOL0     O 6263  11.453  11.259   9.231 -0.2109  0.2754  0.2266
  771MOL0     C 6264  11.368  11.229   9.336  0.2433 -1.2934 -0.0368
  771MOL0     C 6265  11.411  11.221   9.470 -0.2541 -0.5580  0.6638
  771MOL0     C 6266  11.320  11.230   9.576  0.3957  0.2301 -0.9503
  771MOL0     C 6267  11.176  11.225   9.548  0.3143  0.0932  0.4483
  771MOL0     O 6268  11.077  11.226   9.643  0.0765 -0.0646  0.3699
  771MOL0     C 6269  11.112  11.279   9.774 -0.1346  0.4202  0.0961
  771MOL0     C 6270  11.004  11.358   9.847  0.3413  0.5080 -0.1555
  771MOL0     C 6271  10.880  11.268   9.885 -0.1607 -1.0383  1.0164
  771MOL0     C 6272  10.908  11.151   9.980 -0.0673  0.1081 -0.2519
  771MOL0     C 6273  10.773  11.077  10.015 -0.0690 -0.2687 -0.6737
  771MOL0     C 6274  10.801  10.982  10.129 -0.1332  0.9449  0.1544
  771MOL0     C 6275  10.677  10.903  10.169 -0.6339 -0.7475 -0.4629
  771MOL0     C 6276  10.703  10.811  10.298  0.7284 -0.1927 -0.1786
  771MOL0     N 6277  10.591  10.785  10.391 -0.3763  0.4759  0.3087
  771MOL0     C 6278  10.529  10.669  10.414 -0.3224  0.3399 -0.2466
  771MOL0     C 6279  10.439  10.673  10.514 -0.0873  0.8911  0.2354
  771MOL0     C 6280  10.365  10.568  10.579  0.7435 -0.4124  0.1194
  771MOL0     C 6281  10.453  10.444  10.609 -1.4513  0.7218 -0.3941
  771MOL0     C 6282  10.522  10.473  10.746 -0.1387 -0.1598  0.4988
  771MOL0     C 6283  10.610  10.363  10.801 -0.8473  1.2036  0.6253
  771MOL0     O 6284  10.533  10.244  10.830 -0.4063 -0.1861 -0.6057
  771MOL0     C 6285  10.602  10.130  10.886  0.5550  0.5061 -0.3600
  771MOL0     C 6286  10.521  10.052  10.973 -0.0014 -0.4323 -0.0709
  771MOL0     C 6287  10.576   9.932  11.031  0.6468  0.0384 -0.4397
  771MOL0     C 6288  10.492   9.867  11.139  0.6054  1.2673 -0.4155
  771MOL0     C 6289  10.715   9.907  11.004 -0.1953  1.5100  1.4113
  771MOL0     C 6290  10.781   9.782  11.066  0.6122  0.2170  0.4121
  771MOL0     O 6291  10.704   9.673  11.084 -0.3404 -0.5348 -0.2811
  771MOL0     C 6292  10.757   9.543  11.089 -0.2087 -0.2071 -1.2353
  771MOL0     C 6293  10.702   9.453  11.181  1.6755  0.0993 -0.3514
  771MOL0     C 6294  10.747   9.324  11.203  0.5138 -0.5931 -0.5677
  771MOL0     C 6295  10.851   9.274  11.134 -0.1019 -1.2670  0.9643
  771MOL0     O 6296  10.902   9.153  11.138  0.4638 -0.0611  0.0754
  771MOL0     C 6297  10.932   9.104  11.264  0.2866  0.3663  0.1032
  771MOL0     C 6298  11.044   8.992  11.253  0.4218  0.3604 -0.2651
  771MOL0     C 6299  11.120   8.981  11.385  0.5199  0.4604  0.4932
  771MOL0     C 6300  11.241   8.887  11.389 -0.1538 -0.8426  0.9109
  771MOL0     C 6301  11.321   8.891  11.518  1.4452  0.0315 -0.8472
  771MOL0     C 6302  11.428   8.777  11.526 -0.1807 -0.2746 -0.4847
  771MOL0     C 6303  11.548   8.798  11.429 -0.0497 -0.9698 -0.2772
  771MOL0     C 6304  11.643   8.688  11.428 -0.3645 -0.0685  0.1402
  771MOL0    Cl 6305  11.590   8.545  11.333 -0.8058 -0.2388 -0.3784
  771MOL0     C 6306  10.900   9.363  11.043 -1.3750 -0.8829  1.0172
  771MOL0     C 6307  10.862   9.496  11.017  0.7044 -0.4052  0.4470
  771MOL0     O 6308  10.903   9.786  11.083 -0.1764 -0.4032 -0.7680
  771MOL0     C 6309  10.788   9.987  10.922  0.3191 -0.6382  0.8059
  771MOL0     C 6310  10.729  10.095  10.849 -0.2755 -0.5886 -0.2228
  771MOL0     N 6311  10.444  10.805  10.560  0.4548 -0.0899  0.0559
  771MOL0     N 6312  10.531  10.869  10.487 -0.3918 -0.3116  0.6838
  771MOL0     C 6313  11.141  11.217   9.412  0.2862  0.0639  0.5506
  771MOL0     C 6314  11.233  11.218   9.309 -0.5669  0.3454  0.5609
  771MOL0     C 6315  11.680  11.213   9.148 -0.9179 -0.1307  0.0892
  771MOL0     C 6316  11.775  11.117   9.093  0.2474 -0.2331  0.8200
  771MOL0     C 6317  11.891  11.152   9.024 -0.3529  0.0702 -0.3832
  771MOL0     C 6318  11.920  11.292   9.005 -1.0482  0.5840  0.2024
  771MOL0     O 6319  12.049  11.317   8.951  0.9470 -0.0289  0.6543
  771MOL0     C 6320  12.076  11.455   8.911  0.5197  0.4476 -0.2640
  771MOL0     C 6321  12.208  11.452   8.832 -0.2544  0.4480 -0.5885
  771MOL0     C 6322  12.197  11.360   8.708 -0.0005 -0.2418 -1.1873
  771MOL0     C 6323  12.320  11.399   8.611  0.8243 -0.5714  0.2293
  771MOL0     C 6324  12.296  11.340   8.481 -0.1518  0.4317  0.8050
  771MOL0     C 6325  12.282  11.284   8.373 -0.2983 -0.1103  1.1793
  771MOL0     C 6326  11.832  11.380   9.058  1.0217 -0.4849  1.0594
  771MOL0     C 6327  11.707  11.346   9.120  1.1935 -0.2466 -0.7623
  771MOL0     C 6328  11.619  11.459   9.163  0.2540  0.1085  0.4029
  771MOL0     H 6329  11.516  11.205   9.491 -0.3460  0.6795  2.2485
  771MOL0     H 6330  11.352  11.239   9.679  0.5782 -1.5661 -0.8175
  771MOL0     H 6331  11.197  11.347   9.765 -0.8577  1.5067  1.1522
  771MOL0     H 6332  11.131  11.195   9.842  0.7656  0.8081  0.3403
  771MOL0     H 6333  11.058  11.397   9.934  0.6225 -0.5710  0.1684
  771MOL0     H 6334  10.974  11.451   9.799  1.9251  1.1822  0.0801
  771MOL0     H 6335  10.805  11.334   9.931 -1.7116 -2.5293  0.7259
  771MOL0     H 6336  10.828  11.233   9.795  1.3170  1.4131 -0.9184
  771MOL0     H 6337  10.983  11.084   9.937 -0.1341  0.1201 -0.3868
  771MOL0     H 6338  10.948  11.196  10.071  2.0912 -0.6876 -0.7493
  771MOL0     H 6339  10.741  11.022   9.926  3.0180 -3.1563 -0.1975
  771MOL0     H 6340  10.690  11.142  10.044  0.0994  0.5056 -1.8102
  771MOL0     H 6341  10.880  10.910  10.106 -0.0464  0.0359  2.9575
  771MOL0     H 6342  10.842  11.037  10.214  0.5569 -1.7059  1.6491
  771MOL0     H 6343  10.639  10.841  10.087  2.6828  1.3283 -3.9145
  771MOL0     H 6344  10.594  10.973  10.185 -1.0595 -0.9675 -1.6133
  771MOL0     H 6345  10.752  10.720  10.262  2.0437  0.1604  0.6348
  771MOL0     H 6346  10.779  10.863  10.357  1.5996 -1.3391 -0.2473
  771MOL0     H 6347  10.546  10.584  10.349 -0.6260  0.5400 -0.5886
  771MOL0     H 6348  10.292  10.537  10.504 -0.8359 -2.2705  2.2818
  771MOL0     H 6349  10.313  10.610  10.666  0.8802 -1.0623  0.5233
  771MOL0     H 6350  10.379  10.364  10.606 -2.0677  1.3338 -2.6514
  771MOL0     H 6351  10.521  10.424  10.526 -0.7948  1.8877 -0.1642
  771MOL0     H 6352  10.588  10.559  10.753  2.5476 -2.1817  1.6683
  771MOL0     H 6353  10.445  10.483  10.823  1.6636 -1.9200  2.6744
  771MOL0     H 6354  10.687  10.341  10.726 -2.6064  1.2866 -1.2860
  771MOL0     H 6355  10.661  10.403  10.890 -2.7266  0.7994  1.9378
  771MOL0     H 6356  10.427  10.094  11.007  0.8591 -0.7159  2.9957
  771MOL0     H 6357  10.385   9.890  11.138 -0.8101 -3.8451  1.6982
  771MOL0     H 6358  10.536   9.905  11.232  4.7837 -0.9787 -1.2244
  771MOL0     H 6359  10.488   9.758  11.144 -2.5243  1.1736 -2.2587
  771MOL0     H 6360  10.623   9.492  11.244  1.8767  0.3547 -0.2531
  771MOL0     H 6361  10.699   9.277  11.289  0.3789 -0.4612 -0.5695
  771MOL0     H 6362  10.952   9.186  11.333  0.7235  0.7685 -0.4841
  771MOL0     H 6363  10.836   9.064  11.296 -0.2254  1.0242 -0.5977
  771MOL0     H 6364  10.993   8.901  11.219 -2.1204  1.5783  0.0094
  771MOL0     H 6365  11.114   9.033  11.180  4.1367 -0.4828  2.5718
  771MOL0     H 6366  11.053   8.957  11.468 -2.3266 -0.9094 -2.0106
  771MOL0     H 6367  11.157   9.083  11.403 -1.2687  1.4572 -1.0538
  771MOL0     H 6368  11.301   8.902  11.299 -0.3543 -0.3618  0.8548
  771MOL0     H 6369  11.216   8.782  11.374 -0.8875 -0.9741  2.7642
  771MOL0     H 6370  11.372   8.985  11.541 -1.0608  0.9801  1.2382
  771MOL0     H 6371  11.250   8.876  11.600  3.8368 -0.9186  1.1945
  771MOL0     H 6372  11.383   8.680  11.501 -1.6244  0.2207  0.0884
  771MOL0     H 6373  11.462   8.778  11.630 -3.8403  0.0728  0.8560
  771MOL0     H 6374  11.594   8.894  11.453 -2.9502  0.3370  0.5517
  771MOL0     H 6375  11.510   8.799  11.326 -1.6978  0.1673  0.2972
  771MOL0     H 6376  11.691   8.674  11.525 -0.2611 -1.1096 -0.0409
  771MOL0     H 6377  11.720   8.725  11.360  0.5539 -2.1667 -0.0664
  771MOL0     H 6378  10.972   9.326  10.971 -2.4840 -1.4487  0.1814
  771MOL0     H 6379  10.905   9.567  10.947  0.4213 -0.2654  0.4160
  771MOL0     H 6380  10.894   9.966  10.916  0.0889 -1.7969  0.5462
  771MOL0     H 6381  10.785  10.163  10.786 -1.5452  2.0777  1.3140
  771MOL0     H 6382  11.034  11.213   9.397  0.2920 -1.2006  0.7945
  771MOL0     H 6383  11.207  11.207   9.205 -2.2474 -2.8513  1.2034
  771MOL0     H 6384  11.751  11.011   9.098 -0.5896 -0.1586 -0.8809
  771MOL0     H 6385  11.951  11.077   8.975 -2.4944 -1.2785 -1.0989
  771MOL0     H 6386  11.982  11.478   8.861 -0.4204 -2.5477 -0.1083
  771MOL0     H 6387  12.089  11.518   8.999 -0.8439  1.9185 -1.0638
  771MOL0     H 6388  12.292  11.417   8.893 -0.1151  0.3900 -0.8089
  771MOL0     H 6389  12.220  11.560   8.818  1.6243  0.1391 -1.7186
  771MOL0     H 6390  12.205  11.256   8.742  4.2632 -0.3267 -1.8305
  771MOL0     H 6391  12.094  11.363   8.674 -0.4870 -2.1896 -0.0837
  771MOL0     H 6392  12.410  11.355   8.656  0.4509 -1.9081 -0.2925
  771MOL0     H 6393  12.327  11.507   8.593 -2.1836 -0.4871 -0.8853
  771MOL0     H 6394  12.270  11.228   8.283 -2.2124 -0.5012  1.6241
  771MOL0     H 6395  11.863  11.482   9.042  4.7178 -1.5920  0.3738
  771MOL0     H 6396  11.656  11.558   9.134 -2.4545  0.9926 -0.3364
  771MOL0     H 6397  11.524  11.467   9.109  0.4156  1.4033  0.2753
  771MOL0     H 6398  11.606  11.460   9.271  0.5289 -3.4569  0.5641
  772MOL0     O 6399   5.399   6.260   0.308 -0.2605  0.7133 -0.4408
  772MOL0     C 6400   5.304   6.338   0.284  0.0495  0.1978  0.0751
  772MOL0     O 6401   5.177   6.325   0.339  0.1359  0.0780  0.6995
  772MOL0     C 6402   5.142   6.234   0.442 -0.4259  0.1344 -0.0119
  772MOL0     C 6403   5.222   6.152   0.518  0.2590  0.2282 -0.1579
  772MOL0     C 6404   5.168   6.068   0.606 -0.0516  0.1482 -0.6767
  772MOL0     C 6405   5.037   6.062   0.637  0.4248  0.4817 -0.4584
  772MOL0     O 6406   4.998   5.961   0.730  0.3943 -0.2666  0.4828
  772MOL0     C 6407   4.859   5.952   0.769 -0.0732 -1.2784 -0.2894
  772MOL0     C 6408   4.843   5.871   0.893 -0.2791 -0.0637 -0.2208
  772MOL0     C 6409   4.691   5.820   0.933 -0.8862  0.2124 -0.2707
  772MOL0     C 6410   4.586   5.928   0.913  0.1232 -0.4494 -0.2698
  772MOL0     C 6411   4.469   5.914   1.007 -0.9914  0.0776  0.1787
  772MOL0     C 6412   4.504   5.936   1.154  0.4095  0.3269 -0.6411
  772MOL0     C 6413   4.366   5.938   1.235 -0.0972  0.0298  1.0020
  772MOL0     C 6414   4.329   5.798   1.297  0.7898 -0.3513 -0.3980
  772MOL0     N 6415   4.195   5.788   1.362 -0.1713 -0.2241 -0.6951
  772MOL0     C 6416   4.096   5.878   1.388 -0.2400 -0.0204  0.3459
  772MOL0     C 6417   4.003   5.820   1.470 -0.9009 -0.4467  0.1708
  772MOL0     C 6418   3.905   5.895   1.539  0.2965  0.1894 -0.8346
  772MOL0     C 6419   3.775   5.906   1.469  0.6058 -0.6006 -0.4326
  772MOL0     C 6420   3.714   6.052   1.470 -0.1762  0.5510  0.9980
  772MOL0     C 6421   3.809   6.156   1.417  0.1155 -0.3044  0.0930
  772MOL0     O 6422   3.857   6.109   1.289 -0.2158  0.2056  0.5194
  772MOL0     C 6423   3.966   6.172   1.237  0.1096 -0.1131  0.0135
  772MOL0     C 6424   4.053   6.277   1.298 -0.4353  0.3480 -0.2024
  772MOL0     C 6425   4.155   6.344   1.218 -0.1871 -0.1251 -0.0654
  772MOL0     C 6426   4.249   6.439   1.290  0.6488  0.6299 -0.6446
  772MOL0     C 6427   4.172   6.310   1.083 -1.1852 -0.2547 -0.1194
  772MOL0     C 6428   4.288   6.352   1.003 -0.5272  1.1132  0.3416
  772MOL0     O 6429   4.257   6.365   0.866 -0.2876  0.0885 -0.1854
  772MOL0     C 6430   4.338   6.412   0.766  0.0967 -0.7610 -0.0564
  772MOL0     C 6431   4.298   6.509   0.667  1.0772  0.2597  0.0543
  772MOL0     C 6432   4.395   6.561   0.576 -0.4526  0.1832 -0.4169
  772MOL0     C 6433   4.530   6.520   0.583  0.0827  0.5962  0.3308
  772MOL0     O 6434   4.629   6.531   0.489  0.0026  0.0656 -0.3786
  772MOL0     C 6435   4.647   6.666   0.455  0.6636 -0.4931  0.4135
  772MOL0     C 6436   4.756   6.730   0.541  0.3263 -0.2406  0.8947
  772MOL0     C 6437   4.895   6.682   0.500 -0.0034 -0.1662 -0.1736
  772MOL0     C 6438   5.014   6.731   0.586  0.1953 -0.6395  0.7792
  772MOL0     C 6439   5.150   6.682   0.530  0.5946 -0.0251 -0.1318
  772MOL0     C 6440   5.278   6.759   0.586 -0.1382  1.1798 -0.2218
  772MOL0     C 6441   5.404   6.683   0.542 -0.6967  0.0113  1.1373
  772MOL0     C 6442   5.464   6.751   0.412  0.4841 -0.3514 -0.6098
  772MOL0    Cl 6443   5.640   6.710   0.391  0.0641  0.4616  0.0222
  772MOL0     C 6444   4.559   6.409   0.667  0.4007 -0.2528 -0.0950
  772MOL0     C 6445   4.459   6.361   0.752 -0.2382 -0.1896 -0.2733
  772MOL0     O 6446   4.406   6.344   1.049  0.8277  0.1584  0.2421
  772MOL0     C 6447   4.086   6.212   1.039 -0.0225  0.5995 -0.7712
  772MOL0     C 6448   3.993   6.144   1.110  0.5574 -0.3125 -0.2673
  772MOL0     N 6449   4.046   5.696   1.500 -0.5691 -0.0777  0.4322
  772MOL0     N 6450   4.158   5.680   1.439 -1.4970 -0.0754  0.1590
  772MOL0     C 6451   4.952   6.159   0.579 -0.0783 -1.1058 -0.8526
  772MOL0     C 6452   5.013   6.246   0.481  0.9493  0.7425  0.5219
  772MOL0     C 6453   5.317   6.445   0.182  1.1464  1.3102  0.6528
  772MOL0     C 6454   5.203   6.532   0.166 -0.3523 -0.3162  0.1179
  772MOL0     C 6455   5.203   6.639   0.082  1.3358 -0.8594  0.2084
  772MOL0     C 6456   5.316   6.660   0.005 -0.1024 -0.2844  0.6548
  772MOL0     O 6457   5.308   6.765  -0.083  0.3983 -0.7755 -0.0524
  772MOL0     C 6458   5.432   6.849  -0.090  0.0387  0.0674 -0.1655
  772MOL0     C 6459   5.430   6.913  -0.226 -0.0528 -0.4425  0.8640
  772MOL0     C 6460   5.315   7.014  -0.244  0.1697  1.4894  0.3108
  772MOL0     C 6461   5.321   7.054  -0.394 -0.5624  0.4767 -0.4831
  772MOL0     C 6462   5.235   6.979  -0.487  0.6308 -0.3099  0.1172
  772MOL0     C 6463   5.168   6.937  -0.575  0.9888  0.2131  0.1981
  772MOL0     C 6464   5.428   6.578   0.015 -0.1758 -0.2593 -0.5758
  772MOL0     C 6465   5.424   6.473   0.105 -0.6819  0.4570 -1.0058
  772MOL0     C 6466   5.559   6.399   0.118 -0.0038  0.3699 -0.5068
  772MOL0     H 6467   5.328   6.132   0.511 -0.1933 -1.8495 -2.7613
  772MOL0     H 6468   5.236   5.988   0.636 -0.8547 -0.0600  0.6301
  772MOL0     H 6469   4.804   5.904   0.687 -0.4045 -2.3874  0.5490
  772MOL0     H 6470   4.823   6.052   0.795  1.3764 -0.9802  0.7136
  772MOL0     H 6471   4.907   5.782   0.885 -0.1527 -0.3764  2.9978
  772MOL0     H 6472   4.881   5.931   0.976 -2.3466 -0.3800  1.0261
  772MOL0     H 6473   4.670   5.728   0.877 -2.4694  0.3572  0.0507
  772MOL0     H 6474   4.693   5.801   1.041 -1.6356  2.7191  0.2566
  772MOL0     H 6475   4.634   6.025   0.925  0.1075 -0.5830  1.0204
  772MOL0     H 6476   4.543   5.930   0.813  1.4407  2.2856 -0.8530
  772MOL0     H 6477   4.434   5.811   0.998 -1.5864  0.3685 -1.0080
  772MOL0     H 6478   4.384   5.980   0.984 -0.6389  1.9007  3.5214
  772MOL0     H 6479   4.570   5.861   1.198  1.3199  1.4181 -0.0761
  772MOL0     H 6480   4.542   6.038   1.167  0.8932  0.2010 -1.0290
  772MOL0     H 6481   4.281   5.967   1.173  0.8981  3.6105  1.0475
  772MOL0     H 6482   4.378   6.007   1.319  1.7739  3.4447 -1.7785
  772MOL0     H 6483   4.326   5.731   1.210  2.5775 -0.9296 -0.0371
  772MOL0     H 6484   4.395   5.764   1.377  2.0705  0.0910 -1.2292
  772MOL0     H 6485   4.109   5.979   1.353  0.2050 -0.3138 -0.3542
  772MOL0     H 6486   3.947   5.993   1.563 -1.8765  0.1430  4.4614
  772MOL0     H 6487   3.908   5.857   1.641 -0.0595  0.8462 -0.5702
  772MOL0     H 6488   3.779   5.866   1.367  3.2142  0.3375 -0.7920
  772MOL0     H 6489   3.702   5.844   1.522 -2.9015  3.6913  0.3069
  772MOL0     H 6490   3.619   6.049   1.416 -0.8738 -0.6947  2.2357
  772MOL0     H 6491   3.688   6.075   1.574  4.5279  2.8166  1.9444
  772MOL0     H 6492   3.756   6.247   1.388 -0.1660 -0.5915 -0.3001
  772MOL0     H 6493   3.881   6.183   1.495 -2.0009 -0.0740  2.0971
  772MOL0     H 6494   4.058   6.280   1.407  3.3482  0.1358 -0.2157
  772MOL0     H 6495   4.334   6.379   1.322  0.6596 -0.5091 -2.6853
  772MOL0     H 6496   4.198   6.487   1.374  0.9029 -0.5548  0.2194
  772MOL0     H 6497   4.287   6.522   1.230 -1.3548  2.2456  0.1808
  772MOL0     H 6498   4.197   6.547   0.676  1.4907  1.1646  1.1068
  772MOL0     H 6499   4.375   6.631   0.495  0.9759 -2.5772 -3.4166
  772MOL0     H 6500   4.669   6.667   0.348  0.3898 -0.0730  0.3577
  772MOL0     H 6501   4.557   6.728   0.461  1.0037 -0.0538  1.1456
  772MOL0     H 6502   4.765   6.839   0.529 -1.4833 -0.2663 -1.2450
  772MOL0     H 6503   4.719   6.694   0.638 -1.9080 -4.1944 -1.1866
  772MOL0     H 6504   4.924   6.686   0.394  1.4105 -0.6952  0.1808
  772MOL0     H 6505   4.904   6.577   0.527  0.8335  0.1957  1.0198
  772MOL0     H 6506   4.995   6.699   0.689  5.2103 -2.0294  1.5271
  772MOL0     H 6507   5.016   6.841   0.587 -1.8653 -0.5228 -1.0921
  772MOL0     H 6508   5.150   6.575   0.553 -0.2007 -0.1948 -0.8349
  772MOL0     H 6509   5.144   6.697   0.421  0.4717  0.8724 -0.0104
  772MOL0     H 6510   5.264   6.757   0.695  3.3417  0.5953  0.3261
  772MOL0     H 6511   5.283   6.864   0.556 -0.2915  0.7832 -1.7207
  772MOL0     H 6512   5.379   6.580   0.517 -0.2571 -0.8348  3.7829
  772MOL0     H 6513   5.474   6.680   0.627  1.6432  0.6898 -0.6534
  772MOL0     H 6514   5.451   6.859   0.417  1.5041 -0.2863  2.6554
  772MOL0     H 6515   5.414   6.712   0.322  1.7512 -3.4497 -0.1060
  772MOL0     H 6516   4.662   6.376   0.674  0.1710 -0.9507  0.0744
  772MOL0     H 6517   4.500   6.292   0.825  1.5536  1.5699  0.5032
  772MOL0     H 6518   4.112   6.188   0.936 -0.6407  0.8711 -0.9971
  772MOL0     H 6519   3.935   6.062   1.068 -3.0522  2.5841 -1.4675
  772MOL0     H 6520   4.845   6.166   0.593  0.3296  1.5067  1.7149
  772MOL0     H 6521   4.949   6.325   0.444 -0.7789 -0.9767 -0.3627
  772MOL0     H 6522   5.114   6.518   0.226  1.2103 -1.8906  2.2557
  772MOL0     H 6523   5.111   6.697   0.077  1.0483 -1.3568 -0.5186
  772MOL0     H 6524   5.427   6.925  -0.012  1.0281  1.0128 -0.9974
  772MOL0     H 6525   5.524   6.791  -0.078 -0.4909 -0.4976  1.6481
  772MOL0     H 6526   5.437   6.850  -0.315  0.7621 -0.5338  0.9868
  772MOL0     H 6527   5.528   6.958  -0.240 -0.8694  0.9786 -0.6520
  772MOL0     H 6528   5.213   6.981  -0.228  0.0942  2.6360  2.5905
  772MOL0     H 6529   5.330   7.099  -0.176 -0.6853 -0.2718  2.8324
  772MOL0     H 6530   5.420   7.051  -0.441  0.2508  0.6523  1.1754
  772MOL0     H 6531   5.285   7.155  -0.414  1.7217  0.7632 -4.2278
  772MOL0     H 6532   5.111   6.892  -0.655  1.4554 -1.2448  0.6449
  772MOL0     H 6533   5.522   6.604  -0.032 -1.5229 -1.3662 -4.2557
  772MOL0     H 6534   5.595   6.399   0.221 -2.6156 -3.5976  0.6331
  772MOL0     H 6535   5.544   6.295   0.087 -0.4648  0.3476 -0.2205
  772MOL0     H 6536   5.632   6.428   0.043  0.3920  4.3390  1.1548
  773MOL0     O 6537   9.571   1.243   1.578 -0.7319  0.2259  0.3532
  773MOL0     C 6538   9.537   1.171   1.484 -0.6638 -0.0230  0.0817
  773MOL0     O 6539   9.541   1.038   1.478  0.1777  0.3054  0.5677
  773MOL0     C 6540   9.577   0.976   1.593 -0.4599 -0.0094 -0.8715
  773MOL0     C 6541   9.485   0.964   1.700  0.1782 -0.2499  0.5613
  773MOL0     C 6542   9.524   0.908   1.827 -1.3226 -0.6166  0.3565
  773MOL0     C 6543   9.672   0.893   1.849  1.3160 -0.6387  0.3603
  773MOL0     O 6544   9.728   0.861   1.972  1.3553  0.1445  0.3842
  773MOL0     C 6545   9.661   0.918   2.091 -0.3166  0.3770  0.1291
  773MOL0     C 6546   9.589   0.832   2.194 -0.8571 -0.1524 -0.1835
  773MOL0     C 6547   9.488   0.916   2.277  0.0627  0.3290 -0.7450
  773MOL0     C 6548   9.352   0.958   2.205 -0.8944 -0.1959  0.2701
  773MOL0     C 6549   9.247   1.027   2.296  0.0901 -0.5344 -0.2915
  773MOL0     C 6550   9.218   0.941   2.423  0.6006 -0.1553 -0.0266
  773MOL0     C 6551   9.140   0.817   2.385 -0.5192 -0.3658  1.0824
  773MOL0     C 6552   8.992   0.827   2.379  0.8502 -0.5727  0.0395
  773MOL0     N 6553   8.918   0.853   2.500 -0.1028  0.2854 -0.9333
  773MOL0     C 6554   8.800   0.917   2.497  0.7325 -0.2891 -0.6263
  773MOL0     C 6555   8.768   0.907   2.628  0.4146 -0.2888 -0.4472
  773MOL0     C 6556   8.636   0.973   2.689  0.1224 -0.2807 -0.0689
  773MOL0     C 6557   8.609   1.118   2.644 -1.0808  0.5127  0.9652
  773MOL0     C 6558   8.724   1.223   2.652  0.0858  0.1193 -0.9288
  773MOL0     C 6559   8.786   1.226   2.802  1.0210  0.2986 -0.0759
  773MOL0     O 6560   8.844   1.346   2.817 -0.0880  0.1141  0.0560
  773MOL0     C 6561   8.974   1.370   2.799 -1.1295  0.7403  0.5964
  773MOL0     C 6562   9.071   1.289   2.732  0.8868  0.0199  0.2829
  773MOL0     C 6563   9.201   1.338   2.699  0.2026 -0.2936  0.0318
  773MOL0     C 6564   9.309   1.238   2.648  0.8196 -0.6475  0.2978
  773MOL0     C 6565   9.240   1.463   2.756  0.3524 -0.1856 -0.0208
  773MOL0     C 6566   9.367   1.524   2.736  0.2736  0.3639 -0.4865
  773MOL0     O 6567   9.438   1.550   2.852 -0.0340 -0.3076  0.2553
  773MOL0     C 6568   9.544   1.645   2.856 -0.7022  0.0308 -0.0632
  773MOL0     C 6569   9.566   1.723   2.973 -0.1019 -0.7889 -1.3262
  773MOL0     C 6570   9.682   1.805   2.986  0.2587  0.5614 -0.0650
  773MOL0     C 6571   9.777   1.804   2.886 -0.1907  0.9231  0.1871
  773MOL0     O 6572   9.904   1.856   2.895 -0.0398  0.2954 -0.5339
  773MOL0     C 6573   9.911   1.990   2.928  0.0846 -0.1842  1.4200
  773MOL0     C 6574  10.068   2.024   2.940 -0.5853 -0.8224 -0.4631
  773MOL0     C 6575  10.145   2.014   2.806 -0.1596 -0.6773  0.1697
  773MOL0     C 6576  10.155   2.142   2.724  0.2744  0.7246  1.1442
  773MOL0     C 6577  10.242   2.245   2.781 -0.5565 -0.2097  0.9384
  773MOL0     C 6578  10.243   2.359   2.671  0.4671  1.3350  0.2143
  773MOL0     C 6579  10.315   2.491   2.717 -0.1054 -0.0521  0.3316
  773MOL0     C 6580  10.447   2.452   2.785 -0.5462 -0.1053 -0.7838
  773MOL0    Cl 6581  10.581   2.572   2.757  0.0682 -0.6442  0.4612
  773MOL0     C 6582   9.765   1.706   2.783 -0.2708 -0.3604  0.5805
  773MOL0     C 6583   9.647   1.630   2.760  0.4339 -0.2005 -0.4922
  773MOL0     O 6584   9.407   1.548   2.619  0.1902  0.4351 -0.1368
  773MOL0     C 6585   9.143   1.547   2.815 -0.0690  0.5201 -0.7117
  773MOL0     C 6586   9.013   1.494   2.831  0.3745 -1.0572 -0.5655
  773MOL0     N 6587   8.857   0.839   2.702 -0.1024 -0.1632 -0.3108
  773MOL0     N 6588   8.943   0.797   2.623 -0.5154 -0.8916  0.6568
  773MOL0     C 6589   9.755   0.890   1.742 -0.0815  0.7319  0.0014
  773MOL0     C 6590   9.703   0.927   1.618  0.7396  0.9816  0.7426
  773MOL0     C 6591   9.483   1.230   1.360 -0.1402 -0.0772 -0.0857
  773MOL0     C 6592   9.538   1.196   1.231  0.2240  0.3340 -0.9998
  773MOL0     C 6593   9.487   1.253   1.112 -0.7050 -0.5953  0.0551
  773MOL0     C 6594   9.382   1.343   1.111  1.3144 -0.1694 -1.6428
  773MOL0     O 6595   9.328   1.400   0.995  0.6653  0.3979  0.4475
  773MOL0     C 6596   9.272   1.527   1.015 -0.0900  0.1216  0.6206
  773MOL0     C 6597   9.307   1.641   0.916  0.1876 -0.0909  0.0980
  773MOL0     C 6598   9.455   1.638   0.864 -0.4745 -0.5235  0.1273
  773MOL0     C 6599   9.499   1.531   0.765  0.4658  0.6745  0.1856
  773MOL0     C 6600   9.411   1.526   0.650 -0.0600 -0.5267  1.0924
  773MOL0     C 6601   9.315   1.516   0.578 -0.8346  1.0026  0.4983
  773MOL0     C 6602   9.319   1.361   1.241  0.1073 -0.2666  0.9918
  773MOL0     C 6603   9.369   1.307   1.358  0.7272  0.7506 -0.1547
  773MOL0     C 6604   9.291   1.331   1.481 -0.5334  0.5708  0.1521
  773MOL0     H 6605   9.386   1.004   1.681  0.2198 -0.3202  0.1883
  773MOL0     H 6606   9.448   0.918   1.905  0.5826  1.4885  2.0932
  773MOL0     H 6607   9.597   1.001   2.060  0.4372  1.3555  1.1147
  773MOL0     H 6608   9.737   0.970   2.151 -0.2662  0.1525  0.2624
  773MOL0     H 6609   9.532   0.760   2.134 -1.0247 -2.3504  2.4373
  773MOL0     H 6610   9.665   0.789   2.260 -1.5217 -0.7382  0.2041
  773MOL0     H 6611   9.467   0.856   2.366  1.8946  2.0198  0.9112
  773MOL0     H 6612   9.556   0.993   2.315  2.0247 -1.7896  0.2871
  773MOL0     H 6613   9.384   1.020   2.120 -0.4645 -1.8867 -0.8347
  773MOL0     H 6614   9.323   0.865   2.157  4.7262 -0.4207 -3.6077
  773MOL0     H 6615   9.148   1.043   2.253 -1.5505 -1.6469  2.7493
  773MOL0     H 6616   9.298   1.116   2.335  0.2201 -0.6518 -0.1925
  773MOL0     H 6617   9.295   0.914   2.497 -1.0916 -2.2123  1.0889
  773MOL0     H 6618   9.159   1.003   2.491  2.7662  2.2414 -0.1664
  773MOL0     H 6619   9.162   0.740   2.459 -3.2346 -3.1681 -0.7590
  773MOL0     H 6620   9.186   0.778   2.294  2.4201  5.1435 -0.2500
  773MOL0     H 6621   8.963   0.910   2.313  1.8992 -0.6771 -0.5608
  773MOL0     H 6622   8.963   0.735   2.328 -0.0344  1.4534 -3.4530
  773MOL0     H 6623   8.753   0.965   2.411 -1.0881 -0.2399  0.3504
  773MOL0     H 6624   8.642   0.976   2.798  1.3728  3.7276 -0.0856
  773MOL0     H 6625   8.556   0.908   2.651  1.3911 -1.1750 -1.3335
  773MOL0     H 6626   8.573   1.123   2.541  0.0690 -0.5662  0.4815
  773MOL0     H 6627   8.536   1.154   2.717  0.7738  0.6485  2.8583
  773MOL0     H 6628   8.796   1.189   2.577  0.4036  0.1538 -0.6436
  773MOL0     H 6629   8.682   1.323   2.638  0.1248  0.2432 -0.2147
  773MOL0     H 6630   8.704   1.224   2.875  0.4216  2.9315 -0.6040
  773MOL0     H 6631   8.850   1.140   2.825 -0.8870 -0.8833  1.1936
  773MOL0     H 6632   9.044   1.191   2.696  0.8549 -0.2501  1.0294
  773MOL0     H 6633   9.289   1.136   2.681 -0.4430 -0.0925  1.3624
  773MOL0     H 6634   9.412   1.269   2.669 -0.1725  2.1396  1.5977
  773MOL0     H 6635   9.298   1.238   2.539 -0.6293  4.1549  0.2200
  773MOL0     H 6636   9.485   1.730   3.044  1.0311 -0.9662  0.0145
  773MOL0     H 6637   9.705   1.873   3.069  2.7218  2.0476 -1.8172
  773MOL0     H 6638   9.854   2.054   2.861 -0.1236  1.8379  3.4049
  773MOL0     H 6639   9.867   2.014   3.025 -2.2715  2.0354 -0.0886
  773MOL0     H 6640  10.084   2.122   2.987  1.4081  0.6283 -3.7830
  773MOL0     H 6641  10.120   1.949   3.000 -0.1366 -1.1831 -1.2743
  773MOL0     H 6642  10.090   1.936   2.753 -0.4791 -1.2731  1.3371
  773MOL0     H 6643  10.249   1.982   2.823  1.5622  3.8982 -0.3669
  773MOL0     H 6644  10.057   2.189   2.720 -0.6604 -1.1717  0.8628
  773MOL0     H 6645  10.179   2.117   2.620 -1.5087 -1.3225  1.1615
  773MOL0     H 6646  10.216   2.287   2.879  0.9863 -0.7565  1.6189
  773MOL0     H 6647  10.340   2.196   2.777 -0.2375  0.3914  1.3111
  773MOL0     H 6648  10.136   2.382   2.667 -0.5224 -2.0898  2.3714
  773MOL0     H 6649  10.280   2.329   2.573 -0.7614  0.7439 -0.0981
  773MOL0     H 6650  10.249   2.555   2.776 -2.4906  1.8582 -3.9625
  773MOL0     H 6651  10.352   2.547   2.630  0.4341 -0.6424  0.1719
  773MOL0     H 6652  10.473   2.354   2.746  0.9586  0.0512 -0.2340
  773MOL0     H 6653  10.436   2.456   2.894 -0.0307 -0.1697 -0.7283
  773MOL0     H 6654   9.842   1.700   2.707 -0.9907 -2.0164 -0.0520
  773MOL0     H 6655   9.629   1.549   2.690 -0.5986 -0.0732 -0.3984
  773MOL0     H 6656   9.165   1.647   2.850  1.7842 -0.1389  0.1297
  773MOL0     H 6657   8.943   1.562   2.878  1.4936 -0.0090 -0.3697
  773MOL0     H 6658   9.861   0.865   1.751 -0.5782 -2.0180 -0.9580
  773MOL0     H 6659   9.784   0.929   1.547  1.0697  0.6010  1.1050
  773MOL0     H 6660   9.629   1.138   1.247 -0.7675 -1.3234 -1.1686
  773MOL0     H 6661   9.522   1.229   1.012  1.3152  3.6052 -0.4805
  773MOL0     H 6662   9.163   1.521   1.027 -0.4087 -0.8795 -2.0806
  773MOL0     H 6663   9.310   1.557   1.113 -0.1535  1.4071  0.2774
  773MOL0     H 6664   9.282   1.739   0.958 -0.9730 -0.3292  0.0200
  773MOL0     H 6665   9.239   1.632   0.831  1.5779 -0.4869 -0.9969
  773MOL0     H 6666   9.476   1.743   0.840  0.1029 -0.6637  0.0086
  773MOL0     H 6667   9.517   1.623   0.953 -0.9332 -0.5196  0.4455
  773MOL0     H 6668   9.505   1.437   0.820  2.1810  0.9975  0.6126
  773MOL0     H 6669   9.597   1.575   0.741  3.3840 -3.8727  2.3261
  773MOL0     H 6670   9.236   1.508   0.507 -0.2925  1.9618 -0.2446
  773MOL0     H 6671   9.229   1.422   1.239 -0.9491 -1.7948 -0.2319
  773MOL0     H 6672   9.189   1.364   1.461 -1.3314 -1.9838 -0.3122
  773MOL0     H 6673   9.279   1.239   1.540  2.0102 -0.0903 -0.2300
  773MOL0     H 6674   9.337   1.406   1.547 -3.7095  1.2666  1.7381
  774MOL0     O 6675   8.020   6.462   5.719  0.1661  0.1045  0.4401
  774MOL0     C 6676   8.030   6.536   5.618 -0.0812 -0.8569 -0.3175
  774MOL0     O 6677   8.156   6.584   5.569 -0.2880 -0.3690 -0.6103
  774MOL0     C 6678   8.258   6.555   5.662  0.6940  0.3309  0.1927
  774MOL0     C 6679   8.302   6.652   5.758 -0.0035 -0.2480 -0.4522
  774MOL0     C 6680   8.398   6.615   5.857  0.5633 -0.0803  0.0422
  774MOL0     C 6681   8.444   6.482   5.860 -0.7982 -0.6338 -0.6824
  774MOL0     O 6682   8.539   6.454   5.958  0.1184 -0.5467 -0.5001
  774MOL0     C 6683   8.567   6.313   5.978 -0.2482 -0.1412 -0.5894
  774MOL0     C 6684   8.654   6.303   6.105 -0.2334  0.1238  1.1890
  774MOL0     C 6685   8.730   6.171   6.113  0.6134  0.1347  0.4703
  774MOL0     C 6686   8.655   6.062   6.175  1.1245  0.6227 -0.0392
  774MOL0     C 6687   8.747   5.962   6.227  0.4626  0.1029  0.1113
  774MOL0     C 6688   8.673   5.852   6.309 -0.0655 -0.3027  0.2434
  774MOL0     C 6689   8.753   5.729   6.330 -1.0233  0.3907  0.6629
  774MOL0     C 6690   8.700   5.617   6.427  0.0627 -0.1301  0.2943
  774MOL0     N 6691   8.701   5.674   6.562  0.2070  0.8460  0.9792
  774MOL0     C 6692   8.600   5.690   6.644  0.0762 -0.1368  0.9914
  774MOL0     C 6693   8.647   5.736   6.758  0.3959 -0.3299 -0.0474
  774MOL0     C 6694   8.568   5.735   6.890 -0.4325  0.6090 -0.6764
  774MOL0     C 6695   8.618   5.837   6.997  0.9067  0.9206 -0.4682
  774MOL0     C 6696   8.571   5.996   6.967  0.3142  1.1629 -0.8996
  774MOL0     C 6697   8.603   6.078   7.093 -0.2622 -0.2934 -0.6892
  774MOL0     O 6698   8.545   6.208   7.078  0.0214 -0.8712  0.5118
  774MOL0     C 6699   8.565   6.294   7.180  0.4837  0.4469  0.0008
  774MOL0     C 6700   8.658   6.392   7.170  0.1050  0.5045 -0.5081
  774MOL0     C 6701   8.682   6.479   7.265 -0.3132 -1.0422  0.2352
  774MOL0     C 6702   8.784   6.597   7.239  0.0360 -0.9425 -0.4559
  774MOL0     C 6703   8.609   6.462   7.393 -0.4418 -0.4735 -0.4706
  774MOL0     C 6704   8.630   6.557   7.510  0.7553 -0.1300  0.7876
  774MOL0     O 6705   8.572   6.503   7.628 -0.1831 -0.6562  0.1503
  774MOL0     C 6706   8.571   6.559   7.752  0.0233 -0.0280 -0.1877
  774MOL0     C 6707   8.465   6.525   7.840  0.5496 -0.2600 -0.5645
  774MOL0     C 6708   8.459   6.591   7.958  1.0213 -0.3162 -0.2898
  774MOL0     C 6709   8.573   6.666   8.009 -0.0240  0.1524  0.0263
  774MOL0     O 6710   8.566   6.711   8.134 -0.7027 -0.3711 -0.0127
  774MOL0     C 6711   8.660   6.810   8.194 -0.1594 -0.2968 -0.0461
  774MOL0     C 6712   8.666   6.943   8.108  0.6616 -0.7097 -0.1736
  774MOL0     C 6713   8.749   7.056   8.180  0.7774 -0.1844  0.6726
  774MOL0     C 6714   8.894   7.018   8.154  0.0998 -0.4040  0.0259
  774MOL0     C 6715   8.983   7.128   8.225  0.1941  0.5532 -0.1264
  774MOL0     C 6716   9.125   7.131   8.171 -0.5180  0.4260 -1.0072
  774MOL0     C 6717   9.182   7.269   8.188 -0.3250 -0.1275  0.4775
  774MOL0     C 6718   9.336   7.270   8.183  0.4076 -0.3173  1.1276
  774MOL0    Cl 6719   9.403   7.214   8.325 -0.1133  0.0247 -0.1693
  774MOL0     C 6720   8.687   6.675   7.923 -0.1624  1.0020 -0.0440
  774MOL0     C 6721   8.676   6.643   7.796  0.3650 -0.3530 -0.1639
  774MOL0     O 6722   8.691   6.658   7.510 -0.9575  0.2315  0.2293
  774MOL0     C 6723   8.520   6.356   7.403  0.5501  0.2013 -0.2769
  774MOL0     C 6724   8.491   6.276   7.293 -0.6747 -0.9209  0.8731
  774MOL0     N 6725   8.783   5.741   6.748  0.1208 -0.4758 -0.1806
  774MOL0     N 6726   8.813   5.719   6.626  0.4767 -0.4053 -0.2983
  774MOL0     C 6727   8.402   6.393   5.768  0.8703  0.7210  0.5187
  774MOL0     C 6728   8.319   6.434   5.662  0.5188 -0.3597 -0.6710
  774MOL0     C 6729   7.915   6.580   5.524 -0.5016 -0.2343 -0.3279
  774MOL0     C 6730   7.958   6.663   5.415 -0.2550 -0.1428  0.2165
  774MOL0     C 6731   7.855   6.720   5.347  0.3673  1.2140  0.4930
  774MOL0     C 6732   7.714   6.703   5.376  1.1508  0.3463 -0.1113
  774MOL0     O 6733   7.624   6.782   5.311  0.6203 -0.6071  0.1891
  774MOL0     C 6734   7.663   6.849   5.187 -0.3469  0.0982  0.1404
  774MOL0     C 6735   7.543   6.895   5.111 -0.3942  0.6878  0.2729
  774MOL0     C 6736   7.482   6.767   5.037  0.4633 -0.3827 -1.4631
  774MOL0     C 6737   7.359   6.814   4.959  0.1119  0.1158 -0.1896
  774MOL0     C 6738   7.379   6.835   4.819 -0.2229  0.1422  0.2099
  774MOL0     C 6739   7.385   6.870   4.696 -0.7801 -0.0418 -0.4027
  774MOL0     C 6740   7.672   6.618   5.481 -0.6898  0.4273  0.7942
  774MOL0     C 6741   7.775   6.556   5.552  0.3059 -0.2140 -0.7116
  774MOL0     C 6742   7.714   6.485   5.676 -0.2154  0.3204 -0.1969
  774MOL0     H 6743   8.266   6.754   5.750  1.9468  0.4649 -0.8561
  774MOL0     H 6744   8.433   6.691   5.927  0.5058  0.6355 -0.6988
  774MOL0     H 6745   8.624   6.262   5.900 -1.3441  0.8845 -2.1111
  774MOL0     H 6746   8.476   6.260   6.006  0.8863 -0.6113  2.6885
  774MOL0     H 6747   8.731   6.381   6.105 -0.1246  0.1065 -1.1766
  774MOL0     H 6748   8.588   6.319   6.191 -1.9090  3.8435 -0.5206
  774MOL0     H 6749   8.749   6.140   6.010 -0.9093 -1.8032  0.7208
  774MOL0     H 6750   8.820   6.186   6.173  1.1977 -5.0423  1.3378
  774MOL0     H 6751   8.598   6.101   6.260  3.0515  3.8290 -0.0420
  774MOL0     H 6752   8.581   6.014   6.111  1.9181  0.0357 -0.5345
  774MOL0     H 6753   8.827   5.995   6.293  1.9465 -1.8946 -0.5872
  774MOL0     H 6754   8.810   5.923   6.147  1.7123  0.8081  0.7172
  774MOL0     H 6755   8.660   5.887   6.412  4.1848 -3.6719  2.2522
  774MOL0     H 6756   8.575   5.833   6.265  1.2921 -3.3008 -1.8579
  774MOL0     H 6757   8.855   5.751   6.363 -0.5427 -2.2896  1.2376
  774MOL0     H 6758   8.769   5.684   6.231  0.8481 -3.0966  2.3589
  774MOL0     H 6759   8.601   5.581   6.396  0.7840 -1.2931 -0.7232
  774MOL0     H 6760   8.761   5.527   6.416 -1.2561 -1.2794  1.8070
  774MOL0     H 6761   8.497   5.665   6.621  0.3533 -0.3356 -0.1035
  774MOL0     H 6762   8.594   5.637   6.933  2.1749  2.1052  1.4633
  774MOL0     H 6763   8.460   5.739   6.875 -0.3735  2.1520 -0.7695
  774MOL0     H 6764   8.573   5.806   7.092  2.0993 -0.6716 -0.3967
  774MOL0     H 6765   8.727   5.831   6.996  0.9286 -0.5514 -4.3300
  774MOL0     H 6766   8.628   6.026   6.879  0.2179  1.9464 -0.6990
  774MOL0     H 6767   8.464   6.002   6.944 -0.2258 -1.7718  0.3412
  774MOL0     H 6768   8.557   6.024   7.176  3.2074 -0.7813  1.0876
  774MOL0     H 6769   8.712   6.080   7.104 -0.4431 -2.4426  3.3769
  774MOL0     H 6770   8.706   6.406   7.074  0.6388  1.4257 -0.1128
  774MOL0     H 6771   8.734   6.691   7.265  2.0630 -0.6037  2.7625
  774MOL0     H 6772   8.800   6.606   7.131 -1.0813  0.7372 -0.5206
  774MOL0     H 6773   8.881   6.583   7.287 -0.5865  1.3312  1.7190
  774MOL0     H 6774   8.390   6.448   7.820  0.9350 -0.1863 -2.4661
  774MOL0     H 6775   8.379   6.576   8.030 -0.0060 -2.6515 -1.7811
  774MOL0     H 6776   8.643   6.834   8.299 -0.1281  2.6303 -0.6339
  774MOL0     H 6777   8.755   6.757   8.183  0.0210  0.2105 -1.0670
  774MOL0     H 6778   8.696   6.932   8.003  4.8935  1.7756  0.5415
  774MOL0     H 6779   8.560   6.972   8.101  0.5767 -0.8108  0.6140
  774MOL0     H 6780   8.719   7.046   8.285 -0.7094 -2.4634  0.1121
  774MOL0     H 6781   8.718   7.154   8.143 -0.2879 -0.8528 -0.2979
  774MOL0     H 6782   8.921   7.028   8.048  0.8820  3.8680  0.4609
  774MOL0     H 6783   8.922   6.920   8.193  1.4981 -0.3563 -0.8037
  774MOL0     H 6784   8.935   7.225   8.209  0.1656  0.7233  0.9292
  774MOL0     H 6785   8.976   7.105   8.332 -1.4243 -1.4278 -0.5976
  774MOL0     H 6786   9.150   7.098   8.070 -1.5864 -4.5669  0.1258
  774MOL0     H 6787   9.174   7.067   8.244  0.2988  2.0535 -0.0513
  774MOL0     H 6788   9.146   7.319   8.279 -1.2842 -2.7331  1.6466
  774MOL0     H 6789   9.139   7.325   8.104 -0.8495 -0.9239  0.1985
  774MOL0     H 6790   9.374   7.369   8.161  1.0597 -0.2434  2.5016
  774MOL0     H 6791   9.384   7.209   8.106 -0.9408  1.6833 -1.4303
  774MOL0     H 6792   8.773   6.708   7.981 -0.8699 -1.8983  2.9256
  774MOL0     H 6793   8.761   6.675   7.736 -2.9549  2.7166 -3.7981
  774MOL0     H 6794   8.464   6.327   7.492 -1.5935  0.7708 -1.3709
  774MOL0     H 6795   8.440   6.182   7.309  2.1019 -2.8666 -0.8089
  774MOL0     H 6796   8.443   6.292   5.762 -0.9291  0.0184 -3.1606
  774MOL0     H 6797   8.286   6.364   5.585  3.7504  0.9454 -3.5294
  774MOL0     H 6798   8.059   6.681   5.379 -0.3922  3.0340  1.1699
  774MOL0     H 6799   7.888   6.770   5.256  2.7597 -1.8458 -0.4825
  774MOL0     H 6800   7.724   6.938   5.208 -0.5508 -0.0601  1.4942
  774MOL0     H 6801   7.730   6.793   5.121 -1.4038 -0.6022 -0.3618
  774MOL0     H 6802   7.569   6.969   5.035  0.8539 -0.9126 -0.9157
  774MOL0     H 6803   7.474   6.939   5.184  0.7404  5.3734 -1.0918
  774MOL0     H 6804   7.559   6.730   4.968  1.4981 -0.9666 -0.0419
  774MOL0     H 6805   7.464   6.699   5.120  5.4991  0.3681  0.6238
  774MOL0     H 6806   7.331   6.907   5.009  0.3275  0.0294  0.0892
  774MOL0     H 6807   7.292   6.729   4.974  2.7373 -2.1059 -0.1281
  774MOL0     H 6808   7.403   6.890   4.593  1.4668 -2.4665 -0.5758
  774MOL0     H 6809   7.566   6.615   5.506 -0.6581 -1.2107  0.7911
  774MOL0     H 6810   7.745   6.544   5.763  1.0607 -4.6601  3.0996
  774MOL0     H 6811   7.605   6.476   5.684 -0.0513 -0.0498  2.3741
  774MOL0     H 6812   7.766   6.389   5.683  1.3630  1.1302 -0.3030
  775MOL0     O 6813  10.170  11.067   9.146 -0.5200  0.8035  0.1023
  775MOL0     C 6814  10.114  11.017   9.046 -0.2714 -0.7573  0.1306
  775MOL0     O 6815  10.077  10.887   9.040  0.7549  0.0571  0.1913
  775MOL0     C 6816  10.132  10.785   9.113  1.5108 -0.2735 -0.7900
  775MOL0     C 6817  10.061  10.669   9.091  0.2650  0.7047 -0.9182
  775MOL0     C 6818  10.107  10.554   9.154 -0.4560 -0.3223 -1.2925
  775MOL0     C 6819  10.216  10.551   9.248  0.0239 -1.1311  0.7338
  775MOL0     O 6820  10.251  10.438   9.320 -0.7618 -0.1597  0.1960
  775MOL0     C 6821  10.209  10.300   9.285 -0.1880 -0.0933  0.0424
  775MOL0     C 6822  10.321  10.233   9.200  0.8369 -0.0297 -0.4746
  775MOL0     C 6823  10.338  10.285   9.058  1.0148 -0.3852  0.2030
  775MOL0     C 6824  10.480  10.272   8.999 -0.1126  0.1349 -1.5479
  775MOL0     C 6825  10.490  10.139   8.922  0.2054  0.7409  0.2968
  775MOL0     C 6826  10.633  10.112   8.870 -0.0997  0.5607 -0.2267
  775MOL0     C 6827  10.678  10.191   8.748  0.4448  0.6045 -0.7684
  775MOL0     C 6828  10.829  10.221   8.756 -0.2167  0.1532 -0.3641
  775MOL0     N 6829  10.894  10.095   8.712  0.2100  0.0549 -0.3319
  775MOL0     C 6830  10.943   9.999   8.796  0.5313 -0.8811 -0.3269
  775MOL0     C 6831  11.030   9.932   8.719 -0.2286 -0.1534 -0.0091
  775MOL0     C 6832  11.117   9.819   8.765 -0.3339  0.5243 -0.1839
  775MOL0     C 6833  11.096   9.680   8.691  0.6115  0.5729 -0.5664
  775MOL0     C 6834  11.179   9.568   8.767  0.1331  0.7752  0.3083
  775MOL0     C 6835  11.196   9.434   8.687  0.0033 -0.9521  0.4619
  775MOL0     O 6836  11.293   9.445   8.583  0.3982 -0.4672 -0.1109
  775MOL0     C 6837  11.275   9.390   8.456 -0.0832  0.0389 -0.1021
  775MOL0     C 6838  11.394   9.344   8.386 -0.6270  0.8363  1.0293
  775MOL0     C 6839  11.378   9.305   8.249  0.3119 -0.6834 -0.4247
  775MOL0     C 6840  11.505   9.260   8.169  0.1477 -0.2694 -0.2631
  775MOL0     C 6841  11.248   9.297   8.184 -0.0463  0.5732 -0.6801
  775MOL0     C 6842  11.225   9.278   8.038  0.4259 -0.1848 -0.6896
  775MOL0     O 6843  11.313   9.338   7.954  1.5293  0.4731 -0.4329
  775MOL0     C 6844  11.282   9.333   7.825 -0.3741  0.0518 -0.0550
  775MOL0     C 6845  11.171   9.400   7.776  0.1340 -0.1026 -0.4015
  775MOL0     C 6846  11.127   9.393   7.642  0.0092  0.4001 -0.0917
  775MOL0     C 6847  11.192   9.309   7.557 -0.0354  0.4361  1.1059
  775MOL0     O 6848  11.157   9.288   7.428  1.0349 -0.3255 -0.6049
  775MOL0     C 6849  11.015   9.277   7.393 -0.4187  0.3114 -0.3500
  775MOL0     C 6850  10.984   9.132   7.358 -0.0990  1.2396 -0.1208
  775MOL0     C 6851  10.848   9.119   7.286 -0.2101  0.6264  0.8056
  775MOL0     C 6852  10.727   9.163   7.377 -0.1847 -0.0989 -0.0935
  775MOL0     C 6853  10.605   9.119   7.292 -0.1296 -0.0549 -0.0186
  775MOL0     C 6854  10.472   9.167   7.346  0.3957 -0.8823 -0.8405
  775MOL0     C 6855  10.464   9.136   7.495 -0.6376  0.4745  0.2466
  775MOL0     C 6856  10.328   9.133   7.556  0.7140 -0.0319  0.4579
  775MOL0    Cl 6857  10.218   9.021   7.480  0.2117 -0.5094 -0.1694
  775MOL0     C 6858  11.312   9.251   7.594 -0.6224  0.7529 -0.3139
  775MOL0     C 6859  11.351   9.260   7.729 -0.7160  0.1816 -0.1989
  775MOL0     O 6860  11.123   9.214   8.007  0.3067 -0.2347 -0.0078
  775MOL0     C 6861  11.137   9.336   8.259  0.2178 -0.0704 -0.6654
  775MOL0     C 6862  11.153   9.393   8.388  0.3290 -0.2783  0.8230
  775MOL0     N 6863  11.021   9.969   8.587 -0.2412  0.0428 -0.8986
  775MOL0     N 6864  10.942  10.075   8.593 -0.5447 -0.4185  0.4177
  775MOL0     C 6865  10.287  10.675   9.265  0.0859  0.3123 -0.2104
  775MOL0     C 6866  10.247  10.785   9.194  1.0002 -0.2056 -0.9904
  775MOL0     C 6867  10.057  11.109   8.942  0.4925  0.5419 -0.9604
  775MOL0     C 6868   9.921  11.086   8.901  0.3076 -0.5559 -0.0801
  775MOL0     C 6869   9.858  11.158   8.798  0.8697 -1.1812  0.1232
  775MOL0     C 6870   9.930  11.262   8.740 -0.0425 -0.8023  0.0443
  775MOL0     O 6871   9.853  11.324   8.643 -0.1462 -0.0407  0.7515
  775MOL0     C 6872   9.915  11.412   8.552  0.4717  0.1359 -0.0679
  775MOL0     C 6873   9.846  11.548   8.554 -0.7505 -0.4299 -0.1781
  775MOL0     C 6874   9.938  11.657   8.494 -0.0453  0.7833 -0.1448
  775MOL0     C 6875   9.861  11.780   8.447  0.4108 -0.1975  1.7575
  775MOL0     C 6876   9.776  11.836   8.544 -0.6939  0.2168 -0.7764
  775MOL0     C 6877   9.702  11.893   8.623  0.2302  0.0420  0.3668
  775MOL0     C 6878  10.054  11.301   8.788 -0.6864  0.7512  0.1163
  775MOL0     C 6879  10.127  11.221   8.879  0.2285 -0.7671 -0.0387
  775MOL0     C 6880  10.273  11.255   8.907 -0.7988 -0.0786 -0.5182
  775MOL0     H 6881   9.986  10.677   9.013 -0.1316  1.7662 -0.4443
  775MOL0     H 6882  10.049  10.463   9.142 -3.9763  2.0575 -5.0111
  775MOL0     H 6883  10.112  10.287   9.236 -0.5846  1.0711  0.4922
  775MOL0     H 6884  10.203  10.251   9.382  1.0933  3.8712  2.3714
  775MOL0     H 6885  10.417  10.235   9.252  0.6453 -1.7784  0.0260
  775MOL0     H 6886  10.282  10.130   9.201 -0.8279  0.4995 -2.5538
  775MOL0     H 6887  10.259  10.257   8.987 -0.1359  2.5686  0.1762
  775MOL0     H 6888  10.324  10.393   9.063  0.1418 -0.5389  1.4769
  775MOL0     H 6889  10.504  10.358   8.936  0.7175  1.8389  0.9140
  775MOL0     H 6890  10.562  10.276   9.072 -0.3862  2.3239 -1.2922
  775MOL0     H 6891  10.415  10.147   8.843  0.6420  0.0667 -0.2042
  775MOL0     H 6892  10.465  10.055   8.988  1.4082 -0.2466 -0.4605
  775MOL0     H 6893  10.695  10.130   8.959  0.8108 -0.5020 -0.6189
  775MOL0     H 6894  10.646  10.007   8.844  2.4199  1.1093 -1.5800
  775MOL0     H 6895  10.622  10.284   8.737  0.5143  0.3456 -5.6857
  775MOL0     H 6896  10.653  10.131   8.660 -1.5732 -0.7265  0.6237
  775MOL0     H 6897  10.847  10.301   8.683 -1.7744  1.3493  0.4973
  775MOL0     H 6898  10.852  10.257   8.856  0.4025  0.1804 -0.5134
  775MOL0     H 6899  10.908   9.976   8.897 -3.1833  0.5198 -1.1149
  775MOL0     H 6900  11.119   9.806   8.873  0.0976  0.4495 -0.1984
  775MOL0     H 6901  11.220   9.847   8.739 -0.4134  1.3140  0.3511
  775MOL0     H 6902  10.993   9.643   8.702  0.9887 -1.5769 -3.1541
  775MOL0     H 6903  11.108   9.680   8.582  2.7616  1.8293 -0.3856
  775MOL0     H 6904  11.282   9.601   8.780  1.6491 -3.6067  1.2303
  775MOL0     H 6905  11.148   9.553   8.871  2.5174  0.4520  1.0321
  775MOL0     H 6906  11.224   9.344   8.742 -0.9933 -2.3596 -1.2232
  775MOL0     H 6907  11.100   9.398   8.648  1.2324 -0.6739 -3.2244
  775MOL0     H 6908  11.490   9.347   8.435  0.2383  3.5851 -0.5785
  775MOL0     H 6909  11.594   9.260   8.232  1.2929 -1.5777 -1.8064
  775MOL0     H 6910  11.515   9.327   8.083  1.5267  1.5735  1.2635
  775MOL0     H 6911  11.503   9.155   8.137  0.1761 -0.5942  0.7619
  775MOL0     H 6912  11.104   9.449   7.846  2.1629  1.6572  0.4207
  775MOL0     H 6913  11.034   9.432   7.603 -1.2314 -1.5587  0.7780
  775MOL0     H 6914  10.945   9.307   7.471 -2.0874  0.4967 -1.8501
  775MOL0     H 6915  10.994   9.352   7.315  0.0130  0.0474 -0.7262
  775MOL0     H 6916  11.066   9.100   7.292 -0.2320 -0.7151  0.6022
  775MOL0     H 6917  10.993   9.044   7.423  1.0907  0.2167 -1.5877
  775MOL0     H 6918  10.839   9.011   7.275  1.3185  0.6088 -0.7129
  775MOL0     H 6919  10.848   9.161   7.185 -2.9899 -0.6010  0.1951
  775MOL0     H 6920  10.732   9.272   7.381  1.8430  0.0649 -3.6350
  775MOL0     H 6921  10.738   9.121   7.478 -0.2616  0.2130  0.0472
  775MOL0     H 6922  10.598   9.156   7.189 -1.5810  2.6779  0.9620
  775MOL0     H 6923  10.587   9.012   7.301 -2.4788  0.3553  0.9580
  775MOL0     H 6924  10.397   9.112   7.289 -1.3190 -0.7817  1.2183
  775MOL0     H 6925  10.451   9.272   7.325  1.7476  0.0962  2.1899
  775MOL0     H 6926  10.522   9.201   7.560 -1.7242  1.6913  0.0546
  775MOL0     H 6927  10.508   9.036   7.503 -4.1312 -1.1357  1.6030
  775MOL0     H 6928  10.277   9.229   7.551 -3.0825 -1.7601  2.2434
  775MOL0     H 6929  10.332   9.113   7.663  2.4064 -2.0647  0.1000
  775MOL0     H 6930  11.357   9.172   7.535 -1.4714 -0.2918  0.3909
  775MOL0     H 6931  11.432   9.195   7.761 -0.5461 -0.1539 -1.2682
  775MOL0     H 6932  11.037   9.358   8.224  0.5136  1.2832 -0.7151
  775MOL0     H 6933  11.080   9.455   8.439 -0.1209 -0.0849 -0.0350
  775MOL0     H 6934  10.377  10.666   9.325  0.4880 -0.0722 -0.8656
  775MOL0     H 6935  10.306  10.876   9.194  1.7699 -0.6649 -2.2199
  775MOL0     H 6936   9.852  11.016   8.948  0.7361 -0.9944 -0.0897
  775MOL0     H 6937   9.755  11.135   8.772  1.5878 -2.1099 -2.1171
  775MOL0     H 6938  10.022  11.426   8.568  0.4944  2.5799 -1.8353
  775MOL0     H 6939   9.896  11.379   8.450 -0.0618  1.9853 -0.6154
  775MOL0     H 6940   9.799  11.580   8.647 -2.7005 -2.8415 -0.2263
  775MOL0     H 6941   9.759  11.539   8.488  1.1539 -1.5011 -2.6766
  775MOL0     H 6942  10.019  11.673   8.566 -0.1058 -0.1773  0.1503
  775MOL0     H 6943  10.001  11.631   8.408  3.0139  0.0985  2.1117
  775MOL0     H 6944   9.786  11.768   8.368 -0.9140  3.5175  2.2544
  775MOL0     H 6945   9.936  11.856   8.427  1.6746 -2.2622 -2.4980
  775MOL0     H 6946   9.639  11.945   8.692  0.4188 -0.1079  0.6565
  775MOL0     H 6947  10.098  11.384   8.733 -3.1378  1.9839 -0.1083
  775MOL0     H 6948  10.287  11.363   8.912 -0.2309  0.1827 -4.5910
  775MOL0     H 6949  10.318  11.212   8.997  1.6364  1.2545 -1.0078
  775MOL0     H 6950  10.340  11.220   8.828 -0.1225  1.2914 -0.5828
  776MOL0     O 6951   9.273  10.774   0.905 -0.5691 -0.4329  0.3019
  776MOL0     C 6952   9.348  10.766   0.803  0.3061 -0.1910 -0.5678
  776MOL0     O 6953   9.310  10.760   0.676  0.6377 -0.4655 -0.6835
  776MOL0     C 6954   9.180  10.763   0.634 -0.3267  0.3531 -0.2367
  776MOL0     C 6955   9.091  10.873   0.672 -0.0845 -0.0691 -0.7764
  776MOL0     C 6956   8.963  10.874   0.610 -0.4756  0.8024 -0.0919
  776MOL0     C 6957   8.916  10.750   0.555  0.5256 -0.2195  0.6251
  776MOL0     O 6958   8.785  10.728   0.523 -0.1558 -0.4600 -0.0874
  776MOL0     C 6959   8.704  10.722   0.645  0.2563  0.0681  0.7788
  776MOL0     C 6960   8.700  10.571   0.693 -0.0846  0.7212  1.3543
  776MOL0     C 6961   8.588  10.551   0.791 -0.9378 -0.1823 -0.0644
  776MOL0     C 6962   8.586  10.405   0.837 -0.6470 -0.0007  0.6032
  776MOL0     C 6963   8.489  10.396   0.955  0.2466  0.0664  0.1450
  776MOL0     C 6964   8.347  10.433   0.922 -0.2783 -0.3031 -0.2343
  776MOL0     C 6965   8.252  10.409   1.040 -0.0094 -0.3277 -0.7276
  776MOL0     C 6966   8.107  10.438   1.009  0.5232  0.5255  0.1613
  776MOL0     N 6967   8.015  10.450   1.122  0.4867 -0.2345 -0.1548
  776MOL0     C 6968   7.966  10.343   1.197  0.5522 -0.0985 -0.2465
  776MOL0     C 6969   7.876  10.393   1.287 -0.2840  0.2051  0.5263
  776MOL0     C 6970   7.790  10.322   1.377 -0.7871 -0.2471 -0.7207
  776MOL0     C 6971   7.674  10.257   1.301 -0.3172 -0.2690  0.9791
  776MOL0     C 6972   7.573  10.200   1.402  0.1956 -0.4061  0.3830
  776MOL0     C 6973   7.447  10.149   1.334  0.1541 -0.0303 -0.6129
  776MOL0     O 6974   7.486  10.068   1.229 -0.4621  0.7189 -0.2106
  776MOL0     C 6975   7.390  10.025   1.147 -0.1224 -0.0052  1.3219
  776MOL0     C 6976   7.266   9.979   1.188  0.7250 -0.7917 -0.7397
  776MOL0     C 6977   7.172   9.916   1.097  0.8455  0.6712  0.4506
  776MOL0     C 6978   7.052   9.845   1.152 -0.9359  0.1962  0.0219
  776MOL0     C 6979   7.202   9.912   0.966 -0.5542 -0.0873  0.1577
  776MOL0     C 6980   7.129   9.829   0.859  0.4007 -0.3084  0.1068
  776MOL0     O 6981   7.213   9.767   0.771 -0.3051 -0.1011  0.0665
  776MOL0     C 6982   7.157   9.715   0.658  1.3244 -0.2023 -0.6279
  776MOL0     C 6983   7.116   9.582   0.647  0.0220 -0.0037  0.1240
  776MOL0     C 6984   7.042   9.542   0.538 -0.0739 -0.0617  0.1342
  776MOL0     C 6985   7.012   9.620   0.427  0.1092  0.5146  0.0366
  776MOL0     O 6986   6.953   9.589   0.300  0.5796  0.1481 -0.7941
  776MOL0     C 6987   6.919   9.452   0.277 -0.5904 -0.7241  0.0720
  776MOL0     C 6988   6.866   9.428   0.132  0.5407 -0.1794 -0.1255
  776MOL0     C 6989   6.710   9.455   0.120  0.4813 -0.1980  0.3551
  776MOL0     C 6990   6.665   9.416  -0.020 -0.0044 -0.0311 -0.7440
  776MOL0     C 6991   6.514   9.424  -0.029  0.0480  0.2748 -0.5046
  776MOL0     C 6992   6.452   9.422  -0.166  0.0531  0.2162  0.5660
  776MOL0     C 6993   6.488   9.302  -0.239 -0.8020 -1.1111  0.3538
  776MOL0     C 6994   6.448   9.169  -0.175 -0.1279  0.7650  0.3749
  776MOL0    Cl 6995   6.496   9.035  -0.292  0.3522  0.0931 -0.5183
  776MOL0     C 6996   7.047   9.754   0.439 -0.2584 -0.3677 -0.6674
  776MOL0     C 6997   7.116   9.797   0.554  0.2583  0.2534 -1.3921
  776MOL0     O 6998   7.005   9.830   0.844  0.0872 -0.4406  0.6332
  776MOL0     C 6999   7.324   9.967   0.922 -0.0891  0.4586  0.3007
  776MOL0     C 7000   7.422  10.012   1.007  0.1974  0.8290  0.0642
  776MOL0     N 7001   7.878  10.532   1.257 -0.4681 -0.0289  0.1860
  776MOL0     N 7002   7.970  10.566   1.173 -0.0676 -0.0562  0.1574
  776MOL0     C 7003   9.009  10.643   0.522 -0.5275 -0.6125  0.0448
  776MOL0     C 7004   9.139  10.655   0.564  0.4746 -0.3143 -0.6349
  776MOL0     C 7005   9.494  10.778   0.817 -0.9614  0.0523 -0.6716
  776MOL0     C 7006   9.561  10.870   0.743  0.9289 -0.0882 -0.1596
  776MOL0     C 7007   9.696  10.895   0.747 -0.3227 -0.2563 -0.2548
  776MOL0     C 7008   9.780  10.818   0.827  0.1874 -0.0188 -0.4271
  776MOL0     O 7009   9.919  10.814   0.839  0.1340  0.5012  0.0663
  776MOL0     C 7010   9.990  10.941   0.836 -0.4566  0.3215 -0.6726
  776MOL0     C 7011  10.144  10.921   0.875  1.2914  0.3164 -0.7661
  776MOL0     C 7012  10.160  10.887   1.030  0.2485  0.8395 -0.0176
  776MOL0     C 7013  10.186  11.013   1.106 -0.9216  0.6289 -0.2768
  776MOL0     C 7014  10.226  10.985   1.244 -0.1775  0.1136 -0.4574
  776MOL0     C 7015  10.286  10.956   1.346 -0.0849  0.0115  0.1548
  776MOL0     C 7016   9.715  10.729   0.920 -0.9426 -0.1888  0.4744
  776MOL0     C 7017   9.573  10.721   0.921 -0.8286  0.2188  0.5112
  776MOL0     C 7018   9.517  10.663   1.045  0.1562  0.2377  0.6083
  776MOL0     H 7019   9.121  10.967   0.719 -2.1341  0.7077 -0.9058
  776MOL0     H 7020   8.887  10.950   0.627 -2.7944 -1.8568  2.6991
  776MOL0     H 7021   8.604  10.759   0.623  0.4325  0.2085  0.2188
  776MOL0     H 7022   8.731  10.781   0.733 -3.4670 -0.6916  2.6143
  776MOL0     H 7023   8.674  10.504   0.609 -1.8192  2.9228  0.0328
  776MOL0     H 7024   8.803  10.541   0.717 -0.0177 -1.3833 -1.0331
  776MOL0     H 7025   8.599  10.623   0.873 -1.3282 -1.0348  0.7496
  776MOL0     H 7026   8.500  10.577   0.731  1.4789  0.8243 -3.4927
  776MOL0     H 7027   8.547  10.330   0.767 -0.9354  1.4242 -0.8278
  776MOL0     H 7028   8.685  10.363   0.856  1.9445  2.7116 -4.7760
  776MOL0     H 7029   8.531  10.470   1.024  0.9416 -0.8439  0.7290
  776MOL0     H 7030   8.487  10.299   1.006  0.2080 -1.6477 -2.8314
  776MOL0     H 7031   8.336  10.535   0.884 -0.7807 -0.0372  0.5915
  776MOL0     H 7032   8.305  10.384   0.834 -1.4776  0.2090  0.0372
  776MOL0     H 7033   8.272  10.481   1.120 -2.7807 -1.9847  1.6422
  776MOL0     H 7034   8.254  10.304   1.069 -3.9921 -0.6090 -1.0018
  776MOL0     H 7035   8.085  10.528   0.952 -2.3460 -2.1772 -3.4628
  776MOL0     H 7036   8.078  10.363   0.934  2.1805  2.2397 -2.3189
  776MOL0     H 7037   7.979  10.241   1.165  0.9596 -1.0194  2.5823
  776MOL0     H 7038   7.758  10.390   1.457 -0.6655  0.3940 -1.2085
  776MOL0     H 7039   7.853  10.253   1.434 -3.5612  0.6363  3.9400
  776MOL0     H 7040   7.633  10.333   1.234 -0.3301 -1.1344 -0.0324
  776MOL0     H 7041   7.704  10.175   1.234 -0.7289  1.9248 -2.0904
  776MOL0     H 7042   7.615  10.118   1.460  1.0626  0.0212  0.3755
  776MOL0     H 7043   7.551  10.280   1.473 -1.7659 -1.1252  0.6368
  776MOL0     H 7044   7.391  10.099   1.413 -2.3256  2.4101 -0.6555
  776MOL0     H 7045   7.372  10.220   1.297 -1.1330 -0.2521  1.4252
  776MOL0     H 7046   7.241  10.002   1.291  1.9818  0.7573 -0.7464
  776MOL0     H 7047   6.969   9.912   1.127 -1.4916 -0.0691  1.0937
  776MOL0     H 7048   7.046   9.825   1.260 -1.6513 -2.4231 -0.4403
  776MOL0     H 7049   7.033   9.746   1.109  2.2292 -1.5924  2.2654
  776MOL0     H 7050   7.136   9.523   0.736 -1.1263  2.2723  2.0000
  776MOL0     H 7051   7.008   9.439   0.525 -0.3238  0.2925 -2.7303
  776MOL0     H 7052   7.009   9.391   0.295  1.1436  1.5547 -0.4115
  776MOL0     H 7053   6.837   9.412   0.337  0.0279  0.0520  1.4921
  776MOL0     H 7054   6.925   9.486   0.060  0.5485  0.6899  0.5644
  776MOL0     H 7055   6.879   9.323   0.105 -0.4439  0.5345 -3.9405
  776MOL0     H 7056   6.673   9.556   0.139  1.1456  0.2039 -0.4041
  776MOL0     H 7057   6.658   9.384   0.185  1.2682 -1.3176 -0.1990
  776MOL0     H 7058   6.682   9.312  -0.047 -0.8181  0.8851 -5.7586
  776MOL0     H 7059   6.707   9.480  -0.098 -1.1446 -0.1166 -1.4636
  776MOL0     H 7060   6.471   9.346   0.034  4.1110 -1.4661  0.4331
  776MOL0     H 7061   6.488   9.523   0.010 -2.0075  0.9668 -3.3371
  776MOL0     H 7062   6.487   9.500  -0.235  3.7055 -3.6048 -2.4684
  776MOL0     H 7063   6.343   9.425  -0.158 -0.1466  1.1139 -1.6049
  776MOL0     H 7064   6.593   9.291  -0.268 -1.1200 -3.0954 -0.2021
  776MOL0     H 7065   6.424   9.306  -0.327 -1.4389  0.2976  0.8679
  776MOL0     H 7066   6.341   9.169  -0.152 -0.4103  2.4003 -0.7216
  776MOL0     H 7067   6.506   9.138  -0.088  1.9698 -0.2082 -1.2632
  776MOL0     H 7068   7.017   9.808   0.350 -4.4358 -1.6356 -0.2242
  776MOL0     H 7069   7.138   9.903   0.564  2.4827 -0.1879 -1.2003
  776MOL0     H 7070   7.349   9.967   0.817  0.8708 -1.7409  0.4832
  776MOL0     H 7071   7.519  10.051   0.978  0.2846  0.7088  0.1941
  776MOL0     H 7072   8.964  10.556   0.475 -4.5317  1.4413 -0.3497
  776MOL0     H 7073   9.215  10.584   0.535  0.8483 -1.7403  3.2270
  776MOL0     H 7074   9.495  10.922   0.675  0.7787 -1.9001 -1.4503
  776MOL0     H 7075   9.743  10.966   0.680  0.6386 -1.3597 -0.7825
  776MOL0     H 7076   9.990  10.979   0.733  1.9258 -0.7559 -1.1223
  776MOL0     H 7077   9.944  11.024   0.891  0.2910 -0.4486  1.1845
  776MOL0     H 7078  10.199  11.009   0.839 -2.1843  2.6743 -0.7806
  776MOL0     H 7079  10.173  10.835   0.814 -1.6257 -2.5232  1.4886
  776MOL0     H 7080  10.069  10.834   1.058 -0.2892  1.1017 -1.1859
  776MOL0     H 7081  10.239  10.813   1.047 -2.5797 -2.1663  1.1482
  776MOL0     H 7082  10.097  11.074   1.124 -1.4314 -0.3405  0.5659
  776MOL0     H 7083  10.264  11.075   1.061 -2.0213  1.8543 -0.5479
  776MOL0     H 7084  10.349  10.933   1.430  1.1332 -0.2109 -0.7875
  776MOL0     H 7085   9.780  10.669   0.982 -1.0083  2.2992  3.1394
  776MOL0     H 7086   9.473  10.737   1.113  5.0021  2.8386  1.4145
  776MOL0     H 7087   9.441  10.587   1.028 -1.6653  1.2909  3.2506
  776MOL0     H 7088   9.593  10.619   1.111 -0.6324  0.3396  1.6064
  777MOL0     O 7089  10.959   6.188  10.470 -0.7063  0.2298  0.1089
  777MOL0     C 7090  11.083   6.192  10.449 -0.6061  0.2025 -1.3586
  777MOL0     O 7091  11.145   6.121  10.355  0.2075  0.3386  0.7564
  777MOL0     C 7092  11.092   6.008  10.306 -0.1560  0.2813  0.4447
  777MOL0     C 7093  11.029   5.909  10.380 -0.5223  0.5996  0.3739
  777MOL0     C 7094  10.992   5.786  10.321  0.2626  0.7356 -0.6511
  777MOL0     C 7095  11.000   5.763  10.182  0.1001 -0.2518  0.1842
  777MOL0     O 7096  10.956   5.659  10.119  1.1219  0.3248 -0.3902
  777MOL0     C 7097  10.812   5.636  10.135  0.0283  0.5003 -0.1271
  777MOL0     C 7098  10.750   5.577  10.009 -0.0590  0.4670  0.8396
  777MOL0     C 7099  10.723   5.688   9.897  0.0689  0.9332 -0.7125
  777MOL0     C 7100  10.660   5.621   9.776  0.4576 -0.7255 -0.1204
  777MOL0     C 7101  10.684   5.706   9.658 -0.9320 -0.7328 -0.3354
  777MOL0     C 7102  10.633   5.660   9.531  0.3519  0.0209 -0.5637
  777MOL0     C 7103  10.651   5.764   9.421 -0.4992 -0.2675 -1.0787
  777MOL0     C 7104  10.598   5.714   9.282  0.2761 -0.2381  0.4538
  777MOL0     N 7105  10.683   5.608   9.233 -0.6111  0.2619 -0.0001
  777MOL0     C 7106  10.824   5.619   9.209  0.4146  0.1426 -0.8506
  777MOL0     C 7107  10.859   5.491   9.179 -0.5219 -0.3438  0.6550
  777MOL0     C 7108  10.998   5.449   9.143  0.8080 -0.0291  0.2981
  777MOL0     C 7109  11.089   5.457   9.273 -0.2136  0.0384 -0.8960
  777MOL0     C 7110  11.204   5.376   9.249  0.5215  0.8135  0.5071
  777MOL0     C 7111  11.282   5.332   9.377 -0.2214  0.8583  0.7009
  777MOL0     O 7112  11.211   5.284   9.491  0.0131  0.7472 -0.3579
  777MOL0     C 7113  11.097   5.214   9.468 -0.4824  0.7642 -0.3436
  777MOL0     C 7114  11.096   5.099   9.391  0.6931 -0.2892 -0.1879
  777MOL0     C 7115  10.983   5.026   9.372  0.3350 -0.9017  1.6555
  777MOL0     C 7116  11.003   4.912   9.266  0.2701  0.2129  0.6883
  777MOL0     C 7117  10.858   5.056   9.437 -0.1229 -0.1342 -0.2892
  777MOL0     C 7118  10.744   4.972   9.449  1.0360  0.5351 -1.1576
  777MOL0     O 7119  10.751   4.841   9.391  0.3385 -0.0391 -0.7734
  777MOL0     C 7120  10.629   4.766   9.413 -0.2095 -0.1371  0.0572
  777MOL0     C 7121  10.508   4.810   9.370 -0.3283 -0.6319  0.3671
  777MOL0     C 7122  10.396   4.722   9.383 -0.8348  1.1747 -0.3358
  777MOL0     C 7123  10.409   4.601   9.455  0.4249 -0.7362  0.7887
  777MOL0     O 7124  10.301   4.517   9.479 -0.5222 -0.1156  0.7951
  777MOL0     C 7125  10.301   4.391   9.414  0.4052  1.0145 -0.9372
  777MOL0     C 7126  10.163   4.333   9.421  0.7556 -0.4355  0.5781
  777MOL0     C 7127  10.095   4.337   9.562  0.4920 -1.0796 -0.6700
  777MOL0     C 7128   9.951   4.307   9.551 -0.8794 -0.3701 -0.5472
  777MOL0     C 7129   9.869   4.310   9.680  0.3919 -0.4229  1.2227
  777MOL0     C 7130   9.723   4.277   9.664 -0.6788 -0.1720  0.6752
  777MOL0     C 7131   9.658   4.246   9.802  0.7274  0.8089 -0.5459
  777MOL0     C 7132   9.508   4.234   9.775  0.6512  0.2385 -0.3142
  777MOL0    Cl 7133   9.413   4.195   9.927 -0.0236  0.0548 -0.0770
  777MOL0     C 7134  10.525   4.561   9.496 -1.0333 -0.0487 -0.7932
  777MOL0     C 7135  10.639   4.641   9.477  0.2787 -0.3496 -0.0413
  777MOL0     O 7136  10.642   5.011   9.503 -1.0642  0.7605 -0.3183
  777MOL0     C 7137  10.860   5.177   9.519 -0.4983 -1.6066  0.6863
  777MOL0     C 7138  10.979   5.250   9.533 -0.0055 -0.5680 -0.2225
  777MOL0     N 7139  10.744   5.408   9.186 -0.9139  0.0372 -0.2118
  777MOL0     N 7140  10.640   5.481   9.209 -0.2737 -0.3622  0.2904
  777MOL0     C 7141  11.069   5.858  10.105  0.6507 -0.2000 -0.1094
  777MOL0     C 7142  11.120   5.974  10.168  1.0710  0.4608 -0.2157
  777MOL0     C 7143  11.172   6.293  10.510 -0.3729  0.0692 -0.1970
  777MOL0     C 7144  11.256   6.364  10.430 -0.5379  0.4951 -0.2773
  777MOL0     C 7145  11.330   6.466  10.477 -1.2988 -0.6045 -0.9601
  777MOL0     C 7146  11.337   6.500  10.619 -0.0343  0.1038  0.4193
  777MOL0     O 7147  11.426   6.579  10.673 -0.1385  0.4967  0.1740
  777MOL0     C 7148  11.444   6.708  10.617 -0.0497  0.6388 -0.3106
  777MOL0     C 7149  11.580   6.748  10.662  1.0555  0.3105 -0.1032
  777MOL0     C 7150  11.647   6.852  10.577 -0.3160 -0.4755 -0.3740
  777MOL0     C 7151  11.748   6.950  10.644  0.0575 -0.9705 -0.5174
  777MOL0     C 7152  11.866   6.876  10.693  1.1372  0.1642 -0.6388
  777MOL0     C 7153  11.967   6.817  10.708 -0.4409  0.3638 -0.6158
  777MOL0     C 7154  11.257   6.421  10.696  1.0581  0.1487 -1.3622
  777MOL0     C 7155  11.168   6.325  10.644 -0.4490  0.5317  0.2887
  777MOL0     C 7156  11.059   6.272  10.740 -0.5960  0.1030 -0.0064
  777MOL0     H 7157  11.016   5.942  10.482  3.3657  1.3325  0.8027
  777MOL0     H 7158  10.972   5.701  10.385 -0.3023 -0.5415 -2.4234
  777MOL0     H 7159  10.757   5.725  10.165  1.9597  1.6977  0.0323
  777MOL0     H 7160  10.801   5.558  10.211  2.3957 -2.1050 -2.2267
  777MOL0     H 7161  10.819   5.503   9.967 -0.6562  1.9692 -3.3238
  777MOL0     H 7162  10.657   5.534  10.047 -1.8085  1.3763 -2.0391
  777MOL0     H 7163  10.663   5.771   9.936 -0.8246  1.2236 -2.5686
  777MOL0     H 7164  10.822   5.730   9.875  1.1121  0.3325  2.4127
  777MOL0     H 7165  10.713   5.526   9.763 -0.6512 -1.8810  2.8404
  777MOL0     H 7166  10.553   5.613   9.796 -0.0571  2.2258 -1.2836
  777MOL0     H 7167  10.791   5.717   9.643 -0.9916 -2.1674 -2.2430
  777MOL0     H 7168  10.640   5.805   9.673  0.7478 -0.0211  0.0683
  777MOL0     H 7169  10.683   5.565   9.515  0.7678  0.5478 -2.7495
  777MOL0     H 7170  10.527   5.637   9.543  0.6624 -0.3707  1.8163
  777MOL0     H 7171  10.758   5.780   9.409 -0.0738 -2.6525 -0.9321
  777MOL0     H 7172  10.606   5.859   9.452 -0.8003 -0.2329 -1.5994
  777MOL0     H 7173  10.498   5.670   9.293  0.1563 -0.3161 -0.8754
  777MOL0     H 7174  10.593   5.792   9.206  0.3219 -1.0770 -0.4219
  777MOL0     H 7175  10.888   5.707   9.206 -0.5230  0.8869  0.2218
  777MOL0     H 7176  11.035   5.515   9.064 -2.6061  2.3066  0.4289
  777MOL0     H 7177  10.985   5.345   9.114  2.6481 -0.3360  0.4864
  777MOL0     H 7178  11.116   5.561   9.293  1.1401 -0.9922  3.6999
  777MOL0     H 7179  11.039   5.428   9.365  2.2292  3.1363  1.6279
  777MOL0     H 7180  11.183   5.285   9.191  0.9391  2.9399 -3.3666
  777MOL0     H 7181  11.252   5.452   9.188 -0.3564 -0.9425 -2.6222
  777MOL0     H 7182  11.346   5.250   9.346 -3.5295 -1.2885 -0.9938
  777MOL0     H 7183  11.344   5.419   9.400  0.7283  1.3886 -3.2683
  777MOL0     H 7184  11.182   5.092   9.326  2.2731  1.3211  1.6189
  777MOL0     H 7185  11.109   4.920   9.240  0.0109 -0.8120 -0.7741
  777MOL0     H 7186  10.949   4.921   9.171  3.3490  2.1828 -1.0525
  777MOL0     H 7187  11.002   4.815   9.316 -1.1582  0.4586  1.1760
  777MOL0     H 7188  10.503   4.896   9.304  0.6772  0.0860  1.2152
  777MOL0     H 7189  10.305   4.748   9.330 -1.1855 -1.3309 -1.0566
  777MOL0     H 7190  10.345   4.397   9.314  1.8174  2.4983 -0.2789
  777MOL0     H 7191  10.353   4.319   9.478 -2.3577  0.4532  0.8119
  777MOL0     H 7192  10.095   4.384   9.352  0.6292 -1.5412 -0.1415
  777MOL0     H 7193  10.176   4.229   9.390 -1.4538 -0.6639  0.2473
  777MOL0     H 7194  10.099   4.436   9.607  0.9067 -1.2923 -0.2281
  777MOL0     H 7195  10.143   4.266   9.630  1.6691  0.2658 -0.0456
  777MOL0     H 7196   9.954   4.200   9.530 -0.6494 -0.7530  1.2767
  777MOL0     H 7197   9.903   4.358   9.467  0.1583  0.4972 -0.6375
  777MOL0     H 7198   9.912   4.236   9.749 -2.3427 -0.9262  2.5324
  777MOL0     H 7199   9.874   4.409   9.726  1.2277  0.7971 -1.3151
  777MOL0     H 7200   9.714   4.184   9.606  1.7026  0.3919 -0.7314
  777MOL0     H 7201   9.682   4.356   9.601  4.2017  2.9367  0.8523
  777MOL0     H 7202   9.678   4.332   9.866 -1.0278 -0.6613  2.1817
  777MOL0     H 7203   9.694   4.151   9.842  0.4391  0.2875 -1.5006
  777MOL0     H 7204   9.505   4.153   9.701  1.1076 -0.1635  0.1030
  777MOL0     H 7205   9.471   4.330   9.739 -0.5933  0.2367  0.8822
  777MOL0     H 7206  10.540   4.478   9.565 -1.0311  0.9972  0.4950
  777MOL0     H 7207  10.736   4.618   9.520  0.9200  1.2000 -0.5996
  777MOL0     H 7208  10.772   5.210   9.575  1.2463  0.6983  2.2477
  777MOL0     H 7209  10.958   5.344   9.583 -3.2033 -0.4438 -1.6042
  777MOL0     H 7210  11.060   5.851   9.997 -2.8482 -0.1177  0.0760
  777MOL0     H 7211  11.168   6.050  10.108  1.4676 -0.2725 -0.8359
  777MOL0     H 7212  11.268   6.327  10.329 -0.1011 -0.9553  0.2832
  777MOL0     H 7213  11.382   6.527  10.403 -0.2475  0.5896  0.6951
  777MOL0     H 7214  11.439   6.720  10.508  0.4662  0.0269 -0.4070
  777MOL0     H 7215  11.366   6.765  10.668  0.7569  2.3948 -0.9377
  777MOL0     H 7216  11.647   6.661  10.668 -1.8799 -2.0163  1.7913
  777MOL0     H 7217  11.565   6.775  10.767 -0.9112  0.2699 -0.3363
  777MOL0     H 7218  11.694   6.801  10.493  0.0739 -1.9844  0.7155
  777MOL0     H 7219  11.567   6.916  10.538  0.9763  0.7955 -1.0589
  777MOL0     H 7220  11.683   6.986  10.725  2.4035  0.7548  0.7451
  777MOL0     H 7221  11.785   7.026  10.575  4.1813 -1.1199  1.2319
  777MOL0     H 7222  12.068   6.779  10.705 -0.3194  0.6844 -3.0342
  777MOL0     H 7223  11.258   6.448  10.801  1.5769  1.9917 -1.8057
  777MOL0     H 7224  10.956   6.308  10.729 -2.0440 -4.0333 -2.9427
  777MOL0     H 7225  11.052   6.163  10.740  2.4589 -0.1752 -0.3026
  777MOL0     H 7226  11.091   6.308  10.838  1.8615  0.1769 -0.7669
  778MOL0     O 7227   5.378   6.736   6.050  0.6344  0.7698 -0.9345
  778MOL0     C 7228   5.492   6.680   6.027  0.3619 -0.7051 -0.0230
  778MOL0     O 7229   5.577   6.739   5.939  0.0652 -0.1491  0.2963
  778MOL0     C 7230   5.546   6.867   5.892 -0.2516 -0.2212 -0.3416
  778MOL0     C 7231   5.561   6.894   5.752 -0.5953 -0.6674 -0.3789
  778MOL0     C 7232   5.564   7.031   5.700  0.0420  0.0378  0.0267
  778MOL0     C 7233   5.577   7.132   5.797  0.5529 -1.0854 -0.4317
  778MOL0     O 7234   5.613   7.263   5.771  0.5871 -0.0925 -0.1301
  778MOL0     C 7235   5.543   7.318   5.660 -0.9112  0.0007 -0.4631
  778MOL0     C 7236   5.520   7.464   5.701 -1.0849 -0.3884 -0.0344
  778MOL0     C 7237   5.442   7.530   5.586  0.2794  0.0659 -0.3051
  778MOL0     C 7238   5.435   7.679   5.603 -0.0840 -0.8000  1.2103
  778MOL0     C 7239   5.346   7.746   5.500 -0.2691 -1.2031  0.6696
  778MOL0     C 7240   5.363   7.898   5.503 -0.6281 -0.3810 -0.1768
  778MOL0     C 7241   5.321   7.966   5.625 -0.3021 -0.5658 -0.2068
  778MOL0     C 7242   5.184   7.932   5.694 -0.6511 -0.4300 -0.1991
  778MOL0     N 7243   5.144   8.042   5.785  1.0086  0.5464 -0.3787
  778MOL0     C 7244   5.183   8.054   5.912  0.1647  0.2508  0.8203
  778MOL0     C 7245   5.117   8.165   5.970  0.7965  0.5351  0.0989
  778MOL0     C 7246   5.132   8.195   6.116 -0.7847  0.1608 -0.2670
  778MOL0     C 7247   5.113   8.077   6.205  0.1157  0.5415 -0.8166
  778MOL0     C 7248   5.054   8.132   6.344  0.2610  0.8123 -0.2337
  778MOL0     C 7249   5.105   8.043   6.453  0.2427  1.5322  0.5549
  778MOL0     O 7250   5.029   7.923   6.463 -0.2723  0.4924 -0.1019
  778MOL0     C 7251   5.110   7.823   6.483  0.4940  0.7842  0.3525
  778MOL0     C 7252   5.092   7.714   6.404 -0.0196  0.5527  0.3469
  778MOL0     C 7253   5.163   7.596   6.415 -0.0429  0.7072  0.8570
  778MOL0     C 7254   5.116   7.470   6.331  0.6790  0.0802  0.2833
  778MOL0     C 7255   5.269   7.579   6.504 -0.4786 -0.0184  0.0593
  778MOL0     C 7256   5.343   7.456   6.519  0.4697 -0.6406 -0.0984
  778MOL0     O 7257   5.384   7.436   6.654 -0.4512  0.0203  0.7191
  778MOL0     C 7258   5.426   7.310   6.691  0.5634 -0.3890  0.6110
  778MOL0     C 7259   5.509   7.285   6.798  0.0388 -0.9821  0.8105
  778MOL0     C 7260   5.542   7.160   6.850  0.3666 -0.1023  0.1150
  778MOL0     C 7261   5.482   7.047   6.791  0.2632  0.3761  0.5728
  778MOL0     O 7262   5.498   6.918   6.838  0.3965 -0.7825  0.3136
  778MOL0     C 7263   5.594   6.898   6.944  0.8538 -0.4709 -0.5955
  778MOL0     C 7264   5.603   6.746   6.971  0.1792 -0.6726  0.3428
  778MOL0     C 7265   5.490   6.681   7.027 -0.3304 -0.2296 -0.2086
  778MOL0     C 7266   5.494   6.529   7.004  0.4443  0.4368 -0.2929
  778MOL0     C 7267   5.374   6.451   7.050 -0.2813 -0.3603 -0.5176
  778MOL0     C 7268   5.402   6.387   7.189 -1.0177 -0.0209  0.5761
  778MOL0     C 7269   5.284   6.318   7.241  0.7949  0.3640  0.6721
  778MOL0     C 7270   5.267   6.330   7.390 -0.0437  0.1947 -0.0461
  778MOL0    Cl 7271   5.370   6.213   7.477 -0.1186  0.7097  0.4732
  778MOL0     C 7272   5.396   7.069   6.680  0.3535  0.7450 -1.2144
  778MOL0     C 7273   5.367   7.193   6.637  0.4020 -0.2038 -0.3151
  778MOL0     O 7274   5.365   7.387   6.426 -0.5411  0.4155  0.3795
  778MOL0     C 7275   5.278   7.680   6.593  0.4919 -0.3763 -0.4380
  778MOL0     C 7276   5.202   7.801   6.585 -0.7234  0.2361 -0.9720
  778MOL0     N 7277   5.028   8.212   5.877  0.2078  0.0053  0.5995
  778MOL0     N 7278   5.045   8.142   5.763 -0.3509  0.6180 -0.5100
  778MOL0     C 7279   5.559   7.099   5.932  0.0177 -1.0949  0.1732
  778MOL0     C 7280   5.534   6.978   5.985 -0.2737  0.5122  0.4281
  778MOL0     C 7281   5.527   6.558   6.106  0.5959  0.0844 -0.1426
  778MOL0     C 7282   5.418   6.490   6.173  0.6293 -1.1513 -1.3628
  778MOL0     C 7283   5.434   6.355   6.217  0.5372 -0.1450  0.7612
  778MOL0     C 7284   5.558   6.291   6.204  0.5297  0.9480 -0.1990
  778MOL0     O 7285   5.564   6.157   6.247  0.0248 -0.9721  0.1945
  778MOL0     C 7286   5.682   6.119   6.324  0.1141 -0.9150 -0.4895
  778MOL0     C 7287   5.654   5.987   6.394 -0.3729 -0.8092  0.2481
  778MOL0     C 7288   5.516   5.971   6.457  0.3163 -0.2160  0.5559
  778MOL0     C 7289   5.528   5.861   6.562 -0.1604  0.7181  0.4818
  778MOL0     C 7290   5.522   5.726   6.495 -0.2342  0.1379  0.3927
  778MOL0     C 7291   5.525   5.626   6.434  0.0321  1.0980 -0.8319
  778MOL0     C 7292   5.668   6.361   6.153  0.3671  0.3325 -0.6312
  778MOL0     C 7293   5.657   6.490   6.107  0.7255 -0.4837  0.0531
  778MOL0     C 7294   5.777   6.562   6.049 -1.5625  0.2166  0.0043
  778MOL0     H 7295   5.577   6.812   5.682 -1.0607 -0.3963 -0.8114
  778MOL0     H 7296   5.583   7.048   5.595 -0.3928 -1.8945 -0.4144
  778MOL0     H 7297   5.446   7.272   5.636 -1.8321 -2.0575  5.5347
  778MOL0     H 7298   5.609   7.305   5.574 -0.7793 -0.9603 -0.2263
  778MOL0     H 7299   5.462   7.470   5.794  0.3824  1.3567  0.8259
  778MOL0     H 7300   5.620   7.507   5.695  0.2718 -3.4505 -1.4868
  778MOL0     H 7301   5.479   7.501   5.487  1.6224  0.6371  0.0011
  778MOL0     H 7302   5.343   7.484   5.583  1.3758 -2.4632  0.1030
  778MOL0     H 7303   5.393   7.688   5.703 -0.7793 -0.1505  0.8684
  778MOL0     H 7304   5.534   7.726   5.602 -0.3170 -0.1698 -1.5013
  778MOL0     H 7305   5.245   7.738   5.541 -0.5692  2.8281  1.1306
  778MOL0     H 7306   5.353   7.709   5.397 -1.9583  0.8389 -0.2681
  778MOL0     H 7307   5.466   7.933   5.490  0.8989 -3.3385  2.6714
  778MOL0     H 7308   5.315   7.938   5.412 -0.1722  0.7792  0.0804
  778MOL0     H 7309   5.312   8.073   5.604  0.1828 -0.5473 -0.3279
  778MOL0     H 7310   5.399   7.956   5.702 -1.4340  1.3812  1.3118
  778MOL0     H 7311   5.110   7.908   5.617 -0.2087  1.4066 -1.2579
  778MOL0     H 7312   5.198   7.846   5.761  2.2002  0.2632  0.2050
  778MOL0     H 7313   5.264   8.000   5.959 -0.2678 -0.6337  0.5836
  778MOL0     H 7314   5.046   8.262   6.128 -0.9397 -0.0531 -0.1936
  778MOL0     H 7315   5.228   8.247   6.130 -0.1120 -0.7049 -1.4987
  778MOL0     H 7316   5.027   8.022   6.166 -2.3866  2.8831  0.9889
  778MOL0     H 7317   5.195   8.008   6.226  0.2593  1.1974  0.9316
  778MOL0     H 7318   5.077   8.238   6.356 -0.0705  0.7850  0.6790
  778MOL0     H 7319   4.946   8.120   6.335  0.1317  2.4170 -1.0613
  778MOL0     H 7320   5.212   8.027   6.436 -0.5319 -2.5727 -1.7579
  778MOL0     H 7321   5.082   8.092   6.548 -1.2574 -1.0123  1.6084
  778MOL0     H 7322   5.015   7.711   6.329  1.9530 -4.1144 -1.8762
  778MOL0     H 7323   5.066   7.389   6.385 -1.3223 -0.5084 -2.2639
  778MOL0     H 7324   5.193   7.424   6.268  0.0575 -2.9179  1.5305
  778MOL0     H 7325   5.050   7.511   6.254  2.8925  0.0803 -1.7414
  778MOL0     H 7326   5.542   7.379   6.840  0.3679 -0.1934 -1.0976
  778MOL0     H 7327   5.610   7.158   6.935 -2.2431 -0.3371  2.3540
  778MOL0     H 7328   5.691   6.935   6.910 -0.6302 -0.3195 -5.4786
  778MOL0     H 7329   5.560   6.950   7.034  1.0001 -2.6691  0.8073
  778MOL0     H 7330   5.645   6.692   6.885  1.7020 -1.5901  1.6069
  778MOL0     H 7331   5.676   6.730   7.051  1.5113 -0.8147 -0.8593
  778MOL0     H 7332   5.401   6.719   6.976  1.3813  0.7024 -2.6469
  778MOL0     H 7333   5.482   6.710   7.132  0.0747 -1.8976  0.3121
  778MOL0     H 7334   5.586   6.488   7.048  0.0226  0.8404  1.0180
  778MOL0     H 7335   5.491   6.523   6.895  1.7343  0.9792 -0.3849
  778MOL0     H 7336   5.289   6.521   7.049 -0.0312  0.2574  3.5390
  778MOL0     H 7337   5.375   6.363   6.985  0.3618 -1.9296  1.5322
  778MOL0     H 7338   5.423   6.472   7.255 -4.2468  0.3267  1.3690
  778MOL0     H 7339   5.491   6.325   7.183 -2.2028 -2.1497  2.8941
  778MOL0     H 7340   5.309   6.215   7.214  3.7523  1.0433  0.5141
  778MOL0     H 7341   5.195   6.351   7.188 -0.2131  1.9909  3.1842
  778MOL0     H 7342   5.163   6.308   7.416 -0.0207  1.1364  0.9089
  778MOL0     H 7343   5.280   6.435   7.418  1.9648 -0.5551  2.1614
  778MOL0     H 7344   5.341   6.986   6.636  2.9420 -0.9663 -1.4215
  778MOL0     H 7345   5.287   7.191   6.564 -2.5145 -2.5926  2.6027
  778MOL0     H 7346   5.352   7.677   6.672  0.1667 -4.4778 -0.0824
  778MOL0     H 7347   5.195   7.878   6.661 -2.7837 -0.0766 -0.7929
  778MOL0     H 7348   5.561   7.183   6.001 -1.6373 -0.2329 -0.7749
  778MOL0     H 7349   5.507   6.951   6.086 -3.1549 -0.6763 -0.5666
  778MOL0     H 7350   5.325   6.541   6.199  1.2255 -0.5594 -0.3182
  778MOL0     H 7351   5.347   6.301   6.254  0.6937  0.3555  1.9280
  778MOL0     H 7352   5.775   6.115   6.266 -0.1158 -0.5032 -0.8880
  778MOL0     H 7353   5.707   6.190   6.404  3.5359 -2.7682  0.2786
  778MOL0     H 7354   5.735   5.979   6.466  2.5791  4.9361 -1.8433
  778MOL0     H 7355   5.666   5.914   6.313  0.1166 -3.2628  2.3657
  778MOL0     H 7356   5.479   6.059   6.510 -2.2830 -0.7023 -0.2951
  778MOL0     H 7357   5.447   5.959   6.373  0.1304  2.2928  0.2630
  778MOL0     H 7358   5.440   5.870   6.627  0.8715  2.4231  1.7438
  778MOL0     H 7359   5.615   5.868   6.628 -0.1914 -0.3783  0.6457
  778MOL0     H 7360   5.516   5.537   6.375 -1.2918 -0.7572  1.9577
  778MOL0     H 7361   5.761   6.305   6.143 -0.9278 -2.3234  0.9953
  778MOL0     H 7362   5.758   6.606   5.951  1.0694 -1.0051 -1.1749
  778MOL0     H 7363   5.823   6.638   6.114 -0.3326 -1.6575  1.4436
  778MOL0     H 7364   5.851   6.482   6.035 -2.6229 -0.5542 -1.4461
  779MOL0     O 7365   0.144   7.538   9.568  0.3445 -0.1611 -0.8209
  779MOL0     C 7366   0.099   7.589   9.464  0.9969 -0.2277  0.0815
  779MOL0     O 7367   0.169   7.670   9.373  0.1355  0.2143 -1.1200
  779MOL0     C 7368   0.302   7.693   9.408  0.5819  0.7037 -0.5606
  779MOL0     C 7369   0.392   7.608   9.349 -1.2889  0.7465 -0.2101
  779MOL0     C 7370   0.523   7.639   9.358 -0.1707 -0.9442 -0.2746
  779MOL0     C 7371   0.577   7.740   9.435  0.2449 -0.5199 -0.5325
  779MOL0     O 7372   0.713   7.773   9.453  0.7018  0.6885  0.1389
  779MOL0     C 7373   0.804   7.708   9.364 -0.1916  0.1151  0.3764
  779MOL0     C 7374   0.934   7.783   9.362  0.0628 -0.3062 -0.6990
  779MOL0     C 7375   1.046   7.707   9.296 -0.5954  0.9139  0.1621
  779MOL0     C 7376   1.184   7.774   9.338 -0.1390 -0.0900 -0.2954
  779MOL0     C 7377   1.304   7.719   9.254  0.1470 -0.5767 -0.3272
  779MOL0     C 7378   1.416   7.827   9.233 -0.7694  0.0976 -1.0154
  779MOL0     C 7379   1.402   7.902   9.100 -0.1564 -0.8631 -0.1608
  779MOL0     C 7380   1.489   8.025   9.097  0.0923 -0.7281 -0.9245
  779MOL0     N 7381   1.452   8.135   9.188  0.2494  1.2612  0.7756
  779MOL0     C 7382   1.547   8.225   9.227  0.2618 -0.0102  0.0726
  779MOL0     C 7383   1.467   8.311   9.298 -0.0356  0.6878 -0.6003
  779MOL0     C 7384   1.520   8.429   9.385  0.1128 -0.3320 -1.3720
  779MOL0     C 7385   1.471   8.439   9.527  0.7580 -0.4403 -0.4822
  779MOL0     C 7386   1.526   8.562   9.597  0.0987  0.4198 -0.1257
  779MOL0     C 7387   1.685   8.565   9.598  0.1241 -0.7332 -0.1645
  779MOL0     O 7388   1.741   8.444   9.644 -0.4712 -0.2953  0.9580
  779MOL0     C 7389   1.877   8.411   9.627  0.4913  0.0373 -0.5032
  779MOL0     C 7390   1.948   8.425   9.508  0.0285  1.0125  0.0142
  779MOL0     C 7391   2.086   8.403   9.495 -0.7072 -0.2989  0.5212
  779MOL0     C 7392   2.150   8.395   9.358 -0.2158  0.0204 -0.0697
  779MOL0     C 7393   2.160   8.400   9.615  0.2459  0.2145 -1.0573
  779MOL0     C 7394   2.312   8.399   9.623  0.4398 -0.7695 -0.7865
  779MOL0     O 7395   2.377   8.362   9.515 -0.6577 -0.5488  0.7701
  779MOL0     C 7396   2.513   8.371   9.540  0.3626  0.3137  0.7154
  779MOL0     C 7397   2.587   8.472   9.472  0.4702  0.7251 -0.6844
  779MOL0     C 7398   2.721   8.477   9.481  0.0486 -0.2373  0.2323
  779MOL0     C 7399   2.796   8.379   9.553 -0.1659 -0.7014 -0.8982
  779MOL0     O 7400   2.930   8.377   9.570 -0.1005  0.3655  0.5402
  779MOL0     C 7401   2.996   8.503   9.575  0.7855 -0.6782  0.8296
  779MOL0     C 7402   3.086   8.494   9.705  0.3791  0.5746  0.4459
  779MOL0     C 7403   3.186   8.610   9.731  0.2077 -0.0630  0.6188
  779MOL0     C 7404   3.274   8.586   9.852  0.2699 -0.3323 -0.3896
  779MOL0     C 7405   3.369   8.702   9.896  0.7741 -0.2543  0.1270
  779MOL0     C 7406   3.476   8.663  10.007  0.1188  1.8513 -0.3315
  779MOL0     C 7407   3.622   8.633   9.958  0.6414  0.3744 -0.0793
  779MOL0     C 7408   3.713   8.748   9.988  1.0956  0.0359 -0.0498
  779MOL0    Cl 7409   3.734   8.740  10.170  0.5297 -0.3421 -0.0067
  779MOL0     C 7410   2.727   8.285   9.616  0.2111 -0.8486 -0.5259
  779MOL0     C 7411   2.590   8.280   9.611 -0.6653 -0.2444  0.2132
  779MOL0     O 7412   2.364   8.434   9.732  0.2676  0.1032  0.4357
  779MOL0     C 7413   2.093   8.394   9.742 -0.4252 -0.1447  0.8342
  779MOL0     C 7414   1.955   8.401   9.740 -0.1495 -0.3222 -1.0046
  779MOL0     N 7415   1.332   8.270   9.292 -0.5913 -0.5881 -0.8138
  779MOL0     N 7416   1.322   8.171   9.228 -0.3903 -0.1928 -0.1949
  779MOL0     C 7417   0.485   7.820   9.504 -0.9902 -0.2695  0.8017
  779MOL0     C 7418   0.348   7.788   9.498 -0.1986  0.8262 -0.3971
  779MOL0     C 7419  -0.041   7.544   9.433  0.5944 -0.7376  0.2088
  779MOL0     C 7420  -0.101   7.435   9.506 -0.9532  0.4154 -1.3511
  779MOL0     C 7421  -0.235   7.393   9.491  0.5682  0.4398  0.8216
  779MOL0     C 7422  -0.312   7.469   9.395  0.0007  0.4885 -0.9498
  779MOL0     O 7423  -0.450   7.455   9.367  0.5859  0.2971 -0.2087
  779MOL0     C 7424  -0.509   7.330   9.413  0.6770 -0.2689 -0.8298
  779MOL0     C 7425  -0.646   7.305   9.355  0.3965  0.9978  0.0826
  779MOL0     C 7426  -0.703   7.169   9.387 -0.5346 -0.5195 -0.0904
  779MOL0     C 7427  -0.855   7.172   9.353  0.0744  0.3892 -0.6529
  779MOL0     C 7428  -0.920   7.050   9.397 -0.6991  0.6215 -0.1479
  779MOL0     C 7429  -0.962   6.943   9.443  0.8952 -0.4480  0.6454
  779MOL0     C 7430  -0.253   7.570   9.323  0.2255  0.7214  0.2262
  779MOL0     C 7431  -0.124   7.621   9.342 -1.5205 -1.0996 -0.1603
  779MOL0     C 7432  -0.073   7.712   9.237 -1.2341  0.1144  0.4713
  779MOL0     H 7433   0.369   7.522   9.286 -1.9414 -0.5806  1.7465
  779MOL0     H 7434   0.586   7.569   9.303  0.0459  0.4649 -1.9252
  779MOL0     H 7435   0.761   7.704   9.264 -0.3731  0.3941  0.4400
  779MOL0     H 7436   0.813   7.601   9.384 -0.4959 -0.6608 -3.0440
  779MOL0     H 7437   0.909   7.878   9.315  1.1560  0.6730  0.6214
  779MOL0     H 7438   0.976   7.817   9.457  3.1044 -4.1056 -0.4036
  779MOL0     H 7439   1.045   7.604   9.334  3.4238  0.2210 -1.1555
  779MOL0     H 7440   1.031   7.688   9.190  1.7210  0.4289 -0.1380
  779MOL0     H 7441   1.169   7.882   9.328  2.5809  0.4177  0.3650
  779MOL0     H 7442   1.208   7.752   9.442  0.4857  1.3696 -0.1045
  779MOL0     H 7443   1.250   7.703   9.160 -0.0306  0.1591 -0.3595
  779MOL0     H 7444   1.338   7.624   9.296  1.7877 -0.7751 -1.9636
  779MOL0     H 7445   1.417   7.899   9.316 -2.3443 -2.5435  1.5228
  779MOL0     H 7446   1.503   7.762   9.245 -1.8444 -1.2977 -0.4092
  779MOL0     H 7447   1.300   7.941   9.097 -0.4993 -1.7064  0.2419
  779MOL0     H 7448   1.413   7.838   9.012 -3.1358  0.0421 -1.3196
  779MOL0     H 7449   1.586   7.985   9.128 -0.0446 -1.5770 -1.5532
  779MOL0     H 7450   1.499   8.071   8.998  1.8668  3.0712  0.7887
  779MOL0     H 7451   1.653   8.228   9.202  0.2020  0.0928 -0.1694
  779MOL0     H 7452   1.483   8.523   9.344  0.0230  0.2274 -0.0643
  779MOL0     H 7453   1.628   8.419   9.372  0.3976  1.4411 -0.7212
  779MOL0     H 7454   1.362   8.447   9.528  0.8610  1.7718  0.6611
  779MOL0     H 7455   1.491   8.344   9.578  4.1707  0.1322 -0.5547
  779MOL0     H 7456   1.481   8.647   9.545 -1.2578 -0.6715 -0.8011
  779MOL0     H 7457   1.510   8.558   9.705  2.4015 -3.6562  0.2705
  779MOL0     H 7458   1.723   8.580   9.497 -1.3423  1.9483 -0.4103
  779MOL0     H 7459   1.724   8.642   9.666  0.9469 -1.0159 -0.2948
  779MOL0     H 7460   1.895   8.442   9.415 -3.0529 -0.7822  1.2767
  779MOL0     H 7461   2.175   8.292   9.331  1.7424  1.2429 -3.4998
  779MOL0     H 7462   2.241   8.456   9.355  1.4539 -2.3331 -0.3990
  779MOL0     H 7463   2.086   8.426   9.275 -0.8621  3.2767  1.4735
  779MOL0     H 7464   2.528   8.541   9.413  0.2711  1.9099  0.8536
  779MOL0     H 7465   2.776   8.551   9.424 -2.9517  1.1245 -1.1563
  779MOL0     H 7466   3.057   8.522   9.487 -0.8849 -1.7264 -0.6199
  779MOL0     H 7467   2.922   8.580   9.599 -0.9999 -2.4116  1.2479
  779MOL0     H 7468   3.014   8.494   9.787 -1.5203 -3.3124 -0.9972
  779MOL0     H 7469   3.130   8.395   9.717 -1.0619  0.1379  2.7053
  779MOL0     H 7470   3.141   8.709   9.741  3.3187  2.2505 -4.2188
  779MOL0     H 7471   3.244   8.621   9.638  0.7487 -3.5205  0.4289
  779MOL0     H 7472   3.332   8.494   9.837  2.4162  0.7182  0.9116
  779MOL0     H 7473   3.202   8.569   9.933 -2.5183  2.3674 -2.0939
  779MOL0     H 7474   3.424   8.744   9.811 -0.1154 -0.5478 -0.6211
  779MOL0     H 7475   3.316   8.786   9.941 -1.3140 -0.1032 -2.3455
  779MOL0     H 7476   3.433   8.578  10.061 -4.0456  3.9472  0.0399
  779MOL0     H 7477   3.493   8.736  10.086  1.8083  1.7428 -0.5349
  779MOL0     H 7478   3.623   8.611   9.851  0.4121 -2.4245  0.4188
  779MOL0     H 7479   3.665   8.552  10.019  0.3664  2.2771  2.8263
  779MOL0     H 7480   3.667   8.847   9.977  1.5815  0.4010  1.0682
  779MOL0     H 7481   3.809   8.745   9.936  0.2130  2.5105 -2.0496
  779MOL0     H 7482   2.779   8.212   9.676 -1.9320 -0.6253  1.7484
  779MOL0     H 7483   2.547   8.197   9.665 -0.4448 -0.2364  0.4023
  779MOL0     H 7484   2.140   8.395   9.840  0.7351  0.3127  0.2816
  779MOL0     H 7485   1.907   8.387   9.836  3.9764 -4.3316  0.8524
  779MOL0     H 7486   0.507   7.912   9.557  1.2323  0.7565 -1.6878
  779MOL0     H 7487   0.277   7.856   9.545  0.1817  2.2701 -1.8210
  779MOL0     H 7488  -0.040   7.376   9.574 -1.9408  0.6185 -0.2496
  779MOL0     H 7489  -0.275   7.320   9.560  0.2162 -3.1023 -2.7538
  779MOL0     H 7490  -0.437   7.252   9.385  2.0462  0.2812  0.9744
  779MOL0     H 7491  -0.518   7.323   9.522 -2.6349  0.9755 -0.9094
  779MOL0     H 7492  -0.641   7.318   9.246  2.1535  0.5462  0.0811
  779MOL0     H 7493  -0.723   7.380   9.376 -2.7788 -2.2346  0.8884
  779MOL0     H 7494  -0.641   7.100   9.328 -0.7435  2.1800 -3.8427
  779MOL0     H 7495  -0.705   7.146   9.494 -0.2006  3.1966  0.8527
  779MOL0     H 7496  -0.879   7.186   9.248  0.4987  0.2565 -0.7702
  779MOL0     H 7497  -0.901   7.259   9.402 -3.9482 -1.3610 -0.9636
  779MOL0     H 7498  -1.027   6.863   9.475  0.4238  0.3758  1.7799
  779MOL0     H 7499  -0.319   7.616   9.250  0.3026 -3.9518 -3.2575
  779MOL0     H 7500  -0.153   7.742   9.169  0.0659 -0.3494 -1.3250
  779MOL0     H 7501  -0.015   7.795   9.279 -2.0190  0.6521  0.5131
  779MOL0     H 7502  -0.004   7.650   9.179  0.3801  1.8936  0.3631
  780MOL0     O 7503   2.629   2.604   0.847 -0.4955 -1.2365  0.2228
  780MOL0     C 7504   2.631   2.572   0.964  0.0347 -0.4098  0.8642
  780MOL0     O 7505   2.529   2.594   1.047  0.0888 -0.2332 -0.5708
  780MOL0     C 7506   2.396   2.556   1.032 -0.1447  0.4272 -0.1609
  780MOL0     C 7507   2.297   2.589   1.125  0.7764 -0.9210 -0.2212
  780MOL0     C 7508   2.171   2.530   1.125  0.1856 -0.4360 -0.7532
  780MOL0     C 7509   2.129   2.448   1.018 -0.5756 -0.2247  0.4759
  780MOL0     O 7510   1.999   2.408   1.013  0.6895 -0.2491  0.4518
  780MOL0     C 7511   1.935   2.372   0.890  0.9327 -0.8389  0.2516
  780MOL0     C 7512   1.918   2.508   0.818  0.0844  0.2386  0.1369
  780MOL0     C 7513   1.872   2.488   0.678  1.0187  1.2832  0.0203
  780MOL0     C 7514   1.975   2.417   0.590 -0.4523  2.1083  0.3762
  780MOL0     C 7515   1.942   2.426   0.440 -0.1178 -0.1449 -0.7124
  780MOL0     C 7516   2.061   2.344   0.372  0.1002 -1.1577 -0.2467
  780MOL0     C 7517   2.006   2.317   0.237 -0.3602  0.9387 -0.0279
  780MOL0     C 7518   2.098   2.226   0.153  0.2082 -0.4275  0.8941
  780MOL0     N 7519   2.023   2.123   0.077  0.5507 -0.5230  0.4891
  780MOL0     C 7520   2.022   1.994   0.115 -0.7035  0.7536  1.3631
  780MOL0     C 7521   1.985   1.929   0.002 -0.1277 -0.2714  0.2580
  780MOL0     C 7522   1.987   1.777  -0.015 -0.5483 -0.2684 -0.5131
  780MOL0     C 7523   1.913   1.701   0.100  0.5750 -0.6976 -0.3313
  780MOL0     C 7524   1.917   1.535   0.094 -1.0153 -0.1450  0.3506
  780MOL0     C 7525   1.828   1.482  -0.026 -1.1083 -0.5497  0.2572
  780MOL0     O 7526   1.844   1.332  -0.027  0.4288 -0.7959  0.6051
  780MOL0     C 7527   1.863   1.272  -0.146  0.9698  0.0011 -0.0702
  780MOL0     C 7528   1.841   1.317  -0.270 -0.6309  0.2211 -0.2354
  780MOL0     C 7529   1.865   1.247  -0.387  0.0609 -0.1231 -0.3099
  780MOL0     C 7530   1.837   1.317  -0.516  1.1846 -0.3244 -0.1275
  780MOL0     C 7531   1.895   1.105  -0.370 -0.3474 -1.3350 -2.2071
  780MOL0     C 7532   1.905   1.016  -0.480  0.2514  0.2893 -0.7392
  780MOL0     O 7533   1.835   1.032  -0.606 -0.2552 -0.0250  0.4864
  780MOL0     C 7534   1.888   0.954  -0.708  0.2939 -0.1308  0.6660
  780MOL0     C 7535   1.995   0.998  -0.775 -0.2972 -0.2982  0.1376
  780MOL0     C 7536   2.053   0.922  -0.877  0.3273  1.2595  0.1802
  780MOL0     C 7537   2.001   0.791  -0.904  0.3921 -0.2661  1.2330
  780MOL0     O 7538   2.057   0.691  -0.974  0.1942  0.1952 -0.2858
  780MOL0     C 7539   2.202   0.672  -0.975  0.9024  0.0590  0.1447
  780MOL0     C 7540   2.261   0.747  -1.093  0.5494 -0.4573 -0.1539
  780MOL0     C 7541   2.189   0.741  -1.224 -0.2842 -0.2586  0.0389
  780MOL0     C 7542   2.150   0.598  -1.278 -0.4881 -0.0956  0.6238
  780MOL0     C 7543   2.135   0.601  -1.444 -0.9963  0.4905  0.5687
  780MOL0     C 7544   2.062   0.484  -1.510  0.8107  1.2187  0.8750
  780MOL0     C 7545   2.137   0.355  -1.495  0.6103 -0.1488  1.0187
  780MOL0     C 7546   2.257   0.358  -1.578  0.6580 -0.2495  0.0587
  780MOL0    Cl 7547   2.292   0.195  -1.599 -0.1351 -0.2255 -0.1064
  780MOL0     C 7548   1.873   0.753  -0.847 -1.1198 -0.2668  0.6407
  780MOL0     C 7549   1.824   0.840  -0.743  0.9338 -0.2827 -0.0428
  780MOL0     O 7550   1.977   0.919  -0.452  0.7827 -0.4168 -0.0639
  780MOL0     C 7551   1.912   1.058  -0.233 -1.0430  0.2449  0.7038
  780MOL0     C 7552   1.893   1.139  -0.129  1.0193  0.2836 -0.7600
  780MOL0     N 7553   1.954   2.025  -0.090  0.6214 -0.2681 -0.1065
  780MOL0     N 7554   1.967   2.143  -0.047 -0.2269  0.1422 -0.1450
  780MOL0     C 7555   2.224   2.418   0.926 -0.1544 -0.5256  0.2839
  780MOL0     C 7556   2.357   2.468   0.931 -0.2647 -0.7558  0.0317
  780MOL0     C 7557   2.759   2.509   1.009  0.0101 -0.5046 -0.4262
  780MOL0     C 7558   2.841   2.459   0.906 -0.8961  1.1316 -0.0226
  780MOL0     C 7559   2.966   2.399   0.926  0.7441  0.0042  0.4679
  780MOL0     C 7560   3.012   2.383   1.057  0.1548  0.4365  0.9699
  780MOL0     O 7561   3.133   2.321   1.062 -0.4064 -0.5722  0.0494
  780MOL0     C 7562   3.212   2.324   1.182  0.3658  0.2845 -0.4509
  780MOL0     C 7563   3.347   2.254   1.160 -0.0296 -1.4460  1.4246
  780MOL0     C 7564   3.457   2.284   1.249  0.4655 -0.7112 -0.9065
  780MOL0     C 7565   3.603   2.240   1.198 -0.0722 -1.0800  0.4032
  780MOL0     C 7566   3.716   2.272   1.288  0.1875 -0.0159 -0.6752
  780MOL0     C 7567   3.806   2.279   1.371  1.2144 -0.2704  0.3273
  780MOL0     C 7568   2.934   2.426   1.164 -0.4775 -0.9987 -0.0878
  780MOL0     C 7569   2.816   2.503   1.139  0.4749 -0.0560 -0.1943
  780MOL0     C 7570   2.728   2.549   1.256  0.0998 -0.1839  0.5987
  780MOL0     H 7571   2.334   2.652   1.205  0.9335  0.3243 -1.2480
  780MOL0     H 7572   2.102   2.572   1.197  2.2553  1.3344  0.3129
  780MOL0     H 7573   1.839   2.321   0.902  1.7080 -2.1372  1.3032
  780MOL0     H 7574   1.995   2.297   0.837  1.4530 -1.9157  2.2158
  780MOL0     H 7575   1.852   2.579   0.867  1.3215  0.9686  0.7982
  780MOL0     H 7576   2.018   2.553   0.813  0.3853 -0.5174 -1.2694
  780MOL0     H 7577   1.777   2.433   0.677  0.9544  1.3786  0.6369
  780MOL0     H 7578   1.846   2.587   0.639 -2.3010  0.4455 -0.2540
  780MOL0     H 7579   2.074   2.454   0.617  1.1458 -1.9433  0.6960
  780MOL0     H 7580   1.972   2.310   0.613 -0.5079  1.5805 -1.9227
  780MOL0     H 7581   1.941   2.532   0.413  0.5199 -0.3151 -1.4419
  780MOL0     H 7582   1.844   2.385   0.416 -0.8848  1.5442 -0.6543
  780MOL0     H 7583   2.164   2.377   0.384 -1.1105  3.2641 -0.3624
  780MOL0     H 7584   2.056   2.246   0.420  0.6654 -1.0330  0.0745
  780MOL0     H 7585   1.991   2.408   0.177 -1.8166  0.5180 -0.3428
  780MOL0     H 7586   1.905   2.274   0.236  0.5844 -1.4435  0.4835
  780MOL0     H 7587   2.139   2.289   0.074 -1.5394  1.2067  1.2250
  780MOL0     H 7588   2.182   2.186   0.211  1.6838  2.1756  0.6944
  780MOL0     H 7589   2.075   1.941   0.194  1.0823 -0.5562 -0.6059
  780MOL0     H 7590   2.092   1.747  -0.008 -0.9288 -2.8765 -3.4860
  780MOL0     H 7591   1.950   1.763  -0.117 -1.9045  1.1085 -0.2433
  780MOL0     H 7592   1.947   1.737   0.197  1.4585 -0.0825 -0.8555
  780MOL0     H 7593   1.808   1.733   0.094  1.5433  2.5549 -3.1185
  780MOL0     H 7594   2.020   1.504   0.073 -0.7056  0.0924  1.4745
  780MOL0     H 7595   1.883   1.496   0.190 -0.5402  1.0138  1.0098
  780MOL0     H 7596   1.729   1.505   0.013 -0.2688  4.1717  0.2244
  780MOL0     H 7597   1.836   1.540  -0.119 -1.6113  0.6758  0.9470
  780MOL0     H 7598   1.806   1.420  -0.272 -3.2694 -0.4798  2.5823
  780MOL0     H 7599   1.752   1.274  -0.569 -2.6272  7.2193 -1.5210
  780MOL0     H 7600   1.925   1.309  -0.581  3.5366  1.5452  2.5797
  780MOL0     H 7601   1.810   1.423  -0.515 -1.7608 -0.9791 -0.0286
  780MOL0     H 7602   2.042   1.091  -0.746  1.8965 -1.9092  2.0530
  780MOL0     H 7603   2.147   0.950  -0.923  1.7845 -0.3587  1.9820
  780MOL0     H 7604   2.258   0.715  -0.891 -0.6660  2.4544  0.0645
  780MOL0     H 7605   2.233   0.567  -0.980  3.2036  0.5521  1.9767
  780MOL0     H 7606   2.287   0.847  -1.057 -0.5027  0.1805 -1.0842
  780MOL0     H 7607   2.364   0.714  -1.108  1.8397  1.2925  3.4519
  780MOL0     H 7608   2.252   0.789  -1.300  1.1646  1.5897  2.3028
  780MOL0     H 7609   2.100   0.804  -1.214 -0.7970 -0.7024 -1.3731
  780MOL0     H 7610   2.048   0.571  -1.251  0.3845 -3.3650  1.1095
  780MOL0     H 7611   2.221   0.517  -1.258  0.1464 -0.2015 -1.6917
  780MOL0     H 7612   2.074   0.688  -1.472 -0.9538 -0.0268 -1.2504
  780MOL0     H 7613   2.236   0.616  -1.483 -1.4437 -0.3117 -0.9636
  780MOL0     H 7614   2.042   0.492  -1.617 -4.2350 -2.8347  1.0869
  780MOL0     H 7615   1.961   0.493  -1.469  0.8214  2.2037  0.6938
  780MOL0     H 7616   2.068   0.273  -1.516  0.9969 -0.2605  0.1724
  780MOL0     H 7617   2.152   0.337  -1.388 -0.4863 -1.1616  1.0262
  780MOL0     H 7618   2.332   0.406  -1.515 -0.7782  1.5882  0.4600
  780MOL0     H 7619   2.252   0.405  -1.677  0.9167  0.2679  0.2864
  780MOL0     H 7620   1.837   0.653  -0.869  3.9868 -3.1153  3.4166
  780MOL0     H 7621   1.741   0.791  -0.694  0.5676  0.6082  0.2494
  780MOL0     H 7622   1.930   0.951  -0.227 -0.3785 -0.0639 -3.7264
  780MOL0     H 7623   1.902   1.102  -0.027 -2.6819  1.0734 -0.0045
  780MOL0     H 7624   2.207   2.354   0.841 -5.3526  1.6928 -0.7516
  780MOL0     H 7625   2.426   2.435   0.854 -1.4371 -1.0380 -0.9266
  780MOL0     H 7626   2.796   2.455   0.808 -0.4581  2.7657 -0.3306
  780MOL0     H 7627   3.021   2.353   0.845 -1.4816  0.9387 -1.6903
  780MOL0     H 7628   3.234   2.424   1.221  4.7813  0.8760 -3.7337
  780MOL0     H 7629   3.158   2.270   1.261  2.0697 -2.3279 -0.9268
  780MOL0     H 7630   3.378   2.294   1.063 -3.6239 -0.9272  0.3346
  780MOL0     H 7631   3.340   2.148   1.134  0.8490 -0.4037 -4.4817
  780MOL0     H 7632   3.447   2.392   1.262  1.4281 -0.8342  1.2285
  780MOL0     H 7633   3.443   2.233   1.345  1.4125 -0.9099 -0.8597
  780MOL0     H 7634   3.617   2.281   1.097 -1.2782 -0.5254  0.4400
  780MOL0     H 7635   3.589   2.131   1.201  1.0534 -1.2549 -0.0266
  780MOL0     H 7636   3.875   2.272   1.453 -0.2159  1.4343  1.7812
  780MOL0     H 7637   2.964   2.410   1.267  1.9618 -3.7285 -1.0692
  780MOL0     H 7638   2.638   2.487   1.247 -0.0928  0.1067  0.5198
  780MOL0     H 7639   2.773   2.531   1.354 -1.4392  1.1393  1.6088
  780MOL0     H 7640   2.696   2.652   1.239  0.6852  0.2198  1.8181
  781MOL0     O 7641   9.111   2.979   2.642  0.0012 -0.4459 -0.4183
  781MOL0     C 7642   9.100   2.885   2.722  0.6896 -1.0334  0.2123
  781MOL0     O 7643   9.103   2.892   2.858  0.6085  0.1459  0.7589
  781MOL0     C 7644   9.120   3.015   2.924 -0.7027  0.1069 -0.1956
  781MOL0     C 7645   9.011   3.063   3.000  0.6882  0.5987  0.0655
  781MOL0     C 7646   9.021   3.178   3.072 -0.7463 -0.2619 -0.2554
  781MOL0     C 7647   9.140   3.246   3.093 -0.0106 -0.2177 -0.3572
  781MOL0     O 7648   9.156   3.366   3.173  0.1245  0.5034  0.3106
  781MOL0     C 7649   9.046   3.418   3.251 -0.4173  0.1318 -0.4386
  781MOL0     C 7650   9.072   3.554   3.316  0.8918  0.9074 -0.1918
  781MOL0     C 7651   9.185   3.550   3.414 -0.5277 -0.0694  0.1587
  781MOL0     C 7652   9.182   3.665   3.524 -0.0682  0.2906  0.3166
  781MOL0     C 7653   9.174   3.811   3.476 -0.1932 -0.0399  0.0735
  781MOL0     C 7654   9.101   3.915   3.567 -0.3719 -0.9014 -0.3186
  781MOL0     C 7655   9.154   3.912   3.712  0.2600 -0.2261 -0.4943
  781MOL0     C 7656   9.299   3.959   3.709 -0.4754 -0.6313 -0.2665
  781MOL0     N 7657   9.312   4.089   3.641 -1.0623 -0.6135  0.1794
  781MOL0     C 7658   9.369   4.114   3.519 -0.0142 -0.5861  0.5404
  781MOL0     C 7659   9.360   4.250   3.500 -0.2566 -0.8923 -1.3502
  781MOL0     C 7660   9.419   4.319   3.377  0.3730 -0.0205  0.2002
  781MOL0     C 7661   9.334   4.440   3.336  0.1593  0.5252 -0.0268
  781MOL0     C 7662   9.186   4.400   3.310 -0.6813  0.8411  0.8675
  781MOL0     C 7663   9.161   4.325   3.177  0.6472  0.5836  0.4558
  781MOL0     O 7664   9.026   4.313   3.140  0.1899 -0.7285  0.8692
  781MOL0     C 7665   8.954   4.199   3.167  0.6501 -0.6118  0.2262
  781MOL0     C 7666   8.839   4.175   3.099  0.0467  0.4337 -0.0077
  781MOL0     C 7667   8.745   4.071   3.128 -0.8746  1.2401 -0.3762
  781MOL0     C 7668   8.612   4.074   3.057 -0.0610  0.4780 -0.3161
  781MOL0     C 7669   8.783   3.971   3.222  0.7451 -0.1618 -0.9649
  781MOL0     C 7670   8.704   3.855   3.262 -0.5833  0.4438  0.1897
  781MOL0     O 7671   8.709   3.803   3.394 -0.1855 -0.0901 -0.0453
  781MOL0     C 7672   8.616   3.711   3.428 -0.2998  0.8046 -0.3099
  781MOL0     C 7673   8.479   3.714   3.396  0.6861  0.4493  0.1616
  781MOL0     C 7674   8.388   3.619   3.425  0.3466  0.3330  0.6844
  781MOL0     C 7675   8.435   3.495   3.472 -0.5382  0.0999 -0.1600
  781MOL0     O 7676   8.367   3.379   3.493 -0.1517  0.3119  0.1021
  781MOL0     C 7677   8.252   3.337   3.420  0.3366  0.5146 -0.3509
  781MOL0     C 7678   8.180   3.234   3.500  0.0023  0.3043  0.4731
  781MOL0     C 7679   8.026   3.218   3.456  0.3041 -0.3114  0.1093
  781MOL0     C 7680   7.967   3.072   3.459  0.2021  0.0100 -0.6774
  781MOL0     C 7681   8.014   2.992   3.585 -0.2003  0.5615 -0.5168
  781MOL0     C 7682   7.936   3.020   3.716 -0.6514 -0.0914  0.1933
  781MOL0     C 7683   8.019   2.981   3.837  0.6299  0.3584  0.1830
  781MOL0     C 7684   7.936   2.938   3.955  1.7357  0.1790 -1.1741
  781MOL0    Cl 7685   8.056   2.898   4.090 -0.1349 -0.3330  0.3040
  781MOL0     C 7686   8.571   3.489   3.511 -0.3150  0.4218  0.0661
  781MOL0     C 7687   8.665   3.595   3.497  0.8694  0.1661 -0.2877
  781MOL0     O 7688   8.641   3.796   3.168  0.2859  0.7667 -0.6808
  781MOL0     C 7689   8.902   3.990   3.289  0.3063  0.2903 -0.4118
  781MOL0     C 7690   8.984   4.092   3.260 -0.8694  0.0744  0.1864
  781MOL0     N 7691   9.308   4.304   3.620  0.5681 -0.1910 -0.2130
  781MOL0     N 7692   9.272   4.206   3.695 -0.0471 -0.0108 -0.4660
  781MOL0     C 7693   9.246   3.207   3.014 -0.4720  0.6613  0.8445
  781MOL0     C 7694   9.237   3.089   2.927 -0.1210 -0.2128 -0.2618
  781MOL0     C 7695   9.117   2.755   2.662  0.9288  0.4166 -0.3066
  781MOL0     C 7696   9.223   2.678   2.715 -0.0546 -0.8226  0.2055
  781MOL0     C 7697   9.238   2.545   2.673  0.2536 -0.6037 -0.6284
  781MOL0     C 7698   9.154   2.486   2.584  0.5952  0.3548  0.7672
  781MOL0     O 7699   9.190   2.361   2.542  1.5889  0.6419  0.4069
  781MOL0     C 7700   9.128   2.256   2.615  0.9417  0.3534 -1.2315
  781MOL0     C 7701   9.113   2.130   2.534  0.2967 -0.3328  0.1332
  781MOL0     C 7702   9.251   2.056   2.514 -0.7858  1.1275 -0.5190
  781MOL0     C 7703   9.225   1.900   2.477 -0.8501 -0.5668  0.5963
  781MOL0     C 7704   9.186   1.895   2.344 -0.1271 -0.0438  0.6921
  781MOL0     C 7705   9.167   1.912   2.223  0.2385  0.2391 -0.1454
  781MOL0     C 7706   9.052   2.567   2.516 -0.2471  0.0099 -0.3215
  781MOL0     C 7707   9.034   2.697   2.564  0.8632 -0.3520  1.0433
  781MOL0     C 7708   8.924   2.783   2.508 -0.2959 -0.9440  0.8949
  781MOL0     H 7709   8.920   3.013   2.969  1.5941 -1.0516 -0.0340
  781MOL0     H 7710   8.935   3.215   3.126  1.0407  3.7427  0.2316
  781MOL0     H 7711   9.016   3.362   3.340  1.7160 -0.5162 -0.0648
  781MOL0     H 7712   8.958   3.434   3.188 -0.9303  2.5742  0.7708
  781MOL0     H 7713   9.102   3.618   3.232 -1.1548  1.4462 -0.5647
  781MOL0     H 7714   8.973   3.578   3.356  1.0837 -0.5806  1.2864
  781MOL0     H 7715   9.191   3.454   3.466 -1.4949 -2.2426 -3.3840
  781MOL0     H 7716   9.282   3.566   3.365  0.3060 -2.6074  0.8338
  781MOL0     H 7717   9.088   3.641   3.575  0.7872  1.0396  2.3716
  781MOL0     H 7718   9.256   3.654   3.604  1.8297  1.7144 -1.1612
  781MOL0     H 7719   9.125   3.808   3.379 -0.5543  2.5597  0.0999
  781MOL0     H 7720   9.271   3.860   3.464  0.6624 -0.6098  3.5414
  781MOL0     H 7721   9.100   4.019   3.534  0.7355 -0.3372  1.3026
  781MOL0     H 7722   9.001   3.872   3.567 -0.2028 -1.3588 -1.5630
  781MOL0     H 7723   9.150   3.813   3.758 -0.9848  0.2191  0.4018
  781MOL0     H 7724   9.093   3.981   3.772  2.9891  2.6251 -0.7211
  781MOL0     H 7725   9.335   3.987   3.809 -1.5608 -1.0820  0.2802
  781MOL0     H 7726   9.373   3.888   3.672  1.6426  0.0948  2.2966
  781MOL0     H 7727   9.417   4.051   3.444 -5.6718  0.2392 -4.5363
  781MOL0     H 7728   9.424   4.253   3.290 -1.4504  0.2597 -0.1635
  781MOL0     H 7729   9.525   4.342   3.392  0.9152 -2.1178 -0.1228
  781MOL0     H 7730   9.324   4.517   3.412  2.9986 -1.8536  3.1010
  781MOL0     H 7731   9.370   4.488   3.245  0.4168 -2.3329 -1.5519
  781MOL0     H 7732   9.135   4.349   3.393 -5.2608  0.8798 -1.6175
  781MOL0     H 7733   9.128   4.492   3.300 -0.0961  0.9650 -2.7277
  781MOL0     H 7734   9.213   4.363   3.088  0.9609  0.9847  0.8068
  781MOL0     H 7735   9.199   4.223   3.187  0.0873 -0.0071 -2.6016
  781MOL0     H 7736   8.808   4.244   3.022 -6.3069 -0.7692  0.8706
  781MOL0     H 7737   8.605   3.989   2.989  1.1070  1.5377 -1.8387
  781MOL0     H 7738   8.611   4.163   2.994  0.2757 -0.8398 -2.2601
  781MOL0     H 7739   8.527   4.078   3.126 -1.8498 -0.2883 -2.3614
  781MOL0     H 7740   8.439   3.799   3.341 -1.4593 -2.0012 -2.4565
  781MOL0     H 7741   8.286   3.637   3.391  0.8448 -1.5078 -2.1394
  781MOL0     H 7742   8.194   3.429   3.407  0.3971  0.5218 -0.5619
  781MOL0     H 7743   8.279   3.296   3.323  1.1754 -2.5703  1.0440
  781MOL0     H 7744   8.236   3.143   3.478  1.1068  0.4307  2.5179
  781MOL0     H 7745   8.189   3.245   3.608  0.1572 -0.1309  0.5063
  781MOL0     H 7746   8.020   3.260   3.355  1.9711 -1.4040 -0.4885
  781MOL0     H 7747   7.967   3.283   3.521  3.8258  2.5075  0.7930
  781MOL0     H 7748   8.013   3.027   3.371  1.9958  0.7581 -0.1555
  781MOL0     H 7749   7.858   3.077   3.450  0.1699 -2.2614 -2.4181
  781MOL0     H 7750   7.991   2.887   3.568  1.9879 -0.0860  0.1374
  781MOL0     H 7751   8.123   3.005   3.593 -0.4250  4.7703 -1.6865
  781MOL0     H 7752   7.840   2.968   3.709 -2.8324  3.2844  2.2604
  781MOL0     H 7753   7.904   3.124   3.720 -1.8280 -0.4586  1.0051
  781MOL0     H 7754   8.085   3.058   3.876  0.0811  1.0622 -0.2495
  781MOL0     H 7755   8.086   2.897   3.814  0.7354  0.2340  0.9136
  781MOL0     H 7756   7.868   2.854   3.946  0.8653  0.1441  3.4432
  781MOL0     H 7757   7.878   3.020   3.999  0.3246 -1.0052 -0.7950
  781MOL0     H 7758   8.603   3.397   3.560 -0.3903 -1.6035 -3.3564
  781MOL0     H 7759   8.764   3.588   3.539 -0.1109 -0.6853  2.0977
  781MOL0     H 7760   8.933   3.909   3.354 -0.7396 -1.6669 -2.1918
  781MOL0     H 7761   9.084   4.091   3.304 -0.7970 -1.9686  0.0581
  781MOL0     H 7762   9.340   3.261   3.015 -1.1878  1.9240  0.8018
  781MOL0     H 7763   9.320   3.069   2.860  0.9654  2.0767  0.2941
  781MOL0     H 7764   9.285   2.716   2.795 -1.2907 -0.1692  0.8921
  781MOL0     H 7765   9.300   2.479   2.733  1.1912 -1.7325 -2.7159
  781MOL0     H 7766   9.194   2.234   2.699 -0.9723 -2.0503 -0.2268
  781MOL0     H 7767   9.031   2.295   2.649  0.4701  0.8493 -3.0123
  781MOL0     H 7768   9.074   2.164   2.437 -0.2018 -2.1989 -0.3625
  781MOL0     H 7769   9.049   2.056   2.583  1.3346 -0.2713  1.6280
  781MOL0     H 7770   9.316   2.105   2.440 -0.1829  1.1874  0.0434
  781MOL0     H 7771   9.298   2.056   2.612 -0.5745 -0.5179 -0.5974
  781MOL0     H 7772   9.138   1.858   2.529 -1.4369 -1.5481 -1.1175
  781MOL0     H 7773   9.316   1.843   2.497 -1.9220 -0.9046  6.7488
  781MOL0     H 7774   9.156   1.945   2.121  1.5076  5.3530  1.1062
  781MOL0     H 7775   8.990   2.516   2.443  0.7074 -0.9324 -0.4990
  781MOL0     H 7776   8.876   2.727   2.428 -0.5815 -1.9199  1.7364
  781MOL0     H 7777   8.848   2.809   2.582 -4.7310  1.5461 -3.8703
  781MOL0     H 7778   8.977   2.871   2.470 -0.0397 -0.2969  2.6650
  782MOL0     O 7779   6.977   9.231   0.630  0.9240 -0.0497  0.6297
  782MOL0     C 7780   7.018   9.150   0.547  0.6045 -0.0737 -0.1950
  782MOL0     O 7781   7.157   9.135   0.512  0.0198  0.2299 -0.2488
  782MOL0     C 7782   7.241   9.210   0.576 -0.4684  0.0196 -0.0665
  782MOL0     C 7783   7.308   9.162   0.689 -1.0996  0.3121 -0.0077
  782MOL0     C 7784   7.406   9.240   0.755  0.7614 -0.2907  0.1262
  782MOL0     C 7785   7.445   9.365   0.698  0.5720 -0.4983  0.1424
  782MOL0     O 7786   7.539   9.441   0.752 -0.4731 -0.3815 -0.3288
  782MOL0     C 7787   7.631   9.381   0.831 -0.9477  0.1800 -0.2392
  782MOL0     C 7788   7.756   9.474   0.837 -0.5625  0.2251 -0.6272
  782MOL0     C 7789   7.863   9.439   0.726  0.2104 -0.1540  0.3653
  782MOL0     C 7790   7.971   9.543   0.711  0.2895 -0.4823  0.3893
  782MOL0     C 7791   8.091   9.505   0.610 -0.2495 -1.3955 -0.2957
  782MOL0     C 7792   8.193   9.620   0.579 -0.3560  0.4146  0.6560
  782MOL0     C 7793   8.135   9.721   0.481 -0.1611 -0.4929 -0.0338
  782MOL0     C 7794   8.212   9.846   0.467  0.4453 -0.0777  0.2421
  782MOL0     N 7795   8.315   9.836   0.365 -0.4977 -0.3413  0.5543
  782MOL0     C 7796   8.323   9.895   0.241 -0.2672 -0.3823  0.6748
  782MOL0     C 7797   8.435   9.854   0.182 -0.1313 -0.3172  1.1297
  782MOL0     C 7798   8.477   9.899   0.051 -0.2186  0.6413  0.2680
  782MOL0     C 7799   8.586  10.012   0.069  0.8961 -0.4782 -0.3510
  782MOL0     C 7800   8.616  10.065  -0.070 -0.1507  0.4944 -0.1208
  782MOL0     C 7801   8.653  10.211  -0.061 -0.1343 -0.7053  0.0663
  782MOL0     O 7802   8.632  10.254  -0.193 -0.4846 -0.0399  0.4141
  782MOL0     C 7803   8.687  10.376  -0.235 -1.1473 -0.3543 -0.9491
  782MOL0     C 7804   8.653  10.408  -0.364  1.2033  0.3368 -0.7993
  782MOL0     C 7805   8.689  10.531  -0.418 -0.4064 -0.6655  0.2885
  782MOL0     C 7806   8.645  10.558  -0.557  0.7489 -1.4251  0.3270
  782MOL0     C 7807   8.776  10.615  -0.348 -0.1387 -0.8185  0.6787
  782MOL0     C 7808   8.828  10.740  -0.410  0.2484  0.0069  0.5313
  782MOL0     O 7809   8.873  10.739  -0.535 -0.7653  0.4316 -0.6339
  782MOL0     C 7810   8.930  10.852  -0.572 -0.3781 -0.7147  0.1474
  782MOL0     C 7811   8.852  10.946  -0.641 -0.0324 -0.7586 -0.7275
  782MOL0     C 7812   8.912  11.058  -0.709 -0.1139 -0.3573 -0.8991
  782MOL0     C 7813   9.051  11.063  -0.716 -0.4704  0.4027  0.0111
  782MOL0     O 7814   9.123  11.156  -0.783  0.6626 -0.1898 -0.4314
  782MOL0     C 7815   9.151  11.120  -0.918 -1.4988 -0.6073  0.4503
  782MOL0     C 7816   9.025  11.132  -0.992  0.2153 -0.0951 -0.0767
  782MOL0     C 7817   9.052  11.164  -1.136  0.4382 -0.9295  0.0856
  782MOL0     C 7818   8.930  11.130  -1.232 -0.6873  1.1888  0.3941
  782MOL0     C 7819   8.943  11.188  -1.374  0.0769 -0.1501  0.0222
  782MOL0     C 7820   8.819  11.157  -1.467  1.0682 -0.0260 -0.3442
  782MOL0     C 7821   8.857  11.186  -1.612 -1.3305 -1.5021  0.7798
  782MOL0     C 7822   8.758  11.147  -1.720  0.1974  0.7807  1.2629
  782MOL0    Cl 7823   8.602  11.253  -1.704 -0.5245  0.6264 -0.0898
  782MOL0     C 7824   9.130  10.964  -0.657 -0.0803  0.8369  0.3103
  782MOL0     C 7825   9.063  10.868  -0.576 -0.1651 -0.8130 -0.7997
  782MOL0     O 7826   8.832  10.831  -0.327 -0.0861  0.2507 -0.1400
  782MOL0     C 7827   8.809  10.581  -0.219  0.5505  0.4745 -0.5276
  782MOL0     C 7828   8.765  10.469  -0.157  0.2372 -0.0271  0.1979
  782MOL0     N 7829   8.479   9.744   0.244  0.7854  1.0380  0.5376
  782MOL0     N 7830   8.420   9.738   0.358  0.3294 -0.6110 -0.5816
  782MOL0     C 7831   7.380   9.410   0.584  0.2859  0.1466 -0.5822
  782MOL0     C 7832   7.278   9.332   0.527  0.5326 -0.6427  0.5638
  782MOL0     C 7833   6.923   9.058   0.478  0.6282 -0.0113 -0.0486
  782MOL0     C 7834   6.972   8.979   0.379  0.4030 -1.1606 -0.0333
  782MOL0     C 7835   6.891   8.875   0.334 -0.1751 -0.2233  1.5400
  782MOL0     C 7836   6.765   8.852   0.362 -0.0210 -0.1280  0.3713
  782MOL0     O 7837   6.702   8.734   0.315 -0.4255 -0.9424 -0.0564
  782MOL0     C 7838   6.678   8.637   0.417 -0.4964  0.6090 -0.8825
  782MOL0     C 7839   6.569   8.655   0.511 -0.0319  0.1752  1.2820
  782MOL0     C 7840   6.437   8.650   0.447  0.2845  0.5557  0.2952
  782MOL0     C 7841   6.326   8.701   0.543  0.7873 -0.7711 -0.2347
  782MOL0     C 7842   6.301   8.847   0.534 -1.0734  0.7680 -0.2738
  782MOL0     C 7843   6.271   8.963   0.525 -0.7931  0.0902  0.0857
  782MOL0     C 7844   6.702   8.947   0.443 -0.8701 -0.2356 -0.3676
  782MOL0     C 7845   6.779   9.051   0.498 -0.2880  0.3011 -0.4649
  782MOL0     C 7846   6.713   9.130   0.604  0.1951  0.3993 -0.7067
  782MOL0     H 7847   7.262   9.074   0.735  0.8385 -1.3876 -1.1362
  782MOL0     H 7848   7.442   9.206   0.851 -3.0402 -2.4423  0.9669
  782MOL0     H 7849   7.665   9.280   0.807 -1.0547 -0.1597  0.9597
  782MOL0     H 7850   7.587   9.380   0.931  1.9370 -1.0091  1.1423
  782MOL0     H 7851   7.730   9.579   0.826 -1.2617  0.0827 -0.4118
  782MOL0     H 7852   7.805   9.470   0.935  0.9779 -1.7683 -1.4066
  782MOL0     H 7853   7.891   9.333   0.727  0.0389 -0.2847 -2.2445
  782MOL0     H 7854   7.811   9.438   0.630 -0.6124 -0.9544  0.7984
  782MOL0     H 7855   7.917   9.633   0.680  0.6800  0.5150  2.4246
  782MOL0     H 7856   8.028   9.550   0.804 -1.0884  1.3543  1.1547
  782MOL0     H 7857   8.055   9.465   0.515  1.6889 -3.7901 -0.1099
  782MOL0     H 7858   8.140   9.415   0.646 -2.4722 -2.2235  0.8849
  782MOL0     H 7859   8.226   9.675   0.667 -0.8583 -0.2198  1.2566
  782MOL0     H 7860   8.287   9.573   0.547 -0.2484  0.8290  0.3424
  782MOL0     H 7861   8.035   9.751   0.514 -0.5103 -0.2818 -1.2511
  782MOL0     H 7862   8.127   9.673   0.384 -0.8442 -1.7222  0.6120
  782MOL0     H 7863   8.160   9.938   0.440 -0.1474 -0.2063  0.9230
  782MOL0     H 7864   8.249   9.865   0.568  2.2471 -0.1378 -0.3659
  782MOL0     H 7865   8.257   9.970   0.199 -3.0049 -0.7364  3.9536
  782MOL0     H 7866   8.384   9.938   0.009 -1.2943 -1.2349  0.8130
  782MOL0     H 7867   8.517   9.812  -0.001 -1.1330  1.6692 -2.3392
  782MOL0     H 7868   8.548  10.091   0.134  1.6133 -1.6958  1.6467
  782MOL0     H 7869   8.679   9.980   0.118 -0.5041  1.2968  3.9455
  782MOL0     H 7870   8.696  10.002  -0.110 -0.2650 -1.4214  2.4091
  782MOL0     H 7871   8.530  10.048  -0.135  0.6498  0.0496 -1.0861
  782MOL0     H 7872   8.588  10.274   0.000  0.9592  2.6146 -1.9291
  782MOL0     H 7873   8.756  10.238  -0.035 -0.8555 -0.3197  2.8280
  782MOL0     H 7874   8.583  10.343  -0.414 -1.5711  1.1910  1.7137
  782MOL0     H 7875   8.536  10.569  -0.557  0.9184  1.7586 -2.1697
  782MOL0     H 7876   8.673  10.483  -0.632  1.0591  0.4224 -1.4735
  782MOL0     H 7877   8.673  10.659  -0.587 -1.6959  0.3128  3.3215
  782MOL0     H 7878   8.743  10.949  -0.646  0.0090 -0.2174 -1.6322
  782MOL0     H 7879   8.855  11.132  -0.763  1.0276 -0.8730 -2.9275
  782MOL0     H 7880   9.218  11.200  -0.951 -3.0746  0.7850  0.4799
  782MOL0     H 7881   9.196  11.020  -0.920  1.4723  0.6138 -2.1838
  782MOL0     H 7882   8.979  11.033  -0.988 -1.2787  0.5722 -0.0891
  782MOL0     H 7883   8.957  11.206  -0.949  0.9871 -0.9735  2.8688
  782MOL0     H 7884   9.140  11.115  -1.178 -1.1484 -2.5595 -1.4742
  782MOL0     H 7885   9.069  11.272  -1.150  1.7200 -0.6021  3.2430
  782MOL0     H 7886   8.837  11.171  -1.192 -0.3836  3.0766 -0.7215
  782MOL0     H 7887   8.920  11.022  -1.247  0.8737  1.4838 -4.1759
  782MOL0     H 7888   8.963  11.296  -1.368  0.2259  0.1246 -3.2545
  782MOL0     H 7889   9.035  11.159  -1.425  0.4615 -1.1661  1.2493
  782MOL0     H 7890   8.749  11.235  -1.437  1.3166 -0.7188  2.3597
  782MOL0     H 7891   8.771  11.059  -1.463  0.0192  0.5159  1.0208
  782MOL0     H 7892   8.946  11.130  -1.642 -0.4477 -0.1927  0.8506
  782MOL0     H 7893   8.890  11.291  -1.613 -1.8547 -1.3277 -0.6657
  782MOL0     H 7894   8.749  11.039  -1.710  2.0623  0.4327 -0.2999
  782MOL0     H 7895   8.798  11.161  -1.821 -0.9682 -0.6303  0.5657
  782MOL0     H 7896   9.238  10.958  -0.656 -0.0484  1.3586  1.0948
  782MOL0     H 7897   9.108  10.789  -0.516 -0.5967 -0.8779 -0.5578
  782MOL0     H 7898   8.880  10.644  -0.166  1.3817 -0.7658 -0.1227
  782MOL0     H 7899   8.792  10.465  -0.051 -0.3477  2.4903  0.5101
  782MOL0     H 7900   7.402   9.505   0.536 -2.5382  0.6884 -1.0025
  782MOL0     H 7901   7.212   9.372   0.451 -1.9654 -0.5287  2.6586
  782MOL0     H 7902   7.075   8.990   0.345  1.1036  0.3997  2.3395
  782MOL0     H 7903   6.943   8.819   0.257  0.4603  3.3843 -0.9243
  782MOL0     H 7904   6.659   8.544   0.363  1.5206 -0.7767  0.6511
  782MOL0     H 7905   6.772   8.641   0.472 -0.8859  5.3856 -0.0803
  782MOL0     H 7906   6.572   8.753   0.560  1.9068  0.7476  0.0975
  782MOL0     H 7907   6.576   8.578   0.589  0.4485 -1.3753 -0.2421
  782MOL0     H 7908   6.439   8.701   0.350 -2.4563  1.9311  0.8584
  782MOL0     H 7909   6.407   8.546   0.437  0.3530  0.3225  2.1539
  782MOL0     H 7910   6.350   8.664   0.643  1.5862 -0.2228 -0.2150
  782MOL0     H 7911   6.229   8.651   0.532 -0.7472  1.6613  1.2794
  782MOL0     H 7912   6.238   9.065   0.513 -0.4081  0.0412 -1.5846
  782MOL0     H 7913   6.594   8.953   0.452 -1.2880  0.1311 -4.0794
  782MOL0     H 7914   6.758   9.230   0.601  1.0691  0.1602  1.7982
  782MOL0     H 7915   6.604   9.131   0.601  0.0942 -2.9298 -2.3844
  782MOL0     H 7916   6.732   9.098   0.707 -1.3074  0.8187 -0.2719
  783MOL0     O 7917   5.353   4.502   9.859  0.1453 -0.0955 -0.2111
  783MOL0     C 7918   5.261   4.502   9.774  0.2006 -0.3962 -0.8273
  783MOL0     O 7919   5.164   4.411   9.771  0.8501 -0.7659  0.3709
  783MOL0     C 7920   5.179   4.306   9.861  0.0339  1.1288  0.4590
  783MOL0     C 7921   5.109   4.295   9.983 -0.0936  0.4852  0.2793
  783MOL0     C 7922   5.131   4.199  10.077  0.2696  0.3432  0.5423
  783MOL0     C 7923   5.228   4.102  10.053  0.4175 -0.9120  0.1531
  783MOL0     O 7924   5.270   4.009  10.141 -0.3991 -1.3947 -0.1576
  783MOL0     C 7925   5.322   4.069  10.257  0.1032 -0.1281  0.7511
  783MOL0     C 7926   5.401   3.981  10.355 -0.5583 -0.4152 -0.7454
  783MOL0     C 7927   5.539   3.935  10.302 -0.6817 -0.5336 -0.4880
  783MOL0     C 7928   5.534   3.852  10.171  0.7860 -0.2421  0.3926
  783MOL0     C 7929   5.675   3.788  10.149  0.0035  0.4481  0.6104
  783MOL0     C 7930   5.711   3.662  10.233  0.2032 -0.6904 -0.0218
  783MOL0     C 7931   5.842   3.589  10.191  0.1850 -0.1098 -0.2075
  783MOL0     C 7932   5.958   3.691  10.194 -0.0482  0.3688  0.7867
  783MOL0     N 7933   6.061   3.634  10.105 -0.3146 -0.7385 -0.3819
  783MOL0     C 7934   6.142   3.536  10.139 -0.1127  0.3450 -0.0447
  783MOL0     C 7935   6.205   3.505  10.015  0.0070  0.4122 -0.8326
  783MOL0     C 7936   6.270   3.368   9.997 -0.1960 -0.0916  0.1007
  783MOL0     C 7937   6.267   3.306   9.854  0.5183 -0.6421  0.4938
  783MOL0     C 7938   6.317   3.399   9.738  0.0570 -0.9464 -0.5089
  783MOL0     C 7939   6.453   3.465   9.760  0.0838 -0.1364 -0.0143
  783MOL0     O 7940   6.542   3.373   9.832  0.4153 -0.0456 -0.2865
  783MOL0     C 7941   6.654   3.330   9.766 -0.2953  0.6035  0.1286
  783MOL0     C 7942   6.765   3.414   9.781 -1.0103  1.0929 -0.7520
  783MOL0     C 7943   6.886   3.369   9.731  0.5731  0.5019 -0.7329
  783MOL0     C 7944   6.997   3.469   9.741  0.3829  0.4691 -0.3565
  783MOL0     C 7945   6.902   3.236   9.669 -0.2041  0.1762 -0.3532
  783MOL0     C 7946   7.036   3.184   9.629 -0.0225 -0.6737  0.3972
  783MOL0     O 7947   7.151   3.263   9.627 -0.1880  0.2986 -0.3735
  783MOL0     C 7948   7.266   3.206   9.583 -1.1997 -0.3230 -0.8346
  783MOL0     C 7949   7.287   3.182   9.449 -0.4893 -0.5037 -0.3525
  783MOL0     C 7950   7.418   3.139   9.400 -0.2825 -0.3076 -1.1356
  783MOL0     C 7951   7.528   3.127   9.492 -0.2126 -1.4143  0.2534
  783MOL0     O 7952   7.654   3.110   9.434 -0.2759  0.1701 -0.5808
  783MOL0     C 7953   7.739   3.220   9.456  0.2558 -0.0183  0.5924
  783MOL0     C 7954   7.878   3.182   9.405  0.0056 -1.0215 -0.1579
  783MOL0     C 7955   7.889   3.089   9.276 -0.1971 -0.0840 -0.9160
  783MOL0     C 7956   7.929   2.948   9.306  0.5054 -0.5705 -0.2770
  783MOL0     C 7957   7.892   2.859   9.178 -0.1546 -0.2796 -0.4773
  783MOL0     C 7958   7.967   2.891   9.047  0.8687 -0.1243  0.0600
  783MOL0     C 7959   8.117   2.895   9.071  0.1120  0.5049  0.5765
  783MOL0     C 7960   8.188   2.896   8.938 -0.2779 -0.2213 -0.7504
  783MOL0    Cl 7961   8.177   2.733   8.866  0.1618 -0.7381  0.1338
  783MOL0     C 7962   7.501   3.154   9.623  0.1590  0.5765  0.3206
  783MOL0     C 7963   7.374   3.192   9.673 -0.1873 -0.2372 -0.4863
  783MOL0     O 7964   7.036   3.065   9.611 -0.4818 -0.0391  0.5994
  783MOL0     C 7965   6.788   3.158   9.668 -0.0318 -0.0215 -0.2254
  783MOL0     C 7966   6.667   3.202   9.719  0.6770 -0.1188  0.3804
  783MOL0     N 7967   6.167   3.588   9.915 -0.0900 -0.3654  0.9120
  783MOL0     N 7968   6.079   3.673   9.975  0.2127  0.2543  0.1630
  783MOL0     C 7969   5.287   4.109   9.930 -0.5866 -0.0836 -0.7691
  783MOL0     C 7970   5.266   4.201   9.832  0.4549 -0.0311  0.5434
  783MOL0     C 7971   5.263   4.619   9.670 -0.2141  1.0676  0.6305
  783MOL0     C 7972   5.139   4.687   9.655 -0.5490  0.5794  0.0967
  783MOL0     C 7973   5.128   4.806   9.594 -0.7627 -0.2065  0.1505
  783MOL0     C 7974   5.244   4.880   9.541 -0.3525  0.6221  1.1017
  783MOL0     O 7975   5.234   4.996   9.471 -0.1936  0.1387 -0.6362
  783MOL0     C 7976   5.103   5.028   9.422  0.2782  0.1381  0.5139
  783MOL0     C 7977   5.046   5.133   9.520  0.3563 -0.2051  0.0961
  783MOL0     C 7978   4.955   5.238   9.442 -0.1085  0.0659 -0.9835
  783MOL0     C 7979   4.817   5.177   9.417  0.1143 -0.1766  0.0552
  783MOL0     C 7980   4.739   5.168   9.534  0.3359  0.5201 -1.6283
  783MOL0     C 7981   4.669   5.162   9.635 -0.7807  0.3546 -0.0460
  783MOL0     C 7982   5.364   4.802   9.549 -0.9514 -0.0744 -0.3989
  783MOL0     C 7983   5.378   4.678   9.617  0.1833 -0.0093  0.8656
  783MOL0     C 7984   5.512   4.621   9.614  0.4981 -0.4524  0.3804
  783MOL0     H 7985   5.032   4.370   9.998  1.8814  2.6899  0.0054
  783MOL0     H 7986   5.071   4.207  10.167 -3.1943  1.1074 -1.6056
  783MOL0     H 7987   5.237   4.105  10.317 -0.6614 -1.2993  0.4059
  783MOL0     H 7988   5.387   4.152  10.230  0.0686  0.5686  2.6532
  783MOL0     H 7989   5.422   4.039  10.446  0.7942  2.0690 -2.5079
  783MOL0     H 7990   5.342   3.893  10.383  0.7330 -1.3621 -0.8941
  783MOL0     H 7991   5.601   4.021  10.273 -2.5362 -0.0803 -3.4838
  783MOL0     H 7992   5.592   3.876  10.377 -2.4143 -3.5494 -1.4701
  783MOL0     H 7993   5.464   3.773  10.201  1.2128 -0.4388  0.8862
  783MOL0     H 7994   5.506   3.911  10.083  0.1754 -1.5973 -0.3607
  783MOL0     H 7995   5.750   3.863  10.174  0.0816 -0.7111  4.4094
  783MOL0     H 7996   5.691   3.768  10.043 -0.4262 -0.5558  0.7217
  783MOL0     H 7997   5.709   3.694  10.338 -1.7437  2.7406 -0.9478
  783MOL0     H 7998   5.631   3.590  10.210 -0.7014  0.2237  0.1959
  783MOL0     H 7999   5.831   3.547  10.091 -0.4712  0.4048 -0.3531
  783MOL0     H 8000   5.861   3.512  10.266 -2.0617 -3.2860 -2.6175
  783MOL0     H 8001   5.933   3.789  10.154 -4.5791 -1.3465 -1.2829
  783MOL0     H 8002   5.982   3.712  10.298  1.6456  0.1740  0.4705
  783MOL0     H 8003   6.138   3.475  10.229 -2.2089  0.9702  0.3277
  783MOL0     H 8004   6.222   3.298  10.065  0.2736  0.9657  1.5959
  783MOL0     H 8005   6.371   3.375  10.037  0.0786  0.2410 -0.6323
  783MOL0     H 8006   6.320   3.210   9.844 -0.7825 -1.2678 -0.8159
  783MOL0     H 8007   6.165   3.278   9.827  0.6649 -0.9888  0.2842
  783MOL0     H 8008   6.329   3.341   9.645 -4.5281  0.2648 -2.1000
  783MOL0     H 8009   6.243   3.474   9.710  0.8551 -0.8067 -2.4406
  783MOL0     H 8010   6.493   3.497   9.663 -5.4556 -1.6299 -3.2786
  783MOL0     H 8011   6.453   3.557   9.819  1.8960 -0.4139  0.4695
  783MOL0     H 8012   6.750   3.501   9.844  1.2695  1.3243 -0.4316
  783MOL0     H 8013   7.060   3.482   9.653 -0.0038  0.6721 -0.6035
  783MOL0     H 8014   7.057   3.433   9.826 -0.7398 -2.2915 -0.6267
  783MOL0     H 8015   6.963   3.572   9.755 -0.3106  0.2864 -0.6935
  783MOL0     H 8016   7.208   3.196   9.376  0.7949 -1.6809 -2.0261
  783MOL0     H 8017   7.435   3.119   9.294  0.5007  0.8208 -1.2477
  783MOL0     H 8018   7.701   3.306   9.402 -1.5513 -0.7206  0.6921
  783MOL0     H 8019   7.745   3.252   9.560 -2.9206 -1.1517  1.2482
  783MOL0     H 8020   7.943   3.270   9.398 -1.2169  0.1485  2.2244
  783MOL0     H 8021   7.926   3.139   9.493  1.1438  0.6506  0.0784
  783MOL0     H 8022   7.960   3.134   9.206 -0.6036 -0.3116 -1.4778
  783MOL0     H 8023   7.793   3.090   9.223  0.0174 -0.3420 -1.3123
  783MOL0     H 8024   7.866   2.928   9.393 -1.3515 -1.0799 -1.6640
  783MOL0     H 8025   8.032   2.932   9.339 -0.4149  0.0887  3.3844
  783MOL0     H 8026   7.905   2.753   9.201 -2.1627 -0.1390  1.7250
  783MOL0     H 8027   7.786   2.877   9.158 -0.0180  0.8187 -0.2675
  783MOL0     H 8028   7.924   2.976   8.993 -1.8955  0.0202  2.2381
  783MOL0     H 8029   7.935   2.803   8.992 -2.8875 -0.3695  2.2816
  783MOL0     H 8030   8.143   2.803   9.123 -2.8675 -2.0986 -2.0862
  783MOL0     H 8031   8.133   2.991   9.122 -0.4565  0.5127  0.7404
  783MOL0     H 8032   8.291   2.924   8.962  0.2845 -0.2585 -2.8765
  783MOL0     H 8033   8.165   2.968   8.859 -3.4382 -1.5230 -1.1527
  783MOL0     H 8034   7.590   3.154   9.685  3.2292 -0.4465 -3.6560
  783MOL0     H 8035   7.353   3.192   9.779 -2.5596  0.7396 -0.8962
  783MOL0     H 8036   6.782   3.057   9.629  0.6765 -0.1865  0.0710
  783MOL0     H 8037   6.576   3.143   9.711  0.9332 -0.3822 -0.7464
  783MOL0     H 8038   5.365   4.035   9.916 -2.6163 -2.6206  0.4821
  783MOL0     H 8039   5.318   4.201   9.737 -1.0766  1.2566 -0.3461
  783MOL0     H 8040   5.045   4.658   9.701 -1.8808  3.2345 -0.7022
  783MOL0     H 8041   5.029   4.851   9.601 -0.8085 -0.4841  1.4826
  783MOL0     H 8042   5.118   5.065   9.320  0.5219  0.7658  0.7686
  783MOL0     H 8043   5.026   4.951   9.417 -0.0167  0.5109 -1.4047
  783MOL0     H 8044   5.130   5.183   9.568  0.4451 -0.4062  0.1527
  783MOL0     H 8045   4.992   5.083   9.601 -0.1813  1.1835  0.6261
  783MOL0     H 8046   4.934   5.332   9.493  0.1097 -1.8703  3.0249
  783MOL0     H 8047   5.008   5.265   9.350  0.5684 -0.0038 -0.6179
  783MOL0     H 8048   4.818   5.077   9.373 -1.4419  0.7617 -2.3741
  783MOL0     H 8049   4.754   5.244   9.357 -2.9965 -0.4072  2.8060
  783MOL0     H 8050   4.609   5.168   9.723 -1.4254  2.8397 -0.5690
  783MOL0     H 8051   5.450   4.858   9.512 -1.3236  4.6891  4.5449
  783MOL0     H 8052   5.587   4.683   9.665  0.7006 -1.4824  1.3869
  783MOL0     H 8053   5.523   4.519   9.651  7.3013 -0.7731 -1.2783
  783MOL0     H 8054   5.547   4.621   9.511  0.1833 -1.4189  0.2663
  784MOL0     O 8055   3.988   9.215   4.520 -0.1659 -0.0741  0.4918
  784MOL0     C 8056   3.987   9.267   4.406 -0.4239  0.9545 -0.3269
  784MOL0     O 8057   3.996   9.199   4.291  0.2789 -0.7100  0.0887
  784MOL0     C 8058   3.972   9.066   4.279  0.2591 -0.0378  0.0600
  784MOL0     C 8059   4.052   9.000   4.179  0.1222  0.3648 -0.5262
  784MOL0     C 8060   4.041   8.863   4.154  0.0390  0.3143  0.5425
  784MOL0     C 8061   3.943   8.792   4.224 -0.6971  0.2697  0.0269
  784MOL0     O 8062   3.942   8.658   4.180 -0.1354 -0.1415  0.0621
  784MOL0     C 8063   3.871   8.559   4.256  0.4349  0.3136 -0.4673
  784MOL0     C 8064   3.879   8.425   4.192  0.3002  0.5504 -0.0414
  784MOL0     C 8065   3.816   8.317   4.293  0.1883 -0.2148 -0.0622
  784MOL0     C 8066   3.665   8.326   4.300 -0.2313 -0.1826 -0.4751
  784MOL0     C 8067   3.612   8.219   4.397 -1.4488  0.1890  0.5323
  784MOL0     C 8068   3.492   8.272   4.478  0.2557  0.5015 -0.2109
  784MOL0     C 8069   3.393   8.156   4.523 -0.3554 -0.5894 -0.2399
  784MOL0     C 8070   3.248   8.213   4.549 -0.0291  0.5704 -0.3587
  784MOL0     N 8071   3.161   8.105   4.561  0.3905  0.0737 -0.0076
  784MOL0     C 8072   3.139   8.002   4.483  0.1341 -0.1039  0.5640
  784MOL0     C 8073   3.030   7.939   4.526  1.2875 -0.4718  0.6502
  784MOL0     C 8074   2.958   7.818   4.464  0.1425  0.7003  0.0039
  784MOL0     C 8075   3.054   7.702   4.457  0.1102  1.1640  0.3060
  784MOL0     C 8076   3.048   7.631   4.318  0.5822  0.1192  0.0777
  784MOL0     C 8077   2.906   7.582   4.279  0.3440  0.9549  0.3283
  784MOL0     O 8078   2.842   7.527   4.396 -0.6592 -0.2005  0.4285
  784MOL0     C 8079   2.719   7.484   4.395 -0.5480  0.8869  0.5290
  784MOL0     C 8080   2.633   7.464   4.287  0.3073  0.0890  0.0354
  784MOL0     C 8081   2.519   7.399   4.301  0.3654 -0.3159  0.9103
  784MOL0     C 8082   2.450   7.371   4.167  0.1679  0.3833  0.2988
  784MOL0     C 8083   2.467   7.373   4.430 -0.1993 -0.1034 -0.0631
  784MOL0     C 8084   2.323   7.343   4.456  0.4696  0.7039 -0.1828
  784MOL0     O 8085   2.270   7.369   4.578 -0.0317 -0.0019  0.1856
  784MOL0     C 8086   2.142   7.388   4.577 -0.1086  0.4442  0.4859
  784MOL0     C 8087   2.094   7.512   4.564  0.5488  0.3272  0.0194
  784MOL0     C 8088   1.956   7.548   4.596 -0.0728  0.1783  0.6095
  784MOL0     C 8089   1.874   7.449   4.642 -0.2312  0.1330 -0.4543
  784MOL0     O 8090   1.745   7.468   4.695  0.2699 -0.3233  0.3964
  784MOL0     C 8091   1.707   7.595   4.733  0.0332  0.5609 -0.2954
  784MOL0     C 8092   1.630   7.670   4.619 -0.6214  1.2829  0.6960
  784MOL0     C 8093   1.499   7.612   4.585 -0.0014  0.3547  0.1465
  784MOL0     C 8094   1.410   7.619   4.707 -0.3121 -0.2560 -0.6632
  784MOL0     C 8095   1.263   7.580   4.672  0.6297  0.0706 -0.3326
  784MOL0     C 8096   1.174   7.652   4.767  0.5740 -0.0543  0.8179
  784MOL0     C 8097   1.027   7.603   4.749 -0.8302  0.6583  0.4941
  784MOL0     C 8098   0.936   7.722   4.737 -0.7407  0.0395 -0.0822
  784MOL0    Cl 8099   0.763   7.680   4.748  0.8810 -0.3132  0.2600
  784MOL0     C 8100   1.914   7.313   4.628 -1.0440  0.1389  0.6158
  784MOL0     C 8101   2.050   7.284   4.601 -0.1040  0.0072  1.0068
  784MOL0     O 8102   2.254   7.305   4.359 -0.5127  0.1799  0.8309
  784MOL0     C 8103   2.549   7.404   4.538  0.4695 -0.2422  0.9458
  784MOL0     C 8104   2.675   7.449   4.520 -0.9274  0.0225 -1.0314
  784MOL0     N 8105   2.993   8.001   4.639 -0.1557  0.5015 -0.3352
  784MOL0     N 8106   3.073   8.094   4.662  0.3627 -0.1481 -0.8300
  784MOL0     C 8107   3.870   8.848   4.326  0.1265 -0.3101 -0.9439
  784MOL0     C 8108   3.880   8.983   4.351  0.2160 -0.1698  0.4775
  784MOL0     C 8109   3.986   9.412   4.400 -0.0664  0.0711  0.1807
  784MOL0     C 8110   3.919   9.467   4.290  0.8870 -0.1239  0.0491
  784MOL0     C 8111   3.905   9.600   4.267 -0.1902 -0.4221  0.8146
  784MOL0     C 8112   3.945   9.695   4.370 -0.4268  0.6987 -0.9500
  784MOL0     O 8113   3.923   9.829   4.363  0.9674 -0.2099  0.6973
  784MOL0     C 8114   3.846   9.885   4.262 -0.0224 -0.5109  0.2057
  784MOL0     C 8115   3.775  10.008   4.320 -0.1898 -0.3880 -0.6823
  784MOL0     C 8116   3.861  10.131   4.357  0.1842 -0.4118 -0.4304
  784MOL0     C 8117   3.820  10.269   4.297  0.8385 -0.2489 -0.3530
  784MOL0     C 8118   3.878  10.375   4.371 -0.0082 -0.5280 -0.3953
  784MOL0     C 8119   3.917  10.470   4.427  0.0791  0.1368  0.6741
  784MOL0     C 8120   4.018   9.634   4.477  0.5353 -0.7740  0.2986
  784MOL0     C 8121   4.038   9.500   4.496  0.3859 -0.1228 -1.0286
  784MOL0     C 8122   4.090   9.453   4.637 -0.3113 -0.2297  0.8005
  784MOL0     H 8123   4.118   9.057   4.115 -3.0046  3.1390 -1.5511
  784MOL0     H 8124   4.124   8.814   4.103 -0.5459 -1.5574  1.2862
  784MOL0     H 8125   3.765   8.590   4.254  1.0345  2.5829 -0.3271
  784MOL0     H 8126   3.894   8.546   4.361 -2.6005  1.0395  0.3955
  784MOL0     H 8127   3.834   8.407   4.095  0.6817  0.6946 -0.2470
  784MOL0     H 8128   3.986   8.402   4.187  0.2466  0.6579 -2.8355
  784MOL0     H 8129   3.842   8.219   4.252 -0.2092  0.1910 -1.3242
  784MOL0     H 8130   3.860   8.330   4.392 -2.0855  0.2037  0.9596
  784MOL0     H 8131   3.652   8.422   4.352  1.5396 -0.9973  1.6261
  784MOL0     H 8132   3.605   8.332   4.209 -1.3268 -0.7950  0.1793
  784MOL0     H 8133   3.696   8.190   4.463  0.5729  3.2662 -0.4845
  784MOL0     H 8134   3.590   8.126   4.343  1.8127 -2.0066  2.5713
  784MOL0     H 8135   3.517   8.321   4.572 -1.6779 -1.7280  1.5812
  784MOL0     H 8136   3.444   8.349   4.418  2.8026  0.9439 -1.8537
  784MOL0     H 8137   3.434   8.095   4.604 -0.5017  0.0160  0.3003
  784MOL0     H 8138   3.395   8.088   4.437  0.0342  0.4239 -1.0636
  784MOL0     H 8139   3.252   8.273   4.640  0.8350 -0.6651  0.4487
  784MOL0     H 8140   3.215   8.278   4.467 -1.2557  3.5916  2.3519
  784MOL0     H 8141   3.202   7.993   4.395 -0.0017 -0.4369  0.4997
  784MOL0     H 8142   2.920   7.857   4.369  1.3087  1.1468 -0.2912
  784MOL0     H 8143   2.878   7.787   4.532  1.8405 -1.1736  1.2605
  784MOL0     H 8144   3.154   7.743   4.475 -0.6213  2.4669  1.5858
  784MOL0     H 8145   3.039   7.624   4.532  3.4966 -0.5900 -0.6352
  784MOL0     H 8146   3.087   7.690   4.234 -1.8404  0.9411 -0.5624
  784MOL0     H 8147   3.101   7.538   4.336 -1.5852 -1.3353 -0.5797
  784MOL0     H 8148   2.845   7.656   4.227 -1.2260 -1.2743 -1.2298
  784MOL0     H 8149   2.921   7.505   4.202  0.5259  0.1375  1.1677
  784MOL0     H 8150   2.672   7.486   4.189  4.7594 -3.3930  0.7175
  784MOL0     H 8151   2.503   7.388   4.073 -0.7860 -2.8382 -0.9375
  784MOL0     H 8152   2.364   7.438   4.151 -0.0119 -0.3242 -2.1918
  784MOL0     H 8153   2.426   7.265   4.167 -1.5359  0.2945 -6.5271
  784MOL0     H 8154   2.163   7.593   4.543  1.5098  0.0128  1.7462
  784MOL0     H 8155   1.933   7.654   4.595 -0.9493  0.0672 -2.6586
  784MOL0     H 8156   1.657   7.593   4.831  1.2568 -3.9645  0.5126
  784MOL0     H 8157   1.803   7.639   4.763  0.2077 -0.6109  0.9749
  784MOL0     H 8158   1.619   7.779   4.630 -5.0032  1.3630 -2.3043
  784MOL0     H 8159   1.684   7.678   4.524  3.9772 -1.7344  2.6832
  784MOL0     H 8160   1.522   7.509   4.555  2.7836  0.7540  0.6453
  784MOL0     H 8161   1.455   7.674   4.506  1.9924  0.3564 -1.0223
  784MOL0     H 8162   1.418   7.721   4.747  1.7161  0.0009 -1.6074
  784MOL0     H 8163   1.445   7.556   4.789  0.5096 -0.0939 -0.8766
  784MOL0     H 8164   1.245   7.611   4.569  3.1901 -1.3617 -1.2909
  784MOL0     H 8165   1.257   7.471   4.674 -0.0039  0.0528 -1.9647
  784MOL0     H 8166   1.170   7.762   4.761  1.9631 -0.0674 -2.5131
  784MOL0     H 8167   1.207   7.643   4.871  2.0259 -3.2204  0.1833
  784MOL0     H 8168   0.994   7.550   4.839  2.3794  0.1441  1.4754
  784MOL0     H 8169   1.021   7.538   4.662 -1.7083 -1.4643  2.0604
  784MOL0     H 8170   0.949   7.793   4.655 -3.3365  1.0707  0.3028
  784MOL0     H 8171   0.940   7.785   4.825 -0.3097  1.4782 -1.0993
  784MOL0     H 8172   1.849   7.234   4.662 -5.6074  3.3219  0.1711
  784MOL0     H 8173   2.089   7.184   4.618 -0.8247 -0.5783 -0.5069
  784MOL0     H 8174   2.523   7.375   4.639  2.5072 -1.9256  1.0427
  784MOL0     H 8175   2.748   7.458   4.600 -0.2668  2.0086 -1.7898
  784MOL0     H 8176   3.807   8.790   4.394 -0.2352  1.4503  0.2867
  784MOL0     H 8177   3.807   9.026   4.420  0.7570 -0.1410  1.0331
  784MOL0     H 8178   3.891   9.405   4.205  3.2882  0.0429 -0.9515
  784MOL0     H 8179   3.863   9.627   4.170  0.5975  0.6016  0.7476
  784MOL0     H 8180   3.908   9.919   4.179  2.7712  0.2183  2.4304
  784MOL0     H 8181   3.772   9.814   4.224 -1.6981  1.3197 -0.1386
  784MOL0     H 8182   3.719   9.985   4.411 -0.6983  1.9572 -0.3472
  784MOL0     H 8183   3.702  10.046   4.248 -0.0173  2.0946  0.3293
  784MOL0     H 8184   3.854  10.145   4.466 -2.2970 -2.7524 -0.1780
  784MOL0     H 8185   3.960  10.116   4.314 -0.3066  1.7098 -2.5274
  784MOL0     H 8186   3.710  10.270   4.303  0.6459 -0.9619 -2.9071
  784MOL0     H 8187   3.852  10.284   4.194  2.0431 -0.5185 -0.0294
  784MOL0     H 8188   3.936  10.562   4.477 -3.0327 -1.6589  6.0636
  784MOL0     H 8189   4.062   9.704   4.548 -2.5584  0.6940  0.9364
  784MOL0     H 8190   4.127   9.542   4.689  2.0150  0.1811 -1.3967
  784MOL0     H 8191   4.015   9.417   4.708 -1.7202  3.7386  1.6039
  784MOL0     H 8192   4.180   9.394   4.625 -0.1109  0.3464 -0.6838
  785MOL0     O 8193  10.778   0.043  11.458  0.0456 -0.5949  0.9326
  785MOL0     C 8194  10.887  -0.015  11.459  0.2698  0.2147  0.3723
  785MOL0     O 8195  10.902  -0.138  11.504 -0.0544 -0.4210 -0.1404
  785MOL0     C 8196  10.789  -0.196  11.552  0.6546  0.1125  0.6688
  785MOL0     C 8197  10.743  -0.174  11.686 -0.3272 -0.5161 -0.2909
  785MOL0     C 8198  10.643  -0.255  11.733  1.1189  0.3648  0.3906
  785MOL0     C 8199  10.586  -0.353  11.656  2.0166  0.9130  0.9523
  785MOL0     O 8200  10.487  -0.420  11.728 -0.0640  0.0837  0.9347
  785MOL0     C 8201  10.447  -0.542  11.674 -1.0141  0.6443  0.0044
  785MOL0     C 8202  10.310  -0.529  11.616  0.5089 -0.2884  0.9509
  785MOL0     C 8203  10.206  -0.491  11.723 -0.0087  0.5616 -0.6468
  785MOL0     C 8204  10.100  -0.409  11.672  1.4874  0.3801 -0.0061
  785MOL0     C 8205   9.988  -0.481  11.592 -0.2979  0.3528  1.1489
  785MOL0     C 8206   9.898  -0.569  11.685  0.0645  0.3818  0.0435
  785MOL0     C 8207   9.791  -0.632  11.600  0.4141  1.2891  0.9285
  785MOL0     C 8208   9.665  -0.544  11.595 -0.3736 -0.1128 -0.1706
  785MOL0     N 8209   9.562  -0.574  11.498 -0.3416 -1.0790  1.2913
  785MOL0     C 8210   9.495  -0.477  11.420  1.0469 -0.5804 -0.5693
  785MOL0     C 8211   9.411  -0.556  11.342  0.0350  0.3991 -0.7949
  785MOL0     C 8212   9.310  -0.498  11.250 -0.0017 -0.8400 -0.3567
  785MOL0     C 8213   9.166  -0.495  11.313  0.0594  0.3601  0.6554
  785MOL0     C 8214   9.072  -0.394  11.244  0.1474 -0.1318  0.6476
  785MOL0     C 8215   8.933  -0.424  11.284  0.0768  0.9388  0.5352
  785MOL0     O 8216   8.913  -0.402  11.425 -0.0818  0.3836  0.1452
  785MOL0     C 8217   8.792  -0.341  11.480 -0.6902 -0.4298  0.6025
  785MOL0     C 8218   8.674  -0.344  11.405  0.9833  0.7579 -0.5580
  785MOL0     C 8219   8.560  -0.296  11.474  0.2487 -0.5472  0.4809
  785MOL0     C 8220   8.433  -0.302  11.387 -0.9929  1.0316  0.0690
  785MOL0     C 8221   8.558  -0.238  11.599 -0.3732 -0.0391 -0.7479
  785MOL0     C 8222   8.447  -0.161  11.665 -0.6339 -0.2790 -0.7595
  785MOL0     O 8223   8.456  -0.138  11.800 -0.4064  0.3279 -0.6406
  785MOL0     C 8224   8.367  -0.053  11.865 -0.2563 -0.2044 -0.5847
  785MOL0     C 8225   8.325  -0.091  11.995 -1.0216 -0.8461  0.2050
  785MOL0     C 8226   8.245   0.001  12.075  0.9413  0.3296  0.1823
  785MOL0     C 8227   8.193   0.117  12.017 -0.9145 -0.0023 -0.3976
  785MOL0     O 8228   8.129   0.214  12.086 -0.4977 -0.2947 -0.3694
  785MOL0     C 8229   8.124   0.211  12.234  0.2634  0.1201 -0.3003
  785MOL0     C 8230   8.040   0.330  12.265 -0.1785 -0.4073  0.3167
  785MOL0     C 8231   7.891   0.295  12.258 -0.1113  0.5626  0.1545
  785MOL0     C 8232   7.833   0.261  12.388 -0.1357 -0.0733 -0.0055
  785MOL0     C 8233   7.682   0.255  12.374  0.0787 -0.0558  0.2395
  785MOL0     C 8234   7.605   0.177  12.489  0.3836 -0.5872  0.3487
  785MOL0     C 8235   7.676   0.196  12.626 -0.2481 -0.2338  1.2908
  785MOL0     C 8236   7.591   0.126  12.726  0.0725  0.2832 -0.8102
  785MOL0    Cl 8237   7.625  -0.044  12.733  0.4490 -0.3495 -0.7708
  785MOL0     C 8238   8.234   0.151  11.892  0.1342  0.2575  0.5530
  785MOL0     C 8239   8.331   0.080  11.826 -0.4671 -0.2875  0.0350
  785MOL0     O 8240   8.356  -0.121  11.597 -0.4095 -0.6326 -0.8888
  785MOL0     C 8241   8.679  -0.243  11.670  0.0325 -0.2327  0.3847
  785MOL0     C 8242   8.797  -0.286  11.607  0.7230  0.0725  0.1005
  785MOL0     N 8243   9.428  -0.693  11.373  0.1048  1.0475 -0.5195
  785MOL0     N 8244   9.516  -0.699  11.467 -0.4637 -0.3779  0.6941
  785MOL0     C 8245  10.619  -0.365  11.517  0.4602  0.2682  0.2401
  785MOL0     C 8246  10.719  -0.287  11.467 -0.6585  0.0524  0.5011
  785MOL0     C 8247  11.005   0.053  11.402  0.4221  0.4746 -0.1961
  785MOL0     C 8248  11.131  -0.017  11.420  0.6835 -1.1266 -0.0319
  785MOL0     C 8249  11.253   0.046  11.408  0.6868  1.1283 -0.3654
  785MOL0     C 8250  11.257   0.170  11.342 -0.0743  0.2946  1.2652
  785MOL0     O 8251  11.377   0.243  11.338  0.6275  0.0546 -0.4253
  785MOL0     C 8252  11.495   0.175  11.292  1.0285 -0.6116  0.2130
  785MOL0     C 8253  11.476   0.093  11.163  0.0698 -0.0438 -0.9473
  785MOL0     C 8254  11.423   0.180  11.047  0.4237 -0.7232 -0.1952
  785MOL0     C 8255  11.406   0.099  10.915  0.0984  0.1525 -0.2028
  785MOL0     C 8256  11.339   0.188  10.825 -0.1773  0.6319  0.2194
  785MOL0     C 8257  11.284   0.262  10.742  0.3498 -0.3817  0.2210
  785MOL0     C 8258  11.134   0.235  11.311 -0.9885 -0.5842  0.8709
  785MOL0     C 8259  11.007   0.178  11.335 -0.5259 -0.4102  0.4432
  785MOL0     C 8260  10.882   0.260  11.291 -1.2911  0.3614 -0.2020
  785MOL0     H 8261  10.792  -0.117  11.764  1.6756 -2.4392 -0.0247
  785MOL0     H 8262  10.619  -0.249  11.839 -0.3961 -1.3587  0.1858
  785MOL0     H 8263  10.447  -0.614  11.756  0.2092  1.3398  0.6414
  785MOL0     H 8264  10.511  -0.595  11.603 -0.2642  1.8120 -0.2212
  785MOL0     H 8265  10.315  -0.464  11.529  4.9993  0.0864  1.2611
  785MOL0     H 8266  10.289  -0.623  11.564  2.0102  1.3944 -3.1242
  785MOL0     H 8267  10.160  -0.575  11.776 -3.1718  3.1216  1.0042
  785MOL0     H 8268  10.254  -0.438  11.805 -0.1496 -0.7066  0.2814
  785MOL0     H 8269  10.043  -0.372  11.758  0.6525  1.3936 -0.9701
  785MOL0     H 8270  10.154  -0.327  11.624 -0.8253  1.3477 -1.1018
  785MOL0     H 8271  10.040  -0.543  11.519  0.3130  1.1987  0.8386
  785MOL0     H 8272   9.915  -0.409  11.552 -1.6686  0.1179  3.1266
  785MOL0     H 8273   9.956  -0.649  11.731  0.0162 -0.1444 -0.7858
  785MOL0     H 8274   9.850  -0.512  11.765  1.3826  3.3601 -1.1266
  785MOL0     H 8275   9.763  -0.734  11.630 -0.3625  0.6673 -1.5929
  785MOL0     H 8276   9.819  -0.656  11.497 -1.6938 -1.1873  0.8100
  785MOL0     H 8277   9.621  -0.552  11.694  1.4192 -0.2488  0.6480
  785MOL0     H 8278   9.690  -0.438  11.588 -0.7737  0.3761  3.7961
  785MOL0     H 8279   9.516  -0.371  11.430 -0.8701 -0.1819 -0.4175
  785MOL0     H 8280   9.305  -0.565  11.164  0.4551 -2.5584  0.8959
  785MOL0     H 8281   9.353  -0.403  11.217 -1.9675  0.8461  1.5842
  785MOL0     H 8282   9.122  -0.595  11.324 -3.5134  1.6196 -0.6509
  785MOL0     H 8283   9.174  -0.471  11.420 -1.7991 -1.7874  1.3569
  785MOL0     H 8284   9.104  -0.294  11.273  1.9872  0.2928 -2.3679
  785MOL0     H 8285   9.073  -0.419  11.137 -2.6867  1.4245  0.1619
  785MOL0     H 8286   8.861  -0.366  11.226 -2.2467 -2.7595 -0.6187
  785MOL0     H 8287   8.910  -0.526  11.252  1.7778  0.7536 -0.2284
  785MOL0     H 8288   8.662  -0.381  11.304  1.2809 -0.6714 -0.0868
  785MOL0     H 8289   8.335  -0.321  11.432 -0.6269 -0.0311  0.4570
  785MOL0     H 8290   8.438  -0.393  11.326 -5.7037  1.2742 -1.0517
  785MOL0     H 8291   8.430  -0.213  11.324 -1.8309  0.6545 -0.4525
  785MOL0     H 8292   8.355  -0.187  12.038 -0.0321 -0.2848  0.8228
  785MOL0     H 8293   8.227  -0.037  12.175 -3.5819  2.1840  0.2886
  785MOL0     H 8294   8.067   0.126  12.273  0.7854  1.0322  2.6398
  785MOL0     H 8295   8.225   0.213  12.275  0.0362  2.7774  0.3029
  785MOL0     H 8296   8.067   0.380  12.359 -4.8974  2.6310  0.3671
  785MOL0     H 8297   8.048   0.405  12.186 -3.5276  0.4970  0.6876
  785MOL0     H 8298   7.884   0.214  12.185 -0.0334 -0.0017  0.7703
  785MOL0     H 8299   7.843   0.379  12.206  0.3755 -0.8516 -2.8164
  785MOL0     H 8300   7.869   0.330  12.465  1.1992 -2.6760  1.8240
  785MOL0     H 8301   7.873   0.171  12.434  0.8788  0.9663  1.2551
  785MOL0     H 8302   7.663   0.362  12.389  2.5892  0.4292  0.4292
  785MOL0     H 8303   7.652   0.211  12.279 -0.0714  0.7362 -0.0857
  785MOL0     H 8304   7.606   0.072  12.458 -0.8472  0.0644 -2.1273
  785MOL0     H 8305   7.498   0.193  12.479  0.6534 -0.1328 -2.8525
  785MOL0     H 8306   7.682   0.302  12.652  1.4876  0.2414 -0.7345
  785MOL0     H 8307   7.780   0.164  12.623 -0.4694 -0.9028  0.1010
  785MOL0     H 8308   7.485   0.151  12.718 -1.0015 -2.1036  3.0273
  785MOL0     H 8309   7.602   0.154  12.832 -2.3402 -2.1439  0.1893
  785MOL0     H 8310   8.193   0.237  11.840 -1.9886 -1.6983 -1.1871
  785MOL0     H 8311   8.378   0.108  11.732  1.9378  2.4392  1.8538
  785MOL0     H 8312   8.692  -0.201  11.770 -2.2493 -1.4223  1.2438
  785MOL0     H 8313   8.894  -0.272  11.653  1.9412  0.2328 -2.3288
  785MOL0     H 8314  10.572  -0.439  11.452  2.5667 -3.1674  2.3099
  785MOL0     H 8315  10.743  -0.308  11.363 -0.7028  0.6237  0.3754
  785MOL0     H 8316  11.124  -0.120  11.451 -2.3369 -1.2959 -1.0461
  785MOL0     H 8317  11.350   0.005  11.434  0.6389 -0.0645 -1.8750
  785MOL0     H 8318  11.569   0.254  11.274  0.2975  0.5974  2.2180
  785MOL0     H 8319  11.536   0.099  11.358 -1.7061 -1.7262  0.7627
  785MOL0     H 8320  11.405   0.013  11.186  1.7860 -0.7100  2.9046
  785MOL0     H 8321  11.567   0.043  11.130  1.2961  3.0893 -2.7584
  785MOL0     H 8322  11.335   0.233  11.084  1.9249  1.7140  0.0939
  785MOL0     H 8323  11.496   0.257  11.022  0.2308  0.5858  2.8736
  785MOL0     H 8324  11.334   0.018  10.933 -1.1916  0.9049 -1.6943
  785MOL0     H 8325  11.488   0.048  10.863  0.6308  2.5466 -1.8640
  785MOL0     H 8326  11.236   0.317  10.663  1.5142 -1.5736 -1.3713
  785MOL0     H 8327  11.139   0.340  11.284 -0.2432 -0.0407  2.9364
  785MOL0     H 8328  10.912   0.341  11.224 -3.4916 -0.1846 -1.9560
  785MOL0     H 8329  10.805   0.200  11.242 -3.3503  0.9677  2.0612
  785MOL0     H 8330  10.840   0.303  11.382 -1.9495  0.9962 -0.7979
  786MOL0     O 8331   6.437   8.068   2.914  0.1484 -0.1064  0.0379
  786MOL0     C 8332   6.444   8.133   3.016  0.1236 -0.0066  0.4657
  786MOL0     O 8333   6.522   8.093   3.125  0.0544  0.4717 -0.2766
  786MOL0     C 8334   6.597   7.972   3.114 -0.0871  0.0126 -0.4965
  786MOL0     C 8335   6.716   7.976   3.052  0.2142 -0.9081 -0.0937
  786MOL0     C 8336   6.796   7.866   3.048 -0.5638  0.2894 -0.3697
  786MOL0     C 8337   6.753   7.741   3.102 -0.6992  0.2409  0.2472
  786MOL0     O 8338   6.821   7.620   3.087  0.1216  0.7566  0.3796
  786MOL0     C 8339   6.861   7.578   2.948  0.4174 -0.4961  0.0360
  786MOL0     C 8340   6.913   7.438   2.944 -0.3204  0.1530 -0.0078
  786MOL0     C 8341   7.010   7.407   3.050 -0.5244  0.0951  0.5442
  786MOL0     C 8342   7.108   7.298   3.014 -1.1260 -0.0168 -1.3472
  786MOL0     C 8343   7.170   7.245   3.154 -0.3477  0.5260 -0.8007
  786MOL0     C 8344   7.273   7.349   3.224  1.0626  0.4256 -0.8820
  786MOL0     C 8345   7.361   7.279   3.332  0.0234 -0.5462 -0.5368
  786MOL0     C 8346   7.287   7.232   3.460  0.5107  0.6189  0.4504
  786MOL0     N 8347   7.366   7.236   3.583  0.1441  0.0562 -0.6650
  786MOL0     C 8348   7.505   7.252   3.603 -0.5597  0.5509  0.3875
  786MOL0     C 8349   7.525   7.256   3.744  0.3733 -0.3359 -0.3596
  786MOL0     C 8350   7.640   7.255   3.839 -0.6304  0.4678 -0.0231
  786MOL0     C 8351   7.734   7.132   3.825  0.0366  0.0074 -0.0610
  786MOL0     C 8352   7.860   7.127   3.907  0.3237 -0.1457  0.4701
  786MOL0     C 8353   7.959   7.239   3.846 -0.8119  0.8467 -0.1283
  786MOL0     O 8354   7.983   7.210   3.701 -0.1977  0.7061  0.1365
  786MOL0     C 8355   8.094   7.256   3.648 -0.3348 -0.0964  0.5044
  786MOL0     C 8356   8.133   7.194   3.529  0.3657  0.3398 -0.2274
  786MOL0     C 8357   8.244   7.238   3.455 -0.0961 -0.5226 -0.4274
  786MOL0     C 8358   8.312   7.135   3.367  0.1558 -0.7570  0.5735
  786MOL0     C 8359   8.303   7.362   3.486  0.1087  0.2691 -1.3450
  786MOL0     C 8360   8.417   7.425   3.419 -0.3569  0.4263  0.3172
  786MOL0     O 8361   8.398   7.560   3.419 -0.0250 -0.9448  0.4032
  786MOL0     C 8362   8.505   7.650   3.406 -0.6638 -0.3064  0.4422
  786MOL0     C 8363   8.469   7.773   3.361  0.3210 -0.8427  0.0547
  786MOL0     C 8364   8.561   7.884   3.367  0.5615 -0.2056  0.3860
  786MOL0     C 8365   8.695   7.862   3.409  0.0041  0.3583  0.3303
  786MOL0     O 8366   8.794   7.960   3.398 -0.0673  0.3179 -0.2825
  786MOL0     C 8367   8.777   8.099   3.356  0.5016 -0.3089 -0.3823
  786MOL0     C 8368   8.726   8.125   3.213  0.9207 -0.5096  0.0279
  786MOL0     C 8369   8.840   8.167   3.118  0.1139  1.1397 -0.1277
  786MOL0     C 8370   8.868   8.320   3.134  0.0793 -0.8543  0.0442
  786MOL0     C 8371   8.967   8.380   3.027  0.0295  0.3947 -0.0057
  786MOL0     C 8372   8.970   8.535   3.025  0.6148  0.8602 -0.6012
  786MOL0     C 8373   8.829   8.596   2.976 -0.6457  0.1313  0.5667
  786MOL0     C 8374   8.846   8.736   2.935  0.1726 -0.0409  0.3950
  786MOL0    Cl 8375   8.892   8.742   2.768  0.3206 -0.3469  0.7465
  786MOL0     C 8376   8.737   7.732   3.431  0.4480  0.3778 -0.0606
  786MOL0     C 8377   8.645   7.629   3.427 -0.0065 -0.2240  0.0198
  786MOL0     O 8378   8.506   7.363   3.346  0.0346 -0.0464  0.1179
  786MOL0     C 8379   8.255   7.428   3.603 -0.0102 -0.2028  0.3795
  786MOL0     C 8380   8.150   7.380   3.681 -0.2965  0.4294  0.7432
  786MOL0     N 8381   7.390   7.250   3.790 -0.5034  0.4312  0.5982
  786MOL0     N 8382   7.307   7.237   3.706  0.1891  0.6180  0.2152
  786MOL0     C 8383   6.625   7.736   3.162  0.0389 -0.1465  0.3554
  786MOL0     C 8384   6.545   7.850   3.167 -0.5904  0.1624 -0.0752
  786MOL0     C 8385   6.360   8.256   3.047  0.6881 -0.5034 -0.5119
  786MOL0     C 8386   6.342   8.302   3.181  0.5186  0.8976 -0.1757
  786MOL0     C 8387   6.270   8.417   3.211  0.3832 -0.0254  0.1177
  786MOL0     C 8388   6.201   8.492   3.116 -0.8500  1.2746 -0.5780
  786MOL0     O 8389   6.132   8.604   3.144 -0.0065 -0.0949  0.9431
  786MOL0     C 8390   6.095   8.641   3.277  0.3239 -0.5689 -0.1930
  786MOL0     C 8391   6.195   8.743   3.342  0.0882  0.1878 -0.6190
  786MOL0     C 8392   6.223   8.863   3.251 -0.5571  0.7035  0.3298
  786MOL0     C 8393   6.309   8.969   3.325 -1.0139  0.6527  0.1211
  786MOL0     C 8394   6.313   9.085   3.228 -0.5159  0.6022  0.8417
  786MOL0     C 8395   6.315   9.190   3.168 -0.1289 -0.3485  0.6900
  786MOL0     C 8396   6.206   8.440   2.986 -0.2807 -0.3335  0.8252
  786MOL0     C 8397   6.292   8.334   2.951  0.3537  0.4005 -0.3387
  786MOL0     C 8398   6.311   8.313   2.810 -0.7274 -0.5043 -0.5697
  786MOL0     H 8399   6.751   8.062   2.997 -2.7988 -2.5877 -5.3753
  786MOL0     H 8400   6.884   7.873   2.986 -1.3447 -1.9955 -1.8542
  786MOL0     H 8401   6.932   7.651   2.910  1.3005 -1.2131  0.2668
  786MOL0     H 8402   6.772   7.576   2.884 -0.3127 -1.3586  1.0291
  786MOL0     H 8403   6.832   7.365   2.941 -0.1916 -0.0245 -3.5723
  786MOL0     H 8404   6.962   7.428   2.846 -1.4700 -1.2079 -0.4697
  786MOL0     H 8405   7.062   7.499   3.081  1.0053  1.0570 -4.0760
  786MOL0     H 8406   6.944   7.375   3.132  2.3147 -0.8636  2.6015
  786MOL0     H 8407   7.053   7.219   2.961  0.7193 -2.2279 -0.1419
  786MOL0     H 8408   7.186   7.336   2.948  0.9718  2.2257  2.0829
  786MOL0     H 8409   7.229   7.158   3.124  0.5630  1.1306 -0.8115
  786MOL0     H 8410   7.092   7.223   3.228 -0.7044  1.9263 -0.7396
  786MOL0     H 8411   7.330   7.399   3.145  0.3605  0.8213 -1.1384
  786MOL0     H 8412   7.218   7.420   3.285  0.2323 -0.8405 -0.1154
  786MOL0     H 8413   7.437   7.350   3.364 -2.3570  1.6740  0.6060
  786MOL0     H 8414   7.412   7.196   3.282 -0.6866 -0.6257 -1.1465
  786MOL0     H 8415   7.193   7.284   3.473  0.6633  1.3144 -0.9916
  786MOL0     H 8416   7.255   7.128   3.450  1.4644  0.3823 -0.3700
  786MOL0     H 8417   7.576   7.256   3.521 -0.5972  2.7216  0.4056
  786MOL0     H 8418   7.593   7.274   3.936  0.8887  0.5538  0.7247
  786MOL0     H 8419   7.702   7.345   3.837  0.4110 -0.2501 -0.7675
  786MOL0     H 8420   7.676   7.054   3.877 -0.5918  1.3987  1.3960
  786MOL0     H 8421   7.754   7.116   3.719 -2.9674  2.4774 -1.1407
  786MOL0     H 8422   7.831   7.147   4.010  0.0406 -0.6200  0.4845
  786MOL0     H 8423   7.913   7.031   3.901 -0.3161 -0.4108 -3.8432
  786MOL0     H 8424   7.929   7.344   3.857  1.4875  1.6548 -0.8643
  786MOL0     H 8425   8.052   7.227   3.904 -0.9377 -0.0661 -0.1011
  786MOL0     H 8426   8.079   7.100   3.522 -1.9258  1.6673 -1.1725
  786MOL0     H 8427   8.356   7.176   3.276 -0.5352 -1.4087 -0.0666
  786MOL0     H 8428   8.240   7.057   3.341  1.9140 -1.7502 -1.5780
  786MOL0     H 8429   8.389   7.085   3.426 -0.8601 -0.6590  2.0554
  786MOL0     H 8430   8.364   7.784   3.339  0.6645  0.8071 -0.8742
  786MOL0     H 8431   8.516   7.983   3.366 -0.2433 -0.5558  1.1244
  786MOL0     H 8432   8.715   8.153   3.427 -0.6605  0.9727 -2.3101
  786MOL0     H 8433   8.879   8.138   3.365  0.8851 -1.3178 -0.1756
  786MOL0     H 8434   8.684   8.035   3.167  1.1880 -0.2066 -0.8105
  786MOL0     H 8435   8.642   8.195   3.211 -1.2701 -2.8864 -3.6330
  786MOL0     H 8436   8.801   8.154   3.017 -1.8265 -0.1465  0.7180
  786MOL0     H 8437   8.931   8.108   3.132 -0.2355  0.7221  0.4356
  786MOL0     H 8438   8.909   8.331   3.235 -2.2387 -1.7621  1.1740
  786MOL0     H 8439   8.766   8.356   3.143 -0.1354 -1.1680 -0.9476
  786MOL0     H 8440   9.067   8.341   3.049  0.2800  1.7946  1.5353
  786MOL0     H 8441   8.949   8.345   2.925  3.0086 -0.6007 -0.2803
  786MOL0     H 8442   9.049   8.557   2.953 -0.4792 -2.6287 -3.1505
  786MOL0     H 8443   8.990   8.570   3.126  0.7782 -1.8596  0.3944
  786MOL0     H 8444   8.756   8.593   3.058 -1.1239 -1.8660  0.1208
  786MOL0     H 8445   8.788   8.524   2.905 -0.9327  1.7242 -0.9509
  786MOL0     H 8446   8.908   8.804   2.994  1.2219 -0.7485  0.1476
  786MOL0     H 8447   8.745   8.774   2.954  1.5188  2.8007  2.5295
  786MOL0     H 8448   8.843   7.709   3.436  0.7898  1.3620 -1.7823
  786MOL0     H 8449   8.686   7.531   3.451  1.7795  0.0135 -1.8110
  786MOL0     H 8450   8.311   7.514   3.639  2.6852 -1.6630 -0.0556
  786MOL0     H 8451   8.103   7.446   3.753 -2.1728 -1.2710  1.1690
  786MOL0     H 8452   6.591   7.639   3.196  1.4260 -0.8901 -0.2951
  786MOL0     H 8453   6.446   7.848   3.213 -0.0406 -1.0887  1.1215
  786MOL0     H 8454   6.396   8.251   3.260  1.1784 -0.4477 -1.4338
  786MOL0     H 8455   6.277   8.442   3.317  0.5681  1.9074 -0.3094
  786MOL0     H 8456   5.998   8.688   3.289  0.5976 -0.4653  2.1243
  786MOL0     H 8457   6.081   8.556   3.345  1.8079 -1.2167 -0.6480
  786MOL0     H 8458   6.292   8.697   3.362  0.0919  1.2276  2.1984
  786MOL0     H 8459   6.149   8.776   3.436  0.5529  2.9571 -1.2690
  786MOL0     H 8460   6.264   8.823   3.158 -2.6360  1.9473 -1.2064
  786MOL0     H 8461   6.127   8.909   3.226 -0.1141  0.5168 -1.8491
  786MOL0     H 8462   6.408   8.922   3.323 -1.7954 -1.0732  0.1711
  786MOL0     H 8463   6.265   8.997   3.421 -2.9008 -0.7634 -0.2731
  786MOL0     H 8464   6.329   9.288   3.127  1.0752 -0.3352  1.0798
  786MOL0     H 8465   6.157   8.501   2.910  2.2896  0.0944 -0.6052
  786MOL0     H 8466   6.412   8.338   2.779  0.6834 -2.9832  1.5968
  786MOL0     H 8467   6.287   8.210   2.779 -1.6409 -2.2855  4.9974
  786MOL0     H 8468   6.244   8.380   2.755 -2.6040 -2.4288 -0.7907
  787MOL0     O 8469   1.589   2.481   9.090 -0.0390  0.2074 -0.7367
  787MOL0     C 8470   1.677   2.551   9.035 -0.3612 -0.6447 -0.7724
  787MOL0     O 8471   1.662   2.614   8.920  0.2522 -1.5248  0.7805
  787MOL0     C 8472   1.578   2.558   8.826 -1.0444  0.1293 -0.4805
  787MOL0     C 8473   1.438   2.597   8.824  0.1591 -0.0650 -0.7154
  787MOL0     C 8474   1.346   2.532   8.732 -0.1666  0.3976  0.1168
  787MOL0     C 8475   1.393   2.417   8.654  0.8728  0.0801 -0.0050
  787MOL0     O 8476   1.318   2.333   8.576 -0.0086  0.6496 -0.3164
  787MOL0     C 8477   1.181   2.316   8.620  0.1189 -0.0322 -0.3327
  787MOL0     C 8478   1.108   2.209   8.543 -0.8579  0.4926 -0.5226
  787MOL0     C 8479   0.981   2.248   8.474 -0.0713  0.2979  0.4015
  787MOL0     C 8480   1.001   2.336   8.345  0.6985  1.5922 -0.2093
  787MOL0     C 8481   0.858   2.383   8.298 -0.5824 -0.0715  0.4619
  787MOL0     C 8482   0.759   2.275   8.247 -0.2847 -0.3633 -0.7054
  787MOL0     C 8483   0.626   2.333   8.202  0.8916  0.4378 -0.0731
  787MOL0     C 8484   0.637   2.425   8.080  0.4151  0.3049  0.0461
  787MOL0     N 8485   0.678   2.345   7.966  0.2557  0.0044 -1.0750
  787MOL0     C 8486   0.591   2.303   7.865 -0.1728  0.3869 -0.2383
  787MOL0     C 8487   0.667   2.233   7.771  0.6911 -0.6719 -0.6199
  787MOL0     C 8488   0.604   2.149   7.663  0.0499  0.7467 -0.6348
  787MOL0     C 8489   0.612   1.998   7.707  0.2850 -0.0577  0.4355
  787MOL0     C 8490   0.515   1.960   7.823 -0.2511  0.6870  0.1128
  787MOL0     C 8491   0.510   1.810   7.863  0.1326 -0.3436  0.0810
  787MOL0     O 8492   0.449   1.734   7.754 -0.1038 -0.3579 -0.0386
  787MOL0     C 8493   0.456   1.597   7.755 -0.1179 -0.0519  0.3622
  787MOL0     C 8494   0.371   1.521   7.833  0.1521  0.0474 -0.9773
  787MOL0     C 8495   0.369   1.379   7.836 -1.3766  0.7681 -0.1092
  787MOL0     C 8496   0.267   1.305   7.910 -1.2658  0.7605  0.5121
  787MOL0     C 8497   0.465   1.316   7.748  0.8320 -0.8249 -0.4609
  787MOL0     C 8498   0.479   1.170   7.727  0.4093 -0.3934 -0.2318
  787MOL0     O 8499   0.605   1.118   7.745  0.1392 -0.6049 -0.4547
  787MOL0     C 8500   0.617   0.982   7.774  0.3021 -0.8437 -0.8778
  787MOL0     C 8501   0.702   0.904   7.696  0.2762 -0.0396 -0.2262
  787MOL0     C 8502   0.720   0.766   7.723  0.4429  0.8383 -0.7143
  787MOL0     C 8503   0.639   0.705   7.825 -1.1916 -0.2515 -0.0652
  787MOL0     O 8504   0.629   0.574   7.855  0.1084 -0.9884 -0.1614
  787MOL0     C 8505   0.673   0.491   7.755 -0.4237 -0.3866 -0.9379
  787MOL0     C 8506   0.624   0.348   7.786  0.7583  0.4978 -0.2424
  787MOL0     C 8507   0.473   0.342   7.794 -0.1959 -0.5276  0.2968
  787MOL0     C 8508   0.427   0.244   7.897  0.2902  0.0969 -0.2221
  787MOL0     C 8509   0.289   0.180   7.862 -0.0150  0.0254 -0.0883
  787MOL0     C 8510   0.171   0.283   7.852 -1.1801  0.4319  0.2648
  787MOL0     C 8511   0.030   0.212   7.853 -0.4418 -0.1210  0.6146
  787MOL0     C 8512   0.020   0.101   7.744 -0.0555  0.2234 -0.2461
  787MOL0    Cl 8513   0.066   0.180   7.581 -0.3470 -0.0773  0.2604
  787MOL0     C 8514   0.551   0.789   7.894 -0.0503 -0.3638 -0.4577
  787MOL0     C 8515   0.543   0.929   7.881  0.1329 -0.3461 -0.0589
  787MOL0     O 8516   0.376   1.098   7.707  0.5862 -0.4613  0.0250
  787MOL0     C 8517   0.549   1.383   7.672 -0.6450 -0.0657 -0.7982
  787MOL0     C 8518   0.548   1.524   7.675 -0.1683  0.5190  0.5364
  787MOL0     N 8519   0.805   2.245   7.811  0.1571  0.2622 -0.6228
  787MOL0     N 8520   0.806   2.309   7.921  0.1204  0.0500  0.1187
  787MOL0     C 8521   1.533   2.388   8.652  0.1565 -0.2426  0.5683
  787MOL0     C 8522   1.620   2.446   8.747 -0.0871 -0.6523 -0.4647
  787MOL0     C 8523   1.813   2.578   9.093 -0.6667  0.5738 -0.5600
  787MOL0     C 8524   1.912   2.663   9.031  0.9997 -0.7143  0.7156
  787MOL0     C 8525   2.047   2.661   9.061  0.2950  0.2379 -0.3171
  787MOL0     C 8526   2.091   2.594   9.171 -0.3250 -0.4303 -0.8359
  787MOL0     O 8527   2.218   2.593   9.218 -0.3499 -0.6793  0.7346
  787MOL0     C 8528   2.313   2.591   9.105 -0.1046  0.6308 -0.5168
  787MOL0     C 8529   2.307   2.441   9.048  0.5657 -0.0375 -0.3357
  787MOL0     C 8530   2.404   2.351   9.126  0.5819  0.0004  0.0743
  787MOL0     C 8531   2.413   2.201   9.078 -0.1401 -0.0874  0.0739
  787MOL0     C 8532   2.410   2.105   9.193  0.1459 -0.2234 -0.2496
  787MOL0     C 8533   2.407   2.024   9.282 -0.2167  0.2966 -0.2854
  787MOL0     C 8534   1.994   2.533   9.255 -0.4059  0.3776  0.3495
  787MOL0     C 8535   1.864   2.512   9.214 -0.1060  0.0365 -1.0432
  787MOL0     C 8536   1.781   2.419   9.306  0.4147  0.9365 -0.1106
  787MOL0     H 8537   1.395   2.676   8.884 -1.3692 -2.6026  1.7743
  787MOL0     H 8538   1.245   2.571   8.726 -0.5346 -0.5787 -0.0906
  787MOL0     H 8539   1.128   2.409   8.598  3.2335  1.1887 -3.9017
  787MOL0     H 8540   1.178   2.280   8.723  2.5218  0.3502 -0.0678
  787MOL0     H 8541   1.189   2.173   8.479  2.3894  1.3188  2.7503
  787MOL0     H 8542   1.076   2.126   8.607  0.3066 -0.4176 -1.0816
  787MOL0     H 8543   0.926   2.154   8.462 -0.1531 -0.0581  2.9700
  787MOL0     H 8544   0.923   2.306   8.546 -4.9729 -2.2507 -1.0605
  787MOL0     H 8545   1.075   2.415   8.361  1.9625  0.3769  0.2298
  787MOL0     H 8546   1.049   2.272   8.271 -1.5563  1.5847 -1.7499
  787MOL0     H 8547   0.880   2.457   8.220 -2.9067  2.9438  2.4190
  787MOL0     H 8548   0.810   2.448   8.372 -0.0193  1.7989 -0.7260
  787MOL0     H 8549   0.807   2.230   8.160 -1.7183  0.4225 -1.9474
  787MOL0     H 8550   0.732   2.205   8.327 -0.3231 -0.3398 -0.6978
  787MOL0     H 8551   0.576   2.374   8.290 -2.4859 -2.8654 -0.2312
  787MOL0     H 8552   0.557   2.255   8.169 -0.1989  1.5002 -0.3781
  787MOL0     H 8553   0.546   2.480   8.052  0.2226 -0.1241 -0.1846
  787MOL0     H 8554   0.721   2.493   8.100 -2.0513  3.3156  1.0633
  787MOL0     H 8555   0.484   2.324   7.869 -0.3680 -0.0707 -2.0170
  787MOL0     H 8556   0.668   2.153   7.574 -0.5478 -2.9749 -1.4146
  787MOL0     H 8557   0.500   2.177   7.641 -0.0522 -0.3238 -1.6596
  787MOL0     H 8558   0.595   1.936   7.619 -2.9589  0.6984  0.3965
  787MOL0     H 8559   0.711   1.967   7.743 -1.4101 -1.2047  4.8192
  787MOL0     H 8560   0.531   2.015   7.916  3.3075 -1.3224  0.8501
  787MOL0     H 8561   0.413   1.952   7.783 -0.8302  0.2465  1.6052
  787MOL0     H 8562   0.615   1.788   7.883  0.6677  1.8551 -0.1389
  787MOL0     H 8563   0.468   1.807   7.964  2.3197  2.9509  1.2497
  787MOL0     H 8564   0.291   1.564   7.891 -0.6769 -3.5729  0.8412
  787MOL0     H 8565   0.315   1.234   7.978 -0.3152  1.7777  0.9486
  787MOL0     H 8566   0.198   1.252   7.845 -0.8425  1.5084 -0.5697
  787MOL0     H 8567   0.200   1.379   7.956  0.7557  3.0980 -0.0701
  787MOL0     H 8568   0.736   0.957   7.607 -0.9309  0.1846 -0.5761
  787MOL0     H 8569   0.780   0.709   7.652  0.8322  0.2218  0.0989
  787MOL0     H 8570   0.630   0.515   7.658 -0.5887 -1.8878 -1.2666
  787MOL0     H 8571   0.781   0.506   7.759 -0.9630  5.6315  0.5983
  787MOL0     H 8572   0.663   0.274   7.715  0.5247 -1.0391  1.1841
  787MOL0     H 8573   0.662   0.305   7.879 -1.8053 -1.1596  0.1363
  787MOL0     H 8574   0.434   0.307   7.698  1.7483  0.0732 -0.7718
  787MOL0     H 8575   0.432   0.441   7.815  0.9770  0.3232 -1.2062
  787MOL0     H 8576   0.431   0.287   7.997  0.4692  1.3687 -0.7556
  787MOL0     H 8577   0.497   0.160   7.900 -0.2783 -0.6666 -3.7172
  787MOL0     H 8578   0.295   0.121   7.770  1.4100 -1.1817  0.7424
  787MOL0     H 8579   0.275   0.112   7.946 -2.9627 -0.5349 -0.8804
  787MOL0     H 8580   0.179   0.333   7.756 -0.8863  1.1716  0.6653
  787MOL0     H 8581   0.180   0.356   7.933 -4.2394  1.8699 -0.5458
  787MOL0     H 8582  -0.038   0.297   7.838  2.3228  2.1609  0.1511
  787MOL0     H 8583  -0.009   0.159   7.941 -3.2286  0.2289 -0.3104
  787MOL0     H 8584  -0.082   0.061   7.746 -0.1747  0.5589  0.5974
  787MOL0     H 8585   0.076   0.011   7.774  1.1536  0.9968 -0.1213
  787MOL0     H 8586   0.498   0.738   7.974 -0.5395  0.3708 -0.3056
  787MOL0     H 8587   0.482   0.994   7.943  0.0830 -0.4806  0.0332
  787MOL0     H 8588   0.614   1.339   7.596 -1.0580  1.4360 -2.0772
  787MOL0     H 8589   0.617   1.586   7.617  1.7069 -1.7987  0.1459
  787MOL0     H 8590   1.567   2.316   8.579  1.1268  1.0862 -0.3461
  787MOL0     H 8591   1.718   2.401   8.755  0.2020  0.2248  2.0092
  787MOL0     H 8592   1.896   2.717   8.939  4.1477  0.0252  0.4718
  787MOL0     H 8593   2.102   2.731   8.998 -1.8895  2.8646  0.4735
  787MOL0     H 8594   2.287   2.659   9.023 -1.2921 -2.2187 -2.6578
  787MOL0     H 8595   2.415   2.619   9.133 -0.1567  1.1805 -0.8480
  787MOL0     H 8596   2.337   2.451   8.944  0.9999  3.2203 -0.0078
  787MOL0     H 8597   2.206   2.399   9.051  1.0230 -1.1649  2.0217
  787MOL0     H 8598   2.505   2.393   9.128  1.0474 -1.0974  0.0261
  787MOL0     H 8599   2.365   2.350   9.228 -0.5731 -2.7473 -0.3143
  787MOL0     H 8600   2.501   2.189   9.014 -0.7494 -0.7610 -0.6755
  787MOL0     H 8601   2.329   2.188   9.008 -0.9663  3.3130  0.2568
  787MOL0     H 8602   2.418   1.940   9.348 -0.8577  1.0545  0.8296
  787MOL0     H 8603   2.031   2.491   9.348  0.1736 -0.6432 -0.3203
  787MOL0     H 8604   1.839   2.361   9.378 -2.3801 -1.2289  0.5679
  787MOL0     H 8605   1.719   2.478   9.374  1.1488  2.6136 -0.8483
  787MOL0     H 8606   1.734   2.340   9.248  0.2417  1.6382 -0.9450
  788MOL0     O 8607  11.596  11.548   6.587  0.2246  0.4291 -0.6361
  788MOL0     C 8608  11.487  11.603   6.606  0.6277 -0.1757  0.4705
  788MOL0     O 8609  11.462  11.705   6.689  0.1528 -0.5110  0.4424
  788MOL0     C 8610  11.560  11.779   6.740 -0.9536 -0.5428  1.0320
  788MOL0     C 8611  11.545  11.826   6.874  1.0389 -0.8714 -0.1585
  788MOL0     C 8612  11.645  11.914   6.926  0.5575  0.6593  0.3236
  788MOL0     C 8613  11.756  11.950   6.845  0.5396  0.4895  0.4775
  788MOL0     O 8614  11.862  12.019   6.907 -0.2973 -0.7765  0.3834
  788MOL0     C 8615  11.881  12.154   6.860 -0.3645 -0.1203 -0.6992
  788MOL0     C 8616  11.785  12.260   6.916  0.1436  0.5152  0.3063
  788MOL0     C 8617  11.844  12.332   7.030 -0.0898  0.3183  0.0356
  788MOL0     C 8618  11.754  12.426   7.098  1.3600 -0.7249 -0.2629
  788MOL0     C 8619  11.819  12.491   7.218 -0.0935  0.5635 -1.2910
  788MOL0     C 8620  11.936  12.599   7.208 -0.0652  0.5568  0.0094
  788MOL0     C 8621  11.992  12.625   7.345 -0.4978 -1.0569 -0.0782
  788MOL0     C 8622  12.090  12.743   7.365 -0.4482 -0.6200 -0.0392
  788MOL0     N 8623  12.040  12.880   7.342 -0.1045  0.3508  0.7018
  788MOL0     C 8624  11.939  12.947   7.415 -0.5327 -0.3700 -0.2849
  788MOL0     C 8625  11.941  13.078   7.390 -0.4062  0.2217 -0.0350
  788MOL0     C 8626  11.853  13.187   7.424 -0.1934 -0.6569  0.4232
  788MOL0     C 8627  11.745  13.144   7.528 -0.9938 -1.3361 -0.6521
  788MOL0     C 8628  11.643  13.262   7.556 -1.0857  0.8993  0.1183
  788MOL0     C 8629  11.562  13.278   7.424  0.3729  0.1984 -0.6366
  788MOL0     O 8630  11.453  13.364   7.465  0.2118  0.1807  0.1154
  788MOL0     C 8631  11.346  13.316   7.538  0.4200  0.2857  0.5847
  788MOL0     C 8632  11.302  13.401   7.638  0.2824  0.2330  0.2798
  788MOL0     C 8633  11.197  13.364   7.726 -0.7186 -0.5097  0.3057
  788MOL0     C 8634  11.168  13.467   7.826  0.8242  0.0933 -0.0309
  788MOL0     C 8635  11.135  13.238   7.714 -1.0911  0.1612 -0.5636
  788MOL0     C 8636  11.030  13.181   7.802  0.1566  0.4636  0.1505
  788MOL0     O 8637  10.933  13.108   7.744  0.2638 -0.2797 -0.1748
  788MOL0     C 8638  10.830  13.068   7.827 -0.1029 -0.3428 -0.1011
  788MOL0     C 8639  10.750  13.174   7.874  0.5777 -0.4571  0.1495
  788MOL0     C 8640  10.657  13.151   7.975 -0.7656 -0.5953 -0.7717
  788MOL0     C 8641  10.634  13.027   8.030 -0.6830 -0.0507 -0.8967
  788MOL0     O 8642  10.544  13.009   8.131 -0.0391  0.7443  0.0049
  788MOL0     C 8643  10.561  13.080   8.245  0.2271 -0.1033  0.5706
  788MOL0     C 8644  10.498  13.016   8.380 -0.0202  0.1381  0.8490
  788MOL0     C 8645  10.560  13.073   8.518  0.2427  0.9757  0.3861
  788MOL0     C 8646  10.443  13.119   8.621 -0.4046  0.7577  0.1806
  788MOL0     C 8647  10.514  13.178   8.744  0.4879  0.1341 -0.2172
  788MOL0     C 8648  10.409  13.255   8.815 -0.5444 -0.2009  0.1564
  788MOL0     C 8649  10.452  13.312   8.952 -1.3430  0.2642 -0.0603
  788MOL0     C 8650  10.335  13.324   9.048  0.2628  0.7638 -0.4364
  788MOL0    Cl 8651  10.294  13.168   9.129 -0.2857 -0.0467 -0.3950
  788MOL0     C 8652  10.697  12.919   7.968 -0.3395  0.5004  0.8098
  788MOL0     C 8653  10.797  12.941   7.864 -0.1943  2.0339 -0.6030
  788MOL0     O 8654  11.035  13.204   7.921 -0.2423 -0.3487  0.8909
  788MOL0     C 8655  11.193  13.152   7.617  0.8159  1.5774  0.4971
  788MOL0     C 8656  11.286  13.189   7.528 -0.3805  0.1738 -0.6167
  788MOL0     N 8657  12.047  13.090   7.289  0.2437 -0.1815 -0.6270
  788MOL0     N 8658  12.109  12.979   7.272  0.5361  0.2368 -0.2784
  788MOL0     C 8659  11.773  11.902   6.716 -0.4306 -0.6595  0.2526
  788MOL0     C 8660  11.670  11.826   6.657  0.2432  0.3200 -0.4223
  788MOL0     C 8661  11.374  11.566   6.515  0.0910 -0.0075  0.6331
  788MOL0     C 8662  11.271  11.666   6.484 -0.4866  0.2231 -1.4464
  788MOL0     C 8663  11.160  11.627   6.408 -0.4865 -0.1313 -0.2458
  788MOL0     C 8664  11.140  11.502   6.361 -0.0283  0.0631 -0.9649
  788MOL0     O 8665  11.037  11.476   6.280  0.7527 -0.4387 -0.1772
  788MOL0     C 8666  10.940  11.370   6.297  0.1508 -0.2648 -0.1847
  788MOL0     C 8667  10.902  11.297   6.164  0.3140  1.0550  0.5303
  788MOL0     C 8668  10.975  11.162   6.171 -0.4375  0.9531 -0.3642
  788MOL0     C 8669  10.916  11.060   6.081  0.4204  0.5087 -0.6037
  788MOL0     C 8670  11.009  10.952   6.043  0.4432 -0.2785 -0.9040
  788MOL0     C 8671  11.080  10.868   5.997 -1.1282  0.2389 -0.4175
  788MOL0     C 8672  11.244  11.412   6.368  1.1606  0.2876  0.0794
  788MOL0     C 8673  11.360  11.432   6.450 -0.0780 -0.3767 -0.6849
  788MOL0     C 8674  11.449  11.315   6.467  0.2886 -0.4609 -1.0093
  788MOL0     H 8675  11.454  11.787   6.919  0.5294 -1.8051 -1.9295
  788MOL0     H 8676  11.650  11.955   7.026 -1.1746  4.1366 -0.8372
  788MOL0     H 8677  11.863  12.167   6.753 -0.6149  0.4806 -0.5885
  788MOL0     H 8678  11.983  12.181   6.888 -1.2991  2.2900  0.7326
  788MOL0     H 8679  11.756  12.332   6.839  0.0737  2.6584  2.2234
  788MOL0     H 8680  11.688  12.216   6.941 -0.0232  1.5095  1.5042
  788MOL0     H 8681  11.877  12.257   7.102 -1.5443  1.6943  2.2518
  788MOL0     H 8682  11.928  12.386   6.986 -2.9674  1.9891 -4.1496
  788MOL0     H 8683  11.724  12.507   7.031 -0.1056  1.2122  2.4848
  788MOL0     H 8684  11.661  12.383   7.135  0.7488  0.0805 -0.8303
  788MOL0     H 8685  11.854  12.402   7.270 -1.8606  0.7054  0.2757
  788MOL0     H 8686  11.734  12.521   7.281  0.5072 -0.7766  0.2044
  788MOL0     H 8687  12.017  12.564   7.143 -0.4731 -0.2258 -0.0897
  788MOL0     H 8688  11.892  12.690   7.165 -0.7542 -0.6880 -2.1047
  788MOL0     H 8689  12.040  12.539   7.392  0.4011 -0.1139  0.7692
  788MOL0     H 8690  11.912  12.673   7.401  1.4638  2.5442 -0.0855
  788MOL0     H 8691  12.135  12.732   7.464 -0.6666 -2.3160 -0.1022
  788MOL0     H 8692  12.186  12.727   7.314 -0.4671 -0.3484 -0.1618
  788MOL0     H 8693  11.878  12.896   7.489 -1.1039 -0.9887 -1.1614
  788MOL0     H 8694  11.814  13.235   7.333  1.2023  3.1716  1.6315
  788MOL0     H 8695  11.909  13.266   7.475 -2.7693  0.9937  0.8628
  788MOL0     H 8696  11.694  13.059   7.482 -3.8093 -2.4358  3.8167
  788MOL0     H 8697  11.787  13.123   7.627  0.3955 -1.4452 -1.2434
  788MOL0     H 8698  11.570  13.219   7.625 -0.4364  0.0244  0.2725
  788MOL0     H 8699  11.674  13.359   7.595  1.8765  0.7079 -1.5209
  788MOL0     H 8700  11.607  13.318   7.333 -3.0781 -0.6349 -2.9203
  788MOL0     H 8701  11.516  13.186   7.387  1.4344 -0.5151 -0.2308
  788MOL0     H 8702  11.357  13.494   7.653  0.4718  0.0692  0.6389
  788MOL0     H 8703  11.086  13.424   7.884  1.2545 -2.2247 -1.0612
  788MOL0     H 8704  11.144  13.565   7.782  2.9457 -0.2229 -2.0694
  788MOL0     H 8705  11.257  13.474   7.890 -0.2710  1.5213  1.4288
  788MOL0     H 8706  10.771  13.265   7.818 -0.5100 -2.2438 -3.4713
  788MOL0     H 8707  10.604  13.237   8.015  0.9191  0.7984 -1.4070
  788MOL0     H 8708  10.667  13.081   8.268  0.5277  1.7906 -0.7357
  788MOL0     H 8709  10.520  13.181   8.235  1.7988  0.4093 -1.2438
  788MOL0     H 8710  10.391  13.037   8.388  0.0164  1.6532 -1.5904
  788MOL0     H 8711  10.514  12.907   8.377 -0.4372  0.0756  0.8572
  788MOL0     H 8712  10.615  13.165   8.496  1.2027  0.6474  1.3252
  788MOL0     H 8713  10.634  13.008   8.566  0.6569  1.6732  0.7204
  788MOL0     H 8714  10.373  13.036   8.634  3.0918 -2.8742 -1.7207
  788MOL0     H 8715  10.377  13.200   8.588 -2.7561  1.1416  4.9238
  788MOL0     H 8716  10.559  13.097   8.802  0.1693  0.3043  0.2658
  788MOL0     H 8717  10.593  13.244   8.706  0.5567 -0.0826 -0.4591
  788MOL0     H 8718  10.313  13.204   8.824 -1.2461  0.7269 -1.6208
  788MOL0     H 8719  10.393  13.342   8.751  0.3870  0.3319  0.6218
  788MOL0     H 8720  10.488  13.411   8.922  3.1785 -1.0750  0.1597
  788MOL0     H 8721  10.529  13.261   9.011 -1.4947 -0.8629 -0.8175
  788MOL0     H 8722  10.250  13.374   9.001 -0.0595  2.3473  1.6699
  788MOL0     H 8723  10.362  13.403   9.119  0.7180  0.5753 -0.3914
  788MOL0     H 8724  10.665  12.817   7.989 -2.1162  0.5546 -1.2189
  788MOL0     H 8725  10.858  12.861   7.824 -0.8748  0.8240  0.6788
  788MOL0     H 8726  11.161  13.048   7.614 -0.7723  2.0470 -1.7135
  788MOL0     H 8727  11.327  13.114   7.462 -1.4451 -0.1397 -0.9380
  788MOL0     H 8728  11.860  11.944   6.666 -1.6412  2.3166  0.4375
  788MOL0     H 8729  11.675  11.789   6.555 -0.1121  0.3395 -0.4471
  788MOL0     H 8730  11.280  11.764   6.530 -0.6356 -1.7048  3.3778
  788MOL0     H 8731  11.107  11.715   6.373  0.2787  0.4124 -0.0500
  788MOL0     H 8732  10.972  11.301   6.375  0.6593  1.1730  0.9281
  788MOL0     H 8733  10.849  11.422   6.329  0.2873 -0.4737  0.5817
  788MOL0     H 8734  10.916  11.363   6.078 -4.1029  0.1341 -1.1291
  788MOL0     H 8735  10.795  11.273   6.162  0.8981 -1.9964 -1.1673
  788MOL0     H 8736  11.081  11.165   6.144 -0.2014 -0.1978  0.3458
  788MOL0     H 8737  10.973  11.121   6.273 -0.3129 -0.4671 -0.9017
  788MOL0     H 8738  10.887  11.112   5.989 -0.1703  0.3149 -0.5291
  788MOL0     H 8739  10.827  11.020   6.131  1.2516 -1.9700 -0.9883
  788MOL0     H 8740  11.140  10.789   5.956 -2.4910 -1.7162  1.1775
  788MOL0     H 8741  11.226  11.320   6.313  3.9644 -1.3979  1.7340
  788MOL0     H 8742  11.383  11.249   6.525  0.6639 -0.1618 -0.2225
  788MOL0     H 8743  11.489  11.278   6.372  3.2046  2.7143 -1.1688
  788MOL0     H 8744  11.541  11.324   6.526  0.1403  1.9428 -1.0792
  789MOL0     O 8745   4.947   2.549   4.099  0.6772 -0.2762 -0.4363
  789MOL0     C 8746   4.867   2.621   4.152  0.1206 -0.4606 -0.1095
  789MOL0     O 8747   4.764   2.578   4.237 -0.2090  0.0819 -0.5799
  789MOL0     C 8748   4.758   2.450   4.280 -0.0984  0.1425 -0.0674
  789MOL0     C 8749   4.862   2.389   4.351 -0.0447  0.9693  0.7046
  789MOL0     C 8750   4.846   2.257   4.397 -0.7403 -0.5214 -0.0916
  789MOL0     C 8751   4.741   2.177   4.367 -0.0647 -1.2006  0.2904
  789MOL0     O 8752   4.762   2.042   4.395  0.0046 -0.2461 -1.1375
  789MOL0     C 8753   4.685   1.941   4.335 -0.4096  0.1884  0.1981
  789MOL0     C 8754   4.749   1.893   4.199  0.3413  0.9546  0.4416
  789MOL0     C 8755   4.881   1.960   4.169 -0.1437  0.3001 -0.0301
  789MOL0     C 8756   4.994   1.918   4.266 -0.8372  0.3578 -0.3019
  789MOL0     C 8757   5.105   1.828   4.202  0.1244  0.7285  0.1136
  789MOL0     C 8758   5.222   1.917   4.145  1.2408  0.4800 -1.1203
  789MOL0     C 8759   5.319   1.828   4.070  0.2971  0.0542 -0.0854
  789MOL0     C 8760   5.370   1.699   4.143  0.3721 -0.5738  0.0065
  789MOL0     N 8761   5.431   1.735   4.270  0.3161  0.6449 -0.1735
  789MOL0     C 8762   5.386   1.709   4.400  0.5102  0.0220 -0.7414
  789MOL0     C 8763   5.499   1.739   4.475 -0.2974 -0.1470 -0.4975
  789MOL0     C 8764   5.518   1.714   4.617 -0.3139  0.7227  0.2474
  789MOL0     C 8765   5.565   1.567   4.639  0.3506  0.3974  0.9175
  789MOL0     C 8766   5.568   1.510   4.774  0.5848  1.0603 -1.2792
  789MOL0     C 8767   5.436   1.472   4.845 -0.4797 -0.1152  1.1626
  789MOL0     O 8768   5.366   1.357   4.782 -0.2925 -0.3012 -0.3605
  789MOL0     C 8769   5.272   1.393   4.687  0.5105 -0.3290  0.2042
  789MOL0     C 8770   5.170   1.491   4.700  0.9531 -1.3725  0.5078
  789MOL0     C 8771   5.101   1.538   4.592  0.6042 -0.0135  0.6517
  789MOL0     C 8772   5.015   1.656   4.615  0.6642 -0.4889 -0.6808
  789MOL0     C 8773   5.114   1.464   4.467 -0.3458 -0.1919  0.8211
  789MOL0     C 8774   5.034   1.499   4.345 -0.5133 -0.0054 -0.6052
  789MOL0     O 8775   5.094   1.466   4.218 -0.3231  0.7824 -0.4845
  789MOL0     C 8776   5.018   1.454   4.108 -0.9994  0.2211  0.6227
  789MOL0     C 8777   4.877   1.473   4.078 -0.8760  1.6955  0.5182
  789MOL0     C 8778   4.831   1.454   3.946  0.2406  0.4082  0.3392
  789MOL0     C 8779   4.920   1.438   3.837 -0.5038 -1.1439 -0.7807
  789MOL0     O 8780   4.883   1.440   3.709  0.2915 -0.2283 -0.6113
  789MOL0     C 8781   4.770   1.524   3.672 -0.2763  0.0183 -0.5161
  789MOL0     C 8782   4.791   1.666   3.639 -0.6119 -1.3769 -0.3695
  789MOL0     C 8783   4.815   1.747   3.767  0.4756  0.6799 -1.2886
  789MOL0     C 8784   4.852   1.894   3.753  0.0780 -0.6271  0.6183
  789MOL0     C 8785   4.730   1.982   3.707 -0.5703 -0.0913 -0.0856
  789MOL0     C 8786   4.651   2.008   3.832 -0.6829 -1.2591 -0.0808
  789MOL0     C 8787   4.514   2.054   3.805  0.0346  0.2653  0.0703
  789MOL0     C 8788   4.479   2.179   3.885 -0.0620 -0.7420  0.4168
  789MOL0    Cl 8789   4.565   2.308   3.796 -0.2487  0.2853 -0.3059
  789MOL0     C 8790   5.059   1.422   3.869  0.8551 -0.3622  0.8385
  789MOL0     C 8791   5.099   1.428   3.997 -0.9608 -0.7286 -0.7243
  789MOL0     O 8792   4.933   1.557   4.359  0.0184  0.0011  0.0466
  789MOL0     C 8793   5.207   1.361   4.457 -0.1112 -0.2522  0.2323
  789MOL0     C 8794   5.290   1.338   4.567  0.1889  0.1138  1.0617
  789MOL0     N 8795   5.595   1.791   4.392 -0.1964  0.0781  0.3206
  789MOL0     N 8796   5.552   1.806   4.270  0.0882  0.2653  0.8397
  789MOL0     C 8797   4.638   2.235   4.286 -0.6017 -0.5497  0.2888
  789MOL0     C 8798   4.643   2.371   4.246 -0.5954  0.4079  0.3556
  789MOL0     C 8799   4.880   2.759   4.092  0.3506 -0.7632 -0.3347
  789MOL0     C 8800   5.005   2.797   4.037  0.8994  0.2701 -0.2569
  789MOL0     C 8801   5.031   2.922   3.992 -0.2207 -0.1080 -0.5851
  789MOL0     C 8802   4.918   3.007   3.973  0.1994  0.3370 -0.1427
  789MOL0     O 8803   4.936   3.133   3.925 -0.0048 -0.9605  0.2488
  789MOL0     C 8804   4.856   3.180   3.815  0.3461  0.2169  0.9601
  789MOL0     C 8805   4.953   3.263   3.726 -0.5247 -0.3537 -0.0135
  789MOL0     C 8806   4.874   3.347   3.622 -0.1837  0.0313 -0.4637
  789MOL0     C 8807   4.804   3.261   3.520  0.6102  0.7762  0.3350
  789MOL0     C 8808   4.903   3.183   3.447 -0.7790 -1.1570  0.0416
  789MOL0     C 8809   4.992   3.127   3.399 -0.4019  0.7811  0.3034
  789MOL0     C 8810   4.791   2.960   4.008 -0.3318 -0.2841  0.1518
  789MOL0     C 8811   4.769   2.840   4.073  0.2079 -0.9346  0.9111
  789MOL0     C 8812   4.633   2.806   4.109  1.5821 -1.0543 -0.0776
  789MOL0     H 8813   4.951   2.444   4.380  0.8638 -0.5505  0.9300
  789MOL0     H 8814   4.935   2.210   4.437  1.5141  0.9471 -2.9980
  789MOL0     H 8815   4.588   1.989   4.320 -0.6290 -0.0620  0.7836
  789MOL0     H 8816   4.673   1.858   4.406 -0.9346  1.5316  1.7506
  789MOL0     H 8817   4.765   1.785   4.190  0.1891  0.5345  3.9196
  789MOL0     H 8818   4.680   1.922   4.119 -2.4116 -2.3168  1.3895
  789MOL0     H 8819   4.912   1.915   4.074 -0.2127  0.2573 -0.0328
  789MOL0     H 8820   4.864   2.068   4.158 -1.8660  0.2551  1.5822
  789MOL0     H 8821   5.034   2.014   4.299  0.6380 -0.3329 -0.0158
  789MOL0     H 8822   4.962   1.870   4.359  1.4918  1.4437  1.1480
  789MOL0     H 8823   5.056   1.757   4.136 -1.1498  0.7703  0.9757
  789MOL0     H 8824   5.150   1.759   4.274  0.2571 -2.0840 -2.4621
  789MOL0     H 8825   5.184   1.991   4.075  0.7816  0.5037 -0.8538
  789MOL0     H 8826   5.273   1.966   4.229  2.8272  1.5814 -2.6656
  789MOL0     H 8827   5.413   1.881   4.054  1.6033 -1.9498  0.6209
  789MOL0     H 8828   5.290   1.787   3.973  0.5648 -1.7261  0.5507
  789MOL0     H 8829   5.279   1.640   4.158 -1.1163  1.4882 -0.5399
  789MOL0     H 8830   5.432   1.626   4.090 -0.2147 -1.0276 -0.0704
  789MOL0     H 8831   5.299   1.653   4.435  2.2996 -0.5711  3.3259
  789MOL0     H 8832   5.424   1.729   4.670 -1.0332 -3.7051  0.6491
  789MOL0     H 8833   5.596   1.784   4.647 -1.5545  3.5846 -2.6438
  789MOL0     H 8834   5.512   1.492   4.580 -0.9212  0.8106  1.5189
  789MOL0     H 8835   5.666   1.568   4.597 -0.7163  1.4763 -1.8388
  789MOL0     H 8836   5.621   1.414   4.768  2.5225  1.6575  2.6242
  789MOL0     H 8837   5.634   1.575   4.832  0.9479  0.2185 -0.7229
  789MOL0     H 8838   5.459   1.450   4.950 -0.2909  2.9559  1.8581
  789MOL0     H 8839   5.384   1.568   4.854  2.1444  1.5345  0.0758
  789MOL0     H 8840   5.156   1.553   4.787  5.0714  3.3907 -1.7569
  789MOL0     H 8841   4.907   1.641   4.605 -0.4440  4.0285  1.6162
  789MOL0     H 8842   5.038   1.738   4.546 -0.5078  0.4184 -0.0440
  789MOL0     H 8843   5.031   1.713   4.708 -0.6813  0.8706 -1.2389
  789MOL0     H 8844   4.803   1.503   4.151 -0.2182 -0.6376  2.2718
  789MOL0     H 8845   4.726   1.463   3.920  1.1183  1.5443 -3.3700
  789MOL0     H 8846   4.740   1.483   3.575 -4.1198  2.9310 -0.7593
  789MOL0     H 8847   4.693   1.504   3.748  4.7863  1.3126  5.8169
  789MOL0     H 8848   4.871   1.662   3.564 -0.8444 -3.9660 -0.5605
  789MOL0     H 8849   4.699   1.697   3.589  0.1247  1.2236 -0.3126
  789MOL0     H 8850   4.905   1.710   3.818  1.0791  0.9499 -2.1337
  789MOL0     H 8851   4.730   1.742   3.835  2.0587 -1.9204  0.6743
  789MOL0     H 8852   4.940   1.914   3.691  0.9875  2.7353  2.7060
  789MOL0     H 8853   4.885   1.938   3.848 -0.8780  1.2200  0.1469
  789MOL0     H 8854   4.763   2.081   3.674 -3.2431  0.9952  0.2749
  789MOL0     H 8855   4.669   1.929   3.634 -3.3858  0.2928  1.8124
  789MOL0     H 8856   4.702   2.088   3.888 -2.8487 -1.0170  1.7132
  789MOL0     H 8857   4.648   1.925   3.903 -0.9209  0.0239  1.4724
  789MOL0     H 8858   4.443   1.974   3.828 -1.0400  0.2551 -2.9548
  789MOL0     H 8859   4.509   2.079   3.699 -1.7607 -0.5117 -0.0625
  789MOL0     H 8860   4.515   2.196   3.987  0.7734 -0.5274  0.0949
  789MOL0     H 8861   4.372   2.201   3.883  0.4271  1.9510 -0.6423
  789MOL0     H 8862   5.132   1.411   3.791 -1.1239  0.9605 -1.3379
  789MOL0     H 8863   5.203   1.398   4.007 -1.1775 -0.7227  2.2381
  789MOL0     H 8864   5.225   1.311   4.362  1.4616  0.3654  0.1798
  789MOL0     H 8865   5.364   1.259   4.553 -0.4989 -0.7713  2.1951
  789MOL0     H 8866   4.560   2.177   4.238  0.9074 -2.1435 -0.3510
  789MOL0     H 8867   4.556   2.415   4.198 -1.5801 -2.4350 -0.6897
  789MOL0     H 8868   5.093   2.735   4.042  0.4742 -0.2638  0.9418
  789MOL0     H 8869   5.129   2.956   3.959 -0.1682  3.2458  2.4027
  789MOL0     H 8870   4.802   3.107   3.754 -0.0113  2.1319 -1.2052
  789MOL0     H 8871   4.776   3.240   3.860 -0.9222 -2.2107  2.1439
  789MOL0     H 8872   5.037   3.201   3.692  0.7037  1.1392  0.1521
  789MOL0     H 8873   4.992   3.343   3.790  0.5630  0.2064 -1.3026
  789MOL0     H 8874   4.805   3.396   3.690 -2.1622 -2.3205 -0.6657
  789MOL0     H 8875   4.936   3.431   3.588 -0.4746 -0.3648 -2.0696
  789MOL0     H 8876   4.745   3.323   3.452  0.3170  2.5640  2.1310
  789MOL0     H 8877   4.731   3.192   3.562  3.5408 -2.8237  0.0462
  789MOL0     H 8878   5.067   3.063   3.358  0.4304  0.8870  1.6084
  789MOL0     H 8879   4.704   3.025   4.004 -0.1299  0.1338  1.6390
  789MOL0     H 8880   4.605   2.706   4.075  1.8555 -0.3547 -2.5429
  789MOL0     H 8881   4.631   2.793   4.218 -0.5180 -1.1029 -0.0809
  789MOL0     H 8882   4.568   2.891   4.087  1.2596 -0.3553  3.0648
  790MOL0     O 8883   0.432   6.406   5.816  0.0809  0.1930  0.0683
  790MOL0     C 8884   0.411   6.380   5.931  0.0285 -0.2960  0.3059
  790MOL0     O 8885   0.417   6.254   5.993  0.1811  0.8312  0.7011
  790MOL0     C 8886   0.451   6.138   5.930 -0.0006  0.3839 -0.0045
  790MOL0     C 8887   0.545   6.130   5.829  0.1989 -0.6081  0.1986
  790MOL0     C 8888   0.588   6.005   5.792  0.0628  0.1006  0.3284
  790MOL0     C 8889   0.535   5.886   5.859 -0.1540 -0.2625  0.2144
  790MOL0     O 8890   0.584   5.762   5.823 -0.5563  0.1140 -0.0355
  790MOL0     C 8891   0.615   5.739   5.686  0.5310 -0.7087 -0.1471
  790MOL0     C 8892   0.544   5.615   5.642 -1.0108  0.1143  0.6351
  790MOL0     C 8893   0.611   5.498   5.718 -0.3987 -0.6038 -0.0345
  790MOL0     C 8894   0.605   5.360   5.656  0.7404 -0.1260  0.3195
  790MOL0     C 8895   0.625   5.252   5.759 -0.3635  0.5106  0.2466
  790MOL0     C 8896   0.772   5.237   5.798 -0.0959  0.3349  0.2510
  790MOL0     C 8897   0.797   5.129   5.905 -0.3739 -0.0556  0.2553
  790MOL0     C 8898   0.757   5.171   6.052 -0.0319 -0.1309  0.1212
  790MOL0     N 8899   0.790   5.308   6.079  0.4017  0.3687  0.4968
  790MOL0     C 8900   0.702   5.407   6.062 -0.1279  1.2517 -0.3130
  790MOL0     C 8901   0.748   5.510   6.135 -0.7388 -0.3153  0.7520
  790MOL0     C 8902   0.690   5.649   6.131 -0.1484  0.0667  0.1612
  790MOL0     C 8903   0.700   5.729   6.262 -0.7112  0.2062 -0.3242
  790MOL0     C 8904   0.840   5.791   6.287  0.0328 -0.8008 -0.2163
  790MOL0     C 8905   0.869   5.797   6.436 -0.5766  1.5840 -0.5615
  790MOL0     O 8906   1.013   5.798   6.457 -0.7898  0.0026 -0.6992
  790MOL0     C 8907   1.071   5.815   6.582 -0.8810  0.5830 -0.1823
  790MOL0     C 8908   1.209   5.801   6.601  0.2930  0.4678  0.5937
  790MOL0     C 8909   1.268   5.800   6.723 -0.0868 -0.3523 -0.3942
  790MOL0     C 8910   1.423   5.781   6.714  0.9364 -0.0341  0.4121
  790MOL0     C 8911   1.183   5.832   6.835 -0.0905  0.7010  1.0335
  790MOL0     C 8912   1.238   5.834   6.977  0.5955  0.2185  0.5106
  790MOL0     O 8913   1.149   5.865   7.075 -0.0012 -0.9326  0.0217
  790MOL0     C 8914   1.159   5.813   7.197  0.2063  0.2091  0.9023
  790MOL0     C 8915   1.247   5.715   7.229  1.6425 -0.1559 -0.0110
  790MOL0     C 8916   1.243   5.659   7.360 -0.0545  0.6862  0.6758
  790MOL0     C 8917   1.150   5.706   7.457  0.5047 -0.4290 -0.1815
  790MOL0     O 8918   1.133   5.658   7.579  0.4403  0.4133 -0.0453
  790MOL0     C 8919   1.245   5.585   7.645  0.0400  0.5705 -0.1146
  790MOL0     C 8920   1.188   5.544   7.782  0.9883 -0.8804 -0.7522
  790MOL0     C 8921   1.285   5.461   7.860  0.4090 -0.4007 -0.1916
  790MOL0     C 8922   1.404   5.542   7.906  0.5349  0.3201  0.6354
  790MOL0     C 8923   1.486   5.446   8.002  0.3044  0.0862 -1.3356
  790MOL0     C 8924   1.622   5.501   8.024 -0.0415 -0.1789  0.2648
  790MOL0     C 8925   1.718   5.502   7.894 -0.7865  0.1618  1.1462
  790MOL0     C 8926   1.851   5.556   7.927 -0.1513 -0.3472  0.3707
  790MOL0    Cl 8927   1.840   5.727   7.959  0.1824  0.4711  0.3591
  790MOL0     C 8928   1.055   5.801   7.417 -0.6599  0.6900 -0.6766
  790MOL0     C 8929   1.061   5.862   7.292 -0.5864  0.1261  0.2686
  790MOL0     O 8930   1.356   5.813   6.995 -0.2558 -0.1611 -0.1743
  790MOL0     C 8931   1.044   5.846   6.819 -0.6725 -1.1038 -0.6559
  790MOL0     C 8932   0.986   5.857   6.689  0.6967 -0.0753 -0.4620
  790MOL0     N 8933   0.872   5.472   6.191 -0.5657 -0.7971  0.8698
  790MOL0     N 8934   0.890   5.341   6.157 -0.1367 -0.6228 -0.0463
  790MOL0     C 8935   0.438   5.897   5.957 -0.2293 -0.6073  0.1610
  790MOL0     C 8936   0.410   6.025   6.004 -0.7817 -0.0874 -0.0906
  790MOL0     C 8937   0.368   6.486   6.021  0.0142  0.0850  0.1299
  790MOL0     C 8938   0.363   6.461   6.162  1.2583  0.0075  0.3232
  790MOL0     C 8939   0.323   6.559   6.247 -0.2414  0.6738  0.3745
  790MOL0     C 8940   0.297   6.687   6.205 -0.2528  0.6339  0.1916
  790MOL0     O 8941   0.262   6.795   6.280  0.1382 -0.3250  0.6419
  790MOL0     C 8942   0.242   6.787   6.421  0.4163  0.7064  1.2799
  790MOL0     C 8943   0.087   6.750   6.453 -0.6584 -0.8039 -0.5501
  790MOL0     C 8944  -0.000   6.868   6.420  0.0086 -1.3648 -0.7692
  790MOL0     C 8945  -0.139   6.837   6.479  0.3317  0.5119  0.5185
  790MOL0     C 8946  -0.210   6.970   6.492 -0.4390  0.4582 -0.7998
  790MOL0     C 8947  -0.336   7.112   6.518  0.0972  0.1768  0.5207
  790MOL0     C 8948   0.300   6.707   6.068 -0.2621  0.0658 -0.0382
  790MOL0     C 8949   0.333   6.617   5.970  0.8219  0.2974  0.4293
  790MOL0     C 8950   0.333   6.669   5.827  0.6237  1.3359 -0.0113
  790MOL0     H 8951   0.579   6.211   5.765  0.3552 -0.9000 -0.0910
  790MOL0     H 8952   0.675   5.992   5.728  1.7867  0.6438  2.4118
  790MOL0     H 8953   0.723   5.730   5.668  0.9367 -1.4623  2.2586
  790MOL0     H 8954   0.572   5.821   5.628 -2.7054 -1.3451  1.1528
  790MOL0     H 8955   0.437   5.607   5.666 -1.3958 -0.0761 -1.0129
  790MOL0     H 8956   0.552   5.608   5.533  2.9231  2.7663  0.5329
  790MOL0     H 8957   0.714   5.520   5.746 -0.2821 -3.1553  1.9417
  790MOL0     H 8958   0.548   5.489   5.807 -1.3976 -2.1332 -0.8536
  790MOL0     H 8959   0.503   5.350   5.619  0.7782 -0.2908  0.2615
  790MOL0     H 8960   0.669   5.354   5.567  2.6995  0.4120  1.6425
  790MOL0     H 8961   0.588   5.156   5.721 -2.7339  1.1863  0.6462
  790MOL0     H 8962   0.577   5.270   5.855  1.4020  0.3674  1.1997
  790MOL0     H 8963   0.824   5.218   5.704 -1.3893  1.4526 -0.7450
  790MOL0     H 8964   0.806   5.337   5.828 -0.2274  0.9028 -1.3906
  790MOL0     H 8965   0.906   5.126   5.915 -0.4979  1.0736  2.5134
  790MOL0     H 8966   0.763   5.027   5.885 -0.3380 -0.1390  0.6163
  790MOL0     H 8967   0.658   5.149   6.093 -0.2376 -2.0089 -1.2482
  790MOL0     H 8968   0.818   5.107   6.116 -0.4554  0.4155  1.1001
  790MOL0     H 8969   0.607   5.414   6.009  0.8656  0.7036 -2.2507
  790MOL0     H 8970   0.586   5.620   6.111  0.6956 -4.6490  1.4542
  790MOL0     H 8971   0.725   5.708   6.046 -3.1723 -0.2163 -1.4345
  790MOL0     H 8972   0.616   5.795   6.287 -0.4181  0.8298 -0.9432
  790MOL0     H 8973   0.685   5.655   6.340 -0.6302  1.5824  1.0550
  790MOL0     H 8974   0.918   5.739   6.230 -0.1732 -4.0592  2.1741
  790MOL0     H 8975   0.843   5.894   6.251  2.7247 -1.4290 -2.1347
  790MOL0     H 8976   0.814   5.883   6.474 -3.1958 -0.3535  0.2718
  790MOL0     H 8977   0.829   5.717   6.497 -0.0244  0.6330 -1.4138
  790MOL0     H 8978   1.274   5.776   6.517 -0.1420  1.3013 -0.0021
  790MOL0     H 8979   1.468   5.873   6.751  1.5033 -1.0423  2.3333
  790MOL0     H 8980   1.473   5.769   6.617  2.6713 -3.5475  1.5532
  790MOL0     H 8981   1.459   5.691   6.764  1.9255 -0.4032 -0.8933
  790MOL0     H 8982   1.328   5.675   7.169 -0.2174 -2.8303 -0.9549
  790MOL0     H 8983   1.321   5.589   7.386 -0.5916 -0.7942 -1.4368
  790MOL0     H 8984   1.277   5.493   7.597  2.1915  0.1642  1.9347
  790MOL0     H 8985   1.327   5.655   7.663  2.2757 -1.9052 -0.0983
  790MOL0     H 8986   1.167   5.624   7.853  3.7572 -0.3955 -0.3561
  790MOL0     H 8987   1.097   5.483   7.781  0.0206  0.0477  4.1204
  790MOL0     H 8988   1.323   5.389   7.787 -0.3462  0.6461 -1.6735
  790MOL0     H 8989   1.235   5.418   7.946 -1.9374 -0.7370 -1.6488
  790MOL0     H 8990   1.371   5.636   7.951 -0.4370  1.5889 -2.4169
  790MOL0     H 8991   1.459   5.571   7.815 -0.8649  1.2943  0.0600
  790MOL0     H 8992   1.433   5.430   8.096  3.1167 -1.3071  0.1422
  790MOL0     H 8993   1.495   5.344   7.963  0.9355 -1.4854  2.5249
  790MOL0     H 8994   1.676   5.434   8.092  2.7152 -2.2831 -3.5859
  790MOL0     H 8995   1.622   5.605   8.059  0.1294  0.5749 -1.8459
  790MOL0     H 8996   1.657   5.555   7.821 -1.0700 -0.1947  1.1211
  790MOL0     H 8997   1.723   5.394   7.876 -2.8619  0.4236 -1.4319
  790MOL0     H 8998   1.916   5.560   7.839  1.4233  1.5026  1.5457
  790MOL0     H 8999   1.908   5.507   8.006  1.4965  3.1387  1.5544
  790MOL0     H 9000   0.998   5.843   7.500  0.5365  1.0065  0.0106
  790MOL0     H 9001   0.983   5.927   7.256 -0.4816  0.0663 -0.0693
  790MOL0     H 9002   0.967   5.872   6.891 -0.3893 -0.5341 -0.5543
  790MOL0     H 9003   0.878   5.861   6.684  0.3818 -2.7605  1.5995
  790MOL0     H 9004   0.417   5.807   6.015  3.7862 -1.4537  0.6061
  790MOL0     H 9005   0.333   6.037   6.080 -1.1597  0.0973 -0.4984
  790MOL0     H 9006   0.403   6.369   6.203 -1.4766 -1.4383  0.0102
  790MOL0     H 9007   0.342   6.541   6.353 -0.7749  0.5267  0.4461
  790MOL0     H 9008   0.292   6.704   6.472 -1.7280 -0.0736  2.2486
  790MOL0     H 9009   0.284   6.869   6.478 -0.5592  1.1986  1.3054
  790MOL0     H 9010   0.065   6.724   6.557 -2.7397 -1.8412 -1.2074
  790MOL0     H 9011   0.068   6.674   6.377  0.6157  0.3646 -2.1401
  790MOL0     H 9012   0.038   6.952   6.478 -1.5021 -0.7311 -0.6439
  790MOL0     H 9013   0.002   6.900   6.315 -0.1282  1.1632 -0.0515
  790MOL0     H 9014  -0.129   6.787   6.576  4.5073  0.0934  0.0378
  790MOL0     H 9015  -0.191   6.764   6.417  2.6505 -0.8348  0.0453
  790MOL0     H 9016  -0.402   7.193   6.543 -0.6423 -1.1149  3.1744
  790MOL0     H 9017   0.270   6.805   6.033  0.6675  1.0382  1.7540
  790MOL0     H 9018   0.275   6.606   5.759  0.6884  2.6463 -1.3193
  790MOL0     H 9019   0.286   6.768   5.823  0.1021  1.0626 -1.0861
  790MOL0     H 9020   0.434   6.686   5.790 -0.3036  1.7013 -2.5481
  791MOL0     O 9021   6.512   6.387   9.227  0.0431 -0.0498 -0.4856
  791MOL0     C 9022   6.503   6.421   9.349 -0.7724  0.4855 -0.1873
  791MOL0     O 9023   6.436   6.357   9.444 -0.9920  0.3005 -0.1587
  791MOL0     C 9024   6.355   6.246   9.420 -0.8430 -0.0586 -0.0987
  791MOL0     C 9025   6.347   6.139   9.518  0.8214  0.2043  0.6475
  791MOL0     C 9026   6.267   6.019   9.495  0.9080  0.2928  1.0599
  791MOL0     C 9027   6.216   6.010   9.366 -0.1311  0.1002  0.8924
  791MOL0     O 9028   6.152   5.890   9.316 -0.6598  0.0490  0.5807
  791MOL0     C 9029   6.198   5.765   9.363  0.0935 -0.2166  0.1009
  791MOL0     C 9030   6.121   5.655   9.283 -0.8348  0.9206 -0.8196
  791MOL0     C 9031   5.976   5.651   9.322 -0.4433 -0.4417 -0.5614
  791MOL0     C 9032   5.890   5.569   9.228 -0.9302 -0.2441 -0.4886
  791MOL0     C 9033   5.748   5.617   9.227  0.8585  0.4993 -1.2046
  791MOL0     C 9034   5.654   5.507   9.191 -0.0601  0.0613  0.5039
  791MOL0     C 9035   5.518   5.566   9.140 -0.3401  0.4068  0.2948
  791MOL0     C 9036   5.432   5.472   9.062  0.3366 -0.1893  0.6450
  791MOL0     N 9037   5.292   5.520   9.064 -0.2133  0.0209 -0.5678
  791MOL0     C 9038   5.190   5.453   9.128  0.4716  0.3591  0.3076
  791MOL0     C 9039   5.082   5.529   9.097  0.9930  0.4156 -0.1785
  791MOL0     C 9040   4.935   5.491   9.134 -0.0165 -0.4041 -0.1821
  791MOL0     C 9041   4.910   5.369   9.045  0.7331 -0.3674 -0.2093
  791MOL0     C 9042   4.761   5.355   9.032 -0.8200  0.0379 -0.8092
  791MOL0     C 9043   4.741   5.230   8.953  0.4674  0.1157 -0.2750
  791MOL0     O 9044   4.753   5.118   9.032 -0.0001 -0.2968  0.1315
  791MOL0     C 9045   4.644   5.075   9.102 -0.7303  0.6300  0.1364
  791MOL0     C 9046   4.665   4.966   9.186 -0.3339 -0.1383 -0.0880
  791MOL0     C 9047   4.565   4.909   9.268  0.9444  0.0569 -0.0445
  791MOL0     C 9048   4.608   4.809   9.375 -0.0531  0.0551 -0.5220
  791MOL0     C 9049   4.433   4.969   9.270 -0.3398  0.0770 -0.3663
  791MOL0     C 9050   4.327   4.925   9.355 -0.4856 -0.1162 -0.6482
  791MOL0     O 9051   4.210   4.987   9.319 -0.3140  0.2379 -0.1500
  791MOL0     C 9052   4.100   4.939   9.383 -0.4545  0.2844  0.2844
  791MOL0     C 9053   4.065   4.979   9.517 -0.6748  1.1778  0.8498
  791MOL0     C 9054   3.944   4.934   9.569  0.4605  0.3643  0.5378
  791MOL0     C 9055   3.865   4.846   9.494  0.4274  0.8571  1.0759
  791MOL0     O 9056   3.756   4.783   9.562 -0.6722  0.8593 -0.4332
  791MOL0     C 9057   3.641   4.770   9.484 -0.2834 -0.1112 -0.5629
  791MOL0     C 9058   3.553   4.680   9.564  1.0796  0.0525  0.2055
  791MOL0     C 9059   3.406   4.666   9.500  0.1796  0.2889  0.6960
  791MOL0     C 9060   3.310   4.775   9.529  0.8068  0.4522 -0.3333
  791MOL0     C 9061   3.279   4.803   9.678 -0.3173 -0.0470 -0.3915
  791MOL0     C 9062   3.241   4.667   9.751  0.2250  0.1319 -0.8902
  791MOL0     C 9063   3.139   4.718   9.851 -0.7614  0.2093 -0.2404
  791MOL0     C 9064   3.095   4.598   9.938  1.1437 -0.1342 -0.3946
  791MOL0    Cl 9065   2.999   4.478   9.850 -0.0851 -0.2869  0.1795
  791MOL0     C 9066   3.901   4.805   9.366 -0.4649  0.0070 -0.7815
  791MOL0     C 9067   4.011   4.863   9.313  0.3108 -0.1016  1.2580
  791MOL0     O 9068   4.335   4.841   9.442 -0.0168 -0.0826 -0.3299
  791MOL0     C 9069   4.409   5.075   9.186  0.1298 -0.4206  1.0171
  791MOL0     C 9070   4.516   5.123   9.107  0.8262 -0.2037  0.6718
  791MOL0     N 9071   5.122   5.631   9.023 -0.1781  0.1779 -0.3993
  791MOL0     N 9072   5.243   5.638   9.014 -0.5738  0.2221  0.0363
  791MOL0     C 9073   6.207   6.108   9.270 -0.0558  0.4416 -0.3239
  791MOL0     C 9074   6.283   6.228   9.303  0.7455  0.4222 -0.5581
  791MOL0     C 9075   6.578   6.529   9.399 -0.0512  0.2241  0.1482
  791MOL0     C 9076   6.586   6.548   9.534  0.1900  0.3994 -0.2778
  791MOL0     C 9077   6.663   6.656   9.588 -0.1227  0.4214 -0.8574
  791MOL0     C 9078   6.720   6.755   9.504 -0.8875 -0.6410  0.2887
  791MOL0     O 9079   6.792   6.864   9.540  0.2167 -0.8278 -0.7048
  791MOL0     C 9080   6.772   6.918   9.674  0.3303  0.0967  0.2353
  791MOL0     C 9081   6.628   6.972   9.685 -0.1941 -0.9441  0.1967
  791MOL0     C 9082   6.600   7.075   9.566 -0.0135  0.6866 -0.3079
  791MOL0     C 9083   6.697   7.191   9.538  0.3884  0.0567  0.0293
  791MOL0     C 9084   6.686   7.278   9.654 -0.3605  0.6810  0.3303
  791MOL0     C 9085   6.683   7.342   9.755 -1.4395 -0.1274  1.0639
  791MOL0     C 9086   6.706   6.735   9.370  0.6357 -0.6494  0.2292
  791MOL0     C 9087   6.634   6.632   9.315  0.3952  0.9860 -0.3275
  791MOL0     C 9088   6.647   6.613   9.166  0.6402 -0.0737 -0.5097
  791MOL0     H 9089   6.383   6.150   9.620  0.4243  1.4473  0.6723
  791MOL0     H 9090   6.236   5.948   9.571  0.4488  0.1292  0.7179
  791MOL0     H 9091   6.167   5.755   9.467  1.3885 -1.6948  0.3827
  791MOL0     H 9092   6.307   5.757   9.350 -0.0970 -3.8965 -0.1547
  791MOL0     H 9093   6.131   5.681   9.178 -1.7452  1.3511 -0.8084
  791MOL0     H 9094   6.171   5.560   9.303  1.0160  1.5508 -2.1810
  791MOL0     H 9095   5.975   5.597   9.417 -2.0412 -1.0126 -0.8782
  791MOL0     H 9096   5.923   5.745   9.337  0.2778  0.0221 -0.8696
  791MOL0     H 9097   5.927   5.584   9.126 -2.6726  0.3625 -1.0643
  791MOL0     H 9098   5.893   5.465   9.263  1.5489  0.4661  1.7358
  791MOL0     H 9099   5.726   5.710   9.174 -3.3667 -0.8779 -2.2911
  791MOL0     H 9100   5.730   5.632   9.334  2.1055 -3.0905 -0.3571
  791MOL0     H 9101   5.693   5.438   9.116  0.9307  1.3632 -0.2299
  791MOL0     H 9102   5.634   5.448   9.280  1.2719 -0.0848  0.7193
  791MOL0     H 9103   5.552   5.646   9.074  2.0192 -0.6803  0.0786
  791MOL0     H 9104   5.452   5.597   9.221  2.3933 -2.0668  3.7599
  791MOL0     H 9105   5.476   5.467   8.962  3.7400  0.6449  1.9665
  791MOL0     H 9106   5.440   5.373   9.107 -0.1315 -0.4299  0.2088
  791MOL0     H 9107   5.193   5.375   9.203 -3.3059  0.6537  0.9632
  791MOL0     H 9108   4.870   5.579   9.137  1.4105  0.7561  4.3621
  791MOL0     H 9109   4.928   5.454   9.237  0.9373  2.0670  0.8286
  791MOL0     H 9110   4.967   5.374   8.952  0.1822  2.1890 -0.4680
  791MOL0     H 9111   4.954   5.286   9.102  2.1424  0.9664  0.7205
  791MOL0     H 9112   4.705   5.338   9.125 -0.8676 -2.5171 -1.2358
  791MOL0     H 9113   4.710   5.437   8.982 -0.6826 -0.0055 -1.0205
  791MOL0     H 9114   4.650   5.226   8.893  1.4696 -3.2362 -1.8311
  791MOL0     H 9115   4.814   5.226   8.871 -1.1456 -2.5486 -1.7332
  791MOL0     H 9116   4.765   4.923   9.191 -1.0784 -1.8473  4.1881
  791MOL0     H 9117   4.636   4.865   9.465  2.9690  1.0944 -1.9847
  791MOL0     H 9118   4.694   4.752   9.341 -0.1956 -0.9113  0.6605
  791MOL0     H 9119   4.539   4.726   9.392  0.8927 -0.3001  2.0981
  791MOL0     H 9120   4.135   5.035   9.578 -0.1327  2.4996 -0.8916
  791MOL0     H 9121   3.913   4.961   9.669  0.5354  2.0602  0.1297
  791MOL0     H 9122   3.591   4.867   9.477 -0.3412 -0.2666 -4.7235
  791MOL0     H 9123   3.656   4.727   9.384  3.7424 -0.8437  0.1727
  791MOL0     H 9124   3.593   4.579   9.567 -0.8517 -0.7357  1.0799
  791MOL0     H 9125   3.552   4.714   9.668  0.2847  0.4787  0.0681
  791MOL0     H 9126   3.365   4.569   9.529  0.6254 -0.2515 -0.4214
  791MOL0     H 9127   3.422   4.657   9.392 -1.4135 -1.0086  0.5188
  791MOL0     H 9128   3.214   4.759   9.478  0.6795  0.4245 -0.0869
  791MOL0     H 9129   3.348   4.868   9.485  2.6027  0.4065  1.0290
  791MOL0     H 9130   3.371   4.840   9.724 -0.0021 -2.0645  0.7149
  791MOL0     H 9131   3.202   4.880   9.692 -1.3768 -1.5902  3.6892
  791MOL0     H 9132   3.327   4.616   9.793 -1.6981 -1.3942  1.4541
  791MOL0     H 9133   3.196   4.609   9.671  0.3666  0.4813 -1.2265
  791MOL0     H 9134   3.058   4.753   9.786 -2.3308 -0.3360  1.3341
  791MOL0     H 9135   3.173   4.794   9.923  0.3823 -1.0802  0.6326
  791MOL0     H 9136   3.023   4.628  10.015 -0.5952  0.5279 -2.1934
  791MOL0     H 9137   3.170   4.543   9.996  2.2473 -0.2021 -1.8534
  791MOL0     H 9138   3.856   4.725   9.307 -0.5444 -1.0497  0.6553
  791MOL0     H 9139   4.028   4.845   9.207 -0.5859  1.1454  0.8859
  791MOL0     H 9140   4.317   5.133   9.185  1.5941  2.0456  0.7792
  791MOL0     H 9141   4.505   5.212   9.046  0.9786 -1.3079 -1.0512
  791MOL0     H 9142   6.160   6.085   9.175 -3.0711 -0.7772  1.3042
  791MOL0     H 9143   6.281   6.305   9.226 -3.0376  3.6058  2.2991
  791MOL0     H 9144   6.551   6.471   9.602  0.0852  0.6555 -0.0387
  791MOL0     H 9145   6.663   6.681   9.693  2.2309  0.6323 -0.8538
  791MOL0     H 9146   6.799   6.855   9.759 -0.3491  1.0807  1.2108
  791MOL0     H 9147   6.844   6.996   9.700 -0.9105  1.4632 -0.2823
  791MOL0     H 9148   6.615   7.025   9.780  2.1439 -1.7257  1.0247
  791MOL0     H 9149   6.548   6.897   9.686 -2.5348  1.3413 -1.4640
  791MOL0     H 9150   6.591   7.010   9.479 -1.1105 -0.6320  0.7467
  791MOL0     H 9151   6.493   7.092   9.581 -0.2275 -2.0085  2.1902
  791MOL0     H 9152   6.675   7.236   9.441  1.3352 -3.4217 -1.9938
  791MOL0     H 9153   6.798   7.155   9.518  0.8954  1.4918 -0.0837
  791MOL0     H 9154   6.682   7.409   9.839 -0.5328  0.2095  0.8161
  791MOL0     H 9155   6.749   6.797   9.293 -1.6820  1.1547  0.2637
  791MOL0     H 9156   6.702   6.524   9.135  5.5127  2.9369 -1.7112
  791MOL0     H 9157   6.551   6.620   9.116  0.3806 -1.5291 -0.2694
  791MOL0     H 9158   6.704   6.695   9.121  2.7266 -2.4241 -2.4823
  792MOL0     O 9159   3.345   6.184   8.198 -0.5421 -0.0404  0.5077
  792MOL0     C 9160   3.443   6.165   8.265  0.2935  0.3369 -0.6192
  792MOL0     O 9161   3.550   6.096   8.225  0.1832 -0.2054  0.3392
  792MOL0     C 9162   3.535   6.015   8.117 -0.7419  0.5278 -0.1474
  792MOL0     C 9163   3.506   6.069   7.991 -0.2311  0.2475 -0.4901
  792MOL0     C 9164   3.487   5.981   7.880 -0.3700 -0.4957 -0.0437
  792MOL0     C 9165   3.490   5.838   7.879  0.1707 -0.3504 -0.2465
  792MOL0     O 9166   3.483   5.753   7.771 -0.2316  0.4611  0.2414
  792MOL0     C 9167   3.529   5.617   7.787 -0.4152  0.5251  0.6763
  792MOL0     C 9168   3.417   5.507   7.826  0.1152 -0.4002 -0.0674
  792MOL0     C 9169   3.285   5.515   7.741  0.2905  0.3932  0.3694
  792MOL0     C 9170   3.202   5.379   7.722  0.1947  0.1954 -0.1039
  792MOL0     C 9171   3.087   5.401   7.617 -0.2643 -0.0949 -0.7079
  792MOL0     C 9172   2.988   5.518   7.653  0.8047 -0.9435  0.2047
  792MOL0     C 9173   2.875   5.533   7.559 -0.7400 -0.0942  0.1371
  792MOL0     C 9174   2.763   5.627   7.604 -0.6968 -0.1853 -0.4726
  792MOL0     N 9175   2.645   5.585   7.545  0.4990  0.0093 -0.9751
  792MOL0     C 9176   2.617   5.551   7.414 -0.6736  0.0571  0.0455
  792MOL0     C 9177   2.482   5.522   7.427 -1.4161  0.0802 -0.2684
  792MOL0     C 9178   2.400   5.466   7.317 -0.3356  0.4636  0.5459
  792MOL0     C 9179   2.338   5.571   7.220 -0.1222 -0.5826  0.5680
  792MOL0     C 9180   2.258   5.677   7.293  0.3691 -0.6972 -0.3594
  792MOL0     C 9181   2.140   5.614   7.364 -0.1505 -0.5653 -0.3503
  792MOL0     O 9182   2.051   5.717   7.399  0.8897  0.5041 -0.1868
  792MOL0     C 9183   2.067   5.797   7.501 -0.1452 -0.7316  0.5184
  792MOL0     C 9184   2.008   5.924   7.495 -0.1919  0.8678 -0.2277
  792MOL0     C 9185   2.032   6.021   7.594  0.6208  0.2978  0.2036
  792MOL0     C 9186   1.973   6.152   7.562  0.4752 -0.4899  0.3549
  792MOL0     C 9187   2.109   5.985   7.705 -0.5277 -0.7846 -0.0059
  792MOL0     C 9188   2.139   6.074   7.820  0.0262 -0.2721 -0.1011
  792MOL0     O 9189   2.079   6.192   7.834  0.1221  0.2415 -0.1129
  792MOL0     C 9190   2.126   6.278   7.931  0.1958  0.2642  0.9543
  792MOL0     C 9191   2.099   6.257   8.069  0.0285  0.0577  0.1952
  792MOL0     C 9192   2.128   6.359   8.162  0.0619  0.2963 -0.5615
  792MOL0     C 9193   2.190   6.474   8.123 -0.4304 -0.1626 -0.0422
  792MOL0     O 9194   2.237   6.582   8.199 -0.1142 -0.4209  0.5984
  792MOL0     C 9195   2.265   6.544   8.331 -0.1833 -0.8834 -0.3308
  792MOL0     C 9196   2.323   6.659   8.405  0.0167 -0.9273 -0.1273
  792MOL0     C 9197   2.234   6.780   8.441  0.5970 -1.1471  0.4130
  792MOL0     C 9198   2.325   6.889   8.505  0.0452  0.1682 -0.1783
  792MOL0     C 9199   2.242   7.007   8.528  0.3667  0.0561 -0.7027
  792MOL0     C 9200   2.331   7.123   8.562 -0.2760 -0.5049 -0.3688
  792MOL0     C 9201   2.266   7.263   8.563  0.0323 -0.6213 -0.8359
  792MOL0     C 9202   2.186   7.295   8.438  0.2187  0.3597  0.0859
  792MOL0    Cl 9203   2.132   7.460   8.469 -0.3919  0.0945 -0.1631
  792MOL0     C 9204   2.211   6.494   7.987 -0.6642  1.2254  0.4517
  792MOL0     C 9205   2.172   6.403   7.896 -0.2298 -0.4837  0.0496
  792MOL0     O 9206   2.189   6.014   7.914  0.1683 -0.2201 -0.4178
  792MOL0     C 9207   2.167   5.854   7.708 -0.6582 -0.4804 -0.7482
  792MOL0     C 9208   2.154   5.766   7.604 -0.6405 -1.0384 -0.2645
  792MOL0     N 9209   2.440   5.529   7.556  0.1228  0.5597  0.4102
  792MOL0     N 9210   2.532   5.574   7.629  0.5703 -0.0557  0.2194
  792MOL0     C 9211   3.500   5.790   8.019  0.6808 -0.1149  0.0604
  792MOL0     C 9212   3.528   5.872   8.132 -0.3776  0.5399 -0.3630
  792MOL0     C 9213   3.456   6.228   8.402  1.1041  1.2531  0.0173
  792MOL0     C 9214   3.567   6.193   8.481  0.1594  0.4096  0.3754
  792MOL0     C 9215   3.575   6.226   8.616  0.4901 -0.3451 -0.6654
  792MOL0     C 9216   3.479   6.294   8.682 -0.0177 -0.7805 -0.3061
  792MOL0     O 9217   3.494   6.307   8.823  0.4549 -0.2475 -0.0637
  792MOL0     C 9218   3.495   6.188   8.902 -0.2424 -0.1017 -0.2435
  792MOL0     C 9219   3.347   6.135   8.916  0.4240 -0.3400  0.2171
  792MOL0     C 9220   3.300   6.116   9.064  0.5291 -0.1395 -0.2901
  792MOL0     C 9221   3.163   6.041   9.080 -1.8314 -0.3323  0.4411
  792MOL0     C 9222   3.189   5.907   9.046  0.1386  1.1964  0.1641
  792MOL0     C 9223   3.216   5.803   8.982 -0.3989  0.0739 -0.2857
  792MOL0     C 9224   3.380   6.335   8.601  0.5288  0.2264 -0.4965
  792MOL0     C 9225   3.361   6.311   8.464 -0.2089 -0.4627  0.9000
  792MOL0     C 9226   3.256   6.387   8.380 -0.3268 -0.1465  0.1885
  792MOL0     H 9227   3.515   6.177   7.984 -0.1786  0.2930  0.1492
  792MOL0     H 9228   3.474   6.034   7.786  0.2332  0.0560  0.1786
  792MOL0     H 9229   3.611   5.608   7.858  1.3979 -3.0783 -1.5779
  792MOL0     H 9230   3.553   5.590   7.684  1.1640  3.5128  0.1357
  792MOL0     H 9231   3.451   5.405   7.806  0.1135  0.1468 -3.2079
  792MOL0     H 9232   3.395   5.521   7.933  0.6120 -2.1856  0.3155
  792MOL0     H 9233   3.213   5.585   7.785 -1.2473 -1.2592  0.5591
  792MOL0     H 9234   3.323   5.547   7.643  0.1917  0.0337  0.2139
  792MOL0     H 9235   3.273   5.312   7.672 -0.0621 -0.5911  0.5687
  792MOL0     H 9236   3.170   5.334   7.816  1.2073 -1.5495 -0.5604
  792MOL0     H 9237   3.031   5.308   7.606  2.5422 -1.9752 -0.1504
  792MOL0     H 9238   3.145   5.421   7.526  0.1353 -1.0310 -0.6725
  792MOL0     H 9239   2.955   5.477   7.749  2.2937 -5.1983 -0.8781
  792MOL0     H 9240   3.033   5.617   7.660 -0.9912 -0.0514 -0.2470
  792MOL0     H 9241   2.825   5.436   7.563  2.7239 -2.1631  5.5897
  792MOL0     H 9242   2.911   5.554   7.458 -0.1488  0.2037  0.4023
  792MOL0     H 9243   2.769   5.644   7.711  3.1438 -1.2970 -0.3550
  792MOL0     H 9244   2.779   5.728   7.566 -0.3488 -0.7292 -1.8467
  792MOL0     H 9245   2.673   5.566   7.322 -2.1046  3.8391 -0.3708
  792MOL0     H 9246   2.311   5.423   7.364 -2.2070 -0.8846 -3.7533
  792MOL0     H 9247   2.451   5.382   7.271  0.4527 -0.0196  2.2430
  792MOL0     H 9248   2.423   5.628   7.181  0.1039 -1.3210 -0.0594
  792MOL0     H 9249   2.277   5.518   7.147  0.3801  1.3078 -1.3140
  792MOL0     H 9250   2.318   5.746   7.353  0.6059  0.3973 -1.8205
  792MOL0     H 9251   2.217   5.745   7.218  1.4628 -0.3934 -0.6887
  792MOL0     H 9252   2.079   5.540   7.310 -6.3960  0.7029  3.9317
  792MOL0     H 9253   2.165   5.549   7.449  2.9403 -2.6533 -2.6220
  792MOL0     H 9254   1.946   5.949   7.409 -0.6747 -1.5594 -0.6467
  792MOL0     H 9255   2.048   6.229   7.541  0.4711  0.1213  2.3923
  792MOL0     H 9256   1.907   6.193   7.638  1.1363  1.4499 -0.0670
  792MOL0     H 9257   1.921   6.151   7.465  0.2690 -1.0217  0.4647
  792MOL0     H 9258   2.061   6.157   8.084  0.7672 -0.3060 -0.2833
  792MOL0     H 9259   2.109   6.353   8.269  0.9979  2.2521 -0.2489
  792MOL0     H 9260   2.173   6.514   8.381  0.8799 -5.1495 -0.5073
  792MOL0     H 9261   2.325   6.452   8.327  1.4454  0.1685 -1.4510
  792MOL0     H 9262   2.370   6.612   8.493  1.5862 -3.1103 -1.9941
  792MOL0     H 9263   2.408   6.703   8.352 -0.4014 -0.7397 -0.6570
  792MOL0     H 9264   2.151   6.754   8.507 -0.4522  2.2995  0.6116
  792MOL0     H 9265   2.182   6.809   8.350  0.7610  2.6050  1.3385
  792MOL0     H 9266   2.410   6.919   8.443 -0.5088 -0.3134 -1.2031
  792MOL0     H 9267   2.350   6.857   8.607  1.0490 -0.0915 -0.4917
  792MOL0     H 9268   2.176   7.032   8.444  0.5292 -0.3999 -0.9725
  792MOL0     H 9269   2.170   6.998   8.609  1.9875  0.8071  0.9041
  792MOL0     H 9270   2.416   7.124   8.493 -0.2200 -1.3636 -0.3268
  792MOL0     H 9271   2.375   7.112   8.661 -1.7807 -1.1287  0.2531
  792MOL0     H 9272   2.342   7.342   8.574 -1.8396  0.9722  1.7449
  792MOL0     H 9273   2.214   7.282   8.657 -0.1438  4.1469 -1.6400
  792MOL0     H 9274   2.095   7.237   8.423 -2.1158  3.3681  1.5480
  792MOL0     H 9275   2.240   7.287   8.343  1.3733  3.8182  0.3090
  792MOL0     H 9276   2.253   6.579   7.934  0.2859 -1.3775 -3.3731
  792MOL0     H 9277   2.173   6.423   7.789 -1.2327 -1.0714 -0.0845
  792MOL0     H 9278   2.233   5.824   7.789  2.6405  0.0379 -3.0594
  792MOL0     H 9279   2.219   5.679   7.595 -1.5425 -1.7862  0.2176
  792MOL0     H 9280   3.512   5.687   8.053  2.3394 -0.1595 -0.5469
  792MOL0     H 9281   3.560   5.833   8.228  4.1149 -0.8095 -2.1602
  792MOL0     H 9282   3.644   6.137   8.428 -1.3887  0.3142 -1.8697
  792MOL0     H 9283   3.657   6.180   8.671 -0.8556 -3.5075 -1.1007
  792MOL0     H 9284   3.557   6.114   8.851  1.1122  0.7520  0.1304
  792MOL0     H 9285   3.526   6.205   9.006 -0.1356 -2.3912  0.1645
  792MOL0     H 9286   3.346   6.039   8.863 -0.1725 -0.9893  1.3491
  792MOL0     H 9287   3.277   6.206   8.872 -0.7228 -0.7370  1.3127
  792MOL0     H 9288   3.376   6.062   9.122  0.4610  0.0135 -0.0628
  792MOL0     H 9289   3.290   6.220   9.095 -0.4665 -0.9601  2.3856
  792MOL0     H 9290   3.072   6.068   9.026 -1.1776  0.3460 -0.3332
  792MOL0     H 9291   3.139   6.043   9.187 -0.5996 -0.4207  0.7344
  792MOL0     H 9292   3.223   5.704   8.941 -1.9897  0.0153 -0.4784
  792MOL0     H 9293   3.300   6.400   8.635 -0.1681 -1.1516  0.6502
  792MOL0     H 9294   3.296   6.415   8.282 -3.8094  2.8689 -0.5906
  792MOL0     H 9295   3.164   6.329   8.365 -0.6332  0.2588  0.4879
  792MOL0     H 9296   3.218   6.476   8.430  1.4019  0.6127  0.2418
  793MOL0     O 9297   1.037   6.761   7.093  0.1513 -0.1076  0.5320
  793MOL0     C 9298   1.048   6.865   7.034 -0.7473 -0.3736 -0.0419
  793MOL0     O 9299   1.087   6.983   7.091  1.2478  0.2371  0.8493
  793MOL0     C 9300   1.046   7.097   7.026 -0.6050  1.0913 -0.2188
  793MOL0     C 9301   1.140   7.173   6.967  0.9344 -0.2154 -0.0693
  793MOL0     C 9302   1.115   7.305   6.919  0.2340 -0.8863  0.2605
  793MOL0     C 9303   0.984   7.358   6.920 -0.2404 -1.1329  0.1942
  793MOL0     O 9304   0.957   7.483   6.862 -0.1302  0.4254  0.3342
  793MOL0     C 9305   0.900   7.574   6.957  0.2081 -0.6452  0.0474
  793MOL0     C 9306   0.933   7.712   6.912 -0.3313 -0.5993  0.5872
  793MOL0     C 9307   0.801   7.786   6.875  0.7581 -1.0179  1.2329
  793MOL0     C 9308   0.789   7.843   6.735  0.5699 -0.3449  0.2704
  793MOL0     C 9309   0.643   7.864   6.695 -1.0813  0.2325 -0.5188
  793MOL0     C 9310   0.552   7.955   6.782  0.5208  0.8939 -0.2280
  793MOL0     C 9311   0.611   8.085   6.839 -0.2634  0.0378  0.5639
  793MOL0     C 9312   0.504   8.185   6.890  1.2467 -1.0233  0.2950
  793MOL0     N 9313   0.425   8.130   7.006  0.3240  0.6127  0.6325
  793MOL0     C 9314   0.313   8.199   7.050 -0.4285  0.3823 -0.6019
  793MOL0     C 9315   0.258   8.126   7.157  0.2275 -0.2738  0.6483
  793MOL0     C 9316   0.151   8.167   7.253 -0.2935  0.7657 -0.0047
  793MOL0     C 9317   0.003   8.151   7.194 -0.4564  0.1466 -0.0784
  793MOL0     C 9318  -0.034   7.997   7.144  0.2276 -0.2886 -0.9026
  793MOL0     C 9319  -0.091   7.990   7.006  0.5977  0.7261 -0.2222
  793MOL0     O 9320  -0.129   7.856   6.962 -0.0088 -0.6354  0.4283
  793MOL0     C 9321  -0.028   7.762   6.946  0.9481  0.3493 -0.7024
  793MOL0     C 9322  -0.061   7.632   6.981  0.5378 -0.2021 -0.1663
  793MOL0     C 9323   0.031   7.531   6.983 -0.9840 -0.7077  0.1653
  793MOL0     C 9324  -0.018   7.390   7.012 -0.6331 -0.4389 -0.3887
  793MOL0     C 9325   0.167   7.569   6.954 -0.4758  0.3385 -1.2078
  793MOL0     C 9326   0.284   7.470   6.947  0.5736 -1.3548  0.2286
  793MOL0     O 9327   0.308   7.394   7.057  0.8513  0.2803 -1.0537
  793MOL0     C 9328   0.379   7.283   7.045 -0.1890 -0.4796  0.3807
  793MOL0     C 9329   0.362   7.201   6.930 -0.1551  0.0750 -0.8019
  793MOL0     C 9330   0.445   7.086   6.929 -0.2459 -0.0789 -0.3682
  793MOL0     C 9331   0.542   7.062   7.028  0.7625 -0.7864 -0.7078
  793MOL0     O 9332   0.634   6.958   7.014 -1.2144 -0.6112 -0.1807
  793MOL0     C 9333   0.584   6.829   7.050  0.9906 -0.1742  0.1049
  793MOL0     C 9334   0.672   6.713   7.003  0.2380  0.0326  0.4319
  793MOL0     C 9335   0.634   6.576   7.067 -0.3543 -0.3944 -0.3429
  793MOL0     C 9336   0.714   6.464   7.004 -0.3398  0.3880 -0.3327
  793MOL0     C 9337   0.684   6.321   7.054 -0.4800  0.8267  0.2012
  793MOL0     C 9338   0.747   6.288   7.198 -0.5532  0.0719 -0.2774
  793MOL0     C 9339   0.711   6.155   7.245 -0.6602  0.3876 -0.3027
  793MOL0     C 9340   0.581   6.147   7.328  0.0572 -0.7260  0.4978
  793MOL0    Cl 9341   0.536   5.975   7.342  0.0346  0.1250  0.0002
  793MOL0     C 9342   0.558   7.142   7.144 -0.6823  0.4438  1.1213
  793MOL0     C 9343   0.476   7.253   7.136  0.0706 -0.4352  0.0755
  793MOL0     O 9344   0.352   7.477   6.843  0.6814 -0.2411 -0.2053
  793MOL0     C 9345   0.203   7.701   6.923  0.1444 -0.2263  0.7735
  793MOL0     C 9346   0.100   7.795   6.904  0.3420  1.3915  0.0218
  793MOL0     N 9347   0.340   8.014   7.170 -1.3844 -0.1334 -0.6578
  793MOL0     N 9348   0.430   8.010   7.080 -0.8150 -0.3472 -0.5416
  793MOL0     C 9349   0.887   7.288   6.993 -0.1605  0.3362  0.0915
  793MOL0     C 9350   0.925   7.162   7.046  0.7821 -0.3960  0.5562
  793MOL0     C 9351   1.034   6.842   6.887 -0.7982  0.1114  0.0756
  793MOL0     C 9352   0.927   6.907   6.821  0.0472  0.0172 -0.5413
  793MOL0     C 9353   0.912   6.899   6.684 -0.6848  0.3873 -0.1774
  793MOL0     C 9354   1.003   6.824   6.604 -0.0321  0.1808  0.2496
  793MOL0     O 9355   1.010   6.821   6.463 -0.0458  0.0656  0.1813
  793MOL0     C 9356   0.900   6.891   6.389  0.3762 -0.1277 -0.0745
  793MOL0     C 9357   0.785   6.791   6.378 -0.1243 -1.1915  0.1651
  793MOL0     C 9358   0.824   6.672   6.304  0.4735  0.3143  0.5627
  793MOL0     C 9359   0.715   6.568   6.285 -0.3751  0.5269  0.1291
  793MOL0     C 9360   0.725   6.540   6.145  0.2378  0.1216  0.1684
  793MOL0     C 9361   0.735   6.523   6.026  0.3187  0.0364  0.1564
  793MOL0     C 9362   1.104   6.754   6.672  0.4290 -0.0227  0.8812
  793MOL0     C 9363   1.124   6.765   6.813 -1.1483  0.0905 -0.3250
  793MOL0     C 9364   1.244   6.692   6.872  0.4546 -0.5564 -0.0031
  793MOL0     H 9365   1.243   7.139   6.967  2.5222  3.9895  0.2434
  793MOL0     H 9366   1.197   7.373   6.898 -0.3887 -0.0603  0.4405
  793MOL0     H 9367   0.937   7.547   7.056  2.4566  2.5039  0.1983
  793MOL0     H 9368   0.793   7.550   6.949  0.6213 -2.7032  0.0062
  793MOL0     H 9369   0.980   7.759   6.999  1.0169  1.3350 -1.0869
  793MOL0     H 9370   1.006   7.722   6.831 -3.7813  2.3264 -2.4825
  793MOL0     H 9371   0.709   7.734   6.903 -0.3661  0.9494  1.3547
  793MOL0     H 9372   0.802   7.873   6.941  0.3225  0.4424 -0.5775
  793MOL0     H 9373   0.826   7.945   6.739  3.1762 -1.1361 -1.4006
  793MOL0     H 9374   0.845   7.781   6.664  0.7197  0.3766 -0.2472
  793MOL0     H 9375   0.592   7.768   6.701  0.8249 -0.9002 -1.3246
  793MOL0     H 9376   0.627   7.906   6.595 -4.8429 -1.5509 -0.8502
  793MOL0     H 9377   0.466   7.981   6.720  0.5322  0.6271 -0.3566
  793MOL0     H 9378   0.532   7.890   6.867  2.3425  1.9698  1.1104
  793MOL0     H 9379   0.666   8.143   6.765  0.6453 -0.6696  0.6650
  793MOL0     H 9380   0.677   8.068   6.925  3.7552  3.2620 -1.5414
  793MOL0     H 9381   0.550   8.280   6.916 -0.5731 -0.1557  0.4636
  793MOL0     H 9382   0.435   8.199   6.807 -0.8928  1.1722  2.3093
  793MOL0     H 9383   0.291   8.303   7.028 -1.9129  0.2883  0.2534
  793MOL0     H 9384   0.175   8.269   7.283  1.8519  0.1756  0.4385
  793MOL0     H 9385   0.167   8.115   7.348  0.0067 -0.9592 -0.9493
  793MOL0     H 9386  -0.068   8.193   7.266 -0.1969  1.4131 -0.5375
  793MOL0     H 9387  -0.000   8.207   7.101  0.8771  1.1812  0.4652
  793MOL0     H 9388   0.057   7.938   7.158  1.7757  2.1868  0.0936
  793MOL0     H 9389  -0.113   7.960   7.210  2.6306 -3.1424  0.6335
  793MOL0     H 9390  -0.180   8.052   6.997 -1.6842 -2.1147  1.0534
  793MOL0     H 9391  -0.021   8.019   6.926  0.9519 -1.5781 -0.8345
  793MOL0     H 9392  -0.165   7.616   7.006  0.4036  2.7169  1.7560
  793MOL0     H 9393   0.036   7.354   7.100  0.5567 -2.3053 -1.7973
  793MOL0     H 9394  -0.000   7.321   6.929  0.2021  0.2977 -0.8391
  793MOL0     H 9395  -0.125   7.392   7.036 -0.0424 -2.7032  3.3707
  793MOL0     H 9396   0.277   7.219   6.865  0.6319 -0.4505 -2.0367
  793MOL0     H 9397   0.448   7.016   6.845 -1.7943  1.8985 -2.1918
  793MOL0     H 9398   0.593   6.829   7.159  0.7523  3.0310  0.2114
  793MOL0     H 9399   0.482   6.821   7.010  0.5995  0.6051  0.9115
  793MOL0     H 9400   0.665   6.697   6.895  3.7179  2.8602 -0.3985
  793MOL0     H 9401   0.776   6.740   7.022  1.1763 -1.5749 -1.9269
  793MOL0     H 9402   0.527   6.559   7.052 -0.6753  0.2947  1.0538
  793MOL0     H 9403   0.653   6.571   7.174 -3.8385 -5.1695  0.3990
  793MOL0     H 9404   0.818   6.482   7.032 -0.5338 -1.8629  2.2265
  793MOL0     H 9405   0.710   6.471   6.895  0.4065  0.7888 -0.3407
  793MOL0     H 9406   0.575   6.311   7.049 -0.6291  2.6070 -1.6420
  793MOL0     H 9407   0.726   6.245   6.988  0.0582  1.7730 -0.5885
  793MOL0     H 9408   0.719   6.371   7.263 -1.3549 -0.2692 -0.1748
  793MOL0     H 9409   0.855   6.298   7.186 -0.9494  2.8494 -2.6921
  793MOL0     H 9410   0.792   6.114   7.305 -0.9878 -2.3099 -1.5427
  793MOL0     H 9411   0.713   6.088   7.158 -3.6328 -2.3498  1.5382
  793MOL0     H 9412   0.496   6.198   7.281  1.4832  0.2224 -1.1293
  793MOL0     H 9413   0.599   6.177   7.432 -0.1418  1.2696 -0.0068
  793MOL0     H 9414   0.625   7.110   7.223 -1.0451  1.5845  1.9232
  793MOL0     H 9415   0.506   7.325   7.211  1.2060 -1.0985  0.2926
  793MOL0     H 9416   0.306   7.719   6.897 -0.2062 -0.2809 -0.7089
  793MOL0     H 9417   0.136   7.889   6.864  2.2501 -0.3095 -2.6334
  793MOL0     H 9418   0.781   7.313   6.994 -1.2538 -3.5685 -1.0183
  793MOL0     H 9419   0.851   7.105   7.101 -1.1007  2.6982  1.4872
  793MOL0     H 9420   0.874   6.968   6.893  1.1115  2.0487 -1.3798
  793MOL0     H 9421   0.828   6.945   6.633 -0.7218  1.3819  0.7542
  793MOL0     H 9422   0.870   6.982   6.442  2.4060 -0.0518  1.0381
  793MOL0     H 9423   0.943   6.929   6.296  1.9404  0.9202  1.0259
  793MOL0     H 9424   0.695   6.835   6.334  0.0508  0.4272  1.3372
  793MOL0     H 9425   0.768   6.762   6.482  2.7799 -1.8510  0.5659
  793MOL0     H 9426   0.845   6.723   6.210 -0.1168  1.1806  0.8792
  793MOL0     H 9427   0.915   6.627   6.346 -0.3079  0.2786  2.2975
  793MOL0     H 9428   0.610   6.587   6.307 -0.3065  0.0034  0.9435
  793MOL0     H 9429   0.726   6.471   6.335  0.1418  1.4238  1.8424
  793MOL0     H 9430   0.756   6.495   5.924 -2.4286  0.3494 -0.5724
  793MOL0     H 9431   1.179   6.708   6.608 -0.9818  0.4983 -1.2510
  793MOL0     H 9432   1.325   6.709   6.801 -0.1665  0.3831 -0.5160
  793MOL0     H 9433   1.262   6.739   6.970 -1.6608 -0.1696  0.2475
  793MOL0     H 9434   1.222   6.586   6.883  0.4553 -0.3375  2.8866
  794MOL0     O 9435  11.221   5.099   8.072  0.5965 -0.6411 -0.5517
  794MOL0     C 9436  11.194   5.044   8.183 -0.0218  0.2061  0.1260
  794MOL0     O 9437  11.082   4.975   8.210  0.4890  0.7220  0.7168
  794MOL0     C 9438  10.973   4.985   8.133 -0.1612  0.1664  0.2052
  794MOL0     C 9439  10.850   5.023   8.193  0.7932  0.2699  0.5707
  794MOL0     C 9440  10.732   5.024   8.123  0.0919  0.3204  0.5305
  794MOL0     C 9441  10.724   4.978   7.989 -0.1828 -0.3851  0.2083
  794MOL0     O 9442  10.605   4.975   7.917  0.0350 -0.0917 -0.2388
  794MOL0     C 9443  10.548   4.840   7.916  0.2363 -0.3663  0.4014
  794MOL0     C 9444  10.456   4.823   8.040  0.0226  1.1979 -0.3502
  794MOL0     C 9445  10.346   4.713   8.024 -0.1121  0.1968 -0.1208
  794MOL0     C 9446  10.250   4.731   7.904 -0.3681 -0.0387 -0.3818
  794MOL0     C 9447  10.105   4.668   7.921 -1.1666  0.8085 -0.2348
  794MOL0     C 9448  10.111   4.519   7.955  0.6988  1.4379  0.0161
  794MOL0     C 9449  10.167   4.428   7.838 -0.5198  0.2642 -0.6901
  794MOL0     C 9450  10.152   4.278   7.877 -0.8601 -0.5053 -0.0638
  794MOL0     N 9451  10.214   4.188   7.776  0.6318 -0.2063 -0.1419
  794MOL0     C 9452  10.164   4.142   7.659 -0.2009  0.5121 -1.1246
  794MOL0     C 9453  10.239   4.038   7.620  0.2017  1.3753  0.2266
  794MOL0     C 9454  10.214   3.919   7.516 -0.6452  0.0471 -0.3122
  794MOL0     C 9455  10.157   3.784   7.557  0.7656  0.3771  0.5934
  794MOL0     C 9456  10.217   3.651   7.494 -0.1290  0.6088  0.1363
  794MOL0     C 9457  10.174   3.619   7.350 -0.5478 -0.4415  0.4286
  794MOL0     O 9458  10.042   3.603   7.375  0.3677 -0.2219  0.5376
  794MOL0     C 9459   9.949   3.686   7.314 -0.1216 -1.6413 -0.1083
  794MOL0     C 9460   9.812   3.677   7.348  0.2135 -0.3435 -0.4251
  794MOL0     C 9461   9.707   3.756   7.309  0.2662 -0.4552  0.7107
  794MOL0     C 9462   9.571   3.709   7.348 -0.0224 -0.5553  0.1023
  794MOL0     C 9463   9.742   3.865   7.223 -0.5626 -0.2408  0.0593
  794MOL0     C 9464   9.648   3.967   7.164 -0.1338  0.5494  0.1028
  794MOL0     O 9465   9.519   3.950   7.193 -0.6466 -0.1456  0.2004
  794MOL0     C 9466   9.415   4.027   7.146  0.2087 -0.7331  0.7685
  794MOL0     C 9467   9.416   4.123   7.045 -0.5200  0.5646 -1.0553
  794MOL0     C 9468   9.294   4.188   7.018 -0.6785  0.3628 -0.2297
  794MOL0     C 9469   9.175   4.171   7.089 -0.2567  0.8639  0.7113
  794MOL0     O 9470   9.059   4.238   7.081  0.2920 -0.4918  0.7274
  794MOL0     C 9471   9.059   4.354   6.995  0.2088  0.1229  0.5352
  794MOL0     C 9472   8.955   4.463   7.025 -0.5403  0.5140  0.7870
  794MOL0     C 9473   8.981   4.513   7.171  0.6610 -0.4731 -0.4579
  794MOL0     C 9474   8.887   4.632   7.213  0.9431  0.1700 -1.2986
  794MOL0     C 9475   8.906   4.760   7.142 -0.4924  0.2658  0.6093
  794MOL0     C 9476   9.036   4.819   7.147 -0.2610 -0.2904  0.0793
  794MOL0     C 9477   9.040   4.970   7.103  0.5407 -0.5683  0.0962
  794MOL0     C 9478   9.171   5.026   7.152  0.3042 -0.1255  0.4588
  794MOL0    Cl 9479   9.306   4.949   7.068 -0.4830 -0.2604  0.0497
  794MOL0     C 9480   9.185   4.079   7.187  0.5331 -0.0229 -0.4725
  794MOL0     C 9481   9.298   4.009   7.216  0.7136 -0.5685  0.1393
  794MOL0     O 9482   9.693   4.053   7.089  0.1437 -0.0422  0.0761
  794MOL0     C 9483   9.879   3.882   7.191  1.3697  0.3575  0.1377
  794MOL0     C 9484   9.983   3.798   7.231 -0.8173 -0.1163  0.4203
  794MOL0     N 9485  10.326   4.016   7.722  0.4242  0.1188 -0.0298
  794MOL0     N 9486  10.308   4.102   7.820  0.6369 -0.3412  0.7208
  794MOL0     C 9487  10.845   4.947   7.928  1.1075  0.2063  0.5817
  794MOL0     C 9488  10.969   4.944   7.996 -0.6133 -0.2127 -0.5300
  794MOL0     C 9489  11.300   5.057   8.289  0.7302 -0.1110 -0.3106
  794MOL0     C 9490  11.418   5.128   8.260 -0.1321  0.3383  0.6315
  794MOL0     C 9491  11.523   5.150   8.351  0.6656 -0.5333 -0.5248
  794MOL0     C 9492  11.519   5.092   8.480  0.4535  1.2442 -0.8439
  794MOL0     O 9493  11.614   5.105   8.582 -0.2239 -0.3111 -0.7242
  794MOL0     C 9494  11.741   5.170   8.563  0.0547  0.3605 -0.6924
  794MOL0     C 9495  11.826   5.165   8.697 -0.0024 -0.1130 -0.2477
  794MOL0     C 9496  11.967   5.225   8.687  0.1000  0.3962  0.6920
  794MOL0     C 9497  12.060   5.145   8.597  0.0193  0.4707 -0.1546
  794MOL0     C 9498  12.195   5.202   8.589  0.5721 -1.1457 -0.2927
  794MOL0     C 9499  12.311   5.214   8.586  0.3969 -0.2522 -0.0871
  794MOL0     C 9500  11.404   5.001   8.505 -0.8650 -0.3313 -0.0830
  794MOL0     C 9501  11.297   4.999   8.416 -0.7765  0.0960  0.8233
  794MOL0     C 9502  11.169   4.930   8.469  0.0805 -0.8723 -0.2359
  794MOL0     H 9503  10.849   5.051   8.298 -1.3198 -3.8561  1.8609
  794MOL0     H 9504  10.639   5.053   8.171 -0.3111 -1.7161  1.0706
  794MOL0     H 9505  10.633   4.771   7.914 -0.4370 -1.2251  0.7892
  794MOL0     H 9506  10.490   4.829   7.824 -0.4434  0.1647  0.7528
  794MOL0     H 9507  10.522   4.806   8.126 -0.6480 -3.7480 -0.5677
  794MOL0     H 9508  10.416   4.924   8.055 -2.6408 -0.0612  1.9046
  794MOL0     H 9509  10.394   4.615   8.016 -2.0234 -0.8742  0.8976
  794MOL0     H 9510  10.300   4.712   8.123 -0.8172 -1.9387 -0.4070
  794MOL0     H 9511  10.238   4.838   7.886 -2.6473 -0.3977 -1.3535
  794MOL0     H 9512  10.303   4.688   7.818 -0.6146 -0.3082 -0.4031
  794MOL0     H 9513  10.055   4.668   7.824  2.6271 -0.0064 -2.3991
  794MOL0     H 9514  10.044   4.714   7.999 -2.4986 -1.0173 -0.1473
  794MOL0     H 9515  10.154   4.500   8.053 -2.6860  1.7394  1.6930
  794MOL0     H 9516  10.012   4.485   7.987  1.8927 -1.3062  1.1426
  794MOL0     H 9517  10.273   4.447   7.818  0.6303 -3.0965  1.2381
  794MOL0     H 9518  10.111   4.450   7.747  2.1815  0.6800 -2.3631
  794MOL0     H 9519  10.198   4.262   7.975  0.4161  0.0185 -0.5444
  794MOL0     H 9520  10.046   4.254   7.880 -1.6128  2.3889 -0.0622
  794MOL0     H 9521  10.081   4.183   7.603  0.7858  2.2830 -1.3879
  794MOL0     H 9522  10.309   3.887   7.472 -1.2704  0.1641 -1.7897
  794MOL0     H 9523  10.153   3.947   7.430 -1.1676  0.3586  0.1469
  794MOL0     H 9524  10.187   3.778   7.662  2.7209  1.3328  0.1318
  794MOL0     H 9525  10.048   3.781   7.560  0.7101 -0.5907 -1.0782
  794MOL0     H 9526  10.325   3.667   7.484  0.3098 -0.9915  1.7912
  794MOL0     H 9527  10.200   3.560   7.552  0.6997 -1.6090 -2.8477
  794MOL0     H 9528  10.195   3.707   7.289 -0.6424  0.3374  1.5021
  794MOL0     H 9529  10.227   3.534   7.304  0.9181 -0.6910  2.4146
  794MOL0     H 9530   9.788   3.592   7.411  3.1886 -1.2068 -0.3108
  794MOL0     H 9531   9.579   3.600   7.358  0.4431 -0.3344  2.8995
  794MOL0     H 9532   9.501   3.731   7.267  1.1766 -0.2456 -0.8929
  794MOL0     H 9533   9.541   3.758   7.441 -0.2985  2.8087 -1.6140
  794MOL0     H 9534   9.501   4.146   6.980  3.0873 -5.0135  0.9270
  794MOL0     H 9535   9.297   4.271   6.948 -1.4154  0.9388  0.4056
  794MOL0     H 9536   9.156   4.403   6.982 -0.7706  1.5989 -1.8389
  794MOL0     H 9537   9.035   4.306   6.899  2.6382 -0.8417  0.3389
  794MOL0     H 9538   8.969   4.545   6.954 -2.3861 -1.1605 -1.6964
  794MOL0     H 9539   8.854   4.423   7.010  0.0291 -0.7519  0.1942
  794MOL0     H 9540   9.083   4.548   7.187  1.1842 -1.4126 -1.5887
  794MOL0     H 9541   8.965   4.429   7.240 -1.0173  0.7873  0.7700
  794MOL0     H 9542   8.892   4.654   7.320 -0.4377  0.5403 -1.2826
  794MOL0     H 9543   8.784   4.597   7.200 -0.2128  1.7775  2.1415
  794MOL0     H 9544   8.880   4.752   7.036  0.7513 -0.5133  0.3470
  794MOL0     H 9545   8.830   4.832   7.175 -2.5572 -0.9137 -1.2471
  794MOL0     H 9546   9.105   4.758   7.088  1.0571  1.0110  0.2209
  794MOL0     H 9547   9.063   4.795   7.250  0.4608 -0.7344 -0.2068
  794MOL0     H 9548   8.961   5.020   7.160 -0.1550 -0.5387 -0.8669
  794MOL0     H 9549   9.027   4.980   6.995 -0.7612  0.9545  0.3514
  794MOL0     H 9550   9.178   5.030   7.261 -2.2483  0.7721  0.6723
  794MOL0     H 9551   9.173   5.132   7.123  1.5903  0.2034  1.6678
  794MOL0     H 9552   9.097   4.057   7.247  0.4268 -0.1159 -0.6626
  794MOL0     H 9553   9.301   3.926   7.286 -1.7337 -3.2508 -2.6441
  794MOL0     H 9554   9.916   3.972   7.143  5.2858  0.6368  3.0820
  794MOL0     H 9555  10.083   3.822   7.196  0.5667 -2.7999  2.1693
  794MOL0     H 9556  10.844   4.920   7.823 -0.9683 -7.1708  1.9297
  794MOL0     H 9557  11.066   4.937   7.949 -1.4191  0.2399 -2.3463
  794MOL0     H 9558  11.438   5.160   8.158 -0.3555 -0.8126  0.2213
  794MOL0     H 9559  11.600   5.217   8.314  1.5832 -0.6217  1.1363
  794MOL0     H 9560  11.800   5.117   8.488 -1.3041 -1.6194 -0.4317
  794MOL0     H 9561  11.722   5.272   8.530 -2.4770  0.3543  0.4967
  794MOL0     H 9562  11.852   5.062   8.725  0.9773  0.1154 -0.2853
  794MOL0     H 9563  11.766   5.210   8.777  1.4000  2.1544 -0.3978
  794MOL0     H 9564  11.967   5.329   8.652  2.4465  0.3128  0.3143
  794MOL0     H 9565  12.003   5.248   8.787 -2.2815  1.4761  1.3836
  794MOL0     H 9566  12.030   5.140   8.492 -0.1679  3.2564 -0.3273
  794MOL0     H 9567  12.054   5.044   8.639 -2.6648  0.9598  0.8125
  794MOL0     H 9568  12.416   5.195   8.596  0.4917 -0.6229 -1.5864
  794MOL0     H 9569  11.405   4.939   8.595  1.8121 -1.9822 -1.1048
  794MOL0     H 9570  11.081   4.995   8.465  1.5719  1.3168  0.4852
  794MOL0     H 9571  11.159   4.835   8.416  1.2984  0.9325 -4.1228
  794MOL0     H 9572  11.182   4.914   8.576 -3.4072 -1.2970  0.2297
  795MOL0     O 9573   6.468   3.625   3.165 -0.4479  0.4934 -0.2061
  795MOL0     C 9574   6.562   3.564   3.111 -0.6189 -0.0829  0.9185
  795MOL0     O 9575   6.624   3.600   2.996 -0.3961 -0.1781 -0.0446
  795MOL0     C 9576   6.604   3.714   2.924  0.9619 -0.0296  0.6784
  795MOL0     C 9577   6.497   3.809   2.936 -0.5992 -0.6461  0.8140
  795MOL0     C 9578   6.498   3.934   2.863  0.3078  0.1711  0.0243
  795MOL0     C 9579   6.605   3.969   2.776 -0.1214 -0.2409  0.0317
  795MOL0     O 9580   6.610   4.093   2.710 -0.0522  0.1789  0.8536
  795MOL0     C 9581   6.716   4.119   2.613  0.3534 -0.1398 -0.4833
  795MOL0     C 9582   6.709   4.038   2.486 -1.0707 -1.5731 -0.5578
  795MOL0     C 9583   6.581   4.060   2.410  0.0564 -0.2755  0.6291
  795MOL0     C 9584   6.596   3.986   2.277 -0.1018  0.1221 -0.3920
  795MOL0     C 9585   6.445   3.984   2.221  0.0682 -0.4716 -0.2076
  795MOL0     C 9586   6.446   3.902   2.085 -0.3902  0.2044 -0.9842
  795MOL0     C 9587   6.298   3.861   2.049 -0.2406  0.0803 -0.0922
  795MOL0     C 9588   6.222   3.991   2.009 -0.9257 -0.4997  1.3716
  795MOL0     N 9589   6.155   4.060   2.121  0.2151 -0.7901  1.0439
  795MOL0     C 9590   6.045   4.020   2.201 -0.1073  0.0687  0.5889
  795MOL0     C 9591   6.003   4.145   2.251  0.5958  0.3274 -0.0260
  795MOL0     C 9592   5.878   4.181   2.336 -0.6710  0.1307  0.7557
  795MOL0     C 9593   5.777   4.251   2.235 -0.4530 -0.6787 -0.1345
  795MOL0     C 9594   5.633   4.227   2.267  0.2178  0.9736 -1.0958
  795MOL0     C 9595   5.538   4.339   2.214 -0.2317  0.7978 -0.6465
  795MOL0     O 9596   5.554   4.361   2.072 -0.6445 -0.2350 -0.4420
  795MOL0     C 9597   5.499   4.272   1.985 -0.2371  1.2027 -0.3935
  795MOL0     C 9598   5.537   4.295   1.848 -0.3590  0.0233 -0.4013
  795MOL0     C 9599   5.491   4.210   1.745 -0.0791  0.1811 -1.0644
  795MOL0     C 9600   5.541   4.252   1.612 -0.2370  0.5688 -0.6968
  795MOL0     C 9601   5.416   4.091   1.778  0.2644 -0.8719  0.4697
  795MOL0     C 9602   5.378   3.984   1.694  0.4510  1.1259  0.3094
  795MOL0     O 9603   5.261   3.925   1.720 -0.1730  0.0494 -0.0686
  795MOL0     C 9604   5.231   3.815   1.642  0.0732 -0.0058  0.5100
  795MOL0     C 9605   5.100   3.789   1.600 -0.4830  0.3079  0.0813
  795MOL0     C 9606   5.069   3.685   1.529  0.1708  0.2913 -0.5283
  795MOL0     C 9607   5.148   3.582   1.496  0.4733  0.1281 -0.4429
  795MOL0     O 9608   5.110   3.474   1.418  0.1480  0.2600  0.6235
  795MOL0     C 9609   4.969   3.435   1.391  0.5608  0.7595 -0.4200
  795MOL0     C 9610   4.972   3.291   1.356 -0.7786 -0.3027  0.6987
  795MOL0     C 9611   5.009   3.270   1.211  0.1319  0.7829 -1.0718
  795MOL0     C 9612   4.959   3.132   1.148  0.0395 -0.3988 -0.3676
  795MOL0     C 9613   4.800   3.131   1.151 -1.1527 -0.3809  0.2179
  795MOL0     C 9614   4.729   3.247   1.076  0.7729 -1.1025 -0.4895
  795MOL0     C 9615   4.586   3.207   1.058  0.7204  0.3463 -0.3987
  795MOL0     C 9616   4.505   3.339   1.031 -0.7249 -0.3589 -0.1813
  795MOL0    Cl 9617   4.549   3.396   0.868 -0.2615 -0.3699 -0.0018
  795MOL0     C 9618   5.277   3.593   1.540 -0.3024 -0.5819  0.3164
  795MOL0     C 9619   5.321   3.713   1.599  0.0134  0.9747  0.5478
  795MOL0     O 9620   5.458   3.955   1.605  0.1687  0.9706 -0.0704
  795MOL0     C 9621   5.377   4.075   1.911  0.3807  0.2378 -0.1627
  795MOL0     C 9622   5.419   4.162   2.014  0.3228  0.1332  0.3443
  795MOL0     N 9623   6.066   4.248   2.184 -0.7340 -0.3567  0.4229
  795MOL0     N 9624   6.157   4.202   2.105 -0.4381 -0.0577  0.0528
  795MOL0     C 9625   6.706   3.873   2.760 -0.3118  0.5181  0.7836
  795MOL0     C 9626   6.705   3.759   2.830  0.4555 -0.7103 -0.3269
  795MOL0     C 9627   6.615   3.438   3.176  0.0595 -0.9276 -0.1325
  795MOL0     C 9628   6.726   3.374   3.118  1.2169 -0.7864 -0.5353
  795MOL0     C 9629   6.784   3.262   3.181 -0.0702 -0.4971 -0.4277
  795MOL0     C 9630   6.733   3.209   3.300 -0.6086  0.0738  0.3288
  795MOL0     O 9631   6.779   3.094   3.357 -0.4417 -0.0118 -0.5453
  795MOL0     C 9632   6.711   3.034   3.472 -0.1309  0.5956 -0.1194
  795MOL0     C 9633   6.783   2.894   3.476 -0.6414  0.0754  0.6179
  795MOL0     C 9634   6.754   2.806   3.353  0.0199  0.2307  0.7932
  795MOL0     C 9635   6.842   2.683   3.358  0.8134  0.9077 -1.1676
  795MOL0     C 9636   6.801   2.593   3.467 -0.6791  0.5993  1.1366
  795MOL0     C 9637   6.763   2.516   3.562  0.0341 -0.1308 -0.5207
  795MOL0     C 9638   6.624   3.279   3.352 -0.0724 -0.4744  0.3845
  795MOL0     C 9639   6.566   3.390   3.300 -0.0943  0.3706 -0.3830
  795MOL0     C 9640   6.461   3.456   3.376  0.4346 -0.0189 -0.9020
  795MOL0     H 9641   6.404   3.777   2.982 -0.7889 -0.3393  0.6501
  795MOL0     H 9642   6.409   3.996   2.873  0.0110  0.1504 -1.9981
  795MOL0     H 9643   6.818   4.101   2.648  0.9551  0.9078 -1.6573
  795MOL0     H 9644   6.705   4.226   2.590 -0.1246 -0.5328 -2.1985
  795MOL0     H 9645   6.787   4.064   2.414 -2.5582  0.4079 -1.5758
  795MOL0     H 9646   6.722   3.931   2.502  0.6192 -1.0329  2.4347
  795MOL0     H 9647   6.503   4.018   2.474  2.4696  0.2924  4.2395
  795MOL0     H 9648   6.556   4.165   2.392  0.4889  0.4509  3.6322
  795MOL0     H 9649   6.669   4.027   2.207  0.1089 -0.0779 -0.2891
  795MOL0     H 9650   6.629   3.883   2.289  0.5332 -0.0188 -2.9217
  795MOL0     H 9651   6.430   4.091   2.206  2.4185  0.2867  2.0483
  795MOL0     H 9652   6.380   3.947   2.301  0.1912  0.6166  0.4149
  795MOL0     H 9653   6.491   3.949   1.998  0.3889  0.3615 -0.5073
  795MOL0     H 9654   6.493   3.805   2.104  2.0517  1.6758  1.3703
  795MOL0     H 9655   6.247   3.812   2.132 -1.0836  0.7513 -0.1997
  795MOL0     H 9656   6.304   3.791   1.965 -1.3862  1.3481 -1.2760
  795MOL0     H 9657   6.281   4.066   1.957 -0.5894 -1.9703 -0.4417
  795MOL0     H 9658   6.144   3.966   1.937 -0.7119 -0.1449  1.0177
  795MOL0     H 9659   6.009   3.920   2.224 -0.5502  0.4456  1.6033
  795MOL0     H 9660   5.908   4.250   2.416  1.6662  0.1783 -0.0771
  795MOL0     H 9661   5.837   4.093   2.385 -1.5486  0.6745  1.0311
  795MOL0     H 9662   5.802   4.358   2.243 -2.3655 -0.2109  0.0452
  795MOL0     H 9663   5.791   4.214   2.133 -1.5440 -0.3430 -0.4115
  795MOL0     H 9664   5.596   4.134   2.224  0.3184  1.4349 -2.2118
  795MOL0     H 9665   5.633   4.220   2.376 -0.3302 -0.5493 -1.1713
  795MOL0     H 9666   5.433   4.318   2.235 -1.6782  4.0762 -3.7050
  795MOL0     H 9667   5.553   4.424   2.281 -0.3461 -0.4867  1.1013
  795MOL0     H 9668   5.591   4.388   1.831  3.9025 -1.7689  1.8219
  795MOL0     H 9669   5.634   4.195   1.603 -2.2604 -2.9538 -0.9439
  795MOL0     H 9670   5.582   4.354   1.611  3.5214 -0.3794  4.7442
  795MOL0     H 9671   5.479   4.229   1.526 -1.3659 -4.1513  1.0829
  795MOL0     H 9672   5.017   3.852   1.629 -1.3084 -1.5335  1.9591
  795MOL0     H 9673   4.962   3.671   1.513 -0.1513 -1.4865  2.5037
  795MOL0     H 9674   4.904   3.446   1.479  1.2552  1.4722  0.0145
  795MOL0     H 9675   4.932   3.502   1.313  1.8722  1.4804 -0.4556
  795MOL0     H 9676   5.048   3.237   1.414  0.9039  0.1902 -0.9661
  795MOL0     H 9677   4.873   3.253   1.382 -0.4856 -1.9614 -0.4414
  795MOL0     H 9678   5.119   3.273   1.206  0.1335  2.4119 -0.6349
  795MOL0     H 9679   4.975   3.338   1.133  3.7303  0.9204 -2.7610
  795MOL0     H 9680   4.995   3.044   1.203  2.6043  0.5689 -0.3342
  795MOL0     H 9681   4.991   3.126   1.044  2.8727  3.8973 -0.0324
  795MOL0     H 9682   4.766   3.039   1.103  1.1328 -1.0549 -0.2409
  795MOL0     H 9683   4.776   3.139   1.257 -2.7164  0.2547 -0.1570
  795MOL0     H 9684   4.777   3.268   0.980  3.4093 -1.7976  0.5751
  795MOL0     H 9685   4.734   3.337   1.137  1.9120 -0.5156 -1.3935
  795MOL0     H 9686   4.527   3.162   1.138 -1.8232  0.8299 -1.8903
  795MOL0     H 9687   4.587   3.140   0.972 -0.2134 -3.9137  2.5913
  795MOL0     H 9688   4.531   3.421   1.098 -1.7309 -1.5978  1.8149
  795MOL0     H 9689   4.397   3.322   1.035 -0.9717  1.2308  0.7315
  795MOL0     H 9690   5.341   3.517   1.497 -1.1948 -0.5685 -1.0824
  795MOL0     H 9691   5.423   3.720   1.635  0.5410  1.0929 -0.8833
  795MOL0     H 9692   5.313   3.993   1.945 -2.2470  0.9870 -2.8197
  795MOL0     H 9693   5.388   4.150   2.118 -0.1753  2.8378  0.5729
  795MOL0     H 9694   6.793   3.884   2.696  0.8084  2.8500  2.5775
  795MOL0     H 9695   6.800   3.706   2.830  0.9120  0.0117 -2.4845
  795MOL0     H 9696   6.791   3.417   3.042  2.3003 -0.5079  0.5239
  795MOL0     H 9697   6.879   3.223   3.147  2.6599  3.5981  1.5998
  795MOL0     H 9698   6.727   3.082   3.569  0.6440  1.0272 -0.4519
  795MOL0     H 9699   6.604   3.018   3.454 -0.2794 -1.2571  1.9323
  795MOL0     H 9700   6.752   2.835   3.563 -0.4163 -3.0254 -1.2365
  795MOL0     H 9701   6.891   2.904   3.469 -0.3662 -2.3666  0.6284
  795MOL0     H 9702   6.649   2.776   3.351  0.3179 -0.8604  0.3030
  795MOL0     H 9703   6.762   2.864   3.261 -0.9634 -0.8938 -0.0341
  795MOL0     H 9704   6.946   2.710   3.377  0.5944  1.0108 -0.0934
  795MOL0     H 9705   6.833   2.631   3.262  1.9054 -0.7014 -0.4369
  795MOL0     H 9706   6.743   2.452   3.646 -1.0639  2.1982  1.0979
  795MOL0     H 9707   6.611   3.243   3.453 -1.7003  0.3171  0.4810
  795MOL0     H 9708   6.426   3.393   3.458  0.1651  3.1573  1.5830
  795MOL0     H 9709   6.497   3.553   3.410 -3.7804  1.0638  1.0583
  795MOL0     H 9710   6.372   3.479   3.317 -1.1850 -0.0040  1.4436
  796MOL0     O 9711   0.798   7.365   9.367  0.4442  0.4422  0.7112
  796MOL0     C 9712   0.740   7.257   9.344 -1.3322  0.3033 -0.2553
  796MOL0     O 9713   0.673   7.226   9.235 -0.3019  0.2361 -0.1808
  796MOL0     C 9714   0.665   7.307   9.124  0.4319 -0.7242  0.7405
  796MOL0     C 9715   0.765   7.389   9.062 -0.3360  0.8125 -0.2641
  796MOL0     C 9716   0.729   7.488   8.978 -1.7483 -0.6081  0.5804
  796MOL0     C 9717   0.602   7.507   8.929 -0.7738  0.4061  0.4395
  796MOL0     O 9718   0.557   7.595   8.824  0.4065 -0.0974 -0.3638
  796MOL0     C 9719   0.647   7.690   8.764  0.4549 -0.2873 -0.1947
  796MOL0     C 9720   0.565   7.797   8.687  0.1276 -0.9277  0.2918
  796MOL0     C 9721   0.513   7.904   8.790  1.0978 -0.2943  0.1151
  796MOL0     C 9722   0.381   7.865   8.858 -0.0803  0.0438  0.2369
  796MOL0     C 9723   0.399   7.808   9.002  0.6622  0.0467  0.4260
  796MOL0     C 9724   0.397   7.914   9.109 -0.4301 -0.5755  0.5324
  796MOL0     C 9725   0.257   7.966   9.153 -0.1338 -0.0307 -0.3418
  796MOL0     C 9726   0.265   8.050   9.279 -0.6733 -0.0997 -0.0191
  796MOL0     N 9727   0.150   8.126   9.309 -0.4553 -0.4491 -0.1142
  796MOL0     C 9728   0.115   8.249   9.254 -0.0542 -1.3533  0.2562
  796MOL0     C 9729   0.018   8.307   9.327 -0.8345  0.1254  0.5605
  796MOL0     C 9730  -0.032   8.454   9.328  0.3874 -0.5928  0.1256
  796MOL0     C 9731   0.003   8.528   9.455 -1.2228  0.3504  0.9883
  796MOL0     C 9732  -0.084   8.655   9.472 -0.0827  0.2418  0.0483
  796MOL0     C 9733  -0.041   8.772   9.387  0.1684  0.4533 -1.2197
  796MOL0     O 9734   0.086   8.816   9.431 -0.4726 -0.1362  0.5185
  796MOL0     C 9735   0.112   8.887   9.547  0.8406  0.1633  0.3741
  796MOL0     C 9736   0.140   8.818   9.662 -0.1290 -0.4873  0.2630
  796MOL0     C 9737   0.165   8.899   9.784 -0.0178 -0.0060 -0.9433
  796MOL0     C 9738   0.181   8.814   9.902  0.7880 -0.0450  0.2314
  796MOL0     C 9739   0.173   9.043   9.785  0.2826  0.5720  1.6757
  796MOL0     C 9740   0.193   9.124   9.905 -0.0888 -0.5178  0.0019
  796MOL0     O 9741   0.246   9.070  10.024  0.6951 -0.4520  0.0807
  796MOL0     C 9742   0.244   9.135  10.140  0.7836  0.0912  0.5623
  796MOL0     C 9743   0.338   9.237  10.167  0.4364  0.2200  0.0068
  796MOL0     C 9744   0.312   9.320  10.283  0.5088 -0.3134  0.4751
  796MOL0     C 9745   0.225   9.280  10.381 -0.6174 -0.5713  0.0431
  796MOL0     O 9746   0.234   9.348  10.504  0.0786  0.9003 -1.0082
  796MOL0     C 9747   0.204   9.483  10.497  0.1148 -0.8359  0.3333
  796MOL0     C 9748   0.057   9.494  10.523 -0.2960  0.6759 -0.1311
  796MOL0     C 9749   0.005   9.633  10.477  0.4309 -0.2275 -0.5932
  796MOL0     C 9750  -0.003   9.678  10.337  0.3040 -0.1412  0.2444
  796MOL0     C 9751  -0.061   9.590  10.229  0.0869  0.1446 -0.1382
  796MOL0     C 9752   0.004   9.608  10.095 -0.2719  0.4084  0.0858
  796MOL0     C 9753  -0.056   9.531   9.978  0.4204 -0.0020 -0.5483
  796MOL0     C 9754   0.042   9.546   9.858 -0.5820  0.3229 -0.2248
  796MOL0    Cl 9755  -0.023   9.624   9.714  0.0355 -0.7899 -0.1271
  796MOL0     C 9756   0.152   9.165  10.358  0.5472  0.6409 -0.8351
  796MOL0     C 9757   0.152   9.100  10.235 -0.0102  0.1189  0.8060
  796MOL0     O 9758   0.165   9.246   9.895  0.3872  0.6936  0.7699
  796MOL0     C 9759   0.153   9.100   9.660 -0.5667 -0.6952  0.3058
  796MOL0     C 9760   0.118   9.027   9.548  0.5361  0.8406  0.1228
  796MOL0     N 9761  -0.011   8.221   9.423  0.6586  0.8310 -0.1502
  796MOL0     N 9762   0.064   8.116   9.413  0.1610  0.5517  0.4904
  796MOL0     C 9763   0.503   7.412   8.982  1.1145  0.5922 -0.5935
  796MOL0     C 9764   0.532   7.315   9.083 -0.4392 -1.0370 -0.0108
  796MOL0     C 9765   0.754   7.159   9.452  0.4171 -0.7069 -0.8986
  796MOL0     C 9766   0.635   7.094   9.497 -0.3708  0.0356 -0.1725
  796MOL0     C 9767   0.641   6.995   9.602  1.1763  0.0174 -0.0752
  796MOL0     C 9768   0.760   6.966   9.661 -0.5969  0.4841  0.2309
  796MOL0     O 9769   0.772   6.861   9.751 -0.5658  0.1142  0.7512
  796MOL0     C 9770   0.749   6.742   9.686 -0.6991  0.3560 -0.1351
  796MOL0     C 9771   0.757   6.625   9.783 -1.1783  0.0295  0.2961
  796MOL0     C 9772   0.689   6.647   9.916  0.0078  0.0992  0.4800
  796MOL0     C 9773   0.786   6.685  10.021  0.4665  1.0867 -0.3167
  796MOL0     C 9774   0.717   6.677  10.152 -0.3655 -0.5183  0.5316
  796MOL0     C 9775   0.656   6.673  10.257 -0.0884  0.0719 -0.2143
  796MOL0     C 9776   0.884   7.041   9.622  0.2386  0.3147  0.3835
  796MOL0     C 9777   0.877   7.119   9.508 -0.8869  0.2332 -1.1107
  796MOL0     C 9778   1.011   7.167   9.458  0.4399 -0.3943  0.5302
  796MOL0     H 9779   0.869   7.377   9.089 -0.6972 -0.9606  0.4517
  796MOL0     H 9780   0.809   7.556   8.947 -1.7194 -0.9792 -0.1917
  796MOL0     H 9781   0.714   7.650   8.688 -0.0978  0.6879 -1.2389
  796MOL0     H 9782   0.706   7.746   8.837 -0.8844  1.4600 -0.3846
  796MOL0     H 9783   0.624   7.844   8.607  0.0684  0.2667  0.9301
  796MOL0     H 9784   0.477   7.762   8.633  0.5051 -2.3476  0.5666
  796MOL0     H 9785   0.586   7.935   8.864  1.4939  1.4568 -0.9644
  796MOL0     H 9786   0.478   7.988   8.730 -3.4658 -1.2435  1.0836
  796MOL0     H 9787   0.315   7.951   8.842  0.2842 -0.1589 -3.2149
  796MOL0     H 9788   0.319   7.791   8.806 -1.6984 -1.4508  3.9656
  796MOL0     H 9789   0.497   7.760   9.003 -0.0917 -1.5366  1.2557
  796MOL0     H 9790   0.319   7.737   9.023 -0.6003  1.9494  2.5343
  796MOL0     H 9791   0.454   7.885   9.198  0.6175  0.1954  0.1406
  796MOL0     H 9792   0.448   8.006   9.079 -0.9871  0.3919  2.4178
  796MOL0     H 9793   0.176   7.895   9.170 -0.4588  0.9108  2.4518
  796MOL0     H 9794   0.220   8.035   9.076  2.0911 -1.6921 -3.1073
  796MOL0     H 9795   0.293   7.985   9.362  1.4826  1.1635  0.3057
  796MOL0     H 9796   0.340   8.127   9.261  2.1045 -3.1715 -3.0119
  796MOL0     H 9797   0.172   8.306   9.181 -2.4798  0.6196 -0.2659
  796MOL0     H 9798  -0.141   8.446   9.322  0.0371  2.4384  0.7508
  796MOL0     H 9799   0.011   8.506   9.241 -1.2585 -0.1883 -0.4788
  796MOL0     H 9800  -0.017   8.462   9.539  0.0099 -1.1190  0.1691
  796MOL0     H 9801   0.107   8.553   9.475 -1.1654  2.6061 -1.4924
  796MOL0     H 9802  -0.191   8.641   9.455 -0.2935 -1.8480  2.4188
  796MOL0     H 9803  -0.093   8.680   9.578 -0.7572  3.3811 -0.6412
  796MOL0     H 9804  -0.029   8.760   9.279 -1.5831  3.2326 -1.8230
  796MOL0     H 9805  -0.107   8.859   9.398 -0.2474  0.1077 -0.9621
  796MOL0     H 9806   0.137   8.711   9.681  2.8340 -1.0553 -1.6987
  796MOL0     H 9807   0.264   8.858   9.957 -0.4164  1.7155  0.7369
  796MOL0     H 9808   0.174   8.705   9.895 -2.4575 -0.2220  3.1572
  796MOL0     H 9809   0.103   8.851   9.970  2.3080  4.0674  0.0013
  796MOL0     H 9810   0.413   9.256  10.092  1.4228  0.0187  0.9212
  796MOL0     H 9811   0.369   9.410  10.304  0.8384 -0.8410  1.9289
  796MOL0     H 9812   0.245   9.532  10.586 -0.5642 -0.0333  0.2159
  796MOL0     H 9813   0.245   9.536  10.410 -0.8955  0.5546  0.6773
  796MOL0     H 9814   0.008   9.420  10.460  2.5165  1.6823 -3.8351
  796MOL0     H 9815   0.049   9.465  10.628  3.2548 -0.5627 -0.0597
  796MOL0     H 9816   0.060   9.705  10.538  0.7293 -1.8689  1.1534
  796MOL0     H 9817  -0.099   9.630  10.510 -1.3556  1.1952 -5.2425
  796MOL0     H 9818   0.103   9.695  10.316  0.6379 -2.7430 -0.5126
  796MOL0     H 9819  -0.056   9.773  10.332  2.2785  0.9536 -1.9225
  796MOL0     H 9820  -0.064   9.483  10.251 -1.2254 -0.7956 -4.0221
  796MOL0     H 9821  -0.165   9.622  10.212  0.7976  1.9962 -1.2909
  796MOL0     H 9822   0.106   9.569  10.106 -0.1863  1.0018  1.7112
  796MOL0     H 9823   0.009   9.715  10.074  0.8101  0.1922 -0.8621
  796MOL0     H 9824  -0.153   9.571   9.947  1.0917  0.5137 -2.0917
  796MOL0     H 9825  -0.057   9.423   9.992 -0.3019  0.2688  2.1116
  796MOL0     H 9826   0.065   9.445   9.823 -0.0001  0.3532  0.0647
  796MOL0     H 9827   0.141   9.589   9.874  0.8950 -2.5400 -0.9535
  796MOL0     H 9828   0.099   9.124  10.443  1.4889 -1.5493 -1.2229
  796MOL0     H 9829   0.072   9.030  10.215 -1.1243  1.9155 -1.5764
  796MOL0     H 9830   0.160   9.202   9.625  1.1694 -2.4104 -5.3070
  796MOL0     H 9831   0.096   9.071   9.451 -3.1353  0.3574  0.5647
  796MOL0     H 9832   0.408   7.416   8.930  1.3982 -1.7163 -1.4314
  796MOL0     H 9833   0.460   7.243   9.120 -1.8431  0.7990  1.0113
  796MOL0     H 9834   0.544   7.126   9.447  1.0374  2.0502 -1.5492
  796MOL0     H 9835   0.556   6.935   9.630  0.6089  0.8904  0.1224
  796MOL0     H 9836   0.648   6.739   9.643 -0.4840 -1.9615 -0.6153
  796MOL0     H 9837   0.817   6.737   9.600  1.9378  2.0550  1.7175
  796MOL0     H 9838   0.858   6.596   9.813 -2.6305 -2.8519  3.0749
  796MOL0     H 9839   0.702   6.546   9.730 -1.2104  2.0636 -2.9395
  796MOL0     H 9840   0.618   6.726   9.891 -0.3413 -0.0956  0.8232
  796MOL0     H 9841   0.629   6.557   9.937 -2.7208  1.1404 -2.1539
  796MOL0     H 9842   0.826   6.786  10.011 -1.6994  1.7815 -3.5530
  796MOL0     H 9843   0.876   6.621  10.019  2.0629  3.2274 -1.4807
  796MOL0     H 9844   0.625   6.659  10.358  1.4793 -3.1862 -0.0682
  796MOL0     H 9845   0.974   7.008   9.672  1.4654  2.2337 -0.4480
  796MOL0     H 9846   1.012   7.276   9.466  1.3986 -0.4492  1.4358
  796MOL0     H 9847   1.094   7.131   9.520 -1.0273 -1.6272  1.8437
  796MOL0     H 9848   1.026   7.132   9.355 -3.6148  0.5575 -0.5663
  797MOL0     O 9849   9.240   1.767   4.655  0.1595  0.0098 -0.1158
  797MOL0     C 9850   9.177   1.764   4.550 -0.1441 -0.3198  0.4602
  797MOL0     O 9851   9.152   1.866   4.468  0.5937 -0.3700  0.4778
  797MOL0     C 9852   9.159   1.994   4.520 -0.1095  0.1373  0.3151
  797MOL0     C 9853   9.212   2.094   4.426 -0.0675  0.1875 -1.0261
  797MOL0     C 9854   9.219   2.221   4.472  0.1091 -0.5190  0.2441
  797MOL0     C 9855   9.181   2.260   4.600 -0.2417 -0.1321 -0.4400
  797MOL0     O 9856   9.189   2.390   4.649 -0.2476  0.0577 -0.0811
  797MOL0     C 9857   9.288   2.476   4.597 -0.6587  0.4818  0.6454
  797MOL0     C 9858   9.290   2.606   4.683 -1.1967  0.0250 -0.7422
  797MOL0     C 9859   9.325   2.581   4.831  0.5709  0.6299 -0.2080
  797MOL0     C 9860   9.380   2.712   4.883 -0.2018 -0.0266  0.8631
  797MOL0     C 9861   9.363   2.725   5.035  0.0649  0.3359 -0.7398
  797MOL0     C 9862   9.452   2.632   5.123  0.9344 -0.1633  0.1435
  797MOL0     C 9863   9.600   2.654   5.109 -0.1824  0.0183  0.2753
  797MOL0     C 9864   9.684   2.591   5.233  0.4325  0.8785 -0.0541
  797MOL0     N 9865   9.745   2.471   5.182 -0.4832  0.5399 -0.5958
  797MOL0     C 9866   9.673   2.352   5.166 -0.5511 -1.0930 -0.3192
  797MOL0     C 9867   9.771   2.265   5.134  0.4680 -0.3539  0.1609
  797MOL0     C 9868   9.754   2.123   5.099  0.1534 -0.2926  0.7844
  797MOL0     C 9869   9.805   2.032   5.219  0.0959  0.1369 -0.1336
  797MOL0     C 9870   9.808   1.886   5.159  0.2093 -0.1912  0.4879
  797MOL0     C 9871   9.858   1.793   5.270  0.3180 -0.4565  0.4083
  797MOL0     O 9872   9.911   1.667   5.224 -0.0404 -0.4879 -0.4324
  797MOL0     C 9873  10.034   1.673   5.164  0.8639  0.0811  0.2120
  797MOL0     C 9874  10.071   1.548   5.114  0.7898 -0.5400  0.5169
  797MOL0     C 9875  10.198   1.525   5.054 -0.5183 -0.7069  0.1935
  797MOL0     C 9876  10.227   1.390   4.999 -0.3665  0.2944 -0.5293
  797MOL0     C 9877  10.298   1.630   5.060 -0.4585  0.5446 -0.2044
  797MOL0     C 9878  10.437   1.613   5.025  0.3534  0.3796 -0.0968
  797MOL0     O 9879  10.505   1.726   4.976 -0.1801 -0.5722  0.0778
  797MOL0     C 9880  10.625   1.724   4.914 -0.8262  0.1219 -0.0759
  797MOL0     C 9881  10.679   1.620   4.834  0.4927 -0.5182  0.1257
  797MOL0     C 9882  10.803   1.633   4.782 -0.4754 -0.2702  0.1906
  797MOL0     C 9883  10.876   1.754   4.784  0.1734 -0.3101 -0.2441
  797MOL0     O 9884  11.000   1.748   4.727 -0.2181 -0.1776 -0.5104
  797MOL0     C 9885  11.115   1.790   4.809  0.7431 -0.0316  0.1937
  797MOL0     C 9886  11.211   1.888   4.739 -0.4475  0.3019  0.4934
  797MOL0     C 9887  11.140   2.017   4.700  0.4705  0.1084  0.4654
  797MOL0     C 9888  11.244   2.141   4.695  0.5617 -0.4019 -0.0605
  797MOL0     C 9889  11.374   2.124   4.606  0.9201  0.3229  0.8716
  797MOL0     C 9890  11.342   2.094   4.463  0.7055 -0.2939 -0.5851
  797MOL0     C 9891  11.465   2.056   4.388 -0.6478  0.3431 -0.5942
  797MOL0     C 9892  11.430   1.942   4.286  1.2419 -0.2236 -0.1869
  797MOL0    Cl 9893  11.590   1.874   4.230  0.0068  0.0525 -0.0918
  797MOL0     C 9894  10.819   1.857   4.864 -0.5007 -0.1379  0.5795
  797MOL0     C 9895  10.707   1.835   4.931  0.6295  0.0312  0.5732
  797MOL0     O 9896  10.482   1.503   5.029 -1.0348  0.2769  0.3835
  797MOL0     C 9897  10.256   1.752   5.113 -0.8758 -1.2830  0.0820
  797MOL0     C 9898  10.124   1.782   5.154 -0.7048  0.4969 -0.5011
  797MOL0     N 9899   9.895   2.329   5.149  0.8313  0.9079  1.1891
  797MOL0     N 9900   9.881   2.453   5.184 -0.4134 -0.5256  0.1521
  797MOL0     C 9901   9.103   2.170   4.679 -0.4129  0.2467  0.3705
  797MOL0     C 9902   9.101   2.037   4.640  0.3308 -0.0054  0.3693
  797MOL0     C 9903   9.128   1.630   4.505 -0.1859 -1.1396  0.2271
  797MOL0     C 9904   8.989   1.609   4.507 -0.0601  0.5528 -0.0257
  797MOL0     C 9905   8.940   1.487   4.468  0.6143  0.3438 -0.2239
  797MOL0     C 9906   9.020   1.380   4.426  0.2198  0.5555  0.1396
  797MOL0     O 9907   8.959   1.263   4.410 -0.5022  0.5954 -0.2775
  797MOL0     C 9908   9.022   1.145   4.367 -0.0323 -0.3897 -0.8404
  797MOL0     C 9909   9.074   1.138   4.224  0.4757 -0.1230  0.1679
  797MOL0     C 9910   8.961   1.114   4.108 -0.0628 -0.7768  0.2937
  797MOL0     C 9911   9.016   1.050   3.975 -0.5048  0.7630 -0.6421
  797MOL0     C 9912   8.923   1.101   3.875 -0.4105 -0.6419  0.0793
  797MOL0     C 9913   8.858   1.140   3.786 -0.0976 -0.1538 -0.4563
  797MOL0     C 9914   9.158   1.409   4.424 -0.6526  0.2276 -0.3671
  797MOL0     C 9915   9.213   1.524   4.476  1.1759  0.3065 -0.7440
  797MOL0     C 9916   9.356   1.529   4.505  0.2271  1.1877 -0.5455
  797MOL0     H 9917   9.237   2.073   4.322 -4.5768  0.9026 -2.4754
  797MOL0     H 9918   9.269   2.300   4.417  1.3156  0.3906  2.5126
  797MOL0     H 9919   9.270   2.494   4.490 -0.6772  0.8721  0.7123
  797MOL0     H 9920   9.377   2.414   4.608 -1.4619 -1.0037 -0.7752
  797MOL0     H 9921   9.373   2.658   4.636  0.7387 -1.8885  0.3364
  797MOL0     H 9922   9.201   2.669   4.680 -0.6450  0.8097 -3.4424
  797MOL0     H 9923   9.229   2.566   4.883  0.3737  0.5846 -0.5773
  797MOL0     H 9924   9.395   2.497   4.839  0.2936  0.5374  2.1686
  797MOL0     H 9925   9.484   2.733   4.858  0.1578 -0.6919  1.7538
  797MOL0     H 9926   9.310   2.788   4.846 -3.3943 -1.8715  2.6706
  797MOL0     H 9927   9.259   2.701   5.060  0.6897  0.2087  1.9850
  797MOL0     H 9928   9.374   2.831   5.058  0.5141  0.7007 -2.4900
  797MOL0     H 9929   9.423   2.656   5.226 -1.9526 -0.9594 -0.3958
  797MOL0     H 9930   9.436   2.525   5.109  0.6389 -0.2479  1.0714
  797MOL0     H 9931   9.614   2.761   5.126 -1.4831  0.3898 -0.8223
  797MOL0     H 9932   9.639   2.627   5.010 -0.9975  1.8451 -0.5929
  797MOL0     H 9933   9.753   2.661   5.281 -0.0623 -0.1919  2.3679
  797MOL0     H 9934   9.622   2.557   5.316 -1.5135 -0.5812 -1.9888
  797MOL0     H 9935   9.565   2.335   5.169 -1.0190  1.5185  1.7631
  797MOL0     H 9936   9.821   2.118   5.012  0.9693  1.3794  1.2779
  797MOL0     H 9937   9.650   2.096   5.079  0.6100 -0.5696 -1.5735
  797MOL0     H 9938   9.910   2.058   5.234  0.3196  0.3751 -1.8956
  797MOL0     H 9939   9.733   2.050   5.300 -3.2047  0.6735 -2.9372
  797MOL0     H 9940   9.703   1.866   5.138  0.7642  0.0176 -2.9833
  797MOL0     H 9941   9.867   1.885   5.067  0.2564  2.5548  0.3844
  797MOL0     H 9942   9.938   1.837   5.330 -0.7693  0.8429  0.9785
  797MOL0     H 9943   9.772   1.771   5.334  0.3343  3.6559  2.2227
  797MOL0     H 9944  10.004   1.465   5.135  0.7297 -0.3140  1.2391
  797MOL0     H 9945  10.136   1.340   4.967  0.0491 -1.2501  0.5788
  797MOL0     H 9946  10.266   1.335   5.085  1.1440 -1.5234 -2.3002
  797MOL0     H 9947  10.307   1.391   4.924 -0.5361 -0.4569 -0.7230
  797MOL0     H 9948  10.616   1.531   4.831 -1.1506  0.6281 -1.9457
  797MOL0     H 9949  10.843   1.544   4.735  1.9830 -0.2066  1.9841
  797MOL0     H 9950  11.087   1.833   4.906  1.8186 -1.9165  1.4079
  797MOL0     H 9951  11.176   1.702   4.833  2.3049 -0.1875 -3.6056
  797MOL0     H 9952  11.293   1.909   4.810  1.9278 -2.4974 -1.2050
  797MOL0     H 9953  11.259   1.847   4.650 -1.1796  0.5826 -0.0376
  797MOL0     H 9954  11.060   2.041   4.771 -0.7164  1.2183 -1.1733
  797MOL0     H 9955  11.097   1.990   4.603  0.5358 -3.1767  1.2275
  797MOL0     H 9956  11.285   2.166   4.793 -3.0562  1.0959  1.2522
  797MOL0     H 9957  11.181   2.224   4.663  0.4721 -0.3290  0.3031
  797MOL0     H 9958  11.428   2.218   4.616 -0.5464  1.2918 -0.0418
  797MOL0     H 9959  11.427   2.037   4.647  2.0145  0.7002  0.3004
  797MOL0     H 9960  11.290   2.184   4.428 -2.8650 -2.4419 -1.2951
  797MOL0     H 9961  11.261   2.021   4.466 -1.3341  1.7988 -1.8271
  797MOL0     H 9962  11.547   2.011   4.445 -0.9598  2.0318  1.3214
  797MOL0     H 9963  11.496   2.150   4.341 -0.9148 -0.5573 -2.6685
  797MOL0     H 9964  11.363   1.976   4.206 -1.7007 -0.3290  2.0486
  797MOL0     H 9965  11.365   1.869   4.335 -0.0979 -1.6827 -3.7640
  797MOL0     H 9966  10.867   1.954   4.869 -1.6442  0.4088  1.2805
  797MOL0     H 9967  10.668   1.921   4.984 -0.2769 -0.9005  1.4496
  797MOL0     H 9968  10.327   1.833   5.113 -2.7384  0.4437  1.2793
  797MOL0     H 9969  10.092   1.878   5.195 -1.0832 -0.6537  2.1274
  797MOL0     H 9970   9.064   2.200   4.775 -0.2797  0.9210  0.2171
  797MOL0     H 9971   9.058   1.960   4.703 -3.2535 -0.0020 -1.8102
  797MOL0     H 9972   8.927   1.691   4.543  1.8957  0.8666  2.9367
  797MOL0     H 9973   8.837   1.458   4.485  0.7547  0.6741  1.3968
  797MOL0     H 9974   9.109   1.124   4.430  0.8706 -2.0543 -2.5481
  797MOL0     H 9975   8.956   1.061   4.392  0.9440 -0.9222  0.0292
  797MOL0     H 9976   9.146   1.056   4.214  1.1014  0.5398 -0.9843
  797MOL0     H 9977   9.129   1.228   4.196 -1.9421  1.2506 -0.3627
  797MOL0     H 9978   8.870   1.070   4.151  0.6278 -4.8440 -1.9475
  797MOL0     H 9979   8.933   1.217   4.087 -1.0922 -1.3056 -1.0758
  797MOL0     H 9980   9.024   0.942   3.969  1.3602  0.9461 -3.0679
  797MOL0     H 9981   9.109   1.096   3.939  1.2077 -2.6184 -0.9625
  797MOL0     H 9982   8.821   1.174   3.691 -1.1735 -0.3402 -0.1122
  797MOL0     H 9983   9.231   1.329   4.416  0.6905  1.5924 -3.8940
  797MOL0     H 9984   9.397   1.431   4.482 -2.1458 -0.9612  3.2549
  797MOL0     H 9985   9.405   1.607   4.446 -1.7966 -0.9054 -5.5488
  797MOL0     H 9986   9.373   1.542   4.613 -0.0285 -0.3048 -0.3087
  798MOL0     O 9987   0.585   5.587   3.055 -0.5070  0.3077  0.8440
  798MOL0     C 9988   0.476   5.646   3.068  0.0101 -0.4307 -0.4565
  798MOL0     O 9989   0.392   5.613   3.177  0.7686 -0.2837 -0.8687
  798MOL0     C 9990   0.447   5.548   3.289  0.5606  0.2750 -1.0182
  798MOL0     C 9991   0.468   5.409   3.290  0.2769  0.2101  0.1028
  798MOL0     C 9992   0.521   5.344   3.398  0.0430  1.0168  1.0041
  798MOL0     C 9993   0.562   5.417   3.513 -0.1671 -0.3665 -0.3854
  798MOL0     O 9994   0.640   5.352   3.600  0.1201  0.0936 -0.0772
  798MOL0     C 9995   0.630   5.360   3.739 -0.1794 -0.4406  0.4347
  798MOL0     C 9996   0.750   5.317   3.805  0.2143 -0.3421  0.7763
  798MOL0     C 9997   0.851   5.427   3.773  0.7754  0.2141 -0.0275
  798MOL0     C 9998   0.989   5.366   3.812 -0.4076  0.5145  0.2588
  798MOL0     C 9999   1.072   5.458   3.896  0.0793  0.2660  1.1262
  798MOL0     C10000   1.218   5.428   3.901  0.5313  0.0993 -0.3318
  798MOL0     C10001   1.294   5.535   3.970 -0.9230 -0.0818 -0.6510
  798MOL0     C10002   1.445   5.498   3.984  0.0408  0.6206 -0.6661
  798MOL0     N10003   1.524   5.513   3.868  0.1982  0.0018 -0.0303
  798MOL0     C10004   1.476   5.578   3.757 -0.3610  0.3730 -0.0032
  798MOL0     C10005   1.591   5.616   3.696 -0.4628 -0.1171 -0.2371
  798MOL0     C10006   1.588   5.700   3.575  1.7058 -0.3228 -1.3858
  798MOL0     C10007   1.524   5.618   3.461  0.0069  0.2554  1.0206
  798MOL0     C10008   1.520   5.698   3.333 -0.0757 -1.1663 -0.1470
  798MOL0     C10009   1.410   5.663   3.233 -0.8227  0.2559  0.2395
  798MOL0     O10010   1.391   5.768   3.136  0.5552  0.2139 -0.4030
  798MOL0     C10011   1.298   5.759   3.041 -0.1677 -0.2869  0.1723
  798MOL0     C10012   1.182   5.675   3.037 -0.9537  0.4716 -0.6804
  798MOL0     C10013   1.084   5.689   2.949  0.4222 -0.3275  0.1221
  798MOL0     C10014   0.948   5.611   2.965 -0.7995 -0.0933  1.9297
  798MOL0     C10015   1.094   5.777   2.835 -0.2549 -0.2879 -0.2950
  798MOL0     C10016   0.990   5.809   2.735 -0.1751 -0.2392 -0.2674
  798MOL0     O10017   0.982   5.937   2.692 -0.3033  0.4894  0.4021
  798MOL0     C10018   0.894   5.986   2.598 -0.0598  0.6683  0.1811
  798MOL0     C10019   0.781   5.922   2.554 -0.2285 -0.5122 -0.2640
  798MOL0     C10020   0.672   5.985   2.482  0.2545  0.1373  0.0680
  798MOL0     C10021   0.697   6.117   2.441  0.4310 -0.5976  0.2599
  798MOL0     O10022   0.616   6.196   2.355  0.7101  0.5776  0.2230
  798MOL0     C10023   0.487   6.140   2.313  0.2523 -0.3437 -0.1711
  798MOL0     C10024   0.400   6.217   2.216  0.1034 -0.0276 -0.5945
  798MOL0     C10025   0.285   6.131   2.152  0.9305  0.3182  0.1490
  798MOL0     C10026   0.224   6.207   2.026 -0.3132 -0.3833 -0.4673
  798MOL0     C10027   0.089   6.150   1.985  0.5108 -0.1041 -0.0659
  798MOL0     C10028   0.066   6.165   1.839  0.9063 -0.0112  0.0041
  798MOL0     C10029   0.066   6.308   1.789  0.0947 -0.3532  0.6162
  798MOL0     C10030   0.025   6.328   1.652 -0.5624  1.5507  0.1514
  798MOL0    Cl10031   0.141   6.257   1.536 -0.0022 -0.4005  0.3721
  798MOL0     C10032   0.813   6.184   2.488 -0.7508  0.5628  0.2992
  798MOL0     C10033   0.907   6.117   2.571 -0.1856  0.3525  0.2127
  798MOL0     O10034   0.924   5.717   2.687  0.1312  0.4099 -0.1045
  798MOL0     C10035   1.212   5.844   2.822  0.6354 -0.1282 -0.1676
  798MOL0     C10036   1.309   5.841   2.922 -0.0422 -0.1668 -0.1506
  798MOL0     N10037   1.703   5.583   3.769 -0.8618 -0.6786  0.6631
  798MOL0     N10038   1.661   5.524   3.877 -0.0410 -0.8020 -0.0921
  798MOL0     C10039   0.543   5.554   3.513  0.8608  0.0059  1.0602
  798MOL0     C10040   0.479   5.617   3.404  0.2718  1.2060 -0.7241
  798MOL0     C10041   0.441   5.770   2.983 -0.7501  0.1100 -1.2089
  798MOL0     C10042   0.355   5.876   3.026 -0.2260 -0.7528  0.5892
  798MOL0     C10043   0.333   6.004   2.960 -0.7016  0.4772 -0.1145
  798MOL0     C10044   0.385   6.015   2.833 -0.3951 -0.2982  0.4063
  798MOL0     O10045   0.365   6.133   2.764 -0.9660 -0.2276  0.2613
  798MOL0     C10046   0.385   6.262   2.833 -0.1104 -0.4085  0.3953
  798MOL0     C10047   0.517   6.288   2.903  0.2086  0.3533  1.1458
  798MOL0     C10048   0.631   6.296   2.793 -0.3148 -0.2809  0.0222
  798MOL0     C10049   0.628   6.423   2.695 -0.6938  0.3150 -0.1860
  798MOL0     C10050   0.524   6.413   2.590 -0.4776  0.3750 -0.8813
  798MOL0     C10051   0.443   6.418   2.502 -0.1005  0.1223  0.3270
  798MOL0     C10052   0.454   5.907   2.774 -0.4852  0.2568  0.0493
  798MOL0     C10053   0.491   5.790   2.852 -0.2274 -0.7041  1.0654
  798MOL0     C10054   0.576   5.691   2.780 -0.4340  0.4678  0.5508
  798MOL0     H10055   0.435   5.348   3.207  1.9560 -0.4812 -0.1113
  798MOL0     H10056   0.527   5.237   3.381  1.2701  0.9874  1.4965
  798MOL0     H10057   0.558   5.287   3.777  0.6631 -2.7594 -2.0914
  798MOL0     H10058   0.601   5.463   3.761  0.7297  0.0235 -0.4514
  798MOL0     H10059   0.725   5.309   3.912  0.0661 -1.7558  0.6504
  798MOL0     H10060   0.768   5.215   3.771 -0.4604  0.3352 -1.8604
  798MOL0     H10061   0.852   5.463   3.669 -2.5893  1.9195  0.3976
  798MOL0     H10062   0.816   5.511   3.832 -2.7626  0.4234 -2.0964
  798MOL0     H10063   0.985   5.270   3.864  0.1557  1.0945  1.3995
  798MOL0     H10064   1.043   5.341   3.720  0.5567 -0.4878  1.0891
  798MOL0     H10065   1.031   5.452   3.997 -0.4941 -1.9764  0.8059
  798MOL0     H10066   1.064   5.558   3.851  1.6458 -1.1248 -2.6480
  798MOL0     H10067   1.222   5.332   3.952 -2.9275  0.8922  1.7709
  798MOL0     H10068   1.260   5.414   3.801  0.4841  0.8699 -0.4670
  798MOL0     H10069   1.258   5.545   4.073 -2.2554  1.7480 -1.2517
  798MOL0     H10070   1.283   5.627   3.912  0.2681 -0.3993 -1.4165
  798MOL0     H10071   1.484   5.564   4.061 -2.5931 -1.9034  3.2104
  798MOL0     H10072   1.464   5.398   4.025  1.1316  0.6194 -1.1517
  798MOL0     H10073   1.373   5.599   3.728  0.1986 -0.8518 -3.3000
  798MOL0     H10074   1.682   5.745   3.544  1.0100  0.8695 -1.8457
  798MOL0     H10075   1.523   5.784   3.601  1.4800 -1.4481  2.1913
  798MOL0     H10076   1.570   5.528   3.418 -2.6391 -0.4382 -0.5873
  798MOL0     H10077   1.419   5.595   3.479  0.0908 -0.8461  0.2762
  798MOL0     H10078   1.508   5.804   3.355  1.8258 -1.2462  1.5495
  798MOL0     H10079   1.620   5.689   3.289  1.2585  0.8792  2.1970
  798MOL0     H10080   1.443   5.573   3.180  2.7182  0.2713  2.0931
  798MOL0     H10081   1.320   5.646   3.292  0.0158 -0.5610  1.3161
  798MOL0     H10082   1.177   5.600   3.115  1.1195  0.9425 -0.0198
  798MOL0     H10083   0.958   5.538   3.046 -2.6693  0.4657  2.7180
  798MOL0     H10084   0.937   5.554   2.873 -1.5120  2.0109  0.6460
  798MOL0     H10085   0.865   5.680   2.980 -0.0681  1.3686 -0.3030
  798MOL0     H10086   0.768   5.818   2.585  3.5778 -1.3479 -0.9658
  798MOL0     H10087   0.580   5.932   2.462 -0.4370  1.2089  0.3125
  798MOL0     H10088   0.498   6.042   2.266  2.2949 -0.1175 -0.2272
  798MOL0     H10089   0.433   6.132   2.409  2.3400  0.0415  1.0986
  798MOL0     H10090   0.357   6.306   2.264  1.3719  0.4642 -0.3007
  798MOL0     H10091   0.467   6.261   2.141  0.8758  3.7489  1.9914
  798MOL0     H10092   0.205   6.106   2.222 -1.3823 -1.6386 -2.9575
  798MOL0     H10093   0.326   6.040   2.107  1.0592  0.7476 -0.6094
  798MOL0     H10094   0.290   6.200   1.939  1.1396 -0.8891  0.6245
  798MOL0     H10095   0.212   6.312   2.053 -2.2319 -0.9192  0.9950
  798MOL0     H10096   0.083   6.043   2.007 -0.9232 -0.2621 -1.1172
  798MOL0     H10097   0.010   6.189   2.050  0.3125 -5.3074  3.4491
  798MOL0     H10098  -0.035   6.127   1.823  1.6999 -2.6006  0.6829
  798MOL0     H10099   0.133   6.096   1.787  4.0143  2.6380  0.1311
  798MOL0     H10100   0.167   6.349   1.798  0.8301 -2.0452  0.3836
  798MOL0     H10101  -0.002   6.364   1.854 -0.5285  0.5969 -0.8221
  798MOL0     H10102   0.043   6.435   1.639 -2.5214  1.9687  0.5557
  798MOL0     H10103  -0.080   6.323   1.623  0.0487 -0.4476 -1.9571
  798MOL0     H10104   0.836   6.283   2.450  0.0952  0.1930 -0.1763
  798MOL0     H10105   1.003   6.166   2.589  0.7261 -0.9516 -0.9380
  798MOL0     H10106   1.231   5.906   2.735  0.9195  1.3027  0.8669
  798MOL0     H10107   1.400   5.900   2.919 -0.0516  0.1814  2.8855
  798MOL0     H10108   0.575   5.604   3.604 -1.5030  0.4069  1.7444
  798MOL0     H10109   0.450   5.721   3.409 -0.6166  0.9270  1.9413
  798MOL0     H10110   0.318   5.873   3.128  1.7167  1.7641  1.4836
  798MOL0     H10111   0.282   6.085   3.010  1.6884 -0.3954  4.2176
  798MOL0     H10112   0.359   6.348   2.770  1.7098  1.0018  1.4668
  798MOL0     H10113   0.314   6.264   2.916  3.0170 -2.0199  3.3717
  798MOL0     H10114   0.536   6.198   2.962 -0.9519 -1.8098 -1.5675
  798MOL0     H10115   0.509   6.368   2.977 -2.4551 -0.1770  1.5126
  798MOL0     H10116   0.727   6.290   2.846  1.0863 -2.2852 -2.5337
  798MOL0     H10117   0.626   6.207   2.730 -1.4620  0.1341 -0.4888
  798MOL0     H10118   0.728   6.436   2.653 -0.4383 -0.8397  0.0244
  798MOL0     H10119   0.597   6.518   2.740 -1.4451 -0.4400  0.9242
  798MOL0     H10120   0.368   6.425   2.426 -0.4184 -1.5841  0.4483
  798MOL0     H10121   0.491   5.936   2.676  0.4935 -0.1292  0.2974
  798MOL0     H10122   0.542   5.587   2.784  2.1297 -0.4876 -0.3758
  798MOL0     H10123   0.575   5.713   2.673  0.2451 -0.0248  0.4342
  798MOL0     H10124   0.682   5.680   2.804 -0.5108 -2.3595 -0.0521
  799MOL0     O10125   9.365   1.246   7.432  0.3013 -0.6632 -0.2361
  799MOL0     C10126   9.257   1.191   7.466 -0.2035 -1.1440 -0.2016
  799MOL0     O10127   9.130   1.265   7.487 -0.8416  0.4904 -0.0104
  799MOL0     C10128   9.142   1.400   7.493  0.8548 -0.6605  0.2195
  799MOL0     C10129   9.051   1.480   7.424  0.5509 -0.4415 -0.2796
  799MOL0     C10130   9.038   1.616   7.443  0.3042  0.5986 -0.5656
  799MOL0     C10131   9.115   1.683   7.542  0.0835 -0.7401  0.5523
  799MOL0     O10132   9.089   1.814   7.573  0.1252  0.7626  0.6809
  799MOL0     C10133   9.186   1.891   7.648  0.2162  0.8952 -0.2546
  799MOL0     C10134   9.126   1.974   7.759 -0.6689 -0.3873 -0.8980
  799MOL0     C10135   9.094   1.898   7.895  0.2912 -0.0642  0.9267
  799MOL0     C10136   8.990   1.969   7.983  0.2267  0.3073  0.5542
  799MOL0     C10137   8.843   1.994   7.940 -0.3663  0.3805  0.7347
  799MOL0     C10138   8.770   1.875   7.887 -0.1938  0.6011 -0.0113
  799MOL0     C10139   8.625   1.895   7.854  1.0591 -1.5134  0.1589
  799MOL0     C10140   8.567   1.774   7.793  0.1305 -0.5338  0.5406
  799MOL0     N10141   8.425   1.768   7.821  0.0936  0.0673  0.5937
  799MOL0     C10142   8.332   1.865   7.848  0.5566 -0.2777  0.5041
  799MOL0     C10143   8.230   1.794   7.903 -0.1071  0.5359  0.5298
  799MOL0     C10144   8.101   1.864   7.912 -0.6414 -0.3791  0.3026
  799MOL0     C10145   7.976   1.771   7.902 -0.0558 -0.7900 -0.7432
  799MOL0     C10146   7.858   1.855   7.859  0.0185  0.9381  0.5356
  799MOL0     C10147   7.829   1.974   7.953  0.2952  0.3904  0.1340
  799MOL0     O10148   7.687   2.009   7.974  1.2961 -0.1902 -0.5181
  799MOL0     C10149   7.622   2.079   7.872  0.1121 -0.8273  0.3274
  799MOL0     C10150   7.514   2.026   7.800  0.6502 -0.3503  0.0796
  799MOL0     C10151   7.440   2.101   7.707  0.3678 -0.0033  0.4463
  799MOL0     C10152   7.315   2.046   7.635  0.0668 -0.1154  0.2864
  799MOL0     C10153   7.477   2.236   7.687 -0.1999 -0.3846 -0.2538
  799MOL0     C10154   7.408   2.331   7.591  0.4748  0.1671  0.1965
  799MOL0     O10155   7.335   2.279   7.479  0.4165  0.8233 -0.0847
  799MOL0     C10156   7.291   2.386   7.400  0.2546  0.3967  1.3680
  799MOL0     C10157   7.159   2.412   7.421 -0.4087  0.0712  0.1452
  799MOL0     C10158   7.094   2.499   7.329  1.3864  0.5993 -0.2258
  799MOL0     C10159   7.168   2.586   7.247  0.0671 -0.1973 -0.2131
  799MOL0     O10160   7.124   2.688   7.167 -0.0867 -0.3677 -0.6670
  799MOL0     C10161   7.036   2.775   7.247  1.2945 -0.5265  0.2174
  799MOL0     C10162   6.885   2.743   7.221 -0.1448  0.0203  0.1504
  799MOL0     C10163   6.810   2.836   7.133 -0.2733 -0.3201 -0.0019
  799MOL0     C10164   6.791   2.976   7.181  0.0570  1.7325  0.2880
  799MOL0     C10165   6.671   3.043   7.105  0.3794  0.5180 -1.0486
  799MOL0     C10166   6.648   3.189   7.132 -1.0209 -0.7555 -0.0671
  799MOL0     C10167   6.555   3.245   7.021 -0.2374 -0.4017  0.8065
  799MOL0     C10168   6.547   3.400   7.035  0.1122  0.0497  0.0387
  799MOL0    Cl10169   6.379   3.439   7.091 -0.4083 -0.0234 -0.1233
  799MOL0     C10170   7.296   2.557   7.234  0.0210  0.1864  0.5762
  799MOL0     C10171   7.364   2.454   7.300 -1.3306 -0.5758  0.0719
  799MOL0     O10172   7.427   2.452   7.610  0.3591  0.0892  0.7333
  799MOL0     C10173   7.594   2.287   7.759 -0.1948 -0.0730 -0.0025
  799MOL0     C10174   7.665   2.210   7.853  0.7353  0.6000  0.5525
  799MOL0     N10175   8.257   1.661   7.881 -1.2097 -0.8617  0.0539
  799MOL0     N10176   8.371   1.647   7.835 -0.1267 -0.9272  0.5298
  799MOL0     C10177   9.197   1.597   7.625 -0.1243 -1.5614  0.2195
  799MOL0     C10178   9.205   1.463   7.596  0.4475 -0.7392  0.5647
  799MOL0     C10179   9.261   1.048   7.491  0.6837 -0.8322  0.6999
  799MOL0     C10180   9.136   0.991   7.544 -1.5651 -0.0092 -0.0671
  799MOL0     C10181   9.134   0.854   7.579  0.0812 -0.4028  0.2613
  799MOL0     C10182   9.240   0.769   7.562  0.3965  0.7116  0.8368
  799MOL0     O10183   9.212   0.638   7.600 -0.0741 -0.3369  0.4636
  799MOL0     C10184   9.319   0.542   7.580  0.0349 -0.6818  0.6333
  799MOL0     C10185   9.274   0.407   7.642  0.6478  0.1156 -0.2650
  799MOL0     C10186   9.256   0.409   7.788 -0.6292 -0.2335  0.4770
  799MOL0     C10187   9.373   0.369   7.881  0.4294 -0.7845 -0.0512
  799MOL0     C10188   9.402   0.230   7.860  0.4343  0.7613  0.3043
  799MOL0     C10189   9.414   0.112   7.829  0.0952  0.4810 -0.3064
  799MOL0     C10190   9.360   0.815   7.504  0.6598 -0.5008  0.5052
  799MOL0     C10191   9.373   0.958   7.480  0.3760 -0.0063  0.0516
  799MOL0     C10192   9.508   0.999   7.426  0.0742  0.9968  0.1027
  799MOL0     H10193   8.994   1.438   7.342 -1.9970 -0.6820  1.4956
  799MOL0     H10194   8.973   1.668   7.373 -0.3942 -0.1659 -0.4988
  799MOL0     H10195   9.223   1.959   7.571 -1.2683 -0.5604 -2.3686
  799MOL0     H10196   9.281   1.847   7.681  0.0192  0.9799  0.4464
  799MOL0     H10197   9.208   2.042   7.783 -2.3465  0.7325  2.2093
  799MOL0     H10198   9.031   2.019   7.728 -0.5055  0.9155  0.3563
  799MOL0     H10199   9.057   1.802   7.861  2.1042 -0.4829 -0.0110
  799MOL0     H10200   9.181   1.871   7.957  1.2769  2.7536  0.9447
  799MOL0     H10201   8.971   1.902   8.067  1.9563 -0.4838  0.3450
  799MOL0     H10202   9.029   2.061   8.026 -1.4959  1.5725 -0.4752
  799MOL0     H10203   8.843   2.063   7.855  1.5218  1.1784  1.3364
  799MOL0     H10204   8.789   2.040   8.023 -2.7867  2.7873 -1.9271
  799MOL0     H10205   8.814   1.848   7.790  0.3363 -1.7627  0.8283
  799MOL0     H10206   8.774   1.801   7.968  1.8674 -2.7107 -2.8608
  799MOL0     H10207   8.617   1.978   7.783  0.1093 -1.5859  0.1763
  799MOL0     H10208   8.578   1.914   7.951 -3.4242  0.8163 -2.1806
  799MOL0     H10209   8.570   1.770   7.684 -0.7240 -3.1040  0.5506
  799MOL0     H10210   8.616   1.685   7.835 -0.9470 -0.9592  0.9223
  799MOL0     H10211   8.340   1.971   7.825  2.6588 -0.7415 -1.3307
  799MOL0     H10212   8.103   1.936   7.830 -0.3770  0.5455  1.1042
  799MOL0     H10213   8.097   1.939   7.992  0.8058  1.9559 -1.6935
  799MOL0     H10214   7.970   1.691   7.829 -2.8666 -1.6500  0.2873
  799MOL0     H10215   7.963   1.718   7.997 -1.0209 -1.7360 -1.3836
  799MOL0     H10216   7.883   1.905   7.765 -0.2760  0.0308 -0.0382
  799MOL0     H10217   7.771   1.793   7.835  2.1762 -2.8745  1.6810
  799MOL0     H10218   7.871   1.950   8.051 -1.5467  0.1795  0.8989
  799MOL0     H10219   7.902   2.049   7.920  1.8558 -1.5887 -1.1975
  799MOL0     H10220   7.492   1.920   7.809  4.8360 -1.5258 -1.2736
  799MOL0     H10221   7.222   2.102   7.651  1.0287  1.7647 -0.4509
  799MOL0     H10222   7.287   1.946   7.671  0.7409  0.7367  3.4843
  799MOL0     H10223   7.327   2.045   7.527 -0.9686  1.8221  0.1201
  799MOL0     H10224   7.110   2.358   7.501  1.7735 -2.0192  0.1740
  799MOL0     H10225   6.989   2.515   7.346  0.7979 -2.2877 -0.6458
  799MOL0     H10226   7.055   2.759   7.353  3.8823 -2.9706 -0.5061
  799MOL0     H10227   7.051   2.879   7.216 -1.0551 -0.8330 -2.4018
  799MOL0     H10228   6.890   2.654   7.158  1.4209 -2.2251  3.2020
  799MOL0     H10229   6.838   2.718   7.317  2.8320  0.0093  1.7485
  799MOL0     H10230   6.707   2.806   7.112 -0.2347  0.1682 -0.9360
  799MOL0     H10231   6.851   2.829   7.032 -4.1789 -1.1552 -1.7233
  799MOL0     H10232   6.887   3.028   7.171  2.4053 -2.4761 -1.5875
  799MOL0     H10233   6.770   2.979   7.288  0.2957  1.9685  0.3289
  799MOL0     H10234   6.689   3.032   6.997 -2.1340 -0.3820 -1.4518
  799MOL0     H10235   6.584   2.981   7.129  0.3494  0.6967 -0.6940
  799MOL0     H10236   6.740   3.247   7.132  0.0850 -2.2269 -3.4065
  799MOL0     H10237   6.605   3.201   7.232 -2.9467 -1.5843 -0.7342
  799MOL0     H10238   6.456   3.201   7.033 -0.7313 -0.1907 -1.9524
  799MOL0     H10239   6.582   3.217   6.919 -1.9554  1.5302 -0.2598
  799MOL0     H10240   6.556   3.458   6.943 -3.8297  1.3395  0.2700
  799MOL0     H10241   6.624   3.421   7.109  1.2245 -2.5364 -0.2560
  799MOL0     H10242   7.356   2.616   7.166  0.7632 -1.1641  0.0301
  799MOL0     H10243   7.469   2.434   7.282 -1.5667 -1.1343 -0.7043
  799MOL0     H10244   7.622   2.391   7.746  0.8753  0.1698  3.3142
  799MOL0     H10245   7.750   2.254   7.906  1.7056  2.2252 -2.1440
  799MOL0     H10246   9.251   1.621   7.716  1.2447  0.6855 -1.0886
  799MOL0     H10247   9.257   1.412   7.677 -0.6484 -0.6927  1.3211
  799MOL0     H10248   9.050   1.058   7.537  0.6554  2.9774 -1.3492
  799MOL0     H10249   9.038   0.811   7.607 -0.0105  0.3898  1.1985
  799MOL0     H10250   9.331   0.519   7.474  0.0997 -3.4832  1.1757
  799MOL0     H10251   9.407   0.578   7.635 -2.2509 -0.2208  4.3192
  799MOL0     H10252   9.353   0.339   7.610  1.8856  1.7581 -0.8662
  799MOL0     H10253   9.175   0.384   7.601  0.0085  2.0656  0.0683
  799MOL0     H10254   9.238   0.513   7.817  0.0282 -0.3877  1.4974
  799MOL0     H10255   9.159   0.370   7.820 -2.4914  2.9532 -0.7497
  799MOL0     H10256   9.354   0.388   7.987  2.1405  0.3657  0.0849
  799MOL0     H10257   9.464   0.424   7.855  1.1951 -2.4422 -1.0659
  799MOL0     H10258   9.421   0.018   7.778 -1.8471 -0.4901  1.0612
  799MOL0     H10259   9.451   0.757   7.499  1.1025 -0.0515  2.5422
  799MOL0     H10260   9.494   1.037   7.324 -2.5960 -0.2236 -0.0800
  799MOL0     H10261   9.558   1.070   7.493 -1.2139  0.7788  1.3618
  799MOL0     H10262   9.572   0.911   7.414 -0.1177  0.7601  0.7326
  800MOL0     O10263   8.696   4.352   1.147 -0.4442  0.6099  0.6975
  800MOL0     C10264   8.717   4.343   1.029 -0.6371 -0.9557 -0.5287
  800MOL0     O10265   8.706   4.448   0.948  0.3351  0.5177 -0.9393
  800MOL0     C10266   8.666   4.581   0.988 -0.5908  0.9114  0.3986
  800MOL0     C10267   8.570   4.611   1.078 -0.0790  0.0345  0.0051
  800MOL0     C10268   8.510   4.741   1.082 -0.3430 -0.7107 -0.1271
  800MOL0     C10269   8.555   4.854   1.007 -1.1168 -0.3755 -1.1255
  800MOL0     O10270   8.524   4.984   1.032 -0.6192  0.8767 -0.3463
  800MOL0     C10271   8.386   5.018   1.027  0.3694  1.0604 -0.1779
  800MOL0     C10272   8.368   5.168   1.006  0.2323  0.3482  0.3931
  800MOL0     C10273   8.438   5.210   0.872 -1.3437  0.6345  0.4920
  800MOL0     C10274   8.415   5.353   0.832  0.1134  0.3735 -0.1119
  800MOL0     C10275   8.478   5.378   0.704  0.4915  0.0976  0.5518
  800MOL0     C10276   8.451   5.526   0.659 -0.0438 -0.4532  0.8456
  800MOL0     C10277   8.489   5.557   0.518 -0.0595  0.6606  0.4888
  800MOL0     C10278   8.399   5.671   0.452  0.0623  0.3962 -0.6708
  800MOL0     N10279   8.458   5.720   0.337 -0.0426 -0.3821 -0.4196
  800MOL0     C10280   8.457   5.658   0.218  0.0469 -0.1060  0.0646
  800MOL0     C10281   8.532   5.737   0.139  0.4854  0.1239  0.1344
  800MOL0     C10282   8.559   5.703   0.002  0.1137  0.3378 -0.3272
  800MOL0     C10283   8.715   5.700  -0.030 -0.3488 -0.4738  0.5537
  800MOL0     C10284   8.736   5.731  -0.179 -0.0054 -1.1989 -0.2425
  800MOL0     C10285   8.853   5.645  -0.235  0.4909 -0.7647 -0.3881
  800MOL0     O10286   8.804   5.522  -0.304  0.3690  0.2231  0.2593
  800MOL0     C10287   8.908   5.430  -0.332  0.6181  0.0756 -0.5294
  800MOL0     C10288   9.046   5.435  -0.302 -0.7926 -0.2199 -0.4893
  800MOL0     C10289   9.136   5.329  -0.327 -0.0037  0.2940 -0.2231
  800MOL0     C10290   9.284   5.335  -0.287  0.0030 -1.0257  0.2006
  800MOL0     C10291   9.087   5.210  -0.374 -0.5255 -0.5721 -0.0906
  800MOL0     C10292   9.161   5.079  -0.362  0.4452  0.2470  0.4997
  800MOL0     O10293   9.270   5.063  -0.280  1.2220 -0.3211  0.3010
  800MOL0     C10294   9.335   4.943  -0.293 -0.2389  0.6212  0.1811
  800MOL0     C10295   9.317   4.837  -0.200 -0.7439 -0.5851 -0.7149
  800MOL0     C10296   9.375   4.717  -0.210 -0.0525 -0.2816 -0.4588
  800MOL0     C10297   9.464   4.688  -0.310  0.0142  0.7935  0.2469
  800MOL0     O10298   9.543   4.570  -0.318  0.3046  0.2483 -0.2883
  800MOL0     C10299   9.560   4.496  -0.196  1.1604  0.8219  0.1032
  800MOL0     C10300   9.654   4.380  -0.235  0.4743 -0.7378 -0.6779
  800MOL0     C10301   9.624   4.296  -0.352  0.0945  0.4649  0.8641
  800MOL0     C10302   9.483   4.248  -0.359  0.1393  0.6087 -0.1543
  800MOL0     C10303   9.455   4.171  -0.488  0.2698  0.1983  0.3849
  800MOL0     C10304   9.305   4.154  -0.507  0.2652 -0.7217 -0.1962
  800MOL0     C10305   9.283   4.120  -0.658 -0.6616 -0.2330  0.8941
  800MOL0     C10306   9.131   4.131  -0.671 -1.3037  0.3973 -0.2486
  800MOL0    Cl10307   9.071   3.980  -0.606  0.1200  0.5933 -0.1349
  800MOL0     C10308   9.479   4.782  -0.418  0.1776  0.5987 -1.0615
  800MOL0     C10309   9.420   4.912  -0.402  0.1963 -0.6476 -0.7306
  800MOL0     O10310   9.114   4.983  -0.430 -0.1527 -0.8740 -0.7142
  800MOL0     C10311   8.951   5.215  -0.421 -0.7831 -1.1400  0.2949
  800MOL0     C10312   8.865   5.319  -0.391  0.7126 -0.8234 -0.2334
  800MOL0     N10313   8.568   5.853   0.207 -0.2011  0.5114  0.5288
  800MOL0     N10314   8.527   5.843   0.325 -0.9163  0.9544 -0.6996
  800MOL0     C10315   8.662   4.818   0.924  0.2571  0.2163  0.4116
  800MOL0     C10316   8.708   4.682   0.903 -0.0043 -0.2899 -0.1246
  800MOL0     C10317   8.772   4.208   0.983  0.5060 -0.5633 -0.3825
  800MOL0     C10318   8.737   4.179   0.855  0.7330  0.1748  0.9792
  800MOL0     C10319   8.778   4.058   0.791 -0.2961 -0.4144  0.2744
  800MOL0     C10320   8.861   3.969   0.866  0.1421 -1.3097  0.2837
  800MOL0     O10321   8.921   3.857   0.827  0.4831  0.1480 -0.2110
  800MOL0     C10322   8.921   3.819   0.682 -0.9368 -0.7890  0.5919
  800MOL0     C10323   8.996   3.689   0.671 -0.2906  1.0322 -0.2296
  800MOL0     C10324   8.959   3.576   0.773  0.3333  0.4551  0.8047
  800MOL0     C10325   9.066   3.471   0.770 -0.2744  0.6483 -0.3374
  800MOL0     C10326   9.043   3.371   0.660  0.1257 -1.2606 -0.3809
  800MOL0     C10327   9.033   3.287   0.576 -0.7533  1.0691  0.0139
  800MOL0     C10328   8.894   4.002   1.001  0.1400 -0.9853  1.0709
  800MOL0     C10329   8.856   4.127   1.057  0.2459  0.8871 -1.5190
  800MOL0     C10330   8.903   4.151   1.204 -0.0602 -0.2828 -0.0910
  800MOL0     H10331   8.538   4.529   1.142 -1.1103 -1.2933 -2.1068
  800MOL0     H10332   8.428   4.748   1.153  0.1666  0.1005  0.3938
  800MOL0     H10333   8.358   4.993   1.130 -1.6522  2.4828 -0.3145
  800MOL0     H10334   8.344   4.959   0.945  0.6415  2.5964 -1.4503
  800MOL0     H10335   8.259   5.182   1.003  0.1306 -0.4478 -0.0022
  800MOL0     H10336   8.404   5.225   1.092  2.3935 -0.5619  0.1421
  800MOL0     H10337   8.547   5.206   0.877 -1.2271 -0.2242 -1.6998
  800MOL0     H10338   8.424   5.141   0.788 -1.1260  0.1371  0.8561
  800MOL0     H10339   8.308   5.377   0.830  0.3632  2.6030  3.6849
  800MOL0     H10340   8.462   5.417   0.907 -0.5520  1.7967 -0.8809
  800MOL0     H10341   8.452   5.308   0.624 -2.4564  3.0132 -1.3380
  800MOL0     H10342   8.585   5.370   0.720 -0.0043 -2.7826  3.2301
  800MOL0     H10343   8.344   5.549   0.665 -0.3041 -0.3619 -2.3818
  800MOL0     H10344   8.510   5.587   0.727 -0.5907 -0.5595  1.4268
  800MOL0     H10345   8.483   5.467   0.456 -0.9687  0.9982  0.0581
  800MOL0     H10346   8.593   5.588   0.526 -0.0737  1.1818 -1.0222
  800MOL0     H10347   8.297   5.639   0.428 -1.0119  1.6793  1.7415
  800MOL0     H10348   8.389   5.763   0.511 -1.3943 -0.0344 -0.1917
  800MOL0     H10349   8.409   5.564   0.195  0.2636 -0.8403  2.3987
  800MOL0     H10350   8.504   5.777  -0.056 -1.7278  0.4610  1.4769
  800MOL0     H10351   8.521   5.606  -0.033  1.7544 -0.6142  0.4328
  800MOL0     H10352   8.762   5.775   0.033  0.6673 -2.7374  2.6815
  800MOL0     H10353   8.764   5.604  -0.008 -0.3875 -0.4921  0.5576
  800MOL0     H10354   8.647   5.703  -0.237 -0.4586 -0.4825  0.0815
  800MOL0     H10355   8.755   5.838  -0.193  0.7741 -1.3058 -0.0065
  800MOL0     H10356   8.904   5.712  -0.304  0.0721 -2.8777 -2.8775
  800MOL0     H10357   8.918   5.617  -0.151 -2.2788  1.9624  2.9769
  800MOL0     H10358   9.078   5.530  -0.261 -2.2080  0.3168 -0.5525
  800MOL0     H10359   9.353   5.276  -0.348 -0.6732 -2.8108  1.0917
  800MOL0     H10360   9.287   5.321  -0.179  0.2936  3.1551  0.9054
  800MOL0     H10361   9.324   5.435  -0.304  2.5236 -1.8851  0.5520
  800MOL0     H10362   9.264   4.846  -0.106 -1.1732  0.2521 -1.0283
  800MOL0     H10363   9.362   4.643  -0.131  2.4108 -1.2526 -0.8737
  800MOL0     H10364   9.596   4.567  -0.122 -1.6792  3.7597 -1.1187
  800MOL0     H10365   9.473   4.443  -0.157  3.3006 -0.5589  3.3700
  800MOL0     H10366   9.754   4.423  -0.242  0.7856 -0.8850  1.9721
  800MOL0     H10367   9.665   4.313  -0.150 -2.3094  0.3723  0.6808
  800MOL0     H10368   9.676   4.200  -0.345 -3.7237 -1.7287  2.5138
  800MOL0     H10369   9.663   4.345  -0.442  0.2678 -2.3910 -0.7483
  800MOL0     H10370   9.413   4.332  -0.361 -2.6337 -1.4827  1.0719
  800MOL0     H10371   9.450   4.202  -0.265 -0.6362  1.8011  0.1834
  800MOL0     H10372   9.502   4.213  -0.577  1.1823  0.3477  0.9281
  800MOL0     H10373   9.507   4.075  -0.474  1.2657  0.0763 -3.1093
  800MOL0     H10374   9.262   4.253  -0.488  1.8530  0.5855 -2.8171
  800MOL0     H10375   9.269   4.082  -0.434  1.8001 -2.0861 -0.7336
  800MOL0     H10376   9.318   4.022  -0.691 -1.2689 -0.3718  0.6524
  800MOL0     H10377   9.336   4.193  -0.720  0.5590 -3.0281 -1.5754
  800MOL0     H10378   9.099   4.139  -0.775 -1.4945  2.6003 -0.0661
  800MOL0     H10379   9.076   4.211  -0.621  0.1153  0.1945  1.7671
  800MOL0     H10380   9.533   4.757  -0.509 -1.3965  1.6757 -2.3463
  800MOL0     H10381   9.456   4.997  -0.461  1.5943  0.3806  1.4726
  800MOL0     H10382   8.913   5.122  -0.463  2.7004 -2.5484 -0.1303
  800MOL0     H10383   8.765   5.309  -0.433  0.7304  1.6107 -1.0376
  800MOL0     H10384   8.705   4.891   0.856 -1.0378  2.1876  1.5833
  800MOL0     H10385   8.780   4.642   0.833 -4.1828 -4.3871 -2.7322
  800MOL0     H10386   8.676   4.248   0.797  1.6887 -0.1582 -0.4625
  800MOL0     H10387   8.752   4.024   0.691  1.5426  0.9070 -0.7053
  800MOL0     H10388   8.818   3.818   0.646 -0.7244 -0.8079 -0.0240
  800MOL0     H10389   8.975   3.899   0.630 -3.7588  1.6091  1.0775
  800MOL0     H10390   9.102   3.713   0.670 -0.0464  0.1080 -2.0717
  800MOL0     H10391   8.973   3.669   0.565  0.1624 -0.9216  0.0060
  800MOL0     H10392   8.957   3.605   0.879 -3.8399 -1.6304  1.5194
  800MOL0     H10393   8.863   3.541   0.736  0.8178  1.6261 -1.7731
  800MOL0     H10394   9.075   3.427   0.870 -1.6191 -0.0266 -0.4839
  800MOL0     H10395   9.165   3.514   0.753  1.5504 -2.4234  1.4833
  800MOL0     H10396   9.027   3.216   0.497  1.3349  1.7939 -0.8691
  800MOL0     H10397   8.957   3.950   1.073 -1.4138  0.8249  3.9374
  800MOL0     H10398   8.971   4.078   1.249  2.9987  2.1820 -0.4098
  800MOL0     H10399   8.966   4.239   1.195  1.1579 -1.3420 -3.0032
  800MOL0     H10400   8.820   4.177   1.271 -0.9674  0.9219 -1.5972
  801MOL0     O10401   4.556   9.718   1.141 -0.9702  0.1178 -0.2216
  801MOL0     C10402   4.474   9.704   1.051 -0.2055 -0.6946  0.6743
  801MOL0     O10403   4.367   9.789   1.026 -0.2361  0.5042 -0.1495
  801MOL0     C10404   4.301   9.856   1.130  1.0178 -0.3256 -0.3982
  801MOL0     C10405   4.213   9.960   1.090  0.0922  1.1758 -0.1231
  801MOL0     C10406   4.156  10.035   1.187  0.2210  0.3304  0.6424
  801MOL0     C10407   4.146   9.998   1.315  0.0316 -0.4039  0.2007
  801MOL0     O10408   4.058  10.064   1.400  0.1438  0.6823 -0.1991
  801MOL0     C10409   4.077  10.047   1.534 -0.4042 -0.1917 -0.3377
  801MOL0     C10410   3.996  10.150   1.613  0.3763  0.2429  0.2229
  801MOL0     C10411   3.943  10.086   1.742  0.3112 -0.8500  0.3338
  801MOL0     C10412   3.864  10.189   1.829 -0.0657  0.8250 -0.5633
  801MOL0     C10413   3.747  10.134   1.917 -0.9950 -0.0132  0.1736
  801MOL0     C10414   3.792  10.037   2.032  0.7387  0.1582  0.0055
  801MOL0     C10415   3.672  10.022   2.129  0.2169 -0.5619 -0.2278
  801MOL0     C10416   3.567   9.914   2.080  1.3283  0.4208  0.2731
  801MOL0     N10417   3.465   9.889   2.182  0.2480 -0.1671 -0.6344
  801MOL0     C10418   3.329   9.881   2.173 -0.2409 -0.1491  0.5693
  801MOL0     C10419   3.279   9.835   2.294  0.8259 -0.1033 -0.0212
  801MOL0     C10420   3.137   9.820   2.328 -0.4113 -0.4394 -0.0634
  801MOL0     C10421   3.076   9.962   2.361  0.0979 -0.9069 -0.9271
  801MOL0     C10422   2.935   9.959   2.417 -0.1275  0.7161 -0.0962
  801MOL0     C10423   2.879  10.082   2.485 -1.3646 -0.2061 -0.0295
  801MOL0     O10424   2.887  10.194   2.394  1.1820 -0.8380 -0.0336
  801MOL0     C10425   2.865  10.326   2.421 -0.1085  0.9306 -0.2636
  801MOL0     C10426   2.924  10.381   2.529  0.3764 -0.5776  0.9136
  801MOL0     C10427   2.908  10.520   2.559 -0.1563 -0.8489 -0.4352
  801MOL0     C10428   3.004  10.578   2.658 -0.3693  0.2482 -0.3487
  801MOL0     C10429   2.818  10.594   2.468 -0.2225 -0.2292 -0.8653
  801MOL0     C10430   2.785  10.740   2.492  0.2354 -0.3046  0.3449
  801MOL0     O10431   2.773  10.821   2.381  0.0419  0.5544 -0.0213
  801MOL0     C10432   2.780  10.964   2.397  0.0841 -0.3947  0.1892
  801MOL0     C10433   2.686  11.041   2.466  0.7333  0.1803 -0.7521
  801MOL0     C10434   2.707  11.170   2.496  0.7267 -1.2139 -0.8239
  801MOL0     C10435   2.817  11.241   2.447  0.0938 -0.7225 -0.8703
  801MOL0     O10436   2.822  11.373   2.482 -0.1257  0.4100 -0.0721
  801MOL0     C10437   2.909  11.456   2.417  0.6169 -0.8154  0.2696
  801MOL0     C10438   2.884  11.596   2.477 -0.6755  0.2999 -0.2285
  801MOL0     C10439   2.866  11.696   2.370  0.2017 -0.4581  0.1741
  801MOL0     C10440   2.869  11.832   2.440 -0.1717 -0.0696 -0.5416
  801MOL0     C10441   2.892  11.953   2.348  0.1283 -0.4344  0.3267
  801MOL0     C10442   2.930  12.078   2.418 -0.2083  0.0942 -0.4929
  801MOL0     C10443   2.994  12.174   2.326 -0.3255  0.0903 -0.0006
  801MOL0     C10444   3.047  12.292   2.404  1.3323  0.8220  0.3043
  801MOL0    Cl10445   3.192  12.372   2.335  0.2813  0.6275 -0.6082
  801MOL0     C10446   2.925  11.165   2.389 -0.4380  0.1040 -0.2798
  801MOL0     C10447   2.895  11.026   2.359 -0.3304 -0.8133  0.3014
  801MOL0     O10448   2.763  10.778   2.605  0.3341 -0.3458 -0.6481
  801MOL0     C10449   2.766  10.531   2.354  0.5485  0.5426  0.4028
  801MOL0     C10450   2.788  10.402   2.328 -0.6721  0.6766 -0.8718
  801MOL0     N10451   3.385   9.796   2.364 -0.4370  0.2840 -0.4918
  801MOL0     N10452   3.492   9.841   2.304 -0.3175  0.6088 -1.2844
  801MOL0     C10453   4.215   9.882   1.351  0.2055 -1.0883 -0.3866
  801MOL0     C10454   4.302   9.811   1.266 -0.1556 -0.4122 -0.4321
  801MOL0     C10455   4.500   9.590   0.953  0.1416 -0.2213  0.0925
  801MOL0     C10456   4.522   9.624   0.820  0.6438  0.2400  0.1188
  801MOL0     C10457   4.527   9.528   0.719 -0.8498 -0.1351 -0.2784
  801MOL0     C10458   4.528   9.386   0.745 -0.0547 -0.1310 -1.1564
  801MOL0     O10459   4.547   9.283   0.654  0.3755 -0.7597 -1.2858
  801MOL0     C10460   4.556   9.308   0.511  0.2820  0.2217 -0.8953
  801MOL0     C10461   4.697   9.348   0.462  0.3090  0.1579 -0.9761
  801MOL0     C10462   4.807   9.271   0.541 -0.2477  0.2540 -0.0239
  801MOL0     C10463   4.940   9.284   0.459 -1.2048  0.0186  0.0155
  801MOL0     C10464   4.999   9.422   0.484 -0.0911 -0.6040  0.4209
  801MOL0     C10465   5.024   9.546   0.488 -0.4303 -0.0371  0.0550
  801MOL0     C10466   4.527   9.359   0.886 -0.3610  0.2616  0.6623
  801MOL0     C10467   4.521   9.452   0.991  0.8578  0.4087  0.7721
  801MOL0     C10468   4.505   9.417   1.137 -1.1164  0.3654  0.3730
  801MOL0     H10469   4.207   9.995   0.987 -0.4424 -2.7133 -1.5681
  801MOL0     H10470   4.132  10.136   1.154 -1.2948 -0.6570 -1.5634
  801MOL0     H10471   4.181  10.060   1.566 -0.5540  0.0644  0.0567
  801MOL0     H10472   4.043   9.948   1.565  0.6155 -0.1955  0.8415
  801MOL0     H10473   4.060  10.236   1.636  0.6410  0.2805 -0.6227
  801MOL0     H10474   3.916  10.186   1.548 -0.5359 -0.1900  1.0797
  801MOL0     H10475   3.877  10.004   1.714  1.2150 -1.2689 -0.6791
  801MOL0     H10476   4.028  10.048   1.800  2.0672  1.7904 -0.3352
  801MOL0     H10477   3.937  10.238   1.894  1.5139 -1.1464 -0.7513
  801MOL0     H10478   3.821  10.271   1.772 -0.4184  0.9713 -0.0981
  801MOL0     H10479   3.681  10.081   1.847 -1.6792 -0.4080  1.1021
  801MOL0     H10480   3.693  10.222   1.954  1.6447  0.9954  1.9000
  801MOL0     H10481   3.822   9.936   2.000 -3.0577 -0.5379 -1.8908
  801MOL0     H10482   3.879  10.083   2.080  0.8801 -0.9853  0.8945
  801MOL0     H10483   3.631  10.121   2.146  3.7732  0.6064  2.9427
  801MOL0     H10484   3.708   9.977   2.222 -0.9303  0.2898  0.6459
  801MOL0     H10485   3.513   9.950   1.992 -0.6419 -3.3684 -0.2948
  801MOL0     H10486   3.635   9.830   2.068  1.0453  0.4878 -2.1305
  801MOL0     H10487   3.262   9.924   2.099  1.2506  3.2729  1.0006
  801MOL0     H10488   3.124   9.760   2.419 -0.5849 -1.8928 -1.0177
  801MOL0     H10489   3.069   9.781   2.252 -2.1079  3.0560 -0.5535
  801MOL0     H10490   3.141  10.011   2.434 -0.4222 -1.0430 -0.3648
  801MOL0     H10491   3.078  10.015   2.265  3.8993 -0.6634 -0.8495
  801MOL0     H10492   2.857   9.943   2.342  2.8657  4.0397 -4.4698
  801MOL0     H10493   2.928   9.879   2.491  0.7361  0.2031 -0.5489
  801MOL0     H10494   2.777  10.067   2.521 -1.1058  1.4665  1.5841
  801MOL0     H10495   2.926  10.100   2.582  0.0939  1.2606 -0.9535
  801MOL0     H10496   2.981  10.309   2.588  1.6860  0.0850  0.5143
  801MOL0     H10497   2.994  10.535   2.759  0.8638 -0.9193 -0.6975
  801MOL0     H10498   2.970  10.681   2.663 -1.7405 -0.2044  0.2738
  801MOL0     H10499   3.108  10.569   2.626 -0.7624 -1.5295 -1.3036
  801MOL0     H10500   2.612  10.981   2.519 -1.8234  4.1488  0.5509
  801MOL0     H10501   2.624  11.211   2.553 -0.0000 -2.4155 -0.9753
  801MOL0     H10502   3.014  11.427   2.423  1.0901  0.3661 -1.3609
  801MOL0     H10503   2.896  11.451   2.308  4.1329  1.9026 -0.4750
  801MOL0     H10504   2.797  11.595   2.543  0.7778  2.8151  1.9258
  801MOL0     H10505   2.960  11.615   2.554 -1.2286  0.4172  0.2946
  801MOL0     H10506   2.774  11.685   2.311  0.9278 -1.2571 -0.8566
  801MOL0     H10507   2.945  11.686   2.294 -0.5218  0.1234 -0.6807
  801MOL0     H10508   2.949  11.837   2.514 -2.8280 -1.6465  2.7255
  801MOL0     H10509   2.780  11.838   2.503  1.1265  0.6902  1.3171
  801MOL0     H10510   2.964  11.925   2.271  2.2355  2.7483  0.9274
  801MOL0     H10511   2.799  11.970   2.293  2.3491  0.7368 -3.4649
  801MOL0     H10512   3.006  12.056   2.494 -0.9562 -2.8524 -0.4671
  801MOL0     H10513   2.838  12.124   2.454 -0.3344  0.0492 -0.7576
  801MOL0     H10514   2.922  12.214   2.254 -1.5101 -1.0041  0.5464
  801MOL0     H10515   3.080  12.120   2.287 -0.4963 -0.9452  0.9972
  801MOL0     H10516   3.077  12.261   2.505  1.2603  1.8504  0.6522
  801MOL0     H10517   2.964  12.362   2.416 -0.9255 -1.5376 -0.5389
  801MOL0     H10518   3.022  11.204   2.362  0.6087 -0.4872  2.2370
  801MOL0     H10519   2.979  10.968   2.323  0.2569 -0.3642  0.9083
  801MOL0     H10520   2.693  10.588   2.298  1.6673  1.0420 -0.5865
  801MOL0     H10521   2.753  10.360   2.234  1.1059 -1.8844 -0.4815
  801MOL0     H10522   4.196   9.826   1.443  3.5252 -1.7002  0.0564
  801MOL0     H10523   4.353   9.723   1.304 -0.0259  0.5966  1.9302
  801MOL0     H10524   4.504   9.726   0.788 -0.6701 -0.5327 -1.8221
  801MOL0     H10525   4.537   9.570   0.619 -1.4495 -2.1842 -1.2518
  801MOL0     H10526   4.530   9.215   0.459 -1.0546  0.9786 -1.6249
  801MOL0     H10527   4.482   9.384   0.485 -1.1746 -1.4916 -2.0364
  801MOL0     H10528   4.715   9.456   0.469  2.4567  0.1403 -4.1986
  801MOL0     H10529   4.704   9.313   0.358 -0.7580 -1.8666 -0.4246
  801MOL0     H10530   4.829   9.322   0.635  2.0987 -0.5570 -0.0659
  801MOL0     H10531   4.797   9.163   0.557  0.6049  0.2436  0.5237
  801MOL0     H10532   4.917   9.258   0.356 -0.0010  0.1883 -0.3102
  801MOL0     H10533   5.016   9.216   0.498  1.0377  1.6656 -1.2382
  801MOL0     H10534   5.042   9.651   0.497 -2.8457  0.5354 -1.0303
  801MOL0     H10535   4.538   9.254   0.911  2.1458 -0.0919 -1.4501
  801MOL0     H10536   4.396   9.425   1.149 -1.3662 -2.8382  1.2190
  801MOL0     H10537   4.535   9.312   1.146 -0.3600  0.3958 -1.4198
  801MOL0     H10538   4.570   9.478   1.201 -0.7671 -1.5313  1.9297
  802MOL0     O10539  10.304   1.038   4.410  0.3803  1.2553  0.2699
  802MOL0     C10540  10.393   1.071   4.342 -0.6372  0.5368 -0.2148
  802MOL0     O10541  10.427   1.205   4.322 -0.2045  0.0055 -0.9477
  802MOL0     C10542  10.362   1.306   4.377  0.2934 -0.3334  0.0390
  802MOL0     C10543  10.388   1.344   4.510 -0.5347 -0.0111 -0.4936
  802MOL0     C10544  10.325   1.454   4.568  0.5909 -0.1235 -0.0835
  802MOL0     C10545  10.228   1.521   4.491 -0.7459  0.1275 -0.4842
  802MOL0     O10546  10.140   1.611   4.554  0.5880  0.0380 -0.0923
  802MOL0     C10547  10.140   1.615   4.701  0.2684 -1.1311 -0.0750
  802MOL0     C10548  10.029   1.721   4.729 -0.6977 -1.1853  0.0303
  802MOL0     C10549   9.890   1.672   4.686 -0.0631  0.1510  0.7323
  802MOL0     C10550   9.770   1.752   4.737 -0.4962  0.2663 -0.3606
  802MOL0     C10551   9.775   1.897   4.711  0.3556  0.8099  0.0690
  802MOL0     C10552   9.635   1.959   4.741  0.4423 -0.7674  0.4604
  802MOL0     C10553   9.651   2.115   4.725 -0.0357  0.5770  0.1245
  802MOL0     C10554   9.513   2.185   4.709 -0.4514 -0.5879  0.6925
  802MOL0     N10555   9.440   2.157   4.835 -0.2966 -0.1114  0.2368
  802MOL0     C10556   9.348   2.065   4.861  0.1784 -0.2131  0.2757
  802MOL0     C10557   9.319   2.081   4.993 -0.1865 -0.3219 -0.2011
  802MOL0     C10558   9.208   2.017   5.053  0.0000 -0.4384  1.0601
  802MOL0     C10559   9.258   1.881   5.107 -0.4390 -0.0797  0.6217
  802MOL0     C10560   9.165   1.834   5.218  0.3164  0.3899 -0.7396
  802MOL0     C10561   9.191   1.686   5.251 -0.3041 -0.4842  0.6792
  802MOL0     O10562   9.102   1.604   5.181 -0.0456 -0.8280 -0.3842
  802MOL0     C10563   9.155   1.492   5.128  0.5804  1.3867 -0.3567
  802MOL0     C10564   9.123   1.453   4.993  0.1322  0.4143  0.3132
  802MOL0     C10565   9.174   1.331   4.943  0.5199  0.7853 -0.7353
  802MOL0     C10566   9.133   1.289   4.804  0.5542  0.4593  0.5230
  802MOL0     C10567   9.262   1.241   5.015  0.4700 -0.1014 -0.1430
  802MOL0     C10568   9.317   1.112   4.970 -0.0549 -0.5807 -0.4339
  802MOL0     O10569   9.376   1.048   5.070  0.7327 -0.3294  0.1220
  802MOL0     C10570   9.418   0.919   5.063 -0.5262  0.2758  0.3280
  802MOL0     C10571   9.413   0.836   4.951 -0.0646 -0.0563  0.0598
  802MOL0     C10572   9.466   0.712   4.950  0.2730  0.8706 -0.4537
  802MOL0     C10573   9.552   0.676   5.051  0.0052 -0.5675  0.3772
  802MOL0     O10574   9.626   0.556   5.047 -0.1601  0.0115  0.2068
  802MOL0     C10575   9.608   0.470   4.931 -0.0360  0.2015  0.1199
  802MOL0     C10576   9.681   0.336   4.951 -0.1558  0.2378 -0.5433
  802MOL0     C10577   9.817   0.359   5.028 -0.2307  0.1550  0.2491
  802MOL0     C10578   9.889   0.224   5.013 -0.4747 -0.5011 -1.0221
  802MOL0     C10579  10.019   0.233   5.085 -0.2533 -0.2510 -0.0888
  802MOL0     C10580  10.075   0.088   5.096  0.1918  0.6935  0.6988
  802MOL0     C10581  10.219   0.099   5.137 -0.1075 -0.6653 -0.0604
  802MOL0     C10582  10.274  -0.040   5.176 -0.6479  0.4993 -0.8423
  802MOL0    Cl10583  10.239  -0.167   5.059  0.1958  0.0877  0.0845
  802MOL0     C10584   9.565   0.757   5.163 -0.3151  0.6346 -0.5491
  802MOL0     C10585   9.494   0.880   5.170 -0.6302  0.2882 -0.1862
  802MOL0     O10586   9.324   1.089   4.851  0.3761  0.2853  0.3257
  802MOL0     C10587   9.291   1.284   5.146  0.5767  0.1348  0.5044
  802MOL0     C10588   9.239   1.406   5.196  0.4403 -0.4784  0.3417
  802MOL0     N10589   9.391   2.191   5.045 -0.0316  0.9247  0.0235
  802MOL0     N10590   9.445   2.240   4.939 -0.1232  0.5248 -0.3262
  802MOL0     C10591  10.202   1.484   4.365  0.6660 -0.5303  0.4036
  802MOL0     C10592  10.261   1.367   4.307  0.0270 -1.1074 -0.2649
  802MOL0     C10593  10.459   0.979   4.259 -0.1964  0.6428  1.0838
  802MOL0     C10594  10.495   1.026   4.128  0.4924 -0.1861 -0.1866
  802MOL0     C10595  10.563   0.943   4.034  0.5213 -0.9017  0.1374
  802MOL0     C10596  10.590   0.812   4.071 -0.0255 -0.2185 -0.9552
  802MOL0     O10597  10.646   0.719   3.986  0.3072 -0.0393  0.2543
  802MOL0     C10598  10.727   0.762   3.877 -0.0687 -0.4722 -0.1983
  802MOL0     C10599  10.864   0.697   3.887 -0.2794 -0.1608  0.7049
  802MOL0     C10600  10.922   0.689   4.023  0.6873 -0.1789  1.6173
  802MOL0     C10601  11.061   0.613   4.039  1.1753 -0.3794 -0.5996
  802MOL0     C10602  11.159   0.678   3.959  0.1959  0.2918 -0.6512
  802MOL0     C10603  11.240   0.751   3.902  0.2285  0.0422 -0.4788
  802MOL0     C10604  10.557   0.762   4.203 -0.9115 -0.2827 -0.1934
  802MOL0     C10605  10.492   0.851   4.299 -0.5170  0.1694 -0.0926
  802MOL0     C10606  10.474   0.794   4.440 -0.1860 -1.1533 -0.4651
  802MOL0     H10607  10.469   1.287   4.553  0.6920  2.3772  0.5335
  802MOL0     H10608  10.346   1.496   4.666 -0.0546  0.0747 -0.0211
  802MOL0     H10609  10.231   1.661   4.742 -1.1081  1.2011  0.5543
  802MOL0     H10610  10.112   1.523   4.752  0.4655 -1.4729 -0.5732
  802MOL0     H10611  10.028   1.747   4.835 -2.6617 -1.2821  0.0739
  802MOL0     H10612  10.047   1.808   4.665  0.3605 -1.3212  0.1133
  802MOL0     H10613   9.894   1.666   4.577  0.9939 -5.1868  0.7611
  802MOL0     H10614   9.874   1.568   4.716 -1.1323 -0.4389 -1.6465
  802MOL0     H10615   9.680   1.704   4.699  0.0928 -1.3844  0.2378
  802MOL0     H10616   9.761   1.742   4.845  2.2465 -0.0439 -0.0863
  802MOL0     H10617   9.806   1.917   4.608  0.2918 -1.0940 -0.3447
  802MOL0     H10618   9.849   1.944   4.777  1.0980  1.5150 -1.2319
  802MOL0     H10619   9.549   1.934   4.679 -0.2056 -0.4314  1.2000
  802MOL0     H10620   9.616   1.933   4.846 -2.3608  0.1669  0.2580
  802MOL0     H10621   9.697   2.123   4.626 -0.6615 -0.7507 -0.2947
  802MOL0     H10622   9.722   2.137   4.805 -0.1557 -3.7291  1.6681
  802MOL0     H10623   9.513   2.294   4.698 -0.8246 -0.6680 -0.1718
  802MOL0     H10624   9.462   2.148   4.620  1.8115  1.1495 -1.4678
  802MOL0     H10625   9.311   1.993   4.788  1.9987  1.7326 -2.7660
  802MOL0     H10626   9.136   2.003   4.972  2.2422 -3.7009 -0.5894
  802MOL0     H10627   9.163   2.083   5.128  0.6817  2.3486 -0.8083
  802MOL0     H10628   9.248   1.809   5.025  2.4846 -1.0430  1.0023
  802MOL0     H10629   9.365   1.890   5.129 -1.1618 -0.7994  5.7868
  802MOL0     H10630   9.178   1.899   5.305  0.2224  1.8737 -1.7972
  802MOL0     H10631   9.066   1.863   5.181  1.1285  1.5265 -2.1315
  802MOL0     H10632   9.295   1.656   5.237  0.0451  0.3930  1.2531
  802MOL0     H10633   9.181   1.676   5.360 -0.1273  2.3988  1.0376
  802MOL0     H10634   9.061   1.504   4.921 -0.8023  0.5300  1.1705
  802MOL0     H10635   9.089   1.189   4.796 -1.3071  1.3475 -1.4828
  802MOL0     H10636   9.211   1.296   4.728 -0.2041  0.2384 -0.2937
  802MOL0     H10637   9.051   1.349   4.763 -0.1778 -0.5716  0.4422
  802MOL0     H10638   9.351   0.868   4.868  1.1887 -0.3301 -1.0235
  802MOL0     H10639   9.435   0.646   4.870 -1.6430  0.8649  0.2493
  802MOL0     H10640   9.502   0.445   4.922  0.1578 -0.2070 -1.2935
  802MOL0     H10641   9.635   0.503   4.831 -1.2659 -3.6531 -1.6635
  802MOL0     H10642   9.616   0.271   5.009 -1.8292  0.7062 -1.8275
  802MOL0     H10643   9.706   0.285   4.858  2.3010  0.3630 -0.0301
  802MOL0     H10644   9.792   0.377   5.133 -1.7586  2.2921 -0.4045
  802MOL0     H10645   9.884   0.431   4.980  2.7249 -2.3925  0.2798
  802MOL0     H10646   9.916   0.197   4.910  2.6435 -0.8649 -0.2127
  802MOL0     H10647   9.832   0.137   5.048 -2.0538 -0.7119 -3.7940
  802MOL0     H10648  10.085   0.295   5.023  0.9515  1.6900  2.8892
  802MOL0     H10649  10.002   0.282   5.181 -3.2953 -2.0532  0.4329
  802MOL0     H10650  10.070   0.042   4.996 -0.4881 -1.2459  1.5754
  802MOL0     H10651  10.018   0.021   5.160 -0.0910 -0.1595 -0.3993
  802MOL0     H10652  10.234   0.176   5.212  2.6463  0.3384 -1.5091
  802MOL0     H10653  10.271   0.147   5.054  3.2650  0.6655  2.5971
  802MOL0     H10654  10.254  -0.065   5.281 -2.2695  1.6830 -0.8214
  802MOL0     H10655  10.380  -0.014   5.178 -0.6468  0.5131  1.0160
  802MOL0     H10656   9.627   0.734   5.250 -1.3661  1.3158  0.4165
  802MOL0     H10657   9.496   0.962   5.242 -1.9182 -0.1394  0.3593
  802MOL0     H10658   9.354   1.230   5.216  0.1818  0.0585  0.8057
  802MOL0     H10659   9.274   1.427   5.297 -1.4537  1.2185  0.7225
  802MOL0     H10660  10.133   1.547   4.310  0.4559  0.4750  1.7786
  802MOL0     H10661  10.228   1.345   4.206  2.1693 -2.7194 -0.6629
  802MOL0     H10662  10.470   1.125   4.091 -0.7849  0.1878  1.5598
  802MOL0     H10663  10.562   0.972   3.929 -2.3091 -3.0905 -0.5860
  802MOL0     H10664  10.683   0.729   3.782 -0.5315 -1.9079  0.4841
  802MOL0     H10665  10.749   0.869   3.878  1.9591 -0.7501 -2.8748
  802MOL0     H10666  10.940   0.748   3.827 -2.5208  1.3590 -1.0402
  802MOL0     H10667  10.849   0.597   3.845 -0.8340  0.0782  0.3142
  802MOL0     H10668  10.929   0.794   4.053 -1.4991 -0.1126  2.0166
  802MOL0     H10669  10.849   0.654   4.097 -0.4320  3.5718  2.5024
  802MOL0     H10670  11.051   0.505   4.023 -0.4776 -0.2267 -0.6889
  802MOL0     H10671  11.084   0.631   4.145 -0.3851 -1.0396 -0.1131
  802MOL0     H10672  11.312   0.813   3.852  0.6032  1.2398  1.4508
  802MOL0     H10673  10.570   0.655   4.220 -1.5142 -1.3561 -4.9049
  802MOL0     H10674  10.533   0.702   4.444  1.1551 -0.4711 -2.5875
  802MOL0     H10675  10.494   0.864   4.521  2.6558 -0.2058 -1.8441
  802MOL0     H10676  10.374   0.751   4.453  0.3796 -3.1266 -1.9692
  803MOL0     O10677   4.926   7.809   4.141  0.4549  0.2755  0.1970
  803MOL0     C10678   4.826   7.863   4.097  0.7405  0.3142  0.1813
  803MOL0     O10679   4.710   7.812   4.083  0.2123  1.1416  0.4779
  803MOL0     C10680   4.695   7.692   4.016  1.0688  0.2307 -0.3846
  803MOL0     C10681   4.789   7.605   3.960 -0.9278 -0.0730 -0.2176
  803MOL0     C10682   4.759   7.486   3.884 -0.3303 -0.6451 -0.2623
  803MOL0     C10683   4.631   7.453   3.859 -0.3954  1.0559  0.8825
  803MOL0     O10684   4.608   7.348   3.772  0.2455 -0.0200 -0.8558
  803MOL0     C10685   4.469   7.300   3.761 -0.1633 -0.4828  0.7091
  803MOL0     C10686   4.466   7.178   3.678 -0.4708 -0.5316 -0.6719
  803MOL0     C10687   4.539   7.182   3.540 -0.0663  0.0126  0.4656
  803MOL0     C10688   4.481   7.108   3.417  0.4257  0.1534 -0.0783
  803MOL0     C10689   4.541   7.180   3.298 -0.8908  0.7201  0.5192
  803MOL0     C10690   4.686   7.145   3.251  0.1252  0.5524  0.1746
  803MOL0     C10691   4.696   7.011   3.184  0.4263  0.1634 -0.5229
  803MOL0     C10692   4.846   7.002   3.122  1.6985 -0.5654  0.0975
  803MOL0     N10693   4.963   6.988   3.210  0.0546  0.2471 -0.6036
  803MOL0     C10694   5.033   7.086   3.272  0.3709 -0.1442 -0.2495
  803MOL0     C10695   5.124   7.029   3.349 -0.6421 -0.3068  0.0655
  803MOL0     C10696   5.206   7.088   3.460 -0.4670 -0.1739 -0.2967
  803MOL0     C10697   5.227   7.240   3.459  0.2725 -0.0477  0.3167
  803MOL0     C10698   5.300   7.297   3.588  0.1890  0.8430 -0.0016
  803MOL0     C10699   5.441   7.250   3.612 -0.5820 -0.5701 -0.1997
  803MOL0     O10700   5.464   7.242   3.755  0.1668  0.1166  0.1415
  803MOL0     C10701   5.515   7.358   3.823  0.1951  0.8483  0.3741
  803MOL0     C10702   5.532   7.354   3.961 -0.1175 -0.0342 -0.2128
  803MOL0     C10703   5.576   7.458   4.039  0.7341 -0.4901 -0.4773
  803MOL0     C10704   5.581   7.437   4.189 -0.4107 -0.1246  0.0969
  803MOL0     C10705   5.631   7.574   3.977  0.5663  0.8135 -0.1389
  803MOL0     C10706   5.704   7.682   4.045  0.3909 -0.3994  1.2796
  803MOL0     O10707   5.689   7.808   3.987 -0.2580  0.3648 -0.0523
  803MOL0     C10708   5.750   7.921   4.045 -0.2837  0.3808  0.6470
  803MOL0     C10709   5.787   7.934   4.175 -1.0371 -0.5754  0.3594
  803MOL0     C10710   5.852   8.054   4.211  0.3214  0.7958  0.9888
  803MOL0     C10711   5.877   8.158   4.122 -0.2506 -0.2050  0.0788
  803MOL0     O10712   5.912   8.275   4.177 -0.0489 -0.9563  0.2798
  803MOL0     C10713   6.014   8.290   4.277 -0.7257  0.4854  0.1867
  803MOL0     C10714   5.981   8.412   4.376 -0.1108  0.2287  0.3197
  803MOL0     C10715   6.004   8.552   4.300  0.1659 -0.3626  0.0165
  803MOL0     C10716   5.954   8.667   4.384  0.0727 -0.8794  0.2654
  803MOL0     C10717   5.803   8.671   4.386  0.3973  0.5208  0.0473
  803MOL0     C10718   5.735   8.719   4.253 -0.2441  0.0458 -0.4387
  803MOL0     C10719   5.621   8.616   4.219  0.5144 -0.5014 -0.3566
  803MOL0     C10720   5.655   8.478   4.158  0.0451  0.6745 -0.7843
  803MOL0    Cl10721   5.514   8.380   4.120 -0.1644  0.0956 -0.1663
  803MOL0     C10722   5.847   8.136   3.992  0.2028 -0.7087 -0.5214
  803MOL0     C10723   5.785   8.012   3.953  0.0697 -0.2574 -0.1639
  803MOL0     O10724   5.772   7.656   4.147  0.6474  0.6768  0.9566
  803MOL0     C10725   5.618   7.588   3.839 -0.1149  0.5140  0.3105
  803MOL0     C10726   5.561   7.479   3.764  0.8779  0.1587 -1.2055
  803MOL0     N10727   5.126   6.888   3.321 -0.3316 -0.3843 -0.0507
  803MOL0     N10728   5.026   6.869   3.239 -0.5256 -0.1095  0.6133
  803MOL0     C10729   4.524   7.541   3.907 -0.9932 -0.0210  0.4531
  803MOL0     C10730   4.562   7.650   3.989 -1.1236 -0.2539  0.6325
  803MOL0     C10731   4.824   8.011   4.086  0.5609 -1.2851  0.1965
  803MOL0     C10732   4.702   8.079   4.066  0.5010 -1.1669 -0.5338
  803MOL0     C10733   4.697   8.220   4.060  0.4672  0.4013 -0.1348
  803MOL0     C10734   4.815   8.295   4.076  0.2784 -0.0866  0.3127
  803MOL0     O10735   4.787   8.434   4.086 -0.2663  0.1809 -0.2588
  803MOL0     C10736   4.890   8.541   4.088 -1.0222  0.6087 -0.2582
  803MOL0     C10737   4.925   8.577   4.227 -0.2345 -0.3761  0.1163
  803MOL0     C10738   5.053   8.646   4.242 -0.2954 -0.7355  0.1496
  803MOL0     C10739   5.067   8.784   4.174  0.4335  0.0870  0.7956
  803MOL0     C10740   5.202   8.836   4.218  0.0382  0.2370  0.5977
  803MOL0     C10741   5.308   8.878   4.258  0.4723 -0.1380 -0.9066
  803MOL0     C10742   4.932   8.224   4.077  0.1804 -1.0710  0.2272
  803MOL0     C10743   4.944   8.084   4.069  0.6980  0.5410 -0.1404
  803MOL0     C10744   5.088   8.034   4.069  0.3667 -0.8065  0.3310
  803MOL0     H10745   4.891   7.635   3.943 -0.2104 -4.0976 -5.5702
  803MOL0     H10746   4.842   7.429   3.842 -1.5545 -2.6024 -0.1574
  803MOL0     H10747   4.390   7.371   3.736  0.9151  1.3206  2.2006
  803MOL0     H10748   4.442   7.264   3.861  1.1955  1.6968  1.9335
  803MOL0     H10749   4.511   7.098   3.738 -1.0450  2.2583  3.9373
  803MOL0     H10750   4.361   7.146   3.670 -0.6086 -0.1436 -0.4690
  803MOL0     H10751   4.537   7.291   3.530  0.5835  0.0599  0.8029
  803MOL0     H10752   4.647   7.163   3.542  0.0368  0.2495 -1.2876
  803MOL0     H10753   4.513   7.004   3.425  0.8178  0.2185 -0.7215
  803MOL0     H10754   4.373   7.124   3.425  0.0606 -2.2773  0.6107
  803MOL0     H10755   4.530   7.289   3.303  0.4552  0.8529  0.8985
  803MOL0     H10756   4.485   7.153   3.208  1.4488 -0.1173 -0.7825
  803MOL0     H10757   4.727   7.221   3.183 -0.1130  0.1061 -0.4849
  803MOL0     H10758   4.748   7.127   3.339 -0.6783 -1.9806  0.3217
  803MOL0     H10759   4.618   6.996   3.109 -1.3353  0.3046  1.2207
  803MOL0     H10760   4.686   6.932   3.258  3.2363 -0.2372 -0.4442
  803MOL0     H10761   4.843   6.914   3.058 -1.1066  0.3965 -1.2315
  803MOL0     H10762   4.866   7.094   3.067  1.3625  0.5069  1.6749
  803MOL0     H10763   5.021   7.194   3.271  1.5428  0.0026  0.1538
  803MOL0     H10764   5.298   7.030   3.470 -0.1549  0.5940  2.1680
  803MOL0     H10765   5.154   7.065   3.554  0.4898 -0.0135  0.2791
  803MOL0     H10766   5.281   7.260   3.366 -3.0188  0.2891 -1.6881
  803MOL0     H10767   5.132   7.295   3.454 -0.2010 -0.9341 -1.0858
  803MOL0     H10768   5.305   7.406   3.588 -2.1511  1.1122  3.2435
  803MOL0     H10769   5.224   7.279   3.665  0.7906  0.4362  0.5025
  803MOL0     H10770   5.453   7.150   3.569 -1.0522 -1.2238  1.1424
  803MOL0     H10771   5.508   7.317   3.558  0.9311 -0.7532  1.3765
  803MOL0     H10772   5.493   7.266   4.013  2.2131  0.9584  3.5628
  803MOL0     H10773   5.598   7.527   4.249 -0.1372 -0.0780 -0.0509
  803MOL0     H10774   5.670   7.378   4.214  0.3280  1.8201  2.4952
  803MOL0     H10775   5.490   7.393   4.229 -0.7467  0.6103  0.1614
  803MOL0     H10776   5.762   7.863   4.253 -0.2903 -0.1230  1.0222
  803MOL0     H10777   5.841   8.074   4.317 -1.7952  2.5268  0.5166
  803MOL0     H10778   6.040   8.206   4.342  2.3358 -0.0665 -1.5287
  803MOL0     H10779   6.104   8.326   4.226 -0.7259  1.3908  0.8085
  803MOL0     H10780   5.879   8.404   4.414 -0.6991  1.4004 -0.9237
  803MOL0     H10781   6.039   8.414   4.469 -1.4855 -2.4311  1.3091
  803MOL0     H10782   5.952   8.551   4.203 -1.9332  0.6213  1.0809
  803MOL0     H10783   6.111   8.573   4.302  0.8463 -3.4002  2.2487
  803MOL0     H10784   5.991   8.761   4.343  1.4853  0.1817  3.6066
  803MOL0     H10785   5.982   8.657   4.489  0.6604  0.1526  0.2141
  803MOL0     H10786   5.759   8.574   4.411 -0.4703  0.7151 -0.6826
  803MOL0     H10787   5.786   8.738   4.471  0.1330  0.1370  0.2975
  803MOL0     H10788   5.793   8.734   4.162  0.4132 -0.0762 -0.0460
  803MOL0     H10789   5.694   8.815   4.286  2.6563  1.0070  0.6320
  803MOL0     H10790   5.548   8.669   4.157  0.3655  1.5933  1.4940
  803MOL0     H10791   5.561   8.597   4.308 -1.8116  0.3606 -1.6576
  803MOL0     H10792   5.721   8.419   4.222 -3.0888 -0.5675  1.5755
  803MOL0     H10793   5.703   8.507   4.064 -4.5106  0.9389 -3.3368
  803MOL0     H10794   5.876   8.213   3.921  3.1239 -0.3478  0.9331
  803MOL0     H10795   5.769   8.003   3.846 -0.5251  1.5424 -0.2520
  803MOL0     H10796   5.640   7.677   3.781 -0.3761  0.3581 -0.0288
  803MOL0     H10797   5.542   7.491   3.658  1.3492 -2.1008 -1.5814
  803MOL0     H10798   4.418   7.526   3.892 -0.5696 -1.9944 -0.9610
  803MOL0     H10799   4.478   7.708   4.025 -2.9428 -2.2500 -0.1754
  803MOL0     H10800   4.615   8.025   4.032 -3.4932  3.6102  0.8627
  803MOL0     H10801   4.597   8.263   4.063  1.6311  3.2509  1.2486
  803MOL0     H10802   4.981   8.500   4.043 -2.2945 -1.8254 -0.8050
  803MOL0     H10803   4.864   8.629   4.029 -1.5384 -0.0819 -1.0904
  803MOL0     H10804   4.939   8.483   4.283  3.1630 -0.9453 -1.4401
  803MOL0     H10805   4.852   8.640   4.278  0.3246 -0.8055  1.5208
  803MOL0     H10806   5.077   8.656   4.348 -1.3087  2.4487  0.1912
  803MOL0     H10807   5.125   8.574   4.201 -1.1863  0.0117 -2.9963
  803MOL0     H10808   4.979   8.824   4.226 -2.3848 -4.0041 -0.3271
  803MOL0     H10809   5.067   8.803   4.067  0.3687 -0.9827  0.5881
  803MOL0     H10810   5.401   8.924   4.285  0.1217  2.1044 -3.1054
  803MOL0     H10811   5.018   8.289   4.064 -0.7652 -0.0208 -0.8445
  803MOL0     H10812   5.096   7.962   3.987 -1.7327 -2.4305  1.4433
  803MOL0     H10813   5.156   8.120   4.062 -0.3614 -0.0925  1.5880
  803MOL0     H10814   5.114   7.981   4.161  0.0373 -0.0900  0.8527
  804MOL0     O10815   1.138   2.349  11.208 -0.8622 -0.2738  0.9796
  804MOL0     C10816   1.238   2.284  11.218 -0.9528  0.2099  0.3461
  804MOL0     O10817   1.263   2.193  11.314 -0.3438 -0.1793  0.5835
  804MOL0     C10818   1.180   2.157  11.414 -0.4847  0.4761  0.7676
  804MOL0     C10819   1.239   2.059  11.501  0.3727 -1.0437 -0.6307
  804MOL0     C10820   1.171   2.012  11.608 -0.4981 -0.5324 -0.3895
  804MOL0     C10821   1.039   2.044  11.632 -0.2773  0.6916  0.8061
  804MOL0     O10822   0.979   2.002  11.747  0.3510 -0.1887 -0.2281
  804MOL0     C10823   0.844   2.036  11.778  0.7628 -0.0249 -0.4609
  804MOL0     C10824   0.798   1.974  11.914 -0.3216 -0.4263  0.0700
  804MOL0     C10825   0.764   1.830  11.897 -0.0307 -0.1803  0.1660
  804MOL0     C10826   0.797   1.753  12.025  0.4826 -1.0054 -0.6862
  804MOL0     C10827   0.737   1.609  12.023 -0.4060 -0.7544 -0.1881
  804MOL0     C10828   0.751   1.524  12.154 -0.4110 -0.6754  0.2836
  804MOL0     C10829   0.683   1.387  12.144  1.3899  0.2678  0.7520
  804MOL0     C10830   0.702   1.311  12.274  0.0147  0.7771  0.6209
  804MOL0     N10831   0.620   1.189  12.290 -0.5142  0.6622 -0.2303
  804MOL0     C10832   0.504   1.188  12.365  0.2434  0.2464 -0.0206
  804MOL0     C10833   0.467   1.057  12.373  0.1220  0.3434  0.0720
  804MOL0     C10834   0.342   0.996  12.444 -0.5781 -0.6332 -1.3989
  804MOL0     C10835   0.284   0.879  12.372 -0.4364  0.6983  0.3181
  804MOL0     C10836   0.352   0.745  12.411  0.8551 -0.0208 -1.1398
  804MOL0     C10837   0.288   0.609  12.372  0.2485 -0.5875 -0.1742
  804MOL0     O10838   0.351   0.493  12.427  0.5174  0.3529  0.0286
  804MOL0     C10839   0.420   0.501  12.550  0.1815 -0.6188 -0.4095
  804MOL0     C10840   0.553   0.529  12.550  0.5810 -0.0776  0.0223
  804MOL0     C10841   0.631   0.551  12.664  0.0537  0.7855  0.4016
  804MOL0     C10842   0.778   0.590  12.634 -0.2908  0.0598 -0.1326
  804MOL0     C10843   0.564   0.528  12.786  0.2211 -0.3531 -0.3025
  804MOL0     C10844   0.631   0.532  12.921  0.2647 -0.1470  0.8766
  804MOL0     O10845   0.692   0.647  12.943 -0.3269 -0.2550  0.4285
  804MOL0     C10846   0.760   0.660  13.066 -0.2813 -0.7153  0.0553
  804MOL0     C10847   0.854   0.578  13.131  0.7897 -0.7145  0.5843
  804MOL0     C10848   0.921   0.611  13.251 -0.7333 -0.0519 -0.0077
  804MOL0     C10849   0.907   0.744  13.290  0.1548  1.1647 -0.5563
  804MOL0     O10850   0.968   0.777  13.415  0.4494  0.7966 -0.2412
  804MOL0     C10851   1.013   0.911  13.445 -0.5235  0.0779 -0.2612
  804MOL0     C10852   1.061   0.903  13.591 -0.5334  0.2036 -0.1615
  804MOL0     C10853   0.957   0.864  13.696  1.2239  0.2093  0.7651
  804MOL0     C10854   0.986   0.906  13.840  0.4170  0.0660 -0.4823
  804MOL0     C10855   0.860   0.927  13.930  0.3751 -0.9928  0.0449
  804MOL0     C10856   0.894   0.965  14.077 -0.2027  0.2098  0.1563
  804MOL0     C10857   1.000   0.883  14.146 -1.0820  0.0616  0.0916
  804MOL0     C10858   1.148   0.914  14.127 -0.2875  0.5189 -0.4218
  804MOL0    Cl10859   1.215   0.763  14.207 -0.3102  0.3390  0.1094
  804MOL0     C10860   0.827   0.834  13.219 -0.6370  0.4046  0.3452
  804MOL0     C10861   0.761   0.791  13.104  0.8145 -0.3323  0.5446
  804MOL0     O10862   0.621   0.441  13.001  0.6266 -0.8106 -0.5251
  804MOL0     C10863   0.423   0.489  12.788 -1.2026 -2.1001  0.0736
  804MOL0     C10864   0.355   0.474  12.668  0.2555 -0.5920  0.6883
  804MOL0     N10865   0.554   0.987  12.294  0.3979  0.2158  0.0373
  804MOL0     N10866   0.647   1.064  12.245  0.5234 -0.0780 -0.4221
  804MOL0     C10867   0.977   2.127  11.537 -0.1988  0.2073 -0.8346
  804MOL0     C10868   1.054   2.202  11.444  0.1531  0.0824 -0.5652
  804MOL0     C10869   1.338   2.295  11.103  0.4812  0.0401  0.3279
  804MOL0     C10870   1.456   2.219  11.105  0.4901  0.1181 -0.4281
  804MOL0     C10871   1.543   2.207  10.999 -0.0532 -0.0274 -0.4472
  804MOL0     C10872   1.526   2.274  10.877  0.0152 -0.1287  0.2024
  804MOL0     O10873   1.609   2.271  10.767  0.1123  0.1165  0.3728
  804MOL0     C10874   1.736   2.204  10.756  0.4544  0.3262  0.0378
  804MOL0     C10875   1.744   2.100  10.652  0.2033 -0.8944  1.0361
  804MOL0     C10876   1.752   2.158  10.507  0.1121 -0.5810  0.2886
  804MOL0     C10877   1.615   2.211  10.439 -0.7992  0.3898 -0.2889
  804MOL0     C10878   1.637   2.325  10.352  0.3508  0.5958 -0.7232
  804MOL0     C10879   1.681   2.397  10.270  0.1594 -0.5572  0.1069
  804MOL0     C10880   1.409   2.354  10.872  0.0828 -0.5623 -0.6767
  804MOL0     C10881   1.306   2.359  10.981 -1.1556  0.1315 -0.3767
  804MOL0     C10882   1.175   2.421  10.950 -0.4704  0.1647 -0.5014
  804MOL0     H10883   1.335   2.015  11.476  1.3440 -0.9528  2.4797
  804MOL0     H10884   1.227   1.935  11.660  0.0119 -1.5305 -2.3058
  804MOL0     H10885   0.775   1.994  11.704  0.3257 -0.5637  0.2355
  804MOL0     H10886   0.834   2.145  11.770 -2.7130 -0.1345  0.4773
  804MOL0     H10887   0.881   1.998  11.981 -0.9856 -0.6797  1.0178
  804MOL0     H10888   0.708   2.028  11.948  0.0974 -0.4651  1.2923
  804MOL0     H10889   0.660   1.812  11.869 -0.7167 -0.5900  2.7200
  804MOL0     H10890   0.834   1.785  11.826  0.3149 -1.4252  1.2406
  804MOL0     H10891   0.905   1.742  12.039  0.0513 -4.7532  1.0265
  804MOL0     H10892   0.763   1.805  12.114 -0.2683  0.1740 -1.6251
  804MOL0     H10893   0.792   1.547  11.951  1.3346 -1.9310  1.9963
  804MOL0     H10894   0.633   1.611  11.989 -0.6470  0.5023  0.5514
  804MOL0     H10895   0.857   1.516  12.179  1.2488 -0.6053 -5.2273
  804MOL0     H10896   0.692   1.577  12.229 -2.8882 -0.9834 -1.3132
  804MOL0     H10897   0.703   1.327  12.055  4.0116  0.1149  1.3553
  804MOL0     H10898   0.578   1.417  12.140  2.2859  3.9576  0.4947
  804MOL0     H10899   0.810   1.294  12.282 -0.4379 -2.8774  0.6286
  804MOL0     H10900   0.686   1.380  12.358  1.3737  1.9624 -0.0559
  804MOL0     H10901   0.464   1.277  12.413  0.1524  3.3083 -5.0172
  804MOL0     H10902   0.268   1.075  12.460  0.0334 -0.2792 -0.1722
  804MOL0     H10903   0.368   0.965  12.546  0.7303  1.0078 -1.1877
  804MOL0     H10904   0.176   0.866  12.380 -0.3694  0.2176  0.4699
  804MOL0     H10905   0.316   0.888  12.268  0.5942  1.4707  0.6807
  804MOL0     H10906   0.453   0.751  12.370  2.1379 -2.9966  1.2161
  804MOL0     H10907   0.355   0.757  12.520 -1.9637  3.0861 -1.2257
  804MOL0     H10908   0.181   0.608  12.398  0.0205  0.3584 -1.0049
  804MOL0     H10909   0.292   0.612  12.263  0.1466  0.5991 -0.1635
  804MOL0     H10910   0.601   0.533  12.453  2.1480 -0.7623  0.7419
  804MOL0     H10911   0.827   0.506  12.585 -1.0361 -0.2675 -0.3216
  804MOL0     H10912   0.831   0.620  12.725  1.7386  2.8643 -2.0603
  804MOL0     H10913   0.787   0.677  12.568  1.0839 -0.1658 -0.2863
  804MOL0     H10914   0.867   0.473  13.107 -1.2626 -1.5941  2.8635
  804MOL0     H10915   0.974   0.529  13.298  0.8969 -0.0772 -1.7540
  804MOL0     H10916   1.088   0.938  13.371 -2.1111  1.1104 -1.5541
  804MOL0     H10917   0.929   0.979  13.432 -1.6807 -1.5034 -1.4205
  804MOL0     H10918   1.136   0.823  13.597 -2.4315 -1.5751  1.1796
  804MOL0     H10919   1.112   0.998  13.611  1.8525 -0.8611 -0.8136
  804MOL0     H10920   0.944   0.755  13.702 -1.6287  0.3192 -1.3909
  804MOL0     H10921   0.859   0.902  13.668  0.2670 -2.5633 -0.0387
  804MOL0     H10922   1.035   1.004  13.848 -0.9778  0.6586  2.3194
  804MOL0     H10923   1.043   0.822  13.878 -1.6327  0.3517  3.8331
  804MOL0     H10924   0.788   0.999  13.889  1.9562  0.7051  0.1369
  804MOL0     H10925   0.803   0.834  13.927 -0.9047 -0.1996 -1.5259
  804MOL0     H10926   0.796   0.963  14.124  1.4620 -1.3363  3.9863
  804MOL0     H10927   0.934   1.065  14.094  0.9475 -0.6219  2.8313
  804MOL0     H10928   0.997   0.777  14.116  0.5222 -0.4271  1.4796
  804MOL0     H10929   0.981   0.885  14.253  0.2863 -5.2981  0.7564
  804MOL0     H10930   1.162   1.009  14.181 -2.9231  1.8009 -1.7878
  804MOL0     H10931   1.188   0.933  14.027  1.6318 -2.3263 -0.2972
  804MOL0     H10932   0.817   0.933  13.261 -2.6489  0.0673  0.7540
  804MOL0     H10933   0.712   0.867  13.044  0.5601 -0.3559  0.7224
  804MOL0     H10934   0.380   0.486  12.888 -0.0198  0.1356  0.7131
  804MOL0     H10935   0.246   0.477  12.668  0.2542  3.2939  0.9017
  804MOL0     H10936   0.877   2.166  11.552 -0.9830 -1.8586 -0.3115
  804MOL0     H10937   1.014   2.281  11.380  1.0018 -1.0744 -2.6360
  804MOL0     H10938   1.494   2.164  11.190 -1.1608 -3.1408 -1.6578
  804MOL0     H10939   1.627   2.141  11.017 -2.0383 -2.3893  0.7801
  804MOL0     H10940   1.825   2.267  10.741  1.7085 -1.1403  0.9762
  804MOL0     H10941   1.751   2.161  10.855 -1.4404  3.5431  1.8790
  804MOL0     H10942   1.653   2.040  10.668 -1.1498  0.6387 -0.4674
  804MOL0     H10943   1.832   2.037  10.665 -0.0593 -1.9121 -1.5369
  804MOL0     H10944   1.819   2.243  10.493 -2.3062  1.5153  0.7059
  804MOL0     H10945   1.778   2.073  10.442 -2.4649 -0.9397 -0.3834
  804MOL0     H10946   1.545   2.241  10.517 -0.2320  1.1512 -0.0570
  804MOL0     H10947   1.566   2.133  10.381  2.2408 -0.9428 -1.2919
  804MOL0     H10948   1.714   2.469  10.198  4.0535 -3.3275 -1.2275
  804MOL0     H10949   1.381   2.410  10.783 -0.1080 -0.8710 -0.8112
  804MOL0     H10950   1.094   2.349  10.964  0.1139 -0.3280  0.5144
  804MOL0     H10951   1.155   2.521  10.990 -2.0840 -0.4666  0.3606
  804MOL0     H10952   1.168   2.422  10.841 -2.9966 -1.7564 -0.4572
  805MOL0     O10953   8.115   3.853  11.560  0.1598  0.2396  0.2245
  805MOL0     C10954   8.122   3.976  11.584  1.2338 -0.0365  0.2578
  805MOL0     O10955   8.065   4.023  11.692  0.1884  0.0565 -0.8425
  805MOL0     C10956   8.085   4.154  11.717  0.2664 -0.8352  0.2210
  805MOL0     C10957   8.198   4.189  11.800 -0.0111 -0.2378  0.2907
  805MOL0     C10958   8.219   4.324  11.848  0.3899  0.5621 -0.5724
  805MOL0     C10959   8.126   4.419  11.809 -1.0341 -0.6933  0.1748
  805MOL0     O10960   8.117   4.548  11.858  0.3404  0.7712  0.4236
  805MOL0     C10961   8.245   4.617  11.878  0.0891 -0.5876 -0.0883
  805MOL0     C10962   8.230   4.767  11.926  0.3562  0.2720  0.6514
  805MOL0     C10963   8.108   4.782  12.015  0.2199  0.6601  0.5853
  805MOL0     C10964   7.979   4.815  11.934  0.0021  0.9616  0.2766
  805MOL0     C10965   7.893   4.901  12.039 -0.1244  0.1073 -0.1135
  805MOL0     C10966   7.763   4.952  11.975 -1.0420 -0.0970  0.4255
  805MOL0     C10967   7.692   5.044  12.078 -1.7324  0.9801 -0.1839
  805MOL0     C10968   7.688   5.179  12.009  0.4697  0.0394  1.2320
  805MOL0     N10969   7.661   5.289  12.096  0.1119  0.6485  0.8265
  805MOL0     C10970   7.547   5.303  12.180 -0.0926  0.2667  0.2295
  805MOL0     C10971   7.547   5.424  12.232 -1.0850 -0.7727  0.7118
  805MOL0     C10972   7.439   5.477  12.325 -0.9863 -0.6330  0.1546
  805MOL0     C10973   7.498   5.565  12.434 -0.0167  0.2646  0.6724
  805MOL0     C10974   7.610   5.513  12.524  0.5313  0.0319  0.1002
  805MOL0     C10975   7.645   5.587  12.651 -0.8911 -0.7835 -0.2740
  805MOL0     O10976   7.686   5.713  12.590  0.9682 -0.0441  0.3487
  805MOL0     C10977   7.705   5.827  12.671 -0.2685  0.4041 -0.2841
  805MOL0     C10978   7.700   5.830  12.810 -0.6336 -0.0930 -0.1931
  805MOL0     C10979   7.721   5.946  12.882 -0.5527 -1.2521 -0.7940
  805MOL0     C10980   7.721   5.935  13.031 -0.1783 -0.0566 -0.1705
  805MOL0     C10981   7.748   6.069  12.807  0.0628 -1.2621 -1.0742
  805MOL0     C10982   7.772   6.192  12.879  0.2629  0.3299 -1.2282
  805MOL0     O10983   7.675   6.276  12.920 -0.0372  0.2154  0.7347
  805MOL0     C10984   7.705   6.395  12.982 -0.7422  0.6704 -0.7110
  805MOL0     C10985   7.667   6.509  12.926  0.0750 -0.9005 -0.2647
  805MOL0     C10986   7.681   6.634  12.994 -0.3815  0.1620  0.6993
  805MOL0     C10987   7.752   6.635  13.120  0.0305 -0.7926  0.2792
  805MOL0     O10988   7.763   6.747  13.194  0.4237  0.1615 -0.2333
  805MOL0     C10989   7.860   6.842  13.142 -0.6986 -0.6856  0.5351
  805MOL0     C10990   7.835   6.972  13.233  0.6743  1.6245 -0.0197
  805MOL0     C10991   7.878   7.098  13.167 -0.3247  0.5509 -0.1328
  805MOL0     C10992   7.865   7.207  13.274 -0.3296 -0.4365  0.4055
  805MOL0     C10993   7.969   7.324  13.249 -0.7352  0.0474  0.6046
  805MOL0     C10994   7.929   7.419  13.129 -0.2444 -0.1353  0.8246
  805MOL0     C10995   8.031   7.524  13.096  0.0124  0.2877 -0.4249
  805MOL0     C10996   8.134   7.494  12.986  0.5324  0.5939  0.2132
  805MOL0    Cl10997   8.252   7.635  13.008  0.1469  0.5198 -0.3362
  805MOL0     C10998   7.787   6.513  13.175 -0.1560 -0.4227  0.1836
  805MOL0     C10999   7.761   6.394  13.113  0.3250  0.9531 -0.8368
  805MOL0     O11000   7.887   6.206  12.908 -1.0088  0.4012  0.4076
  805MOL0     C11001   7.740   6.069  12.671 -0.2602 -0.1762  0.3695
  805MOL0     C11002   7.718   5.951  12.603 -0.1324  0.4173  0.1966
  805MOL0     N11003   7.658   5.494  12.186 -0.1014  0.0350  0.2309
  805MOL0     N11004   7.728   5.410  12.107 -0.8485  0.6002 -0.1116
  805MOL0     C11005   8.016   4.376  11.731 -0.0818 -0.4097  0.5996
  805MOL0     C11006   7.989   4.246  11.689  0.5020 -1.0766  0.9055
  805MOL0     C11007   8.188   4.052  11.486 -0.1013 -0.0710  1.2671
  805MOL0     C11008   8.113   4.133  11.392 -0.2177 -0.2380 -0.1480
  805MOL0     C11009   8.178   4.221  11.301  0.3372  0.4675 -0.0007
  805MOL0     C11010   8.314   4.235  11.307 -0.2852 -1.2382 -0.7844
  805MOL0     O11011   8.378   4.313  11.220 -0.0998  1.1504  0.1711
  805MOL0     C11012   8.319   4.418  11.135  0.0916  1.2928  0.0157
  805MOL0     C11013   8.339   4.547  11.211  0.3337  0.4353  0.4480
  805MOL0     C11014   8.347   4.670  11.113  0.1825 -0.9398 -0.0306
  805MOL0     C11015   8.229   4.690  11.015 -1.5733 -0.6768 -0.0587
  805MOL0     C11016   8.247   4.803  10.915  0.0814  0.1778  0.3908
  805MOL0     C11017   8.263   4.899  10.836  0.7053 -0.0706  0.1532
  805MOL0     C11018   8.383   4.161  11.399 -0.5105 -0.0896 -1.2175
  805MOL0     C11019   8.325   4.062  11.482  0.1372 -0.5558 -0.1009
  805MOL0     C11020   8.413   3.986  11.573 -0.2579 -0.2990  0.4982
  805MOL0     H11021   8.276   4.117  11.824  2.6512  3.3071  3.7070
  805MOL0     H11022   8.303   4.339  11.916 -1.4201 -1.0833  2.2196
  805MOL0     H11023   8.287   4.616  11.778  0.4264  3.2795 -0.1333
  805MOL0     H11024   8.306   4.560  11.949 -1.0151  0.6636  1.9598
  805MOL0     H11025   8.327   4.796  11.967  0.6563 -1.0499  0.8906
  805MOL0     H11026   8.209   4.832  11.840 -0.0312  1.4546  1.6099
  805MOL0     H11027   8.088   4.690  12.070  2.5734  1.4853  3.0337
  805MOL0     H11028   8.130   4.857  12.091 -1.3412  0.9458  0.7887
  805MOL0     H11029   7.996   4.881  11.849 -1.7311  3.2210  1.5767
  805MOL0     H11030   7.927   4.725  11.901 -0.9196  1.0724  1.3415
  805MOL0     H11031   7.955   4.985  12.069  1.5765 -1.3949  0.7601
  805MOL0     H11032   7.863   4.848  12.130 -0.3645 -1.0812 -0.8556
  805MOL0     H11033   7.797   5.003  11.884  0.9101  0.4656  1.4184
  805MOL0     H11034   7.692   4.876  11.943 -0.3761  0.1793 -1.8591
  805MOL0     H11035   7.740   5.041  12.176  2.7821  0.2229 -2.1522
  805MOL0     H11036   7.589   5.011  12.088 -1.9470  0.9136 -2.1803
  805MOL0     H11037   7.787   5.201  11.969 -0.6867 -0.6899 -2.4307
  805MOL0     H11038   7.608   5.175  11.934  1.2567  2.0173  0.2302
  805MOL0     H11039   7.474   5.223  12.193  0.7272 -0.9389 -1.9525
  805MOL0     H11040   7.378   5.401  12.375  0.8627 -1.9204  0.5415
  805MOL0     H11041   7.375   5.542  12.263 -3.1312 -1.4350  1.4028
  805MOL0     H11042   7.530   5.656  12.384  1.0143 -0.0648  0.7053
  805MOL0     H11043   7.422   5.616  12.494 -2.1684  0.7632 -2.2579
  805MOL0     H11044   7.575   5.412  12.550 -1.4915  0.5622 -0.3586
  805MOL0     H11045   7.702   5.501  12.465  0.4194 -0.6598  0.0555
  805MOL0     H11046   7.554   5.590  12.711 -1.6221 -0.6116 -1.3688
  805MOL0     H11047   7.729   5.540  12.705 -0.1173  1.1592  0.3272
  805MOL0     H11048   7.676   5.737  12.859 -0.8401  0.0236 -0.0689
  805MOL0     H11049   7.621   5.965  13.064 -0.5005 -0.9262 -0.3537
  805MOL0     H11050   7.794   5.996  13.086  0.7261 -1.5984  0.3975
  805MOL0     H11051   7.740   5.830  13.057 -3.6503 -0.2563  2.1766
  805MOL0     H11052   7.618   6.516  12.830 -0.8348  2.6468  0.2882
  805MOL0     H11053   7.646   6.724  12.944 -0.7604 -0.3480  0.0190
  805MOL0     H11054   7.962   6.805  13.144 -0.8519 -1.1353  0.1154
  805MOL0     H11055   7.839   6.867  13.037 -0.0188 -1.3274  0.2401
  805MOL0     H11056   7.729   6.967  13.261  0.6978 -0.6347 -0.1466
  805MOL0     H11057   7.901   6.954  13.318  2.8185  0.7685 -1.7609
  805MOL0     H11058   7.803   7.110  13.089 -1.8820 -0.0749  1.2071
  805MOL0     H11059   7.979   7.074  13.132 -0.7167 -0.6288 -0.4657
  805MOL0     H11060   7.880   7.170  13.376 -5.1898 -0.9790  1.1805
  805MOL0     H11061   7.761   7.239  13.277 -0.8393 -1.7262 -1.7227
  805MOL0     H11062   7.966   7.386  13.340 -0.1450  1.3868 -0.2582
  805MOL0     H11063   8.074   7.294  13.250 -0.0130  2.3559 -0.0980
  805MOL0     H11064   7.834   7.470  13.148 -1.6243 -1.9138 -0.9770
  805MOL0     H11065   7.904   7.360  13.040 -1.9173 -1.1119  1.8811
  805MOL0     H11066   8.097   7.548  13.180  1.4409  2.0735 -1.9590
  805MOL0     H11067   7.973   7.611  13.063 -4.8555 -1.7697  1.7267
  805MOL0     H11068   8.082   7.486  12.890 -0.8181 -1.0214  1.0238
  805MOL0     H11069   8.173   7.395  13.012 -0.5666  0.6289  2.1405
  805MOL0     H11070   7.832   6.520  13.273 -1.2418  1.0970  0.5958
  805MOL0     H11071   7.796   6.305  13.164  0.4302  2.2022  1.3720
  805MOL0     H11072   7.740   6.162  12.615 -0.7135  0.0422  0.7285
  805MOL0     H11073   7.693   5.953  12.497 -3.6124 -4.0325  0.6240
  805MOL0     H11074   7.946   4.458  11.717  0.4829  0.7446  3.6364
  805MOL0     H11075   7.894   4.224  11.642  1.3401 -1.8376 -0.4765
  805MOL0     H11076   8.005   4.125  11.383 -0.1053 -1.2866 -0.7653
  805MOL0     H11077   8.107   4.273  11.238 -2.2957 -2.5627  0.1853
  805MOL0     H11078   8.383   4.419  11.046  1.8378  1.9305  1.2223
  805MOL0     H11079   8.216   4.404  11.101 -0.2978 -0.0713  1.5948
  805MOL0     H11080   8.430   4.551  11.273 -0.0782  0.1224  1.0877
  805MOL0     H11081   8.257   4.563  11.282 -0.2037  1.1411 -0.3228
  805MOL0     H11082   8.350   4.759  11.177 -2.5255 -0.0320 -0.9839
  805MOL0     H11083   8.434   4.658  11.049 -1.0993 -3.8238 -1.4189
  805MOL0     H11084   8.133   4.688  11.067 -0.6196 -0.6266  1.7688
  805MOL0     H11085   8.226   4.597  10.958  0.2358 -0.2349 -0.9432
  805MOL0     H11086   8.281   4.969  10.757 -0.5431 -0.9507 -0.9603
  805MOL0     H11087   8.486   4.182  11.424 -1.1573 -0.9935  3.1461
  805MOL0     H11088   8.442   4.049  11.657  1.3937  1.6498 -1.3940
  805MOL0     H11089   8.352   3.910  11.622  1.3913 -1.2076  1.2218
  805MOL0     H11090   8.503   3.946  11.524 -0.2569  0.6748 -0.3311
  806MOL0     O11091   0.940   9.931   4.730  0.2241 -0.4041 -0.5025
  806MOL0     C11092   1.047   9.889   4.763 -0.9483 -1.0380 -0.2206
  806MOL0     O11093   1.065   9.792   4.852 -0.6740 -0.6925 -0.5371
  806MOL0     C11094   0.959   9.739   4.906  0.4293  0.2404  0.1795
  806MOL0     C11095   0.902   9.622   4.837 -0.3938  0.7769 -0.2580
  806MOL0     C11096   0.784   9.573   4.891 -1.3672  0.0779 -1.2052
  806MOL0     C11097   0.727   9.625   5.009  0.8571 -0.4723 -0.3304
  806MOL0     O11098   0.619   9.586   5.076 -0.0467 -0.2986 -0.3737
  806MOL0     C11099   0.523   9.496   5.019 -0.4415  0.6397 -0.1899
  806MOL0     C11100   0.407   9.495   5.115 -0.0493  0.1920 -1.5964
  806MOL0     C11101   0.275   9.455   5.044  0.4740  0.6041 -0.4728
  806MOL0     C11102   0.142   9.522   5.102 -0.4421  0.6904 -0.4779
  806MOL0     C11103   0.085   9.468   5.240 -0.8842  0.1931  0.4723
  806MOL0     C11104  -0.041   9.543   5.286  0.7895 -0.2962  0.1711
  806MOL0     C11105  -0.149   9.541   5.185  1.0454 -0.0384 -0.6807
  806MOL0     C11106  -0.187   9.405   5.129 -0.3190 -0.2277 -0.0450
  806MOL0     N11107  -0.309   9.401   5.045 -0.9216  0.1134 -1.2832
  806MOL0     C11108  -0.308   9.421   4.912 -0.5253  1.0996 -0.3115
  806MOL0     C11109  -0.439   9.400   4.878 -0.1974  0.3485 -0.0350
  806MOL0     C11110  -0.484   9.411   4.732  0.2349  0.8126 -0.9013
  806MOL0     C11111  -0.612   9.331   4.701 -0.6556  0.4269  0.9205
  806MOL0     C11112  -0.733   9.362   4.786  1.1342 -0.4447  0.1539
  806MOL0     C11113  -0.860   9.276   4.743 -1.0394  0.1989  0.1372
  806MOL0     O11114  -0.921   9.358   4.638 -0.7067  0.6078  0.7383
  806MOL0     C11115  -1.047   9.321   4.600 -0.0791 -0.3174  0.8831
  806MOL0     C11116  -1.113   9.403   4.512 -0.3817 -0.0726  0.7655
  806MOL0     C11117  -1.230   9.382   4.452  0.5958  0.5026 -0.9482
  806MOL0     C11118  -1.271   9.487   4.351  0.8232  0.4358 -0.2479
  806MOL0     C11119  -1.310   9.266   4.495  0.1855 -0.3566 -1.0336
  806MOL0     C11120  -1.444   9.227   4.440  0.8475  0.5874 -0.4908
  806MOL0     O11121  -1.511   9.115   4.483  0.2595 -0.1617  0.3130
  806MOL0     C11122  -1.614   9.050   4.406  0.0450 -0.8974 -0.7192
  806MOL0     C11123  -1.727   9.115   4.363 -0.1885  0.0025 -0.7380
  806MOL0     C11124  -1.826   9.043   4.291  0.2742 -0.3770 -0.3176
  806MOL0     C11125  -1.802   8.910   4.253  0.0585  0.0977  0.5138
  806MOL0     O11126  -1.882   8.827   4.185 -0.3370 -0.2982 -0.2045
  806MOL0     C11127  -2.013   8.876   4.133 -0.4643  0.1666  0.7071
  806MOL0     C11128  -2.113   8.844   4.252  0.5651 -0.2812  0.2541
  806MOL0     C11129  -2.255   8.878   4.215  0.0659 -1.6080  0.2480
  806MOL0     C11130  -2.350   8.866   4.333 -0.8185  0.2416 -0.1103
  806MOL0     C11131  -2.501   8.867   4.306  0.3850  0.5521  0.6762
  806MOL0     C11132  -2.578   8.954   4.410 -0.0480  0.4532 -0.2267
  806MOL0     C11133  -2.710   9.022   4.355 -0.1743  1.4556 -0.1157
  806MOL0     C11134  -2.827   8.919   4.334 -0.6083  0.0878  0.6382
  806MOL0    Cl11135  -2.981   8.992   4.282  0.5594 -0.3060  0.1824
  806MOL0     C11136  -1.696   8.844   4.309 -1.4862 -0.4315  0.2628
  806MOL0     C11137  -1.598   8.916   4.378  0.6154  1.0849 -0.4625
  806MOL0     O11138  -1.478   9.284   4.341 -0.0533  0.2456  0.1908
  806MOL0     C11139  -1.243   9.179   4.594  1.3132 -0.1651  0.1285
  806MOL0     C11140  -1.118   9.204   4.638 -0.0009  0.8183  0.5411
  806MOL0     N11141  -0.521   9.385   4.992 -1.0089 -0.2710 -0.8210
  806MOL0     N11142  -0.436   9.392   5.093  1.0953  0.0643  0.8007
  806MOL0     C11143   0.786   9.731   5.082 -0.4307  1.0600  1.4344
  806MOL0     C11144   0.898   9.786   5.030 -0.8403 -0.3114 -0.2879
  806MOL0     C11145   1.169   9.939   4.697  0.1583 -0.6128 -0.1274
  806MOL0     C11146   1.158  10.050   4.616  0.7898 -0.0883  0.3760
  806MOL0     C11147   1.258  10.096   4.523 -0.7344  0.6520 -0.0501
  806MOL0     C11148   1.380  10.023   4.518  0.5874  0.9308 -0.2401
  806MOL0     O11149   1.477  10.046   4.426  0.1317 -0.9975 -0.5238
  806MOL0     C11150   1.540  10.177   4.404  0.6978  0.2078 -0.7417
  806MOL0     C11151   1.553  10.183   4.246 -0.2119  1.0513  0.8432
  806MOL0     C11152   1.623  10.306   4.204 -0.1278 -0.6918 -0.5433
  806MOL0     C11153   1.623  10.336   4.053 -0.3938  1.1088 -0.9300
  806MOL0     C11154   1.680  10.221   3.981 -0.8986 -0.2198  0.5011
  806MOL0     C11155   1.720  10.131   3.909  0.9672  0.0126 -0.0003
  806MOL0     C11156   1.395   9.905   4.596 -1.1800  0.7650  0.0927
  806MOL0     C11157   1.294   9.864   4.683  0.1613 -0.0806 -0.3626
  806MOL0     C11158   1.329   9.734   4.745  0.1528  0.5014 -0.7280
  806MOL0     H11159   0.960   9.570   4.761  0.9298 -1.4920  2.1032
  806MOL0     H11160   0.744   9.492   4.832 -0.1668  0.4891 -2.6463
  806MOL0     H11161   0.558   9.394   5.000 -0.9288  0.9712 -3.6174
  806MOL0     H11162   0.508   9.539   4.919 -0.9293 -0.2541 -0.5065
  806MOL0     H11163   0.435   9.428   5.197  3.5462  3.4643  0.1997
  806MOL0     H11164   0.400   9.595   5.160  1.2662 -0.9767  1.5414
  806MOL0     H11165   0.286   9.492   4.941  0.7263  3.3146  0.4285
  806MOL0     H11166   0.257   9.349   5.059 -0.6368  0.7190 -0.8911
  806MOL0     H11167   0.155   9.631   5.106 -1.4323  0.7754  0.6733
  806MOL0     H11168   0.076   9.499   5.018  0.5357  0.0173 -1.0851
  806MOL0     H11169   0.169   9.472   5.311 -0.7560 -0.7201  0.3807
  806MOL0     H11170   0.055   9.363   5.231 -3.1626  0.8467 -0.1607
  806MOL0     H11171  -0.074   9.490   5.376 -0.6679  1.5908  0.7993
  806MOL0     H11172  -0.024   9.645   5.321  0.2477 -0.2518  0.3078
  806MOL0     H11173  -0.116   9.607   5.105  0.8948  1.5199  0.5004
  806MOL0     H11174  -0.231   9.599   5.228 -0.4127 -1.5165 -1.3495
  806MOL0     H11175  -0.106   9.367   5.066 -0.8517  0.2309 -1.0373
  806MOL0     H11176  -0.204   9.335   5.210  0.5110 -3.7943 -2.7151
  806MOL0     H11177  -0.221   9.442   4.851  0.2209  0.7530  0.6259
  806MOL0     H11178  -0.396   9.370   4.681  0.5489 -2.2166  1.7425
  806MOL0     H11179  -0.505   9.516   4.713  0.9150  1.3146  0.8818
  806MOL0     H11180  -0.631   9.348   4.595 -0.5026 -0.7910  0.6876
  806MOL0     H11181  -0.589   9.225   4.713  1.0683  0.6148 -0.3730
  806MOL0     H11182  -0.718   9.324   4.888  1.0735 -0.0117  0.3272
  806MOL0     H11183  -0.757   9.467   4.805  0.8235 -0.8800  2.4548
  806MOL0     H11184  -0.830   9.177   4.707 -0.3539  1.1797 -2.1422
  806MOL0     H11185  -0.940   9.271   4.818 -0.5207  0.1372  0.6943
  806MOL0     H11186  -1.060   9.492   4.481 -0.4432 -0.1627  0.3970
  806MOL0     H11187  -1.232   9.585   4.380  3.7116 -1.1604  1.8601
  806MOL0     H11188  -1.377   9.489   4.325  0.1992 -1.8693  1.6750
  806MOL0     H11189  -1.242   9.471   4.247 -1.2351  0.7970 -0.9135
  806MOL0     H11190  -1.740   9.223   4.364  1.7607  0.2753 -1.2429
  806MOL0     H11191  -1.916   9.097   4.265  0.4812 -0.4080 -1.1412
  806MOL0     H11192  -2.005   8.982   4.106  1.4242 -0.2308 -0.4672
  806MOL0     H11193  -2.032   8.814   4.046  4.0908 -0.8060  0.1418
  806MOL0     H11194  -2.105   8.739   4.282 -0.6252 -0.2787  0.6427
  806MOL0     H11195  -2.080   8.900   4.340 -2.0983  2.2049 -0.1979
  806MOL0     H11196  -2.286   8.810   4.135  0.3499 -1.9838  0.4584
  806MOL0     H11197  -2.254   8.978   4.170 -1.2184 -1.3494  0.7315
  806MOL0     H11198  -2.320   8.955   4.390 -1.0188  0.1134  0.1931
  806MOL0     H11199  -2.323   8.772   4.383 -0.3254  1.1190  1.3634
  806MOL0     H11200  -2.523   8.898   4.204 -1.2887 -0.2445  0.7598
  806MOL0     H11201  -2.536   8.764   4.310  0.0440  0.6788  0.9523
  806MOL0     H11202  -2.513   9.024   4.464 -2.3851  2.5580  0.0285
  806MOL0     H11203  -2.617   8.894   4.493 -2.2680  1.5122 -0.4440
  806MOL0     H11204  -2.670   9.081   4.272  0.9051  4.0148  2.0637
  806MOL0     H11205  -2.745   9.093   4.432 -1.0414 -2.0875  3.0734
  806MOL0     H11206  -2.845   8.860   4.424  0.1814  0.8192  1.2915
  806MOL0     H11207  -2.802   8.857   4.247 -0.0529 -1.5876  1.9335
  806MOL0     H11208  -1.681   8.738   4.289  1.3765  0.1577 -1.2604
  806MOL0     H11209  -1.506   8.865   4.404  1.7190  1.6265 -3.0046
  806MOL0     H11210  -1.293   9.091   4.634  2.1191  0.8169  3.6518
  806MOL0     H11211  -1.082   9.121   4.699 -2.4925  0.4427  1.6726
  806MOL0     H11212   0.738   9.746   5.178 -1.7736 -0.3357  1.0231
  806MOL0     H11213   0.942   9.862   5.095  5.2220 -3.1521 -0.3795
  806MOL0     H11214   1.076  10.121   4.616  1.8128  1.1480 -1.2383
  806MOL0     H11215   1.234  10.189   4.472 -3.9081  1.4730  2.6150
  806MOL0     H11216   1.481  10.263   4.437  4.0262  2.3200  0.2086
  806MOL0     H11217   1.637  10.185   4.453 -0.5877  1.8729  1.7406
  806MOL0     H11218   1.457  10.189   4.195  0.2425 -0.2636 -0.2473
  806MOL0     H11219   1.595  10.091   4.204  0.4706  0.8495  1.9275
  806MOL0     H11220   1.565  10.391   4.241 -0.2730 -0.2019 -1.8530
  806MOL0     H11221   1.723  10.319   4.247 -1.0489 -2.8564  2.6025
  806MOL0     H11222   1.683  10.427   4.041  2.1808  0.4132  3.9376
  806MOL0     H11223   1.527  10.359   4.006 -0.3358 -1.5345 -2.5307
  806MOL0     H11224   1.751  10.067   3.828  1.8574 -1.2123  1.2486
  806MOL0     H11225   1.494   9.862   4.593 -0.8880  1.3347  1.1840
  806MOL0     H11226   1.241   9.670   4.736  2.2453 -2.4554 -1.4155
  806MOL0     H11227   1.407   9.685   4.687  0.6105  3.0804 -2.4861
  806MOL0     H11228   1.350   9.739   4.853 -1.6322 -1.0233 -0.2485
  807MOL0     O11229   7.002   2.649   1.261  0.5444 -0.1636  0.7388
  807MOL0     C11230   7.016   2.671   1.376  0.5903  0.2341  0.8515
  807MOL0     O11231   7.100   2.596   1.456 -0.1022  0.4299 -0.4331
  807MOL0     C11232   7.161   2.479   1.421 -1.3692  0.5635 -1.0548
  807MOL0     C11233   7.083   2.378   1.374 -0.2208  1.0262 -0.5748
  807MOL0     C11234   7.141   2.254   1.330 -0.0363 -0.5503  1.0106
  807MOL0     C11235   7.276   2.248   1.321 -0.4882  0.0027 -1.3262
  807MOL0     O11236   7.311   2.133   1.262  0.2461 -0.3203  0.6858
  807MOL0     C11237   7.448   2.106   1.259 -0.3230 -0.4069  0.1968
  807MOL0     C11238   7.453   1.965   1.208  0.1647 -0.1288  0.0739
  807MOL0     C11239   7.594   1.910   1.150 -0.5967  0.1601 -0.0933
  807MOL0     C11240   7.575   1.780   1.080 -0.5936 -0.1202  0.5717
  807MOL0     C11241   7.710   1.725   1.035  0.5549  0.1548  0.6317
  807MOL0     C11242   7.803   1.678   1.148  0.2556 -0.8687  0.6752
  807MOL0     C11243   7.902   1.575   1.094  1.2062  0.1255 -0.3008
  807MOL0     C11244   8.010   1.625   0.998  0.1527 -0.7656  0.2834
  807MOL0     N11245   8.067   1.758   1.053 -0.5264  0.5041 -0.5048
  807MOL0     C11246   8.043   1.885   1.010  1.1306  0.1251  1.0469
  807MOL0     C11247   8.123   1.967   1.079 -0.3941  0.5092 -0.4592
  807MOL0     C11248   8.094   2.116   1.100  0.4342 -0.3774 -0.7434
  807MOL0     C11249   7.943   2.151   1.099 -0.0200  0.7362 -0.0821
  807MOL0     C11250   7.917   2.301   1.142  0.3649  0.1233  0.4596
  807MOL0     C11251   7.773   2.355   1.120 -0.9904 -0.3898  0.1630
  807MOL0     O11252   7.777   2.484   1.177  0.2344  0.0873  0.6327
  807MOL0     C11253   7.741   2.505   1.305  0.3914 -0.8439  1.4013
  807MOL0     C11254   7.724   2.647   1.338  0.2820 -0.0913  0.3268
  807MOL0     C11255   7.671   2.695   1.458  0.7199  1.2865 -0.8809
  807MOL0     C11256   7.670   2.841   1.490 -0.1506  0.0566 -0.0001
  807MOL0     C11257   7.650   2.597   1.558  0.3040 -0.4641  0.4569
  807MOL0     C11258   7.596   2.619   1.697  0.4373 -0.0911 -0.4010
  807MOL0     O11259   7.495   2.713   1.709 -0.5324 -0.1838  0.3160
  807MOL0     C11260   7.446   2.748   1.831 -1.0775  0.2666  0.2585
  807MOL0     C11261   7.522   2.793   1.938  0.1338  0.3136  0.7090
  807MOL0     C11262   7.465   2.830   2.066 -0.3370  0.8740  0.4713
  807MOL0     C11263   7.326   2.826   2.072 -0.2405  0.2925 -0.1690
  807MOL0     O11264   7.263   2.857   2.189  0.1356 -0.7294 -0.5338
  807MOL0     C11265   7.308   2.779   2.304  0.1868 -0.7744 -0.1816
  807MOL0     C11266   7.239   2.638   2.319 -0.8887  0.0291  0.6121
  807MOL0     C11267   7.084   2.632   2.321  0.4267 -0.2588 -0.3353
  807MOL0     C11268   7.006   2.669   2.196 -0.2045 -0.2411 -0.3800
  807MOL0     C11269   6.855   2.633   2.201  0.3341 -0.4825  0.1732
  807MOL0     C11270   6.789   2.676   2.067  0.0186 -0.0690 -0.0155
  807MOL0     C11271   6.642   2.618   2.075  0.7135  0.1930  0.8822
  807MOL0     C11272   6.533   2.658   1.973 -0.2695  0.0596  0.6212
  807MOL0    Cl11273   6.510   2.834   1.985  0.2363  0.3235 -0.4213
  807MOL0     C11274   7.248   2.790   1.959 -0.2386 -0.0159 -0.2983
  807MOL0     C11275   7.305   2.740   1.839 -0.2121  0.4430 -0.4214
  807MOL0     O11276   7.661   2.572   1.794  0.3205 -0.3399 -0.1832
  807MOL0     C11277   7.680   2.467   1.528 -0.7745  0.0158  0.0683
  807MOL0     C11278   7.715   2.415   1.404 -0.1748 -0.9140  0.3492
  807MOL0     N11279   8.209   1.890   1.163  0.1801 -0.0088  0.2483
  807MOL0     N11280   8.167   1.772   1.142 -0.5372  0.6584 -0.2286
  807MOL0     C11281   7.361   2.352   1.377  0.4505 -0.2864  0.1040
  807MOL0     C11282   7.294   2.468   1.423  0.8246 -0.0238 -0.8276
  807MOL0     C11283   6.944   2.785   1.431  0.0410  1.3253 -0.1750
  807MOL0     C11284   6.935   2.902   1.353  0.3004  0.2187  0.4079
  807MOL0     C11285   6.865   3.011   1.398 -0.4296  1.0410 -0.4668
  807MOL0     C11286   6.823   3.029   1.536 -0.4672 -0.3190  0.4591
  807MOL0     O11287   6.750   3.134   1.575 -0.4327 -1.5448  0.3345
  807MOL0     C11288   6.752   3.154   1.721  0.3479  0.2035 -0.3304
  807MOL0     C11289   6.730   3.301   1.758 -0.5864 -0.7553  0.6842
  807MOL0     C11290   6.678   3.311   1.901  0.8175  0.2802 -0.0591
  807MOL0     C11291   6.727   3.435   1.975  0.1882 -0.6711 -0.1515
  807MOL0     C11292   6.683   3.571   1.926  1.6899 -0.9832  0.1105
  807MOL0     C11293   6.676   3.687   1.890  0.8956 -0.2462 -0.2252
  807MOL0     C11294   6.851   2.919   1.623  0.4312  0.6313 -0.3465
  807MOL0     C11295   6.902   2.797   1.570 -0.4238 -0.3041  1.7122
  807MOL0     C11296   6.910   2.684   1.671  0.7825  0.1190 -0.4361
  807MOL0     H11297   6.977   2.392   1.359 -0.1720 -0.9152 -3.5007
  807MOL0     H11298   7.072   2.176   1.300  0.7989 -1.0146  0.2232
  807MOL0     H11299   7.511   2.107   1.349 -1.1981  1.1949  0.8122
  807MOL0     H11300   7.493   2.165   1.179 -1.1235 -2.2627 -1.7155
  807MOL0     H11301   7.427   1.898   1.291  3.7184  0.5398  1.9011
  807MOL0     H11302   7.368   1.945   1.142 -0.7571  2.5895  0.3306
  807MOL0     H11303   7.638   1.982   1.081  2.9438 -0.2478  1.5093
  807MOL0     H11304   7.667   1.895   1.231 -1.7087  1.0349  1.1125
  807MOL0     H11305   7.524   1.705   1.141  1.6845 -2.5183 -0.2395
  807MOL0     H11306   7.517   1.795   0.989  1.0883  1.2487 -0.3537
  807MOL0     H11307   7.760   1.810   0.987  1.7201 -0.2608  1.0842
  807MOL0     H11308   7.699   1.644   0.963  0.4186  3.1165 -2.9777
  807MOL0     H11309   7.855   1.761   1.196 -2.5463  2.9501 -2.2415
  807MOL0     H11310   7.741   1.626   1.222 -3.2231 -0.8967 -1.9743
  807MOL0     H11311   7.848   1.491   1.051  1.7676  0.2962 -1.3647
  807MOL0     H11312   7.959   1.543   1.182 -0.0167  0.0267  0.4872
  807MOL0     H11313   8.085   1.547   0.984 -1.0644 -1.7726 -0.8601
  807MOL0     H11314   7.974   1.658   0.901 -2.8434  0.1788  1.5895
  807MOL0     H11315   7.959   1.923   0.953  4.4561  3.5049 -2.2252
  807MOL0     H11316   8.149   2.186   1.037 -2.7626  2.9954 -0.1341
  807MOL0     H11317   8.138   2.130   1.200  0.8430 -0.0875 -0.9587
  807MOL0     H11318   7.909   2.154   0.995  3.2913  0.3054 -1.3238
  807MOL0     H11319   7.883   2.082   1.159  0.3276  0.4449 -0.0651
  807MOL0     H11320   7.948   2.318   1.245 -0.2501 -1.5261  0.9436
  807MOL0     H11321   7.986   2.364   1.085  1.8619 -1.2062  0.7390
  807MOL0     H11322   7.744   2.372   1.016 -1.4590 -0.6722  0.2426
  807MOL0     H11323   7.702   2.294   1.177 -0.4349 -1.5749 -0.3877
  807MOL0     H11324   7.746   2.722   1.263 -0.9856  1.7348  1.6953
  807MOL0     H11325   7.588   2.899   1.445 -0.2286 -0.3242 -0.3473
  807MOL0     H11326   7.763   2.883   1.452  0.8695 -0.4096  1.8528
  807MOL0     H11327   7.668   2.859   1.598  3.2829 -2.1277  0.5415
  807MOL0     H11328   7.625   2.808   1.910 -0.4380  1.8328 -0.7994
  807MOL0     H11329   7.524   2.856   2.153  0.7699 -3.1980  1.1249
  807MOL0     H11330   7.416   2.770   2.298  0.2127 -0.6963  0.1374
  807MOL0     H11331   7.283   2.837   2.393  1.3653  1.1750 -1.0669
  807MOL0     H11332   7.283   2.571   2.246  3.0037  0.6993  2.1043
  807MOL0     H11333   7.271   2.598   2.416  2.0898 -1.1168 -0.7525
  807MOL0     H11334   7.043   2.689   2.405  1.9410  0.3818  0.0112
  807MOL0     H11335   7.056   2.528   2.340  2.2810 -0.7547 -0.0881
  807MOL0     H11336   7.061   2.625   2.112 -0.1152  0.1620 -0.5356
  807MOL0     H11337   7.015   2.775   2.172 -0.5876 -0.1843 -0.2780
  807MOL0     H11338   6.838   2.528   2.225 -2.5549  0.3756  2.5131
  807MOL0     H11339   6.815   2.689   2.286  1.6764  2.6864 -1.1162
  807MOL0     H11340   6.848   2.622   1.992  0.5426 -1.4039  1.2996
  807MOL0     H11341   6.784   2.783   2.045 -0.2924 -0.8872 -5.0606
  807MOL0     H11342   6.613   2.651   2.175  0.7997 -0.7952  1.2419
  807MOL0     H11343   6.654   2.510   2.060  0.8735  0.4912 -1.5616
  807MOL0     H11344   6.443   2.598   1.994 -0.8062 -0.4516 -2.5409
  807MOL0     H11345   6.558   2.625   1.871 -1.5585 -1.5048  0.7589
  807MOL0     H11346   7.141   2.801   1.947 -0.0415  1.2575 -1.1826
  807MOL0     H11347   7.249   2.710   1.751  0.7717 -4.6980  0.3664
  807MOL0     H11348   7.684   2.387   1.601  3.6218  1.1263  1.3220
  807MOL0     H11349   7.713   2.308   1.386  2.1147 -1.4544  2.8162
  807MOL0     H11350   7.468   2.359   1.363  0.3586 -1.5557 -1.5816
  807MOL0     H11351   7.344   2.563   1.436 -2.8546  2.1736 -1.4908
  807MOL0     H11352   6.963   2.887   1.249 -2.7471  0.0865 -0.4845
  807MOL0     H11353   6.842   3.091   1.328  0.5290  2.0596  0.3329
  807MOL0     H11354   6.670   3.095   1.765  0.5137  0.0793 -0.1844
  807MOL0     H11355   6.839   3.120   1.777  0.4676  0.4597 -0.3608
  807MOL0     H11356   6.659   3.349   1.690  1.5953  3.0558  0.8304
  807MOL0     H11357   6.824   3.357   1.755 -0.7666 -0.2922  2.7660
  807MOL0     H11358   6.569   3.304   1.903  0.8100  0.1233 -0.8227
  807MOL0     H11359   6.711   3.230   1.966 -1.3363  1.0003  2.0938
  807MOL0     H11360   6.836   3.423   1.971  0.3195  0.5102 -0.4971
  807MOL0     H11361   6.688   3.415   2.075 -0.7359 -2.5146 -0.8376
  807MOL0     H11362   6.681   3.791   1.865  1.7410 -0.2590 -0.1355
  807MOL0     H11363   6.832   2.912   1.730  2.4942  2.1218  0.1818
  807MOL0     H11364   6.874   2.594   1.619  1.0853  1.0907 -2.3963
  807MOL0     H11365   7.016   2.680   1.697  0.4050  1.0136  1.4728
  807MOL0     H11366   6.852   2.699   1.763  1.7947 -0.3704  0.2913
  808MOL0     O11367   6.960   3.258  10.945  0.0825  0.4259 -0.2902
  808MOL0     C11368   6.895   3.155  10.986 -0.8272 -0.3203 -0.2135
  808MOL0     O11369   6.900   3.095  11.111  0.2912 -0.3082  0.6385
  808MOL0     C11370   6.975   3.150  11.216 -0.2323 -0.6884  0.6915
  808MOL0     C11371   7.113   3.188  11.209  0.3192  0.0193  1.2007
  808MOL0     C11372   7.183   3.233  11.319 -0.6633  0.1249  0.0779
  808MOL0     C11373   7.119   3.236  11.456  0.0867 -0.2896 -0.2546
  808MOL0     O11374   7.188   3.238  11.577  0.0283 -0.5546  0.6798
  808MOL0     C11375   7.298   3.336  11.593 -0.8641  0.4104 -0.1465
  808MOL0     C11376   7.249   3.456  11.674 -0.1463 -0.4334 -0.4290
  808MOL0     C11377   7.188   3.571  11.584  0.2277 -1.0189  0.3692
  808MOL0     C11378   7.175   3.698  11.661 -1.3459 -0.1530  0.1163
  808MOL0     C11379   7.109   3.816  11.589 -1.3015 -0.2470 -0.1954
  808MOL0     C11380   7.120   3.950  11.663 -0.5238  0.5888 -0.0625
  808MOL0     C11381   7.274   3.986  11.681  0.1637 -1.0883 -0.0297
  808MOL0     C11382   7.268   4.139  11.714  0.5529 -0.4619 -0.3684
  808MOL0     N11383   7.404   4.177  11.749 -0.1365 -0.2587  0.0920
  808MOL0     C11384   7.441   4.202  11.875 -0.3000  0.4746  0.3368
  808MOL0     C11385   7.570   4.231  11.871 -1.0751 -1.0618 -0.2322
  808MOL0     C11386   7.650   4.272  11.998  0.2120 -0.3453  0.1777
  808MOL0     C11387   7.705   4.414  11.981  0.1960  0.2668 -0.1297
  808MOL0     C11388   7.811   4.454  12.090 -0.0350 -0.1331  0.2177
  808MOL0     C11389   7.767   4.463  12.237  0.9881  0.3044 -1.3063
  808MOL0     O11390   7.882   4.429  12.311  0.0511  0.5887 -0.4774
  808MOL0     C11391   7.923   4.520  12.408 -0.0521  1.0301  0.4776
  808MOL0     C11392   8.007   4.625  12.381  1.0341  0.2082  0.0463
  808MOL0     C11393   8.050   4.720  12.479 -0.5442  0.2123 -0.7538
  808MOL0     C11394   8.112   4.844  12.418 -1.1158 -0.0148 -0.6929
  808MOL0     C11395   8.013   4.693  12.616  0.4584 -0.6960 -0.1495
  808MOL0     C11396   8.043   4.768  12.739  0.2369 -0.5137  0.1625
  808MOL0     O11397   8.027   4.709  12.864 -0.7415  0.3533  0.8696
  808MOL0     C11398   8.069   4.769  12.972  0.1958 -0.3176  0.8601
  808MOL0     C11399   8.173   4.861  12.982 -0.1311 -0.5215 -0.2735
  808MOL0     C11400   8.215   4.923  13.100 -0.2486 -0.6984  0.3232
  808MOL0     C11401   8.148   4.897  13.220  0.2344  0.1147 -0.2539
  808MOL0     O11402   8.173   4.963  13.334  0.2007 -0.5414 -0.2549
  808MOL0     C11403   8.241   5.090  13.351  0.1289  1.6677 -0.6252
  808MOL0     C11404   8.295   5.113  13.492 -0.9464 -0.3113 -0.5240
  808MOL0     C11405   8.401   5.001  13.548 -0.5776 -0.1644  0.8454
  808MOL0     C11406   8.417   5.026  13.705 -0.3899 -0.1405 -0.4634
  808MOL0     C11407   8.554   4.967  13.756 -0.1611 -0.2885 -0.2373
  808MOL0     C11408   8.570   5.009  13.904  1.0746 -0.5735 -0.5963
  808MOL0     C11409   8.465   4.948  13.995 -0.1436 -0.1031 -0.6574
  808MOL0     C11410   8.418   4.806  13.966 -1.2106  0.1916  0.1378
  808MOL0    Cl11411   8.315   4.745  14.102  0.2073  0.2095 -0.1752
  808MOL0     C11412   8.049   4.802  13.209 -0.6414  0.2228 -0.5155
  808MOL0     C11413   8.017   4.729  13.092 -0.0569 -0.8031  0.5270
  808MOL0     O11414   8.090   4.881  12.722 -0.6304  0.4091 -1.3704
  808MOL0     C11415   7.940   4.578  12.642  0.4000 -0.7446 -0.2903
  808MOL0     C11416   7.893   4.496  12.542 -0.2257 -0.5335 -0.3193
  808MOL0     N11417   7.619   4.237  11.735 -0.0965  0.1443 -0.4784
  808MOL0     N11418   7.506   4.213  11.666 -0.0691 -0.2595 -0.2177
  808MOL0     C11419   6.983   3.193  11.464  0.1278 -0.2394  0.0836
  808MOL0     C11420   6.915   3.158  11.345 -0.2652 -0.4296 -0.9230
  808MOL0     C11421   6.793   3.096  10.899  1.0220 -0.3863  0.9969
  808MOL0     C11422   6.671   3.041  10.958 -0.1191  0.8866  0.2677
  808MOL0     C11423   6.576   2.983  10.876 -0.1422 -0.3279 -0.6344
  808MOL0     C11424   6.595   2.979  10.733  0.5595  1.3939 -0.4713
  808MOL0     O11425   6.499   2.909  10.655 -0.2798 -0.0064  0.6029
  808MOL0     C11426   6.530   2.848  10.527 -0.6985 -0.0387 -1.0880
  808MOL0     C11427   6.411   2.764  10.472  0.3571  0.3655 -0.1146
  808MOL0     C11428   6.367   2.810  10.334 -2.2475  1.1614  0.2325
  808MOL0     C11429   6.269   2.926  10.331  0.3243 -0.9807  0.0894
  808MOL0     C11430   6.277   3.040  10.426 -0.7275 -0.1919  0.4516
  808MOL0     C11431   6.292   3.134  10.505  0.4183 -0.2545  0.8241
  808MOL0     C11432   6.705   3.032  10.669 -1.4618  0.7154  0.1324
  808MOL0     C11433   6.796   3.094  10.747 -0.7411 -0.3674 -0.6583
  808MOL0     C11434   6.914   3.147  10.673  0.3469  0.6020  0.4528
  808MOL0     H11435   7.162   3.173  11.114  1.2306 -2.9698  2.0237
  808MOL0     H11436   7.289   3.250  11.305 -1.1807  0.9504 -4.2269
  808MOL0     H11437   7.341   3.367  11.497  2.8179 -2.1259  0.4543
  808MOL0     H11438   7.379   3.294  11.654 -2.3074 -0.8121  1.0039
  808MOL0     H11439   7.190   3.426  11.761  2.2462 -2.4090  0.6282
  808MOL0     H11440   7.342   3.495  11.718 -1.0570  1.5279 -0.1222
  808MOL0     H11441   7.253   3.589  11.498  0.6786 -2.1268  0.4580
  808MOL0     H11442   7.092   3.536  11.544 -2.1340  5.0708 -0.2782
  808MOL0     H11443   7.124   3.677  11.756 -2.2400  1.1917 -0.0384
  808MOL0     H11444   7.275   3.733  11.688 -2.1714  0.7728  2.2050
  808MOL0     H11445   7.002   3.793  11.579 -0.8937 -2.6214  0.4391
  808MOL0     H11446   7.154   3.834  11.491  1.7961 -0.4054  1.0835
  808MOL0     H11447   7.059   4.013  11.597 -2.2861 -3.5134 -2.7597
  808MOL0     H11448   7.077   3.951  11.764  0.8550 -2.4545  0.6555
  808MOL0     H11449   7.340   3.970  11.595  0.8456 -0.7188  0.4179
  808MOL0     H11450   7.301   3.930  11.771 -0.0818 -1.3130 -0.0931
  808MOL0     H11451   7.240   4.197  11.625 -0.7808 -1.3665 -0.5606
  808MOL0     H11452   7.190   4.160  11.787  0.2045 -2.0018 -0.2567
  808MOL0     H11453   7.361   4.214  11.948 -0.3196  1.9721  0.0963
  808MOL0     H11454   7.735   4.207  12.017 -0.7205 -1.9666 -0.9650
  808MOL0     H11455   7.581   4.267  12.082  3.0278 -3.0982  2.5769
  808MOL0     H11456   7.760   4.416  11.886  1.6077  1.9097  0.6670
  808MOL0     H11457   7.622   4.485  11.978 -0.9448 -0.9436  1.1243
  808MOL0     H11458   7.888   4.380  12.067  3.2932  3.4931 -1.4955
  808MOL0     H11459   7.864   4.545  12.060  2.7750 -1.5747  0.4959
  808MOL0     H11460   7.723   4.562  12.253 -2.8386 -1.7180  3.3704
  808MOL0     H11461   7.689   4.394  12.272 -0.9308  3.3289  0.9083
  808MOL0     H11462   8.032   4.634  12.275 -2.3083  2.2004 -0.7292
  808MOL0     H11463   8.037   4.884  12.349 -1.1659  0.2577 -0.4799
  808MOL0     H11464   8.199   4.823  12.355  1.6667  1.5203  2.3167
  808MOL0     H11465   8.138   4.910  12.501 -0.0533 -0.3536 -0.7420
  808MOL0     H11466   8.242   4.874  12.900 -0.3667 -0.1066 -0.4054
  808MOL0     H11467   8.296   4.995  13.104 -0.3294 -0.6366  1.0071
  808MOL0     H11468   8.333   5.100  13.292  3.3569  3.9237  4.0936
  808MOL0     H11469   8.176   5.175  13.327 -0.0658  2.3843  2.0951
  808MOL0     H11470   8.348   5.207  13.507  1.5432 -1.7087  0.0497
  808MOL0     H11471   8.212   5.103  13.563 -0.1835 -0.1293  0.4010
  808MOL0     H11472   8.499   5.008  13.500 -2.3869 -2.8784 -3.8659
  808MOL0     H11473   8.356   4.907  13.516  1.1562 -0.4898 -0.8341
  808MOL0     H11474   8.322   4.999  13.752 -2.5276 -0.2492 -4.4056
  808MOL0     H11475   8.415   5.133  13.726 -1.0557 -0.5242  1.6995
  808MOL0     H11476   8.571   4.863  13.729 -0.9202 -0.1588 -1.2883
  808MOL0     H11477   8.627   5.020  13.695 -0.3403 -0.4459 -0.5882
  808MOL0     H11478   8.546   5.116  13.910 -1.5925 -1.0945 -0.6117
  808MOL0     H11479   8.670   4.984  13.939  1.9329  3.0724 -0.1057
  808MOL0     H11480   8.376   5.007  14.015 -0.3759 -0.8779  0.7514
  808MOL0     H11481   8.510   4.924  14.092 -3.6287  0.5637  1.2729
  808MOL0     H11482   8.494   4.732  13.940 -2.2510 -0.7310 -0.3417
  808MOL0     H11483   8.350   4.800  13.881  1.5373  0.0049 -2.1910
  808MOL0     H11484   8.006   4.781  13.306  1.2331  2.6128  0.9709
  808MOL0     H11485   7.935   4.660  13.074 -0.0249 -0.5528 -0.6461
  808MOL0     H11486   7.901   4.564  12.742 -2.9350  1.8569 -1.0824
  808MOL0     H11487   7.848   4.400  12.565 -2.8863  0.7924  0.3902
  808MOL0     H11488   6.926   3.189  11.556 -1.3049  0.7395 -0.6991
  808MOL0     H11489   6.812   3.137  11.373 -0.2717  2.1538  1.5357
  808MOL0     H11490   6.653   3.051  11.065 -0.5981  1.0056  0.1799
  808MOL0     H11491   6.485   2.943  10.921 -0.3756 -0.9076 -1.5954
  808MOL0     H11492   6.550   2.925  10.452 -0.0198  0.6078 -0.2747
  808MOL0     H11493   6.615   2.781  10.540  0.7977  2.1988  2.3109
  808MOL0     H11494   6.324   2.768  10.537  0.8127  0.5788  0.4949
  808MOL0     H11495   6.444   2.659  10.479  2.3583  0.9917  0.7040
  808MOL0     H11496   6.456   2.839  10.278 -2.8853  0.0902 -1.4069
  808MOL0     H11497   6.330   2.727  10.274  0.0682  1.0722 -1.1919
  808MOL0     H11498   6.166   2.891  10.342 -0.5219  1.6257  1.4812
  808MOL0     H11499   6.269   2.967  10.230  0.7006  0.5961  0.6852
  808MOL0     H11500   6.322   3.213  10.572  0.9816  1.3308 -1.1792
  808MOL0     H11501   6.726   3.011  10.565 -0.5459 -4.2143  1.0667
  808MOL0     H11502   6.943   3.072  10.599 -3.9746 -0.3876 -0.4759
  808MOL0     H11503   6.903   3.245  10.626  1.8617  0.8642  0.5951
  808MOL0     H11504   6.999   3.149  10.742  0.6245 -0.5648  0.1683
  809MOL0     O11505   6.626   3.612   4.322  0.4826 -0.2178 -0.0485
  809MOL0     C11506   6.538   3.576   4.396 -0.1693 -0.1953 -0.7927
  809MOL0     O11507   6.435   3.638   4.437 -0.1952  0.0179 -0.4514
  809MOL0     C11508   6.389   3.730   4.345  0.0246 -0.3416  0.4298
  809MOL0     C11509   6.459   3.845   4.325 -0.2423  0.1428  0.7474
  809MOL0     C11510   6.406   3.946   4.244  0.5733 -0.5659 -0.0732
  809MOL0     C11511   6.279   3.937   4.194  1.1059 -0.1873  0.1169
  809MOL0     O11512   6.235   4.049   4.127 -0.7445 -0.6295 -0.1788
  809MOL0     C11513   6.097   4.055   4.094  0.5981 -0.0475  0.5152
  809MOL0     C11514   6.060   4.184   4.014 -0.4542 -0.1165  0.2031
  809MOL0     C11515   6.155   4.202   3.893  0.4845 -0.0343 -0.2173
  809MOL0     C11516   6.183   4.338   3.839 -0.2831 -0.4748 -0.3295
  809MOL0     C11517   6.261   4.340   3.707 -0.4244 -1.3286 -0.6515
  809MOL0     C11518   6.383   4.258   3.713 -0.6563  0.3429 -0.4771
  809MOL0     C11519   6.496   4.300   3.605  0.0682  0.0564  0.4239
  809MOL0     C11520   6.540   4.451   3.617  0.6327  1.1008 -0.6911
  809MOL0     N11521   6.574   4.478   3.751 -0.2627 -0.3314  0.3123
  809MOL0     C11522   6.495   4.551   3.837  0.0659  0.2762 -0.1973
  809MOL0     C11523   6.549   4.514   3.963 -1.1099 -0.0282 -0.1779
  809MOL0     C11524   6.507   4.555   4.103 -0.2479 -0.4192  0.2190
  809MOL0     C11525   6.467   4.433   4.184  0.4981  0.3435  0.4658
  809MOL0     C11526   6.333   4.444   4.253 -0.0373  0.3566  0.7331
  809MOL0     C11527   6.303   4.320   4.347  0.0520 -0.1502 -0.3704
  809MOL0     O11528   6.176   4.344   4.406  0.3091 -0.5327 -0.4261
  809MOL0     C11529   6.115   4.235   4.470  0.0464 -0.2149  0.0466
  809MOL0     C11530   6.182   4.109   4.481  0.0508  1.2307 -0.1401
  809MOL0     C11531   6.118   4.005   4.558 -0.7740  0.5747 -0.1024
  809MOL0     C11532   6.195   3.872   4.572  0.1423  0.0572 -0.3030
  809MOL0     C11533   5.987   4.028   4.616 -0.4621 -0.5946 -0.3181
  809MOL0     C11534   5.906   3.917   4.678 -0.7884  0.0566  0.4151
  809MOL0     O11535   5.796   3.952   4.749 -0.3835 -0.2292 -0.2624
  809MOL0     C11536   5.727   3.861   4.826  0.1399 -0.3313  0.8708
  809MOL0     C11537   5.790   3.786   4.924  0.1774 -0.6500  0.5637
  809MOL0     C11538   5.710   3.696   5.001 -0.2185 -0.7156  0.5543
  809MOL0     C11539   5.576   3.681   4.980 -0.4887  1.1724  0.2332
  809MOL0     O11540   5.531   3.584   5.064 -0.0455  0.6585 -0.3190
  809MOL0     C11541   5.391   3.576   5.093  0.0010  0.8794 -0.5685
  809MOL0     C11542   5.360   3.468   5.205  0.2960 -0.5573  0.0983
  809MOL0     C11543   5.220   3.406   5.214 -0.3129 -0.6253 -0.0282
  809MOL0     C11544   5.206   3.318   5.341 -0.2815 -0.7338 -0.0463
  809MOL0     C11545   5.063   3.295   5.388  0.7707  1.2550 -0.5291
  809MOL0     C11546   5.051   3.191   5.503 -0.5048 -1.2995 -0.4141
  809MOL0     C11547   4.920   3.116   5.486  0.5681 -0.5420  0.3738
  809MOL0     C11548   4.875   3.034   5.606 -0.6789 -1.2032  0.5333
  809MOL0    Cl11549   4.720   2.949   5.559 -0.4293 -0.5477 -0.1725
  809MOL0     C11550   5.513   3.749   4.877 -0.9137 -0.2928 -0.4765
  809MOL0     C11551   5.583   3.845   4.804 -0.2236  0.1726  0.5711
  809MOL0     O11552   5.939   3.800   4.657 -0.5772  0.0077 -0.3320
  809MOL0     C11553   5.933   4.162   4.614  0.3794  0.8945  0.3240
  809MOL0     C11554   5.996   4.268   4.543  0.3514  0.3200  0.1167
  809MOL0     N11555   6.665   4.439   3.940  0.3259  0.5413 -0.6287
  809MOL0     N11556   6.670   4.413   3.810  0.4175  0.6526 -0.5907
  809MOL0     C11557   6.208   3.813   4.202  0.2338 -0.5694 -0.5550
  809MOL0     C11558   6.264   3.716   4.283 -0.6677  0.1579  0.3614
  809MOL0     C11559   6.573   3.463   4.480  0.5567 -0.3204 -0.6213
  809MOL0     C11560   6.520   3.456   4.609 -0.5529  0.2026 -0.4621
  809MOL0     C11561   6.554   3.352   4.703 -0.1581 -0.2428  0.5633
  809MOL0     C11562   6.638   3.244   4.670  0.3113 -0.2345 -0.0180
  809MOL0     O11563   6.672   3.147   4.760  0.0738 -0.5472 -0.3266
  809MOL0     C11564   6.781   3.049   4.725 -0.8902 -0.3849 -0.1062
  809MOL0     C11565   6.781   2.945   4.837  0.9367 -1.1375 -0.3352
  809MOL0     C11566   6.744   2.808   4.784 -0.3407  0.1124 -0.3811
  809MOL0     C11567   6.786   2.700   4.886  0.3188  0.2228 -1.2962
  809MOL0     C11568   6.749   2.565   4.853 -0.3560 -0.0298 -1.5080
  809MOL0     C11569   6.753   2.444   4.831  0.3399  0.4256 -0.5017
  809MOL0     C11570   6.665   3.250   4.536 -1.0307  0.5828  0.7856
  809MOL0     C11571   6.635   3.348   4.442 -0.5198  0.3569 -0.2534
  809MOL0     C11572   6.695   3.325   4.299  0.4048  0.2409 -0.1726
  809MOL0     H11573   6.552   3.860   4.380 -0.2659 -0.0425  0.8404
  809MOL0     H11574   6.467   4.034   4.230 -2.4180  2.1302  2.3872
  809MOL0     H11575   6.031   4.051   4.182  1.9176 -0.1793  1.5291
  809MOL0     H11576   6.077   3.975   4.022  1.0621  0.6246 -0.3775
  809MOL0     H11577   5.962   4.182   3.966  1.8120  3.6226 -5.6064
  809MOL0     H11578   6.070   4.274   4.075  2.7832  0.7553 -1.3901
  809MOL0     H11579   6.256   4.173   3.925 -0.4222 -0.0330  3.0220
  809MOL0     H11580   6.130   4.137   3.809  3.6876  1.4862 -2.5561
  809MOL0     H11581   6.090   4.395   3.835 -0.5385 -0.5355  2.8752
  809MOL0     H11582   6.241   4.402   3.905 -1.7045 -1.3046  1.8253
  809MOL0     H11583   6.281   4.447   3.696  0.5515 -1.5734 -1.4778
  809MOL0     H11584   6.196   4.320   3.621 -0.9374 -1.1487 -0.3118
  809MOL0     H11585   6.429   4.264   3.812  0.0978 -1.0416 -0.7138
  809MOL0     H11586   6.342   4.158   3.702 -3.7883  1.6852 -2.0527
  809MOL0     H11587   6.468   4.289   3.500 -0.9713  3.7248  0.1814
  809MOL0     H11588   6.590   4.247   3.622 -1.1289 -1.2328  3.9957
  809MOL0     H11589   6.629   4.459   3.555 -0.0541  1.1066 -1.6950
  809MOL0     H11590   6.470   4.528   3.584 -1.6002 -0.4373  0.2195
  809MOL0     H11591   6.408   4.607   3.805 -0.7888 -1.2595 -0.6553
  809MOL0     H11592   6.423   4.625   4.094  1.5363  1.6945 -1.3999
  809MOL0     H11593   6.591   4.607   4.151 -0.1344 -1.0890  0.7487
  809MOL0     H11594   6.483   4.346   4.119 -1.3824 -0.0725  0.4935
  809MOL0     H11595   6.533   4.430   4.271  2.3459  1.0595 -0.8506
  809MOL0     H11596   6.317   4.532   4.316  0.1415 -1.1157  2.9603
  809MOL0     H11597   6.255   4.444   4.177  1.0653 -3.5850 -0.6348
  809MOL0     H11598   6.296   4.225   4.293  3.1571 -0.9966  0.5245
  809MOL0     H11599   6.377   4.319   4.427  1.1353  3.2155 -1.1828
  809MOL0     H11600   6.285   4.095   4.449 -0.6334 -0.7506 -1.6400
  809MOL0     H11601   6.148   3.788   4.519  0.5351  0.9469 -2.1777
  809MOL0     H11602   6.203   3.848   4.678  3.9443  0.3173 -0.4247
  809MOL0     H11603   6.290   3.885   4.519 -0.1678  0.7219 -0.7174
  809MOL0     H11604   5.895   3.797   4.950 -0.0924 -0.1215  1.4728
  809MOL0     H11605   5.752   3.622   5.068 -1.1106 -3.1950 -1.4697
  809MOL0     H11606   5.345   3.672   5.116  1.1045  1.3722 -0.3547
  809MOL0     H11607   5.351   3.538   4.998  0.8935 -1.9521  0.0722
  809MOL0     H11608   5.436   3.390   5.199  0.2827 -0.6333  0.8681
  809MOL0     H11609   5.390   3.525   5.293 -1.6606  1.1190 -0.2413
  809MOL0     H11610   5.192   3.352   5.122  0.4952 -0.9594 -0.0918
  809MOL0     H11611   5.145   3.484   5.226 -0.3636 -0.7371  0.3814
  809MOL0     H11612   5.265   3.365   5.420 -1.4107  0.0762  0.3342
  809MOL0     H11613   5.250   3.220   5.320 -0.0057 -0.6003 -0.1009
  809MOL0     H11614   5.007   3.380   5.426  1.1532  1.8209 -1.1998
  809MOL0     H11615   5.012   3.259   5.298 -0.8131  2.0171  0.0449
  809MOL0     H11616   5.043   3.246   5.597 -0.6682 -1.4614 -0.3317
  809MOL0     H11617   5.139   3.128   5.520  0.0703 -0.0837  1.4034
  809MOL0     H11618   4.920   3.049   5.400 -0.8428  0.9219 -0.8429
  809MOL0     H11619   4.846   3.192   5.457 -2.0988 -2.5675  1.4416
  809MOL0     H11620   4.846   3.104   5.684  0.7446 -0.7753  0.7143
  809MOL0     H11621   4.945   2.960   5.647  1.4866 -1.2104 -2.7747
  809MOL0     H11622   5.406   3.738   4.859 -0.6747 -0.6986 -1.7394
  809MOL0     H11623   5.539   3.907   4.727  1.2349  0.5265 -0.0170
  809MOL0     H11624   5.842   4.190   4.666  0.1581  2.7328 -0.9747
  809MOL0     H11625   5.948   4.364   4.529 -1.1512 -0.7371 -2.8322
  809MOL0     H11626   6.122   3.790   4.141  0.1621  0.7083 -0.9574
  809MOL0     H11627   6.213   3.626   4.314 -3.1464 -0.0903 -3.8183
  809MOL0     H11628   6.472   3.541   4.658  1.6820 -0.0038  2.3926
  809MOL0     H11629   6.541   3.383   4.806  1.2394 -1.0881  1.0215
  809MOL0     H11630   6.769   3.006   4.625 -0.4806 -0.5291 -0.0953
  809MOL0     H11631   6.876   3.103   4.723 -1.9955  1.6717 -0.9619
  809MOL0     H11632   6.696   2.964   4.904 -0.5244 -1.0516 -2.1275
  809MOL0     H11633   6.880   2.952   4.883  1.6388 -0.3640 -1.8908
  809MOL0     H11634   6.637   2.813   4.761 -0.6067  4.5894  0.8657
  809MOL0     H11635   6.803   2.774   4.698 -0.2281 -0.7980  0.0427
  809MOL0     H11636   6.730   2.724   4.977 -2.0261  1.3294 -2.9257
  809MOL0     H11637   6.894   2.708   4.901  0.2248  0.3500 -0.6676
  809MOL0     H11638   6.767   2.340   4.807  1.1256  1.1464 -3.5749
  809MOL0     H11639   6.725   3.164   4.507  1.6285  1.5365  2.9561
  809MOL0     H11640   6.619   3.264   4.248  0.9387 -0.2979 -0.3352
  809MOL0     H11641   6.704   3.414   4.236 -0.6774 -0.4517 -1.3430
  809MOL0     H11642   6.776   3.252   4.304 -1.3840 -1.7612  1.8848
  810MOL0     O11643   3.626   6.348   6.221  0.0396  1.1826  0.2840
  810MOL0     C11644   3.660   6.322   6.340 -0.2844 -0.9908 -0.5646
  810MOL0     O11645   3.581   6.290   6.445  0.5596 -0.4491 -0.1827
  810MOL0     C11646   3.449   6.263   6.410  0.3256 -0.8521  0.8990
  810MOL0     C11647   3.360   6.352   6.362  0.2566  0.8327  0.7651
  810MOL0     C11648   3.236   6.310   6.313  0.1818 -1.4484 -0.8090
  810MOL0     C11649   3.189   6.181   6.328 -0.0317  0.3743 -0.0382
  810MOL0     O11650   3.061   6.133   6.299  0.2646 -0.1694 -0.4473
  810MOL0     C11651   2.991   6.199   6.191  0.1715 -0.0752  0.0091
  810MOL0     C11652   2.842   6.152   6.184 -0.2706  0.1090  0.5226
  810MOL0     C11653   2.826   6.002   6.139 -0.7281 -0.1558 -0.8465
  810MOL0     C11654   2.682   5.968   6.129 -0.1572  1.0523 -0.6704
  810MOL0     C11655   2.649   5.856   6.037 -0.4571 -0.4952 -0.8199
  810MOL0     C11656   2.731   5.734   6.050 -0.4929  0.4320  0.5957
  810MOL0     C11657   2.708   5.655   6.183  0.1134 -0.0724 -0.1483
  810MOL0     C11658   2.834   5.579   6.227  0.1084  0.2458 -0.6338
  810MOL0     N11659   2.851   5.461   6.140 -0.3536 -0.0601  0.1545
  810MOL0     C11660   2.895   5.455   6.006  0.4857  0.1253  0.6123
  810MOL0     C11661   2.862   5.335   5.953  0.0857  0.5610 -0.7858
  810MOL0     C11662   2.888   5.296   5.815 -0.8497 -0.0187 -0.8184
  810MOL0     C11663   3.026   5.225   5.782 -0.2614  0.3054 -0.2847
  810MOL0     C11664   3.019   5.075   5.818  0.6058 -0.2663  0.0222
  810MOL0     C11665   3.154   5.000   5.785 -0.8559 -0.3375 -0.8058
  810MOL0     O11666   3.172   4.994   5.644  0.0280 -0.4633  0.6231
  810MOL0     C11667   3.291   4.939   5.597 -0.0958  0.2183  0.5144
  810MOL0     C11668   3.297   4.894   5.465  0.0023  0.3256 -0.1988
  810MOL0     C11669   3.422   4.869   5.400 -0.3737 -0.6854 -0.7035
  810MOL0     C11670   3.417   4.860   5.250  0.3623 -0.1358 -0.2608
  810MOL0     C11671   3.536   4.868   5.480  0.0904  0.4984  0.1331
  810MOL0     C11672   3.674   4.844   5.421  0.2716 -1.1398  0.4531
  810MOL0     O11673   3.781   4.877   5.499 -0.4228  0.2686  0.3417
  810MOL0     C11674   3.903   4.846   5.441 -0.0721  0.2453 -0.2178
  810MOL0     C11675   4.003   4.803   5.530 -0.1041 -0.3516 -1.3459
  810MOL0     C11676   4.134   4.783   5.495 -0.4021 -0.3080 -0.0726
  810MOL0     C11677   4.180   4.819   5.366 -0.3342 -0.1266  0.4195
  810MOL0     O11678   4.316   4.804   5.349 -0.1138  0.6283  0.1893
  810MOL0     C11679   4.366   4.819   5.219 -0.6877 -0.2231 -0.3491
  810MOL0     C11680   4.500   4.739   5.199  0.2461 -0.0587  0.7666
  810MOL0     C11681   4.532   4.741   5.050 -0.8786  0.0921 -1.0674
  810MOL0     C11682   4.653   4.644   5.012  0.7175  0.3731 -0.5740
  810MOL0     C11683   4.782   4.676   5.083 -0.8677 -0.3576  0.2077
  810MOL0     C11684   4.890   4.577   5.029 -0.3852  0.4202 -0.6054
  810MOL0     C11685   5.033   4.597   5.079 -0.7766  0.3080 -0.3329
  810MOL0     C11686   5.074   4.488   5.173 -1.6628  0.0692 -0.4410
  810MOL0    Cl11687   5.249   4.472   5.200 -0.1448  0.1362  0.6925
  810MOL0     C11688   4.080   4.881   5.279  0.3928  0.0152  0.1578
  810MOL0     C11689   3.941   4.886   5.310 -0.0620 -0.2479  0.4259
  810MOL0     O11690   3.677   4.798   5.311 -0.4954 -0.0689 -0.1804
  810MOL0     C11691   3.531   4.902   5.613  0.1701  0.6962  0.1284
  810MOL0     C11692   3.407   4.923   5.671  0.1813 -0.0303  0.0764
  810MOL0     N11693   2.797   5.263   6.041 -0.0486 -0.3669 -0.1559
  810MOL0     N11694   2.789   5.336   6.157  0.7074  0.0733 -0.0214
  810MOL0     C11695   3.274   6.089   6.408 -0.5730 -0.7649  0.2718
  810MOL0     C11696   3.405   6.133   6.429  0.0538  0.3777 -0.1728
  810MOL0     C11697   3.796   6.333   6.383 -0.3155  0.3888  0.0386
  810MOL0     C11698   3.864   6.209   6.398  1.1697 -0.4518  0.0734
  810MOL0     C11699   3.996   6.207   6.428 -0.7277 -0.9327  0.5887
  810MOL0     C11700   4.061   6.329   6.444 -0.0827  0.6300 -0.1849
  810MOL0     O11701   4.203   6.344   6.460  0.4206  0.1208  0.0400
  810MOL0     C11702   4.280   6.218   6.453  0.4918 -0.1222 -0.0541
  810MOL0     C11703   4.428   6.269   6.444  0.1003  0.7286 -0.2098
  810MOL0     C11704   4.525   6.157   6.389  0.3095  0.0183 -0.2923
  810MOL0     C11705   4.553   6.053   6.489 -0.1560  0.4331 -1.0515
  810MOL0     C11706   4.617   5.934   6.434  0.0167 -1.7088 -0.1404
  810MOL0     C11707   4.664   5.825   6.408 -0.3004 -0.0826 -0.5694
  810MOL0     C11708   4.002   6.455   6.439  0.4987 -0.2563 -0.3026
  810MOL0     C11709   3.872   6.455   6.406  1.0146 -0.4672 -0.4105
  810MOL0     C11710   3.803   6.589   6.389 -0.3639 -0.2005 -0.0511
  810MOL0     H11711   3.410   6.448   6.355  1.2622  0.6122  3.7615
  810MOL0     H11712   3.191   6.372   6.236 -0.8388 -1.7245 -0.4532
  810MOL0     H11713   3.031   6.165   6.095  2.3830  0.2482  0.7521
  810MOL0     H11714   2.992   6.307   6.208  0.4089 -0.2322  1.0465
  810MOL0     H11715   2.789   6.161   6.279 -3.1843 -1.6675 -0.7809
  810MOL0     H11716   2.794   6.219   6.111  0.9216  2.2225  1.5823
  810MOL0     H11717   2.873   5.982   6.043  0.1988  0.5856 -0.5627
  810MOL0     H11718   2.878   5.954   6.222 -0.0923  1.0847 -0.5069
  810MOL0     H11719   2.643   5.944   6.228 -1.3603  2.5843 -0.7377
  810MOL0     H11720   2.618   6.050   6.097 -3.8123  0.0644  3.2755
  810MOL0     H11721   2.669   5.900   5.938  1.4513  0.1931 -0.1757
  810MOL0     H11722   2.543   5.829   6.039  0.1672 -3.3081 -1.3105
  810MOL0     H11723   2.711   5.667   5.965 -1.8994  0.8837  0.5423
  810MOL0     H11724   2.836   5.764   6.039 -0.1057 -1.1514 -0.4346
  810MOL0     H11725   2.627   5.588   6.153  0.1383  1.4106 -4.0946
  810MOL0     H11726   2.675   5.725   6.260  0.5259 -0.0944  0.0494
  810MOL0     H11727   2.924   5.640   6.236 -0.7298  1.3940  0.3622
  810MOL0     H11728   2.820   5.537   6.327 -1.9301  2.4681  0.1226
  810MOL0     H11729   2.941   5.540   5.957  0.8349 -0.8771 -0.8601
  810MOL0     H11730   2.877   5.393   5.765  2.4192  0.1450 -1.4413
  810MOL0     H11731   2.807   5.229   5.785  0.0284 -1.2124 -0.5875
  810MOL0     H11732   3.018   5.234   5.674 -0.6017 -0.4233 -0.3227
  810MOL0     H11733   3.118   5.273   5.819  2.4955 -1.2224 -4.3921
  810MOL0     H11734   3.010   5.066   5.927 -0.6259 -1.8721 -0.1828
  810MOL0     H11735   2.934   5.030   5.767  0.0333  2.5601 -1.7270
  810MOL0     H11736   3.247   5.047   5.820 -0.0568 -2.8423  0.6511
  810MOL0     H11737   3.138   4.898   5.821 -2.3016 -0.7405 -2.4473
  810MOL0     H11738   3.205   4.898   5.408  0.3861  1.5744 -0.7518
  810MOL0     H11739   3.449   4.770   5.196 -2.7802 -0.7080 -1.3603
  810MOL0     H11740   3.471   4.948   5.211  0.1562  0.1503  0.0981
  810MOL0     H11741   3.315   4.874   5.213 -0.1066  0.9605  1.3232
  810MOL0     H11742   3.968   4.794   5.632 -0.3877  1.6443 -1.2413
  810MOL0     H11743   4.213   4.758   5.566 -0.8395 -1.5741 -0.0093
  810MOL0     H11744   4.291   4.777   5.153 -3.6475  1.0458  1.9698
  810MOL0     H11745   4.382   4.923   5.190 -3.8151  0.2276 -0.8083
  810MOL0     H11746   4.580   4.780   5.261  2.4585 -1.5557 -0.9545
  810MOL0     H11747   4.491   4.634   5.231 -0.2011 -0.1164  0.4552
  810MOL0     H11748   4.552   4.843   5.014  1.4062  0.6630  1.4189
  810MOL0     H11749   4.448   4.708   4.989  0.4817  2.0544 -4.2711
  810MOL0     H11750   4.672   4.641   4.904 -1.9101 -2.0032 -1.0816
  810MOL0     H11751   4.640   4.536   5.024  3.7449  0.0868  1.2063
  810MOL0     H11752   4.802   4.779   5.052 -1.4435  0.9562  3.6769
  810MOL0     H11753   4.788   4.691   5.191  1.1070 -1.5718  0.2985
  810MOL0     H11754   4.894   4.569   4.920 -0.9935  3.4104 -0.9311
  810MOL0     H11755   4.865   4.480   5.073  0.0567  0.8456  0.6515
  810MOL0     H11756   5.040   4.696   5.126  3.5488 -0.1260  0.3853
  810MOL0     H11757   5.092   4.610   4.987 -2.0039  0.6563 -1.0937
  810MOL0     H11758   5.041   4.388   5.143  2.0517 -0.5118 -3.4662
  810MOL0     H11759   5.030   4.507   5.271 -0.3437  0.0881  0.1714
  810MOL0     H11760   4.121   4.894   5.179  0.5256 -2.3957 -0.1505
  810MOL0     H11761   3.871   4.933   5.242 -0.6291 -1.0649  0.4294
  810MOL0     H11762   3.616   4.907   5.681 -0.9740 -1.7950  1.9103
  810MOL0     H11763   3.399   4.924   5.779  2.1767 -0.0720  0.2542
  810MOL0     H11764   3.250   5.983   6.417 -0.6797 -1.3082 -4.0652
  810MOL0     H11765   3.481   6.064   6.464 -2.6071 -2.2570  0.7511
  810MOL0     H11766   3.799   6.122   6.408 -1.9258  1.7001  0.1011
  810MOL0     H11767   4.056   6.118   6.444  3.8416  1.5665 -0.8604
  810MOL0     H11768   4.266   6.150   6.537  1.0937 -0.9528 -0.6119
  810MOL0     H11769   4.241   6.166   6.365 -1.1149 -0.4404  0.8187
  810MOL0     H11770   4.465   6.289   6.545  0.5957 -3.7660  0.7152
  810MOL0     H11771   4.424   6.361   6.386 -0.8164  0.2927 -0.8530
  810MOL0     H11772   4.471   6.106   6.310 -0.6326  2.3796 -1.2472
  810MOL0     H11773   4.616   6.199   6.346  0.0719 -0.5469 -1.3660
  810MOL0     H11774   4.460   6.030   6.543  0.3394  1.2061  0.1705
  810MOL0     H11775   4.621   6.102   6.560 -0.5476 -0.7256  0.1591
  810MOL0     H11776   4.715   5.733   6.387  1.7949  0.2809  2.2504
  810MOL0     H11777   4.071   6.537   6.454 -1.4575  1.7341 -1.5202
  810MOL0     H11778   3.700   6.583   6.426  0.3666 -0.6604  2.0454
  810MOL0     H11779   3.874   6.652   6.444  2.0446 -1.0469 -2.0646
  810MOL0     H11780   3.814   6.617   6.284 -0.1288 -0.0173  0.0224
  811MOL0     O11781  10.435  10.344   7.366  0.4282 -0.6342  0.6286
  811MOL0     C11782  10.375  10.262   7.296 -0.1908 -0.0519  0.6852
  811MOL0     O11783  10.432  10.216   7.183  0.2729 -0.0184  0.3653
  811MOL0     C11784  10.549  10.272   7.139 -0.5656 -0.2159  0.8303
  811MOL0     C11785  10.666  10.284   7.213 -0.0192  1.1963  0.4733
  811MOL0     C11786  10.786  10.351   7.173  0.2663 -0.4817 -0.5247
  811MOL0     C11787  10.794  10.396   7.042 -0.3759 -0.7451  0.7285
  811MOL0     O11788  10.920  10.445   7.012 -0.3710 -0.4582 -0.1028
  811MOL0     C11789  10.928  10.511   6.885  0.3567  0.1451  0.1131
  811MOL0     C11790  11.076  10.539   6.854 -0.2567 -0.3500  0.3155
  811MOL0     C11791  11.167  10.426   6.842 -0.6193 -0.2432 -0.3090
  811MOL0     C11792  11.120  10.295   6.768  0.5367 -0.1025 -1.0795
  811MOL0     C11793  11.232  10.197   6.754 -1.2100  0.0031 -0.3065
  811MOL0     C11794  11.191  10.051   6.751 -0.7258 -0.3212 -0.1044
  811MOL0     C11795  11.125  10.007   6.614  0.2547  0.2531  0.0884
  811MOL0     C11796  11.116   9.847   6.608 -0.8754 -0.1676 -0.0375
  811MOL0     N11797  11.002   9.793   6.679 -0.5305  1.0088  0.4414
  811MOL0     C11798  11.026   9.707   6.789  0.0135 -0.8380  0.1944
  811MOL0     C11799  10.911   9.639   6.809  1.0569 -0.3784 -0.5332
  811MOL0     C11800  10.857   9.535   6.906  0.2430  0.0827  0.2713
  811MOL0     C11801  10.982   9.479   6.979  0.1636 -0.2467  0.1831
  811MOL0     C11802  11.039   9.580   7.090  0.7471  0.4089 -0.4088
  811MOL0     C11803  11.193   9.579   7.077  0.0913 -0.7817  0.3961
  811MOL0     O11804  11.241   9.694   7.147  0.7065  0.2288  0.1678
  811MOL0     C11805  11.380   9.714   7.149  0.0958 -0.0496 -2.1275
  811MOL0     C11806  11.473   9.646   7.071  1.1009  0.1573  0.5145
  811MOL0     C11807  11.603   9.643   7.098 -0.8939 -0.4492 -0.3391
  811MOL0     C11808  11.686   9.572   6.992  0.1945  0.9743  1.0286
  811MOL0     C11809  11.655   9.712   7.208  0.0932 -0.0711 -1.2784
  811MOL0     C11810  11.796   9.714   7.256  0.0551  0.1434  0.5270
  811MOL0     O11811  11.843   9.823   7.321 -0.0016 -0.6770 -0.4381
  811MOL0     C11812  11.968   9.825   7.371  0.1608  0.2610  0.5095
  811MOL0     C11813  12.037   9.725   7.442 -0.5186  0.6932  1.4202
  811MOL0     C11814  12.166   9.747   7.492  0.6842  0.8721 -0.3415
  811MOL0     C11815  12.233   9.874   7.460  0.6902  0.6198 -1.5270
  811MOL0     O11816  12.352   9.916   7.512 -0.2088  0.2652  0.0375
  811MOL0     C11817  12.453   9.830   7.565 -0.4339  0.0271  0.1636
  811MOL0     C11818  12.447   9.824   7.718 -0.7932 -0.1550  0.2941
  811MOL0     C11819  12.552   9.745   7.780 -0.8938  0.0819  0.7912
  811MOL0     C11820  12.542   9.769   7.933  0.1462 -0.6812 -0.7296
  811MOL0     C11821  12.663   9.687   8.003  1.3660 -0.6570  0.2045
  811MOL0     C11822  12.799   9.748   8.005 -0.2609 -0.0244 -0.4261
  811MOL0     C11823  12.823   9.877   8.092  1.0999 -0.9246 -0.7260
  811MOL0     C11824  12.766   9.864   8.230 -0.5147  0.4495 -0.8314
  811MOL0    Cl11825  12.813  10.006   8.322  0.4572  0.6858  0.2765
  811MOL0     C11826  12.167   9.956   7.377  0.1577 -1.1442  0.3562
  811MOL0     C11827  12.043   9.939   7.334 -0.1954 -0.2139 -0.9706
  811MOL0     O11828  11.864   9.616   7.224 -0.0902  0.1513 -0.3561
  811MOL0     C11829  11.563   9.794   7.276  0.6757  0.3150  0.6775
  811MOL0     C11830  11.422   9.796   7.255  0.2721  1.3326  0.2674
  811MOL0     N11831  10.831   9.683   6.704 -0.3214 -1.0549  0.4458
  811MOL0     N11832  10.890   9.765   6.627  1.0210  0.0519 -0.0749
  811MOL0     C11833  10.680  10.382   6.954 -0.0892  0.1662  0.0950
  811MOL0     C11834  10.561  10.329   7.005 -0.3320  0.3424 -0.1284
  811MOL0     C11835  10.246  10.213   7.331  0.2566 -0.3130 -0.8921
  811MOL0     C11836  10.207  10.085   7.278 -0.5615  0.0677  0.3859
  811MOL0     C11837  10.090  10.015   7.310  0.5097 -0.2892  0.4552
  811MOL0     C11838   9.995  10.072   7.389  0.5247  0.0811  0.7643
  811MOL0     O11839   9.870  10.007   7.398  0.0945  0.8908 -0.1632
  811MOL0     C11840   9.869   9.895   7.492 -0.1748 -1.1520  0.5931
  811MOL0     C11841   9.852   9.942   7.627 -0.4968 -0.8298  0.2230
  811MOL0     C11842   9.712  10.000   7.649  1.1136  0.2234 -0.1809
  811MOL0     C11843   9.714  10.108   7.769 -0.2752  0.2956 -0.8506
  811MOL0     C11844   9.575  10.159   7.800  0.2917 -0.1510 -0.0892
  811MOL0     C11845   9.462  10.196   7.831 -0.5976  0.0334 -0.3123
  811MOL0     C11846  10.028  10.202   7.440 -0.0818 -0.2069 -0.1516
  811MOL0     C11847  10.145  10.276   7.412 -0.0083 -0.1270 -0.3396
  811MOL0     C11848  10.172  10.417   7.479 -1.2720 -0.3778  0.1716
  811MOL0     H11849  10.684  10.274   7.320  0.4880 -1.7128  0.1899
  811MOL0     H11850  10.874  10.360   7.235 -0.4760  0.6806  0.4140
  811MOL0     H11851  10.877  10.607   6.892 -1.4141 -0.7322 -0.1547
  811MOL0     H11852  10.891  10.447   6.804 -5.8745 -1.9617  3.9511
  811MOL0     H11853  11.086  10.587   6.756 -1.5408 -3.8930 -1.7606
  811MOL0     H11854  11.098  10.598   6.943  0.2287 -1.0317  0.6576
  811MOL0     H11855  11.260  10.461   6.796 -0.2816 -2.3983 -1.4036
  811MOL0     H11856  11.201  10.411   6.945  3.0107 -0.5994 -1.4271
  811MOL0     H11857  11.032  10.255   6.819 -0.2561  1.4926 -1.1339
  811MOL0     H11858  11.075  10.322   6.672  0.3764  1.5314 -0.5834
  811MOL0     H11859  11.305  10.206   6.835  0.3552  1.2047 -1.7712
  811MOL0     H11860  11.297  10.210   6.667 -0.2243  2.9650  0.7497
  811MOL0     H11861  11.282   9.994   6.770 -0.0312  0.8975  0.3040
  811MOL0     H11862  11.122  10.033   6.834 -0.1260  2.9790  1.2377
  811MOL0     H11863  11.186  10.040   6.529 -1.6134 -1.0540 -1.8600
  811MOL0     H11864  11.024  10.049   6.614  0.2102  0.1741 -1.1185
  811MOL0     H11865  11.124   9.804   6.507  4.7934 -0.8063  0.3384
  811MOL0     H11866  11.203   9.805   6.660 -0.7374  0.5706  0.3550
  811MOL0     H11867  11.119   9.708   6.845 -0.6714 -0.0773  1.3452
  811MOL0     H11868  10.815   9.450   6.851  3.9504 -0.8356 -1.5094
  811MOL0     H11869  10.781   9.580   6.971 -0.4523  3.4359 -2.5224
  811MOL0     H11870  10.944   9.384   7.018 -2.7069  0.6014 -0.2991
  811MOL0     H11871  11.059   9.464   6.902 -1.5139 -5.1828 -0.8748
  811MOL0     H11872  10.994   9.678   7.073 -0.5035 -0.1152 -0.1643
  811MOL0     H11873  11.008   9.549   7.190  1.0024  0.9872 -0.1479
  811MOL0     H11874  11.241   9.493   7.124  3.7999  1.7163  1.5719
  811MOL0     H11875  11.223   9.582   6.972 -0.3824  1.5514  0.2718
  811MOL0     H11876  11.447   9.598   6.978  2.3421  0.4773 -0.0206
  811MOL0     H11877  11.744   9.491   7.036 -0.3243  1.5405  2.8075
  811MOL0     H11878  11.748   9.644   6.937 -1.1700  0.5395 -1.1928
  811MOL0     H11879  11.624   9.531   6.911  0.9471  0.1531  0.8486
  811MOL0     H11880  11.981   9.635   7.468 -0.1438  0.1798  0.4724
  811MOL0     H11881  12.202   9.676   7.566  1.9867 -0.0312 -1.7709
  811MOL0     H11882  12.449   9.731   7.517 -1.1646 -1.2231  2.6675
  811MOL0     H11883  12.549   9.878   7.541 -1.1823  2.0972  1.1417
  811MOL0     H11884  12.464   9.926   7.754  0.2670 -0.3761  0.4703
  811MOL0     H11885  12.356   9.786   7.765 -0.2796  1.3778  2.7554
  811MOL0     H11886  12.646   9.785   7.741 -0.1666 -2.6685 -0.5251
  811MOL0     H11887  12.534   9.642   7.748  0.3987  0.7003 -2.3174
  811MOL0     H11888  12.447   9.731   7.972  0.4096 -0.2730  0.3626
  811MOL0     H11889  12.545   9.876   7.957  0.6875 -0.6500 -0.9345
  811MOL0     H11890  12.626   9.666   8.104 -2.7128 -1.6482 -1.3137
  811MOL0     H11891  12.662   9.594   7.946 -0.7125  0.0271 -0.9812
  811MOL0     H11892  12.814   9.761   7.897 -0.8256 -2.9529 -0.9365
  811MOL0     H11893  12.863   9.670   8.046  0.7514  1.4900  1.0145
  811MOL0     H11894  12.785   9.967   8.044 -0.0953 -1.4726 -0.8474
  811MOL0     H11895  12.931   9.893   8.102  0.9881 -0.3649 -0.3473
  811MOL0     H11896  12.822   9.777   8.268  0.2412  0.2599 -2.3161
  811MOL0     H11897  12.660   9.841   8.235  0.1505 -3.1811 -0.1626
  811MOL0     H11898  12.210  10.051   7.345 -3.5522 -0.3184 -3.0367
  811MOL0     H11899  11.989  10.020   7.286 -1.8881  2.4259  4.5371
  811MOL0     H11900  11.584   9.839   7.372 -0.9115 -0.3777  1.3828
  811MOL0     H11901  11.351   9.856   7.312 -1.7863  0.9711 -1.7571
  811MOL0     H11902  10.678  10.410   6.849 -1.1009  1.3134  0.3957
  811MOL0     H11903  10.468  10.337   6.951 -1.0011 -3.4107  0.1992
  811MOL0     H11904  10.277  10.023   7.225 -1.7871  0.8554 -2.3126
  811MOL0     H11905  10.067   9.922   7.258  0.4236 -1.2114  2.0713
  811MOL0     H11906   9.794   9.819   7.466 -0.9639  0.5635 -2.7495
  811MOL0     H11907   9.965   9.843   7.484  1.5164  1.9231 -1.2324
  811MOL0     H11908   9.930  10.013   7.655 -1.6092  0.4456  0.1996
  811MOL0     H11909   9.865   9.857   7.694 -2.4812 -3.0238 -1.9860
  811MOL0     H11910   9.675  10.047   7.558 -1.3705  0.8171  1.0381
  811MOL0     H11911   9.643   9.917   7.667  0.7452  0.5301 -0.1500
  811MOL0     H11912   9.763  10.200   7.737 -3.1991  1.9176 -1.1044
  811MOL0     H11913   9.760  10.067   7.859 -2.5283 -0.1285  0.1929
  811MOL0     H11914   9.361  10.221   7.856 -1.0028 -0.7374 -1.0954
  811MOL0     H11915   9.954  10.248   7.505 -0.0738 -1.4924  0.8174
  811MOL0     H11916  10.174  10.488   7.396 -1.0263 -0.6052 -0.0203
  811MOL0     H11917  10.088  10.443   7.545 -0.6328  0.7267  0.5834
  811MOL0     H11918  10.259  10.435   7.543  0.4782  2.0684 -2.6081
  812MOL0     O11919   3.759   4.968   7.257 -0.3252  0.5449 -0.0898
  812MOL0     C11920   3.646   4.975   7.306  0.9778 -0.3336 -1.0039
  812MOL0     O11921   3.569   4.869   7.337 -0.5522  0.2712 -0.3854
  812MOL0     C11922   3.615   4.741   7.298 -1.0744  0.3190  0.3188
  812MOL0     C11923   3.531   4.638   7.248  0.0586 -0.0741  0.2736
  812MOL0     C11924   3.576   4.507   7.231 -0.3683  0.3522 -1.2742
  812MOL0     C11925   3.700   4.463   7.297  0.4093  0.0030  0.2806
  812MOL0     O11926   3.748   4.335   7.297 -0.2684 -0.7768  0.1805
  812MOL0     C11927   3.648   4.221   7.295 -0.0596 -0.5080  0.4002
  812MOL0     C11928   3.727   4.081   7.288  0.5612 -0.4468 -0.2444
  812MOL0     C11929   3.813   4.054   7.413  0.2156  0.4852 -0.0187
  812MOL0     C11930   3.780   3.913   7.471 -0.1906  0.1864  0.6663
  812MOL0     C11931   3.868   3.807   7.427  0.6401  0.3532  0.6897
  812MOL0     C11932   4.025   3.822   7.466 -0.7513 -0.2080  0.4268
  812MOL0     C11933   4.099   3.689   7.487  0.4584 -0.3937 -0.2699
  812MOL0     C11934   4.064   3.579   7.390 -0.1569  0.4206 -0.2022
  812MOL0     N11935   4.139   3.457   7.417  0.4354 -0.2633  0.1348
  812MOL0     C11936   4.148   3.390   7.535  0.5274 -0.0345 -0.3578
  812MOL0     C11937   4.237   3.297   7.499  0.5516  0.3429  0.2265
  812MOL0     C11938   4.301   3.180   7.581  1.8393 -1.2937 -0.1331
  812MOL0     C11939   4.456   3.155   7.570 -0.5948  0.4192 -0.9442
  812MOL0     C11940   4.555   3.270   7.615 -0.4158  0.4965  0.0025
  812MOL0     C11941   4.561   3.390   7.525 -0.8031 -0.1034 -0.2711
  812MOL0     O11942   4.653   3.478   7.588 -0.7980 -0.3390  0.4539
  812MOL0     C11943   4.618   3.612   7.607  0.8481 -0.2357  0.4977
  812MOL0     C11944   4.683   3.700   7.698 -0.3764  0.0853 -0.0952
  812MOL0     C11945   4.642   3.840   7.722 -0.3037  0.3382 -0.3482
  812MOL0     C11946   4.727   3.902   7.826  0.1428  0.1251  0.1325
  812MOL0     C11947   4.535   3.897   7.655 -0.4531 -0.1322 -0.5125
  812MOL0     C11948   4.474   4.032   7.689  0.9768  0.1364 -0.5669
  812MOL0     O11949   4.368   4.069   7.616  0.4658  0.3966 -0.8541
  812MOL0     C11950   4.293   4.180   7.629  0.0307 -1.0194  0.4705
  812MOL0     C11951   4.322   4.295   7.709  0.9610 -0.3405 -0.2422
  812MOL0     C11952   4.254   4.412   7.704 -0.1044 -0.5293  0.6789
  812MOL0     C11953   4.140   4.422   7.612  0.6205  1.3835  0.8317
  812MOL0     O11954   4.065   4.528   7.618 -0.2268  0.0590  0.0707
  812MOL0     C11955   3.943   4.498   7.699  0.9464  0.4479  0.1704
  812MOL0     C11956   3.852   4.623   7.694 -0.5499  0.2953  0.3082
  812MOL0     C11957   3.846   4.692   7.830 -0.0115 -0.1910  0.2769
  812MOL0     C11958   3.838   4.857   7.825  0.8040  0.1509 -0.1603
  812MOL0     C11959   3.723   4.924   7.745  0.4838 -0.3250 -0.6969
  812MOL0     C11960   3.591   4.889   7.817 -0.3224 -0.7192 -0.6492
  812MOL0     C11961   3.460   4.917   7.748 -0.1570 -0.3725 -0.3331
  812MOL0     C11962   3.344   4.899   7.838  0.5837  0.0598  0.0303
  812MOL0    Cl11963   3.305   4.716   7.853 -0.0535 -0.2708 -0.1791
  812MOL0     C11964   4.119   4.315   7.526 -0.2578 -0.8827  0.2938
  812MOL0     C11965   4.191   4.192   7.531 -0.5430 -0.0231 -0.2732
  812MOL0     O11966   4.537   4.100   7.766  0.7111 -0.2015  0.5059
  812MOL0     C11967   4.471   3.815   7.559  0.3981  0.8373  0.8162
  812MOL0     C11968   4.512   3.684   7.534  0.2013  0.1640  0.2508
  812MOL0     N11969   4.286   3.304   7.374  0.6555  0.1096 -0.1482
  812MOL0     N11970   4.221   3.399   7.322  0.2403  0.7814  0.2992
  812MOL0     C11971   3.789   4.566   7.326 -0.2283  1.5073  0.6466
  812MOL0     C11972   3.744   4.699   7.340  0.4621 -0.2063 -0.3216
  812MOL0     C11973   3.587   5.117   7.330  0.3914  0.1469  0.5814
  812MOL0     C11974   3.666   5.237   7.309 -0.9267  0.2421 -0.5595
  812MOL0     C11975   3.621   5.363   7.327 -0.9473  0.7257  0.7322
  812MOL0     C11976   3.499   5.383   7.376 -0.0194  0.6611 -0.0557
  812MOL0     O11977   3.445   5.512   7.390 -0.1394 -0.6411 -0.4310
  812MOL0     C11978   3.533   5.619   7.398  0.1651  0.6756 -0.3893
  812MOL0     C11979   3.457   5.749   7.423 -0.4880 -0.1869  0.7992
  812MOL0     C11980   3.558   5.872   7.428 -0.6148  0.4239 -0.4817
  812MOL0     C11981   3.478   6.003   7.458  0.0746  0.3526  0.6807
  812MOL0     C11982   3.555   6.125   7.479 -0.1450  0.2088  0.1361
  812MOL0     C11983   3.637   6.218   7.480  0.0559  0.4632 -0.2291
  812MOL0     C11984   3.409   5.277   7.391 -0.5177 -0.0402 -0.5518
  812MOL0     C11985   3.453   5.150   7.368 -1.0682  0.5375 -0.1434
  812MOL0     C11986   3.346   5.044   7.384 -0.1666 -0.1321 -0.9587
  812MOL0     H11987   3.428   4.654   7.220 -1.3034 -0.8235  4.2806
  812MOL0     H11988   3.514   4.429   7.186  1.5580 -1.9218 -0.1941
  812MOL0     H11989   3.596   4.241   7.201 -0.7232 -1.4463  0.5526
  812MOL0     H11990   3.577   4.222   7.378  0.6583 -1.1771  1.0479
  812MOL0     H11991   3.642   4.012   7.278 -0.0108  0.3408 -0.9836
  812MOL0     H11992   3.795   4.071   7.203  1.9461  1.8576  0.5033
  812MOL0     H11993   3.917   4.047   7.382 -0.4783 -2.0367 -2.0932
  812MOL0     H11994   3.800   4.131   7.490  2.0675  0.4341  0.3918
  812MOL0     H11995   3.814   3.912   7.575  3.4819  1.0847 -0.3864
  812MOL0     H11996   3.673   3.892   7.461 -0.4174  0.2626  2.6432
  812MOL0     H11997   3.849   3.801   7.320  1.0664  3.3004  0.3638
  812MOL0     H11998   3.834   3.719   7.482  0.7910 -0.9728 -1.2206
  812MOL0     H11999   4.070   3.881   7.385 -1.1514 -0.8879 -0.3052
  812MOL0     H12000   4.035   3.888   7.552 -0.1072 -2.0534  1.8263
  812MOL0     H12001   4.093   3.656   7.591  2.0477  0.1200  0.0136
  812MOL0     H12002   4.206   3.714   7.485  0.2537  0.4581 -0.7217
  812MOL0     H12003   3.958   3.555   7.396  0.2327 -1.0891  1.4102
  812MOL0     H12004   4.094   3.615   7.291  2.6785 -0.1740  0.3569
  812MOL0     H12005   4.110   3.401   7.636 -3.0017 -2.0521 -1.2924
  812MOL0     H12006   4.256   3.086   7.548 -1.8248  0.0150  0.6356
  812MOL0     H12007   4.286   3.203   7.687 -2.4862  1.8429 -1.1609
  812MOL0     H12008   4.479   3.071   7.636 -0.3656 -1.3289 -3.1428
  812MOL0     H12009   4.490   3.115   7.475  4.3136  1.5993  0.0587
  812MOL0     H12010   4.515   3.313   7.707 -0.0311  2.6307 -0.7842
  812MOL0     H12011   4.656   3.231   7.631 -0.1878  0.0136 -2.2599
  812MOL0     H12012   4.609   3.372   7.429 -2.9836  3.4741 -2.2581
  812MOL0     H12013   4.458   3.425   7.512 -1.4035 -2.4281 -2.7052
  812MOL0     H12014   4.751   3.645   7.763 -1.6779 -1.7641 -0.2520
  812MOL0     H12015   4.827   3.857   7.834  0.3017  0.4532  0.0169
  812MOL0     H12016   4.684   3.887   7.925  1.4157  1.7100  0.9796
  812MOL0     H12017   4.744   4.010   7.816  1.9727  0.1940  2.8169
  812MOL0     H12018   4.404   4.285   7.779 -1.8555 -0.8158  3.3103
  812MOL0     H12019   4.275   4.503   7.760 -2.8650  1.0810 -0.6935
  812MOL0     H12020   3.882   4.419   7.655  0.2194  1.5331 -0.8569
  812MOL0     H12021   3.977   4.470   7.799  3.0520  1.6989 -0.1239
  812MOL0     H12022   3.891   4.695   7.621 -1.2833  1.1548  0.7381
  812MOL0     H12023   3.753   4.597   7.658  0.2978 -2.4804 -0.1929
  812MOL0     H12024   3.934   4.667   7.890 -0.3565  2.8458  2.2784
  812MOL0     H12025   3.758   4.658   7.887  0.7704  0.1870  1.7589
  812MOL0     H12026   3.935   4.904   7.805  0.8122 -0.1267 -0.7859
  812MOL0     H12027   3.836   4.894   7.928 -1.3257  1.2035 -0.5252
  812MOL0     H12028   3.741   5.032   7.739  1.7344 -0.3673  1.2853
  812MOL0     H12029   3.727   4.899   7.639  2.3418 -1.3149 -0.4401
  812MOL0     H12030   3.586   4.943   7.912  0.4413 -2.5447  0.4907
  812MOL0     H12031   3.593   4.780   7.828 -2.9594 -0.7151  0.5230
  812MOL0     H12032   3.455   4.859   7.656 -1.2689  1.4668 -1.5114
  812MOL0     H12033   3.448   5.020   7.712 -1.2098 -0.5782 -0.6001
  812MOL0     H12034   3.263   4.954   7.790  0.1944  2.9682  3.6111
  812MOL0     H12035   3.355   4.937   7.940 -0.9472 -2.0790  1.0892
  812MOL0     H12036   4.053   4.330   7.441  0.2683  3.1045  0.3928
  812MOL0     H12037   4.177   4.117   7.454  2.5238  1.2602 -2.2710
  812MOL0     H12038   4.380   3.852   7.511  0.0698  1.0416  1.5797
  812MOL0     H12039   4.469   3.635   7.447 -1.7721  1.9423  0.1476
  812MOL0     H12040   3.887   4.555   7.370 -1.0470  2.5878  2.8891
  812MOL0     H12041   3.813   4.759   7.398  0.0744 -0.9186  0.8930
  812MOL0     H12042   3.770   5.241   7.278 -0.9420  5.3023 -0.7974
  812MOL0     H12043   3.692   5.444   7.319 -0.0159 -0.1512 -0.3027
  812MOL0     H12044   3.612   5.596   7.470 -0.7771  0.5494  0.6293
  812MOL0     H12045   3.586   5.626   7.303 -4.1568 -0.2544 -3.1972
  812MOL0     H12046   3.417   5.744   7.524 -1.6309 -1.2719  0.3217
  812MOL0     H12047   3.377   5.761   7.350 -1.2779 -1.1541  1.4713
  812MOL0     H12048   3.640   5.868   7.500 -2.2725 -0.2672  1.4652
  812MOL0     H12049   3.607   5.885   7.331  0.4343  1.0032  0.1070
  812MOL0     H12050   3.429   5.996   7.555  2.1134  0.0361  1.7530
  812MOL0     H12051   3.407   6.022   7.377  0.4848  2.4407  0.7619
  812MOL0     H12052   3.699   6.305   7.488  2.3397 -1.0132 -0.8209
  812MOL0     H12053   3.308   5.301   7.422 -0.1361 -0.2148  0.9492
  812MOL0     H12054   3.272   5.085   7.454  1.3464 -0.4616  0.9118
  812MOL0     H12055   3.304   5.000   7.293 -1.2617  0.6590 -0.8634
  812MOL0     H12056   3.380   4.953   7.434 -1.0090  0.6602  1.1917
  813MOL0     O12057  10.916  10.105   0.961  0.6682 -0.7482  0.1600
  813MOL0     C12058  10.874  10.212   1.016  0.1025  0.2782  0.6256
  813MOL0     O12059  10.742  10.255   1.014 -0.0116 -0.2446  0.6401
  813MOL0     C12060  10.638  10.172   0.981  0.6752  0.1097 -0.0643
  813MOL0     C12061  10.514  10.246   0.959 -0.0976 -0.3778 -0.7295
  813MOL0     C12062  10.394  10.184   0.964  0.1897  0.0267 -0.6091
  813MOL0     C12063  10.388  10.049   0.963  0.3105  0.3172  0.3036
  813MOL0     O12064  10.258  10.008   0.957 -0.0482  0.1243 -0.3726
  813MOL0     C12065  10.228   9.876   0.997  0.6530  0.2025 -0.6106
  813MOL0     C12066  10.114   9.866   1.090  0.6148  0.5870  0.1272
  813MOL0     C12067  10.044   9.719   1.090 -0.1545 -0.4562 -0.3617
  813MOL0     C12068   9.914   9.729   1.152 -0.5808  0.0199 -0.2931
  813MOL0     C12069   9.822   9.614   1.132  0.2462  0.4206 -0.9252
  813MOL0     C12070   9.802   9.582   0.973  0.2568  0.7189 -0.7643
  813MOL0     C12071   9.661   9.519   0.939 -0.7384 -0.1335 -0.7740
  813MOL0     C12072   9.616   9.515   0.799 -0.1429 -0.3312  0.5084
  813MOL0     N12073   9.499   9.440   0.783  0.7146 -0.0792  0.5595
  813MOL0     C12074   9.491   9.305   0.777  1.3954  1.0068  0.3443
  813MOL0     C12075   9.358   9.282   0.770  0.6353  0.6569 -0.0734
  813MOL0     C12076   9.299   9.141   0.785 -0.8703  0.5327 -0.0843
  813MOL0     C12077   9.195   9.152   0.890 -0.1824 -0.8679  0.5444
  813MOL0     C12078   9.124   9.020   0.885  1.3053 -0.3626  0.0866
  813MOL0     C12079   8.980   9.031   0.949 -0.2996 -0.6308  0.6266
  813MOL0     O12080   8.961   8.894   0.965  0.4774 -0.3362 -0.9591
  813MOL0     C12081   8.902   8.844   1.081  0.9306 -0.3573  0.3676
  813MOL0     C12082   8.777   8.879   1.119 -0.5970 -0.7007  0.3429
  813MOL0     C12083   8.718   8.824   1.234 -0.3709 -0.1587  0.2584
  813MOL0     C12084   8.573   8.867   1.259 -0.2473 -0.4475  0.8570
  813MOL0     C12085   8.789   8.734   1.322 -0.2921 -0.8430  0.7492
  813MOL0     C12086   8.727   8.661   1.438 -0.7979 -1.1412  0.0869
  813MOL0     O12087   8.809   8.578   1.510 -1.4909 -0.0485 -0.1584
  813MOL0     C12088   8.737   8.497   1.599 -0.1844 -0.5027  0.2659
  813MOL0     C12089   8.693   8.365   1.559  0.4219  0.4291 -0.0010
  813MOL0     C12090   8.608   8.296   1.636 -0.0543 -0.1569 -0.4804
  813MOL0     C12091   8.577   8.350   1.765  0.7633  0.3119  0.7389
  813MOL0     O12092   8.498   8.266   1.830 -0.5497 -0.0223  0.8479
  813MOL0     C12093   8.427   8.305   1.948  0.0927  0.3580  0.6043
  813MOL0     C12094   8.374   8.168   2.011 -0.3495  0.2060 -0.8608
  813MOL0     C12095   8.481   8.101   2.102  0.8817  0.0769  0.0409
  813MOL0     C12096   8.405   8.028   2.216  0.0549 -0.5531  0.0925
  813MOL0     C12097   8.487   7.961   2.317 -0.2906  0.3017  0.7769
  813MOL0     C12098   8.597   8.046   2.394  0.5717  0.2807  0.9850
  813MOL0     C12099   8.661   7.968   2.504 -0.0164 -0.2869  0.2105
  813MOL0     C12100   8.785   8.051   2.549 -0.0557 -0.1546  0.6832
  813MOL0    Cl12101   8.745   8.196   2.662  0.5803  0.4848  0.0949
  813MOL0     C12102   8.615   8.471   1.812 -0.5382 -1.0125  0.2327
  813MOL0     C12103   8.708   8.541   1.731  0.4509  1.9553 -0.4054
  813MOL0     O12104   8.614   8.691   1.474 -0.9030  0.1988 -0.1698
  813MOL0     C12105   8.914   8.695   1.275  0.2290 -0.5908 -0.6680
  813MOL0     C12106   8.976   8.764   1.171  0.0593  0.2131  0.2959
  813MOL0     N12107   9.289   9.400   0.774  1.1635  0.5772  0.2987
  813MOL0     N12108   9.371   9.493   0.794 -0.1440 -0.4236  0.2223
  813MOL0     C12109  10.500   9.973   0.972  0.7892  0.2353 -0.1168
  813MOL0     C12110  10.629  10.037   0.976  0.0013  0.5911 -0.5765
  813MOL0     C12111  10.989  10.297   1.053 -0.5338  0.7772 -0.7986
  813MOL0     C12112  11.118  10.267   1.002  0.1741 -0.9963 -1.0891
  813MOL0     C12113  11.238  10.317   1.063  0.2912  0.2478  0.3904
  813MOL0     C12114  11.224  10.399   1.169 -0.2624  1.0616 -1.0124
  813MOL0     O12115  11.336  10.428   1.235  0.1050  1.0991  0.0759
  813MOL0     C12116  11.323  10.457   1.380 -0.5818  0.4943  0.2152
  813MOL0     C12117  11.297  10.606   1.408  0.4362 -0.2293 -0.7581
  813MOL0     C12118  11.376  10.657   1.539 -0.3770  0.3110  0.0027
  813MOL0     C12119  11.333  10.799   1.594 -0.5862  0.6680  0.2078
  813MOL0     C12120  11.181  10.819   1.578 -1.6092  0.1644 -0.9303
  813MOL0     C12121  11.067  10.822   1.570 -0.4120 -0.3551  1.6331
  813MOL0     C12122  11.105  10.436   1.212  0.1014  0.2962 -0.7520
  813MOL0     C12123  10.990  10.387   1.156  0.0445 -1.0770  0.0187
  813MOL0     C12124  10.859  10.416   1.217 -0.3974  0.4219 -0.3313
  813MOL0     H12125  10.509  10.353   0.940  1.4515 -0.7535 -3.8214
  813MOL0     H12126  10.307  10.248   0.956  1.7222  1.9467 -5.0531
  813MOL0     H12127  10.311   9.847   1.063 -1.1629 -0.4321  1.4993
  813MOL0     H12128  10.218   9.789   0.932  0.9559 -0.4614  0.2024
  813MOL0     H12129  10.140   9.894   1.193  1.2437 -3.9756  1.4181
  813MOL0     H12130  10.037   9.935   1.055 -0.4012 -0.4781  0.2204
  813MOL0     H12131  10.045   9.675   0.990 -0.8281  1.4007 -1.2309
  813MOL0     H12132  10.110   9.654   1.148 -0.4919  0.4907  1.1468
  813MOL0     H12133   9.930   9.765   1.254  2.9833  1.6379 -1.2908
  813MOL0     H12134   9.862   9.812   1.103 -1.6791 -0.3857  0.1437
  813MOL0     H12135   9.722   9.636   1.173 -0.5011  0.8911 -2.8738
  813MOL0     H12136   9.860   9.527   1.187  1.4206  0.9723 -0.8389
  813MOL0     H12137   9.799   9.676   0.918 -2.2852  0.7477 -0.6996
  813MOL0     H12138   9.884   9.519   0.938  0.5639  0.0744  1.0154
  813MOL0     H12139   9.579   9.579   0.982  0.8727  2.5413 -1.2218
  813MOL0     H12140   9.655   9.418   0.980  3.2606 -1.5679 -3.2288
  813MOL0     H12141   9.594   9.615   0.762 -0.3969 -0.0841  1.3200
  813MOL0     H12142   9.692   9.464   0.739 -0.3516 -1.6852  1.3490
  813MOL0     H12143   9.563   9.230   0.806  0.6765  0.6347  1.2013
  813MOL0     H12144   9.378   9.074   0.820  1.2030  2.9588  0.2226
  813MOL0     H12145   9.264   9.109   0.686  0.2319  1.5736 -0.8307
  813MOL0     H12146   9.232   9.182   0.989 -0.4062 -1.5750  0.8466
  813MOL0     H12147   9.121   9.226   0.859 -2.5730 -2.9013  1.0702
  813MOL0     H12148   9.110   8.985   0.782  1.3207  1.8285 -0.7174
  813MOL0     H12149   9.182   8.949   0.944  0.7216  3.6913  6.4125
  813MOL0     H12150   8.985   9.093   1.039 -2.3879  0.6936 -0.1100
  813MOL0     H12151   8.912   9.082   0.881  0.0139  0.1472  0.8893
  813MOL0     H12152   8.715   8.932   1.048 -1.4012  0.1152  1.6029
  813MOL0     H12153   8.557   8.945   1.334 -2.7612  1.7377 -1.7212
  813MOL0     H12154   8.501   8.785   1.268 -2.3811  1.0849 -1.2017
  813MOL0     H12155   8.553   8.909   1.160  4.5572  0.2890 -0.0872
  813MOL0     H12156   8.712   8.337   1.456 -1.3106  0.0272 -0.2394
  813MOL0     H12157   8.574   8.196   1.611  1.4944 -0.4927 -1.4497
  813MOL0     H12158   8.478   8.370   2.020  0.8641 -0.4556  0.8029
  813MOL0     H12159   8.342   8.357   1.903  0.3948  1.0436  0.8123
  813MOL0     H12160   8.278   8.179   2.061  0.1195  3.1164 -0.4647
  813MOL0     H12161   8.359   8.109   1.920 -0.6612 -2.7694  0.9950
  813MOL0     H12162   8.555   8.169   2.144  2.2165 -0.0319 -2.0087
  813MOL0     H12163   8.534   8.020   2.051 -1.2977  0.8635 -3.8635
  813MOL0     H12164   8.332   7.965   2.166 -1.5166  1.5783 -0.4560
  813MOL0     H12165   8.344   8.104   2.265  0.6685  0.2463 -0.3479
  813MOL0     H12166   8.412   7.923   2.387  0.6134 -1.5534  0.7928
  813MOL0     H12167   8.534   7.879   2.262 -4.8153 -0.8151 -1.9418
  813MOL0     H12168   8.550   8.136   2.434 -0.7156 -0.3053  0.8403
  813MOL0     H12169   8.673   8.068   2.319  1.4214 -3.3489  0.5618
  813MOL0     H12170   8.691   7.875   2.456 -0.4345  1.6126 -4.2749
  813MOL0     H12171   8.593   7.949   2.588  2.1914  1.3139  2.5193
  813MOL0     H12172   8.845   8.093   2.469  0.3948 -0.3241  0.9310
  813MOL0     H12173   8.848   7.985   2.609 -1.4271 -0.7456  1.5361
  813MOL0     H12174   8.591   8.515   1.909  2.3181  2.6846 -0.4798
  813MOL0     H12175   8.754   8.635   1.759  1.5406  1.0273  1.0323
  813MOL0     H12176   8.983   8.637   1.337  1.1422 -0.4951 -1.5633
  813MOL0     H12177   9.082   8.759   1.147  0.3200  1.1386  1.1975
  813MOL0     H12178  10.491   9.865   0.961 -0.6462  0.0242  2.3427
  813MOL0     H12179  10.714   9.975   0.999  0.5344 -0.5218 -4.6965
  813MOL0     H12180  11.123  10.211   0.908  2.4589 -0.9012 -1.0810
  813MOL0     H12181  11.339  10.296   1.030  0.0716  0.9987 -0.8398
  813MOL0     H12182  11.246  10.407   1.440  0.2326  0.5038  1.2920
  813MOL0     H12183  11.419  10.449   1.432 -1.7967  2.0381  2.9048
  813MOL0     H12184  11.193  10.607   1.441 -0.3081  2.2276 -2.8393
  813MOL0     H12185  11.332  10.672   1.328  3.5517 -1.9921 -1.0438
  813MOL0     H12186  11.372  10.587   1.624 -0.4298 -3.2284 -2.6912
  813MOL0     H12187  11.482  10.657   1.510 -0.2840  1.0019  0.3291
  813MOL0     H12188  11.373  10.879   1.531 -1.7310  0.4082 -0.8918
  813MOL0     H12189  11.369  10.817   1.696 -0.3532  0.9799  0.0700
  813MOL0     H12190  10.961  10.839   1.567 -0.2369  0.7105 -0.9031
  813MOL0     H12191  11.094  10.495   1.303  1.0725  1.4879 -1.3635
  813MOL0     H12192  10.783  10.455   1.149  0.5850 -2.3042 -3.2300
  813MOL0     H12193  10.826  10.326   1.271 -0.4559  1.2921  1.1588
  813MOL0     H12194  10.879  10.482   1.302  2.6059 -1.2529  0.4002
  814MOL0     O12195   7.279   7.410   4.431  0.3239  0.5013 -0.0949
  814MOL0     C12196   7.294   7.313   4.510 -0.9489 -0.2695  0.5228
  814MOL0     O12197   7.280   7.181   4.487  0.2940 -0.2040  0.1722
  814MOL0     C12198   7.252   7.134   4.360 -0.2585  0.6456 -0.9379
  814MOL0     C12199   7.268   7.193   4.235  0.1597  0.3286 -0.9912
  814MOL0     C12200   7.220   7.121   4.122 -0.3914 -0.2803 -0.0340
  814MOL0     C12201   7.153   7.005   4.127  0.8384 -0.5640  0.3542
  814MOL0     O12202   7.087   6.968   4.008 -0.0096 -0.6081  0.2336
  814MOL0     C12203   6.975   6.869   4.010 -0.1218  0.0853  0.7683
  814MOL0     C12204   6.851   6.925   4.093 -0.2092 -0.1813 -0.2830
  814MOL0     C12205   6.719   6.874   4.039  0.0471  0.1181  0.0158
  814MOL0     C12206   6.677   6.939   3.904 -0.3535  0.3615 -0.5697
  814MOL0     C12207   6.547   6.896   3.860 -0.3740 -0.1554  0.9466
  814MOL0     C12208   6.520   6.908   3.708  0.7984  1.0983 -1.0699
  814MOL0     C12209   6.364   6.914   3.680  0.1677 -0.4978 -0.3596
  814MOL0     C12210   6.309   7.060   3.683  1.0924 -0.0121  0.0835
  814MOL0     N12211   6.364   7.148   3.581  0.1555  0.4559  0.7698
  814MOL0     C12212   6.458   7.241   3.608  0.4388 -0.6366  0.4341
  814MOL0     C12213   6.454   7.329   3.502 -0.6757  0.6320 -0.3580
  814MOL0     C12214   6.554   7.440   3.484  0.0964  0.4784  0.4928
  814MOL0     C12215   6.478   7.572   3.480  1.0789 -0.2062 -0.2425
  814MOL0     C12216   6.547   7.674   3.569  0.9015 -0.4067  0.7626
  814MOL0     C12217   6.438   7.776   3.617  0.1272 -0.3435 -0.8970
  814MOL0     O12218   6.362   7.827   3.516  0.4736 -0.0035  0.1637
  814MOL0     C12219   6.280   7.933   3.540  0.1431 -0.0207 -0.1901
  814MOL0     C12220   6.225   7.993   3.427  0.1309 -0.8122  0.8184
  814MOL0     C12221   6.125   8.091   3.432  0.3190 -0.8810  0.6415
  814MOL0     C12222   6.044   8.124   3.306  0.6008  0.0576  0.0605
  814MOL0     C12223   6.097   8.152   3.556  1.0540 -0.6455 -0.8124
  814MOL0     C12224   6.003   8.267   3.572  1.4328 -0.6631  0.7866
  814MOL0     O12225   5.950   8.291   3.705 -0.3216 -0.0035  0.0518
  814MOL0     C12226   5.904   8.419   3.728 -1.0105 -0.2015 -0.0085
  814MOL0     C12227   5.772   8.429   3.774  0.0258  0.9835 -0.3041
  814MOL0     C12228   5.727   8.554   3.792 -0.4397 -0.7596 -0.9786
  814MOL0     C12229   5.794   8.676   3.770 -1.6150  0.4489 -0.1353
  814MOL0     O12230   5.741   8.803   3.762  0.6225  0.3191  0.4070
  814MOL0     C12231   5.607   8.815   3.726 -0.1562  0.1486  0.2752
  814MOL0     C12232   5.557   8.963   3.751  0.3599  0.3862 -0.2575
  814MOL0     C12233   5.597   9.026   3.890  0.7342 -0.0060  0.0593
  814MOL0     C12234   5.475   9.100   3.934 -1.0207 -0.5088  0.0064
  814MOL0     C12235   5.508   9.213   4.044 -0.5048  1.0379 -0.7262
  814MOL0     C12236   5.418   9.336   4.028 -0.2090 -0.4424 -0.1740
  814MOL0     C12237   5.494   9.467   4.063  0.0679  0.1404 -0.9364
  814MOL0     C12238   5.402   9.585   4.090  0.2022  0.9858  0.1113
  814MOL0    Cl12239   5.300   9.602   3.946 -0.3319  0.4787 -0.3413
  814MOL0     C12240   5.926   8.658   3.731 -0.1850  0.6471  0.4463
  814MOL0     C12241   5.985   8.533   3.712 -0.3833  0.3297  0.3092
  814MOL0     O12242   5.972   8.344   3.479 -1.0644  0.4198  0.2017
  814MOL0     C12243   6.144   8.085   3.679  0.0183 -0.4313  0.3439
  814MOL0     C12244   6.239   7.979   3.672  0.2647 -0.7865  0.9046
  814MOL0     N12245   6.370   7.281   3.408 -0.0164  0.1061 -0.0341
  814MOL0     N12246   6.315   7.173   3.459  0.9488 -0.5952  0.2399
  814MOL0     C12247   7.136   6.947   4.260  0.0581  0.5147  0.7921
  814MOL0     C12248   7.188   7.014   4.369 -0.9645  0.0845 -0.5281
  814MOL0     C12249   7.336   7.345   4.647 -0.5769 -0.2569 -1.8516
  814MOL0     C12250   7.334   7.241   4.743 -0.4756 -0.1649 -0.6615
  814MOL0     C12251   7.361   7.257   4.879  0.4266 -0.2151  0.2193
  814MOL0     C12252   7.390   7.384   4.924  0.1530 -0.1439 -0.5826
  814MOL0     O12253   7.423   7.417   5.053  0.1876  0.1052 -0.1311
  814MOL0     C12254   7.456   7.313   5.143 -0.0327  0.7335 -0.3324
  814MOL0     C12255   7.490   7.374   5.276  0.4850 -0.8199  0.6970
  814MOL0     C12256   7.526   7.273   5.382  0.0104  0.2535 -0.3667
  814MOL0     C12257   7.463   7.297   5.515 -0.0112  0.3286 -0.8909
  814MOL0     C12258   7.316   7.292   5.518  0.6562  0.0679 -0.0977
  814MOL0     C12259   7.190   7.286   5.532  1.1137 -0.2874 -0.1033
  814MOL0     C12260   7.381   7.492   4.836  0.4474 -0.6542  0.1125
  814MOL0     C12261   7.367   7.472   4.697  1.0792 -0.6408 -0.7617
  814MOL0     C12262   7.381   7.598   4.616  0.5767  0.5220 -0.3978
  814MOL0     H12263   7.318   7.290   4.229  0.8102  0.1526  0.9780
  814MOL0     H12264   7.237   7.164   4.024  0.4138 -0.4689  0.0083
  814MOL0     H12265   7.015   6.776   4.051 -0.7314 -1.7059 -2.3400
  814MOL0     H12266   6.959   6.842   3.905  4.6813 -2.0068  0.3202
  814MOL0     H12267   6.858   6.901   4.199 -2.8683  3.1232  0.7855
  814MOL0     H12268   6.853   7.034   4.094 -0.0945 -0.1838  1.2173
  814MOL0     H12269   6.714   6.764   4.034 -0.0580  0.1152  0.1664
  814MOL0     H12270   6.635   6.900   4.104 -0.9775 -2.7247 -0.0206
  814MOL0     H12271   6.692   7.047   3.912 -0.2095  0.2698  0.4955
  814MOL0     H12272   6.737   6.909   3.818 -0.9123  2.7424 -1.9014
  814MOL0     H12273   6.472   6.957   3.912  0.3532 -2.9763  6.0397
  814MOL0     H12274   6.538   6.792   3.893  0.5339 -0.5328  0.0373
  814MOL0     H12275   6.574   6.996   3.670  1.6283 -0.0718 -2.7127
  814MOL0     H12276   6.566   6.821   3.660 -1.3938 -0.2150 -0.9445
  814MOL0     H12277   6.293   6.873   3.752 -1.1837  3.9553  1.1776
  814MOL0     H12278   6.360   6.873   3.579  0.7133 -1.9926  0.2065
  814MOL0     H12279   6.201   7.057   3.665  1.3404 -3.3398 -1.8275
  814MOL0     H12280   6.315   7.103   3.783 -2.5886 -3.7657  2.2199
  814MOL0     H12281   6.508   7.240   3.704 -0.7064 -0.3121  1.0484
  814MOL0     H12282   6.605   7.420   3.389  0.5100 -2.8608  1.3085
  814MOL0     H12283   6.635   7.425   3.555  0.6211  1.4467  0.1157
  814MOL0     H12284   6.475   7.611   3.378 -0.2847 -3.6237 -1.6628
  814MOL0     H12285   6.372   7.561   3.508  0.3883  1.6828 -1.8487
  814MOL0     H12286   6.591   7.630   3.660  0.0476 -2.0091  0.4383
  814MOL0     H12287   6.630   7.717   3.511  0.7848  1.7166  2.0622
  814MOL0     H12288   6.384   7.731   3.701  4.8527  0.8438  3.2746
  814MOL0     H12289   6.492   7.859   3.664  0.9837 -1.3035 -0.1316
  814MOL0     H12290   6.255   7.945   3.335 -0.5886 -0.8287  0.5848
  814MOL0     H12291   5.938   8.130   3.332  0.6329 -1.4922  0.6806
  814MOL0     H12292   6.062   8.039   3.239  1.3124  1.4555 -1.5879
  814MOL0     H12293   6.076   8.213   3.252  4.1244 -1.5219 -0.7493
  814MOL0     H12294   5.711   8.342   3.794  0.2637  0.2580 -2.4400
  814MOL0     H12295   5.623   8.576   3.813  0.5729  4.5181  0.0280
  814MOL0     H12296   5.607   8.781   3.622  5.0189  2.6825 -0.8696
  814MOL0     H12297   5.546   8.746   3.784  1.2142 -3.1584 -1.9276
  814MOL0     H12298   5.590   9.017   3.662 -0.7134  1.8204  0.1745
  814MOL0     H12299   5.448   8.959   3.742  0.4862  1.5560 -3.9627
  814MOL0     H12300   5.684   9.091   3.889  1.1976 -0.5983  0.8221
  814MOL0     H12301   5.617   8.942   3.957 -0.3300 -1.4833 -1.3874
  814MOL0     H12302   5.397   9.032   3.967  0.0631 -1.3782  0.8457
  814MOL0     H12303   5.436   9.150   3.845 -2.9976 -0.6611  0.7467
  814MOL0     H12304   5.496   9.176   4.146  2.8716  2.9418  0.4981
  814MOL0     H12305   5.608   9.256   4.033  0.1238  1.2301  3.8713
  814MOL0     H12306   5.342   9.329   4.106 -0.0262  0.6476  0.1239
  814MOL0     H12307   5.368   9.341   3.931 -0.0405  0.5997 -0.2181
  814MOL0     H12308   5.562   9.487   3.981  1.9471  0.8701  0.7137
  814MOL0     H12309   5.557   9.448   4.151 -2.5191 -4.0413  0.2837
  814MOL0     H12310   5.455   9.678   4.113  3.2621 -0.6294  0.1535
  814MOL0     H12311   5.343   9.562   4.179 -0.7327  0.4047 -0.6405
  814MOL0     H12312   5.987   8.745   3.706 -0.7633  0.5076 -1.6500
  814MOL0     H12313   6.090   8.523   3.684  0.6094  1.5520  3.2603
  814MOL0     H12314   6.122   8.111   3.782  1.0616 -0.3774  0.5637
  814MOL0     H12315   6.280   7.941   3.765 -4.3782 -3.7482  2.0753
  814MOL0     H12316   7.090   6.849   4.268 -0.8263  0.6524 -1.7395
  814MOL0     H12317   7.166   6.982   4.471  0.4171  0.4591 -0.0923
  814MOL0     H12318   7.305   7.141   4.712  0.4206  0.1503 -2.6606
  814MOL0     H12319   7.373   7.168   4.940 -0.7079 -1.5117 -1.3425
  814MOL0     H12320   7.378   7.236   5.150  0.5443  0.2880  2.4891
  814MOL0     H12321   7.540   7.257   5.101 -1.7326 -2.5961  0.3614
  814MOL0     H12322   7.402   7.429   5.308  0.5525 -1.0038  1.2031
  814MOL0     H12323   7.580   7.433   5.256  0.8037 -1.7449 -0.8712
  814MOL0     H12324   7.497   7.172   5.353  0.0660 -0.6150  2.3635
  814MOL0     H12325   7.634   7.281   5.391 -0.0687  0.4742  0.3998
  814MOL0     H12326   7.503   7.382   5.571  2.3216 -0.8402 -0.6555
  814MOL0     H12327   7.489   7.215   5.583 -0.9585  2.1948  1.8768
  814MOL0     H12328   7.083   7.294   5.535  0.8631 -1.3497 -3.0052
  814MOL0     H12329   7.386   7.593   4.875  2.1199 -0.5638 -0.2472
  814MOL0     H12330   7.388   7.682   4.686 -2.6035 -0.8849  1.8799
  814MOL0     H12331   7.466   7.600   4.548  0.2217 -1.6447 -0.9677
  814MOL0     H12332   7.290   7.624   4.561 -1.3999 -0.7189  2.0866
  815MOL0     O12333   5.331   8.101   6.679 -0.3313  0.1539 -0.6084
  815MOL0     C12334   5.403   8.195   6.716  0.0125 -1.0085 -1.1585
  815MOL0     O12335   5.353   8.314   6.745 -0.9007  0.5596  0.3262
  815MOL0     C12336   5.219   8.329   6.742  0.5663  0.6482 -0.1032
  815MOL0     C12337   5.145   8.329   6.631 -0.6766 -0.3385  2.1032
  815MOL0     C12338   5.009   8.356   6.626  0.3867  0.3077 -0.7286
  815MOL0     C12339   4.958   8.406   6.745  0.4696  0.4215  0.3650
  815MOL0     O12340   4.824   8.444   6.749 -0.6339  0.5375 -0.4234
  815MOL0     C12341   4.782   8.551   6.827  0.1535 -0.1857 -0.0641
  815MOL0     C12342   4.846   8.687   6.805 -0.3964  0.5113  0.2199
  815MOL0     C12343   4.788   8.753   6.673 -0.4742 -0.3757 -0.3823
  815MOL0     C12344   4.844   8.898   6.661  0.0573  0.0098  0.6754
  815MOL0     C12345   4.990   8.919   6.615  0.0581 -0.1364 -1.0293
  815MOL0     C12346   5.044   9.069   6.621 -0.0412  0.5217  0.1798
  815MOL0     C12347   5.172   9.072   6.536 -0.1523  0.9511 -0.7420
  815MOL0     C12348   5.302   9.094   6.625  0.9088 -0.1179  0.8702
  815MOL0     N12349   5.414   9.130   6.543 -0.0692 -0.0631  0.3902
  815MOL0     C12350   5.451   9.254   6.488 -0.0721 -0.4177 -0.2588
  815MOL0     C12351   5.581   9.231   6.438  0.1486  0.2444 -0.8030
  815MOL0     C12352   5.681   9.336   6.393  0.5402  0.6824  0.5847
  815MOL0     C12353   5.768   9.379   6.516 -0.0727  0.6645 -0.1823
  815MOL0     C12354   5.681   9.451   6.628 -0.0835  0.0403  0.6225
  815MOL0     C12355   5.762   9.556   6.706  0.8000  0.1469  0.5032
  815MOL0     O12356   5.678   9.617   6.810  0.2866  0.4642 -0.5580
  815MOL0     C12357   5.722   9.702   6.908  0.2556  1.0891  0.6372
  815MOL0     C12358   5.644   9.718   7.025  0.2048  0.9603 -0.3144
  815MOL0     C12359   5.665   9.806   7.127 -0.2989 -0.5466  0.4173
  815MOL0     C12360   5.568   9.817   7.236  0.2500 -1.3203  0.2794
  815MOL0     C12361   5.788   9.883   7.113  1.2006  0.0723  0.4655
  815MOL0     C12362   5.840   9.974   7.221  0.8050 -0.3001  0.8240
  815MOL0     O12363   5.787  10.105   7.234  0.8312  0.1230  0.5226
  815MOL0     C12364   5.825  10.177   7.349  0.9207 -0.2335 -0.0411
  815MOL0     C12365   5.939  10.257   7.348  0.9138 -0.3547 -0.1749
  815MOL0     C12366   5.961  10.350   7.453  0.1402  0.1744  1.8920
  815MOL0     C12367   5.871  10.339   7.561  0.0066  0.2288 -0.0464
  815MOL0     O12368   5.890  10.435   7.659  0.1872  0.5943 -0.6348
  815MOL0     C12369   5.800  10.450   7.773 -0.5916 -0.0377  0.0256
  815MOL0     C12370   5.865  10.559   7.867  0.9327 -0.6836 -0.1572
  815MOL0     C12371   5.761  10.577   7.981  0.2895  0.6325 -0.4161
  815MOL0     C12372   5.804  10.698   8.083 -0.9401  0.4607 -0.0054
  815MOL0     C12373   5.713  10.703   8.199 -0.9798 -0.3638  0.6328
  815MOL0     C12374   5.764  10.785   8.311 -0.9869  0.3761  0.2675
  815MOL0     C12375   5.693  10.751   8.440 -0.0651 -1.3282 -0.1716
  815MOL0     C12376   5.758  10.640   8.530  0.1627  0.9549 -0.5482
  815MOL0    Cl12377   5.899  10.680   8.634 -0.3087 -0.0025 -0.0560
  815MOL0     C12378   5.782  10.238   7.576  0.1162  0.0111  0.2503
  815MOL0     C12379   5.754  10.146   7.465 -0.3201 -1.3389  0.6832
  815MOL0     O12380   5.939   9.931   7.276  0.2352 -0.2105 -0.2398
  815MOL0     C12381   5.853   9.876   6.994  0.3925  0.6113 -0.1156
  815MOL0     C12382   5.827   9.790   6.894  0.0460 -0.4646  0.6196
  815MOL0     N12383   5.608   9.094   6.440 -0.9274 -0.7895 -0.2905
  815MOL0     N12384   5.514   9.039   6.502 -0.5876  0.1710  0.0187
  815MOL0     C12385   5.029   8.409   6.862  0.0309 -0.4167  0.3978
  815MOL0     C12386   5.157   8.360   6.871 -0.9414 -0.2497  0.1419
  815MOL0     C12387   5.550   8.169   6.737  0.5454  0.1321 -0.7144
  815MOL0     C12388   5.621   8.276   6.784 -0.2467 -0.5484  0.5957
  815MOL0     C12389   5.752   8.276   6.787 -0.2608 -0.8607 -0.0836
  815MOL0     C12390   5.833   8.168   6.750  0.5617 -0.0762  0.1248
  815MOL0     O12391   5.966   8.162   6.793  0.3113 -0.5260  0.3758
  815MOL0     C12392   6.051   8.268   6.849 -0.0013  1.1550  0.0814
  815MOL0     C12393   6.100   8.360   6.733 -0.2572  0.3915 -0.9309
  815MOL0     C12394   6.164   8.282   6.617  0.0992 -0.2763  0.3948
  815MOL0     C12395   6.203   8.380   6.503 -0.5141  0.0757 -1.0160
  815MOL0     C12396   6.117   8.336   6.401 -0.0269  0.5619  0.5733
  815MOL0     C12397   6.053   8.302   6.306  0.9318  0.9633  0.1500
  815MOL0     C12398   5.764   8.053   6.708  0.4556 -0.4306 -0.0036
  815MOL0     C12399   5.614   8.046   6.699 -0.4707 -0.0454 -0.7813
  815MOL0     C12400   5.547   7.917   6.659 -0.1253 -1.3059  0.1059
  815MOL0     H12401   5.192   8.305   6.536  0.2257  0.5983  2.2990
  815MOL0     H12402   4.942   8.367   6.541 -1.6753 -0.1481  0.7581
  815MOL0     H12403   4.796   8.519   6.931  0.4133  2.8443  0.9497
  815MOL0     H12404   4.673   8.561   6.820 -0.7230 -5.0697  2.0407
  815MOL0     H12405   4.814   8.756   6.884 -2.7538 -0.4945  0.2302
  815MOL0     H12406   4.955   8.687   6.819 -0.3800  0.6076  0.0927
  815MOL0     H12407   4.800   8.693   6.583 -1.1471 -2.6235  0.9338
  815MOL0     H12408   4.680   8.771   6.673 -0.8311 -2.3364 -0.3037
  815MOL0     H12409   4.787   8.959   6.591  2.0548  0.1630 -0.8956
  815MOL0     H12410   4.820   8.963   6.747 -2.1019  3.8244 -2.4606
  815MOL0     H12411   4.991   8.876   6.515  0.2173 -2.0728 -0.2559
  815MOL0     H12412   5.044   8.853   6.685 -0.5631  1.8706  1.4870
  815MOL0     H12413   4.971   9.139   6.579  0.4170 -0.1050 -1.7638
  815MOL0     H12414   5.069   9.101   6.723  4.6801  0.7149 -0.8222
  815MOL0     H12415   5.151   9.148   6.461 -1.8094 -0.3593 -1.6665
  815MOL0     H12416   5.196   8.976   6.489  0.8760  0.3730  0.8763
  815MOL0     H12417   5.277   9.181   6.686  0.3487 -0.2121  0.7815
  815MOL0     H12418   5.330   9.018   6.699  1.6387  0.9651  1.7365
  815MOL0     H12419   5.402   9.348   6.508 -1.6938 -1.5401  1.4028
  815MOL0     H12420   5.634   9.423   6.346  0.9089  1.7356  2.1048
  815MOL0     H12421   5.751   9.289   6.323  3.2745  1.3565  2.6707
  815MOL0     H12422   5.817   9.288   6.552 -0.0534 -0.8927 -3.7012
  815MOL0     H12423   5.845   9.445   6.475 -0.5704  1.7754  0.6358
  815MOL0     H12424   5.591   9.495   6.584  0.8501 -0.7101 -2.2673
  815MOL0     H12425   5.640   9.371   6.691 -1.9893 -0.2716 -0.9103
  815MOL0     H12426   5.846   9.496   6.743 -0.7728 -0.2314  3.7634
  815MOL0     H12427   5.780   9.635   6.632 -0.8145 -1.2726 -1.5522
  815MOL0     H12428   5.557   9.654   7.032 -1.2907  2.7757 -1.2214
  815MOL0     H12429   5.493   9.886   7.197  1.7707 -0.5588 -1.4218
  815MOL0     H12430   5.616   9.851   7.328  2.5019 -3.4181  0.0080
  815MOL0     H12431   5.522   9.720   7.261 -2.3398  0.1354  1.5607
  815MOL0     H12432   6.015  10.251   7.271 -1.4170 -0.1181 -2.6323
  815MOL0     H12433   6.052  10.408   7.453  1.6431 -2.0074  0.4068
  815MOL0     H12434   5.702  10.485   7.738 -0.9139  0.3836  1.2636
  815MOL0     H12435   5.768  10.362   7.829 -4.3403  0.9726 -0.2005
  815MOL0     H12436   5.958  10.516   7.906  0.4628 -1.0935  0.5311
  815MOL0     H12437   5.881  10.658   7.823 -2.7692 -0.4730 -1.4119
  815MOL0     H12438   5.760  10.482   8.034  0.7440  1.1385  0.5325
  815MOL0     H12439   5.658  10.594   7.948  0.5010  3.1831  0.0338
  815MOL0     H12440   5.807  10.795   8.032  1.0030  1.8590  2.5265
  815MOL0     H12441   5.912  10.690   8.101 -1.0742 -0.0229  0.5866
  815MOL0     H12442   5.618  10.750   8.174  0.7814  2.4068 -1.5049
  815MOL0     H12443   5.705  10.599   8.234 -0.3160  0.3260  2.9800
  815MOL0     H12444   5.745  10.890   8.285 -1.9601 -0.5150 -3.1620
  815MOL0     H12445   5.872  10.771   8.317 -0.7294  1.6184 -0.9255
  815MOL0     H12446   5.590  10.728   8.410 -0.4381  0.9098 -0.8235
  815MOL0     H12447   5.689  10.845   8.495 -0.8810 -0.6595 -1.3239
  815MOL0     H12448   5.784  10.549   8.475 -1.8452 -0.1456  0.2043
  815MOL0     H12449   5.682  10.596   8.596  2.7316 -2.5889  0.4167
  815MOL0     H12450   5.734  10.235   7.673  1.7600 -1.3136  1.0808
  815MOL0     H12451   5.687  10.062   7.476 -2.4310  0.0867 -0.5729
  815MOL0     H12452   5.942   9.933   6.969  0.4019  1.8827  2.5142
  815MOL0     H12453   5.883   9.787   6.801  0.1754  1.5660  0.5845
  815MOL0     H12454   4.989   8.431   6.961  1.1920  1.1777  0.5462
  815MOL0     H12455   5.214   8.360   6.963  0.2783  2.5663 -0.5029
  815MOL0     H12456   5.568   8.369   6.803 -1.0210 -0.8377 -0.0386
  815MOL0     H12457   5.809   8.363   6.817 -0.8065 -0.8550  0.9945
  815MOL0     H12458   6.001   8.309   6.937  1.3419  1.3008  0.8035
  815MOL0     H12459   6.136   8.217   6.896  1.9389  2.6129 -1.6464
  815MOL0     H12460   6.180   8.422   6.775 -0.0851  0.3693 -1.2210
  815MOL0     H12461   6.018   8.423   6.695 -0.0473  1.3574  0.1497
  815MOL0     H12462   6.250   8.228   6.659 -0.8463  0.2040  3.1832
  815MOL0     H12463   6.105   8.197   6.581 -0.5382 -0.6316  2.1625
  815MOL0     H12464   6.312   8.373   6.497 -0.2787  0.9070  1.1857
  815MOL0     H12465   6.183   8.486   6.521 -2.0766 -0.5564  1.5473
  815MOL0     H12466   5.981   8.264   6.238  0.2883  0.5258  1.0550
  815MOL0     H12467   5.825   7.963   6.699  0.5053 -0.5458  1.3473
  815MOL0     H12468   5.504   7.924   6.559  0.3744 -2.2842 -0.1884
  815MOL0     H12469   5.615   7.832   6.665  0.7914 -0.5071  1.5586
  815MOL0     H12470   5.460   7.889   6.720  0.8772 -2.5109  1.0233
  816MOL0     O12471   2.346   6.694  11.563  0.5587 -0.4786  0.1896
  816MOL0     C12472   2.326   6.734  11.673 -0.6652 -0.6914 -0.2713
  816MOL0     O12473   2.199   6.747  11.730  0.6008 -0.1795 -0.2601
  816MOL0     C12474   2.078   6.745  11.670 -0.3947 -0.7208 -0.3526
  816MOL0     C12475   2.039   6.828  11.560  0.9800  0.2472  0.2246
  816MOL0     C12476   1.914   6.834  11.506 -0.2211 -0.4638 -0.3791
  816MOL0     C12477   1.807   6.751  11.558 -0.1605  0.0465  0.6190
  816MOL0     O12478   1.677   6.766  11.504 -0.0381  0.6971 -0.0464
  816MOL0     C12479   1.573   6.688  11.580 -0.5083  0.1804  1.0554
  816MOL0     C12480   1.552   6.561  11.497  1.5100 -0.8628 -0.2208
  816MOL0     C12481   1.491   6.595  11.359  0.0391  1.0364  1.3580
  816MOL0     C12482   1.330   6.605  11.367 -0.1738  0.7708 -0.6873
  816MOL0     C12483   1.273   6.696  11.258  0.2391  1.6378 -0.0029
  816MOL0     C12484   1.128   6.672  11.228 -0.4371  0.4945  0.0516
  816MOL0     C12485   1.080   6.778  11.136  0.1200 -0.2002 -1.4886
  816MOL0     C12486   0.930   6.799  11.124 -0.6049  1.0334 -0.1148
  816MOL0     N12487   0.846   6.687  11.130 -0.1619  0.2216 -0.4009
  816MOL0     C12488   0.841   6.578  11.039 -0.2231 -0.1510  0.8159
  816MOL0     C12489   0.735   6.500  11.082 -0.5771 -0.8644  0.3207
  816MOL0     C12490   0.681   6.377  11.028  0.1700 -0.0017 -0.0256
  816MOL0     C12491   0.544   6.394  10.965  0.3906  0.3967 -0.0422
  816MOL0     C12492   0.544   6.447  10.824  0.0550 -0.4352 -0.0262
  816MOL0     C12493   0.641   6.382  10.726  0.4934 -0.5481 -0.5680
  816MOL0     O12494   0.634   6.471  10.609  0.6181  1.2036  0.1494
  816MOL0     C12495   0.539   6.426  10.516 -0.5094  0.5194 -0.1063
  816MOL0     C12496   0.431   6.499  10.483 -0.6357  0.4391  0.4566
  816MOL0     C12497   0.343   6.488  10.369  0.2549 -1.4090 -0.3520
  816MOL0     C12498   0.246   6.599  10.342 -0.2312 -0.0658  0.7922
  816MOL0     C12499   0.365   6.381  10.290 -0.7365  0.2855  0.6408
  816MOL0     C12500   0.293   6.348  10.158 -0.4853 -0.6898 -0.0879
  816MOL0     O12501   0.306   6.215  10.123  0.5513  0.0578 -0.1567
  816MOL0     C12502   0.263   6.186   9.995  0.0445 -0.2126  0.2932
  816MOL0     C12503   0.316   6.247   9.882  0.6468  0.2097  0.4706
  816MOL0     C12504   0.273   6.212   9.759 -1.5576  0.6685  0.7674
  816MOL0     C12505   0.171   6.114   9.731 -0.5588 -0.3047 -0.3047
  816MOL0     O12506   0.141   6.098   9.602 -0.1212 -0.7629 -0.2898
  816MOL0     C12507   0.024   6.027   9.553 -0.0036  0.9027 -1.1945
  816MOL0     C12508  -0.103   6.112   9.582  0.3600 -0.6411  0.3517
  816MOL0     C12509  -0.230   6.039   9.534  0.0949  0.0145 -0.9451
  816MOL0     C12510  -0.227   5.899   9.593  0.7417  0.3594 -1.2619
  816MOL0     C12511  -0.368   5.849   9.642 -0.6073 -0.2247  0.1329
  816MOL0     C12512  -0.343   5.738   9.730 -0.0752 -0.0198 -0.2063
  816MOL0     C12513  -0.479   5.680   9.786  0.0721 -0.2143 -0.5993
  816MOL0     C12514  -0.549   5.567   9.704 -0.4267  0.7449  0.2817
  816MOL0    Cl12515  -0.603   5.631   9.554  0.0507  0.0828  0.0405
  816MOL0     C12516   0.115   6.048   9.848  0.3173  0.4475 -0.6058
  816MOL0     C12517   0.175   6.082   9.978  0.6146 -0.5180  0.2957
  816MOL0     O12518   0.237   6.437  10.095  0.3187  0.0708 -0.0359
  816MOL0     C12519   0.473   6.289  10.324 -0.0874  1.2391  0.9674
  816MOL0     C12520   0.555   6.310  10.431  0.3744 -0.5225  0.7949
  816MOL0     N12521   0.678   6.555  11.190 -1.3687 -0.1933  0.4204
  816MOL0     N12522   0.732   6.678  11.205  0.2827 -0.5355 -0.1553
  816MOL0     C12523   1.849   6.659  11.662 -0.5903  0.0875 -0.5866
  816MOL0     C12524   1.981   6.664  11.718  0.0640  0.5731 -1.9408
  816MOL0     C12525   2.447   6.794  11.745  0.2207 -0.0071 -0.8323
  816MOL0     C12526   2.444   6.787  11.892  1.0318 -0.3056 -0.7457
  816MOL0     C12527   2.554   6.832  11.969 -0.3476  0.3514  0.4371
  816MOL0     C12528   2.666   6.876  11.899  0.3242 -0.2000 -0.4765
  816MOL0     O12529   2.773   6.905  11.970 -0.3320 -0.0025 -0.3285
  816MOL0     C12530   2.787   7.032  12.030 -0.6218  0.7333 -0.2472
  816MOL0     C12531   2.814   7.148  11.929  0.6209  1.0058 -0.4451
  816MOL0     C12532   2.959   7.125  11.869 -0.1401 -0.5266 -0.8825
  816MOL0     C12533   3.013   7.250  11.789  0.2149  0.2114 -0.9934
  816MOL0     C12534   2.930   7.251  11.669  0.3818  1.8269 -0.5139
  816MOL0     C12535   2.872   7.247  11.560  0.2717 -0.6990  0.6304
  816MOL0     C12536   2.674   6.878  11.761  0.0255 -0.1777  0.7126
  816MOL0     C12537   2.559   6.844  11.678 -1.1522  0.6526  0.1639
  816MOL0     C12538   2.586   6.862  11.527  0.4230  0.7165 -0.4372
  816MOL0     H12539   2.104   6.892  11.501 -1.3669  0.1110 -2.7121
  816MOL0     H12540   1.880   6.905  11.431  0.5706 -1.8585 -2.1170
  816MOL0     H12541   1.484   6.747  11.605  2.1601  3.9932  2.3751
  816MOL0     H12542   1.600   6.672  11.685 -2.2662 -0.7021  1.4171
  816MOL0     H12543   1.647   6.508  11.489  1.2897 -1.6682  1.8030
  816MOL0     H12544   1.482   6.491  11.542 -3.5951  2.4778 -2.0391
  816MOL0     H12545   1.520   6.695  11.325  0.0038  0.2456 -1.1612
  816MOL0     H12546   1.513   6.528  11.276 -0.3192  0.9132  1.3580
  816MOL0     H12547   1.278   6.510  11.383  0.4902  0.2333 -1.6481
  816MOL0     H12548   1.306   6.650  11.464 -1.5762  0.7783 -1.0252
  816MOL0     H12549   1.319   6.678  11.160 -3.7312 -0.3728 -1.7786
  816MOL0     H12550   1.302   6.799  11.282  2.5422  1.7040 -2.6226
  816MOL0     H12551   1.108   6.575  11.183  0.5465 -1.3825  3.3156
  816MOL0     H12552   1.074   6.677  11.324  0.5669 -0.5153  0.6812
  816MOL0     H12553   1.107   6.744  11.035  0.1861 -1.6753 -0.9972
  816MOL0     H12554   1.128   6.875  11.149  0.5526 -0.5095 -0.6677
  816MOL0     H12555   0.909   6.868  11.206  1.1973  1.3120  0.1444
  816MOL0     H12556   0.900   6.848  11.030 -3.0176 -0.9950 -0.5175
  816MOL0     H12557   0.908   6.553  10.958  0.4328 -1.0494  1.6079
  816MOL0     H12558   0.660   6.311  11.112 -1.3333 -0.9313 -1.0745
  816MOL0     H12559   0.749   6.329  10.957 -2.3040 -2.1587 -1.1254
  816MOL0     H12560   0.503   6.294  10.950  3.9267 -1.3465  0.9835
  816MOL0     H12561   0.479   6.442  11.039 -0.6258  0.1957 -0.7838
  816MOL0     H12562   0.444   6.462  10.781 -2.2146  0.1195  4.7991
  816MOL0     H12563   0.564   6.554  10.829 -0.9085 -0.2589  0.3415
  816MOL0     H12564   0.747   6.400  10.746  0.3830 -0.6623  0.1704
  816MOL0     H12565   0.610   6.279  10.706 -1.3895 -0.3192  0.8578
  816MOL0     H12566   0.411   6.573  10.561  0.8633  2.5464 -1.0238
  816MOL0     H12567   0.143   6.564  10.326  0.4667 -2.1908  0.7235
  816MOL0     H12568   0.276   6.658  10.254 -2.7437 -1.5486 -1.2394
  816MOL0     H12569   0.225   6.664  10.427  1.0194  1.3109  0.0957
  816MOL0     H12570   0.400   6.316   9.880 -2.1335  3.9296 -2.8584
  816MOL0     H12571   0.332   6.262   9.682  0.3307  3.1665  3.6143
  816MOL0     H12572   0.028   6.019   9.444  2.5665  1.5728 -1.2071
  816MOL0     H12573   0.021   5.924   9.591  2.1963 -0.5073 -4.3552
  816MOL0     H12574  -0.119   6.152   9.683  0.5597  1.3751 -0.3807
  816MOL0     H12575  -0.097   6.201   9.519 -4.1676 -1.4908 -1.7287
  816MOL0     H12576  -0.227   6.037   9.424  0.6382 -1.7126 -0.9180
  816MOL0     H12577  -0.321   6.095   9.557 -0.7330 -0.5103 -2.7199
  816MOL0     H12578  -0.172   5.906   9.687  0.6876  0.5328 -1.2419
  816MOL0     H12579  -0.168   5.827   9.537 -1.3057 -1.7100 -0.9126
  816MOL0     H12580  -0.421   5.923   9.703 -1.6186 -2.1611  1.7208
  816MOL0     H12581  -0.427   5.823   9.554 -1.1757 -3.3276  1.3137
  816MOL0     H12582  -0.289   5.773   9.819 -1.6058 -2.3941  1.7753
  816MOL0     H12583  -0.283   5.668   9.671 -0.3578  1.1701 -1.9930
  816MOL0     H12584  -0.558   5.756   9.790  1.3604  1.1325  1.1698
  816MOL0     H12585  -0.458   5.653   9.890  1.4356  0.4294 -0.6852
  816MOL0     H12586  -0.639   5.522   9.748 -3.3060  3.1047 -2.7029
  816MOL0     H12587  -0.469   5.495   9.686 -0.0007 -0.1842  4.7537
  816MOL0     H12588   0.045   5.965   9.843 -0.5146  0.5881  3.8124
  816MOL0     H12589   0.146   6.038  10.073 -0.0128 -0.9900 -0.1022
  816MOL0     H12590   0.478   6.202  10.259 -2.2257  2.5814 -1.1469
  816MOL0     H12591   0.636   6.237  10.431  1.6769  0.8114 -1.1722
  816MOL0     H12592   1.778   6.599  11.719 -0.6041  0.9456  0.3253
  816MOL0     H12593   2.007   6.596  11.799  1.1885 -0.0414 -2.7973
  816MOL0     H12594   2.350   6.748  11.931  0.1469  0.5888 -1.9140
  816MOL0     H12595   2.541   6.841  12.076  0.1108  3.1535  0.3313
  816MOL0     H12596   2.691   7.057  12.077 -1.9330  0.4730 -2.6152
  816MOL0     H12597   2.871   7.018  12.099 -0.8681  1.6566  0.2587
  816MOL0     H12598   2.814   7.243  11.983  1.4849  1.4906 -1.2582
  816MOL0     H12599   2.729   7.133  11.862 -0.5052 -2.0016  1.4585
  816MOL0     H12600   3.027   7.110  11.953  3.4168  0.5381 -3.3382
  816MOL0     H12601   2.962   7.029  11.817  1.9197 -2.0132  1.7428
  816MOL0     H12602   3.116   7.231  11.760  0.3934 -3.7024  1.5223
  816MOL0     H12603   3.005   7.339  11.851 -0.0365  0.0407 -0.7757
  816MOL0     H12604   2.834   7.229  11.461  0.8661  1.3658 -0.0233
  816MOL0     H12605   2.763   6.907  11.706  0.1420 -0.6362  0.6577
  816MOL0     H12606   2.621   6.763  11.497 -1.0639  0.7725 -2.5630
  816MOL0     H12607   2.498   6.895  11.471 -0.6754  0.6996  1.2050
  816MOL0     H12608   2.656   6.942  11.502  0.4743  0.6812 -0.4056
  817MOL0     O12609   0.165   0.003  11.324 -0.2246 -0.0934  0.3205
  817MOL0     C12610   0.239  -0.078  11.388  0.1633 -0.0531  0.2759
  817MOL0     O12611   0.194  -0.172  11.461  0.3728 -0.2572 -0.2601
  817MOL0     C12612   0.062  -0.176  11.500 -1.0108 -0.3189 -0.6782
  817MOL0     C12613   0.026  -0.168  11.637  0.0468  0.0376 -0.3506
  817MOL0     C12614  -0.107  -0.189  11.674 -1.0191  0.3024  0.3542
  817MOL0     C12615  -0.199  -0.232  11.576  0.1604  0.2652  0.5128
  817MOL0     O12616  -0.327  -0.254  11.608 -0.1397 -1.3673 -0.2949
  817MOL0     C12617  -0.364  -0.297  11.737  0.5675  0.7387  0.5094
  817MOL0     C12618  -0.508  -0.338  11.738  0.2079  0.2959  0.3224
  817MOL0     C12619  -0.523  -0.476  11.671 -0.2721 -0.1377  0.7063
  817MOL0     C12620  -0.602  -0.463  11.551 -1.2742 -0.3055  0.0812
  817MOL0     C12621  -0.612  -0.594  11.480 -0.2389  0.0896  0.7440
  817MOL0     C12622  -0.721  -0.599  11.373  0.6935 -0.1245  0.4985
  817MOL0     C12623  -0.734  -0.730  11.286  0.0102 -0.3513 -0.6886
  817MOL0     C12624  -0.624  -0.764  11.188  0.5481  0.8491 -0.0047
  817MOL0     N12625  -0.615  -0.905  11.142 -0.4064 -0.9021  0.9976
  817MOL0     C12626  -0.504  -0.991  11.143  0.3423 -0.6211 -0.2686
  817MOL0     C12627  -0.551  -1.112  11.088  1.2323  0.2473  0.8225
  817MOL0     C12628  -0.486  -1.248  11.073  0.5429 -0.3197  0.4198
  817MOL0     C12629  -0.555  -1.335  10.960  0.1958  0.1336  0.0663
  817MOL0     C12630  -0.490  -1.333  10.815  0.2330  0.8211 -0.1750
  817MOL0     C12631  -0.531  -1.214  10.726  0.3530  0.0172  0.5178
  817MOL0     O12632  -0.436  -1.098  10.733 -0.0211 -0.3279  0.3594
  817MOL0     C12633  -0.477  -0.976  10.678 -0.2964  0.3601  0.7154
  817MOL0     C12634  -0.600  -0.927  10.692  0.6347  0.2770  0.6240
  817MOL0     C12635  -0.650  -0.808  10.632  0.3275  0.7929 -0.3547
  817MOL0     C12636  -0.797  -0.794  10.639 -0.1497 -1.0377  0.4602
  817MOL0     C12637  -0.562  -0.737  10.547 -0.1259  0.4653  0.3255
  817MOL0     C12638  -0.614  -0.613  10.470 -0.1766  0.4955  0.1650
  817MOL0     O12639  -0.720  -0.536  10.509 -0.7976 -0.2779  0.2689
  817MOL0     C12640  -0.756  -0.424  10.450  0.4811 -0.6700 -0.3651
  817MOL0     C12641  -0.672  -0.317  10.409 -0.1712  0.0413 -0.4074
  817MOL0     C12642  -0.721  -0.206  10.344 -0.8333  0.3046 -0.2172
  817MOL0     C12643  -0.858  -0.186  10.322  0.4650  0.9866  0.0219
  817MOL0     O12644  -0.887  -0.073  10.256  0.1874 -0.1665 -0.4393
  817MOL0     C12645  -1.024  -0.043  10.271 -0.3807 -0.4575  0.0332
  817MOL0     C12646  -1.035   0.110  10.245  0.0209 -0.2746  1.2178
  817MOL0     C12647  -1.170   0.128  10.175 -0.2434 -0.3064 -0.3518
  817MOL0     C12648  -1.222   0.269  10.164 -0.1999 -0.2268  0.2124
  817MOL0     C12649  -1.341   0.293  10.072  0.0875 -0.0587 -0.2247
  817MOL0     C12650  -1.396   0.437  10.094  0.6947  0.4772 -0.3881
  817MOL0     C12651  -1.541   0.453  10.051  0.2757  0.2574  0.8750
  817MOL0     C12652  -1.615   0.567  10.132  0.3756  0.7020  0.6031
  817MOL0    Cl12653  -1.658   0.507  10.300  0.1540  0.2686  0.0283
  817MOL0     C12654  -0.944  -0.294  10.358  0.2229 -0.0386  0.6698
  817MOL0     C12655  -0.899  -0.408  10.428 -0.4063 -1.0319 -0.1479
  817MOL0     O12656  -0.554  -0.589  10.364 -0.3103  0.5362 -0.3023
  817MOL0     C12657  -0.438  -0.790  10.530 -0.5383  1.1848 -0.5337
  817MOL0     C12658  -0.394  -0.904  10.594 -0.2182 -0.2343  0.4629
  817MOL0     N12659  -0.680  -1.087  11.034 -0.9602 -0.1070 -0.3076
  817MOL0     N12660  -0.717  -0.969  11.078 -0.5572 -0.0057  0.1726
  817MOL0     C12661  -0.164  -0.220  11.444  0.0056 -0.1486  1.3391
  817MOL0     C12662  -0.034  -0.200  11.402  0.6296 -1.0539 -0.4118
  817MOL0     C12663   0.372  -0.088  11.340 -0.7592  0.4666  0.4975
  817MOL0     C12664   0.387  -0.114  11.197 -0.0175 -0.5762  0.2078
  817MOL0     C12665   0.515  -0.123  11.150  0.8400 -0.5128 -1.5872
  817MOL0     C12666   0.629  -0.124  11.235 -0.8473  1.0125  0.1612
  817MOL0     O12667   0.754  -0.138  11.188  0.1233 -0.2689 -0.8590
  817MOL0     C12668   0.778  -0.205  11.061 -1.3958 -1.2553 -0.2367
  817MOL0     C12669   0.766  -0.364  11.080  0.7746 -0.5143 -0.4627
  817MOL0     C12670   0.631  -0.433  11.035 -0.5309 -0.4134  1.3422
  817MOL0     C12671   0.523  -0.473  11.141 -0.2353 -1.1883  0.1588
  817MOL0     C12672   0.527  -0.603  11.195  0.6979 -0.9843  0.3572
  817MOL0     C12673   0.516  -0.710  11.252 -0.4570 -0.3142 -0.3366
  817MOL0     C12674   0.614  -0.102  11.378 -0.0352 -0.4669  0.1010
  817MOL0     C12675   0.479  -0.074  11.426 -0.2042 -0.3214  0.2337
  817MOL0     C12676   0.464  -0.047  11.571  0.5421  0.1082  0.3833
  817MOL0     H12677   0.102  -0.150  11.713  1.4170 -4.4795 -0.3738
  817MOL0     H12678  -0.140  -0.158  11.772 -1.6661  1.3377 -0.1660
  817MOL0     H12679  -0.349  -0.219  11.812 -0.3675  1.7709 -0.3376
  817MOL0     H12680  -0.298  -0.381  11.760 -0.7162 -1.4809 -3.1449
  817MOL0     H12681  -0.554  -0.354  11.836 -1.3560 -1.1297 -0.5848
  817MOL0     H12682  -0.571  -0.259  11.697 -2.2336 -1.8760 -0.4004
  817MOL0     H12683  -0.427  -0.521  11.644 -0.3098 -0.4071  1.0170
  817MOL0     H12684  -0.572  -0.546  11.739 -1.5531 -0.6502 -0.7087
  817MOL0     H12685  -0.703  -0.427  11.573 -2.9882 -2.1755 -3.7261
  817MOL0     H12686  -0.554  -0.385  11.491 -3.8228  2.0227  0.8551
  817MOL0     H12687  -0.645  -0.660  11.560 -1.4779 -1.2208 -0.7808
  817MOL0     H12688  -0.512  -0.624  11.448 -0.7437 -0.9047  0.0563
  817MOL0     H12689  -0.810  -0.588  11.434  0.0101  2.4062 -0.7889
  817MOL0     H12690  -0.709  -0.510  11.310 -1.4535 -1.1140 -1.4581
  817MOL0     H12691  -0.822  -0.725  11.221  0.6312  1.6717 -1.4339
  817MOL0     H12692  -0.731  -0.813  11.358  0.5397  1.5360  1.5965
  817MOL0     H12693  -0.623  -0.695  11.103  2.4160 -0.2408 -0.9263
  817MOL0     H12694  -0.532  -0.740  11.242  1.9418  2.1821 -2.7399
  817MOL0     H12695  -0.404  -0.971  11.179  0.2302  1.3176 -0.9183
  817MOL0     H12696  -0.476  -1.312  11.162  1.0866  1.4173  1.6551
  817MOL0     H12697  -0.383  -1.230  11.041  0.4846  0.5155  0.6876
  817MOL0     H12698  -0.551  -1.439  10.993  1.8519  0.1603  0.0305
  817MOL0     H12699  -0.661  -1.320  10.939  0.7859  0.3271 -3.3444
  817MOL0     H12700  -0.381  -1.336  10.824  0.2945  1.3121 -0.7234
  817MOL0     H12701  -0.510  -1.422  10.754 -2.8663  0.1951  1.5688
  817MOL0     H12702  -0.542  -1.250  10.623 -0.5923  1.2404  0.1539
  817MOL0     H12703  -0.632  -1.177  10.747  1.2968  1.2914  3.2953
  817MOL0     H12704  -0.665  -0.980  10.760  0.5008  0.1393  0.3881
  817MOL0     H12705  -0.834  -0.695  10.609  3.4688 -0.0125 -1.1237
  817MOL0     H12706  -0.818  -0.800  10.746 -0.4911  1.6047  0.6241
  817MOL0     H12707  -0.855  -0.877  10.597  0.6653 -2.1266  1.4366
  817MOL0     H12708  -0.567  -0.327  10.436 -0.5735  0.6439  1.5534
  817MOL0     H12709  -0.656  -0.121  10.328  1.9799 -0.6289  4.4125
  817MOL0     H12710  -1.071  -0.098  10.190  1.2757 -1.4424 -0.3109
  817MOL0     H12711  -1.076  -0.065  10.365 -0.7696 -3.6604 -0.8206
  817MOL0     H12712  -1.032   0.170  10.336 -1.0326  1.4615  0.1909
  817MOL0     H12713  -0.950   0.145  10.186  0.7150  0.7721  2.7773
  817MOL0     H12714  -1.244   0.072  10.233  0.6031 -0.6405  0.4171
  817MOL0     H12715  -1.147   0.090  10.074  2.4536 -4.8580  1.6472
  817MOL0     H12716  -1.147   0.333  10.117 -1.4945 -0.0343 -1.6990
  817MOL0     H12717  -1.251   0.303  10.265  0.7147  1.9650 -0.1924
  817MOL0     H12718  -1.313   0.287   9.966  0.2139  1.4454 -0.2967
  817MOL0     H12719  -1.421   0.225  10.099  1.3435 -1.3799  0.2971
  817MOL0     H12720  -1.343   0.504  10.026 -0.9757  1.2621 -0.9728
  817MOL0     H12721  -1.393   0.456  10.202  3.9493  0.9421 -0.4517
  817MOL0     H12722  -1.591   0.362  10.086  1.3448  0.1919  2.3213
  817MOL0     H12723  -1.569   0.456   9.946 -1.1514 -0.1242  1.2116
  817MOL0     H12724  -1.711   0.571  10.079  0.8077 -1.7730 -0.5214
  817MOL0     H12725  -1.562   0.662  10.131 -1.1176  1.5683  0.7570
  817MOL0     H12726  -1.039  -0.298  10.306 -1.9177  0.5804  4.1707
  817MOL0     H12727  -0.955  -0.498  10.453 -1.0556 -0.5045  0.3332
  817MOL0     H12728  -0.369  -0.750  10.456  1.8108  0.3416  1.0833
  817MOL0     H12729  -0.298  -0.947  10.566 -0.0628  1.0196 -1.1039
  817MOL0     H12730  -0.228  -0.234  11.357 -1.9556  1.7752  2.3753
  817MOL0     H12731  -0.000  -0.194  11.299  3.4476  3.6664  0.4810
  817MOL0     H12732   0.300  -0.132  11.134 -0.7402  1.2119  0.6218
  817MOL0     H12733   0.515  -0.134  11.042  0.4527  3.0830 -2.0749
  817MOL0     H12734   0.710  -0.171  10.983  0.3934 -1.4380 -1.9582
  817MOL0     H12735   0.881  -0.190  11.027 -0.3665 -3.1453  1.7750
  817MOL0     H12736   0.802  -0.387  11.180  1.2560 -1.6937 -0.8964
  817MOL0     H12737   0.826  -0.402  10.997 -0.5007 -0.8883 -1.2535
  817MOL0     H12738   0.589  -0.384  10.947  1.4140 -0.5830  0.2650
  817MOL0     H12739   0.667  -0.529  10.998 -1.9913 -0.4896  0.0507
  817MOL0     H12740   0.427  -0.449  11.093  1.3265 -1.1852 -3.2484
  817MOL0     H12741   0.537  -0.414  11.232 -0.6154  0.2112 -0.6456
  817MOL0     H12742   0.507  -0.789  11.324 -0.0472 -0.6674 -0.6635
  817MOL0     H12743   0.704  -0.090  11.436  0.6989  0.9988 -1.2705
  817MOL0     H12744   0.544   0.026  11.589  0.2097  1.0387 -1.5880
  817MOL0     H12745   0.366  -0.003  11.592  1.7895  0.9275  6.1924
  817MOL0     H12746   0.474  -0.142  11.624 -2.1510 -1.4596 -1.6612
  818MOL0     O12747   3.569   7.689   1.242 -0.4683  0.1774  0.1467
  818MOL0     C12748   3.649   7.775   1.203 -0.5417  0.6009 -0.6411
  818MOL0     O12749   3.648   7.909   1.251  0.6684  0.5241 -0.1638
  818MOL0     C12750   3.566   7.937   1.359  0.4874  0.2300 -0.7224
  818MOL0     C12751   3.438   7.988   1.320  0.1838  0.1509 -0.1043
  818MOL0     C12752   3.342   8.016   1.420  0.1827  0.2689 -0.5291
  818MOL0     C12753   3.371   7.994   1.553  0.2118 -0.4687  0.0797
  818MOL0     O12754   3.268   8.015   1.643  0.1226  0.0320 -0.3302
  818MOL0     C12755   3.254   7.911   1.748  0.0850 -1.9387 -0.2029
  818MOL0     C12756   3.115   7.890   1.792 -0.0637 -0.0013  0.5697
  818MOL0     C12757   3.038   8.005   1.849  0.8456  0.4484 -0.5182
  818MOL0     C12758   3.067   8.034   1.993 -0.2380  0.8157 -0.5951
  818MOL0     C12759   3.025   8.173   2.046  0.5029 -0.5370 -0.1389
  818MOL0     C12760   3.045   8.180   2.205  0.6138  0.2019  0.5637
  818MOL0     C12761   3.188   8.185   2.262  0.2813  0.3082 -0.1143
  818MOL0     C12762   3.166   8.153   2.411  0.4977  0.3302  0.1588
  818MOL0     N12763   3.282   8.162   2.495 -0.0076  0.1591 -1.1541
  818MOL0     C12764   3.337   8.282   2.529 -0.6336  0.5359 -0.1738
  818MOL0     C12765   3.429   8.250   2.623  1.0740 -0.0618 -0.4839
  818MOL0     C12766   3.525   8.352   2.665 -0.7109 -0.2380 -0.3834
  818MOL0     C12767   3.479   8.443   2.781 -0.6818  0.3375  0.0509
  818MOL0     C12768   3.593   8.549   2.794 -0.0147 -0.1168 -0.3044
  818MOL0     C12769   3.535   8.666   2.866 -0.2956 -0.1143 -0.2539
  818MOL0     O12770   3.407   8.711   2.819 -0.5158  0.0666 -0.2393
  818MOL0     C12771   3.348   8.817   2.879 -0.9997  0.6556 -0.1467
  818MOL0     C12772   3.395   8.892   2.981  0.0899  0.2203 -0.6349
  818MOL0     C12773   3.322   9.005   3.041 -0.4942 -0.2090  0.5360
  818MOL0     C12774   3.399   9.073   3.147 -0.4489 -0.3490  0.4902
  818MOL0     C12775   3.190   9.029   2.995  0.0355 -0.8722  0.0830
  818MOL0     C12776   3.115   9.142   3.053  0.6551  0.4385  0.7269
  818MOL0     O12777   3.160   9.221   3.162  0.1704 -0.1103 -0.6234
  818MOL0     C12778   3.095   9.330   3.213  0.5683 -1.1170 -0.0941
  818MOL0     C12779   3.167   9.423   3.282  0.3692  0.3128  0.3170
  818MOL0     C12780   3.108   9.543   3.328  0.0102  0.4783 -0.4327
  818MOL0     C12781   2.974   9.569   3.318  0.2978 -0.6186  1.1285
  818MOL0     O12782   2.932   9.693   3.365  0.0090 -0.3909  0.7056
  818MOL0     C12783   2.795   9.712   3.403 -0.2983 -0.1799  0.4109
  818MOL0     C12784   2.718   9.821   3.322  0.7737  0.1039  0.0098
  818MOL0     C12785   2.791   9.949   3.357 -0.7827 -1.9668  0.5582
  818MOL0     C12786   2.707  10.070   3.328 -0.3999 -0.4158  0.6982
  818MOL0     C12787   2.767  10.206   3.363 -0.3493  1.0291 -0.3047
  818MOL0     C12788   2.657  10.309   3.372  0.7163 -0.0876 -0.6204
  818MOL0     C12789   2.726  10.453   3.379 -0.8003 -0.5871 -0.5567
  818MOL0     C12790   2.613  10.562   3.369 -0.7262  0.4197  0.6039
  818MOL0    Cl12791   2.509  10.547   3.506  0.5296 -0.0209  0.0303
  818MOL0     C12792   2.897   9.473   3.246 -1.2844  0.0191  0.2406
  818MOL0     C12793   2.953   9.348   3.201 -0.5900 -0.1848 -0.0768
  818MOL0     O12794   3.014   9.174   2.984 -0.1081  0.0854 -0.0398
  818MOL0     C12795   3.144   8.952   2.886  0.1801 -0.8763  0.4260
  818MOL0     C12796   3.222   8.848   2.830  0.2197 -0.7724 -0.7095
  818MOL0     N12797   3.420   8.114   2.650 -0.0725 -1.1286  0.2183
  818MOL0     N12798   3.323   8.065   2.580  0.3782 -0.3363  0.1676
  818MOL0     C12799   3.501   7.951   1.589  0.0503  0.6076 -0.2644
  818MOL0     C12800   3.606   7.920   1.496  0.3317  0.6844 -0.0823
  818MOL0     C12801   3.774   7.743   1.111 -0.1615  0.1606 -0.3673
  818MOL0     C12802   3.890   7.820   1.093  0.6606  0.1025  0.5577
  818MOL0     C12803   3.996   7.783   1.007 -0.2212  0.0978 -0.1260
  818MOL0     C12804   3.999   7.666   0.936  0.3392 -0.2238 -0.2205
  818MOL0     O12805   4.092   7.626   0.844 -0.6493 -0.0281 -0.5499
  818MOL0     C12806   4.210   7.707   0.818  0.2087 -0.0633  0.4466
  818MOL0     C12807   4.301   7.636   0.717  0.4424 -0.9883 -0.9286
  818MOL0     C12808   4.238   7.657   0.569  0.3897 -0.8175  0.9190
  818MOL0     C12809   4.346   7.633   0.465  0.0027  0.0778 -0.0551
  818MOL0     C12810   4.358   7.501   0.432 -0.5257  0.0604 -0.4584
  818MOL0     C12811   4.401   7.394   0.409  1.1321 -1.1715 -0.3760
  818MOL0     C12812   3.885   7.583   0.960 -0.1012 -0.0738  0.0534
  818MOL0     C12813   3.782   7.616   1.047  0.7750 -0.1366  0.5679
  818MOL0     C12814   3.672   7.509   1.056  0.1242  0.4274 -0.1514
  818MOL0     H12815   3.415   7.992   1.214  1.7286 -2.0163 -0.5992
  818MOL0     H12816   3.250   8.067   1.396  0.3929 -0.0051 -2.0313
  818MOL0     H12817   3.324   7.934   1.829 -3.5241  1.8534  2.2735
  818MOL0     H12818   3.272   7.812   1.707 -0.2720 -1.0572 -2.6460
  818MOL0     H12819   3.064   7.858   1.701 -0.2861  1.4079  0.1757
  818MOL0     H12820   3.121   7.820   1.876  0.2978 -1.3398 -0.5296
  818MOL0     H12821   3.070   8.092   1.791 -0.4489  0.4330 -1.2777
  818MOL0     H12822   2.930   7.999   1.835  0.4669  1.4964  1.5342
  818MOL0     H12823   3.026   7.959   2.062  1.3976 -0.5430 -1.0249
  818MOL0     H12824   3.176   8.033   2.006 -0.5503 -0.1312  2.8888
  818MOL0     H12825   2.919   8.192   2.026  1.0564 -0.6671 -4.0157
  818MOL0     H12826   3.078   8.253   1.994  3.0491 -1.7191  0.4571
  818MOL0     H12827   2.980   8.259   2.243  0.1179 -0.7612  1.7849
  818MOL0     H12828   2.990   8.089   2.232  0.9437 -0.6430 -1.4107
  818MOL0     H12829   3.217   8.287   2.235 -0.3502  0.6532  0.4754
  818MOL0     H12830   3.250   8.112   2.209  0.4001  0.3178  0.0111
  818MOL0     H12831   3.098   8.232   2.443 -0.1912  0.5438 -1.6951
  818MOL0     H12832   3.112   8.058   2.415 -2.8318  1.9007 -2.1646
  818MOL0     H12833   3.327   8.379   2.481 -0.9948 -0.0293 -1.2603
  818MOL0     H12834   3.548   8.413   2.577 -4.6388 -1.1646 -2.2881
  818MOL0     H12835   3.606   8.290   2.705 -3.0486 -1.8359  2.2362
  818MOL0     H12836   3.386   8.487   2.743 -0.0635 -1.2317 -3.8650
  818MOL0     H12837   3.450   8.379   2.865 -0.9877  0.1115 -0.2183
  818MOL0     H12838   3.677   8.509   2.851  0.5326  1.0909 -0.2196
  818MOL0     H12839   3.630   8.590   2.699 -0.2083 -0.2956 -0.4600
  818MOL0     H12840   3.520   8.636   2.971 -1.3691 -1.1746 -0.6717
  818MOL0     H12841   3.611   8.744   2.859  0.8186 -1.2989 -2.1553
  818MOL0     H12842   3.493   8.871   3.021  0.2238  1.6796 -0.1299
  818MOL0     H12843   3.335   9.077   3.235 -0.8948 -2.2542  0.2859
  818MOL0     H12844   3.417   9.178   3.122  1.4833 -0.9934 -1.1073
  818MOL0     H12845   3.495   9.031   3.177 -0.3976  0.3766  1.3888
  818MOL0     H12846   3.274   9.408   3.293  0.0508 -1.9588  0.8473
  818MOL0     H12847   3.164   9.621   3.379 -0.5684  0.5984  0.0297
  818MOL0     H12848   2.743   9.616   3.394  0.5362 -0.5668 -0.4836
  818MOL0     H12849   2.784   9.733   3.510 -0.9564  3.1884 -0.2138
  818MOL0     H12850   2.715   9.799   3.215 -1.6059  0.9816 -0.1568
  818MOL0     H12851   2.613   9.837   3.350  1.1350  3.5738 -0.2408
  818MOL0     H12852   2.887   9.966   3.306 -0.5096  1.6967  2.0150
  818MOL0     H12853   2.826   9.949   3.460  1.7952  0.4947 -0.1550
  818MOL0     H12854   2.616  10.057   3.387 -1.7865 -0.3756 -1.3469
  818MOL0     H12855   2.669  10.073   3.226 -0.0198  1.1338  0.5804
  818MOL0     H12856   2.808  10.202   3.465  2.8442 -0.3901 -1.5030
  818MOL0     H12857   2.849  10.234   3.297  1.7392 -0.2612  1.5933
  818MOL0     H12858   2.597  10.293   3.462 -2.3979 -2.6764 -2.9456
  818MOL0     H12859   2.590  10.300   3.287  0.3748 -2.1054 -0.1796
  818MOL0     H12860   2.794  10.453   3.293 -2.5951 -2.6676 -2.0877
  818MOL0     H12861   2.782  10.465   3.473  1.0048 -2.2899 -1.3252
  818MOL0     H12862   2.567  10.538   3.273  4.4209 -0.1209 -2.0852
  818MOL0     H12863   2.657  10.661   3.354 -2.2032  1.2509  1.4928
  818MOL0     H12864   2.790   9.490   3.230 -1.7008  0.8070  3.3139
  818MOL0     H12865   2.884   9.275   3.160 -2.6505 -0.8577  4.0602
  818MOL0     H12866   3.040   8.954   2.855  0.5837  2.7661 -1.1977
  818MOL0     H12867   3.187   8.789   2.746  1.7102 -1.5089 -0.8565
  818MOL0     H12868   3.535   7.962   1.691  2.4788  1.7526 -1.1359
  818MOL0     H12869   3.701   7.889   1.539 -0.0161 -0.1271  0.1340
  818MOL0     H12870   3.889   7.917   1.143 -2.0302  0.0475  0.7774
  818MOL0     H12871   4.062   7.865   0.983 -4.1894  2.5810 -3.8949
  818MOL0     H12872   4.180   7.805   0.781 -0.0223 -0.1583  0.3820
  818MOL0     H12873   4.256   7.730   0.915 -0.0625 -0.0056  0.5609
  818MOL0     H12874   4.315   7.534   0.755 -0.2744 -1.2211 -1.2654
  818MOL0     H12875   4.388   7.701   0.729 -1.2184  1.2302 -0.3831
  818MOL0     H12876   4.165   7.576   0.558 -0.5834 -0.4476  3.7908
  818MOL0     H12877   4.179   7.747   0.549  1.1138 -0.7095 -0.8808
  818MOL0     H12878   4.442   7.680   0.489 -0.2544  0.3410  0.4909
  818MOL0     H12879   4.324   7.682   0.369  0.9284  1.1794  0.2754
  818MOL0     H12880   4.440   7.295   0.407  1.9747 -1.0110  2.6451
  818MOL0     H12881   3.894   7.493   0.901  1.5016  1.3242 -1.9754
  818MOL0     H12882   3.690   7.413   1.006 -1.8312  0.4087 -0.9090
  818MOL0     H12883   3.663   7.474   1.159  0.5279 -2.9960 -1.1595
  818MOL0     H12884   3.573   7.551   1.039  0.3670  0.5490 -1.4300
  819MOL0     O12885   9.370  10.411   9.927  0.0104  0.0939 -0.4834
  819MOL0     C12886   9.447  10.316   9.906  0.4143  0.5233 -0.0533
  819MOL0     O12887   9.414  10.190   9.862  0.9292 -0.0221 -1.1562
  819MOL0     C12888   9.285  10.154   9.836  0.8181  0.1585  0.0344
  819MOL0     C12889   9.177  10.241   9.797  0.9175 -0.7750  1.2547
  819MOL0     C12890   9.047  10.179   9.774 -0.7655 -0.2016  0.9605
  819MOL0     C12891   9.032  10.044   9.769 -0.0328  1.1193  0.4649
  819MOL0     O12892   8.915   9.982   9.723 -0.3378  0.1298 -0.0669
  819MOL0     C12893   8.800  10.046   9.657  0.3155  0.8275  0.4880
  819MOL0     C12894   8.821  10.080   9.509  0.3187 -0.0385  1.1844
  819MOL0     C12895   8.704  10.138   9.425 -0.8274 -0.4989  0.3008
  819MOL0     C12896   8.590  10.049   9.421 -0.7232 -0.3547  0.1373
  819MOL0     C12897   8.465  10.085   9.335  0.7321  0.1469 -0.3885
  819MOL0     C12898   8.443  10.001   9.209  0.6558  0.4362  0.7464
  819MOL0     C12899   8.353  10.072   9.099 -0.2180 -0.3384 -0.2294
  819MOL0     C12900   8.430  10.050   8.967  0.3068  0.1847 -0.1492
  819MOL0     N12901   8.339  10.082   8.855 -0.1207  0.1664  0.4529
  819MOL0     C12902   8.374  10.145   8.741  0.1516  0.8147 -0.1359
  819MOL0     C12903   8.264  10.146   8.661  0.0495  0.2725  0.1896
  819MOL0     C12904   8.264  10.219   8.530  0.0855  0.0002 -0.1165
  819MOL0     C12905   8.201  10.358   8.535 -0.1668  0.3155 -0.4884
  819MOL0     C12906   8.294  10.455   8.621 -0.5304 -1.4568  0.4722
  819MOL0     C12907   8.230  10.595   8.608  0.5832 -0.0288  0.4134
  819MOL0     O12908   8.261  10.700   8.705 -0.3274 -0.5284 -0.0218
  819MOL0     C12909   8.383  10.755   8.685 -0.0615 -1.4316  0.0714
  819MOL0     C12910   8.428  10.834   8.789  0.3145 -1.0809  1.0995
  819MOL0     C12911   8.546  10.907   8.782  0.5137 -0.6595 -1.2399
  819MOL0     C12912   8.581  10.993   8.907  0.2500  0.0428  0.6022
  819MOL0     C12913   8.640  10.892   8.675  0.9568  0.3690  0.4148
  819MOL0     C12914   8.769  10.951   8.668  1.0344 -0.1082  0.4787
  819MOL0     O12915   8.840  10.936   8.544  0.9796 -0.6555 -0.4615
  819MOL0     C12916   8.951  11.007   8.541 -0.3168 -0.4030  0.3284
  819MOL0     C12917   9.077  10.946   8.561  0.6014 -0.3011 -0.7167
  819MOL0     C12918   9.201  11.021   8.539 -0.2667 -0.0406 -0.2146
  819MOL0     C12919   9.197  11.153   8.500  0.7761 -0.0695  0.1079
  819MOL0     O12920   9.305  11.233   8.508 -0.6176 -0.3173 -0.4595
  819MOL0     C12921   9.413  11.198   8.585 -0.4451 -0.0128  0.9660
  819MOL0     C12922   9.488  11.331   8.634 -0.3480  0.8325  0.4720
  819MOL0     C12923   9.409  11.404   8.754 -0.1267  0.3467  0.4872
  819MOL0     C12924   9.409  11.317   8.879 -0.1389 -0.3184 -0.5539
  819MOL0     C12925   9.318  11.360   8.992 -0.5052  0.4085  0.1029
  819MOL0     C12926   9.308  11.255   9.100 -0.2808 -0.9257 -0.2502
  819MOL0     C12927   9.214  11.313   9.208 -0.2720  0.1009  0.1306
  819MOL0     C12928   9.175  11.206   9.315  0.2830  0.8444 -0.5241
  819MOL0    Cl12929   9.051  11.276   9.418  0.0333  0.1222  0.2066
  819MOL0     C12930   9.068  11.205   8.465 -0.0062  0.4708 -0.8067
  819MOL0     C12931   8.946  11.138   8.480 -0.1307 -0.9689  0.4591
  819MOL0     O12932   8.817  11.009   8.762  0.3542  0.0754 -0.1259
  819MOL0     C12933   8.590  10.799   8.574 -0.0984 -0.2079 -0.3774
  819MOL0     C12934   8.468  10.727   8.581  0.2197 -0.6992 -0.7088
  819MOL0     N12935   8.173  10.075   8.724  0.2967  0.4022 -0.3248
  819MOL0     N12936   8.214  10.042   8.841  0.2574  0.1283  0.0773
  819MOL0     C12937   9.140   9.962   9.803 -0.5682 -0.2949  0.4787
  819MOL0     C12938   9.257  10.015   9.846 -0.4065 -0.1340 -0.4199
  819MOL0     C12939   9.589  10.348   9.912  0.9002  0.1660 -0.4773
  819MOL0     C12940   9.622  10.482   9.885  0.1167 -1.1870 -0.0684
  819MOL0     C12941   9.749  10.518   9.870 -1.3675 -0.2187  0.6484
  819MOL0     C12942   9.849  10.436   9.917 -0.5585  0.3575  0.0541
  819MOL0     O12943   9.981  10.466   9.923 -0.4339  0.8077 -0.3275
  819MOL0     C12944  10.030  10.589   9.885  0.2052 -0.4049  0.2869
  819MOL0     C12945  10.188  10.585   9.882  0.3934 -0.4987  0.6103
  819MOL0     C12946  10.241  10.508   9.763 -0.7680 -0.5012  0.2232
  819MOL0     C12947  10.390  10.468   9.786 -0.8220 -0.4650 -0.4579
  819MOL0     C12948  10.485  10.580   9.825 -0.4799  0.5205  0.6010
  819MOL0     C12949  10.567  10.663   9.870  0.0571  1.2753  0.3274
  819MOL0     C12950   9.821  10.304   9.951 -0.4558  0.4040  0.2759
  819MOL0     C12951   9.691  10.260   9.948  0.0769  0.5386  0.2963
  819MOL0     C12952   9.672  10.108   9.982 -0.3900  0.5109  0.6554
  819MOL0     H12953   9.187  10.349   9.792  4.0528 -0.8262  3.2228
  819MOL0     H12954   8.962  10.242   9.750 -0.9220 -0.7304  0.1035
  819MOL0     H12955   8.774  10.130   9.722  1.5178  0.7948  1.0319
  819MOL0     H12956   8.715   9.977   9.657 -0.5386  1.8361  1.6046
  819MOL0     H12957   8.902  10.149   9.484  0.7520 -1.6040 -2.4958
  819MOL0     H12958   8.856   9.988   9.461 -1.2629  0.1877 -0.5542
  819MOL0     H12959   8.680  10.240   9.456  0.3997  1.3753 -4.1478
  819MOL0     H12960   8.728  10.147   9.319 -2.0057 -0.1793  0.0480
  819MOL0     H12961   8.623   9.952   9.382  0.8997  0.7342 -1.3411
  819MOL0     H12962   8.556  10.028   9.523  1.5470 -0.5694  0.9090
  819MOL0     H12963   8.464  10.191   9.309 -1.5912  0.0577 -0.8871
  819MOL0     H12964   8.374  10.080   9.395  1.0336  0.6528  0.1198
  819MOL0     H12965   8.542   9.971   9.174 -1.2931 -2.4982 -3.0207
  819MOL0     H12966   8.383   9.912   9.232 -1.1119  0.2524 -3.7048
  819MOL0     H12967   8.341  10.180   9.114  4.0944  0.4053 -0.8609
  819MOL0     H12968   8.249  10.038   9.095 -1.2010  2.5067 -1.0979
  819MOL0     H12969   8.521  10.111   8.963  1.0668 -0.9767 -2.0347
  819MOL0     H12970   8.459   9.945   8.959 -2.0565 -0.5940  0.5135
  819MOL0     H12971   8.473  10.182   8.720  1.1194 -0.5243  1.7964
  819MOL0     H12972   8.192  10.165   8.469 -2.9471  1.5512  1.8179
  819MOL0     H12973   8.363  10.223   8.483  1.2005  0.6948  2.1326
  819MOL0     H12974   8.179  10.395   8.435 -1.7105 -1.0656 -0.6988
  819MOL0     H12975   8.110  10.332   8.590 -0.8727  3.1115 -0.1954
  819MOL0     H12976   8.288  10.413   8.722 -1.2185 -0.4071  0.8954
  819MOL0     H12977   8.397  10.459   8.587 -0.4719  0.2281  0.7718
  819MOL0     H12978   8.239  10.632   8.505 -0.3033 -0.9622 -0.0250
  819MOL0     H12979   8.125  10.569   8.627  0.9571 -1.4344  0.6310
  819MOL0     H12980   8.347  10.845   8.861 -2.0285 -1.9075 -1.2458
  819MOL0     H12981   8.568  11.098   8.881 -1.7640 -0.8193 -2.4408
  819MOL0     H12982   8.678  10.968   8.952  0.2562 -1.3396 -0.1157
  819MOL0     H12983   8.499  10.981   8.979 -1.7786  1.2603 -1.3591
  819MOL0     H12984   9.076  10.839   8.583 -0.6123  0.2648  2.4926
  819MOL0     H12985   9.290  10.965   8.565 -1.5888 -1.6681  1.0445
  819MOL0     H12986   9.395  11.148   8.680  1.9757 -0.6751  1.1465
  819MOL0     H12987   9.473  11.134   8.519  2.2500  1.8215  1.4463
  819MOL0     H12988   9.592  11.307   8.656 -0.3133  2.1629  1.9449
  819MOL0     H12989   9.478  11.387   8.540 -1.6917 -1.8697 -1.1221
  819MOL0     H12990   9.305  11.422   8.726 -0.0394  0.2293  0.0796
  819MOL0     H12991   9.462  11.498   8.772 -2.7522  2.2922 -1.2134
  819MOL0     H12992   9.512  11.306   8.914  0.5390 -1.3068 -2.7126
  819MOL0     H12993   9.383  11.213   8.857  0.0473 -0.8377  1.4643
  819MOL0     H12994   9.346  11.455   9.037  0.0585 -0.1077  0.8637
  819MOL0     H12995   9.213  11.365   8.959 -0.9987 -1.8212  1.1229
  819MOL0     H12996   9.408  11.220   9.128 -0.1580 -0.1929  0.2527
  819MOL0     H12997   9.266  11.166   9.052 -0.8175  0.0368 -1.6172
  819MOL0     H12998   9.117  11.344   9.168 -0.7938 -1.3716  0.1899
  819MOL0     H12999   9.263  11.395   9.262  1.0943 -0.5054 -0.1397
  819MOL0     H13000   9.256  11.190   9.387 -1.4893 -1.8761  1.0312
  819MOL0     H13001   9.157  11.106   9.275  1.7663 -0.1947  1.2451
  819MOL0     H13002   9.049  11.306   8.430  0.4901  0.6607 -0.5413
  819MOL0     H13003   8.850  11.173   8.445 -0.2213 -3.4182 -2.1327
  819MOL0     H13004   8.651  10.771   8.489 -1.3711  3.9356 -2.9581
  819MOL0     H13005   8.451  10.660   8.498 -0.3150 -2.1389  0.5158
  819MOL0     H13006   9.129   9.855   9.795 -2.8257  0.0142 -2.1330
  819MOL0     H13007   9.338   9.951   9.882 -0.2936 -0.3120 -0.9779
  819MOL0     H13008   9.552  10.563   9.866  0.5814 -0.4893  1.1021
  819MOL0     H13009   9.750  10.611   9.814 -2.9740  0.8764  2.3343
  819MOL0     H13010  10.001  10.611   9.781 -1.0057 -1.1034  0.4651
  819MOL0     H13011   9.998  10.667   9.955  2.4626  3.7091 -2.7691
  819MOL0     H13012  10.207  10.520   9.969  0.9261 -1.7083 -0.3806
  819MOL0     H13013  10.234  10.683   9.888  0.0830 -0.3687  0.9698
  819MOL0     H13014  10.189  10.416   9.736  1.8342 -1.7015 -1.1471
  819MOL0     H13015  10.234  10.558   9.666  0.6159  1.3353  0.9951
  819MOL0     H13016  10.427  10.408   9.702 -2.7156  0.2466 -1.8723
  819MOL0     H13017  10.390  10.398   9.870 -1.4764  1.1295  0.9406
  819MOL0     H13018  10.647  10.719   9.915  1.4373  1.0377 -1.6591
  819MOL0     H13019   9.900  10.233   9.968 -1.8859 -0.8860  1.9070
  819MOL0     H13020   9.682  10.041   9.896 -0.1299  1.3140  0.0494
  819MOL0     H13021   9.753  10.082  10.050  0.8003  1.3503 -0.3972
  819MOL0     H13022   9.577  10.083  10.031  0.6325 -0.8239  2.0260
  820MOL0     O13023   1.541   4.628   3.851 -0.0608  0.1122  0.8025
  820MOL0     C13024   1.419   4.616   3.842 -0.1407 -0.0626  0.2975
  820MOL0     O13025   1.342   4.615   3.731 -0.2778  0.1004  0.3669
  820MOL0     C13026   1.410   4.630   3.612 -0.1583  0.5104  0.1426
  820MOL0     C13027   1.457   4.753   3.573 -0.1951  0.1912 -0.3609
  820MOL0     C13028   1.544   4.758   3.465  0.0907 -0.2876  0.2097
  820MOL0     C13029   1.561   4.641   3.383 -0.0818  0.8978  0.1873
  820MOL0     O13030   1.644   4.623   3.269  0.5310 -0.6769  0.9492
  820MOL0     C13031   1.655   4.729   3.177  0.5149 -0.9497 -0.4140
  820MOL0     C13032   1.747   4.682   3.074  0.6030  0.3316 -0.6298
  820MOL0     C13033   1.667   4.588   2.978  0.6050 -0.6196 -0.2727
  820MOL0     C13034   1.754   4.510   2.888 -0.2738  0.0571  0.9072
  820MOL0     C13035   1.676   4.436   2.772 -1.1450 -0.1097  0.8308
  820MOL0     C13036   1.773   4.405   2.655 -0.4737 -0.1343 -0.7793
  820MOL0     C13037   1.843   4.273   2.696  0.2823 -0.3075 -0.8349
  820MOL0     C13038   1.763   4.142   2.693  0.0764  0.5054 -0.0748
  820MOL0     N13039   1.745   4.105   2.555  0.7444 -0.5557 -0.3512
  820MOL0     C13040   1.842   4.077   2.456 -0.1245  0.4606  0.6624
  820MOL0     C13041   1.777   4.033   2.347 -0.2646  0.0507 -1.0945
  820MOL0     C13042   1.841   3.962   2.228  0.7432 -0.5281 -0.3150
  820MOL0     C13043   1.816   3.808   2.239  1.1253 -0.0857 -0.4534
  820MOL0     C13044   1.886   3.722   2.342  0.2434  0.5221  0.2643
  820MOL0     C13045   1.830   3.726   2.493 -0.1137  1.5519 -0.1324
  820MOL0     O13046   1.901   3.642   2.578  0.3655  0.0479 -0.3415
  820MOL0     C13047   2.021   3.679   2.652  0.6318  1.3338  0.2106
  820MOL0     C13048   2.083   3.576   2.717 -0.3611 -0.1951  0.6350
  820MOL0     C13049   2.192   3.598   2.800  0.0733  0.9544 -0.6019
  820MOL0     C13050   2.249   3.466   2.869  0.1646  0.0100 -0.3691
  820MOL0     C13051   2.239   3.723   2.829 -0.7112 -0.1214  1.3722
  820MOL0     C13052   2.359   3.746   2.911  0.3901  0.2131  0.0617
  820MOL0     O13053   2.364   3.870   2.953  0.0482  0.5791  0.3629
  820MOL0     C13054   2.489   3.918   2.971 -0.0526 -0.4080  0.2977
  820MOL0     C13055   2.550   3.970   2.855 -0.1731  0.3649 -0.2066
  820MOL0     C13056   2.669   4.019   2.879  0.3888 -0.1136 -0.4642
  820MOL0     C13057   2.741   4.029   2.993 -0.4772 -0.7536  0.2289
  820MOL0     O13058   2.852   4.106   2.991  0.2752 -0.3475 -0.0477
  820MOL0     C13059   2.889   4.165   3.118 -0.1778 -0.3596  0.0320
  820MOL0     C13060   2.969   4.293   3.098  0.2687  0.3893  0.1098
  820MOL0     C13061   3.122   4.268   3.054  0.7468 -0.1326 -0.0936
  820MOL0     C13062   3.216   4.364   3.133  0.1277 -0.2872  0.1005
  820MOL0     C13063   3.237   4.502   3.062 -1.2851 -0.7572 -0.1977
  820MOL0     C13064   3.117   4.593   3.067  0.3549 -0.5738 -0.2339
  820MOL0     C13065   3.095   4.654   3.216 -0.8876 -0.0217 -0.3481
  820MOL0     C13066   2.992   4.760   3.233  0.5439 -0.2384  0.0106
  820MOL0    Cl13067   3.023   4.889   3.120  0.2810 -0.1361  0.4067
  820MOL0     C13068   2.681   3.972   3.107  0.0308 -0.8254  0.4239
  820MOL0     C13069   2.552   3.913   3.099  0.0364  0.6699 -0.8646
  820MOL0     O13070   2.441   3.657   2.938 -0.5042  0.3739  0.3254
  820MOL0     C13071   2.180   3.823   2.763  0.0717  0.0253  0.5652
  820MOL0     C13072   2.069   3.813   2.676  0.4927 -0.1100  0.7666
  820MOL0     N13073   1.643   4.042   2.374 -0.7033 -0.0039  0.7897
  820MOL0     N13074   1.630   4.096   2.490  0.0893  0.8013 -0.5873
  820MOL0     C13075   1.498   4.527   3.426 -0.0456 -0.2474 -0.2893
  820MOL0     C13076   1.424   4.507   3.546 -0.1134 -1.0867  0.6631
  820MOL0     C13077   1.340   4.593   3.969  0.0165 -0.0421 -0.1497
  820MOL0     C13078   1.224   4.520   3.961 -0.0441  0.0118  0.0695
  820MOL0     C13079   1.150   4.490   4.077 -0.4927  0.8376 -0.2477
  820MOL0     C13080   1.167   4.555   4.192  0.1414 -0.9184  0.2370
  820MOL0     O13081   1.076   4.540   4.295 -0.5034  0.5028 -0.6902
  820MOL0     C13082   1.108   4.583   4.426 -0.7297 -0.5033 -0.3103
  820MOL0     C13083   1.064   4.478   4.531  0.4831  0.3457  0.2872
  820MOL0     C13084   1.113   4.498   4.672  0.3739 -0.2022  0.3523
  820MOL0     C13085   1.100   4.647   4.721 -0.4817 -0.0095 -0.2255
  820MOL0     C13086   0.957   4.683   4.718 -0.6437 -0.5984  0.7478
  820MOL0     C13087   0.839   4.700   4.719 -0.4730 -0.1157 -0.1672
  820MOL0     C13088   1.268   4.657   4.196 -0.4917  0.4249 -0.3881
  820MOL0     C13089   1.359   4.678   4.083  1.1749 -1.6094 -0.7592
  820MOL0     C13090   1.452   4.791   4.096 -0.4816  0.2304  0.5882
  820MOL0     H13091   1.447   4.842   3.634 -0.3830 -0.1767  0.1561
  820MOL0     H13092   1.585   4.854   3.435  0.4137  0.3986  2.5750
  820MOL0     H13093   1.701   4.812   3.231  2.7558 -1.9188 -0.7415
  820MOL0     H13094   1.555   4.761   3.144  0.6447 -0.0965  0.0021
  820MOL0     H13095   1.813   4.747   3.016  2.3673 -1.1725 -0.4470
  820MOL0     H13096   1.828   4.638   3.134  0.8809  1.8651  0.1868
  820MOL0     H13097   1.619   4.508   3.036  0.2841 -1.9720 -2.2942
  820MOL0     H13098   1.589   4.644   2.926 -1.2034 -2.4817  0.2590
  820MOL0     H13099   1.819   4.578   2.833 -3.9359  1.0148 -2.7819
  820MOL0     H13100   1.822   4.441   2.938 -0.1552  1.8520  3.4256
  820MOL0     H13101   1.605   4.502   2.720 -0.7414 -0.1626  0.2048
  820MOL0     H13102   1.616   4.352   2.808 -1.0939 -0.7085 -0.4461
  820MOL0     H13103   1.722   4.410   2.558  0.0837 -0.1205 -1.0810
  820MOL0     H13104   1.847   4.485   2.649 -0.9702  0.4203  0.2623
  820MOL0     H13105   1.907   4.280   2.784 -1.9390  0.2687  0.8334
  820MOL0     H13106   1.918   4.258   2.618 -1.3616 -1.1107 -2.3573
  820MOL0     H13107   1.821   4.072   2.753  0.9671  1.8833  0.7069
  820MOL0     H13108   1.666   4.157   2.743 -0.3360  3.6029 -1.5646
  820MOL0     H13109   1.949   4.064   2.466  0.0041 -1.6606 -2.3106
  820MOL0     H13110   1.948   3.983   2.221  0.5097  0.9647  0.2899
  820MOL0     H13111   1.793   4.003   2.139 -1.3384  3.2754  2.2979
  820MOL0     H13112   1.707   3.795   2.237  1.1780 -0.4376 -1.6444
  820MOL0     H13113   1.842   3.772   2.139 -0.0725  2.6491 -1.8506
  820MOL0     H13114   1.886   3.617   2.310  1.3161 -0.2144  2.4566
  820MOL0     H13115   1.988   3.759   2.356  0.5771 -0.9778  2.3152
  820MOL0     H13116   1.814   3.831   2.522 -1.8671  2.0454 -2.5151
  820MOL0     H13117   1.729   3.684   2.495  1.4003 -2.4393  1.9340
  820MOL0     H13118   2.046   3.477   2.690  0.7003 -0.4154 -0.0730
  820MOL0     H13119   2.243   3.460   2.978  0.9545  1.0096 -0.2532
  820MOL0     H13120   2.356   3.456   2.845  0.2109 -0.9136  0.2013
  820MOL0     H13121   2.195   3.378   2.832  0.7991 -0.2078 -0.7966
  820MOL0     H13122   2.512   3.980   2.754  0.4049 -0.8364 -0.5535
  820MOL0     H13123   2.722   4.055   2.791 -2.4895 -0.7631 -2.6308
  820MOL0     H13124   2.797   4.189   3.173 -1.8742  1.5582 -3.2831
  820MOL0     H13125   2.952   4.096   3.174  0.5254  1.9317  2.2721
  820MOL0     H13126   2.924   4.345   3.013  2.8060  0.5552 -1.2090
  820MOL0     H13127   2.970   4.346   3.194  0.1941 -0.5642  0.6508
  820MOL0     H13128   3.132   4.287   2.947  2.2560  0.7934  0.1745
  820MOL0     H13129   3.152   4.168   3.086 -1.4354 -0.7806  0.0536
  820MOL0     H13130   3.312   4.312   3.128 -0.0947 -0.6686 -0.2117
  820MOL0     H13131   3.190   4.369   3.239 -0.7215  1.1925 -0.1511
  820MOL0     H13132   3.312   4.563   3.113  1.0089 -2.7404 -1.0196
  820MOL0     H13133   3.278   4.491   2.962 -2.8984  0.0212 -0.9806
  820MOL0     H13134   3.027   4.559   3.014 -0.7211  3.6595 -1.5227
  820MOL0     H13135   3.144   4.683   3.011  0.0279  0.5404  1.3415
  820MOL0     H13136   3.188   4.684   3.266 -0.2408  0.2562 -1.6777
  820MOL0     H13137   3.061   4.574   3.283 -0.2633  0.9782  1.2447
  820MOL0     H13138   2.986   4.793   3.338  0.4206  0.1204 -0.1080
  820MOL0     H13139   2.891   4.723   3.212  1.1638 -1.4105 -0.9394
  820MOL0     H13140   2.732   3.978   3.203 -0.7491  1.8316  0.7360
  820MOL0     H13141   2.499   3.871   3.183 -1.5613 -1.9463 -3.0111
  820MOL0     H13142   2.221   3.923   2.767 -0.3218  0.7175 -4.9731
  820MOL0     H13143   2.034   3.905   2.631  0.2053  0.7029  2.5728
  820MOL0     H13144   1.523   4.438   3.369 -2.1678 -0.5304 -0.8460
  820MOL0     H13145   1.390   4.407   3.574 -1.7744 -0.9106 -0.5548
  820MOL0     H13146   1.184   4.465   3.876  0.2099  0.4206 -0.3145
  820MOL0     H13147   1.066   4.422   4.070 -0.1935  0.3310  0.9309
  820MOL0     H13148   1.213   4.606   4.444 -0.9617 -0.2193  0.7874
  820MOL0     H13149   1.048   4.673   4.442  0.8015  1.1154 -2.8295
  820MOL0     H13150   1.106   4.381   4.502 -3.9100 -1.1214 -2.1346
  820MOL0     H13151   0.955   4.470   4.519  0.8593 -1.6747 -3.4569
  820MOL0     H13152   1.059   4.421   4.727  1.3131  0.6441  2.5449
  820MOL0     H13153   1.218   4.472   4.682  0.1063 -1.6478 -0.3659
  820MOL0     H13154   1.172   4.706   4.664  0.5378 -0.4551  0.5539
  820MOL0     H13155   1.136   4.660   4.823  0.9613  2.3952 -0.9533
  820MOL0     H13156   0.733   4.707   4.704 -0.9742 -5.3605 -0.9169
  820MOL0     H13157   1.261   4.727   4.279 -3.3051 -1.4694  1.1331
  820MOL0     H13158   1.550   4.769   4.052 -1.8679 -2.7390 -1.3610
  820MOL0     H13159   1.423   4.874   4.031  0.6980 -0.2575 -0.6179
  820MOL0     H13160   1.459   4.821   4.201 -0.7908 -0.7903  0.9153
  821MOL0     O13161   4.349  11.192  11.165  0.6039  0.3923  0.1294
  821MOL0     C13162   4.279  11.146  11.088  0.4198 -0.3169  1.1621
  821MOL0     O13163   4.285  11.192  10.952 -0.1821 -0.0080 -0.0804
  821MOL0     C13164   4.207  11.134  10.858  0.7832  0.1226 -0.4386
  821MOL0     C13165   4.216  11.004  10.813 -0.0039  0.0863 -0.2143
  821MOL0     C13166   4.151  10.958  10.694  0.1164 -0.0044  0.6984
  821MOL0     C13167   4.061  11.040  10.622  1.5393 -0.2269  1.0090
  821MOL0     O13168   4.005  11.003  10.503  0.0057  0.2312  0.4459
  821MOL0     C13169   3.954  10.864  10.504 -0.5825 -0.5080  0.3641
  821MOL0     C13170   3.869  10.870  10.383 -0.1912 -0.0906 -0.0642
  821MOL0     C13171   3.782  10.748  10.355  0.5903  0.2569  0.1762
  821MOL0     C13172   3.868  10.640  10.297 -0.4338 -0.1652  0.6457
  821MOL0     C13173   3.792  10.509  10.311 -0.0893 -0.2258  1.1551
  821MOL0     C13174   3.669  10.495  10.211  0.6319  0.3860 -0.1460
  821MOL0     C13175   3.690  10.480  10.064  0.1938  0.4136 -0.6851
  821MOL0     C13176   3.562  10.401  10.004 -0.5949  0.6926 -0.6348
  821MOL0     N13177   3.568  10.418   9.854  0.7606  0.1213 -0.4598
  821MOL0     C13178   3.567  10.537   9.792  0.0272 -0.5311  0.6783
  821MOL0     C13179   3.580  10.502   9.662 -0.0221 -0.2677  0.3573
  821MOL0     C13180   3.591  10.607   9.554 -0.3880  0.2512  0.9841
  821MOL0     C13181   3.567  10.547   9.420 -0.0567 -1.0480 -0.4378
  821MOL0     C13182   3.547  10.663   9.319  0.8319 -0.7098 -0.2282
  821MOL0     C13183   3.515  10.611   9.179 -0.2445  0.6751 -0.8795
  821MOL0     O13184   3.636  10.592   9.108 -0.0375  0.0211 -0.0945
  821MOL0     C13185   3.617  10.575   8.976  0.2098 -0.4453  0.5079
  821MOL0     C13186   3.579  10.450   8.931  0.0113  0.8317 -0.2440
  821MOL0     C13187   3.592  10.416   8.798 -0.4676  0.1897  0.3324
  821MOL0     C13188   3.570  10.274   8.747  0.0901  0.3718  0.1351
  821MOL0     C13189   3.621  10.520   8.707 -0.1108  0.3782  0.4356
  821MOL0     C13190   3.629  10.503   8.560  0.3664 -0.1979  0.1668
  821MOL0     O13191   3.660  10.624   8.497 -0.6874 -0.2360 -0.2169
  821MOL0     C13192   3.678  10.616   8.364  0.5839 -1.2052  0.3996
  821MOL0     C13193   3.803  10.596   8.303 -1.1293  0.0971 -0.0512
  821MOL0     C13194   3.809  10.590   8.167  1.3512  0.0760  0.0005
  821MOL0     C13195   3.694  10.619   8.086 -0.0463 -0.2710 -0.1424
  821MOL0     O13196   3.711  10.607   7.955 -0.5323 -0.1397  0.7425
  821MOL0     C13197   3.612  10.666   7.868 -0.1489 -0.7154 -0.1115
  821MOL0     C13198   3.669  10.683   7.727 -0.1346 -1.3672 -0.4429
  821MOL0     C13199   3.568  10.675   7.612 -0.1494  0.2255 -0.2914
  821MOL0     C13200   3.642  10.627   7.482  0.5340 -0.1860 -0.1679
  821MOL0     C13201   3.546  10.555   7.389  0.3884  0.5474  0.3157
  821MOL0     C13202   3.620  10.497   7.267  0.1896 -0.3277  0.1368
  821MOL0     C13203   3.526  10.469   7.151  0.4808 -0.0919  0.4089
  821MOL0     C13204   3.597  10.422   7.023 -0.7299 -0.1816  0.1772
  821MOL0    Cl13205   3.657  10.564   6.932  0.5038  0.4415  0.2775
  821MOL0     C13206   3.574  10.652   8.149 -0.5097 -0.1290  0.6977
  821MOL0     C13207   3.567  10.656   8.290  0.2229  0.3970  1.0608
  821MOL0     O13208   3.638  10.398   8.502 -0.0754 -0.0302 -0.2204
  821MOL0     C13209   3.626  10.650   8.755 -1.6203  0.8664  0.0970
  821MOL0     C13210   3.639  10.674   8.892 -0.2182 -0.6874  1.1567
  821MOL0     N13211   3.591  10.359   9.650  0.3056 -0.1902  0.6647
  821MOL0     N13212   3.588  10.312   9.776  0.3016  0.0781 -0.3902
  821MOL0     C13213   4.045  11.168  10.660  1.0318  0.5357  0.2570
  821MOL0     C13214   4.121  11.214  10.774 -1.3450 -0.0533 -0.6357
  821MOL0     C13215   4.208  11.016  11.137 -0.4275 -0.5806 -0.6305
  821MOL0     C13216   4.076  10.994  11.108  0.4273 -0.7891  0.2302
  821MOL0     C13217   4.000  10.900  11.176 -0.1980  1.1900 -0.0477
  821MOL0     C13218   4.051  10.829  11.291 -0.6159 -0.1550 -0.4533
  821MOL0     O13219   3.976  10.739  11.358  0.3702 -0.2321 -0.3263
  821MOL0     C13220   4.033  10.627  11.415  0.9949  0.2540 -0.7414
  821MOL0     C13221   3.974  10.502  11.354  0.0482  0.1899 -0.2336
  821MOL0     C13222   3.832  10.476  11.400  0.0368  0.3559 -0.2446
  821MOL0     C13223   3.773  10.347  11.319  0.6312 -0.4209 -0.4976
  821MOL0     C13224   3.760  10.370  11.175 -0.1946  0.9503 -0.2407
  821MOL0     C13225   3.773  10.400  11.062  0.2959 -0.5260 -0.0290
  821MOL0     C13226   4.182  10.865  11.327 -0.5885  0.3264  0.1859
  821MOL0     C13227   4.259  10.947  11.252 -0.2340 -0.7161 -0.2654
  821MOL0     C13228   4.399  10.971  11.307 -0.6751 -0.6052 -0.3588
  821MOL0     H13229   4.290  10.939  10.859 -0.8007 -0.2900  0.5531
  821MOL0     H13230   4.191  10.868  10.649  1.6261  2.1959 -2.7859
  821MOL0     H13231   3.882  10.825  10.576 -1.4970 -1.9579 -1.2626
  821MOL0     H13232   4.034  10.789  10.501 -1.7550 -1.8296  0.7331
  821MOL0     H13233   3.794  10.947  10.402  0.9725  1.0313  0.1277
  821MOL0     H13234   3.940  10.901  10.306  0.5509 -3.0486 -0.7163
  821MOL0     H13235   3.737  10.724  10.452  0.0980 -0.4874 -0.2284
  821MOL0     H13236   3.703  10.771  10.283 -0.8842  2.0641  2.2258
  821MOL0     H13237   3.874  10.649  10.188 -1.0095  0.9489  0.6942
  821MOL0     H13238   3.967  10.640  10.344 -1.4734  0.0919  2.9880
  821MOL0     H13239   3.749  10.508  10.412 -0.9089 -0.5780  0.8129
  821MOL0     H13240   3.858  10.423  10.297 -0.7837 -0.4829 -0.9271
  821MOL0     H13241   3.617  10.408  10.253 -2.4942  1.5397 -1.3150
  821MOL0     H13242   3.600  10.578  10.228  0.4697  0.2885 -0.3254
  821MOL0     H13243   3.775  10.412  10.049  2.2376  2.5340  0.6852
  821MOL0     H13244   3.708  10.578  10.020 -0.9259  1.0651  0.2665
  821MOL0     H13245   3.576  10.297  10.036  0.7698  1.2614  0.7228
  821MOL0     H13246   3.467  10.445  10.036  0.2117  1.4178  0.8551
  821MOL0     H13247   3.558  10.636   9.836  0.8065  0.4581 -1.2523
  821MOL0     H13248   3.691  10.650   9.558 -0.3953  0.1916  3.5934
  821MOL0     H13249   3.511  10.677   9.579 -0.2056  0.1359  1.9180
  821MOL0     H13250   3.659  10.493   9.394 -1.7080 -2.4840 -4.0471
  821MOL0     H13251   3.474  10.491   9.414 -1.3853  1.0152 -0.1827
  821MOL0     H13252   3.462  10.720   9.357 -0.7963 -3.5368  0.7068
  821MOL0     H13253   3.636  10.726   9.315 -0.6231  1.8676  3.0557
  821MOL0     H13254   3.459  10.520   9.203 -2.0514  2.1521  0.9386
  821MOL0     H13255   3.439  10.673   9.130 -2.0805 -1.2937 -0.6965
  821MOL0     H13256   3.558  10.362   8.990  0.9764  0.5857 -0.2445
  821MOL0     H13257   3.537  10.211   8.830 -2.9381 -1.5529 -2.2668
  821MOL0     H13258   3.662  10.236   8.703  2.0736  5.3626 -0.5842
  821MOL0     H13259   3.495  10.249   8.671 -2.1509 -0.3828  2.4300
  821MOL0     H13260   3.893  10.576   8.360 -1.5172 -0.8699  0.2479
  821MOL0     H13261   3.909  10.583   8.124  3.5153 -0.6072  4.5487
  821MOL0     H13262   3.512  10.622   7.861 -0.6692  0.6980 -3.5972
  821MOL0     H13263   3.589  10.770   7.893 -0.4027 -1.4607  3.2635
  821MOL0     H13264   3.742  10.765   7.720  1.3680 -2.7503 -1.6814
  821MOL0     H13265   3.733  10.596   7.712 -0.2304 -1.2567 -1.5993
  821MOL0     H13266   3.509  10.762   7.583 -2.9321 -0.8625  1.6196
  821MOL0     H13267   3.492  10.603   7.645 -0.6112  1.0164  0.4397
  821MOL0     H13268   3.725  10.565   7.517  0.9872 -0.6708 -1.9603
  821MOL0     H13269   3.682  10.713   7.426  0.4621  0.0434  0.1293
  821MOL0     H13270   3.492  10.470   7.433  1.5354 -1.3790 -1.8200
  821MOL0     H13271   3.481  10.639   7.364  0.3617  0.6323  0.6606
  821MOL0     H13272   3.664  10.409   7.314  0.3947  0.7461  2.0759
  821MOL0     H13273   3.699  10.563   7.228 -1.5565  1.7482 -0.1059
  821MOL0     H13274   3.473  10.560   7.120  1.2534  0.0211 -0.6413
  821MOL0     H13275   3.460  10.392   7.192  0.9316 -1.2180 -0.8873
  821MOL0     H13276   3.517  10.375   6.964  0.0189 -1.6537  0.2991
  821MOL0     H13277   3.677  10.349   7.041 -2.1023 -2.3573 -1.8360
  821MOL0     H13278   3.484  10.670   8.091  1.1506  2.1273 -1.3843
  821MOL0     H13279   3.472  10.676   8.341  0.4570  0.4300  1.4900
  821MOL0     H13280   3.650  10.739   8.698  0.7623  1.0628  1.2847
  821MOL0     H13281   3.657  10.775   8.928  1.7684 -0.5846  0.0430
  821MOL0     H13282   3.973  11.221  10.598 -0.0211 -0.5903  0.4713
  821MOL0     H13283   4.128  11.321  10.791  0.9937 -0.1815 -0.5136
  821MOL0     H13284   4.022  11.030  11.021 -3.2922 -0.6517  2.3680
  821MOL0     H13285   3.904  10.886  11.126  0.6996 -0.0077 -1.5267
  821MOL0     H13286   4.142  10.627  11.400  0.9560  0.2348 -1.0287
  821MOL0     H13287   4.007  10.633  11.521  0.1795 -0.4677 -0.8945
  821MOL0     H13288   4.031  10.409  11.363 -1.0326 -0.8371 -2.8493
  821MOL0     H13289   3.967  10.519  11.246 -1.1008 -2.5520 -0.6804
  821MOL0     H13290   3.838  10.462  11.508  3.3702 -0.8508 -0.4674
  821MOL0     H13291   3.765  10.558  11.373 -0.2776 -0.1099 -0.9056
  821MOL0     H13292   3.670  10.323  11.348  0.3962  1.0098 -0.0251
  821MOL0     H13293   3.836  10.259  11.330  1.0183 -0.2994 -1.5825
  821MOL0     H13294   3.781  10.416  10.956 -0.7293 -2.5589 -0.4558
  821MOL0     H13295   4.232  10.838  11.420 -0.0841 -1.0093 -0.4437
  821MOL0     H13296   4.438  10.883  11.359  2.6046  0.1328 -1.3275
  821MOL0     H13297   4.479  10.984  11.234  1.2778  0.7704  1.8522
  821MOL0     H13298   4.382  11.053  11.379 -3.8614 -1.6147  0.2032
  822MOL0     O13299   3.723   0.513   8.874  0.9783 -0.2886 -0.1018
  822MOL0     C13300   3.807   0.554   8.802  0.0737  0.7426  0.0345
  822MOL0     O13301   3.935   0.514   8.798 -0.0020 -0.1063 -0.6713
  822MOL0     C13302   3.989   0.399   8.853  0.1089 -0.2611 -0.0031
  822MOL0     C13303   3.912   0.289   8.894  0.4065 -0.0192  0.1065
  822MOL0     C13304   3.977   0.184   8.962  0.4926  0.8417 -0.2296
  822MOL0     C13305   4.116   0.188   8.978  0.2716  0.1833  0.3602
  822MOL0     O13306   4.189   0.098   9.053  1.4648  0.4733 -0.2830
  822MOL0     C13307   4.141  -0.035   9.054 -0.0031 -0.3642  0.3395
  822MOL0     C13308   4.250  -0.121   9.122 -0.5849  0.9653 -0.5425
  822MOL0     C13309   4.374  -0.123   9.041  0.6121 -0.8436  0.5865
  822MOL0     C13310   4.475  -0.239   9.072 -0.1786 -0.3726  0.3896
  822MOL0     C13311   4.439  -0.362   9.007 -0.1340 -0.5839  0.4999
  822MOL0     C13312   4.552  -0.461   9.041 -0.4504 -0.7124 -0.3683
  822MOL0     C13313   4.512  -0.602   8.994  1.3210  0.3442 -0.4743
  822MOL0     C13314   4.618  -0.716   9.019  0.7244  0.0132  0.1873
  822MOL0     N13315   4.648  -0.753   9.154 -0.2253 -0.1043  0.5213
  822MOL0     C13316   4.758  -0.815   9.204  0.3664  0.1086  0.0551
  822MOL0     C13317   4.756  -0.816   9.335 -0.4907 -0.4397 -0.0680
  822MOL0     C13318   4.865  -0.868   9.423 -0.7935 -0.4593  0.3409
  822MOL0     C13319   4.975  -0.757   9.467  0.4826  0.4055  0.6663
  822MOL0     C13320   5.076  -0.824   9.555  0.0821  0.7341 -0.0806
  822MOL0     C13321   5.173  -0.716   9.615 -0.2192  0.1229 -0.5302
  822MOL0     O13322   5.250  -0.662   9.514 -0.0090  0.1908  0.1646
  822MOL0     C13323   5.372  -0.724   9.487  0.0547 -0.2485 -0.0028
  822MOL0     C13324   5.423  -0.845   9.550 -0.6263  0.9284  0.8559
  822MOL0     C13325   5.541  -0.899   9.507  0.3209  1.7187  0.5423
  822MOL0     C13326   5.572  -1.036   9.567 -0.4230 -0.2740 -0.1901
  822MOL0     C13327   5.637  -0.820   9.431 -0.0613 -1.3539  0.6843
  822MOL0     C13328   5.786  -0.845   9.414  1.2662  0.6610 -0.1718
  822MOL0     O13329   5.855  -0.743   9.364 -0.2287  0.4143  0.4358
  822MOL0     C13330   5.986  -0.751   9.336  0.8062 -0.2658  0.5586
  822MOL0     C13331   6.034  -0.792   9.209  0.7538 -0.5543 -0.2975
  822MOL0     C13332   6.165  -0.767   9.178  0.2072 -0.1636  0.0578
  822MOL0     C13333   6.261  -0.728   9.271  0.4717  0.1199  0.2540
  822MOL0     O13334   6.400  -0.736   9.234  0.1109 -0.7721 -0.4140
  822MOL0     C13335   6.490  -0.657   9.318  0.4933 -0.6495  0.7437
  822MOL0     C13336   6.616  -0.620   9.239  0.4842 -0.1936  0.9519
  822MOL0     C13337   6.704  -0.508   9.309 -0.0078 -0.7879 -0.1399
  822MOL0     C13338   6.751  -0.404   9.204 -0.2071  0.1602  0.0849
  822MOL0     C13339   6.884  -0.339   9.236  0.3468  0.6283 -0.5762
  822MOL0     C13340   6.922  -0.250   9.117 -0.1168 -0.7914  0.8675
  822MOL0     C13341   7.050  -0.182   9.151 -0.0055  0.2969  0.4425
  822MOL0     C13342   7.118  -0.087   9.054 -1.5633  0.4972  0.7202
  822MOL0    Cl13343   7.015  -0.015   8.932 -0.0023  0.3989  0.5422
  822MOL0     C13344   6.215  -0.700   9.399  0.2225 -0.5055 -0.6831
  822MOL0     C13345   6.076  -0.713   9.430  0.3811  0.4443  0.0593
  822MOL0     O13346   5.833  -0.952   9.455  0.2469 -0.0843 -0.0514
  822MOL0     C13347   5.584  -0.698   9.373 -0.9401 -0.2696  0.2296
  822MOL0     C13348   5.457  -0.656   9.402  0.0454 -0.7960  1.0933
  822MOL0     N13349   4.638  -0.751   9.365  0.3529  0.9927 -0.3041
  822MOL0     N13350   4.572  -0.721   9.261  0.0707 -0.7243 -0.8060
  822MOL0     C13351   4.182   0.294   8.919  0.1923 -0.0217 -0.6861
  822MOL0     C13352   4.127   0.392   8.849 -0.7277  0.2814 -0.1353
  822MOL0     C13353   3.763   0.676   8.735 -0.6461  0.9953  0.7551
  822MOL0     C13354   3.689   0.784   8.795 -0.1233 -0.6057 -0.0405
  822MOL0     C13355   3.644   0.897   8.737 -0.4732  0.4779  0.1720
  822MOL0     C13356   3.666   0.914   8.605  0.9567 -0.1818  0.1321
  822MOL0     O13357   3.637   1.041   8.561 -0.0930 -0.5780 -0.1840
  822MOL0     C13358   3.693   1.093   8.445 -0.7373 -0.1508  0.1287
  822MOL0     C13359   3.668   1.237   8.431  0.0247 -0.4439 -0.0480
  822MOL0     C13360   3.732   1.292   8.295 -0.5076 -0.1081 -0.0264
  822MOL0     C13361   3.689   1.443   8.270  0.2340 -0.0162 -0.1278
  822MOL0     C13362   3.759   1.525   8.373  0.5357  0.2133  0.4828
  822MOL0     C13363   3.789   1.591   8.472 -0.9633 -0.3548  0.0545
  822MOL0     C13364   3.740   0.811   8.538 -0.4693 -0.2156  0.6033
  822MOL0     C13365   3.784   0.700   8.592  0.7183 -0.2137 -0.3189
  822MOL0     C13366   3.852   0.587   8.520  1.0028 -0.3498  0.7763
  822MOL0     H13367   3.806   0.282   8.872  1.0375 -1.9234 -2.8855
  822MOL0     H13368   3.918   0.099   8.995  2.7660 -1.6699 -2.1653
  822MOL0     H13369   4.113  -0.073   8.955  0.2802 -3.0726  1.2284
  822MOL0     H13370   4.049  -0.028   9.112  0.4443  2.3213  0.8635
  822MOL0     H13371   4.282  -0.102   9.225 -0.9578 -5.3484  1.1417
  822MOL0     H13372   4.222  -0.226   9.128  1.6387  0.3455  0.3400
  822MOL0     H13373   4.345  -0.114   8.936  1.0793  2.0210  0.6271
  822MOL0     H13374   4.435  -0.034   9.051  0.9843 -1.0874  0.5167
  822MOL0     H13375   4.574  -0.207   9.037 -0.3181 -0.6673 -0.2898
  822MOL0     H13376   4.478  -0.247   9.181  1.5862 -0.4609  0.3574
  822MOL0     H13377   4.430  -0.352   8.898 -0.5219  2.2972  0.7020
  822MOL0     H13378   4.346  -0.405   9.046 -0.5175  1.9397  2.6622
  822MOL0     H13379   4.639  -0.415   8.994 -0.9017 -0.8911 -1.4114
  822MOL0     H13380   4.558  -0.473   9.150  0.3653  1.5924 -0.1026
  822MOL0     H13381   4.494  -0.593   8.886  0.5303 -3.2326 -0.7916
  822MOL0     H13382   4.415  -0.646   9.019  2.5382 -3.7712 -2.0893
  822MOL0     H13383   4.576  -0.807   8.978 -0.5347 -1.7121  4.6911
  822MOL0     H13384   4.716  -0.689   8.979  0.3331 -0.3707 -1.0615
  822MOL0     H13385   4.832  -0.871   9.148  0.6264  0.3968  0.1056
  822MOL0     H13386   4.925  -0.938   9.363  2.0706  0.2031  2.2273
  822MOL0     H13387   4.814  -0.909   9.511 -1.2403  2.2465  1.4489
  822MOL0     H13388   5.021  -0.707   9.381 -1.8496  2.9481  0.7539
  822MOL0     H13389   4.925  -0.678   9.524  1.0869  2.2394 -1.2039
  822MOL0     H13390   5.021  -0.884   9.628  0.7147 -3.4353 -2.6815
  822MOL0     H13391   5.147  -0.886   9.500 -1.2368  0.3642 -1.4548
  822MOL0     H13392   5.113  -0.635   9.659 -2.4600 -2.5096  1.5997
  822MOL0     H13393   5.228  -0.767   9.695 -0.5659  1.7751  0.8225
  822MOL0     H13394   5.364  -0.913   9.610 -1.0705 -1.9484 -2.5524
  822MOL0     H13395   5.581  -1.116   9.493  0.1998  1.5352 -2.1737
  822MOL0     H13396   5.498  -1.072   9.639  0.3645 -2.1105 -0.2518
  822MOL0     H13397   5.666  -1.039   9.622 -0.0164  0.5882 -0.8174
  822MOL0     H13398   5.958  -0.829   9.141 -0.8887 -0.2978  1.3071
  822MOL0     H13399   6.198  -0.783   9.076  1.7689 -0.7240  0.6322
  822MOL0     H13400   6.456  -0.562   9.360  0.8923 -1.1568  2.2855
  822MOL0     H13401   6.508  -0.717   9.408 -2.5084  1.0148  2.6439
  822MOL0     H13402   6.676  -0.709   9.217 -0.2119 -0.2493 -0.9197
  822MOL0     H13403   6.589  -0.586   9.139 -0.7707 -0.6535  1.1239
  822MOL0     H13404   6.779  -0.567   9.362 -2.0977  0.0281  4.1452
  822MOL0     H13405   6.646  -0.454   9.384  0.3309 -0.3134 -0.2142
  822MOL0     H13406   6.674  -0.327   9.212 -0.9958 -0.7442  1.9309
  822MOL0     H13407   6.752  -0.436   9.099 -0.6181 -1.1261  0.4581
  822MOL0     H13408   6.863  -0.277   9.323 -1.1346  1.8918 -1.7806
  822MOL0     H13409   6.970  -0.405   9.254  1.9180  2.6446 -0.3805
  822MOL0     H13410   6.837  -0.183   9.104  0.0703 -0.3588  1.7925
  822MOL0     H13411   6.940  -0.302   9.023 -0.6765  2.0757 -0.9436
  822MOL0     H13412   7.125  -0.260   9.168 -0.3444 -0.7905 -2.5616
  822MOL0     H13413   7.041  -0.118   9.240 -3.8127  1.2856 -0.5033
  822MOL0     H13414   7.198  -0.136   8.998 -1.6932  2.0688 -0.9279
  822MOL0     H13415   7.181  -0.015   9.108  1.3001  1.2421 -3.1780
  822MOL0     H13416   6.285  -0.690   9.481  3.7991 -2.2387 -3.2748
  822MOL0     H13417   6.036  -0.698   9.530  1.4171  1.3456  0.3472
  822MOL0     H13418   5.654  -0.644   9.309  1.3297 -0.8229  2.0974
  822MOL0     H13419   5.426  -0.567   9.349  1.3183 -1.9207 -1.7308
  822MOL0     H13420   4.289   0.275   8.924  0.9083  3.3557 -0.5719
  822MOL0     H13421   4.188   0.478   8.822 -1.4293  1.4619  1.8579
  822MOL0     H13422   3.662   0.759   8.897  2.5036 -0.7529  0.6886
  822MOL0     H13423   3.594   0.967   8.804  1.0266 -0.0658  1.9489
  822MOL0     H13424   3.801   1.078   8.457 -0.3592  1.2178 -1.2539
  822MOL0     H13425   3.673   1.036   8.354  0.9043  0.5197 -0.6779
  822MOL0     H13426   3.712   1.287   8.519 -0.9349  1.7951 -0.7513
  822MOL0     H13427   3.561   1.260   8.434  0.3508  1.1423  0.6324
  822MOL0     H13428   3.839   1.279   8.277 -0.8574 -0.3171 -2.2332
  822MOL0     H13429   3.682   1.235   8.217 -1.0572 -0.2537  0.4282
  822MOL0     H13430   3.582   1.462   8.282  0.3517  1.7192 -1.4910
  822MOL0     H13431   3.734   1.479   8.177 -0.4706 -1.4180 -1.0578
  822MOL0     H13432   3.816   1.650   8.557  5.6696  0.4657 -2.0795
  822MOL0     H13433   3.773   0.835   8.437  1.1763  0.3223  1.2391
  822MOL0     H13434   3.847   0.601   8.411  0.5823 -1.8296  0.5800
  822MOL0     H13435   3.957   0.568   8.543  1.8584 -2.4170 -3.6803
  822MOL0     H13436   3.800   0.492   8.536 -0.5223  0.0801 -1.2108
  823MOL0     O13437   2.204   4.119   2.269  0.4287 -0.5166 -0.6359
  823MOL0     C13438   2.147   4.183   2.180  0.0076 -0.0337  0.2409
  823MOL0     O13439   2.096   4.309   2.199  0.1978 -0.0103  0.1463
  823MOL0     C13440   2.144   4.387   2.300  0.9263  0.0017  0.7122
  823MOL0     C13441   2.052   4.416   2.405 -0.3556 -0.2810 -1.0031
  823MOL0     C13442   2.094   4.509   2.502  0.8682  0.7087 -0.2759
  823MOL0     C13443   2.225   4.551   2.513  0.0340 -0.3113 -1.2177
  823MOL0     O13444   2.259   4.627   2.628 -0.4568 -0.2759 -0.3746
  823MOL0     C13445   2.369   4.716   2.626 -1.0208  0.4667  0.0138
  823MOL0     C13446   2.330   4.836   2.546 -0.2354 -0.3202  0.8289
  823MOL0     C13447   2.217   4.912   2.613  0.4011  0.0385 -0.0379
  823MOL0     C13448   2.174   5.050   2.544 -0.0898 -0.7805 -0.2551
  823MOL0     C13449   2.077   5.137   2.624 -0.1006  0.5377  0.4930
  823MOL0     C13450   2.023   5.268   2.570  0.7471 -0.8732 -0.1645
  823MOL0     C13451   1.903   5.331   2.653 -0.0139  0.7677 -0.3074
  823MOL0     C13452   1.855   5.454   2.601 -0.0879 -0.1065 -0.4587
  823MOL0     N13453   1.958   5.545   2.564 -0.2926  0.1016 -0.8313
  823MOL0     C13454   2.024   5.622   2.656 -0.5387 -0.2875  0.3304
  823MOL0     C13455   2.092   5.709   2.583 -0.1920  1.3111 -0.2087
  823MOL0     C13456   2.204   5.798   2.631 -0.8600 -0.0700 -0.9101
  823MOL0     C13457   2.308   5.826   2.527 -0.4129  0.1296  0.9084
  823MOL0     C13458   2.379   5.698   2.473  0.2307 -0.8403  0.2307
  823MOL0     C13459   2.504   5.744   2.389  0.0027 -0.4534  0.0780
  823MOL0     O13460   2.483   5.809   2.262  0.4632  0.0840 -0.1659
  823MOL0     C13461   2.494   5.734   2.145 -0.6800  0.3673 -0.0122
  823MOL0     C13462   2.455   5.805   2.033  0.5260 -0.3316 -0.1348
  823MOL0     C13463   2.465   5.758   1.905  1.4614 -0.1187  0.2875
  823MOL0     C13464   2.413   5.855   1.796 -0.4624  0.4796 -0.1257
  823MOL0     C13465   2.513   5.629   1.886 -1.0066  0.6341 -0.2781
  823MOL0     C13466   2.529   5.567   1.746  0.2975  0.6277  0.4759
  823MOL0     O13467   2.532   5.426   1.743  0.7616  0.0615  0.1910
  823MOL0     C13468   2.486   5.382   1.617 -1.1570 -0.0119  0.5089
  823MOL0     C13469   2.356   5.357   1.596 -0.1693 -0.6417 -1.5864
  823MOL0     C13470   2.314   5.332   1.462  0.9899  0.2935 -0.1232
  823MOL0     C13471   2.394   5.328   1.355  0.4026  0.6853 -0.9756
  823MOL0     O13472   2.363   5.291   1.230 -0.3841 -0.2317  1.0149
  823MOL0     C13473   2.231   5.299   1.182 -0.1276 -0.4415  0.5788
  823MOL0     C13474   2.247   5.270   1.032  0.4840  0.7490 -0.4009
  823MOL0     C13475   2.130   5.310   0.951  0.6269 -0.7061  0.0684
  823MOL0     C13476   1.987   5.258   1.004 -1.3447  0.3892 -0.7607
  823MOL0     C13477   1.883   5.252   0.882 -0.3206 -0.2797  0.2079
  823MOL0     C13478   1.753   5.220   0.943 -0.0961  0.4338 -0.3399
  823MOL0     C13479   1.651   5.201   0.835 -0.1201 -0.6027  0.1271
  823MOL0     C13480   1.554   5.320   0.845 -0.8088 -1.4130 -1.0795
  823MOL0    Cl13481   1.617   5.474   0.771 -0.0017  0.2094  0.4212
  823MOL0     C13482   2.526   5.346   1.384  0.3873  0.5998  0.4122
  823MOL0     C13483   2.572   5.357   1.509  0.0372  0.0350 -0.0641
  823MOL0     O13484   2.549   5.645   1.656 -0.5236 -0.2906 -0.3554
  823MOL0     C13485   2.537   5.545   1.995  0.2125  0.2741 -0.2726
  823MOL0     C13486   2.536   5.600   2.129  0.7572 -0.7912  0.3379
  823MOL0     N13487   2.055   5.693   2.451  0.4570  0.3258  0.4099
  823MOL0     N13488   1.978   5.584   2.442 -0.2034 -0.5922 -0.0127
  823MOL0     C13489   2.317   4.512   2.411  0.7461  0.8840 -0.9840
  823MOL0     C13490   2.268   4.444   2.302  0.2616 -0.0229  0.0937
  823MOL0     C13491   2.139   4.130   2.038 -0.3322 -0.3625 -0.1682
  823MOL0     C13492   2.091   4.231   1.946  0.0673 -0.8077  0.3626
  823MOL0     C13493   2.078   4.203   1.812 -0.0679 -1.2502  0.1697
  823MOL0     C13494   2.101   4.074   1.760  0.7847 -0.5480 -0.4869
  823MOL0     O13495   2.091   4.038   1.627 -0.3729  0.1493  0.3065
  823MOL0     C13496   2.030   4.124   1.534  0.2018  0.2012  0.6175
  823MOL0     C13497   2.124   4.161   1.407 -0.1659  0.7984 -0.0358
  823MOL0     C13498   2.167   4.035   1.331 -0.3067  1.2749  0.3921
  823MOL0     C13499   2.089   4.005   1.197 -0.7284 -0.1856 -0.1281
  823MOL0     C13500   1.939   4.018   1.198  0.3138  0.7471 -1.0117
  823MOL0     C13501   1.816   4.018   1.213 -0.0333 -0.0221  0.7640
  823MOL0     C13502   2.150   3.978   1.846  0.0320  0.4241 -0.3603
  823MOL0     C13503   2.177   4.005   1.986  0.6249 -0.0826  0.9173
  823MOL0     C13504   2.226   3.888   2.059 -0.1040 -0.0471 -0.4936
  823MOL0     H13505   1.955   4.367   2.401 -0.0481 -1.0235  0.3193
  823MOL0     H13506   2.037   4.536   2.591  2.6892  2.7573  0.3500
  823MOL0     H13507   2.462   4.671   2.591  2.0712  1.6742  5.6103
  823MOL0     H13508   2.399   4.748   2.726 -2.4127  2.2259 -0.0839
  823MOL0     H13509   2.414   4.903   2.568 -0.3393 -0.4029  1.5270
  823MOL0     H13510   2.314   4.819   2.440 -0.5752 -0.2566  0.8711
  823MOL0     H13511   2.127   4.850   2.624  1.3152 -1.5932 -1.3077
  823MOL0     H13512   2.253   4.945   2.711 -0.4894 -0.2364  0.3983
  823MOL0     H13513   2.268   5.103   2.526 -2.1960  4.7454  2.6736
  823MOL0     H13514   2.118   5.035   2.451 -0.3445  0.1472 -0.2647
  823MOL0     H13515   2.124   5.156   2.721  1.7559 -0.8904 -0.0603
  823MOL0     H13516   1.991   5.070   2.633  0.1726 -1.2099 -5.6450
  823MOL0     H13517   2.108   5.336   2.572  1.9214 -2.2261 -1.7018
  823MOL0     H13518   1.991   5.257   2.466  1.2939 -1.9544 -0.2329
  823MOL0     H13519   1.935   5.334   2.757 -1.8990  0.0548  0.3247
  823MOL0     H13520   1.819   5.261   2.659 -0.6303  1.5992  1.5763
  823MOL0     H13521   1.794   5.439   2.511  1.3053 -1.2591 -1.2365
  823MOL0     H13522   1.794   5.482   2.688 -1.0951  0.4377 -1.3150
  823MOL0     H13523   2.039   5.598   2.761  0.1313 -3.2124 -0.3294
  823MOL0     H13524   2.253   5.771   2.725  3.5948  3.0237 -2.0285
  823MOL0     H13525   2.150   5.891   2.650  0.1014  0.9209 -2.6936
  823MOL0     H13526   2.273   5.884   2.441 -1.0728 -0.3711  0.8266
  823MOL0     H13527   2.382   5.892   2.572 -0.3169  2.0784 -1.8303
  823MOL0     H13528   2.415   5.641   2.559 -0.1974 -1.2334  0.1547
  823MOL0     H13529   2.310   5.637   2.414 -0.7774  0.3778  0.0882
  823MOL0     H13530   2.555   5.808   2.462 -0.1908 -0.7180  0.4509
  823MOL0     H13531   2.573   5.660   2.394  0.4958 -0.0044  2.8785
  823MOL0     H13532   2.435   5.912   2.040  0.4937 -0.2494 -1.3678
  823MOL0     H13533   2.494   5.888   1.730 -1.2618 -0.5076 -1.6450
  823MOL0     H13534   2.352   5.937   1.835 -1.4255 -0.4260  0.3210
  823MOL0     H13535   2.340   5.802   1.734 -0.6900  0.2349  0.3473
  823MOL0     H13536   2.283   5.373   1.675 -0.9126  3.0438 -2.8090
  823MOL0     H13537   2.211   5.314   1.431  1.1664 -0.6207 -0.1976
  823MOL0     H13538   2.166   5.227   1.232 -0.8540  0.7729  1.4247
  823MOL0     H13539   2.189   5.398   1.198 -0.0971 -0.6160  1.7922
  823MOL0     H13540   2.331   5.323   0.986  1.7485  0.1227  1.0912
  823MOL0     H13541   2.262   5.162   1.024  3.4594  1.0066  0.4603
  823MOL0     H13542   2.141   5.275   0.848 -5.7202 -1.0962 -0.8998
  823MOL0     H13543   2.131   5.420   0.949  1.1900 -0.7137 -0.8147
  823MOL0     H13544   1.943   5.319   1.082 -0.0094 -0.8323  1.0297
  823MOL0     H13545   1.979   5.154   1.037 -3.4986  0.2644 -1.5595
  823MOL0     H13546   1.873   5.350   0.833  1.3075  1.0429  2.3526
  823MOL0     H13547   1.921   5.181   0.808  0.4737  1.9215 -1.6217
  823MOL0     H13548   1.732   5.299   1.014 -1.3247  0.9593 -1.2504
  823MOL0     H13549   1.771   5.128   1.000  1.9770  2.2217  2.1430
  823MOL0     H13550   1.598   5.105   0.839 -3.0151  0.7283 -1.8507
  823MOL0     H13551   1.692   5.215   0.734 -0.0976  2.7595  0.4716
  823MOL0     H13552   1.529   5.344   0.949  2.3610 -3.3459  0.2808
  823MOL0     H13553   1.464   5.302   0.786 -1.6381  1.5103 -0.8673
  823MOL0     H13554   2.605   5.323   1.312 -0.4021  0.3994 -0.4141
  823MOL0     H13555   2.679   5.353   1.525  0.0107  0.8938  0.4180
  823MOL0     H13556   2.563   5.440   1.981  0.5854  0.6699 -3.4412
  823MOL0     H13557   2.565   5.533   2.210 -1.2786 -1.4719  0.5503
  823MOL0     H13558   2.421   4.543   2.417  0.6831  0.8446  0.9163
  823MOL0     H13559   2.341   4.412   2.229 -1.1479 -3.0751 -0.1596
  823MOL0     H13560   2.063   4.332   1.973  0.3413 -0.7028  0.2600
  823MOL0     H13561   2.031   4.285   1.758 -4.1288 -0.5841  4.0257
  823MOL0     H13562   1.938   4.083   1.490  0.9857  0.8874 -1.7854
  823MOL0     H13563   1.978   4.211   1.575  1.7496  0.0293  3.1555
  823MOL0     H13564   2.213   4.208   1.449 -0.6356  0.4030  1.4649
  823MOL0     H13565   2.070   4.231   1.342 -0.6198 -0.2098 -0.7859
  823MOL0     H13566   2.273   4.047   1.309  0.0226 -0.0313  1.1597
  823MOL0     H13567   2.166   3.955   1.405  2.8281  1.0452  0.3047
  823MOL0     H13568   2.103   3.898   1.178 -3.1458 -0.4604 -0.7840
  823MOL0     H13569   2.139   4.055   1.114  2.5277 -1.5099  0.8944
  823MOL0     H13570   1.712   4.036   1.228  0.2922  1.2468  1.6181
  823MOL0     H13571   2.189   3.884   1.808  0.4890 -0.0385  1.1666
  823MOL0     H13572   2.334   3.904   2.061 -0.0409  0.0064 -2.4238
  823MOL0     H13573   2.184   3.877   2.160  1.0971 -4.0101 -0.2708
  823MOL0     H13574   2.211   3.790   2.014  4.2855 -1.8781  1.4792
  824MOL0     O13575   6.600   6.567   1.165  0.0491 -0.1320 -0.5967
  824MOL0     C13576   6.698   6.582   1.091  0.3564 -0.0822 -0.1428
  824MOL0     O13577   6.828   6.603   1.141  0.1464 -0.3948  0.3620
  824MOL0     C13578   6.838   6.627   1.281  0.0775 -0.2950  0.2720
  824MOL0     C13579   6.872   6.519   1.366 -0.6744 -0.1423 -0.7863
  824MOL0     C13580   6.863   6.528   1.504 -0.2906 -0.8651  0.1767
  824MOL0     C13581   6.808   6.645   1.563 -0.5717 -0.3595 -0.5662
  824MOL0     O13582   6.786   6.649   1.700  0.9713  0.2140  0.8260
  824MOL0     C13583   6.776   6.763   1.776 -0.5746  0.3290 -0.6264
  824MOL0     C13584   6.814   6.749   1.929  0.4808 -0.3665 -0.1267
  824MOL0     C13585   6.964   6.723   1.942 -0.1964 -0.0729  0.9760
  824MOL0     C13586   7.023   6.579   1.914  0.3107  0.4055 -1.4096
  824MOL0     C13587   7.030   6.493   2.048  0.2818  0.0801 -0.7400
  824MOL0     C13588   6.902   6.468   2.128 -0.2574 -0.2729 -0.6078
  824MOL0     C13589   6.921   6.400   2.261 -0.1354  1.3190  0.0234
  824MOL0     C13590   6.973   6.252   2.257 -0.6639  0.6827  0.9164
  824MOL0     N13591   6.947   6.166   2.371  0.1814  0.7318 -0.4067
  824MOL0     C13592   6.857   6.186   2.464  0.1388 -0.1161  0.6591
  824MOL0     C13593   6.864   6.079   2.543 -0.1439 -0.5964 -0.8900
  824MOL0     C13594   6.774   6.044   2.663 -0.8208 -0.0121 -0.3339
  824MOL0     C13595   6.824   6.105   2.798  0.2993  0.6447 -0.1892
  824MOL0     C13596   6.945   6.040   2.872 -0.3964  0.9433  0.3205
  824MOL0     C13597   6.992   6.132   2.984 -0.3756  0.3074 -0.1954
  824MOL0     O13598   6.881   6.173   3.064  0.6321  0.2180 -0.5775
  824MOL0     C13599   6.893   6.304   3.098 -0.9497 -0.2775 -0.5391
  824MOL0     C13600   6.840   6.397   3.022  0.6881 -0.5380  0.3462
  824MOL0     C13601   6.843   6.536   3.058 -0.1464  1.0566 -0.2104
  824MOL0     C13602   6.760   6.634   2.971 -0.2366  0.2548 -0.3546
  824MOL0     C13603   6.903   6.585   3.179  0.5455  0.0315 -0.2722
  824MOL0     C13604   6.905   6.718   3.219  0.5442 -0.4133  0.3872
  824MOL0     O13605   6.935   6.731   3.352 -0.5704  0.7535  0.5003
  824MOL0     C13606   6.931   6.855   3.416 -0.3844 -0.2387  0.5281
  824MOL0     C13607   6.877   6.974   3.371  0.1821  0.2963  0.3239
  824MOL0     C13608   6.883   7.095   3.452  0.1888 -0.2382  0.6591
  824MOL0     C13609   6.944   7.089   3.586  0.3321  0.0418  0.9663
  824MOL0     O13610   6.954   7.204   3.659 -0.5900  0.1866  0.5324
  824MOL0     C13611   6.936   7.201   3.792  0.1325 -0.3985 -0.9206
  824MOL0     C13612   6.942   7.338   3.855  0.5982 -0.2484  0.5821
  824MOL0     C13613   6.896   7.336   4.005 -0.4230 -0.3746 -0.3859
  824MOL0     C13614   6.889   7.485   4.051  0.0911  0.3951 -0.3282
  824MOL0     C13615   7.018   7.567   4.056 -0.3721 -0.1806  0.5501
  824MOL0     C13616   7.013   7.712   3.999 -0.6054  0.8270  0.2409
  824MOL0     C13617   6.944   7.826   4.074 -0.2419 -0.7131 -0.9214
  824MOL0     C13618   6.913   7.950   3.996 -0.1052 -1.4266 -0.1216
  824MOL0    Cl13619   6.863   8.068   4.116 -0.4598  0.0465  0.0268
  824MOL0     C13620   7.017   6.974   3.620 -0.2211  0.0007 -0.2848
  824MOL0     C13621   7.012   6.866   3.532  0.7893  0.0720  0.3540
  824MOL0     O13622   6.903   6.802   3.137 -0.1920  0.1442 -0.1440
  824MOL0     C13623   6.967   6.481   3.251 -0.3522 -0.9060  0.1664
  824MOL0     C13624   6.961   6.350   3.212  0.5393  0.5708 -0.6481
  824MOL0     N13625   6.976   6.006   2.506  0.5172  0.4117  0.5036
  824MOL0     N13626   7.025   6.064   2.405  0.0957 -0.4877 -0.8470
  824MOL0     C13627   6.784   6.758   1.481 -0.3209  0.4891 -0.0805
  824MOL0     C13628   6.808   6.745   1.339  0.4365 -1.1234 -0.3220
  824MOL0     C13629   6.680   6.549   0.948  0.2419  0.1965 -0.5342
  824MOL0     C13630   6.801   6.509   0.881 -0.2453 -0.0283 -1.0308
  824MOL0     C13631   6.801   6.478   0.746 -0.2860 -0.4037  0.0243
  824MOL0     C13632   6.690   6.482   0.667  0.3643 -0.6346 -0.7216
  824MOL0     O13633   6.691   6.459   0.533  0.1379 -1.1117  1.0553
  824MOL0     C13634   6.728   6.585   0.467 -0.9275 -0.1732 -0.5067
  824MOL0     C13635   6.709   6.585   0.311  1.2839 -0.5250  0.6942
  824MOL0     C13636   6.553   6.552   0.294 -0.4266  0.8215  0.4161
  824MOL0     C13637   6.484   6.637   0.184  0.4156  0.1803 -0.0433
  824MOL0     C13638   6.536   6.616   0.042 -0.0069 -0.5990 -1.0572
  824MOL0     C13639   6.565   6.608  -0.070  0.8565 -0.5293 -0.0683
  824MOL0     C13640   6.566   6.505   0.730 -0.5270  0.2320 -0.0429
  824MOL0     C13641   6.558   6.543   0.875  0.3855  0.4489  0.0873
  824MOL0     C13642   6.426   6.577   0.947 -0.6026  0.2618 -0.4508
  824MOL0     H13643   6.894   6.423   1.320 -0.2474 -0.3374 -0.1884
  824MOL0     H13644   6.885   6.439   1.562 -2.1221 -1.9135 -0.6455
  824MOL0     H13645   6.672   6.799   1.776 -0.5422  0.4545  0.3779
  824MOL0     H13646   6.842   6.842   1.741 -0.3881  0.5894  0.2923
  824MOL0     H13647   6.791   6.850   1.966  1.7020 -0.6312  1.4956
  824MOL0     H13648   6.756   6.675   1.985 -0.3772  1.1267  1.0307
  824MOL0     H13649   7.006   6.791   1.866  1.8572 -1.6693  0.5954
  824MOL0     H13650   7.015   6.767   2.028  2.5033  1.2219 -1.1146
  824MOL0     H13651   6.953   6.537   1.841  1.2372 -1.1102 -1.4676
  824MOL0     H13652   7.126   6.591   1.879  0.6180 -0.0189 -0.6851
  824MOL0     H13653   7.098   6.552   2.111  1.4010  1.4100 -3.0816
  824MOL0     H13654   7.072   6.394   2.026  0.5573 -0.5038  1.9550
  824MOL0     H13655   6.853   6.565   2.139  2.4295  1.6720 -3.8831
  824MOL0     H13656   6.838   6.404   2.067  1.4612 -0.4469 -2.3150
  824MOL0     H13657   6.820   6.403   2.301 -0.2395 -0.3493 -0.0527
  824MOL0     H13658   6.981   6.457   2.334 -0.2620  0.7985  0.5423
  824MOL0     H13659   6.926   6.213   2.166  0.9828  2.0336 -0.5685
  824MOL0     H13660   7.080   6.256   2.235 -0.7582 -2.5692 -0.7836
  824MOL0     H13661   6.782   6.265   2.471 -0.6924 -0.0296 -4.8406
  824MOL0     H13662   6.770   5.936   2.682 -3.7656  0.0368 -0.2347
  824MOL0     H13663   6.671   6.061   2.631 -2.1671 -2.5863  2.1854
  824MOL0     H13664   6.854   6.206   2.770  2.7520 -0.7582 -3.2381
  824MOL0     H13665   6.738   6.096   2.865  1.5394 -3.7265  1.1687
  824MOL0     H13666   6.896   5.958   2.924  0.0441  0.5719  0.1588
  824MOL0     H13667   7.028   6.001   2.811 -0.8170 -0.2336  0.4882
  824MOL0     H13668   7.071   6.083   3.040  1.3652 -1.0115 -3.5075
  824MOL0     H13669   7.039   6.217   2.933  0.4021  1.2489  1.9540
  824MOL0     H13670   6.778   6.364   2.939  1.0927  0.8497 -0.5392
  824MOL0     H13671   6.827   6.700   2.916 -1.4327  1.0655 -0.8888
  824MOL0     H13672   6.683   6.691   3.025  1.9084  1.4344  1.6331
  824MOL0     H13673   6.714   6.576   2.890 -1.4898 -0.2891  0.7083
  824MOL0     H13674   6.829   6.976   3.274 -2.6113 -5.1852  1.2092
  824MOL0     H13675   6.841   7.188   3.417  3.0568  1.3643  1.1489
  824MOL0     H13676   6.833   7.162   3.800 -0.1261  0.6120  1.8645
  824MOL0     H13677   7.014   7.140   3.839  0.2324  1.9553  2.3533
  824MOL0     H13678   7.046   7.371   3.851 -0.0473  1.8095 -1.4862
  824MOL0     H13679   6.879   7.408   3.799 -1.8356 -0.6272  2.6180
  824MOL0     H13680   6.981   7.293   4.058  0.5142 -1.6820 -2.8052
  824MOL0     H13681   6.795   7.295   4.002 -1.5636  2.2038 -0.2807
  824MOL0     H13682   6.844   7.491   4.150 -2.1719  2.2391 -1.3655
  824MOL0     H13683   6.806   7.535   3.999 -2.2892  0.2513  3.0222
  824MOL0     H13684   7.066   7.566   4.155 -0.6832 -2.4214  0.7369
  824MOL0     H13685   7.089   7.518   3.988 -1.5320 -1.6897  0.3810
  824MOL0     H13686   6.955   7.699   3.907 -1.3602 -2.6623  1.0294
  824MOL0     H13687   7.119   7.732   3.982  0.5177 -4.6885 -1.5171
  824MOL0     H13688   7.011   7.864   4.152 -0.5966 -1.8910 -0.0222
  824MOL0     H13689   6.852   7.781   4.113 -1.2689 -0.3294 -2.8064
  824MOL0     H13690   6.828   7.934   3.929 -2.3023 -0.1503  2.1708
  824MOL0     H13691   6.998   7.993   3.942 -0.6890  1.3605  1.0084
  824MOL0     H13692   7.075   6.979   3.712  0.9987  0.0361 -1.0454
  824MOL0     H13693   7.068   6.780   3.568 -1.1504 -0.2018  3.0896
  824MOL0     H13694   7.038   6.495   3.331  3.5223  2.1105 -3.3591
  824MOL0     H13695   7.013   6.273   3.267  2.7056  0.5552 -2.5757
  824MOL0     H13696   6.766   6.852   1.532 -1.0144  0.1579  0.3062
  824MOL0     H13697   6.826   6.837   1.283  0.3506  0.7039  2.4418
  824MOL0     H13698   6.886   6.497   0.947 -0.1461 -3.6314 -1.6465
  824MOL0     H13699   6.900   6.457   0.706 -0.9648 -0.9103 -1.4893
  824MOL0     H13700   6.668   6.667   0.508 -0.1769 -0.5266  1.4036
  824MOL0     H13701   6.830   6.609   0.498 -0.3305 -2.0849 -0.8771
  824MOL0     H13702   6.770   6.505   0.268  0.9307 -0.5342  0.1934
  824MOL0     H13703   6.734   6.685   0.274  2.5233  0.6430  4.3064
  824MOL0     H13704   6.541   6.446   0.270  0.4210  0.6444  0.7210
  824MOL0     H13705   6.500   6.565   0.389 -0.9086  3.1659 -0.1238
  824MOL0     H13706   6.473   6.742   0.213 -0.0916  0.3219 -0.7305
  824MOL0     H13707   6.381   6.598   0.181  0.9303 -1.4273  1.6680
  824MOL0     H13708   6.601   6.600  -0.171 -3.0019 -1.9502 -1.5296
  824MOL0     H13709   6.470   6.499   0.680  0.3386  0.1996 -1.7861
  824MOL0     H13710   6.344   6.583   0.876 -1.6552  0.5852  0.7527
  824MOL0     H13711   6.396   6.497   1.016 -0.4818  2.2167  2.0207
  824MOL0     H13712   6.441   6.670   1.002 -0.9715 -1.2262  2.3765
  825MOL0     O13713   6.771   8.607   2.564 -0.0193  0.0398  0.6030
  825MOL0     C13714   6.699   8.510   2.561  0.5860 -1.1315 -0.1271
  825MOL0     O13715   6.568   8.504   2.535  0.0021  0.3200 -0.7297
  825MOL0     C13716   6.487   8.611   2.509 -0.3385  0.2987  0.1337
  825MOL0     C13717   6.355   8.608   2.549  0.6563  0.1470 -0.3179
  825MOL0     C13718   6.263   8.715   2.531 -0.1783 -0.2975 -0.6860
  825MOL0     C13719   6.299   8.836   2.468 -0.8634 -0.6559 -0.6551
  825MOL0     O13720   6.203   8.935   2.468 -0.2563 -0.0096  0.4366
  825MOL0     C13721   6.221   9.040   2.375 -0.9632 -0.1603  0.0523
  825MOL0     C13722   6.089   9.075   2.308 -0.6619  1.1192 -0.2662
  825MOL0     C13723   6.067   9.208   2.253 -0.1320 -0.1967 -0.3523
  825MOL0     C13724   6.148   9.231   2.116  0.1272  0.4851 -0.2893
  825MOL0     C13725   6.093   9.372   2.074  0.1169 -1.0873 -0.2947
  825MOL0     C13726   6.128   9.398   1.934 -0.2088 -0.1134  0.2871
  825MOL0     C13727   6.048   9.528   1.874 -0.6778  0.4921 -0.8398
  825MOL0     C13728   6.096   9.555   1.728 -0.4600 -0.3018 -0.4454
  825MOL0     N13729   6.232   9.613   1.733  0.5437 -0.5183  0.1110
  825MOL0     C13730   6.276   9.736   1.781 -0.0952 -0.1770 -0.0483
  825MOL0     C13731   6.404   9.751   1.769 -0.0363 -0.6531 -0.2957
  825MOL0     C13732   6.482   9.873   1.799 -0.3836 -0.9756 -0.9805
  825MOL0     C13733   6.534   9.954   1.675 -0.0557 -0.6587 -0.0781
  825MOL0     C13734   6.645  10.054   1.727  0.1452 -1.2666 -0.8655
  825MOL0     C13735   6.736  10.113   1.623 -0.0512 -1.0495  0.3532
  825MOL0     O13736   6.676  10.222   1.551  0.1244  0.9778 -0.0253
  825MOL0     C13737   6.750  10.291   1.460 -0.0223  0.1754 -0.1009
  825MOL0     C13738   6.692  10.415   1.416 -0.0426 -0.3541 -0.5074
  825MOL0     C13739   6.764  10.502   1.327  0.5214  0.5073  0.1159
  825MOL0     C13740   6.690  10.626   1.279 -0.4812  0.2647  0.6699
  825MOL0     C13741   6.896  10.474   1.296 -0.1179  0.1893 -0.1608
  825MOL0     C13742   6.973  10.554   1.191  0.2844 -0.9316  0.1320
  825MOL0     O13743   6.918  10.644   1.111  0.2065 -0.1184 -0.9783
  825MOL0     C13744   7.002  10.719   1.026  0.6321 -0.4764  0.5748
  825MOL0     C13745   7.097  10.671   0.938 -0.9385 -0.2536 -0.4623
  825MOL0     C13746   7.160  10.756   0.852  1.0852 -0.4177 -0.1919
  825MOL0     C13747   7.129  10.889   0.831 -0.6473  0.3716 -0.1581
  825MOL0     O13748   7.194  10.958   0.735 -0.6069  0.4417 -0.5840
  825MOL0     C13749   7.119  11.075   0.681 -0.0412  0.4952 -0.4500
  825MOL0     C13750   6.972  11.040   0.635  1.2377 -0.9736 -0.2677
  825MOL0     C13751   6.978  10.974   0.493  0.9911 -0.8126 -0.3905
  825MOL0     C13752   7.079  10.859   0.477 -0.1537  0.1711 -0.4038
  825MOL0     C13753   7.070  10.802   0.343  0.3357 -0.0993 -0.4180
  825MOL0     C13754   7.153  10.669   0.328 -0.3897 -0.1351  0.4593
  825MOL0     C13755   7.168  10.646   0.183 -0.8982 -1.1759  0.1449
  825MOL0     C13756   7.031  10.601   0.118 -0.8245 -0.1998  0.1100
  825MOL0    Cl13757   7.050  10.567  -0.053  0.3254  0.1665 -0.0373
  825MOL0     C13758   7.030  10.935   0.919  0.0799  0.2918  0.5467
  825MOL0     C13759   6.970  10.854   1.013  0.0042 -0.9562  0.5898
  825MOL0     O13760   7.097  10.544   1.200 -0.0763 -0.9720 -0.5845
  825MOL0     C13761   6.950  10.345   1.338  0.8563 -0.0134 -0.1521
  825MOL0     C13762   6.879  10.254   1.422 -0.3030 -0.4171 -0.0874
  825MOL0     N13763   6.454   9.627   1.731  0.0067  0.3529 -0.4558
  825MOL0     N13764   6.351   9.547   1.709 -0.9968 -0.5039 -0.6030
  825MOL0     C13765   6.433   8.843   2.416 -0.0186  0.9132  0.1079
  825MOL0     C13766   6.519   8.730   2.438  0.2812  0.6933 -0.2388
  825MOL0     C13767   6.755   8.374   2.585  1.2070 -0.3702 -0.1905
  825MOL0     C13768   6.666   8.261   2.581  0.1697 -0.5639 -1.5779
  825MOL0     C13769   6.698   8.135   2.620 -0.5026  1.0272  0.8152
  825MOL0     C13770   6.828   8.111   2.675  0.1362 -0.9544 -1.3309
  825MOL0     O13771   6.870   7.994   2.726 -0.3744 -0.7183 -0.0864
  825MOL0     C13772   6.797   7.861   2.713  0.6129 -0.1350 -0.1466
  825MOL0     C13773   6.820   7.786   2.578  0.1032 -0.2898 -0.0569
  825MOL0     C13774   6.797   7.627   2.577  0.4104 -0.2533  0.6081
  825MOL0     C13775   6.654   7.577   2.578  0.9866  0.1982 -0.0920
  825MOL0     C13776   6.590   7.582   2.705  0.7909  0.3339 -0.1586
  825MOL0     C13777   6.513   7.594   2.809 -0.0959  0.5184  0.0043
  825MOL0     C13778   6.916   8.220   2.686 -0.4381  0.5889 -0.8224
  825MOL0     C13779   6.884   8.349   2.635 -0.6681 -0.1688  0.9029
  825MOL0     C13780   6.976   8.466   2.682  0.3429  1.1981  0.4993
  825MOL0     H13781   6.313   8.531   2.613 -2.0825  1.2768 -0.6282
  825MOL0     H13782   6.161   8.696   2.560  0.1246 -1.0060 -0.0648
  825MOL0     H13783   6.298   9.020   2.300  1.7475 -0.0930  2.6332
  825MOL0     H13784   6.258   9.126   2.431  2.5580 -2.2720  1.3365
  825MOL0     H13785   6.064   8.991   2.242  0.5191 -0.1529  0.8477
  825MOL0     H13786   6.014   9.056   2.386 -1.3072 -0.9161 -1.3123
  825MOL0     H13787   5.958   9.215   2.248 -0.0177  0.8907 -1.9508
  825MOL0     H13788   6.111   9.271   2.330  1.8869 -1.8698 -0.0518
  825MOL0     H13789   6.254   9.227   2.141  0.1381  1.4533 -0.1709
  825MOL0     H13790   6.145   9.144   2.049  2.2659 -2.1895  2.7621
  825MOL0     H13791   6.141   9.448   2.136  0.9029 -3.0232  1.5776
  825MOL0     H13792   5.985   9.384   2.078  0.2831  0.5862  0.1866
  825MOL0     H13793   6.237   9.404   1.931 -0.1755  2.6724  2.8579
  825MOL0     H13794   6.089   9.316   1.874 -0.6632  1.0988 -1.1228
  825MOL0     H13795   6.067   9.612   1.942  3.1901  0.8908 -2.2029
  825MOL0     H13796   5.942   9.502   1.874 -0.0564 -2.2815 -1.4649
  825MOL0     H13797   6.098   9.466   1.666  1.3035 -1.6295  1.3859
  825MOL0     H13798   6.027   9.627   1.682  0.0543  0.1743 -0.4845
  825MOL0     H13799   6.216   9.823   1.808 -0.5960 -0.1626 -1.1833
  825MOL0     H13800   6.570   9.832   1.850 -0.3010 -2.9398 -2.5470
  825MOL0     H13801   6.425   9.935   1.868  1.1858 -2.2612  1.6477
  825MOL0     H13802   6.583   9.879   1.612 -0.7020 -1.2206  0.0866
  825MOL0     H13803   6.454  10.002   1.618 -1.9455  0.8968  3.5157
  825MOL0     H13804   6.615  10.141   1.786 -0.5906 -0.4127 -2.4492
  825MOL0     H13805   6.716  10.001   1.792 -0.8470  0.0312  1.4072
  825MOL0     H13806   6.828  10.138   1.677 -0.2324 -2.2824  1.2818
  825MOL0     H13807   6.769  10.036   1.553  1.8398  0.0948 -0.0618
  825MOL0     H13808   6.591  10.429   1.452  1.3110  0.3662  3.6036
  825MOL0     H13809   6.582  10.618   1.293 -0.7552 -1.1236 -1.8296
  825MOL0     H13810   6.694  10.658   1.175 -0.9755 -2.1306 -0.1343
  825MOL0     H13811   6.736  10.711   1.330  0.4494 -1.0909  2.2045
  825MOL0     H13812   7.141  10.572   0.944  0.4448  0.3033 -0.8397
  825MOL0     H13813   7.233  10.714   0.784 -0.7525  0.7692 -3.1128
  825MOL0     H13814   7.095  11.144   0.762 -2.2807  2.4336 -2.5965
  825MOL0     H13815   7.166  11.137   0.604  0.0188  0.2664 -0.5998
  825MOL0     H13816   6.917  10.979   0.707  2.0568  1.0543  2.2572
  825MOL0     H13817   6.905  11.126   0.627 -2.0976 -3.5340 -3.2788
  825MOL0     H13818   6.997  11.053   0.419  0.8179 -2.8291 -2.7133
  825MOL0     H13819   6.875  10.946   0.470  0.1877 -1.7889  3.6474
  825MOL0     H13820   7.071  10.784   0.557  0.0284  2.0459  1.4718
  825MOL0     H13821   7.176  10.910   0.471  0.3200 -0.8273 -1.6063
  825MOL0     H13822   6.964  10.780   0.332  0.4309  0.0072 -1.7156
  825MOL0     H13823   7.094  10.873   0.264 -3.4457 -0.2245 -1.8353
  825MOL0     H13824   7.100  10.582   0.368 -2.1204  0.2665 -0.8503
  825MOL0     H13825   7.253  10.684   0.369 -0.9232 -1.4260  2.3724
  825MOL0     H13826   7.244  10.569   0.167 -1.6284 -1.8252 -0.2386
  825MOL0     H13827   7.208  10.737   0.136  3.1694 -1.1830  3.0602
  825MOL0     H13828   6.961  10.684   0.130  0.4269  1.2025 -1.6350
  825MOL0     H13829   6.990  10.511   0.164 -0.9917 -0.5049 -0.6219
  825MOL0     H13830   7.001  11.039   0.913  0.0282  0.2362 -0.3910
  825MOL0     H13831   6.908  10.901   1.090  0.6551 -2.8623  2.3538
  825MOL0     H13832   7.045  10.309   1.298  2.1461  4.2232 -1.3925
  825MOL0     H13833   6.917  10.154   1.439 -5.1354 -2.3913  0.6661
  825MOL0     H13834   6.482   8.925   2.364  1.0815  0.8715  1.0384
  825MOL0     H13835   6.620   8.728   2.398  0.1954  2.9529 -0.7189
  825MOL0     H13836   6.560   8.272   2.559  0.4468  1.0971 -2.2337
  825MOL0     H13837   6.610   8.071   2.624  0.9284 -1.0291  0.9550
  825MOL0     H13838   6.831   7.788   2.787  0.6934 -1.1851 -1.1789
  825MOL0     H13839   6.687   7.867   2.717  0.5986  0.1433 -0.8087
  825MOL0     H13840   6.921   7.805   2.539  0.7942 -1.2535  1.1754
  825MOL0     H13841   6.747   7.830   2.509 -1.3216 -2.4453 -0.0269
  825MOL0     H13842   6.850   7.596   2.487  0.8782  4.2993 -0.8824
  825MOL0     H13843   6.840   7.583   2.668 -0.9260 -2.6773  0.1773
  825MOL0     H13844   6.667   7.483   2.525 -0.4850  1.5980 -3.2170
  825MOL0     H13845   6.595   7.649   2.520 -0.0016  4.6076  5.4784
  825MOL0     H13846   6.454   7.622   2.893  1.2557  1.6023  0.6333
  825MOL0     H13847   7.016   8.213   2.726 -0.4887  1.9735 -0.4255
  825MOL0     H13848   7.028   8.427   2.770  0.6559  0.1354 -0.1439
  825MOL0     H13849   7.030   8.504   2.596  0.3354  0.4653  0.1619
  825MOL0     H13850   6.910   8.544   2.721 -1.0616  1.2131 -1.7143
  826MOL0     O13851   7.107   0.724  10.512 -0.5867  0.5609 -0.4811
  826MOL0     C13852   7.162   0.691  10.615 -0.4136  0.8567 -0.2158
  826MOL0     O13853   7.095   0.657  10.734 -0.4517 -0.5181  0.4051
  826MOL0     C13854   6.963   0.626  10.726 -0.3391  0.4629  1.4215
  826MOL0     C13855   6.914   0.508  10.669 -0.1474  0.9008  0.1769
  826MOL0     C13856   6.780   0.483  10.676 -0.5246 -0.6806  0.4518
  826MOL0     C13857   6.693   0.574  10.729  0.3247  0.5928 -0.0276
  826MOL0     O13858   6.562   0.558  10.711  0.2046  0.1917 -0.7254
  826MOL0     C13859   6.474   0.642  10.783 -0.9622  0.2620 -0.3237
  826MOL0     C13860   6.327   0.594  10.777  0.1568  0.5022  1.4089
  826MOL0     C13861   6.236   0.690  10.864  0.0333  0.5813  0.3610
  826MOL0     C13862   6.096   0.625  10.884 -0.5208 -0.1553 -0.5210
  826MOL0     C13863   6.100   0.498  10.968 -0.5533  0.0409  0.9318
  826MOL0     C13864   5.952   0.468  11.008  1.0318 -0.0719  0.0753
  826MOL0     C13865   5.891   0.566  11.108 -0.5918  0.0832  0.2335
  826MOL0     C13866   5.760   0.519  11.169 -0.1983  0.6898  0.1320
  826MOL0     N13867   5.717   0.588  11.283 -0.7849 -0.5533  0.4755
  826MOL0     C13868   5.790   0.586  11.405 -0.0225 -0.0572 -0.5407
  826MOL0     C13869   5.737   0.685  11.482 -0.5120 -0.9013  0.4678
  826MOL0     C13870   5.785   0.721  11.619 -0.9794  0.1679 -0.0319
  826MOL0     C13871   5.670   0.759  11.721  0.0774 -0.0150  0.3780
  826MOL0     C13872   5.718   0.757  11.866 -0.2766  0.2636  0.3501
  826MOL0     C13873   5.633   0.853  11.953  0.5148  1.3350 -0.4383
  826MOL0     O13874   5.668   0.853  12.087 -0.2285  0.3993 -0.5612
  826MOL0     C13875   5.592   0.902  12.191 -0.5780 -0.0080  0.0821
  826MOL0     C13876   5.634   0.853  12.314  0.4840  0.4641  0.0698
  826MOL0     C13877   5.586   0.909  12.437 -0.1736 -0.3020  0.3680
  826MOL0     C13878   5.641   0.847  12.567 -0.6850 -1.0755 -0.3388
  826MOL0     C13879   5.493   1.019  12.424 -0.3513 -0.3914  1.4308
  826MOL0     C13880   5.426   1.078  12.542  0.4339  0.5910 -0.7270
  826MOL0     O13881   5.387   1.205  12.518  0.0679 -0.7386  0.0956
  826MOL0     C13882   5.317   1.268  12.624  0.4998  0.0311 -0.2455
  826MOL0     C13883   5.178   1.298  12.612  0.0471 -0.5737  1.2827
  826MOL0     C13884   5.113   1.358  12.721  0.3370 -0.5487 -0.1052
  826MOL0     C13885   5.174   1.382  12.843 -0.1260  0.2175  0.4366
  826MOL0     O13886   5.108   1.443  12.944  0.9083  0.3430 -0.0940
  826MOL0     C13887   5.113   1.382  13.071 -1.1554 -0.7629  0.4008
  826MOL0     C13888   4.992   1.402  13.158  0.7714 -0.1443 -0.0506
  826MOL0     C13889   4.874   1.291  13.146 -0.3887 -0.1582 -0.2837
  826MOL0     C13890   4.804   1.314  13.009 -0.3685 -0.2412 -1.5890
  826MOL0     C13891   4.684   1.227  12.994 -0.1340 -0.1213 -0.4138
  826MOL0     C13892   4.606   1.234  12.867  0.4124  0.8721 -0.5373
  826MOL0     C13893   4.505   1.129  12.841  0.0403  0.2592  0.1647
  826MOL0     C13894   4.403   1.097  12.951  0.0140 -0.8071 -0.3189
  826MOL0    Cl13895   4.304   1.246  12.988  0.1942 -0.4916  0.5894
  826MOL0     C13896   5.315   1.345  12.851 -0.2733 -0.3465  0.5529
  826MOL0     C13897   5.376   1.293  12.747  0.4444 -0.6490 -0.6690
  826MOL0     O13898   5.399   1.011  12.640  0.7027  0.6071 -0.5688
  826MOL0     C13899   5.456   1.059  12.292  0.0906  0.0622 -0.8758
  826MOL0     C13900   5.504   1.002  12.177 -0.2685  0.4216 -0.3876
  826MOL0     N13901   5.649   0.745  11.401 -0.0345 -0.4089 -0.1751
  826MOL0     N13902   5.633   0.689  11.290  0.0794  0.0221  0.0872
  826MOL0     C13903   6.743   0.690  10.790 -0.0273  0.2735 -0.0488
  826MOL0     C13904   6.874   0.714  10.788  0.4829 -0.5586 -0.1820
  826MOL0     C13905   7.306   0.711  10.623 -0.1133 -0.5789  0.1537
  826MOL0     C13906   7.369   0.715  10.499 -0.3635 -0.2195 -0.4288
  826MOL0     C13907   7.510   0.729  10.500  0.7238 -0.1542  0.3679
  826MOL0     C13908   7.585   0.759  10.611  0.0937  0.4787  1.0000
  826MOL0     O13909   7.718   0.779  10.581  0.5432  0.1429  0.4515
  826MOL0     C13910   7.791   0.798  10.693 -0.4376 -0.0290 -0.9447
  826MOL0     C13911   7.802   0.941  10.735  0.1299  0.1054  1.2969
  826MOL0     C13912   7.900   1.023  10.635  0.3381 -0.2575 -0.7913
  826MOL0     C13913   7.933   1.161  10.699 -0.9554  0.4206  0.0603
  826MOL0     C13914   7.967   1.249  10.583 -0.8109  0.7628 -0.6391
  826MOL0     C13915   7.983   1.335  10.504 -0.1439 -0.7148 -0.0003
  826MOL0     C13916   7.515   0.774  10.731  1.1109 -0.6483  0.0362
  826MOL0     C13917   7.380   0.751  10.741  0.1059  0.1980  0.6757
  826MOL0     C13918   7.320   0.780  10.871 -0.6258 -0.6691 -0.1214
  826MOL0     H13919   6.990   0.444  10.627  0.6981  2.9499 -1.6125
  826MOL0     H13920   6.725   0.391  10.656 -0.9878 -0.1915 -0.5450
  826MOL0     H13921   6.473   0.740  10.735 -0.6690  1.5337  2.1127
  826MOL0     H13922   6.511   0.637  10.886 -0.9128  1.1595 -0.2887
  826MOL0     H13923   6.286   0.574  10.678  0.1125 -2.9181  1.9958
  826MOL0     H13924   6.329   0.494  10.820 -0.1982 -0.9703 -1.7651
  826MOL0     H13925   6.283   0.695  10.963 -0.5075  0.3439  0.6348
  826MOL0     H13926   6.222   0.784  10.810 -3.9122 -0.9058 -1.6206
  826MOL0     H13927   6.038   0.701  10.937  0.7490  0.9533 -0.6529
  826MOL0     H13928   6.058   0.594  10.787  3.2732 -1.6754 -1.7291
  826MOL0     H13929   6.161   0.517  11.057  0.8415 -1.0380  0.2447
  826MOL0     H13930   6.136   0.411  10.913  0.0926  2.1993 -2.3518
  826MOL0     H13931   5.905   0.460  10.909 -1.9877 -0.5160  1.4037
  826MOL0     H13932   5.932   0.373  11.058 -2.0429  0.6586  0.4632
  826MOL0     H13933   5.859   0.654  11.052 -0.3533 -0.9627 -1.6147
  826MOL0     H13934   5.962   0.579  11.191 -2.1748 -0.5353  1.7450
  826MOL0     H13935   5.674   0.507  11.102  0.1547 -0.2687 -0.1689
  826MOL0     H13936   5.778   0.420  11.214 -1.9375  1.6085  3.1126
  826MOL0     H13937   5.853   0.503  11.437 -0.8559  0.8679  4.3902
  826MOL0     H13938   5.863   0.797  11.628 -0.3156 -0.4740 -0.2125
  826MOL0     H13939   5.831   0.635  11.670 -1.6648 -2.1727 -3.0884
  826MOL0     H13940   5.629   0.848  11.671 -1.3760 -1.2050 -0.6828
  826MOL0     H13941   5.590   0.684  11.715  2.9769 -3.5289  1.7208
  826MOL0     H13942   5.727   0.654  11.902  1.7171  0.3791  0.2606
  826MOL0     H13943   5.820   0.796  11.875  0.6679 -2.4089  2.3832
  826MOL0     H13944   5.634   0.954  11.911  1.9933  1.8650  0.8056
  826MOL0     H13945   5.532   0.809  11.949  1.4079 -0.8868  0.0938
  826MOL0     H13946   5.711   0.777  12.325 -0.9706 -0.7998  2.6853
  826MOL0     H13947   5.576   0.779  12.623  0.8979  1.2462  5.0066
  826MOL0     H13948   5.663   0.917  12.648 -2.1232 -0.6441 -0.3034
  826MOL0     H13949   5.731   0.788  12.545 -0.6286 -0.2612 -2.4795
  826MOL0     H13950   5.134   1.273  12.516  4.9648 -0.0069 -1.4889
  826MOL0     H13951   5.005   1.363  12.726  0.3437 -1.7446  2.6908
  826MOL0     H13952   5.125   1.275  13.054 -1.4683 -0.6066 -0.9310
  826MOL0     H13953   5.197   1.422  13.128 -1.9571  2.1108 -0.2800
  826MOL0     H13954   5.025   1.396  13.262  1.0183 -1.5273 -0.1919
  826MOL0     H13955   4.935   1.494  13.140  1.6372  0.1627 -1.3213
  826MOL0     H13956   4.802   1.309  13.226 -1.3423  1.1865 -1.3961
  826MOL0     H13957   4.912   1.188  13.149 -0.1635 -0.0600  0.4741
  826MOL0     H13958   4.877   1.308  12.928 -1.0750  0.3660 -2.2907
  826MOL0     H13959   4.771   1.419  13.009  1.8839  0.6232  1.4081
  826MOL0     H13960   4.716   1.123  13.007 -1.4409 -0.6568 -1.3364
  826MOL0     H13961   4.616   1.251  13.076 -1.3035 -3.7226 -0.1746
  826MOL0     H13962   4.677   1.210  12.788 -1.5552 -3.4724 -1.3201
  826MOL0     H13963   4.568   1.336  12.863  2.9995  1.8608 -3.4193
  826MOL0     H13964   4.558   1.041  12.804 -0.8110 -0.7511  1.2994
  826MOL0     H13965   4.445   1.164  12.757 -0.1987 -2.4825 -0.9016
  826MOL0     H13966   4.456   1.070  13.043 -0.1618  2.7754  0.9821
  826MOL0     H13967   4.331   1.016  12.938 -1.1726  0.4474 -1.8303
  826MOL0     H13968   5.369   1.364  12.944  0.4822  0.9853 -0.1181
  826MOL0     H13969   5.479   1.256  12.749 -0.5416 -3.7255 -0.9927
  826MOL0     H13970   5.384   1.139  12.282  0.7302  0.7772  0.0897
  826MOL0     H13971   5.488   1.045  12.078  0.3872  3.3241  0.6669
  826MOL0     H13972   6.681   0.767  10.835  1.0091 -0.4143  2.7466
  826MOL0     H13973   6.898   0.801  10.848 -2.7091 -0.4413  1.1211
  826MOL0     H13974   7.329   0.693  10.401  1.4042  2.7371 -1.9566
  826MOL0     H13975   7.558   0.708  10.405 -0.5282 -1.4200 -0.0234
  826MOL0     H13976   7.744   0.734  10.769 -1.1385 -1.5925 -2.5998
  826MOL0     H13977   7.893   0.766  10.673 -1.2228 -1.8615 -2.2933
  826MOL0     H13978   7.854   0.951  10.831  1.2386  0.7099  0.6469
  826MOL0     H13979   7.703   0.988  10.741 -1.0019 -2.2270  2.1820
  826MOL0     H13980   7.996   0.969  10.637  0.3587 -0.2051  1.0897
  826MOL0     H13981   7.860   1.020  10.533  0.4317  1.8426 -0.9255
  826MOL0     H13982   8.014   1.153  10.773 -2.4147  2.6080  2.0307
  826MOL0     H13983   7.840   1.191  10.748 -2.0460 -0.9844 -1.0669
  826MOL0     H13984   8.015   1.423  10.453  3.7177 -2.3226 -0.6394
  826MOL0     H13985   7.573   0.811  10.815  0.0484 -0.3485  0.6489
  826MOL0     H13986   7.394   0.808  10.947  1.8945 -2.8828 -1.5864
  826MOL0     H13987   7.251   0.865  10.865  2.2334  1.9925  1.5274
  826MOL0     H13988   7.273   0.690  10.911  1.4832 -0.1807  4.0046
  827MOL0     O13989   5.974  11.174   7.817 -0.2219  0.4377 -0.5536
  827MOL0     C13990   5.874  11.237   7.828  1.9026  1.3454  0.0376
  827MOL0     O13991   5.816  11.280   7.942 -0.3651 -0.3318 -0.1494
  827MOL0     C13992   5.896  11.286   8.057 -0.0652 -0.3278  0.2021
  827MOL0     C13993   5.836  11.244   8.171 -1.4479  0.1863 -0.2420
  827MOL0     C13994   5.900  11.248   8.295 -0.1514 -0.5675  0.3286
  827MOL0     C13995   6.031  11.273   8.311 -1.0664 -0.1592 -0.8064
  827MOL0     O13996   6.093  11.249   8.436  0.2520  0.1648  0.3706
  827MOL0     C13997   6.185  11.352   8.470 -1.2032 -1.2495 -0.9346
  827MOL0     C13998   6.133  11.475   8.552  0.1249  0.9755 -0.5776
  827MOL0     C13999   6.027  11.437   8.651  0.7627  0.2752 -1.1473
  827MOL0     C14000   5.912  11.537   8.673  0.3734 -0.8808 -0.4747
  827MOL0     C14001   5.957  11.688   8.676 -0.1682 -0.7963 -0.3948
  827MOL0     C14002   6.046  11.705   8.801  0.3947  0.6506  1.2717
  827MOL0     C14003   6.072  11.853   8.802 -0.3904 -0.3138 -0.8629
  827MOL0     C14004   6.163  11.903   8.690  0.0029  0.6163 -0.6220
  827MOL0     N14005   6.254  12.016   8.723 -0.0917 -0.3716 -0.0647
  827MOL0     C14006   6.226  12.151   8.701 -0.2808  0.0951  0.3788
  827MOL0     C14007   6.349  12.210   8.748  0.0229 -0.0024  0.4443
  827MOL0     C14008   6.375  12.362   8.776 -1.4547 -0.1657  0.5084
  827MOL0     C14009   6.513  12.413   8.743  0.0540  0.9932  0.0336
  827MOL0     C14010   6.556  12.393   8.591  1.3429 -0.0703 -0.0685
  827MOL0     C14011   6.678  12.490   8.577  0.3164  0.1269  0.2123
  827MOL0     O14012   6.643  12.628   8.578  0.4796 -0.5133  0.0912
  827MOL0     C14013   6.611  12.690   8.458  1.2265  0.4768 -1.0343
  827MOL0     C14014   6.577  12.625   8.341 -0.1498 -0.8791  0.0683
  827MOL0     C14015   6.545  12.696   8.224 -0.0989 -0.3801  0.8600
  827MOL0     C14016   6.509  12.598   8.105 -0.4277  0.2200 -0.7269
  827MOL0     C14017   6.560  12.838   8.222 -0.1706  0.0242 -1.3633
  827MOL0     C14018   6.544  12.922   8.105 -0.6651  0.3157 -0.3409
  827MOL0     O14019   6.482  13.040   8.122  0.1506  0.1621  0.1713
  827MOL0     C14020   6.491  13.135   8.015  0.0593  0.1215 -0.1905
  827MOL0     C14021   6.421  13.112   7.894 -0.6033  0.2837 -0.2065
  827MOL0     C14022   6.424  13.206   7.795  0.2555  0.8526  0.3018
  827MOL0     C14023   6.498  13.326   7.805  0.2413  0.4592 -0.5111
  827MOL0     O14024   6.517  13.419   7.700 -0.1333  0.6219  0.0483
  827MOL0     C14025   6.458  13.389   7.577 -0.1767  1.1006 -1.0279
  827MOL0     C14026   6.473  13.519   7.504 -0.6335  0.1392 -0.1601
  827MOL0     C14027   6.466  13.509   7.351  0.0273 -0.9884 -0.9862
  827MOL0     C14028   6.451  13.648   7.288  0.1966  0.2244  0.7394
  827MOL0     C14029   6.480  13.648   7.138  1.3607  0.8071  0.3530
  827MOL0     C14030   6.369  13.563   7.060  0.9742  0.2885  0.1475
  827MOL0     C14031   6.386  13.556   6.905 -0.3826  0.5658 -0.5723
  827MOL0     C14032   6.353  13.685   6.834  0.8981 -0.9803  0.5286
  827MOL0    Cl14033   6.476  13.709   6.708  0.0514 -0.1653 -0.2518
  827MOL0     C14034   6.544  13.358   7.934 -0.8123  0.3571  0.4266
  827MOL0     C14035   6.543  13.263   8.037  0.0893  0.3901 -0.0140
  827MOL0     O14036   6.572  12.871   7.999  0.2234 -0.1005 -0.1379
  827MOL0     C14037   6.596  12.899   8.334  0.5360  0.2611 -0.7600
  827MOL0     C14038   6.630  12.825   8.446  0.0028  0.4084 -0.0674
  827MOL0     N14039   6.434  12.109   8.801  0.1475  0.7930 -0.8736
  827MOL0     N14040   6.372  12.000   8.790  0.4423  0.1957 -0.2576
  827MOL0     C14041   6.091  11.305   8.186 -2.3342  0.3028 -0.1720
  827MOL0     C14042   6.025  11.323   8.063 -1.1263 -0.1423 -0.2866
  827MOL0     C14043   5.795  11.286   7.708  0.1240 -0.3153  0.3155
  827MOL0     C14044   5.694  11.390   7.723  0.5191  0.4047 -0.3362
  827MOL0     C14045   5.622  11.435   7.616 -0.1498 -0.2267 -0.6161
  827MOL0     C14046   5.640  11.380   7.492 -0.2131  0.2038  0.1638
  827MOL0     O14047   5.561  11.404   7.382  0.5065  0.1300  0.0425
  827MOL0     C14048   5.437  11.481   7.397 -0.2318 -0.5362 -0.0240
  827MOL0     C14049   5.475  11.628   7.376  0.0629  0.1689  0.2328
  827MOL0     C14050   5.492  11.655   7.225 -0.3622 -0.9822 -0.4728
  827MOL0     C14051   5.557  11.793   7.194 -0.5906  0.4079  0.0072
  827MOL0     C14052   5.527  11.834   7.058 -0.4624  0.5092 -0.5956
  827MOL0     C14053   5.490  11.855   6.946 -0.4303  0.0650  0.1306
  827MOL0     C14054   5.722  11.271   7.469 -0.3144 -0.5307  0.4698
  827MOL0     C14055   5.792  11.221   7.579  0.4275  0.4558  0.2382
  827MOL0     C14056   5.860  11.086   7.549  1.5328 -0.9061 -0.0095
  827MOL0     H14057   5.734  11.215   8.149 -0.9171 -0.5239 -1.9618
  827MOL0     H14058   5.840  11.228   8.383 -0.8665 -1.7060 -0.3870
  827MOL0     H14059   6.246  11.394   8.390 -1.2822  1.7286  0.4451
  827MOL0     H14060   6.251  11.291   8.533 -4.1246 -2.7634  0.8768
  827MOL0     H14061   6.210  11.533   8.602  1.5640  1.5383 -3.2324
  827MOL0     H14062   6.088  11.545   8.480 -1.3158  0.3408 -0.3455
  827MOL0     H14063   5.970  11.347   8.625 -5.1774  3.0093  0.5497
  827MOL0     H14064   6.070  11.422   8.750  0.3880  0.7800 -0.9043
  827MOL0     H14065   5.834  11.537   8.597  0.0144  3.9633 -0.4556
  827MOL0     H14066   5.869  11.496   8.765 -1.5041  0.3007 -0.7790
  827MOL0     H14067   5.869  11.752   8.681  0.7270  0.4129  0.5203
  827MOL0     H14068   6.012  11.718   8.586 -1.5381 -0.1823 -1.0593
  827MOL0     H14069   5.990  11.686   8.894  1.7928 -0.9693  1.8319
  827MOL0     H14070   6.135  11.643   8.807  0.6825  1.1612  3.1097
  827MOL0     H14071   6.124  11.871   8.897  1.4492 -1.8389 -1.5415
  827MOL0     H14072   5.984  11.919   8.802  0.2477  0.7435 -4.3101
  827MOL0     H14073   6.219  11.815   8.657  0.1417  0.9646 -1.3547
  827MOL0     H14074   6.105  11.936   8.603 -2.1820  1.2153  0.9972
  827MOL0     H14075   6.131  12.188   8.664 -0.7668 -0.4853  1.0229
  827MOL0     H14076   6.360  12.374   8.883  0.9387  2.4875  0.6389
  827MOL0     H14077   6.302  12.423   8.721  1.0027  1.8273 -0.7355
  827MOL0     H14078   6.520  12.520   8.765  1.4931  1.1133 -0.9416
  827MOL0     H14079   6.587  12.358   8.802 -1.1867 -3.2967 -2.0435
  827MOL0     H14080   6.591  12.293   8.563  2.3009  0.5518 -1.1706
  827MOL0     H14081   6.471  12.423   8.528 -0.4409 -2.6655  0.9364
  827MOL0     H14082   6.737  12.469   8.666  2.6711  0.8137 -1.1174
  827MOL0     H14083   6.724  12.461   8.482 -0.1136 -0.8863  0.3013
  827MOL0     H14084   6.553  12.519   8.335 -2.4351 -0.5734  1.9267
  827MOL0     H14085   6.596  12.536   8.081 -0.4035 -0.0541  0.0266
  827MOL0     H14086   6.471  12.662   8.025 -2.6305  3.9337  2.8962
  827MOL0     H14087   6.430  12.528   8.134  2.1819 -1.5427  3.0336
  827MOL0     H14088   6.361  13.026   7.867  1.3866 -0.9103 -1.0353
  827MOL0     H14089   6.369  13.179   7.705  0.3144  4.2964 -0.9196
  827MOL0     H14090   6.508  13.310   7.520  0.0100  0.2573  0.2813
  827MOL0     H14091   6.350  13.370   7.574 -0.3249  1.9302 -1.1498
  827MOL0     H14092   6.403  13.601   7.522 -3.0999 -1.9430  0.3277
  827MOL0     H14093   6.572  13.566   7.516 -0.2532 -0.2990 -1.3685
  827MOL0     H14094   6.371  13.459   7.328  0.1751 -3.2307  2.5337
  827MOL0     H14095   6.549  13.452   7.311 -0.3568 -0.4451 -2.6197
  827MOL0     H14096   6.522  13.720   7.330 -0.4937  0.5951  1.2950
  827MOL0     H14097   6.349  13.683   7.304  0.2553  1.3563 -1.1077
  827MOL0     H14098   6.486  13.752   7.104 -2.0482  1.4328  1.2491
  827MOL0     H14099   6.576  13.602   7.113  1.2433  0.9661 -0.4067
  827MOL0     H14100   6.279  13.616   7.094  1.3200  1.7114 -1.0560
  827MOL0     H14101   6.357  13.457   7.083 -1.1695  0.4186 -0.1539
  827MOL0     H14102   6.338  13.469   6.860 -0.3968  0.1070  0.3045
  827MOL0     H14103   6.493  13.533   6.902 -0.5041 -0.1482  0.2752
  827MOL0     H14104   6.374  13.770   6.900  6.2532 -1.8400  0.4360
  827MOL0     H14105   6.246  13.687   6.812  0.1009 -1.0993  3.8776
  827MOL0     H14106   6.586  13.456   7.951  2.0603 -0.3630 -1.5528
  827MOL0     H14107   6.573  13.303   8.133 -0.5806  1.7058 -0.3279
  827MOL0     H14108   6.602  13.008   8.339  2.0716  0.3753 -3.2056
  827MOL0     H14109   6.660  12.870   8.540  1.9496 -1.6873  0.4153
  827MOL0     H14110   6.198  11.305   8.204 -2.0308 -0.6956 -1.8152
  827MOL0     H14111   6.090  11.345   7.978  0.8994  1.4050  1.5148
  827MOL0     H14112   5.696  11.425   7.825  2.1961  2.2883 -0.9434
  827MOL0     H14113   5.558  11.521   7.632 -1.3972 -1.2936  0.3847
  827MOL0     H14114   5.370  11.436   7.324  2.2418 -1.3116 -1.9759
  827MOL0     H14115   5.392  11.465   7.496 -1.9208  0.9310 -0.5120
  827MOL0     H14116   5.563  11.653   7.436 -0.5982 -0.1058  1.3566
  827MOL0     H14117   5.398  11.692   7.422 -0.9136 -2.4044  2.4500
  827MOL0     H14118   5.554  11.576   7.183  1.3625  0.0011  0.1399
  827MOL0     H14119   5.393  11.663   7.179 -0.0244  3.9808 -0.9197
  827MOL0     H14120   5.665  11.787   7.206 -0.3022 -1.0844 -2.4202
  827MOL0     H14121   5.516  11.864   7.266 -1.1756 -0.7747  0.8860
  827MOL0     H14122   5.451  11.862   6.847  2.2926 -2.7917 -1.3000
  827MOL0     H14123   5.726  11.220   7.373  3.7715  2.6403 -1.3370
  827MOL0     H14124   5.842  11.045   7.449  1.7413  1.0610 -0.9112
  827MOL0     H14125   5.965  11.109   7.565  0.9291  3.5248 -1.0502
  827MOL0     H14126   5.838  11.021   7.633 -0.6418  1.1048  1.1168
  828MOL0     O14127   6.249   9.364   0.329  0.3815 -0.6313 -0.1691
  828MOL0     C14128   6.372   9.369   0.334  0.3563  0.8948 -0.0239
  828MOL0     O14129   6.458   9.267   0.315  0.3178 -0.2368  0.0233
  828MOL0     C14130   6.443   9.158   0.229  0.0734 -1.0799  0.0669
  828MOL0     C14131   6.552   9.081   0.189  0.7421 -0.9398  0.4644
  828MOL0     C14132   6.539   8.961   0.120  0.4317  0.8463  0.2487
  828MOL0     C14133   6.416   8.910   0.099  0.0241  0.3922  0.6576
  828MOL0     O14134   6.406   8.779   0.063  0.6775  0.5464 -0.3332
  828MOL0     C14135   6.518   8.704   0.014 -0.5363  0.3891  0.1046
  828MOL0     C14136   6.462   8.559   0.001 -0.3719 -0.1911 -0.1739
  828MOL0     C14137   6.555   8.447  -0.055  0.3094  0.0241  1.2689
  828MOL0     C14138   6.669   8.416   0.043 -0.5205 -0.2743  0.2659
  828MOL0     C14139   6.747   8.299   0.004 -0.5127  0.2998  0.4626
  828MOL0     C14140   6.852   8.273   0.116  0.2474 -0.7941  0.4419
  828MOL0     C14141   6.965   8.382   0.135 -0.1003 -1.0345 -0.6898
  828MOL0     C14142   7.076   8.396   0.023  0.7386 -0.2069 -0.5872
  828MOL0     N14143   7.195   8.475   0.046 -1.6191 -0.0049 -0.0801
  828MOL0     C14144   7.217   8.598  -0.017  0.3760  0.4160 -0.8535
  828MOL0     C14145   7.318   8.656   0.039 -1.4497  0.8010 -0.8769
  828MOL0     C14146   7.374   8.795   0.017 -0.5650  0.0349 -0.9694
  828MOL0     C14147   7.284   8.897   0.094  1.1345 -0.3040  0.2291
  828MOL0     C14148   7.337   9.036   0.089 -0.6729  0.1503 -0.0059
  828MOL0     C14149   7.247   9.134   0.173  0.3937  0.7754 -0.2966
  828MOL0     O14150   7.123   9.145   0.103  0.4182  0.0170  0.1837
  828MOL0     C14151   7.124   9.231  -0.003 -0.7035 -1.0331 -0.0659
  828MOL0     C14152   7.026   9.192  -0.095 -0.1206 -0.3259 -0.3794
  828MOL0     C14153   7.010   9.247  -0.222 -0.2258 -0.0599  0.8769
  828MOL0     C14154   6.877   9.222  -0.290 -0.5965 -0.4073  0.1598
  828MOL0     C14155   7.107   9.341  -0.265  0.2678  0.8415  0.6710
  828MOL0     C14156   7.095   9.411  -0.401 -0.1708 -0.0787 -0.7899
  828MOL0     O14157   7.104   9.550  -0.409 -0.9453 -0.1989  0.2890
  828MOL0     C14158   7.024   9.594  -0.515 -0.6995 -0.6676 -0.2405
  828MOL0     C14159   7.051   9.576  -0.653  0.4371  0.3873  0.2736
  828MOL0     C14160   6.973   9.646  -0.751 -0.1146  0.9848 -0.7773
  828MOL0     C14161   6.866   9.722  -0.703  0.0779  0.0267 -0.6936
  828MOL0     O14162   6.779   9.792  -0.789  0.0178  0.5264  0.4839
  828MOL0     C14163   6.675   9.878  -0.724  0.1567  0.4995 -0.0102
  828MOL0     C14164   6.575   9.911  -0.825 -0.1201 -0.4715  0.8460
  828MOL0     C14165   6.485  10.028  -0.789  0.0832 -0.0335 -0.6688
  828MOL0     C14166   6.354  10.030  -0.872 -0.0023 -0.5045 -0.6169
  828MOL0     C14167   6.287  10.165  -0.841 -0.5343 -0.0625  0.4161
  828MOL0     C14168   6.136  10.179  -0.894  0.7991 -0.4854  0.1906
  828MOL0     C14169   6.030  10.092  -0.817 -0.8800 -0.1372  0.8914
  828MOL0     C14170   5.887  10.092  -0.872  0.0296 -0.5437  0.5652
  828MOL0    Cl14171   5.877  10.086  -1.049  0.2411 -0.2529  0.4704
  828MOL0     C14172   6.860   9.753  -0.564 -0.1251  0.2570  0.0535
  828MOL0     C14173   6.931   9.684  -0.464  0.5876  0.7841 -0.8123
  828MOL0     O14174   7.065   9.334  -0.491 -0.4220  0.5170  0.7222
  828MOL0     C14175   7.211   9.375  -0.175  1.0620 -0.6219  0.3066
  828MOL0     C14176   7.218   9.323  -0.043  0.8277 -0.0793  0.2865
  828MOL0     N14177   7.369   8.566   0.143  0.0081 -0.2545 -0.7620
  828MOL0     N14178   7.293   8.454   0.127  0.7929 -0.1910 -0.6570
  828MOL0     C14179   6.304   8.982   0.140  0.0844  0.1677 -0.6393
  828MOL0     C14180   6.321   9.104   0.196  0.4757  0.1273 -0.3332
  828MOL0     C14181   6.427   9.505   0.370  0.2835  0.7866 -0.8112
  828MOL0     C14182   6.532   9.516   0.461  0.7199 -0.0078 -0.0011
  828MOL0     C14183   6.574   9.636   0.504  0.3313 -0.3146  0.1909
  828MOL0     C14184   6.531   9.754   0.437 -0.4730  0.3537 -0.1238
  828MOL0     O14185   6.574   9.879   0.462 -0.2752  0.4136 -0.4353
  828MOL0     C14186   6.684   9.895   0.561 -0.1396 -0.3086 -0.2275
  828MOL0     C14187   6.719  10.046   0.582  0.6483 -1.2679 -1.0192
  828MOL0     C14188   6.855  10.078   0.507 -0.0223  0.1645  0.8016
  828MOL0     C14189   6.847  10.102   0.361 -0.6340 -0.8969  0.6955
  828MOL0     C14190   6.973  10.157   0.315 -0.1863  0.0021 -0.1069
  828MOL0     C14191   7.082  10.177   0.273 -0.2897 -0.9655  0.4928
  828MOL0     C14192   6.444   9.747   0.324  0.2652 -0.8285 -0.5208
  828MOL0     C14193   6.382   9.617   0.301  0.0246 -1.0368 -0.1879
  828MOL0     C14194   6.291   9.618   0.181 -0.4087  0.0655  0.0910
  828MOL0     H14195   6.650   9.123   0.213 -0.1605  0.4905  1.8225
  828MOL0     H14196   6.635   8.911   0.119 -0.9972 -2.0711 -0.1034
  828MOL0     H14197   6.589   8.694   0.097 -2.0967  2.5531  1.8164
  828MOL0     H14198   6.562   8.751  -0.075 -0.6168 -0.9344 -0.6549
  828MOL0     H14199   6.411   8.524   0.092 -3.1606 -1.1142 -1.9574
  828MOL0     H14200   6.379   8.562  -0.071 -1.4429 -2.8466  0.8008
  828MOL0     H14201   6.498   8.357  -0.080  0.9470 -1.0663  3.4953
  828MOL0     H14202   6.591   8.477  -0.154 -0.1527  2.5403  1.7779
  828MOL0     H14203   6.728   8.508   0.051 -2.7407  1.3102 -0.6334
  828MOL0     H14204   6.625   8.389   0.140  0.0451 -1.3093  0.2509
  828MOL0     H14205   6.787   8.322  -0.095 -1.2179  1.1383  0.3679
  828MOL0     H14206   6.672   8.219   0.006 -0.0832 -0.3889 -3.4795
  828MOL0     H14207   6.791   8.281   0.206 -4.9545 -1.1059 -2.6618
  828MOL0     H14208   6.893   8.171   0.114  0.8568 -0.5887  1.5471
  828MOL0     H14209   7.021   8.380   0.229 -1.5457  3.2605  0.5195
  828MOL0     H14210   6.908   8.475   0.144  1.4058 -0.2385  1.4944
  828MOL0     H14211   7.104   8.292   0.000 -1.1228 -0.9177  0.1661
  828MOL0     H14212   7.027   8.428  -0.070 -1.1904 -0.8398  0.1752
  828MOL0     H14213   7.141   8.648  -0.077 -0.0353  1.1536  0.2407
  828MOL0     H14214   7.388   8.825  -0.087 -1.5590  2.5354 -0.4704
  828MOL0     H14215   7.474   8.808   0.061 -2.1266  0.5882  2.8583
  828MOL0     H14216   7.182   8.896   0.056  1.6677 -0.3068 -1.2821
  828MOL0     H14217   7.268   8.866   0.197  1.2112  2.8249  1.2930
  828MOL0     H14218   7.435   9.038   0.139 -0.6015  0.7290 -0.1570
  828MOL0     H14219   7.352   9.072  -0.013  0.5515  4.6248  1.4904
  828MOL0     H14220   7.245   9.095   0.275  2.7764  0.3387 -0.3508
  828MOL0     H14221   7.299   9.229   0.191  0.1343  1.1223 -1.2939
  828MOL0     H14222   6.941   9.135  -0.058 -0.3436  1.9049  2.9574
  828MOL0     H14223   6.813   9.305  -0.261  5.6836  4.3956  2.7694
  828MOL0     H14224   6.836   9.123  -0.268 -1.8663 -0.0426 -0.4624
  828MOL0     H14225   6.886   9.215  -0.398  1.7367 -2.9384  0.4181
  828MOL0     H14226   7.127   9.505  -0.685 -1.3282 -1.0530 -0.9536
  828MOL0     H14227   6.987   9.632  -0.858  2.0153  0.6414 -0.5011
  828MOL0     H14228   6.622   9.822  -0.646  1.6127  0.6571  1.1486
  828MOL0     H14229   6.722   9.967  -0.681  2.6851 -0.1424 -1.2622
  828MOL0     H14230   6.640   9.941  -0.909 -0.1783 -2.5523 -0.0025
  828MOL0     H14231   6.519   9.822  -0.856 -1.7834  1.4353 -2.1399
  828MOL0     H14232   6.541  10.115  -0.824  0.2769  1.1158  2.2641
  828MOL0     H14233   6.459  10.024  -0.683 -1.5749  0.9108 -0.9971
  828MOL0     H14234   6.277   9.956  -0.847 -0.0084  0.1693  1.5425
  828MOL0     H14235   6.377  10.007  -0.977 -0.0529 -0.9902 -0.5262
  828MOL0     H14236   6.284  10.176  -0.732  1.0020 -0.9581  0.5759
  828MOL0     H14237   6.337  10.257  -0.874  0.2896 -0.1524  1.3770
  828MOL0     H14238   6.137  10.163  -1.002  1.1661  2.0415 -0.2399
  828MOL0     H14239   6.099  10.281  -0.880  0.7347 -0.5685  0.6309
  828MOL0     H14240   6.025  10.121  -0.711 -3.9489 -1.8636  1.3271
  828MOL0     H14241   6.062   9.988  -0.813 -5.5724 -1.9509 -1.5589
  828MOL0     H14242   5.836  10.180  -0.831 -2.1400 -2.3362  1.9586
  828MOL0     H14243   5.833  10.002  -0.842 -3.4438  0.5687 -1.6764
  828MOL0     H14244   6.802   9.835  -0.523 -0.3981  1.5713 -2.7616
  828MOL0     H14245   6.927   9.711  -0.359  1.4872  1.6128 -0.9798
  828MOL0     H14246   7.301   9.429  -0.205  2.1230 -2.9694 -1.0406
  828MOL0     H14247   7.305   9.351   0.015  1.9679 -0.6522 -1.0866
  828MOL0     H14248   6.201   8.949   0.141  0.1363 -0.2251  2.7710
  828MOL0     H14249   6.231   9.154   0.230 -0.0622 -2.4458  2.4742
  828MOL0     H14250   6.579   9.431   0.510  0.3492  0.9602  2.0946
  828MOL0     H14251   6.642   9.615   0.586  0.6780 -1.2018 -0.3136
  828MOL0     H14252   6.633   9.860   0.651  0.8668  0.4525  0.6679
  828MOL0     H14253   6.773   9.837   0.537  1.6554  2.4983 -0.8396
  828MOL0     H14254   6.735  10.066   0.688 -0.7027  0.2013 -1.0485
  828MOL0     H14255   6.637  10.108   0.545 -1.0819 -1.2010  2.5646
  828MOL0     H14256   6.903  10.163   0.557  1.5047 -1.8932  3.0628
  828MOL0     H14257   6.921   9.991   0.519 -1.2290 -0.8064  0.6050
  828MOL0     H14258   6.776  10.182   0.339  2.7285  1.5631 -2.3294
  828MOL0     H14259   6.824  10.007   0.311 -0.7741 -2.3265  3.2943
  828MOL0     H14260   7.178  10.200   0.232 -1.2437 -0.8305 -1.8698
  828MOL0     H14261   6.419   9.838   0.271 -1.8543 -0.9480  0.1896
  828MOL0     H14262   6.305   9.695   0.104 -0.9424 -2.0919 -2.3129
  828MOL0     H14263   6.301   9.522   0.129  3.9549  0.3841 -0.0064
  828MOL0     H14264   6.187   9.619   0.215 -1.2044 -4.1090 -1.4962
  829MOL0     O14265   8.814  11.498  10.430 -0.3652  0.6484 -0.5528
  829MOL0     C14266   8.790  11.614  10.412  0.2836 -0.8203  0.5524
  829MOL0     O14267   8.823  11.694  10.310 -0.8762  0.8822  0.0767
  829MOL0     C14268   8.910  11.644  10.219 -0.0102 -0.1775  0.5057
  829MOL0     C14269   8.876  11.655  10.081  0.4003 -1.2437  0.6049
  829MOL0     C14270   8.961  11.615   9.975 -0.0265 -0.4049 -0.2910
  829MOL0     C14271   9.076  11.549  10.010  0.6897  0.1986 -0.2150
  829MOL0     O14272   9.170  11.495   9.931  0.5212  0.2632  0.0142
  829MOL0     C14273   9.189  11.535   9.795  1.3414  0.2216  0.6436
  829MOL0     C14274   9.218  11.677   9.759  0.6398  0.1895  0.1753
  829MOL0     C14275   9.345  11.725   9.835 -0.2966 -0.6113  0.0462
  829MOL0     C14276   9.467  11.653   9.798 -0.1251 -0.5809  1.0960
  829MOL0     C14277   9.582  11.722   9.872 -0.2933 -0.9088 -0.2597
  829MOL0     C14278   9.718  11.647   9.867 -0.2266 -1.3092 -0.3764
  829MOL0     C14279   9.845  11.736   9.903  0.5263  0.5380  0.3282
  829MOL0     C14280   9.977  11.653   9.915 -0.6254  0.5473 -0.3716
  829MOL0     N14281  10.025  11.602   9.790 -0.4117 -0.0391  0.0169
  829MOL0     C14282   9.982  11.482   9.743  0.9148 -0.0731  0.0979
  829MOL0     C14283  10.047  11.473   9.622 -0.2725  0.2418  0.4628
  829MOL0     C14284  10.037  11.360   9.524 -0.0302  0.3283  0.6241
  829MOL0     C14285  10.132  11.242   9.560  0.6186 -0.4777 -0.2600
  829MOL0     C14286  10.152  11.150   9.446 -0.2872 -0.3628  0.3853
  829MOL0     C14287  10.251  11.036   9.485 -0.7890 -0.6387 -0.0390
  829MOL0     O14288  10.375  11.095   9.536  0.3445 -0.3553 -0.5150
  829MOL0     C14289  10.494  11.016   9.551  0.3326  0.7892 -0.0887
  829MOL0     C14290  10.510  10.881   9.518  0.3230  0.6168 -0.1207
  829MOL0     C14291  10.633  10.820   9.510 -0.7794 -0.7253 -0.0615
  829MOL0     C14292  10.626  10.674   9.484 -0.5500  0.9436  0.2476
  829MOL0     C14293  10.754  10.895   9.527  0.1566  0.0559  0.9557
  829MOL0     C14294  10.895  10.852   9.491  0.3192  0.2162  0.1006
  829MOL0     O14295  10.944  10.901   9.384 -0.0846  0.0095  0.4260
  829MOL0     C14296  11.063  10.838   9.350 -0.7325 -0.4658 -0.1183
  829MOL0     C14297  11.075  10.745   9.236 -0.3849  0.2866  0.1890
  829MOL0     C14298  11.187  10.678   9.207 -0.0432  0.2426  0.0554
  829MOL0     C14299  11.305  10.702   9.275 -0.4562  0.7066  0.2894
  829MOL0     O14300  11.406  10.613   9.259 -0.3145  0.0031 -0.1364
  829MOL0     C14301  11.534  10.673   9.259 -0.5695  0.1841 -0.1232
  829MOL0     C14302  11.629  10.572   9.206  0.4298 -0.0625  0.4944
  829MOL0     C14303  11.768  10.634   9.197  0.3302  0.3007 -0.0744
  829MOL0     C14304  11.878  10.533   9.163  0.3600 -0.4219 -0.0112
  829MOL0     C14305  12.020  10.585   9.206 -0.2772 -0.0261 -0.0828
  829MOL0     C14306  12.078  10.697   9.117  0.3494  0.1501 -0.1181
  829MOL0     C14307  12.060  10.693   8.965 -0.2706  0.1541 -0.6873
  829MOL0     C14308  12.133  10.572   8.904  0.3188 -0.5473 -0.5964
  829MOL0    Cl14309  12.103  10.567   8.723  0.0329  0.1892 -0.0672
  829MOL0     C14310  11.300  10.806   9.377 -0.0625 -0.5591 -0.8715
  829MOL0     C14311  11.184  10.877   9.413  0.4187  0.1910 -0.3761
  829MOL0     O14312  10.947  10.773   9.569 -0.3773 -0.9667 -0.2772
  829MOL0     C14313  10.738  11.031   9.567 -0.1507 -0.7930  0.8973
  829MOL0     C14314  10.607  11.092   9.581  0.0215 -0.1877 -0.5355
  829MOL0     N14315  10.117  11.591   9.596 -0.2372 -0.3640 -0.1664
  829MOL0     N14316  10.099  11.671   9.698  0.3107  0.9197  0.6068
  829MOL0     C14317   9.106  11.536  10.142 -0.1024  1.3720  0.0214
  829MOL0     C14318   9.031  11.568  10.243 -0.1421  0.2558  0.4370
  829MOL0     C14319   8.727  11.690  10.519 -0.5304 -0.4641 -0.3072
  829MOL0     C14320   8.711  11.824  10.504 -0.9904 -0.3156 -1.4328
  829MOL0     C14321   8.672  11.893  10.615  1.2766 -0.2084  0.8582
  829MOL0     C14322   8.623  11.845  10.732 -1.1468  0.4068 -0.5663
  829MOL0     O14323   8.573  11.937  10.831 -0.2263 -0.1647 -0.5712
  829MOL0     C14324   8.476  11.893  10.924  0.7796 -0.1305 -0.4544
  829MOL0     C14325   8.432  12.002  11.029 -0.5604  0.9159  0.6506
  829MOL0     C14326   8.332  12.099  10.971  0.7315 -0.4759 -0.8843
  829MOL0     C14327   8.310  12.223  11.064  0.3413  0.1937  0.3495
  829MOL0     C14328   8.200  12.294  11.010  0.9643 -0.3192  0.1322
  829MOL0     C14329   8.120  12.367  10.948 -0.3540 -0.4188  0.3403
  829MOL0     C14330   8.629  11.714  10.746  0.0894  0.4395  0.0670
  829MOL0     C14331   8.683  11.629  10.644 -0.1297  0.8671  0.6255
  829MOL0     C14332   8.688  11.487  10.694  1.2556  0.8787  0.7297
  829MOL0     H14333   8.778  11.688  10.049  0.3986 -0.3906  1.4516
  829MOL0     H14334   8.941  11.626   9.869 -0.4180  0.4497 -0.1368
  829MOL0     H14335   9.097  11.518   9.739 -0.6356  0.2990  3.6129
  829MOL0     H14336   9.272  11.480   9.750  0.2638  1.1427 -2.7522
  829MOL0     H14337   9.236  11.692   9.652 -1.2073 -1.0709 -0.3566
  829MOL0     H14338   9.127  11.730   9.789 -0.8002 -2.5002  0.9551
  829MOL0     H14339   9.368  11.828   9.808  2.4924 -1.1279  0.1859
  829MOL0     H14340   9.326  11.710   9.942 -0.9836 -4.0182 -0.4359
  829MOL0     H14341   9.465  11.550   9.836 -1.0166 -1.9867 -2.3512
  829MOL0     H14342   9.476  11.640   9.690  0.2181  0.6186  0.9709
  829MOL0     H14343   9.553  11.723   9.977  0.3745 -1.4774 -0.0600
  829MOL0     H14344   9.586  11.822   9.828 -2.7422 -0.4038  0.5311
  829MOL0     H14345   9.718  11.561   9.934 -1.4821  1.6508  3.8069
  829MOL0     H14346   9.728  11.619   9.761 -1.5496  0.4924 -1.0178
  829MOL0     H14347   9.826  11.783  10.000  0.1980  1.1385 -0.0241
  829MOL0     H14348   9.853  11.807   9.820 -0.5251 -1.2367 -1.3812
  829MOL0     H14349  10.053  11.716   9.964  2.8328 -2.0831 -1.9000
  829MOL0     H14350   9.967  11.562   9.975 -1.3905  0.3613 -0.7756
  829MOL0     H14351   9.932  11.398   9.788  0.8405 -2.7549 -4.4004
  829MOL0     H14352  10.067  11.392   9.423  0.0229 -0.3557  0.4201
  829MOL0     H14353   9.930  11.337   9.520  0.3165 -1.3299 -2.5534
  829MOL0     H14354  10.231  11.275   9.593  0.8013  0.7144 -1.8931
  829MOL0     H14355  10.082  11.190   9.643  0.5993 -0.3186 -0.1718
  829MOL0     H14356  10.060  11.102   9.410  0.7950 -1.3444 -1.1866
  829MOL0     H14357  10.194  11.203   9.360  0.9261 -3.0323 -0.7821
  829MOL0     H14358  10.203  10.974   9.560 -1.7184  3.1719  2.8471
  829MOL0     H14359  10.277  10.975   9.398  0.8340  0.9039 -0.7091
  829MOL0     H14360  10.421  10.825   9.492  0.1078  1.4695 -1.3438
  829MOL0     H14361  10.689  10.618   9.554 -0.1976  0.1055 -0.7216
  829MOL0     H14362  10.668  10.651   9.386  0.8573 -1.8440  1.3998
  829MOL0     H14363  10.528  10.629   9.500 -0.2929 -0.2801 -1.3490
  829MOL0     H14364  10.999  10.732   9.159  2.2198  1.0788 -2.7658
  829MOL0     H14365  11.186  10.605   9.126 -1.7748  1.5877 -1.2233
  829MOL0     H14366  11.541  10.766   9.202  1.1241 -0.3065 -0.7600
  829MOL0     H14367  11.562  10.681   9.364  0.0773 -4.8871  0.3478
  829MOL0     H14368  11.626  10.481   9.267 -2.0058 -1.6176 -1.7236
  829MOL0     H14369  11.593  10.539   9.108 -4.6558 -3.3505  3.0064
  829MOL0     H14370  11.790  10.674   9.297 -0.8702 -0.2238  0.4168
  829MOL0     H14371  11.763  10.705   9.114 -0.0957  0.6562  0.2528
  829MOL0     H14372  11.870  10.506   9.057 -0.4689  2.2671 -0.7098
  829MOL0     H14373  11.852  10.447   9.226 -1.1627 -0.4838 -0.6853
  829MOL0     H14374  11.997  10.625   9.306 -4.1943  2.5569 -1.7697
  829MOL0     H14375  12.104  10.515   9.216  0.1711  0.1231 -2.2210
  829MOL0     H14376  12.184  10.701   9.143 -0.3419  1.2866  2.9589
  829MOL0     H14377  12.032  10.795   9.136 -0.7709 -0.1615 -1.0525
  829MOL0     H14378  12.088  10.789   8.921 -1.7741  0.8926 -0.1126
  829MOL0     H14379  11.953  10.678   8.947 -0.2238 -2.0993  0.5867
  829MOL0     H14380  12.081  10.488   8.950  3.3206 -2.2841 -0.0927
  829MOL0     H14381  12.236  10.568   8.941 -0.0572  2.7358  1.2470
  829MOL0     H14382  11.393  10.836   9.423 -1.3035  0.2639  1.2185
  829MOL0     H14383  11.171  10.949   9.493 -4.6625 -1.7685  0.9810
  829MOL0     H14384  10.814  11.108   9.576  1.7348 -2.4949  0.1460
  829MOL0     H14385  10.594  11.198   9.600 -1.5371 -0.9635  3.7794
  829MOL0     H14386   9.189  11.469  10.155 -0.5216  0.5482 -1.4022
  829MOL0     H14387   9.068  11.537  10.340 -0.5802 -1.6649  0.0212
  829MOL0     H14388   8.723  11.871  10.407  0.5299 -0.1119 -1.1672
  829MOL0     H14389   8.690  11.999  10.630  3.3832 -0.4594  0.4150
  829MOL0     H14390   8.388  11.853  10.872 -0.6224 -0.9479  2.3713
  829MOL0     H14391   8.527  11.820  10.987  2.9877  0.9726 -0.8791
  829MOL0     H14392   8.517  12.056  11.072  0.8650  0.0750 -1.0088
  829MOL0     H14393   8.388  11.944  11.111  0.1464  0.3839  0.6617
  829MOL0     H14394   8.367  12.144  10.877  0.4110 -0.2877 -0.9168
  829MOL0     H14395   8.234  12.056  10.948  0.0054  1.2809 -1.2616
  829MOL0     H14396   8.397  12.290  11.070 -0.4776  1.2829  0.2765
  829MOL0     H14397   8.294  12.203  11.171  3.0746  0.8498  0.9683
  829MOL0     H14398   8.065  12.443  10.896 -0.3485 -0.3275  0.4673
  829MOL0     H14399   8.592  11.662  10.833 -0.2705  1.3147  0.4529
  829MOL0     H14400   8.779  11.435  10.663  0.9304  0.3604  0.6330
  829MOL0     H14401   8.676  11.472  10.802 -2.9017 -0.7153  0.2694
  829MOL0     H14402   8.600  11.435  10.654 -0.2424 -0.6038  5.2980
  830MOL0     O14403   0.319   0.750   3.247 -0.2674  0.9815  0.2600
  830MOL0     C14404   0.434   0.764   3.293  0.3244  0.1442 -0.3466
  830MOL0     O14405   0.492   0.888   3.304  0.3263 -0.1913  0.2259
  830MOL0     C14406   0.428   1.006   3.279 -0.1745  0.1907  0.3663
  830MOL0     C14407   0.300   1.027   3.330 -0.0265  0.4759  0.4280
  830MOL0     C14408   0.223   1.131   3.288 -0.2513  0.3766  0.1330
  830MOL0     C14409   0.295   1.235   3.219 -0.0365 -0.0490 -0.7936
  830MOL0     O14410   0.240   1.349   3.175 -0.2755  0.4997 -0.4143
  830MOL0     C14411   0.101   1.384   3.188 -0.7542 -0.1264 -0.5065
  830MOL0     C14412   0.092   1.527   3.121  0.3811  1.0045  0.5891
  830MOL0     C14413   0.164   1.636   3.206  0.6170  0.6627 -0.3521
  830MOL0     C14414   0.084   1.677   3.328  0.5693 -0.7138  0.9291
  830MOL0     C14415   0.153   1.791   3.395 -0.4390 -0.3861 -0.7079
  830MOL0     C14416   0.056   1.848   3.496  0.6825  0.2666  0.2260
  830MOL0     C14417   0.120   1.964   3.582  0.0805  0.2200  0.5804
  830MOL0     C14418   0.147   2.088   3.486 -0.0164  0.2907 -0.1538
  830MOL0     N14419   0.051   2.103   3.377  0.2949 -0.3289  0.3297
  830MOL0     C14420  -0.087   2.127   3.391 -0.8373  0.9319 -0.4325
  830MOL0     C14421  -0.132   2.157   3.261  0.0588 -0.0188  0.5646
  830MOL0     C14422  -0.272   2.172   3.206  0.0801 -0.9310  0.1504
  830MOL0     C14423  -0.288   2.315   3.188 -0.3963 -0.1149  0.0096
  830MOL0     C14424  -0.433   2.356   3.146 -0.0234  0.4412 -0.4044
  830MOL0     C14425  -0.467   2.313   3.000 -0.8823  0.2611 -0.4155
  830MOL0     O14426  -0.604   2.340   2.979 -0.4970  0.2314 -0.4219
  830MOL0     C14427  -0.626   2.435   2.879 -0.1754  0.6946  0.6172
  830MOL0     C14428  -0.678   2.402   2.755 -0.2590 -0.4010  0.1594
  830MOL0     C14429  -0.708   2.503   2.666 -0.0276 -0.6827 -0.1922
  830MOL0     C14430  -0.785   2.475   2.535  0.0768  0.0852  0.2691
  830MOL0     C14431  -0.677   2.637   2.694 -0.3579  0.3014  0.6695
  830MOL0     C14432  -0.701   2.744   2.594  0.4017  0.0057 -0.9613
  830MOL0     O14433  -0.668   2.719   2.461  0.7964  0.4138 -0.2172
  830MOL0     C14434  -0.725   2.801   2.368 -0.5323  0.1796 -1.1706
  830MOL0     C14435  -0.638   2.824   2.259  0.5153  0.1959 -0.5422
  830MOL0     C14436  -0.692   2.878   2.143  0.3551  0.1128  0.3850
  830MOL0     C14437  -0.829   2.907   2.125 -0.1084 -0.3436 -0.3451
  830MOL0     O14438  -0.873   2.987   2.023  0.1951  0.4691  0.1630
  830MOL0     C14439  -0.990   2.927   1.964  0.1207 -0.4742  0.2270
  830MOL0     C14440  -0.998   2.961   1.815  0.3211  0.8485 -0.2188
  830MOL0     C14441  -0.879   2.933   1.724 -0.2814 -0.6958 -0.1752
  830MOL0     C14442  -0.859   2.793   1.659  0.4129 -0.1346 -0.0320
  830MOL0     C14443  -0.814   2.688   1.755 -0.2404 -0.5796 -0.3220
  830MOL0     C14444  -0.662   2.665   1.754 -1.4864 -0.0250 -0.0569
  830MOL0     C14445  -0.618   2.555   1.846  0.4759  0.8666 -0.4633
  830MOL0     C14446  -0.469   2.522   1.835  0.7731 -0.1055  0.3383
  830MOL0    Cl14447  -0.402   2.475   1.682  0.2629  0.2820  0.1162
  830MOL0     C14448  -0.902   2.891   2.236 -0.3836  1.1472  0.2165
  830MOL0     C14449  -0.858   2.831   2.362 -1.1994  0.4095  0.9655
  830MOL0     O14450  -0.750   2.850   2.641 -1.0141  0.3816  0.7497
  830MOL0     C14451  -0.617   2.664   2.813 -0.3265 -0.0797  0.1398
  830MOL0     C14452  -0.601   2.570   2.908 -0.0991 -0.3812  0.8928
  830MOL0     N14453  -0.019   2.165   3.179  0.7253 -0.8604  0.6388
  830MOL0     N14454   0.086   2.139   3.247  0.3174  0.7167  0.2701
  830MOL0     C14455   0.439   1.229   3.192 -0.7688 -0.6459  0.4547
  830MOL0     C14456   0.506   1.112   3.224 -0.0383  0.4579  0.6658
  830MOL0     C14457   0.519   0.650   3.322 -0.1081  0.4119 -0.2012
  830MOL0     C14458   0.657   0.659   3.289  0.3476 -0.2544 -0.3776
  830MOL0     C14459   0.735   0.541   3.295 -0.2768  0.0644 -0.2950
  830MOL0     C14460   0.689   0.414   3.322 -0.0182  0.2379 -0.3584
  830MOL0     O14461   0.767   0.295   3.317 -0.2610 -0.0590  0.0410
  830MOL0     C14462   0.905   0.293   3.296 -0.2526 -0.2828 -0.0976
  830MOL0     C14463   0.945   0.321   3.142  0.1289  0.1060 -0.3631
  830MOL0     C14464   1.066   0.224   3.105  0.1370  0.1411  0.5141
  830MOL0     C14465   1.094   0.198   2.959  0.5056  0.3862  0.1405
  830MOL0     C14466   1.140   0.326   2.907  0.4973  0.4998  1.0140
  830MOL0     C14467   1.183   0.431   2.872  0.0138 -1.0075  0.4718
  830MOL0     C14468   0.548   0.407   3.363 -0.0063 -0.0784  0.7945
  830MOL0     C14469   0.466   0.520   3.361  0.5128 -0.8671  1.4493
  830MOL0     C14470   0.324   0.504   3.408 -0.0351 -0.5461  0.5298
  830MOL0     H14471   0.252   0.949   3.388  1.6187  0.5824  1.9987
  830MOL0     H14472   0.117   1.132   3.310  0.2570  1.6750  2.9144
  830MOL0     H14473   0.076   1.396   3.294  1.6773 -0.0499  0.1007
  830MOL0     H14474   0.054   1.305   3.129 -1.7056  1.4940 -2.0159
  830MOL0     H14475   0.148   1.531   3.027 -1.2173 -0.8363 -0.5074
  830MOL0     H14476  -0.013   1.557   3.116  0.7600  2.5765  1.2867
  830MOL0     H14477   0.260   1.590   3.233  0.4052 -0.4934 -1.4723
  830MOL0     H14478   0.171   1.720   3.135  1.6960  0.8773 -0.0094
  830MOL0     H14479  -0.022   1.695   3.306  0.2934  1.1553  3.3051
  830MOL0     H14480   0.080   1.592   3.397 -1.0397 -2.1402 -0.8288
  830MOL0     H14481   0.177   1.873   3.327  0.0288  2.2074  2.3633
  830MOL0     H14482   0.249   1.768   3.440 -0.4615 -0.2136 -0.5729
  830MOL0     H14483  -0.036   1.886   3.450  1.7631  0.3896 -1.9665
  830MOL0     H14484   0.024   1.772   3.568  2.0580 -1.2594 -0.7307
  830MOL0     H14485   0.219   1.927   3.611  2.0699  2.3719 -2.7484
  830MOL0     H14486   0.049   1.983   3.663 -1.7887  0.7996 -1.1050
  830MOL0     H14487   0.134   2.181   3.543  2.1148  1.9064 -2.1616
  830MOL0     H14488   0.250   2.087   3.449  0.5386 -3.2053  1.1073
  830MOL0     H14489  -0.155   2.109   3.473  0.2444  2.7671  0.9547
  830MOL0     H14490  -0.350   2.140   3.277 -1.6663  2.0162 -0.2787
  830MOL0     H14491  -0.285   2.126   3.108  0.9974 -1.8109  0.4226
  830MOL0     H14492  -0.270   2.369   3.281  1.1740  1.1274 -0.9439
  830MOL0     H14493  -0.226   2.354   3.106 -1.1380  0.9157 -0.0754
  830MOL0     H14494  -0.491   2.300   3.219  0.3522  0.7394  0.1245
  830MOL0     H14495  -0.441   2.465   3.154 -0.7649  0.6093 -2.6433
  830MOL0     H14496  -0.400   2.364   2.930 -2.1199  2.3306 -0.1909
  830MOL0     H14497  -0.457   2.205   2.994  3.8857  0.3470  1.6547
  830MOL0     H14498  -0.710   2.301   2.733  0.3022 -0.0259 -2.8867
  830MOL0     H14499  -0.715   2.435   2.462  0.1600  2.3411 -0.9812
  830MOL0     H14500  -0.837   2.555   2.481  1.6231  2.0019  1.5029
  830MOL0     H14501  -0.865   2.403   2.554  1.0123 -1.3720 -1.1366
  830MOL0     H14502  -0.531   2.810   2.277  1.1107 -0.3991 -3.8366
  830MOL0     H14503  -0.637   2.905   2.053 -1.0822  0.2326 -0.4876
  830MOL0     H14504  -1.000   2.818   1.977 -1.2454 -0.1128  3.0176
  830MOL0     H14505  -1.078   2.978   2.003 -1.1539 -2.2559 -0.2288
  830MOL0     H14506  -1.075   2.898   1.768  1.2715  0.3616 -1.2043
  830MOL0     H14507  -1.031   3.065   1.809 -2.3791  0.0235 -1.6542
  830MOL0     H14508  -0.785   2.958   1.774 -1.2189  1.0907  0.8289
  830MOL0     H14509  -0.884   3.002   1.639 -2.3335 -0.4560  0.0884
  830MOL0     H14510  -0.798   2.801   1.570  0.3055 -0.7330 -0.1585
  830MOL0     H14511  -0.959   2.764   1.624 -0.5099  0.8567  1.6127
  830MOL0     H14512  -0.837   2.721   1.857 -1.0798  1.7759 -1.2043
  830MOL0     H14513  -0.859   2.590   1.738  1.6370 -1.9204  1.9618
  830MOL0     H14514  -0.609   2.752   1.796 -1.0520 -0.5491  0.4947
  830MOL0     H14515  -0.630   2.646   1.651 -1.5689  1.9377 -0.4893
  830MOL0     H14516  -0.685   2.470   1.828  1.7722 -0.2363 -0.2330
  830MOL0     H14517  -0.637   2.589   1.949  1.9844 -2.2072  0.9529
  830MOL0     H14518  -0.451   2.440   1.906  0.7654 -1.5233 -1.2307
  830MOL0     H14519  -0.417   2.613   1.866 -0.1376  0.7995 -0.7431
  830MOL0     H14520  -1.005   2.927   2.230 -0.8906 -0.4896 -3.1423
  830MOL0     H14521  -0.936   2.823   2.437 -2.1673  0.8865  0.0390
  830MOL0     H14522  -0.578   2.764   2.831  0.7247 -0.1786 -1.4591
  830MOL0     H14523  -0.561   2.599   3.005 -0.7399  3.4174  0.1857
  830MOL0     H14524   0.495   1.310   3.149  0.2359  1.1036  4.5989
  830MOL0     H14525   0.612   1.105   3.203 -0.0860  0.5041  0.4038
  830MOL0     H14526   0.712   0.749   3.261 -0.9159  0.1524 -1.6696
  830MOL0     H14527   0.837   0.567   3.270  0.2290 -0.0262  1.5821
  830MOL0     H14528   0.951   0.369   3.360  0.4209 -1.6226  1.0736
  830MOL0     H14529   0.938   0.195   3.333 -1.1822 -0.9954 -1.0680
  830MOL0     H14530   0.974   0.422   3.114  1.1461  0.6315  2.2692
  830MOL0     H14531   0.855   0.297   3.085 -0.9670 -0.4160  1.4828
  830MOL0     H14532   1.150   0.274   3.154 -1.0171  0.8554  1.8286
  830MOL0     H14533   1.046   0.125   3.148 -1.8026  0.6504  0.9100
  830MOL0     H14534   0.999   0.169   2.912  1.2752 -3.7460  0.7540
  830MOL0     H14535   1.170   0.121   2.939  2.5744  2.7065 -1.4832
  830MOL0     H14536   1.218   0.528   2.842 -0.8687 -1.0998 -0.9393
  830MOL0     H14537   0.501   0.311   3.377 -0.8888  0.4344  1.4344
  830MOL0     H14538   0.259   0.493   3.321  2.6859 -2.6683 -1.3921
  830MOL0     H14539   0.310   0.419   3.477  2.5511 -1.5048 -0.0252
  830MOL0     H14540   0.290   0.586   3.472  0.3847  0.4672 -0.5192
  831MOL0     O14541   3.102   3.383   4.047 -0.0299 -0.3109 -0.0035
  831MOL0     C14542   3.170   3.295   3.991 -0.4266 -0.5786  0.3237
  831MOL0     O14543   3.289   3.249   4.033 -0.3636  0.0851 -0.8406
  831MOL0     C14544   3.362   3.332   4.119 -0.1137 -0.5417 -0.8236
  831MOL0     C14545   3.379   3.465   4.083 -0.6102 -0.0760 -1.2032
  831MOL0     C14546   3.457   3.552   4.163 -0.6062  0.1645  0.1178
  831MOL0     C14547   3.519   3.503   4.278  0.1480 -0.4831 -0.4565
  831MOL0     O14548   3.604   3.591   4.352 -0.2178 -0.0629  0.2488
  831MOL0     C14549   3.633   3.728   4.301 -0.6119  0.4130 -0.4765
  831MOL0     C14550   3.746   3.788   4.393  0.2077 -0.2984  0.4028
  831MOL0     C14551   3.706   3.792   4.536 -0.7692 -0.7232 -0.5222
  831MOL0     C14552   3.822   3.828   4.630  0.2517  0.6012  0.5327
  831MOL0     C14553   3.796   3.869   4.775  0.4247 -0.1262  0.5896
  831MOL0     C14554   3.696   3.765   4.823  0.4599  0.4677 -0.1828
  831MOL0     C14555   3.679   3.767   4.979  0.5753  0.1235 -1.0215
  831MOL0     C14556   3.576   3.873   5.026 -0.3745 -0.1655 -0.2105
  831MOL0     N14557   3.446   3.865   4.957 -0.2407  0.3750 -1.1317
  831MOL0     C14558   3.390   3.962   4.876 -0.7533  0.7054 -0.2005
  831MOL0     C14559   3.275   3.907   4.828 -1.2454  0.2261 -0.8713
  831MOL0     C14560   3.151   3.972   4.772 -0.0071 -0.1701  0.5106
  831MOL0     C14561   3.202   4.086   4.681  0.8884 -1.1969  0.7182
  831MOL0     C14562   3.185   4.049   4.542  0.1958  0.0085 -0.2942
  831MOL0     C14563   3.285   3.938   4.492  0.1119 -0.7791 -0.3768
  831MOL0     O14564   3.229   3.838   4.411  0.0576  0.5573  0.2698
  831MOL0     C14565   3.232   3.708   4.451 -0.5334  0.1477  0.7943
  831MOL0     C14566   3.306   3.656   4.561  0.6863  0.3852  0.4480
  831MOL0     C14567   3.305   3.522   4.595  0.7515  0.5353 -0.1608
  831MOL0     C14568   3.367   3.485   4.717 -0.3977  0.9270  0.4638
  831MOL0     C14569   3.226   3.431   4.509  0.4910 -0.2054  0.2754
  831MOL0     C14570   3.234   3.277   4.526  0.1366 -0.1862  1.1640
  831MOL0     O14571   3.328   3.226   4.599  0.5795  0.0833 -0.2526
  831MOL0     C14572   3.344   3.095   4.620 -0.5158  1.4940  0.3296
  831MOL0     C14573   3.239   3.003   4.650 -0.0908  0.3771  0.7681
  831MOL0     C14574   3.266   2.862   4.641  0.2570  0.1960  0.5880
  831MOL0     C14575   3.409   2.830   4.626  1.2396  0.5123 -0.2872
  831MOL0     O14576   3.473   2.705   4.620 -0.3703 -0.3261 -0.1901
  831MOL0     C14577   3.409   2.577   4.593 -0.9168 -0.0322  0.9278
  831MOL0     C14578   3.423   2.536   4.440 -0.5462  0.4004 -0.5881
  831MOL0     C14579   3.565   2.515   4.391  0.0334 -0.3329 -0.4576
  831MOL0     C14580   3.601   2.363   4.381 -0.4370 -0.1255  0.5793
  831MOL0     C14581   3.740   2.364   4.331 -0.0856 -0.3696  0.5637
  831MOL0     C14582   3.791   2.221   4.305 -0.2068 -0.2106 -0.0929
  831MOL0     C14583   3.940   2.196   4.282 -0.3235  0.2650 -0.1908
  831MOL0     C14584   3.997   2.312   4.182 -0.8891  0.1170  0.2722
  831MOL0    Cl14585   4.173   2.288   4.133  0.3914 -0.3095  0.0105
  831MOL0     C14586   3.508   2.925   4.609 -1.0433 -0.4090 -0.1606
  831MOL0     C14587   3.466   3.056   4.592 -0.4516 -0.2618  0.8822
  831MOL0     O14588   3.156   3.215   4.455  0.3885  0.1615  0.8927
  831MOL0     C14589   3.148   3.491   4.403  1.1451 -0.0820  1.1299
  831MOL0     C14590   3.163   3.622   4.371  0.6027  0.1823  0.2296
  831MOL0     N14591   3.262   3.788   4.878 -0.5571 -0.0582  0.1257
  831MOL0     N14592   3.357   3.759   4.956  0.3076 -0.5437 -0.0486
  831MOL0     C14593   3.506   3.366   4.320 -0.9684 -0.5197 -0.0797
  831MOL0     C14594   3.425   3.282   4.235  0.5359  0.2412  0.3242
  831MOL0     C14595   3.129   3.220   3.882  0.1604  0.3303 -0.3168
  831MOL0     C14596   3.220   3.187   3.777 -0.6443  2.0577 -0.5917
  831MOL0     C14597   3.191   3.104   3.674  0.1105 -0.3303  0.8447
  831MOL0     C14598   3.052   3.069   3.653  0.4392 -0.3306 -1.2968
  831MOL0     O14599   3.018   2.987   3.550 -0.6333 -0.3695 -0.9281
  831MOL0     C14600   3.116   2.912   3.474  0.5810 -0.4066  0.5651
  831MOL0     C14601   3.047   2.796   3.402  0.5249 -0.4361  0.5162
  831MOL0     C14602   2.991   2.705   3.508 -0.1281  0.1428 -0.3969
  831MOL0     C14603   2.925   2.584   3.441  0.9952  0.4317 -0.3323
  831MOL0     C14604   3.017   2.478   3.383  0.4646  0.3764 -0.2843
  831MOL0     C14605   3.113   2.405   3.357  0.4898  0.0820  0.1504
  831MOL0     C14606   2.963   3.098   3.752  0.1729 -0.2431 -0.3437
  831MOL0     C14607   2.992   3.179   3.865  0.0441 -0.3633 -0.3855
  831MOL0     C14608   2.881   3.215   3.965 -0.7107  0.1266  0.9167
  831MOL0     H14609   3.322   3.511   4.003  1.8891  0.6098 -2.7045
  831MOL0     H14610   3.468   3.656   4.135 -1.3516 -0.4315 -2.6308
  831MOL0     H14611   3.540   3.787   4.299 -0.7285  0.2100 -1.2764
  831MOL0     H14612   3.665   3.725   4.196 -1.4823  2.1090 -0.8280
  831MOL0     H14613   3.838   3.731   4.379  1.4715  1.5829  0.7727
  831MOL0     H14614   3.780   3.889   4.368  0.4317 -0.8348 -1.6582
  831MOL0     H14615   3.631   3.872   4.537  0.3065  0.3704 -2.0063
  831MOL0     H14616   3.659   3.699   4.570 -3.3770  0.6739 -0.0216
  831MOL0     H14617   3.875   3.733   4.639 -1.6402 -0.4974  0.5942
  831MOL0     H14618   3.872   3.910   4.576  1.0059 -1.0168 -1.3578
  831MOL0     H14619   3.743   3.964   4.782  1.3281  0.2547  2.7886
  831MOL0     H14620   3.890   3.867   4.831  0.9978  0.8962 -0.2777
  831MOL0     H14621   3.600   3.787   4.775  0.8521 -1.1750 -1.8139
  831MOL0     H14622   3.724   3.664   4.793 -3.2969 -1.0277  0.7086
  831MOL0     H14623   3.777   3.776   5.025  1.8562  2.2216 -3.8128
  831MOL0     H14624   3.637   3.670   5.007  2.1418 -0.1327  0.5712
  831MOL0     H14625   3.560   3.858   5.133 -0.7404 -0.0636 -0.2511
  831MOL0     H14626   3.613   3.976   5.020 -2.7606  0.7902  0.4855
  831MOL0     H14627   3.426   4.064   4.877 -3.1494  1.6649  2.4669
  831MOL0     H14628   3.090   4.025   4.846 -0.6425 -0.1321 -0.0308
  831MOL0     H14629   3.087   3.896   4.727  0.6985 -1.7152  1.9605
  831MOL0     H14630   3.135   4.171   4.693 -0.9792 -2.1162 -2.1781
  831MOL0     H14631   3.299   4.134   4.696 -0.6400  2.0487  1.1579
  831MOL0     H14632   3.083   4.014   4.521  0.5023 -0.9906 -0.1730
  831MOL0     H14633   3.202   4.141   4.485 -1.5458  0.7501  0.3116
  831MOL0     H14634   3.354   3.983   4.419  0.7065 -2.8679 -1.1676
  831MOL0     H14635   3.342   3.899   4.576 -0.9677 -0.9764  0.2780
  831MOL0     H14636   3.366   3.719   4.626 -2.1504  1.0825  2.6002
  831MOL0     H14637   3.301   3.405   4.753  2.1830 -0.7225  1.8341
  831MOL0     H14638   3.371   3.569   4.786  0.7464 -0.2848  1.9302
  831MOL0     H14639   3.461   3.430   4.710 -0.9972 -0.4760  2.4405
  831MOL0     H14640   3.140   3.040   4.672 -0.8391 -1.2291  0.2686
  831MOL0     H14641   3.184   2.793   4.657 -2.1184  2.7565  0.2607
  831MOL0     H14642   3.466   2.500   4.645 -2.1543 -1.2310  0.5587
  831MOL0     H14643   3.306   2.571   4.630 -1.3454  2.4404  0.3600
  831MOL0     H14644   3.352   2.459   4.406  0.7521 -1.3752  0.5393
  831MOL0     H14645   3.385   2.626   4.391 -0.9354  0.3954 -0.2993
  831MOL0     H14646   3.631   2.559   4.466  1.3919 -1.7920 -0.7464
  831MOL0     H14647   3.570   2.561   4.291 -0.6817  0.6256 -0.0662
  831MOL0     H14648   3.542   2.304   4.310  0.7007 -0.4240 -0.1391
  831MOL0     H14649   3.595   2.318   4.481  1.3374  0.8678  1.1775
  831MOL0     H14650   3.756   2.427   4.243  0.8061 -1.5977 -0.1824
  831MOL0     H14651   3.813   2.397   4.406  0.2421  0.6718 -0.2019
  831MOL0     H14652   3.732   2.175   4.225  0.0005  1.5172 -1.2740
  831MOL0     H14653   3.752   2.160   4.387  2.6892 -3.9112 -1.1709
  831MOL0     H14654   3.967   2.104   4.229 -3.2702 -0.3741 -0.7618
  831MOL0     H14655   4.006   2.180   4.368 -0.6882  0.2232  0.0868
  831MOL0     H14656   3.994   2.410   4.231 -4.8559 -0.1825  0.9768
  831MOL0     H14657   3.942   2.326   4.088  0.3075  0.8827 -0.3356
  831MOL0     H14658   3.613   2.902   4.594 -0.4126  2.0365  0.1314
  831MOL0     H14659   3.530   3.136   4.557 -2.7268  0.4156 -2.1671
  831MOL0     H14660   3.076   3.431   4.348 -0.8998  4.9168 -2.3836
  831MOL0     H14661   3.111   3.653   4.281  1.7873  2.3526  0.2393
  831MOL0     H14662   3.558   3.337   4.410 -3.0820  1.6747  2.0053
  831MOL0     H14663   3.420   3.180   4.272  4.7688 -0.6341 -0.9681
  831MOL0     H14664   3.322   3.223   3.790  2.2121 -4.1855 -1.9746
  831MOL0     H14665   3.265   3.071   3.603 -1.6677 -1.0688 -0.7449
  831MOL0     H14666   3.149   2.982   3.397  2.7890 -0.9651  0.9260
  831MOL0     H14667   3.203   2.875   3.529 -0.0795 -3.2382 -0.1462
  831MOL0     H14668   3.131   2.757   3.343  0.1696 -0.9334  0.3354
  831MOL0     H14669   2.962   2.819   3.337  2.1753 -1.7471 -2.3074
  831MOL0     H14670   3.067   2.666   3.576  0.1129  0.7247 -0.3277
  831MOL0     H14671   2.915   2.751   3.572  0.0844 -1.5994  1.1686
  831MOL0     H14672   2.854   2.616   3.364 -0.4285  2.5249  1.7275
  831MOL0     H14673   2.869   2.540   3.524  0.0277  0.9755 -0.6796
  831MOL0     H14674   3.187   2.340   3.316  1.2080  0.7960  0.2987
  831MOL0     H14675   2.861   3.063   3.739 -1.1044  2.4152  1.4519
  831MOL0     H14676   2.827   3.308   3.945 -4.6049 -2.5286 -2.8374
  831MOL0     H14677   2.808   3.134   3.957 -1.0576  0.5858 -1.2682
  831MOL0     H14678   2.929   3.219   4.063  0.9407  1.5177  0.0858
  832MOL0     O14679   3.139  10.967   3.080 -0.2587 -0.5683 -0.0471
  832MOL0     C14680   3.217  10.904   3.158  1.1476 -0.8141 -0.1184
  832MOL0     O14681   3.239  10.934   3.283  0.2309 -1.1175 -0.1355
  832MOL0     C14682   3.182  11.046   3.338 -0.1401 -0.4215 -0.1681
  832MOL0     C14683   3.064  11.103   3.311 -0.0786  0.2141  0.1615
  832MOL0     C14684   3.021  11.216   3.381 -0.0067 -0.1949  0.6876
  832MOL0     C14685   3.101  11.274   3.473 -0.3586  0.6452  0.4153
  832MOL0     O14686   3.053  11.383   3.541  0.0777  0.4676  0.2026
  832MOL0     C14687   3.039  11.377   3.680  0.1315  1.2596  0.4247
  832MOL0     C14688   2.912  11.292   3.712  0.1701 -0.1805  0.3964
  832MOL0     C14689   2.916  11.264   3.866 -0.2325 -0.3026 -0.1110
  832MOL0     C14690   2.774  11.269   3.930  0.3477 -0.3043  0.0228
  832MOL0     C14691   2.772  11.180   4.048 -0.5214  0.4704  0.6102
  832MOL0     C14692   2.674  11.229   4.154  0.1483  0.4403  0.8220
  832MOL0     C14693   2.668  11.123   4.277 -0.7578  0.3897  0.8030
  832MOL0     C14694   2.549  11.030   4.255 -0.2469 -0.1743 -0.4788
  832MOL0     N14695   2.561  10.918   4.346 -0.6293  0.1535 -0.0436
  832MOL0     C14696   2.639  10.803   4.314 -0.1364 -0.5843  0.1898
  832MOL0     C14697   2.594  10.707   4.401  0.5146  0.6748  0.4984
  832MOL0     C14698   2.640  10.560   4.423 -0.3385 -0.4651 -0.6384
  832MOL0     C14699   2.551  10.452   4.361  0.2270  0.6785  0.2831
  832MOL0     C14700   2.544  10.465   4.205 -0.0701  0.3795  0.4474
  832MOL0     C14701   2.467  10.351   4.141 -0.2010  0.2626  1.0867
  832MOL0     O14702   2.324  10.355   4.161 -0.4485 -0.0336 -0.3442
  832MOL0     C14703   2.258  10.239   4.150 -0.4715 -0.5815  0.0734
  832MOL0     C14704   2.177  10.192   4.251  0.4808 -1.3233  0.5398
  832MOL0     C14705   2.097  10.076   4.234 -1.1190 -1.0334 -0.3150
  832MOL0     C14706   2.027  10.041   4.363  0.3544  0.3819  0.1226
  832MOL0     C14707   2.092  10.006   4.117 -0.2356  0.1135 -0.6057
  832MOL0     C14708   1.998   9.890   4.086 -0.2404 -0.2897  0.3120
  832MOL0     O14709   1.995   9.845   3.955  0.5082  0.5281  0.1477
  832MOL0     C14710   1.884   9.765   3.921  0.2109  0.7610  0.5693
  832MOL0     C14711   1.909   9.669   3.828  0.1098 -0.3748  1.1808
  832MOL0     C14712   1.811   9.591   3.766 -0.6278 -0.4013 -0.3942
  832MOL0     C14713   1.682   9.610   3.813 -0.0846  0.6317  0.0965
  832MOL0     O14714   1.581   9.549   3.757 -0.4365 -0.0755  0.3897
  832MOL0     C14715   1.568   9.410   3.788  0.4899  0.4855  0.3010
  832MOL0     C14716   1.415   9.375   3.762 -0.7609  1.0006 -0.2274
  832MOL0     C14717   1.377   9.410   3.618  0.1444 -0.0372 -0.0044
  832MOL0     C14718   1.232   9.355   3.594  0.4459  0.0216  0.0487
  832MOL0     C14719   1.114   9.462   3.603  0.7014  0.1715  0.8113
  832MOL0     C14720   1.093   9.515   3.746 -0.0037 -0.4402  0.6957
  832MOL0     C14721   1.055   9.406   3.851 -0.2139 -0.3320 -0.1216
  832MOL0     C14722   1.068   9.438   3.997  0.8868 -0.1701 -0.7857
  832MOL0    Cl14723   0.983   9.587   4.040 -0.1679 -0.6200 -0.2785
  832MOL0     C14724   1.649   9.694   3.918 -0.1353  0.8067  0.5999
  832MOL0     C14725   1.752   9.773   3.973 -0.1957 -0.2821 -0.8498
  832MOL0     O14726   1.924   9.854   4.179  0.2123  0.4716 -0.6402
  832MOL0     C14727   2.188  10.049   4.020  0.4543  0.7442  0.3458
  832MOL0     C14728   2.270  10.164   4.034 -0.1543  0.2698 -0.3618
  832MOL0     N14729   2.492  10.770   4.471 -0.5401  0.8174  0.8409
  832MOL0     N14730   2.468  10.892   4.436 -0.0342 -0.4200  0.1185
  832MOL0     C14731   3.221  11.218   3.513 -0.9062 -0.7794  0.0863
  832MOL0     C14732   3.263  11.103   3.443 -0.1528 -0.5640  0.1163
  832MOL0     C14733   3.301  10.799   3.090  0.4187 -0.0509 -0.3939
  832MOL0     C14734   3.266  10.772   2.956 -0.1845  0.9107 -0.0858
  832MOL0     C14735   3.344  10.689   2.877 -0.6517 -0.5879 -0.6246
  832MOL0     C14736   3.437  10.604   2.931 -1.1702  0.1173  0.1972
  832MOL0     O14737   3.504  10.509   2.860  0.3267 -0.1197  0.2779
  832MOL0     C14738   3.587  10.555   2.748 -0.4525  0.5888  0.0402
  832MOL0     C14739   3.531  10.472   2.630  0.4361 -0.6461 -0.5789
  832MOL0     C14740   3.570  10.320   2.632  0.4122  0.1411 -0.5812
  832MOL0     C14741   3.543  10.251   2.501 -0.0009 -1.3035 -0.0843
  832MOL0     C14742   3.661  10.274   2.418  0.2430  0.2079 -0.0522
  832MOL0     C14743   3.770  10.277   2.373  0.0728  0.7487 -0.0886
  832MOL0     C14744   3.463  10.606   3.069  0.0250  0.1847 -0.4050
  832MOL0     C14745   3.403  10.705   3.152 -0.1432  0.4899 -0.7605
  832MOL0     C14746   3.446  10.713   3.300  0.7448  0.0519  0.7849
  832MOL0     H14747   2.996  11.062   3.238 -1.1237  0.9922  0.6653
  832MOL0     H14748   2.937  11.274   3.344 -0.1950  0.0089  1.4093
  832MOL0     H14749   3.030  11.472   3.735 -5.3832  0.6721  1.0993
  832MOL0     H14750   3.120  11.315   3.720 -0.5489  0.7807  1.0817
  832MOL0     H14751   2.826  11.354   3.688 -1.2283 -1.7234  1.2594
  832MOL0     H14752   2.913  11.205   3.647  3.2879 -1.3524  1.7929
  832MOL0     H14753   2.964  11.166   3.872  0.2525 -0.0136  4.4020
  832MOL0     H14754   2.987  11.333   3.913 -0.2923  0.0253 -0.4923
  832MOL0     H14755   2.750  11.370   3.964 -1.9629 -0.5610 -0.6689
  832MOL0     H14756   2.695  11.242   3.859  0.0730 -0.1985  0.2829
  832MOL0     H14757   2.871  11.163   4.092 -0.0842 -1.1927 -0.9184
  832MOL0     H14758   2.739  11.079   4.025 -0.5239  0.2314  1.6022
  832MOL0     H14759   2.718  11.325   4.183 -1.5356  1.5991 -0.3323
  832MOL0     H14760   2.578  11.258   4.113  0.3527  2.4988  1.6687
  832MOL0     H14761   2.654  11.170   4.375  2.0910  1.2713  0.8804
  832MOL0     H14762   2.758  11.060   4.285 -0.9746  0.2738  6.4860
  832MOL0     H14763   2.454  11.076   4.284  0.7868  1.4756  0.4396
  832MOL0     H14764   2.534  10.998   4.151  2.4478  2.2524 -1.7823
  832MOL0     H14765   2.704  10.794   4.227  1.0998  0.7158  0.9234
  832MOL0     H14766   2.616  10.542   4.528  1.8878 -1.8242 -0.3046
  832MOL0     H14767   2.748  10.549   4.408  0.2150  1.6874  1.1752
  832MOL0     H14768   2.586  10.352   4.391 -0.1654  0.2012 -0.7964
  832MOL0     H14769   2.448  10.470   4.392  0.0877 -0.5346  0.6000
  832MOL0     H14770   2.509  10.567   4.182  1.4292  0.9979  0.7975
  832MOL0     H14771   2.646  10.458   4.169  0.9405  1.0472  2.9319
  832MOL0     H14772   2.482  10.358   4.032  0.1708 -1.7459  0.9685
  832MOL0     H14773   2.510  10.256   4.172  0.2890  1.1497  3.2960
  832MOL0     H14774   2.188  10.247   4.344 -0.2412  0.7072 -0.5034
  832MOL0     H14775   2.037  10.115   4.443  2.1478  2.3935 -1.7954
  832MOL0     H14776   2.045   9.939   4.395 -0.2923  0.4439  0.7122
  832MOL0     H14777   1.918  10.035   4.353  0.5161  0.9458 -3.2191
  832MOL0     H14778   2.012   9.644   3.804 -1.3958 -5.4171 -1.3834
  832MOL0     H14779   1.835   9.506   3.703 -0.0223 -1.6627  1.4403
  832MOL0     H14780   1.633   9.347   3.727 -3.2676 -2.0032 -1.5017
  832MOL0     H14781   1.582   9.405   3.897  0.9888  2.6253  0.3846
  832MOL0     H14782   1.404   9.267   3.773  2.1809 -0.7673 -8.0007
  832MOL0     H14783   1.351   9.418   3.840 -0.3157  2.2089 -0.5069
  832MOL0     H14784   1.447   9.363   3.549  0.1746 -1.3819  0.8988
  832MOL0     H14785   1.377   9.517   3.596 -2.1175 -0.2899 -1.6343
  832MOL0     H14786   1.229   9.271   3.664  1.3138 -1.7445 -1.9176
  832MOL0     H14787   1.223   9.314   3.493 -1.0949 -0.3570  0.3145
  832MOL0     H14788   1.129   9.544   3.532  2.9588 -0.8544  0.0158
  832MOL0     H14789   1.024   9.424   3.554  2.1409  1.2595 -3.0370
  832MOL0     H14790   1.018   9.595   3.744  0.8540  0.4167 -1.8816
  832MOL0     H14791   1.188   9.561   3.775  0.5249  0.0279 -1.6057
  832MOL0     H14792   1.123   9.322   3.832 -1.6732 -2.2031  2.2338
  832MOL0     H14793   0.950   9.384   3.833 -0.3267  0.8221 -0.9890
  832MOL0     H14794   1.175   9.456   4.008  1.1670 -1.4757 -1.1666
  832MOL0     H14795   1.035   9.345   4.046  0.9129  1.3643  2.4138
  832MOL0     H14796   1.547   9.717   3.947 -1.5201 -2.3087 -1.2622
  832MOL0     H14797   1.718   9.841   4.049 -2.8525 -1.2250 -1.0868
  832MOL0     H14798   2.189  10.017   3.916  0.6270  0.2441  0.4964
  832MOL0     H14799   2.348  10.184   3.961  0.5930  1.7232  0.7699
  832MOL0     H14800   3.283  11.276   3.582 -4.1017  1.3773  1.4060
  832MOL0     H14801   3.358  11.054   3.461  0.0858 -1.0096 -2.1005
  832MOL0     H14802   3.194  10.826   2.895 -0.5357  1.1668  0.5372
  832MOL0     H14803   3.331  10.683   2.769  2.8186 -1.9122 -1.1261
  832MOL0     H14804   3.597  10.663   2.731  1.7500  0.4259  0.0339
  832MOL0     H14805   3.690  10.527   2.771 -1.0821 -0.1642  2.1966
  832MOL0     H14806   3.549  10.517   2.532 -0.2446 -0.3419 -0.5691
  832MOL0     H14807   3.422  10.477   2.638  0.6110  0.0994  2.6375
  832MOL0     H14808   3.678  10.316   2.648  0.4554  3.3595  0.8158
  832MOL0     H14809   3.517  10.275   2.716  0.5066  2.5454  0.8501
  832MOL0     H14810   3.459  10.292   2.443  1.5213  3.0738  0.4331
  832MOL0     H14811   3.526  10.146   2.527 -1.1106 -0.5271  2.7529
  832MOL0     H14812   3.869  10.264   2.334 -0.4231  0.4193 -1.2717
  832MOL0     H14813   3.529  10.538   3.121 -0.2504 -0.9747 -1.5021
  832MOL0     H14814   3.362  10.696   3.368  1.9062 -1.0862  1.9868
  832MOL0     H14815   3.524  10.637   3.313 -1.5991 -2.2811  2.0732
  832MOL0     H14816   3.482  10.815   3.318  0.4878  0.2720  0.0826
  833MOL0     O14817   6.648   3.939   0.485  0.1555  0.0113  0.1847
  833MOL0     C14818   6.639   4.048   0.540  0.1452  0.4464  0.3520
  833MOL0     O14819   6.540   4.134   0.521  0.1848 -0.1179  0.0810
  833MOL0     C14820   6.434   4.106   0.433 -0.6646  0.0701  0.7935
  833MOL0     C14821   6.367   3.984   0.439 -0.7593 -0.4890  0.3792
  833MOL0     C14822   6.262   3.965   0.345 -0.5605 -0.1957 -0.4548
  833MOL0     C14823   6.222   4.067   0.254 -0.2435 -0.6567  0.4148
  833MOL0     O14824   6.146   4.055   0.139  0.2555 -0.5314  0.2780
  833MOL0     C14825   6.014   3.993   0.134 -0.8902 -0.1359  0.1976
  833MOL0     C14826   6.010   3.836   0.129  0.3434 -0.5265 -1.1101
  833MOL0     C14827   6.069   3.771  -0.001  0.2188  0.5307 -0.3905
  833MOL0     C14828   6.138   3.643   0.055 -0.0253 -0.2396  0.7954
  833MOL0     C14829   6.203   3.557  -0.059  0.3482  0.0105  0.3898
  833MOL0     C14830   6.092   3.474  -0.125 -0.8182  0.3797  0.4885
  833MOL0     C14831   6.136   3.364  -0.229 -0.1358 -0.1001 -0.4105
  833MOL0     C14832   6.247   3.404  -0.321 -0.3951  0.5939 -0.3929
  833MOL0     N14833   6.264   3.297  -0.422 -0.6030 -0.2080  0.0694
  833MOL0     C14834   6.193   3.301  -0.540 -1.6458 -0.1757 -0.5843
  833MOL0     C14835   6.249   3.199  -0.607  1.3659  0.5339 -0.2321
  833MOL0     C14836   6.218   3.156  -0.747  0.7733  0.0267  0.3251
  833MOL0     C14837   6.134   3.023  -0.745 -0.0883 -0.5038 -0.1746
  833MOL0     C14838   6.173   2.921  -0.857  1.5109 -0.3748 -0.0386
  833MOL0     C14839   6.075   2.798  -0.832 -0.2299 -0.1774  0.6722
  833MOL0     O14840   5.946   2.865  -0.841 -0.8791  0.0926  0.4571
  833MOL0     C14841   5.839   2.786  -0.798  0.5124 -0.1399  0.2751
  833MOL0     C14842   5.833   2.653  -0.805  0.6994  1.2563  0.6939
  833MOL0     C14843   5.712   2.583  -0.767 -1.0351  0.3207 -0.1028
  833MOL0     C14844   5.695   2.436  -0.779  0.1449 -0.0891 -1.6688
  833MOL0     C14845   5.592   2.657  -0.722  0.1685  0.0198  0.2891
  833MOL0     C14846   5.465   2.595  -0.678  0.3437  0.3471 -0.5818
  833MOL0     O14847   5.468   2.509  -0.573 -0.6510  0.1969  0.7489
  833MOL0     C14848   5.346   2.455  -0.546  0.4248 -0.3234 -0.7887
  833MOL0     C14849   5.272   2.385  -0.635  0.4546 -0.5745  0.2863
  833MOL0     C14850   5.150   2.318  -0.598 -0.0578  1.0910 -0.0741
  833MOL0     C14851   5.101   2.322  -0.476  0.3225  0.0422 -0.1101
  833MOL0     O14852   4.982   2.260  -0.443 -0.2068 -0.4936  0.3859
  833MOL0     C14853   4.964   2.216  -0.310  0.5372 -0.6489  0.0845
  833MOL0     C14854   4.865   2.106  -0.296 -1.4725  0.8938  0.8246
  833MOL0     C14855   4.726   2.157  -0.345 -0.1070 -0.6032  0.9039
  833MOL0     C14856   4.620   2.048  -0.317  0.6316  0.2311 -0.5435
  833MOL0     C14857   4.487   2.121  -0.323  0.5359  0.0691  0.0402
  833MOL0     C14858   4.381   2.013  -0.341 -0.2811 -0.9060  0.1429
  833MOL0     C14859   4.248   2.073  -0.385  1.0361  0.5002  0.1980
  833MOL0     C14860   4.143   1.961  -0.416  0.4948 -0.0038  0.9993
  833MOL0    Cl14861   4.232   1.810  -0.467 -0.0160  0.5169  0.1310
  833MOL0     C14862   5.167   2.396  -0.377 -0.4927  0.5954 -0.2307
  833MOL0     C14863   5.292   2.464  -0.418 -0.2831  0.1865 -0.6085
  833MOL0     O14864   5.361   2.636  -0.730 -0.2959 -0.2969  0.2514
  833MOL0     C14865   5.607   2.796  -0.704  1.3379 -0.2924 -1.1791
  833MOL0     C14866   5.731   2.854  -0.748  0.1233  0.1763 -0.1770
  833MOL0     N14867   6.347   3.134  -0.530 -1.0296 -1.0551  0.3834
  833MOL0     N14868   6.368   3.203  -0.423 -0.2382  0.8070 -0.9356
  833MOL0     C14869   6.282   4.193   0.268 -0.7745 -0.0478  0.0815
  833MOL0     C14870   6.390   4.211   0.356  0.8524 -0.8986  0.3460
  833MOL0     C14871   6.750   4.079   0.629  0.3384 -0.0811  0.2567
  833MOL0     C14872   6.774   4.217   0.644 -0.3953 -0.4651 -0.3007
  833MOL0     C14873   6.879   4.269   0.705  0.4975  0.1195 -0.7628
  833MOL0     C14874   6.969   4.182   0.766 -0.7733  0.9880  0.1525
  833MOL0     O14875   7.089   4.226   0.817  0.1081  1.2047 -0.4576
  833MOL0     C14876   7.163   4.143   0.922  0.0837 -0.8767  0.8932
  833MOL0     C14877   7.232   4.232   1.021  0.8335 -0.4504 -1.2072
  833MOL0     C14878   7.152   4.341   1.093  0.3625  0.1973 -0.8952
  833MOL0     C14879   7.028   4.290   1.170  0.1064  0.2538  0.1649
  833MOL0     C14880   7.036   4.166   1.247  0.3887 -0.7824 -0.1683
  833MOL0     C14881   7.042   4.055   1.294 -0.1506  0.3530 -0.5402
  833MOL0     C14882   6.949   4.047   0.746  0.0605 -0.8234  0.2660
  833MOL0     C14883   6.829   3.990   0.696  1.2230  0.3955  0.1192
  833MOL0     C14884   6.800   3.839   0.719 -0.1122 -0.6566 -0.2091
  833MOL0     H14885   6.397   3.905   0.507  0.0217  0.7578  1.5596
  833MOL0     H14886   6.214   3.868   0.349 -3.8204  1.2933  3.6971
  833MOL0     H14887   5.970   4.029   0.040 -0.7111  2.9020  1.1653
  833MOL0     H14888   5.958   4.033   0.219  0.5488  1.8796  0.2929
  833MOL0     H14889   6.045   3.788   0.221 -0.6426 -3.2098 -2.0412
  833MOL0     H14890   5.904   3.810   0.124  0.1860 -1.3679  3.1514
  833MOL0     H14891   5.991   3.757  -0.076  1.4689  0.3646 -1.6909
  833MOL0     H14892   6.146   3.836  -0.042  1.6864 -0.8017  0.1278
  833MOL0     H14893   6.225   3.680   0.110  1.6995  1.1999 -2.5557
  833MOL0     H14894   6.070   3.583   0.116  0.5229  0.9128  2.6154
  833MOL0     H14895   6.285   3.492  -0.026  1.5506  0.3793 -1.7055
  833MOL0     H14896   6.244   3.621  -0.137 -0.4869  0.7324  0.5233
  833MOL0     H14897   6.035   3.427  -0.044 -2.4150  0.7890 -0.3609
  833MOL0     H14898   6.022   3.539  -0.178 -1.1643 -0.9240 -0.7046
  833MOL0     H14899   6.044   3.337  -0.282  0.8781 -2.2537 -1.1887
  833MOL0     H14900   6.167   3.282  -0.164 -2.8759 -0.4158  0.6674
  833MOL0     H14901   6.227   3.498  -0.373  1.4362  2.4573  2.0547
  833MOL0     H14902   6.332   3.427  -0.257 -1.8631  1.2088  1.4414
  833MOL0     H14903   6.135   3.384  -0.580  0.6064  0.6174 -2.3780
  833MOL0     H14904   6.317   3.149  -0.793  2.3530  3.4315  2.7476
  833MOL0     H14905   6.168   3.237  -0.801 -1.2428 -1.3138  0.0838
  833MOL0     H14906   6.145   2.979  -0.645  0.5693 -0.2551 -0.1283
  833MOL0     H14907   6.029   3.052  -0.752 -0.3608 -1.3742  0.1489
  833MOL0     H14908   6.180   2.972  -0.953  1.1315  0.3359  0.3056
  833MOL0     H14909   6.271   2.883  -0.825  1.8762 -0.1101 -0.8284
  833MOL0     H14910   6.091   2.721  -0.908 -0.0880  0.2501  0.2624
  833MOL0     H14911   6.078   2.747  -0.735 -1.7199 -3.0250 -0.6703
  833MOL0     H14912   5.900   2.579  -0.848 -1.1358 -0.1019 -0.0169
  833MOL0     H14913   5.610   2.408  -0.842  1.0163 -1.0620 -2.4611
  833MOL0     H14914   5.667   2.393  -0.682 -0.4663 -1.7396 -2.5276
  833MOL0     H14915   5.790   2.392  -0.812  2.0072 -0.3165  3.0613
  833MOL0     H14916   5.308   2.367  -0.736 -3.9961 -2.8360 -1.1531
  833MOL0     H14917   5.084   2.271  -0.671 -3.3680  1.8309  2.2170
  833MOL0     H14918   5.060   2.179  -0.274  0.7482 -0.9760 -0.7729
  833MOL0     H14919   4.922   2.295  -0.247 -2.6527 -0.7237 -1.7480
  833MOL0     H14920   4.893   2.017  -0.352  0.2599  1.4103  0.8137
  833MOL0     H14921   4.863   2.082  -0.189 -2.7462  0.8029  0.7979
  833MOL0     H14922   4.721   2.170  -0.454 -0.0594  2.1901  1.1690
  833MOL0     H14923   4.695   2.253  -0.304  2.0478  1.8339 -2.6176
  833MOL0     H14924   4.630   2.009  -0.216  2.7777 -0.7088 -1.0451
  833MOL0     H14925   4.636   1.958  -0.376  0.1000 -1.2878  1.5363
  833MOL0     H14926   4.488   2.180  -0.231  0.6058  1.3252 -0.7348
  833MOL0     H14927   4.486   2.186  -0.411  2.8947 -2.7124 -2.2266
  833MOL0     H14928   4.358   1.952  -0.254  0.3600 -1.2248  0.0993
  833MOL0     H14929   4.421   1.953  -0.423  4.9446 -0.1198  1.6971
  833MOL0     H14930   4.263   2.124  -0.481  1.7786  2.9544  1.5329
  833MOL0     H14931   4.207   2.142  -0.311  1.6018  0.1281  0.8711
  833MOL0     H14932   4.072   1.997  -0.491  0.6482 -0.4537  0.6311
  833MOL0     H14933   4.095   1.940  -0.321  0.9359  0.3292  1.2999
  833MOL0     H14934   5.130   2.407  -0.276  1.3867 -0.0168  0.5658
  833MOL0     H14935   5.347   2.512  -0.337 -2.3402  2.1330 -0.2583
  833MOL0     H14936   5.537   2.862  -0.655 -1.3593 -2.3328 -2.0261
  833MOL0     H14937   5.744   2.962  -0.738 -1.1927  0.5790 -2.2658
  833MOL0     H14938   6.255   4.288   0.223 -1.8471 -0.4213 -0.1044
  833MOL0     H14939   6.432   4.307   0.384 -0.7329 -0.1389  0.2373
  833MOL0     H14940   6.701   4.279   0.592  0.2396  0.6154  0.0576
  833MOL0     H14941   6.907   4.373   0.698  3.0541 -0.5855 -1.9746
  833MOL0     H14942   7.105   4.065   0.972  2.2427 -2.3897  1.1883
  833MOL0     H14943   7.238   4.087   0.865 -2.5687 -3.4912 -0.2835
  833MOL0     H14944   7.317   4.274   0.968  0.9803 -2.9744 -3.1205
  833MOL0     H14945   7.263   4.170   1.105 -0.6923  0.0845 -0.1897
  833MOL0     H14946   7.214   4.390   1.169  0.1093 -0.2299 -0.4149
  833MOL0     H14947   7.106   4.416   1.028 -1.6280  0.3049  0.5723
  833MOL0     H14948   6.954   4.272   1.092 -0.2102 -0.0411  0.5334
  833MOL0     H14949   6.990   4.364   1.240 -1.8044 -1.1516  0.6947
  833MOL0     H14950   7.064   3.959   1.335 -1.8870  0.0150 -0.3241
  833MOL0     H14951   7.024   3.977   0.781  0.9809 -0.6011 -1.1728
  833MOL0     H14952   6.839   3.780   0.635 -1.2084 -2.2535  0.3380
  833MOL0     H14953   6.862   3.802   0.802 -0.6872 -1.3003 -0.0544
  833MOL0     H14954   6.699   3.802   0.742 -1.7908  2.6301 -1.6887
  834MOL0     O14955   7.736   7.167   5.682 -0.8743 -0.3449  0.0211
  834MOL0     C14956   7.698   7.232   5.775  0.0039 -0.3485 -0.4186
  834MOL0     O14957   7.643   7.175   5.889 -0.4850  0.1955 -0.1527
  834MOL0     C14958   7.581   7.047   5.884 -0.2825 -0.3114  1.3460
  834MOL0     C14959   7.548   6.955   5.774 -1.0228 -0.2170 -0.6612
  834MOL0     C14960   7.506   6.822   5.809  0.4279  1.0844 -0.9384
  834MOL0     C14961   7.481   6.781   5.938  1.3286 -0.0603  0.9856
  834MOL0     O14962   7.425   6.651   5.949  0.0622 -0.2168 -0.8004
  834MOL0     C14963   7.459   6.583   6.068 -0.2389  0.5685 -0.7112
  834MOL0     C14964   7.429   6.431   6.063 -0.4499  0.2204 -0.2997
  834MOL0     C14965   7.529   6.333   6.021  0.0422  0.4443 -0.2942
  834MOL0     C14966   7.620   6.274   6.135 -0.0301  0.2948  0.5006
  834MOL0     C14967   7.752   6.197   6.087  0.7444 -0.8232 -0.2299
  834MOL0     C14968   7.782   6.095   6.203 -0.0784  0.0712  0.1263
  834MOL0     C14969   7.829   6.160   6.332 -0.4331  0.1733  0.1913
  834MOL0     C14970   7.886   6.067   6.435 -0.5542  0.4907 -0.4979
  834MOL0     N14971   7.917   6.138   6.553  0.4656  0.6804 -0.0097
  834MOL0     C14972   8.005   6.095   6.648 -1.3438  1.4151  0.2726
  834MOL0     C14973   7.986   6.176   6.754  0.1741 -0.4382 -0.2093
  834MOL0     C14974   8.050   6.151   6.888  0.0485 -0.1722 -0.4785
  834MOL0     C14975   7.972   6.092   7.003 -0.3192 -0.8335  1.1503
  834MOL0     C14976   8.060   6.117   7.123 -0.2459 -0.1697  0.7873
  834MOL0     C14977   7.990   6.072   7.254  0.9151  0.0721  0.8764
  834MOL0     O14978   8.043   6.128   7.367  0.9981  0.1468 -0.4019
  834MOL0     C14979   8.137   6.070   7.448  0.1491 -0.0196  0.1314
  834MOL0     C14980   8.228   5.974   7.399 -0.2248  0.6196 -0.3637
  834MOL0     C14981   8.319   5.920   7.499  1.1477  0.5066  0.5211
  834MOL0     C14982   8.412   5.831   7.433 -0.6530 -0.2110  0.8398
  834MOL0     C14983   8.324   5.958   7.629  0.0492  0.0972 -0.5655
  834MOL0     C14984   8.433   5.907   7.728  0.0901 -0.2643  0.4459
  834MOL0     O14985   8.505   5.789   7.691 -0.2291 -0.0958  0.3313
  834MOL0     C14986   8.581   5.736   7.791  0.2018  0.5534 -0.5786
  834MOL0     C14987   8.523   5.636   7.865  0.3787 -0.1633 -0.0210
  834MOL0     C14988   8.597   5.555   7.950  0.3240  0.1814  1.3313
  834MOL0     C14989   8.733   5.582   7.964  0.3689 -0.3654 -0.5128
  834MOL0     O14990   8.802   5.499   8.049 -0.1932 -0.4729  0.1994
  834MOL0     C14991   8.944   5.516   8.071  0.4358  0.8749  1.0656
  834MOL0     C14992   9.003   5.422   8.173 -0.2121  0.7887 -0.6119
  834MOL0     C14993   8.945   5.452   8.307 -0.3409  0.3668 -0.5293
  834MOL0     C14994   8.980   5.366   8.434 -0.0193 -0.3072  0.5027
  834MOL0     C14995   8.938   5.416   8.563 -0.1303 -0.5736  0.7347
  834MOL0     C14996   8.787   5.438   8.569 -0.0601 -0.3162 -0.1037
  834MOL0     C14997   8.758   5.571   8.641  0.8956  0.0433 -0.8576
  834MOL0     C14998   8.788   5.545   8.788  0.3955  0.5015  0.5017
  834MOL0    Cl14999   8.699   5.666   8.888 -0.3471  0.0552 -0.0005
  834MOL0     C15000   8.798   5.679   7.892 -0.2439  0.4429  0.3868
  834MOL0     C15001   8.725   5.757   7.795  0.2059  1.3246 -0.0791
  834MOL0     O15002   8.441   5.957   7.842 -0.3878 -0.1558  0.4233
  834MOL0     C15003   8.219   6.046   7.672 -0.1793  0.3702  0.8279
  834MOL0     C15004   8.128   6.108   7.582 -0.1781  0.0161 -0.6626
  834MOL0     N15005   7.899   6.277   6.716  0.1059  0.0266 -0.5506
  834MOL0     N15006   7.856   6.251   6.599 -1.0420 -0.2395  0.2397
  834MOL0     C15007   7.510   6.865   6.039  0.9410 -1.6045  0.2174
  834MOL0     C15008   7.554   6.994   6.015  0.0499 -0.0476 -0.1669
  834MOL0     C15009   7.738   7.373   5.774 -0.6505  1.0185 -0.5837
  834MOL0     C15010   7.769   7.443   5.646  0.7391  0.6493 -0.0576
  834MOL0     C15011   7.805   7.573   5.637  0.0173  0.8301  0.5794
  834MOL0     C15012   7.830   7.652   5.749 -0.3795 -0.4736  0.2186
  834MOL0     O15013   7.872   7.787   5.767  0.3830  0.7285 -0.1214
  834MOL0     C15014   7.940   7.848   5.660  0.9493  0.5560  0.4038
  834MOL0     C15015   8.075   7.785   5.653 -0.1527  0.2387  0.1012
  834MOL0     C15016   8.167   7.850   5.759 -0.2954 -0.9275  0.2484
  834MOL0     C15017   8.259   7.961   5.708  0.2925 -0.8218 -0.2642
  834MOL0     C15018   8.336   7.915   5.600  0.4802  0.6234  0.0174
  834MOL0     C15019   8.412   7.866   5.517  0.3461  0.9114  0.2003
  834MOL0     C15020   7.818   7.583   5.871  0.2403 -0.6124  0.1596
  834MOL0     C15021   7.770   7.447   5.892  0.1182 -0.9951  0.1544
  834MOL0     C15022   7.774   7.393   6.031  0.1886 -0.0931  0.7527
  834MOL0     H15023   7.561   6.977   5.669  0.9020 -1.3174 -0.6979
  834MOL0     H15024   7.485   6.755   5.726 -0.8256  2.7967 -2.0721
  834MOL0     H15025   7.411   6.629   6.155  2.7481 -0.5551  1.7000
  834MOL0     H15026   7.567   6.580   6.085 -0.5214 -1.0427  1.1415
  834MOL0     H15027   7.388   6.402   6.161  2.1710  2.5493  1.6693
  834MOL0     H15028   7.332   6.405   6.020 -2.2326 -1.9905  4.3543
  834MOL0     H15029   7.467   6.267   5.961  0.3913  0.4053 -0.6186
  834MOL0     H15030   7.606   6.377   5.955 -0.4839  0.4593 -0.9063
  834MOL0     H15031   7.647   6.357   6.202 -1.0444  0.5630  0.5907
  834MOL0     H15032   7.555   6.216   6.200  0.6237  0.7389  1.5867
  834MOL0     H15033   7.836   6.267   6.091  1.6517 -1.8948  0.0770
  834MOL0     H15034   7.744   6.149   5.989  4.0824 -2.6232  0.2116
  834MOL0     H15035   7.699   6.026   6.222  1.1520 -1.0022  1.9328
  834MOL0     H15036   7.870   6.041   6.166 -0.8411 -2.5534  1.8037
  834MOL0     H15037   7.746   6.215   6.378  1.6805  2.4875  1.4444
  834MOL0     H15038   7.913   6.226   6.308 -1.0425  1.1280  0.5827
  834MOL0     H15039   7.805   5.994   6.445 -0.6691  0.8436  1.5821
  834MOL0     H15040   7.970   6.012   6.392 -1.0368 -0.5892 -0.0828
  834MOL0     H15041   8.068   6.010   6.622 -0.7166  2.3611 -1.4398
  834MOL0     H15042   8.080   6.252   6.919  3.6423 -0.5455 -2.1714
  834MOL0     H15043   8.139   6.089   6.871  1.7047  2.1973 -0.9016
  834MOL0     H15044   7.885   6.158   7.004  1.3751  1.5632 -0.2316
  834MOL0     H15045   7.943   5.987   6.988 -0.9448 -0.5044 -0.0800
  834MOL0     H15046   8.144   6.047   7.123 -0.4046 -0.3685 -0.0577
  834MOL0     H15047   8.099   6.219   7.127  3.6196 -1.4920  4.0126
  834MOL0     H15048   7.894   6.122   7.235  1.7282  1.0262 -0.9588
  834MOL0     H15049   7.961   5.966   7.256 -3.6083  1.1139  1.1795
  834MOL0     H15050   8.249   5.949   7.296 -1.4725 -1.7999 -0.0941
  834MOL0     H15051   8.411   5.837   7.324 -0.4020  0.4693  0.8687
  834MOL0     H15052   8.380   5.729   7.454 -1.8231 -0.0831 -0.2147
  834MOL0     H15053   8.513   5.846   7.473 -0.0187  2.8247 -1.5024
  834MOL0     H15054   8.415   5.634   7.855  0.2656  1.1248  0.7319
  834MOL0     H15055   8.539   5.481   8.005  1.2257 -0.6822  1.1621
  834MOL0     H15056   8.987   5.493   7.973 -1.2341 -0.8775  0.6863
  834MOL0     H15057   8.971   5.619   8.093 -0.2652  1.1627  0.5903
  834MOL0     H15058   8.983   5.317   8.148  0.3127  1.0000 -2.0216
  834MOL0     H15059   9.111   5.439   8.173 -0.1854  0.8605  1.5638
  834MOL0     H15060   8.838   5.476   8.305  0.1536  3.3674  1.7194
  834MOL0     H15061   8.964   5.551   8.347  0.9975  0.5259 -1.4814
  834MOL0     H15062   9.089   5.354   8.431  0.1424  0.8788  1.3874
  834MOL0     H15063   8.945   5.263   8.424 -0.4977 -0.1287  0.3376
  834MOL0     H15064   8.961   5.338   8.636 -1.0675 -1.1164  0.4679
  834MOL0     H15065   8.983   5.513   8.587 -2.8082  2.3486 -4.3599
  834MOL0     H15066   8.748   5.351   8.621 -1.5006 -0.1152 -0.8023
  834MOL0     H15067   8.727   5.459   8.480 -2.3108  0.8850  1.6134
  834MOL0     H15068   8.650   5.586   8.635  1.1841  4.5292  1.5334
  834MOL0     H15069   8.806   5.656   8.593 -2.7149  1.2039 -2.7994
  834MOL0     H15070   8.893   5.569   8.806  0.4527  0.9952 -0.4318
  834MOL0     H15071   8.756   5.444   8.818 -1.5383  1.4990  2.0897
  834MOL0     H15072   8.905   5.696   7.888  0.0527 -1.3519 -0.5739
  834MOL0     H15073   8.776   5.835   7.739  1.4799 -0.5074 -1.5912
  834MOL0     H15074   8.199   6.074   7.775 -5.2015  0.5685  0.0201
  834MOL0     H15075   8.053   6.176   7.621  1.6653  1.9090 -0.1821
  834MOL0     H15076   7.493   6.828   6.139 -0.6027 -1.9520 -0.1489
  834MOL0     H15077   7.586   7.054   6.099 -0.2607 -0.4028  0.2103
  834MOL0     H15078   7.769   7.390   5.551  2.2082 -0.5825  0.5851
  834MOL0     H15079   7.822   7.619   5.540  1.3539 -0.6143  0.1044
  834MOL0     H15080   7.889   7.830   5.564  1.3000  1.3433  0.0601
  834MOL0     H15081   7.928   7.956   5.668 -3.1182  0.3775 -0.5957
  834MOL0     H15082   8.122   7.783   5.554 -1.6128  0.7563 -0.6284
  834MOL0     H15083   8.065   7.679   5.674 -3.4207 -0.0303 -2.1149
  834MOL0     H15084   8.110   7.878   5.848 -0.7690  2.1842 -0.9163
  834MOL0     H15085   8.225   7.761   5.784  0.8197 -1.1858 -2.7670
  834MOL0     H15086   8.327   7.994   5.788  0.9737 -0.0086 -1.1592
  834MOL0     H15087   8.189   8.043   5.687 -0.4984 -1.2521  0.6178
  834MOL0     H15088   8.481   7.800   5.469  0.2977  0.1863  1.1158
  834MOL0     H15089   7.835   7.642   5.960 -1.6717  0.9608 -0.4439
  834MOL0     H15090   7.669   7.387   6.060  0.5078  1.3445  2.3364
  834MOL0     H15091   7.820   7.294   6.035 -1.2015 -0.9758 -2.3580
  834MOL0     H15092   7.818   7.458   6.107  1.4201 -2.0083  1.7529
  835MOL0     O15093   2.211   7.880   6.652  0.4656 -0.2437  0.5306
  835MOL0     C15094   2.315   7.881   6.580 -1.0910 -0.0820  0.6577
  835MOL0     O15095   2.332   7.794   6.474  0.3877  0.2903  0.6080
  835MOL0     C15096   2.223   7.725   6.413 -0.2991  0.5446 -0.5686
  835MOL0     C15097   2.141   7.629   6.479  0.6934  0.6483 -0.8091
  835MOL0     C15098   2.042   7.565   6.406  0.8874  0.0656  0.0529
  835MOL0     C15099   2.014   7.596   6.267 -0.5531 -0.4277 -0.0120
  835MOL0     O15100   1.900   7.557   6.203  0.1185 -0.1226  0.2088
  835MOL0     C15101   1.864   7.420   6.207  0.1191 -0.5952 -0.3033
  835MOL0     C15102   1.738   7.384   6.120 -0.0947 -0.9394 -0.3560
  835MOL0     C15103   1.607   7.419   6.186 -0.2264  0.3566  0.4381
  835MOL0     C15104   1.483   7.338   6.114  0.8484 -0.7842 -0.6063
  835MOL0     C15105   1.474   7.369   5.958 -0.8588  0.5982 -0.2542
  835MOL0     C15106   1.339   7.351   5.894 -0.2862  0.1122 -0.8930
  835MOL0     C15107   1.246   7.475   5.910  0.2913 -1.0118 -0.4811
  835MOL0     C15108   1.207   7.555   5.790 -0.4143  1.0026  0.4982
  835MOL0     N15109   1.297   7.672   5.786 -0.1698  0.1880  0.3544
  835MOL0     C15110   1.421   7.665   5.742 -0.0833 -0.1453  0.7119
  835MOL0     C15111   1.468   7.790   5.707  0.4063 -0.7220  0.3971
  835MOL0     C15112   1.588   7.852   5.651 -0.0694 -0.0456  0.0487
  835MOL0     C15113   1.716   7.789   5.697  0.3112  1.0256 -0.6576
  835MOL0     C15114   1.835   7.887   5.694  0.4255  0.1826  0.3859
  835MOL0     C15115   1.838   7.982   5.817  0.1482 -0.1947  0.6417
  835MOL0     O15116   1.941   8.079   5.805 -0.9296  0.8823 -0.2882
  835MOL0     C15117   1.918   8.207   5.775 -0.1182  0.9146  0.5972
  835MOL0     C15118   1.988   8.267   5.674  0.0491  0.6059  0.9011
  835MOL0     C15119   1.966   8.402   5.637  0.1243  0.5279  0.8341
  835MOL0     C15120   2.069   8.464   5.546  0.5192 -0.1883  0.5786
  835MOL0     C15121   1.861   8.477   5.698 -0.9812 -0.4188 -0.2000
  835MOL0     C15122   1.815   8.620   5.647  0.0772  0.2446  0.7322
  835MOL0     O15123   1.716   8.674   5.730 -0.0419 -0.2723 -0.4808
  835MOL0     C15124   1.667   8.794   5.689 -0.0084 -1.8497  0.2456
  835MOL0     C15125   1.755   8.915   5.714  0.1566  0.7094 -0.4999
  835MOL0     C15126   1.718   9.038   5.662  0.0701  0.1743  0.5486
  835MOL0     C15127   1.601   9.043   5.584  0.3344  0.4581 -0.6721
  835MOL0     O15128   1.585   9.178   5.535  0.9838 -0.0702  0.0583
  835MOL0     C15129   1.493   9.224   5.438 -0.4337  1.0323 -0.8194
  835MOL0     C15130   1.581   9.311   5.352  0.5635  0.6953  0.0823
  835MOL0     C15131   1.638   9.447   5.415  0.3243  1.2479 -0.6487
  835MOL0     C15132   1.711   9.545   5.311  0.1614  0.3809  0.2769
  835MOL0     C15133   1.777   9.667   5.377  0.1030 -1.0173  0.5000
  835MOL0     C15134   1.900   9.629   5.465 -0.1901 -0.3859  0.6913
  835MOL0     C15135   1.991   9.756   5.486  0.9815 -0.2449  0.3719
  835MOL0     C15136   1.985   9.825   5.616  0.5553 -0.7048  0.2189
  835MOL0    Cl15137   2.107   9.731   5.710 -0.4028 -0.1134  0.0460
  835MOL0     C15138   1.528   8.927   5.550  0.1501  0.7942  0.8547
  835MOL0     C15139   1.560   8.808   5.608 -0.3683  0.4308  0.2849
  835MOL0     O15140   1.856   8.675   5.548 -0.0563  0.5590  0.2990
  835MOL0     C15141   1.791   8.410   5.803  0.9666  0.0377 -0.1421
  835MOL0     C15142   1.826   8.278   5.840  0.2365  0.3613 -0.5587
  835MOL0     N15143   1.366   7.872   5.747  0.7793  0.3536 -0.7178
  835MOL0     N15144   1.272   7.803   5.806 -0.0123  0.9517 -0.5071
  835MOL0     C15145   2.092   7.698   6.213 -0.1246 -0.2382  0.9163
  835MOL0     C15146   2.194   7.755   6.283  0.1368 -1.2240  0.5678
  835MOL0     C15147   2.430   7.976   6.601  0.5801  0.9334  0.3383
  835MOL0     C15148   2.548   7.955   6.521  0.3652  0.3935 -0.3079
  835MOL0     C15149   2.659   8.038   6.527  0.1176 -0.0747 -0.5945
  835MOL0     C15150   2.664   8.143   6.622 -0.0655 -0.2178  0.3407
  835MOL0     O15151   2.775   8.232   6.639 -0.0076 -0.1209 -0.0595
  835MOL0     C15152   2.878   8.228   6.545  0.4054 -0.7716 -0.1961
  835MOL0     C15153   2.941   8.368   6.544  0.0874  0.5202 -0.1603
  835MOL0     C15154   2.839   8.483   6.548 -0.6563  1.5544  0.1293
  835MOL0     C15155   2.913   8.616   6.559 -0.2457 -0.4288 -0.0168
  835MOL0     C15156   2.940   8.674   6.426 -0.4717  0.0208 -0.2572
  835MOL0     C15157   2.956   8.702   6.315  0.6836 -0.1631  0.4103
  835MOL0     C15158   2.546   8.166   6.702  0.3562  0.2317 -0.2192
  835MOL0     C15159   2.432   8.093   6.684 -0.3702  0.6313 -0.0684
  835MOL0     C15160   2.316   8.130   6.775  0.0563 -0.2535 -0.1181
  835MOL0     H15161   2.160   7.605   6.584  0.9957 -0.9226 -1.1893
  835MOL0     H15162   1.979   7.500   6.465 -0.8800 -0.9385 -2.7698
  835MOL0     H15163   1.848   7.402   6.314  1.4717  2.2550  0.4640
  835MOL0     H15164   1.943   7.349   6.183  0.2556 -1.0044  1.2070
  835MOL0     H15165   1.746   7.430   6.022 -0.3339  3.4454  1.4624
  835MOL0     H15166   1.730   7.275   6.115 -6.1571 -0.9836  1.8206
  835MOL0     H15167   1.602   7.381   6.289  1.9577  1.5137  1.0244
  835MOL0     H15168   1.589   7.527   6.183 -1.4619  0.1981  1.3483
  835MOL0     H15169   1.482   7.231   6.136 -3.7083 -0.6574  0.8538
  835MOL0     H15170   1.389   7.368   6.161  2.3371  1.0742  1.4228
  835MOL0     H15171   1.550   7.311   5.905  1.3465  1.2853  1.9615
  835MOL0     H15172   1.513   7.470   5.951 -0.0699  0.4812  1.6340
  835MOL0     H15173   1.342   7.330   5.787 -0.1071  3.4540 -1.6530
  835MOL0     H15174   1.294   7.264   5.942  2.6295 -0.8961  0.2115
  835MOL0     H15175   1.282   7.547   5.984  0.0772 -1.6874  0.2857
  835MOL0     H15176   1.152   7.436   5.950 -0.3674  1.2142  0.3148
  835MOL0     H15177   1.224   7.491   5.703  2.0952  0.0368  1.6017
  835MOL0     H15178   1.102   7.582   5.804 -0.6449 -0.3610  1.6774
  835MOL0     H15179   1.462   7.570   5.708 -0.5789  0.5703 -2.1862
  835MOL0     H15180   1.582   7.958   5.675 -0.9579  0.3172 -1.6798
  835MOL0     H15181   1.587   7.826   5.545 -0.1098 -1.8167  0.4416
  835MOL0     H15182   1.700   7.743   5.795  1.2069 -0.9179 -1.3565
  835MOL0     H15183   1.718   7.698   5.636  2.1507  2.3435 -2.7183
  835MOL0     H15184   1.929   7.832   5.688 -0.0355 -0.7846  1.6366
  835MOL0     H15185   1.824   7.945   5.602 -0.6998  1.5781  1.3538
  835MOL0     H15186   1.743   8.035   5.828  0.9766  1.2752  0.9677
  835MOL0     H15187   1.850   7.928   5.911 -0.9513 -3.8524 -1.1150
  835MOL0     H15188   2.072   8.219   5.625 -1.7417  0.7748 -2.6242
  835MOL0     H15189   2.034   8.465   5.442  1.4514 -2.2765  0.1725
  835MOL0     H15190   2.159   8.402   5.543  0.1387 -0.8753  2.3365
  835MOL0     H15191   2.095   8.563   5.583 -2.8675  0.7149  0.8515
  835MOL0     H15192   1.844   8.916   5.777 -0.8652  1.6480  1.0099
  835MOL0     H15193   1.768   9.133   5.677 -4.3668  2.7326  0.5192
  835MOL0     H15194   1.444   9.138   5.392 -5.0268  2.0857  1.5624
  835MOL0     H15195   1.406   9.274   5.480 -2.5655 -2.9020 -0.0599
  835MOL0     H15196   1.670   9.252   5.329  0.5843  0.5908  0.4239
  835MOL0     H15197   1.511   9.336   5.272 -4.3075  0.9790  3.8775
  835MOL0     H15198   1.696   9.423   5.504  0.1843  1.0355 -0.6144
  835MOL0     H15199   1.546   9.495   5.448  1.0458  1.2392  1.5475
  835MOL0     H15200   1.632   9.568   5.239 -0.8715 -2.0636  0.5321
  835MOL0     H15201   1.787   9.494   5.252  1.4222  2.1116  0.3423
  835MOL0     H15202   1.809   9.726   5.290 -0.7760 -0.2037  0.7133
  835MOL0     H15203   1.713   9.728   5.441  1.8627  0.9672  0.4901
  835MOL0     H15204   1.954   9.541   5.429 -1.1201 -1.1374  1.1065
  835MOL0     H15205   1.869   9.594   5.563  1.1879  0.1268  1.3345
  835MOL0     H15206   1.949   9.826   5.414  1.1721  0.2201  0.7140
  835MOL0     H15207   2.093   9.744   5.449  1.4349 -1.4501  1.9157
  835MOL0     H15208   1.881   9.816   5.648  0.2223  0.1422 -0.6006
  835MOL0     H15209   1.999   9.932   5.601  1.6167 -1.2347 -3.6248
  835MOL0     H15210   1.441   8.932   5.484  0.4893 -2.0700  0.0487
  835MOL0     H15211   1.511   8.716   5.574  3.2837 -1.3746 -0.5502
  835MOL0     H15212   1.698   8.460   5.829  0.9239 -0.2073  0.1895
  835MOL0     H15213   1.766   8.228   5.915  0.1739 -1.0171 -1.5030
  835MOL0     H15214   2.062   7.739   6.117  1.2657 -0.5041  0.3355
  835MOL0     H15215   2.254   7.833   6.237 -1.2191  2.5254  4.5360
  835MOL0     H15216   2.547   7.865   6.460 -3.0607 -1.2346  1.8446
  835MOL0     H15217   2.739   8.005   6.462 -0.6811 -3.4326 -0.0994
  835MOL0     H15218   2.941   8.145   6.581 -2.6069 -3.2243 -0.1619
  835MOL0     H15219   2.844   8.216   6.442 -0.3026  0.5688 -0.1371
  835MOL0     H15220   3.001   8.374   6.452 -0.8339 -0.8766 -0.8860
  835MOL0     H15221   3.009   8.370   6.630 -0.0519  3.1241 -0.0446
  835MOL0     H15222   2.773   8.466   6.463  0.1319 -2.2252  0.1143
  835MOL0     H15223   2.784   8.476   6.642 -0.2566 -1.6887  0.2543
  835MOL0     H15224   3.006   8.589   6.609 -1.2090 -1.2499  1.4012
  835MOL0     H15225   2.872   8.686   6.632 -2.0081 -0.3107 -1.0360
  835MOL0     H15226   2.972   8.731   6.213  3.3590 -0.1279  0.7638
  835MOL0     H15227   2.560   8.250   6.769  0.0230 -1.1163  1.6049
  835MOL0     H15228   2.226   8.154   6.718  1.2362  0.2372 -1.8463
  835MOL0     H15229   2.303   8.046   6.843  1.2298 -1.3513 -1.1891
  835MOL0     H15230   2.349   8.219   6.829  1.5701  0.1639 -1.6348
  836MOL0     O15231   9.406   2.623   1.421 -0.2095 -0.1223 -0.0049
  836MOL0     C15232   9.433   2.739   1.451 -0.4786 -0.3472 -0.2694
  836MOL0     O15233   9.345   2.846   1.419 -0.1492  0.1167 -0.8683
  836MOL0     C15234   9.215   2.810   1.383 -0.5894 -0.0547 -0.3793
  836MOL0     C15235   9.115   2.778   1.487  0.2593 -1.6706  0.5010
  836MOL0     C15236   8.981   2.767   1.443  0.0545  0.3791  0.0658
  836MOL0     C15237   8.940   2.781   1.315  0.3868  0.3516  0.7098
  836MOL0     O15238   8.808   2.773   1.266 -0.4487  0.1742  0.6803
  836MOL0     C15239   8.698   2.796   1.354 -1.1264  0.0502 -0.2114
  836MOL0     C15240   8.575   2.800   1.270 -0.9241 -0.4660  0.6105
  836MOL0     C15241   8.580   2.911   1.155  0.4152  0.5625  0.2852
  836MOL0     C15242   8.442   2.909   1.083 -0.2643 -0.2591  0.5976
  836MOL0     C15243   8.455   2.967   0.933 -0.2470  0.9397 -0.2501
  836MOL0     C15244   8.328   3.045   0.911  0.3016  0.6441 -0.0556
  836MOL0     C15245   8.212   2.952   0.861 -0.2076 -0.3186  0.7640
  836MOL0     C15246   8.080   2.990   0.927  0.6298  0.1070 -0.1910
  836MOL0     N15247   8.033   3.123   0.890  0.3426  0.1598 -0.0431
  836MOL0     C15248   7.980   3.155   0.766  0.3161 -0.8967  0.8816
  836MOL0     C15249   7.966   3.293   0.787  0.1463  0.2823 -0.6678
  836MOL0     C15250   7.919   3.394   0.688  0.2611  0.0481  0.2550
  836MOL0     C15251   8.039   3.470   0.649 -0.5426  0.5897  0.4142
  836MOL0     C15252   8.014   3.515   0.501 -0.1134  0.3983  1.0036
  836MOL0     C15253   8.140   3.544   0.424  0.2814 -0.2201 -0.5890
  836MOL0     O15254   8.202   3.659   0.490  0.0637 -0.0490 -0.1923
  836MOL0     C15255   8.314   3.718   0.436 -0.8006 -0.0621 -0.3935
  836MOL0     C15256   8.349   3.701   0.301  0.7349 -0.3037 -0.0319
  836MOL0     C15257   8.470   3.755   0.260 -0.0795  0.0421 -0.6054
  836MOL0     C15258   8.514   3.700   0.129 -0.6258  0.0675 -0.5736
  836MOL0     C15259   8.557   3.837   0.347  0.1869  1.0653  0.3894
  836MOL0     C15260   8.673   3.912   0.294  0.1756 -0.0014  0.0926
  836MOL0     O15261   8.780   3.925   0.382 -0.1510 -0.1031 -0.3939
  836MOL0     C15262   8.902   3.983   0.350 -0.1446  0.1356  0.1054
  836MOL0     C15263   8.916   4.114   0.310  0.6960 -0.5543  0.2863
  836MOL0     C15264   9.028   4.154   0.243 -0.8033 -0.6641  0.1685
  836MOL0     C15265   9.139   4.063   0.235  0.5892 -0.0700  0.2726
  836MOL0     O15266   9.251   4.104   0.165  0.3690 -0.1583 -0.4783
  836MOL0     C15267   9.352   4.020   0.126  0.2589 -0.5404 -0.5278
  836MOL0     C15268   9.419   4.077  -0.007  0.1889 -0.4260 -1.4630
  836MOL0     C15269   9.499   3.958  -0.068 -0.2144 -0.1211  0.4573
  836MOL0     C15270   9.445   3.901  -0.204  0.5672 -0.1946 -0.1322
  836MOL0     C15271   9.527   3.779  -0.261  0.2117  0.0420  0.4453
  836MOL0     C15272   9.474   3.720  -0.396 -0.1003 -0.2517  0.0998
  836MOL0     C15273   9.326   3.673  -0.390 -0.0182 -0.1116  0.7417
  836MOL0     C15274   9.270   3.632  -0.535 -0.2991  0.1411 -0.3332
  836MOL0    Cl15275   9.107   3.550  -0.546  0.6614  0.0041 -0.6461
  836MOL0     C15276   9.136   3.935   0.300  0.0537 -0.1824  1.0221
  836MOL0     C15277   9.012   3.902   0.350  0.0990  1.2270  0.7229
  836MOL0     O15278   8.666   3.957   0.180 -1.0174 -1.1812  0.4711
  836MOL0     C15279   8.519   3.854   0.475  0.0393 -0.0489  0.5597
  836MOL0     C15280   8.399   3.798   0.517 -0.0268  0.0443 -0.8667
  836MOL0     N15281   7.981   3.329   0.915  0.2205 -0.6317 -0.2995
  836MOL0     N15282   8.044   3.233   0.976 -0.1681 -0.2523  0.5021
  836MOL0     C15283   9.035   2.791   1.221 -0.0697  0.0737  0.7315
  836MOL0     C15284   9.169   2.815   1.251 -0.7532  0.6162  0.2312
  836MOL0     C15285   9.563   2.769   1.495  0.5999 -0.3645  0.0542
  836MOL0     C15286   9.608   2.905   1.483  0.0994  0.9878 -0.1961
  836MOL0     C15287   9.741   2.948   1.513  0.7686 -0.1245  0.0607
  836MOL0     C15288   9.832   2.859   1.575 -1.1002  0.0795 -0.2395
  836MOL0     O15289   9.957   2.912   1.596  0.4945  0.4284  0.1124
  836MOL0     C15290  10.057   2.840   1.668  0.8472  1.0100 -0.7176
  836MOL0     C15291  10.166   2.771   1.593 -0.5820  0.0469 -0.1433
  836MOL0     C15292  10.257   2.875   1.518  0.7166  0.0333  0.5529
  836MOL0     C15293  10.183   2.928   1.389 -0.1583  0.4957  0.1607
  836MOL0     C15294  10.276   3.009   1.294  0.3813  0.4304  0.7551
  836MOL0     C15295  10.351   3.056   1.214  1.0070  0.8661  0.5210
  836MOL0     C15296   9.784   2.732   1.601  0.3434  0.6608  0.2822
  836MOL0     C15297   9.653   2.685   1.562 -0.1115  0.4058 -0.0896
  836MOL0     C15298   9.625   2.543   1.595 -0.6627  0.1377 -1.4291
  836MOL0     H15299   9.155   2.782   1.587  0.3535  1.3400  0.4577
  836MOL0     H15300   8.898   2.760   1.513 -1.1541  0.0594 -1.3504
  836MOL0     H15301   8.706   2.895   1.400 -1.9850 -0.1782  0.4395
  836MOL0     H15302   8.691   2.722   1.435  0.9121  1.7145  1.5971
  836MOL0     H15303   8.549   2.704   1.224 -0.7653  1.0425 -2.9444
  836MOL0     H15304   8.501   2.819   1.349  0.6097 -1.9922  2.5309
  836MOL0     H15305   8.588   3.012   1.196 -1.0006 -0.0106  2.1195
  836MOL0     H15306   8.667   2.898   1.089 -0.1575 -1.1531 -0.1917
  836MOL0     H15307   8.380   2.820   1.075 -0.5602  0.1099 -2.3612
  836MOL0     H15308   8.384   2.993   1.121  2.0240  1.7649 -0.0902
  836MOL0     H15309   8.463   2.884   0.862 -0.6665  0.7849 -0.1157
  836MOL0     H15310   8.540   3.035   0.921  1.7644 -0.9683  2.1757
  836MOL0     H15311   8.289   3.106   0.993 -0.3861 -0.7406  0.6895
  836MOL0     H15312   8.344   3.119   0.832 -0.3635  0.6155 -0.2200
  836MOL0     H15313   8.239   2.848   0.882  0.1132 -0.0782  1.5766
  836MOL0     H15314   8.192   2.955   0.753 -1.8065  1.8693  1.0664
  836MOL0     H15315   8.008   2.911   0.906  1.6145 -0.2570 -2.5275
  836MOL0     H15316   8.094   2.996   1.036  1.9913 -0.7267 -0.2910
  836MOL0     H15317   7.970   3.106   0.670  4.6863 -1.9338  0.7175
  836MOL0     H15318   7.846   3.463   0.731  0.9842 -1.3605  4.1001
  836MOL0     H15319   7.861   3.349   0.607  4.6317 -2.1624 -1.9743
  836MOL0     H15320   8.052   3.547   0.726  3.4105 -1.0234  1.5742
  836MOL0     H15321   8.127   3.406   0.649 -1.4933 -0.8889  3.0156
  836MOL0     H15322   7.959   3.437   0.448  1.0455 -1.6717  2.6948
  836MOL0     H15323   7.951   3.604   0.506  1.2075  1.6384 -1.8283
  836MOL0     H15324   8.190   3.447   0.421 -4.0552 -2.7604  0.0472
  836MOL0     H15325   8.106   3.566   0.322 -1.0881 -2.0104 -0.5832
  836MOL0     H15326   8.281   3.640   0.243 -2.7226  0.8709  2.4136
  836MOL0     H15327   8.457   3.618   0.084 -1.7105  0.8601 -0.6641
  836MOL0     H15328   8.615   3.660   0.144 -0.8530 -1.4171 -2.6541
  836MOL0     H15329   8.530   3.775   0.051  2.7432 -0.7387 -0.7941
  836MOL0     H15330   8.825   4.174   0.314  1.6908  0.9803  4.6991
  836MOL0     H15331   9.036   4.247   0.187  0.9921 -1.4568 -0.9538
  836MOL0     H15332   9.428   4.033   0.204  0.3558  1.3711 -0.8889
  836MOL0     H15333   9.314   3.918   0.110  1.7657 -0.6877 -4.0402
  836MOL0     H15334   9.338   4.121  -0.065  0.0029 -0.8944 -1.5618
  836MOL0     H15335   9.491   4.157   0.013 -1.7148  1.8979 -3.3506
  836MOL0     H15336   9.503   3.868  -0.005  1.5665 -1.3924 -1.3471
  836MOL0     H15337   9.597   3.996  -0.097 -0.5346  1.7508  1.6904
  836MOL0     H15338   9.455   3.985  -0.274 -0.4367 -0.4500 -0.5955
  836MOL0     H15339   9.340   3.878  -0.185  0.5412 -0.3919 -0.5058
  836MOL0     H15340   9.632   3.800  -0.285 -0.0438  1.2970  0.3550
  836MOL0     H15341   9.537   3.708  -0.178  2.0963  3.5525  3.5117
  836MOL0     H15342   9.527   3.630  -0.430  0.4159 -0.2840  0.9476
  836MOL0     H15343   9.511   3.792  -0.469  2.8992 -1.1214  0.5826
  836MOL0     H15344   9.271   3.754  -0.340  1.9767  1.7396  0.0785
  836MOL0     H15345   9.320   3.594  -0.314 -3.9201  1.5918  2.5103
  836MOL0     H15346   9.343   3.562  -0.576 -0.0413  0.1703  0.0682
  836MOL0     H15347   9.265   3.725  -0.593  0.6300  0.7358  0.4986
  836MOL0     H15348   9.213   3.858   0.295  0.3152  0.1672 -0.9027
  836MOL0     H15349   9.003   3.804   0.395 -1.7630  1.1829  0.3063
  836MOL0     H15350   8.574   3.912   0.549 -1.7475  1.0952  1.0477
  836MOL0     H15351   8.357   3.791   0.617 -0.9983 -1.7166 -1.3446
  836MOL0     H15352   9.000   2.800   1.119  2.7743 -0.8028 -0.4249
  836MOL0     H15353   9.244   2.821   1.173  0.2543  1.6225  1.2515
  836MOL0     H15354   9.536   2.975   1.441 -1.9755 -0.0990  1.3731
  836MOL0     H15355   9.767   3.052   1.498 -1.0247  0.4680  0.7711
  836MOL0     H15356  10.095   2.919   1.733 -1.6586  1.6093  0.1439
  836MOL0     H15357  10.004   2.767   1.729  1.2260  2.1010  0.9839
  836MOL0     H15358  10.125   2.700   1.520  1.0064  0.1966 -1.2212
  836MOL0     H15359  10.231   2.715   1.660 -1.2455 -2.2179 -1.2869
  836MOL0     H15360  10.301   2.955   1.579  1.4011 -1.2529  1.7906
  836MOL0     H15361  10.331   2.810   1.471 -1.0959 -0.7946 -1.3567
  836MOL0     H15362  10.099   2.989   1.426 -1.0462 -0.6735  0.1197
  836MOL0     H15363  10.136   2.847   1.333 -0.2926  0.6725  0.0161
  836MOL0     H15364  10.412   3.071   1.128  0.2215  3.8061  0.3688
  836MOL0     H15365   9.845   2.653   1.645  0.4690 -0.0037 -1.0481
  836MOL0     H15366   9.603   2.489   1.503 -1.7426 -0.2793 -0.9540
  836MOL0     H15367   9.706   2.493   1.648 -1.0274  2.3652  1.4889
  836MOL0     H15368   9.547   2.536   1.672  2.2374 -2.3326  1.6157
  837MOL0     O15369   2.836   5.785  11.384 -0.3903  0.5450  0.2336
  837MOL0     C15370   2.924   5.697  11.361  0.3293 -0.0096  0.0905
  837MOL0     O15371   3.027   5.713  11.281 -0.5439 -0.4094  0.2625
  837MOL0     C15372   3.056   5.846  11.244 -0.6363 -0.2990  0.1678
  837MOL0     C15373   3.085   5.954  11.330 -0.0600 -0.1997  0.8103
  837MOL0     C15374   3.132   6.078  11.280 -0.0929  0.2717  0.5941
  837MOL0     C15375   3.153   6.097  11.143 -0.0412  0.5938  0.2802
  837MOL0     O15376   3.182   6.213  11.074  0.4075  0.1352 -0.1726
  837MOL0     C15377   3.181   6.332  11.143 -0.1377  0.5556 -1.0474
  837MOL0     C15378   3.218   6.443  11.041 -0.4344  0.3461 -0.7852
  837MOL0     C15379   3.367   6.424  11.001 -0.1582  0.0637 -0.0678
  837MOL0     C15380   3.387   6.453  10.853  1.3331 -0.3594  0.0191
  837MOL0     C15381   3.534   6.481  10.814  0.2468  0.3393 -0.5111
  837MOL0     C15382   3.540   6.497  10.660 -1.2645 -0.1231  0.7535
  837MOL0     C15383   3.683   6.474  10.619 -0.9860 -0.4656  0.1264
  837MOL0     C15384   3.710   6.474  10.470  0.1553 -0.5196  0.6464
  837MOL0     N15385   3.848   6.423  10.441 -0.3179  0.2879  0.4851
  837MOL0     C15386   3.882   6.286  10.401  0.7976 -0.4459  0.2751
  837MOL0     C15387   4.015   6.294  10.370  0.4942 -0.8953  0.0275
  837MOL0     C15388   4.105   6.189  10.303 -0.2469 -0.6033 -0.3471
  837MOL0     C15389   4.219   6.259  10.217  0.7405  0.8116  0.0150
  837MOL0     C15390   4.296   6.162  10.114 -0.6213 -0.3582 -0.0181
  837MOL0     C15391   4.407   6.225  10.045 -0.1473  0.0204 -0.1763
  837MOL0     O15392   4.527   6.208  10.117  0.2587  0.3380 -0.5923
  837MOL0     C15393   4.627   6.163  10.044 -0.3893 -0.3253  0.0399
  837MOL0     C15394   4.693   6.237   9.949 -0.7615  0.1127 -0.6402
  837MOL0     C15395   4.810   6.196   9.895 -0.0340  0.5990  0.1115
  837MOL0     C15396   4.868   6.277   9.790 -0.1523  0.1220 -0.0554
  837MOL0     C15397   4.873   6.079   9.942 -0.0640 -0.0634 -0.3909
  837MOL0     C15398   5.001   6.026   9.892  0.5120  0.6448 -0.8039
  837MOL0     O15399   5.024   5.895   9.929  0.0068  0.4536 -0.5323
  837MOL0     C15400   5.145   5.838   9.927  0.6906  0.6841  0.5207
  837MOL0     C15401   5.271   5.896   9.931  0.2291 -0.2460 -0.0879
  837MOL0     C15402   5.384   5.814   9.940  0.1044 -0.3746 -0.2024
  837MOL0     C15403   5.368   5.672   9.954  0.9183  0.4484 -0.0434
  837MOL0     O15404   5.471   5.582   9.950  0.0518 -0.4215 -0.1522
  837MOL0     C15405   5.613   5.624   9.953  0.0038 -0.2878  0.7089
  837MOL0     C15406   5.696   5.513   9.900  1.0942 -0.6139 -0.3734
  837MOL0     C15407   5.845   5.554   9.907 -0.2980 -0.0080 -1.2156
  837MOL0     C15408   5.932   5.439   9.927 -0.5786  0.6700 -0.1274
  837MOL0     C15409   6.082   5.455   9.887 -0.1950 -0.0068 -0.4816
  837MOL0     C15410   6.167   5.542   9.985  0.0750  0.6972 -0.5923
  837MOL0     C15411   6.307   5.500   9.944  1.6611  0.3907  0.1499
  837MOL0     C15412   6.410   5.565  10.042 -0.6724  0.1378 -0.3328
  837MOL0    Cl15413   6.407   5.751  10.043 -0.4823 -0.1456  0.3347
  837MOL0     C15414   5.242   5.617   9.965  0.8090  0.3326  0.7840
  837MOL0     C15415   5.125   5.695   9.941 -1.0214 -0.4491 -0.4356
  837MOL0     O15416   5.082   6.106   9.847  0.5816  0.2585 -0.2753
  837MOL0     C15417   4.804   6.005  10.041  0.4233 -0.3392  0.6852
  837MOL0     C15418   4.689   6.048  10.098  0.1222  0.2281 -0.1165
  837MOL0     N15419   4.055   6.434  10.385  0.7028  1.1033  0.0174
  837MOL0     N15420   3.953   6.502  10.425 -0.4444 -0.4830  0.1471
  837MOL0     C15421   3.114   5.994  11.058 -0.6617 -0.6029 -0.9856
  837MOL0     C15422   3.067   5.867  11.101 -0.2832  0.5489  0.2877
  837MOL0     C15423   2.905   5.559  11.413  0.8362  1.1680  0.2475
  837MOL0     C15424   2.941   5.455  11.329  0.2486  0.7176 -0.9340
  837MOL0     C15425   2.908   5.317  11.352  1.0983  0.8283  0.0152
  837MOL0     C15426   2.844   5.282  11.472  1.0657 -0.3546  0.5625
  837MOL0     O15427   2.798   5.158  11.479 -0.3000 -0.5760  0.4816
  837MOL0     C15428   2.686   5.129  11.572 -0.8175 -0.1654  0.1779
  837MOL0     C15429   2.681   4.981  11.587  0.0300 -0.0410 -0.3197
  837MOL0     C15430   2.566   4.944  11.682  0.7394 -0.5148  0.8007
  837MOL0     C15431   2.584   4.803  11.721 -0.6379  0.1888  0.5284
  837MOL0     C15432   2.462   4.775  11.800  0.0422  1.0041  0.6826
  837MOL0     C15433   2.363   4.735  11.853  0.5639 -0.1111  0.0584
  837MOL0     C15434   2.800   5.393  11.549  1.0802 -0.2904 -0.5198
  837MOL0     C15435   2.832   5.527  11.529  1.0025 -0.4057  0.1112
  837MOL0     C15436   2.781   5.641  11.633 -0.2893  0.0283  1.1439
  837MOL0     H15437   3.069   5.951  11.438  0.6522  3.8412  1.1851
  837MOL0     H15438   3.156   6.162  11.344  1.8111 -0.4038  0.8494
  837MOL0     H15439   3.265   6.320  11.213 -0.5431 -2.9143 -0.9837
  837MOL0     H15440   3.083   6.349  11.188 -0.4234 -1.2592 -0.9212
  837MOL0     H15441   3.149   6.437  10.956  1.9763 -2.7304 -2.7615
  837MOL0     H15442   3.202   6.540  11.089  1.9708  0.9647 -1.1156
  837MOL0     H15443   3.423   6.495  11.062 -0.7633  1.3660 -0.9675
  837MOL0     H15444   3.392   6.322  11.031 -3.0967 -1.6464 -2.7575
  837MOL0     H15445   3.339   6.375  10.793 -0.4547  1.4707 -1.0581
  837MOL0     H15446   3.330   6.546  10.846 -1.1649 -1.8001 -0.0774
  837MOL0     H15447   3.600   6.404  10.854  0.7725  1.4852  0.9232
  837MOL0     H15448   3.571   6.568  10.870  5.5532 -3.2129  2.2691
  837MOL0     H15449   3.485   6.412  10.619  1.9287 -3.3110  2.5185
  837MOL0     H15450   3.503   6.599  10.643 -2.3368 -0.4306  1.1822
  837MOL0     H15451   3.702   6.370  10.646  0.1397 -0.0667  0.9444
  837MOL0     H15452   3.751   6.535  10.679 -0.4536 -1.0175  0.0947
  837MOL0     H15453   3.646   6.408  10.412  0.4361 -1.0958  0.9812
  837MOL0     H15454   3.706   6.578  10.434  0.5448 -0.0865  1.8073
  837MOL0     H15455   3.818   6.201  10.377  1.8204 -1.0537 -0.3684
  837MOL0     H15456   4.051   6.124  10.234 -1.9393  0.9418 -0.5574
  837MOL0     H15457   4.157   6.137  10.384  4.7195  2.2606 -1.2181
  837MOL0     H15458   4.173   6.338  10.157  0.6248  1.2529  0.6720
  837MOL0     H15459   4.290   6.287  10.295 -0.5149 -5.9886  4.4519
  837MOL0     H15460   4.338   6.073  10.162  0.7623 -0.5663 -1.5405
  837MOL0     H15461   4.232   6.124  10.034  1.2521 -1.2935 -1.1372
  837MOL0     H15462   4.416   6.176   9.947  0.4833 -1.9864  0.8273
  837MOL0     H15463   4.389   6.330  10.021 -0.9298 -0.4499 -1.8007
  837MOL0     H15464   4.650   6.333   9.923  1.0485  2.2432  3.2746
  837MOL0     H15465   4.792   6.349   9.758  0.0408  1.2106  1.8226
  837MOL0     H15466   4.900   6.216   9.705  2.6918 -1.6297  2.1360
  837MOL0     H15467   4.941   6.346   9.833 -2.0132  1.0683  1.7517
  837MOL0     H15468   5.286   6.003   9.923  2.4859 -0.5332 -0.3461
  837MOL0     H15469   5.487   5.850   9.943  0.0771 -0.2478 -0.7664
  837MOL0     H15470   5.626   5.722   9.905  1.7469 -0.9381 -0.2540
  837MOL0     H15471   5.638   5.641  10.058  0.4748 -2.0938  0.9262
  837MOL0     H15472   5.665   5.423   9.955  1.1902 -1.7732 -2.1218
  837MOL0     H15473   5.667   5.491   9.796 -2.3073  2.1800 -0.2154
  837MOL0     H15474   5.862   5.621   9.992 -1.2869  1.5154 -2.1609
  837MOL0     H15475   5.872   5.614   9.820  0.7495  1.9589  0.3822
  837MOL0     H15476   5.895   5.361   9.860 -2.1697 -0.5476  2.0243
  837MOL0     H15477   5.925   5.393  10.026 -1.3482 -1.0713 -0.9439
  837MOL0     H15478   6.119   5.355   9.865  3.5587  1.2832 -0.6237
  837MOL0     H15479   6.089   5.494   9.785  1.4279 -4.4627 -2.3379
  837MOL0     H15480   6.133   5.509  10.084  1.1307 -0.4376 -0.5891
  837MOL0     H15481   6.139   5.647   9.979 -2.5172  0.0858 -0.4475
  837MOL0     H15482   6.331   5.517   9.839  0.6445 -4.5576 -1.1288
  837MOL0     H15483   6.305   5.391   9.952  1.2057  0.2724 -1.3057
  837MOL0     H15484   6.506   5.523  10.010 -0.7990 -0.3228 -0.1245
  837MOL0     H15485   6.385   5.538  10.145  2.9707 -1.8734  0.2278
  837MOL0     H15486   5.221   5.511   9.970 -0.6901  0.3380 -2.6946
  837MOL0     H15487   5.020   5.668   9.947 -1.1298 -2.0179 -5.1753
  837MOL0     H15488   4.836   5.902  10.053 -0.6450 -0.9486 -1.2644
  837MOL0     H15489   4.626   5.997  10.171 -1.9328  0.7659 -1.4323
  837MOL0     H15490   3.108   6.018  10.953 -0.3060 -0.1362 -0.9015
  837MOL0     H15491   3.036   5.794  11.027 -0.4492 -0.2114  1.0888
  837MOL0     H15492   2.968   5.484  11.228  0.5508  0.8403 -0.8162
  837MOL0     H15493   2.936   5.250  11.271  1.3763  1.1009 -0.1157
  837MOL0     H15494   2.709   5.168  11.672 -0.5790  0.4980 -0.1287
  837MOL0     H15495   2.594   5.174  11.536 -0.5910  0.3329  0.2119
  837MOL0     H15496   2.775   4.937  11.623 -0.5267  0.1578  1.4233
  837MOL0     H15497   2.659   4.936  11.489 -2.5955  0.3352  0.0311
  837MOL0     H15498   2.577   5.008  11.770  4.0441  1.2134 -0.6724
  837MOL0     H15499   2.470   4.966  11.636  1.1586 -0.9895 -0.3461
  837MOL0     H15500   2.673   4.806  11.784  0.6498 -3.6141 -0.8363
  837MOL0     H15501   2.607   4.742  11.634  0.9701  2.0210 -0.3997
  837MOL0     H15502   2.276   4.680  11.880 -0.7093  2.4075  1.5158
  837MOL0     H15503   2.726   5.370  11.626  0.5261 -1.9497 -1.5075
  837MOL0     H15504   2.751   5.594  11.728  0.1179  0.7291  1.6277
  837MOL0     H15505   2.858   5.715  11.654  0.0000  0.0437  0.0492
  837MOL0     H15506   2.690   5.686  11.593 -0.5807 -0.6948  0.9652
  838MOL0     O15507  11.613   3.336  11.094  0.1639  0.3833  0.7623
  838MOL0     C15508  11.678   3.231  11.080 -0.3575  0.4762 -0.0224
  838MOL0     O15509  11.810   3.227  11.106 -0.2662  0.2872  0.5079
  838MOL0     C15510  11.887   3.342  11.116 -0.1471 -0.0390  0.1402
  838MOL0     C15511  12.006   3.343  11.047 -0.7119 -1.0378  0.0213
  838MOL0     C15512  12.080   3.456  11.037  0.0297 -0.1307 -0.0762
  838MOL0     C15513  12.065   3.561  11.126  0.1288 -0.1053 -0.2231
  838MOL0     O15514  12.159   3.662  11.123 -0.2168 -0.2436  0.2716
  838MOL0     C15515  12.209   3.725  11.240  0.7086  0.1479 -1.3533
  838MOL0     C15516  12.349   3.669  11.268  0.0846 -0.0413  0.0227
  838MOL0     C15517  12.357   3.511  11.277  0.2016 -0.3489  0.2742
  838MOL0     C15518  12.313   3.442  11.402  0.1603 -0.3350 -0.2016
  838MOL0     C15519  12.313   3.299  11.359  0.8404  0.4339  0.0316
  838MOL0     C15520  12.286   3.207  11.475 -0.1872  0.4038 -0.1744
  838MOL0     C15521  12.304   3.060  11.434  0.1422 -0.1177  0.2487
  838MOL0     C15522  12.443   2.994  11.408 -1.0171 -0.6312  0.0502
  838MOL0     N15523  12.521   2.995  11.531 -0.9947 -0.0978  0.1924
  838MOL0     C15524  12.520   2.880  11.617 -1.0846  0.8799 -0.3108
  838MOL0     C15525  12.577   2.934  11.732 -0.7168 -0.2733  0.6252
  838MOL0     C15526  12.565   2.864  11.864  0.6276 -0.8135 -0.3584
  838MOL0     C15527  12.413   2.869  11.902 -1.5073  0.6241 -0.5767
  838MOL0     C15528  12.384   2.929  12.049 -0.3021 -0.0706  1.3383
  838MOL0     C15529  12.453   2.868  12.174 -0.5770  0.1923  0.1044
  838MOL0     O15530  12.415   2.725  12.186  0.3592 -0.0966  0.2095
  838MOL0     C15531  12.478   2.641  12.275  0.6415 -0.0774  0.0218
  838MOL0     C15532  12.614   2.641  12.285 -0.2660  0.1137 -0.5447
  838MOL0     C15533  12.685   2.551  12.371 -0.0468  0.1030  0.4534
  838MOL0     C15534  12.841   2.564  12.372  1.1291 -1.2477  0.7184
  838MOL0     C15535  12.622   2.448  12.444  0.1579  0.4080  1.3292
  838MOL0     C15536  12.686   2.347  12.530  0.8788 -0.7210  0.5473
  838MOL0     O15537  12.619   2.231  12.541 -0.0875  0.8302 -0.3299
  838MOL0     C15538  12.673   2.121  12.599 -0.4385 -0.4634  0.4874
  838MOL0     C15539  12.735   2.015  12.526  0.6172 -0.4376  0.6142
  838MOL0     C15540  12.776   1.898  12.594 -0.0737  0.2228  0.0331
  838MOL0     C15541  12.757   1.889  12.731 -0.0050  0.6166 -0.1051
  838MOL0     O15542  12.805   1.787  12.807 -0.0813 -0.3629 -0.1672
  838MOL0     C15543  12.939   1.749  12.771 -1.1026  0.0931 -0.5128
  838MOL0     C15544  12.973   1.660  12.902 -0.5347  0.2532 -0.1184
  838MOL0     C15545  13.091   1.578  12.871  0.4713 -0.9368  0.4016
  838MOL0     C15546  13.131   1.501  13.000 -0.0799 -0.3291  0.3558
  838MOL0     C15547  13.229   1.379  12.976 -0.7917  0.7100 -1.1136
  838MOL0     C15548  13.267   1.307  13.101  0.1458 -0.2227  0.0829
  838MOL0     C15549  13.371   1.188  13.071  0.6491  1.4377 -0.2846
  838MOL0     C15550  13.389   1.101  13.196  0.2828 -0.2787  0.5276
  838MOL0    Cl15551  13.430   1.184  13.360  0.2525  0.2785 -0.1837
  838MOL0     C15552  12.684   1.990  12.796 -0.4967 -0.2256 -1.6278
  838MOL0     C15553  12.650   2.101  12.728  0.1386 -0.3849 -0.3846
  838MOL0     O15554  12.784   2.376  12.590  0.2475 -0.4782 -0.1438
  838MOL0     C15555  12.480   2.448  12.427 -0.5258 -0.3422  0.0159
  838MOL0     C15556  12.410   2.549  12.351 -0.1414 -0.2677 -0.7434
  838MOL0     N15557  12.618   3.068  11.719  0.3661  0.4990 -0.3539
  838MOL0     N15558  12.574   3.102  11.600  0.4772 -0.8996 -0.1126
  838MOL0     C15559  11.953   3.559  11.207  0.5597  0.0449 -0.0100
  838MOL0     C15560  11.862   3.453  11.195  0.2153 -0.8299 -0.2210
  838MOL0     C15561  11.611   3.095  11.052 -0.2625  0.4934 -0.1059
  838MOL0     C15562  11.676   2.976  11.116  0.7254 -0.1379  1.0856
  838MOL0     C15563  11.605   2.854  11.104 -0.8562 -0.6014  0.8454
  838MOL0     C15564  11.480   2.842  11.037 -0.1644 -0.8634  0.5178
  838MOL0     O15565  11.420   2.722  11.054  0.4612  0.1310  0.0220
  838MOL0     C15566  11.306   2.721  11.139 -0.7498 -0.2181  0.4196
  838MOL0     C15567  11.178   2.726  11.049  0.3127  0.1798 -0.4421
  838MOL0     C15568  11.047   2.788  11.109 -1.1597  0.8138 -0.3197
  838MOL0     C15569  10.977   2.693  11.195 -0.4329  0.1919  0.6553
  838MOL0     C15570  10.911   2.591  11.111  0.7065  0.4324 -0.5252
  838MOL0     C15571  10.871   2.487  11.061  0.2377  0.3753  0.6610
  838MOL0     C15572  11.429   2.946  10.965  0.1604  0.3853 -0.4724
  838MOL0     C15573  11.492   3.074  10.974 -0.3098 -0.4446  0.0419
  838MOL0     C15574  11.429   3.190  10.881  0.2962 -0.4398 -0.7204
  838MOL0     H15575  12.034   3.254  10.991 -2.6218 -0.6041 -1.6996
  838MOL0     H15576  12.179   3.459  10.991  1.5050  1.5390  2.9177
  838MOL0     H15577  12.154   3.705  11.333  3.9701 -2.1851  0.2708
  838MOL0     H15578  12.211   3.830  11.209 -3.1516 -0.0886 -2.9264
  838MOL0     H15579  12.398   3.698  11.174 -1.6732  2.1834 -0.3146
  838MOL0     H15580  12.399   3.726  11.347  1.1300  1.2786 -1.5202
  838MOL0     H15581  12.296   3.477  11.193 -1.7914  1.9490  0.6693
  838MOL0     H15582  12.463   3.491  11.259  0.5841  0.8277  1.0594
  838MOL0     H15583  12.387   3.458  11.481  1.7375  0.9325 -1.8359
  838MOL0     H15584  12.208   3.465  11.419  0.0758 -1.4322  0.8236
  838MOL0     H15585  12.407   3.267  11.314 -0.9507  0.7463 -4.3581
  838MOL0     H15586  12.235   3.281  11.284  1.9984  0.8147 -1.3027
  838MOL0     H15587  12.359   3.235  11.551 -0.9119  3.1732 -0.4153
  838MOL0     H15588  12.192   3.242  11.516  2.1702  4.0062  2.8230
  838MOL0     H15589  12.253   3.051  11.338 -0.6511  1.3311  0.4911
  838MOL0     H15590  12.250   2.993  11.500  0.4567 -2.5771 -1.8260
  838MOL0     H15591  12.449   2.890  11.375  2.2213 -0.8681  1.0325
  838MOL0     H15592  12.484   3.046  11.321 -2.2284  1.7900  0.8265
  838MOL0     H15593  12.485   2.778  11.605  1.4483 -0.0688 -0.2596
  838MOL0     H15594  12.632   2.907  11.938 -1.5351 -1.8693  2.4048
  838MOL0     H15595  12.590   2.758  11.877 -0.1456 -0.7149  3.0012
  838MOL0     H15596  12.366   2.935  11.828 -2.8104  0.6311  0.2285
  838MOL0     H15597  12.377   2.767  11.891  1.2338 -0.2498 -2.9016
  838MOL0     H15598  12.418   3.033  12.038 -0.6453 -0.1828 -1.6378
  838MOL0     H15599  12.276   2.934  12.065 -0.2489 -0.9587  2.0598
  838MOL0     H15600  12.562   2.869  12.181 -0.6456  0.0444  1.7761
  838MOL0     H15601  12.425   2.920  12.266 -1.6066 -2.2893  1.2971
  838MOL0     H15602  12.677   2.711  12.231  0.6812  0.3035  0.7732
  838MOL0     H15603  12.900   2.476  12.345  0.8130 -2.5432  3.7705
  838MOL0     H15604  12.875   2.578  12.475  0.4213 -1.6099  1.0081
  838MOL0     H15605  12.871   2.642  12.302 -1.2401 -2.3174 -1.6437
  838MOL0     H15606  12.737   2.023  12.418 -0.3802  1.2583  0.6748
  838MOL0     H15607  12.823   1.816  12.541 -0.8472  1.5087 -2.8358
  838MOL0     H15608  12.963   1.698  12.678  1.1001  1.4431 -0.7499
  838MOL0     H15609  13.000   1.839  12.758  0.1782 -0.9217 -1.9532
  838MOL0     H15610  12.985   1.724  12.990 -1.8320 -0.6926  0.7715
  838MOL0     H15611  12.895   1.587  12.927 -1.1101  0.8767 -0.0577
  838MOL0     H15612  13.174   1.636  12.828 -1.2606  0.2635 -1.5118
  838MOL0     H15613  13.068   1.508  12.790  3.6542  0.0191 -1.5369
  838MOL0     H15614  13.034   1.463  13.033  0.2044 -1.3809  0.0368
  838MOL0     H15615  13.167   1.567  13.079 -1.0089 -0.4295  0.8702
  838MOL0     H15616  13.183   1.315  12.901  2.1224 -2.4617 -0.4325
  838MOL0     H15617  13.318   1.414  12.923 -0.5025  1.0574 -0.4156
  838MOL0     H15618  13.174   1.270  13.143 -1.5976  3.3808 -0.2502
  838MOL0     H15619  13.307   1.371  13.180  1.4633 -0.6141 -0.2403
  838MOL0     H15620  13.467   1.232  13.047  2.8363 -3.7415 -2.5201
  838MOL0     H15621  13.324   1.120  13.000 -0.5225 -0.9005  2.4990
  838MOL0     H15622  13.462   1.024  13.169  2.1325  1.6085 -0.1779
  838MOL0     H15623  13.295   1.045  13.199  0.4892 -0.6739 -0.0928
  838MOL0     H15624  12.669   1.984  12.903  1.4311 -0.3637 -1.3447
  838MOL0     H15625  12.608   2.181  12.789 -0.9143  0.0978 -1.6848
  838MOL0     H15626  12.428   2.366  12.476 -0.2136  1.3969  3.5587
  838MOL0     H15627  12.302   2.548  12.336 -0.1962 -3.0388 -0.6211
  838MOL0     H15628  11.931   3.647  11.266  0.3454 -0.2156  0.3048
  838MOL0     H15629  11.759   3.461  11.230  1.2834  1.5135  2.7253
  838MOL0     H15630  11.766   2.974  11.177  1.5448 -1.6077 -0.1181
  838MOL0     H15631  11.657   2.769  11.148 -0.3654 -0.8680 -0.2055
  838MOL0     H15632  11.309   2.625  11.192  5.6103 -0.7511 -0.1613
  838MOL0     H15633  11.319   2.798  11.215  1.5455 -0.0233 -0.1091
  838MOL0     H15634  11.144   2.625  11.022 -3.5870  1.3486 -0.5560
  838MOL0     H15635  11.193   2.774  10.952 -1.1051  3.7247  0.9319
  838MOL0     H15636  11.091   2.871  11.166  1.8021 -1.6842  1.3440
  838MOL0     H15637  10.994   2.837  11.027 -0.2756  0.1983 -1.2818
  838MOL0     H15638  10.890   2.741  11.241 -2.0396 -1.6043 -0.4067
  838MOL0     H15639  11.038   2.657  11.278  0.8663  0.1373 -0.2942
  838MOL0     H15640  10.831   2.405  11.005  4.5143  1.0673 -4.0996
  838MOL0     H15641  11.329   2.940  10.923  0.0330 -0.9132 -0.0399
  838MOL0     H15642  11.368   3.254  10.945 -1.5430 -1.7238 -1.1109
  838MOL0     H15643  11.508   3.249  10.834 -0.8902  2.1716  0.3570
  838MOL0     H15644  11.353   3.158  10.809 -2.1628  0.3960  1.3155
  839MOL0     O15645   4.382   3.929   7.252  0.0873 -0.5241  0.3720
  839MOL0     C15646   4.341   3.892   7.142  0.2361 -0.2060  0.9395
  839MOL0     O15647   4.411   3.834   7.044  0.1145 -1.3327 -0.1025
  839MOL0     C15648   4.547   3.824   7.077  0.1128  0.6780 -0.0020
  839MOL0     C15649   4.593   3.697   7.116  0.6179  0.0059 -0.5050
  839MOL0     C15650   4.734   3.686   7.145  0.2040  0.1417 -0.8715
  839MOL0     C15651   4.824   3.792   7.144 -0.2054  0.7601  0.1128
  839MOL0     O15652   4.950   3.758   7.190 -0.3813  0.6192  0.6283
  839MOL0     C15653   5.013   3.822   7.304  0.9636 -0.0330 -0.3311
  839MOL0     C15654   4.951   3.741   7.425  0.5514  0.3415 -0.6778
  839MOL0     C15655   5.051   3.638   7.477  0.8582  0.6350 -0.6854
  839MOL0     C15656   4.987   3.563   7.601 -0.6191 -1.0836 -0.3601
  839MOL0     C15657   5.104   3.503   7.681 -0.2087 -0.1473  0.2537
  839MOL0     C15658   5.072   3.419   7.804  0.6114 -0.4617  0.3742
  839MOL0     C15659   4.995   3.291   7.775  0.3793 -0.7650 -0.8139
  839MOL0     C15660   4.922   3.235   7.904 -0.4469 -1.1282 -0.2964
  839MOL0     N15661   5.027   3.211   7.998  0.1665  0.4061 -0.1508
  839MOL0     C15662   5.071   3.082   8.018 -0.2359  0.2645  1.0462
  839MOL0     C15663   5.153   3.089   8.127 -0.2725  0.6088 -0.0008
  839MOL0     C15664   5.232   2.967   8.191  0.0225 -0.4906  0.1801
  839MOL0     C15665   5.383   2.972   8.135  0.8071 -0.0354  0.5458
  839MOL0     C15666   5.398   2.887   8.016 -0.3433  0.2060 -0.4973
  839MOL0     C15667   5.353   2.943   7.882 -0.4415  0.9816 -0.5783
  839MOL0     O15668   5.435   2.894   7.774  0.1011 -0.8881 -1.9620
  839MOL0     C15669   5.387   2.914   7.642 -0.5212  0.4284  0.1445
  839MOL0     C15670   5.330   3.034   7.601  0.6246 -1.0578 -0.3847
  839MOL0     C15671   5.292   3.057   7.467  0.0513 -1.6152  0.2138
  839MOL0     C15672   5.210   3.186   7.440  0.0967 -0.3148  0.7593
  839MOL0     C15673   5.322   2.953   7.376  0.4597  0.8032  0.2467
  839MOL0     C15674   5.287   2.959   7.232  0.1391 -0.3925  0.5679
  839MOL0     O15675   5.383   2.905   7.145  0.0781 -0.2909  0.1987
  839MOL0     C15676   5.357   2.914   7.004  0.5520 -0.2863 -0.2637
  839MOL0     C15677   5.342   3.040   6.937  0.1257 -1.2162  0.8366
  839MOL0     C15678   5.315   3.039   6.792  0.3607 -0.0427  0.0593
  839MOL0     C15679   5.308   2.912   6.728 -0.1526  0.4055  0.0742
  839MOL0     O15680   5.281   2.913   6.598  0.7299  0.5936  0.4598
  839MOL0     C15681   5.144   2.891   6.560  0.5936 -0.1102  0.4442
  839MOL0     C15682   5.116   2.906   6.416  0.4731  0.1823  0.2839
  839MOL0     C15683   5.157   2.784   6.343 -0.2811  0.4917  0.3499
  839MOL0     C15684   5.150   2.807   6.197 -0.0604 -0.2277 -0.2065
  839MOL0     C15685   5.219   2.718   6.095  1.3174 -0.1622  0.0224
  839MOL0     C15686   5.142   2.744   5.958  0.3685  0.7796 -0.0261
  839MOL0     C15687   5.175   2.628   5.861 -0.1117  0.1416  0.3233
  839MOL0     C15688   5.100   2.650   5.735 -0.3901  0.5249  0.3698
  839MOL0    Cl15689   5.077   2.492   5.641  0.1476  0.1191 -0.0549
  839MOL0     C15690   5.325   2.797   6.795  0.0462  0.0734  0.1231
  839MOL0     C15691   5.351   2.797   6.929 -0.0818 -0.5318 -0.7408
  839MOL0     O15692   5.172   2.993   7.202  0.1785 -0.3991 -0.4316
  839MOL0     C15693   5.394   2.837   7.416  0.1494  0.4598 -0.3076
  839MOL0     C15694   5.419   2.815   7.543 -0.6687  0.1548 -0.3507
  839MOL0     N15695   5.166   3.214   8.170  0.5135  0.4499  0.6084
  839MOL0     N15696   5.086   3.286   8.098 -0.5476  0.0887 -0.1544
  839MOL0     C15697   4.773   3.912   7.095 -0.2105 -0.7025  0.8512
  839MOL0     C15698   4.635   3.928   7.057 -0.0316 -0.5155 -0.5465
  839MOL0     C15699   4.206   3.934   7.100 -0.1037 -0.4129  0.9416
  839MOL0     C15700   4.180   4.075   7.109  0.0043 -0.4884 -0.4662
  839MOL0     C15701   4.068   4.131   7.055  0.4907 -0.1002 -0.4871
  839MOL0     C15702   3.971   4.054   6.996  0.3970  0.6480  0.1568
  839MOL0     O15703   3.862   4.132   6.957  0.2522  0.5051  1.0195
  839MOL0     C15704   3.739   4.067   6.919 -0.4392  0.9763  0.8450
  839MOL0     C15705   3.756   4.028   6.766  0.4226  0.1485 -0.0773
  839MOL0     C15706   3.755   4.148   6.675 -0.6846  0.0722  0.1742
  839MOL0     C15707   3.898   4.189   6.640  0.0060 -0.2360  1.1582
  839MOL0     C15708   3.945   4.122   6.520 -0.6982 -1.6441  0.6374
  839MOL0     C15709   3.959   4.059   6.414  0.2655  0.5540 -0.2076
  839MOL0     C15710   3.990   3.916   6.992 -0.4959  0.1220  0.5026
  839MOL0     C15711   4.112   3.857   7.036  0.5537  0.0802  0.0583
  839MOL0     C15712   4.138   3.710   7.009 -0.3736 -0.1762  0.5217
  839MOL0     H15713   4.525   3.612   7.108 -1.1212  1.3270 -0.5420
  839MOL0     H15714   4.757   3.584   7.173 -0.9822 -0.0695 -0.6152
  839MOL0     H15715   4.992   3.929   7.296  1.3989 -0.0707 -2.3547
  839MOL0     H15716   5.119   3.797   7.292  1.2841  0.4761  1.1401
  839MOL0     H15717   4.920   3.817   7.496 -1.6095  1.0279 -2.2535
  839MOL0     H15718   4.864   3.681   7.396 -0.0861  1.4203 -1.0478
  839MOL0     H15719   5.093   3.568   7.404  0.1626 -1.3619  0.7461
  839MOL0     H15720   5.140   3.693   7.507  1.1237 -1.0265  1.8564
  839MOL0     H15721   4.930   3.632   7.664  1.7706 -1.3934  2.3590
  839MOL0     H15722   4.926   3.480   7.563  0.5621 -2.6496  1.0184
  839MOL0     H15723   5.163   3.583   7.727  0.5068 -1.6066  2.0230
  839MOL0     H15724   5.177   3.457   7.614 -2.0121 -0.3386 -1.6639
  839MOL0     H15725   5.157   3.395   7.868  1.2030 -1.0279 -0.6027
  839MOL0     H15726   5.023   3.486   7.876  2.3553  1.6679 -0.2997
  839MOL0     H15727   5.072   3.219   7.747  3.6295  1.5857  1.4522
  839MOL0     H15728   4.923   3.297   7.692  1.5477 -0.1841 -1.8147
  839MOL0     H15729   4.847   3.304   7.944  0.5483 -1.2891  1.9994
  839MOL0     H15730   4.860   3.147   7.881  1.3586 -2.0988 -1.6342
  839MOL0     H15731   5.044   2.990   7.966  4.4125 -1.4294  1.1967
  839MOL0     H15732   5.186   2.870   8.169 -2.1058  0.6431 -0.6508
  839MOL0     H15733   5.234   2.971   8.301  0.5220 -2.8956  0.3015
  839MOL0     H15734   5.403   3.076   8.108 -1.7770  0.0755 -1.3530
  839MOL0     H15735   5.456   2.933   8.207 -0.3962 -2.0534  0.7328
  839MOL0     H15736   5.505   2.866   8.016 -0.1380  1.0103  1.1864
  839MOL0     H15737   5.348   2.791   8.030 -2.9855  1.2322 -2.0299
  839MOL0     H15738   5.246   2.921   7.867 -0.9450  3.6257 -1.4048
  839MOL0     H15739   5.366   3.052   7.880 -0.0339  1.0606  2.1949
  839MOL0     H15740   5.302   3.109   7.674 -1.5074 -1.3996 -0.7951
  839MOL0     H15741   5.206   3.250   7.529 -1.7490  0.5776  0.0894
  839MOL0     H15742   5.110   3.153   7.410 -0.9179  0.7493  2.7456
  839MOL0     H15743   5.252   3.249   7.361  1.0087 -0.6082  1.0026
  839MOL0     H15744   5.347   3.133   6.993  0.4706 -0.7671  0.0772
  839MOL0     H15745   5.309   3.125   6.726  2.8767  0.5006  0.4506
  839MOL0     H15746   5.104   2.795   6.595 -3.1483  1.2679  0.4536
  839MOL0     H15747   5.085   2.972   6.604 -1.2733 -1.0230 -0.2675
  839MOL0     H15748   5.007   2.910   6.412  0.4175 -1.7427 -2.2921
  839MOL0     H15749   5.160   2.998   6.376  2.1562 -0.1388  1.2884
  839MOL0     H15750   5.110   2.689   6.372  0.8861  0.3991  2.1068
  839MOL0     H15751   5.261   2.760   6.368 -0.7124 -2.7872 -0.4541
  839MOL0     H15752   5.193   2.906   6.176  1.3832 -0.8461 -0.2305
  839MOL0     H15753   5.042   2.808   6.178  0.0377  2.9774 -1.3731
  839MOL0     H15754   5.327   2.723   6.075  0.7951  0.2013 -3.3938
  839MOL0     H15755   5.189   2.618   6.126  1.2913  0.0115  0.5547
  839MOL0     H15756   5.168   2.843   5.920 -0.7421  2.4992  3.2740
  839MOL0     H15757   5.032   2.745   5.965  0.1394 -2.4410 -1.5239
  839MOL0     H15758   5.150   2.534   5.911 -0.2175 -0.3616 -0.6590
  839MOL0     H15759   5.284   2.620   5.851  0.2128  2.2288  1.6712
  839MOL0     H15760   5.166   2.725   5.691  2.5793 -1.0931  1.7748
  839MOL0     H15761   5.000   2.695   5.742 -0.0595  1.4088 -0.3643
  839MOL0     H15762   5.331   2.700   6.748 -1.3477 -0.5036  1.0423
  839MOL0     H15763   5.377   2.704   6.978 -0.2427  0.9359  2.3342
  839MOL0     H15764   5.437   2.758   7.355  0.7564 -0.2319  0.9568
  839MOL0     H15765   5.465   2.719   7.564  1.9998  1.0283 -1.6566
  839MOL0     H15766   4.834   4.002   7.084  0.0450 -1.1880 -5.5773
  839MOL0     H15767   4.596   4.021   7.015 -2.9950 -0.2283  2.4113
  839MOL0     H15768   4.245   4.143   7.164  0.9914  0.9280 -3.2015
  839MOL0     H15769   4.030   4.232   7.071 -0.2659 -0.5403  0.6025
  839MOL0     H15770   3.722   3.969   6.964 -2.7614  0.7587 -0.3348
  839MOL0     H15771   3.646   4.123   6.933 -1.2620 -0.4567  1.2843
  839MOL0     H15772   3.679   3.953   6.746 -0.1692 -1.2050  5.4529
  839MOL0     H15773   3.842   3.964   6.743 -1.4480 -1.6800 -2.5369
  839MOL0     H15774   3.697   4.133   6.583  0.6132 -1.1366 -0.4883
  839MOL0     H15775   3.713   4.234   6.728 -0.5773 -1.1335  2.3310
  839MOL0     H15776   3.962   4.167   6.725  1.7414  0.8759  0.2053
  839MOL0     H15777   3.902   4.297   6.624 -3.2949 -0.2776 -0.9454
  839MOL0     H15778   3.958   4.002   6.323  1.9565  1.0474 -0.5777
  839MOL0     H15779   3.911   3.850   6.959 -3.5459  3.5502  0.2984
  839MOL0     H15780   4.162   3.642   7.092 -2.6566  0.7356  2.0162
  839MOL0     H15781   4.062   3.661   6.947  1.0367  2.1533 -3.3655
  839MOL0     H15782   4.225   3.709   6.943  1.2694  0.0189  2.5883
  840MOL0     O15783  11.320   1.547   4.239  0.4562  0.4364  0.0262
  840MOL0     C15784  11.300   1.455   4.321 -0.5671 -0.0549 -0.0222
  840MOL0     O15785  11.180   1.414   4.362 -0.2951 -0.2825  0.0997
  840MOL0     C15786  11.078   1.488   4.315  0.0600  0.4987  0.2370
  840MOL0     C15787  11.010   1.572   4.401  0.1565 -0.4436  1.0263
  840MOL0     C15788  10.906   1.648   4.351 -0.6994  0.1044 -0.1863
  840MOL0     C15789  10.863   1.635   4.217 -0.7537  0.0266 -0.7597
  840MOL0     O15790  10.766   1.708   4.165  0.3522 -1.0442  0.4585
  840MOL0     C15791  10.646   1.635   4.153 -0.4111  0.7937  0.5617
  840MOL0     C15792  10.521   1.708   4.208  0.6433 -0.2535  0.2440
  840MOL0     C15793  10.552   1.791   4.332 -0.5629 -0.3111 -0.0477
  840MOL0     C15794  10.503   1.723   4.456  0.3890 -0.2997 -0.6488
  840MOL0     C15795  10.505   1.822   4.577 -1.3673  0.2049  0.3643
  840MOL0     C15796  10.383   1.904   4.580  0.6943 -0.2588  0.9468
  840MOL0     C15797  10.375   1.954   4.718  0.8863 -0.7383 -1.0872
  840MOL0     C15798  10.263   2.057   4.721 -0.0208 -0.4695  0.2443
  840MOL0     N15799  10.247   2.114   4.856 -0.2744  0.4962  0.5675
  840MOL0     C15800  10.331   2.222   4.888 -0.5682  0.4522 -0.9639
  840MOL0     C15801  10.315   2.218   5.027 -0.5974  0.2664 -0.3146
  840MOL0     C15802  10.357   2.312   5.133 -0.2652 -1.2518 -0.0723
  840MOL0     C15803  10.240   2.402   5.174 -0.5000 -0.6546  0.4166
  840MOL0     C15804  10.292   2.528   5.251  0.0952 -0.4322 -0.0210
  840MOL0     C15805  10.174   2.582   5.332  0.7136 -0.3299 -0.3081
  840MOL0     O15806  10.220   2.668   5.428 -0.2523 -0.0767 -0.5516
  840MOL0     C15807  10.152   2.789   5.453  0.4712 -0.2656  0.4426
  840MOL0     C15808  10.031   2.823   5.396 -0.1966  0.2313 -0.5635
  840MOL0     C15809   9.976   2.947   5.419  0.4985 -0.4957  0.1210
  840MOL0     C15810   9.847   2.974   5.343  0.5772  0.5372  0.6241
  840MOL0     C15811  10.047   3.045   5.500  0.1110 -0.4451 -0.2382
  840MOL0     C15812  10.003   3.185   5.512 -0.4562  0.9072  0.6398
  840MOL0     O15813   9.879   3.220   5.483 -0.4764  0.5737  0.6028
  840MOL0     C15814   9.854   3.357   5.485  0.0101  0.0218  0.2078
  840MOL0     C15815   9.791   3.411   5.600  0.0202 -0.0160 -0.1101
  840MOL0     C15816   9.779   3.559   5.607 -0.9757  1.0259  0.8476
  840MOL0     C15817   9.829   3.650   5.509 -1.3738  0.4364  0.4723
  840MOL0     O15818   9.824   3.791   5.534 -0.5467  0.0203  0.7451
  840MOL0     C15819   9.938   3.871   5.505 -0.6441 -0.4038 -0.0248
  840MOL0     C15820   9.888   3.958   5.374 -0.5091 -0.0834  0.4071
  840MOL0     C15821   9.770   4.060   5.419 -0.5800  0.6222  0.1074
  840MOL0     C15822   9.818   4.209   5.388 -0.0022 -1.1250  0.4360
  840MOL0     C15823   9.737   4.321   5.465  1.0051 -0.4967  1.1383
  840MOL0     C15824   9.776   4.458   5.409 -1.6792  0.0862  1.2400
  840MOL0     C15825   9.723   4.571   5.499  1.2454  0.5172 -0.2624
  840MOL0     C15826   9.697   4.714   5.446  0.4592 -1.0683  0.1806
  840MOL0    Cl15827   9.847   4.813   5.451 -0.1011  0.2852  0.2914
  840MOL0     C15828   9.879   3.590   5.393 -0.2748 -0.6222 -0.6953
  840MOL0     C15829   9.890   3.448   5.382  0.0296 -0.8208  1.1009
  840MOL0     O15830  10.096   3.252   5.549 -0.3707  0.4295 -0.1091
  840MOL0     C15831  10.166   3.005   5.566  1.0077 -0.7663  0.2612
  840MOL0     C15832  10.218   2.881   5.549 -0.7346  0.0211  1.3408
  840MOL0     N15833  10.220   2.128   5.066 -0.7066  0.7299  0.0271
  840MOL0     N15834  10.171   2.055   4.958 -0.3779 -0.5883  0.1781
  840MOL0     C15835  10.930   1.546   4.132 -0.3563 -0.5664  0.7569
  840MOL0     C15836  11.039   1.467   4.182  0.6653 -0.2141  0.3718
  840MOL0     C15837  11.423   1.384   4.371  0.7480 -0.4689 -0.1345
  840MOL0     C15838  11.404   1.298   4.488  0.3010 -0.8063  0.1463
  840MOL0     C15839  11.503   1.219   4.534  0.5458  0.3542  0.0071
  840MOL0     C15840  11.626   1.228   4.482 -0.6293  0.0956  0.6257
  840MOL0     O15841  11.728   1.152   4.542 -0.1768  0.6766 -0.3911
  840MOL0     C15842  11.859   1.135   4.478  0.1911  0.9021  0.4186
  840MOL0     C15843  11.954   1.083   4.585  0.1542 -0.0719 -0.1738
  840MOL0     C15844  11.901   0.966   4.660 -0.0804 -0.0045 -0.4663
  840MOL0     C15845  11.969   0.956   4.807  1.1416 -0.6692 -0.5069
  840MOL0     C15846  11.945   0.828   4.865 -0.0876 -0.3213 -1.0017
  840MOL0     C15847  11.931   0.725   4.927  0.8063  0.3697  0.4430
  840MOL0     C15848  11.648   1.303   4.371  0.5829  1.1772  0.4140
  840MOL0     C15849  11.550   1.377   4.306  0.6518  0.9273 -0.1598
  840MOL0     C15850  11.590   1.433   4.174 -0.2959 -0.8785 -0.6434
  840MOL0     H15851  11.036   1.583   4.506  2.0612  1.5798  0.4285
  840MOL0     H15852  10.871   1.722   4.422 -1.5494 -0.0774 -0.4014
  840MOL0     H15853  10.657   1.543   4.212  2.4930 -0.6177 -1.9043
  840MOL0     H15854  10.618   1.613   4.050 -2.5520  1.8857  0.8492
  840MOL0     H15855  10.490   1.776   4.128 -0.0134 -1.2110 -0.3315
  840MOL0     H15856  10.439   1.639   4.230  0.3121  0.4239  1.1832
  840MOL0     H15857  10.655   1.818   4.356 -0.6673  0.6165 -0.5990
  840MOL0     H15858  10.508   1.887   4.303  0.9407  0.6418  0.7252
  840MOL0     H15859  10.398   1.701   4.437  0.7239 -2.5746 -0.1109
  840MOL0     H15860  10.559   1.630   4.468 -0.7564 -1.0825 -1.2639
  840MOL0     H15861  10.592   1.887   4.573 -0.6254 -0.8021 -2.0310
  840MOL0     H15862  10.509   1.756   4.665 -2.2148 -0.2478  0.0785
  840MOL0     H15863  10.393   1.986   4.508 -0.7392  0.3157  1.3585
  840MOL0     H15864  10.295   1.840   4.566  1.1170 -0.4609 -1.0890
  840MOL0     H15865  10.469   2.009   4.731 -0.0786  0.9729 -0.9863
  840MOL0     H15866  10.363   1.877   4.795 -2.1967 -0.8026 -1.5182
  840MOL0     H15867  10.294   2.135   4.652  1.0276 -0.9787  0.1221
  840MOL0     H15868  10.169   2.007   4.693  0.3026 -3.8134  4.1103
  840MOL0     H15869  10.399   2.266   4.816  0.8269 -1.5689 -0.9808
  840MOL0     H15870  10.425   2.374   5.074 -1.3786 -0.1414 -0.2330
  840MOL0     H15871  10.405   2.266   5.220  3.7179 -3.1052 -2.9481
  840MOL0     H15872  10.181   2.438   5.089  1.2647  0.7008 -0.3293
  840MOL0     H15873  10.187   2.332   5.239 -5.0785  1.6485 -0.4312
  840MOL0     H15874  10.377   2.503   5.315 -0.0008  1.4434  0.8850
  840MOL0     H15875  10.328   2.602   5.179 -0.2159 -1.8289 -1.6917
  840MOL0     H15876  10.111   2.630   5.256  0.6917 -1.4555 -1.0224
  840MOL0     H15877  10.122   2.503   5.386 -0.2339  1.5190  1.6383
  840MOL0     H15878   9.983   2.752   5.329 -0.0771  0.8402 -1.3159
  840MOL0     H15879   9.851   3.063   5.278  2.9518  0.4963  0.6397
  840MOL0     H15880   9.763   2.997   5.409 -0.9616  1.8257 -1.6315
  840MOL0     H15881   9.816   2.888   5.283  1.1821  0.8664 -0.1936
  840MOL0     H15882   9.764   3.340   5.677 -2.5383 -0.5580 -1.3981
  840MOL0     H15883   9.722   3.607   5.685 -0.6149  0.0605  1.7320
  840MOL0     H15884   9.962   3.948   5.578  2.2670  1.0671 -2.3229
  840MOL0     H15885  10.030   3.814   5.486 -0.0359  0.8049 -0.8027
  840MOL0     H15886   9.977   4.002   5.329 -1.2331  0.7383 -0.2471
  840MOL0     H15887   9.846   3.899   5.291  2.9170  0.5468 -1.9565
  840MOL0     H15888   9.747   4.034   5.522 -0.3831  1.3788  0.3473
  840MOL0     H15889   9.682   4.047   5.356  0.9996 -0.2455 -2.0613
  840MOL0     H15890   9.797   4.225   5.282 -1.8228 -0.5902  0.8317
  840MOL0     H15891   9.925   4.214   5.410  0.3436 -3.3707 -0.5219
  840MOL0     H15892   9.628   4.316   5.462  0.8160  2.3682  0.1023
  840MOL0     H15893   9.772   4.324   5.569  0.4200  0.2369  1.3188
  840MOL0     H15894   9.747   4.481   5.306 -0.4223  4.1952  1.6129
  840MOL0     H15895   9.885   4.463   5.407 -1.7469  2.0814  0.2588
  840MOL0     H15896   9.786   4.571   5.588  1.0389  0.9896 -0.1132
  840MOL0     H15897   9.632   4.519   5.530  1.4935  0.7334  0.8745
  840MOL0     H15898   9.627   4.758   5.518  0.7949  1.8227 -1.1256
  840MOL0     H15899   9.660   4.718   5.344  0.4766 -0.9740  0.1776
  840MOL0     H15900   9.893   3.658   5.310 -1.5129 -0.7522 -1.0347
  840MOL0     H15901   9.939   3.421   5.289  0.2910  0.4527  0.8582
  840MOL0     H15902  10.222   3.069   5.633  1.2931 -2.3077  1.5598
  840MOL0     H15903  10.316   2.845   5.576 -0.7479 -0.7535  0.4024
  840MOL0     H15904  10.892   1.541   4.030  0.4268 -2.9619  0.5237
  840MOL0     H15905  11.075   1.390   4.115  3.3434 -0.9059  2.4620
  840MOL0     H15906  11.310   1.295   4.541 -0.6916  5.0168 -0.6452
  840MOL0     H15907  11.491   1.149   4.617  3.2289 -0.5317 -0.2597
  840MOL0     H15908  11.850   1.072   4.389  2.0678 -0.8026  1.3338
  840MOL0     H15909  11.900   1.227   4.436 -0.1772  0.9444  0.1486
  840MOL0     H15910  11.950   1.165   4.657 -2.9672  0.4487 -0.7826
  840MOL0     H15911  12.053   1.061   4.544 -0.8143 -2.5641 -1.4190
  840MOL0     H15912  11.793   0.973   4.673 -0.3805  0.6919 -2.8189
  840MOL0     H15913  11.937   0.881   4.601  2.7549  1.4647 -1.0406
  840MOL0     H15914  11.909   1.024   4.868 -0.4202 -2.9970  0.6829
  840MOL0     H15915  12.073   0.989   4.790  0.7075  1.7466  1.0533
  840MOL0     H15916  11.924   0.636   4.986 -0.2093  0.9646  1.2556
  840MOL0     H15917  11.742   1.302   4.316  0.7795  1.5007  0.7369
  840MOL0     H15918  11.640   1.526   4.199  1.7925 -2.1531  0.1316
  840MOL0     H15919  11.657   1.374   4.109  0.6677 -0.4458 -0.0566
  840MOL0     H15920  11.495   1.445   4.120  0.8370  0.6408 -2.4539
  841MOL0     O15921  11.351   9.743   6.283  0.6814 -0.1111  0.9392
  841MOL0     C15922  11.391   9.860   6.286 -0.2245  0.6383 -0.5488
  841MOL0     O15923  11.382   9.951   6.186  0.4191  0.5902  0.9458
  841MOL0     C15924  11.358   9.902   6.064 -0.1366 -0.0018  0.0347
  841MOL0     C15925  11.464   9.864   5.981  0.5488 -0.0138 -0.2828
  841MOL0     C15926  11.447   9.821   5.851 -0.0631  0.0114 -0.3449
  841MOL0     C15927  11.309   9.805   5.810 -0.4526  0.5842 -0.0228
  841MOL0     O15928  11.285   9.746   5.688 -0.1549 -0.0746 -0.7255
  841MOL0     C15929  11.373   9.644   5.645 -0.1596 -0.0430 -0.1431
  841MOL0     C15930  11.291   9.548   5.560  0.0100  0.1595 -0.8597
  841MOL0     C15931  11.236   9.426   5.619 -0.3269  1.0155 -0.2486
  841MOL0     C15932  11.159   9.350   5.505  0.3725 -0.6408  0.0462
  841MOL0     C15933  11.152   9.201   5.517 -0.4785  0.3619 -0.9064
  841MOL0     C15934  11.085   9.159   5.650  0.1143 -0.9679  0.3583
  841MOL0     C15935  10.948   9.231   5.668 -0.6108 -0.3457  0.5429
  841MOL0     C15936  10.870   9.162   5.788  0.5309 -0.3681 -0.7641
  841MOL0     N15937  10.738   9.226   5.788 -0.2373 -0.5202  0.0726
  841MOL0     C15938  10.699   9.342   5.848 -0.2115  0.7712 -0.0866
  841MOL0     C15939  10.560   9.342   5.827 -0.1798  0.9933 -0.8340
  841MOL0     C15940  10.465   9.432   5.895  0.5355  0.0551 -0.0995
  841MOL0     C15941  10.393   9.369   6.014 -0.1298 -0.5153 -0.9563
  841MOL0     C15942  10.476   9.356   6.149 -0.5980 -0.5382 -0.1137
  841MOL0     C15943  10.405   9.260   6.245  1.0155  1.0500 -0.2690
  841MOL0     O15944  10.308   9.350   6.308  0.3873  0.3259 -0.1459
  841MOL0     C15945  10.181   9.287   6.312 -0.3348 -0.3123 -0.5654
  841MOL0     C15946  10.082   9.298   6.215 -0.3408 -1.2014  0.2763
  841MOL0     C15947   9.962   9.224   6.227 -0.2842  0.3612  0.0877
  841MOL0     C15948   9.875   9.210   6.105  0.8145 -0.7493  0.0660
  841MOL0     C15949   9.929   9.175   6.355 -0.2522  1.5051 -0.8700
  841MOL0     C15950   9.799   9.101   6.393  0.1063  0.3135  0.0404
  841MOL0     O15951   9.759   9.118   6.514 -0.4044 -0.1768 -0.6343
  841MOL0     C15952   9.658   9.057   6.578 -0.1499  0.2368  0.4812
  841MOL0     C15953   9.619   8.929   6.543 -0.6815  0.0301 -0.8664
  841MOL0     C15954   9.510   8.861   6.601 -0.5092  0.3776 -0.5596
  841MOL0     C15955   9.433   8.921   6.702 -1.3443 -0.7241  0.3302
  841MOL0     O15956   9.320   8.857   6.753  0.1658  0.0430 -0.1992
  841MOL0     C15957   9.320   8.703   6.764  0.1567 -1.4626  0.4084
  841MOL0     C15958   9.197   8.669   6.852 -1.0562  0.1099  0.2185
  841MOL0     C15959   9.203   8.720   6.994  0.0302 -0.1876  0.4528
  841MOL0     C15960   9.079   8.674   7.074 -0.4621 -0.1326 -0.6771
  841MOL0     C15961   9.084   8.726   7.219  1.0258 -0.0484 -0.7415
  841MOL0     C15962   9.195   8.654   7.296  0.1068 -0.2011 -1.0042
  841MOL0     C15963   9.181   8.689   7.448  0.0527  0.1029 -0.3493
  841MOL0     C15964   9.312   8.635   7.528  0.4756  0.3240 -0.7970
  841MOL0    Cl15965   9.274   8.479   7.583  0.0383  0.2299  0.2184
  841MOL0     C15966   9.472   9.057   6.737 -0.4466  0.4332 -0.2945
  841MOL0     C15967   9.580   9.120   6.676 -0.6952 -0.4922 -0.3834
  841MOL0     O15968   9.745   9.034   6.306  0.0830  0.4584 -0.3991
  841MOL0     C15969  10.021   9.176   6.456  0.5054 -1.1427 -1.4982
  841MOL0     C15970  10.145   9.225   6.437 -0.8237 -0.0218  0.4018
  841MOL0     N15971  10.523   9.231   5.743 -0.6542  0.1578  0.3718
  841MOL0     N15972  10.630   9.163   5.728 -0.0475  0.3248  0.4342
  841MOL0     C15973  11.204   9.830   5.895 -0.6136 -0.0175  0.6084
  841MOL0     C15974  11.228   9.877   6.017  0.8981 -0.1163 -0.6143
  841MOL0     C15975  11.459   9.899   6.421 -0.9396  0.0799  0.6519
  841MOL0     C15976  11.503  10.040   6.437 -0.5974 -0.1309  0.3796
  841MOL0     C15977  11.539  10.097   6.561  0.9689  0.2478  0.7916
  841MOL0     C15978  11.564  10.012   6.667 -0.7674  1.4164  1.5202
  841MOL0     O15979  11.620  10.069   6.774 -0.1220  0.0675 -0.2659
  841MOL0     C15980  11.667   9.992   6.887  0.0938  0.0934  0.4203
  841MOL0     C15981  11.683  10.073   7.015  0.6051  0.5845  0.3088
  841MOL0     C15982  11.540  10.126   7.065 -0.5626 -0.6862 -0.3111
  841MOL0     C15983  11.541  10.193   7.209 -0.1381 -0.5060  0.6888
  841MOL0     C15984  11.413  10.246   7.239 -0.0505  0.0411 -0.0989
  841MOL0     C15985  11.299  10.284   7.253 -0.0512 -0.1617  0.5131
  841MOL0     C15986  11.528   9.872   6.656 -0.3246  0.5739 -0.0024
  841MOL0     C15987  11.473   9.811   6.538 -0.6179  0.0027 -0.5175
  841MOL0     C15988  11.423   9.668   6.536  0.4373 -0.3232 -0.6477
  841MOL0     H15989  11.566   9.878   6.016  0.7824  1.3812 -1.4305
  841MOL0     H15990  11.534   9.796   5.791  1.6407  2.4837  0.9127
  841MOL0     H15991  11.403   9.579   5.728 -0.7193  1.2378  1.1076
  841MOL0     H15992  11.448   9.695   5.583  0.0686 -0.8777 -0.5671
  841MOL0     H15993  11.201   9.608   5.541 -0.5017 -1.0122 -2.2930
  841MOL0     H15994  11.341   9.535   5.463  2.7836 -0.2452  0.5349
  841MOL0     H15995  11.322   9.371   5.659  0.0932  1.3387 -0.6941
  841MOL0     H15996  11.164   9.459   5.695 -0.2519  0.9871 -0.1656
  841MOL0     H15997  11.055   9.385   5.500 -1.0166 -3.3471  4.3046
  841MOL0     H15998  11.213   9.362   5.411  2.0786  0.4282  1.1018
  841MOL0     H15999  11.248   9.159   5.486 -0.1870  2.4566 -3.1015
  841MOL0     H16000  11.086   9.163   5.439 -0.0246 -1.2489 -0.5401
  841MOL0     H16001  11.062   9.052   5.640 -0.2189 -0.7531 -1.3570
  841MOL0     H16002  11.152   9.178   5.735  0.2040 -3.7441  1.0288
  841MOL0     H16003  10.890   9.226   5.575  1.1119  0.5395 -0.6304
  841MOL0     H16004  10.963   9.336   5.694  1.0887 -0.2693 -0.5602
  841MOL0     H16005  10.843   9.058   5.772  1.1479 -0.6719  0.1011
  841MOL0     H16006  10.923   9.177   5.882  2.2112 -1.3820 -1.5017
  841MOL0     H16007  10.753   9.409   5.915 -2.0970  0.4914  1.8176
  841MOL0     H16008  10.388   9.464   5.824  1.4512 -1.1085 -1.6861
  841MOL0     H16009  10.515   9.524   5.925 -1.7288  1.4059 -0.2199
  841MOL0     H16010  10.293   9.412   6.029  0.4214  0.4062  0.1930
  841MOL0     H16011  10.357   9.270   5.985 -1.0385 -1.8760  3.9772
  841MOL0     H16012  10.577   9.315   6.143 -0.4909 -0.6459  1.7598
  841MOL0     H16013  10.485   9.458   6.189 -2.2853  0.2781 -1.6656
  841MOL0     H16014  10.358   9.176   6.194 -1.8768  3.0279 -1.1051
  841MOL0     H16015  10.471   9.218   6.321  2.8171  0.5638 -2.0225
  841MOL0     H16016  10.110   9.339   6.119 -3.1435  0.5013  0.0673
  841MOL0     H16017   9.775   9.252   6.118  0.5485 -0.6513 -1.9556
  841MOL0     H16018   9.853   9.104   6.085 -7.2364  0.3708 -0.3861
  841MOL0     H16019   9.915   9.259   6.016  0.4070 -2.2019 -0.9631
  841MOL0     H16020   9.679   8.872   6.473 -0.6664  0.4514 -1.2038
  841MOL0     H16021   9.476   8.770   6.554  0.2392 -0.1603 -0.0818
  841MOL0     H16022   9.315   8.654   6.666 -0.4821 -2.3536  0.8695
  841MOL0     H16023   9.414   8.670   6.809  2.0941  0.3868 -1.9903
  841MOL0     H16024   9.111   8.708   6.797 -0.9210  0.0100 -0.0721
  841MOL0     H16025   9.190   8.560   6.854  0.7772 -0.0627 -0.7260
  841MOL0     H16026   9.207   8.829   6.995  0.0290 -0.1188 -1.9534
  841MOL0     H16027   9.292   8.687   7.050 -0.4429 -2.0914  0.1697
  841MOL0     H16028   9.074   8.565   7.074 -0.0231 -0.1552 -0.6984
  841MOL0     H16029   8.987   8.717   7.034 -0.7798  0.3236  0.5100
  841MOL0     H16030   9.103   8.834   7.229  0.7164 -0.0732  0.2560
  841MOL0     H16031   8.987   8.701   7.262  0.7979  0.7135 -0.7963
  841MOL0     H16032   9.288   8.707   7.274  0.6891 -0.9423 -0.3707
  841MOL0     H16033   9.196   8.549   7.266 -2.3983  0.1540 -2.5926
  841MOL0     H16034   9.090   8.652   7.497 -1.7966  2.1056 -2.0753
  841MOL0     H16035   9.182   8.798   7.453 -2.1478  0.1563 -0.3156
  841MOL0     H16036   9.341   8.699   7.612  2.1982 -0.1045 -1.0223
  841MOL0     H16037   9.401   8.626   7.465  0.8207 -3.7116  0.0464
  841MOL0     H16038   9.408   9.117   6.800 -1.2313 -0.9124  0.2275
  841MOL0     H16039   9.619   9.221   6.687  1.2932 -0.6708 -4.2645
  841MOL0     H16040  10.005   9.141   6.557  3.9800  2.8763  0.7662
  841MOL0     H16041  10.226   9.229   6.509 -2.1920 -2.9281  2.2949
  841MOL0     H16042  11.104   9.801   5.865  0.4505 -1.6855 -1.6902
  841MOL0     H16043  11.149   9.901   6.088  1.6584  1.0045 -0.1283
  841MOL0     H16044  11.519  10.109   6.354  0.3615  1.4083  1.7816
  841MOL0     H16045  11.566  10.201   6.577 -0.4482  0.3814  2.6323
  841MOL0     H16046  11.601   9.909   6.912 -0.1664 -0.6058 -2.2881
  841MOL0     H16047  11.759   9.944   6.855 -1.3511 -2.8796  0.4343
  841MOL0     H16048  11.737  10.163   6.988 -0.0823  0.7027 -0.7493
  841MOL0     H16049  11.720  10.014   7.100 -0.9662  2.4016  2.3823
  841MOL0     H16050  11.494  10.194   6.993 -0.7461 -1.2897 -0.7688
  841MOL0     H16051  11.475  10.038   7.072 -1.1112 -0.5562 -2.8542
  841MOL0     H16052  11.607  10.280   7.213  0.0460 -0.2319 -3.6067
  841MOL0     H16053  11.570  10.116   7.281  2.3747  0.4820  0.8141
  841MOL0     H16054  11.197  10.314   7.252 -0.0579 -0.1081 -1.3238
  841MOL0     H16055  11.546   9.818   6.748  1.1278  2.1451  0.6943
  841MOL0     H16056  11.467   9.616   6.622  0.6229 -3.5520 -2.5324
  841MOL0     H16057  11.314   9.653   6.537  0.8965 -5.2449 -0.7989
  841MOL0     H16058  11.454   9.614   6.446  1.0552 -2.5614  0.8112
  842MOL0     O16059   9.261  10.602  11.488  0.1152  1.0448  0.2138
  842MOL0     C16060   9.288  10.565  11.609  0.3195  0.0592 -0.4162
  842MOL0     O16061   9.199  10.586  11.720 -0.1605  1.0223 -0.1458
  842MOL0     C16062   9.085  10.672  11.707 -0.1994  0.0071  0.6842
  842MOL0     C16063   8.966  10.632  11.768  0.3045  0.4472 -0.2097
  842MOL0     C16064   8.847  10.706  11.760 -0.2898  0.0617 -0.5326
  842MOL0     C16065   8.842  10.825  11.685  0.4430  0.7962  0.8181
  842MOL0     O16066   8.732  10.903  11.697 -0.6638 -0.1844 -0.3016
  842MOL0     C16067   8.651  10.918  11.580  0.6312  0.1665  1.2882
  842MOL0     C16068   8.496  10.954  11.616  0.5567 -0.0708  0.3891
  842MOL0     C16069   8.402  10.912  11.499  0.1106 -0.0221  0.1437
  842MOL0     C16070   8.376  10.751  11.508  0.4743 -0.1277 -0.2335
  842MOL0     C16071   8.344  10.682  11.378 -0.0018  0.0480 -0.8289
  842MOL0     C16072   8.335  10.533  11.408 -0.0077  0.0432  0.2233
  842MOL0     C16073   8.234  10.463  11.314  0.5450  0.6908 -0.0982
  842MOL0     C16074   8.269  10.307  11.325  0.3447 -0.7354 -0.5757
  842MOL0     N16075   8.237  10.232  11.446 -0.3259 -0.4824 -0.0274
  842MOL0     C16076   8.168  10.114  11.450  0.6738  0.3939  0.0055
  842MOL0     C16077   8.112  10.103  11.567 -0.7179  0.1667 -0.5115
  842MOL0     C16078   8.014  10.003  11.622 -0.3221  1.3958 -0.1261
  842MOL0     C16079   7.921   9.936  11.522 -0.1576 -0.7776  0.2507
  842MOL0     C16080   7.827  10.032  11.453  0.3590  0.3848  0.2341
  842MOL0     C16081   7.756   9.964  11.337 -1.3172  0.1413  0.1212
  842MOL0     O16082   7.835   9.922  11.221 -0.6084  0.2327  0.5249
  842MOL0     C16083   7.885  10.025  11.137 -0.7013  0.5768  0.2384
  842MOL0     C16084   7.991   9.996  11.043  0.2441  0.1868 -1.0967
  842MOL0     C16085   8.049  10.097  10.975 -1.4458  0.2426  0.4689
  842MOL0     C16086   8.168  10.057  10.876 -0.1818 -0.6509 -0.9207
  842MOL0     C16087   8.008  10.234  10.982  0.2098  1.3799 -0.2611
  842MOL0     C16088   8.062  10.344  10.900 -0.7137  0.0775 -0.5244
  842MOL0     O16089   8.043  10.461  10.955 -0.6457 -0.6972 -0.4728
  842MOL0     C16090   8.048  10.573  10.867  0.5901  0.3662  0.0057
  842MOL0     C16091   8.155  10.655  10.863 -0.2918 -0.4536  0.2260
  842MOL0     C16092   8.160  10.748  10.765 -0.1034 -0.4523 -0.0123
  842MOL0     C16093   8.063  10.770  10.668  0.4680 -0.0246 -0.1546
  842MOL0     O16094   8.070  10.878  10.586  0.0275  0.1471  0.3833
  842MOL0     C16095   8.008  10.878  10.451  0.5251  0.3039  0.9552
  842MOL0     C16096   8.016  11.026  10.410  0.3341  1.1194 -0.7166
  842MOL0     C16097   7.966  11.028  10.263 -0.1982  0.1334  0.4508
  842MOL0     C16098   7.954  11.174  10.202  0.3898  0.1153  0.4937
  842MOL0     C16099   7.930  11.180  10.049 -0.1881  0.0114  0.8913
  842MOL0     C16100   8.050  11.125   9.962 -0.5360 -0.9951 -0.6095
  842MOL0     C16101   8.007  11.122   9.806  0.2292  0.0380  0.5755
  842MOL0     C16102   8.120  11.044   9.729 -0.4387 -0.3594 -0.2943
  842MOL0    Cl16103   8.085  11.063   9.555  0.3298 -0.2309  0.3469
  842MOL0     C16104   7.944  10.695  10.690 -0.2474  0.9472 -0.7981
  842MOL0     C16105   7.936  10.595  10.783 -0.4197  0.6013 -0.2935
  842MOL0     O16106   8.106  10.316  10.787 -0.4733  0.0824 -0.3430
  842MOL0     C16107   7.916  10.263  11.082 -0.9667  0.0605  0.0299
  842MOL0     C16108   7.854  10.157  11.153  0.5552 -0.3816 -0.5567
  842MOL0     N16109   8.174  10.200  11.641  0.1454 -0.3568 -0.3157
  842MOL0     N16110   8.255  10.274  11.569 -0.0099  0.7898 -0.0489
  842MOL0     C16111   8.965  10.865  11.606 -0.3031  0.6260  0.2935
  842MOL0     C16112   9.083  10.788  11.628 -0.4570  0.8480  0.8386
  842MOL0     C16113   9.435  10.529  11.641 -0.6650  0.1383 -0.0360
  842MOL0     C16114   9.535  10.591  11.559  0.7066  0.6286 -0.8262
  842MOL0     C16115   9.674  10.574  11.575 -0.1710  0.3075 -0.1442
  842MOL0     C16116   9.707  10.509  11.696 -0.0406  0.9634  0.6549
  842MOL0     O16117   9.833  10.482  11.735 -0.3678 -0.2543  0.0892
  842MOL0     C16118   9.947  10.498  11.651 -0.5131  0.2106 -0.1617
  842MOL0     C16119  10.064  10.416  11.698 -0.3799 -0.2413  0.1175
  842MOL0     C16120  10.108  10.436  11.837  0.0511 -0.6751  0.3828
  842MOL0     C16121  10.226  10.343  11.884  1.2420  0.4795 -0.3957
  842MOL0     C16122  10.354  10.357  11.817 -0.7974  0.2274 -0.8339
  842MOL0     C16123  10.469  10.365  11.769 -0.7238  0.5638  0.4615
  842MOL0     C16124   9.615  10.449  11.781  0.0629  0.5623  0.1990
  842MOL0     C16125   9.479  10.458  11.756  0.4408  0.4011 -0.4396
  842MOL0     C16126   9.384  10.384  11.855  0.9321 -0.3163  0.0794
  842MOL0     H16127   8.962  10.530  11.804 -1.7003  0.6557  0.2808
  842MOL0     H16128   8.755  10.682  11.811  0.1105  0.0900  0.2165
  842MOL0     H16129   8.650  10.820  11.530 -0.2872  1.0569 -0.5419
  842MOL0     H16130   8.695  10.997  11.519 -1.8866 -0.0169 -0.9467
  842MOL0     H16131   8.460  10.903  11.706  1.8050 -3.0450 -0.6553
  842MOL0     H16132   8.501  11.059  11.644  2.9172  0.7679 -2.6251
  842MOL0     H16133   8.308  10.966  11.514  0.0634 -0.0801  0.0551
  842MOL0     H16134   8.449  10.941  11.405 -0.1493  0.5090  0.1758
  842MOL0     H16135   8.458  10.706  11.565 -3.1397 -0.8618  5.2065
  842MOL0     H16136   8.290  10.743  11.576  1.1287 -0.3519  0.5758
  842MOL0     H16137   8.418  10.697  11.299  0.8107  1.8936  0.2144
  842MOL0     H16138   8.251  10.714  11.330 -0.2058 -0.4823 -0.7954
  842MOL0     H16139   8.435  10.491  11.403 -0.2627 -1.7197  4.7962
  842MOL0     H16140   8.310  10.513  11.513  1.1306 -2.4672  0.0967
  842MOL0     H16141   8.263  10.496  11.214  0.7669  3.2608  0.7474
  842MOL0     H16142   8.129  10.476  11.340  0.2910  0.3278 -0.9048
  842MOL0     H16143   8.210  10.265  11.243 -1.0946 -0.8306  0.4920
  842MOL0     H16144   8.374  10.300  11.292  0.4724  2.4845 -1.2256
  842MOL0     H16145   8.150  10.046  11.369  2.2731 -1.0770  0.8172
  842MOL0     H16146   7.948  10.045  11.697 -2.6164 -3.9205  1.3025
  842MOL0     H16147   8.074   9.917  11.654  1.4426  2.5682 -0.1200
  842MOL0     H16148   7.970   9.880  11.442  1.0448 -2.6848  2.2153
  842MOL0     H16149   7.869   9.854  11.572  1.8132 -2.1390  0.1473
  842MOL0     H16150   7.748  10.057  11.523  0.8074 -0.4942  1.0890
  842MOL0     H16151   7.863  10.129  11.417  2.0210 -0.4094 -0.3859
  842MOL0     H16152   7.725   9.870  11.382 -0.6678  0.6929  1.8172
  842MOL0     H16153   7.667  10.019  11.304 -1.0373 -1.4552 -3.8025
  842MOL0     H16154   8.027   9.895  11.024  0.4932 -0.5925  2.7796
  842MOL0     H16155   8.124  10.044  10.777 -0.9897 -4.4200 -0.2469
  842MOL0     H16156   8.232   9.978  10.917 -0.0032 -0.5300 -0.9688
  842MOL0     H16157   8.241  10.137  10.870 -1.0008  0.0019 -3.2070
  842MOL0     H16158   8.231  10.634  10.937  2.7923 -0.1863 -2.5889
  842MOL0     H16159   8.249  10.810  10.758 -0.1922 -0.3879 -0.6984
  842MOL0     H16160   8.058  10.829  10.368 -3.6435  0.7726 -2.1790
  842MOL0     H16161   7.902  10.851  10.457  0.6065 -0.0665  0.7231
  842MOL0     H16162   7.946  11.089  10.466  1.3114  3.7546 -2.2848
  842MOL0     H16163   8.112  11.077  10.420 -2.2131  6.6709 -0.7003
  842MOL0     H16164   7.866  10.986  10.254 -0.9257  1.7188  0.9202
  842MOL0     H16165   8.031  10.965  10.201  1.5004 -0.6193  2.8324
  842MOL0     H16166   8.050  11.224  10.220  1.1869 -1.1627 -0.0594
  842MOL0     H16167   7.872  11.226  10.251  0.0025  1.3557 -1.3759
  842MOL0     H16168   7.838  11.128  10.022 -1.6653  3.9402 -2.8881
  842MOL0     H16169   7.920  11.287  10.028  2.0875 -0.2256 -2.1375
  842MOL0     H16170   8.082  11.024   9.988  0.9350 -0.5127 -0.4936
  842MOL0     H16171   8.133  11.191   9.986  0.0442 -1.6463 -0.7958
  842MOL0     H16172   8.001  11.220   9.757  0.4522 -0.7678 -1.1409
  842MOL0     H16173   7.916  11.063   9.795 -0.4621  1.0250  0.8162
  842MOL0     H16174   8.107  10.938   9.755  2.2621 -0.3723  1.4451
  842MOL0     H16175   8.216  11.093   9.746 -1.2761  1.8167 -1.5424
  842MOL0     H16176   7.860  10.706  10.622 -3.1153  0.7707  2.3711
  842MOL0     H16177   7.852  10.527  10.781 -1.3592  1.7419 -1.1689
  842MOL0     H16178   7.876  10.364  11.083 -0.2403  0.3485  0.7751
  842MOL0     H16179   7.782  10.186  11.229  1.8580 -3.1075  1.9297
  842MOL0     H16180   8.971  10.947  11.536 -0.3100 -2.1693 -3.2908
  842MOL0     H16181   9.165  10.825  11.567 -1.6452 -0.5893 -1.7997
  842MOL0     H16182   9.497  10.645  11.473 -3.2057 -1.1467 -0.4413
  842MOL0     H16183   9.754  10.593  11.505  1.7224 -0.5387  1.6975
  842MOL0     H16184   9.929  10.474  11.546 -3.4122 -1.8667  0.6872
  842MOL0     H16185   9.977  10.603  11.650 -0.5574  0.2203 -0.5893
  842MOL0     H16186  10.152  10.430  11.634 -1.4587 -2.5343 -2.0404
  842MOL0     H16187  10.026  10.313  11.691  1.3352 -0.9975  1.0708
  842MOL0     H16188  10.147  10.536  11.859 -0.5117 -1.0609  3.4815
  842MOL0     H16189  10.016  10.418  11.893 -0.7571  0.2121 -0.6096
  842MOL0     H16190  10.200  10.237  11.886  1.3518  0.4105  2.5610
  842MOL0     H16191  10.258  10.366  11.986  5.3307 -1.6011 -0.9898
  842MOL0     H16192  10.572  10.364  11.739 -0.6395 -2.1853  0.5788
  842MOL0     H16193   9.665  10.396  11.862  2.0701  0.1652 -1.2340
  842MOL0     H16194   9.317  10.450  11.910  0.3836 -2.0722  1.6209
  842MOL0     H16195   9.314  10.325  11.796  0.2968  2.1935 -1.8422
  842MOL0     H16196   9.432  10.315  11.925  0.5982 -2.4497 -1.6910
  843MOL0     O16197  10.518   1.069  10.280 -0.0944  0.2628 -0.2518
  843MOL0     C16198  10.540   1.176  10.228 -0.0006  0.3812  0.3828
  843MOL0     O16199  10.503   1.298  10.278 -0.1836  0.7990 -0.5836
  843MOL0     C16200  10.427   1.313  10.392  0.9768 -0.0174  0.1240
  843MOL0     C16201  10.441   1.239  10.516  0.3553 -0.5181 -0.4887
  843MOL0     C16202  10.349   1.254  10.623  0.2507 -0.1993  0.1698
  843MOL0     C16203  10.255   1.357  10.617  0.9810 -0.5185 -0.5393
  843MOL0     O16204  10.172   1.362  10.721  0.6177 -0.4293 -0.2508
  843MOL0     C16205  10.066   1.454  10.742 -0.4544 -0.2789 -0.1175
  843MOL0     C16206   9.958   1.387  10.830  0.1804 -1.0742 -0.4990
  843MOL0     C16207  10.021   1.326  10.953  0.5288  0.1650 -0.6375
  843MOL0     C16208   9.905   1.308  11.057 -0.0671 -1.0474  0.3769
  843MOL0     C16209   9.960   1.242  11.187 -0.6877 -0.0604 -0.1149
  843MOL0     C16210   9.839   1.205  11.265 -0.1398 -0.4647  0.1635
  843MOL0     C16211   9.879   1.122  11.389 -0.4371 -0.2514 -0.5110
  843MOL0     C16212   9.760   1.060  11.481  0.5254  0.2377 -0.6026
  843MOL0     N16213   9.824   0.967  11.570  0.2118  0.1896 -0.4845
  843MOL0     C16214   9.866   0.844  11.535  0.2329 -0.0714 -1.3266
  843MOL0     C16215   9.879   0.782  11.653  0.1946 -0.4505 -1.0788
  843MOL0     C16216   9.934   0.643  11.664  0.0227 -0.3317 -0.3049
  843MOL0     C16217  10.088   0.638  11.695 -0.6896  0.1071  0.5483
  843MOL0     C16218  10.136   0.493  11.671 -0.1907 -0.0296  0.0540
  843MOL0     C16219  10.086   0.394  11.783 -0.0841  1.4067 -0.4406
  843MOL0     O16220   9.986   0.293  11.735  0.4353 -0.2244 -0.2205
  843MOL0     C16221   9.954   0.190  11.812 -0.1773  0.5378  0.7631
  843MOL0     C16222   9.878   0.083  11.754  0.6325  0.8501 -0.0379
  843MOL0     C16223   9.833  -0.022  11.830  0.7450 -0.5853  0.3692
  843MOL0     C16224   9.763  -0.134  11.761  0.7999  0.2830 -0.8193
  843MOL0     C16225   9.852  -0.022  11.979 -0.4711  0.4027  0.3843
  843MOL0     C16226   9.813  -0.133  12.077 -0.9237 -0.1979 -0.6443
  843MOL0     O16227   9.859  -0.123  12.209  0.3385  0.0628 -0.5266
  843MOL0     C16228   9.816  -0.214  12.310 -0.2985  0.0071  0.1520
  843MOL0     C16229   9.913  -0.227  12.417  0.2953 -1.1329 -0.5081
  843MOL0     C16230   9.890  -0.320  12.519 -0.2715 -0.6330  0.0494
  843MOL0     C16231   9.777  -0.385  12.540  0.0429 -0.0463  0.5822
  843MOL0     O16232   9.754  -0.464  12.649  0.5319  0.7350 -0.1862
  843MOL0     C16233   9.620  -0.528  12.668  0.2932  0.8968  0.1223
  843MOL0     C16234   9.618  -0.599  12.813 -0.6153  0.5093  0.6539
  843MOL0     C16235   9.756  -0.671  12.845 -0.2579  0.3956  0.3228
  843MOL0     C16236   9.726  -0.786  12.948  0.1464  0.4487 -0.3445
  843MOL0     C16237   9.839  -0.896  12.962  0.5666 -0.5065  1.0801
  843MOL0     C16238   9.844  -0.990  13.078  0.0287 -0.7699  0.6878
  843MOL0     C16239   9.950  -1.089  13.056 -0.0065  0.1077 -0.0129
  843MOL0     C16240   9.946  -1.223  13.137 -0.2822 -1.4248  0.0472
  843MOL0    Cl16241  10.014  -1.201  13.313 -0.7869 -0.0770  0.4752
  843MOL0     C16242   9.682  -0.375  12.434 -0.2781 -0.0730 -1.2962
  843MOL0     C16243   9.697  -0.287  12.329 -0.4747  0.9689  0.2297
  843MOL0     O16244   9.745  -0.220  12.030 -0.1433 -0.7160 -0.3060
  843MOL0     C16245   9.921   0.090  12.023 -0.3670 -0.0911 -0.1902
  843MOL0     C16246   9.968   0.187  11.943 -0.0655 -0.4578 -0.9283
  843MOL0     N16247   9.856   0.868  11.756  0.1162 -0.0532  0.4287
  843MOL0     N16248   9.825   0.985  11.705 -0.1184  0.5094  0.5793
  843MOL0     C16249  10.244   1.432  10.498  0.6008 -0.1209  0.5955
  843MOL0     C16250  10.329   1.408  10.387  0.1652 -0.0061  0.2083
  843MOL0     C16251  10.612   1.183  10.104 -0.1629  0.3129  0.4085
  843MOL0     C16252  10.634   1.304  10.042 -0.7924 -0.9446  0.6931
  843MOL0     C16253  10.738   1.323   9.943  0.2781  0.0663 -0.1383
  843MOL0     C16254  10.818   1.213   9.906  0.3625 -0.0916 -0.1627
  843MOL0     O16255  10.911   1.248   9.816 -0.3541 -0.5658 -0.1362
  843MOL0     C16256  10.995   1.146   9.760  0.9675  0.5548 -0.0489
  843MOL0     C16257  11.029   1.186   9.620  0.9371  0.1420  0.5514
  843MOL0     C16258  11.115   1.084   9.548  0.7488  0.2395 -0.3499
  843MOL0     C16259  11.121   1.113   9.400 -0.2755  0.2011 -0.4402
  843MOL0     C16260  10.997   1.074   9.330  0.1933  0.0622 -0.8444
  843MOL0     C16261  10.888   1.057   9.278 -0.4955 -1.3718  0.1016
  843MOL0     C16262  10.782   1.081   9.952  0.9618 -0.2880 -0.0910
  843MOL0     C16263  10.691   1.065  10.059 -0.2841 -0.1070 -0.6980
  843MOL0     C16264  10.690   0.928  10.118 -0.3100  0.0900 -0.6095
  843MOL0     H16265  10.515   1.159  10.512  0.7741 -0.0824 -2.8480
  843MOL0     H16266  10.358   1.197  10.714  4.3221 -1.1793 -0.6399
  843MOL0     H16267  10.023   1.481  10.646  2.1068  0.8487 -1.0379
  843MOL0     H16268  10.111   1.541  10.790 -1.2565 -0.8921  1.8590
  843MOL0     H16269   9.887   1.463  10.864  1.8658  1.6564 -2.6115
  843MOL0     H16270   9.901   1.310  10.776 -0.3763 -0.2077 -1.1701
  843MOL0     H16271  10.059   1.224  10.950  1.6514  0.5520 -0.3913
  843MOL0     H16272  10.112   1.374  10.990  1.9434 -1.2944 -2.0601
  843MOL0     H16273   9.851   1.403  11.067  2.7323  1.0439 -2.3233
  843MOL0     H16274   9.828   1.239  11.020 -3.2279  1.1952  2.2733
  843MOL0     H16275  10.039   1.298  11.238 -1.6084  1.0529  0.1079
  843MOL0     H16276  10.011   1.151  11.153 -1.9350 -1.4198  1.4317
  843MOL0     H16277   9.788   1.295  11.300 -0.7120 -1.4853  2.0784
  843MOL0     H16278   9.784   1.134  11.203  0.2278 -2.8116  2.3836
  843MOL0     H16279   9.930   1.196  11.451 -2.1591  2.1029 -1.7258
  843MOL0     H16280   9.947   1.038  11.373  2.2042  1.6845 -0.0379
  843MOL0     H16281   9.710   1.146  11.527  1.9149  0.5441  0.4036
  843MOL0     H16282   9.696   1.002  11.415  4.1386 -2.2357 -2.2145
  843MOL0     H16283   9.876   0.801  11.436 -0.7337 -1.4098 -0.8843
  843MOL0     H16284   9.920   0.595  11.566  4.0023 -0.0442 -1.1870
  843MOL0     H16285   9.887   0.584  11.743  1.9028  1.5272  2.3954
  843MOL0     H16286  10.142   0.704  11.628 -3.0451  3.2274  1.5146
  843MOL0     H16287  10.103   0.671  11.798  1.5137 -1.0092  0.6554
  843MOL0     H16288  10.119   0.465  11.566 -1.1952  4.4584 -1.2066
  843MOL0     H16289  10.245   0.495  11.676  0.1332  0.0935 -3.7116
  843MOL0     H16290  10.164   0.327  11.819 -2.1765 -1.3911 -0.7491
  843MOL0     H16291  10.042   0.445  11.869  0.5376 -0.0192  0.7660
  843MOL0     H16292   9.871   0.088  11.646  0.9056  2.2733 -0.0132
  843MOL0     H16293   9.821  -0.224  11.784 -0.9495 -0.6138  0.2351
  843MOL0     H16294   9.762  -0.121  11.652  3.4737 -0.8048 -1.0569
  843MOL0     H16295   9.656  -0.131  11.783  0.4022 -2.0107 -2.1474
  843MOL0     H16296  10.003  -0.173  12.393  0.3715 -0.9407  0.1724
  843MOL0     H16297   9.968  -0.336  12.593 -1.0428 -3.4475  0.3786
  843MOL0     H16298   9.530  -0.467  12.667 -2.7079 -3.1166 -1.9070
  843MOL0     H16299   9.602  -0.599  12.587  0.9373  1.7764 -0.8121
  843MOL0     H16300   9.595  -0.531  12.896 -1.7860  0.4786  0.3698
  843MOL0     H16301   9.533  -0.667  12.799  1.6157 -1.8328 -3.3719
  843MOL0     H16302   9.829  -0.604  12.890  1.6177 -2.1667  1.3027
  843MOL0     H16303   9.799  -0.710  12.753  0.0948 -1.2918  1.1620
  843MOL0     H16304   9.645  -0.844  12.903 -1.6443  1.0938  1.8330
  843MOL0     H16305   9.690  -0.747  13.044  2.5034 -0.3706  0.9475
  843MOL0     H16306   9.826  -0.955  12.871 -0.1907 -2.4713  2.3815
  843MOL0     H16307   9.934  -0.843  12.949  0.2426 -0.0061  0.7011
  843MOL0     H16308   9.755  -1.053  13.088 -0.1364 -0.7107 -0.2569
  843MOL0     H16309   9.862  -0.938  13.172  1.3136 -1.8857  1.0899
  843MOL0     H16310  10.045  -1.040  13.080 -0.6401  0.6145  1.6115
  843MOL0     H16311   9.952  -1.128  12.954  0.1310 -0.8449  0.3444
  843MOL0     H16312  10.010  -1.287  13.075 -0.6606 -2.6701  0.8897
  843MOL0     H16313   9.842  -1.256  13.143 -1.5468  2.0888 -0.4754
  843MOL0     H16314   9.595  -0.439  12.432  0.0689 -1.1232  3.8312
  843MOL0     H16315   9.608  -0.286  12.267 -2.1501  0.8056  2.5398
  843MOL0     H16316   9.916   0.099  12.131 -1.1130 -0.7033 -0.1661
  843MOL0     H16317  10.008   0.273  11.996  0.5934 -0.6139 -1.1648
  843MOL0     H16318  10.179   1.518  10.487  1.7122  0.5550 -1.3074
  843MOL0     H16319  10.305   1.458  10.293 -3.5539 -1.6670  0.1126
  843MOL0     H16320  10.566   1.384  10.070  1.2860  1.2246 -0.0678
  843MOL0     H16321  10.754   1.425   9.911 -1.4236  0.4115  0.0346
  843MOL0     H16322  11.086   1.141   9.821 -0.4090  0.8871  2.1503
  843MOL0     H16323  10.956   1.044   9.752  1.9704  0.0089  1.4153
  843MOL0     H16324  11.090   1.276   9.630 -0.4081  1.2049 -0.5739
  843MOL0     H16325  10.933   1.201   9.570  0.6483  0.3568  1.1641
  843MOL0     H16326  11.213   1.074   9.596  0.9408 -0.6603 -0.8964
  843MOL0     H16327  11.071   0.985   9.560  1.4490  0.0791  1.0986
  843MOL0     H16328  11.210   1.068   9.357  1.9951  3.0688  0.9130
  843MOL0     H16329  11.120   1.221   9.384 -3.0507  0.1697 -0.9917
  843MOL0     H16330  10.793   1.045   9.229 -3.1644  3.3511  3.3269
  843MOL0     H16331  10.852   1.000   9.931  2.9669  1.5874 -0.9666
  843MOL0     H16332  10.594   0.883  10.091 -0.3622 -0.3709  0.3040
  843MOL0     H16333  10.764   0.872  10.061 -0.1642 -0.4384  0.0935
  843MOL0     H16334  10.708   0.918  10.226 -5.1132  1.7982  0.6136
  844MOL0     O16335   9.871   4.003  11.163 -0.2907 -0.0922  0.2079
  844MOL0     C16336   9.932   3.919  11.227  0.2072  0.7244 -0.0832
  844MOL0     O16337   9.922   3.783  11.200 -0.2982 -0.7597  0.2992
  844MOL0     C16338   9.880   3.730  11.084 -0.0430 -0.2867  0.3085
  844MOL0     C16339   9.908   3.797  10.969 -1.3359 -0.3392  0.7155
  844MOL0     C16340   9.865   3.741  10.841 -0.2655  0.0954  0.3105
  844MOL0     C16341   9.767   3.643  10.837 -0.2601  0.4040  0.5324
  844MOL0     O16342   9.714   3.586  10.725 -0.3346 -0.3919  0.4870
  844MOL0     C16343   9.676   3.669  10.609 -0.0262  0.9561 -0.6007
  844MOL0     C16344   9.579   3.596  10.512 -0.1337  0.7606 -1.0189
  844MOL0     C16345   9.434   3.560  10.564 -0.1077 -0.3707 -0.6427
  844MOL0     C16346   9.345   3.489  10.460  0.1733 -0.1840  0.1980
  844MOL0     C16347   9.201   3.510  10.502  0.6008  0.0258  0.7612
  844MOL0     C16348   9.105   3.457  10.389  0.3272  0.0882 -0.1994
  844MOL0     C16349   8.959   3.474  10.444  0.2087  0.6848 -0.5076
  844MOL0     C16350   8.843   3.434  10.335 -0.2417  0.5570 -0.6666
  844MOL0     N16351   8.708   3.441  10.399 -1.3501  0.0888  0.5310
  844MOL0     C16352   8.660   3.386  10.516  0.0110 -0.0606  1.1323
  844MOL0     C16353   8.530   3.355  10.491  0.4044  0.1841  0.4643
  844MOL0     C16354   8.466   3.262  10.598 -0.4435  0.5818 -0.3512
  844MOL0     C16355   8.362   3.161  10.529  0.2235 -0.3754  0.8269
  844MOL0     C16356   8.422   3.013  10.519  1.1294  0.8167 -0.4086
  844MOL0     C16357   8.537   3.011  10.424 -0.0457  0.1858 -0.8714
  844MOL0     O16358   8.579   2.883  10.373 -0.8954  0.0378 -0.4162
  844MOL0     C16359   8.648   2.786  10.452  0.5492 -0.0010  0.5365
  844MOL0     C16360   8.719   2.817  10.577 -0.1967  0.5564  0.2045
  844MOL0     C16361   8.813   2.734  10.631  0.4359  0.6584 -0.1629
  844MOL0     C16362   8.887   2.775  10.758 -0.3578  0.5586  1.0833
  844MOL0     C16363   8.841   2.606  10.567 -0.1576  0.3775  0.0486
  844MOL0     C16364   8.947   2.502  10.599  0.7207  1.1228  0.3189
  844MOL0     O16365   8.918   2.373  10.565  0.0748  0.3728  0.9788
  844MOL0     C16366   9.026   2.300  10.527  0.2877 -0.5639  0.7586
  844MOL0     C16367   9.120   2.253  10.618 -0.4770 -0.0565  0.2100
  844MOL0     C16368   9.242   2.194  10.568 -0.5790 -0.5647 -0.8341
  844MOL0     C16369   9.263   2.188  10.431 -0.2475 -0.2791 -0.6745
  844MOL0     O16370   9.383   2.157  10.368  0.2385 -0.4323  0.1006
  844MOL0     C16371   9.485   2.090  10.444  0.5616  0.4107  0.3634
  844MOL0     C16372   9.613   2.115  10.366 -0.3856  0.4116  0.2354
  844MOL0     C16373   9.610   2.075  10.221  0.9515 -0.5722 -0.5390
  844MOL0     C16374   9.623   1.917  10.204 -0.9344  0.0494  0.6799
  844MOL0     C16375   9.661   1.880  10.060 -0.1264 -0.3690  1.7089
  844MOL0     C16376   9.641   1.730  10.022 -0.8427 -0.7044 -0.4183
  844MOL0     C16377   9.710   1.714   9.882  0.2359  0.1429  0.6680
  844MOL0     C16378   9.676   1.573   9.830 -0.9531 -0.3986  0.9330
  844MOL0    Cl16379   9.777   1.569   9.674  0.2326 -0.6622 -0.4424
  844MOL0     C16380   9.152   2.224  10.349  1.0033 -0.6602  0.4512
  844MOL0     C16381   9.036   2.260  10.395 -0.2081  0.1808 -0.5718
  844MOL0     O16382   9.054   2.534  10.652  0.3500 -0.2785 -0.3000
  844MOL0     C16383   8.759   2.574  10.453 -0.9641 -0.7552 -0.5766
  844MOL0     C16384   8.661   2.662  10.401  0.2548 -1.1726  0.4437
  844MOL0     N16385   8.490   3.420  10.376 -0.1959  0.2403  0.1710
  844MOL0     N16386   8.602   3.463  10.316  0.1322  0.2350 -0.9594
  844MOL0     C16387   9.731   3.584  10.957 -0.3060 -0.9141 -1.0063
  844MOL0     C16388   9.786   3.626  11.079 -0.1045 -0.6004 -0.3952
  844MOL0     C16389   9.986   3.957  11.360  0.1096  0.6571 -0.9434
  844MOL0     C16390   9.911   4.036  11.453 -0.0064 -1.3055  0.6986
  844MOL0     C16391   9.953   4.075  11.571 -0.2570  0.7022 -0.6312
  844MOL0     C16392  10.076   4.029  11.618  0.0880 -0.5872  0.1145
  844MOL0     O16393  10.109   4.075  11.743 -0.0681  0.7708 -0.4012
  844MOL0     C16394  10.238   4.029  11.807  0.4067 -0.0033  0.3648
  844MOL0     C16395  10.272   4.076  11.944  0.0228 -0.2807  0.2733
  844MOL0     C16396  10.158   4.096  12.048  0.0039 -0.4939  0.3264
  844MOL0     C16397  10.092   3.969  12.094  0.7804  0.2268 -0.4965
  844MOL0     C16398  10.001   3.905  11.996  0.0139 -1.0351  1.1600
  844MOL0     C16399   9.927   3.873  11.909 -0.5872  0.3464  0.7338
  844MOL0     C16400  10.157   3.944  11.541  0.9595  0.0085 -0.5561
  844MOL0     C16401  10.106   3.914  11.416 -0.1201  0.7417  0.9728
  844MOL0     C16402  10.193   3.818  11.318  0.5109  0.0540  0.3506
  844MOL0     H16403   9.967   3.886  10.951  2.0022 -2.6422 -0.6671
  844MOL0     H16404   9.905   3.777  10.747  0.6277 -1.8794 -0.1045
  844MOL0     H16405   9.772   3.692  10.561  0.8830 -0.5464  0.4151
  844MOL0     H16406   9.643   3.769  10.640 -3.1972 -0.2046  0.0924
  844MOL0     H16407   9.566   3.666  10.429  0.4050 -0.2819 -2.0112
  844MOL0     H16408   9.620   3.506  10.464 -0.5542 -0.7554  1.2800
  844MOL0     H16409   9.436   3.490  10.648 -2.4394  2.9893  2.5217
  844MOL0     H16410   9.384   3.653  10.592 -0.4939  0.9321 -4.9470
  844MOL0     H16411   9.375   3.528  10.362 -1.2495 -0.1342 -0.2337
  844MOL0     H16412   9.366   3.382  10.450  0.7661 -0.1439  0.9653
  844MOL0     H16413   9.191   3.619  10.501  1.4459  0.1127  1.4544
  844MOL0     H16414   9.169   3.473  10.600 -0.6003  0.7347  0.6643
  844MOL0     H16415   9.132   3.509  10.297  1.7850 -1.5331 -0.7372
  844MOL0     H16416   9.135   3.358  10.356 -2.1996 -1.8072  2.6073
  844MOL0     H16417   8.933   3.577  10.467 -1.4498  0.0188  0.8270
  844MOL0     H16418   8.944   3.409  10.531 -1.0577 -0.3215 -1.4472
  844MOL0     H16419   8.861   3.505  10.254  0.2926  0.8129 -0.3286
  844MOL0     H16420   8.862   3.331  10.302  1.4167  1.6200 -3.3465
  844MOL0     H16421   8.712   3.344  10.602 -1.9851 -1.6484  1.6536
  844MOL0     H16422   8.408   3.320  10.671  0.4102  0.3987  0.4869
  844MOL0     H16423   8.545   3.205  10.647  1.1838  1.8200 -1.4236
  844MOL0     H16424   8.261   3.163  10.570 -1.4532  2.5269 -2.8206
  844MOL0     H16425   8.341   3.189  10.425 -2.3246  0.8403  1.5891
  844MOL0     H16426   8.453   2.978  10.618 -0.3401  3.3715  1.1036
  844MOL0     H16427   8.345   2.942  10.487  0.7313  1.3457 -0.6461
  844MOL0     H16428   8.517   3.085  10.346 -0.5310  0.1922 -0.7441
  844MOL0     H16429   8.621   3.065  10.468  0.1168  4.3967 -5.4384
  844MOL0     H16430   8.700   2.920  10.606 -0.4510  2.1650 -4.7253
  844MOL0     H16431   8.840   2.861  10.807 -0.6837  1.0333 -0.0266
  844MOL0     H16432   8.993   2.802  10.748 -0.8420  2.0910 -0.3709
  844MOL0     H16433   8.894   2.691  10.828  1.1793  0.2512  0.6059
  844MOL0     H16434   9.101   2.278  10.722 -1.2385 -1.1551  0.3554
  844MOL0     H16435   9.321   2.172  10.639  0.1107  0.4233 -1.2720
  844MOL0     H16436   9.496   2.133  10.544  2.2739  4.3186 -1.2984
  844MOL0     H16437   9.456   1.985  10.453  1.1955  0.3831  2.9507
  844MOL0     H16438   9.630   2.223  10.362  1.0745  0.1911 -0.0572
  844MOL0     H16439   9.693   2.062  10.418 -3.1893 -3.7760  0.8587
  844MOL0     H16440   9.702   2.096  10.165  2.9030 -1.4337  2.1750
  844MOL0     H16441   9.531   2.123  10.162  2.9402  1.8898 -1.3820
  844MOL0     H16442   9.523   1.877  10.227 -1.0226  0.0213  0.2654
  844MOL0     H16443   9.689   1.879  10.282  0.7154 -2.8745 -1.9164
  844MOL0     H16444   9.614   1.947   9.988  1.1000 -2.3973 -1.2100
  844MOL0     H16445   9.770   1.887  10.051 -0.0693 -2.5853 -0.1963
  844MOL0     H16446   9.536   1.716   9.998 -1.5554  0.9828  1.3891
  844MOL0     H16447   9.678   1.653  10.091 -0.2730  0.6374  0.8429
  844MOL0     H16448   9.818   1.724   9.894  0.3138  1.9540 -1.1027
  844MOL0     H16449   9.682   1.791   9.810  2.0639 -0.9199 -1.2824
  844MOL0     H16450   9.573   1.570   9.794  0.1362  3.0228 -3.1959
  844MOL0     H16451   9.701   1.493   9.901  2.3879 -2.3620 -2.1080
  844MOL0     H16452   9.163   2.234  10.241  3.0228 -0.8069  0.6184
  844MOL0     H16453   8.962   2.295  10.324 -1.2562  0.3003  0.5630
  844MOL0     H16454   8.769   2.482  10.397 -0.1315  0.1425 -1.9665
  844MOL0     H16455   8.623   2.648  10.301 -2.7759 -0.3323  1.3815
  844MOL0     H16456   9.658   3.504  10.954 -1.5611  0.0056  1.7835
  844MOL0     H16457   9.776   3.579  11.176 -2.2734 -0.5325 -0.5221
  844MOL0     H16458   9.815   4.079  11.426 -0.1253 -2.1453 -0.2784
  844MOL0     H16459   9.904   4.143  11.640  1.5359 -0.3051  1.7370
  844MOL0     H16460  10.240   3.920  11.807 -0.9300 -0.1539 -3.1922
  844MOL0     H16461  10.324   4.057  11.746  0.8073 -0.6204  0.6371
  844MOL0     H16462  10.320   4.174  11.940  0.3506 -0.3291  2.0600
  844MOL0     H16463  10.342   4.005  11.989 -0.6455 -1.8277 -1.0051
  844MOL0     H16464  10.200   4.146  12.136  3.8592 -0.8968 -1.0769
  844MOL0     H16465  10.083   4.159  12.001  1.0175 -0.4180 -1.2749
  844MOL0     H16466  10.037   3.983  12.188  0.0934  1.1585 -1.0203
  844MOL0     H16467  10.168   3.893  12.111  0.6307 -0.0098 -0.8760
  844MOL0     H16468   9.861   3.831  11.835 -1.3853 -0.3661  1.8245
  844MOL0     H16469  10.244   3.898  11.587 -2.5624 -4.5612  2.4134
  844MOL0     H16470  10.149   3.717  11.322  1.3704 -0.3082  0.7379
  844MOL0     H16471  10.199   3.858  11.216  0.5430  0.2290  0.4212
  844MOL0     H16472  10.296   3.805  11.349  0.7440 -1.5827 -0.9671
  845MOL0     O16473   3.116   4.686   2.273  0.7044 -0.2252 -0.3637
  845MOL0     C16474   3.147   4.805   2.307  0.8258  0.1992  0.8598
  845MOL0     O16475   3.135   4.912   2.219  0.1633 -0.5010 -0.2908
  845MOL0     C16476   3.115   4.896   2.082  0.3977  1.2435 -1.5776
  845MOL0     C16477   2.993   4.825   2.032 -0.3964  0.0718  0.4856
  845MOL0     C16478   2.980   4.815   1.894 -0.3167 -0.3369  0.2282
  845MOL0     C16479   3.076   4.876   1.811 -0.1266  0.2651  0.3236
  845MOL0     O16480   3.081   4.889   1.667 -0.1409 -0.0985  0.4666
  845MOL0     C16481   2.987   4.828   1.585 -0.0364 -0.2569  0.5509
  845MOL0     C16482   2.943   4.926   1.480  1.6468 -0.3414 -0.0161
  845MOL0     C16483   3.038   4.940   1.373 -0.1074  0.1844 -0.3484
  845MOL0     C16484   2.987   5.011   1.251  0.1223 -0.3406  0.2660
  845MOL0     C16485   3.099   5.010   1.156 -0.5312  0.1777 -0.4871
  845MOL0     C16486   3.039   5.023   1.014 -0.3875  0.0116  0.4616
  845MOL0     C16487   3.143   5.017   0.903 -0.3590  0.7367 -0.1452
  845MOL0     C16488   3.173   4.880   0.832  0.6487 -0.0320  1.2315
  845MOL0     N16489   3.293   4.817   0.873  0.5354  0.2246  0.0765
  845MOL0     C16490   3.318   4.754   0.990 -0.2185 -0.3748 -0.1283
  845MOL0     C16491   3.451   4.723   0.979 -0.5972  0.4188  0.0348
  845MOL0     C16492   3.542   4.665   1.086  0.3311 -1.0022  0.1629
  845MOL0     C16493   3.546   4.513   1.098 -0.6226 -0.1826 -0.2085
  845MOL0     C16494   3.674   4.470   1.036 -0.1156 -0.2010  1.2872
  845MOL0     C16495   3.662   4.434   0.884 -1.1511 -0.8588  0.4845
  845MOL0     O16496   3.601   4.305   0.877 -0.3652 -0.2872  0.0706
  845MOL0     C16497   3.503   4.288   0.780 -0.3971 -0.5422  0.9412
  845MOL0     C16498   3.482   4.165   0.718  0.6812 -0.2559 -0.1506
  845MOL0     C16499   3.374   4.143   0.631  0.9893  0.5239 -0.2500
  845MOL0     C16500   3.350   4.007   0.573  0.1891  0.4183 -1.0349
  845MOL0     C16501   3.278   4.249   0.610 -0.3993 -0.1178 -0.2342
  845MOL0     C16502   3.165   4.226   0.512 -0.4751  0.3603  0.2705
  845MOL0     O16503   3.163   4.133   0.406 -0.2920  0.3838 -0.3371
  845MOL0     C16504   3.101   4.168   0.290  0.1602  0.3926 -0.1001
  845MOL0     C16505   3.179   4.194   0.175  0.1308  0.5987 -0.3476
  845MOL0     C16506   3.112   4.224   0.051  0.8349 -0.2578  0.2597
  845MOL0     C16507   2.974   4.215   0.036 -1.4186 -0.6045  0.3045
  845MOL0     O16508   2.923   4.227  -0.092 -0.3041 -0.1133  0.3641
  845MOL0     C16509   2.864   4.096  -0.136  1.0130 -0.0172 -0.3800
  845MOL0     C16510   2.905   4.085  -0.275 -0.7186 -0.2853  0.2445
  845MOL0     C16511   2.830   4.195  -0.356  0.0928 -0.1052 -0.1014
  845MOL0     C16512   2.840   4.167  -0.506  0.7830 -0.4457  0.4643
  845MOL0     C16513   2.786   4.298  -0.570  0.4821 -0.1281  0.5001
  845MOL0     C16514   2.747   4.273  -0.717 -0.1326  0.0087  0.0861
  845MOL0     C16515   2.871   4.256  -0.802 -0.7374 -0.1242 -0.0121
  845MOL0     C16516   2.834   4.227  -0.947  0.2736 -1.2382  0.3788
  845MOL0    Cl16517   2.744   4.364  -1.033 -0.3802  0.5780  0.1311
  845MOL0     C16518   2.896   4.179   0.152 -0.5708  0.1373  1.8904
  845MOL0     C16519   2.959   4.153   0.270 -0.3827 -0.7920 -0.4025
  845MOL0     O16520   3.080   4.306   0.529  0.2269  0.1561  0.1414
  845MOL0     C16521   3.296   4.363   0.680 -0.4485 -0.2320  0.2237
  845MOL0     C16522   3.410   4.386   0.756 -0.7703  0.4534  0.0839
  845MOL0     N16523   3.499   4.758   0.853  0.3761  0.0118 -0.7451
  845MOL0     N16524   3.406   4.818   0.800 -0.5169  0.8119  0.9547
  845MOL0     C16525   3.187   4.941   1.867 -0.8803  0.9866 -0.2446
  845MOL0     C16526   3.199   4.959   2.001 -0.2014  0.5610  0.1110
  845MOL0     C16527   3.199   4.849   2.437 -0.0278  0.0570  0.1883
  845MOL0     C16528   3.242   4.982   2.451 -0.4056 -0.5675  0.4708
  845MOL0     C16529   3.292   5.030   2.571 -0.1766 -0.1776  0.0194
  845MOL0     C16530   3.307   4.957   2.684  0.1891 -0.2955 -0.5667
  845MOL0     O16531   3.362   5.016   2.798  0.4587 -0.7752  0.2716
  845MOL0     C16532   3.368   4.936   2.914  0.2382  1.1318  0.2256
  845MOL0     C16533   3.414   5.016   3.038  0.4810 -0.1300  0.3344
  845MOL0     C16534   3.563   5.079   3.009  0.1065  0.0406 -0.8569
  845MOL0     C16535   3.641   5.131   3.129  0.4102 -0.6812  0.3760
  845MOL0     C16536   3.571   5.255   3.174 -1.0995 -0.6022  0.7135
  845MOL0     C16537   3.547   5.366   3.211  0.1776 -0.2249 -0.2754
  845MOL0     C16538   3.273   4.819   2.673  0.2052 -0.1736 -0.8974
  845MOL0     C16539   3.225   4.764   2.550 -0.5186 -1.0677  0.2056
  845MOL0     C16540   3.217   4.618   2.556  0.8972  0.0726  0.3440
  845MOL0     H16541   2.919   4.788   2.103 -1.4107 -0.0787 -0.6262
  845MOL0     H16542   2.891   4.761   1.862 -0.7234  0.2668  0.3052
  845MOL0     H16543   2.899   4.793   1.639  1.0915 -3.1594  0.6796
  845MOL0     H16544   3.033   4.747   1.528  1.4168  1.4211 -0.7837
  845MOL0     H16545   2.842   4.911   1.442  0.9450  2.3363  0.5835
  845MOL0     H16546   2.923   5.027   1.519  0.6094 -0.6211  0.2179
  845MOL0     H16547   3.133   4.978   1.412  0.8869 -1.9443 -0.5683
  845MOL0     H16548   3.064   4.838   1.344  1.2681  0.1192  1.0108
  845MOL0     H16549   2.887   4.979   1.219  0.2326  2.1440 -3.1017
  845MOL0     H16550   2.974   5.119   1.256  0.9376 -0.1437 -1.1302
  845MOL0     H16551   3.160   4.919   1.165  0.3240  0.2220 -4.1788
  845MOL0     H16552   3.163   5.097   1.172 -3.5169  2.0521  2.3528
  845MOL0     H16553   2.965   4.943   0.999  0.8290 -1.4912  2.0584
  845MOL0     H16554   2.992   5.122   1.015  0.6016  0.5515 -1.2038
  845MOL0     H16555   3.235   5.071   0.929  0.3924 -0.4579 -0.2189
  845MOL0     H16556   3.097   5.073   0.821 -0.8192 -0.6885 -0.8860
  845MOL0     H16557   3.094   4.806   0.848 -0.6884  0.2626 -2.7809
  845MOL0     H16558   3.187   4.905   0.726  2.3047 -0.1339  1.4087
  845MOL0     H16559   3.264   4.717   1.077  0.5862 -4.4266 -1.1323
  845MOL0     H16560   3.512   4.711   1.181  1.4567  2.5344 -1.0418
  845MOL0     H16561   3.638   4.715   1.070 -0.3548  0.1496 -0.4815
  845MOL0     H16562   3.550   4.489   1.205 -0.0401 -1.0308 -0.4145
  845MOL0     H16563   3.460   4.466   1.050 -0.2632 -0.0911 -0.9684
  845MOL0     H16564   3.758   4.539   1.046  0.6991 -1.1449  1.1500
  845MOL0     H16565   3.724   4.389   1.090 -1.9541 -1.7450  0.8095
  845MOL0     H16566   3.623   4.516   0.823 -0.6791  0.4771  1.8899
  845MOL0     H16567   3.764   4.409   0.855 -0.7714 -1.1505  1.9813
  845MOL0     H16568   3.535   4.077   0.751  0.9077 -0.4920 -1.1050
  845MOL0     H16569   3.381   4.007   0.468  0.9250 -2.1050 -0.8912
  845MOL0     H16570   3.247   3.969   0.575  0.0670  0.6647 -2.0125
  845MOL0     H16571   3.416   3.930   0.614 -0.3849  0.4816  0.0207
  845MOL0     H16572   3.286   4.192   0.191  0.2919  5.0713  0.1767
  845MOL0     H16573   3.166   4.245  -0.041 -2.5524 -1.3184 -2.1644
  845MOL0     H16574   2.905   4.015  -0.074 -0.3279 -2.0799 -2.0482
  845MOL0     H16575   2.755   4.092  -0.136  1.0370 -2.0433 -0.6954
  845MOL0     H16576   3.014   4.095  -0.283  0.3819 -4.8590  4.8266
  845MOL0     H16577   2.879   3.986  -0.314 -0.2234 -1.5726  2.9917
  845MOL0     H16578   2.884   4.288  -0.339  0.8491 -0.2097 -1.8030
  845MOL0     H16579   2.723   4.189  -0.334 -0.5277  2.8017 -1.7799
  845MOL0     H16580   2.798   4.075  -0.547  1.9587 -0.4037 -0.9113
  845MOL0     H16581   2.945   4.156  -0.533  1.1441  0.3222  1.4742
  845MOL0     H16582   2.693   4.325  -0.518  0.6848  2.0043 -0.1472
  845MOL0     H16583   2.855   4.382  -0.560  0.6795 -0.2006 -0.1903
  845MOL0     H16584   2.686   4.357  -0.750  0.6400  0.5258 -0.0711
  845MOL0     H16585   2.675   4.192  -0.720 -2.8001  2.2496 -1.6401
  845MOL0     H16586   2.938   4.180  -0.760 -0.9463  0.6233  1.7585
  845MOL0     H16587   2.928   4.350  -0.798 -2.8191  1.2124 -0.4077
  845MOL0     H16588   2.775   4.136  -0.950 -0.3988 -0.9692  3.1467
  845MOL0     H16589   2.930   4.202  -0.994 -0.6765 -3.2833 -0.5550
  845MOL0     H16590   2.790   4.162   0.143 -0.1952 -2.1002  1.2958
  845MOL0     H16591   2.893   4.123   0.351 -0.6454  0.0916 -0.2756
  845MOL0     H16592   3.215   4.436   0.682  0.6667  1.0316  0.8710
  845MOL0     H16593   3.408   4.487   0.794  0.2833  2.2405 -4.0711
  845MOL0     H16594   3.255   4.974   1.790  1.2600 -1.3829  0.5049
  845MOL0     H16595   3.265   5.038   2.034 -0.9337  2.0070 -1.6785
  845MOL0     H16596   3.221   5.058   2.376 -0.5784 -1.4008 -0.3318
  845MOL0     H16597   3.308   5.137   2.569 -1.0658 -0.0247 -2.4572
  845MOL0     H16598   3.273   4.885   2.935  0.3708  1.0598  0.6529
  845MOL0     H16599   3.440   4.856   2.894 -1.6629 -0.4071 -0.8976
  845MOL0     H16600   3.405   4.951   3.125  3.0320 -0.9954  0.0317
  845MOL0     H16601   3.352   5.106   3.026  0.2340 -0.0978  1.7391
  845MOL0     H16602   3.620   5.005   2.952 -0.5851 -0.2574 -1.1694
  845MOL0     H16603   3.539   5.162   2.942 -2.1310 -0.5201 -0.8466
  845MOL0     H16604   3.739   5.152   3.085  0.8666 -2.3980  0.4991
  845MOL0     H16605   3.650   5.047   3.198  0.1809  0.1958  1.4949
  845MOL0     H16606   3.514   5.462   3.246 -1.7442 -0.5460 -1.0739
  845MOL0     H16607   3.304   4.745   2.746  1.9036  0.9390 -0.4282
  845MOL0     H16608   3.216   4.570   2.654 -1.5127  3.7241  2.3392
  845MOL0     H16609   3.131   4.586   2.496  1.5751  1.7571 -1.6578
  845MOL0     H16610   3.310   4.574   2.520  0.1748 -1.2178 -0.0299
  846MOL0     O16611   2.567   9.613   2.231 -0.4071 -0.6449 -0.5807
  846MOL0     C16612   2.573   9.580   2.347  1.1495  0.3709  0.0955
  846MOL0     O16613   2.529   9.653   2.455 -0.0226 -0.0859 -0.2384
  846MOL0     C16614   2.490   9.775   2.458 -0.3096  0.2623 -0.2094
  846MOL0     C16615   2.562   9.876   2.400 -0.4198  0.7323  0.4247
  846MOL0     C16616   2.529  10.016   2.423  0.1775  0.3406  0.2451
  846MOL0     C16617   2.408  10.047   2.490 -0.2925 -0.0946  0.0433
  846MOL0     O16618   2.386  10.182   2.496  0.4369  0.3709 -0.1099
  846MOL0     C16619   2.323  10.230   2.613  0.0898 -0.3428  0.8079
  846MOL0     C16620   2.392  10.343   2.678 -1.1309  0.5298  1.1027
  846MOL0     C16621   2.384  10.467   2.590 -0.6307 -0.2943 -1.2061
  846MOL0     C16622   2.462  10.583   2.668  0.6741 -1.0306  0.1012
  846MOL0     C16623   2.392  10.619   2.798  0.5967  0.7887 -0.1675
  846MOL0     C16624   2.479  10.705   2.883 -0.4036 -0.4907 -0.1701
  846MOL0     C16625   2.412  10.758   3.014 -0.3655  0.8536  0.2124
  846MOL0     C16626   2.319  10.858   2.974 -0.0668 -0.3440  0.9171
  846MOL0     N16627   2.368  10.969   2.892  0.2518  0.4040 -0.1900
  846MOL0     C16628   2.458  11.056   2.939  0.3364  0.6138  0.3713
  846MOL0     C16629   2.500  11.128   2.831  0.6517  0.2040  0.1131
  846MOL0     C16630   2.580  11.257   2.850  0.4890  0.8605  0.5184
  846MOL0     C16631   2.723  11.205   2.888  0.4565 -1.4238 -1.1069
  846MOL0     C16632   2.856  11.285   2.870 -0.6420  0.0164  0.4569
  846MOL0     C16633   2.964  11.196   2.933  0.2793  0.5532 -0.3393
  846MOL0     O16634   3.091  11.208   2.871  0.8594 -0.1684  0.2248
  846MOL0     C16635   3.126  11.134   2.769 -0.1845  0.6020  0.1697
  846MOL0     C16636   3.263  11.138   2.738 -0.6019  0.8201 -0.4889
  846MOL0     C16637   3.313  11.052   2.634  0.1061  0.1406  0.7880
  846MOL0     C16638   3.463  11.072   2.595  0.2552 -0.0261 -0.6307
  846MOL0     C16639   3.226  10.956   2.568 -0.7267  0.3969 -0.1649
  846MOL0     C16640   3.265  10.873   2.451  0.1162 -0.0299 -0.3678
  846MOL0     O16641   3.191  10.766   2.428 -0.0948  0.0318 -0.2528
  846MOL0     C16642   3.213  10.676   2.321  0.0924 -0.7379 -0.4650
  846MOL0     C16643   3.113  10.656   2.233  0.1864  0.1343 -0.0196
  846MOL0     C16644   3.137  10.593   2.110  0.3789 -1.0059  0.7226
  846MOL0     C16645   3.263  10.533   2.082  0.0655  0.2207 -1.1590
  846MOL0     O16646   3.270  10.462   1.970 -0.0082  0.1339 -0.0043
  846MOL0     C16647   3.276  10.321   1.997  1.0879  0.3559  0.7871
  846MOL0     C16648   3.273  10.240   1.873 -1.4807  0.1464  0.3253
  846MOL0     C16649   3.381  10.280   1.775 -0.4613  0.4351 -0.2221
  846MOL0     C16650   3.390  10.190   1.650  0.3499  0.2652  0.5115
  846MOL0     C16651   3.515  10.221   1.562 -0.4033 -0.2597  0.3486
  846MOL0     C16652   3.532  10.095   1.478  0.5922 -0.5691  0.5816
  846MOL0     C16653   3.668  10.084   1.403  0.2469 -0.4925  0.4755
  846MOL0     C16654   3.715  10.228   1.365 -0.0041 -0.3639 -0.6441
  846MOL0    Cl16655   3.596  10.298   1.259 -0.9424  0.4626 -0.2533
  846MOL0     C16656   3.362  10.544   2.179 -0.1255  0.2064  0.3417
  846MOL0     C16657   3.338  10.620   2.294  0.5419  1.3748 -0.2395
  846MOL0     O16658   3.356  10.911   2.377 -0.4950 -0.4816 -0.2179
  846MOL0     C16659   3.093  10.942   2.617 -0.0120 -0.5111 -0.7720
  846MOL0     C16660   3.051  11.027   2.718 -0.2988 -0.3385 -0.7714
  846MOL0     N16661   2.434  11.074   2.722 -0.1945  0.5118 -0.1683
  846MOL0     N16662   2.349  10.985   2.758 -1.0559 -0.3519  0.3801
  846MOL0     C16663   2.334   9.940   2.540 -1.0033 -0.7037  0.0559
  846MOL0     C16664   2.374   9.813   2.521 -0.5899  0.3539 -0.2516
  846MOL0     C16665   2.620   9.441   2.365  0.4723  0.1446 -0.3532
  846MOL0     C16666   2.558   9.361   2.456 -0.5242  0.0871  0.2411
  846MOL0     C16667   2.600   9.227   2.467 -1.0858  0.2309 -0.8539
  846MOL0     C16668   2.708   9.176   2.396 -0.8487 -0.1290  0.1176
  846MOL0     O16669   2.751   9.050   2.418 -0.1613  0.0406 -0.6165
  846MOL0     C16670   2.882   9.007   2.373 -0.0301 -0.5024 -0.0937
  846MOL0     C16671   2.904   8.863   2.419  0.0265 -0.2751 -0.5914
  846MOL0     C16672   3.042   8.811   2.365  0.3269  1.1008 -0.3948
  846MOL0     C16673   3.059   8.667   2.403  0.2690 -0.0890  0.4794
  846MOL0     C16674   3.115   8.587   2.289  1.0638 -1.2713  0.1530
  846MOL0     C16675   3.166   8.544   2.186  0.2728  1.3218  1.2935
  846MOL0     C16676   2.773   9.263   2.308  0.2223 -0.3884 -0.0766
  846MOL0     C16677   2.740   9.399   2.300  0.2340 -0.1181  0.2404
  846MOL0     C16678   2.833   9.494   2.227  0.5740 -0.1398 -0.7273
  846MOL0     H16679   2.653   9.852   2.346  1.5335  4.3664  1.7413
  846MOL0     H16680   2.575  10.087   2.356  0.7432  1.1977  1.5061
  846MOL0     H16681   2.323  10.156   2.694 -4.1209 -0.1757  1.2041
  846MOL0     H16682   2.217  10.251   2.598  0.4743  1.9947  1.0651
  846MOL0     H16683   2.347  10.349   2.778  1.6098 -1.0935  2.5522
  846MOL0     H16684   2.495  10.306   2.681 -1.4810 -0.7954 -1.2757
  846MOL0     H16685   2.438  10.448   2.497 -1.0566 -0.6791 -1.3759
  846MOL0     H16686   2.282  10.503   2.576  0.2580  2.3867 -1.3717
  846MOL0     H16687   2.565  10.551   2.684  1.1688  0.2264 -0.3720
  846MOL0     H16688   2.460  10.663   2.593  1.6832  0.1373  1.2932
  846MOL0     H16689   2.381  10.531   2.862  0.1441  2.5075  2.2490
  846MOL0     H16690   2.289  10.652   2.781  1.3288  4.9309  2.1818
  846MOL0     H16691   2.559  10.641   2.921 -2.4631 -1.8391  2.2405
  846MOL0     H16692   2.520  10.781   2.816  0.1244 -1.9816 -1.5853
  846MOL0     H16693   2.490  10.797   3.080 -0.9177 -0.3988  1.6563
  846MOL0     H16694   2.352  10.673   3.048 -1.7554 -0.5511 -4.8841
  846MOL0     H16695   2.229  10.817   2.928 -1.6730  1.0991  2.5810
  846MOL0     H16696   2.273  10.905   3.062 -3.4556  0.0085 -0.8535
  846MOL0     H16697   2.484  11.076   3.043 -0.2364 -0.0846  0.6573
  846MOL0     H16698   2.546  11.323   2.930  2.6520  1.9407  0.6372
  846MOL0     H16699   2.567  11.312   2.757  0.0743 -0.3654 -0.1662
  846MOL0     H16700   2.713  11.173   2.992  1.9847 -0.7123 -0.7045
  846MOL0     H16701   2.744  11.107   2.845 -2.4440 -2.6416  0.0073
  846MOL0     H16702   2.870  11.302   2.763 -0.2860  1.0547  0.6482
  846MOL0     H16703   2.857  11.378   2.928 -1.1250 -0.4804  1.2841
  846MOL0     H16704   2.981  11.226   3.038  3.2106 -0.3862 -0.4418
  846MOL0     H16705   2.932  11.092   2.945 -5.1439  1.5913 -2.8864
  846MOL0     H16706   3.329  11.212   2.782  3.8141 -2.5417 -0.7040
  846MOL0     H16707   3.519  10.979   2.583  0.6817  0.0093  0.8872
  846MOL0     H16708   3.514  11.134   2.669  0.6244 -1.1917  0.1212
  846MOL0     H16709   3.478  11.124   2.501  4.5306 -2.9987 -1.9056
  846MOL0     H16710   3.014  10.700   2.240 -0.4835 -0.8007 -2.3713
  846MOL0     H16711   3.050  10.585   2.046  0.3956 -2.5974  0.8597
  846MOL0     H16712   3.358  10.298   2.066  0.0903 -0.6562  1.6817
  846MOL0     H16713   3.189  10.293   2.058 -0.2436  0.8549 -0.8315
  846MOL0     H16714   3.280  10.135   1.900  0.7087 -0.6515 -2.8047
  846MOL0     H16715   3.180  10.253   1.819 -0.6727 -1.8815 -1.6948
  846MOL0     H16716   3.479  10.286   1.823  0.0490 -1.2578 -0.9937
  846MOL0     H16717   3.352  10.379   1.740 -0.8319  0.5140  0.3045
  846MOL0     H16718   3.302  10.182   1.585  2.6457  2.7401 -3.2908
  846MOL0     H16719   3.397  10.088   1.688  1.2458 -0.3096 -1.1098
  846MOL0     H16720   3.494  10.306   1.497 -0.7129 -1.3154 -0.9771
  846MOL0     H16721   3.603  10.245   1.622  0.1460  0.5560 -0.7426
  846MOL0     H16722   3.446  10.099   1.411  0.2462 -0.6227  1.0221
  846MOL0     H16723   3.507  10.005   1.534 -1.9321 -0.3741 -0.1188
  846MOL0     H16724   3.665  10.019   1.315 -0.3994  0.5359 -0.2857
  846MOL0     H16725   3.751  10.061   1.470  3.8780  3.9630 -1.8676
  846MOL0     H16726   3.806  10.221   1.306  0.0679 -0.0575 -0.5663
  846MOL0     H16727   3.739  10.300   1.444  0.5671 -0.9863 -0.2403
  846MOL0     H16728   3.458  10.494   2.175 -0.5631 -0.6279 -3.4751
  846MOL0     H16729   3.427  10.651   2.347  1.9389 -3.0587  0.4710
  846MOL0     H16730   3.022  10.869   2.580 -1.0697 -0.0808  0.3039
  846MOL0     H16731   2.952  11.008   2.757 -0.6273  0.2046 -1.3149
  846MOL0     H16732   2.237   9.976   2.571 -1.4185  0.7598 -2.6316
  846MOL0     H16733   2.314   9.730   2.556  1.0773 -1.5469 -1.6374
  846MOL0     H16734   2.474   9.394   2.518 -0.4239  0.9637 -0.0742
  846MOL0     H16735   2.552   9.166   2.543 -1.9319  0.8162 -0.9023
  846MOL0     H16736   2.886   8.997   2.264 -2.9631  0.0061 -0.3188
  846MOL0     H16737   2.958   9.079   2.408  0.1366 -0.7836  0.1256
  846MOL0     H16738   2.821   8.803   2.381  1.3585 -1.3218 -2.0072
  846MOL0     H16739   2.912   8.869   2.528  1.5705  0.2848 -0.7109
  846MOL0     H16740   3.051   8.813   2.256  1.5802 -0.3871 -0.3603
  846MOL0     H16741   3.125   8.874   2.398  1.6765 -0.7911  0.0211
  846MOL0     H16742   2.965   8.622   2.437 -1.5396  2.3005 -1.0081
  846MOL0     H16743   3.131   8.651   2.484 -0.1117 -3.3189  0.2901
  846MOL0     H16744   3.213   8.533   2.090 -0.3122  5.2444  0.3716
  846MOL0     H16745   2.866   9.227   2.265  0.0100  1.8375 -2.6506
  846MOL0     H16746   2.832   9.595   2.269  1.4491 -0.4746  0.1192
  846MOL0     H16747   2.934   9.456   2.239  1.3473  2.4358  2.8524
  846MOL0     H16748   2.802   9.500   2.122 -2.9891 -2.4068  0.0176
  847MOL0     O16749   1.467   8.393   0.903 -0.0372  0.9640 -0.0939
  847MOL0     C16750   1.530   8.296   0.935 -0.7625  0.0914 -0.0670
  847MOL0     O16751   1.475   8.182   1.008 -0.0984  0.0898  0.9505
  847MOL0     C16752   1.365   8.215   1.078 -0.0807 -0.3789  0.9205
  847MOL0     C16753   1.233   8.198   1.029  0.2119 -0.0592 -0.6114
  847MOL0     C16754   1.125   8.225   1.113 -0.7394 -0.0006  0.0430
  847MOL0     C16755   1.140   8.285   1.241 -0.6876  0.0686  0.2088
  847MOL0     O16756   1.027   8.286   1.325  0.0634 -0.6411 -0.1790
  847MOL0     C16757   0.993   8.423   1.351  0.4418  0.0204  0.2294
  847MOL0     C16758   0.872   8.449   1.441  0.0875  0.6559 -0.1109
  847MOL0     C16759   0.836   8.595   1.443 -0.0030  0.1631 -0.7476
  847MOL0     C16760   0.701   8.619   1.524  0.1579  0.0966  1.0617
  847MOL0     C16761   0.659   8.765   1.525  0.4984  0.3324  0.2220
  847MOL0     C16762   0.764   8.869   1.580  0.0348  0.3710  0.6893
  847MOL0     C16763   0.710   9.002   1.582 -0.0101 -0.7084  0.1071
  847MOL0     C16764   0.777   9.107   1.674  0.0026  0.6729 -0.6856
  847MOL0     N16765   0.920   9.130   1.629  0.5505 -0.1929  0.3611
  847MOL0     C16766   1.024   9.041   1.675  0.0273 -0.1796 -0.6498
  847MOL0     C16767   1.138   9.101   1.631  0.5216 -0.1028 -1.2125
  847MOL0     C16768   1.277   9.065   1.666  0.1553  0.9433  0.6551
  847MOL0     C16769   1.389   9.177   1.665  0.0139  1.0100  0.1915
  847MOL0     C16770   1.451   9.196   1.522 -0.3028  0.3642 -0.8237
  847MOL0     C16771   1.558   9.308   1.508  0.8259  0.5068  0.0231
  847MOL0     O16772   1.479   9.433   1.514 -0.1694  0.3626 -0.2994
  847MOL0     C16773   1.469   9.505   1.397 -0.5988 -0.5478  0.5040
  847MOL0     C16774   1.346   9.500   1.333 -0.3476  0.9295  0.5291
  847MOL0     C16775   1.324   9.560   1.205  0.0196  0.4928 -0.8188
  847MOL0     C16776   1.198   9.509   1.128  0.7108 -0.3570 -0.8176
  847MOL0     C16777   1.427   9.652   1.163 -0.3811 -0.5966  0.1352
  847MOL0     C16778   1.409   9.732   1.040  0.4603 -0.0543  0.1696
  847MOL0     O16779   1.293   9.735   0.982 -0.1673  0.3009 -0.1811
  847MOL0     C16780   1.271   9.829   0.897  0.1599 -0.8428 -0.3102
  847MOL0     C16781   1.229   9.958   0.934  0.0224  0.7122  0.7822
  847MOL0     C16782   1.216  10.052   0.831 -0.5850  0.2696  0.5199
  847MOL0     C16783   1.227  10.016   0.698  0.2242  0.0327 -0.1733
  847MOL0     O16784   1.203  10.110   0.596 -0.8092  0.1755  0.1972
  847MOL0     C16785   1.063  10.144   0.560 -0.7208  0.1566 -0.6449
  847MOL0     C16786   0.984  10.011   0.528 -0.7708 -0.6168 -0.2863
  847MOL0     C16787   0.847  10.049   0.475 -1.0670  0.0272 -0.0698
  847MOL0     C16788   0.749   9.938   0.458  0.8399 -0.2830 -0.0754
  847MOL0     C16789   0.610   9.978   0.408 -0.5404 -0.1610  0.3141
  847MOL0     C16790   0.535  10.030   0.530  0.0107  0.8491 -0.2583
  847MOL0     C16791   0.483   9.913   0.615 -0.4782 -0.0332  0.2799
  847MOL0     C16792   0.534   9.940   0.759  0.6814  0.4700  0.2821
  847MOL0    Cl16793   0.707   9.943   0.775 -0.0141  0.4475  0.0427
  847MOL0     C16794   1.263   9.887   0.669 -1.0959  0.1317  0.5692
  847MOL0     C16795   1.290   9.792   0.766  0.6467 -0.3952 -0.4376
  847MOL0     O16796   1.506   9.802   1.007 -0.2176  0.2738 -0.4507
  847MOL0     C16797   1.546   9.672   1.232 -0.0712  0.9976 -0.0579
  847MOL0     C16798   1.568   9.595   1.347  1.0234 -0.6664 -0.1650
  847MOL0     N16799   1.102   9.216   1.563  0.0878  0.6944 -0.1267
  847MOL0     N16800   0.970   9.235   1.553 -0.0248  0.1846 -0.8343
  847MOL0     C16801   1.264   8.309   1.281 -0.9502 -0.1711 -0.8171
  847MOL0     C16802   1.377   8.270   1.207 -0.4866  0.7187  0.5362
  847MOL0     C16803   1.660   8.268   0.865 -0.6479 -0.1525 -0.3604
  847MOL0     C16804   1.699   8.135   0.837 -0.0092  0.0527  0.0383
  847MOL0     C16805   1.811   8.101   0.772 -0.9954  1.2051 -0.3378
  847MOL0     C16806   1.900   8.206   0.728 -0.2283 -0.0605 -0.2720
  847MOL0     O16807   2.016   8.181   0.652  0.2283  0.1798  0.3506
  847MOL0     C16808   2.085   8.062   0.674 -0.5762 -0.0944  0.4781
  847MOL0     C16809   2.204   8.056   0.577 -0.0483 -0.6028 -0.8876
  847MOL0     C16810   2.231   7.906   0.548  0.3889 -0.4525 -0.8826
  847MOL0     C16811   2.321   7.885   0.419 -0.4000  0.5480 -0.4600
  847MOL0     C16812   2.359   7.737   0.400 -0.0525 -0.3184  0.7830
  847MOL0     C16813   2.376   7.626   0.376  0.1960  0.3237  0.5983
  847MOL0     C16814   1.873   8.338   0.769  0.9081 -0.6678  1.2719
  847MOL0     C16815   1.752   8.376   0.833  0.9306  0.0726 -0.1715
  847MOL0     C16816   1.728   8.526   0.863 -0.3861 -0.0223  0.4587
  847MOL0     H16817   1.216   8.161   0.928  0.4719 -2.2171  0.0846
  847MOL0     H16818   1.025   8.203   1.076 -0.4445 -0.7499 -0.3172
  847MOL0     H16819   0.962   8.462   1.253  1.8169 -1.2875 -0.7789
  847MOL0     H16820   1.072   8.486   1.392 -1.2896  2.5230 -0.0969
  847MOL0     H16821   0.787   8.394   1.399  0.9828 -0.2102 -0.8470
  847MOL0     H16822   0.895   8.412   1.541 -0.3782 -1.0776 -0.6005
  847MOL0     H16823   0.920   8.645   1.492 -0.5967  0.5266 -0.0668
  847MOL0     H16824   0.822   8.638   1.343 -0.8827 -0.9572 -1.1301
  847MOL0     H16825   0.618   8.558   1.488  0.8958  0.2506 -1.0785
  847MOL0     H16826   0.720   8.598   1.629 -1.7110  1.0849  1.6341
  847MOL0     H16827   0.575   8.772   1.594 -0.7054 -1.4644 -0.9815
  847MOL0     H16828   0.633   8.784   1.420  0.3635 -3.6900 -0.6180
  847MOL0     H16829   0.797   8.824   1.674  0.5270 -1.9870 -0.5299
  847MOL0     H16830   0.851   8.860   1.514 -1.9097 -4.5744 -1.7448
  847MOL0     H16831   0.602   9.003   1.601 -0.2758  2.7603 -0.9049
  847MOL0     H16832   0.730   9.043   1.483  3.0682  0.0938  0.9460
  847MOL0     H16833   0.734   9.206   1.662  1.5286  1.7424  1.9679
  847MOL0     H16834   0.777   9.073   1.777  0.9504  4.2882  0.6576
  847MOL0     H16835   1.008   8.949   1.730 -0.8694 -0.0643 -0.6966
  847MOL0     H16836   1.311   8.998   1.587  0.9177  5.0337 -2.8985
  847MOL0     H16837   1.277   9.019   1.765  0.4754 -0.2195  0.1369
  847MOL0     H16838   1.347   9.273   1.698  0.8783  1.8697 -1.1084
  847MOL0     H16839   1.472   9.162   1.736 -2.1836  1.6513  3.0834
  847MOL0     H16840   1.499   9.104   1.487 -2.3924 -0.4738 -1.6329
  847MOL0     H16841   1.367   9.214   1.455 -1.2113 -2.8675 -0.7198
  847MOL0     H16842   1.641   9.305   1.579 -0.0750  0.1629  1.0821
  847MOL0     H16843   1.600   9.297   1.407 -1.8042  2.8605 -1.4588
  847MOL0     H16844   1.270   9.436   1.376 -1.1305 -0.2949 -2.3898
  847MOL0     H16845   1.110   9.569   1.155  0.7130 -0.5133 -0.4608
  847MOL0     H16846   1.172   9.405   1.149 -1.0725  0.4890  1.5866
  847MOL0     H16847   1.212   9.508   1.020  0.8819  0.0963 -0.8012
  847MOL0     H16848   1.210   9.979   1.039 -3.4060  0.6717  0.2710
  847MOL0     H16849   1.193  10.153   0.863  1.6815  0.7519  0.8177
  847MOL0     H16850   1.020  10.183   0.653  2.3360 -2.9465  2.3458
  847MOL0     H16851   1.062  10.218   0.479 -1.1310  0.4940 -0.3363
  847MOL0     H16852   1.045   9.941   0.470 -1.2153 -1.0106 -0.2854
  847MOL0     H16853   0.969   9.954   0.620 -2.1297 -0.2189 -0.2440
  847MOL0     H16854   0.863  10.091   0.376 -0.4304  1.6057  0.6738
  847MOL0     H16855   0.811  10.137   0.530 -0.0720  0.0612  0.5581
  847MOL0     H16856   0.739   9.873   0.545  0.9026  0.2661  0.3535
  847MOL0     H16857   0.788   9.876   0.377 -2.3839 -2.2718 -0.2855
  847MOL0     H16858   0.628  10.044   0.323 -1.7948  0.4008  0.4614
  847MOL0     H16859   0.563   9.888   0.366 -2.1214  0.2213  1.2014
  847MOL0     H16860   0.453  10.088   0.487  1.7281  2.4425 -1.5532
  847MOL0     H16861   0.602  10.093   0.588  0.5953  0.4174 -0.4510
  847MOL0     H16862   0.518   9.817   0.576  0.9830  0.1394  1.1094
  847MOL0     H16863   0.374   9.922   0.620 -0.4102  0.6616  0.5867
  847MOL0     H16864   0.485   9.873   0.830  2.9494 -1.1917  0.3904
  847MOL0     H16865   0.503  10.045   0.761 -0.3127  0.3746 -3.2057
  847MOL0     H16866   1.251   9.867   0.564 -3.4430  1.2170  0.5469
  847MOL0     H16867   1.330   9.699   0.728  0.7916  0.2679 -1.9510
  847MOL0     H16868   1.641   9.717   1.205  0.7135 -0.3334  0.3618
  847MOL0     H16869   1.658   9.609   1.407  0.9154  2.8998 -0.6110
  847MOL0     H16870   1.288   8.348   1.379 -0.9429 -0.8978 -0.5199
  847MOL0     H16871   1.475   8.296   1.246 -2.1392 -0.7253  6.8546
  847MOL0     H16872   1.639   8.048   0.861  0.7645 -0.0932  1.5662
  847MOL0     H16873   1.843   7.997   0.767  0.7711  1.7265 -0.8073
  847MOL0     H16874   2.120   8.052   0.777  0.0251 -0.3069  0.2538
  847MOL0     H16875   2.016   7.981   0.646 -0.3147  0.3206 -1.4826
  847MOL0     H16876   2.297   8.097   0.617  0.0146  0.2538 -1.8634
  847MOL0     H16877   2.166   8.115   0.493 -1.8532  1.3405  1.1918
  847MOL0     H16878   2.284   7.861   0.632 -0.1371  0.9351  0.2151
  847MOL0     H16879   2.138   7.853   0.525 -0.4670 -1.0335  3.1376
  847MOL0     H16880   2.408   7.951   0.431 -0.4950  0.4154  1.2394
  847MOL0     H16881   2.273   7.907   0.324  1.3322  1.5130 -1.1553
  847MOL0     H16882   2.371   7.520   0.360  1.7572 -0.0472  2.2794
  847MOL0     H16883   1.956   8.407   0.757 -1.3295  2.1141  0.6891
  847MOL0     H16884   1.827   8.574   0.860  0.7247 -2.0382  2.0565
  847MOL0     H16885   1.657   8.577   0.798 -1.0549 -1.6053 -0.0968
  847MOL0     H16886   1.682   8.539   0.961 -2.1987  1.2339 -0.5247
  848MOL0     O16887   7.362   2.074   4.980  0.0711  0.1536 -0.2309
  848MOL0     C16888   7.263   2.117   4.932 -0.1954 -0.6104 -0.6291
  848MOL0     O16889   7.175   2.043   4.870  0.7136 -0.3252  0.9502
  848MOL0     C16890   7.175   1.909   4.895 -0.0244 -0.5055  0.1709
  848MOL0     C16891   7.157   1.825   4.786 -0.6840 -0.6263  0.2734
  848MOL0     C16892   7.168   1.688   4.806  0.4953  0.8300  0.5735
  848MOL0     C16893   7.176   1.626   4.929 -0.2474  0.8640  1.0333
  848MOL0     O16894   7.174   1.492   4.960 -0.3013  0.6604 -0.4294
  848MOL0     C16895   7.185   1.391   4.850 -0.7242 -1.2789 -0.4538
  848MOL0     C16896   7.179   1.253   4.896  1.0743  0.5139 -0.0465
  848MOL0     C16897   7.292   1.220   5.000  0.4694 -0.9638 -0.0545
  848MOL0     C16898   7.317   1.064   4.988 -0.1137 -0.6323  0.9636
  848MOL0     C16899   7.348   0.988   5.115  0.4393 -0.2492 -0.4243
  848MOL0     C16900   7.481   1.024   5.172 -0.2845  0.2757  0.8115
  848MOL0     C16901   7.604   0.961   5.093 -0.2589  0.5335  0.4118
  848MOL0     C16902   7.722   0.923   5.185 -0.2055  0.1700 -0.9387
  848MOL0     N16903   7.837   0.878   5.102  0.1767  0.1963  0.5703
  848MOL0     C16904   7.916   0.954   5.016 -0.1773 -0.2935 -0.1447
  848MOL0     C16905   7.986   0.859   4.942  0.7407  0.3263 -1.1617
  848MOL0     C16906   8.098   0.878   4.846 -0.2702 -0.3124  1.2845
  848MOL0     C16907   8.193   0.751   4.831 -0.2891  0.3814  1.0568
  848MOL0     C16908   8.304   0.786   4.720  0.1281  0.5363  0.3755
  848MOL0     C16909   8.370   0.664   4.657  0.4932 -0.1648 -1.0367
  848MOL0     O16910   8.278   0.570   4.609  0.1004  0.3505 -0.4313
  848MOL0     C16911   8.299   0.497   4.493 -0.2617 -0.4673  0.1778
  848MOL0     C16912   8.195   0.419   4.448 -0.0245  0.7679  0.2438
  848MOL0     C16913   8.208   0.341   4.331  0.7196 -0.9415 -0.4174
  848MOL0     C16914   8.088   0.252   4.291 -0.5398 -0.8251 -0.9145
  848MOL0     C16915   8.328   0.348   4.248 -0.3410  0.1440 -0.6536
  848MOL0     C16916   8.352   0.290   4.112 -1.4335  0.0354  0.5467
  848MOL0     O16917   8.485   0.309   4.071 -0.1359  0.6781  0.6356
  848MOL0     C16918   8.521   0.280   3.939 -0.3439  0.4493  0.3928
  848MOL0     C16919   8.436   0.310   3.832 -0.9005 -0.8217 -0.5228
  848MOL0     C16920   8.467   0.273   3.702 -0.5811  0.3247  0.1360
  848MOL0     C16921   8.577   0.187   3.676 -0.1412  0.1310  0.5814
  848MOL0     O16922   8.612   0.154   3.551  0.0082 -0.4588 -0.9137
  848MOL0     C16923   8.503   0.134   3.463 -0.4405 -0.6438  0.2500
  848MOL0     C16924   8.551   0.058   3.338  0.0761  0.7840  0.1861
  848MOL0     C16925   8.531  -0.098   3.350  0.3785 -0.4842  0.2039
  848MOL0     C16926   8.579  -0.164   3.223  0.6567  0.2423  0.0309
  848MOL0     C16927   8.619  -0.305   3.245 -0.3258  0.4735 -0.3084
  848MOL0     C16928   8.664  -0.379   3.112  0.3442 -0.2226 -0.9196
  848MOL0     C16929   8.553  -0.463   3.050 -0.4662 -0.7267 -0.2259
  848MOL0     C16930   8.589  -0.534   2.915 -0.3897  0.1919 -0.2113
  848MOL0    Cl16931   8.433  -0.597   2.832 -0.1230 -0.3131  0.0751
  848MOL0     C16932   8.653   0.160   3.777 -0.2478  0.7315 -0.5038
  848MOL0     C16933   8.630   0.194   3.910 -0.3831 -0.0397 -0.1052
  848MOL0     O16934   8.261   0.241   4.039 -0.2693  0.0381 -1.1560
  848MOL0     C16935   8.434   0.420   4.307 -0.1757 -0.0031 -0.8883
  848MOL0     C16936   8.424   0.492   4.423 -1.0766  0.3193  0.3014
  848MOL0     N16937   7.956   0.735   4.991  0.4296  0.0887 -0.1157
  848MOL0     N16938   7.868   0.744   5.082  0.7011  0.0871 -0.8960
  848MOL0     C16939   7.190   1.710   5.039 -0.2686 -0.0701 -0.1751
  848MOL0     C16940   7.184   1.855   5.020  0.5060 -0.1819 -0.5230
  848MOL0     C16941   7.234   2.273   4.947 -0.7071  0.2515  0.4821
  848MOL0     C16942   7.121   2.326   4.885  0.5317 -0.7476 -0.1891
  848MOL0     C16943   7.114   2.463   4.862 -0.5177 -0.2885 -0.2898
  848MOL0     C16944   7.220   2.546   4.892 -0.2777 -0.4066 -0.9217
  848MOL0     O16945   7.215   2.679   4.855 -0.2928 -0.7817  0.2696
  848MOL0     C16946   7.319   2.769   4.897  0.0088  0.1353 -0.0843
  848MOL0     C16947   7.285   2.914   4.866  0.1567 -0.6076  0.7789
  848MOL0     C16948   7.174   2.973   4.956 -0.4407  0.5199 -0.5154
  848MOL0     C16949   7.190   2.973   5.108 -0.4613 -0.6620 -0.3304
  848MOL0     C16950   7.089   3.038   5.194  0.1780  0.5007 -1.1704
  848MOL0     C16951   7.003   3.076   5.272 -0.1978 -0.9632  0.5151
  848MOL0     C16952   7.312   2.491   4.987 -0.7573  0.6169  0.0418
  848MOL0     C16953   7.321   2.353   5.010 -0.0219 -0.7342 -1.1467
  848MOL0     C16954   7.414   2.313   5.125 -0.3272  0.2272  0.3926
  848MOL0     H16955   7.148   1.855   4.682  2.2599  0.6446  0.2908
  848MOL0     H16956   7.166   1.632   4.713 -1.4830  3.4375 -1.0909
  848MOL0     H16957   7.277   1.406   4.793 -0.0872 -1.1264  0.5927
  848MOL0     H16958   7.104   1.422   4.783 -1.4752 -0.7693  0.6523
  848MOL0     H16959   7.078   1.235   4.933  0.9079  0.1274 -0.6736
  848MOL0     H16960   7.192   1.193   4.805  0.9559 -0.5552  0.6262
  848MOL0     H16961   7.392   1.264   4.992  0.5902 -0.7308  2.2519
  848MOL0     H16962   7.263   1.257   5.098  0.9899 -0.4054 -0.1015
  848MOL0     H16963   7.228   1.022   4.941 -1.4061  0.2135  2.5436
  848MOL0     H16964   7.387   1.053   4.905  1.6345  4.3775  1.4277
  848MOL0     H16965   7.350   0.879   5.109  4.8265 -0.4493  1.1398
  848MOL0     H16966   7.274   1.024   5.188  0.6747 -0.5951 -0.0095
  848MOL0     H16967   7.503   1.131   5.166 -0.9080  0.4668  1.8012
  848MOL0     H16968   7.499   0.989   5.274 -1.4260  1.2634  1.3803
  848MOL0     H16969   7.641   1.033   5.019 -1.8555  0.8430 -0.1169
  848MOL0     H16970   7.578   0.869   5.041  1.1830  0.0483  0.4917
  848MOL0     H16971   7.754   1.003   5.252  0.7090 -1.9440  1.3101
  848MOL0     H16972   7.698   0.836   5.247  0.7805  0.5805  0.0510
  848MOL0     H16973   7.956   1.054   5.003  2.1233 -1.4058 -2.5814
  848MOL0     H16974   8.152   0.972   4.859  0.4193  0.1901 -3.3355
  848MOL0     H16975   8.047   0.891   4.750 -1.6096 -5.8310  0.9001
  848MOL0     H16976   8.255   0.735   4.920  4.4943  2.1746 -1.5743
  848MOL0     H16977   8.141   0.659   4.802  2.6867 -2.3434  3.4753
  848MOL0     H16978   8.273   0.841   4.630  1.8077  1.2613  0.1984
  848MOL0     H16979   8.376   0.856   4.764  0.2881  1.7445 -1.6808
  848MOL0     H16980   8.426   0.709   4.574 -1.6082  2.9938 -0.9019
  848MOL0     H16981   8.444   0.609   4.716 -2.5147 -3.1951  0.2325
  848MOL0     H16982   8.094   0.425   4.487 -1.1054 -2.5028 -1.6827
  848MOL0     H16983   8.038   0.285   4.200 -1.1459  0.6946 -0.0606
  848MOL0     H16984   8.014   0.259   4.371 -0.1681 -2.1052 -0.4355
  848MOL0     H16985   8.117   0.147   4.283 -0.7421 -0.9957  0.3918
  848MOL0     H16986   8.340   0.360   3.841 -1.6895 -1.7099 -3.1263
  848MOL0     H16987   8.415   0.322   3.620  0.3688 -0.6969 -1.1224
  848MOL0     H16988   8.424   0.073   3.509 -1.5576  2.5484  3.0077
  848MOL0     H16989   8.460   0.225   3.422 -0.0590 -1.8457 -3.1292
  848MOL0     H16990   8.498   0.104   3.254  0.1659 -1.7657 -1.3801
  848MOL0     H16991   8.660   0.065   3.339  0.3790 -2.4060  1.1105
  848MOL0     H16992   8.429  -0.133   3.368  0.1816 -1.2387 -2.0510
  848MOL0     H16993   8.586  -0.126   3.440 -1.0479  1.0443  1.6182
  848MOL0     H16994   8.656  -0.099   3.179  1.9767  0.3073  2.2909
  848MOL0     H16995   8.496  -0.155   3.152 -1.7522  3.8103  2.9624
  848MOL0     H16996   8.697  -0.311   3.321 -0.6667 -3.3084 -0.0897
  848MOL0     H16997   8.545  -0.367   3.297  2.1452 -0.1395  2.7886
  848MOL0     H16998   8.749  -0.443   3.140  0.7119  0.5680 -0.1821
  848MOL0     H16999   8.701  -0.306   3.040  0.5154  1.2387  0.5779
  848MOL0     H17000   8.466  -0.405   3.020  0.6876  2.1728  1.6069
  848MOL0     H17001   8.537  -0.542   3.125  1.6278  0.2685  1.3833
  848MOL0     H17002   8.653  -0.619   2.940  0.5436  0.7340 -0.6837
  848MOL0     H17003   8.646  -0.468   2.848 -1.9556  2.9046  0.9549
  848MOL0     H17004   8.727   0.084   3.755 -1.4167 -0.5411 -0.1728
  848MOL0     H17005   8.682   0.157   3.997  1.0735 -0.4095 -1.0886
  848MOL0     H17006   8.534   0.419   4.265 -0.3239 -1.4652 -1.2666
  848MOL0     H17007   8.508   0.540   4.472 -1.8356  0.7236  1.2294
  848MOL0     H17008   7.184   1.665   5.138  1.7904 -0.3323 -0.1398
  848MOL0     H17009   7.188   1.921   5.106 -0.1155 -0.1221 -0.5334
  848MOL0     H17010   7.044   2.272   4.831 -3.3858  2.1007  1.9770
  848MOL0     H17011   7.039   2.514   4.804  0.7490  2.9249  0.6782
  848MOL0     H17012   7.337   2.750   5.003 -2.2512  0.5350  0.4198
  848MOL0     H17013   7.413   2.742   4.847  0.4228 -0.3435  0.9311
  848MOL0     H17014   7.271   2.920   4.758  2.0506  3.8193  0.5402
  848MOL0     H17015   7.370   2.981   4.880  1.0940 -2.1177  2.7530
  848MOL0     H17016   7.166   3.080   4.932  0.2818  1.0967  1.5609
  848MOL0     H17017   7.083   2.924   4.923  0.3581 -0.9709 -0.6076
  848MOL0     H17018   7.288   3.017   5.128 -0.2651 -0.9292 -0.7053
  848MOL0     H17019   7.203   2.868   5.136  3.3318  0.0232  0.9542
  848MOL0     H17020   6.917   3.093   5.333  0.0604 -2.6346  1.4032
  848MOL0     H17021   7.390   2.549   5.035  0.8545 -0.2497 -1.4051
  848MOL0     H17022   7.402   2.208   5.154  1.2559 -0.2866 -0.6804
  848MOL0     H17023   7.519   2.325   5.095 -0.1784  2.7848  1.6556
  848MOL0     H17024   7.406   2.380   5.210  1.2860 -0.5310  1.1841
  849MOL0     O17025   2.351   1.119   8.427 -0.8405 -0.6165  0.0541
  849MOL0     C17026   2.412   1.181   8.517  0.9232  0.6348  0.4680
  849MOL0     O17027   2.520   1.262   8.503 -0.3980 -0.1827 -0.1789
  849MOL0     C17028   2.593   1.271   8.386  0.4085 -1.0047  0.1753
  849MOL0     C17029   2.735   1.287   8.397 -0.0893 -0.5877 -0.2857
  849MOL0     C17030   2.820   1.279   8.278 -0.5785  0.3583 -0.0388
  849MOL0     C17031   2.767   1.260   8.153 -0.3829 -0.2444  0.3414
  849MOL0     O17032   2.853   1.254   8.046 -0.4992  0.3577  0.6367
  849MOL0     C17033   2.896   1.121   8.006  0.2746 -0.7659 -0.3618
  849MOL0     C17034   2.779   1.051   7.943 -0.2387  0.9414  0.6117
  849MOL0     C17035   2.712   1.109   7.812 -1.0262  1.3224  0.4974
  849MOL0     C17036   2.594   1.042   7.747  0.1258 -0.0803 -0.0626
  849MOL0     C17037   2.533   1.147   7.646  0.1942 -0.5470  0.5056
  849MOL0     C17038   2.451   1.068   7.538  0.0052  0.9642 -0.8118
  849MOL0     C17039   2.379   1.147   7.423  0.4197 -0.8495 -0.3249
  849MOL0     C17040   2.314   1.061   7.320  0.1821 -0.2385  0.3410
  849MOL0     N17041   2.230   0.956   7.373  0.3464  0.2752  1.0912
  849MOL0     C17042   2.101   0.965   7.414  0.8452  0.6349 -1.1082
  849MOL0     C17043   2.065   0.833   7.433 -0.6599 -1.0215  0.3005
  849MOL0     C17044   1.927   0.802   7.475  0.8748 -0.7115 -0.8038
  849MOL0     C17045   1.857   0.694   7.405 -0.7218  0.1820  0.3252
  849MOL0     C17046   1.715   0.680   7.478  0.4783  0.2249 -1.4181
  849MOL0     C17047   1.622   0.601   7.384  0.0978 -0.6707  0.0903
  849MOL0     O17048   1.662   0.465   7.365  0.1961  0.1232  0.0417
  849MOL0     C17049   1.563   0.390   7.314 -0.6091  0.6812  0.8030
  849MOL0     C17050   1.549   0.383   7.179 -0.3903  0.5503 -0.0550
  849MOL0     C17051   1.443   0.302   7.118 -0.0885  0.3456  0.2320
  849MOL0     C17052   1.426   0.323   6.966 -0.2892 -0.2690 -0.2878
  849MOL0     C17053   1.342   0.245   7.199 -0.3251 -0.0130  0.4412
  849MOL0     C17054   1.211   0.189   7.148  0.4538  0.3959  0.2615
  849MOL0     O17055   1.108   0.192   7.241 -0.2124 -0.6351 -0.1224
  849MOL0     C17056   1.004   0.111   7.215  0.1285  0.5253  1.1523
  849MOL0     C17057   0.887   0.150   7.181  0.4114  0.4879  0.4868
  849MOL0     C17058   0.783   0.060   7.175 -0.6120  0.5799  0.0978
  849MOL0     C17059   0.813  -0.083   7.196  0.4894 -0.4133 -0.2023
  849MOL0     O17060   0.701  -0.166   7.188 -0.3550  0.3014 -0.8956
  849MOL0     C17061   0.741  -0.284   7.107  0.6196  0.6321 -0.2991
  849MOL0     C17062   0.612  -0.357   7.081 -0.7557  0.4176 -0.1126
  849MOL0     C17063   0.542  -0.412   7.208 -0.4300  0.4954  0.5789
  849MOL0     C17064   0.437  -0.521   7.179  1.0380 -0.9604 -0.1250
  849MOL0     C17065   0.350  -0.553   7.304 -1.3140  0.0669  0.6135
  849MOL0     C17066   0.250  -0.666   7.280  0.5451 -0.7192  1.5876
  849MOL0     C17067   0.113  -0.628   7.223 -0.1378 -0.5411  0.4085
  849MOL0     C17068   0.042  -0.740   7.151 -0.7237 -0.2980  0.1640
  849MOL0    Cl17069  -0.118  -0.688   7.095  0.2627  0.0470 -0.0658
  849MOL0     C17070   0.936  -0.124   7.229  0.4765  0.3052 -0.0033
  849MOL0     C17071   1.030  -0.024   7.232  0.1060 -0.2064 -0.3545
  849MOL0     O17072   1.206   0.146   7.028 -0.1266 -0.1967  0.0610
  849MOL0     C17073   1.362   0.257   7.333  0.8044  0.2377 -0.7051
  849MOL0     C17074   1.459   0.343   7.393 -0.7288  0.5700 -0.1919
  849MOL0     N17075   2.174   0.752   7.399  0.0698  0.3188  0.7306
  849MOL0     N17076   2.272   0.824   7.368  0.0368 -0.7972 -1.1898
  849MOL0     C17077   2.627   1.256   8.148  0.6422  0.8692 -0.0475
  849MOL0     C17078   2.538   1.261   8.255  0.3046 -1.5410  0.3934
  849MOL0     C17079   2.341   1.159   8.647 -0.0537 -0.2153  1.1622
  849MOL0     C17080   2.320   1.277   8.733  0.4930  0.1192 -0.1405
  849MOL0     C17081   2.249   1.271   8.856  1.1033  0.0260 -0.5936
  849MOL0     C17082   2.218   1.152   8.909  0.0803  0.1765 -0.7188
  849MOL0     O17083   2.179   1.143   9.040 -0.6651 -0.4921  0.6131
  849MOL0     C17084   2.186   1.255   9.137 -0.2702 -0.1348 -0.3001
  849MOL0     C17085   2.201   1.211   9.285  0.3959  0.4931 -0.3031
  849MOL0     C17086   2.111   1.079   9.307 -0.5076 -0.5495  0.2312
  849MOL0     C17087   2.133   1.019   9.454  0.2303  0.2409  0.1590
  849MOL0     C17088   2.048   1.092   9.556  0.1141  0.1741 -0.0255
  849MOL0     C17089   1.991   1.166   9.643 -0.6991  0.8008 -0.2874
  849MOL0     C17090   2.241   1.037   8.838 -0.1136  0.3157 -0.9260
  849MOL0     C17091   2.312   1.037   8.718 -0.2063  0.0221  0.2630
  849MOL0     C17092   2.340   0.897   8.671 -0.8256 -0.6406  0.3936
  849MOL0     H17093   2.786   1.306   8.491  0.2370  0.9696 -0.7515
  849MOL0     H17094   2.923   1.296   8.307 -1.1200  1.7603  1.1850
  849MOL0     H17095   2.923   1.064   8.095  0.5014  0.3461  0.2998
  849MOL0     H17096   2.977   1.124   7.933 -1.4790  3.0750 -2.4500
  849MOL0     H17097   2.812   0.953   7.910  0.7087  2.0183 -1.8710
  849MOL0     H17098   2.698   1.036   8.015 -0.1446 -2.0677  0.2062
  849MOL0     H17099   2.684   1.212   7.835  2.7483  2.7350 -0.6120
  849MOL0     H17100   2.792   1.133   7.741 -0.8691 -0.5611 -0.0214
  849MOL0     H17101   2.632   0.949   7.704  2.4286 -0.3353  2.2837
  849MOL0     H17102   2.513   1.007   7.810  0.0153 -0.9199 -0.6500
  849MOL0     H17103   2.608   1.207   7.593 -1.1230 -0.2560 -1.1120
  849MOL0     H17104   2.456   1.208   7.694  0.5070 -0.6111  1.0948
  849MOL0     H17105   2.522   1.001   7.489 -0.6500  0.2413 -0.7795
  849MOL0     H17106   2.378   1.011   7.596 -0.4867  3.9335  1.7688
  849MOL0     H17107   2.454   1.203   7.366  1.1114  0.6279  1.9155
  849MOL0     H17108   2.307   1.210   7.477 -0.8742 -2.0036 -0.6338
  849MOL0     H17109   2.252   1.116   7.248  0.8039 -0.9121 -0.7310
  849MOL0     H17110   2.397   1.015   7.267 -0.3300 -2.1022  1.0775
  849MOL0     H17111   2.030   1.047   7.416  0.6306  0.4317  0.9206
  849MOL0     H17112   1.870   0.896   7.479  2.6654  0.3750  0.8204
  849MOL0     H17113   1.933   0.773   7.580  2.6006  0.8331 -0.4292
  849MOL0     H17114   1.847   0.722   7.300  0.2268 -1.0215 -0.1076
  849MOL0     H17115   1.921   0.608   7.420  0.7616  1.4712  1.7920
  849MOL0     H17116   1.741   0.624   7.568 -0.6301  2.1578  0.1904
  849MOL0     H17117   1.665   0.768   7.521  0.5423 -1.1907  1.8233
  849MOL0     H17118   1.521   0.604   7.427 -0.3506 -0.8714 -0.9251
  849MOL0     H17119   1.626   0.646   7.285 -0.4862  1.9149  1.1593
  849MOL0     H17120   1.636   0.429   7.133 -0.6192  0.3018 -0.7528
  849MOL0     H17121   1.499   0.389   6.918  0.7871 -2.3659 -1.7036
  849MOL0     H17122   1.327   0.351   6.929  0.4646  0.3333 -1.9672
  849MOL0     H17123   1.446   0.228   6.916  2.9416  0.6701 -1.0736
  849MOL0     H17124   0.843   0.247   7.161 -0.7939 -0.0116  0.6814
  849MOL0     H17125   0.685   0.097   7.149 -0.4845 -0.1232 -1.4737
  849MOL0     H17126   0.780  -0.278   7.005  3.2495  1.1928  0.6621
  849MOL0     H17127   0.822  -0.338   7.157 -0.5167 -2.9112 -2.0059
  849MOL0     H17128   0.537  -0.291   7.035 -0.1697  0.5154 -0.9583
  849MOL0     H17129   0.627  -0.435   7.005 -0.5986  2.0698 -1.8750
  849MOL0     H17130   0.481  -0.334   7.254 -1.6829  0.9372 -1.6784
  849MOL0     H17131   0.609  -0.458   7.281 -0.8220  2.0662  1.9811
  849MOL0     H17132   0.484  -0.618   7.156  1.4023 -1.9995  4.2341
  849MOL0     H17133   0.381  -0.482   7.093  1.5689  1.2771  0.4791
  849MOL0     H17134   0.414  -0.590   7.385 -0.0457 -3.6037 -1.7854
  849MOL0     H17135   0.289  -0.469   7.339 -2.5790 -1.7692  3.1478
  849MOL0     H17136   0.244  -0.716   7.377  2.0921 -2.2358  0.9454
  849MOL0     H17137   0.294  -0.741   7.214  2.0629 -0.4540  2.2522
  849MOL0     H17138   0.115  -0.542   7.155 -5.4693 -0.0625  0.4772
  849MOL0     H17139   0.043  -0.602   7.303  0.4169 -0.1407  0.7685
  849MOL0     H17140   0.021  -0.807   7.234 -1.5216  1.0979  1.1195
  849MOL0     H17141   0.099  -0.779   7.066 -3.4331 -1.9551 -1.0421
  849MOL0     H17142   0.963  -0.224   7.263  1.4621  1.0229  1.4533
  849MOL0     H17143   1.114  -0.072   7.281 -1.7985 -1.0038  2.3704
  849MOL0     H17144   1.293   0.199   7.394  0.7669 -2.2379 -2.9277
  849MOL0     H17145   1.455   0.373   7.497 -0.1685 -0.4589  0.1379
  849MOL0     H17146   2.579   1.237   8.052 -0.4791 -2.6442  1.0516
  849MOL0     H17147   2.430   1.266   8.254  0.3114 -1.3922  0.4224
  849MOL0     H17148   2.353   1.371   8.689  0.8209 -0.2364 -0.6600
  849MOL0     H17149   2.228   1.364   8.908  0.1262 -1.4808  1.8759
  849MOL0     H17150   2.249   1.342   9.118  1.8529 -1.5647 -0.0630
  849MOL0     H17151   2.089   1.303   9.121 -0.6711  0.7308  3.6089
  849MOL0     H17152   2.161   1.288   9.352 -2.2976  0.9456 -2.2694
  849MOL0     H17153   2.306   1.192   9.306  0.2983  0.3656  0.0840
  849MOL0     H17154   2.009   1.114   9.291 -0.0868  0.5722 -0.0643
  849MOL0     H17155   2.128   1.014   9.220 -2.4411  1.1754 -1.5594
  849MOL0     H17156   2.238   1.033   9.482  1.4202 -2.4826 -2.4691
  849MOL0     H17157   2.113   0.912   9.449  2.5631 -0.2310 -0.1779
  849MOL0     H17158   1.942   1.228   9.716 -0.6493  2.3488 -1.5234
  849MOL0     H17159   2.211   0.948   8.891 -1.4764  1.1353 -0.2733
  849MOL0     H17160   2.330   0.898   8.562 -0.6662  1.6600  0.3568
  849MOL0     H17161   2.441   0.862   8.694  0.4456  2.5919  0.3275
  849MOL0     H17162   2.273   0.825   8.719  0.4135 -1.4428  0.9831
  850MOL0     O17163   0.373   6.849   9.170  0.0139 -0.1661  0.8391
  850MOL0     C17164   0.429   6.848   9.058  0.3278 -0.4464 -0.6517
  850MOL0     O17165   0.547   6.790   9.030 -0.2633 -0.2294 -0.0285
  850MOL0     C17166   0.589   6.685   9.107 -0.5482  0.4582 -0.9570
  850MOL0     C17167   0.606   6.697   9.249 -0.1154 -0.2373 -0.1650
  850MOL0     C17168   0.670   6.587   9.315 -1.1056 -0.0157 -0.5450
  850MOL0     C17169   0.702   6.470   9.251 -0.3882 -1.9941  0.5256
  850MOL0     O17170   0.754   6.373   9.323  0.2968 -0.3593 -0.8894
  850MOL0     C17171   0.656   6.270   9.332 -0.6853  0.6875  1.0499
  850MOL0     C17172   0.514   6.307   9.365  0.6339 -0.6629 -0.5546
  850MOL0     C17173   0.412   6.184   9.393  0.0672 -0.3693  0.5626
  850MOL0     C17174   0.393   6.090   9.279 -0.1904  0.2577  0.1116
  850MOL0     C17175   0.299   5.977   9.318  0.3177 -0.8347  0.6746
  850MOL0     C17176   0.318   5.847   9.252  0.4036 -0.6762  0.2594
  850MOL0     C17177   0.305   5.864   9.098 -0.5444  0.0165 -1.4377
  850MOL0     C17178   0.278   5.723   9.029  0.1923 -0.1532 -0.9791
  850MOL0     N17179   0.413   5.659   9.009 -0.1241  0.5803 -0.3049
  850MOL0     C17180   0.505   5.681   8.905 -0.0878  0.2259  0.8633
  850MOL0     C17181   0.610   5.605   8.946 -0.7450 -0.1650  1.1249
  850MOL0     C17182   0.747   5.592   8.880  0.7645  0.1758 -0.1009
  850MOL0     C17183   0.718   5.540   8.745 -0.2953 -0.2121 -0.3113
  850MOL0     C17184   0.843   5.533   8.668 -0.0852 -0.4205 -0.1108
  850MOL0     C17185   0.896   5.666   8.602 -0.2783  0.5960  0.3370
  850MOL0     O17186   0.998   5.621   8.508  0.8375 -0.5334  0.0895
  850MOL0     C17187   1.072   5.709   8.427 -0.9773 -0.9579  0.5146
  850MOL0     C17188   1.067   5.851   8.432  0.0468  0.0071 -0.0223
  850MOL0     C17189   1.126   5.929   8.336 -1.3605  0.3737  0.3074
  850MOL0     C17190   1.121   6.072   8.361 -0.3967 -0.2950  0.3171
  850MOL0     C17191   1.207   5.878   8.233 -0.0797  0.1733  0.9300
  850MOL0     C17192   1.287   5.941   8.132 -0.1761 -0.5520  1.2618
  850MOL0     O17193   1.364   5.861   8.048  0.1838  0.2945 -1.0659
  850MOL0     C17194   1.386   5.908   7.918 -0.5692  0.0055  0.4951
  850MOL0     C17195   1.303   6.000   7.847  1.6833  0.5546 -0.1046
  850MOL0     C17196   1.332   6.030   7.716  0.3944 -0.0083  0.5643
  850MOL0     C17197   1.445   5.991   7.661 -0.3008 -0.3887 -0.6711
  850MOL0     O17198   1.485   6.033   7.543 -0.3313  0.2391  0.6878
  850MOL0     C17199   1.412   6.000   7.422 -0.7099 -0.3903 -0.6004
  850MOL0     C17200   1.481   6.078   7.301  1.3936 -1.0155 -0.9469
  850MOL0     C17201   1.616   6.019   7.261 -0.4412 -0.2911  0.9449
  850MOL0     C17202   1.731   6.109   7.200  0.6345  1.2840  0.1549
  850MOL0     C17203   1.836   6.020   7.139 -0.5697  0.3257  0.2866
  850MOL0     C17204   1.970   6.100   7.131 -1.2586  0.0572 -0.0238
  850MOL0     C17205   1.965   6.222   7.036 -0.6503  0.5323  0.0335
  850MOL0     C17206   2.098   6.237   6.967 -0.2257 -0.7211 -0.5279
  850MOL0    Cl17207   2.105   6.384   6.878  0.2115 -0.7279 -1.2314
  850MOL0     C17208   1.534   5.909   7.731  0.0708  0.0493 -0.6772
  850MOL0     C17209   1.515   5.873   7.859 -0.1445  0.5872  0.2409
  850MOL0     O17210   1.290   6.066   8.129  0.7105 -0.0196 -0.0193
  850MOL0     C17211   1.203   5.736   8.228 -0.3412  0.5679  0.2776
  850MOL0     C17212   1.147   5.658   8.317  0.4816  0.7684 -0.5283
  850MOL0     N17213   0.576   5.550   9.075  0.3517 -0.3193  0.0648
  850MOL0     N17214   0.459   5.584   9.107 -0.6645 -0.1527 -0.7014
  850MOL0     C17215   0.685   6.453   9.117  0.3856  0.6111  0.2421
  850MOL0     C17216   0.628   6.568   9.042  0.3170 -0.1749  0.1971
  850MOL0     C17217   0.357   6.909   8.949 -0.5849 -0.6677  0.5556
  850MOL0     C17218   0.406   7.022   8.875 -0.0137  0.4144  0.9941
  850MOL0     C17219   0.337   7.067   8.760 -0.0293 -0.1471  0.0724
  850MOL0     C17220   0.215   7.004   8.715 -0.0341  0.4894  0.2504
  850MOL0     O17221   0.132   7.053   8.623 -0.0155  0.0427  0.5397
  850MOL0     C17222   0.164   7.163   8.539 -0.0185  0.3989 -0.0024
  850MOL0     C17223   0.042   7.241   8.499  0.1125  0.1993 -0.3970
  850MOL0     C17224   0.013   7.357   8.600  0.3460 -0.2433  0.1543
  850MOL0     C17225  -0.011   7.304   8.744 -0.6253  0.0559  0.0391
  850MOL0     C17226  -0.036   7.425   8.830 -0.5620  0.1104 -0.7783
  850MOL0     C17227  -0.056   7.531   8.886 -0.0379  0.3231 -0.0706
  850MOL0     C17228   0.167   6.904   8.792 -0.1050 -0.5454 -0.8404
  850MOL0     C17229   0.237   6.855   8.908  0.4397 -0.2757 -0.5178
  850MOL0     C17230   0.176   6.733   8.983  0.3179 -0.8008 -0.0421
  850MOL0     H17231   0.588   6.786   9.308 -0.0812  0.1703 -0.7679
  850MOL0     H17232   0.691   6.598   9.421 -0.3557  0.8228 -0.7683
  850MOL0     H17233   0.688   6.192   9.403 -0.8112 -0.0421  0.3207
  850MOL0     H17234   0.670   6.213   9.240 -2.4582 -0.0742  1.2224
  850MOL0     H17235   0.515   6.378   9.448 -2.0795  2.8894 -3.2573
  850MOL0     H17236   0.468   6.363   9.283 -1.9974  0.4886  1.5485
  850MOL0     H17237   0.451   6.136   9.483  0.5539 -0.2679  0.4037
  850MOL0     H17238   0.315   6.229   9.419 -0.0644  0.8200 -1.7443
  850MOL0     H17239   0.349   6.141   9.192  3.9733  1.2556 -1.6707
  850MOL0     H17240   0.490   6.041   9.265  0.3523  0.2457  3.3475
  850MOL0     H17241   0.196   6.010   9.298  1.2084  2.7415  1.3094
  850MOL0     H17242   0.319   5.956   9.423  1.4111 -0.4712  0.5498
  850MOL0     H17243   0.414   5.802   9.278 -0.3755 -1.5755  1.7419
  850MOL0     H17244   0.234   5.784   9.285 -1.4363  0.7897 -1.4101
  850MOL0     H17245   0.388   5.918   9.052  1.8893 -1.7291  0.6419
  850MOL0     H17246   0.208   5.912   9.080 -0.6604 -0.1240 -1.1964
  850MOL0     H17247   0.213   5.660   9.090  1.8037 -1.6855 -0.7719
  850MOL0     H17248   0.222   5.743   8.937 -0.5930  2.2289 -0.0747
  850MOL0     H17249   0.501   5.750   8.821  3.9067  1.0681  1.1721
  850MOL0     H17250   0.815   5.532   8.942  1.7529  0.8121 -0.5580
  850MOL0     H17251   0.779   5.696   8.876 -2.0790  1.4121  3.2449
  850MOL0     H17252   0.685   5.435   8.749 -0.6744 -0.1846 -2.0103
  850MOL0     H17253   0.644   5.598   8.690  1.6380  1.8555 -0.8959
  850MOL0     H17254   0.910   5.480   8.737 -4.3339 -2.5160  2.8360
  850MOL0     H17255   0.827   5.460   8.588 -0.2566 -1.4144  0.8039
  850MOL0     H17256   0.819   5.724   8.550 -1.2415 -3.4181 -3.2900
  850MOL0     H17257   0.949   5.733   8.671 -0.6065  0.5284  0.6621
  850MOL0     H17258   1.035   5.897   8.525  0.7024 -0.5115  0.4619
  850MOL0     H17259   1.217   6.123   8.346 -0.0664 -0.5643  1.4583
  850MOL0     H17260   1.097   6.092   8.466  0.9979 -0.3695  0.6712
  850MOL0     H17261   1.047   6.123   8.298  1.1045  1.1606 -0.3607
  850MOL0     H17262   1.206   6.025   7.886  1.1512 -1.5548  0.0341
  850MOL0     H17263   1.262   6.087   7.656 -0.9543 -1.7432  0.4350
  850MOL0     H17264   1.419   5.891   7.413  0.7321 -0.2541 -1.3679
  850MOL0     H17265   1.307   6.029   7.427 -1.0970 -1.2424 -2.8877
  850MOL0     H17266   1.412   6.072   7.216  1.2799 -2.3006 -0.7900
  850MOL0     H17267   1.480   6.184   7.327 -0.0452 -1.2441  0.0265
  850MOL0     H17268   1.589   5.948   7.182 -1.3233  0.6224  0.4096
  850MOL0     H17269   1.653   5.965   7.349  2.1275 -2.4934 -1.3004
  850MOL0     H17270   1.771   6.162   7.287  1.6138 -3.0843  2.6147
  850MOL0     H17271   1.685   6.175   7.125 -4.6444 -2.3993 -0.4186
  850MOL0     H17272   1.841   5.922   7.189 -0.0748 -0.4080 -1.1448
  850MOL0     H17273   1.795   6.007   7.038 -0.8443  2.6024  0.0709
  850MOL0     H17274   2.026   6.023   7.078 -0.1283  1.3384 -0.7398
  850MOL0     H17275   2.006   6.118   7.233 -0.5867 -0.3716 -0.1803
  850MOL0     H17276   1.948   6.317   7.088 -2.2402  1.0281 -1.3096
  850MOL0     H17277   1.878   6.208   6.971 -1.1849  4.5796 -0.3705
  850MOL0     H17278   2.124   6.151   6.905  1.0935 -0.7042 -0.0383
  850MOL0     H17279   2.173   6.248   7.046 -1.9245 -1.0966  1.2212
  850MOL0     H17280   1.625   5.878   7.679 -0.8294 -0.0859 -2.2244
  850MOL0     H17281   1.583   5.802   7.905  1.2919  1.7350 -0.0547
  850MOL0     H17282   1.249   5.674   8.151 -0.4983 -0.2179  0.8011
  850MOL0     H17283   1.140   5.550   8.304 -0.9673  0.5824  1.2987
  850MOL0     H17284   0.718   6.368   9.060  2.4062  1.4022  0.1456
  850MOL0     H17285   0.610   6.559   8.935  0.5090  0.0363  0.1473
  850MOL0     H17286   0.500   7.063   8.911  1.5382  0.9037 -3.0739
  850MOL0     H17287   0.386   7.150   8.711  1.7107  0.2011  2.2188
  850MOL0     H17288   0.235   7.230   8.589  0.4826 -1.4411  1.8949
  850MOL0     H17289   0.218   7.118   8.455 -0.3373 -0.4046  0.2209
  850MOL0     H17290  -0.042   7.172   8.508 -0.1575  0.7326  1.5220
  850MOL0     H17291   0.043   7.279   8.396 -4.1680  0.4752 -0.5011
  850MOL0     H17292   0.088   7.436   8.594 -1.2641  1.7468  3.3069
  850MOL0     H17293  -0.076   7.412   8.569 -0.5947  0.4828  3.6322
  850MOL0     H17294   0.072   7.246   8.785  0.3882 -0.7315 -2.8679
  850MOL0     H17295  -0.099   7.239   8.749 -1.1676  0.8088  0.4868
  850MOL0     H17296  -0.086   7.607   8.955 -0.8048  1.3661 -1.5096
  850MOL0     H17297   0.069   6.864   8.770 -0.6712  0.3655 -0.0566
  850MOL0     H17298   0.092   6.697   8.922  0.3413  1.4026 -1.5105
  850MOL0     H17299   0.247   6.650   8.990 -2.3907 -3.1286  3.0504
  850MOL0     H17300   0.125   6.760   9.076  1.3264  1.3809 -0.0612
  851MOL0     O17301   3.589   7.623   7.966  0.9238  0.6953 -0.3517
  851MOL0     C17302   3.538   7.721   7.916  0.5610  0.5777  0.2825
  851MOL0     O17303   3.404   7.722   7.878  0.0816 -0.2332 -0.8259
  851MOL0     C17304   3.322   7.652   7.964 -0.1028 -0.1001  0.5617
  851MOL0     C17305   3.339   7.663   8.103  0.4247  0.5691  0.6185
  851MOL0     C17306   3.254   7.592   8.191  1.2570  0.1129  0.6486
  851MOL0     C17307   3.142   7.527   8.138  0.2391 -0.3651  0.1044
  851MOL0     O17308   3.053   7.472   8.225  1.2264 -1.0673  1.5675
  851MOL0     C17309   2.915   7.444   8.188 -0.1447 -0.0241 -0.0735
  851MOL0     C17310   2.841   7.362   8.293  0.6289 -0.4014  0.2334
  851MOL0     C17311   2.847   7.401   8.445 -0.3569 -0.3239  0.5651
  851MOL0     C17312   2.732   7.333   8.527 -0.6105  0.8468 -0.1272
  851MOL0     C17313   2.772   7.344   8.678  1.1695 -0.0136  0.6631
  851MOL0     C17314   2.660   7.301   8.771 -0.5057  0.4038  0.4136
  851MOL0     C17315   2.689   7.228   8.909 -1.3773 -0.4294  0.1681
  851MOL0     C17316   2.803   7.299   8.987  0.4368 -0.1470 -0.4823
  851MOL0     N17317   2.937   7.271   8.950 -1.0788 -0.0417 -0.4779
  851MOL0     C17318   3.037   7.357   8.898  0.5676  0.0075  0.5624
  851MOL0     C17319   3.153   7.295   8.916 -0.1994  0.8305  0.0025
  851MOL0     C17320   3.295   7.339   8.882  0.5193 -1.0194 -0.0277
  851MOL0     C17321   3.331   7.473   8.953  0.3678  1.1575 -0.1493
  851MOL0     C17322   3.393   7.480   9.088  0.5848  0.7494  0.1636
  851MOL0     C17323   3.282   7.453   9.205 -0.3475 -0.3531 -0.3547
  851MOL0     O17324   3.172   7.541   9.196 -0.4895 -1.1152 -0.9300
  851MOL0     C17325   3.070   7.536   9.287 -0.7494 -0.0727 -0.2091
  851MOL0     C17326   2.957   7.610   9.273  0.4169  0.1127  0.4429
  851MOL0     C17327   2.838   7.604   9.344  0.8304  0.0413  0.4871
  851MOL0     C17328   2.726   7.693   9.294 -0.5963  0.6298 -0.3099
  851MOL0     C17329   2.829   7.528   9.468 -0.2701  0.0110  0.9362
  851MOL0     C17330   2.710   7.506   9.562 -0.6372 -0.3531  0.3073
  851MOL0     O17331   2.747   7.439   9.679  0.0453  0.3711  0.8002
  851MOL0     C17332   2.648   7.369   9.742  0.2221  0.2433 -0.1275
  851MOL0     C17333   2.599   7.242   9.696  0.0289  0.4828  0.5041
  851MOL0     C17334   2.480   7.199   9.754 -0.9214  0.2644  0.3454
  851MOL0     C17335   2.409   7.270   9.843 -0.3752  0.6393  0.3155
  851MOL0     O17336   2.283   7.222   9.889 -0.5743 -0.1972 -0.6661
  851MOL0     C17337   2.283   7.087   9.946  0.0773 -0.2516  0.0838
  851MOL0     C17338   2.130   7.041   9.977  0.2582 -0.2935 -1.2916
  851MOL0     C17339   2.093   6.896  10.006  0.7353  0.9443 -0.0768
  851MOL0     C17340   2.070   6.806   9.882 -0.2651 -0.0264 -0.3485
  851MOL0     C17341   2.021   6.663   9.915  0.2374  0.2927  0.0822
  851MOL0     C17342   2.016   6.571   9.787  0.4256  1.2743  0.3118
  851MOL0     C17343   1.944   6.430   9.806  0.1518  0.2626 -2.0375
  851MOL0     C17344   1.927   6.351   9.672  0.0158 -0.1222 -0.6070
  851MOL0    Cl17345   2.061   6.348   9.559 -0.8824  0.2544  0.1891
  851MOL0     C17346   2.445   7.400   9.881  0.1615 -0.7110 -0.6327
  851MOL0     C17347   2.564   7.451   9.824 -0.2585 -0.2673 -0.1921
  851MOL0     O17348   2.596   7.535   9.537  0.4790  0.2639  0.3534
  851MOL0     C17349   2.952   7.450   9.492  0.4688 -1.2515  0.0364
  851MOL0     C17350   3.067   7.464   9.410 -0.5510  1.0656  0.5935
  851MOL0     N17351   3.123   7.177   8.978  0.6201  0.3461 -0.9711
  851MOL0     N17352   3.002   7.158   8.990  0.7816  0.3463  0.6030
  851MOL0     C17353   3.128   7.512   7.997 -0.0347 -0.6809 -0.1366
  851MOL0     C17354   3.224   7.568   7.908 -0.1179  0.6543  0.4839
  851MOL0     C17355   3.608   7.850   7.909 -0.5254 -0.3656 -0.5462
  851MOL0     C17356   3.546   7.974   7.939 -0.0756 -0.4514  0.2564
  851MOL0     C17357   3.607   8.095   7.950  0.1110  0.2240  0.9150
  851MOL0     C17358   3.747   8.105   7.912 -1.2223  0.0287  0.4134
  851MOL0     O17359   3.824   8.211   7.947  0.3397 -0.1258  0.1539
  851MOL0     C17360   3.769   8.308   8.039  0.5727 -0.3781 -0.4827
  851MOL0     C17361   3.872   8.414   8.073  0.1358 -0.8067  0.0006
  851MOL0     C17362   3.814   8.556   8.120  0.5606 -0.3337  0.0692
  851MOL0     C17363   3.917   8.638   8.207  0.2921 -0.7305 -0.0575
  851MOL0     C17364   3.864   8.771   8.242 -0.7906 -0.1644  0.9336
  851MOL0     C17365   3.825   8.883   8.261  0.8104 -1.0896  0.7936
  851MOL0     C17366   3.808   7.989   7.875 -1.2935  0.0780 -0.5094
  851MOL0     C17367   3.741   7.864   7.861  0.2464 -0.1089  0.2064
  851MOL0     C17368   3.808   7.758   7.784 -0.6501  0.7252  0.0090
  851MOL0     H17369   3.411   7.732   8.148 -1.1439  4.7140 -2.5409
  851MOL0     H17370   3.272   7.586   8.298 -3.4467 -2.7129  1.5610
  851MOL0     H17371   2.917   7.381   8.098 -1.0957  2.6983 -2.1477
  851MOL0     H17372   2.869   7.541   8.171 -0.1926 -0.2860 -1.5747
  851MOL0     H17373   2.734   7.361   8.273  0.8741 -1.3014 -1.1663
  851MOL0     H17374   2.880   7.260   8.288 -1.3560 -1.2048  0.1322
  851MOL0     H17375   2.944   7.383   8.493  0.6706  1.9266 -0.4653
  851MOL0     H17376   2.841   7.507   8.471  0.2118 -0.1951  0.2184
  851MOL0     H17377   2.627   7.356   8.508 -0.6063  1.4641  0.5459
  851MOL0     H17378   2.743   7.229   8.495  2.5855  1.3544 -0.9853
  851MOL0     H17379   2.801   7.445   8.706  2.4733  0.0866 -0.9223
  851MOL0     H17380   2.869   7.297   8.698  2.5169  1.7586 -1.2985
  851MOL0     H17381   2.620   7.399   8.797 -1.0378  0.6243 -1.1178
  851MOL0     H17382   2.599   7.233   8.711  0.7733 -0.6315  0.2123
  851MOL0     H17383   2.704   7.122   8.888 -3.1515 -0.5644 -0.5861
  851MOL0     H17384   2.595   7.251   8.960 -1.7648  3.7809 -2.0493
  851MOL0     H17385   2.804   7.407   8.975  2.8546 -0.2825 -2.2277
  851MOL0     H17386   2.776   7.287   9.093  0.5597 -2.1098 -0.6348
  851MOL0     H17387   3.028   7.456   8.855 -0.8829 -1.0377 -1.7566
  851MOL0     H17388   3.312   7.356   8.775  1.5232  0.9924  0.4173
  851MOL0     H17389   3.365   7.262   8.916  2.0634 -0.2120 -1.2670
  851MOL0     H17390   3.398   7.509   8.875 -2.1246  1.1277 -2.4786
  851MOL0     H17391   3.249   7.545   8.946  0.6657  1.6289  0.9232
  851MOL0     H17392   3.471   7.404   9.085  1.4730  1.6622 -1.8721
  851MOL0     H17393   3.434   7.582   9.090  1.6420  0.3842 -1.1872
  851MOL0     H17394   3.254   7.348   9.201  0.3221 -0.5984  0.7733
  851MOL0     H17395   3.319   7.474   9.306 -0.3377  0.2887 -0.4859
  851MOL0     H17396   2.976   7.672   9.185  2.3936 -1.0046  0.0207
  851MOL0     H17397   2.687   7.624   9.219  3.9324  0.1924 -2.5776
  851MOL0     H17398   2.765   7.789   9.259 -1.0438  1.3649  1.0868
  851MOL0     H17399   2.652   7.720   9.370  1.9789  1.3006  2.1299
  851MOL0     H17400   2.641   7.175   9.622 -0.9332 -2.3930  2.3758
  851MOL0     H17401   2.455   7.103   9.709  0.6482  0.6705 -1.5207
  851MOL0     H17402   2.322   7.005   9.885 -1.6178 -0.0866 -1.3151
  851MOL0     H17403   2.329   7.084  10.045  0.5652 -1.1397 -0.1652
  851MOL0     H17404   2.103   7.086  10.073  0.7209 -1.6069 -0.5154
  851MOL0     H17405   2.061   7.083   9.903 -3.0479  2.0112  2.6945
  851MOL0     H17406   1.993   6.888  10.051 -0.2905  0.2628 -2.3454
  851MOL0     H17407   2.165   6.846  10.072  0.3090  0.9160  0.3717
  851MOL0     H17408   2.169   6.814   9.837  1.5679 -0.9301  3.1338
  851MOL0     H17409   1.996   6.866   9.828  1.0077 -1.2943 -3.7705
  851MOL0     H17410   2.071   6.620  10.002 -0.6151 -0.4213  0.2307
  851MOL0     H17411   1.915   6.663   9.944 -0.1679 -1.3587 -1.2238
  851MOL0     H17412   2.114   6.560   9.740  1.2170  1.2503  1.9052
  851MOL0     H17413   1.945   6.624   9.724 -1.6073  1.2409  2.4245
  851MOL0     H17414   1.848   6.446   9.855  1.6771  1.5385  0.7244
  851MOL0     H17415   2.001   6.368   9.876 -2.0632 -0.1544 -0.4901
  851MOL0     H17416   1.837   6.381   9.618 -0.6172 -1.8131 -0.5528
  851MOL0     H17417   1.887   6.253   9.699 -2.4473  0.7474 -0.9151
  851MOL0     H17418   2.378   7.450   9.951 -0.5703 -0.5616 -1.4236
  851MOL0     H17419   2.582   7.557   9.840  0.3852 -0.2390 -1.0775
  851MOL0     H17420   2.967   7.383   9.576 -1.4065 -1.9748 -0.1483
  851MOL0     H17421   3.153   7.415   9.453 -0.2323  1.8935  0.9344
  851MOL0     H17422   3.048   7.461   7.943 -0.2279 -1.1109  0.5454
  851MOL0     H17423   3.215   7.551   7.801  3.8625  2.2571 -0.2732
  851MOL0     H17424   3.438   7.970   7.956 -0.0946 -4.1111  0.2244
  851MOL0     H17425   3.551   8.183   7.977 -1.7352 -0.9952  1.2774
  851MOL0     H17426   3.691   8.367   7.990  1.8054  2.4958  0.7995
  851MOL0     H17427   3.729   8.256   8.127  0.0082 -0.9834 -1.0838
  851MOL0     H17428   3.937   8.421   7.986 -1.6480 -2.2391 -1.5145
  851MOL0     H17429   3.936   8.375   8.153  1.7852  0.9907 -0.3629
  851MOL0     H17430   3.776   8.619   8.039 -0.0749  0.8886  1.2744
  851MOL0     H17431   3.732   8.529   8.187  0.5041  1.9316  1.0267
  851MOL0     H17432   4.017   8.648   8.162  1.3578 -3.0728  1.5759
  851MOL0     H17433   3.936   8.591   8.304 -0.0060  1.4508  1.1242
  851MOL0     H17434   3.785   8.981   8.277  0.1630 -1.5538  2.1945
  851MOL0     H17435   3.912   7.993   7.843 -1.6069  1.1577 -1.4361
  851MOL0     H17436   3.896   7.722   7.839  0.4072 -0.6407 -2.4125
  851MOL0     H17437   3.749   7.666   7.785  1.7867 -0.9727 -1.3853
  851MOL0     H17438   3.826   7.797   7.684 -2.3809  1.7252  0.0432
  852MOL0     O17439   4.591   6.431   4.822 -0.0319  0.0828 -0.5698
  852MOL0     C17440   4.691   6.482   4.866 -0.8970 -0.2791  0.1697
  852MOL0     O17441   4.808   6.502   4.797  0.4028 -0.1440 -0.1500
  852MOL0     C17442   4.818   6.421   4.678 -0.6496 -0.5161  0.0430
  852MOL0     C17443   4.879   6.484   4.560 -0.2275 -1.0138 -0.2114
  852MOL0     C17444   4.902   6.411   4.441  1.0506 -0.8441 -0.0934
  852MOL0     C17445   4.878   6.272   4.438  0.7740  0.2443  0.5446
  852MOL0     O17446   4.917   6.213   4.320 -0.5607 -0.1787  0.1755
  852MOL0     C17447   4.897   6.076   4.326  1.0469 -0.4888 -0.5562
  852MOL0     C17448   4.934   6.002   4.193  0.8003 -0.3997 -0.3317
  852MOL0     C17449   5.055   6.042   4.114 -0.4959  0.6771  0.1958
  852MOL0     C17450   5.053   6.171   4.037 -0.4498 -0.4067  0.4865
  852MOL0     C17451   5.169   6.187   3.938  0.0775  0.1799 -0.7296
  852MOL0     C17452   5.278   6.278   3.998  0.3764 -0.5197 -0.3335
  852MOL0     C17453   5.390   6.280   3.898 -0.0957 -0.4049 -0.2380
  852MOL0     C17454   5.515   6.350   3.950  0.9732 -0.7831  0.8601
  852MOL0     N17455   5.620   6.318   3.854 -0.2577  0.3313 -0.0553
  852MOL0     C17456   5.656   6.374   3.742  0.5292 -0.4227  0.5872
  852MOL0     C17457   5.743   6.292   3.683 -0.6805 -0.1561  0.4847
  852MOL0     C17458   5.793   6.305   3.544  0.3115  0.0640 -0.4066
  852MOL0     C17459   5.767   6.175   3.460 -1.2786 -0.3300  0.2743
  852MOL0     C17460   5.629   6.153   3.414  0.0583  0.0097 -0.2493
  852MOL0     C17461   5.543   6.266   3.357 -0.7004  0.3711 -0.8038
  852MOL0     O17462   5.445   6.224   3.262  0.5780 -0.0719  0.0477
  852MOL0     C17463   5.336   6.151   3.318 -0.5199 -0.4015 -1.5445
  852MOL0     C17464   5.253   6.077   3.228 -0.3360 -0.6277 -0.7814
  852MOL0     C17465   5.150   5.987   3.267 -0.7514 -0.8273  0.2588
  852MOL0     C17466   5.071   5.930   3.155  0.5215  0.5080  0.3504
  852MOL0     C17467   5.126   5.969   3.404  0.2090 -0.1984  0.0516
  852MOL0     C17468   5.007   5.887   3.463 -0.3358  0.1735 -0.3640
  852MOL0     O17469   4.946   5.808   3.379 -0.1545 -0.2907  0.2211
  852MOL0     C17470   4.840   5.736   3.430 -0.1770  1.1306 -0.2944
  852MOL0     C17471   4.850   5.631   3.520  0.1459 -0.1124  0.3794
  852MOL0     C17472   4.741   5.550   3.558  1.3699  0.2396 -0.3095
  852MOL0     C17473   4.611   5.576   3.505  0.3833 -0.5930 -0.0319
  852MOL0     O17474   4.491   5.512   3.543  0.0554  0.4296  0.1422
  852MOL0     C17475   4.460   5.492   3.683  0.9806  1.3520  0.4538
  852MOL0     C17476   4.337   5.571   3.729 -0.8093 -0.1722  0.2229
  852MOL0     C17477   4.216   5.565   3.652 -0.2407  0.4354 -0.0527
  852MOL0     C17478   4.110   5.651   3.724  0.2380  0.6302  0.3361
  852MOL0     C17479   3.996   5.685   3.640 -0.1273  0.2655  0.8024
  852MOL0     C17480   3.895   5.562   3.626 -0.0103 -0.5444 -0.2161
  852MOL0     C17481   3.782   5.601   3.527  0.5062 -0.1360 -0.8189
  852MOL0     C17482   3.670   5.506   3.563  0.2665  0.7260 -0.8450
  852MOL0    Cl17483   3.708   5.334   3.513 -0.0766 -0.7506 -0.3413
  852MOL0     C17484   4.597   5.686   3.421  1.3667 -0.0318  1.0378
  852MOL0     C17485   4.709   5.759   3.379  0.7172 -0.2135 -0.2156
  852MOL0     O17486   4.990   5.886   3.591  0.8403  0.7435 -0.0177
  852MOL0     C17487   5.198   6.054   3.499  0.5844  0.3815  0.0652
  852MOL0     C17488   5.307   6.141   3.455 -0.0047  0.2662  0.0812
  852MOL0     N17489   5.777   6.185   3.767  0.6602 -0.0987 -0.0845
  852MOL0     N17490   5.706   6.210   3.873 -0.7401 -0.8360 -0.2370
  852MOL0     C17491   4.820   6.211   4.555 -0.4240 -0.9655  0.7681
  852MOL0     C17492   4.795   6.281   4.670 -0.1035 -0.0716  0.2629
  852MOL0     C17493   4.669   6.540   4.998  0.1573  0.0261  1.2522
  852MOL0     C17494   4.775   6.612   5.067 -1.2118  0.5910 -0.1539
  852MOL0     C17495   4.763   6.672   5.189 -0.0649  0.1218 -0.2732
  852MOL0     C17496   4.640   6.666   5.259 -1.4202 -0.5864  0.3855
  852MOL0     O17497   4.616   6.696   5.388  0.3528 -0.4498 -0.0569
  852MOL0     C17498   4.716   6.752   5.470 -0.8402  0.5210 -0.4020
  852MOL0     C17499   4.818   6.643   5.508 -0.2305  0.8620  0.5119
  852MOL0     C17500   4.924   6.697   5.595  0.8089  1.3549 -0.9656
  852MOL0     C17501   5.033   6.587   5.605 -0.0415 -0.1894 -0.2248
  852MOL0     C17502   5.079   6.588   5.748 -0.1474  0.1514  0.3042
  852MOL0     C17503   5.126   6.608   5.854  0.2110  0.6243 -0.4121
  852MOL0     C17504   4.537   6.595   5.195 -0.0995 -0.3743  0.2366
  852MOL0     C17505   4.546   6.537   5.070 -0.3981 -0.7211  0.6589
  852MOL0     C17506   4.411   6.504   5.010  0.0926  0.5908  0.7477
  852MOL0     H17507   4.899   6.590   4.553 -0.7004 -0.7659  1.6722
  852MOL0     H17508   4.942   6.458   4.352  0.0792  1.5510  0.6449
  852MOL0     H17509   4.792   6.050   4.343  0.5840  0.4480 -1.8749
  852MOL0     H17510   4.952   6.032   4.410 -0.2654  2.2195  1.9041
  852MOL0     H17511   4.935   5.897   4.221 -0.4934 -0.5933 -0.9829
  852MOL0     H17512   4.845   6.011   4.130 -0.1656  1.6204  1.1865
  852MOL0     H17513   5.148   6.030   4.170  1.1901  1.2769 -2.3176
  852MOL0     H17514   5.076   5.968   4.036 -0.2914  0.5648  0.3568
  852MOL0     H17515   4.960   6.180   3.980 -0.1394 -2.1137 -0.3571
  852MOL0     H17516   5.045   6.255   4.106  2.8136 -0.2378  0.8158
  852MOL0     H17517   5.128   6.215   3.840  1.2641 -0.9725 -1.5972
  852MOL0     H17518   5.214   6.090   3.913 -0.0143 -0.2823  0.8103
  852MOL0     H17519   5.241   6.381   4.001  1.1551 -0.2420  2.0049
  852MOL0     H17520   5.307   6.242   4.097 -1.9899 -0.3065  0.4827
  852MOL0     H17521   5.356   6.323   3.804 -0.5992  0.1262  0.1781
  852MOL0     H17522   5.418   6.177   3.874  0.1680 -0.9996  2.2461
  852MOL0     H17523   5.504   6.459   3.954  3.3765 -0.4840  0.5729
  852MOL0     H17524   5.538   6.307   4.048  5.0452  1.2145  1.0008
  852MOL0     H17525   5.608   6.463   3.702 -2.5608 -2.3162 -0.3473
  852MOL0     H17526   5.895   6.343   3.531  0.3663 -0.4819 -1.8166
  852MOL0     H17527   5.734   6.386   3.498  1.1270  0.9172  0.0343
  852MOL0     H17528   5.831   6.176   3.371  4.3609 -4.1161  3.6480
  852MOL0     H17529   5.789   6.079   3.507  3.5173 -1.1982 -3.0558
  852MOL0     H17530   5.640   6.087   3.328  0.6284  0.5523 -0.5986
  852MOL0     H17531   5.572   6.100   3.491  0.0403  0.7474  0.2617
  852MOL0     H17532   5.502   6.326   3.439 -2.4164 -0.6719 -0.8559
  852MOL0     H17533   5.616   6.328   3.303  0.8474 -0.7590 -0.1044
  852MOL0     H17534   5.260   6.105   3.123  0.8146 -2.1713 -1.1545
  852MOL0     H17535   5.099   5.825   3.148 -0.7898  0.2510 -2.9634
  852MOL0     H17536   5.092   5.971   3.055  0.8549 -0.0586  0.1869
  852MOL0     H17537   4.964   5.937   3.176  0.3329  0.1148 -0.4426
  852MOL0     H17538   4.943   5.613   3.573 -0.3792 -0.8730  1.0463
  852MOL0     H17539   4.743   5.473   3.635 -1.1213  1.3771  1.0124
  852MOL0     H17540   4.448   5.383   3.689  0.4860  1.1379 -2.6954
  852MOL0     H17541   4.545   5.514   3.747  2.1642 -0.4510 -0.4088
  852MOL0     H17542   4.309   5.534   3.828 -0.3847  1.6853  1.0843
  852MOL0     H17543   4.361   5.676   3.749 -0.3900 -0.1380 -0.4115
  852MOL0     H17544   4.176   5.464   3.647  0.3080  0.2046  0.1210
  852MOL0     H17545   4.223   5.601   3.549 -2.1560  2.1953  0.3782
  852MOL0     H17546   4.153   5.742   3.766 -1.4864  1.8849 -0.4853
  852MOL0     H17547   4.065   5.600   3.810 -2.0867  1.6936 -0.1673
  852MOL0     H17548   3.937   5.764   3.689  1.7904  1.3508  1.4830
  852MOL0     H17549   4.025   5.721   3.542 -0.1992 -0.3989  0.5342
  852MOL0     H17550   3.862   5.548   3.729  0.8162 -1.0117 -0.0048
  852MOL0     H17551   3.943   5.474   3.581 -0.0137  0.6408 -2.6935
  852MOL0     H17552   3.812   5.588   3.423 -3.2668 -2.6861 -1.7867
  852MOL0     H17553   3.740   5.701   3.543 -1.0809 -1.1110  1.6563
  852MOL0     H17554   3.580   5.532   3.507 -1.6283 -0.6550  1.3489
  852MOL0     H17555   3.642   5.497   3.669 -4.0610 -2.7919 -1.9610
  852MOL0     H17556   4.500   5.726   3.395 -0.0082 -1.4517  3.5636
  852MOL0     H17557   4.687   5.819   3.291 -0.8339 -2.9368 -1.8105
  852MOL0     H17558   5.180   6.063   3.606 -0.7897  0.6118 -0.1729
  852MOL0     H17559   5.373   6.185   3.529  0.1186  2.1635 -1.0862
  852MOL0     H17560   4.798   6.106   4.565  0.8863 -1.9369 -4.0309
  852MOL0     H17561   4.742   6.242   4.757 -1.5689  1.0329 -0.0889
  852MOL0     H17562   4.871   6.616   5.018 -1.8125  5.6800 -1.4705
  852MOL0     H17563   4.836   6.731   5.242 -0.3787 -2.2397  3.1029
  852MOL0     H17564   4.777   6.833   5.429 -0.7481  1.7032  1.9295
  852MOL0     H17565   4.681   6.798   5.563 -0.7075 -0.4344  0.1357
  852MOL0     H17566   4.859   6.599   5.417 -2.8490  2.0432 -1.3824
  852MOL0     H17567   4.770   6.560   5.561 -0.9966  1.9743  1.6338
  852MOL0     H17568   4.969   6.790   5.559  1.8755  1.5956  0.8314
  852MOL0     H17569   4.881   6.727   5.691  0.3574 -3.1646  0.4657
  852MOL0     H17570   5.109   6.620   5.533 -1.1679 -2.3305 -2.5304
  852MOL0     H17571   5.000   6.483   5.593  1.6794 -0.7710 -0.2245
  852MOL0     H17572   5.174   6.630   5.947 -1.1169 -1.8277  0.9669
  852MOL0     H17573   4.441   6.597   5.245 -0.7632 -0.7221 -0.9874
  852MOL0     H17574   4.381   6.567   4.926  0.7716  0.6355  0.5378
  852MOL0     H17575   4.398   6.397   4.989  2.1601  0.3208  0.6557
  852MOL0     H17576   4.324   6.510   5.077 -1.8589 -2.4079 -1.2775
  853MOL0     O17577   9.871   6.155   5.735  0.4022  0.7409 -0.0647
  853MOL0     C17578   9.981   6.134   5.787  0.1434 -1.0605  0.6965
  853MOL0     O17579  10.002   6.130   5.913 -0.2665  0.8425  0.3966
  853MOL0     C17580   9.900   6.170   5.993 -0.3547  0.0676  0.2901
  853MOL0     C17581   9.917   6.291   6.067 -0.1842 -0.4344  0.8501
  853MOL0     C17582   9.813   6.331   6.153  0.6144 -0.2445 -0.8564
  853MOL0     C17583   9.693   6.253   6.174 -0.5838 -0.1267  1.0454
  853MOL0     O17584   9.605   6.284   6.277 -0.3214  0.0087 -0.6086
  853MOL0     C17585   9.597   6.178   6.378 -0.1826 -0.8410  1.0425
  853MOL0     C17586   9.499   6.221   6.490  0.6966  0.0036 -0.2007
  853MOL0     C17587   9.547   6.343   6.567 -0.1084 -0.0660 -0.1530
  853MOL0     C17588   9.680   6.348   6.650 -0.2592  0.6615 -0.6810
  853MOL0     C17589   9.713   6.482   6.718 -0.4231  0.6494  1.0095
  853MOL0     C17590   9.608   6.528   6.817 -0.2469 -0.2536  0.5325
  853MOL0     C17591   9.617   6.680   6.858 -0.1171 -0.6851 -0.4559
  853MOL0     C17592   9.742   6.723   6.944  0.1506 -1.2601  0.1008
  853MOL0     N17593   9.736   6.660   7.066 -0.1216 -1.1428 -0.9002
  853MOL0     C17594   9.650   6.688   7.169 -0.3690 -0.6801 -0.2606
  853MOL0     C17595   9.703   6.614   7.266 -0.0383  1.0204 -0.1375
  853MOL0     C17596   9.655   6.599   7.409  0.5971  0.0155 -0.0940
  853MOL0     C17597   9.647   6.736   7.468  0.9804 -0.2693 -0.2608
  853MOL0     C17598   9.771   6.822   7.476 -0.3179 -0.2291 -0.1264
  853MOL0     C17599   9.871   6.756   7.567  0.6997 -0.4979  0.3868
  853MOL0     O17600   9.990   6.847   7.591  0.1961  0.5602 -0.2357
  853MOL0     C17601  10.113   6.830   7.526 -0.7894 -0.0827  0.2418
  853MOL0     C17602  10.121   6.749   7.412  0.3654 -0.1007 -0.0565
  853MOL0     C17603  10.247   6.716   7.347 -0.5208  0.0865  0.1443
  853MOL0     C17604  10.252   6.641   7.214  0.4959 -0.5252  0.0127
  853MOL0     C17605  10.365   6.777   7.394 -0.0004  0.3213 -0.2286
  853MOL0     C17606  10.498   6.747   7.349  1.1463 -0.6580  0.0615
  853MOL0     O17607  10.564   6.854   7.296  0.6736 -0.0925  0.4554
  853MOL0     C17608  10.682   6.830   7.233  0.1377 -0.0868  0.6235
  853MOL0     C17609  10.693   6.737   7.140  0.4187  0.5244  0.7773
  853MOL0     C17610  10.812   6.708   7.083  0.0911  0.4219  0.4841
  853MOL0     C17611  10.932   6.790   7.112  0.3172  0.4949  0.8716
  853MOL0     O17612  11.039   6.758   7.033  0.1875 -0.5254 -0.5326
  853MOL0     C17613  11.152   6.836   7.055 -0.0701  0.4724  0.6565
  853MOL0     C17614  11.225   6.790   7.175  0.1294  0.8092  0.3076
  853MOL0     C17615  11.365   6.841   7.181 -0.4052 -0.4490 -0.6769
  853MOL0     C17616  11.416   6.834   7.329  0.3031 -0.4740 -0.0538
  853MOL0     C17617  11.569   6.854   7.337 -0.2700 -0.1716 -0.4883
  853MOL0     C17618  11.622   6.990   7.314 -0.1085 -0.6044  0.9970
  853MOL0     C17619  11.773   7.013   7.348  0.2137 -0.1334 -0.0469
  853MOL0     C17620  11.875   6.976   7.228 -0.4040 -0.4073  0.1574
  853MOL0    Cl17621  11.886   6.796   7.222  0.3701 -0.5646 -0.4137
  853MOL0     C17622  10.913   6.892   7.195  0.5064 -0.3991 -0.2931
  853MOL0     C17623  10.790   6.910   7.256 -0.1051 -0.1560  0.0206
  853MOL0     O17624  10.549   6.637   7.386  0.2586  0.6008 -0.2737
  853MOL0     C17625  10.356   6.858   7.510 -0.6390  0.3628 -0.4924
  853MOL0     C17626  10.231   6.883   7.572 -0.5538 -0.6692  0.5033
  853MOL0     N17627   9.814   6.538   7.219  0.4659  0.2645 -0.1556
  853MOL0     N17628   9.831   6.569   7.094  0.1036 -0.1880 -0.0402
  853MOL0     C17629   9.684   6.134   6.101 -0.2679 -0.9167  0.5929
  853MOL0     C17630   9.788   6.090   6.013 -0.1596  0.1436 -0.3952
  853MOL0     C17631  10.097   6.109   5.689 -0.4688  0.3945  0.8157
  853MOL0     C17632  10.231   6.080   5.735 -0.4132  0.0998  0.3024
  853MOL0     C17633  10.336   6.039   5.659 -0.3701  0.6598  0.7206
  853MOL0     C17634  10.305   6.024   5.520  0.1977 -0.3308 -0.5239
  853MOL0     O17635  10.405   5.970   5.447  0.9449 -0.2095  0.1911
  853MOL0     C17636  10.459   6.067   5.351 -0.4219  0.4788 -0.6666
  853MOL0     C17637  10.506   6.203   5.409  0.0682 -0.7410 -0.4590
  853MOL0     C17638  10.407   6.320   5.420  0.2095 -0.6129  0.1492
  853MOL0     C17639  10.335   6.359   5.291  0.3219 -0.6955  1.0869
  853MOL0     C17640  10.418   6.369   5.173 -1.2178 -1.4830 -1.0932
  853MOL0     C17641  10.497   6.373   5.075  0.0304  0.5137 -0.9397
  853MOL0     C17642  10.175   6.042   5.468 -0.6708  0.0916 -0.2905
  853MOL0     C17643  10.071   6.077   5.551  0.6544  0.3034 -0.3835
  853MOL0     C17644   9.935   6.076   5.488  0.0228 -0.5759 -0.7751
  853MOL0     H17645  10.009   6.346   6.050 -1.0307  0.3163 -1.9676
  853MOL0     H17646   9.811   6.426   6.205 -0.8292 -0.4049 -0.5568
  853MOL0     H17647   9.697   6.163   6.419  0.3541 -1.2690 -0.3623
  853MOL0     H17648   9.557   6.087   6.332 -3.1114  0.7742  0.0903
  853MOL0     H17649   9.398   6.240   6.453 -0.2537 -1.1254  1.6707
  853MOL0     H17650   9.488   6.131   6.551  0.4099  0.0138 -0.2352
  853MOL0     H17651   9.566   6.425   6.496  0.9445 -1.1861 -1.2310
  853MOL0     H17652   9.473   6.354   6.646  1.2396 -3.3419  1.7320
  853MOL0     H17653   9.677   6.273   6.729 -0.7221  0.9301 -0.4360
  853MOL0     H17654   9.769   6.310   6.599  0.4120  0.4723  0.5907
  853MOL0     H17655   9.737   6.559   6.645  4.1589  0.3577  1.9077
  853MOL0     H17656   9.807   6.460   6.770 -0.9798 -2.8759  0.7826
  853MOL0     H17657   9.510   6.519   6.769 -0.3857 -0.7230  0.8892
  853MOL0     H17658   9.620   6.465   6.905 -2.7650 -0.5196  0.7469
  853MOL0     H17659   9.520   6.700   6.903 -0.6931 -0.9264 -1.5674
  853MOL0     H17660   9.625   6.739   6.766 -1.7873  1.1653  0.5082
  853MOL0     H17661   9.829   6.686   6.889 -0.3145  0.7351 -2.1803
  853MOL0     H17662   9.741   6.832   6.954 -1.1141 -0.9892 -2.1922
  853MOL0     H17663   9.594   6.781   7.173  2.6651  1.3075 -1.0361
  853MOL0     H17664   9.731   6.545   7.466  0.0907  1.3665  1.9393
  853MOL0     H17665   9.559   6.546   7.402  0.7885 -0.5191  1.1599
  853MOL0     H17666   9.573   6.787   7.407  0.9082  0.5534  0.4882
  853MOL0     H17667   9.610   6.734   7.571  1.3527 -0.6014 -0.1303
  853MOL0     H17668   9.794   6.840   7.371 -0.9111 -0.9610 -0.3945
  853MOL0     H17669   9.761   6.920   7.523  3.8914 -1.1244  3.3768
  853MOL0     H17670   9.829   6.737   7.666 -0.1279 -1.1766 -0.0912
  853MOL0     H17671   9.905   6.659   7.531  0.2100 -0.7072  0.4851
  853MOL0     H17672  10.027   6.725   7.364 -0.8543  2.7088  0.7199
  853MOL0     H17673  10.217   6.537   7.222 -0.2715 -0.2614  0.1940
  853MOL0     H17674  10.354   6.651   7.177  1.1476 -2.0423  1.2599
  853MOL0     H17675  10.194   6.694   7.138  3.0018 -0.1699 -1.7867
  853MOL0     H17676  10.611   6.668   7.117  3.6265 -3.7647  0.9315
  853MOL0     H17677  10.815   6.631   7.006  0.1744 -2.1241  2.8905
  853MOL0     H17678  11.210   6.807   6.967 -1.6809 -2.1018  0.3267
  853MOL0     H17679  11.124   6.941   7.049 -3.4004 -0.3138  0.6241
  853MOL0     H17680  11.158   6.809   7.260  2.4371 -1.8491  2.9262
  853MOL0     H17681  11.234   6.681   7.175  0.6324  0.8408 -0.4944
  853MOL0     H17682  11.381   6.945   7.152 -1.4749 -0.0185  0.2010
  853MOL0     H17683  11.431   6.780   7.118  1.2090  0.6613 -0.1326
  853MOL0     H17684  11.380   6.740   7.371  0.0854 -1.2657 -1.9241
  853MOL0     H17685  11.370   6.918   7.382 -0.8892  0.1988 -2.0336
  853MOL0     H17686  11.589   6.810   7.435 -3.2848 -2.8160 -0.9005
  853MOL0     H17687  11.614   6.794   7.258 -2.6663 -0.7158 -1.5222
  853MOL0     H17688  11.558   7.056   7.374 -3.4738 -1.7139 -1.1599
  853MOL0     H17689  11.593   7.030   7.217 -2.2650 -0.8453  1.5013
  853MOL0     H17690  11.802   6.945   7.429  1.1521 -0.0446 -0.2882
  853MOL0     H17691  11.790   7.116   7.379  1.2752 -0.6583  1.2174
  853MOL0     H17692  11.971   7.019   7.257  0.5517 -1.9832 -0.5392
  853MOL0     H17693  11.841   7.012   7.131 -4.4544 -1.9500  0.8123
  853MOL0     H17694  10.985   6.973   7.204 -0.8557  0.6213  2.0479
  853MOL0     H17695  10.779   7.008   7.300 -1.1959 -0.1796 -0.1693
  853MOL0     H17696  10.434   6.910   7.565  1.2197 -1.7218 -0.9859
  853MOL0     H17697  10.232   6.947   7.660  4.1490  2.1285 -1.1860
  853MOL0     H17698   9.601   6.066   6.111 -1.4630  0.5863  1.2611
  853MOL0     H17699   9.767   5.999   5.957 -0.1246  1.4932 -2.7395
  853MOL0     H17700  10.243   6.092   5.842 -0.0932  1.5149  0.1300
  853MOL0     H17701  10.436   6.039   5.702  1.3908  1.2930 -2.9334
  853MOL0     H17702  10.546   6.019   5.306 -1.8910 -1.9081 -1.1248
  853MOL0     H17703  10.388   6.094   5.272 -0.0528  5.6292  0.3797
  853MOL0     H17704  10.599   6.224   5.354 -0.4966  2.1741 -0.4875
  853MOL0     H17705  10.536   6.184   5.512  0.7753  2.2250 -0.0340
  853MOL0     H17706  10.338   6.273   5.490 -2.3811 -3.0906 -3.6723
  853MOL0     H17707  10.465   6.395   5.475  0.2829 -1.3879  1.1562
  853MOL0     H17708  10.293   6.459   5.310  2.4621  0.3788  0.5699
  853MOL0     H17709  10.247   6.297   5.273  0.4699 -1.1470  1.8972
  853MOL0     H17710  10.557   6.366   4.987  1.4502  2.1187 -0.1457
  853MOL0     H17711  10.159   6.008   5.366  0.1124  0.6112 -0.5958
  853MOL0     H17712   9.901   6.180   5.492 -1.6226 -1.1274  0.4602
  853MOL0     H17713   9.942   6.044   5.384 -0.9811 -1.5781 -0.5498
  853MOL0     H17714   9.852   6.028   5.541 -2.4972  1.2172 -2.8195
  854MOL0     O17715   5.978  11.571   9.815 -0.0698 -0.1241  1.0240
  854MOL0     C17716   6.000  11.686   9.867  0.5572 -0.2120  0.1901
  854MOL0     O17717   5.952  11.727   9.982  0.5809 -0.1212  0.1025
  854MOL0     C17718   5.960  11.639  10.088 -0.1015 -0.6428 -0.2305
  854MOL0     C17719   5.878  11.661  10.203 -0.2729 -0.0848  1.0836
  854MOL0     C17720   5.891  11.570  10.318 -0.1575 -0.0866  0.0128
  854MOL0     C17721   5.957  11.450  10.311 -0.4330  0.1294  0.3362
  854MOL0     O17722   5.958  11.365  10.433 -0.4764 -0.0866  0.1984
  854MOL0     C17723   6.076  11.290  10.462 -0.2447 -0.7229 -1.0172
  854MOL0     C17724   6.172  11.383  10.526 -0.2530 -0.3420 -0.1476
  854MOL0     C17725   6.311  11.316  10.534 -0.5759 -0.7202 -0.5217
  854MOL0     C17726   6.419  11.383  10.613 -0.1928  0.7206  0.2669
  854MOL0     C17727   6.428  11.344  10.763 -0.5145  0.6361  0.9772
  854MOL0     C17728   6.568  11.378  10.817  0.2694  0.2785  0.4654
  854MOL0     C17729   6.579  11.346  10.969  0.2502 -0.2434 -0.5850
  854MOL0     C17730   6.520  11.447  11.071 -0.9698  0.1378  0.2276
  854MOL0     N17731   6.526  11.408  11.213  0.3009 -0.7868  0.2329
  854MOL0     C17732   6.647  11.385  11.275  0.2656 -0.1425 -0.0907
  854MOL0     C17733   6.618  11.352  11.402  1.0985  0.0637 -0.1663
  854MOL0     C17734   6.715  11.293  11.509  0.3329 -0.2496 -0.8002
  854MOL0     C17735   6.805  11.395  11.575 -0.7012  0.3614  0.5361
  854MOL0     C17736   6.715  11.500  11.643  0.3838  0.0691  0.1284
  854MOL0     C17737   6.603  11.443  11.747  0.0370 -1.0616 -1.0676
  854MOL0     O17738   6.561  11.550  11.834 -0.0771 -0.0797 -0.0619
  854MOL0     C17739   6.511  11.500  11.954  0.3244 -0.5170  0.0881
  854MOL0     C17740   6.440  11.385  11.988 -0.7013  0.7488  1.6229
  854MOL0     C17741   6.404  11.359  12.121  0.0017  0.4220  0.0933
  854MOL0     C17742   6.311  11.245  12.147 -0.2542  0.7808 -1.4028
  854MOL0     C17743   6.425  11.449  12.233  0.1489  0.7577  0.6292
  854MOL0     C17744   6.398  11.419  12.369  0.2083 -0.4579 -1.2784
  854MOL0     O17745   6.351  11.529  12.445 -0.4606  0.9250  0.5948
  854MOL0     C17746   6.310  11.513  12.579  0.0411  0.1949  0.0443
  854MOL0     C17747   6.236  11.401  12.615  0.0532 -0.1434 -0.0323
  854MOL0     C17748   6.203  11.380  12.754  0.0184 -0.8501 -0.9577
  854MOL0     C17749   6.244  11.470  12.850 -1.1718  0.3043  0.2686
  854MOL0     O17750   6.203  11.450  12.981 -0.4053 -0.6918 -0.3379
  854MOL0     C17751   6.315  11.406  13.060  0.2371 -0.0094  0.1454
  854MOL0     C17752   6.284  11.341  13.189  0.1304  0.3655  0.1657
  854MOL0     C17753   6.411  11.293  13.246 -0.2162  0.3544  0.1881
  854MOL0     C17754   6.413  11.249  13.394 -0.0114  0.1462 -0.1904
  854MOL0     C17755   6.534  11.175  13.441 -0.0069  0.2113 -0.1609
  854MOL0     C17756   6.658  11.269  13.469  0.3760  0.2282 -0.0529
  854MOL0     C17757   6.775  11.190  13.541  0.4919  0.6925  0.1292
  854MOL0     C17758   6.911  11.255  13.524  0.3240 -0.4202  0.0846
  854MOL0    Cl17759   6.917  11.423  13.591  0.0226  0.0700  0.6318
  854MOL0     C17760   6.302  11.590  12.812 -0.4696  0.4403 -0.5103
  854MOL0     C17761   6.338  11.609  12.682 -0.4502 -0.7524 -0.2497
  854MOL0     O17762   6.424  11.309  12.411  0.3423 -0.0750 -1.1852
  854MOL0     C17763   6.495  11.565  12.190 -0.2317  0.7252 -0.0129
  854MOL0     C17764   6.524  11.594  12.057 -1.6598  0.7143  0.5986
  854MOL0     N17765   6.479  11.356  11.414 -0.8096 -0.2687 -0.1022
  854MOL0     N17766   6.421  11.398  11.305  0.9980  0.2481 -0.1705
  854MOL0     C17767   6.038  11.430  10.193  0.3045  0.0294 -0.1828
  854MOL0     C17768   6.043  11.518  10.088  0.4550 -1.0167  0.1369
  854MOL0     C17769   6.113  11.770   9.799  0.1164  0.5542  0.2789
  854MOL0     C17770   6.140  11.901   9.860  0.5121 -0.2963 -0.2873
  854MOL0     C17771   6.244  11.982   9.808  0.2297  0.2396  0.8833
  854MOL0     C17772   6.316  11.934   9.703 -0.3317  0.0015  0.1715
  854MOL0     O17773   6.429  12.008   9.661 -0.1694  1.1778  0.3480
  854MOL0     C17774   6.468  12.117   9.725  0.0367 -0.3872  0.6934
  854MOL0     C17775   6.583  12.198   9.654  0.0656 -0.6022 -0.9350
  854MOL0     C17776   6.532  12.249   9.515 -0.0493  0.0705 -0.2205
  854MOL0     C17777   6.644  12.318   9.430 -0.1442  1.1744 -0.8369
  854MOL0     C17778   6.580  12.398   9.322 -1.0759  0.3972  0.6961
  854MOL0     C17779   6.516  12.446   9.234  0.6034 -0.1385 -0.3079
  854MOL0     C17780   6.276  11.820   9.622 -0.1146  0.8456 -1.3230
  854MOL0     C17781   6.171  11.745   9.668 -0.3525 -0.7474 -0.5227
  854MOL0     C17782   6.122  11.632   9.579  0.5319 -0.1260  0.6432
  854MOL0     H17783   5.828  11.757  10.197  0.1427  0.0239 -1.5474
  854MOL0     H17784   5.830  11.583  10.407  1.8691 -2.1696  1.8221
  854MOL0     H17785   6.129  11.247  10.376  0.3164 -1.0836 -0.5027
  854MOL0     H17786   6.063  11.212  10.538  1.6533  1.3229  1.5660
  854MOL0     H17787   6.191  11.477  10.472  1.4934 -0.1160  0.7849
  854MOL0     H17788   6.130  11.401  10.626 -3.5773  0.6271 -1.5728
  854MOL0     H17789   6.304  11.215  10.576  0.9087 -1.0234 -0.9483
  854MOL0     H17790   6.338  11.304  10.429  0.3837  1.5775 -0.5838
  854MOL0     H17791   6.514  11.355  10.565  0.1612  0.6264  1.0187
  854MOL0     H17792   6.422  11.492  10.599  0.0217  0.3853 -3.3701
  854MOL0     H17793   6.408  11.236  10.766  0.1003  0.5165  0.7858
  854MOL0     H17794   6.354  11.397  10.824 -0.9994  1.8109 -0.5863
  854MOL0     H17795   6.647  11.321  10.768  0.2532 -1.0869  1.9313
  854MOL0     H17796   6.591  11.483  10.799 -1.6510  0.1725 -3.7067
  854MOL0     H17797   6.687  11.340  10.989  1.2213  3.1135 -3.6812
  854MOL0     H17798   6.549  11.242  10.980  3.7985 -1.4468 -1.0423
  854MOL0     H17799   6.559  11.549  11.062  1.9136 -1.0004 -2.0351
  854MOL0     H17800   6.415  11.466  11.049 -0.3004  4.2663 -0.1849
  854MOL0     H17801   6.740  11.413  11.227  2.3720 -2.1130  2.5828
  854MOL0     H17802   6.776  11.213  11.466 -1.5013 -0.8783 -2.3747
  854MOL0     H17803   6.658  11.251  11.592  3.5786  2.2759  3.1026
  854MOL0     H17804   6.866  11.339  11.646 -0.3789 -1.6003 -1.2046
  854MOL0     H17805   6.868  11.442  11.499 -0.9126 -2.7669 -1.7817
  854MOL0     H17806   6.793  11.560  11.692 -0.9708  1.0463  1.1810
  854MOL0     H17807   6.665  11.576  11.583 -1.2075  0.9252  2.3710
  854MOL0     H17808   6.517  11.400  11.694  0.9395 -2.1548 -1.7006
  854MOL0     H17809   6.655  11.374  11.814  4.8782  2.3556 -0.8267
  854MOL0     H17810   6.403  11.313  11.915  0.1178  0.8398  1.1053
  854MOL0     H17811   6.287  11.179  12.063 -0.2949 -3.1078  1.4139
  854MOL0     H17812   6.222  11.291  12.191  0.0210  2.9876 -3.0102
  854MOL0     H17813   6.364  11.172  12.208  0.1654  2.9207  0.9491
  854MOL0     H17814   6.210  11.330  12.536  1.5629  3.5156 -4.2138
  854MOL0     H17815   6.145  11.290  12.772 -0.7971  0.1054  1.5966
  854MOL0     H17816   6.371  11.337  12.998 -2.8667 -1.8105 -0.8832
  854MOL0     H17817   6.378  11.493  13.084  0.8267 -0.0809 -1.1128
  854MOL0     H17818   6.241  11.422  13.249  2.1963 -0.1759  2.5660
  854MOL0     H17819   6.214  11.259  13.171  2.1497 -1.1220 -1.4798
  854MOL0     H17820   6.497  11.358  13.223 -1.0278  1.7093  0.8274
  854MOL0     H17821   6.436  11.203  13.190  2.0879  0.3762  1.0587
  854MOL0     H17822   6.320  11.193  13.410 -0.8419  1.8831  1.6057
  854MOL0     H17823   6.393  11.326  13.469 -2.7706 -1.9700  1.4731
  854MOL0     H17824   6.511  11.124  13.535 -0.1060  0.9254  0.2019
  854MOL0     H17825   6.553  11.110  13.354 -0.3433  0.2228 -0.2421
  854MOL0     H17826   6.636  11.354  13.534  4.5484  1.9807 -0.5890
  854MOL0     H17827   6.700  11.317  13.380  0.6659  0.2690  0.1063
  854MOL0     H17828   6.776  11.089  13.498 -0.8124  0.2599  1.0485
  854MOL0     H17829   6.751  11.182  13.647  2.5915  1.6413  0.7215
  854MOL0     H17830   6.944  11.250  13.420  0.0598 -0.1858 -0.0130
  854MOL0     H17831   6.990  11.208  13.581  1.6933 -0.2131 -1.5513
  854MOL0     H17832   6.291  11.662  12.892 -5.0918 -0.6285  0.1216
  854MOL0     H17833   6.370  11.707  12.649 -3.2744  0.0415 -0.8695
  854MOL0     H17834   6.532  11.647  12.250 -3.2119  1.6513  0.7323
  854MOL0     H17835   6.575  11.686  12.028  1.8823 -1.3042 -0.2007
  854MOL0     H17836   6.114  11.352  10.191  3.2236  2.6520  0.3565
  854MOL0     H17837   6.110  11.497  10.006  0.1410 -1.7005  0.0489
  854MOL0     H17838   6.095  11.931   9.954  0.7515 -1.8290  0.3509
  854MOL0     H17839   6.270  12.077   9.853  3.0994  2.2190 -4.0346
  854MOL0     H17840   6.394  12.196   9.738  0.2110 -0.3969  1.7849
  854MOL0     H17841   6.504  12.082   9.822  2.1352  2.1121  0.9206
  854MOL0     H17842   6.676  12.143   9.641  1.0734  0.9268 -0.4040
  854MOL0     H17843   6.611  12.289   9.707  1.0011 -0.4265 -1.7207
  854MOL0     H17844   6.484  12.168   9.460 -1.3489  0.9485 -0.4218
  854MOL0     H17845   6.448  12.317   9.532 -2.6623 -2.5569 -1.7093
  854MOL0     H17846   6.702  12.240   9.380 -0.8815  1.6506 -2.5229
  854MOL0     H17847   6.707  12.381   9.493  0.9258 -0.0167 -0.6822
  854MOL0     H17848   6.440  12.492   9.174 -1.4469 -3.1809 -0.2619
  854MOL0     H17849   6.336  11.802   9.533 -0.1978  2.6029 -1.7667
  854MOL0     H17850   6.164  11.647   9.479 -3.5729 -0.5781 -1.4024
  854MOL0     H17851   6.146  11.535   9.623 -0.8452 -1.0847 -0.5973
  854MOL0     H17852   6.014  11.650   9.565  1.0843  2.9759 -0.4159
  855MOL0     O17853  10.299   2.277   4.118 -0.0563 -0.0830 -0.5913
  855MOL0     C17854  10.424   2.273   4.116  0.7294  0.1374  0.3086
  855MOL0     O17855  10.503   2.368   4.175 -0.3028 -0.1689  0.0597
  855MOL0     C17856  10.481   2.403   4.307  0.4256 -0.4974  0.7849
  855MOL0     C17857  10.551   2.526   4.339 -0.1215 -0.0502  0.0066
  855MOL0     C17858  10.532   2.584   4.462  0.1556  0.0248  0.1721
  855MOL0     C17859  10.452   2.534   4.560  0.6932  0.5108  0.0549
  855MOL0     O17860  10.436   2.588   4.683 -1.2254  0.0951 -1.5103
  855MOL0     C17861  10.561   2.607   4.759  0.1937  0.0436  0.1826
  855MOL0     C17862  10.526   2.645   4.899 -0.3947 -0.3831 -0.7709
  855MOL0     C17863  10.656   2.717   4.970  0.1860  0.4881 -0.7576
  855MOL0     C17864  10.685   2.701   5.124 -0.2500  0.4938  0.0155
  855MOL0     C17865  10.781   2.578   5.153 -0.6158  0.4157 -0.4876
  855MOL0     C17866  10.731   2.435   5.107  0.0788 -0.4783  0.1703
  855MOL0     C17867  10.831   2.331   5.128 -0.6570 -0.3200  0.9068
  855MOL0     C17868  10.790   2.191   5.065 -0.7551 -0.4125 -0.1743
  855MOL0     N17869  10.759   2.206   4.920  0.4777  0.6648  0.2314
  855MOL0     C17870  10.852   2.241   4.817 -1.0116  0.5998 -0.4152
  855MOL0     C17871  10.774   2.246   4.707 -0.3666 -0.1956 -0.1586
  855MOL0     C17872  10.830   2.257   4.572  0.2026  0.3594  0.4986
  855MOL0     C17873  10.812   2.144   4.473  0.1704  0.8269  0.5987
  855MOL0     C17874  10.888   2.162   4.339  0.0723 -0.3281 -0.2089
  855MOL0     C17875  10.854   2.049   4.238 -0.4636  0.0022 -0.1867
  855MOL0     O17876  10.922   2.092   4.107  0.3355  0.9938  0.6941
  855MOL0     C17877  11.035   2.026   4.047 -0.2872 -0.7500 -1.0300
  855MOL0     C17878  11.110   2.076   3.940 -0.1541  0.0799  0.1458
  855MOL0     C17879  11.228   2.020   3.886  0.3616  0.0428  0.1830
  855MOL0     C17880  11.310   2.101   3.792 -0.1887  0.4792 -0.7372
  855MOL0     C17881  11.282   1.896   3.939  0.4913 -1.1726 -0.3141
  855MOL0     C17882  11.411   1.828   3.897 -0.6178 -0.3860  0.4865
  855MOL0     O17883  11.457   1.729   3.972 -1.2559  0.5852 -0.3024
  855MOL0     C17884  11.547   1.653   3.902  0.5783  0.3131 -0.8062
  855MOL0     C17885  11.504   1.551   3.818 -0.1659 -0.0327 -0.6620
  855MOL0     C17886  11.592   1.484   3.733  0.9182 -0.9992  0.2257
  855MOL0     C17887  11.735   1.518   3.722  0.5164 -0.6478 -0.4566
  855MOL0     O17888  11.804   1.451   3.628 -0.5536  0.6295 -0.2536
  855MOL0     C17889  11.938   1.485   3.600 -0.3205 -0.2232 -0.2423
  855MOL0     C17890  12.018   1.370   3.544 -0.4659 -0.5090  0.4051
  855MOL0     C17891  12.028   1.267   3.649  0.3943  0.1240 -0.5867
  855MOL0     C17892  12.130   1.151   3.608  0.0763  0.4378  0.3210
  855MOL0     C17893  12.150   1.058   3.720  0.1311 -0.2851  0.1474
  855MOL0     C17894  12.208   0.928   3.668 -0.3060  0.7799 -0.5849
  855MOL0     C17895  12.243   0.828   3.781  0.7734  0.5142 -0.6184
  855MOL0     C17896  12.110   0.769   3.839  0.6847  0.3331 -0.0960
  855MOL0    Cl17897  12.032   0.646   3.729 -0.1376 -0.2558 -0.5821
  855MOL0     C17898  11.773   1.616   3.809 -0.4943  0.2830 -0.8375
  855MOL0     C17899  11.687   1.677   3.901 -0.0026  0.7147  0.2128
  855MOL0     O17900  11.450   1.857   3.782 -0.1657 -0.4587  0.3797
  855MOL0     C17901  11.201   1.837   4.034  0.0849 -0.5878  0.6022
  855MOL0     C17902  11.093   1.902   4.093 -0.0976 -0.1217  0.9175
  855MOL0     N17903  10.642   2.223   4.733 -0.9630  0.3663 -0.7203
  855MOL0     N17904  10.635   2.199   4.865 -0.6773  0.2994  0.3637
  855MOL0     C17905  10.388   2.417   4.529  0.3411  0.7323 -0.1834
  855MOL0     C17906  10.394   2.358   4.398 -0.3134  0.1620  0.0254
  855MOL0     C17907  10.477   2.189   4.009 -1.0592  0.4439 -0.3887
  855MOL0     C17908  10.609   2.225   3.964 -0.7121  0.0361  0.0666
  855MOL0     C17909  10.680   2.141   3.880 -0.5339  1.3360 -0.3338
  855MOL0     C17910  10.613   2.022   3.833 -0.6307  0.1955  1.0064
  855MOL0     O17911  10.673   1.914   3.769  0.4877  0.5763  0.6291
  855MOL0     C17912  10.811   1.916   3.757 -1.1419  1.0603  0.1157
  855MOL0     C17913  10.874   1.793   3.693  0.2253 -0.6941  0.1881
  855MOL0     C17914  10.816   1.677   3.766 -0.2494  0.2585  0.7790
  855MOL0     C17915  10.885   1.546   3.733  0.5181 -0.5572 -1.1384
  855MOL0     C17916  11.022   1.538   3.799 -0.0386  0.1270  0.0352
  855MOL0     C17917  11.128   1.522   3.863 -0.9337 -1.2542  0.5441
  855MOL0     C17918  10.489   1.993   3.876  0.7112  0.8955  0.3722
  855MOL0     C17919  10.407   2.077   3.958  0.4165  0.2532  0.9308
  855MOL0     C17920  10.273   2.030   4.006  0.4651 -0.2882 -0.9242
  855MOL0     H17921  10.624   2.561   4.267  0.1842 -0.7969 -0.0510
  855MOL0     H17922  10.602   2.666   4.475  1.6765 -1.5981  3.5878
  855MOL0     H17923  10.602   2.699   4.716  1.2703 -0.8510 -0.8042
  855MOL0     H17924  10.630   2.522   4.760 -0.8319 -0.8136  0.0811
  855MOL0     H17925  10.438   2.710   4.907  1.5682  2.4036 -0.4427
  855MOL0     H17926  10.497   2.564   4.966 -0.3093 -1.6330 -2.1954
  855MOL0     H17927  10.748   2.685   4.920  0.8069 -0.4405  0.9256
  855MOL0     H17928  10.639   2.824   4.951  0.5700  0.9182  1.1378
  855MOL0     H17929  10.742   2.792   5.148  2.9098 -1.3242 -0.0812
  855MOL0     H17930  10.595   2.703   5.187 -0.0890  1.0820  0.2426
  855MOL0     H17931  10.801   2.588   5.260 -0.0366 -3.1510 -0.1543
  855MOL0     H17932  10.877   2.589   5.101 -0.2191  3.9145  0.7171
  855MOL0     H17933  10.635   2.415   5.155 -0.3204  0.2776 -0.2983
  855MOL0     H17934  10.713   2.450   5.001 -2.8909  0.5398  0.7199
  855MOL0     H17935  10.849   2.324   5.235 -2.0482 -0.1704  1.1622
  855MOL0     H17936  10.923   2.359   5.074  0.0940 -1.1712  1.7132
  855MOL0     H17937  10.867   2.115   5.079 -1.1315 -0.9964 -1.1582
  855MOL0     H17938  10.698   2.151   5.109 -1.7146 -0.4137 -2.0763
  855MOL0     H17939  10.959   2.250   4.827 -0.6242 -0.1767 -2.9919
  855MOL0     H17940  10.936   2.274   4.594 -0.3890  1.3469  2.9011
  855MOL0     H17941  10.791   2.349   4.527 -3.2035 -1.0106  0.3382
  855MOL0     H17942  10.845   2.048   4.513  2.2661  0.4565 -1.7548
  855MOL0     H17943  10.706   2.143   4.448  0.6420  0.3541 -1.6478
  855MOL0     H17944  10.855   2.256   4.295  0.3295 -1.0906 -2.1693
  855MOL0     H17945  10.997   2.171   4.336  0.1422 -1.1462 -2.4506
  855MOL0     H17946  10.904   1.959   4.276  0.4126  0.4070 -0.3387
  855MOL0     H17947  10.748   2.026   4.241 -0.2595 -0.9064  0.6594
  855MOL0     H17948  11.079   2.178   3.920  0.1396 -0.0330 -0.9552
  855MOL0     H17949  11.257   2.194   3.767 -0.2665  1.2309  1.9855
  855MOL0     H17950  11.333   2.052   3.696  0.9668 -0.1612 -0.1553
  855MOL0     H17951  11.397   2.130   3.851 -1.8424  0.7773  1.6709
  855MOL0     H17952  11.397   1.535   3.811 -0.8580  3.9567 -1.7095
  855MOL0     H17953  11.562   1.402   3.668 -1.7574 -1.0803  1.4246
  855MOL0     H17954  11.945   1.572   3.533  2.8304  0.3749  0.6819
  855MOL0     H17955  11.986   1.513   3.694  0.8788 -0.9507 -0.6059
  855MOL0     H17956  11.982   1.329   3.449  0.4965 -1.8226  0.5803
  855MOL0     H17957  12.116   1.414   3.523 -1.2136  2.4543  2.4923
  855MOL0     H17958  11.933   1.225   3.684 -0.0378  2.1371  0.7897
  855MOL0     H17959  12.069   1.325   3.732  0.0505  1.5219 -1.3653
  855MOL0     H17960  12.230   1.182   3.576 -0.0369  0.2978 -0.1832
  855MOL0     H17961  12.075   1.102   3.527 -1.1879 -1.3439  2.1570
  855MOL0     H17962  12.201   1.113   3.799  0.9019  1.8561 -1.7167
  855MOL0     H17963  12.051   1.027   3.756  1.3982 -2.0628  2.2842
  855MOL0     H17964  12.305   0.948   3.622  0.1910  0.5559  0.3461
  855MOL0     H17965  12.144   0.883   3.592 -0.0439 -1.1261  0.2716
  855MOL0     H17966  12.307   0.871   3.859 -0.7616 -1.3657  1.8452
  855MOL0     H17967  12.291   0.742   3.734  2.3330  1.9081 -1.6875
  855MOL0     H17968  12.036   0.848   3.851 -1.9157 -1.8597 -0.7679
  855MOL0     H17969  12.127   0.731   3.941 -1.4168  0.3911  0.3232
  855MOL0     H17970  11.874   1.655   3.809 -0.2783  0.0998  2.9369
  855MOL0     H17971  11.724   1.760   3.962  0.0433 -0.2096  1.4861
  855MOL0     H17972  11.230   1.741   4.075 -3.3028 -3.2243 -2.5988
  855MOL0     H17973  11.054   1.854   4.182  3.6125  3.7431  5.1770
  855MOL0     H17974  10.330   2.367   4.606  0.3472 -1.5796 -1.5800
  855MOL0     H17975  10.329   2.275   4.373  0.6515 -0.9912  1.2323
  855MOL0     H17976  10.657   2.319   3.990  2.8945 -1.1000 -1.7953
  855MOL0     H17977  10.784   2.169   3.872  0.4043 -1.3338  1.1356
  855MOL0     H17978  10.836   2.007   3.700 -1.5510  0.0538 -1.7478
  855MOL0     H17979  10.838   1.933   3.862 -1.2651  0.6665  0.2122
  855MOL0     H17980  10.979   1.815   3.714  0.1741 -0.3735  0.1090
  855MOL0     H17981  10.853   1.780   3.587  3.4053 -1.5534 -0.4413
  855MOL0     H17982  10.817   1.704   3.872 -1.6614  1.7713  0.4505
  855MOL0     H17983  10.714   1.653   3.735  0.3587  0.2534 -1.4196
  855MOL0     H17984  10.888   1.530   3.625 -1.2507 -1.6906 -1.0584
  855MOL0     H17985  10.827   1.460   3.767 -0.2521  0.1377 -0.6381
  855MOL0     H17986  11.200   1.523   3.943 -1.0871  0.8584  0.7104
  855MOL0     H17987  10.443   1.898   3.851 -1.2377  1.2660  2.2283
  855MOL0     H17988  10.196   2.102   3.977 -2.0429 -0.7984  3.5870
  855MOL0     H17989  10.255   1.929   3.968  1.1028 -0.5089 -0.6513
  855MOL0     H17990  10.253   2.033   4.113  0.0534 -2.0616 -0.9167
  856MOL0     O17991  10.075   9.322   0.001 -0.5748 -0.3935  0.2190
  856MOL0     C17992  10.091   9.367   0.110 -0.3204  1.2291 -0.7618
  856MOL0     O17993  10.035   9.485   0.161  0.1539 -0.0502  0.5225
  856MOL0     C17994   9.928   9.543   0.092 -0.0625  0.5761  0.1308
  856MOL0     C17995   9.833   9.465   0.034 -0.3377 -0.2339  0.9018
  856MOL0     C17996   9.749   9.527  -0.061  0.8099  1.1912 -0.9232
  856MOL0     C17997   9.731   9.666  -0.062 -0.4291  0.9001 -0.4027
  856MOL0     O17998   9.665   9.734  -0.164 -0.1119 -0.3259 -0.1324
  856MOL0     C17999   9.662   9.678  -0.294  0.4859  0.6175 -1.1073
  856MOL0     C18000   9.595   9.775  -0.392 -0.1416  0.7626  0.7364
  856MOL0     C18001   9.669   9.909  -0.409  0.6567 -0.4728  0.1792
  856MOL0     C18002   9.636   9.982  -0.538 -2.1353 -0.6765 -0.4620
  856MOL0     C18003   9.708  10.118  -0.530 -0.7323  0.2766  0.4002
  856MOL0     C18004   9.662  10.213  -0.649  1.0241 -0.9039  0.4696
  856MOL0     C18005   9.663  10.157  -0.785  0.5816  1.1231  0.3307
  856MOL0     C18006   9.661  10.257  -0.897 -0.0646  1.0198  0.6808
  856MOL0     N18007   9.654  10.187  -1.024  0.9708  0.3174 -0.7243
  856MOL0     C18008   9.537  10.171  -1.096  0.0202 -0.5830 -0.2626
  856MOL0     C18009   9.575  10.090  -1.195 -0.1860 -0.0680 -0.8612
  856MOL0     C18010   9.479  10.042  -1.301 -1.0425 -0.1075 -0.3229
  856MOL0     C18011   9.432   9.899  -1.272 -0.9450  0.1054  0.5334
  856MOL0     C18012   9.371   9.820  -1.389  0.2298 -0.5947  0.2809
  856MOL0     C18013   9.249   9.891  -1.447 -0.6917  0.7705  0.6688
  856MOL0     O18014   9.156   9.925  -1.337 -0.4597  0.2234 -0.6908
  856MOL0     C18015   9.025   9.927  -1.362  0.3727 -0.2424 -0.2713
  856MOL0     C18016   8.935   9.950  -1.259  0.6366 -0.3443 -0.1594
  856MOL0     C18017   8.789   9.957  -1.282  0.3087 -0.3268  0.3109
  856MOL0     C18018   8.703   9.964  -1.168  0.6665  0.2016 -1.1128
  856MOL0     C18019   8.736   9.974  -1.415 -0.5929  0.8257 -0.5615
  856MOL0     C18020   8.592   9.978  -1.459 -0.2053 -0.8287  0.2798
  856MOL0     O18021   8.485   9.987  -1.361  0.3049  0.1429 -0.4833
  856MOL0     C18022   8.351   9.954  -1.383  0.2836  0.1105 -0.0502
  856MOL0     C18023   8.290   9.910  -1.505 -0.0100  0.2612 -0.6368
  856MOL0     C18024   8.160   9.876  -1.518 -0.5301  0.0932  0.8088
  856MOL0     C18025   8.074   9.876  -1.396  0.4791  0.0974  0.8614
  856MOL0     O18026   7.959   9.815  -1.431  0.0176 -0.7642 -0.2724
  856MOL0     C18027   7.852   9.858  -1.347  0.2332 -0.9602  0.0924
  856MOL0     C18028   7.724   9.797  -1.389  1.0379  0.0074 -0.2388
  856MOL0     C18029   7.719   9.659  -1.320  0.1823  0.2600 -0.6356
  856MOL0     C18030   7.588   9.590  -1.327  0.2411  0.2971  0.6890
  856MOL0     C18031   7.580   9.441  -1.357  0.5044  0.6889 -0.6686
  856MOL0     C18032   7.634   9.357  -1.240  0.3596 -0.2930  0.2732
  856MOL0     C18033   7.630   9.209  -1.282 -0.5360  0.0450 -0.3582
  856MOL0     C18034   7.684   9.112  -1.173  0.0199 -0.2419  0.0812
  856MOL0    Cl18035   7.704   8.950  -1.247  0.2164  0.1545 -0.3114
  856MOL0     C18036   8.130   9.924  -1.280  0.2357  0.0659 -0.6255
  856MOL0     C18037   8.261   9.967  -1.269 -0.1587  0.0354  0.4951
  856MOL0     O18038   8.570   9.981  -1.583 -0.3350 -0.3941  0.0675
  856MOL0     C18039   8.834   9.952  -1.513 -0.6927  0.8437 -0.1012
  856MOL0     C18040   8.971   9.928  -1.485  0.3853  0.3071  0.1821
  856MOL0     N18041   9.713  10.063  -1.186  0.1201 -0.3279 -0.2223
  856MOL0     N18042   9.760  10.137  -1.089  0.2996 -0.5302  0.3622
  856MOL0     C18043   9.813   9.745   0.019 -0.1137 -0.7015 -0.5319
  856MOL0     C18044   9.913   9.686   0.099 -0.8788  0.1427 -0.0372
  856MOL0     C18045  10.189   9.291   0.195  0.5435  1.3897 -0.7697
  856MOL0     C18046  10.260   9.370   0.291 -0.3766  0.4509 -1.3464
  856MOL0     C18047  10.359   9.314   0.371 -0.8626  0.2614 -1.0684
  856MOL0     C18048  10.389   9.184   0.366  0.1252  0.1748 -0.3713
  856MOL0     O18049  10.466   9.124   0.461 -0.1725  0.7875  0.5828
  856MOL0     C18050  10.608   9.108   0.415  0.9725  0.6315 -0.5106
  856MOL0     C18051  10.709   9.211   0.473  0.4768  1.4099 -0.6906
  856MOL0     C18052  10.726   9.193   0.625 -0.3600  0.7421  0.6873
  856MOL0     C18053  10.872   9.194   0.674  0.6192 -0.3897  0.2565
  856MOL0     C18054  10.922   9.328   0.668 -0.8486 -1.2678  0.6780
  856MOL0     C18055  10.955   9.448   0.686 -0.1487 -0.8462 -0.2969
  856MOL0     C18056  10.309   9.101   0.285  0.2843  1.9392 -0.4442
  856MOL0     C18057  10.207   9.153   0.206  0.1492 -0.6423  0.6127
  856MOL0     C18058  10.126   9.058   0.110  0.3088 -0.7194  0.8289
  856MOL0     H18059   9.842   9.357   0.039 -0.6580 -0.5586 -2.6120
  856MOL0     H18060   9.682   9.455  -0.108 -1.1305  1.3247  1.4562
  856MOL0     H18061   9.598   9.589  -0.287  1.4498  0.0386  1.0913
  856MOL0     H18062   9.762   9.650  -0.328 -0.2581 -4.5808  0.0335
  856MOL0     H18063   9.590   9.729  -0.492 -0.3613  2.8195 -0.2442
  856MOL0     H18064   9.495   9.785  -0.350  0.1123  0.9964  1.2921
  856MOL0     H18065   9.626   9.965  -0.326 -0.6493 -0.9920 -0.1338
  856MOL0     H18066   9.776   9.900  -0.388  0.6164  0.7510  1.0458
  856MOL0     H18067   9.682   9.924  -0.618  3.9637 -0.1296  2.1586
  856MOL0     H18068   9.528  10.003  -0.546 -1.6553  1.2757 -2.8848
  856MOL0     H18069   9.817  10.105  -0.531 -0.4068  2.0714  3.0032
  856MOL0     H18070   9.692  10.172  -0.436 -0.3787  2.2609 -0.6050
  856MOL0     H18071   9.564  10.258  -0.628  1.2058  0.4637 -1.3346
  856MOL0     H18072   9.736  10.293  -0.654 -2.3972  2.5665 -0.2164
  856MOL0     H18073   9.570  10.099  -0.785  2.9782 -3.2484 -1.6406
  856MOL0     H18074   9.749  10.092  -0.802 -2.3290 -2.4932 -2.0830
  856MOL0     H18075   9.572  10.319  -0.884 -0.3468  0.3431  2.3701
  856MOL0     H18076   9.754  10.314  -0.895  0.6725 -0.0881 -0.5889
  856MOL0     H18077   9.444  10.227  -1.090 -0.9057 -1.5481 -3.6620
  856MOL0     H18078   9.539  10.047  -1.393 -3.2510 -1.4890 -1.9402
  856MOL0     H18079   9.394  10.110  -1.297 -1.2853 -0.4836  2.2410
  856MOL0     H18080   9.528   9.852  -1.248 -0.7193 -0.0147 -0.5543
  856MOL0     H18081   9.360   9.891  -1.190 -2.8731  0.8168 -1.0421
  856MOL0     H18082   9.451   9.797  -1.460 -0.3476  1.5959 -1.1465
  856MOL0     H18083   9.329   9.729  -1.344  0.7916 -1.9238 -1.7578
  856MOL0     H18084   9.288   9.979  -1.499 -2.3844  1.5552  0.6669
  856MOL0     H18085   9.209   9.821  -1.520 -1.2541 -0.9447  2.5524
  856MOL0     H18086   8.980   9.949  -1.160  2.8104 -1.4167 -1.0809
  856MOL0     H18087   8.651   9.867  -1.163 -0.4244  0.7755 -0.9486
  856MOL0     H18088   8.626  10.042  -1.169 -1.1307 -1.4798 -1.7385
  856MOL0     H18089   8.749   9.987  -1.072 -2.5158  0.0120  0.6177
  856MOL0     H18090   8.353   9.893  -1.592 -0.5668 -0.1428 -0.9650
  856MOL0     H18091   8.125   9.845  -1.616  1.7752 -0.6334  0.1441
  856MOL0     H18092   7.878   9.839  -1.243 -0.8193  1.6403  0.9214
  856MOL0     H18093   7.833   9.965  -1.358  1.0936 -0.7287  0.7236
  856MOL0     H18094   7.645   9.865  -1.356  1.7288  0.2403  0.9775
  856MOL0     H18095   7.723   9.774  -1.496  1.0772 -1.3281  0.0290
  856MOL0     H18096   7.738   9.667  -1.212 -1.1595 -0.5343 -0.3137
  856MOL0     H18097   7.793   9.594  -1.367 -0.8345 -1.0527 -0.4901
  856MOL0     H18098   7.527   9.644  -1.399  0.3728 -0.5667 -0.0765
  856MOL0     H18099   7.537   9.608  -1.231 -4.9463 -2.4392 -1.2004
  856MOL0     H18100   7.475   9.413  -1.369  0.2232 -0.0180  2.5788
  856MOL0     H18101   7.635   9.423  -1.450 -0.4795  3.5671 -1.9140
  856MOL0     H18102   7.589   9.374  -1.141  3.0242  0.7800  1.3876
  856MOL0     H18103   7.740   9.381  -1.242  0.1850  1.1570 -4.4826
  856MOL0     H18104   7.688   9.192  -1.373 -0.2166 -2.0668  0.2042
  856MOL0     H18105   7.524   9.183  -1.287 -1.2211  1.1721  3.9663
  856MOL0     H18106   7.617   9.102  -1.087 -1.4126 -3.6797 -1.2140
  856MOL0     H18107   7.784   9.145  -1.144 -0.1403  0.5916 -0.2846
  856MOL0     H18108   8.072   9.928  -1.188 -0.3560  1.0158 -1.0254
  856MOL0     H18109   8.286  10.002  -1.169 -1.8601 -0.7320  1.2360
  856MOL0     H18110   8.792   9.936  -1.612 -1.2724 -2.0348  0.5088
  856MOL0     H18111   9.030   9.908  -1.573  1.3946  1.3985  0.5884
  856MOL0     H18112   9.810   9.852   0.003 -0.9161 -0.5363  0.6240
  856MOL0     H18113   9.991   9.749   0.141 -0.5433  2.6216 -3.8431
  856MOL0     H18114  10.246   9.477   0.302  2.1665  0.6906  0.2206
  856MOL0     H18115  10.395   9.369   0.457 -1.5937 -2.1184  0.8870
  856MOL0     H18116  10.641   9.005   0.431 -0.8900  0.4480  3.2202
  856MOL0     H18117  10.605   9.124   0.307 -0.1432 -0.9983 -0.7579
  856MOL0     H18118  10.676   9.313   0.450 -3.1491  0.5875  0.2115
  856MOL0     H18119  10.798   9.190   0.414 -1.2529  1.0593 -3.3182
  856MOL0     H18120  10.668   9.273   0.670 -2.8978 -0.7986  0.3404
  856MOL0     H18121  10.678   9.099   0.652  2.0657 -1.2666 -1.3830
  856MOL0     H18122  10.928   9.134   0.601 -1.3985 -1.2318 -0.6763
  856MOL0     H18123  10.874   9.164   0.779 -2.4692  4.4262  2.0129
  856MOL0     H18124  10.990   9.549   0.700 -0.8693 -0.0391 -3.4415
  856MOL0     H18125  10.302   8.994   0.303 -0.9580  2.4836  3.0224
  856MOL0     H18126  10.029   9.101   0.086  0.7248 -1.0273 -1.7684
  856MOL0     H18127  10.188   9.032   0.024  3.5083  1.8626  2.1429
  856MOL0     H18128  10.097   8.965   0.160 -2.2256 -2.0212 -2.6240
  857MOL0     O18129   4.689   8.142  10.016  0.0274 -0.0242 -0.1411
  857MOL0     C18130   4.743   8.054  10.084  0.8440  0.4671 -0.3079
  857MOL0     O18131   4.725   7.919  10.080  0.2489 -0.2492 -0.5126
  857MOL0     C18132   4.632   7.866   9.999 -0.3369  0.8294  0.2233
  857MOL0     C18133   4.505   7.912  10.008 -0.6660 -0.0326 -0.9796
  857MOL0     C18134   4.403   7.863   9.938 -0.2010  0.2998 -0.9425
  857MOL0     C18135   4.411   7.739   9.882  0.3983 -0.6868  0.4404
  857MOL0     O18136   4.291   7.680   9.833 -0.1329  0.3920 -0.0623
  857MOL0     C18137   4.283   7.536   9.826  0.0059  1.2108  0.3147
  857MOL0     C18138   4.139   7.487   9.856 -0.1127  0.2163 -1.2116
  857MOL0     C18139   4.113   7.340   9.836 -0.4246  0.5030  1.5785
  857MOL0     C18140   3.968   7.302   9.866 -0.8397  0.0613  0.2852
  857MOL0     C18141   3.936   7.153   9.809  0.2932 -0.3883 -0.9308
  857MOL0     C18142   3.786   7.111   9.846 -0.0541  0.2582  0.3850
  857MOL0     C18143   3.764   6.961   9.828 -0.5870  1.6196  0.1106
  857MOL0     C18144   3.778   6.912   9.676 -0.2027  0.1959  0.5225
  857MOL0     N18145   3.741   6.773   9.645  0.1126  0.1301  0.5819
  857MOL0     C18146   3.811   6.665   9.690  0.4765  0.1447  0.2798
  857MOL0     C18147   3.736   6.561   9.657  0.7646 -0.0546 -0.0356
  857MOL0     C18148   3.767   6.422   9.689 -0.8640 -0.3810 -0.0926
  857MOL0     C18149   3.640   6.335   9.656  0.2042 -0.1011  0.4339
  857MOL0     C18150   3.657   6.177   9.676  0.1454  0.4200 -0.1131
  857MOL0     C18151   3.671   6.142   9.827  0.4361  0.1837 -0.9626
  857MOL0     O18152   3.530   6.140   9.859 -0.3544 -0.3905 -0.2515
  857MOL0     C18153   3.499   6.111   9.993  0.9447 -0.1255 -0.0403
  857MOL0     C18154   3.563   6.034  10.097  1.3671  0.3533  0.3095
  857MOL0     C18155   3.509   6.021  10.229  0.8376  0.2752  0.6051
  857MOL0     C18156   3.585   5.955  10.329  0.7042 -0.2796  0.3315
  857MOL0     C18157   3.398   6.096  10.269 -0.2910  0.6536  0.2115
  857MOL0     C18158   3.341   6.113  10.406  0.3884  0.7402 -0.1724
  857MOL0     O18159   3.211   6.116  10.410  0.7197  0.0096 -1.0201
  857MOL0     C18160   3.137   6.128  10.530  0.4524  0.3799 -0.1255
  857MOL0     C18161   3.189   6.186  10.652  1.2050  0.2197 -1.1520
  857MOL0     C18162   3.102   6.222  10.756  0.3388  0.0286 -0.1127
  857MOL0     C18163   2.972   6.207  10.745  0.7978  0.2234  0.8666
  857MOL0     O18164   2.877   6.249  10.842  0.0035  0.4875  0.0679
  857MOL0     C18165   2.836   6.138  10.929 -0.0401 -0.4781 -0.1831
  857MOL0     C18166   2.688   6.123  10.960 -0.6981 -0.5568  0.0029
  857MOL0     C18167   2.629   6.241  11.032 -0.5171  0.8922 -1.1071
  857MOL0     C18168   2.685   6.274  11.178  0.2372 -0.2642  0.2280
  857MOL0     C18169   2.637   6.410  11.235  0.5952  0.1745 -1.1513
  857MOL0     C18170   2.729   6.530  11.218  0.2236 -0.6088 -0.3487
  857MOL0     C18171   2.647   6.646  11.265 -0.8290  0.0081  0.0984
  857MOL0     C18172   2.541   6.701  11.165 -0.0113 -0.5559  0.1013
  857MOL0    Cl18173   2.637   6.733  11.014  0.1539 -0.1610 -0.1669
  857MOL0     C18174   2.918   6.153  10.634 -0.1217  0.7471 -0.2443
  857MOL0     C18175   2.997   6.121  10.524  0.0798 -0.5456  0.0653
  857MOL0     O18176   3.417   6.098  10.502  0.6329  1.1253  0.1932
  857MOL0     C18177   3.329   6.163  10.163 -0.7049 -0.0324 -0.2990
  857MOL0     C18178   3.381   6.166  10.031  0.1517 -0.3947  0.2475
  857MOL0     N18179   3.633   6.611   9.576  0.0483  0.9053 -0.1451
  857MOL0     N18180   3.637   6.735   9.579  0.2381 -0.0840 -0.1093
  857MOL0     C18181   4.539   7.679   9.875 -0.8729 -0.4110  0.1879
  857MOL0     C18182   4.654   7.743   9.933  0.4506 -0.8100 -0.2587
  857MOL0     C18183   4.818   8.105  10.197  0.0010 -0.1526 -0.7659
  857MOL0     C18184   4.917   8.196  10.173 -0.6290 -0.2452 -0.2281
  857MOL0     C18185   4.995   8.250  10.273 -0.8902 -0.0747  0.1302
  857MOL0     C18186   4.971   8.215  10.412  0.3823  0.0611  0.4110
  857MOL0     O18187   5.056   8.276  10.502  0.2014  0.3291  0.0033
  857MOL0     C18188   5.018   8.274  10.645 -1.2436 -0.1914  0.5079
  857MOL0     C18189   5.126   8.336  10.730 -1.0693  0.2875 -0.4269
  857MOL0     C18190   5.264   8.241  10.736  0.2916  0.1333  0.6037
  857MOL0     C18191   5.339   8.253  10.600 -0.9059  0.1707 -0.1839
  857MOL0     C18192   5.462   8.181  10.627  0.1026 -0.4586  0.9548
  857MOL0     C18193   5.552   8.098  10.634  0.2766  0.0465 -0.4961
  857MOL0     C18194   4.877   8.110  10.437 -0.0122  0.7524  0.4368
  857MOL0     C18195   4.798   8.057  10.332  0.9147 -0.1803  0.3789
  857MOL0     C18196   4.690   7.944  10.352 -0.9071  0.4741  0.0635
  857MOL0     H18197   4.484   7.994  10.076 -0.0637  0.0764 -0.9139
  857MOL0     H18198   4.308   7.910   9.958 -2.2249 -3.1494 -1.6228
  857MOL0     H18199   4.351   7.487   9.896 -2.0181 -2.4786 -0.0239
  857MOL0     H18200   4.300   7.503   9.723 -0.3589  1.8383  0.0486
  857MOL0     H18201   4.119   7.505   9.962  0.1691  0.2163 -1.1569
  857MOL0     H18202   4.069   7.542   9.793 -2.1203  0.1393  0.8606
  857MOL0     H18203   4.125   7.318   9.729  1.4093  2.2784  1.3517
  857MOL0     H18204   4.189   7.276   9.882 -2.9599 -1.2592  3.5870
  857MOL0     H18205   3.969   7.316   9.975  3.8574 -1.5230  0.6943
  857MOL0     H18206   3.896   7.369   9.819  0.7270 -0.0671 -2.5200
  857MOL0     H18207   3.995   7.085   9.870 -2.1475 -2.9230 -1.2153
  857MOL0     H18208   3.969   7.142   9.705 -0.4724 -0.4826 -1.1662
  857MOL0     H18209   3.753   7.138   9.947 -1.0207 -3.2572  1.1459
  857MOL0     H18210   3.721   7.173   9.782  0.0585  0.2257  0.2389
  857MOL0     H18211   3.665   6.937   9.870 -0.0096 -1.1494  0.1048
  857MOL0     H18212   3.843   6.915   9.887 -0.7281  0.6458 -0.4466
  857MOL0     H18213   3.718   6.975   9.610 -1.3815  0.1982  1.5543
  857MOL0     H18214   3.883   6.925   9.648 -0.3939  1.9341  0.5267
  857MOL0     H18215   3.901   6.662   9.751  1.5531  0.2220 -1.2404
  857MOL0     H18216   3.788   6.407   9.795 -0.2689 -0.1725 -0.1771
  857MOL0     H18217   3.854   6.390   9.630 -1.6007 -0.8948 -0.9325
  857MOL0     H18218   3.550   6.364   9.710 -0.9955 -2.9817  0.1751
  857MOL0     H18219   3.623   6.340   9.548 -1.2608  0.7348  0.6819
  857MOL0     H18220   3.583   6.125   9.614 -2.1150  0.9866  1.9435
  857MOL0     H18221   3.755   6.151   9.635  0.7164  1.8666  0.2683
  857MOL0     H18222   3.724   6.050   9.855 -0.6320  0.8924  4.7151
  857MOL0     H18223   3.730   6.212   9.887 -0.3188 -0.5356  0.6989
  857MOL0     H18224   3.650   5.983  10.057 -0.8235 -2.6530 -1.0488
  857MOL0     H18225   3.668   5.904  10.280  0.9569  0.8460 -0.4476
  857MOL0     H18226   3.523   5.882  10.383 -2.4229  1.4342 -0.7045
  857MOL0     H18227   3.615   6.031  10.402  0.7426  1.4113 -1.3789
  857MOL0     H18228   3.291   6.216  10.673  0.8380 -0.0000  1.2968
  857MOL0     H18229   3.135   6.281  10.841  0.9462 -0.0351 -0.2954
  857MOL0     H18230   2.868   6.048  10.876  1.2953 -0.3161  0.2931
  857MOL0     H18231   2.895   6.130  11.022  0.5160 -0.1503 -0.5004
  857MOL0     H18232   2.626   6.121  10.869 -0.7289 -0.4412  0.0200
  857MOL0     H18233   2.676   6.034  11.021 -0.5524 -0.9127 -0.4809
  857MOL0     H18234   2.521   6.227  11.045 -0.4092  1.7036  1.0873
  857MOL0     H18235   2.643   6.330  10.970  1.3141  2.0230  0.7831
  857MOL0     H18236   2.794   6.281  11.163  0.3351  1.1439  1.3612
  857MOL0     H18237   2.668   6.193  11.249 -1.1261  0.3998  0.6796
  857MOL0     H18238   2.536   6.425  11.197  1.1575  0.6299 -2.5339
  857MOL0     H18239   2.618   6.394  11.342  1.2952  0.1422 -1.0261
  857MOL0     H18240   2.761   6.534  11.113 -0.3506  0.6645 -0.4939
  857MOL0     H18241   2.820   6.518  11.278 -1.0512 -0.7409  1.6284
  857MOL0     H18242   2.711   6.732  11.286  1.3622 -1.1461 -1.5462
  857MOL0     H18243   2.598   6.606  11.355 -0.9620  0.9363  0.4555
  857MOL0     H18244   2.509   6.796  11.209  2.5182 -0.6852  2.5629
  857MOL0     H18245   2.460   6.629  11.152  1.3656 -2.3874  1.1006
  857MOL0     H18246   2.813   6.131  10.620  0.6569 -2.2123 -2.8519
  857MOL0     H18247   2.940   6.090  10.437 -0.6421 -2.4747  1.1594
  857MOL0     H18248   3.239   6.215  10.195  1.1105  0.5688  4.7477
  857MOL0     H18249   3.329   6.225   9.956  0.3153  1.1491  1.3170
  857MOL0     H18250   4.546   7.584   9.822 -0.7082  0.2954 -1.0992
  857MOL0     H18251   4.748   7.693   9.911  0.5384 -0.2121 -1.3346
  857MOL0     H18252   4.930   8.243  10.076 -2.2485  0.1756 -0.2654
  857MOL0     H18253   5.085   8.309  10.253  0.6351 -1.0484  3.4682
  857MOL0     H18254   4.931   8.340  10.655 -2.0205 -0.8818 -1.3208
  857MOL0     H18255   4.997   8.173  10.681 -1.3660 -0.5187 -0.4589
  857MOL0     H18256   5.088   8.352  10.831  1.5840 -0.5052  0.7726
  857MOL0     H18257   5.143   8.440  10.700  1.8010 -0.6859 -2.6435
  857MOL0     H18258   5.323   8.272  10.823  0.4639 -0.6889  0.7835
  857MOL0     H18259   5.249   8.133  10.746  1.9159 -0.0327  1.5772
  857MOL0     H18260   5.358   8.358  10.577 -2.9149  0.4829 -0.6082
  857MOL0     H18261   5.290   8.214  10.510 -0.4738  1.6079 -1.0732
  857MOL0     H18262   5.643   8.045  10.651  0.6107  0.9737  0.7766
  857MOL0     H18263   4.849   8.067  10.532  0.8493  1.0004  0.8191
  857MOL0     H18264   4.668   7.931  10.458 -0.4607 -0.0076  0.0988
  857MOL0     H18265   4.591   7.973  10.316 -1.4223  0.6909  1.5876
  857MOL0     H18266   4.717   7.845  10.315 -2.6177 -0.5024  1.2726
  858MOL0     O18267   7.736  11.105   4.862  0.0259  0.1062  0.2464
  858MOL0     C18268   7.817  11.198   4.832  0.3957 -0.2577 -0.7338
  858MOL0     O18269   7.813  11.318   4.889 -0.1916 -1.0351  0.4878
  858MOL0     C18270   7.731  11.350   4.995  0.6200  0.3821 -1.4947
  858MOL0     C18271   7.796  11.423   5.093 -0.3480 -0.5732 -0.7915
  858MOL0     C18272   7.735  11.461   5.219 -0.5947  0.1785 -0.8449
  858MOL0     C18273   7.600  11.450   5.227 -0.0997 -0.6687 -0.4129
  858MOL0     O18274   7.547  11.518   5.338  0.3188 -0.4812  0.1833
  858MOL0     C18275   7.412  11.544   5.343  0.3017 -0.0339  0.8242
  858MOL0     C18276   7.388  11.631   5.458  0.0687 -0.5877 -0.4578
  858MOL0     C18277   7.247  11.640   5.507  0.2107  0.6597  0.0641
  858MOL0     C18278   7.229  11.731   5.620 -1.0465 -0.0061 -0.1133
  858MOL0     C18279   7.101  11.812   5.624  0.2484  0.7811  0.8288
  858MOL0     C18280   7.073  11.888   5.754  0.0614  0.3806 -0.8069
  858MOL0     C18281   6.942  11.960   5.739  0.7427  0.3408 -0.4213
  858MOL0     C18282   6.900  12.054   5.852  0.0919 -0.4101 -0.8507
  858MOL0     N18283   6.760  12.093   5.871 -0.2716  0.0487  0.0163
  858MOL0     C18284   6.666  11.996   5.880  0.1576 -0.5692 -0.6438
  858MOL0     C18285   6.559  12.054   5.947 -0.8961  0.7471  0.4019
  858MOL0     C18286   6.428  11.990   5.981  0.4680 -0.2184  0.5268
  858MOL0     C18287   6.414  11.988   6.136 -0.0836  1.0512  0.7782
  858MOL0     C18288   6.369  12.124   6.189 -1.4183  0.8357  0.6101
  858MOL0     C18289   6.343  12.119   6.338  0.8451  0.4334  0.3059
  858MOL0     O18290   6.253  12.008   6.372 -0.4017 -0.1380  0.2416
  858MOL0     C18291   6.270  11.909   6.474  0.1696 -0.1561  1.4400
  858MOL0     C18292   6.377  11.898   6.568 -0.8990  0.3368  0.2025
  858MOL0     C18293   6.382  11.783   6.659  0.5899 -0.1348 -0.2089
  858MOL0     C18294   6.503  11.798   6.759  0.0159  0.4769  0.5779
  858MOL0     C18295   6.284  11.673   6.635  0.1119 -0.1547 -1.1211
  858MOL0     C18296   6.284  11.548   6.714  0.4673 -0.8495 -0.0850
  858MOL0     O18297   6.179  11.466   6.691 -0.6278  0.1368 -0.0739
  858MOL0     C18298   6.167  11.346   6.764  0.7185  0.2970  0.3882
  858MOL0     C18299   6.150  11.217   6.715 -0.4999  0.0729  0.2027
  858MOL0     C18300   6.133  11.111   6.802 -0.0044 -0.5007  0.7026
  858MOL0     C18301   6.103  11.126   6.937  0.0734 -0.2143 -0.0130
  858MOL0     O18302   6.084  11.010   7.017 -0.5499 -0.3492  0.4302
  858MOL0     C18303   6.023  11.023   7.140  0.8815 -0.7776 -0.8119
  858MOL0     C18304   5.977  10.888   7.199  0.2233  0.1267 -1.3715
  858MOL0     C18305   6.098  10.792   7.211  0.4333 -0.1166  0.3480
  858MOL0     C18306   6.207  10.860   7.299 -0.3970 -0.2615  0.1189
  858MOL0     C18307   6.317  10.759   7.340  0.0480 -0.2634 -0.7672
  858MOL0     C18308   6.382  10.665   7.231  0.0915 -0.1974 -0.4712
  858MOL0     C18309   6.448  10.737   7.116  0.1031 -0.4491  0.4427
  858MOL0     C18310   6.436  10.661   6.989  0.7764 -0.5561  0.1771
  858MOL0    Cl18311   6.529  10.501   6.993 -0.0548 -0.2273  0.5146
  858MOL0     C18312   6.112  11.255   6.987  0.5936  0.7990 -0.0883
  858MOL0     C18313   6.140  11.359   6.902  0.0567 -0.2591  0.3571
  858MOL0     O18314   6.368  11.524   6.796 -0.1350  0.3285 -0.9007
  858MOL0     C18315   6.182  11.688   6.542 -1.4033  0.7812 -0.4358
  858MOL0     C18316   6.174  11.802   6.466  0.9092 -0.8056  0.0579
  858MOL0     N18317   6.589  12.184   5.969  0.5597  0.1565  0.5761
  858MOL0     N18318   6.710  12.207   5.924 -0.6138  1.0912 -0.7359
  858MOL0     C18319   7.527  11.371   5.133 -0.7435  0.5178 -1.1055
  858MOL0     C18320   7.599  11.317   5.029 -0.8083  0.4081 -0.1218
  858MOL0     C18321   7.928  11.169   4.733 -0.3016 -0.1784  0.0931
  858MOL0     C18322   8.024  11.263   4.709 -0.5746  0.4042  0.2263
  858MOL0     C18323   8.140  11.242   4.630  0.0100 -0.6905 -0.6466
  858MOL0     C18324   8.147  11.120   4.556  0.6311 -0.1374  0.3119
  858MOL0     O18325   8.253  11.100   4.460  0.4128 -0.5896  0.1868
  858MOL0     C18326   8.323  10.978   4.464 -0.0231 -0.1707  0.8884
  858MOL0     C18327   8.439  10.984   4.562 -0.1646  0.2197  1.0262
  858MOL0     C18328   8.516  11.117   4.558 -0.5574  0.3152 -0.0284
  858MOL0     C18329   8.637  11.101   4.651 -0.4656  0.5360 -0.2687
  858MOL0     C18330   8.591  11.127   4.786  0.0130  0.2532 -1.1576
  858MOL0     C18331   8.558  11.178   4.892  1.1232 -0.6549 -0.3243
  858MOL0     C18332   8.054  11.025   4.573 -0.1954  0.9961  0.2073
  858MOL0     C18333   7.947  11.040   4.665 -0.2182  0.2089  0.0828
  858MOL0     C18334   7.848  10.927   4.679  0.1249  0.9341  0.5988
  858MOL0     H18335   7.900  11.449   5.081 -0.4013  1.7163  2.5306
  858MOL0     H18336   7.788  11.517   5.295  0.1753 -0.7209 -0.7013
  858MOL0     H18337   7.362  11.447   5.348 -1.6131  0.7232 -1.4470
  858MOL0     H18338   7.380  11.580   5.245 -0.8072 -1.7869  0.4790
  858MOL0     H18339   7.445  11.597   5.545 -1.2940  0.8721  1.0597
  858MOL0     H18340   7.407  11.735   5.433 -1.5268  0.5938  2.7397
  858MOL0     H18341   7.172  11.661   5.430 -2.9688 -0.6910  2.5704
  858MOL0     H18342   7.216  11.545   5.553 -2.8029  1.2597 -0.4731
  858MOL0     H18343   7.239  11.665   5.707  0.0256 -2.0368 -1.6840
  858MOL0     H18344   7.321  11.790   5.626 -0.1680 -1.2536 -0.7585
  858MOL0     H18345   7.021  11.739   5.612  0.2043  0.9453  0.1022
  858MOL0     H18346   7.094  11.877   5.536  0.2215 -0.0820  0.1878
  858MOL0     H18347   7.077  11.817   5.836 -1.6688  0.4042 -0.6751
  858MOL0     H18348   7.157  11.957   5.766  1.8125 -1.7953  0.1676
  858MOL0     H18349   6.869  11.879   5.728  0.9943 -0.7893  4.1919
  858MOL0     H18350   6.933  12.020   5.647 -1.1302 -3.1641 -2.7574
  858MOL0     H18351   6.926  11.991   5.937  0.4074 -2.1047 -2.1581
  858MOL0     H18352   6.965  12.142   5.853 -0.7123  0.3631  3.2200
  858MOL0     H18353   6.677  11.891   5.859  1.4036 -0.8855  1.2707
  858MOL0     H18354   6.433  11.894   5.930 -1.0617 -0.4670  0.8127
  858MOL0     H18355   6.342  12.045   5.943  2.3077  1.0547 -2.1231
  858MOL0     H18356   6.343  11.907   6.159  2.9320 -1.9058  0.4416
  858MOL0     H18357   6.509  11.951   6.174 -0.4990 -0.6931  0.2314
  858MOL0     H18358   6.454  12.191   6.173  0.3445 -1.4946 -0.2764
  858MOL0     H18359   6.282  12.162   6.134 -2.4113  0.0954  1.6166
  858MOL0     H18360   6.438  12.100   6.390  1.5362 -1.3982 -1.4728
  858MOL0     H18361   6.310  12.214   6.380 -0.8477  1.0561 -2.2323
  858MOL0     H18362   6.443  11.982   6.588  0.0743 -1.0783  3.9758
  858MOL0     H18363   6.562  11.709   6.735 -1.0012 -0.7527  2.3585
  858MOL0     H18364   6.470  11.783   6.863  0.4428 -2.7637  0.3488
  858MOL0     H18365   6.564  11.886   6.738  1.8949 -1.0276 -0.5730
  858MOL0     H18366   6.169  11.203   6.609  5.6695 -0.1404  0.9877
  858MOL0     H18367   6.142  11.008   6.771 -6.2609 -1.4118  0.6942
  858MOL0     H18368   6.086  11.068   7.218  1.3490 -1.0849 -1.0082
  858MOL0     H18369   5.944  11.099   7.141  1.2499 -0.3735 -1.8647
  858MOL0     H18370   5.938  10.909   7.300 -1.6870 -1.4707 -1.7289
  858MOL0     H18371   5.897  10.841   7.142  1.3820 -3.3459 -0.3444
  858MOL0     H18372   6.135  10.767   7.111  1.1473 -1.5779  0.9475
  858MOL0     H18373   6.074  10.700   7.266 -2.1761 -1.0679 -2.1352
  858MOL0     H18374   6.169  10.908   7.390  0.5353  0.2389  0.2646
  858MOL0     H18375   6.259  10.939   7.244 -3.3151  1.3122 -0.6017
  858MOL0     H18376   6.388  10.821   7.396 -0.0835 -1.2053  0.4731
  858MOL0     H18377   6.272  10.687   7.409 -0.4189 -1.5698 -2.3650
  858MOL0     H18378   6.312  10.592   7.191  2.1736 -1.3100 -2.2915
  858MOL0     H18379   6.452  10.606   7.293 -1.0611  1.5964  2.8107
  858MOL0     H18380   6.557  10.742   7.121  0.0564 -0.2984  1.6462
  858MOL0     H18381   6.405  10.838   7.113 -1.7995 -1.2423 -1.8768
  858MOL0     H18382   6.471  10.715   6.901 -0.0653  0.7633  0.6104
  858MOL0     H18383   6.334  10.642   6.954 -0.5868  4.1395  0.9439
  858MOL0     H18384   6.103  11.285   7.091 -2.5989  0.6077 -0.2236
  858MOL0     H18385   6.146  11.457   6.947 -1.5346 -0.1552  0.3843
  858MOL0     H18386   6.111  11.607   6.531  2.5852 -3.3424  0.6746
  858MOL0     H18387   6.098  11.812   6.390  0.9026  0.9521  0.2563
  858MOL0     H18388   7.434  11.326   5.166 -0.6020  0.7383 -0.3682
  858MOL0     H18389   7.559  11.240   4.964  3.9680  0.7971 -4.0788
  858MOL0     H18390   8.022  11.359   4.761  0.9270 -0.7102  2.5238
  858MOL0     H18391   8.225  11.307   4.616 -1.5789  1.2616 -1.6550
  858MOL0     H18392   8.261  10.896   4.502 -0.6756  1.0194  2.4968
  858MOL0     H18393   8.354  10.960   4.361  2.1436 -3.7596  2.0050
  858MOL0     H18394   8.509  10.902   4.541 -0.5368  0.5939 -2.1540
  858MOL0     H18395   8.392  10.980   4.661 -2.3760  0.4940  0.0373
  858MOL0     H18396   8.544  11.145   4.456 -0.3814  0.6164  0.1001
  858MOL0     H18397   8.448  11.198   4.585  1.2357  1.0594  2.6402
  858MOL0     H18398   8.716  11.168   4.617 -1.2488  1.6607  0.0692
  858MOL0     H18399   8.673  10.999   4.666  0.5719  1.0713  1.1256
  858MOL0     H18400   8.533  11.236   4.979 -0.2843  0.5980 -1.4865
  858MOL0     H18401   8.053  10.936   4.511 -2.2200 -0.5696  2.3034
  858MOL0     H18402   7.857  10.847   4.604 -0.3486  1.2195  0.2307
  858MOL0     H18403   7.852  10.870   4.772  6.5674 -2.9638 -1.3790
  858MOL0     H18404   7.746  10.964   4.666  0.1072  0.5576 -0.4647
  859MOL0     O18405   3.393   9.114   5.019 -0.0504  0.6388 -0.1235
  859MOL0     C18406   3.438   9.218   5.055 -0.9124  0.0062 -0.1722
  859MOL0     O18407   3.399   9.342   5.023  0.3337  0.0141 -0.0481
  859MOL0     C18408   3.280   9.377   4.959 -0.3972 -0.4727 -0.2065
  859MOL0     C18409   3.173   9.285   4.941  0.9152 -0.1395  0.3827
  859MOL0     C18410   3.051   9.322   4.869 -0.8192  0.1420 -0.4686
  859MOL0     C18411   3.055   9.452   4.809  0.1947  0.6134 -0.2277
  859MOL0     O18412   2.945   9.507   4.742 -0.3718  0.0370 -0.0918
  859MOL0     C18413   2.825   9.428   4.755  0.0960 -0.3683 -0.8550
  859MOL0     C18414   2.734   9.496   4.654  1.2068  0.3639 -0.2434
  859MOL0     C18415   2.599   9.424   4.641 -0.1672 -0.7631  0.0681
  859MOL0     C18416   2.517   9.414   4.768 -0.0586 -0.6661 -0.6993
  859MOL0     C18417   2.386   9.340   4.739  0.3005  0.1493  0.5692
  859MOL0     C18418   2.406   9.190   4.706  0.5846  0.8314  0.5273
  859MOL0     C18419   2.287   9.124   4.645  0.7872 -0.4055 -0.8304
  859MOL0     C18420   2.308   8.970   4.638  0.1922  0.7768  0.1965
  859MOL0     N18421   2.217   8.905   4.537  0.1089  0.5219 -0.0119
  859MOL0     C18422   2.116   8.960   4.464  0.5293  0.4560 -0.3273
  859MOL0     C18423   2.086   8.870   4.373 -0.3226 -0.6260  0.8718
  859MOL0     C18424   1.979   8.892   4.279  0.1133 -0.2257 -0.9279
  859MOL0     C18425   1.852   8.834   4.341  0.1517 -0.6987 -0.0087
  859MOL0     C18426   1.741   8.829   4.239  1.1361  0.2469  0.7516
  859MOL0     C18427   1.628   8.740   4.296  0.4295  0.5314  0.7158
  859MOL0     O18428   1.526   8.737   4.195 -0.5840  0.0719  0.2643
  859MOL0     C18429   1.413   8.658   4.212 -0.8815 -0.1985  1.2463
  859MOL0     C18430   1.408   8.523   4.243  0.2626  0.3560 -0.9938
  859MOL0     C18431   1.293   8.454   4.278  0.1009 -0.8420 -0.1231
  859MOL0     C18432   1.315   8.324   4.343  0.3359  0.4868 -0.3368
  859MOL0     C18433   1.170   8.510   4.245  0.8104 -0.4139 -0.5192
  859MOL0     C18434   1.041   8.444   4.258 -0.8488  0.2042  0.2868
  859MOL0     O18435   0.938   8.524   4.276 -0.2462 -0.7636 -0.1716
  859MOL0     C18436   0.804   8.484   4.285  0.5069  0.7158 -0.0217
  859MOL0     C18437   0.762   8.353   4.322  0.2992  0.0400  0.0559
  859MOL0     C18438   0.622   8.323   4.327  0.1287  0.1792  0.7999
  859MOL0     C18439   0.529   8.428   4.295  0.5059  0.1492 -0.4546
  859MOL0     O18440   0.402   8.384   4.312  0.4396 -0.3238  0.5035
  859MOL0     C18441   0.311   8.490   4.330  0.1454  0.0918  0.2581
  859MOL0     C18442   0.177   8.430   4.374 -0.1235 -0.2421  0.0606
  859MOL0     C18443   0.187   8.388   4.520 -1.1251  0.4474 -0.5578
  859MOL0     C18444   0.239   8.239   4.552 -0.0040  0.5759  0.1405
  859MOL0     C18445   0.272   8.229   4.703 -0.6068  0.2346  0.4850
  859MOL0     C18446   0.312   8.076   4.738  0.4633  0.5744 -0.5241
  859MOL0     C18447   0.429   8.031   4.642  0.4321 -0.0804  0.0744
  859MOL0     C18448   0.513   7.918   4.705  0.2227 -0.3322 -0.1656
  859MOL0    Cl18449   0.615   7.994   4.832  0.1375  0.1426  0.3570
  859MOL0     C18450   0.580   8.558   4.252  0.2764 -0.6882  0.3212
  859MOL0     C18451   0.716   8.582   4.254  0.1205  0.0518  0.1893
  859MOL0     O18452   1.042   8.325   4.240 -1.3380  0.9478  0.0174
  859MOL0     C18453   1.175   8.642   4.186  0.2763 -0.5506 -0.2419
  859MOL0     C18454   1.288   8.716   4.190  0.1680 -0.8705 -0.4631
  859MOL0     N18455   2.165   8.751   4.386 -0.4258  0.2739 -0.2213
  859MOL0     N18456   2.242   8.785   4.480  0.3633  0.5665  0.0546
  859MOL0     C18457   3.160   9.538   4.825 -1.0668  0.6528 -0.1149
  859MOL0     C18458   3.280   9.504   4.896  0.8202  0.7992  0.5145
  859MOL0     C18459   3.560   9.204   5.134 -0.4698  0.7176 -0.0574
  859MOL0     C18460   3.623   9.319   5.177 -0.4829 -0.2112  0.9942
  859MOL0     C18461   3.747   9.320   5.248  0.2240  0.4563 -0.4044
  859MOL0     C18462   3.800   9.204   5.294  0.3931 -0.3445  0.0898
  859MOL0     O18463   3.902   9.206   5.380  0.3273  0.3526  0.2955
  859MOL0     C18464   4.029   9.227   5.318 -0.8953 -0.1130 -0.4692
  859MOL0     C18465   4.088   9.084   5.317 -0.8823  0.1437 -0.2388
  859MOL0     C18466   4.148   9.045   5.463  0.8183  0.3850 -0.2576
  859MOL0     C18467   4.286   9.111   5.483  1.2691  0.5278 -1.2330
  859MOL0     C18468   4.312   9.098   5.628  0.3632 -1.1810 -0.9316
  859MOL0     C18469   4.336   9.098   5.745  1.3359 -0.8521 -0.9039
  859MOL0     C18470   3.726   9.084   5.266 -0.6871 -0.2594 -0.2270
  859MOL0     C18471   3.622   9.081   5.184  0.6768  0.1245  0.0454
  859MOL0     C18472   3.591   8.944   5.141  0.1894 -0.0477 -0.1653
  859MOL0     H18473   3.181   9.183   4.977  0.6001 -0.2915  0.0319
  859MOL0     H18474   2.976   9.245   4.853 -1.4807  0.3954  1.2278
  859MOL0     H18475   2.790   9.411   4.857  0.0404 -0.3051 -0.8636
  859MOL0     H18476   2.842   9.327   4.716 -1.9953 -1.4285  0.7442
  859MOL0     H18477   2.719   9.600   4.682  4.0465  1.5316 -2.4715
  859MOL0     H18478   2.782   9.510   4.556 -0.3979  3.4816 -0.7180
  859MOL0     H18479   2.536   9.488   4.579  0.1732  1.6694  2.0766
  859MOL0     H18480   2.609   9.327   4.591  2.1092  0.8430 -2.8659
  859MOL0     H18481   2.579   9.370   4.847  2.3534  3.4925  0.0291
  859MOL0     H18482   2.496   9.516   4.800 -0.8802 -0.4531 -1.8813
  859MOL0     H18483   2.346   9.383   4.646  0.2320  0.9144  0.9439
  859MOL0     H18484   2.314   9.351   4.820  1.5141 -0.2170  1.7352
  859MOL0     H18485   2.485   9.165   4.635 -0.9947  0.0117 -1.0198
  859MOL0     H18486   2.436   9.137   4.798 -2.5532 -2.7005 -0.2211
  859MOL0     H18487   2.293   9.167   4.545  2.5020  2.3776  0.3293
  859MOL0     H18488   2.196   9.150   4.700  0.7584 -0.3620 -0.8986
  859MOL0     H18489   2.412   8.948   4.614  0.4136 -1.0175  2.4521
  859MOL0     H18490   2.303   8.933   4.740  3.8094  1.2804  0.7097
  859MOL0     H18491   2.061   9.051   4.484 -0.7569 -0.2957 -0.3354
  859MOL0     H18492   2.001   8.838   4.187 -2.0161 -2.2477 -0.3541
  859MOL0     H18493   1.966   8.999   4.263 -1.2414 -0.3479 -0.7799
  859MOL0     H18494   1.870   8.732   4.375 -4.0023 -2.0389 -1.2329
  859MOL0     H18495   1.809   8.893   4.422 -2.5161  0.2786 -1.9528
  859MOL0     H18496   1.719   8.928   4.199  1.3464 -0.9846 -2.8108
  859MOL0     H18497   1.753   8.771   4.146  1.1145  0.6606  0.4903
  859MOL0     H18498   1.656   8.638   4.321 -1.1329  0.4389  2.3198
  859MOL0     H18499   1.586   8.780   4.389 -0.0383  0.0262  0.7260
  859MOL0     H18500   1.504   8.475   4.261  3.3522  6.2938  1.1338
  859MOL0     H18501   1.407   8.328   4.403  2.5045  3.7787 -3.4224
  859MOL0     H18502   1.316   8.247   4.266 -0.2781  1.8941 -1.8000
  859MOL0     H18503   1.227   8.316   4.407  2.0348  4.1434  2.9642
  859MOL0     H18504   0.827   8.271   4.352  1.9298  1.1545 -0.3122
  859MOL0     H18505   0.587   8.224   4.355 -1.1991  1.3225  3.6588
  859MOL0     H18506   0.342   8.554   4.413 -5.2487  1.4411  1.6272
  859MOL0     H18507   0.309   8.537   4.231  1.7218 -3.6496 -1.7643
  859MOL0     H18508   0.107   8.513   4.364  0.8685  0.3927 -2.1842
  859MOL0     H18509   0.140   8.349   4.311 -2.0792 -0.9224  1.9584
  859MOL0     H18510   0.079   8.392   4.540 -1.0128 -0.1605  0.2021
  859MOL0     H18511   0.237   8.461   4.583 -2.6591 -0.2970  1.6412
  859MOL0     H18512   0.336   8.213   4.509  0.9061  0.3345  2.1957
  859MOL0     H18513   0.167   8.161   4.526 -0.2197  0.6915  0.3884
  859MOL0     H18514   0.358   8.294   4.726 -0.4723  0.5831 -0.9528
  859MOL0     H18515   0.195   8.266   4.772  1.0114  2.4524  1.2445
  859MOL0     H18516   0.220   8.018   4.721 -0.0678  1.8603 -2.3603
  859MOL0     H18517   0.351   8.076   4.840  0.9285  0.5855 -0.7034
  859MOL0     H18518   0.493   8.115   4.616 -0.0051  0.1820 -0.1695
  859MOL0     H18519   0.381   8.007   4.547 -1.3928 -1.4235  1.2461
  859MOL0     H18520   0.581   7.877   4.630  0.3151 -0.3265 -0.0859
  859MOL0     H18521   0.442   7.840   4.737 -1.9785  1.7288  0.2604
  859MOL0     H18522   0.509   8.636   4.226  0.2833 -0.4919  0.8797
  859MOL0     H18523   0.749   8.681   4.225  1.5914 -1.3280 -3.4067
  859MOL0     H18524   1.080   8.687   4.156  0.6138  1.1537  1.0843
  859MOL0     H18525   1.281   8.820   4.160  0.8009 -1.0692 -1.3443
  859MOL0     H18526   3.162   9.639   4.785 -1.6026  0.8191  0.2753
  859MOL0     H18527   3.366   9.570   4.893  1.1369  0.4255  1.1018
  859MOL0     H18528   3.587   9.419   5.154 -1.5336 -0.3881  1.7958
  859MOL0     H18529   3.787   9.418   5.270 -3.2149  1.5072  1.9760
  859MOL0     H18530   4.045   9.282   5.225  1.2732 -0.3085 -0.2691
  859MOL0     H18531   4.091   9.287   5.385  0.9949  0.5789 -2.6580
  859MOL0     H18532   4.167   9.081   5.242 -0.7231  3.5073 -0.3300
  859MOL0     H18533   4.016   9.014   5.274  1.7277 -2.4676 -0.7051
  859MOL0     H18534   4.075   9.067   5.541  1.0366  1.3839 -0.3215
  859MOL0     H18535   4.150   8.935   5.457 -3.2361  0.2022 -1.2538
  859MOL0     H18536   4.280   9.216   5.453 -1.4237  0.9618  0.4363
  859MOL0     H18537   4.349   9.049   5.420 -1.1057 -3.4301 -0.0745
  859MOL0     H18538   4.347   9.098   5.852 -0.9241  0.0441 -0.6220
  859MOL0     H18539   3.758   8.993   5.315 -1.9342 -2.0166 -2.4554
  859MOL0     H18540   3.487   8.928   5.172 -0.6630  2.2727 -1.5097
  859MOL0     H18541   3.594   8.935   5.032 -0.8497 -0.4391 -0.1712
  859MOL0     H18542   3.656   8.868   5.185  2.7329 -0.1101 -3.6267
  860MOL0     O18543   2.709   6.623   5.102 -0.0508 -0.0585 -0.1397
  860MOL0     C18544   2.737   6.583   4.987  0.6057 -0.4641  0.0011
  860MOL0     O18545   2.647   6.541   4.906  0.7866  0.0835  1.0839
  860MOL0     C18546   2.519   6.581   4.925  0.8118  0.7908  0.2015
  860MOL0     C18547   2.473   6.709   4.893 -0.2279  0.1845 -0.2336
  860MOL0     C18548   2.341   6.745   4.899  0.2534 -0.6399 -0.5839
  860MOL0     C18549   2.254   6.660   4.965  0.9867  0.8101  0.0259
  860MOL0     O18550   2.117   6.669   4.993 -0.1985  0.0817 -0.9000
  860MOL0     C18551   2.058   6.795   5.033  0.8614  0.0098  0.8787
  860MOL0     C18552   1.972   6.852   4.926 -0.1717  0.1009 -0.5060
  860MOL0     C18553   1.910   6.983   4.964 -0.5572  0.4262 -0.4574
  860MOL0     C18554   1.757   6.975   4.947  0.2034  0.2968  0.7465
  860MOL0     C18555   1.709   7.094   5.031  0.3193  0.4022 -0.0042
  860MOL0     C18556   1.561   7.146   5.001 -0.1699 -0.1439 -0.3650
  860MOL0     C18557   1.529   7.267   5.085 -0.1703 -0.3452 -0.2424
  860MOL0     C18558   1.423   7.357   5.033 -0.4951 -0.4268  0.4269
  860MOL0     N18559   1.288   7.286   5.040  0.6165  1.0450  0.1627
  860MOL0     C18560   1.168   7.351   5.009 -0.1772 -0.1859 -1.4324
  860MOL0     C18561   1.077   7.263   5.043 -0.4475  0.4415  0.5948
  860MOL0     C18562   0.928   7.275   5.025 -0.3327 -1.1073 -0.2743
  860MOL0     C18563   0.865   7.354   5.141 -0.4999  0.1999  0.4186
  860MOL0     C18564   0.904   7.498   5.155  0.6958 -0.0633 -0.4764
  860MOL0     C18565   0.819   7.568   5.253  0.3863 -0.8593  0.1216
  860MOL0     O18566   0.815   7.508   5.382 -0.2490  0.4020 -0.1400
  860MOL0     C18567   0.773   7.578   5.494 -0.9071  0.1921  1.0650
  860MOL0     C18568   0.666   7.667   5.490 -0.2299  0.2887  1.1542
  860MOL0     C18569   0.629   7.734   5.610  0.1278  0.7363  0.7084
  860MOL0     C18570   0.501   7.830   5.586 -0.0698  0.7476 -0.2449
  860MOL0     C18571   0.692   7.713   5.737  0.2338  0.1498  0.1509
  860MOL0     C18572   0.653   7.803   5.858  0.0912  0.0864 -0.7950
  860MOL0     O18573   0.589   7.917   5.834 -0.1668 -0.0258  0.0788
  860MOL0     C18574   0.577   8.028   5.909 -0.2884  0.2377 -0.1714
  860MOL0     C18575   0.522   8.143   5.844  0.9706  0.6809 -0.2193
  860MOL0     C18576   0.488   8.265   5.915 -1.2677  0.5908 -0.8920
  860MOL0     C18577   0.508   8.267   6.059 -0.6856 -0.6834  1.1788
  860MOL0     O18578   0.489   8.371   6.149 -0.4062  0.2691  0.3683
  860MOL0     C18579   0.386   8.472   6.106  0.9386 -1.4408  0.8236
  860MOL0     C18580   0.242   8.413   6.074 -0.7256  0.1386 -0.5436
  860MOL0     C18581   0.163   8.378   6.210  0.2093  0.1007  1.0269
  860MOL0     C18582   0.028   8.298   6.180 -0.9142  1.4847 -0.2066
  860MOL0     C18583  -0.076   8.395   6.118 -0.5257  0.9657 -0.7734
  860MOL0     C18584  -0.219   8.340   6.118  0.2166 -0.6623 -0.5315
  860MOL0     C18585  -0.313   8.456   6.098 -0.4018 -0.5462  0.3404
  860MOL0     C18586  -0.455   8.402   6.070  0.5976  0.3326 -0.6333
  860MOL0    Cl18587  -0.575   8.519   6.055  0.1791 -0.2689 -0.0994
  860MOL0     C18588   0.583   8.159   6.119 -0.5154 -0.7995  0.7593
  860MOL0     C18589   0.615   8.038   6.046  0.5429 -0.3826 -0.6826
  860MOL0     O18590   0.694   7.761   5.968  0.7929  0.5562 -0.3416
  860MOL0     C18591   0.794   7.612   5.730 -0.9475 -0.2635 -1.3253
  860MOL0     C18592   0.845   7.557   5.615 -0.3124 -1.1648  1.1277
  860MOL0     N18593   1.137   7.144   5.083 -0.2918  0.1522 -0.0526
  860MOL0     N18594   1.264   7.154   5.084  0.7301 -1.4222  0.9500
  860MOL0     C18595   2.303   6.544   5.017 -0.2902 -0.2023 -0.3939
  860MOL0     C18596   2.431   6.502   4.995  0.3133  0.1620 -0.0678
  860MOL0     C18597   2.879   6.580   4.947  0.0134  0.1660 -0.7276
  860MOL0     C18598   2.951   6.699   4.920  0.2717  0.2022  0.0654
  860MOL0     C18599   3.089   6.688   4.887 -0.0846  1.0724  0.1185
  860MOL0     C18600   3.146   6.554   4.859 -0.2807  0.2923 -0.4023
  860MOL0     O18601   3.281   6.546   4.821  0.4347 -0.2445  0.3549
  860MOL0     C18602   3.312   6.434   4.742 -0.0111  0.0263 -0.5520
  860MOL0     C18603   3.422   6.479   4.647  0.3799  0.6547  0.3260
  860MOL0     C18604   3.387   6.614   4.562 -1.2061 -0.5008 -0.2751
  860MOL0     C18605   3.496   6.732   4.578 -0.3740  0.6725  0.3994
  860MOL0     C18606   3.624   6.705   4.513 -0.2639 -0.0833  0.2017
  860MOL0     C18607   3.726   6.676   4.460  0.0478 -0.8411 -0.0723
  860MOL0     C18608   3.070   6.440   4.889  0.5149  0.0941 -0.0300
  860MOL0     C18609   2.947   6.454   4.941  1.1277 -0.8317 -0.6382
  860MOL0     C18610   2.878   6.326   4.976  0.2787  0.5881 -0.3882
  860MOL0     H18611   2.550   6.772   4.850 -3.4310  1.2260 -5.2503
  860MOL0     H18612   2.306   6.840   4.860  1.0091 -0.3317 -0.5396
  860MOL0     H18613   2.136   6.865   5.065 -0.7224  0.8028  3.2453
  860MOL0     H18614   1.995   6.782   5.121 -0.4106  1.9534  0.3105
  860MOL0     H18615   2.026   6.895   4.841  2.4740 -1.1641  0.4236
  860MOL0     H18616   1.905   6.779   4.881 -0.0890 -1.5392  1.8594
  860MOL0     H18617   1.951   7.016   5.060 -1.5700 -0.4287  0.2938
  860MOL0     H18618   1.935   7.067   4.899  0.6991  0.2658 -0.2274
  860MOL0     H18619   1.736   6.991   4.841 -0.3117 -2.3688  0.3794
  860MOL0     H18620   1.708   6.886   4.988  0.3737  0.6218  1.6844
  860MOL0     H18621   1.784   7.172   5.018  2.8464 -1.8975 -0.1407
  860MOL0     H18622   1.717   7.054   5.133  0.4672  3.0533  1.1017
  860MOL0     H18623   1.562   7.165   4.893 -0.5010  0.2700 -0.2955
  860MOL0     H18624   1.486   7.069   5.020 -0.7227  0.1753 -1.1852
  860MOL0     H18625   1.616   7.332   5.097 -1.5632  1.8021 -1.1512
  860MOL0     H18626   1.489   7.240   5.183 -0.6211  1.6164  0.1670
  860MOL0     H18627   1.412   7.448   5.092  3.7292  0.5150  0.0862
  860MOL0     H18628   1.444   7.392   4.932 -0.7708  2.6711  1.3670
  860MOL0     H18629   1.148   7.454   4.980  0.2535  0.3824  0.2028
  860MOL0     H18630   0.881   7.177   5.023 -1.5930 -0.5673  0.9712
  860MOL0     H18631   0.893   7.324   4.934 -2.8387 -1.2125  0.5541
  860MOL0     H18632   0.760   7.327   5.128  0.4891 -4.4239  0.4042
  860MOL0     H18633   0.887   7.308   5.238 -0.0532  0.1742  0.3108
  860MOL0     H18634   1.010   7.509   5.182  0.7151 -0.9606 -0.1643
  860MOL0     H18635   0.887   7.544   5.058  0.9638  0.1192 -0.4386
  860MOL0     H18636   0.847   7.673   5.248 -2.5772  0.0511  0.7291
  860MOL0     H18637   0.715   7.567   5.218  1.4290 -0.4442 -3.2869
  860MOL0     H18638   0.626   7.660   5.389  4.5057  0.2068 -0.9764
  860MOL0     H18639   0.451   7.793   5.496  1.4334 -1.2966 -0.3220
  860MOL0     H18640   0.523   7.935   5.568  0.0995  1.0374  1.5048
  860MOL0     H18641   0.430   7.815   5.668 -1.6731  0.4438 -1.6281
  860MOL0     H18642   0.487   8.138   5.742  2.2435 -2.9956 -0.6212
  860MOL0     H18643   0.444   8.343   5.853  3.6816  2.7022 -2.2665
  860MOL0     H18644   0.384   8.549   6.184 -2.9603 -0.4339 -0.0313
  860MOL0     H18645   0.415   8.526   6.016 -0.4929 -1.8496  0.0905
  860MOL0     H18646   0.180   8.476   6.009 -2.1211 -0.1773  0.4537
  860MOL0     H18647   0.251   8.317   6.023  2.4838  1.1774 -2.2404
  860MOL0     H18648   0.137   8.472   6.258 -1.8445 -1.2862  2.8517
  860MOL0     H18649   0.211   8.298   6.268  1.5128 -0.9540 -1.3568
  860MOL0     H18650  -0.007   8.244   6.269 -1.3333 -0.9612 -1.7424
  860MOL0     H18651   0.061   8.221   6.109  0.2273  1.6175  0.1700
  860MOL0     H18652  -0.069   8.478   6.189  2.4916 -1.9861  2.7986
  860MOL0     H18653  -0.055   8.429   6.016 -2.0089 -3.5858 -2.8607
  860MOL0     H18654  -0.238   8.294   6.215  2.4045  0.4247  0.4833
  860MOL0     H18655  -0.228   8.272   6.032 -0.4033 -0.3682 -0.6976
  860MOL0     H18656  -0.297   8.528   6.018 -1.5528  1.0997  1.5191
  860MOL0     H18657  -0.300   8.515   6.190  1.9222 -1.3383  0.5731
  860MOL0     H18658  -0.486   8.344   6.157  0.4681 -0.1801 -1.0172
  860MOL0     H18659  -0.448   8.349   5.975  0.2711  2.3084 -1.8110
  860MOL0     H18660   0.611   8.176   6.223  0.3138 -1.7962  0.7236
  860MOL0     H18661   0.661   7.957   6.102 -4.2522 -2.6667  0.5491
  860MOL0     H18662   0.844   7.583   5.822 -0.8420 -0.8669 -1.5681
  860MOL0     H18663   0.934   7.496   5.620  0.0717 -1.4088 -3.8124
  860MOL0     H18664   2.237   6.478   5.073  1.2536 -0.8191  0.7800
  860MOL0     H18665   2.467   6.405   5.029 -0.9243 -1.1656 -2.2746
  860MOL0     H18666   2.911   6.799   4.925  1.4719  0.6552  1.4577
  860MOL0     H18667   3.152   6.772   4.863  1.1811 -0.2980 -1.5794
  860MOL0     H18668   3.344   6.344   4.796  1.3699  1.6995  1.6275
  860MOL0     H18669   3.231   6.405   4.676  1.4586  0.0758 -2.4677
  860MOL0     H18670   3.441   6.390   4.587  4.0888  0.4756  1.4979
  860MOL0     H18671   3.518   6.496   4.696  0.8795  0.3524 -0.5115
  860MOL0     H18672   3.388   6.576   4.459  1.4970 -0.9813 -0.1336
  860MOL0     H18673   3.287   6.653   4.582 -0.5207  1.3546 -0.3376
  860MOL0     H18674   3.505   6.772   4.680 -1.0911  1.9270 -0.0013
  860MOL0     H18675   3.456   6.822   4.529  0.2669 -1.0955 -3.8308
  860MOL0     H18676   3.814   6.653   4.403 -1.0239 -1.1350 -1.6869
  860MOL0     H18677   3.109   6.338   4.887 -2.9000 -1.3991  1.5002
  860MOL0     H18678   2.803   6.351   5.052 -1.1592 -1.5701 -0.9988
  860MOL0     H18679   2.836   6.268   4.894  0.8612 -0.6849  0.1877
  860MOL0     H18680   2.937   6.250   5.028 -3.4559 -0.9188  2.0468
  861MOL0     O18681   9.318   4.624   0.713 -0.8897 -0.2453 -0.2446
  861MOL0     C18682   9.292   4.575   0.604 -0.1342  0.5954  0.5240
  861MOL0     O18683   9.380   4.547   0.506 -0.2081  0.3549 -0.3669
  861MOL0     C18684   9.511   4.603   0.509  1.5652  0.9931 -0.2920
  861MOL0     C18685   9.611   4.516   0.543  0.7045  0.7763  0.1979
  861MOL0     C18686   9.743   4.561   0.551  0.0961  0.4446  0.3434
  861MOL0     C18687   9.778   4.698   0.517 -0.5307  0.8565 -0.6172
  861MOL0     O18688   9.906   4.743   0.544 -0.1298  0.3749 -0.4420
  861MOL0     C18689  10.012   4.646   0.556 -0.6355 -0.5469 -0.3325
  861MOL0     C18690  10.135   4.723   0.516 -0.5162 -0.9140  0.3863
  861MOL0     C18691  10.178   4.812   0.639 -0.1800  0.7115 -0.2305
  861MOL0     C18692  10.306   4.887   0.614 -0.4600  0.4871  0.1020
  861MOL0     C18693  10.318   5.006   0.710  0.1373  0.6474  0.0830
  861MOL0     C18694  10.455   5.073   0.685 -0.5256  0.3358  0.7289
  861MOL0     C18695  10.496   5.173   0.797  0.5731 -0.7369 -0.5468
  861MOL0     C18696  10.524   5.110   0.938  0.6868 -0.4122 -0.0989
  861MOL0     N18697  10.517   5.210   1.047  0.0755  0.2175 -1.6962
  861MOL0     C18698  10.418   5.300   1.077 -0.1809  0.2323  0.0952
  861MOL0     C18699  10.458   5.376   1.182 -0.3908  0.4914  0.5603
  861MOL0     C18700  10.382   5.492   1.235  0.1778  0.7507 -0.5588
  861MOL0     C18701  10.234   5.492   1.196  0.0817  0.3243  0.7649
  861MOL0     C18702  10.154   5.574   1.294 -0.6763  0.0451 -0.1095
  861MOL0     C18703  10.130   5.520   1.422  0.9750 -0.1173  0.1761
  861MOL0     O18704  10.058   5.394   1.406 -0.2838 -0.4161 -0.8887
  861MOL0     C18705   9.993   5.344   1.518  0.7882 -0.3595  0.8418
  861MOL0     C18706   9.941   5.401   1.636 -1.3711  0.0346 -0.5992
  861MOL0     C18707   9.878   5.327   1.730  0.1790 -0.0798 -0.0405
  861MOL0     C18708   9.831   5.407   1.850 -0.9473  0.6418  0.3071
  861MOL0     C18709   9.849   5.195   1.713 -0.3229 -1.0779  0.7896
  861MOL0     C18710   9.768   5.131   1.812  0.2124  0.6692 -0.4684
  861MOL0     O18711   9.821   5.023   1.874  0.1334  0.0183 -0.1448
  861MOL0     C18712   9.735   4.931   1.937 -0.1555 -0.1878 -0.6272
  861MOL0     C18713   9.712   4.812   1.885 -0.0778 -0.2695 -0.2153
  861MOL0     C18714   9.648   4.717   1.954  0.4278  0.1227 -0.3296
  861MOL0     C18715   9.614   4.742   2.085  0.2418  0.3943 -0.6919
  861MOL0     O18716   9.555   4.645   2.167  0.0832 -0.0490 -0.5109
  861MOL0     C18717   9.424   4.609   2.124 -0.5045 -1.7260 -0.0688
  861MOL0     C18718   9.335   4.655   2.235 -0.6507 -0.1773  1.2240
  861MOL0     C18719   9.360   4.571   2.360 -0.0308  0.2368 -0.3709
  861MOL0     C18720   9.264   4.615   2.473  0.0308  0.1145 -0.1048
  861MOL0     C18721   9.278   4.540   2.606  0.2839 -0.0877  0.0656
  861MOL0     C18722   9.214   4.609   2.729 -0.3619 -0.3706 -0.1518
  861MOL0     C18723   9.243   4.544   2.860  0.3528  0.0430 -1.1988
  861MOL0     C18724   9.205   4.631   2.983  0.1929  0.7334  0.2364
  861MOL0    Cl18725   9.035   4.612   3.034  0.5044  0.0020  0.6149
  861MOL0     C18726   9.627   4.865   2.141  0.0424 -0.7134  0.3989
  861MOL0     C18727   9.700   4.957   2.066  0.5181 -0.4939 -0.6032
  861MOL0     O18728   9.645   5.152   1.808 -0.0260 -0.7597  0.1762
  861MOL0     C18729   9.883   5.136   1.590 -0.6358 -0.3397  0.5841
  861MOL0     C18730   9.959   5.208   1.498 -0.3221  0.0196  0.4170
  861MOL0     N18731  10.581   5.319   1.228 -0.7099  0.7766  0.0740
  861MOL0     N18732  10.612   5.220   1.145 -0.9647  0.1236  0.0494
  861MOL0     C18733   9.680   4.775   0.454  0.1105 -0.7594  0.3305
  861MOL0     C18734   9.548   4.728   0.459  0.1885  0.4689  0.6992
  861MOL0     C18735   9.154   4.513   0.591  0.9505  0.2298 -0.5552
  861MOL0     C18736   9.106   4.511   0.464  0.2119 -0.2870 -0.5755
  861MOL0     C18737   8.976   4.452   0.430 -0.3454 -0.2185 -0.8201
  861MOL0     C18738   8.898   4.407   0.533  0.6242 -0.0501  1.6543
  861MOL0     O18739   8.765   4.376   0.516 -0.3438 -0.2090 -0.0674
  861MOL0     C18740   8.664   4.474   0.470  0.3679 -0.1842  1.2290
  861MOL0     C18741   8.591   4.398   0.356 -0.7240  0.2841  0.0077
  861MOL0     C18742   8.669   4.414   0.221 -0.3770 -0.9888 -0.0560
  861MOL0     C18743   8.604   4.318   0.113  0.3512  0.5209  0.0305
  861MOL0     C18744   8.483   4.373   0.049 -0.0801 -0.5201  0.5303
  861MOL0     C18745   8.396   4.415  -0.028  0.3588 -0.2944 -1.0891
  861MOL0     C18746   8.943   4.415   0.664 -1.1403 -0.0503  0.2958
  861MOL0     C18747   9.079   4.446   0.696  0.0506 -0.7097  1.0786
  861MOL0     C18748   9.126   4.429   0.841 -0.7276 -0.9348  0.7317
  861MOL0     H18749   9.603   4.410   0.563 -2.3712  0.5610 -1.5377
  861MOL0     H18750   9.819   4.492   0.584  0.8668  1.8697  1.6658
  861MOL0     H18751   9.995   4.578   0.472 -0.2513 -0.6990 -0.2901
  861MOL0     H18752  10.021   4.590   0.650 -0.0332  0.4113  0.1890
  861MOL0     H18753  10.224   4.661   0.499 -0.4882 -1.0957  1.1456
  861MOL0     H18754  10.108   4.780   0.426  1.2702  0.2400  0.5367
  861MOL0     H18755  10.099   4.876   0.678  0.0302  0.3798  0.7623
  861MOL0     H18756  10.192   4.747   0.726 -0.8241  0.8039 -0.0528
  861MOL0     H18757  10.374   4.805   0.638 -3.2237 -1.5911  1.4816
  861MOL0     H18758  10.316   4.907   0.507  1.4495 -0.8003 -0.0097
  861MOL0     H18759  10.305   4.975   0.814 -1.9081  0.9667 -0.0297
  861MOL0     H18760  10.237   5.078   0.696 -0.8950 -0.4928  0.0099
  861MOL0     H18761  10.530   4.993   0.681  0.6181  1.3221  1.4585
  861MOL0     H18762  10.450   5.121   0.586  2.1212 -0.1821  0.2587
  861MOL0     H18763  10.405   5.231   0.812 -0.6112 -3.0787  2.2941
  861MOL0     H18764  10.575   5.245   0.771 -1.3766  1.9872  0.5462
  861MOL0     H18765  10.454   5.031   0.965  0.0268 -0.6401 -2.2749
  861MOL0     H18766  10.625   5.069   0.937  1.6028  1.5644  2.2009
  861MOL0     H18767  10.323   5.320   1.029 -0.2158 -0.0326  0.0523
  861MOL0     H18768  10.427   5.582   1.192 -1.7049  0.5207 -3.2066
  861MOL0     H18769  10.401   5.499   1.343  1.3003  3.5219 -0.8348
  861MOL0     H18770  10.211   5.533   1.098 -0.8197 -0.9166  0.4321
  861MOL0     H18771  10.197   5.389   1.195  2.4437 -0.5903  0.4980
  861MOL0     H18772  10.199   5.670   1.322  2.3587 -2.2355  3.9141
  861MOL0     H18773  10.058   5.589   1.243 -0.2960 -1.2244 -1.2488
  861MOL0     H18774  10.216   5.502   1.488  0.1895 -1.5053  0.8771
  861MOL0     H18775  10.071   5.594   1.478  1.9517 -0.2700  1.4564
  861MOL0     H18776   9.955   5.507   1.655 -1.9778  0.7342 -3.6005
  861MOL0     H18777   9.902   5.404   1.933 -0.0031  2.4523 -0.3791
  861MOL0     H18778   9.730   5.385   1.886  0.6869 -0.1887  5.0839
  861MOL0     H18779   9.821   5.514   1.828 -1.8697  0.2870 -1.2040
  861MOL0     H18780   9.751   4.811   1.783  0.0580  3.9133 -0.3869
  861MOL0     H18781   9.634   4.621   1.906  2.0724 -0.0281 -0.5787
  861MOL0     H18782   9.404   4.654   2.027  2.6213 -2.7041 -1.3046
  861MOL0     H18783   9.423   4.504   2.095  2.4879 -0.7396 -4.7213
  861MOL0     H18784   9.350   4.760   2.261  1.8559 -0.3371  0.7310
  861MOL0     H18785   9.232   4.650   2.200 -0.3861  1.9243 -0.0069
  861MOL0     H18786   9.462   4.581   2.398  0.5720  1.2325 -2.1335
  861MOL0     H18787   9.330   4.467   2.345 -0.5489  0.4537 -0.8592
  861MOL0     H18788   9.162   4.611   2.434 -0.5489  0.3231  1.3052
  861MOL0     H18789   9.291   4.718   2.499  0.7242  0.1301 -0.8466
  861MOL0     H18790   9.251   4.436   2.585  0.0731 -0.3194  1.3639
  861MOL0     H18791   9.383   4.548   2.635 -0.1129  3.0304  0.9621
  861MOL0     H18792   9.107   4.623   2.711 -0.0810  3.2794  0.2333
  861MOL0     H18793   9.263   4.706   2.740 -0.1868 -0.6951  2.7315
  861MOL0     H18794   9.347   4.511   2.868  0.0247 -0.5861  3.3935
  861MOL0     H18795   9.175   4.459   2.874 -1.9150  1.9584  0.3313
  861MOL0     H18796   9.208   4.738   2.964  0.5675  0.6808 -0.0354
  861MOL0     H18797   9.283   4.599   3.053  0.5938  0.5304 -0.2879
  861MOL0     H18798   9.606   4.868   2.248 -2.7665  2.0161 -0.0942
  861MOL0     H18799   9.725   5.053   2.111 -2.4830 -0.6658  1.7548
  861MOL0     H18800   9.857   5.035   1.558  0.1533 -0.6789  0.9905
  861MOL0     H18801   9.991   5.146   1.415 -2.2165 -2.9060  1.7183
  861MOL0     H18802   9.706   4.876   0.422  1.7981 -0.4129  2.5847
  861MOL0     H18803   9.463   4.788   0.429 -0.4818 -0.7974 -0.0237
  861MOL0     H18804   9.165   4.551   0.382  1.0671 -1.0389 -0.3489
  861MOL0     H18805   8.935   4.457   0.329 -3.3756 -1.2423  0.2633
  861MOL0     H18806   8.606   4.512   0.555 -0.2023  2.8682 -0.3644
  861MOL0     H18807   8.723   4.557   0.429  0.8574 -1.8439 -1.7321
  861MOL0     H18808   8.488   4.432   0.344 -0.8958 -1.0483 -3.4554
  861MOL0     H18809   8.576   4.295   0.391  1.0153  0.7027  2.3050
  861MOL0     H18810   8.663   4.521   0.199 -2.5303 -0.4916  2.4313
  861MOL0     H18811   8.776   4.393   0.215 -0.5679 -1.8360 -0.5615
  861MOL0     H18812   8.584   4.215   0.143  1.5074 -0.7303 -3.1179
  861MOL0     H18813   8.678   4.295   0.036  0.9422  0.7624  0.5098
  861MOL0     H18814   8.317   4.459  -0.085 -0.8569  1.6653  1.8325
  861MOL0     H18815   8.872   4.408   0.746 -1.3489 -2.7376 -0.0391
  861MOL0     H18816   9.071   4.341   0.877 -2.1389  0.1347  1.2831
  861MOL0     H18817   9.235   4.418   0.849 -0.6849 -0.7497  0.4060
  861MOL0     H18818   9.086   4.512   0.900 -0.9474 -0.2182 -0.3953
  862MOL0     O18819   0.956   5.883   3.505  0.2989  0.8265  0.1849
  862MOL0     C18820   1.044   5.793   3.506 -0.0953  0.6236  0.2073
  862MOL0     O18821   1.174   5.818   3.533  0.5107 -0.3973  1.1028
  862MOL0     C18822   1.227   5.945   3.507 -0.3399  0.1649 -0.7000
  862MOL0     C18823   1.285   6.033   3.601 -0.3296 -0.9224 -0.6269
  862MOL0     C18824   1.362   6.142   3.557  0.0043  0.0137  0.3349
  862MOL0     C18825   1.379   6.166   3.417 -0.2734 -0.1584 -0.1648
  862MOL0     O18826   1.461   6.259   3.367 -0.6020  0.7868  0.5473
  862MOL0     C18827   1.423   6.392   3.385 -0.1728 -0.3007  0.4019
  862MOL0     C18828   1.332   6.418   3.261 -0.0759 -0.3884 -0.3168
  862MOL0     C18829   1.304   6.573   3.255  0.0680 -0.0880  0.2154
  862MOL0     C18830   1.200   6.599   3.143 -0.1781  0.9822 -0.1371
  862MOL0     C18831   1.065   6.528   3.164  0.1162  0.1191  0.4075
  862MOL0     C18832   0.968   6.570   3.052 -0.1490 -0.0616 -0.3798
  862MOL0     C18833   0.842   6.477   3.045 -0.7324  0.3739  0.7873
  862MOL0     C18834   0.729   6.516   3.147 -0.0943 -0.3509 -0.5148
  862MOL0     N18835   0.666   6.649   3.112  0.3735  0.4273  0.1030
  862MOL0     C18836   0.710   6.775   3.146 -0.0166  0.3901 -0.5147
  862MOL0     C18837   0.602   6.856   3.120  0.4557 -0.1599  0.4848
  862MOL0     C18838   0.609   7.011   3.131 -1.3156 -0.0490 -0.3582
  862MOL0     C18839   0.527   7.081   3.021 -1.1032  0.1721  0.5957
  862MOL0     C18840   0.373   7.067   3.036  0.1096 -0.0372 -0.3720
  862MOL0     C18841   0.306   7.197   2.983  0.8435 -0.8160  0.0136
  862MOL0     O18842   0.336   7.306   3.063  0.0033 -0.8201 -0.2986
  862MOL0     C18843   0.259   7.418   3.040  0.1062 -0.2595  0.7382
  862MOL0     C18844   0.170   7.435   2.932  0.1012  0.8947  0.0894
  862MOL0     C18845   0.097   7.551   2.917  0.0386 -0.2524 -0.4348
  862MOL0     C18846   0.007   7.555   2.800 -0.5178  0.3037 -0.1574
  862MOL0     C18847   0.120   7.653   3.010 -1.2221  0.5227 -0.5356
  862MOL0     C18848   0.053   7.783   3.000 -0.7949 -0.0425  0.4036
  862MOL0     O18849   0.121   7.892   3.071  0.5666 -0.4297  0.2136
  862MOL0     C18850   0.102   8.019   3.025  0.3480  0.1478  0.8850
  862MOL0     C18851   0.183   8.079   2.931  0.0857  0.6914  1.0023
  862MOL0     C18852   0.151   8.201   2.882 -0.2432  0.1387  0.3348
  862MOL0     C18853   0.039   8.273   2.924  1.1480  0.4095 -0.1771
  862MOL0     O18854  -0.008   8.393   2.878 -0.8153 -0.4550  0.2004
  862MOL0     C18855   0.050   8.440   2.751 -0.6073  0.4806 -0.2579
  862MOL0     C18856  -0.037   8.512   2.649  0.2197 -0.1006  0.1953
  862MOL0     C18857  -0.152   8.425   2.592 -0.0337  0.7616 -0.1154
  862MOL0     C18858  -0.215   8.499   2.476 -0.6012 -0.6059 -0.8370
  862MOL0     C18859  -0.313   8.396   2.411 -0.2417  0.1562 -0.8205
  862MOL0     C18860  -0.242   8.321   2.297  0.1985  0.1693 -0.0925
  862MOL0     C18861  -0.302   8.183   2.262 -0.3369 -0.3539 -0.7333
  862MOL0     C18862  -0.235   8.114   2.131  0.7505  0.5043  0.3420
  862MOL0    Cl18863  -0.260   8.224   1.993 -0.2149  0.2716 -0.0518
  862MOL0     C18864  -0.043   8.217   3.028 -0.4691 -0.2142 -0.6151
  862MOL0     C18865  -0.010   8.088   3.080  0.2080 -0.6668 -0.8616
  862MOL0     O18866  -0.059   7.787   2.945 -0.2735 -0.0863  0.3417
  862MOL0     C18867   0.210   7.642   3.126 -0.0236  1.4094 -0.0115
  862MOL0     C18868   0.279   7.517   3.136 -0.2078  0.0748  0.4887
  862MOL0     N18869   0.495   6.778   3.069  0.3294 -0.5796  0.7611
  862MOL0     N18870   0.537   6.658   3.068 -0.5394 -0.4919  0.1631
  862MOL0     C18871   1.316   6.078   3.330  0.2905  0.6030  0.1935
  862MOL0     C18872   1.239   5.968   3.374  0.5687 -0.0108 -0.2167
  862MOL0     C18873   1.007   5.655   3.452 -1.2287  0.2460 -1.2438
  862MOL0     C18874   1.094   5.551   3.497 -0.3569  0.5240 -0.4676
  862MOL0     C18875   1.076   5.428   3.437 -0.3433  0.3581 -1.6423
  862MOL0     C18876   0.962   5.391   3.361 -0.2118 -0.9724 -0.6297
  862MOL0     O18877   0.955   5.257   3.314  0.5366  0.5338 -0.2250
  862MOL0     C18878   0.879   5.232   3.194 -0.5293  0.8345 -0.3850
  862MOL0     C18879   0.853   5.080   3.159  0.7478 -0.7327  1.0869
  862MOL0     C18880   0.837   5.041   3.005 -0.1844 -0.3725 -0.5249
  862MOL0     C18881   0.703   5.108   2.958  0.8675  1.1900 -0.2442
  862MOL0     C18882   0.676   5.083   2.817  0.8485 -0.6064  0.1808
  862MOL0     C18883   0.652   5.042   2.705  0.6823 -0.9015 -0.1107
  862MOL0     C18884   0.876   5.494   3.329 -1.1134 -0.2720 -0.0397
  862MOL0     C18885   0.895   5.624   3.369  1.0495  0.5946 -0.7653
  862MOL0     C18886   0.799   5.732   3.316  0.7929 -0.0059 -0.6843
  862MOL0     H18887   1.269   6.003   3.704  0.9020 -0.6880 -0.3436
  862MOL0     H18888   1.400   6.210   3.633  1.7065 -0.4896 -0.0045
  862MOL0     H18889   1.520   6.441   3.374  0.6563 -2.1322 -0.7310
  862MOL0     H18890   1.377   6.417   3.482  0.5510  1.6579  0.2950
  862MOL0     H18891   1.398   6.385   3.180  0.1736 -2.4178  0.6573
  862MOL0     H18892   1.242   6.356   3.261 -0.6973  0.2834  3.2960
  862MOL0     H18893   1.274   6.607   3.355  2.1683 -3.1283  2.0227
  862MOL0     H18894   1.400   6.622   3.237 -0.7268  1.2561 -0.5955
  862MOL0     H18895   1.173   6.704   3.127 -1.7594  0.3428 -2.0697
  862MOL0     H18896   1.248   6.566   3.051  1.1385  1.9427  0.1685
  862MOL0     H18897   1.018   6.558   3.259  0.7833 -0.3015  0.8764
  862MOL0     H18898   1.079   6.419   3.169 -1.3837 -0.0612  1.6668
  862MOL0     H18899   0.936   6.674   3.065 -1.0955 -0.3813 -0.0216
  862MOL0     H18900   1.027   6.566   2.960 -0.9052  0.7462 -0.9083
  862MOL0     H18901   0.884   6.376   3.046 -0.7297  0.3569 -0.0682
  862MOL0     H18902   0.800   6.489   2.944  0.6378 -2.7981 -0.2966
  862MOL0     H18903   0.654   6.437   3.148  0.2050 -0.7951  3.2898
  862MOL0     H18904   0.787   6.520   3.240  1.8926  0.2210 -1.7102
  862MOL0     H18905   0.808   6.795   3.188  0.5843 -3.0393 -0.0225
  862MOL0     H18906   0.712   7.045   3.143 -2.1401  2.7727 -0.5408
  862MOL0     H18907   0.565   7.041   3.227 -1.0215  6.8840 -1.8871
  862MOL0     H18908   0.544   7.188   3.010 -0.6036 -0.0332 -1.0126
  862MOL0     H18909   0.543   7.040   2.920  1.0498 -0.9790  1.3334
  862MOL0     H18910   0.332   6.987   2.974 -2.5618  1.8062 -1.1385
  862MOL0     H18911   0.342   7.049   3.139 -0.9543 -2.5378 -1.0462
  862MOL0     H18912   0.343   7.217   2.882  1.7958 -0.1792  0.4798
  862MOL0     H18913   0.200   7.173   2.971  0.0384  0.8696  2.9615
  862MOL0     H18914   0.164   7.358   2.855 -2.1644 -0.4325  1.4650
  862MOL0     H18915   0.018   7.465   2.739 -4.6145 -1.2451  1.0864
  862MOL0     H18916   0.033   7.642   2.739 -0.0265  1.5343  1.7223
  862MOL0     H18917  -0.096   7.550   2.835 -0.8968  1.2313 -1.1135
  862MOL0     H18918   0.269   8.024   2.894 -0.6187 -0.2609  0.7420
  862MOL0     H18919   0.208   8.249   2.803 -2.0333 -0.6337 -1.5366
  862MOL0     H18920   0.129   8.511   2.776 -2.2390  1.0106  4.4884
  862MOL0     H18921   0.064   8.348   2.694 -2.4349  0.2870 -0.4687
  862MOL0     H18922  -0.082   8.602   2.693 -0.3571 -0.3967  0.2184
  862MOL0     H18923   0.024   8.543   2.564 -2.0867  0.9185 -1.2072
  862MOL0     H18924  -0.230   8.403   2.665  0.5360 -0.0785  0.2552
  862MOL0     H18925  -0.098   8.334   2.562 -0.8531  0.9256 -2.2389
  862MOL0     H18926  -0.144   8.551   2.411  0.7660 -2.2528 -0.7164
  862MOL0     H18927  -0.279   8.581   2.511 -0.8791 -0.9952 -0.4259
  862MOL0     H18928  -0.345   8.321   2.484 -0.5407  1.0319 -0.0276
  862MOL0     H18929  -0.401   8.443   2.367 -0.5970 -1.3209 -1.7382
  862MOL0     H18930  -0.137   8.301   2.323 -0.6177 -1.4754  2.3405
  862MOL0     H18931  -0.245   8.397   2.218 -0.3868  0.5202  0.2626
  862MOL0     H18932  -0.404   8.212   2.235  0.2072  1.5794 -0.8426
  862MOL0     H18933  -0.299   8.128   2.356  2.3275 -0.8197 -1.0184
  862MOL0     H18934  -0.270   8.011   2.128 -1.6958  1.2841 -0.4875
  862MOL0     H18935  -0.126   8.102   2.138  0.7273 -3.1612 -2.5178
  862MOL0     H18936  -0.134   8.269   3.058  0.4242  1.1885 -0.2917
  862MOL0     H18937  -0.077   8.050   3.156  0.3738  1.6322  0.5542
  862MOL0     H18938   0.209   7.714   3.207 -1.1602 -0.4320  1.7283
  862MOL0     H18939   0.355   7.500   3.212 -0.8211 -0.9249  0.9127
  862MOL0     H18940   1.335   6.093   3.224 -1.2136  3.0114  0.1989
  862MOL0     H18941   1.191   5.901   3.303 -3.0637  1.2374  0.8383
  862MOL0     H18942   1.172   5.574   3.569 -0.1382  0.7447 -0.7721
  862MOL0     H18943   1.135   5.338   3.451 -2.2574 -0.6790  0.6361
  862MOL0     H18944   0.780   5.278   3.206 -2.4894 -3.1034  0.3668
  862MOL0     H18945   0.941   5.266   3.112  1.8419  0.7695  1.2794
  862MOL0     H18946   0.770   5.050   3.223 -0.8245  0.4612 -0.2787
  862MOL0     H18947   0.942   5.030   3.197  0.6581 -0.2906  1.8821
  862MOL0     H18948   0.920   5.095   2.958  0.2896 -0.3029  0.3575
  862MOL0     H18949   0.841   4.933   2.991 -0.6441 -0.5603  0.6586
  862MOL0     H18950   0.702   5.216   2.975 -0.9538  1.0459  0.9468
  862MOL0     H18951   0.621   5.066   3.017 -0.6950  0.0382 -3.0653
  862MOL0     H18952   0.619   4.994   2.615 -0.0451 -2.2353  0.8362
  862MOL0     H18953   0.789   5.476   3.267 -0.2864 -1.2309 -0.9426
  862MOL0     H18954   0.863   5.811   3.275  1.0930  0.9900  1.5389
  862MOL0     H18955   0.736   5.685   3.240  2.2811 -1.3650 -1.1402
  862MOL0     H18956   0.748   5.784   3.397  4.0913  1.5839  0.5762
  863MOL0     O18957   7.518   7.081   0.693  0.2927 -0.0540 -0.4193
  863MOL0     C18958   7.504   7.076   0.813 -0.6210 -0.9369 -0.5401
  863MOL0     O18959   7.543   6.970   0.889  0.4333  1.1232  0.3821
  863MOL0     C18960   7.571   6.853   0.820 -0.1681  0.3986 -0.0972
  863MOL0     C18961   7.490   6.791   0.728 -0.0859 -0.8948  0.1165
  863MOL0     C18962   7.524   6.666   0.674  0.2555 -0.6257  0.8157
  863MOL0     C18963   7.641   6.602   0.714  0.3354 -0.7398 -0.6248
  863MOL0     O18964   7.702   6.495   0.651 -0.0053 -0.2478  0.1623
  863MOL0     C18965   7.843   6.454   0.657  0.4872 -0.2478  0.9740
  863MOL0     C18966   7.874   6.351   0.771  0.0352 -0.3208 -0.1560
  863MOL0     C18967   8.019   6.312   0.788  0.5073 -0.0428  0.6740
  863MOL0     C18968   8.031   6.181   0.866 -0.3997 -0.3352  0.6738
  863MOL0     C18969   8.181   6.136   0.877  0.0268  0.4696 -1.1093
  863MOL0     C18970   8.232   6.052   0.755  0.9792  0.5556 -0.8243
  863MOL0     C18971   8.378   6.025   0.778 -0.0125 -0.2655  0.1411
  863MOL0     C18972   8.397   5.927   0.899  0.0785  0.3945 -0.0739
  863MOL0     N18973   8.535   5.899   0.942 -0.5531  0.4033  0.4336
  863MOL0     C18974   8.611   5.990   1.016 -1.3578  0.9786  1.0347
  863MOL0     C18975   8.733   5.950   1.001 -0.2851  0.4957  1.3678
  863MOL0     C18976   8.865   6.010   1.046  0.3631  0.3223  0.4486
  863MOL0     C18977   8.927   5.920   1.157  0.3790 -0.2219 -0.0616
  863MOL0     C18978   9.058   5.981   1.208  0.1218  0.2941 -0.1111
  863MOL0     C18979   9.039   6.116   1.280  0.7172 -0.2261 -0.5986
  863MOL0     O18980   9.168   6.158   1.331  0.9325  0.2767  0.2802
  863MOL0     C18981   9.192   6.298   1.353  0.3698  0.1463  0.7498
  863MOL0     C18982   9.264   6.366   1.252 -0.3424 -0.5993  0.3617
  863MOL0     C18983   9.296   6.504   1.271 -0.2937 -0.5836 -0.1671
  863MOL0     C18984   9.352   6.575   1.144  0.6414 -0.0034  0.2445
  863MOL0     C18985   9.251   6.577   1.387  0.6974  1.4781 -0.5421
  863MOL0     C18986   9.289   6.719   1.406 -0.4376  0.1434 -0.5462
  863MOL0     O18987   9.426   6.739   1.384 -0.6283 -0.8639  0.5245
  863MOL0     C18988   9.460   6.877   1.388 -0.9231  0.9951 -0.5556
  863MOL0     C18989   9.511   6.941   1.504  0.2520  0.3311  0.1062
  863MOL0     C18990   9.550   7.072   1.488 -1.2097  0.8263 -0.3408
  863MOL0     C18991   9.564   7.128   1.363  0.5418 -0.1159  0.8197
  863MOL0     O18992   9.611   7.249   1.357  0.3019 -0.4462  0.2845
  863MOL0     C18993   9.537   7.345   1.271 -0.2262  0.0467 -0.5697
  863MOL0     C18994   9.535   7.488   1.305  0.2642 -0.3908  0.7475
  863MOL0     C18995   9.543   7.526   1.456 -0.2307 -0.1808 -0.2881
  863MOL0     C18996   9.456   7.449   1.551  0.4683  1.1281 -0.8638
  863MOL0     C18997   9.453   7.520   1.688  0.7531  1.0935  0.0986
  863MOL0     C18998   9.360   7.453   1.783 -0.5347  0.0280 -0.5025
  863MOL0     C18999   9.343   7.533   1.912  0.8901  0.2960  0.5091
  863MOL0     C19000   9.444   7.477   2.019 -0.1134  0.2348  0.4487
  863MOL0    Cl19001   9.484   7.590   2.157 -0.3665  0.3112  0.1425
  863MOL0     C19002   9.514   7.062   1.251 -0.4185 -1.1002 -0.2543
  863MOL0     C19003   9.465   6.936   1.264  1.2505  0.1514  0.0581
  863MOL0     O19004   9.203   6.810   1.427 -0.8196 -0.3279  0.2966
  863MOL0     C19005   9.180   6.509   1.490 -0.3833 -0.3796  0.5397
  863MOL0     C19006   9.160   6.376   1.474  0.6001  0.2130 -0.2583
  863MOL0     N19007   8.731   5.835   0.919 -1.0243  0.1713  0.3918
  863MOL0     N19008   8.614   5.812   0.878 -0.1653 -0.1405  0.2865
  863MOL0     C19009   7.713   6.659   0.819 -0.4755  0.1519 -0.6866
  863MOL0     C19010   7.684   6.793   0.867 -0.2136  1.0476 -0.5487
  863MOL0     C19011   7.407   7.176   0.883  0.1528  1.0983 -0.6268
  863MOL0     C19012   7.336   7.146   1.004 -0.9322  0.0614 -0.5512
  863MOL0     C19013   7.258   7.235   1.070  0.1757  0.2762 -0.4292
  863MOL0     C19014   7.237   7.364   1.027 -0.0207  0.5516  0.6157
  863MOL0     O19015   7.171   7.445   1.113  0.1687 -0.3245  0.1494
  863MOL0     C19016   7.157   7.577   1.077  0.7722  0.2313 -0.8972
  863MOL0     C19017   7.103   7.668   1.192 -0.2996  0.2441  0.2033
  863MOL0     C19018   6.987   7.757   1.147  0.1509 -1.3792 -0.2378
  863MOL0     C19019   7.029   7.880   1.054  0.1740 -0.8384  0.1242
  863MOL0     C19020   7.139   7.964   1.113  0.0125  0.3130 -0.3404
  863MOL0     C19021   7.223   8.014   1.183  0.1212  0.1185  0.7042
  863MOL0     C19022   7.288   7.391   0.897  0.0554  0.3103 -0.0092
  863MOL0     C19023   7.377   7.301   0.829  0.5503 -0.2035  0.2067
  863MOL0     C19024   7.448   7.353   0.705 -0.2540  0.2425  0.2066
  863MOL0     H19025   7.408   6.854   0.694  0.5069 -1.4903 -2.6580
  863MOL0     H19026   7.470   6.623   0.590  1.0259 -2.8592  1.4177
  863MOL0     H19027   7.891   6.552   0.667 -0.2791  0.3416 -0.8118
  863MOL0     H19028   7.882   6.414   0.564  0.4824  0.7165  0.5426
  863MOL0     H19029   7.838   6.387   0.868 -1.3023 -3.9139  0.8220
  863MOL0     H19030   7.815   6.260   0.760  1.1997 -1.1750  0.4238
  863MOL0     H19031   8.052   6.306   0.684  0.4877 -1.5864  0.7425
  863MOL0     H19032   8.077   6.389   0.840  2.7260  0.6430 -2.5650
  863MOL0     H19033   8.005   6.211   0.968 -0.2548 -3.4025  1.7060
  863MOL0     H19034   7.968   6.100   0.826  0.1897 -1.5059  2.0383
  863MOL0     H19035   8.185   6.078   0.970 -0.0341  0.5287 -1.0696
  863MOL0     H19036   8.238   6.227   0.898  1.6242 -0.6135 -0.5807
  863MOL0     H19037   8.169   5.964   0.736 -0.0779  1.5230 -2.0119
  863MOL0     H19038   8.226   6.109   0.662 -2.7396  0.1326 -1.0035
  863MOL0     H19039   8.430   6.119   0.798  1.9928 -1.8307  2.8580
  863MOL0     H19040   8.428   5.987   0.688  1.7995  0.6525  0.7135
  863MOL0     H19041   8.334   5.948   0.986  2.3466  2.3218  1.2190
  863MOL0     H19042   8.361   5.833   0.855  0.4977  0.6065 -0.8950
  863MOL0     H19043   8.584   6.084   1.063  1.1818  1.8584  0.8570
  863MOL0     H19044   8.842   6.113   1.076 -1.1100  0.2716 -0.3730
  863MOL0     H19045   8.937   6.012   0.964  1.3032  0.1507  1.2529
  863MOL0     H19046   8.855   5.910   1.239  0.6139  2.0265  0.4808
  863MOL0     H19047   8.942   5.820   1.115  1.4952 -0.4985  0.9188
  863MOL0     H19048   9.114   5.910   1.268  3.7903  0.1235 -3.3279
  863MOL0     H19049   9.122   5.998   1.120 -1.1940  0.6293 -1.0442
  863MOL0     H19050   9.001   6.199   1.220  5.1701  1.1392 -1.8928
  863MOL0     H19051   8.975   6.100   1.367  1.5141  0.7592  0.1806
  863MOL0     H19052   9.294   6.313   1.162 -1.6183  1.2580 -1.2531
  863MOL0     H19053   9.310   6.521   1.059  1.1442  1.0563 -0.7065
  863MOL0     H19054   9.459   6.562   1.127  0.6321  1.1026 -0.8301
  863MOL0     H19055   9.321   6.679   1.133  1.5166  0.1055 -1.5899
  863MOL0     H19056   9.505   6.880   1.594 -3.3165  0.4417  0.0733
  863MOL0     H19057   9.579   7.116   1.583 -4.2840  3.7811 -0.5695
  863MOL0     H19058   9.559   7.339   1.164 -1.1723 -1.0037 -0.7292
  863MOL0     H19059   9.433   7.311   1.275 -0.3178  0.4099  0.9435
  863MOL0     H19060   9.615   7.549   1.262  0.1954  0.3073  1.5736
  863MOL0     H19061   9.435   7.518   1.275  0.4933 -2.5360 -2.6619
  863MOL0     H19062   9.541   7.635   1.465 -1.7725  0.0393 -2.2819
  863MOL0     H19063   9.637   7.480   1.487  1.5335  2.6290 -1.0531
  863MOL0     H19064   9.489   7.345   1.560 -0.9589  0.7345  0.3094
  863MOL0     H19065   9.355   7.449   1.510  0.3409  1.0590 -0.5546
  863MOL0     H19066   9.553   7.507   1.731  1.1843  0.0920 -1.1312
  863MOL0     H19067   9.417   7.622   1.669  0.8886  0.7877 -2.0035
  863MOL0     H19068   9.396   7.352   1.806  1.0638  0.4005 -1.2319
  863MOL0     H19069   9.261   7.448   1.736 -0.8824  4.0848 -0.5594
  863MOL0     H19070   9.242   7.531   1.953  0.5732  1.0685 -0.2085
  863MOL0     H19071   9.368   7.639   1.897 -1.8012  0.7704 -1.2481
  863MOL0     H19072   9.540   7.448   1.975  0.6614  0.9742  1.5662
  863MOL0     H19073   9.395   7.387   2.056 -1.1737  1.2411  1.6261
  863MOL0     H19074   9.519   7.099   1.149  1.7313 -1.9462 -0.5120
  863MOL0     H19075   9.409   6.893   1.182 -0.8267 -0.0216  1.4897
  863MOL0     H19076   9.147   6.564   1.577  1.5251  1.3855  0.2321
  863MOL0     H19077   9.102   6.325   1.550  0.5780  0.1981 -0.2848
  863MOL0     H19078   7.803   6.611   0.858 -1.1699  0.1088  0.9075
  863MOL0     H19079   7.728   6.851   0.948  2.7759 -0.0140 -1.2981
  863MOL0     H19080   7.342   7.049   1.052 -0.1703  0.2812 -0.1897
  863MOL0     H19081   7.208   7.209   1.163 -1.4256  0.6289 -1.1658
  863MOL0     H19082   7.255   7.616   1.049  1.3901 -0.0136  0.8398
  863MOL0     H19083   7.095   7.593   0.988 -0.5502  1.3933  0.1778
  863MOL0     H19084   7.188   7.719   1.239 -2.5705  2.8078  1.8022
  863MOL0     H19085   7.065   7.604   1.273  1.4006  1.7944  2.3670
  863MOL0     H19086   6.902   7.708   1.098 -2.2557  2.4347 -0.3074
  863MOL0     H19087   6.953   7.801   1.241  0.5622  0.9025 -1.1002
  863MOL0     H19088   6.940   7.940   1.034 -0.0042 -1.5200 -1.2808
  863MOL0     H19089   7.065   7.831   0.962 -2.6027 -3.5250  0.3142
  863MOL0     H19090   7.297   8.078   1.226 -0.0966  0.5475  0.4532
  863MOL0     H19091   7.267   7.487   0.851  1.5129  0.0901 -1.2252
  863MOL0     H19092   7.551   7.319   0.692 -1.1140 -1.7596 -2.3602
  863MOL0     H19093   7.396   7.307   0.620  4.0865 -2.7535 -1.2141
  863MOL0     H19094   7.448   7.462   0.697  0.3627  0.1688 -1.1448
  864MOL0     O19095   3.777   7.155   3.670  0.2380 -0.1016 -1.0668
  864MOL0     C19096   3.778   7.153   3.786  0.0284 -0.5381 -0.4489
  864MOL0     O19097   3.878   7.208   3.862  0.7737  0.1169 -0.5577
  864MOL0     C19098   3.965   7.303   3.803  0.5922  0.5959  0.3679
  864MOL0     C19099   3.921   7.432   3.807 -0.1262 -0.5324 -0.0422
  864MOL0     C19100   4.002   7.541   3.762 -0.3314  0.5379 -0.2396
  864MOL0     C19101   4.108   7.505   3.675  0.7266  0.4260 -0.3586
  864MOL0     O19102   4.182   7.595   3.612  0.1197  0.2069 -0.1222
  864MOL0     C19103   4.115   7.707   3.546  0.5309 -0.1568  0.6340
  864MOL0     C19104   4.215   7.804   3.506  0.6572  0.2266 -0.3768
  864MOL0     C19105   4.269   7.779   3.370 -0.5673 -0.6992 -1.0078
  864MOL0     C19106   4.367   7.663   3.372 -0.2876  0.0296 -0.2589
  864MOL0     C19107   4.309   7.536   3.324 -0.1497  0.3620 -0.0697
  864MOL0     C19108   4.245   7.531   3.184  0.7654 -0.7257 -0.1825
  864MOL0     C19109   4.260   7.397   3.104  0.6988 -0.5837 -0.2898
  864MOL0     C19110   4.183   7.279   3.160 -0.2062  0.7210  0.6658
  864MOL0     N19111   4.203   7.157   3.074 -0.8219  0.6903  0.5937
  864MOL0     C19112   4.111   7.082   3.014  0.1810  0.5680  0.6857
  864MOL0     C19113   4.167   6.998   2.920 -0.5402 -0.5682  0.3542
  864MOL0     C19114   4.102   6.913   2.814 -0.0360 -0.8374 -0.3207
  864MOL0     C19115   4.056   6.778   2.872  1.0427 -0.0030 -1.2705
  864MOL0     C19116   4.145   6.670   2.823  0.1805  0.0166 -0.1505
  864MOL0     C19117   4.118   6.540   2.889  0.1869 -1.0519  0.7971
  864MOL0     O19118   3.980   6.513   2.851 -0.4840  0.1131 -1.0112
  864MOL0     C19119   3.956   6.420   2.765  1.1839  0.7985  1.1518
  864MOL0     C19120   3.972   6.283   2.781  0.7243  0.3775  0.0705
  864MOL0     C19121   3.943   6.184   2.682  0.1239 -1.3165  0.3234
  864MOL0     C19122   3.989   6.049   2.737  0.9207 -0.3181 -0.4825
  864MOL0     C19123   3.916   6.230   2.546 -0.2027 -0.2094  0.6834
  864MOL0     C19124   3.909   6.147   2.432  0.1274 -0.0224  1.6520
  864MOL0     O19125   3.933   6.013   2.445  0.5616  0.0734  0.2057
  864MOL0     C19126   3.942   5.928   2.334 -0.6191  0.2456 -0.0814
  864MOL0     C19127   3.842   5.923   2.230 -0.7601  0.2894  0.1718
  864MOL0     C19128   3.860   5.842   2.118  0.3799 -0.0058 -0.2050
  864MOL0     C19129   3.963   5.752   2.107 -0.7982 -0.0274  0.0413
  864MOL0     O19130   3.950   5.672   1.997  0.1320  0.3723  0.0242
  864MOL0     C19131   4.065   5.590   1.959  0.0699  0.0096 -0.2132
  864MOL0     C19132   4.152   5.688   1.885 -1.1812  0.2013 -0.5840
  864MOL0     C19133   4.280   5.618   1.841  0.9131 -1.0885 -0.0169
  864MOL0     C19134   4.389   5.721   1.793  0.0502  0.1051  0.0883
  864MOL0     C19135   4.522   5.657   1.802 -0.9591  0.3166 -0.3197
  864MOL0     C19136   4.637   5.749   1.792 -0.1003 -0.4936 -0.0149
  864MOL0     C19137   4.769   5.656   1.792 -0.8817  0.8257  0.4152
  864MOL0     C19138   4.887   5.748   1.762 -0.2453  0.0751 -1.0644
  864MOL0    Cl19139   4.893   5.877   1.876 -0.2493  0.5860  0.1250
  864MOL0     C19140   4.065   5.760   2.208 -0.2964  1.9194  0.5641
  864MOL0     C19141   4.056   5.843   2.325 -0.0256  0.4569  0.3537
  864MOL0     O19142   3.889   6.206   2.325 -0.5652 -0.0974  0.2458
  864MOL0     C19143   3.890   6.378   2.534  0.6342 -0.1880 -0.4391
  864MOL0     C19144   3.914   6.474   2.641 -0.5150  1.2912  0.8426
  864MOL0     N19145   4.308   7.023   2.927  0.8563 -0.1913 -0.7324
  864MOL0     N19146   4.320   7.114   3.018  0.1595 -0.2937 -0.4944
  864MOL0     C19147   4.148   7.367   3.658  0.1967 -0.5163  0.0645
  864MOL0     C19148   4.067   7.268   3.721  0.5557 -1.1091 -0.0210
  864MOL0     C19149   3.672   7.080   3.860  0.2904  0.3201 -0.5755
  864MOL0     C19150   3.712   7.044   3.995  0.1241  0.1949 -0.8511
  864MOL0     C19151   3.604   6.971   4.064  0.2777 -0.1217  0.1006
  864MOL0     C19152   3.472   6.950   4.010 -0.6675  0.0209  0.4551
  864MOL0     O19153   3.375   6.866   4.056  0.4138 -0.4025 -0.1945
  864MOL0     C19154   3.416   6.802   4.171 -0.6820  0.0815 -0.3420
  864MOL0     C19155   3.308   6.721   4.214 -0.3141  0.4940  0.8374
  864MOL0     C19156   3.199   6.800   4.282  0.1667 -0.2179  0.0498
  864MOL0     C19157   3.078   6.718   4.298  0.3598 -0.6646  0.4107
  864MOL0     C19158   2.998   6.744   4.414 -0.1292 -0.1084 -0.5517
  864MOL0     C19159   2.955   6.749   4.526  0.5891 -0.7676 -0.2538
  864MOL0     C19160   3.451   6.996   3.882  0.2742  0.2380  0.3195
  864MOL0     C19161   3.542   7.051   3.806  0.5775 -0.6565 -0.0775
  864MOL0     C19162   3.502   7.094   3.668 -0.5521  0.0249 -0.2411
  864MOL0     H19163   3.821   7.460   3.840 -0.1339 -0.8050  0.1740
  864MOL0     H19164   3.970   7.643   3.780 -0.4605  0.3015  0.9777
  864MOL0     H19165   4.042   7.752   3.615 -2.8229 -1.1837 -1.9616
  864MOL0     H19166   4.066   7.682   3.452  0.9287  0.7054  0.1836
  864MOL0     H19167   4.155   7.895   3.513 -1.8387 -1.3937  0.4035
  864MOL0     H19168   4.298   7.811   3.576  0.4333 -1.7401  0.1266
  864MOL0     H19169   4.202   7.772   3.283  0.4649 -0.2801 -1.8628
  864MOL0     H19170   4.331   7.866   3.345  1.4039 -1.7513 -0.0109
  864MOL0     H19171   4.445   7.696   3.303  0.8165 -0.8486  0.5482
  864MOL0     H19172   4.414   7.649   3.469  1.1489  0.5863 -0.8511
  864MOL0     H19173   4.237   7.495   3.395  0.3850  1.2964  1.0457
  864MOL0     H19174   4.392   7.465   3.310 -0.1078  0.9419 -3.5619
  864MOL0     H19175   4.138   7.553   3.193  0.3127 -3.3318  1.9225
  864MOL0     H19176   4.292   7.613   3.129  0.3148  3.4746  4.9265
  864MOL0     H19177   4.362   7.362   3.093  0.8570  0.0435 -0.9086
  864MOL0     H19178   4.228   7.418   3.001 -3.8101 -1.4645  0.6920
  864MOL0     H19179   4.221   7.250   3.258 -1.4601 -0.5093  0.8129
  864MOL0     H19180   4.075   7.298   3.166  0.3468  4.5101  1.0517
  864MOL0     H19181   4.004   7.079   3.030  0.0964  2.5027  0.6908
  864MOL0     H19182   4.176   6.898   2.735  0.6769 -1.9029  0.5094
  864MOL0     H19183   4.012   6.964   2.780 -0.8995 -1.0668  1.4963
  864MOL0     H19184   4.037   6.776   2.980 -0.4961  1.8854 -1.4466
  864MOL0     H19185   3.957   6.752   2.834  0.9244  1.5257 -2.0964
  864MOL0     H19186   4.131   6.673   2.715  1.4201  1.1204 -0.3028
  864MOL0     H19187   4.250   6.689   2.848  0.1134 -1.1533  1.1396
  864MOL0     H19188   4.185   6.463   2.851  0.0795 -0.0926 -1.5115
  864MOL0     H19189   4.129   6.547   2.998 -2.5139  3.0483  1.0279
  864MOL0     H19190   4.015   6.255   2.876  0.6609  2.0535  0.6337
  864MOL0     H19191   3.914   5.972   2.718  1.0666 -0.5527 -0.1317
  864MOL0     H19192   3.997   6.058   2.846  0.2671 -1.0089 -0.3681
  864MOL0     H19193   4.084   6.013   2.698  1.5547 -0.3118  0.9770
  864MOL0     H19194   3.749   5.977   2.246 -2.7804 -2.7690 -0.2912
  864MOL0     H19195   3.791   5.861   2.036 -0.1498  1.2429  0.5033
  864MOL0     H19196   4.106   5.544   2.049  1.0588  0.6706 -0.3095
  864MOL0     H19197   4.052   5.508   1.888  2.3318  1.5206 -2.5800
  864MOL0     H19198   4.096   5.733   1.802  1.5242  2.5251 -1.3463
  864MOL0     H19199   4.177   5.773   1.949  1.4081 -1.9372  1.4423
  864MOL0     H19200   4.256   5.539   1.769 -1.6330 -2.6605  2.3816
  864MOL0     H19201   4.318   5.567   1.930 -2.2852 -0.3145  1.9741
  864MOL0     H19202   4.388   5.807   1.861 -0.2573 -1.9735  2.9228
  864MOL0     H19203   4.364   5.757   1.693  1.6721  0.3070 -0.2742
  864MOL0     H19204   4.532   5.617   1.903  3.1257  1.4697 -0.1137
  864MOL0     H19205   4.528   5.577   1.728 -0.0521  0.2498 -0.1846
  864MOL0     H19206   4.622   5.813   1.879 -3.0150 -0.5979 -0.3176
  864MOL0     H19207   4.643   5.817   1.706  2.8760 -0.9508 -0.2777
  864MOL0     H19208   4.758   5.566   1.731  1.2895  1.2136 -0.6212
  864MOL0     H19209   4.786   5.622   1.895  0.5727  3.0304  0.9835
  864MOL0     H19210   4.862   5.793   1.666 -1.2392  2.1790  0.1097
  864MOL0     H19211   4.980   5.690   1.758  3.3218  4.9383  1.1285
  864MOL0     H19212   4.137   5.680   2.195  0.5280  2.9642 -1.8666
  864MOL0     H19213   4.132   5.837   2.402 -2.5376  2.0510  3.1661
  864MOL0     H19214   3.862   6.405   2.433  0.3170  0.0784 -0.2798
  864MOL0     H19215   3.895   6.581   2.641  0.3267  1.5893 -3.2470
  864MOL0     H19216   4.234   7.341   3.597  0.4466 -0.6916  0.4859
  864MOL0     H19217   4.097   7.165   3.703 -3.6165 -2.5264  0.0531
  864MOL0     H19218   3.804   7.070   4.047  0.9839  1.0642 -2.6958
  864MOL0     H19219   3.628   6.924   4.159  1.9134 -0.7739 -0.5874
  864MOL0     H19220   3.504   6.739   4.157 -0.3634  0.8814 -2.3003
  864MOL0     H19221   3.440   6.876   4.249 -0.1827  0.7393 -1.1076
  864MOL0     H19222   3.354   6.651   4.284  1.0976  0.5814  0.0376
  864MOL0     H19223   3.265   6.657   4.136  1.2749  1.2605 -0.7465
  864MOL0     H19224   3.234   6.816   4.384  2.3590  0.5859 -0.7813
  864MOL0     H19225   3.176   6.892   4.226  1.9391 -0.2616 -0.8208
  864MOL0     H19226   3.096   6.610   4.301 -0.5462 -0.8606 -0.6515
  864MOL0     H19227   3.015   6.740   4.212  2.5302  0.4073 -0.9938
  864MOL0     H19228   2.902   6.768   4.618 -0.3374 -3.3719 -0.1890
  864MOL0     H19229   3.353   6.983   3.836 -0.4045  1.8922  1.2237
  864MOL0     H19230   3.538   7.023   3.593  1.8081  1.6579 -0.7340
  864MOL0     H19231   3.396   7.108   3.644 -0.4967 -1.3018 -1.3576
  864MOL0     H19232   3.539   7.194   3.645 -1.2042 -0.3094 -3.0283
  865MOL0     O19233   6.034   8.168  11.503 -0.3675 -0.2202 -0.6178
  865MOL0     C19234   6.094   8.091  11.430 -1.7007 -0.0233 -0.0029
  865MOL0     O19235   6.217   8.027  11.464 -0.2719  0.1192  0.0864
  865MOL0     C19236   6.267   8.049  11.587 -1.0282 -0.2212  0.4158
  865MOL0     C19237   6.326   7.947  11.669 -0.0476  0.2976  0.6954
  865MOL0     C19238   6.398   7.970  11.785  0.9898  1.0752 -0.5267
  865MOL0     C19239   6.409   8.103  11.834 -0.0773 -0.3486 -0.6762
  865MOL0     O19240   6.482   8.131  11.946 -0.0828  0.3696  0.2135
  865MOL0     C19241   6.431   8.222  12.037  0.2801  0.7827 -0.1081
  865MOL0     C19242   6.523   8.224  12.166  1.2049  0.2396  0.3264
  865MOL0     C19243   6.470   8.319  12.278 -0.3909 -0.1287  1.0784
  865MOL0     C19244   6.408   8.250  12.399  0.0752 -0.1248 -0.7031
  865MOL0     C19245   6.332   8.366  12.478  1.0759  0.0468 -0.1377
  865MOL0     C19246   6.283   8.326  12.622 -0.8259 -0.6354 -0.1149
  865MOL0     C19247   6.249   8.449  12.702  0.8835  0.5394  0.0019
  865MOL0     C19248   6.192   8.416  12.849  0.3353  0.3452 -0.2118
  865MOL0     N19249   6.308   8.367  12.925  0.2935  0.5155 -0.2377
  865MOL0     C19250   6.397   8.436  13.004  0.1678 -0.3680  0.2469
  865MOL0     C19251   6.469   8.340  13.067  0.3302 -0.9305 -0.5003
  865MOL0     C19252   6.588   8.364  13.153 -0.7219 -1.5601 -0.2260
  865MOL0     C19253   6.547   8.433  13.298  0.0952 -0.7218  0.0074
  865MOL0     C19254   6.532   8.589  13.275  1.0765 -0.0481  0.8563
  865MOL0     C19255   6.404   8.639  13.337 -0.2233  0.5146 -0.3845
  865MOL0     O19256   6.288   8.563  13.280  0.3345 -0.4314  0.2355
  865MOL0     C19257   6.181   8.620  13.215 -0.5477 -0.3764 -0.3336
  865MOL0     C19258   6.199   8.723  13.127  0.8909 -0.1790  0.9543
  865MOL0     C19259   6.094   8.771  13.045 -0.0658  0.7354  1.4943
  865MOL0     C19260   6.127   8.882  12.950 -0.2386 -1.1068 -0.1006
  865MOL0     C19261   5.965   8.728  13.067  0.7966  0.0982  1.0270
  865MOL0     C19262   5.846   8.783  12.996 -0.0652 -0.0929  0.6705
  865MOL0     O19263   5.858   8.830  12.874  0.3674 -0.5332 -0.2539
  865MOL0     C19264   5.743   8.869  12.814 -0.2006  0.5088  0.6473
  865MOL0     C19265   5.667   8.981  12.850 -0.2256 -0.6245  0.3502
  865MOL0     C19266   5.552   9.014  12.782  0.0259  0.0125 -0.6348
  865MOL0     C19267   5.517   8.934  12.674  0.9790  0.1394 -0.2444
  865MOL0     O19268   5.396   8.962  12.614 -0.5708  0.3215  0.0238
  865MOL0     C19269   5.337   9.088  12.634 -0.1834  0.0191  0.4087
  865MOL0     C19270   5.257   9.093  12.510  0.6444  0.6103 -0.4380
  865MOL0     C19271   5.176   9.220  12.487 -0.0246 -0.0474  0.2961
  865MOL0     C19272   5.097   9.267  12.605 -0.3647  0.5949  0.3066
  865MOL0     C19273   4.977   9.359  12.580 -0.8865  0.0475 -0.2972
  865MOL0     C19274   5.014   9.499  12.536  0.1743  0.8862  0.5139
  865MOL0     C19275   4.912   9.601  12.503  0.7678 -0.5008 -0.1468
  865MOL0     C19276   4.975   9.745  12.522 -0.1547  0.3005 -0.0049
  865MOL0    Cl19277   5.048   9.807  12.355 -0.2158  0.1218  0.3240
  865MOL0     C19278   5.598   8.830  12.631  0.0050  0.4042 -0.2238
  865MOL0     C19279   5.714   8.801  12.689 -0.9819  0.1705 -0.3677
  865MOL0     O19280   5.740   8.779  13.062 -0.0813 -0.3749 -0.1386
  865MOL0     C19281   5.938   8.624  13.167 -0.3918  0.1171 -0.1096
  865MOL0     C19282   6.056   8.559  13.227  1.0014 -0.5544  0.1171
  865MOL0     N19283   6.434   8.216  13.009 -0.3457  0.2609 -0.2667
  865MOL0     N19284   6.327   8.235  12.930 -0.7894  0.0363  0.3817
  865MOL0     C19285   6.356   8.204  11.751 -0.3721  0.8728 -0.0715
  865MOL0     C19286   6.294   8.175  11.629 -0.2831 -0.9553  0.2636
  865MOL0     C19287   6.029   8.062  11.299  0.2058  0.5390 -0.8073
  865MOL0     C19288   6.116   7.993  11.212  0.4799  0.3494 -0.1173
  865MOL0     C19289   6.071   7.961  11.082  0.9187 -0.2582 -0.0468
  865MOL0     C19290   5.951   7.997  11.033 -0.5518  0.9264 -0.6827
  865MOL0     O19291   5.909   7.935  10.916 -0.5459 -1.2009 -0.3250
  865MOL0     C19292   5.932   8.023  10.806 -0.4707 -0.9587  0.6684
  865MOL0     C19293   5.966   7.934  10.684 -0.4843 -0.0777  0.2753
  865MOL0     C19294   6.027   8.017  10.574 -0.1013  0.1808  0.2827
  865MOL0     C19295   5.917   8.079  10.486  0.2105  0.1760 -0.3616
  865MOL0     C19296   5.815   7.991  10.422  0.1304 -1.0151  1.2748
  865MOL0     C19297   5.732   7.910  10.395 -0.4248  0.5199 -0.4707
  865MOL0     C19298   5.862   8.068  11.113  0.1954 -0.0021 -0.8093
  865MOL0     C19299   5.910   8.111  11.241  0.2756 -0.6418 -0.5588
  865MOL0     C19300   5.811   8.188  11.319  0.2581 -0.1620 -1.1715
  865MOL0     H19301   6.301   7.851  11.624  0.5746 -0.7619  2.4939
  865MOL0     H19302   6.439   7.882  11.834 -1.0751 -0.7319 -1.8592
  865MOL0     H19303   6.329   8.187  12.058  0.8444 -1.4961 -0.9452
  865MOL0     H19304   6.424   8.325  12.001 -1.6247  0.4861 -0.7350
  865MOL0     H19305   6.508   8.122  12.202 -2.3310  0.9120  1.1720
  865MOL0     H19306   6.628   8.240  12.139  1.0407  1.4207  0.3330
  865MOL0     H19307   6.554   8.378  12.315  1.3098 -2.0010  0.3835
  865MOL0     H19308   6.401   8.392  12.235 -0.8508  0.2289  2.3872
  865MOL0     H19309   6.335   8.178  12.361 -0.6278  1.0280 -1.6123
  865MOL0     H19310   6.479   8.203  12.467 -0.3785 -0.2347 -0.3028
  865MOL0     H19311   6.245   8.380  12.413  0.9350  3.7154  0.6415
  865MOL0     H19312   6.388   8.460  12.487  2.9628 -1.1454  1.4552
  865MOL0     H19313   6.194   8.266  12.601 -2.3638  0.7901  1.9587
  865MOL0     H19314   6.358   8.277  12.684 -0.3141  1.9449  1.4593
  865MOL0     H19315   6.169   8.509  12.657 -1.9078 -0.4652  3.1924
  865MOL0     H19316   6.340   8.506  12.723 -1.7482  4.7101  1.3258
  865MOL0     H19317   6.149   8.509  12.887 -0.7429 -0.1827 -0.0791
  865MOL0     H19318   6.112   8.341  12.851 -0.1728  0.8727 -0.2815
  865MOL0     H19319   6.398   8.544  13.018  0.5339  0.1400 -2.9399
  865MOL0     H19320   6.652   8.420  13.085  0.1514 -1.1366  0.9105
  865MOL0     H19321   6.619   8.263  13.180  1.0620 -0.7343  1.0259
  865MOL0     H19322   6.447   8.390  13.312 -0.5732 -0.4349 -3.1280
  865MOL0     H19323   6.610   8.418  13.387 -3.0554 -0.7843  2.4264
  865MOL0     H19324   6.626   8.628  13.316  1.7178 -1.7278  1.0738
  865MOL0     H19325   6.534   8.625  13.171 -0.0363  1.9537  1.4744
  865MOL0     H19326   6.403   8.635  13.446 -2.8470  2.5351 -0.2394
  865MOL0     H19327   6.393   8.747  13.320 -2.5689  0.7702  2.1615
  865MOL0     H19328   6.297   8.764  13.102  1.7726 -3.7134 -2.4834
  865MOL0     H19329   6.080   8.976  12.981  2.1966 -0.0449  0.5870
  865MOL0     H19330   6.093   8.855  12.850 -1.7623  2.0073 -0.5625
  865MOL0     H19331   6.231   8.907  12.929 -0.6463 -0.0220 -1.0024
  865MOL0     H19332   5.700   9.023  12.945 -0.3282  3.5461 -1.2380
  865MOL0     H19333   5.489   9.090  12.827  2.2830  1.0923  0.9630
  865MOL0     H19334   5.267   9.088  12.718 -0.0219  1.4978  0.5854
  865MOL0     H19335   5.409   9.171  12.636  0.3405 -0.3878 -0.8050
  865MOL0     H19336   5.324   9.079  12.424  1.2845 -0.2736  0.1835
  865MOL0     H19337   5.186   9.011  12.527  2.5237 -1.1255 -0.6184
  865MOL0     H19338   5.105   9.208  12.405  0.1550 -0.4105  0.1899
  865MOL0     H19339   5.246   9.302  12.472 -1.1464  0.7252 -0.9717
  865MOL0     H19340   5.157   9.327  12.674 -0.8731  0.9761  0.4298
  865MOL0     H19341   5.056   9.174  12.644  2.3730 -1.1932 -0.8047
  865MOL0     H19342   4.896   9.313  12.523  0.8196 -0.8046 -2.1721
  865MOL0     H19343   4.927   9.379  12.675  0.9324  0.2828  0.6677
  865MOL0     H19344   5.072   9.479  12.445  2.7356 -2.7228  2.6679
  865MOL0     H19345   5.084   9.540  12.609  3.0338 -1.3952 -0.7516
  865MOL0     H19346   4.829   9.589  12.573  0.3642 -1.3574 -0.7482
  865MOL0     H19347   4.862   9.594  12.406 -2.2689  2.3194  1.0281
  865MOL0     H19348   5.062   9.738  12.588  0.2412 -0.2485 -0.5750
  865MOL0     H19349   4.902   9.813  12.567  0.0794 -0.4252  1.5430
  865MOL0     H19350   5.576   8.771  12.542 -1.0656 -1.1153  0.9960
  865MOL0     H19351   5.787   8.735  12.642 -1.3434  1.5408 -3.0623
  865MOL0     H19352   5.843   8.580  13.195  0.2438 -0.1606  1.7732
  865MOL0     H19353   6.048   8.482  13.303 -1.0303 -2.5555 -1.9362
  865MOL0     H19354   6.384   8.301  11.791  4.6949 -1.0868  1.8832
  865MOL0     H19355   6.261   8.264  11.576  1.0992 -0.0460  0.8624
  865MOL0     H19356   6.221   7.969  11.229  0.1825 -1.0895 -0.2429
  865MOL0     H19357   6.138   7.896  11.026 -0.1210 -1.0389 -0.4165
  865MOL0     H19358   5.834   8.069  10.791  1.5627  3.0441 -2.5390
  865MOL0     H19359   5.999   8.108  10.823 -1.9385  0.3480  0.2298
  865MOL0     H19360   5.877   7.877  10.655 -1.0486 -0.1494  2.0125
  865MOL0     H19361   6.048   7.867  10.712  0.5068  1.0823  0.2268
  865MOL0     H19362   6.090   8.090  10.625  0.0702 -2.7927  4.8851
  865MOL0     H19363   6.083   7.954  10.504 -1.7466 -0.4644 -0.5068
  865MOL0     H19364   5.969   8.147  10.417 -3.6664  1.4071 -2.4148
  865MOL0     H19365   5.854   8.153  10.536  0.7379  1.3188 -1.3128
  865MOL0     H19366   5.662   7.835  10.365  0.8037  0.1872 -2.7064
  865MOL0     H19367   5.770   8.096  11.063 -0.2234 -0.0317 -0.0775
  865MOL0     H19368   5.839   8.294  11.326  2.2619 -0.7547  1.2214
  865MOL0     H19369   5.713   8.184  11.272  0.7309  2.2240 -2.5442
  865MOL0     H19370   5.806   8.146  11.420  0.4502 -0.9723 -1.4948
  866MOL0     O19371   6.664   1.312   2.275 -0.2867 -0.2692  1.2926
  866MOL0     C19372   6.644   1.276   2.389  1.4138  0.3281 -0.5410
  866MOL0     O19373   6.669   1.146   2.438 -0.4910 -0.1916 -0.5228
  866MOL0     C19374   6.640   1.049   2.350  0.9138 -0.1147 -0.2913
  866MOL0     C19375   6.729   0.942   2.366  0.0050 -0.1189 -0.4575
  866MOL0     C19376   6.715   0.830   2.283 -0.8735  0.4189  1.6770
  866MOL0     C19377   6.622   0.832   2.180 -0.6171  0.0582  0.4331
  866MOL0     O19378   6.613   0.720   2.096  0.1433 -0.1564  0.2861
  866MOL0     C19379   6.588   0.738   1.953  0.5566  0.2998  0.1262
  866MOL0     C19380   6.441   0.711   1.920 -1.2747  1.2882  0.2571
  866MOL0     C19381   6.390   0.572   1.947  1.5742 -0.8812 -0.1138
  866MOL0     C19382   6.245   0.562   1.907 -0.8313  0.4427 -0.9367
  866MOL0     C19383   6.176   0.438   1.946  0.6570 -0.0315  0.2971
  866MOL0     C19384   6.118   0.440   2.096  0.2404 -0.3863 -0.1247
  866MOL0     C19385   6.062   0.304   2.121 -0.3269 -0.2813 -0.4796
  866MOL0     C19386   5.953   0.265   2.026  0.5579  0.6207 -0.3841
  866MOL0     N19387   5.851   0.185   2.096 -0.6430  0.0012 -0.7297
  866MOL0     C19388   5.876   0.071   2.166 -0.3310 -0.3952  0.9814
  866MOL0     C19389   5.753   0.011   2.184 -0.0837 -0.2523 -0.4169
  866MOL0     C19390   5.729  -0.114   2.252  0.3996 -0.7619 -0.4567
  866MOL0     C19391   5.770  -0.226   2.158  0.4486 -0.2396 -0.2305
  866MOL0     C19392   5.755  -0.369   2.206 -0.1283  0.6215 -0.0566
  866MOL0     C19393   5.603  -0.428   2.214  0.0384  0.2099  0.4247
  866MOL0     O19394   5.531  -0.393   2.337 -0.0724  0.0603  0.2077
  866MOL0     C19395   5.542  -0.444   2.460 -0.7342  0.5940 -0.3185
  866MOL0     C19396   5.616  -0.565   2.474  0.3841 -0.2384  0.0975
  866MOL0     C19397   5.605  -0.636   2.592  0.4285 -1.3708 -0.4499
  866MOL0     C19398   5.684  -0.757   2.587 -0.2855  0.4553 -0.7420
  866MOL0     C19399   5.534  -0.587   2.707  0.1268  0.1720  0.0458
  866MOL0     C19400   5.528  -0.644   2.844 -0.3357  1.4079  0.2249
  866MOL0     O19401   5.469  -0.570   2.945 -0.6102 -0.1066  0.2048
  866MOL0     C19402   5.437  -0.622   3.065  1.3272  1.0077  0.3229
  866MOL0     C19403   5.483  -0.574   3.189  0.0694 -0.1069 -0.0078
  866MOL0     C19404   5.433  -0.614   3.311 -0.6973  0.7906  0.2506
  866MOL0     C19405   5.342  -0.717   3.320 -0.0112  0.5838 -0.1546
  866MOL0     O19406   5.297  -0.760   3.434 -0.2529 -0.0636  0.0528
  866MOL0     C19407   5.374  -0.868   3.491 -1.0932  0.1893 -1.4040
  866MOL0     C19408   5.329  -0.890   3.635  0.0668 -0.4147  0.0428
  866MOL0     C19409   5.435  -0.973   3.719  0.4766 -0.6399 -0.1474
  866MOL0     C19410   5.423  -0.930   3.863  0.0015  0.2529  1.0503
  866MOL0     C19411   5.515  -0.809   3.882  1.0803 -0.7396  0.1543
  866MOL0     C19412   5.557  -0.807   4.025  0.0841 -0.8438  0.4105
  866MOL0     C19413   5.593  -0.659   4.068  0.4934  0.4236  0.3648
  866MOL0     C19414   5.656  -0.564   3.970 -0.7624 -0.1399 -0.2225
  866MOL0    Cl19415   5.801  -0.661   3.914  0.1854 -0.4269 -0.3639
  866MOL0     C19416   5.307  -0.784   3.204 -0.9674 -0.0918  0.4055
  866MOL0     C19417   5.346  -0.739   3.076  0.7584 -0.0384  0.4072
  866MOL0     O19418   5.598  -0.750   2.857  0.4178 -0.3996 -0.2932
  866MOL0     C19419   5.480  -0.460   2.692  0.1968  0.0017  0.6183
  866MOL0     C19420   5.477  -0.398   2.568  0.5374  0.1236  0.5329
  866MOL0     N19421   5.663   0.085   2.114 -0.5301 -0.5809  0.5929
  866MOL0     N19422   5.720   0.188   2.050 -0.2374  0.8279 -0.4589
  866MOL0     C19423   6.539   0.937   2.173  0.7125 -0.4359  0.3648
  866MOL0     C19424   6.541   1.047   2.253 -0.4335  0.0405 -0.8151
  866MOL0     C19425   6.602   1.383   2.484  0.0557 -0.5050  0.1150
  866MOL0     C19426   6.628   1.375   2.625  0.6790  0.5451 -0.1772
  866MOL0     C19427   6.593   1.476   2.710 -0.1780  0.5819  0.0096
  866MOL0     C19428   6.542   1.600   2.672 -0.0631 -0.4374 -0.6278
  866MOL0     O19429   6.521   1.700   2.768 -0.8501  0.9741  0.7613
  866MOL0     C19430   6.426   1.813   2.733 -1.1054  0.1053  0.2448
  866MOL0     C19431   6.353   1.874   2.863 -1.2808  0.8114 -0.1835
  866MOL0     C19432   6.446   1.936   2.971 -1.0908  0.6798  0.0685
  866MOL0     C19433   6.554   1.842   3.039  0.5241 -0.2916 -0.9105
  866MOL0     C19434   6.623   1.933   3.132  0.2419 -0.4470  0.2313
  866MOL0     C19435   6.681   2.011   3.209  0.4372 -0.1987  0.2254
  866MOL0     C19436   6.510   1.603   2.536  0.4541  0.2925  0.1094
  866MOL0     C19437   6.542   1.504   2.447  0.7890  0.0636  0.0031
  866MOL0     C19438   6.501   1.535   2.305  0.2322  0.1595 -0.1773
  866MOL0     H19439   6.792   0.942   2.454 -1.2534  0.5096  0.4673
  866MOL0     H19440   6.800   0.762   2.283 -0.8060  0.4818  0.1492
  866MOL0     H19441   6.659   0.681   1.891 -1.8025  0.1865 -2.7242
  866MOL0     H19442   6.609   0.840   1.920 -0.3100  0.0928 -1.1644
  866MOL0     H19443   6.372   0.778   1.973 -1.5782 -0.3889  2.1077
  866MOL0     H19444   6.424   0.733   1.815 -0.9858  0.3873  0.0159
  866MOL0     H19445   6.440   0.499   1.883 -0.7566 -2.5357 -0.1708
  866MOL0     H19446   6.411   0.546   2.051 -0.4031  1.0365  0.8446
  866MOL0     H19447   6.194   0.656   1.928  1.7729  2.3816 -2.6778
  866MOL0     H19448   6.240   0.555   1.798 -3.2113 -3.9361 -0.7882
  866MOL0     H19449   6.240   0.355   1.915  0.6789  1.1808 -3.4906
  866MOL0     H19450   6.088   0.427   1.883  0.6970  0.6809  0.0977
  866MOL0     H19451   6.205   0.456   2.160  1.5555 -1.8234 -1.4306
  866MOL0     H19452   6.043   0.519   2.095 -2.7438 -2.9825  1.2904
  866MOL0     H19453   6.019   0.303   2.221  1.2529  0.6235  0.2365
  866MOL0     H19454   6.145   0.233   2.130 -1.1429 -1.3536 -1.1607
  866MOL0     H19455   5.906   0.354   1.982 -0.2785  0.3219 -0.1064
  866MOL0     H19456   5.992   0.207   1.942 -0.7435  0.5923 -0.9830
  866MOL0     H19457   5.973   0.043   2.206 -0.7205 -2.0601  0.8412
  866MOL0     H19458   5.628  -0.129   2.291  1.6378 -4.4070  1.8954
  866MOL0     H19459   5.787  -0.120   2.344 -2.3113  0.8972  1.4869
  866MOL0     H19460   5.713  -0.213   2.065  0.1384 -2.3990 -0.4094
  866MOL0     H19461   5.875  -0.218   2.129 -0.4360  2.0683 -3.4568
  866MOL0     H19462   5.818  -0.430   2.139  1.0930  1.1223  0.6040
  866MOL0     H19463   5.794  -0.382   2.307  0.0169  3.4490  0.3285
  866MOL0     H19464   5.542  -0.384   2.135 -1.3194 -3.8243 -1.0174
  866MOL0     H19465   5.603  -0.535   2.192 -2.0610  0.0023  1.2556
  866MOL0     H19466   5.674  -0.606   2.392 -0.2565 -1.6318  0.3009
  866MOL0     H19467   5.618  -0.826   2.641 -2.4019  2.3471 -0.7789
  866MOL0     H19468   5.786  -0.755   2.626 -0.6102 -3.0269  0.6500
  866MOL0     H19469   5.698  -0.803   2.488 -1.6598 -3.8963  0.8202
  866MOL0     H19470   5.563  -0.501   3.177 -1.6800  1.6170 -2.0909
  866MOL0     H19471   5.465  -0.575   3.408 -1.6887 -3.5339  2.5661
  866MOL0     H19472   5.372  -0.966   3.444  0.8866 -1.5553  1.7803
  866MOL0     H19473   5.477  -0.830   3.491 -1.4957  1.3534 -0.8676
  866MOL0     H19474   5.302  -0.789   3.667 -2.4887 -0.8281 -0.6067
  866MOL0     H19475   5.238  -0.950   3.634 -0.2557  0.0493  0.9208
  866MOL0     H19476   5.534  -0.947   3.680  1.0985  0.5426  2.0048
  866MOL0     H19477   5.406  -1.078   3.713 -2.3496  0.0476 -0.0433
  866MOL0     H19478   5.430  -1.004   3.943 -1.2559  0.9985  1.8929
  866MOL0     H19479   5.326  -0.887   3.888 -1.0264 -0.0426 -2.0703
  866MOL0     H19480   5.606  -0.815   3.821  1.2855 -0.1133  0.3849
  866MOL0     H19481   5.443  -0.730   3.858 -0.5300 -2.1759  0.1455
  866MOL0     H19482   5.649  -0.866   4.031 -0.7308 -2.0852  1.2787
  866MOL0     H19483   5.478  -0.852   4.085  0.8085 -2.2477  0.3494
  866MOL0     H19484   5.659  -0.664   4.155 -2.7538 -1.0608  2.9169
  866MOL0     H19485   5.496  -0.616   4.092 -2.1858 -4.4411 -0.5189
  866MOL0     H19486   5.699  -0.470   4.005  1.7081 -1.5344  0.7540
  866MOL0     H19487   5.595  -0.554   3.880 -0.3240  1.4676 -0.3699
  866MOL0     H19488   5.242  -0.870   3.189 -2.3932  1.5067 -4.0840
  866MOL0     H19489   5.299  -0.780   2.987  2.6525  1.1772 -1.2503
  866MOL0     H19490   5.442  -0.400   2.774 -1.1669  0.9423 -0.6459
  866MOL0     H19491   5.418  -0.307   2.567  2.8620  1.6927 -0.1396
  866MOL0     H19492   6.452   0.925   2.109 -1.1363  0.7018  2.5334
  866MOL0     H19493   6.480   1.136   2.239  0.3045  0.8737  0.9053
  866MOL0     H19494   6.674   1.283   2.660  1.5350  0.5923 -1.1158
  866MOL0     H19495   6.610   1.470   2.817 -3.7091 -1.1238  0.6203
  866MOL0     H19496   6.486   1.899   2.703 -0.1034 -0.0599  1.6768
  866MOL0     H19497   6.346   1.782   2.665 -2.1273  1.0403  0.9722
  866MOL0     H19498   6.265   1.821   2.901 -0.3865  0.4475  1.4961
  866MOL0     H19499   6.313   1.966   2.818  0.4119  2.6454  1.8054
  866MOL0     H19500   6.494   2.024   2.927  1.2842 -1.4084 -1.8759
  866MOL0     H19501   6.383   1.971   3.052 -1.4558 -0.2128  0.1801
  866MOL0     H19502   6.620   1.793   2.967  1.3151 -2.2462  1.0330
  866MOL0     H19503   6.510   1.772   3.111  0.3320  1.8169  1.1508
  866MOL0     H19504   6.729   2.084   3.269 -2.7781  3.5378 -1.3006
  866MOL0     H19505   6.444   1.686   2.512 -1.2828 -1.5366 -1.8617
  866MOL0     H19506   6.579   1.579   2.243 -0.3219 -0.3992 -1.3072
  866MOL0     H19507   6.462   1.444   2.259  3.0669 -0.8257 -0.7859
  866MOL0     H19508   6.416   1.604   2.309  0.8473  1.0359 -1.6275
  867MOL0     O19509   1.064   9.877   5.964 -0.2409  0.7023 -0.0179
  867MOL0     C19510   1.069   9.847   5.839  0.0147  0.0311  0.0785
  867MOL0     O19511   1.029   9.936   5.744 -0.2808  0.3790 -0.1157
  867MOL0     C19512   0.993  10.062   5.781  0.1801 -0.3858 -0.3176
  867MOL0     C19513   1.083  10.172   5.820 -0.0091  0.4059 -0.7121
  867MOL0     C19514   1.030  10.295   5.858 -0.5190 -0.7283 -0.7885
  867MOL0     C19515   0.889  10.330   5.852 -0.1418  0.6698 -0.0204
  867MOL0     O19516   0.850  10.452   5.883 -0.3747 -0.3398  0.0499
  867MOL0     C19517   0.709  10.481   5.859  0.4006 -0.3093 -0.2342
  867MOL0     C19518   0.664  10.629   5.877  0.3461  0.2359 -0.2520
  867MOL0     C19519   0.526  10.656   5.816  0.7414 -0.0954  0.5667
  867MOL0     C19520   0.433  10.779   5.853  0.4359  0.9810  1.0046
  867MOL0     C19521   0.292  10.758   5.782 -1.1851 -0.8371 -0.5257
  867MOL0     C19522   0.289  10.792   5.631 -0.7455  0.1299 -0.0873
  867MOL0     C19523   0.163  10.775   5.559 -0.4730  0.6315  0.2670
  867MOL0     C19524   0.164  10.843   5.420  0.3605 -0.7493  0.5044
  867MOL0     N19525   0.037  10.822   5.345  0.4184 -0.0234  0.6568
  867MOL0     C19526  -0.070  10.912   5.348  0.0906 -0.0054 -0.1300
  867MOL0     C19527  -0.151  10.866   5.248  0.6854  0.0446 -0.5129
  867MOL0     C19528  -0.279  10.925   5.202 -1.0459 -0.2321  0.3159
  867MOL0     C19529  -0.403  10.885   5.264  0.4005 -0.6252  0.2317
  867MOL0     C19530  -0.399  10.872   5.413  0.0314 -1.1261 -0.4004
  867MOL0     C19531  -0.342  10.738   5.472 -0.2664 -0.4800  0.0257
  867MOL0     O19532  -0.275  10.783   5.591  0.9110  1.0783  0.1077
  867MOL0     C19533  -0.212  10.692   5.661  0.2241 -0.9682  0.0365
  867MOL0     C19534  -0.223  10.714   5.795 -0.1143  1.0166 -0.3086
  867MOL0     C19535  -0.141  10.637   5.883  0.5509  0.7558 -0.3229
  867MOL0     C19536  -0.170  10.660   6.027  0.5690 -1.3003  0.4219
  867MOL0     C19537  -0.052  10.533   5.834 -0.3628 -0.1098 -0.5153
  867MOL0     C19538   0.015  10.429   5.922  0.2560  0.6489 -0.4878
  867MOL0     O19539   0.037  10.300   5.877  0.0773 -0.6679  0.1905
  867MOL0     C19540   0.104  10.215   5.964  0.7265 -1.6871  0.6077
  867MOL0     C19541   0.209  10.142   5.914 -0.5680 -0.8494  0.2817
  867MOL0     C19542   0.280  10.047   5.990 -0.2132  0.5247  0.8374
  867MOL0     C19543   0.233  10.020   6.119 -0.6422 -0.2416 -0.7155
  867MOL0     O19544   0.270   9.924   6.207 -0.4168  0.1034  0.1993
  867MOL0     C19545   0.281   9.791   6.153 -0.0787 -0.5770 -0.5257
  867MOL0     C19546   0.165   9.703   6.218 -0.6079 -0.1800  0.3467
  867MOL0     C19547   0.118   9.592   6.127  0.9386  0.0330  0.3220
  867MOL0     C19548  -0.022   9.529   6.157  0.3524  0.8988  0.0888
  867MOL0     C19549  -0.040   9.397   6.079  0.2376 -0.0443  0.5446
  867MOL0     C19550  -0.162   9.315   6.124  0.0302  0.6590 -0.0697
  867MOL0     C19551  -0.187   9.186   6.037  0.2732 -0.5625 -1.1286
  867MOL0     C19552  -0.327   9.134   6.065 -0.3895  0.6629 -0.2633
  867MOL0    Cl19553  -0.378   8.997   5.960  0.4889  0.2112  0.2391
  867MOL0     C19554   0.117  10.088   6.167  0.5333 -0.2182  0.5039
  867MOL0     C19555   0.054  10.186   6.087  0.1782  0.5559  0.4886
  867MOL0     O19556   0.030  10.461   6.038 -0.4291  0.1537 -0.0389
  867MOL0     C19557  -0.054  10.505   5.698  0.0458 -0.1563 -0.0996
  867MOL0     C19558  -0.129  10.585   5.614 -0.2890 -0.0649 -0.2919
  867MOL0     N19559  -0.117  10.739   5.213  0.3932 -0.2903  0.0536
  867MOL0     N19560   0.002  10.716   5.262 -1.1973 -0.7405  0.2927
  867MOL0     C19561   0.799  10.226   5.804 -0.3726 -0.1202  1.0454
  867MOL0     C19562   0.857  10.094   5.790 -0.3672  0.3083 -0.3085
  867MOL0     C19563   1.126   9.713   5.791  0.2505 -0.1016  0.3758
  867MOL0     C19564   1.094   9.668   5.657 -0.4854 -0.5138 -0.0692
  867MOL0     C19565   1.123   9.539   5.620  0.9243  0.2904 -0.5924
  867MOL0     C19566   1.182   9.447   5.710 -0.6970  0.0933  0.5773
  867MOL0     O19567   1.201   9.322   5.674 -0.6586  0.5178  0.6136
  867MOL0     C19568   1.177   9.216   5.778  0.5879  0.0440  0.1859
  867MOL0     C19569   1.090   9.101   5.737  0.2841  0.3570  0.0076
  867MOL0     C19570   1.152   9.032   5.608 -0.2854  0.2649 -0.0698
  867MOL0     C19571   1.094   8.895   5.583  0.8587  0.3949  0.8569
  867MOL0     C19572   1.128   8.806   5.696 -0.3225 -0.8051  0.1071
  867MOL0     C19573   1.147   8.724   5.782 -0.0460  0.8778  0.5197
  867MOL0     C19574   1.224   9.497   5.839 -0.3966  0.5827  0.2465
  867MOL0     C19575   1.187   9.626   5.886  0.4872  0.1071 -0.2682
  867MOL0     C19576   1.239   9.662   6.025  0.6587  0.0767  0.0646
  867MOL0     H19577   1.187  10.140   5.825 -1.2064 -3.8014  2.0844
  867MOL0     H19578   1.092  10.375   5.898 -1.0586 -0.1622 -1.0568
  867MOL0     H19579   0.642  10.415   5.914  0.1523 -0.1925 -0.3976
  867MOL0     H19580   0.690  10.459   5.753 -0.7533 -0.0596 -0.0913
  867MOL0     H19581   0.671  10.651   5.984 -0.9956  1.2715 -0.3481
  867MOL0     H19582   0.731  10.695   5.821  2.8021 -1.5746  0.3605
  867MOL0     H19583   0.533  10.666   5.708  1.7152 -1.9938  0.4135
  867MOL0     H19584   0.467  10.572   5.853 -0.6476  2.3293  4.4861
  867MOL0     H19585   0.422  10.792   5.961 -0.4474 -1.3554  1.2515
  867MOL0     H19586   0.493  10.865   5.821 -0.1766  2.5409  3.7472
  867MOL0     H19587   0.220  10.833   5.816 -0.1647  0.4567 -1.1521
  867MOL0     H19588   0.252  10.658   5.804  3.6185 -3.0712 -0.8053
  867MOL0     H19589   0.323  10.896   5.628  1.1066 -0.3744  1.2317
  867MOL0     H19590   0.360  10.724   5.582  0.4052 -0.0032  1.6874
  867MOL0     H19591   0.080  10.809   5.621 -2.6848 -0.5746 -1.8986
  867MOL0     H19592   0.140  10.668   5.552  0.2898  0.4815 -0.0240
  867MOL0     H19593   0.184  10.948   5.442  1.4897  0.5126 -4.9685
  867MOL0     H19594   0.247  10.799   5.363  0.7093  0.5103  0.0175
  867MOL0     H19595  -0.091  10.985   5.425  0.1716  3.2426 -2.9533
  867MOL0     H19596  -0.282  10.891   5.098 -0.4271  0.5569  0.0261
  867MOL0     H19597  -0.268  11.033   5.197 -1.0650 -0.2569 -0.3268
  867MOL0     H19598  -0.476  10.952   5.217  0.9225 -1.8448 -2.5582
  867MOL0     H19599  -0.431  10.790   5.218 -3.1143  1.0697 -1.5404
  867MOL0     H19600  -0.347  10.964   5.442 -1.7629  0.2869 -1.4156
  867MOL0     H19601  -0.503  10.884   5.441 -1.0077 -0.5217 -3.9484
  867MOL0     H19602  -0.424  10.671   5.499 -0.6308 -0.7625 -1.6663
  867MOL0     H19603  -0.280  10.681   5.401 -0.4071  0.3868 -0.8132
  867MOL0     H19604  -0.290  10.792   5.830  1.1410  1.0149  2.3452
  867MOL0     H19605  -0.248  10.735   6.036 -0.1495 -2.2124  2.1482
  867MOL0     H19606  -0.082  10.690   6.086  2.2081  0.8763 -2.7902
  867MOL0     H19607  -0.216  10.567   6.059 -2.8895 -0.0856 -0.6409
  867MOL0     H19608   0.252  10.167   5.818 -0.5226  2.7736  1.0816
  867MOL0     H19609   0.364   9.990   5.953  1.2560  1.3884  2.6763
  867MOL0     H19610   0.255   9.799   6.047 -0.0166 -1.0270 -0.5769
  867MOL0     H19611   0.377   9.742   6.167  0.1525  0.1297  0.4516
  867MOL0     H19612   0.197   9.632   6.295 -0.7357 -0.6841 -0.0594
  867MOL0     H19613   0.077   9.756   6.256 -3.2699 -3.2196 -1.0547
  867MOL0     H19614   0.188   9.509   6.117 -2.4097 -2.7878 -2.1087
  867MOL0     H19615   0.111   9.627   6.024  1.9170 -2.0411 -0.5046
  867MOL0     H19616  -0.103   9.596   6.130 -1.3415 -1.0287  0.1619
  867MOL0     H19617  -0.019   9.509   6.264  1.5167 -0.8251 -0.2121
  867MOL0     H19618  -0.040   9.420   5.972  4.2718  0.2700  0.4416
  867MOL0     H19619   0.050   9.334   6.088 -0.9707 -2.0629 -0.8666
  867MOL0     H19620  -0.256   9.370   6.133 -0.5470 -0.6875  3.8313
  867MOL0     H19621  -0.139   9.293   6.229  0.8352  1.5515 -0.0447
  867MOL0     H19622  -0.116   9.106   6.062  1.4415  1.0570  0.9691
  867MOL0     H19623  -0.171   9.221   5.934  0.0926  1.8642 -0.3867
  867MOL0     H19624  -0.398   9.217   6.056 -2.7182 -1.2489 -0.5075
  867MOL0     H19625  -0.335   9.097   6.167 -1.3084  1.6817  0.0519
  867MOL0     H19626   0.084  10.072   6.269 -2.1123 -0.5526 -0.3155
  867MOL0     H19627  -0.038  10.232   6.123 -2.6101 -3.4390 -0.8291
  867MOL0     H19628  -0.004  10.424   5.647  0.8830  0.4789 -0.3025
  867MOL0     H19629  -0.135  10.547   5.513 -0.4601 -1.5115  0.2453
  867MOL0     H19630   0.693  10.237   5.784  0.2118  1.1623 -1.8855
  867MOL0     H19631   0.790  10.018   5.751  0.5712  0.6375 -2.7202
  867MOL0     H19632   1.042   9.742   5.597 -1.4796  0.6407  2.1330
  867MOL0     H19633   1.104   9.513   5.516  0.0192 -0.3551 -0.2822
  867MOL0     H19634   1.277   9.179   5.803  0.2677 -0.9890  0.0123
  867MOL0     H19635   1.139   9.267   5.867  0.7812  2.8118 -1.2235
  867MOL0     H19636   0.986   9.130   5.716 -0.4650 -0.5823  2.1129
  867MOL0     H19637   1.096   9.048   5.833  3.3252  3.0262  1.4643
  867MOL0     H19638   1.127   9.085   5.516 -0.5430 -2.9323 -1.9883
  867MOL0     H19639   1.260   9.025   5.619  0.2226  1.0347 -3.5105
  867MOL0     H19640   1.129   8.859   5.486  1.7818  1.8005  0.6462
  867MOL0     H19641   0.985   8.891   5.573  0.7199 -1.1788  2.5197
  867MOL0     H19642   1.160   8.638   5.844 -1.5671  0.5338  0.4034
  867MOL0     H19643   1.280   9.426   5.899 -1.6203  0.8736  1.8108
  867MOL0     H19644   1.287   9.581   6.081  0.6635  1.1663  1.6941
  867MOL0     H19645   1.308   9.747   6.016 -1.3570  1.9458  1.4093
  867MOL0     H19646   1.151   9.689   6.082 -0.7753  0.2239 -2.0979
  868MOL0     O19647   1.861   7.750   5.351 -0.0246 -0.1364 -0.7596
  868MOL0     C19648   1.902   7.834   5.271  0.1104 -0.4498  0.0803
  868MOL0     O19649   1.866   7.964   5.254 -0.2255  1.6423  0.5209
  868MOL0     C19650   1.763   8.027   5.310 -0.4819 -0.9376  0.1005
  868MOL0     C19651   1.788   8.154   5.359 -0.2825 -0.0592 -0.6449
  868MOL0     C19652   1.684   8.218   5.413  0.2134 -0.1173  0.4226
  868MOL0     C19653   1.553   8.181   5.405 -1.2528  0.2983 -0.5009
  868MOL0     O19654   1.441   8.257   5.447 -0.5171 -0.6034  0.1945
  868MOL0     C19655   1.453   8.402   5.463 -0.1925 -0.2331 -0.0593
  868MOL0     C19656   1.322   8.468   5.501  0.2419 -0.5643  0.2407
  868MOL0     C19657   1.192   8.409   5.432 -1.3141 -0.3790 -0.5670
  868MOL0     C19658   1.078   8.501   5.407  0.7152 -0.0792  0.5416
  868MOL0     C19659   1.115   8.600   5.294  1.2138  0.6722  1.0328
  868MOL0     C19660   0.993   8.689   5.273  0.5266 -0.6297 -1.1119
  868MOL0     C19661   1.007   8.754   5.136 -0.0793 -0.1351  0.8145
  868MOL0     C19662   1.119   8.865   5.127  0.6567  0.3256  0.4118
  868MOL0     N19663   1.269   8.840   5.150 -0.7233  0.3310 -0.0905
  868MOL0     C19664   1.350   8.767   5.066  0.0843  1.5909  0.1720
  868MOL0     C19665   1.477   8.785   5.114  0.1819  0.8502  0.5585
  868MOL0     C19666   1.581   8.690   5.075  0.0533 -0.5962 -0.4010
  868MOL0     C19667   1.658   8.657   5.209  0.2153  0.3452 -0.7100
  868MOL0     C19668   1.764   8.545   5.179 -0.0201 -0.0004 -0.2977
  868MOL0     C19669   1.863   8.592   5.073  0.1569  0.7473 -1.3636
  868MOL0     O19670   1.925   8.478   5.026 -0.5144  0.5346  0.4882
  868MOL0     C19671   2.068   8.479   5.007 -0.7912 -0.5639 -0.4059
  868MOL0     C19672   2.111   8.505   4.880  0.1584  0.3560 -0.2513
  868MOL0     C19673   2.254   8.517   4.845  0.2777  0.1054  0.6509
  868MOL0     C19674   2.282   8.546   4.698 -0.0217 -0.2006 -0.1894
  868MOL0     C19675   2.349   8.517   4.951 -0.2336  0.4396 -0.2056
  868MOL0     C19676   2.490   8.530   4.931 -0.6888  0.2830 -0.3360
  868MOL0     O19677   2.544   8.514   4.804  0.1198  0.6735 -0.0540
  868MOL0     C19678   2.683   8.511   4.794  1.0169 -0.1020  0.2951
  868MOL0     C19679   2.752   8.390   4.804 -0.3927 -0.0207  0.7787
  868MOL0     C19680   2.891   8.399   4.788  0.1119 -0.8719  0.5905
  868MOL0     C19681   2.959   8.516   4.766 -0.1646 -0.5260 -0.6959
  868MOL0     O19682   3.095   8.498   4.758 -0.3308  0.5639  0.6387
  868MOL0     C19683   3.186   8.602   4.767 -0.2007 -0.5243  0.9274
  868MOL0     C19684   3.336   8.540   4.762  0.3806 -0.1408  0.9228
  868MOL0     C19685   3.425   8.651   4.818 -0.4113 -0.2841 -0.1832
  868MOL0     C19686   3.573   8.615   4.785 -0.1283 -0.0140  0.5272
  868MOL0     C19687   3.670   8.739   4.783 -1.1772 -0.3076 -0.2153
  868MOL0     C19688   3.804   8.697   4.706 -0.5220 -0.3142  1.4768
  868MOL0     C19689   3.923   8.701   4.800  0.2766  0.3556  1.2142
  868MOL0     C19690   4.064   8.649   4.747 -0.6450 -0.4990  0.6245
  868MOL0    Cl19691   4.132   8.753   4.608  0.0689  0.3054 -0.2498
  868MOL0     C19692   2.887   8.645   4.770 -0.4677  0.0527 -0.8180
  868MOL0     C19693   2.748   8.632   4.782 -0.1881 -1.2386  0.0169
  868MOL0     O19694   2.551   8.583   5.026  0.4096 -1.2261 -0.0293
  868MOL0     C19695   2.294   8.502   5.080  0.5932 -0.1512 -1.1858
  868MOL0     C19696   2.163   8.485   5.111  0.0240  0.6338  0.0752
  868MOL0     N19697   1.482   8.873   5.216  0.0927 -0.2767  0.3244
  868MOL0     N19698   1.354   8.912   5.235  0.7510 -0.3437 -0.1030
  868MOL0     C19699   1.527   8.063   5.337 -0.2421 -0.3077  0.5449
  868MOL0     C19700   1.632   7.979   5.297  0.6954  0.3394 -0.9928
  868MOL0     C19701   1.977   7.771   5.160  0.5694 -0.3238  0.3086
  868MOL0     C19702   1.914   7.700   5.056 -1.8269  0.1602 -0.4774
  868MOL0     C19703   1.991   7.641   4.957  0.2141 -0.2367  1.0416
  868MOL0     C19704   2.132   7.648   4.966  0.6449  0.1799  0.3428
  868MOL0     O19705   2.213   7.572   4.900 -0.3483 -0.2061 -0.9318
  868MOL0     C19706   2.186   7.424   4.913 -0.6811 -0.6082 -0.6467
  868MOL0     C19707   2.324   7.356   4.909 -0.9908  0.9789  0.6307
  868MOL0     C19708   2.390   7.352   5.044  0.1739 -0.1691 -0.6267
  868MOL0     C19709   2.535   7.325   5.041 -0.8439 -1.1420 -0.4352
  868MOL0     C19710   2.579   7.197   4.976 -0.0403 -0.0260 -0.1133
  868MOL0     C19711   2.603   7.106   4.904  0.4881 -0.0840  0.8005
  868MOL0     C19712   2.190   7.723   5.059 -0.3336  0.0663  0.7435
  868MOL0     C19713   2.114   7.791   5.153 -0.5398 -0.0549  0.1324
  868MOL0     C19714   2.194   7.876   5.254 -0.6387 -0.5142  0.7300
  868MOL0     H19715   1.890   8.189   5.371  0.0675 -0.9342 -0.9192
  868MOL0     H19716   1.709   8.304   5.474 -2.0538 -0.3051  1.7198
  868MOL0     H19717   1.501   8.443   5.373  0.9680  1.6440  1.3195
  868MOL0     H19718   1.526   8.418   5.543  0.1253 -1.0940 -0.1638
  868MOL0     H19719   1.309   8.469   5.610 -1.3090 -1.5437  0.1019
  868MOL0     H19720   1.337   8.572   5.469 -0.2115 -0.2509  0.9897
  868MOL0     H19721   1.221   8.365   5.336  1.8064  2.9300 -1.3594
  868MOL0     H19722   1.159   8.334   5.505  0.1181 -2.4393 -1.9170
  868MOL0     H19723   0.993   8.441   5.373  1.5087 -1.6480  1.2103
  868MOL0     H19724   1.067   8.549   5.505  0.0040 -0.0027  0.4277
  868MOL0     H19725   1.143   8.539   5.208 -3.4677  1.1868 -1.1509
  868MOL0     H19726   1.193   8.669   5.330 -0.3584  3.1525 -0.0604
  868MOL0     H19727   0.899   8.634   5.263 -1.9209  2.9930  0.1518
  868MOL0     H19728   0.985   8.762   5.354 -0.5754  0.2425 -1.9835
  868MOL0     H19729   0.914   8.797   5.098  0.4155  0.0112 -0.2702
  868MOL0     H19730   1.030   8.677   5.061 -1.4998  1.0884 -0.9547
  868MOL0     H19731   1.123   8.880   5.019  1.1539  2.7711  0.7117
  868MOL0     H19732   1.091   8.949   5.192 -1.7292 -1.9949  2.6500
  868MOL0     H19733   1.326   8.695   4.989 -1.4416  2.6158 -0.3629
  868MOL0     H19734   1.647   8.731   4.998  0.0112  1.0739  0.4195
  868MOL0     H19735   1.537   8.596   5.039 -2.8579 -0.2529  1.8266
  868MOL0     H19736   1.711   8.743   5.251 -1.0165  0.5970  0.3931
  868MOL0     H19737   1.582   8.619   5.278 -1.1876 -2.6502 -3.5945
  868MOL0     H19738   1.833   8.533   5.263  1.7696  4.4805 -0.8382
  868MOL0     H19739   1.721   8.448   5.156  1.5625 -0.2750 -2.4771
  868MOL0     H19740   1.814   8.637   4.986  0.6961  0.9549 -1.5600
  868MOL0     H19741   1.931   8.665   5.119 -2.5924  2.9913 -0.5441
  868MOL0     H19742   2.043   8.518   4.796 -0.9112  0.6483  0.6359
  868MOL0     H19743   2.189   8.554   4.640 -0.9204  2.2140  1.4074
  868MOL0     H19744   2.350   8.472   4.656  0.7598  0.7006 -0.5491
  868MOL0     H19745   2.321   8.649   4.696 -5.2523  2.1106 -2.1041
  868MOL0     H19746   2.694   8.301   4.825  0.8094 -1.5023 -1.7346
  868MOL0     H19747   2.939   8.302   4.795  1.1535 -0.3004  1.8732
  868MOL0     H19748   3.170   8.670   4.683 -0.9929 -2.4612 -0.5874
  868MOL0     H19749   3.178   8.649   4.865 -1.4296  1.3302 -0.0005
  868MOL0     H19750   3.344   8.452   4.826  1.8957 -1.9022 -1.5190
  868MOL0     H19751   3.356   8.527   4.655 -0.3178  1.1354  0.6154
  868MOL0     H19752   3.411   8.650   4.926 -1.8592 -0.9981 -0.3470
  868MOL0     H19753   3.403   8.749   4.775  0.9538 -0.2842 -0.9323
  868MOL0     H19754   3.579   8.574   4.684 -0.9895  1.6155 -0.2256
  868MOL0     H19755   3.611   8.551   4.865  0.8133  0.7691  0.7304
  868MOL0     H19756   3.623   8.827   4.739 -0.8808 -0.4143 -0.7521
  868MOL0     H19757   3.701   8.753   4.887  2.3583  1.1952 -1.3311
  868MOL0     H19758   3.831   8.762   4.623  0.3889  0.0018  2.0098
  868MOL0     H19759   3.795   8.597   4.662 -2.8115  1.9921 -4.2705
  868MOL0     H19760   3.894   8.649   4.892 -1.0143 -0.2893  0.4795
  868MOL0     H19761   3.948   8.804   4.825 -0.2988  0.6821  0.4923
  868MOL0     H19762   4.062   8.551   4.699 -1.2368 -0.9432  1.5218
  868MOL0     H19763   4.129   8.654   4.835 -0.2599 -2.0075  0.4560
  868MOL0     H19764   2.936   8.742   4.777  1.0215 -0.5600 -2.0953
  868MOL0     H19765   2.698   8.725   4.807  0.1530 -1.2557  0.7821
  868MOL0     H19766   2.374   8.504   5.154 -0.6062 -0.8860  0.1767
  868MOL0     H19767   2.131   8.484   5.215 -2.6813  0.6416 -0.6579
  868MOL0     H19768   1.426   8.031   5.314  0.7382 -0.5164 -4.7628
  868MOL0     H19769   1.597   7.880   5.271 -3.5067  1.7328 -1.4627
  868MOL0     H19770   1.808   7.689   5.074 -2.1386  1.1641 -1.5971
  868MOL0     H19771   1.949   7.565   4.893  0.7489 -0.0449  0.4494
  868MOL0     H19772   2.120   7.396   4.995  0.9380 -1.7351  0.3218
  868MOL0     H19773   2.125   7.386   4.830 -1.3674 -0.6982 -0.1104
  868MOL0     H19774   2.386   7.401   4.832  1.4441 -2.1672  0.5746
  868MOL0     H19775   2.309   7.253   4.877 -0.0925  1.9622 -3.4623
  868MOL0     H19776   2.373   7.455   5.079 -1.1532 -0.5087 -0.1924
  868MOL0     H19777   2.342   7.275   5.105 -2.2967  1.2068 -0.6893
  868MOL0     H19778   2.576   7.328   5.142 -0.9134 -0.1568 -0.4274
  868MOL0     H19779   2.580   7.403   4.979  0.0026 -0.6845  0.7308
  868MOL0     H19780   2.636   7.035   4.830 -0.1260  0.6769 -0.2367
  868MOL0     H19781   2.297   7.740   5.067 -0.3795  0.1980  1.0884
  868MOL0     H19782   2.180   7.975   5.210 -2.9911 -0.4891  1.3522
  868MOL0     H19783   2.146   7.860   5.352 -0.8167  3.3458  1.4431
  868MOL0     H19784   2.299   7.848   5.263 -0.5045 -0.2903 -0.1224
  869MOL0     O19785   2.536   3.968   0.052  0.3311 -1.3046  0.1389
  869MOL0     C19786   2.468   3.868   0.058 -0.4160  0.5379 -0.1119
  869MOL0     O19787   2.495   3.759  -0.017 -0.1910  1.4965 -0.5097
  869MOL0     C19788   2.601   3.731  -0.099 -0.0143  0.9101  0.3415
  869MOL0     C19789   2.731   3.776  -0.072 -0.3676  0.8203 -0.5514
  869MOL0     C19790   2.834   3.728  -0.146  0.1935  0.3678  0.1393
  869MOL0     C19791   2.814   3.638  -0.253 -1.4426 -0.2475  0.1984
  869MOL0     O19792   2.914   3.592  -0.337 -0.8012  0.4311 -0.0991
  869MOL0     C19793   3.006   3.683  -0.393 -1.3519  0.1696  0.4386
  869MOL0     C19794   2.962   3.717  -0.532 -0.2391 -0.1748 -0.2096
  869MOL0     C19795   3.077   3.785  -0.619 -0.3652 -0.1449  0.1827
  869MOL0     C19796   3.034   3.832  -0.761 -0.7057 -0.4755  0.7430
  869MOL0     C19797   2.989   3.722  -0.854  0.7826  0.1697  1.4293
  869MOL0     C19798   2.934   3.773  -0.989 -1.3521  0.5641  1.4638
  869MOL0     C19799   2.936   3.664  -1.106 -0.6984 -0.5605  0.2320
  869MOL0     C19800   2.845   3.540  -1.070  0.1305  0.9236 -0.2081
  869MOL0     N19801   2.842   3.441  -1.187 -0.1122 -0.7199 -0.2003
  869MOL0     C19802   2.951   3.373  -1.217 -0.5769 -0.2991 -0.5984
  869MOL0     C19803   2.922   3.316  -1.338  1.3545 -0.7202  0.3509
  869MOL0     C19804   3.024   3.250  -1.418 -0.1054 -0.0377  0.0246
  869MOL0     C19805   3.014   3.091  -1.425  0.0317  0.8229  0.1967
  869MOL0     C19806   3.111   3.051  -1.536 -0.1790  0.8082  0.7409
  869MOL0     C19807   3.077   2.922  -1.620 -0.0520  0.0362 -0.0723
  869MOL0     O19808   3.099   2.802  -1.538 -0.1991 -0.1903 -0.6915
  869MOL0     C19809   3.114   2.687  -1.608  0.8545  0.2402  0.2462
  869MOL0     C19810   3.182   2.589  -1.542 -0.8401 -1.0294  0.5158
  869MOL0     C19811   3.203   2.463  -1.612 -0.5916 -0.1750 -0.1977
  869MOL0     C19812   3.292   2.372  -1.538 -0.4014  0.4232 -0.9095
  869MOL0     C19813   3.136   2.440  -1.730 -0.0520 -0.0896 -0.0436
  869MOL0     C19814   3.158   2.323  -1.806  0.6562  1.2647  0.7709
  869MOL0     O19815   3.059   2.231  -1.782 -0.5653 -0.1463 -0.1102
  869MOL0     C19816   3.069   2.107  -1.839 -0.7904 -0.6983  0.3336
  869MOL0     C19817   3.069   1.990  -1.757  0.3206 -0.1962 -0.8639
  869MOL0     C19818   3.073   1.862  -1.802 -0.5697  0.4982  0.5514
  869MOL0     C19819   3.055   1.845  -1.943  1.0158 -0.0696 -1.1313
  869MOL0     O19820   3.056   1.717  -1.991 -0.0667 -1.0761  0.4536
  869MOL0     C19821   2.937   1.677  -2.053 -1.6238  0.7108  0.2853
  869MOL0     C19822   2.853   1.603  -1.954  0.4565  0.5387  0.0157
  869MOL0     C19823   2.708   1.564  -1.999 -0.8865 -0.0209 -0.4317
  869MOL0     C19824   2.720   1.460  -2.106 -0.0370 -0.0440 -0.3066
  869MOL0     C19825   2.588   1.430  -2.168 -0.5615  0.1769  0.4159
  869MOL0     C19826   2.519   1.543  -2.232 -0.7158 -0.5968  0.2238
  869MOL0     C19827   2.569   1.592  -2.364 -0.2617 -0.2946 -0.3941
  869MOL0     C19828   2.692   1.689  -2.361 -0.6001 -1.0097 -0.2640
  869MOL0    Cl19829   2.679   1.817  -2.239 -0.3284 -0.3109 -0.0599
  869MOL0     C19830   3.054   1.960  -2.027  0.8493 -0.3587 -0.0644
  869MOL0     C19831   3.061   2.088  -1.979 -0.7848 -0.1372 -0.4269
  869MOL0     O19832   3.240   2.311  -1.898  0.6690 -0.2760 -0.3537
  869MOL0     C19833   3.043   2.538  -1.785  0.0843 -0.3096  0.2148
  869MOL0     C19834   3.041   2.661  -1.727  0.2753  0.5111  0.5813
  869MOL0     N19835   2.783   3.335  -1.355 -0.0884 -0.7626 -0.1182
  869MOL0     N19836   2.738   3.404  -1.264 -0.1530  0.0293 -0.6543
  869MOL0     C19837   2.684   3.577  -0.265 -0.0489 -0.1662  0.6534
  869MOL0     C19838   2.582   3.616  -0.181  0.5250 -0.1744 -0.0349
  869MOL0     C19839   2.356   3.847   0.158 -0.8995  0.1244 -0.6554
  869MOL0     C19840   2.299   3.966   0.204  0.2481  0.8580  0.5994
  869MOL0     C19841   2.183   3.977   0.269 -0.3027  0.5964 -1.1733
  869MOL0     C19842   2.120   3.859   0.293 -0.3387 -0.0754 -1.0363
  869MOL0     O19843   2.004   3.871   0.374  0.7809  0.2277 -0.1570
  869MOL0     C19844   1.914   3.766   0.382 -0.3158  0.0035  0.2034
  869MOL0     C19845   1.855   3.704   0.244 -0.7402  0.1381 -1.1005
  869MOL0     C19846   1.806   3.820   0.160 -0.2805 -0.5149 -0.6244
  869MOL0     C19847   1.705   3.791   0.050  0.3741  0.9774  0.4575
  869MOL0     C19848   1.671   3.905  -0.029  0.2204 -1.0867 -0.1454
  869MOL0     C19849   1.637   4.007  -0.102 -0.2052  0.2879  0.1557
  869MOL0     C19850   2.171   3.738   0.251  0.3523 -0.3027  0.2960
  869MOL0     C19851   2.297   3.726   0.192 -0.1590  0.6347 -0.4900
  869MOL0     C19852   2.346   3.584   0.187 -0.8580 -0.0707  0.0556
  869MOL0     H19853   2.727   3.853   0.005 -3.1975  0.0102  0.2579
  869MOL0     H19854   2.929   3.772  -0.119  1.6830 -0.6000 -2.9744
  869MOL0     H19855   3.103   3.634  -0.398 -2.9418 -3.1535 -0.4505
  869MOL0     H19856   3.013   3.771  -0.329  0.3801 -0.2499  0.8622
  869MOL0     H19857   2.925   3.629  -0.584  3.3722 -0.5166 -2.5660
  869MOL0     H19858   2.874   3.780  -0.515 -0.9602 -0.7428 -1.7049
  869MOL0     H19859   3.126   3.865  -0.562 -1.6315  2.6737 -2.3564
  869MOL0     H19860   3.153   3.711  -0.644  2.5944  2.8333 -0.2995
  869MOL0     H19861   2.959   3.911  -0.752 -1.0936 -0.6220 -0.8889
  869MOL0     H19862   3.116   3.886  -0.809 -0.9685 -1.3854 -0.8209
  869MOL0     H19863   2.901   3.666  -0.819  0.7679  1.6984  4.1543
  869MOL0     H19864   3.066   3.645  -0.859  0.9540  0.1631  3.2982
  869MOL0     H19865   2.830   3.804  -0.983 -1.6431 -0.0349 -0.0424
  869MOL0     H19866   2.989   3.865  -1.010 -0.2774  0.1117  2.2246
  869MOL0     H19867   3.039   3.629  -1.115 -1.2221 -2.1395  0.0342
  869MOL0     H19868   2.910   3.698  -1.206  0.2928 -0.1434  0.1117
  869MOL0     H19869   2.894   3.486  -0.989 -0.9718  0.4835  0.1822
  869MOL0     H19870   2.746   3.579  -1.049  0.9860  4.1184 -1.4382
  869MOL0     H19871   3.051   3.386  -1.178 -1.2512  2.8109  0.3291
  869MOL0     H19872   3.120   3.290  -1.384 -1.6265  2.3711  1.8630
  869MOL0     H19873   2.999   3.286  -1.519 -4.1623 -1.9809  0.1144
  869MOL0     H19874   3.044   3.038  -1.334  2.2151 -2.6811 -2.3488
  869MOL0     H19875   2.916   3.052  -1.455  1.4211  0.4006 -4.5622
  869MOL0     H19876   3.114   3.135  -1.607  0.2169 -0.2380 -0.5292
  869MOL0     H19877   3.208   3.039  -1.488  0.5825  2.7740 -0.1856
  869MOL0     H19878   2.973   2.928  -1.652  0.3440 -0.2334 -1.4659
  869MOL0     H19879   3.141   2.921  -1.709  2.4153 -0.4817  1.5784
  869MOL0     H19880   3.228   2.627  -1.452 -2.6959  1.1831  0.6265
  869MOL0     H19881   3.241   2.334  -1.449  0.6950  1.5553  0.2501
  869MOL0     H19882   3.381   2.428  -1.507 -0.2308 -0.9054  1.2622
  869MOL0     H19883   3.332   2.294  -1.603  2.3366  2.6609 -2.1306
  869MOL0     H19884   3.085   2.007  -1.651  2.1546  2.4314 -1.4323
  869MOL0     H19885   3.081   1.778  -1.733  2.0039  2.2296  2.5555
  869MOL0     H19886   2.875   1.759  -2.089 -0.7453  2.1074  1.7655
  869MOL0     H19887   2.967   1.612  -2.135 -0.3661  1.1590  0.3728
  869MOL0     H19888   2.897   1.504  -1.935 -4.3083 -1.3557  3.0107
  869MOL0     H19889   2.846   1.656  -1.859  0.1403  1.1316 -0.3333
  869MOL0     H19890   2.659   1.658  -2.027  0.0504 -0.1152 -2.6162
  869MOL0     H19891   2.650   1.510  -1.924  0.1690 -1.4774 -0.6344
  869MOL0     H19892   2.770   1.372  -2.063  0.1915 -0.3324 -1.1485
  869MOL0     H19893   2.796   1.486  -2.181  0.1129 -1.0414 -0.5128
  869MOL0     H19894   2.610   1.350  -2.239 -3.5230 -0.4789  0.0894
  869MOL0     H19895   2.520   1.393  -2.091 -0.3030 -0.8175  0.1797
  869MOL0     H19896   2.514   1.628  -2.165 -0.5662 -0.5209  0.1382
  869MOL0     H19897   2.415   1.515  -2.254 -1.5049  2.1471  0.0662
  869MOL0     H19898   2.478   1.638  -2.403  0.3444  0.7281 -0.6244
  869MOL0     H19899   2.581   1.504  -2.429  3.1058 -1.7656  1.8784
  869MOL0     H19900   2.707   1.734  -2.460  0.2856  0.7390  0.6226
  869MOL0     H19901   2.784   1.632  -2.348 -0.2687 -0.1441  1.4638
  869MOL0     H19902   3.054   1.957  -2.136  1.6386  1.8731 -0.1670
  869MOL0     H19903   3.042   2.169  -2.048 -3.3695 -0.9783 -0.8106
  869MOL0     H19904   2.976   2.520  -1.869 -1.5262  1.0873  1.1130
  869MOL0     H19905   2.985   2.745  -1.768  1.4723  0.4736 -1.2646
  869MOL0     H19906   2.662   3.498  -0.336 -2.3444  1.3371 -0.4111
  869MOL0     H19907   2.485   3.569  -0.195  0.9627 -0.6274 -1.9258
  869MOL0     H19908   2.355   4.056   0.181  1.4685  0.4750  1.9205
  869MOL0     H19909   2.142   4.073   0.298 -3.9229 -1.7756  2.7927
  869MOL0     H19910   1.949   3.693   0.455  0.6498 -1.6739 -1.8344
  869MOL0     H19911   1.828   3.816   0.427  1.0943  0.7824  2.1907
  869MOL0     H19912   1.771   3.636   0.262 -1.2261  1.1471  0.6699
  869MOL0     H19913   1.932   3.645   0.194  1.4132  1.7306  0.1533
  869MOL0     H19914   1.766   3.884   0.239 -0.2715  1.9862 -2.5230
  869MOL0     H19915   1.887   3.880   0.117 -1.7079  0.9453 -1.3710
  869MOL0     H19916   1.613   3.768   0.105  0.8828  1.2996  1.4526
  869MOL0     H19917   1.717   3.706  -0.018  0.5121  2.7693 -1.9148
  869MOL0     H19918   1.620   4.095  -0.160 -0.3901  1.5740  2.0722
  869MOL0     H19919   2.127   3.653   0.302  0.8822 -1.0227 -0.4290
  869MOL0     H19920   2.448   3.579   0.147 -0.7798  0.7269  0.1243
  869MOL0     H19921   2.368   3.552   0.289  2.3555 -1.8573 -1.0524
  869MOL0     H19922   2.284   3.514   0.131  0.5183 -0.9365 -0.4357
  870MOL0     O19923   3.121  10.402   3.208 -0.0627 -0.2870  1.6789
  870MOL0     C19924   3.084  10.475   3.114 -0.6946 -0.2963 -0.6040
  870MOL0     O19925   3.103  10.457   2.979  0.3569 -0.2081 -0.1626
  870MOL0     C19926   3.169  10.340   2.947 -0.6065  0.0797 -1.1103
  870MOL0     C19927   3.118  10.265   2.837  0.0702 -0.1497 -0.5650
  870MOL0     C19928   3.185  10.160   2.778  0.4585  0.3558 -0.4095
  870MOL0     C19929   3.306  10.119   2.830  0.6969  0.1572  0.7876
  870MOL0     O19930   3.386  10.020   2.766 -0.2679  0.3877 -0.7114
  870MOL0     C19931   3.333   9.901   2.732  1.5547 -0.6305  0.5834
  870MOL0     C19932   3.371   9.786   2.807  0.1709 -0.0621  0.6812
  870MOL0     C19933   3.391   9.812   2.961 -0.7587  0.2691  0.1453
  870MOL0     C19934   3.269   9.828   3.045 -1.0250  0.2654  0.5943
  870MOL0     C19935   3.306   9.889   3.181  0.3211 -0.7630 -0.0215
  870MOL0     C19936   3.173   9.942   3.246 -0.8718  0.4629 -0.5011
  870MOL0     C19937   3.210  10.020   3.380 -0.6415  0.2211  0.7707
  870MOL0     C19938   3.095  10.126   3.406  0.6362  0.4027 -0.1631
  870MOL0     N19939   3.140  10.214   3.511  0.7955 -0.2578 -0.9629
  870MOL0     C19940   3.272  10.257   3.524  1.1617 -0.3647 -0.7841
  870MOL0     C19941   3.276  10.340   3.631 -0.2998  0.9248  0.7343
  870MOL0     C19942   3.396  10.416   3.687  1.0088  0.1290 -0.2324
  870MOL0     C19943   3.365  10.557   3.746 -0.6731  0.3255  0.0057
  870MOL0     C19944   3.284  10.573   3.878  0.3915 -0.7651  0.5658
  870MOL0     C19945   3.331  10.472   3.976  0.2535  0.1965 -0.2299
  870MOL0     O19946   3.278  10.497   4.111 -0.9721  0.3664  0.6510
  870MOL0     C19947   3.348  10.429   4.202 -1.2471 -0.1306  1.4400
  870MOL0     C19948   3.419  10.509   4.295 -0.4156  0.3100  0.6949
  870MOL0     C19949   3.478  10.450   4.406  0.7936 -0.7134  0.3712
  870MOL0     C19950   3.547  10.550   4.505  0.5736  0.2791  1.2824
  870MOL0     C19951   3.463  10.314   4.427  0.3253 -0.2212  0.6416
  870MOL0     C19952   3.502  10.250   4.555 -0.6245  0.1103 -0.3594
  870MOL0     O19953   3.585  10.316   4.635 -0.1503  0.3691 -0.5275
  870MOL0     C19954   3.620  10.250   4.754 -0.2601  0.1494  0.6006
  870MOL0     C19955   3.697  10.131   4.739 -0.0166 -0.1942 -0.7234
  870MOL0     C19956   3.754  10.086   4.864 -0.5799  1.2600 -0.0728
  870MOL0     C19957   3.721  10.135   4.993  0.5144 -0.4718  0.0727
  870MOL0     O19958   3.755  10.091   5.115  0.0150 -0.5004 -1.1649
  870MOL0     C19959   3.832   9.962   5.126  0.9786  0.0804 -0.0897
  870MOL0     C19960   3.866   9.952   5.272  0.5889 -0.3839  0.2303
  870MOL0     C19961   3.928   9.814   5.291 -0.0471 -0.0300 -0.1757
  870MOL0     C19962   3.934   9.781   5.435 -0.1848 -0.8169 -0.6876
  870MOL0     C19963   3.988   9.643   5.464 -0.2289  1.1256  0.5086
  870MOL0     C19964   4.007   9.606   5.617  0.2638 -0.3722 -0.1712
  870MOL0     C19965   4.049   9.464   5.639 -0.5598 -0.3667 -0.7489
  870MOL0     C19966   4.124   9.448   5.765 -0.6242  0.2464 -0.3487
  870MOL0    Cl19967   4.019   9.464   5.913 -0.4648 -0.5682 -0.0488
  870MOL0     C19968   3.624  10.230   4.992  0.2772 -0.3454  0.5676
  870MOL0     C19969   3.577  10.293   4.880 -0.6648 -0.3713 -0.6834
  870MOL0     O19970   3.464  10.130   4.568  0.2267  0.5275 -0.0255
  870MOL0     C19971   3.392  10.239   4.329  0.7126 -0.0501 -0.6749
  870MOL0     C19972   3.345  10.291   4.215 -0.5620  0.8955 -0.4258
  870MOL0     N19973   3.146  10.340   3.688 -0.3173 -0.0485  0.2607
  870MOL0     N19974   3.061  10.270   3.613  0.1488 -0.7012  0.2370
  870MOL0     C19975   3.361  10.193   2.932  0.2238 -0.3304  0.7239
  870MOL0     C19976   3.304  10.304   2.989  1.5072 -0.2656 -0.4576
  870MOL0     C19977   3.007  10.588   3.157 -0.2177  0.2870 -0.0904
  870MOL0     C19978   2.923  10.651   3.056  0.8788 -1.0405 -0.3048
  870MOL0     C19979   2.848  10.757   3.088  0.8517 -0.5742 -0.5166
  870MOL0     C19980   2.844  10.800   3.223 -0.9443  0.3992  0.5809
  870MOL0     O19981   2.762  10.913   3.236 -0.4591  0.2380 -0.0117
  870MOL0     C19982   2.734  10.958   3.371 -0.6425  0.2852 -0.0846
  870MOL0     C19983   2.608  11.055   3.363 -0.5399  1.0556 -0.7381
  870MOL0     C19984   2.642  11.205   3.312  0.2340  0.5503 -0.0127
  870MOL0     C19985   2.673  11.313   3.420  0.6778 -0.9740  0.3639
  870MOL0     C19986   2.547  11.354   3.497 -0.2356 -0.1259 -0.4085
  870MOL0     C19987   2.466  11.376   3.584 -0.2619 -0.5833 -0.5539
  870MOL0     C19988   2.914  10.743   3.331  0.1350  0.4779 -0.5857
  870MOL0     C19989   3.002  10.639   3.292 -0.6350 -1.3123 -0.5458
  870MOL0     C19990   3.093  10.611   3.410  0.1028 -0.6656 -0.4989
  870MOL0     H19991   3.022  10.290   2.793 -0.7529 -0.1832  1.1174
  870MOL0     H19992   3.142  10.111   2.691  0.2286  2.1720 -1.3677
  870MOL0     H19993   3.351   9.872   2.628  0.7599 -0.8237  0.4949
  870MOL0     H19994   3.224   9.910   2.729  1.5945 -0.1263  0.5581
  870MOL0     H19995   3.296   9.711   2.781 -1.2683  1.8413 -0.9494
  870MOL0     H19996   3.471   9.755   2.774 -0.1978 -2.0442  1.2950
  870MOL0     H19997   3.458   9.734   2.998 -0.0642 -0.4636 -2.4283
  870MOL0     H19998   3.447   9.906   2.963  0.1878 -0.2685 -0.3423
  870MOL0     H19999   3.190   9.882   2.993 -2.3486 -2.2692 -0.2063
  870MOL0     H20000   3.226   9.730   3.066  0.2813  0.3349  4.2087
  870MOL0     H20001   3.370   9.977   3.171  0.6271 -0.5778  2.6946
  870MOL0     H20002   3.351   9.810   3.242 -0.0834 -0.3269  0.8685
  870MOL0     H20003   3.130  10.010   3.172 -2.6833 -0.7313 -0.5845
  870MOL0     H20004   3.104   9.859   3.260 -0.8076  0.4648 -0.1733
  870MOL0     H20005   3.305  10.074   3.372  1.1024 -0.7514  7.8910
  870MOL0     H20006   3.211   9.945   3.460 -3.7664  1.9925  2.7028
  870MOL0     H20007   3.074  10.178   3.313  6.3154  4.4835  0.2904
  870MOL0     H20008   3.005  10.071   3.437 -0.1725  0.7583 -1.8254
  870MOL0     H20009   3.343  10.245   3.443 -0.2191 -0.1283 -2.0777
  870MOL0     H20010   3.456  10.437   3.598 -1.0039 -1.1711 -1.9995
  870MOL0     H20011   3.455  10.356   3.757 -0.2998  1.6730  2.3673
  870MOL0     H20012   3.467  10.573   3.781 -0.8702  0.6263  0.4423
  870MOL0     H20013   3.342  10.641   3.681  0.6332  2.4041  2.0755
  870MOL0     H20014   3.305  10.671   3.922 -2.3801 -0.4420  1.3793
  870MOL0     H20015   3.179  10.546   3.861  1.3331 -4.9189  0.2482
  870MOL0     H20016   3.306  10.373   3.935  1.9840  0.0544 -1.0321
  870MOL0     H20017   3.437  10.490   3.996 -0.2409  1.2345  1.6941
  870MOL0     H20018   3.423  10.617   4.279  1.3857 -0.1268 -2.7925
  870MOL0     H20019   3.650  10.519   4.525  0.8054 -0.6418 -1.1041
  870MOL0     H20020   3.488  10.552   4.598 -1.4967 -2.3280  0.1263
  870MOL0     H20021   3.537  10.648   4.457  1.5635 -0.8448 -1.3992
  870MOL0     H20022   3.725  10.097   4.640  1.4899  1.4586 -0.9025
  870MOL0     H20023   3.826  10.006   4.846  1.7010  2.8700  1.3433
  870MOL0     H20024   3.759   9.889   5.091  1.9078 -0.2510 -1.4185
  870MOL0     H20025   3.918   9.958   5.058 -0.2651 -0.0449 -1.7203
  870MOL0     H20026   3.945  10.026   5.288 -1.0581  1.0325  2.3875
  870MOL0     H20027   3.776   9.963   5.333  0.1170 -1.6151 -0.1982
  870MOL0     H20028   4.019   9.818   5.230 -1.9841  3.3338 -3.2587
  870MOL0     H20029   3.858   9.742   5.250  1.0039  1.2961 -4.8761
  870MOL0     H20030   3.837   9.776   5.486  0.4940 -0.5782  0.6712
  870MOL0     H20031   3.995   9.855   5.487  3.0642 -3.3223 -0.6091
  870MOL0     H20032   3.932   9.564   5.413  2.0993 -0.4915  0.2863
  870MOL0     H20033   4.088   9.631   5.420 -1.9745 -3.0580 -2.9606
  870MOL0     H20034   3.911   9.621   5.668  0.0206 -3.8427  0.6280
  870MOL0     H20035   4.081   9.672   5.662  1.7644 -0.6179 -2.1376
  870MOL0     H20036   4.112   9.434   5.554 -2.5780 -2.3496 -1.6406
  870MOL0     H20037   3.964   9.396   5.630  0.0936 -1.5790  1.3966
  870MOL0     H20038   4.214   9.509   5.764  0.7197 -1.4160 -4.9540
  870MOL0     H20039   4.160   9.345   5.757  2.2568  1.2924 -2.4340
  870MOL0     H20040   3.593  10.261   5.091  0.0702  0.1565  0.3519
  870MOL0     H20041   3.511  10.374   4.910 -2.2907 -1.4448 -1.2434
  870MOL0     H20042   3.383  10.132   4.343 -1.7787 -0.0100 -1.4703
  870MOL0     H20043   3.287  10.228   4.148 -2.4318  1.2456  0.7881
  870MOL0     H20044   3.462  10.174   2.967  1.6902  2.9169 -1.2283
  870MOL0     H20045   3.350  10.367   3.064 -0.4392 -0.0882  0.6487
  870MOL0     H20046   2.896  10.617   2.957 -0.1154  1.3880 -0.9485
  870MOL0     H20047   2.789  10.809   3.012 -1.3300  0.9816  2.0689
  870MOL0     H20048   2.726  10.870   3.436  0.2563  1.7921  2.2073
  870MOL0     H20049   2.824  11.009   3.408 -3.0238  1.8501  4.2302
  870MOL0     H20050   2.537  11.049   3.446  1.2034  0.1313  0.7631
  870MOL0     H20051   2.550  11.025   3.275  0.4546  3.0508 -2.1450
  870MOL0     H20052   2.738  11.202   3.260  0.9346  0.1946  1.2552
  870MOL0     H20053   2.555  11.230   3.251 -0.0771 -0.8875 -0.2096
  870MOL0     H20054   2.713  11.394   3.358 -0.3008  1.8048  3.1182
  870MOL0     H20055   2.748  11.273   3.489  0.3787 -2.0965  0.0520
  870MOL0     H20056   2.388  11.407   3.651  0.9027  0.7802  0.2181
  870MOL0     H20057   2.911  10.778   3.434 -0.6677  2.0886 -1.1238
  870MOL0     H20058   3.185  10.557   3.384  2.5925  0.7198  4.2985
  870MOL0     H20059   3.125  10.706   3.453 -1.3331 -0.4637  0.1915
  870MOL0     H20060   3.023  10.556   3.474 -3.5128  3.6928 -0.2000
  871MOL0     O20061   4.343   3.289  10.533  0.5101  0.2991 -0.3255
  871MOL0     C20062   4.221   3.311  10.513  0.0645  0.9390 -0.4597
  871MOL0     O20063   4.141   3.371  10.603  0.2690 -0.4349  0.7551
  871MOL0     C20064   4.185   3.430  10.712 -0.2086 -0.1995 -0.2293
  871MOL0     C20065   4.156   3.374  10.835  0.2227 -0.8488 -0.2736
  871MOL0     C20066   4.190   3.447  10.949 -1.5091  1.0898 -0.3736
  871MOL0     C20067   4.248   3.568  10.937  0.3486  0.2248 -1.0874
  871MOL0     O20068   4.273   3.633  11.053  0.6127  0.1392  0.1117
  871MOL0     C20069   4.402   3.635  11.124  0.2176  0.5057 -0.0093
  871MOL0     C20070   4.397   3.724  11.249 -0.8683  0.2529  0.9181
  871MOL0     C20071   4.338   3.856  11.218  0.1891  0.5620 -0.1261
  871MOL0     C20072   4.420   3.950  11.135  0.0144  0.0639 -0.1371
  871MOL0     C20073   4.571   3.949  11.164 -1.1464  0.2115 -0.0861
  871MOL0     C20074   4.638   4.065  11.098  0.4155 -0.1680 -0.4559
  871MOL0     C20075   4.616   4.078  10.944 -0.3144 -0.2457 -0.9917
  871MOL0     C20076   4.704   3.980  10.873 -1.0172 -0.2120 -0.3945
  871MOL0     N20077   4.672   3.968  10.731  0.2313 -0.7467  0.2958
  871MOL0     C20078   4.681   4.072  10.643  0.1169  0.2663 -0.4447
  871MOL0     C20079   4.637   4.020  10.529  1.1089 -0.3149  0.5900
  871MOL0     C20080   4.608   4.084  10.393 -0.2859 -0.7569 -0.4840
  871MOL0     C20081   4.748   4.120  10.346  0.2974  1.1446  0.5103
  871MOL0     C20082   4.788   4.030  10.227  0.7697 -0.1894  0.0764
  871MOL0     C20083   4.817   3.884  10.261 -0.2940 -1.4160 -0.3169
  871MOL0     O20084   4.941   3.886  10.322  0.2254  0.3797 -0.4224
  871MOL0     C20085   4.980   3.765  10.380  0.5957 -0.2814 -0.9409
  871MOL0     C20086   5.082   3.761  10.473 -0.1041  0.9606 -0.2933
  871MOL0     C20087   5.135   3.650  10.536  0.4189 -0.2045  0.2724
  871MOL0     C20088   5.246   3.663  10.637 -0.5198 -0.9343  0.1183
  871MOL0     C20089   5.071   3.523  10.517 -0.3170 -0.0767  0.7780
  871MOL0     C20090   5.108   3.399  10.591 -0.3730 -0.2455  0.9723
  871MOL0     O20091   5.202   3.409  10.688  0.0735  0.2211 -0.0107
  871MOL0     C20092   5.232   3.305  10.770  0.0896  0.9914 -0.2516
  871MOL0     C20093   5.221   3.325  10.913 -0.8693  0.9979 -0.1064
  871MOL0     C20094   5.247   3.221  11.005 -0.1621  0.0216 -0.1117
  871MOL0     C20095   5.306   3.098  10.959 -0.0301  1.2962  0.4424
  871MOL0     O20096   5.336   2.986  11.033 -0.5864  0.5840  0.1647
  871MOL0     C20097   5.308   3.000  11.171  0.0031 -0.1041  0.2028
  871MOL0     C20098   5.340   2.861  11.245 -0.2611 -0.3891 -0.7038
  871MOL0     C20099   5.241   2.849  11.367 -0.0246 -0.8081  0.4031
  871MOL0     C20100   5.290   2.888  11.510  0.1296  0.4175  1.2587
  871MOL0     C20101   5.332   3.032  11.524 -0.2768 -0.1770 -0.3382
  871MOL0     C20102   5.218   3.134  11.481  0.7578  0.1163  0.4046
  871MOL0     C20103   5.275   3.277  11.469  0.1340  0.0461 -0.1914
  871MOL0     C20104   5.172   3.387  11.423  0.3358  0.4690  0.1295
  871MOL0    Cl20105   5.042   3.432  11.538 -0.3115 -0.3256  0.1196
  871MOL0     C20106   5.312   3.075  10.816  0.3354  0.1832 -0.9118
  871MOL0     C20107   5.272   3.170  10.724  0.8402 -0.0474 -0.7701
  871MOL0     O20108   5.050   3.294  10.560 -0.9725  0.4106 -0.5055
  871MOL0     C20109   4.975   3.523  10.411  0.4069 -0.1667  0.1978
  871MOL0     C20110   4.933   3.635  10.343 -1.0484 -0.0551 -0.3159
  871MOL0     N20111   4.589   3.895  10.550 -0.5918 -0.8700  0.2611
  871MOL0     N20112   4.619   3.863  10.668 -0.4812  0.2157  0.0093
  871MOL0     C20113   4.289   3.625  10.822 -0.4402  0.0196 -0.0130
  871MOL0     C20114   4.252   3.549  10.708  0.4967 -0.9887  0.4038
  871MOL0     C20115   4.158   3.274  10.388  0.0688 -0.1439  0.0446
  871MOL0     C20116   4.050   3.352  10.354  0.8676  1.0244 -0.0886
  871MOL0     C20117   3.971   3.326  10.243  0.0616 -0.4174  0.5468
  871MOL0     C20118   3.994   3.219  10.162  0.6586 -0.4634  0.4679
  871MOL0     O20119   3.928   3.172  10.055  0.1770 -0.6179  0.6899
  871MOL0     C20120   3.844   3.278   9.995  0.7433 -1.3785 -0.4739
  871MOL0     C20121   3.790   3.216   9.865  0.3427 -0.4737  0.0140
  871MOL0     C20122   3.739   3.317   9.763  0.6668  0.8006  0.0065
  871MOL0     C20123   3.703   3.247   9.636  0.1181  0.3334  0.1734
  871MOL0     C20124   3.568   3.279   9.586  1.5687 -0.7847 -0.5668
  871MOL0     C20125   3.453   3.262   9.549 -0.0129  0.1702 -1.2094
  871MOL0     C20126   4.104   3.145  10.195 -0.0138  0.2090 -0.3216
  871MOL0     C20127   4.183   3.159  10.305  0.8482  0.0744  0.3138
  871MOL0     C20128   4.312   3.081  10.317 -0.0934  0.3111  0.9228
  871MOL0     H20129   4.109   3.277  10.829  1.5850 -1.5320 -0.3238
  871MOL0     H20130   4.169   3.413  11.050 -2.8373  0.0717 -0.9547
  871MOL0     H20131   4.470   3.687  11.057 -0.1347  1.2753  0.2248
  871MOL0     H20132   4.442   3.540  11.163  0.3255  1.5864  2.7475
  871MOL0     H20133   4.336   3.678  11.327  1.4891  0.6938  3.1630
  871MOL0     H20134   4.497   3.731  11.292  1.2698 -1.5764 -3.2534
  871MOL0     H20135   4.240   3.847  11.169  1.1494 -0.9762 -1.8946
  871MOL0     H20136   4.315   3.896  11.317 -1.9515  1.5399 -0.9440
  871MOL0     H20137   4.409   3.906  11.036  0.8435 -1.5979  0.4633
  871MOL0     H20138   4.377   4.051  11.136 -0.0787  0.0436 -1.1559
  871MOL0     H20139   4.616   3.860  11.118 -2.0559  0.1057 -0.7948
  871MOL0     H20140   4.582   3.950  11.273  0.9357  1.9932 -0.2374
  871MOL0     H20141   4.607   4.159  11.144 -0.4316  0.7765 -2.8141
  871MOL0     H20142   4.745   4.057  11.120  0.1714  0.9152  1.3091
  871MOL0     H20143   4.642   4.183  10.929 -3.1720  1.0822  2.1550
  871MOL0     H20144   4.512   4.068  10.910 -0.5270 -1.0826 -0.1208
  871MOL0     H20145   4.811   3.995  10.888 -0.5017  0.3484 -3.7243
  871MOL0     H20146   4.686   3.874  10.896  0.4280 -1.2934 -3.5645
  871MOL0     H20147   4.718   4.173  10.659 -0.8022  0.5744 -0.2039
  871MOL0     H20148   4.549   4.175  10.391  0.5628 -0.2036 -1.2665
  871MOL0     H20149   4.557   4.013  10.327 -0.3798 -0.4527 -0.7376
  871MOL0     H20150   4.754   4.220  10.303  0.2663  0.0688 -2.2034
  871MOL0     H20151   4.824   4.123  10.425 -0.6651  1.2160  1.4663
  871MOL0     H20152   4.712   4.047  10.150  0.3644 -4.5674 -0.7707
  871MOL0     H20153   4.882   4.074  10.192  0.3632  1.8139  1.3585
  871MOL0     H20154   4.739   3.841  10.324 -0.8605 -1.3434 -0.9613
  871MOL0     H20155   4.830   3.831  10.167  0.8348 -1.7880  0.0337
  871MOL0     H20156   5.134   3.852  10.504  1.9486 -0.8899  2.1349
  871MOL0     H20157   5.286   3.763  10.654  0.7079 -1.1820 -1.0950
  871MOL0     H20158   5.337   3.605  10.616  0.0214  0.4941 -1.6907
  871MOL0     H20159   5.219   3.642  10.741  0.3341  1.3376  0.8467
  871MOL0     H20160   5.189   3.415  10.964  0.2685 -0.4160  3.3964
  871MOL0     H20161   5.236   3.261  11.105 -0.4133  4.3241 -1.6757
  871MOL0     H20162   5.374   3.075  11.216  0.3301 -0.4886  0.3673
  871MOL0     H20163   5.201   3.021  11.175  0.4901  3.7139 -2.0311
  871MOL0     H20164   5.321   2.774  11.183  0.3023 -1.4875  0.6077
  871MOL0     H20165   5.446   2.865  11.274 -0.7249  0.7867  1.0523
  871MOL0     H20166   5.209   2.745  11.370 -3.6818  0.1409 -0.5353
  871MOL0     H20167   5.153   2.908  11.341  0.2684  0.3829  1.8929
  871MOL0     H20168   5.376   2.825  11.535  0.5545 -0.2451 -1.5199
  871MOL0     H20169   5.209   2.860  11.577 -0.9239 -2.2832 -0.9464
  871MOL0     H20170   5.359   3.070  11.623 -1.2642  4.8114 -1.7030
  871MOL0     H20171   5.414   3.054  11.456 -1.7901 -2.3650 -3.0637
  871MOL0     H20172   5.143   3.131  11.560  0.0402 -1.3957 -0.2971
  871MOL0     H20173   5.164   3.107  11.390 -1.9306  3.9124  0.6302
  871MOL0     H20174   5.345   3.265  11.385  0.2925  1.5459 -0.2974
  871MOL0     H20175   5.326   3.311  11.559 -1.4160 -1.1855  1.2263
  871MOL0     H20176   5.139   3.345  11.327 -0.3403 -1.8097  1.2733
  871MOL0     H20177   5.215   3.486  11.405  2.8664 -0.2868  1.5403
  871MOL0     H20178   5.336   2.977  10.777 -2.6801  0.5098 -4.0767
  871MOL0     H20179   5.261   3.139  10.621  1.1971 -0.7090 -0.6125
  871MOL0     H20180   4.921   3.431  10.393 -3.2041  1.7371  0.2707
  871MOL0     H20181   4.852   3.632  10.271  0.4107 -1.2502 -1.9967
  871MOL0     H20182   4.341   3.720  10.814  0.3398 -0.2982  1.0726
  871MOL0     H20183   4.293   3.594  10.618 -1.4648 -2.1062 -1.1337
  871MOL0     H20184   4.011   3.436  10.411  1.5088  1.0709  0.2903
  871MOL0     H20185   3.880   3.382  10.220  0.9088  0.8131  0.1004
  871MOL0     H20186   3.757   3.289  10.061 -0.2777 -2.6157 -1.5533
  871MOL0     H20187   3.904   3.369   9.983 -1.4093 -0.0110 -1.3734
  871MOL0     H20188   3.708   3.151   9.899 -0.6433  0.0475 -1.2801
  871MOL0     H20189   3.869   3.154   9.822 -1.0897 -1.7546 -0.8795
  871MOL0     H20190   3.650   3.362   9.808 -1.1421 -1.9859 -0.5272
  871MOL0     H20191   3.795   3.408   9.738 -2.7629  2.8846 -0.7656
  871MOL0     H20192   3.706   3.139   9.653 -0.0217  0.6152  2.3603
  871MOL0     H20193   3.779   3.270   9.561  0.3622 -0.2763  0.2276
  871MOL0     H20194   3.362   3.228   9.504 -0.9533 -4.0524  3.0412
  871MOL0     H20195   4.111   3.064  10.123  1.5225  0.7325 -0.8142
  871MOL0     H20196   4.330   3.014  10.402 -0.2269 -0.5984  0.2567
  871MOL0     H20197   4.303   3.008  10.236 -0.9388  0.9837  0.4059
  871MOL0     H20198   4.397   3.147  10.300  3.6239 -3.2617  3.5674
  872MOL0     O20199   9.158   4.659  10.430 -0.5204  0.2051 -0.2407
  872MOL0     C20200   9.231   4.754  10.445 -0.1233 -0.2673 -0.3533
  872MOL0     O20201   9.260   4.809  10.569 -1.1134 -0.1769  0.1223
  872MOL0     C20202   9.231   4.734  10.679  0.2460  0.1596 -0.3338
  872MOL0     C20203   9.161   4.805  10.768 -0.1977 -0.7669  0.2340
  872MOL0     C20204   9.129   4.747  10.893 -0.6657 -0.3858 -1.1908
  872MOL0     C20205   9.184   4.624  10.933 -0.3757  0.0516  0.6767
  872MOL0     O20206   9.158   4.567  11.061 -0.2158 -0.3859  0.0565
  872MOL0     C20207   9.079   4.633  11.159 -0.5800 -0.5890 -0.4917
  872MOL0     C20208   9.082   4.537  11.272 -0.6153  0.3833  0.6802
  872MOL0     C20209   8.967   4.436  11.275  0.4748 -1.0908  1.0220
  872MOL0     C20210   8.993   4.332  11.373 -0.3010  0.3021  0.7322
  872MOL0     C20211   8.864   4.252  11.417 -1.1012 -0.2384  0.1916
  872MOL0     C20212   8.900   4.121  11.495  0.2725 -1.0025  0.1430
  872MOL0     C20213   8.926   3.994  11.403 -0.3792 -0.2190 -1.4515
  872MOL0     C20214   8.937   3.870  11.488 -0.5272 -0.8427  0.3792
  872MOL0     N20215   8.840   3.765  11.453  0.2359  0.0679 -0.2482
  872MOL0     C20216   8.842   3.667  11.358  0.2940  0.7382 -0.5690
  872MOL0     C20217   8.734   3.588  11.379  0.6941 -0.5376 -0.0073
  872MOL0     C20218   8.686   3.463  11.308  0.1178  0.4517  0.9516
  872MOL0     C20219   8.665   3.455  11.154  0.6759 -0.6511  0.5346
  872MOL0     C20220   8.627   3.316  11.105 -0.7623 -0.1194  0.1225
  872MOL0     C20221   8.585   3.318  10.957  0.0902  0.1766  0.0374
  872MOL0     O20222   8.573   3.181  10.909 -0.1093  0.1961 -0.0499
  872MOL0     C20223   8.460   3.110  10.938 -0.4311  0.2395  0.5313
  872MOL0     C20224   8.450   2.978  10.888 -0.6229  0.0249  0.8665
  872MOL0     C20225   8.331   2.902  10.892  0.3037 -0.7821 -0.0959
  872MOL0     C20226   8.321   2.779  10.816  0.1474 -0.6065  0.2339
  872MOL0     C20227   8.214   2.963  10.955 -0.7863 -0.6335 -0.4541
  872MOL0     C20228   8.089   2.888  10.971  0.8239 -0.0705 -0.0216
  872MOL0     O20229   7.965   2.953  10.949 -0.6805 -0.2062 -0.0229
  872MOL0     C20230   7.840   2.900  10.985 -0.1842 -0.7166  0.8273
  872MOL0     C20231   7.823   2.844  11.110  0.0339  0.7747  0.6422
  872MOL0     C20232   7.700   2.793  11.153  0.8185 -0.3160  0.2136
  872MOL0     C20233   7.590   2.812  11.069 -0.6003 -0.3541 -0.3016
  872MOL0     O20234   7.462   2.789  11.094 -0.3714 -0.2350 -1.4365
  872MOL0     C20235   7.367   2.880  11.146 -0.3565 -0.4764 -0.1612
  872MOL0     C20236   7.377   2.874  11.295  0.1552  0.3566  0.6507
  872MOL0     C20237   7.345   2.734  11.353  0.9824  1.0091 -0.9563
  872MOL0     C20238   7.197   2.721  11.419 -0.5339  0.0550  0.5147
  872MOL0     C20239   7.087   2.762  11.308 -0.4762 -0.6198 -0.9375
  872MOL0     C20240   6.956   2.719  11.347 -0.5012 -0.0122  0.3469
  872MOL0     C20241   6.923   2.759  11.495  0.6933 -0.2640 -0.9711
  872MOL0     C20242   6.772   2.770  11.490  0.1437 -0.1668 -0.2718
  872MOL0    Cl20243   6.694   2.616  11.456  0.4063  0.3624  0.2166
  872MOL0     C20244   7.608   2.875  10.944 -0.8500  0.8454 -0.1256
  872MOL0     C20245   7.729   2.926  10.903 -0.5037 -0.1772 -0.2459
  872MOL0     O20246   8.100   2.774  11.017 -0.0958 -0.3300 -0.4644
  872MOL0     C20247   8.220   3.094  11.004 -1.1717  0.2860  0.9478
  872MOL0     C20248   8.339   3.170  10.984 -1.1099  0.5099  0.4769
  872MOL0     N20249   8.655   3.656  11.473 -0.1255  0.2220  0.5752
  872MOL0     N20250   8.719   3.757  11.516 -1.0772 -0.1983 -0.4018
  872MOL0     C20251   9.264   4.558  10.835 -0.4099  0.4548 -0.6522
  872MOL0     C20252   9.277   4.603  10.701  0.1968  0.5246  0.3102
  872MOL0     C20253   9.290   4.820  10.325  0.1396 -0.9883  0.2636
  872MOL0     C20254   9.388   4.919  10.343 -0.4121 -1.0023  0.0979
  872MOL0     C20255   9.449   4.980  10.229 -0.4343  0.8284  0.0593
  872MOL0     C20256   9.414   4.951  10.098 -0.0053  0.1641 -0.9031
  872MOL0     O20257   9.479   5.002   9.993 -0.0048 -0.6363 -0.0752
  872MOL0     C20258   9.415   5.033   9.872 -0.0412 -0.4619 -0.1213
  872MOL0     C20259   9.413   5.184   9.882  0.3401 -0.2222  0.4241
  872MOL0     C20260   9.352   5.261   9.761 -0.7430  0.0646 -0.0381
  872MOL0     C20261   9.356   5.416   9.793  0.6286  0.8600 -0.1956
  872MOL0     C20262   9.495   5.470   9.778  0.7629 -0.4123  0.1349
  872MOL0     C20263   9.612   5.505   9.780  0.6294 -0.4137  0.2759
  872MOL0     C20264   9.307   4.856  10.084 -0.2308  0.1212  0.2941
  872MOL0     C20265   9.245   4.792  10.189 -0.1242 -0.0990  0.3935
  872MOL0     C20266   9.138   4.695  10.144 -0.2228 -0.2491 -1.0562
  872MOL0     H20267   9.129   4.898  10.722 -2.3136 -2.1932 -1.3773
  872MOL0     H20268   9.066   4.798  10.965 -0.0655  1.1481 -1.7305
  872MOL0     H20269   8.978   4.661  11.127 -0.6793  1.2815  1.2882
  872MOL0     H20270   9.137   4.721  11.189 -0.9031 -0.3311 -0.6178
  872MOL0     H20271   9.182   4.493  11.273 -1.6051 -2.0123 -0.1316
  872MOL0     H20272   9.061   4.603  11.358  0.1263  0.4509  0.8209
  872MOL0     H20273   8.876   4.496  11.290  0.6492  0.2516 -2.4213
  872MOL0     H20274   8.952   4.391  11.177  1.3458 -1.8112  1.2141
  872MOL0     H20275   9.064   4.269  11.318 -1.2077 -0.2509  0.1658
  872MOL0     H20276   9.036   4.382  11.461 -3.5211  1.8168  1.6124
  872MOL0     H20277   8.805   4.220  11.331 -2.2359 -0.0294  0.8714
  872MOL0     H20278   8.805   4.318  11.481  0.4809  1.6630 -0.2093
  872MOL0     H20279   8.984   4.146  11.561  0.7422  1.4080 -1.2476
  872MOL0     H20280   8.811   4.103  11.556 -0.1847  1.6226  0.3753
  872MOL0     H20281   9.014   4.006  11.338 -0.1089 -1.4462 -1.3452
  872MOL0     H20282   8.837   3.987  11.339 -2.8535  0.9648  1.6157
  872MOL0     H20283   9.038   3.835  11.464 -0.4057  1.6638 -3.8267
  872MOL0     H20284   8.937   3.900  11.593  1.2753 -0.5344  0.3202
  872MOL0     H20285   8.919   3.648  11.283  0.1723  2.4626 -1.1694
  872MOL0     H20286   8.592   3.433  11.354 -0.1196 -0.2176  0.0737
  872MOL0     H20287   8.749   3.384  11.349 -0.1404  1.1792  2.8644
  872MOL0     H20288   8.588   3.527  11.126  0.5594 -0.4285  1.4156
  872MOL0     H20289   8.755   3.493  11.104  0.4138 -0.9443 -0.1814
  872MOL0     H20290   8.708   3.246  11.123 -1.4220 -0.7730  0.6199
  872MOL0     H20291   8.541   3.266  11.151 -3.1013  2.4015 -1.1973
  872MOL0     H20292   8.493   3.371  10.928 -2.2519 -4.0195 -1.1247
  872MOL0     H20293   8.662   3.370  10.900  0.1629 -0.6326 -0.6108
  872MOL0     H20294   8.540   2.933  10.847 -2.0824 -0.3843 -2.1401
  872MOL0     H20295   8.282   2.703  10.884 -0.8808  1.4368  2.0781
  872MOL0     H20296   8.420   2.761  10.774 -0.1954  0.9268 -1.3804
  872MOL0     H20297   8.249   2.789  10.734  0.7742 -5.1051 -1.1088
  872MOL0     H20298   7.905   2.835  11.180 -0.0826  0.9131  0.7969
  872MOL0     H20299   7.676   2.768  11.256 -0.8036  0.0858 -0.0408
  872MOL0     H20300   7.380   2.984  11.115  1.5405 -0.8653 -0.8671
  872MOL0     H20301   7.269   2.861  11.101  0.4786 -0.8363 -1.9388
  872MOL0     H20302   7.482   2.894  11.314  0.8864  0.0578 -2.4883
  872MOL0     H20303   7.324   2.957  11.343  1.0750  1.7194 -0.5954
  872MOL0     H20304   7.420   2.694  11.422  1.3320  1.8858 -0.8073
  872MOL0     H20305   7.353   2.660  11.274 -2.7029 -3.9343  2.6452
  872MOL0     H20306   7.205   2.775  11.514  1.8589  1.0659 -0.1916
  872MOL0     H20307   7.198   2.613  11.436  1.6446 -0.5533 -2.6511
  872MOL0     H20308   7.091   2.871  11.293 -1.5995 -0.6156 -1.3208
  872MOL0     H20309   7.107   2.707  11.216  3.8164 -0.4643 -0.3216
  872MOL0     H20310   6.953   2.611  11.329 -5.3944 -0.1589  0.6320
  872MOL0     H20311   6.887   2.771  11.280  1.3863  0.3213 -1.4506
  872MOL0     H20312   6.960   2.858  11.523 -0.3162 -0.1277 -0.0723
  872MOL0     H20313   6.930   2.686  11.575 -2.8822 -0.5699 -0.7694
  872MOL0     H20314   6.754   2.855  11.424  0.9451 -0.1865 -0.5259
  872MOL0     H20315   6.738   2.794  11.592  0.4350 -2.4962  0.4411
  872MOL0     H20316   7.518   2.873  10.883 -1.4654  2.5963  0.6713
  872MOL0     H20317   7.751   2.971  10.807  2.5416 -1.2457 -0.1421
  872MOL0     H20318   8.141   3.147  11.056 -2.9174 -1.2950 -0.0013
  872MOL0     H20319   8.337   3.275  11.009  0.4652  2.0621 -4.6780
  872MOL0     H20320   9.295   4.457  10.861  1.9195  1.1478 -0.5288
  872MOL0     H20321   9.322   4.551  10.617 -2.2698 -0.6947 -0.3464
  872MOL0     H20322   9.428   4.941  10.442 -2.2550  1.2718  0.4178
  872MOL0     H20323   9.532   5.048  10.242 -0.8178  1.0801  1.3188
  872MOL0     H20324   9.483   5.004   9.792 -1.8703 -6.1615 -0.0617
  872MOL0     H20325   9.318   4.987   9.851  0.5523 -1.8254  0.0491
  872MOL0     H20326   9.518   5.209   9.900  0.1165  0.5685  0.6934
  872MOL0     H20327   9.349   5.218   9.964  1.5300  2.7222  0.2436
  872MOL0     H20328   9.399   5.250   9.663 -0.9213  2.8678 -0.5191
  872MOL0     H20329   9.250   5.223   9.750 -0.2706 -1.0408 -0.8386
  872MOL0     H20330   9.335   5.450   9.895  0.4416  2.1603 -0.6486
  872MOL0     H20331   9.283   5.476   9.738  2.7044  3.2693 -0.5217
  872MOL0     H20332   9.716   5.532   9.777  0.5203 -0.0421 -0.2401
  872MOL0     H20333   9.296   4.816   9.984 -0.6613  0.5555  0.1613
  872MOL0     H20334   9.165   4.592  10.169  0.5455 -1.2486 -5.3559
  872MOL0     H20335   9.042   4.718  10.191  0.5988 -1.9013  1.6615
  872MOL0     H20336   9.119   4.693  10.037  1.7485 -1.3568 -1.4300
  873MOL0     O20337  10.511   6.918   3.510 -0.1168  0.4213  0.3557
  873MOL0     C20338  10.447   6.858   3.602  0.3773 -0.6352  0.8103
  873MOL0     O20339  10.432   6.724   3.612 -0.7745  0.5753 -0.6329
  873MOL0     C20340  10.456   6.660   3.488  0.0894  0.9514 -0.2683
  873MOL0     C20341  10.397   6.707   3.364  0.7160  0.4336 -0.0855
  873MOL0     C20342  10.415   6.643   3.239 -0.1570 -0.5118  0.5628
  873MOL0     C20343  10.509   6.535   3.228  0.0573 -0.1976  1.0940
  873MOL0     O20344  10.539   6.474   3.109 -0.2104  0.7174 -0.6360
  873MOL0     C20345  10.502   6.525   2.979  0.0079  0.4638 -0.5885
  873MOL0     C20346  10.543   6.419   2.874  0.1010 -0.0971  0.0251
  873MOL0     C20347  10.461   6.294   2.895 -0.8077  0.7763  0.4278
  873MOL0     C20348  10.439   6.220   2.759  0.5297 -0.1495 -0.9547
  873MOL0     C20349  10.315   6.267   2.676 -0.3399  0.5382  0.7274
  873MOL0     C20350  10.179   6.257   2.746  0.5457  0.2459 -0.5841
  873MOL0     C20351  10.058   6.263   2.652 -0.3445  0.2538  0.6259
  873MOL0     C20352  10.057   6.389   2.560  0.1308  0.1970 -0.0334
  873MOL0     N20353  10.070   6.514   2.635  0.1668 -0.9391 -0.5402
  873MOL0     C20354  10.172   6.605   2.623 -0.6043  0.5123  0.1396
  873MOL0     C20355  10.151   6.706   2.716 -0.2051 -0.5008  0.2347
  873MOL0     C20356  10.236   6.832   2.724 -0.5742  0.3666  0.2473
  873MOL0     C20357  10.228   6.934   2.603  0.4454 -0.2935  0.8877
  873MOL0     C20358  10.092   7.012   2.622  0.2140 -0.2975 -0.2822
  873MOL0     C20359  10.110   7.158   2.557 -0.9384  0.2313  0.6488
  873MOL0     O20360  10.130   7.151   2.420  0.3653  0.0666  0.6602
  873MOL0     C20361  10.025   7.133   2.346  0.3508  0.1563  1.0489
  873MOL0     C20362   9.929   7.232   2.307  0.1758  0.2899 -0.9019
  873MOL0     C20363   9.818   7.206   2.229  0.1373 -0.2638  0.7866
  873MOL0     C20364   9.722   7.319   2.210  0.1818  0.1582 -0.2189
  873MOL0     C20365   9.805   7.084   2.167 -0.3106 -0.8346  0.2591
  873MOL0     C20366   9.693   7.029   2.086 -0.0622 -1.5382  0.3879
  873MOL0     O20367   9.567   7.046   2.143  0.6246  0.6859 -0.8821
  873MOL0     C20368   9.459   7.011   2.060  0.1761  0.2829  0.1275
  873MOL0     C20369   9.352   6.952   2.119 -0.2028 -0.4637  0.3800
  873MOL0     C20370   9.227   6.924   2.052 -0.6370 -0.2752 -0.3558
  873MOL0     C20371   9.209   6.982   1.926 -1.0328 -1.7071  0.0300
  873MOL0     O20372   9.090   6.987   1.864 -0.1184  0.1568 -1.0597
  873MOL0     C20373   9.089   6.924   1.735 -0.4787  0.3189  0.3587
  873MOL0     C20374   8.995   6.803   1.735 -0.5272  0.2246 -0.5797
  873MOL0     C20375   8.843   6.825   1.718 -0.7943  0.4158  0.6327
  873MOL0     C20376   8.821   6.868   1.577  0.3961 -0.6524 -0.4804
  873MOL0     C20377   8.669   6.900   1.562  1.5203 -0.2220  0.2550
  873MOL0     C20378   8.643   6.919   1.411  1.1414 -0.9120  0.6122
  873MOL0     C20379   8.497   6.942   1.392  0.3586 -0.0312  0.5812
  873MOL0     C20380   8.471   6.990   1.250  0.3637 -0.3401  0.8729
  873MOL0    Cl20381   8.488   6.852   1.137 -0.4084  0.1607  0.0008
  873MOL0     C20382   9.318   7.060   1.865  0.1340  0.6555  1.1440
  873MOL0     C20383   9.440   7.056   1.927  0.7617  0.5095  0.9390
  873MOL0     O20384   9.719   6.965   1.986  0.2455 -0.3451 -0.5298
  873MOL0     C20385   9.913   6.990   2.193  0.0754 -0.6215  0.2689
  873MOL0     C20386  10.017   7.007   2.279 -0.2993 -0.8444  0.0492
  873MOL0     N20387  10.031   6.674   2.779  1.3436  0.4353  0.3210
  873MOL0     N20388   9.991   6.555   2.733 -0.2751 -0.1760  1.0509
  873MOL0     C20389  10.564   6.481   3.349 -0.3075 -0.0566 -0.1547
  873MOL0     C20390  10.536   6.541   3.479 -0.1601  0.0490  0.7944
  873MOL0     C20391  10.406   6.944   3.712  0.1677 -0.3927  0.5798
  873MOL0     C20392  10.266   6.964   3.724 -0.3612  0.0865 -0.9284
  873MOL0     C20393  10.217   7.055   3.816 -0.2374  0.4658  0.2865
  873MOL0     C20394  10.303   7.130   3.892 -0.4420 -0.1829  0.4931
  873MOL0     O20395  10.248   7.210   3.987 -0.2939 -1.2159  0.9697
  873MOL0     C20396  10.191   7.328   3.928 -0.4104 -0.1127  0.1473
  873MOL0     C20397  10.035   7.329   3.925  0.1665 -0.3911 -0.7530
  873MOL0     C20398   9.982   7.472   3.920 -0.1209 -0.0954  0.1876
  873MOL0     C20399  10.044   7.574   3.823 -0.2374  0.1875  1.2508
  873MOL0     C20400  10.029   7.519   3.679 -0.7043  0.1020 -0.8457
  873MOL0     C20401  10.028   7.465   3.573  0.0883 -0.3145  0.5202
  873MOL0     C20402  10.440   7.119   3.881  0.5338 -0.4138  0.4268
  873MOL0     C20403  10.495   7.026   3.795 -0.0086 -0.1817  0.8423
  873MOL0     C20404  10.638   6.994   3.796  0.8216  0.2526 -0.3118
  873MOL0     H20405  10.315   6.778   3.372 -1.8635 -2.3484  0.1984
  873MOL0     H20406  10.354   6.678   3.157  1.7027  0.0440 -0.6626
  873MOL0     H20407  10.542   6.624   2.953  1.5103 -0.2009 -0.8790
  873MOL0     H20408  10.394   6.540   2.967 -0.3077 -0.7454  0.5507
  873MOL0     H20409  10.517   6.466   2.779  0.8593  2.7446  1.1267
  873MOL0     H20410  10.651   6.399   2.877 -0.1821 -1.7591  2.2868
  873MOL0     H20411  10.514   6.238   2.973 -0.5312  1.6253  0.8577
  873MOL0     H20412  10.361   6.316   2.934 -2.8786 -2.2625 -2.5894
  873MOL0     H20413  10.523   6.232   2.689 -0.8433 -2.4517 -3.1650
  873MOL0     H20414  10.445   6.111   2.766  5.6493 -0.2023 -1.9327
  873MOL0     H20415  10.313   6.214   2.580 -2.6013 -0.4315  1.2421
  873MOL0     H20416  10.337   6.374   2.667 -1.8569  0.9300  1.3734
  873MOL0     H20417  10.176   6.160   2.796  0.3164  0.1670 -0.7497
  873MOL0     H20418  10.181   6.334   2.825  2.6877  3.1250 -3.1877
  873MOL0     H20419   9.967   6.262   2.712 -0.7361  0.5565  0.0533
  873MOL0     H20420  10.056   6.168   2.598 -2.6229  1.5706 -1.8775
  873MOL0     H20421  10.122   6.392   2.472 -1.9478 -0.2500 -1.6322
  873MOL0     H20422   9.955   6.391   2.522 -0.8915  0.2728  2.5247
  873MOL0     H20423  10.259   6.603   2.558 -1.4445 -3.5266 -1.1038
  873MOL0     H20424  10.341   6.802   2.735 -1.1694 -3.2204 -2.1004
  873MOL0     H20425  10.204   6.880   2.817 -0.6636 -1.4048  1.1745
  873MOL0     H20426  10.318   6.995   2.599  0.0205  0.2771 -0.6088
  873MOL0     H20427  10.212   6.886   2.506 -3.5977  1.1633  0.6122
  873MOL0     H20428  10.008   6.952   2.585 -1.1895  0.3133  1.7330
  873MOL0     H20429  10.083   7.030   2.729  2.8706 -2.3703  0.4078
  873MOL0     H20430  10.017   7.211   2.580 -0.0198  1.4359  1.7575
  873MOL0     H20431  10.201   7.203   2.597  0.8308 -2.5313  0.0430
  873MOL0     H20432   9.945   7.329   2.352 -0.1482 -1.0194  2.2844
  873MOL0     H20433   9.759   7.373   2.122  0.5577  0.3293  0.0435
  873MOL0     H20434   9.720   7.389   2.293  0.4160  0.4565 -0.4634
  873MOL0     H20435   9.618   7.286   2.195  0.2986  1.0647 -4.5734
  873MOL0     H20436   9.352   6.921   2.223  0.5424  2.5409  1.3626
  873MOL0     H20437   9.147   6.870   2.101  0.6582 -4.1854 -2.1505
  873MOL0     H20438   9.064   6.994   1.655  0.5035 -0.0099 -0.2668
  873MOL0     H20439   9.192   6.887   1.727  0.2911  2.5140 -0.7438
  873MOL0     H20440   9.033   6.745   1.651 -1.4179 -2.0448  0.4922
  873MOL0     H20441   9.012   6.751   1.830  0.9190  3.0653  0.8744
  873MOL0     H20442   8.819   6.910   1.783 -1.6401  0.5637  0.1413
  873MOL0     H20443   8.789   6.736   1.750 -0.4966  1.1029  3.3523
  873MOL0     H20444   8.860   6.787   1.515  3.9808  0.7768 -0.3188
  873MOL0     H20445   8.882   6.957   1.558  1.6385 -1.5439 -0.7188
  873MOL0     H20446   8.613   6.822   1.613 -0.6752  0.0470 -1.5857
  873MOL0     H20447   8.651   6.996   1.611 -3.1630 -0.5994 -0.2578
  873MOL0     H20448   8.681   6.833   1.356  1.6662  1.1080 -2.4510
  873MOL0     H20449   8.701   7.006   1.379 -0.0536 -0.6672 -0.9897
  873MOL0     H20450   8.461   7.009   1.470 -0.4620 -0.5794  0.6848
  873MOL0     H20451   8.441   6.848   1.404 -4.0915  2.2254 -0.1300
  873MOL0     H20452   8.546   7.062   1.217  3.7250 -3.1735  1.8114
  873MOL0     H20453   8.367   7.024   1.238 -0.1771  0.6994  6.1973
  873MOL0     H20454   9.290   7.101   1.769 -0.5751 -1.4762  0.3902
  873MOL0     H20455   9.523   7.103   1.874 -0.2269  0.9057 -0.3220
  873MOL0     H20456   9.908   6.896   2.138  1.6328 -0.0318 -0.9448
  873MOL0     H20457  10.090   6.930   2.300  2.1757  1.1828 -0.6179
  873MOL0     H20458  10.645   6.410   3.333 -0.2948  0.5120 -3.4377
  873MOL0     H20459  10.575   6.486   3.564 -0.0668  1.6116  1.8095
  873MOL0     H20460  10.193   6.905   3.670 -0.4102 -0.0672 -0.6979
  873MOL0     H20461  10.108   7.054   3.815 -0.3044 -3.0203 -0.7025
  873MOL0     H20462  10.227   7.413   3.987  1.7419 -2.4594  2.5178
  873MOL0     H20463  10.222   7.346   3.825  1.0327  1.8783  0.8774
  873MOL0     H20464   9.993   7.294   4.020  1.5574 -1.1858 -0.4104
  873MOL0     H20465   9.971   7.265   3.864 -5.4921 -0.0591  3.9394
  873MOL0     H20466   9.874   7.475   3.904 -0.0803 -0.5436 -0.2037
  873MOL0     H20467   9.982   7.508   4.023  2.4327 -1.2795  0.6849
  873MOL0     H20468  10.151   7.593   3.833  0.8552 -2.1054 -3.4898
  873MOL0     H20469  10.002   7.675   3.833 -0.4080  0.5268 -1.8542
  873MOL0     H20470  10.036   7.415   3.479  0.6349  3.5283 -1.6710
  873MOL0     H20471  10.502   7.172   3.952 -1.0041 -0.0974  1.5758
  873MOL0     H20472  10.668   6.961   3.696  0.0943 -3.1143  0.4667
  873MOL0     H20473  10.687   7.086   3.832 -1.1203  0.9874  0.5802
  873MOL0     H20474  10.654   6.911   3.865 -0.5875 -0.0879 -0.3796
  874MOL0     O20475   0.317   1.228   5.179  0.3534  0.5280 -0.0847
  874MOL0     C20476   0.424   1.212   5.118 -0.0258 -0.2406 -0.9282
  874MOL0     O20477   0.528   1.134   5.156 -0.1190  0.2244 -0.0862
  874MOL0     C20478   0.487   1.045   5.254 -0.4314  0.4293  0.0570
  874MOL0     C20479   0.470   0.908   5.233 -0.4508 -0.5556 -0.5545
  874MOL0     C20480   0.441   0.827   5.336  1.0170 -0.7991  0.2529
  874MOL0     C20481   0.423   0.874   5.463  0.4120 -1.0226 -0.0744
  874MOL0     O20482   0.389   0.804   5.577  0.0606 -0.1745  0.3582
  874MOL0     C20483   0.389   0.657   5.571 -0.3878 -0.2985  0.4347
  874MOL0     C20484   0.523   0.595   5.546 -0.4848  1.4992  0.7955
  874MOL0     C20485   0.563   0.511   5.667  1.5216 -0.5421  0.6854
  874MOL0     C20486   0.697   0.438   5.656  0.2014 -0.0796  0.8632
  874MOL0     C20487   0.752   0.397   5.790  0.5488  0.7080 -0.4456
  874MOL0     C20488   0.847   0.500   5.855  0.6451  0.3754  0.4732
  874MOL0     C20489   0.849   0.495   6.012 -0.4331  0.5624  0.8979
  874MOL0     C20490   0.856   0.354   6.069  0.7269  0.5756 -0.0767
  874MOL0     N20491   0.980   0.287   6.047  0.8638  0.5774  0.0809
  874MOL0     C20492   1.097   0.324   6.102  0.2492 -0.0970  0.2146
  874MOL0     C20493   1.183   0.251   6.031 -0.2114 -0.4980 -0.2483
  874MOL0     C20494   1.334   0.267   6.055  0.6985  0.8056 -0.1041
  874MOL0     C20495   1.382   0.168   6.166  0.3613 -0.0706 -0.0493
  874MOL0     C20496   1.516   0.105   6.130  0.3832  0.3852 -0.7029
  874MOL0     C20497   1.568   0.024   6.256  0.0100  0.5243  0.0607
  874MOL0     O20498   1.688  -0.051   6.217 -0.2831  0.1172  0.9596
  874MOL0     C20499   1.704  -0.178   6.267 -1.0295 -0.0601 -0.5981
  874MOL0     C20500   1.831  -0.238   6.239  0.6431  0.1717 -0.5631
  874MOL0     C20501   1.870  -0.363   6.295 -1.1217  0.0412 -0.2863
  874MOL0     C20502   2.013  -0.411   6.255 -0.3111  0.2404 -0.1624
  874MOL0     C20503   1.776  -0.444   6.371  0.4492 -1.2078  0.8526
  874MOL0     C20504   1.790  -0.592   6.400 -0.8938 -0.3995  0.1134
  874MOL0     O20505   1.682  -0.647   6.459  0.8074  0.2873 -0.6087
  874MOL0     C20506   1.629  -0.768   6.422  0.1391  0.9843 -0.1464
  874MOL0     C20507   1.706  -0.878   6.449 -0.5491 -0.7183 -0.3223
  874MOL0     C20508   1.663  -1.007   6.397 -0.1734 -0.4975 -0.0940
  874MOL0     C20509   1.549  -1.021   6.330 -0.4428 -0.8135  0.5514
  874MOL0     O20510   1.506  -1.150   6.295  0.4682 -0.2122  0.0262
  874MOL0     C20511   1.421  -1.159   6.182  0.3286 -0.6958 -0.3289
  874MOL0     C20512   1.402  -1.305   6.149  0.5924 -0.3680  0.8232
  874MOL0     C20513   1.524  -1.386   6.128  0.1698  0.2200 -0.2336
  874MOL0     C20514   1.493  -1.536   6.121 -0.1267 -0.1607  0.1486
  874MOL0     C20515   1.622  -1.607   6.094  0.0469  0.0960 -0.3610
  874MOL0     C20516   1.599  -1.755   6.103 -0.1440  0.2155  0.0618
  874MOL0     C20517   1.725  -1.843   6.107 -0.5047 -1.0516  1.0571
  874MOL0     C20518   1.706  -1.971   6.175 -0.1323  0.6812  0.2851
  874MOL0    Cl20519   1.534  -2.023   6.207 -0.1172  0.5712  0.8263
  874MOL0     C20520   1.471  -0.913   6.300  0.3999 -0.4357 -0.3362
  874MOL0     C20521   1.513  -0.789   6.351  0.0994  0.1748 -0.1471
  874MOL0     O20522   1.891  -0.656   6.371  0.4630 -0.4619 -0.0685
  874MOL0     C20523   1.646  -0.384   6.383 -0.3174 -0.7679  0.3591
  874MOL0     C20524   1.616  -0.255   6.338  0.2308 -0.3988 -0.2093
  874MOL0     N20525   1.114   0.161   5.954 -0.8153 -0.1248 -0.0433
  874MOL0     N20526   0.987   0.193   5.953  0.0472  0.0060  0.1084
  874MOL0     C20527   0.439   1.005   5.484 -0.4481 -0.3101  0.1808
  874MOL0     C20528   0.478   1.087   5.380 -1.2233  0.1842 -1.3754
  874MOL0     C20529   0.458   1.300   5.002 -1.0640 -0.0071  0.7477
  874MOL0     C20530   0.591   1.326   4.964 -0.2360 -0.3556 -1.3779
  874MOL0     C20531   0.626   1.422   4.873 -0.4556 -0.7157  0.5186
  874MOL0     C20532   0.535   1.493   4.795 -0.1565  0.0635 -1.0833
  874MOL0     O20533   0.582   1.577   4.702 -0.2501  0.0216 -0.3394
  874MOL0     C20534   0.651   1.693   4.747 -0.6980 -0.0332  1.0673
  874MOL0     C20535   0.566   1.824   4.735  0.9090  0.3682 -0.3166
  874MOL0     C20536   0.449   1.836   4.826  0.8993  0.2211 -0.1948
  874MOL0     C20537   0.366   1.965   4.810 -0.1221 -0.1661  0.2975
  874MOL0     C20538   0.437   2.070   4.879 -0.3640 -0.1639  0.9001
  874MOL0     C20539   0.494   2.161   4.939 -0.2920  0.3348 -0.0210
  874MOL0     C20540   0.405   1.460   4.816  0.1657  0.9227  0.8281
  874MOL0     C20541   0.361   1.372   4.923 -0.2500  0.3289  0.7343
  874MOL0     C20542   0.214   1.346   4.938  0.2053 -0.0328  0.1261
  874MOL0     H20543   0.500   0.865   5.137  4.1317 -1.2703  0.9339
  874MOL0     H20544   0.433   0.722   5.310  0.7830 -0.6411 -0.3184
  874MOL0     H20545   0.325   0.626   5.488 -0.1349  1.9321 -0.6663
  874MOL0     H20546   0.342   0.631   5.666 -0.5724  0.2945  0.5113
  874MOL0     H20547   0.518   0.532   5.456  2.1792  2.2357  0.0384
  874MOL0     H20548   0.605   0.663   5.520  0.3008  0.1623 -0.3425
  874MOL0     H20549   0.547   0.583   5.747  0.5733 -1.3696  1.2665
  874MOL0     H20550   0.480   0.441   5.681  1.6844 -1.0966 -0.9385
  874MOL0     H20551   0.676   0.343   5.608 -3.1675  0.1502  1.6078
  874MOL0     H20552   0.776   0.479   5.593  0.5617 -0.7391  0.8817
  874MOL0     H20553   0.803   0.302   5.771 -0.9595  0.2250 -2.4240
  874MOL0     H20554   0.664   0.373   5.850 -1.3262 -1.3943 -3.6950
  874MOL0     H20555   0.948   0.477   5.822 -0.5611 -4.3535 -0.6289
  874MOL0     H20556   0.820   0.604   5.833 -0.4562  0.3071  1.3756
  874MOL0     H20557   0.761   0.551   6.044 -2.3941 -1.5632 -0.5038
  874MOL0     H20558   0.937   0.548   6.050  1.0339 -0.4475 -0.9590
  874MOL0     H20559   0.853   0.367   6.177  1.0608 -2.1868  0.3421
  874MOL0     H20560   0.768   0.297   6.039  1.2928 -0.2044 -0.2893
  874MOL0     H20561   1.126   0.383   6.189  0.3655 -3.4666  2.6753
  874MOL0     H20562   1.359   0.365   6.097  0.9428 -0.1696  2.1290
  874MOL0     H20563   1.392   0.263   5.962  1.4075 -0.8036  0.3727
  874MOL0     H20564   1.380   0.227   6.258 -2.3277 -0.9555  0.5584
  874MOL0     H20565   1.312   0.084   6.169  1.5081 -1.0235  1.0038
  874MOL0     H20566   1.521   0.037   6.045 -1.3545  1.4765 -1.7559
  874MOL0     H20567   1.586   0.188   6.115 -0.6338  1.2220 -0.9382
  874MOL0     H20568   1.598   0.092   6.336 -1.9295  0.2669  1.0548
  874MOL0     H20569   1.490  -0.042   6.296  1.5171 -1.0952  0.4571
  874MOL0     H20570   1.891  -0.184   6.167 -1.2477 -0.3227 -2.6217
  874MOL0     H20571   2.062  -0.435   6.350 -0.3336 -0.7258 -0.3816
  874MOL0     H20572   2.057  -0.329   6.197  2.2683 -0.0797  1.2228
  874MOL0     H20573   1.998  -0.501   6.194 -3.6242 -1.7441  3.1211
  874MOL0     H20574   1.800  -0.875   6.503 -0.3013 -0.4847 -0.7583
  874MOL0     H20575   1.721  -1.097   6.419 -0.7322 -0.7017  0.5898
  874MOL0     H20576   1.324  -1.112   6.200  0.8305  0.5239 -0.7125
  874MOL0     H20577   1.463  -1.106   6.097 -1.3942 -1.5204 -1.7659
  874MOL0     H20578   1.335  -1.356   6.219  4.1251 -4.2510  1.7959
  874MOL0     H20579   1.357  -1.302   6.049  1.5020  2.1760  0.4074
  874MOL0     H20580   1.591  -1.389   6.214  1.2267 -0.4983 -1.0513
  874MOL0     H20581   1.568  -1.344   6.037 -0.5094  1.1375 -0.1578
  874MOL0     H20582   1.426  -1.565   6.039  0.5287 -6.4603  1.2996
  874MOL0     H20583   1.438  -1.554   6.215 -1.9914  1.8211 -0.4841
  874MOL0     H20584   1.665  -1.580   5.998  0.7420 -2.7176 -0.9234
  874MOL0     H20585   1.702  -1.599   6.169  0.7596 -1.5976 -0.8943
  874MOL0     H20586   1.543  -1.795   6.018  1.5665 -1.6474 -0.2555
  874MOL0     H20587   1.535  -1.775   6.188 -1.2270  0.6074 -0.6358
  874MOL0     H20588   1.810  -1.789   6.149 -2.4741  3.1872  0.1545
  874MOL0     H20589   1.744  -1.864   6.001  1.0900 -1.8241  1.4688
  874MOL0     H20590   1.763  -1.958   6.268  1.5936  1.2788 -0.8045
  874MOL0     H20591   1.756  -2.044   6.111  0.4970  1.0876  0.3017
  874MOL0     H20592   1.377  -0.923   6.247  0.0873  1.7741 -0.2923
  874MOL0     H20593   1.457  -0.703   6.316  0.9563  1.4578  1.5082
  874MOL0     H20594   1.568  -0.434   6.438  1.5389 -2.5079  1.5187
  874MOL0     H20595   1.515  -0.225   6.363  0.9385 -0.1790  2.7530
  874MOL0     H20596   0.422   1.030   5.588 -1.4032 -4.2752  1.1201
  874MOL0     H20597   0.497   1.193   5.394  0.7924 -0.4991  2.9280
  874MOL0     H20598   0.666   1.274   5.023 -0.5884 -0.1215 -0.7128
  874MOL0     H20599   0.731   1.449   4.867 -1.3122  3.0486  0.3050
  874MOL0     H20600   0.693   1.681   4.847 -0.4222  1.4683  1.1555
  874MOL0     H20601   0.740   1.706   4.685 -2.9679  0.2245 -2.4810
  874MOL0     H20602   0.535   1.820   4.631 -0.1957 -0.5526  0.0302
  874MOL0     H20603   0.629   1.912   4.753  0.4505  0.6341  0.0238
  874MOL0     H20604   0.387   1.747   4.810  1.2858 -0.2701  0.8767
  874MOL0     H20605   0.470   1.816   4.932  1.7280  1.2610 -0.1475
  874MOL0     H20606   0.273   1.941   4.862 -0.9960  1.0631 -0.6371
  874MOL0     H20607   0.347   1.996   4.707  0.5827  0.9499  0.4755
  874MOL0     H20608   0.548   2.228   5.002  0.8169 -0.8778  0.3594
  874MOL0     H20609   0.332   1.502   4.748 -1.4023 -0.5201  1.5426
  874MOL0     H20610   0.178   1.367   5.039 -0.7362 -0.5264 -0.0928
  874MOL0     H20611   0.154   1.408   4.869  0.0872  0.0182  0.2739
  874MOL0     H20612   0.184   1.241   4.944 -1.8918  0.5943  2.0392
  875MOL0     O20613   1.837   2.560   3.231 -0.3231 -0.1203 -0.0135
  875MOL0     C20614   1.841   2.542   3.354  0.3445 -0.9405  0.0342
  875MOL0     O20615   1.843   2.637   3.453 -0.1990 -0.8037 -0.1340
  875MOL0     C20616   1.832   2.772   3.431 -0.2268  0.1236 -0.2292
  875MOL0     C20617   1.841   2.837   3.548 -0.1719  0.5353  0.5058
  875MOL0     C20618   1.847   2.979   3.549  1.0431 -0.0769  0.9634
  875MOL0     C20619   1.837   3.052   3.426 -0.1401  0.9090 -0.1108
  875MOL0     O20620   1.847   3.187   3.421  0.5136  0.5370  0.1960
  875MOL0     C20621   1.907   3.258   3.532 -0.0432 -0.9226 -0.5337
  875MOL0     C20622   1.888   3.407   3.526 -0.3934 -0.2019 -1.1577
  875MOL0     C20623   1.734   3.438   3.524  0.3396 -0.5907  1.3528
  875MOL0     C20624   1.698   3.516   3.392 -0.0715 -0.0464 -0.1404
  875MOL0     C20625   1.545   3.541   3.399 -0.1414  0.8346  0.1728
  875MOL0     C20626   1.479   3.627   3.290  0.7140 -1.0087  0.5906
  875MOL0     C20627   1.520   3.785   3.295 -0.0533  1.4727  0.9287
  875MOL0     C20628   1.474   3.846   3.424 -1.4022 -0.6282  0.0041
  875MOL0     N20629   1.518   3.979   3.452 -0.3990 -0.4506  0.3329
  875MOL0     C20630   1.648   4.011   3.497  0.6075  0.3518 -0.0932
  875MOL0     C20631   1.632   4.135   3.539 -0.3499 -0.5053 -0.3848
  875MOL0     C20632   1.736   4.236   3.572  0.0590 -0.7877  0.4414
  875MOL0     C20633   1.805   4.203   3.705  0.3387  0.3037  0.5523
  875MOL0     C20634   1.712   4.220   3.825 -0.7823  0.2703  0.0288
  875MOL0     C20635   1.774   4.232   3.957 -1.0115  0.5198  0.3394
  875MOL0     O20636   1.688   4.307   4.043  0.7225 -0.4660  0.2972
  875MOL0     C20637   1.650   4.242   4.157  0.2486 -0.4418  0.0696
  875MOL0     C20638   1.518   4.252   4.204  0.6748  0.3037  0.1270
  875MOL0     C20639   1.468   4.218   4.331  0.6936  0.5435 -0.3206
  875MOL0     C20640   1.319   4.260   4.371  0.2368 -0.2596 -0.1073
  875MOL0     C20641   1.574   4.167   4.415  0.2746  0.4050 -0.0728
  875MOL0     C20642   1.532   4.106   4.544 -0.0242 -1.1450 -0.2198
  875MOL0     O20643   1.631   4.019   4.585 -0.0696 -0.2014  0.1340
  875MOL0     C20644   1.619   3.967   4.709 -0.0699 -0.4087  0.5018
  875MOL0     C20645   1.556   3.844   4.724  0.2130  0.2741  0.8980
  875MOL0     C20646   1.564   3.778   4.847 -0.6507 -1.1765  0.1828
  875MOL0     C20647   1.620   3.845   4.962 -0.0146  0.1062 -0.5029
  875MOL0     O20648   1.629   3.780   5.095  0.2979  0.0904  0.4405
  875MOL0     C20649   1.610   3.635   5.103  0.4957 -0.1190  0.0684
  875MOL0     C20650   1.460   3.604   5.127  0.0864 -0.5776  0.1688
  875MOL0     C20651   1.411   3.698   5.238  0.0006  0.4832 -0.3173
  875MOL0     C20652   1.259   3.690   5.256  0.1095 -1.2703 -0.3512
  875MOL0     C20653   1.203   3.714   5.402  0.0601  0.4124 -0.0347
  875MOL0     C20654   1.049   3.724   5.382 -1.1845 -0.7244  0.3143
  875MOL0     C20655   1.013   3.867   5.376  0.0637 -1.4728  0.3161
  875MOL0     C20656   0.872   3.908   5.338 -0.3370 -0.3314  1.0830
  875MOL0    Cl20657   0.748   3.847   5.437 -0.0700  0.2564 -0.0173
  875MOL0     C20658   1.670   3.976   4.958 -0.4022  0.7851  0.5376
  875MOL0     C20659   1.669   4.038   4.825  0.1560 -0.0089 -0.2371
  875MOL0     O20660   1.423   4.127   4.604  0.3546 -0.3642  0.1127
  875MOL0     C20661   1.715   4.156   4.371  0.6781 -0.5670  0.8925
  875MOL0     C20662   1.751   4.196   4.239  0.6259 -0.2070 -0.0320
  875MOL0     N20663   1.497   4.181   3.519  0.2686  0.4618  0.2916
  875MOL0     N20664   1.433   4.086   3.456 -0.6147  0.3056 -0.4951
  875MOL0     C20665   1.826   2.981   3.306 -0.5295 -0.8188  0.1823
  875MOL0     C20666   1.827   2.839   3.307  0.5466  0.4385  0.5910
  875MOL0     C20667   1.829   2.412   3.416 -0.8817 -1.1050 -0.2750
  875MOL0     C20668   1.919   2.373   3.514 -0.2920  0.0427 -0.4934
  875MOL0     C20669   1.901   2.260   3.592  0.6513  0.5326 -0.2839
  875MOL0     C20670   1.788   2.176   3.564 -0.9081 -0.3711 -1.6040
  875MOL0     O20671   1.745   2.063   3.630 -0.6274 -0.0832 -0.4752
  875MOL0     C20672   1.794   2.026   3.766 -0.5944  0.0967  0.1786
  875MOL0     C20673   1.686   1.938   3.826  0.1157 -0.3961  0.6531
  875MOL0     C20674   1.704   1.952   3.981 -0.5049  0.1316  0.7499
  875MOL0     C20675   1.630   1.847   4.055  0.0961  0.6617 -0.1730
  875MOL0     C20676   1.701   1.716   4.053 -0.2622 -0.1689 -0.4108
  875MOL0     C20677   1.748   1.605   4.037  0.1344  0.0424 -0.0847
  875MOL0     C20678   1.713   2.207   3.452 -0.3596 -0.1152  0.2939
  875MOL0     C20679   1.729   2.320   3.381  0.6426 -0.1620  0.0827
  875MOL0     C20680   1.628   2.351   3.272 -1.1358 -0.0699 -0.0663
  875MOL0     H20681   1.863   2.787   3.642 -0.8209  1.1862  1.0096
  875MOL0     H20682   1.841   3.027   3.646 -1.5816  2.6048 -0.3758
  875MOL0     H20683   2.010   3.238   3.563 -0.5721 -0.6472  1.5773
  875MOL0     H20684   1.840   3.226   3.612 -1.8197  0.9994 -1.1778
  875MOL0     H20685   1.931   3.435   3.623  0.6726 -1.5113 -1.2342
  875MOL0     H20686   1.939   3.458   3.444  0.3520 -0.9122 -1.1488
  875MOL0     H20687   1.672   3.347   3.525 -1.1627  0.3613  0.1293
  875MOL0     H20688   1.716   3.483   3.622  2.4579 -2.5064  2.7252
  875MOL0     H20689   1.743   3.615   3.384 -1.4067  0.5754 -0.3378
  875MOL0     H20690   1.725   3.459   3.303  3.7182 -1.0220  1.4521
  875MOL0     H20691   1.524   3.574   3.501  1.8272 -2.8887  2.0050
  875MOL0     H20692   1.496   3.445   3.385  0.4359  0.6825 -0.9951
  875MOL0     H20693   1.485   3.589   3.188 -0.6675 -1.8137  0.7706
  875MOL0     H20694   1.370   3.630   3.302  0.4075 -1.3332 -1.6863
  875MOL0     H20695   1.476   3.841   3.212 -5.0243 -1.4958  1.1755
  875MOL0     H20696   1.630   3.785   3.297  0.1426 -0.4141 -2.5670
  875MOL0     H20697   1.365   3.845   3.427 -1.3884 -0.5511  0.6258
  875MOL0     H20698   1.511   3.784   3.506  0.5279  1.8333  1.1201
  875MOL0     H20699   1.742   3.958   3.485 -0.1861 -0.8505 -1.3682
  875MOL0     H20700   1.680   4.331   3.574 -0.5095 -1.0809 -0.5832
  875MOL0     H20701   1.810   4.243   3.492 -1.2833 -0.1076 -0.8103
  875MOL0     H20702   1.834   4.098   3.697 -0.1506  0.2750 -1.3687
  875MOL0     H20703   1.884   4.275   3.727  0.3677  0.3214  0.3897
  875MOL0     H20704   1.679   4.320   3.795  2.5089  1.2309 -0.7563
  875MOL0     H20705   1.639   4.139   3.834  0.5663 -0.9818  0.1063
  875MOL0     H20706   1.786   4.129   3.994 -0.1269 -0.9266 -3.5142
  875MOL0     H20707   1.874   4.277   3.950  1.1070 -3.5228  1.0464
  875MOL0     H20708   1.447   4.295   4.134 -0.5503 -2.8548 -0.7641
  875MOL0     H20709   1.253   4.285   4.288 -0.2308  2.3139  0.9401
  875MOL0     H20710   1.327   4.355   4.424  1.8561  0.3457 -1.3462
  875MOL0     H20711   1.266   4.183   4.428 -0.5608 -2.3917 -3.4671
  875MOL0     H20712   1.519   3.793   4.636 -1.4877  0.7249  1.3300
  875MOL0     H20713   1.526   3.677   4.856 -4.4832 -0.0266 -0.7861
  875MOL0     H20714   1.656   3.567   5.030  1.6911  2.6137 -1.9015
  875MOL0     H20715   1.667   3.600   5.189  1.9679 -2.0026 -1.5697
  875MOL0     H20716   1.404   3.642   5.041  0.4927  3.8724  1.6004
  875MOL0     H20717   1.440   3.497   5.139 -0.1226 -0.5098  0.4266
  875MOL0     H20718   1.421   3.803   5.207 -1.5280  1.0911  1.1348
  875MOL0     H20719   1.471   3.680   5.328  2.4998  2.9218 -1.3307
  875MOL0     H20720   1.218   3.597   5.215 -0.2712 -1.0370 -0.5026
  875MOL0     H20721   1.214   3.761   5.185  4.1371 -0.4468 -2.4200
  875MOL0     H20722   1.224   3.623   5.459  1.4416  0.5284 -0.3170
  875MOL0     H20723   1.250   3.798   5.454  4.6370 -0.8970 -1.6176
  875MOL0     H20724   0.985   3.687   5.463 -3.2043  3.0544  0.6715
  875MOL0     H20725   1.003   3.673   5.297  0.1599 -2.2696  0.4734
  875MOL0     H20726   1.079   3.916   5.304 -0.9331  1.2169  1.1101
  875MOL0     H20727   1.044   3.923   5.464  2.7618  0.0272 -1.4715
  875MOL0     H20728   0.857   3.867   5.238  1.6567  0.1535  0.5329
  875MOL0     H20729   0.865   4.017   5.328 -0.9130 -0.5837 -3.1431
  875MOL0     H20730   1.705   4.032   5.044 -3.5512  2.8585  0.6227
  875MOL0     H20731   1.710   4.138   4.820 -1.5317  0.6465 -2.4358
  875MOL0     H20732   1.791   4.130   4.444 -0.5567 -4.6724  0.9607
  875MOL0     H20733   1.856   4.210   4.214  0.5869 -1.7441 -1.2279
  875MOL0     H20734   1.830   3.037   3.212  0.0113 -0.6989  0.2753
  875MOL0     H20735   1.823   2.800   3.206 -4.2122  2.8704 -0.4229
  875MOL0     H20736   2.002   2.439   3.540 -0.1055 -1.1146  2.1040
  875MOL0     H20737   1.955   2.230   3.681 -3.6691  2.5119  3.4116
  875MOL0     H20738   1.892   1.979   3.776  0.0463  1.5696  1.2112
  875MOL0     H20739   1.798   2.118   3.825 -2.3296  0.2045  0.1872
  875MOL0     H20740   1.683   1.836   3.787  0.1265 -0.0279 -0.3458
  875MOL0     H20741   1.587   1.980   3.808  0.6987 -0.4208 -3.8425
  875MOL0     H20742   1.813   1.942   3.993  0.1058  2.5085 -1.6868
  875MOL0     H20743   1.687   2.054   4.018  0.8327  0.8728 -0.5459
  875MOL0     H20744   1.526   1.830   4.023 -0.1097 -0.8634  1.1521
  875MOL0     H20745   1.618   1.878   4.159 -0.0155  0.3347 -0.0868
  875MOL0     H20746   1.780   1.502   4.043 -1.5152 -0.3884  3.1833
  875MOL0     H20747   1.633   2.137   3.432 -1.3832  0.2694  2.6593
  875MOL0     H20748   1.663   2.305   3.180 -0.9954 -0.3779  0.1419
  875MOL0     H20749   1.521   2.329   3.285 -1.2591  0.8251  0.5257
  875MOL0     H20750   1.620   2.459   3.252  2.6800  0.2509 -0.5729
  876MOL0     O20751   3.858   3.986   3.150  0.2306  0.8981 -0.2724
  876MOL0     C20752   3.969   3.940   3.161 -0.2388  0.3496  0.0659
  876MOL0     O20753   4.072   3.991   3.090 -0.1476  0.5118 -0.1820
  876MOL0     C20754   4.083   4.123   3.074  0.3102 -0.1151 -0.2960
  876MOL0     C20755   4.171   4.161   2.976  0.1610 -0.3106 -0.8212
  876MOL0     C20756   4.225   4.283   2.979 -0.2296  0.3790 -0.8092
  876MOL0     C20757   4.197   4.377   3.077  0.4551  0.1802 -0.2453
  876MOL0     O20758   4.251   4.501   3.087  1.1439  0.5519  0.1216
  876MOL0     C20759   4.382   4.496   3.152  0.1328 -0.2475  0.7443
  876MOL0     C20760   4.457   4.644   3.157 -0.6835 -0.0214  0.1155
  876MOL0     C20761   4.557   4.657   3.270 -0.2717 -0.1057  0.8866
  876MOL0     C20762   4.673   4.558   3.253 -0.1096 -0.2250  0.2633
  876MOL0     C20763   4.763   4.566   3.382 -0.1634  0.0162 -0.0155
  876MOL0     C20764   4.854   4.685   3.395  0.5110 -0.0781 -0.6144
  876MOL0     C20765   4.911   4.714   3.535 -0.0555  0.3308  0.1977
  876MOL0     C20766   4.994   4.854   3.534  0.0431  0.0011  0.1687
  876MOL0     N20767   5.039   4.887   3.668  0.5756 -0.5904  0.1358
  876MOL0     C20768   5.165   4.877   3.707 -0.1024  0.4505  0.2403
  876MOL0     C20769   5.168   4.919   3.835 -0.5462 -0.0989 -0.9340
  876MOL0     C20770   5.286   4.940   3.932 -0.8018  0.3347  0.4522
  876MOL0     C20771   5.314   4.829   4.019 -0.5943  0.2381  0.5233
  876MOL0     C20772   5.454   4.814   4.087 -0.4450 -0.3447 -0.7382
  876MOL0     C20773   5.528   4.947   4.131 -0.4638  0.1231 -0.5947
  876MOL0     O20774   5.662   4.909   4.166  0.5237  0.4247 -0.0416
  876MOL0     C20775   5.762   4.873   4.075  0.9533  0.2856  0.0700
  876MOL0     C20776   5.879   4.843   4.136  0.3090  0.6353  1.1062
  876MOL0     C20777   5.987   4.799   4.064 -0.0631 -0.2821  0.0707
  876MOL0     C20778   6.107   4.743   4.146 -0.2381 -0.1376 -0.5365
  876MOL0     C20779   5.975   4.782   3.919  0.1053  0.0152 -0.8136
  876MOL0     C20780   6.084   4.735   3.832  0.8804  0.6534 -0.1742
  876MOL0     O20781   6.038   4.695   3.705 -0.0335 -0.8400 -0.3164
  876MOL0     C20782   6.127   4.666   3.601 -0.1740 -0.9977 -0.3383
  876MOL0     C20783   6.086   4.569   3.513  0.9769 -0.1741 -0.3475
  876MOL0     C20784   6.149   4.546   3.400 -0.5171  0.4292 -0.1848
  876MOL0     C20785   6.271   4.609   3.373 -0.2553 -0.3140  0.6921
  876MOL0     O20786   6.357   4.575   3.269  0.4070  0.5768  0.5211
  876MOL0     C20787   6.324   4.638   3.142  0.4250 -0.0195 -1.0858
  876MOL0     C20788   6.424   4.746   3.097 -1.2611 -0.7918  0.0918
  876MOL0     C20789   6.375   4.878   3.162  0.8654 -0.4563  0.6539
  876MOL0     C20790   6.436   5.008   3.103 -0.5154 -0.1776  0.4034
  876MOL0     C20791   6.586   4.986   3.090  0.4274 -0.3196  0.0460
  876MOL0     C20792   6.653   5.116   3.042  0.6219  0.0822 -0.3225
  876MOL0     C20793   6.798   5.109   3.088  0.9607  0.7335  0.2916
  876MOL0     C20794   6.872   5.210   3.014 -0.4642  0.4399  0.1712
  876MOL0    Cl20795   6.837   5.387   3.047 -0.2632 -0.0694 -0.2777
  876MOL0     C20796   6.313   4.710   3.468 -0.3979  0.4165  0.5013
  876MOL0     C20797   6.233   4.744   3.564 -0.8807  0.4393 -0.5366
  876MOL0     O20798   6.196   4.737   3.870  0.1102 -0.1235  0.3804
  876MOL0     C20799   5.851   4.805   3.860 -0.2772 -0.2609 -0.1837
  876MOL0     C20800   5.749   4.856   3.940 -0.3554 -0.9331 -0.0541
  876MOL0     N20801   5.040   4.965   3.865  0.0586 -0.1673 -0.0272
  876MOL0     N20802   4.959   4.924   3.772 -0.1487 -0.1327 -0.2770
  876MOL0     C20803   4.104   4.339   3.176  0.0070 -0.3562 -0.0477
  876MOL0     C20804   4.046   4.214   3.175  0.5376  0.2244 -0.3887
  876MOL0     C20805   3.990   3.819   3.243 -0.2810 -0.5325  0.5441
  876MOL0     C20806   4.116   3.807   3.306 -0.2092 -0.1396 -1.0745
  876MOL0     C20807   4.138   3.699   3.392 -0.4794  0.1918  0.3653
  876MOL0     C20808   4.037   3.606   3.420  0.1311  0.4760  0.8567
  876MOL0     O20809   4.070   3.511   3.516  0.3490 -0.1279  0.6759
  876MOL0     C20810   3.950   3.449   3.579 -1.4958  0.7835 -0.5188
  876MOL0     C20811   3.975   3.385   3.712  0.2451 -0.4595  0.8321
  876MOL0     C20812   4.031   3.485   3.811 -0.8374 -0.8139 -0.5919
  876MOL0     C20813   3.922   3.573   3.875  0.5523  0.4654 -1.3067
  876MOL0     C20814   3.880   3.515   4.003 -0.0615 -0.7948 -1.2664
  876MOL0     C20815   3.851   3.468   4.112 -0.3716  0.1658  0.6340
  876MOL0     C20816   3.921   3.615   3.345  0.3936 -0.0968 -0.2831
  876MOL0     C20817   3.885   3.720   3.270 -1.3397 -0.4813 -0.7776
  876MOL0     C20818   3.751   3.713   3.208  0.0723  0.0863  0.0763
  876MOL0     H20819   4.202   4.086   2.905  2.0789 -1.7099  1.3476
  876MOL0     H20820   4.281   4.318   2.893  0.6008  0.9186 -0.0694
  876MOL0     H20821   4.439   4.428   3.087  0.1332 -0.1651  0.6591
  876MOL0     H20822   4.366   4.445   3.247 -3.0811 -5.7715 -2.2560
  876MOL0     H20823   4.515   4.662   3.066  1.8590  1.1892  1.8492
  876MOL0     H20824   4.379   4.720   3.149 -2.3522 -1.7056 -0.5047
  876MOL0     H20825   4.607   4.755   3.267  1.0217 -0.7699 -0.8163
  876MOL0     H20826   4.511   4.640   3.368 -2.0263 -0.2042  0.0658
  876MOL0     H20827   4.640   4.455   3.237 -1.8215 -0.1156  2.5818
  876MOL0     H20828   4.723   4.598   3.164  0.0393  1.4814  1.0740
  876MOL0     H20829   4.836   4.485   3.382 -0.4895 -0.2825  0.1928
  876MOL0     H20830   4.703   4.541   3.470  1.1731 -3.1022  0.1596
  876MOL0     H20831   4.936   4.664   3.326  1.0544 -3.4128  0.8728
  876MOL0     H20832   4.799   4.772   3.356  0.7057 -0.4586 -1.7716
  876MOL0     H20833   4.986   4.639   3.559  1.0841  0.9010 -1.3716
  876MOL0     H20834   4.831   4.726   3.609 -1.2134 -0.9973 -0.7791
  876MOL0     H20835   5.078   4.842   3.465 -0.8797 -0.5795 -0.9079
  876MOL0     H20836   4.938   4.937   3.489  4.0612  3.2670  0.6187
  876MOL0     H20837   5.252   4.849   3.649 -0.5624  1.5619 -1.0540
  876MOL0     H20838   5.261   5.023   3.998 -1.6059 -1.2055  2.1759
  876MOL0     H20839   5.370   4.952   3.863 -1.0805 -0.5669 -0.0601
  876MOL0     H20840   5.241   4.840   4.099  0.0276  0.7623  1.0313
  876MOL0     H20841   5.293   4.728   3.983 -0.2781 -0.5714  2.4517
  876MOL0     H20842   5.447   4.745   4.172  0.6432  0.4488  0.0219
  876MOL0     H20843   5.513   4.743   4.028  0.2647  0.0369 -0.4995
  876MOL0     H20844   5.515   5.014   4.047  1.8324  1.4561  0.0196
  876MOL0     H20845   5.473   5.002   4.208 -1.2458  1.0540 -1.7883
  876MOL0     H20846   5.876   4.855   4.244  1.1260 -3.4734  1.7555
  876MOL0     H20847   6.197   4.792   4.109 -1.9665  2.6730 -1.3850
  876MOL0     H20848   6.095   4.635   4.143 -0.1861 -0.4626  4.2122
  876MOL0     H20849   6.104   4.773   4.251 -0.1364 -2.2073  0.1064
  876MOL0     H20850   5.997   4.508   3.524  1.5088 -1.1835 -1.4117
  876MOL0     H20851   6.118   4.465   3.333 -2.0425  1.5817 -0.9428
  876MOL0     H20852   6.326   4.557   3.069 -1.0531  1.6957 -3.1682
  876MOL0     H20853   6.223   4.680   3.149  1.2264  1.8651 -0.2233
  876MOL0     H20854   6.527   4.725   3.127  0.1069  0.8388 -2.9535
  876MOL0     H20855   6.426   4.741   2.988 -3.5908 -3.0979  0.0514
  876MOL0     H20856   6.406   4.882   3.267 -1.9203  1.0953  1.5012
  876MOL0     H20857   6.266   4.881   3.158  0.9030  1.8599 -2.8752
  876MOL0     H20858   6.402   5.092   3.164 -1.0028  0.4884 -0.7471
  876MOL0     H20859   6.412   5.027   2.998  5.5277  3.2425 -0.8566
  876MOL0     H20860   6.623   4.940   3.182  0.6684  0.3750  0.3100
  876MOL0     H20861   6.607   4.916   3.009  3.5482  1.7930 -1.1900
  876MOL0     H20862   6.591   5.198   3.079  1.2664  0.0660  0.8260
  876MOL0     H20863   6.649   5.133   2.934 -0.3272  2.7559  0.0617
  876MOL0     H20864   6.835   5.010   3.059  0.0723  0.5721 -0.3194
  876MOL0     H20865   6.822   5.114   3.195  0.0869 -1.8854  0.6893
  876MOL0     H20866   6.850   5.194   2.908  0.7684 -6.1985  0.5195
  876MOL0     H20867   6.977   5.184   3.025 -0.5398  0.4902  1.1346
  876MOL0     H20868   6.397   4.779   3.463  0.2804 -0.2935  1.7837
  876MOL0     H20869   6.256   4.830   3.626 -0.7514 -0.6765  1.0152
  876MOL0     H20870   5.844   4.791   3.752  2.8893  0.0145 -0.5148
  876MOL0     H20871   5.656   4.883   3.892  1.2018  0.0312 -2.7539
  876MOL0     H20872   4.080   4.407   3.257  1.4707  0.1716 -0.0262
  876MOL0     H20873   3.968   4.190   3.247 -0.7857  5.0361  0.0935
  876MOL0     H20874   4.190   3.887   3.298 -2.1980  2.1275  1.3466
  876MOL0     H20875   4.233   3.675   3.438 -1.5381 -0.6634  2.2355
  876MOL0     H20876   3.863   3.513   3.590 -1.9679 -0.0097  0.5638
  876MOL0     H20877   3.923   3.362   3.517  0.8024 -1.5911  1.5564
  876MOL0     H20878   4.039   3.297   3.701 -3.3233 -3.3123  1.2032
  876MOL0     H20879   3.887   3.345   3.763  0.2114 -0.4816  0.7573
  876MOL0     H20880   4.096   3.438   3.886 -2.9686 -0.6009  1.4845
  876MOL0     H20881   4.105   3.555   3.770  1.5549 -1.5934  2.0045
  876MOL0     H20882   3.838   3.573   3.805 -0.2110 -0.8113 -0.4348
  876MOL0     H20883   3.947   3.675   3.907 -3.6034  0.7127  2.1386
  876MOL0     H20884   3.815   3.439   4.209  0.5466  3.1101  1.9670
  876MOL0     H20885   3.852   3.532   3.358  0.8571 -0.5507 -0.6744
  876MOL0     H20886   3.744   3.628   3.140  1.3129  0.1791 -0.1870
  876MOL0     H20887   3.668   3.702   3.278  1.4934  0.1231  1.8399
  876MOL0     H20888   3.724   3.798   3.143 -0.4619  0.1115  0.3270
  877MOL0     O20889   9.060   9.071  10.560 -0.9375  0.4784  0.5240
  877MOL0     C20890   9.176   9.070  10.578  0.7900 -0.1906  0.7232
  877MOL0     O20891   9.238   9.104  10.692  0.2352 -0.5125 -0.4067
  877MOL0     C20892   9.155   9.143  10.801 -0.1796  1.0466 -0.4789
  877MOL0     C20893   9.077   9.060  10.878  0.1792 -0.3458  0.3827
  877MOL0     C20894   9.013   9.110  10.987  0.9388 -0.5123 -0.3025
  877MOL0     C20895   9.008   9.243  11.018 -0.8801 -0.5038 -0.1856
  877MOL0     O20896   8.920   9.277  11.116  1.2757  0.1732  0.4317
  877MOL0     C20897   8.877   9.422  11.116 -0.9738 -0.0724  0.4431
  877MOL0     C20898   8.739   9.443  11.162  0.2701  0.4337 -0.9803
  877MOL0     C20899   8.644   9.377  11.059 -0.2638 -0.1043 -0.2647
  877MOL0     C20900   8.497   9.416  11.083 -1.2062  0.4153 -0.1755
  877MOL0     C20901   8.434   9.333  10.974  0.1027  0.3436 -1.0722
  877MOL0     C20902   8.288   9.368  10.985  1.0532  0.8645 -0.6597
  877MOL0     C20903   8.211   9.259  10.903  0.7177  0.0849  0.1559
  877MOL0     C20904   8.050   9.264  10.895 -0.1645 -0.2404 -1.1586
  877MOL0     N20905   7.971   9.381  10.861 -0.3648  0.8968 -0.1593
  877MOL0     C20906   7.952   9.490  10.941  0.3588 -0.0605  0.0053
  877MOL0     C20907   7.854   9.554  10.877 -0.7541  0.4986  0.0084
  877MOL0     C20908   7.780   9.676  10.925  0.2581 -0.3954 -1.4941
  877MOL0     C20909   7.793   9.791  10.826  0.2450 -0.5885  0.5067
  877MOL0     C20910   7.694   9.762  10.723 -0.5553  0.4180  0.0185
  877MOL0     C20911   7.676   9.886  10.644  0.2518 -0.2289 -0.8109
  877MOL0     O20912   7.785   9.969  10.594 -1.2536  0.5683 -0.9987
  877MOL0     C20913   7.764  10.100  10.568  0.8115 -0.1689  0.3689
  877MOL0     C20914   7.868  10.195  10.545  0.2781  0.9781 -0.0006
  877MOL0     C20915   7.851  10.324  10.492  0.5887 -0.4375  0.9081
  877MOL0     C20916   7.981  10.407  10.456  0.2793 -1.6205 -0.5154
  877MOL0     C20917   7.727  10.371  10.477 -0.2333 -0.0188  0.0350
  877MOL0     C20918   7.676  10.496  10.397 -0.6431  0.8002 -0.5168
  877MOL0     O20919   7.544  10.533  10.416  0.4919 -0.7504 -0.1991
  877MOL0     C20920   7.496  10.645  10.352  0.1949 -0.4017  0.1443
  877MOL0     C20921   7.467  10.647  10.210  0.3321 -0.0459  0.1593
  877MOL0     C20922   7.407  10.764  10.147 -0.4414 -0.5972  0.0401
  877MOL0     C20923   7.401  10.884  10.219 -0.1536 -0.0902 -0.6106
  877MOL0     O20924   7.378  10.997  10.152  0.1256 -0.2938  0.0137
  877MOL0     C20925   7.331  11.116  10.222 -1.2239 -0.7283 -0.4294
  877MOL0     C20926   7.213  11.185  10.141 -0.3792  0.3057 -0.1385
  877MOL0     C20927   7.156  11.296  10.223  0.6656  0.2066  0.9636
  877MOL0     C20928   7.065  11.397  10.154  0.3866 -0.5293 -0.4196
  877MOL0     C20929   7.025  11.508  10.251  0.2140  0.4461 -0.4521
  877MOL0     C20930   6.982  11.462  10.391  0.6958 -0.1454  0.5769
  877MOL0     C20931   6.876  11.352  10.411 -0.0404 -0.1362  0.4840
  877MOL0     C20932   6.852  11.324  10.560 -0.4208 -0.5910  0.9694
  877MOL0    Cl20933   6.991  11.207  10.603 -0.0552  0.1261 -0.3105
  877MOL0     C20934   7.443  10.884  10.354 -0.1163 -0.7185 -0.4865
  877MOL0     C20935   7.484  10.767  10.424 -1.2491  0.5076 -0.2750
  877MOL0     O20936   7.765  10.568  10.346  0.4146  0.5337 -0.0403
  877MOL0     C20937   7.627  10.285  10.524  0.6570 -0.0784 -0.5889
  877MOL0     C20938   7.634  10.151  10.567 -0.9205  0.8578 -0.4220
  877MOL0     N20939   7.806   9.478  10.773  0.2455 -0.5834 -0.3558
  877MOL0     N20940   7.884   9.376  10.755 -0.2523 -0.0514  0.0495
  877MOL0     C20941   9.090   9.336  10.953  0.2968 -0.0176 -0.8431
  877MOL0     C20942   9.174   9.272  10.851 -0.0813 -0.6438  0.2801
  877MOL0     C20943   9.258   9.030  10.457  0.4646 -0.7723 -0.9462
  877MOL0     C20944   9.398   9.046  10.473  0.5086  0.6277 -0.1596
  877MOL0     C20945   9.484   9.012  10.377 -0.6991 -0.0939  0.0227
  877MOL0     C20946   9.441   8.960  10.259 -0.5105  0.7281 -0.3219
  877MOL0     O20947   9.526   8.922  10.156  0.0043 -1.0083 -0.2231
  877MOL0     C20948   9.668   8.911  10.184 -0.2823  0.0460 -0.2764
  877MOL0     C20949   9.711   8.801  10.075  0.5845 -0.7574 -0.0960
  877MOL0     C20950   9.857   8.816  10.038 -0.4637  0.8795  1.0117
  877MOL0     C20951   9.893   8.721   9.922  0.4283 -0.2770 -0.1589
  877MOL0     C20952  10.041   8.735   9.904  0.1837  1.2337 -0.0019
  877MOL0     C20953  10.160   8.735   9.888 -0.3550  0.2680  0.2020
  877MOL0     C20954   9.308   8.931  10.235 -0.1774  0.0328 -0.9337
  877MOL0     C20955   9.204   8.969  10.330 -0.8768  0.0463 -0.0070
  877MOL0     C20956   9.063   8.948  10.298  0.3890 -0.6179  0.7662
  877MOL0     H20957   9.073   8.955  10.851 -0.1685 -0.8215  2.2005
  877MOL0     H20958   8.948   9.056  11.056  0.1639  1.8345  0.9586
  877MOL0     H20959   8.889   9.465  11.016  0.3471  0.3314  0.7537
  877MOL0     H20960   8.934   9.471  11.196 -2.0992  0.3815  0.9921
  877MOL0     H20961   8.735   9.402  11.263  0.9594 -0.4609 -1.2945
  877MOL0     H20962   8.730   9.552  11.164  1.3007  0.5114  1.0085
  877MOL0     H20963   8.673   9.408  10.958 -0.8153  3.0950  0.4373
  877MOL0     H20964   8.654   9.269  11.070 -0.2527  0.1424  4.0993
  877MOL0     H20965   8.465   9.389  11.184 -0.6517  1.5835  0.3215
  877MOL0     H20966   8.493   9.525  11.078  2.0312  0.5735 -1.8099
  877MOL0     H20967   8.457   9.227  10.991 -0.1490  0.3552 -0.6524
  877MOL0     H20968   8.472   9.361  10.875  1.5374  2.1991 -0.0626
  877MOL0     H20969   8.243   9.367  11.085  0.2310 -2.4889 -0.9616
  877MOL0     H20970   8.267   9.463  10.935 -6.0285  0.4536  0.5556
  877MOL0     H20971   8.239   9.163  10.947 -1.9463 -0.7149  0.3061
  877MOL0     H20972   8.244   9.272  10.800 -1.2235 -1.5854 -0.7419
  877MOL0     H20973   8.033   9.200  10.808  0.1781 -1.0530 -0.6378
  877MOL0     H20974   8.009   9.224  10.988 -0.6511 -0.1641 -1.3345
  877MOL0     H20975   8.001   9.528  11.030 -0.1796 -0.6917  0.5829
  877MOL0     H20976   7.829   9.708  11.017  0.3481  1.1546 -2.0478
  877MOL0     H20977   7.673   9.661  10.945 -0.6513  4.3397 -1.5089
  877MOL0     H20978   7.769   9.889  10.867 -3.7232 -1.2440  0.1384
  877MOL0     H20979   7.893   9.795  10.781  0.5719 -2.0170  1.0580
  877MOL0     H20980   7.733   9.686  10.654 -2.1891 -1.9636  1.5302
  877MOL0     H20981   7.599   9.736  10.772 -0.5802  1.1320  0.3497
  877MOL0     H20982   7.609   9.864  10.560  1.6907 -0.6949 -1.8950
  877MOL0     H20983   7.617   9.947  10.712 -3.0410 -1.6696 -2.1736
  877MOL0     H20984   7.969  10.158  10.558  1.2373  3.2107 -0.6539
  877MOL0     H20985   8.071  10.347  10.443  1.0652 -0.3282 -1.2774
  877MOL0     H20986   7.995  10.496  10.519 -0.0948 -2.1479  0.3304
  877MOL0     H20987   7.971  10.461  10.361 -1.5409  0.4187  0.7088
  877MOL0     H20988   7.482  10.553  10.158 -1.1011 -1.3428  1.9899
  877MOL0     H20989   7.388  10.757  10.040 -1.8804 -1.7617  0.3495
  877MOL0     H20990   7.302  11.110  10.328 -0.5580 -0.9163 -0.2568
  877MOL0     H20991   7.410  11.191  10.225 -1.6317 -0.2066  3.6063
  877MOL0     H20992   7.249  11.209  10.040  1.2061 -0.9167  0.1021
  877MOL0     H20993   7.141  11.105  10.120  2.5777 -2.7044  0.2945
  877MOL0     H20994   7.248  11.348  10.252  2.0803 -1.3646 -0.4382
  877MOL0     H20995   7.103  11.247  10.305  1.6795  0.5112  1.8291
  877MOL0     H20996   6.969  11.345  10.141 -1.9091  2.8337  1.6014
  877MOL0     H20997   7.101  11.430  10.056 -4.0235  2.4816 -1.3367
  877MOL0     H20998   7.109  11.578  10.255  1.3993 -0.9734  0.1663
  877MOL0     H20999   6.935  11.555  10.211 -1.1282  0.0263  1.8960
  877MOL0     H21000   6.945  11.554  10.438 -0.6975  0.1843 -1.0401
  877MOL0     H21001   7.066  11.414  10.442 -0.2507 -1.4650  0.9552
  877MOL0     H21002   6.896  11.257  10.360  1.0133 -0.8875  2.1867
  877MOL0     H21003   6.782  11.392  10.374 -0.9616 -2.0974  0.5370
  877MOL0     H21004   6.756  11.272  10.565 -1.5366  1.4436  2.8047
  877MOL0     H21005   6.831  11.418  10.613 -0.6036  0.8943 -1.5501
  877MOL0     H21006   7.452  10.977  10.409  3.1582 -0.9952 -0.3746
  877MOL0     H21007   7.516  10.783  10.527 -2.1951  2.6867 -0.2538
  877MOL0     H21008   7.525  10.320  10.517  1.4914  2.3970 -1.5731
  877MOL0     H21009   7.543  10.093  10.579  0.8961 -2.1927 -0.2769
  877MOL0     H21010   9.107   9.441  10.974  3.0813 -0.7165  1.0346
  877MOL0     H21011   9.231   9.337  10.786 -2.1445 -1.5782 -2.6890
  877MOL0     H21012   9.447   9.096  10.556 -0.0560 -0.3849  0.8229
  877MOL0     H21013   9.587   9.032  10.404 -0.5958 -1.6380  0.8770
  877MOL0     H21014   9.703   9.013  10.169  1.5478  0.2791  4.1251
  877MOL0     H21015   9.703   8.879  10.283  1.7864  3.0631  0.1129
  877MOL0     H21016   9.648   8.802   9.986  1.2117  3.4765 -0.7213
  877MOL0     H21017   9.694   8.709  10.131  1.2498 -1.6099 -1.2506
  877MOL0     H21018   9.875   8.920  10.010 -0.4631  0.2970 -1.3352
  877MOL0     H21019   9.925   8.794  10.121  0.4883 -1.2288 -0.2420
  877MOL0     H21020   9.848   8.745   9.825  0.3569 -0.8797 -0.2762
  877MOL0     H21021   9.878   8.616   9.945  0.0735  0.1211  1.5602
  877MOL0     H21022  10.264   8.761   9.886 -0.1132 -0.3860  2.1104
  877MOL0     H21023   9.270   8.900  10.138 -0.9221  0.2139 -0.7039
  877MOL0     H21024   9.017   8.871  10.360 -0.2813  0.2186  1.3192
  877MOL0     H21025   8.998   9.036  10.298  2.3003  0.9183  3.0346
  877MOL0     H21026   9.072   8.908  10.196  2.5442 -0.9240  1.0391
  878MOL0     O21027   3.559   9.203   6.589 -0.2930 -0.0436 -0.2123
  878MOL0     C21028   3.513   9.322   6.568  0.3709  0.7643  0.0081
  878MOL0     O21029   3.461   9.363   6.442 -0.2507  0.3528  0.5953
  878MOL0     C21030   3.499   9.289   6.326  0.9770 -0.0154 -0.1178
  878MOL0     C21031   3.623   9.229   6.300  0.8394  0.1310  0.5373
  878MOL0     C21032   3.654   9.199   6.162 -0.0353 -0.5373 -0.3328
  878MOL0     C21033   3.558   9.211   6.057  1.9292  0.0724 -0.3609
  878MOL0     O21034   3.568   9.173   5.926  0.3438 -0.1947 -0.1858
  878MOL0     C21035   3.685   9.243   5.876 -0.4219 -0.9285  0.2029
  878MOL0     C21036   3.709   9.186   5.734  0.1415 -0.0427  0.3212
  878MOL0     C21037   3.597   9.215   5.641  0.1660 -0.0741 -0.6601
  878MOL0     C21038   3.507   9.088   5.613  1.0469 -0.0803 -0.5307
  878MOL0     C21039   3.404   9.131   5.517  0.1363  0.3602  0.5311
  878MOL0     C21040   3.318   9.005   5.475  1.0586 -0.2768 -0.3982
  878MOL0     C21041   3.180   9.041   5.411 -0.3989 -0.0343  0.3148
  878MOL0     C21042   3.199   9.063   5.257  0.0075 -0.2821 -0.4892
  878MOL0     N21043   3.070   9.070   5.186 -0.3539  0.2699  0.1957
  878MOL0     C21044   3.025   8.972   5.103  0.9914  0.0102  0.6890
  878MOL0     C21045   2.910   9.023   5.050 -0.1784 -0.5166 -0.9355
  878MOL0     C21046   2.808   8.953   4.975  0.4425  0.0720  0.2016
  878MOL0     C21047   2.669   9.019   4.945 -0.7498  0.5438  0.0036
  878MOL0     C21048   2.582   9.029   5.072 -0.5750  0.5169 -0.1766
  878MOL0     C21049   2.441   9.082   5.052  0.0873  0.5629  1.0125
  878MOL0     O21050   2.347   8.991   4.990  0.2007  0.2044 -0.1759
  878MOL0     C21051   2.212   9.033   4.983  0.4090 -0.0440  0.5801
  878MOL0     C21052   2.123   8.932   4.943 -0.2818 -0.4742  0.7955
  878MOL0     C21053   1.992   8.964   4.894  1.3726  0.1305 -1.2207
  878MOL0     C21054   1.911   8.857   4.813  0.5489  0.1090 -0.3869
  878MOL0     C21055   1.944   9.106   4.917 -0.4772 -0.6628 -0.2328
  878MOL0     C21056   1.806   9.147   4.895  0.1592 -0.0716 -0.7825
  878MOL0     O21057   1.758   9.244   4.980  0.5396  0.4980 -0.5024
  878MOL0     C21058   1.626   9.275   4.970 -0.9099 -0.4284  0.7975
  878MOL0     C21059   1.594   9.414   4.945 -0.1820 -0.2668  1.7573
  878MOL0     C21060   1.470   9.465   4.988  0.2351 -0.5344  0.4691
  878MOL0     C21061   1.369   9.373   5.025 -0.7026  0.2025  0.3273
  878MOL0     O21062   1.253   9.426   5.079 -0.5544  0.0039 -0.1811
  878MOL0     C21063   1.149   9.346   5.134 -0.9880 -0.1496  0.4247
  878MOL0     C21064   1.011   9.425   5.116 -0.4138 -0.2075  0.4294
  878MOL0     C21065   0.894   9.374   5.204  0.2443 -0.1233 -0.0777
  878MOL0     C21066   0.921   9.366   5.357 -0.1328  0.0282 -0.4305
  878MOL0     C21067   0.808   9.308   5.445  1.8943  0.4140 -0.7157
  878MOL0     C21068   0.795   9.159   5.446 -0.2256 -0.4202 -0.3586
  878MOL0     C21069   0.658   9.113   5.499  0.8729  0.2120 -0.1290
  878MOL0     C21070   0.646   8.955   5.496  0.6278 -0.9540  0.8830
  878MOL0    Cl21071   0.713   8.877   5.644  0.3215  0.3460  0.6327
  878MOL0     C21072   1.392   9.240   5.028 -0.3442 -0.8448 -0.0942
  878MOL0     C21073   1.522   9.182   5.007  0.9755  0.0167  0.3126
  878MOL0     O21074   1.738   9.090   4.809 -0.1433 -0.2096 -1.4379
  878MOL0     C21075   2.036   9.204   4.965 -0.3826 -0.6879 -0.5803
  878MOL0     C21076   2.170   9.169   4.997 -0.1194  0.3291 -1.0894
  878MOL0     N21077   2.885   9.156   5.106 -0.8836  0.8539 -0.6604
  878MOL0     N21078   2.990   9.186   5.174 -0.5683 -0.2878 -0.1078
  878MOL0     C21079   3.426   9.256   6.091  0.6773 -0.2095 -0.5688
  878MOL0     C21080   3.401   9.301   6.220  0.8445  0.1084 -0.6946
  878MOL0     C21081   3.484   9.411   6.688  0.7338 -0.0938 -0.3735
  878MOL0     C21082   3.465   9.351   6.812 -0.1279  0.0834  1.1236
  878MOL0     C21083   3.411   9.429   6.913 -0.0455 -0.3940 -0.8632
  878MOL0     C21084   3.389   9.572   6.906  0.1303 -0.0607 -0.9663
  878MOL0     O21085   3.309   9.634   7.006  0.5072 -0.4368  0.7543
  878MOL0     C21086   3.175   9.684   6.972 -0.1977  0.1364  0.8804
  878MOL0     C21087   3.168   9.826   6.911 -0.0746 -0.1101  0.5152
  878MOL0     C21088   3.269   9.925   6.989 -0.1223  0.3338 -0.1864
  878MOL0     C21089   3.279  10.070   6.943  0.3778 -0.8478  0.2765
  878MOL0     C21090   3.178  10.169   6.974 -0.5558 -0.2332  0.4464
  878MOL0     C21091   3.105  10.256   6.999  0.2364  0.7951 -0.9395
  878MOL0     C21092   3.403   9.627   6.781 -0.8739 -0.3480 -0.6481
  878MOL0     C21093   3.454   9.553   6.673 -0.3035  0.0130  1.2170
  878MOL0     C21094   3.485   9.622   6.536 -0.1208 -0.3277 -0.8416
  878MOL0     H21095   3.709   9.233   6.366  0.7954  0.6148  0.5686
  878MOL0     H21096   3.755   9.169   6.135 -0.2117 -1.6688  0.1943
  878MOL0     H21097   3.777   9.232   5.934  2.5729 -0.5494 -4.0066
  878MOL0     H21098   3.663   9.350   5.867  1.3851 -0.0293  4.1431
  878MOL0     H21099   3.811   9.190   5.695 -0.4907 -1.0570 -1.5505
  878MOL0     H21100   3.700   9.078   5.751  0.6716 -0.4294 -1.5787
  878MOL0     H21101   3.548   9.305   5.679  0.7118  2.4756 -5.2903
  878MOL0     H21102   3.644   9.238   5.545 -3.8988 -1.1383 -3.1428
  878MOL0     H21103   3.561   8.997   5.584  2.0925  0.1935  0.4669
  878MOL0     H21104   3.445   9.062   5.699 -0.9802 -0.3241 -2.0065
  878MOL0     H21105   3.446   9.172   5.425 -0.5839  0.0815  0.0742
  878MOL0     H21106   3.336   9.202   5.567 -1.7101 -0.4933 -0.6401
  878MOL0     H21107   3.378   8.941   5.409 -0.8184 -0.3218 -2.1600
  878MOL0     H21108   3.291   8.941   5.560 -0.6752 -0.6958 -1.2303
  878MOL0     H21109   3.148   9.129   5.466  3.5926 -0.3632  3.5957
  878MOL0     H21110   3.111   8.955   5.413 -0.8742  0.3270 -0.1854
  878MOL0     H21111   3.263   9.151   5.242  0.4569 -1.0100 -3.8727
  878MOL0     H21112   3.255   8.978   5.218  2.8086 -0.0924  2.6892
  878MOL0     H21113   3.061   8.870   5.092 -0.9748 -0.8031  1.3084
  878MOL0     H21114   2.789   8.861   5.031 -1.8977 -0.8458 -1.9002
  878MOL0     H21115   2.848   8.923   4.878 -1.3255  0.6616 -0.7652
  878MOL0     H21116   2.707   9.108   4.894  5.0351 -3.1489 -3.2191
  878MOL0     H21117   2.620   8.969   4.860  2.0086 -0.4201 -1.1383
  878MOL0     H21118   2.571   8.932   5.120  0.7849  0.1587 -0.5365
  878MOL0     H21119   2.637   9.096   5.139  1.3013 -1.6132  0.5123
  878MOL0     H21120   2.412   9.085   5.157  2.2402 -1.2046  1.7518
  878MOL0     H21121   2.435   9.183   5.009 -2.1015 -0.4534 -1.3501
  878MOL0     H21122   2.167   8.833   4.936  3.1523  1.0326 -1.0743
  878MOL0     H21123   1.808   8.847   4.851 -0.0790  2.5359 -1.3146
  878MOL0     H21124   1.967   8.763   4.814  0.2783 -0.0973 -2.1743
  878MOL0     H21125   1.908   8.876   4.706  0.3408  1.1016 -0.2170
  878MOL0     H21126   1.672   9.487   4.927 -1.8155  1.5780  1.8788
  878MOL0     H21127   1.443   9.569   5.003  0.4873 -0.4157  0.1197
  878MOL0     H21128   1.133   9.255   5.075 -0.5418  0.2163 -0.2628
  878MOL0     H21129   1.176   9.327   5.239  0.4140 -0.7469 -0.0215
  878MOL0     H21130   1.024   9.533   5.133 -1.4533  0.0606 -0.3295
  878MOL0     H21131   0.979   9.413   5.012  0.3243 -2.1584  0.3845
  878MOL0     H21132   0.888   9.274   5.160  2.5306  0.9355 -3.2353
  878MOL0     H21133   0.806   9.439   5.201  1.1173  1.2496  1.8444
  878MOL0     H21134   0.931   9.469   5.393 -0.8941 -0.4784  1.3363
  878MOL0     H21135   1.011   9.305   5.372 -0.5157 -0.0976  1.6169
  878MOL0     H21136   0.821   9.332   5.551 -1.5173 -0.6740  0.1034
  878MOL0     H21137   0.714   9.356   5.414  1.6873  3.7255  4.0223
  878MOL0     H21138   0.872   9.108   5.505  1.9349 -1.7632 -4.0460
  878MOL0     H21139   0.796   9.122   5.344  2.0247  1.1087 -0.9825
  878MOL0     H21140   0.575   9.147   5.436  0.1663 -1.3850 -0.0971
  878MOL0     H21141   0.637   9.137   5.603  2.8755  0.8905  0.1592
  878MOL0     H21142   0.697   8.908   5.411  1.3570 -0.0812  0.8167
  878MOL0     H21143   0.537   8.955   5.490  0.6941 -0.5198 -1.7340
  878MOL0     H21144   1.319   9.162   5.044  0.2204 -1.2990  0.3297
  878MOL0     H21145   1.525   9.074   4.994  0.6229  0.1949 -1.4210
  878MOL0     H21146   1.998   9.306   4.967 -3.9771 -1.7024 -4.1459
  878MOL0     H21147   2.238   9.245   5.034 -1.1694  0.9558 -0.3879
  878MOL0     H21148   3.351   9.268   6.013 -1.2368 -0.7955  1.0993
  878MOL0     H21149   3.308   9.351   6.242 -0.1710 -1.7424 -0.5701
  878MOL0     H21150   3.486   9.246   6.828  3.7976  0.1632 -1.8584
  878MOL0     H21151   3.382   9.393   7.012 -2.1142  1.6261 -0.6584
  878MOL0     H21152   3.129   9.607   6.909  1.9734  1.0665 -2.0271
  878MOL0     H21153   3.129   9.687   7.071  0.0722  0.6780  0.9921
  878MOL0     H21154   3.066   9.863   6.919  0.6715  1.8006  2.0235
  878MOL0     H21155   3.186   9.821   6.803 -1.9355 -0.6392  0.1987
  878MOL0     H21156   3.241   9.921   7.094 -0.6072 -1.7759 -0.3460
  878MOL0     H21157   3.365   9.875   6.968  1.2991  3.3954 -1.6641
  878MOL0     H21158   3.281  10.073   6.834 -2.8794  3.0560  0.0865
  878MOL0     H21159   3.379  10.099   6.977  0.9848 -2.6075  0.0968
  878MOL0     H21160   3.024  10.324   7.018  0.0073  0.1024  0.7210
  878MOL0     H21161   3.395   9.735   6.788 -0.3631 -0.3385  5.5444
  878MOL0     H21162   3.584   9.584   6.510  0.0759 -0.2990 -0.1386
  878MOL0     H21163   3.416   9.603   6.452  1.1584 -0.4370 -1.9023
  878MOL0     H21164   3.492   9.730   6.555  0.2351 -0.6995  1.3206
  879MOL0     O21165   6.860   2.626   6.024  0.8509  0.8924 -0.2263
  879MOL0     C21166   6.822   2.568   6.122  0.0310  0.8172 -0.9091
  879MOL0     O21167   6.883   2.585   6.242 -0.3439 -0.5746 -0.5750
  879MOL0     C21168   7.000   2.655   6.237  0.4961 -1.0986 -1.0981
  879MOL0     C21169   7.119   2.586   6.218  0.2699  0.0010  0.4105
  879MOL0     C21170   7.241   2.652   6.225 -0.0393  0.6072  0.8033
  879MOL0     C21171   7.245   2.788   6.250  0.1165  0.1145 -0.2573
  879MOL0     O21172   7.370   2.842   6.256  0.9359  0.6752 -0.1539
  879MOL0     C21173   7.397   2.967   6.321 -0.1710  0.5241  0.0768
  879MOL0     C21174   7.539   3.026   6.321  0.0513  0.4653 -0.0472
  879MOL0     C21175   7.602   3.010   6.184  0.2563 -0.1570 -0.2140
  879MOL0     C21176   7.715   3.116   6.180  0.2327 -0.0514  0.4331
  879MOL0     C21177   7.822   3.099   6.066  0.9968 -0.2936  0.3132
  879MOL0     C21178   7.935   2.989   6.078  0.9164  0.1551  0.7423
  879MOL0     C21179   8.033   3.004   6.187  0.8852  0.1175 -0.2363
  879MOL0     C21180   8.146   3.109   6.164  0.0235  0.5472 -0.2022
  879MOL0     N21181   8.279   3.060   6.187 -0.6381  0.7960  0.5900
  879MOL0     C21182   8.370   3.049   6.087 -0.7552  0.7098  0.3036
  879MOL0     C21183   8.464   2.976   6.144 -0.1030  0.6310  0.2393
  879MOL0     C21184   8.584   2.942   6.067  0.2501  0.3883 -0.2314
  879MOL0     C21185   8.554   2.827   5.971 -1.0598 -0.0549  0.7714
  879MOL0     C21186   8.686   2.754   5.918 -0.3669 -0.4863  0.4984
  879MOL0     C21187   8.803   2.855   5.889  0.1386  0.1599 -1.3635
  879MOL0     O21188   8.913   2.806   5.813  0.3339  0.0278  0.3630
  879MOL0     C21189   8.957   2.675   5.843  0.1062  0.9831  0.6736
  879MOL0     C21190   8.960   2.582   5.734  1.2262 -0.6564 -0.7493
  879MOL0     C21191   9.011   2.450   5.747  0.5917 -0.2384 -0.6539
  879MOL0     C21192   8.977   2.353   5.632  0.4868  0.0653  0.1215
  879MOL0     C21193   9.052   2.402   5.873  1.0937  0.2491 -0.2214
  879MOL0     C21194   9.092   2.255   5.891 -0.1379  0.5451  1.0449
  879MOL0     O21195   9.057   2.196   6.008  0.1464 -0.8001  0.6046
  879MOL0     C21196   9.103   2.072   6.036 -0.6877 -0.1356 -0.3951
  879MOL0     C21197   9.239   2.047   6.085 -0.0003  0.5613  0.0562
  879MOL0     C21198   9.279   1.915   6.113 -0.1292  0.0501  0.1152
  879MOL0     C21199   9.194   1.807   6.093 -0.5073 -0.2643  1.2570
  879MOL0     O21200   9.233   1.686   6.134 -0.0547  1.0946  0.5267
  879MOL0     C21201   9.199   1.658   6.272 -1.0056 -0.3000  0.5693
  879MOL0     C21202   9.314   1.695   6.356  0.2156 -0.6967 -0.0009
  879MOL0     C21203   9.324   1.625   6.495 -0.6223 -0.4984  0.5241
  879MOL0     C21204   9.462   1.637   6.569  0.6926  1.1905 -0.8854
  879MOL0     C21205   9.468   1.531   6.687 -0.0567 -0.3376  0.3600
  879MOL0     C21206   9.375   1.568   6.814  0.2108 -1.2285 -0.4287
  879MOL0     C21207   9.360   1.460   6.926 -0.4437 -0.1456  1.0267
  879MOL0     C21208   9.288   1.501   7.039 -0.4210 -0.0904 -0.0053
  879MOL0    Cl21209   9.112   1.511   7.004 -0.1361 -0.1041 -0.0245
  879MOL0     C21210   9.071   1.831   6.034 -0.3857  0.5203 -0.0132
  879MOL0     C21211   9.027   1.961   6.009  0.2980 -0.1791  0.1900
  879MOL0     O21212   9.150   2.207   5.798 -0.1083 -0.1050 -0.0692
  879MOL0     C21213   9.063   2.500   5.972  0.3464  0.2808  0.4474
  879MOL0     C21214   9.020   2.636   5.959 -0.5605  0.8259 -0.1738
  879MOL0     N21215   8.444   2.965   6.279  0.6180 -0.6581 -0.0671
  879MOL0     N21216   8.324   3.005   6.305  0.1390 -0.5850  0.3182
  879MOL0     C21217   7.127   2.861   6.258 -0.1424 -0.8595  0.6106
  879MOL0     C21218   7.003   2.793   6.256 -0.6709 -1.0261 -0.1034
  879MOL0     C21219   6.716   2.476   6.108  0.9404  0.1550  0.2888
  879MOL0     C21220   6.598   2.529   6.048  0.4164  0.0077 -0.3241
  879MOL0     C21221   6.474   2.457   6.058  0.2967 -0.0497 -0.1204
  879MOL0     C21222   6.460   2.341   6.125 -0.8089  1.3480 -0.6710
  879MOL0     O21223   6.345   2.261   6.132 -0.2068  0.8071  0.2311
  879MOL0     C21224   6.257   2.257   6.019 -0.3698 -0.4327  0.1975
  879MOL0     C21225   6.323   2.197   5.900  0.1258 -0.2360 -0.2611
  879MOL0     C21226   6.251   2.238   5.766 -0.0305 -0.1139 -0.4907
  879MOL0     C21227   6.319   2.362   5.712 -0.2975  1.1042  0.0651
  879MOL0     C21228   6.244   2.409   5.590 -0.9502  0.3595 -0.0038
  879MOL0     C21229   6.212   2.415   5.473 -0.3593 -0.0886  0.1140
  879MOL0     C21230   6.576   2.284   6.182 -0.2037  0.1546 -1.0303
  879MOL0     C21231   6.703   2.354   6.179 -0.2582 -0.7285 -0.1858
  879MOL0     C21232   6.811   2.267   6.238  0.4925  0.7593  0.6605
  879MOL0     H21233   7.109   2.481   6.193  3.5812 -0.3154 -0.0637
  879MOL0     H21234   7.336   2.600   6.221 -2.5729 -4.6030 -0.0184
  879MOL0     H21235   7.362   2.955   6.424  0.2646  1.7879  0.3845
  879MOL0     H21236   7.336   3.051   6.287 -0.0130  0.1229 -1.2703
  879MOL0     H21237   7.546   3.124   6.369 -1.0961  0.9229 -0.7527
  879MOL0     H21238   7.605   2.972   6.390  0.9596  0.5960 -0.7931
  879MOL0     H21239   7.645   2.913   6.159  0.9536 -0.1844  1.0263
  879MOL0     H21240   7.534   3.048   6.107  0.8050 -2.7707 -2.1033
  879MOL0     H21241   7.677   3.217   6.160 -1.5807 -1.0422 -1.4847
  879MOL0     H21242   7.760   3.123   6.280 -2.4953 -0.8772  1.8066
  879MOL0     H21243   7.867   3.198   6.053  1.3812 -0.3079  1.4383
  879MOL0     H21244   7.768   3.089   5.972  2.0533 -0.6899 -0.2640
  879MOL0     H21245   7.881   2.894   6.086  0.2123  0.6199  1.6467
  879MOL0     H21246   7.989   2.987   5.983  0.3550  2.0694  0.3567
  879MOL0     H21247   8.083   2.909   6.210 -1.5848 -1.1239  0.2961
  879MOL0     H21248   7.975   3.037   6.274  0.1769  2.5522 -1.5418
  879MOL0     H21249   8.135   3.144   6.061 -1.3772 -1.1536 -0.6991
  879MOL0     H21250   8.140   3.190   6.237 -0.8246 -1.1912  1.7637
  879MOL0     H21251   8.367   3.074   5.981  2.2911 -1.8550 -0.5502
  879MOL0     H21252   8.662   2.918   6.140  1.1094  0.9434 -0.9605
  879MOL0     H21253   8.609   3.030   6.008  0.5683 -0.0161 -0.7096
  879MOL0     H21254   8.474   2.758   5.999 -0.0006 -3.0167 -2.7563
  879MOL0     H21255   8.504   2.872   5.884 -0.3720  1.5620  1.1783
  879MOL0     H21256   8.712   2.677   5.992 -0.8134 -1.4975 -0.3632
  879MOL0     H21257   8.647   2.699   5.832 -2.0062 -0.9478  1.4831
  879MOL0     H21258   8.762   2.948   5.849 -0.4699  2.1136  3.1696
  879MOL0     H21259   8.840   2.888   5.986 -2.3595  1.0826 -0.6234
  879MOL0     H21260   8.911   2.632   5.651 -2.0651  0.4275  1.6305
  879MOL0     H21261   8.912   2.270   5.664 -1.6281  2.3524  2.2501
  879MOL0     H21262   9.074   2.319   5.595 -0.0857 -3.1637  1.2501
  879MOL0     H21263   8.926   2.412   5.555  0.1444 -4.1760 -3.2889
  879MOL0     H21264   9.310   2.128   6.097 -0.8494  1.4115 -0.5147
  879MOL0     H21265   9.377   1.903   6.157 -0.2131 -2.7672 -0.2753
  879MOL0     H21266   9.115   1.726   6.289 -0.5004  0.2074  1.0712
  879MOL0     H21267   9.182   1.550   6.285 -0.3820 -0.4206  0.3697
  879MOL0     H21268   9.411   1.678   6.308  1.1213 -2.5781  2.2856
  879MOL0     H21269   9.310   1.803   6.375  1.8007 -0.9886  2.4746
  879MOL0     H21270   9.301   1.520   6.474 -3.5364  0.4574 -1.7929
  879MOL0     H21271   9.239   1.661   6.555 -0.9348  0.4946 -0.4643
  879MOL0     H21272   9.479   1.739   6.604  0.4091  0.2366  2.4282
  879MOL0     H21273   9.537   1.608   6.495 -0.3293 -2.3327 -0.7357
  879MOL0     H21274   9.443   1.431   6.649 -1.2747  0.1685 -0.2498
  879MOL0     H21275   9.572   1.533   6.719  0.7272 -0.3141 -1.9785
  879MOL0     H21276   9.275   1.596   6.779  0.3153  0.9576  0.8658
  879MOL0     H21277   9.410   1.652   6.874  1.3294 -0.4135 -2.1189
  879MOL0     H21278   9.456   1.420   6.958 -0.0878  1.1416  1.6763
  879MOL0     H21279   9.311   1.374   6.879 -2.0038  0.0159  2.2532
  879MOL0     H21280   9.320   1.601   7.069 -4.3651  0.7619  2.0845
  879MOL0     H21281   9.305   1.435   7.124 -1.4364  1.5368  1.5326
  879MOL0     H21282   9.001   1.749   6.020  0.6718 -0.3648 -0.2466
  879MOL0     H21283   8.925   1.964   5.971  0.7059  3.0167 -0.9376
  879MOL0     H21284   9.103   2.475   6.070 -0.5142  2.2534  1.3632
  879MOL0     H21285   9.031   2.709   6.038  5.2181  3.5173 -2.9221
  879MOL0     H21286   7.128   2.967   6.279 -2.5286 -0.3039 -1.5244
  879MOL0     H21287   6.910   2.848   6.263  0.0300 -0.0405  3.0922
  879MOL0     H21288   6.609   2.624   5.998 -1.8399  1.3586  1.5526
  879MOL0     H21289   6.382   2.502   6.023 -0.6318 -1.0031  1.0303
  879MOL0     H21290   6.164   2.201   6.034 -0.2599 -1.1318 -1.5233
  879MOL0     H21291   6.230   2.360   5.997  2.2232  0.0173 -1.2611
  879MOL0     H21292   6.323   2.089   5.913  4.9170 -0.6155 -1.4788
  879MOL0     H21293   6.428   2.225   5.891 -0.1702  0.5767 -1.5436
  879MOL0     H21294   6.270   2.152   5.701 -1.6252  0.0605 -1.2306
  879MOL0     H21295   6.142   2.244   5.776 -0.4905 -1.1684 -3.7158
  879MOL0     H21296   6.424   2.336   5.696 -0.0111  1.8304  0.6865
  879MOL0     H21297   6.309   2.447   5.781 -0.3655  1.2011 -0.0650
  879MOL0     H21298   6.170   2.417   5.375  1.7450 -3.1172 -0.9990
  879MOL0     H21299   6.569   2.185   6.224  0.5887  0.1183 -0.9723
  879MOL0     H21300   6.771   2.166   6.226 -1.8921  1.3497  2.8212
  879MOL0     H21301   6.895   2.261   6.168  0.3422  2.4158  0.2884
  879MOL0     H21302   6.844   2.297   6.338 -0.8552  1.0017  1.0500
  880MOL0     O21303  10.612   0.824   4.766 -0.7998 -0.9030 -0.2441
  880MOL0     C21304  10.504   0.860   4.811 -0.1527  0.0709  0.6907
  880MOL0     O21305  10.479   0.972   4.887  0.3059 -0.2237  0.2589
  880MOL0     C21306  10.590   1.026   4.944 -0.1350 -0.2081 -0.4253
  880MOL0     C21307  10.664   0.947   5.034  0.3772  0.1237  0.8207
  880MOL0     C21308  10.773   1.005   5.098  0.3459  0.6661  0.4356
  880MOL0     C21309  10.806   1.144   5.073  0.7274 -0.2165 -1.0029
  880MOL0     O21310  10.919   1.194   5.123  0.0598  0.6363  0.5866
  880MOL0     C21311  10.909   1.322   5.195 -0.1076 -0.1307 -0.1275
  880MOL0     C21312  10.828   1.319   5.328 -0.3644  0.1079 -0.3705
  880MOL0     C21313  10.831   1.181   5.392  0.6380 -0.1750 -0.0985
  880MOL0     C21314  10.818   1.195   5.549  0.1712  0.3430  1.1465
  880MOL0     C21315  10.781   1.077   5.637 -0.1838  0.6120 -0.0338
  880MOL0     C21316  10.789   1.116   5.788  0.1371 -0.1833  0.1330
  880MOL0     C21317  10.756   0.988   5.883  0.0534 -0.3912  0.3068
  880MOL0     C21318  10.719   1.012   6.029 -0.6146  0.2458 -0.3781
  880MOL0     N21319  10.808   1.104   6.094 -0.1355  0.2672 -0.9263
  880MOL0     C21320  10.868   1.080   6.211 -0.0266  0.1426  0.6528
  880MOL0     C21321  10.919   1.194   6.258 -1.0092  0.1614  0.0297
  880MOL0     C21322  10.976   1.222   6.398 -0.4536 -0.3283  0.6499
  880MOL0     C21323  11.015   1.372   6.413 -0.7625 -0.3009  1.1291
  880MOL0     C21324  10.987   1.415   6.562  0.8504  0.0521  0.6010
  880MOL0     C21325  11.015   1.564   6.572 -0.1088  0.4319  0.4441
  880MOL0     O21326  10.985   1.588   6.707  0.8252 -0.8578  0.5374
  880MOL0     C21327  11.054   1.687   6.777 -1.6617  0.2600 -0.3323
  880MOL0     C21328  11.065   1.698   6.921  0.2452  0.5002 -0.6392
  880MOL0     C21329  11.142   1.799   6.987 -0.4521 -0.0420 -0.1468
  880MOL0     C21330  11.153   1.779   7.135  0.8519  0.3089  0.4707
  880MOL0     C21331  11.184   1.905   6.910 -0.6221 -0.5603 -0.4182
  880MOL0     C21332  11.235   2.031   6.969  0.4092  0.4706  0.3909
  880MOL0     O21333  11.361   2.079   6.953  0.5006  0.3940 -0.4105
  880MOL0     C21334  11.457   1.999   6.898 -0.0006  1.0136 -0.6717
  880MOL0     C21335  11.513   1.900   6.985 -0.4946 -0.0944  0.6442
  880MOL0     C21336  11.616   1.818   6.933 -0.7468  0.7155  0.2474
  880MOL0     C21337  11.654   1.828   6.796  0.0048 -0.6994  0.6483
  880MOL0     O21338  11.754   1.771   6.733  0.7186 -0.3880  0.4905
  880MOL0     C21339  11.882   1.755   6.790  0.9284  0.1314  0.9730
  880MOL0     C21340  11.977   1.873   6.771 -0.2920 -0.7710  0.4845
  880MOL0     C21341  12.028   1.887   6.630 -0.4529 -0.2447  0.4211
  880MOL0     C21342  12.097   2.021   6.600  0.7879 -0.1636  0.4101
  880MOL0     C21343  12.190   2.016   6.470 -1.5758 -0.4104 -0.3690
  880MOL0     C21344  12.264   2.155   6.455 -0.3577  0.5007  0.4007
  880MOL0     C21345  12.404   2.151   6.392 -0.3051 -0.5069  0.4847
  880MOL0     C21346  12.468   2.291   6.367  0.7259  0.7036 -0.8502
  880MOL0    Cl21347  12.652   2.287   6.351  0.7541 -0.2787  0.3318
  880MOL0     C21348  11.595   1.923   6.714 -0.1785  0.0655 -0.3533
  880MOL0     C21349  11.495   2.009   6.764  0.2137  0.0462  0.0602
  880MOL0     O21350  11.151   2.084   7.038 -0.0534  0.6205  0.8139
  880MOL0     C21351  11.180   1.902   6.776  0.2602 -0.5693  0.4687
  880MOL0     C21352  11.109   1.798   6.708  0.1944 -0.1088 -0.6565
  880MOL0     N21353  10.879   1.288   6.165  0.6252  0.3984  0.7313
  880MOL0     N21354  10.831   1.230   6.061 -0.3526  1.4145  1.5164
  880MOL0     C21355  10.725   1.222   4.984 -0.5013  0.2772 -0.1174
  880MOL0     C21356  10.617   1.159   4.917 -0.6531 -0.2357  0.0025
  880MOL0     C21357  10.385   0.771   4.779 -0.3957  0.5555  0.9521
  880MOL0     C21358  10.410   0.645   4.724  0.8265  0.6624  0.5788
  880MOL0     C21359  10.315   0.553   4.680  0.5121 -0.1296  1.5147
  880MOL0     C21360  10.181   0.583   4.692  0.2379  0.3340  0.0076
  880MOL0     O21361  10.081   0.484   4.668  0.0061 -1.2367  0.3135
  880MOL0     C21362   9.943   0.523   4.685  0.2575 -0.2267  0.2974
  880MOL0     C21363   9.882   0.393   4.656 -0.3156 -0.3291  0.8216
  880MOL0     C21364   9.892   0.372   4.509  0.5906  0.0967  0.2626
  880MOL0     C21365   9.905   0.229   4.487 -0.8066  0.4084  0.0810
  880MOL0     C21366   9.923   0.187   4.342  0.4280 -0.1506  0.6753
  880MOL0     C21367   9.952   0.150   4.231  0.7131 -0.8861 -0.1731
  880MOL0     C21368  10.148   0.710   4.750  0.1643  0.4329  0.1445
  880MOL0     C21369  10.248   0.809   4.775  0.0507 -0.5427  0.6400
  880MOL0     C21370  10.191   0.942   4.814 -0.5042 -0.5337 -0.2163
  880MOL0     H21371  10.632   0.844   5.043  0.3286  0.2266  2.0219
  880MOL0     H21372  10.835   0.933   5.151  1.1100  0.1287 -1.1172
  880MOL0     H21373  10.891   1.407   5.130 -0.1837  1.1530  1.5087
  880MOL0     H21374  11.008   1.354   5.228  0.6138 -0.2932 -2.0181
  880MOL0     H21375  10.869   1.394   5.396 -1.4487 -1.5097  2.2753
  880MOL0     H21376  10.722   1.336   5.304 -0.6195 -1.7348 -0.7872
  880MOL0     H21377  10.746   1.120   5.362 -1.2490  0.3546  3.6344
  880MOL0     H21378  10.924   1.126   5.372  0.3652 -0.9950  0.8057
  880MOL0     H21379  10.921   1.220   5.576  0.8178  0.3760 -1.0767
  880MOL0     H21380  10.746   1.275   5.569 -0.1529 -0.1856  2.1464
  880MOL0     H21381  10.852   0.994   5.624  1.5924  1.9049  0.8757
  880MOL0     H21382  10.680   1.050   5.607  0.2675 -0.2416 -0.8411
  880MOL0     H21383  10.889   1.158   5.799 -0.6345  1.7310  0.2402
  880MOL0     H21384  10.710   1.189   5.808  0.4346 -0.1939  1.4627
  880MOL0     H21385  10.845   0.925   5.880  1.8202  1.9986 -1.1665
  880MOL0     H21386  10.689   0.919   5.831  0.1280 -0.8614  0.8251
  880MOL0     H21387  10.622   1.061   6.037 -0.6312  0.0967  0.3465
  880MOL0     H21388  10.717   0.923   6.093 -0.6868  2.1597  2.4344
  880MOL0     H21389  10.861   0.982   6.257  1.5129  0.1502  0.9653
  880MOL0     H21390  11.058   1.156   6.428 -0.6924 -1.3017 -0.7269
  880MOL0     H21391  10.884   1.213   6.457 -0.9945 -2.9759 -0.4682
  880MOL0     H21392  11.123   1.382   6.397 -0.8099 -1.6183 -0.2750
  880MOL0     H21393  10.965   1.448   6.352 -2.5147 -1.8344  0.5684
  880MOL0     H21394  10.884   1.390   6.589  1.3645 -2.3174  0.5918
  880MOL0     H21395  11.047   1.369   6.641 -0.2086 -0.2205  1.2614
  880MOL0     H21396  11.119   1.591   6.550 -0.6605  0.5414 -2.4518
  880MOL0     H21397  10.953   1.629   6.509  0.0200 -1.8341 -2.1969
  880MOL0     H21398  11.011   1.618   6.971  0.6769 -1.0191 -2.4613
  880MOL0     H21399  11.176   1.673   7.151 -2.5949 -1.6510 -4.7520
  880MOL0     H21400  11.055   1.801   7.179  0.4322 -0.6904  0.0671
  880MOL0     H21401  11.223   1.851   7.179 -1.2756  2.1135  1.1076
  880MOL0     H21402  11.475   1.886   7.085 -1.1784 -1.6820  0.1981
  880MOL0     H21403  11.655   1.745   7.002  0.7403 -0.8771 -2.1184
  880MOL0     H21404  11.884   1.712   6.891 -1.5502 -2.1792  0.1604
  880MOL0     H21405  11.914   1.677   6.720 -1.1920  0.3053 -0.2612
  880MOL0     H21406  11.927   1.966   6.799  0.7592 -0.7798  2.5944
  880MOL0     H21407  12.064   1.864   6.838  1.7054  0.8793 -1.7055
  880MOL0     H21408  11.945   1.868   6.561 -1.6812  2.3949  1.0345
  880MOL0     H21409  12.098   1.807   6.604 -0.1182  0.0725  0.3395
  880MOL0     H21410  12.165   2.050   6.680  0.0975  1.6702  0.3837
  880MOL0     H21411  12.023   2.100   6.580  3.5576  2.0919 -1.8399
  880MOL0     H21412  12.264   1.936   6.478  0.2552  1.3642  1.8199
  880MOL0     H21413  12.128   1.992   6.383  2.5081 -1.5346 -3.3221
  880MOL0     H21414  12.271   2.214   6.546  0.9206  0.9901  0.0072
  880MOL0     H21415  12.193   2.212   6.395 -0.3394 -1.4161 -1.5915
  880MOL0     H21416  12.415   2.101   6.295 -0.1682  2.3786 -1.0950
  880MOL0     H21417  12.477   2.092   6.448  2.1519  0.1969 -1.7632
  880MOL0     H21418  12.457   2.349   6.459 -0.6662  1.1455 -1.2697
  880MOL0     H21419  12.430   2.336   6.274 -0.8884 -2.8638 -2.0744
  880MOL0     H21420  11.636   1.934   6.614 -0.2653 -1.6455 -0.5943
  880MOL0     H21421  11.460   2.090   6.700 -1.0522 -2.5334 -2.8101
  880MOL0     H21422  11.205   1.989   6.715 -2.3861  0.3162  0.4999
  880MOL0     H21423  11.113   1.808   6.600  3.0368 -1.1737 -0.7357
  880MOL0     H21424  10.729   1.330   4.969 -0.9434 -0.0554 -3.2353
  880MOL0     H21425  10.541   1.221   4.872 -0.6184  0.2772  0.6354
  880MOL0     H21426  10.512   0.611   4.711  0.7962  1.4112 -2.6915
  880MOL0     H21427  10.336   0.459   4.630  0.1940  1.4647 -1.9038
  880MOL0     H21428   9.925   0.561   4.786 -1.6325  0.0170 -0.0972
  880MOL0     H21429   9.927   0.601   4.609  1.8348  0.1152  0.2824
  880MOL0     H21430   9.778   0.397   4.688 -0.9835  4.8612 -1.0869
  880MOL0     H21431   9.945   0.322   4.711  1.7023  1.0889  0.4505
  880MOL0     H21432   9.797   0.400   4.464 -1.2363 -3.6951  1.3038
  880MOL0     H21433   9.978   0.430   4.475 -0.0646  2.1857  1.9954
  880MOL0     H21434   9.817   0.177   4.528 -1.5417 -1.7659 -3.7615
  880MOL0     H21435   9.995   0.197   4.541 -0.3206 -0.2810 -1.1203
  880MOL0     H21436   9.993   0.102   4.144  2.1613  3.1843 -1.9935
  880MOL0     H21437  10.043   0.734   4.763 -0.3264 -2.5071  2.8120
  880MOL0     H21438  10.240   1.030   4.770  0.0922 -0.9602 -0.4090
  880MOL0     H21439  10.090   0.953   4.773 -1.7898 -1.2745  2.5383
  880MOL0     H21440  10.192   0.954   4.922 -1.3962  0.7769 -0.3269
  881MOL0     O21441  10.191   2.315   0.814  0.5510 -0.2942  0.6187
  881MOL0     C21442  10.071   2.308   0.782  0.3804 -0.4025 -1.4529
  881MOL0     O21443   9.985   2.407   0.803  0.2227 -0.4787 -0.0730
  881MOL0     C21444  10.012   2.530   0.859  0.9645 -0.3499 -1.0016
  881MOL0     C21445  10.097   2.571   0.960  0.0693 -0.7931 -0.5611
  881MOL0     C21446  10.114   2.704   0.995  0.1107  1.0761 -0.5436
  881MOL0     C21447  10.043   2.801   0.936 -0.1352 -1.1888  0.7695
  881MOL0     O21448  10.081   2.922   0.989  0.6656 -0.4810 -0.4713
  881MOL0     C21449  10.021   3.039   0.940 -0.8214  0.5153  0.1728
  881MOL0     C21450  10.032   3.152   1.043 -0.8862 -0.0301  0.1676
  881MOL0     C21451   9.968   3.276   0.988  0.5215 -0.4937 -0.7204
  881MOL0     C21452  10.041   3.328   0.867  0.0895  0.5719  0.4600
  881MOL0     C21453  10.001   3.475   0.844 -0.5413  0.5556  0.5489
  881MOL0     C21454  10.082   3.572   0.931 -0.5024 -0.0736 -0.0825
  881MOL0     C21455  10.055   3.722   0.903 -0.1162  1.0765 -0.2946
  881MOL0     C21456  10.155   3.816   0.963  1.2577  0.6299 -0.2328
  881MOL0     N21457  10.115   3.955   0.934  0.9612  0.2396  0.6947
  881MOL0     C21458  10.054   4.042   1.023  0.1961  0.3270 -0.3934
  881MOL0     C21459  10.049   4.160   0.968  0.6403  0.7575 -0.4770
  881MOL0     C21460   9.980   4.280   1.025  0.3130  0.2084  0.3672
  881MOL0     C21461   9.937   4.381   0.911 -0.0956  0.6011  0.5800
  881MOL0     C21462   9.817   4.333   0.829  0.2696 -0.2454 -0.3522
  881MOL0     C21463   9.705   4.266   0.920 -0.3871  0.1362  0.0410
  881MOL0     O21464   9.586   4.250   0.849  0.2790  0.4542 -0.9925
  881MOL0     C21465   9.580   4.139   0.756 -0.0688 -1.1686 -0.0486
  881MOL0     C21466   9.661   4.022   0.769 -0.2006  0.3144  0.8091
  881MOL0     C21467   9.636   3.907   0.691  0.6057 -0.9774 -0.9529
  881MOL0     C21468   9.710   3.777   0.728 -0.5699 -0.3315 -0.1516
  881MOL0     C21469   9.529   3.914   0.590  0.5628 -0.8912 -0.2539
  881MOL0     C21470   9.497   3.794   0.502 -0.1470 -0.1675 -0.4001
  881MOL0     O21471   9.598   3.697   0.483  0.0714 -0.3145  0.8176
  881MOL0     C21472   9.563   3.592   0.404  0.2416  0.4371  0.1143
  881MOL0     C21473   9.547   3.590   0.269  0.5787  0.1028  0.9122
  881MOL0     C21474   9.493   3.479   0.200 -1.2743 -0.8322 -0.5276
  881MOL0     C21475   9.431   3.372   0.270  0.2921 -0.0503 -0.2978
  881MOL0     O21476   9.359   3.274   0.210  0.1247 -0.0279 -0.8447
  881MOL0     C21477   9.253   3.202   0.275 -1.0764  0.7976  0.1229
  881MOL0     C21478   9.314   3.068   0.328  0.3838  0.3771  0.0062
  881MOL0     C21479   9.205   2.958   0.357  0.6957  0.8942  0.2489
  881MOL0     C21480   9.226   2.832   0.280  0.3626  0.5955 -0.5013
  881MOL0     C21481   9.114   2.742   0.283  0.5693 -0.2941  0.5522
  881MOL0     C21482   9.089   2.653   0.414 -0.3505  0.0518  0.5070
  881MOL0     C21483   8.953   2.579   0.403  0.8880  0.0802 -0.9004
  881MOL0     C21484   8.902   2.527   0.262 -0.8432  0.1496  0.7173
  881MOL0    Cl21485   9.031   2.424   0.187  0.1202 -0.3144 -0.3979
  881MOL0     C21486   9.457   3.368   0.409 -0.0706 -0.1901 -0.1184
  881MOL0     C21487   9.524   3.481   0.483  0.9211 -0.9276 -0.0515
  881MOL0     O21488   9.375   3.793   0.459 -0.3066 -0.0631 -0.1069
  881MOL0     C21489   9.449   4.030   0.587  0.5600 -0.2505  0.8745
  881MOL0     C21490   9.478   4.141   0.663  0.5522 -0.5641  0.6807
  881MOL0     N21491  10.113   4.147   0.848 -1.0659  1.6338 -0.5282
  881MOL0     N21492  10.162   4.029   0.834 -0.9555  0.0969  0.0209
  881MOL0     C21493   9.956   2.773   0.831  0.0122  0.1673  0.9967
  881MOL0     C21494   9.940   2.636   0.796  0.7765  0.3678  0.0597
  881MOL0     C21495  10.026   2.173   0.751 -0.4771  0.5259 -0.1301
  881MOL0     C21496  10.087   2.096   0.639 -0.7477 -0.0679  0.3071
  881MOL0     C21497  10.053   1.954   0.620 -0.5014 -0.5072  0.9401
  881MOL0     C21498   9.963   1.900   0.697  0.2551  0.4991 -0.7513
  881MOL0     O21499   9.918   1.766   0.699  0.6155  0.3311  0.2636
  881MOL0     C21500   9.920   1.700   0.575  0.3482 -0.2162 -0.2404
  881MOL0     C21501  10.029   1.596   0.590 -1.0547  0.7266 -0.6981
  881MOL0     C21502  10.002   1.487   0.695  0.5891  0.2709  0.3183
  881MOL0     C21503   9.884   1.397   0.689 -0.3501  1.1208  0.6990
  881MOL0     C21504   9.898   1.304   0.573  1.0943  0.2230  0.0115
  881MOL0     C21505   9.897   1.239   0.476  0.2585 -1.1482  0.9448
  881MOL0     C21506   9.897   1.986   0.785  0.7630  0.8510  0.2079
  881MOL0     C21507   9.930   2.114   0.825 -0.3405  0.4751 -0.9684
  881MOL0     C21508   9.872   2.174   0.953 -0.1473 -0.4966  0.2081
  881MOL0     H21509  10.155   2.492   1.007  1.2178  1.5352  2.2605
  881MOL0     H21510  10.189   2.728   1.069 -1.5780  1.5048  1.1271
  881MOL0     H21511   9.914   3.023   0.923 -0.7400 -3.1589  2.0168
  881MOL0     H21512  10.074   3.069   0.849  1.8973 -0.8652  1.1536
  881MOL0     H21513   9.984   3.128   1.138  0.8461 -1.0638  0.8301
  881MOL0     H21514  10.136   3.165   1.075  0.1224 -3.1068 -1.4356
  881MOL0     H21515   9.870   3.249   0.947  0.1874 -1.8666  0.8981
  881MOL0     H21516   9.947   3.360   1.055  0.3032 -0.7715 -0.4342
  881MOL0     H21517  10.148   3.305   0.865 -0.2796 -1.2565 -0.3221
  881MOL0     H21518   9.997   3.282   0.778 -0.5502 -0.4568  1.2958
  881MOL0     H21519   9.894   3.493   0.860 -1.0256  0.4325 -2.1141
  881MOL0     H21520  10.021   3.505   0.741  0.9872 -1.3443  0.2439
  881MOL0     H21521  10.088   3.549   1.038 -1.3942  0.7040  0.1437
  881MOL0     H21522  10.184   3.558   0.894  0.1440  0.4665  1.4053
  881MOL0     H21523   9.957   3.735   0.950  0.2283  2.0295  0.1899
  881MOL0     H21524  10.039   3.749   0.798 -0.5148  0.6013 -0.3612
  881MOL0     H21525  10.174   3.797   1.069 -0.2311 -2.3516 -0.4037
  881MOL0     H21526  10.244   3.805   0.901  1.3122  2.5533 -0.5553
  881MOL0     H21527  10.022   4.006   1.120  2.4426  0.9361  0.6349
  881MOL0     H21528  10.060   4.331   1.080  3.8940 -1.4636 -2.8058
  881MOL0     H21529   9.904   4.254   1.099 -0.7024 -0.1433 -0.7681
  881MOL0     H21530   9.914   4.474   0.963 -3.1113  0.0985  0.3360
  881MOL0     H21531  10.014   4.415   0.840 -3.2511  0.8264 -3.0921
  881MOL0     H21532   9.772   4.414   0.771 -0.1889  0.9015  1.5356
  881MOL0     H21533   9.853   4.252   0.765  1.6949 -3.0457  3.6001
  881MOL0     H21534   9.722   4.167   0.962 -0.6566  0.8795  2.0683
  881MOL0     H21535   9.686   4.334   1.005  1.0980  1.4640 -0.6295
  881MOL0     H21536   9.735   4.012   0.847 -0.0889 -1.0673  0.5480
  881MOL0     H21537   9.790   3.764   0.654  1.6175  3.1579  1.3452
  881MOL0     H21538   9.653   3.684   0.728 -0.3528 -0.4717  0.6536
  881MOL0     H21539   9.749   3.792   0.829 -0.0371  2.8242 -0.7158
  881MOL0     H21540   9.585   3.678   0.218  1.5426 -0.8632 -0.0714
  881MOL0     H21541   9.484   3.486   0.092  0.1699 -0.2343 -0.6292
  881MOL0     H21542   9.207   3.256   0.358 -2.3664 -0.6288  0.3739
  881MOL0     H21543   9.181   3.176   0.196  0.2224  3.3733 -2.0792
  881MOL0     H21544   9.383   3.025   0.254 -1.9063  0.2141 -2.1617
  881MOL0     H21545   9.361   3.094   0.423  0.3891 -1.0836  0.4256
  881MOL0     H21546   9.101   2.989   0.349  0.2203  0.7942  4.1795
  881MOL0     H21547   9.226   2.926   0.460  0.5284 -0.7557 -0.1957
  881MOL0     H21548   9.325   2.789   0.294 -0.7428 -2.0258 -0.1872
  881MOL0     H21549   9.230   2.858   0.174 -2.3491 -0.8300 -1.0459
  881MOL0     H21550   9.022   2.795   0.254  0.5683 -1.2311 -1.2339
  881MOL0     H21551   9.132   2.666   0.207  0.8987  0.3424 -0.0135
  881MOL0     H21552   9.081   2.716   0.503  0.4801 -0.6190  1.0783
  881MOL0     H21553   9.172   2.583   0.426  0.0169  0.8798  4.1227
  881MOL0     H21554   8.875   2.648   0.437  0.7868  1.1078 -3.0738
  881MOL0     H21555   8.950   2.486   0.461 -5.1197 -0.1695 -0.9984
  881MOL0     H21556   8.887   2.603   0.184  2.1041 -0.3916 -0.5203
  881MOL0     H21557   8.811   2.472   0.287  0.9240 -2.4437  1.8452
  881MOL0     H21558   9.440   3.279   0.467 -0.6261  1.4406  2.3466
  881MOL0     H21559   9.540   3.486   0.590 -1.2851  1.0678  0.2582
  881MOL0     H21560   9.365   4.028   0.517  0.0796  2.2472  1.2793
  881MOL0     H21561   9.404   4.220   0.674 -1.3839 -2.4766  2.4787
  881MOL0     H21562   9.910   2.843   0.762  0.4552  1.8257  2.3173
  881MOL0     H21563   9.872   2.595   0.722  0.8597 -2.0833  1.2529
  881MOL0     H21564  10.166   2.134   0.575  0.4046  2.7627  3.0995
  881MOL0     H21565  10.107   1.904   0.539 -2.0536 -4.9750  2.3722
  881MOL0     H21566   9.821   1.664   0.546 -0.2665  0.7281  0.6287
  881MOL0     H21567   9.948   1.771   0.496  2.8570 -0.5398  0.2788
  881MOL0     H21568  10.127   1.639   0.615 -1.0189  0.7956 -0.9533
  881MOL0     H21569  10.045   1.546   0.494  2.1583  1.6415 -0.7735
  881MOL0     H21570  10.089   1.423   0.677  0.2321 -0.6288  1.6671
  881MOL0     H21571  10.008   1.546   0.787  2.2215  0.7836 -0.0828
  881MOL0     H21572   9.786   1.438   0.663 -2.4233 -3.5022  0.0951
  881MOL0     H21573   9.886   1.332   0.777 -0.6819  0.6545  0.3650
  881MOL0     H21574   9.877   1.186   0.385 -1.5373  0.7484  0.1593
  881MOL0     H21575   9.820   1.937   0.843  1.2449  1.7770  1.6623
  881MOL0     H21576   9.956   2.219   1.008  1.1173 -1.2170 -1.0486
  881MOL0     H21577   9.790   2.242   0.927 -0.8252 -1.7962 -1.2196
  881MOL0     H21578   9.836   2.092   1.014 -0.5065  0.8210  1.8223
  882MOL0     O21579   2.830   6.861   6.091 -0.3594  0.2862  0.6547
  882MOL0     C21580   2.831   6.747   6.049 -0.1449 -0.0773  0.1835
  882MOL0     O21581   2.923   6.656   6.082  0.2409  0.0640 -0.1721
  882MOL0     C21582   3.027   6.673   6.175  0.9283  0.2123 -0.3748
  882MOL0     C21583   3.016   6.633   6.315 -0.1909  0.2224  0.1096
  882MOL0     C21584   3.128   6.633   6.401 -0.5515 -0.9289 -0.2901
  882MOL0     C21585   3.249   6.688   6.360 -0.5191 -1.3400  0.4520
  882MOL0     O21586   3.347   6.708   6.460  0.0368 -0.3325  0.5623
  882MOL0     C21587   3.454   6.809   6.449  0.9808  0.2233  0.5334
  882MOL0     C21588   3.501   6.837   6.588  0.1666 -0.4636 -0.4261
  882MOL0     C21589   3.576   6.727   6.653 -0.2400  0.2317 -0.7674
  882MOL0     C21590   3.723   6.770   6.669 -0.6261 -0.4160  0.6389
  882MOL0     C21591   3.803   6.664   6.739 -0.5928  0.0219  0.9341
  882MOL0     C21592   3.963   6.689   6.752 -0.0233  0.1550  0.2859
  882MOL0     C21593   4.013   6.821   6.819  0.9042  0.0252 -0.4721
  882MOL0     C21594   4.031   6.939   6.732 -0.7453  0.3130  0.2882
  882MOL0     N21595   4.151   6.931   6.659 -0.8697 -0.6707  0.5768
  882MOL0     C21596   4.175   6.869   6.536 -0.1899 -0.0698 -0.3171
  882MOL0     C21597   4.299   6.911   6.507  0.0518  0.2847  0.7129
  882MOL0     C21598   4.378   6.892   6.377 -0.0888  0.3085  0.0804
  882MOL0     C21599   4.398   6.742   6.338 -0.9326 -0.1982 -0.1198
  882MOL0     C21600   4.543   6.691   6.348 -0.6015  0.5631  0.5113
  882MOL0     C21601   4.612   6.694   6.481  0.0827 -0.1693 -0.1780
  882MOL0     O21602   4.554   6.605   6.577  0.0047 -0.1592  0.7139
  882MOL0     C21603   4.626   6.520   6.665  0.7670 -0.5527 -0.0232
  882MOL0     C21604   4.741   6.452   6.637  0.7003  0.6551  0.6562
  882MOL0     C21605   4.797   6.349   6.713  0.0839 -0.6626  0.3405
  882MOL0     C21606   4.925   6.292   6.657 -0.3462  0.6356  0.6153
  882MOL0     C21607   4.721   6.302   6.827  0.2303 -0.1518  1.1727
  882MOL0     C21608   4.770   6.187   6.905  0.7126 -0.2675  0.6987
  882MOL0     O21609   4.806   6.217   7.036 -0.1881  0.6365  1.2205
  882MOL0     C21610   4.855   6.115   7.114  0.5439 -0.8575 -1.4404
  882MOL0     C21611   4.953   6.152   7.198 -0.6757 -1.7475 -0.5296
  882MOL0     C21612   5.016   6.060   7.281  0.3182  0.4946  0.3431
  882MOL0     C21613   4.975   5.923   7.295  0.7129 -0.1536  0.0730
  882MOL0     O21614   5.056   5.832   7.371  0.2388 -0.9470 -0.9592
  882MOL0     C21615   5.087   5.692   7.337 -0.3919  0.5927 -0.5290
  882MOL0     C21616   5.191   5.627   7.432  0.4578  0.1024  0.3644
  882MOL0     C21617   5.319   5.712   7.453 -0.5795 -0.1552  0.0041
  882MOL0     C21618   5.425   5.671   7.342 -0.0330 -0.3063 -0.4558
  882MOL0     C21619   5.534   5.779   7.317  0.5756  0.3031 -1.0177
  882MOL0     C21620   5.657   5.710   7.244 -0.9905 -0.0544 -0.5085
  882MOL0     C21621   5.790   5.741   7.300  0.3774 -1.0029 -0.2638
  882MOL0     C21622   5.823   5.671   7.428  0.2230 -0.7522  0.3035
  882MOL0    Cl21623   5.845   5.496   7.410 -0.3558 -0.5415  0.0905
  882MOL0     C21624   4.869   5.887   7.207 -0.3520 -0.8449 -0.2749
  882MOL0     C21625   4.813   5.982   7.120  0.1362 -0.1521 -1.1243
  882MOL0     O21626   4.789   6.083   6.842 -0.2981 -0.0511 -0.2161
  882MOL0     C21627   4.616   6.380   6.865  0.1655 -0.4157 -0.4357
  882MOL0     C21628   4.566   6.490   6.785 -0.4848 -1.0675 -0.4416
  882MOL0     N21629   4.362   6.979   6.606 -0.1646  0.4344 -0.5869
  882MOL0     N21630   4.267   6.987   6.700  0.5532 -0.4997 -0.2661
  882MOL0     C21631   3.254   6.749   6.233  0.5768  0.5151 -0.0743
  882MOL0     C21632   3.149   6.722   6.137 -0.3310  0.1679  0.9578
  882MOL0     C21633   2.728   6.721   5.945 -0.2617  0.2187 -0.5963
  882MOL0     C21634   2.742   6.598   5.885 -0.4376 -0.2471  0.4216
  882MOL0     C21635   2.655   6.560   5.791  0.4108  0.2100  0.3721
  882MOL0     C21636   2.557   6.653   5.740  0.3528  0.3304 -0.2989
  882MOL0     O21637   2.473   6.614   5.630 -0.4859 -0.1306 -1.0547
  882MOL0     C21638   2.371   6.707   5.592 -0.0833  0.0099  1.0923
  882MOL0     C21639   2.329   6.657   5.453 -0.6074 -0.9920  1.1636
  882MOL0     C21640   2.433   6.651   5.338  0.7780  0.0867  0.2536
  882MOL0     C21641   2.457   6.779   5.273  0.6944 -0.0093  0.3219
  882MOL0     C21642   2.535   6.865   5.364  0.0346 -0.3256 -0.4767
  882MOL0     C21643   2.582   6.948   5.446 -0.6910  1.0503 -0.1248
  882MOL0     C21644   2.544   6.776   5.798 -0.1553  0.3201 -0.5441
  882MOL0     C21645   2.632   6.817   5.897  0.4754 -1.1134 -0.7498
  882MOL0     C21646   2.611   6.961   5.940  0.3702 -0.5623  0.0775
  882MOL0     H21647   2.916   6.608   6.350 -0.5776  1.0133 -0.4049
  882MOL0     H21648   3.117   6.631   6.509  2.5669  1.0016  0.2153
  882MOL0     H21649   3.435   6.891   6.379  0.9081 -0.9421 -0.8594
  882MOL0     H21650   3.540   6.761   6.402  0.6916  0.9575 -0.7917
  882MOL0     H21651   3.569   6.922   6.592  2.2731 -2.0314  5.0186
  882MOL0     H21652   3.413   6.868   6.646 -0.5208 -1.9519 -0.6479
  882MOL0     H21653   3.537   6.711   6.753  1.0253 -1.1753 -0.4702
  882MOL0     H21654   3.560   6.636   6.594  1.3204 -1.1839  0.8694
  882MOL0     H21655   3.768   6.793   6.572  0.6415  0.9308  1.4971
  882MOL0     H21656   3.731   6.861   6.730 -1.5255  0.5005 -0.5700
  882MOL0     H21657   3.781   6.575   6.679  0.1889  0.1605  0.4238
  882MOL0     H21658   3.750   6.652   6.834 -3.3682 -1.2810 -0.6316
  882MOL0     H21659   4.002   6.610   6.818 -0.6097  1.8097  2.7781
  882MOL0     H21660   4.027   6.672   6.666  0.6921 -0.7602  0.9687
  882MOL0     H21661   4.116   6.801   6.849  1.5309  1.0408 -1.8534
  882MOL0     H21662   3.955   6.842   6.910  1.2099 -0.6070 -0.1184
  882MOL0     H21663   3.944   6.951   6.667 -2.8342 -0.2147  2.8263
  882MOL0     H21664   4.025   7.035   6.785 -1.1792  1.4838 -1.7762
  882MOL0     H21665   4.107   6.800   6.487  1.4548 -0.8243 -1.6209
  882MOL0     H21666   4.476   6.940   6.387 -0.2816  1.3189 -2.3044
  882MOL0     H21667   4.318   6.938   6.298  0.9082 -2.1440 -2.2594
  882MOL0     H21668   4.324   6.671   6.378 -3.9718  1.0216 -3.1084
  882MOL0     H21669   4.371   6.732   6.233 -0.1272 -3.4566 -0.1272
  882MOL0     H21670   4.550   6.599   6.290 -0.9329  1.4394 -0.9650
  882MOL0     H21671   4.582   6.766   6.278 -2.6948  0.7634 -0.5475
  882MOL0     H21672   4.717   6.667   6.471 -0.9580 -4.1326 -2.4107
  882MOL0     H21673   4.589   6.794   6.518  0.5420 -1.0144  2.6667
  882MOL0     H21674   4.796   6.484   6.549  0.0632 -0.0052  0.0082
  882MOL0     H21675   4.900   6.200   6.602  2.9286 -0.4622  0.7487
  882MOL0     H21676   4.995   6.250   6.729 -1.8987 -3.2689  0.0775
  882MOL0     H21677   4.986   6.352   6.588  0.0211  1.4950  1.6660
  882MOL0     H21678   4.975   6.258   7.190  0.6484 -1.9683 -0.1420
  882MOL0     H21679   5.105   6.094   7.333  0.2931 -0.5496  1.0874
  882MOL0     H21680   5.002   5.634   7.373  1.9444 -1.2750  2.4968
  882MOL0     H21681   5.125   5.698   7.235  1.2196  1.8923  0.0934
  882MOL0     H21682   5.141   5.613   7.528  2.4508  0.3922  1.4787
  882MOL0     H21683   5.217   5.530   7.388  4.5086  0.5342  1.5096
  882MOL0     H21684   5.361   5.704   7.554 -2.2743  4.0336  1.2687
  882MOL0     H21685   5.291   5.818   7.453  0.4489  0.1360  1.0688
  882MOL0     H21686   5.364   5.651   7.254 -1.2118 -1.3637  0.5698
  882MOL0     H21687   5.477   5.581   7.375  3.3754  2.1102  1.4221
  882MOL0     H21688   5.495   5.877   7.289 -0.9100  0.4748  1.3767
  882MOL0     H21689   5.566   5.799   7.419 -2.1267 -1.0985  0.2075
  882MOL0     H21690   5.657   5.750   7.142  1.1052  0.6914 -0.2742
  882MOL0     H21691   5.655   5.601   7.238  2.1661 -0.2070 -0.9878
  882MOL0     H21692   5.798   5.848   7.319  2.2532 -1.2645  0.6459
  882MOL0     H21693   5.871   5.724   7.228  0.0857 -1.4802 -0.4893
  882MOL0     H21694   5.749   5.702   7.501  0.2893 -2.0828  0.9654
  882MOL0     H21695   5.918   5.703   7.471 -0.3358 -1.9806  2.6024
  882MOL0     H21696   4.857   5.780   7.194  1.5172 -0.9600 -1.3670
  882MOL0     H21697   4.734   5.948   7.053 -4.9401  1.9126  3.1455
  882MOL0     H21698   4.576   6.376   6.966 -0.7988  3.2694 -0.5206
  882MOL0     H21699   4.482   6.551   6.819  1.5194  0.3069  2.4786
  882MOL0     H21700   3.340   6.810   6.210  1.0710  0.4466  1.5266
  882MOL0     H21701   3.160   6.742   6.031  0.3513  2.5392  1.4126
  882MOL0     H21702   2.801   6.521   5.934 -1.4188 -1.8194 -0.7578
  882MOL0     H21703   2.646   6.458   5.755 -1.3953  1.3545 -2.8131
  882MOL0     H21704   2.293   6.706   5.669  0.0444 -1.5840  1.2341
  882MOL0     H21705   2.406   6.811   5.586 -0.2081  0.0399  0.8675
  882MOL0     H21706   2.249   6.723   5.419  0.6801  0.0437  0.0472
  882MOL0     H21707   2.288   6.556   5.467  0.4350 -1.4631  0.8727
  882MOL0     H21708   2.530   6.620   5.376  1.2576  1.8927  0.5621
  882MOL0     H21709   2.393   6.587   5.258 -3.1294  1.2218  1.0658
  882MOL0     H21710   2.360   6.827   5.257  0.3414 -0.7461  0.2219
  882MOL0     H21711   2.498   6.767   5.172 -1.4960  0.1721 -0.6448
  882MOL0     H21712   2.606   7.025   5.517  0.7856  2.0222 -1.6309
  882MOL0     H21713   2.467   6.850   5.781 -0.7562  0.1023  1.0461
  882MOL0     H21714   2.691   7.021   5.897  0.5303 -1.6301 -1.1925
  882MOL0     H21715   2.513   7.002   5.914  1.0068  0.5264 -0.6832
  882MOL0     H21716   2.620   6.967   6.048  2.7286  1.2606 -0.1461
  883MOL0     O21717   9.035   4.422   4.687 -0.2538 -0.6056 -0.0504
  883MOL0     C21718   8.930   4.494   4.679  0.3294  0.7648 -0.4737
  883MOL0     O21719   8.800   4.445   4.690 -0.2850 -0.3170  0.5005
  883MOL0     C21720   8.774   4.321   4.670  1.0887 -0.3671  0.4500
  883MOL0     C21721   8.708   4.282   4.548  0.2663  0.1954 -0.0130
  883MOL0     C21722   8.679   4.139   4.523 -0.1805 -0.3450  0.5997
  883MOL0     C21723   8.705   4.043   4.621  0.7653 -0.1157  0.4349
  883MOL0     O21724   8.689   3.904   4.602  0.0105 -0.4789  0.6510
  883MOL0     C21725   8.612   3.860   4.480  0.1541 -0.9464 -0.6109
  883MOL0     C21726   8.584   3.712   4.489  0.0139  0.7212 -0.7505
  883MOL0     C21727   8.715   3.629   4.506 -0.4733 -0.5467  0.5047
  883MOL0     C21728   8.727   3.606   4.656  0.2684 -0.2758 -0.2691
  883MOL0     C21729   8.827   3.497   4.701 -0.3315 -0.2635 -0.6467
  883MOL0     C21730   8.968   3.518   4.662 -0.2065  0.6398  0.4838
  883MOL0     C21731   9.070   3.416   4.711 -0.3780  0.7724  0.0417
  883MOL0     C21732   9.207   3.449   4.643  0.0389 -0.7020  0.9120
  883MOL0     N21733   9.263   3.579   4.684 -0.7012  0.3216  0.2505
  883MOL0     C21734   9.293   3.684   4.606 -0.1710  0.5688  0.0387
  883MOL0     C21735   9.320   3.784   4.689 -0.6416  0.1829 -0.4032
  883MOL0     C21736   9.373   3.918   4.638 -0.6764 -0.6100 -0.3715
  883MOL0     C21737   9.251   3.998   4.585  0.4841  0.3845 -0.2961
  883MOL0     C21738   9.128   4.014   4.684 -0.9705  0.7753  0.8619
  883MOL0     C21739   9.170   4.094   4.812 -0.8022  0.3788 -0.0224
  883MOL0     O21740   9.050   4.106   4.883 -0.3434  1.0738 -0.9045
  883MOL0     C21741   9.035   4.042   5.002 -0.4454 -0.4648  0.0936
  883MOL0     C21742   9.027   3.907   5.004  0.8892  0.2822 -0.1006
  883MOL0     C21743   9.026   3.836   5.132  0.6879 -1.4071 -0.3382
  883MOL0     C21744   9.041   3.688   5.128 -0.2578 -0.2692  0.0075
  883MOL0     C21745   9.024   3.913   5.256  0.0912  0.0428 -0.0067
  883MOL0     C21746   8.994   3.864   5.390  0.1813  0.8729  0.4772
  883MOL0     O21747   8.971   3.959   5.493  0.0433 -0.4878  0.7040
  883MOL0     C21748   8.939   3.914   5.620  0.9290 -0.0107  0.9618
  883MOL0     C21749   9.036   3.869   5.707 -0.5035 -0.1982  0.3571
  883MOL0     C21750   9.012   3.873   5.846 -0.2099  0.4831  0.2722
  883MOL0     C21751   8.886   3.891   5.892  0.4656 -0.2027 -0.1999
  883MOL0     O21752   8.867   3.870   6.026  0.3186  0.2789  0.4056
  883MOL0     C21753   8.732   3.897   6.077 -0.9062 -0.3252  0.1770
  883MOL0     C21754   8.745   3.887   6.226 -0.5444  0.3633 -0.0078
  883MOL0     C21755   8.763   4.021   6.294 -0.0594  0.2675  0.1224
  883MOL0     C21756   8.769   4.012   6.451  0.4387  0.0205  0.1681
  883MOL0     C21757   8.649   3.963   6.532 -0.6717  0.2563  0.6466
  883MOL0     C21758   8.536   4.071   6.532  1.1007 -0.2408 -0.5333
  883MOL0     C21759   8.394   4.015   6.559 -0.8995 -0.0069 -0.4611
  883MOL0     C21760   8.300   4.136   6.590  0.2982  0.2104  0.5349
  883MOL0    Cl21761   8.286   4.242   6.437  0.0604  0.3393 -0.0838
  883MOL0     C21762   8.783   3.945   5.803 -0.3936  0.5216 -1.0384
  883MOL0     C21763   8.813   3.955   5.672 -0.6402  0.0532 -0.3710
  883MOL0     O21764   8.974   3.742   5.407 -1.1590 -0.2660  0.2589
  883MOL0     C21765   9.037   4.055   5.241  1.2253  0.2063 -0.2164
  883MOL0     C21766   9.038   4.118   5.121 -0.3175  0.3525 -0.2032
  883MOL0     N21767   9.305   3.735   4.820 -0.1395  0.4495  0.1751
  883MOL0     N21768   9.278   3.611   4.816 -0.4238 -0.2725  0.1689
  883MOL0     C21769   8.763   4.080   4.745 -0.9041  0.3633  0.1254
  883MOL0     C21770   8.790   4.221   4.767 -0.5944  0.5599  1.1398
  883MOL0     C21771   8.951   4.640   4.648 -0.4615  0.6619 -0.4537
  883MOL0     C21772   8.847   4.717   4.605 -0.1534  0.3766  0.4167
  883MOL0     C21773   8.863   4.852   4.580 -0.2372 -0.7321  0.2444
  883MOL0     C21774   8.978   4.919   4.596 -1.1367  0.8000  0.8104
  883MOL0     O21775   8.993   5.054   4.581 -0.3508 -0.0715  0.2099
  883MOL0     C21776   8.884   5.141   4.618  1.7125  0.2607 -0.5411
  883MOL0     C21777   8.916   5.282   4.632  0.0700 -0.2970  0.4299
  883MOL0     C21778   9.028   5.303   4.724 -0.4972 -0.0516 -0.1738
  883MOL0     C21779   9.041   5.450   4.765 -0.2381 -0.5418 -0.3315
  883MOL0     C21780   8.953   5.493   4.883 -1.1682  0.0634  0.0336
  883MOL0     C21781   8.885   5.533   4.977  0.2715  0.0622  0.5634
  883MOL0     C21782   9.090   4.839   4.628  0.5246  0.5408  0.4480
  883MOL0     C21783   9.085   4.704   4.644  0.5540  0.2407 -0.2446
  883MOL0     C21784   9.213   4.644   4.701  0.8716 -0.2186  0.8068
  883MOL0     H21785   8.666   4.347   4.472 -0.2459  2.1299  1.8522
  883MOL0     H21786   8.631   4.109   4.431  0.7466  0.8810 -0.3232
  883MOL0     H21787   8.660   3.875   4.383 -3.4900 -2.1711 -2.7995
  883MOL0     H21788   8.517   3.914   4.476  1.0320  0.9716  1.7349
  883MOL0     H21789   8.505   3.682   4.559 -1.1088  0.0211 -2.2826
  883MOL0     H21790   8.537   3.690   4.393 -4.3658 -1.1546  1.5325
  883MOL0     H21791   8.705   3.528   4.465 -0.6819 -0.2223 -0.2588
  883MOL0     H21792   8.793   3.683   4.452 -0.1278 -2.2994 -0.8436
  883MOL0     H21793   8.758   3.703   4.697  0.7524 -0.0801 -1.0910
  883MOL0     H21794   8.628   3.587   4.701  1.6179  2.7514  4.8477
  883MOL0     H21795   8.791   3.407   4.651  0.4134 -1.1175  0.3149
  883MOL0     H21796   8.833   3.496   4.810 -0.5647  2.7001 -0.5234
  883MOL0     H21797   8.972   3.514   4.552 -1.5195 -0.8346  0.4550
  883MOL0     H21798   8.982   3.623   4.688 -1.9539  1.1238 -0.3820
  883MOL0     H21799   9.032   3.316   4.688 -1.9723  1.6970 -1.5870
  883MOL0     H21800   9.090   3.420   4.818 -1.1255  0.7230  0.1840
  883MOL0     H21801   9.281   3.370   4.660 -1.7365 -2.9674 -1.1581
  883MOL0     H21802   9.202   3.453   4.533  0.8955  2.7100  0.8805
  883MOL0     H21803   9.266   3.684   4.501  2.1502 -5.0833 -0.9460
  883MOL0     H21804   9.453   3.903   4.564 -1.5113  1.3989 -1.7687
  883MOL0     H21805   9.420   3.983   4.713 -1.7515  0.2567 -0.4297
  883MOL0     H21806   9.275   4.099   4.550 -0.0559  0.0384 -1.7289
  883MOL0     H21807   9.227   3.943   4.494  1.7227 -0.3090 -0.2243
  883MOL0     H21808   9.061   4.080   4.629  1.9015  2.9209 -0.3641
  883MOL0     H21809   9.085   3.918   4.714 -0.3773  0.1092 -0.3365
  883MOL0     H21810   9.237   4.031   4.871  1.2375  2.3235 -0.1320
  883MOL0     H21811   9.210   4.193   4.786 -0.8034 -0.0231 -1.6380
  883MOL0     H21812   9.011   3.856   4.910 -3.0775 -0.3020  0.6900
  883MOL0     H21813   8.944   3.643   5.148 -1.5144  2.7899  1.4297
  883MOL0     H21814   9.107   3.657   5.210  1.9381 -3.9625 -2.8423
  883MOL0     H21815   9.103   3.646   5.048  3.4819  0.1883  2.3707
  883MOL0     H21816   9.134   3.842   5.667 -1.1879 -1.8400 -0.2779
  883MOL0     H21817   9.093   3.847   5.913  0.9784  3.0721 -0.0547
  883MOL0     H21818   8.693   3.993   6.042  1.5737  0.8799  0.4993
  883MOL0     H21819   8.668   3.817   6.040  0.3082 -1.4273  0.3977
  883MOL0     H21820   8.647   3.849   6.258  0.0715 -1.2595  0.0377
  883MOL0     H21821   8.822   3.814   6.250 -0.4393 -0.0773 -1.5727
  883MOL0     H21822   8.684   4.088   6.262 -0.5396  1.6602  3.8441
  883MOL0     H21823   8.857   4.062   6.255 -0.0573  0.0615 -0.0950
  883MOL0     H21824   8.792   4.113   6.488  0.9724 -1.2124  3.6333
  883MOL0     H21825   8.858   3.954   6.481  0.9489  1.2039  1.0467
  883MOL0     H21826   8.612   3.873   6.482  2.4772 -1.1063  0.5143
  883MOL0     H21827   8.674   3.926   6.632  2.0160 -2.5653 -0.8894
  883MOL0     H21828   8.546   4.138   6.446  1.3351  1.2125  0.6007
  883MOL0     H21829   8.563   4.142   6.610  0.4921  0.1271 -0.6562
  883MOL0     H21830   8.405   3.947   6.644  1.6457 -2.8572 -2.8505
  883MOL0     H21831   8.350   3.959   6.476 -0.7694 -1.8409  0.6406
  883MOL0     H21832   8.338   4.208   6.662 -1.2420  2.2657 -0.6041
  883MOL0     H21833   8.208   4.095   6.633  1.2142 -1.8473  0.6751
  883MOL0     H21834   8.680   3.956   5.835  0.1773 -1.5308  1.8794
  883MOL0     H21835   8.726   3.987   5.616 -0.5968  0.7850 -0.0312
  883MOL0     H21836   9.046   4.119   5.328 -0.4483  0.9679 -0.5638
  883MOL0     H21837   9.042   4.226   5.110 -2.5003  0.2754 -2.7233
  883MOL0     H21838   8.798   4.012   4.822  2.9126  2.4219  0.4544
  883MOL0     H21839   8.825   4.242   4.867  0.2844  2.9485  0.3997
  883MOL0     H21840   8.763   4.652   4.582  1.9236 -2.2714 -0.2215
  883MOL0     H21841   8.765   4.897   4.568  0.2747 -0.1589 -2.4896
  883MOL0     H21842   8.806   5.137   4.542  2.5810 -1.7429 -1.3903
  883MOL0     H21843   8.838   5.102   4.710  3.1838  0.1840  0.1988
  883MOL0     H21844   8.821   5.336   4.647  0.3818  0.3123  0.2396
  883MOL0     H21845   8.947   5.308   4.530 -0.7344  2.3319  0.7793
  883MOL0     H21846   9.023   5.248   4.818  2.1226  2.3007  1.5277
  883MOL0     H21847   9.121   5.272   4.676 -0.7757 -0.6696 -0.3172
  883MOL0     H21848   9.027   5.504   4.671  1.4483  0.0056 -0.2996
  883MOL0     H21849   9.143   5.472   4.799 -0.9368  1.3640  0.6857
  883MOL0     H21850   8.814   5.574   5.046 -2.2611 -1.1703 -1.1580
  883MOL0     H21851   9.189   4.883   4.637  0.6407  0.5502 -0.7080
  883MOL0     H21852   9.280   4.720   4.744  1.9897 -1.8651  2.1324
  883MOL0     H21853   9.203   4.572   4.783  4.0346  0.6993  2.1540
  883MOL0     H21854   9.245   4.586   4.614 -3.9960 -2.2881  0.1166
  884MOL0     O21855   6.327   5.350   6.282  0.3643 -0.2533  0.1858
  884MOL0     C21856   6.335   5.375   6.165  0.0984  0.5423  0.6508
  884MOL0     O21857   6.422   5.307   6.069 -0.5021  0.8162  0.3251
  884MOL0     C21858   6.501   5.201   6.108 -0.1844 -0.9992  0.1264
  884MOL0     C21859   6.469   5.086   6.060 -0.8366  0.1675  0.8810
  884MOL0     C21860   6.544   4.971   6.108  1.3972  0.1828  0.7461
  884MOL0     C21861   6.650   4.986   6.195  0.5821 -0.0947 -0.2157
  884MOL0     O21862   6.724   4.871   6.229 -0.1269  0.4655 -1.6336
  884MOL0     C21863   6.774   4.863   6.361 -0.1556  0.0223  0.0450
  884MOL0     C21864   6.737   4.731   6.438  0.7633  0.9404  0.5839
  884MOL0     C21865   6.601   4.725   6.509  0.2594  0.3111 -0.1518
  884MOL0     C21866   6.477   4.724   6.415 -0.0176 -0.6144  0.2162
  884MOL0     C21867   6.351   4.638   6.444  0.6224  0.4340  1.2474
  884MOL0     C21868   6.247   4.626   6.334  0.3133  0.3060  0.1195
  884MOL0     C21869   6.216   4.758   6.251  0.0310 -0.2986  0.3675
  884MOL0     C21870   6.108   4.747   6.146  0.4929 -0.3393 -0.0581
  884MOL0     N21871   6.133   4.842   6.037 -0.3900  0.0972  0.2022
  884MOL0     C21872   6.205   4.807   5.927 -0.8060  0.4232 -0.7558
  884MOL0     C21873   6.220   4.917   5.852  0.2860  0.2899 -1.0162
  884MOL0     C21874   6.290   4.927   5.714  0.5495  0.0086  0.0655
  884MOL0     C21875   6.397   5.025   5.688  0.8029 -0.0230  0.0240
  884MOL0     C21876   6.453   5.031   5.539 -0.4819 -0.4145  0.0620
  884MOL0     C21877   6.545   5.156   5.515 -0.2928 -0.3639  0.8537
  884MOL0     O21878   6.638   5.163   5.625  0.2924 -0.4116 -0.3678
  884MOL0     C21879   6.717   5.276   5.617 -0.3809 -0.3712 -0.3487
  884MOL0     C21880   6.729   5.355   5.500 -0.8198  0.6556 -0.1944
  884MOL0     C21881   6.805   5.470   5.498 -0.3178 -0.0805 -0.2800
  884MOL0     C21882   6.805   5.550   5.372 -0.7144 -0.4989 -0.3191
  884MOL0     C21883   6.891   5.496   5.610 -0.5768 -0.4797  0.1636
  884MOL0     C21884   6.956   5.629   5.642 -0.8422  0.1583 -0.3719
  884MOL0     O21885   6.905   5.741   5.588  1.0001  0.7958 -0.1776
  884MOL0     C21886   6.938   5.854   5.645 -0.6644  0.8881 -1.0432
  884MOL0     C21887   7.033   5.940   5.581 -0.4949  0.3563 -0.0529
  884MOL0     C21888   7.059   6.065   5.631  0.3444  0.0864 -0.7791
  884MOL0     C21889   6.974   6.114   5.738 -0.3170  0.2228  0.1024
  884MOL0     O21890   6.987   6.242   5.790  0.0333 -0.1349  0.0389
  884MOL0     C21891   6.885   6.310   5.870 -0.3801  0.8974  0.6348
  884MOL0     C21892   6.908   6.463   5.873  0.5224  0.2260  0.1531
  884MOL0     C21893   7.014   6.507   5.979  1.0051 -0.2542  0.2159
  884MOL0     C21894   7.035   6.662   6.000  0.2532  0.2978  0.3669
  884MOL0     C21895   7.096   6.740   5.886  0.4515  0.4706  0.3452
  884MOL0     C21896   7.119   6.891   5.921 -0.1001 -0.1757 -0.2668
  884MOL0     C21897   7.133   6.989   5.804  0.4126 -0.4908 -0.7274
  884MOL0     C21898   7.190   7.120   5.841  0.2598 -0.4476 -0.0369
  884MOL0    Cl21899   7.160   7.185   6.015  0.6139 -0.3233  0.5270
  884MOL0     C21900   6.890   6.028   5.808 -0.0684 -0.9713  0.2158
  884MOL0     C21901   6.869   5.904   5.759  0.3540 -0.9099 -0.1689
  884MOL0     O21902   7.052   5.634   5.724 -0.2440  0.8620  0.5261
  884MOL0     C21903   6.889   5.404   5.714 -1.3292  0.2148 -0.6069
  884MOL0     C21904   6.805   5.290   5.725  0.2556  0.6172  1.0937
  884MOL0     N21905   6.141   5.014   5.918  0.0053  0.7731 -0.2101
  884MOL0     N21906   6.090   4.972   6.027 -0.8290 -0.1243 -0.8305
  884MOL0     C21907   6.668   5.113   6.251 -0.3879 -0.6407  0.5203
  884MOL0     C21908   6.593   5.216   6.203 -0.4498 -0.2493 -0.1026
  884MOL0     C21909   6.263   5.492   6.117 -0.3059 -0.1142  0.8830
  884MOL0     C21910   6.308   5.628   6.114 -0.3864  0.5855 -1.2267
  884MOL0     C21911   6.233   5.734   6.065 -0.4763 -0.0425  0.6828
  884MOL0     C21912   6.102   5.706   6.022 -0.2527 -0.8307 -0.1736
  884MOL0     O21913   6.011   5.799   5.973  0.7103  0.4914  0.8999
  884MOL0     C21914   6.054   5.884   5.862 -0.9837  0.5769 -0.0939
  884MOL0     C21915   5.954   5.992   5.844  0.1398 -0.0696  0.2649
  884MOL0     C21916   5.948   6.092   5.959 -0.8536 -0.3258  0.1993
  884MOL0     C21917   6.090   6.159   5.979 -1.1024 -0.3399 -0.7031
  884MOL0     C21918   6.091   6.265   6.085 -0.4236 -0.0501  0.5448
  884MOL0     C21919   6.061   6.356   6.165  0.6376  0.3847  1.4719
  884MOL0     C21920   6.053   5.571   6.034  1.0109 -0.0131  0.2980
  884MOL0     C21921   6.128   5.470   6.081  0.5924  0.0614  0.0303
  884MOL0     C21922   6.058   5.335   6.098  0.0085 -0.8599 -0.0399
  884MOL0     H21923   6.402   5.076   5.976 -1.9264  0.3686  1.7139
  884MOL0     H21924   6.510   4.872   6.077 -1.2493  0.9682  0.8570
  884MOL0     H21925   6.734   4.940   6.428  0.8121 -1.8428  2.9374
  884MOL0     H21926   6.882   4.881   6.352  0.3466 -3.1994 -2.1979
  884MOL0     H21927   6.751   4.642   6.375 -0.2823  0.0783  1.5222
  884MOL0     H21928   6.809   4.715   6.519 -0.8776 -1.4220  1.7003
  884MOL0     H21929   6.602   4.625   6.555  0.7285  1.6358  2.9752
  884MOL0     H21930   6.587   4.804   6.583  0.9027  1.9351 -1.7126
  884MOL0     H21931   6.430   4.823   6.421  0.7714 -0.2211  0.1429
  884MOL0     H21932   6.506   4.715   6.310  2.2362 -1.2592  0.8437
  884MOL0     H21933   6.297   4.675   6.532 -0.0086  1.8861  0.2857
  884MOL0     H21934   6.396   4.541   6.467  2.9955  0.7563 -1.5415
  884MOL0     H21935   6.273   4.544   6.266 -0.5413 -1.4953  1.8802
  884MOL0     H21936   6.154   4.591   6.380 -0.6314  0.2322 -1.7354
  884MOL0     H21937   6.308   4.785   6.197 -0.9438  1.4465 -0.4981
  884MOL0     H21938   6.197   4.841   6.320 -1.6352  0.4004 -0.8759
  884MOL0     H21939   6.106   4.646   6.104  0.6113 -0.4402  0.1798
  884MOL0     H21940   6.022   4.775   6.208  2.2817 -1.0030  2.9245
  884MOL0     H21941   6.254   4.714   5.900  0.0548  0.1456  1.5033
  884MOL0     H21942   6.209   4.950   5.643 -1.2120 -0.9128  1.6743
  884MOL0     H21943   6.320   4.825   5.686  0.7859  0.2793 -0.6802
  884MOL0     H21944   6.367   5.124   5.723  1.5954 -0.5700  2.4544
  884MOL0     H21945   6.479   4.995   5.754 -1.7282 -0.8052  3.0621
  884MOL0     H21946   6.523   4.949   5.521  1.8587  1.1455  1.4531
  884MOL0     H21947   6.365   5.022   5.475 -0.0057 -2.8038 -0.3752
  884MOL0     H21948   6.580   5.136   5.413 -1.5093 -1.2793  0.5840
  884MOL0     H21949   6.489   5.249   5.501 -1.8674 -1.8108 -5.6878
  884MOL0     H21950   6.655   5.350   5.420 -0.5329 -1.1043 -0.3978
  884MOL0     H21951   6.909   5.578   5.350 -1.4186  1.2941 -1.5842
  884MOL0     H21952   6.758   5.644   5.399 -1.5437 -0.2073 -2.5636
  884MOL0     H21953   6.764   5.506   5.280 -0.7679  1.9116 -1.5233
  884MOL0     H21954   7.077   5.905   5.488 -1.8481  0.9511 -0.9588
  884MOL0     H21955   7.147   6.123   5.607 -0.5415  1.5724 -0.5538
  884MOL0     H21956   6.790   6.293   5.819  0.0343 -0.1302  0.1826
  884MOL0     H21957   6.891   6.268   5.970 -2.6826 -0.2493  0.3534
  884MOL0     H21958   6.949   6.492   5.776 -2.4167  4.1568 -0.1698
  884MOL0     H21959   6.810   6.508   5.886 -0.9645 -1.4794 -3.7086
  884MOL0     H21960   7.109   6.458   5.955 -0.4394 -2.3797 -1.6452
  884MOL0     H21961   6.990   6.464   6.077 -0.7485  1.5216  0.6287
  884MOL0     H21962   7.100   6.679   6.086  0.8225  2.0453 -0.3818
  884MOL0     H21963   6.940   6.713   6.019  0.4460  0.2941  1.4036
  884MOL0     H21964   7.190   6.689   5.862 -1.7709 -2.9328 -2.1643
  884MOL0     H21965   7.027   6.735   5.801  0.1048  4.5758  0.2134
  884MOL0     H21966   7.211   6.899   5.979  0.1504  4.3434 -0.9601
  884MOL0     H21967   7.035   6.920   5.985  0.2605 -2.6203  1.4671
  884MOL0     H21968   7.033   7.015   5.767 -1.3668 -0.1426  3.6874
  884MOL0     H21969   7.193   6.941   5.726  1.0006  0.6247 -0.9758
  884MOL0     H21970   7.178   7.196   5.763  1.8957  1.9846  1.9121
  884MOL0     H21971   7.299   7.113   5.837  0.1463 -1.5737 -2.0998
  884MOL0     H21972   6.835   6.066   5.893  2.3987  4.9376 -0.3281
  884MOL0     H21973   6.782   5.849   5.794 -0.0417  1.4400  3.0735
  884MOL0     H21974   6.952   5.438   5.796 -1.7692  0.8250 -0.5079
  884MOL0     H21975   6.805   5.216   5.804  0.6749 -0.4322  0.1405
  884MOL0     H21976   6.737   5.114   6.335 -0.4664 -1.6583  0.6087
  884MOL0     H21977   6.605   5.316   6.245 -0.9369 -1.1911  2.4155
  884MOL0     H21978   6.410   5.654   6.142 -0.3036 -0.8566 -0.0930
  884MOL0     H21979   6.284   5.829   6.059  1.9057 -1.2397  0.6703
  884MOL0     H21980   6.149   5.929   5.889 -1.0407 -0.3355  1.7658
  884MOL0     H21981   6.054   5.817   5.775 -1.1465 -1.4826  1.3990
  884MOL0     H21982   5.853   5.951   5.826 -1.3833 -0.1508  6.6678
  884MOL0     H21983   5.971   6.050   5.753  0.6540  0.1945  0.5297
  884MOL0     H21984   5.880   6.171   5.928  0.4316  1.2783  1.3116
  884MOL0     H21985   5.907   6.042   6.047  1.1230  0.2694  1.5234
  884MOL0     H21986   6.122   6.209   5.887  2.4593 -1.9407 -0.4854
  884MOL0     H21987   6.177   6.096   5.997  1.8078  3.5151  0.2856
  884MOL0     H21988   6.021   6.435   6.225  0.0987  1.6450 -0.4509
  884MOL0     H21989   5.952   5.537   6.017  1.0995 -0.5103  0.7591
  884MOL0     H21990   6.130   5.254   6.113  0.3271 -0.4859  0.5031
  884MOL0     H21991   5.976   5.337   6.170 -0.5347 -1.3201 -0.6355
  884MOL0     H21992   6.006   5.297   6.010 -2.2302  1.1243  0.3344
  885MOL0     O21993   1.983   8.164   1.457 -0.6621 -0.1253  0.2494
  885MOL0     C21994   2.086   8.160   1.521 -0.3686  0.4602 -0.2711
  885MOL0     O21995   2.119   8.225   1.630  0.6445 -0.0066 -0.5491
  885MOL0     C21996   2.019   8.314   1.664 -0.0578  0.1894 -0.2161
  885MOL0     C21997   2.048   8.456   1.645 -0.3080 -0.6900 -0.8244
  885MOL0     C21998   1.980   8.553   1.730 -0.7440  0.1960 -0.0533
  885MOL0     C21999   1.886   8.500   1.820 -0.3193 -0.1370 -0.2103
  885MOL0     O22000   1.819   8.587   1.904 -0.0279  0.1536 -0.6395
  885MOL0     C22001   1.718   8.673   1.841 -0.3023 -0.2073  0.2743
  885MOL0     C22002   1.632   8.742   1.948  0.5269  0.4685  0.2338
  885MOL0     C22003   1.482   8.767   1.919 -0.1468  1.0053 -0.1300
  885MOL0     C22004   1.414   8.881   2.001  0.4577  0.1377 -1.2306
  885MOL0     C22005   1.395   8.836   2.143 -0.3603 -0.1357 -0.4611
  885MOL0     C22006   1.346   8.952   2.239 -0.1146 -0.3320  0.7353
  885MOL0     C22007   1.273   8.901   2.353  0.1502 -0.5134 -0.1182
  885MOL0     C22008   1.232   9.016   2.450 -0.3789 -0.2230  0.1661
  885MOL0     N22009   1.160   8.967   2.565  0.0745  0.0875 -0.0614
  885MOL0     C22010   1.025   8.955   2.584  0.5343  0.0982  0.9710
  885MOL0     C22011   0.996   8.893   2.700 -0.3241  0.3940  0.3799
  885MOL0     C22012   0.865   8.869   2.777 -0.7363 -0.5066 -0.0551
  885MOL0     C22013   0.787   8.761   2.710 -0.1003 -0.5724  0.0694
  885MOL0     C22014   0.873   8.640   2.712 -0.8734  0.2826 -0.2823
  885MOL0     C22015   0.795   8.517   2.669  0.1050  0.1922  1.1450
  885MOL0     O22016   0.755   8.535   2.526 -0.2980  0.7463  0.2013
  885MOL0     C22017   0.841   8.475   2.432 -1.3574  1.2054 -1.2204
  885MOL0     C22018   0.787   8.449   2.303 -0.0296 -0.8241 -0.4363
  885MOL0     C22019   0.851   8.367   2.213  0.3489  1.0788  0.4478
  885MOL0     C22020   0.780   8.351   2.079 -0.2729  0.0168 -0.9085
  885MOL0     C22021   0.970   8.301   2.256  0.3203 -0.4772 -0.0366
  885MOL0     C22022   1.025   8.197   2.177  0.1334  0.6116  0.4642
  885MOL0     O22023   1.135   8.127   2.227 -0.5396 -0.5690  0.3893
  885MOL0     C22024   1.168   7.995   2.198  0.8970 -0.5874 -0.2113
  885MOL0     C22025   1.279   7.968   2.114  0.0032  0.0475 -0.1541
  885MOL0     C22026   1.317   7.841   2.081 -0.6965 -0.3152  0.6967
  885MOL0     C22027   1.241   7.739   2.129 -0.0630  0.0647  0.2935
  885MOL0     O22028   1.277   7.608   2.091  0.0652 -0.6488  0.1505
  885MOL0     C22029   1.181   7.507   2.082 -1.1935 -1.1712  0.7792
  885MOL0     C22030   1.196   7.410   2.199  0.8721 -0.2033  0.1533
  885MOL0     C22031   1.083   7.298   2.196 -0.6040  1.4454 -1.0174
  885MOL0     C22032   1.103   7.188   2.081  0.5318 -1.1668 -0.6005
  885MOL0     C22033   0.973   7.118   2.049 -0.1512 -0.7195  0.9704
  885MOL0     C22034   0.875   7.200   1.960 -0.3659 -0.1163  0.6151
  885MOL0     C22035   0.755   7.110   1.926 -0.4234  0.1654 -0.0379
  885MOL0     C22036   0.616   7.177   1.902  1.0569  0.0030  0.0480
  885MOL0    Cl22037   0.517   7.053   1.837  0.1129  0.4130  0.3220
  885MOL0     C22038   1.127   7.763   2.204  0.4535 -0.7416  0.1236
  885MOL0     C22039   1.092   7.894   2.243 -0.0594  0.2655 -0.4255
  885MOL0     O22040   0.962   8.148   2.080  0.0286  0.1550 -1.0244
  885MOL0     C22041   1.029   8.328   2.377 -0.7164 -0.2847  0.2584
  885MOL0     C22042   0.966   8.412   2.471 -0.0403 -0.3487 -0.1417
  885MOL0     N22043   1.121   8.859   2.752 -0.4884 -0.9662  0.0589
  885MOL0     N22044   1.215   8.908   2.672 -0.4429  1.0404 -0.1906
  885MOL0     C22045   1.855   8.367   1.828  0.2682  0.4562 -0.3466
  885MOL0     C22046   1.925   8.272   1.753 -0.6084 -1.4260  0.8642
  885MOL0     C22047   2.181   8.060   1.483 -0.2899  0.9555  0.4777
  885MOL0     C22048   2.307   8.112   1.451 -0.3604  0.4904  0.5832
  885MOL0     C22049   2.404   8.017   1.413  0.2220 -0.8017  0.2224
  885MOL0     C22050   2.379   7.881   1.394  0.2011 -1.5414 -0.5403
  885MOL0     O22051   2.475   7.799   1.345 -0.1837 -0.6640 -0.0168
  885MOL0     C22052   2.505   7.804   1.201 -0.3004 -0.0738  0.0050
  885MOL0     C22053   2.527   7.662   1.152  0.3039 -1.0172 -0.1971
  885MOL0     C22054   2.396   7.617   1.081  0.6746 -0.8611 -0.5921
  885MOL0     C22055   2.375   7.475   1.071 -0.4157 -0.4102 -0.5996
  885MOL0     C22056   2.368   7.410   1.201  0.5130  0.0071  0.3661
  885MOL0     C22057   2.354   7.342   1.297 -0.8597 -0.1165 -0.5411
  885MOL0     C22058   2.248   7.830   1.420 -0.7295 -0.4948  0.4768
  885MOL0     C22059   2.145   7.919   1.474 -0.0795  0.5837 -0.5367
  885MOL0     C22060   2.007   7.870   1.511  0.0915  0.5162 -1.0837
  885MOL0     H22061   2.137   8.485   1.590 -0.5460  1.1240 -0.3121
  885MOL0     H22062   1.998   8.660   1.729  3.2953 -0.3280  0.2791
  885MOL0     H22063   1.655   8.606   1.781  1.4702  1.8198 -4.3328
  885MOL0     H22064   1.757   8.738   1.762  1.9097 -2.0545 -0.2561
  885MOL0     H22065   1.630   8.677   2.037  0.7784 -0.5304 -0.4763
  885MOL0     H22066   1.694   8.829   1.971  1.1749  0.0415  0.1318
  885MOL0     H22067   1.473   8.772   1.810 -2.2938  1.6162  0.0253
  885MOL0     H22068   1.435   8.672   1.947 -1.6043  1.0884 -2.0656
  885MOL0     H22069   1.476   8.970   1.984 -2.0412  1.9248 -1.4564
  885MOL0     H22070   1.316   8.906   1.959 -0.0200  1.7987  0.7121
  885MOL0     H22071   1.482   8.796   2.197 -1.8411 -2.7019  0.2235
  885MOL0     H22072   1.311   8.768   2.128 -1.9494  2.1626 -2.7469
  885MOL0     H22073   1.415   9.030   2.272  0.2381  0.4145 -1.5626
  885MOL0     H22074   1.269   9.006   2.185 -0.3854  0.3758  1.8078
  885MOL0     H22075   1.346   8.841   2.408  1.3935  0.1463 -0.9967
  885MOL0     H22076   1.194   8.832   2.323  1.2068 -1.3987 -1.0009
  885MOL0     H22077   1.326   9.060   2.484 -0.4775 -0.2707  0.5064
  885MOL0     H22078   1.169   9.090   2.401  0.4841  2.0682  2.2812
  885MOL0     H22079   0.956   9.008   2.518 -0.0211 -3.5080 -1.6523
  885MOL0     H22080   0.805   8.961   2.775  0.7066  0.5128 -3.9278
  885MOL0     H22081   0.894   8.835   2.877  0.3247  2.5024  0.7672
  885MOL0     H22082   0.688   8.733   2.746  0.5214 -0.7887  1.7407
  885MOL0     H22083   0.767   8.807   2.613  2.1755  0.3436 -0.0481
  885MOL0     H22084   0.958   8.644   2.642 -1.7761  2.5179 -1.3469
  885MOL0     H22085   0.908   8.615   2.813 -2.9234  1.6142  0.8180
  885MOL0     H22086   0.840   8.423   2.701  0.4309  0.2572  0.8877
  885MOL0     H22087   0.703   8.521   2.729 -2.3321  1.9766 -2.3671
  885MOL0     H22088   0.687   8.490   2.292  0.3390  0.2166 -0.0417
  885MOL0     H22089   0.728   8.255   2.071  0.4418 -0.5590  0.7507
  885MOL0     H22090   0.855   8.359   2.000  1.3782 -1.4114  0.4509
  885MOL0     H22091   0.703   8.427   2.062  0.9358  1.1677 -1.4711
  885MOL0     H22092   1.332   8.056   2.079  1.1828 -0.5807 -0.0288
  885MOL0     H22093   1.406   7.824   2.021  1.3156  0.1844  3.3473
  885MOL0     H22094   1.081   7.547   2.061 -0.7819 -0.0377  0.8948
  885MOL0     H22095   1.207   7.439   2.001 -2.3704 -1.7481  0.8696
  885MOL0     H22096   1.295   7.364   2.209  0.8369 -0.4240 -0.5011
  885MOL0     H22097   1.186   7.463   2.294 -0.6453  0.4246 -0.3379
  885MOL0     H22098   0.983   7.340   2.183 -2.3930 -2.2027 -0.3793
  885MOL0     H22099   1.081   7.245   2.292 -2.4574  0.8548 -1.3433
  885MOL0     H22100   1.178   7.115   2.108 -0.4645 -1.6780  0.9075
  885MOL0     H22101   1.149   7.225   1.989  2.3075 -1.9506 -0.0598
  885MOL0     H22102   0.994   7.036   1.980  1.1141  0.1022  0.3350
  885MOL0     H22103   0.934   7.082   2.145 -0.4491 -2.3766  0.2634
  885MOL0     H22104   0.915   7.224   1.861 -0.9406 -4.3975 -0.8936
  885MOL0     H22105   0.844   7.285   2.021  0.9175 -0.9115  2.4611
  885MOL0     H22106   0.738   7.038   2.007 -1.2267 -1.9893 -2.0344
  885MOL0     H22107   0.776   7.057   1.833 -0.4632 -0.7259  0.4517
  885MOL0     H22108   0.612   7.254   1.824  0.5874 -1.4430 -1.4258
  885MOL0     H22109   0.574   7.209   1.998  1.9392 -2.2654  1.2532
  885MOL0     H22110   1.057   7.685   2.234 -1.5551  1.2560  0.8977
  885MOL0     H22111   0.997   7.918   2.291  0.4248 -0.4145  0.9029
  885MOL0     H22112   1.123   8.280   2.403 -1.4279 -0.9676  1.6591
  885MOL0     H22113   1.021   8.433   2.562  1.7703  1.6570 -1.5969
  885MOL0     H22114   1.766   8.341   1.884 -0.1112  3.2509  0.4873
  885MOL0     H22115   1.895   8.168   1.759 -1.7887 -1.2255 -0.6833
  885MOL0     H22116   2.337   8.216   1.452  1.1899  0.2786 -3.8316
  885MOL0     H22117   2.503   8.052   1.387  0.8368 -0.5832  2.6725
  885MOL0     H22118   2.432   7.867   1.148  0.2321  1.4012  0.9523
  885MOL0     H22119   2.599   7.857   1.181 -0.2577 -0.1682 -0.0447
  885MOL0     H22120   2.557   7.599   1.237  1.1429 -2.6125 -1.6185
  885MOL0     H22121   2.607   7.669   1.078  1.6661 -1.0901  1.2167
  885MOL0     H22122   2.317   7.662   1.142  0.7520 -1.5690  0.0362
  885MOL0     H22123   2.391   7.667   0.983  3.6320 -0.5301 -0.6498
  885MOL0     H22124   2.470   7.435   1.034  0.2642  0.0504  0.5722
  885MOL0     H22125   2.302   7.435   1.000 -0.1990 -2.6463  0.3394
  885MOL0     H22126   2.346   7.280   1.384 -0.6388  2.7258  1.6388
  885MOL0     H22127   2.233   7.726   1.391  3.6299 -1.4264  0.8906
  885MOL0     H22128   1.935   7.925   1.449 -2.1096  1.0639  1.7450
  885MOL0     H22129   1.986   7.766   1.486  0.6893  0.5592 -1.8077
  885MOL0     H22130   1.984   7.887   1.617  0.2624 -1.4116 -0.7007
  886MOL0     O22131   2.632   1.128   7.117  0.5303 -0.2125  0.0678
  886MOL0     C22132   2.658   1.244   7.153 -0.0428  0.4790 -0.1769
  886MOL0     O22133   2.625   1.355   7.088 -0.0377 -0.2417 -0.0472
  886MOL0     C22134   2.533   1.357   6.984 -0.2176 -0.0529 -0.3608
  886MOL0     C22135   2.403   1.315   7.009 -0.0338 -0.1572 -0.2129
  886MOL0     C22136   2.306   1.314   6.902  0.3511  0.5855  0.3901
  886MOL0     C22137   2.344   1.353   6.776 -0.0450  0.2910  0.5181
  886MOL0     O22138   2.264   1.383   6.674  0.0805 -0.6404  0.3722
  886MOL0     C22139   2.124   1.391   6.707 -0.9387  0.1617 -0.7183
  886MOL0     C22140   2.053   1.255   6.696  1.1009  0.1779 -0.6747
  886MOL0     C22141   2.040   1.217   6.550 -0.7160  0.3727  1.0647
  886MOL0     C22142   1.916   1.271   6.477  0.6086 -0.2866  1.0977
  886MOL0     C22143   1.913   1.215   6.334  0.1616  0.3197 -0.0719
  886MOL0     C22144   1.876   1.061   6.327 -0.1279  0.0486 -0.2656
  886MOL0     C22145   1.738   1.026   6.390  0.1367  0.4350 -0.4612
  886MOL0     C22146   1.621   1.101   6.324  0.6207 -0.1187 -0.7326
  886MOL0     N22147   1.497   1.060   6.390 -0.5503  0.5459 -0.2607
  886MOL0     C22148   1.474   1.055   6.524 -0.0307 -0.2189 -0.4563
  886MOL0     C22149   1.343   1.022   6.541  0.1913  1.0022  0.3204
  886MOL0     C22150   1.280   0.986   6.665 -0.7494  0.2887 -0.8705
  886MOL0     C22151   1.358   0.896   6.749 -0.1473 -0.3819 -0.3839
  886MOL0     C22152   1.410   0.771   6.675  0.3821 -0.0880 -0.2924
  886MOL0     C22153   1.423   0.644   6.763  0.1550 -0.3727  0.3562
  886MOL0     O22154   1.509   0.680   6.878 -0.1300 -0.4201  0.1393
  886MOL0     C22155   1.641   0.684   6.853  0.4026 -0.2529 -0.1677
  886MOL0     C22156   1.720   0.681   6.734 -0.0326  0.1467  0.4090
  886MOL0     C22157   1.856   0.712   6.721 -0.2738  0.7416  0.1603
  886MOL0     C22158   1.907   0.720   6.587 -0.1456  0.9001  0.7724
  886MOL0     C22159   1.922   0.756   6.841  0.2358 -0.0913 -0.0928
  886MOL0     C22160   2.053   0.821   6.839 -0.7230 -1.2598 -0.6530
  886MOL0     O22161   2.094   0.857   6.963  0.9463  0.0210 -0.7952
  886MOL0     C22162   2.217   0.814   6.995 -0.3844  0.4060 -0.1898
  886MOL0     C22163   2.330   0.903   6.995  0.6335  0.3998 -0.7186
  886MOL0     C22164   2.457   0.859   7.035  0.1837  0.3587 -0.3305
  886MOL0     C22165   2.470   0.731   7.077 -0.9864  0.0305 -0.0911
  886MOL0     O22166   2.597   0.692   7.119 -0.7395 -0.2525  0.1483
  886MOL0     C22167   2.603   0.576   7.202  0.2250  0.5678 -0.2595
  886MOL0     C22168   2.748   0.564   7.245 -0.5272  0.2191 -0.6040
  886MOL0     C22169   2.764   0.466   7.358  0.2278  0.0572 -0.2194
  886MOL0     C22170   2.907   0.431   7.384  0.7663  0.5131 -0.1317
  886MOL0     C22171   2.929   0.316   7.485  0.1534 -0.3437  0.6197
  886MOL0     C22172   2.927   0.381   7.635  0.2772 -0.3544 -0.6730
  886MOL0     C22173   2.999   0.302   7.745 -0.1418 -0.4949 -0.7816
  886MOL0     C22174   2.906   0.181   7.788 -0.8301 -0.1916 -0.7025
  886MOL0    Cl22175   2.777   0.214   7.927 -0.2436 -0.0795  0.0080
  886MOL0     C22176   2.356   0.647   7.088  0.8171 -0.3441  0.3094
  886MOL0     C22177   2.231   0.680   7.042  0.2772 -0.5029 -0.5087
  886MOL0     O22178   2.117   0.834   6.742  0.0808  0.4102  0.3358
  886MOL0     C22179   1.850   0.748   6.957  0.8738  0.0585  0.0403
  886MOL0     C22180   1.716   0.717   6.961  0.7973  0.1688 -0.5989
  886MOL0     N22181   1.288   0.986   6.415 -0.8153 -0.7955  0.0288
  886MOL0     N22182   1.389   1.003   6.323  0.1734 -0.3085 -0.7636
  886MOL0     C22183   2.480   1.382   6.759 -0.2476 -0.9806  0.7273
  886MOL0     C22184   2.566   1.379   6.857  0.0971 -0.1225 -0.9550
  886MOL0     C22185   2.741   1.252   7.269  0.5262 -0.3289 -0.2969
  886MOL0     C22186   2.795   1.377   7.293 -0.3165 -0.8501 -1.2266
  886MOL0     C22187   2.879   1.393   7.401  0.5325 -0.0531 -0.1909
  886MOL0     C22188   2.914   1.288   7.486  0.0798  0.0263  0.2196
  886MOL0     O22189   3.002   1.301   7.591 -0.2820  0.5739 -0.1709
  886MOL0     C22190   3.129   1.364   7.554  0.9659  0.0018  0.1871
  886MOL0     C22191   3.234   1.265   7.492 -0.1953  0.4704 -0.2803
  886MOL0     C22192   3.260   1.162   7.602  0.8330 -0.9054  1.0990
  886MOL0     C22193   3.213   1.028   7.540 -0.7008 -0.3489 -0.1390
  886MOL0     C22194   3.217   0.926   7.641 -0.0527  0.4416 -0.0319
  886MOL0     C22195   3.232   0.848   7.734  0.5121  0.2612  0.2664
  886MOL0     C22196   2.869   1.164   7.462  0.5513  0.9743  0.2474
  886MOL0     C22197   2.784   1.142   7.349 -0.1730 -0.1468 -0.5661
  886MOL0     C22198   2.768   0.999   7.315  0.8439  0.0350  0.5621
  886MOL0     H22199   2.361   1.275   7.101  2.0918 -2.9032 -0.3272
  886MOL0     H22200   2.208   1.276   6.930 -0.6222  3.7890  1.8901
  886MOL0     H22201   2.088   1.462   6.631 -0.1833  1.7304  0.3340
  886MOL0     H22202   2.110   1.448   6.799  1.8018 -0.9069  0.4518
  886MOL0     H22203   2.107   1.175   6.747  1.3011  0.5774 -0.2544
  886MOL0     H22204   1.951   1.262   6.736  1.3500 -0.9263  0.2165
  886MOL0     H22205   2.134   1.242   6.500  0.1999 -0.8347  2.1479
  886MOL0     H22206   2.042   1.108   6.542  0.1144  0.5166 -2.6638
  886MOL0     H22207   1.826   1.249   6.536 -0.9623 -2.2957 -1.7689
  886MOL0     H22208   1.911   1.380   6.467 -0.8659 -0.4885 -1.3671
  886MOL0     H22209   2.012   1.232   6.293  0.4038 -1.3703 -0.2504
  886MOL0     H22210   1.842   1.272   6.274  1.2966 -1.0374 -2.8585
  886MOL0     H22211   1.870   1.020   6.226 -1.7379  3.3501 -1.6949
  886MOL0     H22212   1.956   1.007   6.378 -2.2145 -4.0046 -0.8954
  886MOL0     H22213   1.739   1.046   6.498 -1.0296  0.8735 -0.5195
  886MOL0     H22214   1.733   0.917   6.403  1.0918  0.5960  1.6893
  886MOL0     H22215   1.634   1.210   6.315 -2.6162  0.3043 -1.5536
  886MOL0     H22216   1.623   1.061   6.222 -0.8889  0.5180 -1.0394
  886MOL0     H22217   1.536   1.051   6.613 -3.4281 -2.2366  2.0656
  886MOL0     H22218   1.185   0.936   6.643 -0.7151 -0.1422 -0.0755
  886MOL0     H22219   1.243   1.072   6.721  0.5926  1.1035 -1.1831
  886MOL0     H22220   1.443   0.955   6.785  0.1986 -0.5446 -0.9419
  886MOL0     H22221   1.300   0.876   6.840  2.1022 -0.0210  1.2004
  886MOL0     H22222   1.342   0.748   6.592  1.4865  2.5078 -2.0723
  886MOL0     H22223   1.501   0.794   6.618  0.0545 -1.0891 -1.2673
  886MOL0     H22224   1.323   0.628   6.804 -0.0008  1.2992  0.6968
  886MOL0     H22225   1.454   0.555   6.707 -0.8720  1.0818 -2.7348
  886MOL0     H22226   1.672   0.659   6.639  0.2567  0.1848  0.2513
  886MOL0     H22227   1.840   0.685   6.508  0.3285  3.2037 -0.7451
  886MOL0     H22228   2.006   0.674   6.587 -0.1516  0.8855 -0.1028
  886MOL0     H22229   1.921   0.826   6.562  0.7044  0.0010 -3.2048
  886MOL0     H22230   2.311   1.007   6.968 -0.7655  0.6838  1.1814
  886MOL0     H22231   2.542   0.926   7.029 -0.1477  1.2371  2.8680
  886MOL0     H22232   2.544   0.588   7.293  0.3504  0.8882 -0.2208
  886MOL0     H22233   2.575   0.480   7.157  0.4604 -0.3039  1.4066
  886MOL0     H22234   2.808   0.528   7.160 -1.4914  2.4215 -2.3232
  886MOL0     H22235   2.787   0.663   7.271 -1.1916  0.2610  0.2556
  886MOL0     H22236   2.702   0.377   7.344 -0.8262  0.7797 -0.3010
  886MOL0     H22237   2.729   0.503   7.455  3.5220 -1.1549  1.5845
  886MOL0     H22238   2.964   0.519   7.418  1.4154 -0.1102  0.4277
  886MOL0     H22239   2.953   0.401   7.290  0.0178 -0.8921 -0.0612
  886MOL0     H22240   2.855   0.236   7.473  0.9797 -0.9075 -1.0850
  886MOL0     H22241   3.025   0.264   7.476 -0.5574 -2.1874  2.8319
  886MOL0     H22242   2.824   0.403   7.665  0.8159 -1.6654  2.5739
  886MOL0     H22243   2.981   0.475   7.622  1.0761 -0.5873  0.7700
  886MOL0     H22244   3.013   0.358   7.838 -2.0377 -1.0993 -0.0890
  886MOL0     H22245   3.095   0.273   7.700 -1.1348 -5.1699 -0.3848
  886MOL0     H22246   2.982   0.106   7.812  1.4293  1.3682 -2.5575
  886MOL0     H22247   2.849   0.151   7.700 -0.4811  2.6567 -2.0020
  886MOL0     H22248   2.371   0.551   7.136  0.8988 -0.1739  0.6253
  886MOL0     H22249   2.141   0.620   7.042 -1.0502  1.3700  0.4851
  886MOL0     H22250   1.883   0.774   7.057 -0.7336  0.2007  0.5618
  886MOL0     H22251   1.663   0.742   7.053 -2.4036  3.5937 -3.1080
  886MOL0     H22252   2.506   1.415   6.659  3.8545  0.7732  2.1837
  886MOL0     H22253   2.667   1.397   6.821  1.4255 -3.4204  0.6315
  886MOL0     H22254   2.778   1.469   7.237  0.9971 -0.5884 -1.2217
  886MOL0     H22255   2.926   1.489   7.422 -1.0643  0.1006  3.4142
  886MOL0     H22256   3.116   1.442   7.479 -1.2263 -1.1581 -0.7390
  886MOL0     H22257   3.168   1.411   7.645  0.6083  0.1820  0.2502
  886MOL0     H22258   3.325   1.324   7.476  0.1837 -0.0412 -0.0414
  886MOL0     H22259   3.224   1.219   7.393  0.0377 -1.8533  0.7355
  886MOL0     H22260   3.366   1.155   7.629  1.1115 -0.2362  0.2005
  886MOL0     H22261   3.208   1.185   7.696 -0.2898 -1.3393  0.6030
  886MOL0     H22262   3.278   1.003   7.456  4.7029 -1.4995  3.8065
  886MOL0     H22263   3.112   1.026   7.498 -0.2422 -0.4820 -1.2786
  886MOL0     H22264   3.232   0.782   7.818 -2.9360  1.6571  1.5552
  886MOL0     H22265   2.901   1.079   7.522  1.3194  2.6131  2.2941
  886MOL0     H22266   2.831   0.976   7.229  1.8053 -0.7765  1.4631
  886MOL0     H22267   2.788   0.923   7.390  1.7297 -0.1980  0.1048
  886MOL0     H22268   2.665   0.971   7.290  1.8152 -0.9162 -3.0548
  887MOL0     O22269  11.580   9.775   8.792 -0.2389 -0.0287 -0.2070
  887MOL0     C22270  11.595   9.662   8.822 -0.1680 -0.1537  0.0268
  887MOL0     O22271  11.678   9.580   8.745 -0.4060 -0.3414  0.0967
  887MOL0     C22272  11.705   9.626   8.619  0.2727 -0.6505 -0.3366
  887MOL0     C22273  11.834   9.671   8.581  0.1646  0.0768  0.5918
  887MOL0     C22274  11.870   9.722   8.451  0.6429  0.4102 -0.6627
  887MOL0     C22275  11.773   9.709   8.356  0.2502 -0.7997 -0.7098
  887MOL0     O22276  11.834   9.730   8.229  0.0200 -0.4135 -0.1455
  887MOL0     C22277  11.768   9.684   8.111 -0.3741 -0.7828 -0.4535
  887MOL0     C22278  11.778   9.530   8.069 -0.3023 -0.0673 -0.3805
  887MOL0     C22279  11.905   9.466   8.122  0.8447  0.3739  0.6439
  887MOL0     C22280  12.040   9.521   8.065  0.0893  0.2766  0.3265
  887MOL0     C22281  12.162   9.430   8.104 -0.4343 -0.9388 -1.0564
  887MOL0     C22282  12.271   9.456   8.005 -0.0654 -0.0871  0.3365
  887MOL0     C22283  12.407   9.383   8.033 -1.2912  0.3459 -0.9878
  887MOL0     C22284  12.472   9.422   8.166 -0.2108 -1.0681 -1.1058
  887MOL0     N22285  12.611   9.377   8.185  0.1627  0.8242  0.2631
  887MOL0     C22286  12.671   9.362   8.303  1.1853 -0.1809 -0.0019
  887MOL0     C22287  12.797   9.329   8.259 -0.3043  1.0501 -0.1611
  887MOL0     C22288  12.901   9.285   8.359 -0.1841  0.0814 -0.0725
  887MOL0     C22289  13.033   9.305   8.290  0.2030  0.0774  0.7132
  887MOL0     C22290  13.159   9.289   8.381 -0.2932 -0.2121 -0.5002
  887MOL0     C22291  13.278   9.356   8.316 -0.5334  0.3817  0.0134
  887MOL0     O22292  13.247   9.480   8.246  0.0975  1.3769  0.2454
  887MOL0     C22293  13.235   9.594   8.318 -0.4525 -0.7234 -1.6186
  887MOL0     C22294  13.279   9.618   8.452  0.7172  0.6150  0.6985
  887MOL0     C22295  13.285   9.752   8.497  0.4981 -0.2506 -0.2369
  887MOL0     C22296  13.336   9.789   8.633 -0.4872  0.4113  0.3314
  887MOL0     C22297  13.226   9.861   8.416  0.0958 -0.3884  0.5908
  887MOL0     C22298  13.195   9.997   8.459 -0.1065  0.3490  0.1413
  887MOL0     O22299  13.231  10.095   8.370  0.4089  0.5459 -0.1556
  887MOL0     C22300  13.259  10.211   8.432 -0.1747 -0.9980  1.0598
  887MOL0     C22301  13.209  10.320   8.368  1.6244 -0.0320  0.3797
  887MOL0     C22302  13.245  10.450   8.400  0.4649  1.1916 -0.0185
  887MOL0     C22303  13.332  10.475   8.515  0.8385 -0.8164  1.0752
  887MOL0     O22304  13.342  10.600   8.571 -0.6650 -0.0103  0.1749
  887MOL0     C22305  13.361  10.709   8.479 -0.8958  0.3238 -0.4094
  887MOL0     C22306  13.502  10.718   8.410  0.8185 -0.4542 -0.8422
  887MOL0     C22307  13.611  10.736   8.519 -0.4549 -0.6311 -0.4439
  887MOL0     C22308  13.639  10.894   8.559  0.3618 -0.2705  1.0914
  887MOL0     C22309  13.733  10.901   8.676  0.1122  0.2226  0.2129
  887MOL0     C22310  13.759  11.045   8.721  0.0374 -0.7824 -0.9733
  887MOL0     C22311  13.815  11.043   8.867  0.1556  0.0141  0.7514
  887MOL0     C22312  13.889  11.166   8.919  0.1217  0.1475  0.7521
  887MOL0    Cl22313  13.775  11.297   8.928  0.0405  0.1193 -0.0343
  887MOL0     C22314  13.389  10.361   8.583 -0.1075  0.6075  0.3044
  887MOL0     C22315  13.356  10.235   8.531 -0.8412  0.1142  0.0662
  887MOL0     O22316  13.134  10.016   8.566 -0.5171  0.4892  0.4782
  887MOL0     C22317  13.173   9.825   8.293  0.2888 -0.8276  0.1453
  887MOL0     C22318  13.180   9.696   8.247 -0.7474  0.7726  0.6321
  887MOL0     N22319  12.798   9.320   8.122 -0.3677  0.3193  0.1927
  887MOL0     N22320  12.685   9.367   8.081 -0.2181  0.3626 -0.0528
  887MOL0     C22321  11.640   9.665   8.384 -0.9700  1.4733 -0.7445
  887MOL0     C22322  11.606   9.626   8.521 -0.4104 -0.3879 -0.0869
  887MOL0     C22323  11.550   9.606   8.953 -0.1431  0.7648  0.1630
  887MOL0     C22324  11.553   9.697   9.069  0.3851 -0.2469  0.0719
  887MOL0     C22325  11.515   9.653   9.196  0.5041  0.7889 -0.9745
  887MOL0     C22326  11.454   9.524   9.198  1.1183 -0.7970 -0.5972
  887MOL0     O22327  11.419   9.477   9.322  0.3084 -0.2451  0.5201
  887MOL0     C22328  11.393   9.339   9.356 -1.7394  0.3597 -0.1428
  887MOL0     C22329  11.345   9.318   9.509  0.3007  0.3792  0.7885
  887MOL0     C22330  11.297   9.180   9.543  0.5937 -0.1391 -0.7253
  887MOL0     C22331  11.393   9.092   9.616 -0.5386  0.0136  1.1258
  887MOL0     C22332  11.312   8.979   9.658 -0.3792 -0.1507  0.0958
  887MOL0     C22333  11.234   8.888   9.688 -0.9425 -0.5948 -0.8806
  887MOL0     C22334  11.453   9.439   9.089  0.2555  0.5058  0.7470
  887MOL0     C22335  11.500   9.478   8.961 -0.0412 -0.0780  0.1971
  887MOL0     C22336  11.502   9.374   8.859  0.5288  0.5794  0.3291
  887MOL0     H22337  11.916   9.664   8.651  0.0939 -0.9888  0.5791
  887MOL0     H22338  11.974   9.749   8.437  0.7814  1.2767  1.5992
  887MOL0     H22339  11.817   9.734   8.027  0.3603 -1.4041 -0.4104
  887MOL0     H22340  11.664   9.715   8.112 -0.0151  0.8779  3.5265
  887MOL0     H22341  11.690   9.482   8.113 -0.4949 -1.9458 -2.6339
  887MOL0     H22342  11.775   9.538   7.960 -0.2522  1.3607 -0.2963
  887MOL0     H22343  11.894   9.494   8.227 -3.2999 -0.7189  0.6824
  887MOL0     H22344  11.898   9.357   8.126 -1.3765  0.4992  1.6371
  887MOL0     H22345  12.020   9.528   7.958 -1.4440  1.7528  0.6685
  887MOL0     H22346  12.073   9.612   8.116  4.3401 -2.8371  4.0226
  887MOL0     H22347  12.140   9.323   8.108  3.1251 -1.7622  0.9804
  887MOL0     H22348  12.192   9.448   8.208  1.0102 -1.4653 -1.3462
  887MOL0     H22349  12.227   9.425   7.911  1.2655 -1.3378  0.0952
  887MOL0     H22350  12.292   9.563   7.999 -0.0509 -0.0734  0.6134
  887MOL0     H22351  12.481   9.418   7.960 -1.9139  2.5457 -0.6358
  887MOL0     H22352  12.387   9.276   8.043  0.8779 -0.1224 -1.0004
  887MOL0     H22353  12.489   9.530   8.175  0.2842 -1.2161 -0.0249
  887MOL0     H22354  12.405   9.384   8.243  1.9197  1.1048  2.0645
  887MOL0     H22355  12.647   9.372   8.408 -2.6111  3.3653 -0.9242
  887MOL0     H22356  12.887   9.179   8.383  4.7576 -0.5432  1.0938
  887MOL0     H22357  12.901   9.348   8.448 -1.1971 -1.6717  1.2383
  887MOL0     H22358  13.032   9.242   8.201 -1.2125  2.9594 -1.4710
  887MOL0     H22359  13.029   9.411   8.264 -1.5573  1.2332  4.8594
  887MOL0     H22360  13.136   9.327   8.481  2.1819  0.7461 -0.2062
  887MOL0     H22361  13.176   9.185   8.409 -0.8595  0.1349  1.2657
  887MOL0     H22362  13.357   9.380   8.388  0.7004  2.0184 -1.7752
  887MOL0     H22363  13.305   9.283   8.239 -0.1461  1.8303 -1.2903
  887MOL0     H22364  13.311   9.537   8.516 -0.9618 -0.0969  0.7117
  887MOL0     H22365  13.266   9.765   8.712  1.1686 -3.2453  0.9164
  887MOL0     H22366  13.359   9.895   8.627 -0.7144  0.3798 -2.8922
  887MOL0     H22367  13.423   9.729   8.662 -1.1238 -1.8799 -2.1091
  887MOL0     H22368  13.133  10.302   8.293  0.8822 -1.7903  1.4801
  887MOL0     H22369  13.210  10.528   8.332  0.9458 -0.6417 -2.5233
  887MOL0     H22370  13.275  10.713   8.411 -3.5567 -1.8414  2.5180
  887MOL0     H22371  13.356  10.794   8.547  3.3982 -0.6972  1.5286
  887MOL0     H22372  13.517  10.625   8.354  0.8260  0.4585 -2.4173
  887MOL0     H22373  13.501  10.799   8.336  0.0381 -0.7488 -1.1617
  887MOL0     H22374  13.709  10.705   8.480  1.1661  2.7635  0.4808
  887MOL0     H22375  13.590  10.674   8.607  0.5214 -1.5044 -0.8012
  887MOL0     H22376  13.539  10.929   8.584  0.3597 -0.4734  1.3690
  887MOL0     H22377  13.683  10.945   8.472 -0.8955 -1.1894 -0.1220
  887MOL0     H22378  13.688  10.842   8.757  0.7193 -2.2097 -1.1024
  887MOL0     H22379  13.829  10.854   8.651 -0.9337 -2.5894  1.0945
  887MOL0     H22380  13.668  11.105   8.719  0.7731  0.3664 -2.6407
  887MOL0     H22381  13.828  11.096   8.653 -1.7596 -0.3107 -2.5336
  887MOL0     H22382  13.899  10.973   8.859 -0.2201 -0.1969 -2.6579
  887MOL0     H22383  13.742  11.019   8.945  1.9922 -3.4247  1.6335
  887MOL0     H22384  13.964  11.203   8.849 -0.7789 -1.0234 -0.8994
  887MOL0     H22385  13.935  11.152   9.018  0.7819  1.8319  0.7094
  887MOL0     H22386  13.448  10.372   8.673 -0.4437  0.4651  0.5447
  887MOL0     H22387  13.401  10.151   8.584  3.0563  3.5970  2.9200
  887MOL0     H22388  13.116   9.895   8.232 -0.8568 -3.2856 -1.7827
  887MOL0     H22389  13.151   9.658   8.150  0.4695  0.4662  0.3837
  887MOL0     H22390  11.566   9.657   8.305 -0.3715 -0.2968 -1.1755
  887MOL0     H22391  11.505   9.591   8.543 -0.5875  0.6980  0.9642
  887MOL0     H22392  11.600   9.791   9.046 -0.0666 -0.6652 -2.9345
  887MOL0     H22393  11.527   9.707   9.289  1.0367 -0.2283 -0.4348
  887MOL0     H22394  11.321   9.289   9.290 -2.1275 -2.0190  1.9044
  887MOL0     H22395  11.484   9.278   9.357 -3.6159 -2.6449  0.0262
  887MOL0     H22396  11.262   9.389   9.514  0.5969  0.8260 -0.2971
  887MOL0     H22397  11.432   9.351   9.567  0.2714 -0.6335  1.4282
  887MOL0     H22398  11.206   9.188   9.604  0.1014 -1.8838 -1.1622
  887MOL0     H22399  11.267   9.128   9.452 -1.6277  0.4718 -0.4127
  887MOL0     H22400  11.433   9.133   9.709  0.2865 -0.1342  0.8382
  887MOL0     H22401  11.489   9.074   9.567  1.3278  1.4337  3.9525
  887MOL0     H22402  11.163   8.810   9.703 -0.4867 -1.3608 -2.4579
  887MOL0     H22403  11.412   9.339   9.094 -1.7447  1.2873  0.7710
  887MOL0     H22404  11.598   9.325   8.879  0.0039 -1.1238 -0.9916
  887MOL0     H22405  11.420   9.303   8.876 -2.1561  3.6262  1.0318
  887MOL0     H22406  11.499   9.409   8.755  0.9968  3.0110  1.0927
  888MOL0     O22407   6.750   4.379   5.128 -0.6125  0.6539  0.3834
  888MOL0     C22408   6.862   4.423   5.148 -0.7008  0.2611  0.4705
  888MOL0     O22409   6.907   4.538   5.086 -0.0804  0.1624 -0.2734
  888MOL0     C22410   6.833   4.574   4.974  0.4185  0.7193 -0.6251
  888MOL0     C22411   6.875   4.555   4.839 -0.5671  1.1310  0.5856
  888MOL0     C22412   6.805   4.624   4.742  0.1309 -0.0379  0.8314
  888MOL0     C22413   6.690   4.703   4.762  0.7621  0.7108 -0.8509
  888MOL0     O22414   6.618   4.758   4.659  0.4353  0.8562 -0.5034
  888MOL0     C22415   6.618   4.705   4.523 -0.2239 -0.5644  0.2927
  888MOL0     C22416   6.503   4.743   4.438  0.3909 -0.6385  0.2775
  888MOL0     C22417   6.470   4.889   4.437 -0.4713  0.1715  0.2928
  888MOL0     C22418   6.384   4.939   4.550 -0.1410  0.8600  1.4898
  888MOL0     C22419   6.235   4.896   4.533 -0.4966  0.6248  0.5966
  888MOL0     C22420   6.149   4.921   4.653 -0.4171 -0.0908 -0.1193
  888MOL0     C22421   5.998   4.901   4.627 -0.9840  0.9038  0.3683
  888MOL0     C22422   5.932   5.017   4.543 -0.5513  1.1343 -0.3839
  888MOL0     N22423   5.826   5.091   4.612  0.0171  0.4813  0.6530
  888MOL0     C22424   5.699   5.107   4.568 -0.5620 -0.9180  0.5752
  888MOL0     C22425   5.650   5.217   4.636 -0.3945  0.7602 -0.2257
  888MOL0     C22426   5.524   5.286   4.593  0.0090  0.2113 -0.0582
  888MOL0     C22427   5.451   5.314   4.725  0.0738  0.3921 -0.1241
  888MOL0     C22428   5.323   5.403   4.707 -0.9423  0.8335  0.4826
  888MOL0     C22429   5.331   5.555   4.677 -0.0817 -0.1327  0.1749
  888MOL0     O22430   5.415   5.632   4.768 -0.7722  0.5049  1.2346
  888MOL0     C22431   5.447   5.755   4.732  1.2902  0.0062 -0.1250
  888MOL0     C22432   5.392   5.825   4.626  0.1796  0.4524 -0.0599
  888MOL0     C22433   5.431   5.947   4.591  0.6234  0.0286 -1.2055
  888MOL0     C22434   5.373   6.002   4.466  0.3570 -0.6911 -0.2761
  888MOL0     C22435   5.524   6.009   4.671 -0.4733 -0.4126 -0.1470
  888MOL0     C22436   5.576   6.152   4.643 -1.0082 -0.1946  0.4380
  888MOL0     O22437   5.534   6.226   4.534  0.3712 -1.0439 -0.0778
  888MOL0     C22438   5.600   6.342   4.504 -0.0461 -0.6829 -0.4740
  888MOL0     C22439   5.636   6.446   4.598 -0.2033  1.2609 -0.0024
  888MOL0     C22440   5.690   6.565   4.560 -1.5199 -1.0779  0.4433
  888MOL0     C22441   5.722   6.585   4.424 -0.3188  0.3326  0.2584
  888MOL0     O22442   5.785   6.698   4.375 -0.2641 -0.7157  0.1593
  888MOL0     C22443   5.877   6.761   4.465  0.2275 -0.0284 -0.2715
  888MOL0     C22444   5.976   6.849   4.388  0.4329  0.3946 -0.4386
  888MOL0     C22445   6.116   6.779   4.362 -0.6608 -0.4033 -0.6779
  888MOL0     C22446   6.202   6.804   4.489 -0.5183  0.0613 -0.4729
  888MOL0     C22447   6.349   6.760   4.476  0.4016 -0.2754  0.4896
  888MOL0     C22448   6.441   6.853   4.381  0.0668  0.2260 -0.4685
  888MOL0     C22449   6.593   6.840   4.387  0.0061  0.7207 -0.7711
  888MOL0     C22450   6.658   6.812   4.517 -0.4209  0.3242  0.7906
  888MOL0    Cl22451   6.838   6.823   4.469 -0.3119  0.4899  0.3100
  888MOL0     C22452   5.683   6.484   4.330  0.0064  0.2059 -0.8238
  888MOL0     C22453   5.631   6.367   4.370 -0.1111  0.1792  0.0158
  888MOL0     O22454   5.643   6.202   4.731 -0.0230 -0.2852 -0.0648
  888MOL0     C22455   5.583   5.945   4.783  0.6331 -0.7576  0.3789
  888MOL0     C22456   5.536   5.820   4.814 -0.4548  0.1764  0.5841
  888MOL0     N22457   5.743   5.247   4.735 -1.2035  0.0718  0.5225
  888MOL0     N22458   5.847   5.178   4.708  0.6651 -0.0582 -0.4868
  888MOL0     C22459   6.647   4.720   4.891 -0.1997  0.7141 -1.1032
  888MOL0     C22460   6.720   4.655   5.001  0.5334 -0.2726  0.1958
  888MOL0     C22461   6.957   4.354   5.246 -0.0784  0.1536  0.3479
  888MOL0     C22462   6.903   4.249   5.323  0.0031  1.0499  0.3780
  888MOL0     C22463   6.992   4.177   5.411 -0.1144 -0.6585  0.1053
  888MOL0     C22464   7.125   4.208   5.426 -1.4312 -1.1597  0.6603
  888MOL0     O22465   7.201   4.132   5.511 -0.1061  0.4041  0.7795
  888MOL0     C22466   7.240   4.199   5.629 -0.3412 -0.3508  0.4156
  888MOL0     C22467   7.281   4.109   5.742 -0.5233 -0.2628 -0.4855
  888MOL0     C22468   7.394   4.007   5.701 -0.9551 -0.0761 -1.6435
  888MOL0     C22469   7.439   3.909   5.819 -0.7028  0.2210  0.1449
  888MOL0     C22470   7.330   3.836   5.889  0.2506  0.0237  0.5872
  888MOL0     C22471   7.214   3.795   5.916 -0.6838  0.2040 -0.6056
  888MOL0     C22472   7.175   4.315   5.354  0.2922  0.3262 -1.2199
  888MOL0     C22473   7.102   4.380   5.255  1.1356 -0.0082 -0.4719
  888MOL0     C22474   7.173   4.499   5.183  0.4037  1.5297  0.0715
  888MOL0     H22475   6.955   4.484   4.820 -2.3246 -0.7266 -0.3052
  888MOL0     H22476   6.857   4.632   4.647 -0.9513 -0.4844  0.1827
  888MOL0     H22477   6.644   4.599   4.525  0.9705 -0.2853  0.2099
  888MOL0     H22478   6.710   4.748   4.482 -1.5169  1.8215 -0.3006
  888MOL0     H22479   6.518   4.703   4.337  2.4776 -3.7756  1.6705
  888MOL0     H22480   6.424   4.681   4.482 -1.4198 -0.0632 -1.9410
  888MOL0     H22481   6.562   4.948   4.431  0.1906 -0.9364 -0.9418
  888MOL0     H22482   6.422   4.914   4.342 -2.1348  1.2988  1.3645
  888MOL0     H22483   6.423   4.904   4.646 -0.8833 -3.3751  0.4510
  888MOL0     H22484   6.382   5.048   4.558 -1.9285  0.7989  2.4275
  888MOL0     H22485   6.239   4.789   4.515  5.0386  0.8125 -1.3787
  888MOL0     H22486   6.204   4.946   4.441  1.1554  2.1873  0.8045
  888MOL0     H22487   6.194   4.853   4.725  2.9953  0.7365 -1.2871
  888MOL0     H22488   6.163   5.027   4.679  3.5950 -0.9469  2.0499
  888MOL0     H22489   5.945   4.887   4.722 -1.4182  1.0418  0.1504
  888MOL0     H22490   5.989   4.804   4.577  3.6876  0.2147  0.4708
  888MOL0     H22491   6.014   5.085   4.518  1.1706 -1.7170 -3.1708
  888MOL0     H22492   5.895   4.971   4.451 -1.0872 -2.7187  1.5801
  888MOL0     H22493   5.653   5.061   4.481  0.7423  1.0194 -1.2140
  888MOL0     H22494   5.466   5.222   4.527  0.6010  2.7064 -3.2373
  888MOL0     H22495   5.555   5.378   4.542  4.5933  0.4748  2.5642
  888MOL0     H22496   5.427   5.215   4.765 -0.1691  0.5461  0.1168
  888MOL0     H22497   5.518   5.367   4.793  0.7130 -0.9161  0.2929
  888MOL0     H22498   5.265   5.355   4.628 -0.4177  0.7873  0.1209
  888MOL0     H22499   5.267   5.396   4.801 -1.8233  2.9823  0.1938
  888MOL0     H22500   5.363   5.573   4.574  1.1433  3.7873  1.0955
  888MOL0     H22501   5.231   5.598   4.686 -3.1045 -5.3959 -2.8523
  888MOL0     H22502   5.317   5.774   4.565 -2.7742 -1.6917  4.7697
  888MOL0     H22503   5.289   5.943   4.428  0.0919 -0.9960  0.7570
  888MOL0     H22504   5.448   6.003   4.386 -0.0921 -0.2070 -0.7015
  888MOL0     H22505   5.340   6.106   4.468  3.6771  0.4739  1.8260
  888MOL0     H22506   5.621   6.432   4.704 -0.8051  0.9964 -0.1150
  888MOL0     H22507   5.724   6.634   4.636  3.1344 -0.8621 -1.5037
  888MOL0     H22508   5.831   6.824   4.542 -1.1737 -2.6647  1.2031
  888MOL0     H22509   5.927   6.680   4.519 -1.0752 -0.1634  0.7638
  888MOL0     H22510   5.917   6.875   4.299 -2.2110  0.4614  1.2522
  888MOL0     H22511   5.996   6.943   4.441  0.6388  0.8683 -1.3313
  888MOL0     H22512   6.171   6.823   4.279  0.2131 -0.9160 -0.3934
  888MOL0     H22513   6.104   6.671   4.347 -2.4054 -0.4365  0.6351
  888MOL0     H22514   6.152   6.768   4.579  1.5464  1.5067  1.3787
  888MOL0     H22515   6.215   6.912   4.507 -1.3837  0.0584  0.2257
  888MOL0     H22516   6.391   6.750   4.577  1.5903 -0.2547  0.0073
  888MOL0     H22517   6.347   6.657   4.441  0.7475  0.1657 -0.8609
  888MOL0     H22518   6.418   6.959   4.395 -3.1049 -0.3253 -0.7191
  888MOL0     H22519   6.414   6.834   4.276 -0.5372 -2.5427  0.1074
  888MOL0     H22520   6.633   6.926   4.334 -0.6668  0.5080 -1.6612
  888MOL0     H22521   6.622   6.756   4.323 -0.5895  0.4514 -0.6982
  888MOL0     H22522   6.618   6.715   4.549  2.4950 -1.0124  0.6982
  888MOL0     H22523   6.631   6.882   4.597  0.9773  1.6360  0.1499
  888MOL0     H22524   5.692   6.493   4.222 -2.1941  1.3943 -0.9481
  888MOL0     H22525   5.594   6.294   4.299 -1.2919  0.9061 -0.1476
  888MOL0     H22526   5.657   5.992   4.847 -0.0391  1.1598 -0.1676
  888MOL0     H22527   5.570   5.769   4.904 -2.1210  2.0574  2.3991
  888MOL0     H22528   6.560   4.778   4.916 -1.2510 -2.2285  3.0064
  888MOL0     H22529   6.694   4.670   5.105  2.5316 -0.9587  0.8478
  888MOL0     H22530   6.801   4.227   5.294  0.3730  1.1601 -1.0719
  888MOL0     H22531   6.964   4.082   5.457 -2.9677  1.0395  2.2410
  888MOL0     H22532   7.331   4.255   5.604  0.9690 -2.5880 -0.2238
  888MOL0     H22533   7.167   4.273   5.662 -1.6638 -1.2168 -0.4799
  888MOL0     H22534   7.190   4.059   5.777 -0.3499 -0.1320  0.1522
  888MOL0     H22535   7.320   4.171   5.823 -0.4062  0.3483 -0.9941
  888MOL0     H22536   7.340   3.945   5.629 -3.4970  3.0830 -2.7035
  888MOL0     H22537   7.479   4.055   5.652 -0.5566  1.1681  0.1765
  888MOL0     H22538   7.511   3.957   5.885  1.9120 -1.9830 -0.9268
  888MOL0     H22539   7.499   3.831   5.770  1.4051  1.0284  1.3118
  888MOL0     H22540   7.120   3.747   5.936  0.0667 -1.0903 -0.0652
  888MOL0     H22541   7.280   4.333   5.375  0.9363 -2.3626 -1.8439
  888MOL0     H22542   7.277   4.495   5.217  1.7414 -1.3644 -3.6288
  888MOL0     H22543   7.171   4.512   5.075 -1.0174  0.5910 -0.0501
  888MOL0     H22544   7.131   4.591   5.224 -3.9169 -0.3005  0.3032
  889MOL0     O22545   0.607   4.294   1.306 -0.0782  0.1474  0.1407
  889MOL0     C22546   0.696   4.250   1.382  0.2747  0.0811 -0.4931
  889MOL0     O22547   0.669   4.234   1.523 -0.5065  0.7469 -0.1349
  889MOL0     C22548   0.549   4.288   1.562  0.1657  1.1644  0.0452
  889MOL0     C22549   0.450   4.196   1.595 -0.1161  0.5345  1.3681
  889MOL0     C22550   0.325   4.233   1.644 -0.1115 -0.3016  0.6598
  889MOL0     C22551   0.290   4.366   1.662 -0.3453  0.1727 -0.2181
  889MOL0     O22552   0.156   4.397   1.690  0.8956  0.6425  0.3036
  889MOL0     C22553   0.127   4.532   1.716  0.4462 -0.4429 -0.4525
  889MOL0     C22554   0.024   4.535   1.830  0.0277 -0.5702  0.0657
  889MOL0     C22555  -0.023   4.679   1.866  0.2808  0.5249 -0.5335
  889MOL0     C22556  -0.149   4.681   1.952  0.3645 -0.0183  1.0313
  889MOL0     C22557  -0.279   4.633   1.895 -0.0312  0.2834  0.4764
  889MOL0     C22558  -0.367   4.567   2.010 -0.4141  0.5855  0.6688
  889MOL0     C22559  -0.505   4.511   1.947 -1.1414 -0.1396  1.1899
  889MOL0     C22560  -0.593   4.470   2.065 -0.1567 -1.6057 -0.1116
  889MOL0     N22561  -0.722   4.400   2.033 -0.2043 -0.3244 -0.1039
  889MOL0     C22562  -0.800   4.412   1.923  0.0545  0.0347  0.0491
  889MOL0     C22563  -0.898   4.320   1.946  0.0922 -0.4010  0.9617
  889MOL0     C22564  -0.993   4.264   1.836 -1.0222  0.6461  0.4971
  889MOL0     C22565  -0.918   4.141   1.757 -0.9226 -0.1550  1.5495
  889MOL0     C22566  -1.011   4.098   1.645 -1.3265 -0.1293  0.4505
  889MOL0     C22567  -0.959   3.970   1.567  0.2813  0.0802 -0.2949
  889MOL0     O22568  -0.924   3.858   1.654  0.7996 -0.2444 -0.3088
  889MOL0     C22569  -0.904   3.734   1.596  1.2129 -0.9865  0.8685
  889MOL0     C22570  -0.834   3.643   1.665  0.0500  0.6606  0.0240
  889MOL0     C22571  -0.809   3.513   1.612  0.7211 -0.4306 -0.4949
  889MOL0     C22572  -0.726   3.423   1.696 -0.0688 -0.6543 -0.0052
  889MOL0     C22573  -0.855   3.474   1.485 -0.0702 -0.0880 -0.5474
  889MOL0     C22574  -0.839   3.333   1.429 -0.8560 -0.4114 -0.2822
  889MOL0     O22575  -0.949   3.284   1.360 -0.0278 -0.4133 -0.2026
  889MOL0     C22576  -0.935   3.163   1.295  0.2524  0.0394  0.1916
  889MOL0     C22577  -0.904   3.165   1.159  0.7632  1.1915  0.2874
  889MOL0     C22578  -0.888   3.046   1.095 -0.7337  0.3713 -1.1358
  889MOL0     C22579  -0.900   2.920   1.167 -0.0666 -0.5863  0.6249
  889MOL0     O22580  -0.873   2.794   1.109  0.4795 -1.3027  0.2127
  889MOL0     C22581  -0.780   2.711   1.178 -0.6174 -0.1071  0.3679
  889MOL0     C22582  -0.641   2.739   1.114  0.4774  0.2025 -1.0371
  889MOL0     C22583  -0.638   2.731   0.961  0.1250  0.2272 -0.0019
  889MOL0     C22584  -0.646   2.587   0.899  0.1549  0.1864  0.4734
  889MOL0     C22585  -0.614   2.595   0.749 -0.2005 -0.5038 -0.2510
  889MOL0     C22586  -0.612   2.447   0.686 -0.7130  0.2723  0.6014
  889MOL0     C22587  -0.745   2.355   0.683 -0.7084  0.6345 -0.0510
  889MOL0     C22588  -0.805   2.330   0.551  0.6443  0.4759  0.7776
  889MOL0    Cl22589  -0.723   2.197   0.463  0.4849  0.0338  0.2296
  889MOL0     C22590  -0.955   2.917   1.295  0.2111  0.5475 -0.0809
  889MOL0     C22591  -0.974   3.048   1.357 -0.6484 -0.2396  0.4973
  889MOL0     O22592  -0.740   3.266   1.456  0.1832 -0.3193  0.0628
  889MOL0     C22593  -0.935   3.575   1.423  0.6838  0.3023  0.2517
  889MOL0     C22594  -0.961   3.702   1.476 -0.5902  0.5453  0.4115
  889MOL0     N22595  -0.859   4.242   2.058  0.1180 -0.0612 -0.4612
  889MOL0     N22596  -0.743   4.284   2.105  0.3225 -0.3980  0.6669
  889MOL0     C22597   0.389   4.459   1.626 -0.9181 -0.7314 -0.4479
  889MOL0     C22598   0.521   4.424   1.597  0.2226 -0.2353 -0.2739
  889MOL0     C22599   0.833   4.211   1.330  0.9215 -0.6076 -0.0334
  889MOL0     C22600   0.853   4.245   1.188 -1.0102  0.0718 -1.3709
  889MOL0     C22601   0.969   4.211   1.116  0.8350 -0.8851  0.4919
  889MOL0     C22602   1.076   4.157   1.191  0.3668 -0.8063  0.4880
  889MOL0     O22603   1.197   4.131   1.123 -0.9443  0.2445  1.0177
  889MOL0     C22604   1.188   4.042   1.013 -1.0799 -0.0396  0.4221
  889MOL0     C22605   1.249   3.902   1.055 -0.6317 -0.1096 -0.1502
  889MOL0     C22606   1.398   3.920   1.048  0.6659 -0.2583  0.9814
  889MOL0     C22607   1.461   3.785   1.085  0.6005 -0.5320  0.3507
  889MOL0     C22608   1.437   3.672   0.992 -0.3243 -1.0302  0.0529
  889MOL0     C22609   1.434   3.565   0.935 -0.7525 -0.1249  0.2666
  889MOL0     C22610   1.062   4.122   1.325 -0.2773  0.2198 -0.5257
  889MOL0     C22611   0.941   4.150   1.396 -0.2588  0.4610  0.0149
  889MOL0     C22612   0.941   4.085   1.536  0.5557 -0.3704  0.9366
  889MOL0     H22613   0.465   4.092   1.570 -3.2414  0.4053 -0.4586
  889MOL0     H22614   0.252   4.162   1.682 -0.3566  1.4223  3.7908
  889MOL0     H22615   0.078   4.583   1.633  0.7547  1.3378  0.4159
  889MOL0     H22616   0.207   4.595   1.756  0.0134 -0.5866  0.6675
  889MOL0     H22617  -0.056   4.466   1.802  3.1935 -3.7489 -1.9949
  889MOL0     H22618   0.071   4.485   1.916 -1.4560 -4.0872 -1.0137
  889MOL0     H22619   0.055   4.728   1.925 -1.8177  1.5452  1.5649
  889MOL0     H22620  -0.027   4.742   1.776  0.7491 -1.9552 -2.3945
  889MOL0     H22621  -0.138   4.630   2.048 -0.4976  1.0249  1.6960
  889MOL0     H22622  -0.170   4.782   1.988  2.3062  1.2569 -1.1606
  889MOL0     H22623  -0.265   4.550   1.824  1.6574 -0.4342  1.5795
  889MOL0     H22624  -0.327   4.721   1.850 -0.0670  0.1089  0.1670
  889MOL0     H22625  -0.305   4.487   2.051  0.5064  0.7930 -0.2603
  889MOL0     H22626  -0.389   4.641   2.088 -1.3422  0.2773  0.7089
  889MOL0     H22627  -0.494   4.420   1.889 -0.8629 -0.2046  1.3448
  889MOL0     H22628  -0.556   4.587   1.887 -0.4127  1.6656  2.7318
  889MOL0     H22629  -0.530   4.402   2.124  0.8118 -0.0833  0.6512
  889MOL0     H22630  -0.630   4.555   2.122 -1.5571 -3.9462  2.7915
  889MOL0     H22631  -0.795   4.480   1.839 -3.6096  2.3387  1.4594
  889MOL0     H22632  -1.025   4.354   1.783  0.4483  1.6639  1.2582
  889MOL0     H22633  -1.089   4.223   1.870 -0.1607  0.3329  2.7216
  889MOL0     H22634  -0.823   4.172   1.714 -0.7794 -2.4822  0.0462
  889MOL0     H22635  -0.887   4.064   1.828  1.7789  0.0043  0.6529
  889MOL0     H22636  -1.110   4.082   1.690 -1.0150  0.6232  1.4479
  889MOL0     H22637  -1.018   4.184   1.578 -0.9034  0.8244  1.5848
  889MOL0     H22638  -1.036   3.944   1.494  0.3506 -2.6161  0.4915
  889MOL0     H22639  -0.875   3.996   1.502 -0.3103 -0.9520 -1.5045
  889MOL0     H22640  -0.817   3.653   1.772 -0.3584  1.5620  0.0172
  889MOL0     H22641  -0.690   3.480   1.782 -0.3134  0.3688 -0.5616
  889MOL0     H22642  -0.633   3.399   1.644  0.4515  2.3301 -0.6013
  889MOL0     H22643  -0.776   3.331   1.727 -0.4319 -1.2519 -2.2032
  889MOL0     H22644  -0.888   3.262   1.114 -5.4382  2.1984 -0.6175
  889MOL0     H22645  -0.859   3.034   0.991  2.7642  0.3629 -0.2944
  889MOL0     H22646  -0.761   2.742   1.282  0.4771 -0.2292  0.2182
  889MOL0     H22647  -0.810   2.607   1.187  3.3983 -1.5313 -0.6886
  889MOL0     H22648  -0.610   2.838   1.146 -1.3969  0.8407 -1.0500
  889MOL0     H22649  -0.567   2.669   1.153  1.9158  2.5620  0.6780
  889MOL0     H22650  -0.544   2.777   0.929  0.5578 -1.5740 -1.4631
  889MOL0     H22651  -0.717   2.801   0.931 -0.0683  1.2357  2.5136
  889MOL0     H22652  -0.743   2.546   0.927 -0.2433  0.6671 -0.1734
  889MOL0     H22653  -0.573   2.527   0.953  0.6688  0.0246 -0.3873
  889MOL0     H22654  -0.686   2.657   0.694 -2.4889  1.6058  4.5380
  889MOL0     H22655  -0.513   2.636   0.742  0.0296 -0.2763  2.8828
  889MOL0     H22656  -0.540   2.386   0.741 -0.4294  1.9591  2.1856
  889MOL0     H22657  -0.584   2.459   0.581 -3.6400  2.3631 -0.0698
  889MOL0     H22658  -0.815   2.407   0.750 -0.9204 -2.7380  2.6689
  889MOL0     H22659  -0.736   2.260   0.738 -1.8055  0.6962  0.2535
  889MOL0     H22660  -0.802   2.426   0.499 -2.2751 -0.2905 -1.0371
  889MOL0     H22661  -0.908   2.300   0.569  0.4495  0.9179  0.4318
  889MOL0     H22662  -0.984   2.827   1.347 -1.5121  0.4095 -1.2117
  889MOL0     H22663  -1.020   3.050   1.456 -0.8764  2.3164  0.3867
  889MOL0     H22664  -0.977   3.546   1.327  0.6733  2.7461 -0.5349
  889MOL0     H22665  -1.031   3.768   1.424 -2.3242 -1.0447  0.6183
  889MOL0     H22666   0.373   4.565   1.641  3.0815  0.0463 -0.3631
  889MOL0     H22667   0.607   4.490   1.586 -0.6083  0.9040 -0.0405
  889MOL0     H22668   0.768   4.284   1.135 -4.3153 -3.7688  0.5351
  889MOL0     H22669   0.966   4.220   1.008 -0.0005  2.2800  0.6793
  889MOL0     H22670   1.086   4.018   0.982 -0.7911 -3.1449  1.4393
  889MOL0     H22671   1.253   4.080   0.934 -0.8720 -1.0900  0.0626
  889MOL0     H22672   1.212   3.827   0.984  0.7796 -0.4763 -0.5157
  889MOL0     H22673   1.219   3.875   1.157 -1.6023 -5.6308 -1.5572
  889MOL0     H22674   1.440   3.969   0.960 -2.2847  2.2219  0.7776
  889MOL0     H22675   1.440   3.991   1.121  1.2618 -0.3681  0.7523
  889MOL0     H22676   1.433   3.763   1.188 -0.3724  0.7717  0.3852
  889MOL0     H22677   1.566   3.814   1.073  0.1440  1.5635  0.9899
  889MOL0     H22678   1.413   3.468   0.894  0.5164 -0.3552  0.1211
  889MOL0     H22679   1.150   4.089   1.380 -2.0747  1.8809  3.8141
  889MOL0     H22680   0.873   4.129   1.609 -0.1545 -0.0497  0.1069
  889MOL0     H22681   0.913   3.980   1.534 -2.4084  0.3025 -1.1284
  889MOL0     H22682   1.040   4.090   1.582  1.4151  1.3163 -0.9090
  890MOL0     O22683   2.272   1.798   4.817 -0.2375  0.3642 -0.6156
  890MOL0     C22684   2.210   1.688   4.820 -1.2165  0.1348 -0.3588
  890MOL0     O22685   2.107   1.655   4.738  0.7234  0.1560  0.3347
  890MOL0     C22686   2.094   1.712   4.611  0.2771 -0.2670  0.5086
  890MOL0     C22687   1.971   1.711   4.544 -0.6434  0.1840 -1.3253
  890MOL0     C22688   1.958   1.773   4.416 -0.1485  0.4147  0.2663
  890MOL0     C22689   2.064   1.844   4.361 -0.0234  0.7249  0.2546
  890MOL0     O22690   2.032   1.927   4.258  0.8095  0.4191 -0.7615
  890MOL0     C22691   2.132   1.967   4.166 -0.9634 -0.0327 -0.3590
  890MOL0     C22692   2.098   1.962   4.019 -0.1528 -0.4919  0.5248
  890MOL0     C22693   2.217   1.956   3.933  0.8010  0.1199 -0.6215
  890MOL0     C22694   2.169   1.977   3.788 -0.3873 -0.3973  0.3658
  890MOL0     C22695   2.286   1.999   3.695 -0.1051 -0.3605  0.2933
  890MOL0     C22696   2.251   2.067   3.561  0.5869  0.2200 -0.2715
  890MOL0     C22697   2.375   2.132   3.505  0.1651 -0.2674 -0.3242
  890MOL0     C22698   2.339   2.210   3.371  0.6668  0.3437  0.5106
  890MOL0     N22699   2.452   2.261   3.299  0.1175  0.3011  0.1550
  890MOL0     C22700   2.496   2.207   3.183  0.9075 -1.0006  0.0003
  890MOL0     C22701   2.611   2.280   3.158  0.6427  1.0097 -0.2006
  890MOL0     C22702   2.705   2.255   3.042  0.2532 -0.9564  0.5750
  890MOL0     C22703   2.825   2.354   3.029  0.3808 -0.0457 -0.1485
  890MOL0     C22704   2.929   2.296   2.934 -0.2352  0.2747 -0.2462
  890MOL0     C22705   3.021   2.409   2.897 -0.5903 -1.0729  0.7617
  890MOL0     O22706   3.134   2.350   2.822  0.0386  0.9807  0.1579
  890MOL0     C22707   3.259   2.378   2.865 -1.5063 -0.7122 -0.1330
  890MOL0     C22708   3.345   2.459   2.785 -0.6554 -0.7153 -0.0342
  890MOL0     C22709   3.476   2.500   2.821  0.6218 -0.1957 -0.8140
  890MOL0     C22710   3.536   2.599   2.722 -0.7161  0.3351  0.4000
  890MOL0     C22711   3.523   2.447   2.952 -0.0412 -0.0992  0.1380
  890MOL0     C22712   3.666   2.450   2.997 -0.4192  0.3952 -0.2234
  890MOL0     O22713   3.694   2.453   3.129 -0.6035  0.2952  0.0802
  890MOL0     C22714   3.816   2.426   3.186 -1.1165  0.8064 -0.2260
  890MOL0     C22715   3.814   2.415   3.328  0.6788  0.3250  1.1448
  890MOL0     C22716   3.927   2.386   3.399 -1.0444  0.3267 -0.3099
  890MOL0     C22717   4.052   2.365   3.338 -0.1935 -0.6398 -0.5717
  890MOL0     O22718   4.153   2.327   3.425 -1.0725  0.3369  0.2025
  890MOL0     C22719   4.283   2.315   3.362  0.2742 -0.2189  1.1471
  890MOL0     C22720   4.397   2.297   3.453  0.2581  0.9915 -0.2799
  890MOL0     C22721   4.526   2.267   3.374 -0.5910 -0.1256 -0.0435
  890MOL0     C22722   4.664   2.285   3.452  0.2084  0.1093 -0.5486
  890MOL0     C22723   4.776   2.233   3.366  0.5970  0.5781  0.1650
  890MOL0     C22724   4.909   2.243   3.436 -0.8015  0.3832 -0.2801
  890MOL0     C22725   5.021   2.200   3.351 -0.1190 -1.2129  0.4530
  890MOL0     C22726   5.016   2.067   3.278 -0.9318 -0.0163 -0.2808
  890MOL0    Cl22727   4.990   1.956   3.404 -0.1111 -0.3784 -0.1037
  890MOL0     C22728   4.060   2.383   3.194  0.6226  0.2099 -0.5638
  890MOL0     C22729   3.946   2.413   3.117 -1.7511  0.0805  0.4230
  890MOL0     O22730   3.738   2.434   2.898 -0.5422  0.5359 -0.0982
  890MOL0     C22731   3.444   2.366   3.024  0.5963 -0.3000 -0.3359
  890MOL0     C22732   3.314   2.325   2.983 -0.3724 -0.2298  0.0079
  890MOL0     N22733   2.618   2.377   3.252 -0.0439  0.5957 -0.2477
  890MOL0     N22734   2.530   2.366   3.340 -0.4777  0.1950 -0.6473
  890MOL0     C22735   2.194   1.829   4.423  0.7588 -1.0199  0.0744
  890MOL0     C22736   2.206   1.768   4.538  0.4606 -0.1077  1.1074
  890MOL0     C22737   2.239   1.588   4.928 -0.4092  0.5701  0.3293
  890MOL0     C22738   2.130   1.520   4.982 -0.2136  0.5745 -0.5418
  890MOL0     C22739   2.150   1.436   5.093  0.4389  1.0600 -0.3018
  890MOL0     C22740   2.283   1.398   5.136 -0.1415  0.4544  0.8131
  890MOL0     O22741   2.328   1.310   5.232 -0.0648  0.5054 -0.0308
  890MOL0     C22742   2.241   1.280   5.337 -0.0554 -0.3477  0.0567
  890MOL0     C22743   2.169   1.150   5.282 -0.2453  0.5305 -0.0974
  890MOL0     C22744   2.042   1.122   5.367 -0.5708  0.3352  0.5817
  890MOL0     C22745   2.063   1.079   5.512  0.0930 -0.5203  1.1903
  890MOL0     C22746   2.146   0.963   5.523  0.8460 -0.0392 -0.1729
  890MOL0     C22747   2.208   0.858   5.539  1.4704 -0.6604  0.8121
  890MOL0     C22748   2.391   1.450   5.064  0.0969 -0.0324 -0.1090
  890MOL0     C22749   2.367   1.549   4.968 -0.2385  0.3655  0.0827
  890MOL0     C22750   2.496   1.608   4.900  0.5038 -0.8708  0.0639
  890MOL0     H22751   1.880   1.670   4.585  0.2434  1.9657  2.9298
  890MOL0     H22752   1.866   1.782   4.359 -0.1826 -1.1632  0.0242
  890MOL0     H22753   2.219   1.905   4.189 -1.2741  0.5212  2.5881
  890MOL0     H22754   2.156   2.067   4.202 -1.5688 -1.4599  4.7633
  890MOL0     H22755   2.038   1.871   4.006 -0.2356 -0.4119  0.3389
  890MOL0     H22756   2.040   2.047   3.981  2.1580  0.3495 -1.3616
  890MOL0     H22757   2.288   2.038   3.948 -0.5245  1.5216 -1.7479
  890MOL0     H22758   2.264   1.857   3.939  0.1284 -0.1065  1.5113
  890MOL0     H22759   2.115   1.886   3.758 -0.3135 -1.2035  2.4996
  890MOL0     H22760   2.109   2.068   3.781  1.4925  0.8090 -1.2849
  890MOL0     H22761   2.358   1.916   3.688 -0.3940 -0.5772 -0.1164
  890MOL0     H22762   2.344   2.072   3.752  1.3002 -1.2156  0.0080
  890MOL0     H22763   2.212   1.994   3.490  1.8302 -1.9922  1.1882
  890MOL0     H22764   2.176   2.145   3.573 -1.0476 -0.9293 -2.3288
  890MOL0     H22765   2.455   2.061   3.479  0.5901  0.9513 -2.6370
  890MOL0     H22766   2.411   2.196   3.586 -2.7240  1.0188  0.0512
  890MOL0     H22767   2.288   2.138   3.306  0.7558 -0.9780  1.8324
  890MOL0     H22768   2.274   2.295   3.394  0.2921 -0.3123  1.9867
  890MOL0     H22769   2.456   2.116   3.139 -0.6160 -1.7877  2.7749
  890MOL0     H22770   2.642   2.257   2.953 -1.8565  0.4460  1.9873
  890MOL0     H22771   2.743   2.153   3.050  1.6191 -1.0776 -4.2827
  890MOL0     H22772   2.791   2.456   3.007 -1.2694 -0.2152  1.3464
  890MOL0     H22773   2.874   2.364   3.127 -0.1943  1.1373  0.0447
  890MOL0     H22774   2.979   2.208   2.976 -1.6149 -0.6595 -0.5061
  890MOL0     H22775   2.886   2.259   2.840  1.7712 -1.1877 -0.6560
  890MOL0     H22776   2.962   2.481   2.839 -2.7316 -3.3384 -0.0635
  890MOL0     H22777   3.058   2.463   2.984 -0.0828  0.2001 -0.2135
  890MOL0     H22778   3.314   2.499   2.689 -1.6261 -0.2686  0.4421
  890MOL0     H22779   3.462   2.675   2.696 -1.5715 -0.8747 -0.8057
  890MOL0     H22780   3.554   2.542   2.630  2.0687  1.7902 -0.0660
  890MOL0     H22781   3.637   2.632   2.749 -0.4787  0.1392 -0.2221
  890MOL0     H22782   3.726   2.413   3.390 -1.1338  1.0427 -1.2523
  890MOL0     H22783   3.928   2.393   3.508  3.6772  2.6100 -0.2303
  890MOL0     H22784   4.271   2.222   3.305 -3.6912 -1.1893  3.1949
  890MOL0     H22785   4.301   2.405   3.302 -5.3524  2.0695  2.2979
  890MOL0     H22786   4.402   2.382   3.521 -1.2603 -0.5477  1.8811
  890MOL0     H22787   4.386   2.216   3.526 -0.0267 -0.2505 -1.6552
  890MOL0     H22788   4.514   2.322   3.281 -0.4395 -1.7335 -1.0621
  890MOL0     H22789   4.528   2.160   3.350 -0.1498 -0.2156  0.3778
  890MOL0     H22790   4.671   2.242   3.553  0.5371 -2.9888 -1.7874
  890MOL0     H22791   4.670   2.393   3.465  1.5280  0.0370 -0.4487
  890MOL0     H22792   4.757   2.128   3.341  1.1927  1.0837 -2.7121
  890MOL0     H22793   4.772   2.292   3.274 -1.2799  1.5718  0.8272
  890MOL0     H22794   4.906   2.171   3.519  2.3693  0.3550 -0.0766
  890MOL0     H22795   4.920   2.343   3.478  1.0153 -0.1445  0.6013
  890MOL0     H22796   5.109   2.186   3.416  0.3942 -1.2645 -0.2453
  890MOL0     H22797   5.045   2.272   3.273  1.4965 -1.9013  0.2682
  890MOL0     H22798   5.105   2.052   3.216  0.7399 -1.7519  2.3247
  890MOL0     H22799   4.925   2.073   3.218  0.5119  0.8107 -2.5129
  890MOL0     H22800   4.147   2.379   3.130  1.0856  3.6598 -0.3033
  890MOL0     H22801   3.941   2.431   3.011 -0.6920 -2.0768 -0.0592
  890MOL0     H22802   3.483   2.309   3.107  1.2872 -1.6187 -1.5262
  890MOL0     H22803   3.256   2.249   3.034 -2.4310 -1.3164 -3.6495
  890MOL0     H22804   2.282   1.876   4.380  0.5372 -0.3772  0.3019
  890MOL0     H22805   2.302   1.768   4.588  0.1253  3.6603  2.0445
  890MOL0     H22806   2.031   1.543   4.942 -0.5816 -2.2344 -1.4292
  890MOL0     H22807   2.063   1.407   5.150 -0.6240  1.1748 -1.8066
  890MOL0     H22808   2.299   1.253   5.425  3.5584  5.8931  0.1107
  890MOL0     H22809   2.172   1.362   5.360  2.0667  1.1400  1.4831
  890MOL0     H22810   2.244   1.072   5.279  1.2110  1.8824 -0.2550
  890MOL0     H22811   2.139   1.150   5.176 -0.6048  0.5985  0.0019
  890MOL0     H22812   1.983   1.214   5.363 -2.0753 -0.4188  3.1454
  890MOL0     H22813   1.981   1.048   5.314 -0.0417 -1.2770  2.1428
  890MOL0     H22814   1.965   1.060   5.557  1.1848 -0.5135  3.7272
  890MOL0     H22815   2.113   1.163   5.561  1.4535 -0.5669 -0.0548
  890MOL0     H22816   2.259   0.765   5.551  1.8307 -0.6241 -0.3749
  890MOL0     H22817   2.489   1.413   5.095 -0.5287 -0.1999  1.8307
  890MOL0     H22818   2.508   1.592   4.793  1.9085  2.9961 -0.5102
  890MOL0     H22819   2.490   1.716   4.913 -2.6172 -1.1152  1.6535
  890MOL0     H22820   2.586   1.574   4.953  0.2579 -0.1132  1.0061
  891MOL0     O22821   3.382   6.758   2.347 -0.2604 -0.1497  0.2597
  891MOL0     C22822   3.449   6.656   2.358  0.1670 -0.0479  0.1087
  891MOL0     O22823   3.528   6.635   2.467  1.0380  0.2093  0.2613
  891MOL0     C22824   3.541   6.731   2.567 -0.1985 -0.3816  0.8253
  891MOL0     C22825   3.663   6.766   2.625 -0.0301  0.6154  0.5775
  891MOL0     C22826   3.683   6.850   2.730  0.0371  0.4027  0.1411
  891MOL0     C22827   3.566   6.890   2.805 -1.5147 -0.6049 -0.2222
  891MOL0     O22828   3.588   6.961   2.917  0.6042  0.3138  0.1038
  891MOL0     C22829   3.654   7.095   2.909 -0.1856  0.4901 -0.6732
  891MOL0     C22830   3.611   7.174   3.034 -0.0292  0.1416 -1.1695
  891MOL0     C22831   3.685   7.116   3.156 -0.0862  0.4550  0.6874
  891MOL0     C22832   3.665   7.194   3.282  0.3861  0.3365  0.0493
  891MOL0     C22833   3.737   7.328   3.292  0.7685 -0.0271 -0.3332
  891MOL0     C22834   3.730   7.398   3.442  0.1760 -0.5010  0.7085
  891MOL0     C22835   3.807   7.532   3.450 -0.2329  0.5710 -1.2999
  891MOL0     C22836   3.739   7.633   3.361  0.1599  0.1803  0.4238
  891MOL0     N22837   3.811   7.759   3.379  0.2998 -0.4543 -0.0850
  891MOL0     C22838   3.882   7.828   3.276  0.6291  0.5883 -0.1834
  891MOL0     C22839   3.882   7.960   3.314 -1.1244  0.6713 -0.1812
  891MOL0     C22840   3.933   8.067   3.218 -0.0586  0.1490 -0.3733
  891MOL0     C22841   4.090   8.078   3.207  0.4130 -0.5710 -0.8564
  891MOL0     C22842   4.140   8.219   3.182  1.1084  0.1072 -0.2859
  891MOL0     C22843   4.100   8.280   3.052 -0.1418  0.4838 -0.0629
  891MOL0     O22844   4.089   8.417   3.073 -0.6203 -0.3280 -0.7738
  891MOL0     C22845   4.204   8.490   3.091  0.6617  0.2072  0.0747
  891MOL0     C22846   4.297   8.487   2.992  0.6166  0.0276  0.7375
  891MOL0     C22847   4.427   8.541   3.007  0.1123  0.4851 -0.2031
  891MOL0     C22848   4.523   8.528   2.892 -0.7794 -0.3904 -0.2412
  891MOL0     C22849   4.468   8.597   3.130  0.2280  0.0292 -0.2964
  891MOL0     C22850   4.596   8.664   3.158  1.4554 -0.2443  0.1868
  891MOL0     O22851   4.643   8.660   3.289  0.2371  0.0864  0.5007
  891MOL0     C22852   4.768   8.707   3.312 -0.0933  0.4901 -0.0152
  891MOL0     C22853   4.808   8.838   3.341 -1.2991 -0.7976 -0.2271
  891MOL0     C22854   4.940   8.880   3.372  0.7378  0.3192  0.4236
  891MOL0     C22855   5.040   8.783   3.370 -0.4234  0.1875 -0.7549
  891MOL0     O22856   5.173   8.813   3.394 -0.3605 -0.1124 -0.5192
  891MOL0     C22857   5.224   8.924   3.323 -0.1021 -0.9220 -0.9167
  891MOL0     C22858   5.315   9.002   3.416  0.4984 -0.9898  0.8655
  891MOL0     C22859   5.244   9.115   3.500 -0.4351  0.5776  1.4023
  891MOL0     C22860   5.173   9.073   3.626 -0.1676 -0.3892 -0.0798
  891MOL0     C22861   5.140   9.191   3.721 -0.1843 -0.0900 -0.1876
  891MOL0     C22862   5.041   9.156   3.833 -0.1122 -0.4073  0.5534
  891MOL0     C22863   4.996   9.278   3.917 -0.2402 -0.4652 -1.0598
  891MOL0     C22864   4.873   9.240   4.003 -0.0175  0.3110 -0.5931
  891MOL0    Cl22865   4.920   9.125   4.136 -0.0278  0.3759  0.0598
  891MOL0     C22866   5.000   8.655   3.355 -0.0795 -0.0661  0.0596
  891MOL0     C22867   4.870   8.615   3.318 -0.7333 -0.2197  0.4231
  891MOL0     O22868   4.637   8.745   3.065 -0.6641  0.5234 -0.5689
  891MOL0     C22869   4.369   8.598   3.234  0.0296  0.8122 -0.7719
  891MOL0     C22870   4.236   8.562   3.209  0.3008 -0.4359 -0.7643
  891MOL0     N22871   3.827   7.971   3.441  0.7076 -0.2659  0.0055
  891MOL0     N22872   3.775   7.853   3.473 -0.1137 -0.3945 -0.7409
  891MOL0     C22873   3.439   6.872   2.750 -0.3868  0.0320 -0.3770
  891MOL0     C22874   3.425   6.791   2.632 -0.8309 -0.0611 -0.4063
  891MOL0     C22875   3.441   6.545   2.262 -0.3905 -0.6775  0.3468
  891MOL0     C22876   3.527   6.436   2.273 -0.0969  0.4912  0.1942
  891MOL0     C22877   3.542   6.334   2.172 -0.4492 -0.4529  0.0096
  891MOL0     C22878   3.459   6.339   2.056  0.0642 -0.5214  0.3354
  891MOL0     O22879   3.434   6.238   1.965 -0.4535  1.1366  0.0156
  891MOL0     C22880   3.516   6.122   1.978 -0.1339 -0.2824 -1.0749
  891MOL0     C22881   3.497   6.035   1.857  0.7675  0.6556  0.0143
  891MOL0     C22882   3.350   5.975   1.832  1.0460 -0.4799  0.2781
  891MOL0     C22883   3.344   5.886   1.704  0.4452  1.0517 -1.3956
  891MOL0     C22884   3.354   5.985   1.588  0.9369 -0.8212 -0.4655
  891MOL0     C22885   3.344   6.069   1.503  0.4065 -0.4866  0.4384
  891MOL0     C22886   3.375   6.454   2.043 -1.4531 -0.3121 -0.0888
  891MOL0     C22887   3.359   6.559   2.144  0.6193 -0.2592  0.3322
  891MOL0     C22888   3.276   6.678   2.097  0.1743  0.5429 -0.3735
  891MOL0     H22889   3.753   6.723   2.580 -0.1826  2.9319 -2.2091
  891MOL0     H22890   3.787   6.874   2.751  1.1004  0.7750 -4.4497
  891MOL0     H22891   3.633   7.149   2.817  0.1807 -0.3974 -1.2931
  891MOL0     H22892   3.763   7.097   2.901  0.1110 -1.8555  1.4840
  891MOL0     H22893   3.637   7.280   3.027  1.5257 -0.1360 -0.1366
  891MOL0     H22894   3.503   7.165   3.047  0.2739 -1.0678  1.2254
  891MOL0     H22895   3.642   7.018   3.179  0.6044 -0.2328 -0.8053
  891MOL0     H22896   3.784   7.090   3.115 -0.8075 -0.7219 -0.3819
  891MOL0     H22897   3.558   7.213   3.296  0.6960  2.2761  0.1036
  891MOL0     H22898   3.704   7.156   3.377  0.4307  1.6596  0.5764
  891MOL0     H22899   3.676   7.391   3.227 -0.9851  0.4796  1.6685
  891MOL0     H22900   3.842   7.323   3.264  1.3153 -0.3683  1.5876
  891MOL0     H22901   3.629   7.422   3.474  0.2428 -1.4363  1.6872
  891MOL0     H22902   3.772   7.333   3.521  1.8893 -2.0180 -1.3142
  891MOL0     H22903   3.912   7.512   3.427 -0.0467 -1.2506  0.7928
  891MOL0     H22904   3.806   7.562   3.555  0.4013 -3.0493 -0.0977
  891MOL0     H22905   3.748   7.611   3.255  0.5839  0.6080  0.3675
  891MOL0     H22906   3.635   7.642   3.394  0.7416  4.4947  1.6745
  891MOL0     H22907   3.921   7.771   3.192  1.0221 -0.7877  0.8887
  891MOL0     H22908   3.890   8.163   3.249  0.9326  0.4647  0.0554
  891MOL0     H22909   3.892   8.042   3.120  1.1554 -4.3463  0.0486
  891MOL0     H22910   4.129   8.049   3.305 -0.5042  1.2918  0.0984
  891MOL0     H22911   4.137   8.005   3.141  3.2000 -0.7180  1.1040
  891MOL0     H22912   4.123   8.278   3.273  1.9780  0.1108 -0.1171
  891MOL0     H22913   4.249   8.212   3.180  1.1688  0.5739  0.6140
  891MOL0     H22914   4.168   8.252   2.971 -0.5634 -2.0599  0.3951
  891MOL0     H22915   3.998   8.252   3.024 -0.3129  2.4159 -1.6012
  891MOL0     H22916   4.260   8.449   2.897  1.9263  0.5487  0.0047
  891MOL0     H22917   4.617   8.475   2.909  0.0326  0.4155 -1.8767
  891MOL0     H22918   4.557   8.628   2.861  2.8607 -1.9925 -1.9707
  891MOL0     H22919   4.476   8.482   2.805 -0.7891 -3.8621  1.4462
  891MOL0     H22920   4.739   8.919   3.322  2.2481  1.9418 -2.7940
  891MOL0     H22921   4.957   8.987   3.383 -1.2146  0.4030  4.0415
  891MOL0     H22922   5.286   8.903   3.236  4.1900  2.6782  0.8741
  891MOL0     H22923   5.151   8.997   3.288  2.1377  0.7157 -2.4379
  891MOL0     H22924   5.373   8.926   3.469  1.7216 -0.4892  0.2768
  891MOL0     H22925   5.389   9.050   3.352 -2.5724  0.1906 -2.1703
  891MOL0     H22926   5.179   9.168   3.430 -0.1598  0.9750  1.4477
  891MOL0     H22927   5.328   9.180   3.525  0.3188  0.4555 -0.6103
  891MOL0     H22928   5.238   9.008   3.685 -0.9119 -1.6234 -0.5922
  891MOL0     H22929   5.082   9.017   3.604  0.3435 -0.8376 -1.1247
  891MOL0     H22930   5.236   9.235   3.748 -0.6411  1.2074 -0.6154
  891MOL0     H22931   5.082   9.270   3.673  0.5686  2.3133  2.5435
  891MOL0     H22932   5.099   9.090   3.897  3.6734  1.0391 -1.0876
  891MOL0     H22933   4.953   9.111   3.787  0.6723 -3.3019  1.6751
  891MOL0     H22934   4.963   9.362   3.856 -2.4618  0.3881  1.1535
  891MOL0     H22935   5.083   9.306   3.977  1.0190 -0.4118 -2.8390
  891MOL0     H22936   4.796   9.187   3.945 -2.1869 -0.5933  2.8012
  891MOL0     H22937   4.829   9.327   4.052 -0.5667 -0.5592  0.5197
  891MOL0     H22938   5.063   8.566   3.356  0.1853  0.1055  1.6748
  891MOL0     H22939   4.855   8.507   3.315  0.1132 -0.3279 -0.2199
  891MOL0     H22940   4.391   8.642   3.331 -2.1466  2.5896 -0.9933
  891MOL0     H22941   4.174   8.575   3.297  0.2156 -1.5281 -0.6549
  891MOL0     H22942   3.345   6.914   2.786 -0.3350 -0.2248  0.0718
  891MOL0     H22943   3.332   6.768   2.582  0.9417 -3.8398 -2.4762
  891MOL0     H22944   3.589   6.437   2.362  0.7918  0.5130 -0.4106
  891MOL0     H22945   3.616   6.254   2.178  0.3693  0.1556 -1.3502
  891MOL0     H22946   3.620   6.154   1.988  0.1944 -1.8859  1.4385
  891MOL0     H22947   3.488   6.074   2.072  3.0347  1.8964  1.2012
  891MOL0     H22948   3.575   5.959   1.853 -0.7099 -0.8788 -0.4855
  891MOL0     H22949   3.521   6.097   1.770 -1.9272 -0.8250 -1.9419
  891MOL0     H22950   3.312   5.929   1.923 -2.2982  0.2001 -0.6300
  891MOL0     H22951   3.279   6.056   1.815  0.5845 -0.2873  2.7777
  891MOL0     H22952   3.251   5.829   1.712  0.0909  1.6941 -0.8069
  891MOL0     H22953   3.417   5.805   1.697  0.1689  0.7135 -0.5884
  891MOL0     H22954   3.349   6.133   1.417  2.0665 -1.4833 -0.2451
  891MOL0     H22955   3.316   6.468   1.953 -1.9818 -2.6570 -0.1686
  891MOL0     H22956   3.222   6.667   2.002  2.4313 -0.7730 -1.5793
  891MOL0     H22957   3.196   6.700   2.168  2.1878  0.0797  2.2157
  891MOL0     H22958   3.335   6.770   2.087 -2.2609  2.4240  1.2986
  892MOL0     O22959  11.428   8.214   4.047  0.9152  0.6420 -0.5906
  892MOL0     C22960  11.420   8.110   3.975  0.0772 -1.2037 -0.5802
  892MOL0     O22961  11.419   8.108   3.840 -0.1203 -0.0522 -0.4536
  892MOL0     C22962  11.398   8.234   3.784 -0.4760 -0.0146 -1.1239
  892MOL0     C22963  11.294   8.324   3.828 -1.3055 -0.1955 -0.0636
  892MOL0     C22964  11.279   8.447   3.781  0.3837  0.7096  0.3323
  892MOL0     C22965  11.351   8.488   3.668 -0.2914  0.8813 -0.0272
  892MOL0     O22966  11.334   8.615   3.617  0.2626  0.3899 -0.0276
  892MOL0     C22967  11.427   8.706   3.671 -0.8724 -1.2006  0.6943
  892MOL0     C22968  11.440   8.847   3.592 -0.3239 -0.3565 -0.0185
  892MOL0     C22969  11.309   8.917   3.579  0.2812  0.6874 -0.0778
  892MOL0     C22970  11.274   8.990   3.706 -0.1429 -0.4774  0.2091
  892MOL0     C22971  11.143   9.070   3.665 -0.1163  0.5905  1.0756
  892MOL0     C22972  11.091   9.134   3.786  0.1416  0.2148  1.0710
  892MOL0     C22973  10.987   9.243   3.777  1.2186  0.2587 -0.9028
  892MOL0     C22974  10.868   9.211   3.692  0.2993 -0.7697 -0.0361
  892MOL0     N22975  10.862   9.303   3.578  0.8729 -0.4207 -0.1487
  892MOL0     C22976  10.768   9.392   3.533 -0.0927  0.3506 -0.1987
  892MOL0     C22977  10.819   9.428   3.419  0.0453  0.4522  0.2850
  892MOL0     C22978  10.751   9.529   3.342  1.0454  1.0846  0.4070
  892MOL0     C22979  10.775   9.528   3.195 -0.8834 -0.5452 -0.4796
  892MOL0     C22980  10.709   9.643   3.121  0.4938  0.2748 -0.3566
  892MOL0     C22981  10.800   9.757   3.092  0.6534 -0.8734 -0.1583
  892MOL0     O22982  10.917   9.711   3.039 -0.6182  0.5539  0.3473
  892MOL0     C22983  11.028   9.790   3.048 -0.0993 -0.4491 -0.4001
  892MOL0     C22984  11.142   9.733   2.997  0.4489  0.0035  0.2632
  892MOL0     C22985  11.266   9.805   2.993  0.6983 -0.1112  0.3913
  892MOL0     C22986  11.367   9.738   2.898  0.3922  0.1442 -1.1330
  892MOL0     C22987  11.279   9.930   3.058  0.9409  0.3770 -0.0390
  892MOL0     C22988  11.400  10.020   3.037  0.7447  0.9604 -0.4020
  892MOL0     O22989  11.377  10.156   3.034  0.4138 -1.0922 -0.0849
  892MOL0     C22990  11.495  10.229   3.046 -0.3900  0.5988  0.0092
  892MOL0     C22991  11.499  10.302   3.166  0.2318 -0.1376  0.7945
  892MOL0     C22992  11.604  10.391   3.191  1.1222  0.6569  0.0088
  892MOL0     C22993  11.708  10.410   3.099  0.3963 -0.0941 -0.8340
  892MOL0     O22994  11.795  10.501   3.142 -0.4527  0.4227  0.6729
  892MOL0     C22995  11.856  10.597   3.045  0.3132 -0.1774 -0.3528
  892MOL0     C22996  11.962  10.690   3.110 -0.1031 -0.5746  0.2523
  892MOL0     C22997  11.920  10.835   3.105 -0.8235  0.2707  0.1204
  892MOL0     C22998  11.983  10.922   3.223 -0.0508  0.4762  0.1773
  892MOL0     C22999  12.120  10.975   3.196  0.6564  0.4042  0.5412
  892MOL0     C23000  12.129  11.124   3.234  0.6085  0.3945  0.6054
  892MOL0     C23001  12.276  11.189   3.195 -0.8007 -0.4351  0.0423
  892MOL0     C23002  12.322  11.174   3.050  0.6418  0.0884  0.4608
  892MOL0    Cl23003  12.201  11.264   2.944 -0.5871 -0.0268 -0.1154
  892MOL0     C23004  11.701  10.344   2.973 -1.2053  0.4395 -0.0054
  892MOL0     C23005  11.594  10.249   2.944  0.4900  0.9946 -0.5299
  892MOL0     O23006  11.511   9.966   3.016  0.5119 -0.8109  0.0484
  892MOL0     C23007  11.158   9.988   3.107  0.3655  0.1118 -0.1424
  892MOL0     C23008  11.037   9.919   3.114  0.5800 -1.0206  1.5076
  892MOL0     N23009  10.943   9.373   3.391 -0.0039 -0.5756  0.0593
  892MOL0     N23010  10.965   9.294   3.495  1.2397  1.0696  0.6375
  892MOL0     C23011  11.441   8.394   3.611 -0.5020  0.2120  0.5187
  892MOL0     C23012  11.474   8.270   3.670 -0.1237  0.3043  1.0285
  892MOL0     C23013  11.394   7.981   4.037  0.0863 -0.5025 -0.9985
  892MOL0     C23014  11.469   7.868   4.013  0.5594 -0.7609 -0.7922
  892MOL0     C23015  11.448   7.745   4.088 -0.8360 -0.0502  1.0679
  892MOL0     C23016  11.335   7.735   4.167 -0.8411 -1.0344 -0.0045
  892MOL0     O23017  11.296   7.624   4.245  0.2529  0.4456  0.2661
  892MOL0     C23018  11.400   7.522   4.261  0.1406  0.9574 -0.6442
  892MOL0     C23019  11.357   7.410   4.358  1.2865 -0.9858  0.0521
  892MOL0     C23020  11.431   7.278   4.358 -0.9973  0.6200 -1.5139
  892MOL0     C23021  11.560   7.318   4.434  0.0601 -0.4909  0.0666
  892MOL0     C23022  11.650   7.211   4.451 -0.6547  1.0846 -0.2786
  892MOL0     C23023  11.732   7.121   4.465  0.4910 -0.5976 -0.7095
  892MOL0     C23024  11.247   7.848   4.181  1.1190  1.0372  0.9227
  892MOL0     C23025  11.280   7.967   4.123 -0.0083 -0.1034  0.3766
  892MOL0     C23026  11.190   8.089   4.154  0.5210 -0.0557  0.4877
  892MOL0     H23027  11.224   8.304   3.908  2.5873  1.5767  4.2136
  892MOL0     H23028  11.211   8.521   3.821  0.0722 -0.1223  1.4178
  892MOL0     H23029  11.525   8.664   3.694 -0.3895  1.1435  3.5798
  892MOL0     H23030  11.386   8.729   3.770 -0.0438 -2.9625  1.4862
  892MOL0     H23031  11.510   8.911   3.645 -0.1362  0.8417 -1.6134
  892MOL0     H23032  11.490   8.844   3.494 -3.7803  2.1918 -2.1208
  892MOL0     H23033  11.317   8.999   3.507  2.1305  2.2439  1.7613
  892MOL0     H23034  11.237   8.842   3.546  0.0458  1.8936 -2.4960
  892MOL0     H23035  11.248   8.917   3.784  1.9170 -2.3145 -0.7235
  892MOL0     H23036  11.358   9.050   3.742 -1.9346  1.0732  2.0838
  892MOL0     H23037  11.065   9.012   3.615  0.2282  2.0081 -1.2527
  892MOL0     H23038  11.182   9.145   3.596 -0.8951 -1.9579 -2.3991
  892MOL0     H23039  11.059   9.057   3.857  1.5862  2.2617  4.1676
  892MOL0     H23040  11.175   9.176   3.841 -0.9680  2.7207  0.9743
  892MOL0     H23041  11.052   9.327   3.751  1.6175  1.1634  2.4836
  892MOL0     H23042  10.945   9.256   3.878 -0.9414 -1.0600 -1.5584
  892MOL0     H23043  10.869   9.110   3.648 -2.5451  0.8728 -4.5469
  892MOL0     H23044  10.779   9.223   3.754 -1.2639  2.4491 -2.6012
  892MOL0     H23045  10.671   9.414   3.576 -0.2760  0.4292 -0.6522
  892MOL0     H23046  10.775   9.628   3.380  1.1637  1.2235 -0.0239
  892MOL0     H23047  10.646   9.512   3.365  0.1103  2.2510 -2.4606
  892MOL0     H23048  10.885   9.530   3.194 -0.8351  0.5965  1.4336
  892MOL0     H23049  10.741   9.435   3.150  1.1162 -1.9862  0.8259
  892MOL0     H23050  10.675   9.614   3.021  2.9822 -0.4144 -1.0899
  892MOL0     H23051  10.620   9.668   3.180 -1.9453 -0.2206 -3.5674
  892MOL0     H23052  10.750   9.813   3.012 -0.1878 -1.9841 -0.4324
  892MOL0     H23053  10.807   9.829   3.175 -0.0265 -1.8660  0.7896
  892MOL0     H23054  11.121   9.639   2.948  0.5205 -0.4013  0.9990
  892MOL0     H23055  11.411   9.803   2.822  0.9400 -0.4211 -1.3099
  892MOL0     H23056  11.311   9.652   2.860 -1.3802 -1.3135  3.9011
  892MOL0     H23057  11.450   9.702   2.961 -1.7840  0.0969  1.9359
  892MOL0     H23058  11.416  10.291   3.235 -2.4905 -0.0797 -2.2205
  892MOL0     H23059  11.620  10.434   3.289  0.7379 -3.7660  2.2610
  892MOL0     H23060  11.900  10.537   2.965  1.9563 -1.0656  1.1175
  892MOL0     H23061  11.771  10.656   3.011  0.7221  1.6089  1.5219
  892MOL0     H23062  11.972  10.666   3.216  0.4082  1.5126  0.7251
  892MOL0     H23063  12.050  10.667   3.050 -2.4490 -2.5712 -2.7609
  892MOL0     H23064  11.811  10.826   3.094 -0.4981 -1.2733 -2.4610
  892MOL0     H23065  11.960  10.875   3.012  1.7550 -1.4539  0.4014
  892MOL0     H23066  11.978  10.873   3.321 -0.9941 -0.5420 -0.3659
  892MOL0     H23067  11.925  11.015   3.223  0.9416  1.1373  1.6585
  892MOL0     H23068  12.199  10.942   3.264  1.8977  0.3055 -0.8940
  892MOL0     H23069  12.146  10.966   3.091 -1.0372 -1.0620  0.1943
  892MOL0     H23070  12.110  11.150   3.338  0.0968 -0.2031  0.6622
  892MOL0     H23071  12.051  11.179   3.180  1.4008  2.5591  1.5533
  892MOL0     H23072  12.350  11.151   3.266 -0.8252 -1.2889 -0.3733
  892MOL0     H23073  12.287  11.297   3.210  0.2742  0.5232 -5.4117
  892MOL0     H23074  12.315  11.070   3.017 -1.4391 -0.2088  1.6949
  892MOL0     H23075  12.427  11.202   3.040 -0.3158  5.5400  2.2817
  892MOL0     H23076  11.782  10.361   2.903 -2.2141 -2.3367 -2.0372
  892MOL0     H23077  11.579  10.183   2.859  0.0829 -2.4506  1.9957
  892MOL0     H23078  11.148  10.089   3.146 -3.1535 -0.8063  1.7457
  892MOL0     H23079  10.962   9.960   3.181 -0.2996  0.0658 -0.0759
  892MOL0     H23080  11.503   8.409   3.523  1.5566 -3.1845  1.2004
  892MOL0     H23081  11.549   8.205   3.625 -0.1861 -0.3958  1.9086
  892MOL0     H23082  11.555   7.873   3.947  0.5948  0.7334 -0.6663
  892MOL0     H23083  11.520   7.665   4.072 -2.5328 -1.3092 -0.7453
  892MOL0     H23084  11.420   7.483   4.161 -0.2447  1.3669 -0.8877
  892MOL0     H23085  11.492   7.565   4.301 -0.8776  2.4187  0.2689
  892MOL0     H23086  11.254   7.388   4.328  0.7001 -2.3737  2.7640
  892MOL0     H23087  11.341   7.474   4.445 -0.1758  2.4162 -2.4866
  892MOL0     H23088  11.376   7.201   4.413  1.1966 -1.3515 -1.9018
  892MOL0     H23089  11.458   7.238   4.260  3.5043  2.0022 -1.0417
  892MOL0     H23090  11.521   7.353   4.530 -2.4259  1.1882 -1.4229
  892MOL0     H23091  11.609   7.398   4.378  0.4552 -1.3167 -0.8016
  892MOL0     H23092  11.814   7.053   4.480  1.1005  0.0914 -0.8838
  892MOL0     H23093  11.151   7.841   4.230  0.8611 -1.1222  0.2198
  892MOL0     H23094  11.253   8.139   4.228  2.1398 -3.3624  1.5015
  892MOL0     H23095  11.146   8.144   4.069  0.5312 -0.1094  0.4474
  892MOL0     H23096  11.104   8.055   4.212 -2.1492 -2.2623 -4.1370
  893MOL0     O23097   7.681   1.276   9.470  0.1288 -0.4804 -0.7459
  893MOL0     C23098   7.648   1.173   9.416  0.4930  1.1900 -0.3302
  893MOL0     O23099   7.639   1.151   9.276 -0.2786  0.2938  0.0917
  893MOL0     C23100   7.705   1.252   9.199 -0.0276  1.0298 -0.3020
  893MOL0     C23101   7.640   1.370   9.173  0.1232 -0.3931 -0.5109
  893MOL0     C23102   7.708   1.482   9.109 -0.4066 -0.3985  0.2670
  893MOL0     C23103   7.841   1.467   9.073  0.2652  0.3583 -0.5302
  893MOL0     O23104   7.912   1.567   9.009 -0.1330  1.0103 -0.5101
  893MOL0     C23105   7.854   1.685   8.954  0.1801  0.3850 -0.5473
  893MOL0     C23106   7.784   1.662   8.809  1.1970  0.4770 -0.0001
  893MOL0     C23107   7.709   1.791   8.767  0.5541  0.8224 -0.5404
  893MOL0     C23108   7.687   1.787   8.614 -0.0494  0.4936  0.0652
  893MOL0     C23109   7.599   1.909   8.579  0.5909 -0.1513 -0.5690
  893MOL0     C23110   7.634   1.927   8.431  0.0078 -0.0622 -0.6457
  893MOL0     C23111   7.785   1.976   8.408  0.3858  0.1839 -1.0714
  893MOL0     C23112   7.785   2.101   8.310  0.3107 -0.0332 -0.4899
  893MOL0     N23113   7.915   2.162   8.248 -0.8145  0.7840  0.7212
  893MOL0     C23114   8.030   2.139   8.308  0.6180  0.2391  0.2848
  893MOL0     C23115   8.116   2.212   8.231 -0.1886  0.3058  0.4916
  893MOL0     C23116   8.255   2.233   8.277 -0.3967 -0.6843  0.2543
  893MOL0     C23117   8.348   2.172   8.180 -0.6247 -0.8089  0.5677
  893MOL0     C23118   8.468   2.104   8.249  1.3141  0.4758  0.4128
  893MOL0     C23119   8.550   2.190   8.352 -0.1457  0.3591 -0.0082
  893MOL0     O23120   8.570   2.316   8.298 -0.2839 -1.0668  0.3271
  893MOL0     C23121   8.689   2.331   8.225  0.7384  0.7227  0.3417
  893MOL0     C23122   8.805   2.358   8.292 -0.5715 -0.2133  0.2237
  893MOL0     C23123   8.925   2.393   8.227  0.6893 -0.0638 -0.1738
  893MOL0     C23124   9.029   2.480   8.300  0.1206 -1.0977  0.0016
  893MOL0     C23125   8.927   2.368   8.080 -0.1241 -0.4309 -0.7777
  893MOL0     C23126   9.037   2.411   7.988  1.0513  0.3928 -0.1030
  893MOL0     O23127   9.013   2.397   7.850 -0.2149  0.4349 -0.1732
  893MOL0     C23128   9.102   2.421   7.751  0.1643 -0.9137 -0.2084
  893MOL0     C23129   9.214   2.500   7.759 -0.5816 -0.1181  0.4222
  893MOL0     C23130   9.314   2.487   7.661 -0.5888  0.2798 -1.0799
  893MOL0     C23131   9.303   2.411   7.553 -0.4884 -0.4043  0.3646
  893MOL0     O23132   9.402   2.426   7.455 -0.1258  0.4425  0.2310
  893MOL0     C23133   9.361   2.391   7.323  0.3202  0.0581  0.1059
  893MOL0     C23134   9.481   2.385   7.227  0.1269 -1.5776 -0.6153
  893MOL0     C23135   9.433   2.358   7.077  0.5265 -0.4062 -0.5372
  893MOL0     C23136   9.441   2.211   7.040 -0.4397 -0.3358  0.1753
  893MOL0     C23137   9.401   2.201   6.887 -0.0401  0.4975 -1.2156
  893MOL0     C23138   9.445   2.053   6.828  0.3707  0.3567 -0.9180
  893MOL0     C23139   9.405   2.031   6.685 -0.4306 -0.1732  0.1073
  893MOL0     C23140   9.503   2.097   6.588 -0.0963 -0.2591  0.1854
  893MOL0    Cl23141   9.426   2.056   6.430  0.3144 -0.0668 -0.3729
  893MOL0     C23142   9.189   2.321   7.545 -0.6698  0.7707  0.1179
  893MOL0     C23143   9.086   2.340   7.639  0.5846 -0.7520 -0.3263
  893MOL0     O23144   9.147   2.420   8.042  0.1852 -0.1907 -0.0239
  893MOL0     C23145   8.811   2.326   8.027  0.8622 -0.5723  0.0875
  893MOL0     C23146   8.696   2.311   8.093  0.8352  0.0634  0.3302
  893MOL0     N23147   8.049   2.277   8.126 -1.0904  0.2573  0.7757
  893MOL0     N23148   7.929   2.243   8.134 -0.2512 -0.5832 -0.4415
  893MOL0     C23149   7.904   1.343   9.098  0.0120 -0.4700  0.7705
  893MOL0     C23150   7.836   1.242   9.162 -0.3623 -0.0554 -0.3601
  893MOL0     C23151   7.614   1.046   9.499  0.3324  0.3833 -0.0175
  893MOL0     C23152   7.602   0.926   9.436 -0.1919  0.2551  0.1745
  893MOL0     C23153   7.588   0.811   9.516  0.6012  0.6816  0.2295
  893MOL0     C23154   7.599   0.803   9.655  0.1183  0.3831  0.0975
  893MOL0     O23155   7.586   0.696   9.736  0.6588 -0.0121  0.6372
  893MOL0     C23156   7.572   0.564   9.673 -0.3996 -0.6070  0.0407
  893MOL0     C23157   7.606   0.460   9.778 -0.2645  0.0746 -0.8469
  893MOL0     C23158   7.499   0.480   9.902 -0.7296  0.2401  0.6368
  893MOL0     C23159   7.351   0.481   9.861  0.4518 -0.0018  0.7722
  893MOL0     C23160   7.299   0.616   9.833 -0.5152  0.4302  0.9171
  893MOL0     C23161   7.274   0.727   9.801 -0.3949 -0.3673 -0.8187
  893MOL0     C23162   7.604   0.930   9.717  0.3348  0.1844  0.8081
  893MOL0     C23163   7.632   1.044   9.650  0.6988 -0.2325  0.6732
  893MOL0     C23164   7.679   1.162   9.743  0.2779 -0.5018 -0.1638
  893MOL0     H23165   7.541   1.390   9.214  1.0015 -1.9763  2.7288
  893MOL0     H23166   7.655   1.575   9.092 -1.0532 -1.3425 -3.8324
  893MOL0     H23167   7.942   1.740   8.921  0.6869  0.5500  0.9779
  893MOL0     H23168   7.811   1.752   9.029 -0.3433  0.9352 -1.3280
  893MOL0     H23169   7.864   1.625   8.744  0.2555 -2.7713  0.4884
  893MOL0     H23170   7.707   1.586   8.826 -1.5957  3.3329  0.8941
  893MOL0     H23171   7.611   1.793   8.816  1.4903  1.8699  1.3643
  893MOL0     H23172   7.758   1.886   8.790  2.6958 -0.0245 -1.3486
  893MOL0     H23173   7.781   1.783   8.559 -1.0081 -0.8373 -1.5710
  893MOL0     H23174   7.623   1.701   8.595 -0.5022  0.0812  2.9265
  893MOL0     H23175   7.629   2.002   8.629  2.1941 -1.9099  2.0064
  893MOL0     H23176   7.492   1.893   8.599  1.3444 -1.7673  3.1213
  893MOL0     H23177   7.640   1.832   8.377  3.0955 -0.3143 -0.0668
  893MOL0     H23178   7.559   1.982   8.373  2.5341 -1.4035 -5.8661
  893MOL0     H23179   7.839   1.897   8.355  0.7164 -0.0146 -0.4491
  893MOL0     H23180   7.826   1.999   8.506 -1.4260  0.6347 -0.3689
  893MOL0     H23181   7.723   2.075   8.224  0.4281 -0.7613 -0.3629
  893MOL0     H23182   7.736   2.185   8.359  0.6121  0.3709 -0.8682
  893MOL0     H23183   8.055   2.082   8.397 -1.8805  1.2393  1.7297
  893MOL0     H23184   8.267   2.198   8.380  2.4343  0.6243  0.4626
  893MOL0     H23185   8.284   2.338   8.285  0.2201 -0.6401 -1.9697
  893MOL0     H23186   8.285   2.091   8.141 -1.0943 -1.2913  2.2403
  893MOL0     H23187   8.364   2.233   8.091 -2.7574 -1.2565 -0.1922
  893MOL0     H23188   8.429   2.018   8.304  0.3099  0.2458 -0.6228
  893MOL0     H23189   8.522   2.075   8.159 -1.6805 -1.6707 -0.8595
  893MOL0     H23190   8.496   2.220   8.442  0.3659 -0.7890  0.7059
  893MOL0     H23191   8.645   2.150   8.388 -0.6135 -0.7049  0.1082
  893MOL0     H23192   8.798   2.369   8.400 -0.1394 -3.0985  0.6477
  893MOL0     H23193   9.118   2.421   8.326 -0.3266 -0.6828  2.7338
  893MOL0     H23194   8.991   2.529   8.390  0.5737  1.4805 -1.1216
  893MOL0     H23195   9.057   2.563   8.235  0.4407 -2.6924 -1.9924
  893MOL0     H23196   9.217   2.565   7.846 -0.4672  3.7277 -2.1745
  893MOL0     H23197   9.407   2.542   7.670 -1.9817  2.5668  0.4187
  893MOL0     H23198   9.306   2.297   7.323 -1.0926  0.8462  1.5033
  893MOL0     H23199   9.280   2.455   7.288  0.3668  0.0786  0.0319
  893MOL0     H23200   9.512   2.489   7.220 -0.2825 -1.3483  0.6659
  893MOL0     H23201   9.561   2.315   7.255 -0.3655 -2.2249 -0.8192
  893MOL0     H23202   9.498   2.410   7.005 -3.3783  0.5057 -3.7617
  893MOL0     H23203   9.333   2.395   7.054  1.0583  1.2266 -0.3393
  893MOL0     H23204   9.390   2.142   7.108  2.1831 -3.6972 -0.9836
  893MOL0     H23205   9.546   2.185   7.058  0.5783  3.2579  0.2307
  893MOL0     H23206   9.293   2.201   6.868 -0.3161 -4.0928 -0.9536
  893MOL0     H23207   9.450   2.283   6.836  1.5694  1.0014  0.9793
  893MOL0     H23208   9.392   1.982   6.894 -0.4509  1.0355 -0.8287
  893MOL0     H23209   9.550   2.022   6.831 -0.3916 -2.7569 -1.8278
  893MOL0     H23210   9.303   2.066   6.665 -0.5763  2.3224  4.0965
  893MOL0     H23211   9.390   1.923   6.677 -3.6252  0.1871 -0.1365
  893MOL0     H23212   9.597   2.040   6.586 -2.1193 -3.9308  0.3881
  893MOL0     H23213   9.504   2.203   6.616 -1.7269  0.6260 -2.7094
  893MOL0     H23214   9.174   2.263   7.454 -1.5126  1.6816 -0.3482
  893MOL0     H23215   8.994   2.282   7.631 -1.3764  1.9101  1.1285
  893MOL0     H23216   8.810   2.308   7.920 -1.6264 -0.0453 -0.0434
  893MOL0     H23217   8.600   2.287   8.050  0.6998  0.0750  0.6237
  893MOL0     H23218   8.003   1.327   9.057  1.1529 -0.9887  3.5369
  893MOL0     H23219   7.883   1.150   9.195  0.0526 -1.1102 -3.6091
  893MOL0     H23220   7.617   0.917   9.329  1.5885 -1.5630  0.5215
  893MOL0     H23221   7.563   0.714   9.473  1.0042 -0.5103  2.4829
  893MOL0     H23222   7.481   0.544   9.616  0.7300 -2.6730 -1.1732
  893MOL0     H23223   7.655   0.555   9.602 -0.6265 -2.1622 -0.0725
  893MOL0     H23224   7.705   0.464   9.822 -0.1761 -0.4370 -0.9928
  893MOL0     H23225   7.592   0.357   9.743  2.3145 -0.5115 -0.2940
  893MOL0     H23226   7.500   0.399   9.976  0.5967  0.2783  0.6929
  893MOL0     H23227   7.525   0.577   9.946  3.1554  0.7707 -2.3004
  893MOL0     H23228   7.308   0.450   9.957 -0.8108  0.0781  0.2551
  893MOL0     H23229   7.330   0.407   9.783  0.6647  0.3902  0.3420
  893MOL0     H23230   7.282   0.828   9.765  0.3726 -0.3252 -0.5524
  893MOL0     H23231   7.606   0.928   9.826 -1.2539 -1.2389  0.8601
  893MOL0     H23232   7.786   1.179   9.730  0.2310  0.3623  0.5189
  893MOL0     H23233   7.618   1.253   9.733 -2.4836 -2.1782  0.1930
  893MOL0     H23234   7.647   1.138   9.844 -0.4451 -2.2773 -0.7764
  894MOL0     O23235  10.635   8.723   2.463  0.1554  0.2258  0.6793
  894MOL0     C23236  10.597   8.614   2.516 -0.0690 -0.7932  0.5977
  894MOL0     O23237  10.661   8.553   2.624 -0.0957  0.2872  0.1276
  894MOL0     C23238  10.775   8.609   2.681  0.3250  0.6577  1.0976
  894MOL0     C23239  10.897   8.554   2.638  0.6537 -0.0306  0.0867
  894MOL0     C23240  11.010   8.597   2.703 -1.1014 -0.5611  0.8120
  894MOL0     C23241  11.012   8.704   2.787  0.4506 -0.4970  0.3955
  894MOL0     O23242  11.138   8.748   2.834 -0.8099 -0.1863  0.0499
  894MOL0     C23243  11.134   8.840   2.936 -0.8927 -0.2282 -0.7625
  894MOL0     C23244  11.283   8.848   2.991  1.0101 -0.1935 -0.0913
  894MOL0     C23245  11.334   8.721   3.060  0.1031 -0.5547 -0.0627
  894MOL0     C23246  11.464   8.767   3.123 -0.5706  0.3183 -0.6488
  894MOL0     C23247  11.517   8.636   3.184 -0.5181  0.6204  0.6420
  894MOL0     C23248  11.661   8.641   3.233  0.5296  0.0909  0.3125
  894MOL0     C23249  11.704   8.497   3.275  0.0519  0.6566 -0.7329
  894MOL0     C23250  11.854   8.473   3.337 -0.2687  1.1783  0.2911
  894MOL0     N23251  11.859   8.502   3.484  0.0608 -0.0016  0.9520
  894MOL0     C23252  11.803   8.440   3.586 -0.6005  0.1777 -0.3964
  894MOL0     C23253  11.858   8.501   3.689  0.4022  0.1498 -0.1029
  894MOL0     C23254  11.808   8.505   3.832  0.2762 -0.9164  0.0775
  894MOL0     C23255  11.753   8.378   3.899 -0.1975 -0.4202  0.4311
  894MOL0     C23256  11.858   8.275   3.922 -0.5031 -0.8189  0.1063
  894MOL0     C23257  11.787   8.166   4.001 -0.4556  0.5740  0.3986
  894MOL0     O23258  11.882   8.056   4.015 -0.7856  0.7468 -0.2548
  894MOL0     C23259  11.868   7.980   4.129 -0.2248 -0.1592 -0.6974
  894MOL0     C23260  11.743   7.952   4.205 -0.7428 -0.2736  1.0362
  894MOL0     C23261  11.745   7.877   4.320 -0.1618  1.0198  1.1783
  894MOL0     C23262  11.612   7.854   4.395 -0.5431 -0.0982  0.0689
  894MOL0     C23263  11.866   7.811   4.347  0.5268 -0.3757 -0.4563
  894MOL0     C23264  11.880   7.733   4.476  1.1023  0.6760 -1.1042
  894MOL0     O23265  11.764   7.669   4.524  0.3289 -0.0380 -0.2439
  894MOL0     C23266  11.749   7.639   4.656  0.5104 -0.2870  0.1581
  894MOL0     C23267  11.714   7.723   4.753  0.5241 -0.4447 -0.0070
  894MOL0     C23268  11.702   7.672   4.883 -0.1526 -0.5794 -0.0960
  894MOL0     C23269  11.749   7.542   4.918 -0.1511 -0.3509  0.7068
  894MOL0     O23270  11.752   7.492   5.045 -0.4219  0.5804 -0.5895
  894MOL0     C23271  11.661   7.542   5.148 -0.0343  0.7607 -0.7217
  894MOL0     C23272  11.668   7.442   5.270 -0.5680 -0.4244 -0.3426
  894MOL0     C23273  11.570   7.478   5.375 -0.4779 -0.6702  0.2721
  894MOL0     C23274  11.554   7.385   5.497  0.8988 -0.0937  1.0291
  894MOL0     C23275  11.476   7.442   5.625 -0.2155  0.4922  0.4837
  894MOL0     C23276  11.503   7.362   5.748 -0.0573 -0.5733 -0.2790
  894MOL0     C23277  11.435   7.432   5.867  0.3154 -0.4325 -0.5625
  894MOL0     C23278  11.469   7.355   5.995 -0.9989  0.3359 -0.4727
  894MOL0    Cl23279  11.346   7.211   6.005 -0.1386 -0.1057 -0.2946
  894MOL0     C23280  11.807   7.465   4.813  0.4725  0.0600  0.2256
  894MOL0     C23281  11.799   7.511   4.681  0.9009 -0.7106  0.1924
  894MOL0     O23282  11.988   7.723   4.529 -0.5925 -0.1307  0.1172
  894MOL0     C23283  11.978   7.834   4.274 -1.2599 -0.3838 -0.3492
  894MOL0     C23284  11.984   7.915   4.166  0.6875  0.4696  0.2332
  894MOL0     N23285  11.954   8.593   3.646  0.5292  0.2714  0.2194
  894MOL0     N23286  11.943   8.596   3.516 -0.1102  0.0001 -0.0373
  894MOL0     C23287  10.893   8.771   2.826 -0.1442  0.5302  0.5534
  894MOL0     C23288  10.777   8.717   2.782 -0.0889  0.7289 -0.9639
  894MOL0     C23289  10.482   8.540   2.455 -0.1706  0.3315 -1.0198
  894MOL0     C23290  10.436   8.437   2.536  0.0653 -0.3986 -0.3176
  894MOL0     C23291  10.339   8.358   2.481  0.0514  0.0452  0.7115
  894MOL0     C23292  10.287   8.381   2.350  0.4693 -0.3514 -0.3903
  894MOL0     O23293  10.191   8.286   2.313  0.8238 -0.6688 -0.0033
  894MOL0     C23294  10.142   8.291   2.174  0.9617  0.1742  0.3184
  894MOL0     C23295  10.242   8.227   2.075 -1.0369  0.7646 -0.2534
  894MOL0     C23296  10.211   8.274   1.935 -0.6029 -1.0837  0.1338
  894MOL0     C23297  10.294   8.191   1.842 -0.7022  0.3029 -0.2605
  894MOL0     C23298  10.274   8.225   1.695  0.1267 -0.1156  0.2575
  894MOL0     C23299  10.237   8.273   1.588  0.3604  0.8317  0.0956
  894MOL0     C23300  10.323   8.492   2.281 -0.2286  0.9321  0.6402
  894MOL0     C23301  10.424   8.576   2.332  1.7287 -0.2591 -0.0429
  894MOL0     C23302  10.448   8.700   2.250 -0.0717  0.2395 -0.7682
  894MOL0     H23303  10.899   8.477   2.561  4.7463  0.4917 -0.5321
  894MOL0     H23304  11.105   8.546   2.689 -0.2427  1.4462 -1.0539
  894MOL0     H23305  11.068   8.795   3.010 -1.6054  1.3511 -0.4008
  894MOL0     H23306  11.085   8.934   2.908 -0.1371  0.6479  0.7438
  894MOL0     H23307  11.351   8.870   2.909  3.1990  1.7865  2.1021
  894MOL0     H23308  11.293   8.935   3.057  0.4520 -0.7874  0.8145
  894MOL0     H23309  11.254   8.704   3.132  0.8822  4.4030  2.4269
  894MOL0     H23310  11.349   8.641   2.987 -3.2253 -1.4967  0.1286
  894MOL0     H23311  11.531   8.797   3.042 -0.2749  1.9100  0.1420
  894MOL0     H23312  11.454   8.841   3.203 -1.3593 -0.1365 -0.3118
  894MOL0     H23313  11.526   8.569   3.098  6.5138  2.1420 -0.3707
  894MOL0     H23314  11.452   8.577   3.250 -1.1321 -0.8290 -1.1594
  894MOL0     H23315  11.729   8.652   3.148 -1.1355  1.2044 -0.9387
  894MOL0     H23316  11.674   8.711   3.316 -2.0895 -0.8078  1.5818
  894MOL0     H23317  11.692   8.438   3.183 -3.8132 -2.0208  1.1669
  894MOL0     H23318  11.629   8.456   3.343  2.8176 -2.0047  0.9661
  894MOL0     H23319  11.887   8.370   3.320  1.9188  1.9334 -0.4619
  894MOL0     H23320  11.933   8.521   3.278  2.7478 -3.5925 -0.0871
  894MOL0     H23321  11.724   8.366   3.584  0.1356 -0.6869  0.7633
  894MOL0     H23322  11.719   8.568   3.836  1.3074  0.5488  2.0339
  894MOL0     H23323  11.879   8.552   3.901 -0.0860 -2.3320  1.4811
  894MOL0     H23324  11.702   8.406   3.991 -1.7134  3.5933 -1.3627
  894MOL0     H23325  11.670   8.349   3.834  1.0678  0.3817 -1.6843
  894MOL0     H23326  11.912   8.235   3.835 -2.0982 -3.8437  0.3768
  894MOL0     H23327  11.935   8.323   3.983 -0.4465 -0.5775 -0.1512
  894MOL0     H23328  11.731   8.202   4.087  1.0821  2.3594  0.7105
  894MOL0     H23329  11.712   8.118   3.937  0.3273 -2.3837  1.5607
  894MOL0     H23330  11.655   8.003   4.167 -0.4105  0.0105  0.6398
  894MOL0     H23331  11.617   7.893   4.497  0.5590 -0.1926  0.0626
  894MOL0     H23332  11.593   7.747   4.400  1.5516 -0.5127  0.2664
  894MOL0     H23333  11.525   7.896   4.344 -1.7883  0.1927  2.3344
  894MOL0     H23334  11.682   7.822   4.722 -1.4630 -0.9591  0.2431
  894MOL0     H23335  11.675   7.746   4.958  3.5689 -2.0423  3.0382
  894MOL0     H23336  11.680   7.648   5.168  0.5694 -0.0093  3.7118
  894MOL0     H23337  11.568   7.529   5.092 -0.2351  0.8145 -0.4008
  894MOL0     H23338  11.654   7.341   5.232  0.6303  0.1124 -2.3257
  894MOL0     H23339  11.768   7.434   5.312 -0.5783  2.1267  0.3574
  894MOL0     H23340  11.466   7.480   5.339 -0.4857 -0.3161  0.3092
  894MOL0     H23341  11.602   7.571   5.422  3.6154 -1.2168 -1.0866
  894MOL0     H23342  11.653   7.365   5.540  2.1970  0.2904 -1.6004
  894MOL0     H23343  11.510   7.291   5.462  2.3688 -0.0270 -1.2122
  894MOL0     H23344  11.503   7.547   5.641 -0.9306  0.5363  1.5249
  894MOL0     H23345  11.372   7.432   5.591  0.1610  2.4562 -1.4996
  894MOL0     H23346  11.610   7.346   5.763  0.5216  1.5224 -1.7294
  894MOL0     H23347  11.475   7.257   5.728  1.5494 -1.4320  1.7011
  894MOL0     H23348  11.326   7.442   5.863  0.2360 -1.0730 -0.2414
  894MOL0     H23349  11.461   7.538   5.875 -0.5209 -0.3135  6.0804
  894MOL0     H23350  11.450   7.419   6.081 -0.0382 -0.6610  0.5162
  894MOL0     H23351  11.572   7.319   6.001 -0.9216  0.7627  1.8099
  894MOL0     H23352  11.848   7.367   4.837  0.0648 -0.2915 -0.4994
  894MOL0     H23353  11.818   7.449   4.594 -1.0391  0.6843 -1.3472
  894MOL0     H23354  12.073   7.785   4.295  0.5700  2.0348 -2.3195
  894MOL0     H23355  12.074   7.934   4.109  1.9607  0.2746  2.1189
  894MOL0     H23356  10.879   8.859   2.887  1.0763  0.1174  1.4828
  894MOL0     H23357  10.686   8.768   2.814 -1.3940 -1.7000 -0.5844
  894MOL0     H23358  10.459   8.420   2.641 -1.6583 -1.2800 -0.0386
  894MOL0     H23359  10.317   8.271   2.543  0.6844 -2.4769 -2.3520
  894MOL0     H23360  10.057   8.224   2.159  0.1837  1.8067 -3.8800
  894MOL0     H23361  10.104   8.390   2.146 -0.3855 -0.3809  0.0840
  894MOL0     H23362  10.223   8.119   2.074 -1.1928  0.7677 -2.7633
  894MOL0     H23363  10.345   8.239   2.109 -1.4835  5.5390  0.0719
  894MOL0     H23364  10.106   8.263   1.906 -0.4952 -0.1583 -0.6678
  894MOL0     H23365  10.224   8.382   1.926 -2.5820 -0.8684 -0.6422
  894MOL0     H23366  10.275   8.085   1.864  0.0492  0.2909  0.3816
  894MOL0     H23367  10.400   8.210   1.860 -0.3007 -0.1958 -1.9722
  894MOL0     H23368  10.227   8.317   1.491  0.3076  3.6800  1.2806
  894MOL0     H23369  10.270   8.508   2.188 -5.6245 -2.8410  2.5326
  894MOL0     H23370  10.428   8.685   2.144  1.1370 -0.9961 -0.8478
  894MOL0     H23371  10.374   8.773   2.284 -2.3678 -2.7312  1.1945
  894MOL0     H23372  10.554   8.726   2.256  0.7200 -2.7628 -0.0622
  895MOL0     O23373  11.607   1.183  10.979  0.3951  0.5865 -0.4089
  895MOL0     C23374  11.721   1.141  10.974 -0.3960 -0.6915  0.2086
  895MOL0     O23375  11.805   1.180  10.882  0.0290 -0.2752  1.1833
  895MOL0     C23376  11.773   1.261  10.778  0.4563  1.0448  0.2319
  895MOL0     C23377  11.690   1.221  10.673  0.7315 -0.0098 -0.1708
  895MOL0     C23378  11.662   1.304  10.571 -0.4172 -0.2500  0.8223
  895MOL0     C23379  11.719   1.440  10.570  0.4498  0.8308 -0.2934
  895MOL0     O23380  11.687   1.532  10.475 -0.3729 -0.5969 -0.8147
  895MOL0     C23381  11.589   1.504  10.384  0.2391  0.3583 -0.5629
  895MOL0     C23382  11.570   1.631  10.309  0.4713 -0.0255  0.6200
  895MOL0     C23383  11.695   1.707  10.281 -1.4627 -0.4275  0.0631
  895MOL0     C23384  11.657   1.832  10.184  0.0264  1.2557 -0.4414
  895MOL0     C23385  11.787   1.900  10.125  0.1171 -0.7758 -0.9396
  895MOL0     C23386  11.747   2.018  10.041  0.0527 -0.7318 -0.1374
  895MOL0     C23387  11.859   2.128  10.035  1.2033 -0.2508 -0.6292
  895MOL0     C23388  11.975   2.088   9.943  0.5757  0.3136  1.4015
  895MOL0     N23389  12.087   2.178   9.940 -0.1187  0.7352  0.3307
  895MOL0     C23390  12.207   2.161   9.885  0.4274  0.4393 -0.1400
  895MOL0     C23391  12.269   2.277   9.888  0.9163 -0.6275  1.1218
  895MOL0     C23392  12.411   2.299   9.835 -0.0933  0.7519  0.6207
  895MOL0     C23393  12.421   2.262   9.689 -0.2466 -0.5557  0.4953
  895MOL0     C23394  12.336   2.353   9.589  0.3558  1.6035 -0.8279
  895MOL0     C23395  12.380   2.322   9.450 -0.0493 -0.6750  0.9209
  895MOL0     O23396  12.313   2.399   9.341 -1.2326 -0.1878  0.8192
  895MOL0     C23397  12.180   2.383   9.316  0.4124  0.4771  0.6664
  895MOL0     C23398  12.140   2.290   9.224 -0.7207 -0.1102 -0.4444
  895MOL0     C23399  12.003   2.261   9.190 -0.3251  0.1119  1.3205
  895MOL0     C23400  11.988   2.149   9.080 -1.0022  0.0039  0.3228
  895MOL0     C23401  11.901   2.336   9.258  0.1903 -0.7121 -0.2461
  895MOL0     C23402  11.760   2.309   9.225  0.4612  0.6544 -0.4169
  895MOL0     O23403  11.678   2.408   9.259 -0.6550 -0.1318 -0.3692
  895MOL0     C23404  11.543   2.394   9.262 -0.1247  0.1264 -0.3775
  895MOL0     C23405  11.479   2.394   9.376  0.4672 -0.7679 -0.8455
  895MOL0     C23406  11.338   2.371   9.383 -0.2805  0.2277  1.0447
  895MOL0     C23407  11.263   2.344   9.261 -0.4671  0.1905 -0.2535
  895MOL0     O23408  11.128   2.328   9.262 -0.2955 -0.5959  0.0777
  895MOL0     C23409  11.042   2.345   9.375  0.3261 -0.1015  0.0455
  895MOL0     C23410  10.895   2.294   9.338 -0.0124  0.5316 -0.4081
  895MOL0     C23411  10.820   2.326   9.471 -0.9202 -0.0810  0.4992
  895MOL0     C23412  10.677   2.279   9.473 -0.0128  1.0742 -0.4985
  895MOL0     C23413  10.646   2.126   9.457 -0.5905 -0.9041 -0.6737
  895MOL0     C23414  10.497   2.088   9.475 -1.5340 -0.4327  0.3154
  895MOL0     C23415  10.416   2.151   9.370  0.3352 -0.0780  0.5210
  895MOL0     C23416  10.288   2.071   9.360  0.2953 -0.3719 -0.2462
  895MOL0    Cl23417  10.220   2.101   9.184  0.0496 -0.4296 -0.5049
  895MOL0     C23418  11.336   2.346   9.137 -0.3446 -0.3191  0.5768
  895MOL0     C23419  11.476   2.377   9.137  1.0627  1.6976  1.4442
  895MOL0     O23420  11.727   2.198   9.203 -0.7723 -0.2688  0.2804
  895MOL0     C23421  11.945   2.439   9.351 -0.5159  0.9014  0.1005
  895MOL0     C23422  12.078   2.455   9.384 -0.6244 -0.4863 -0.4083
  895MOL0     N23423  12.176   2.370   9.926  0.4663 -0.5189 -0.2514
  895MOL0     N23424  12.075   2.310   9.944  0.0988 -0.3552 -0.1433
  895MOL0     C23425  11.810   1.477  10.673 -0.1725 -0.3634  0.4098
  895MOL0     C23426  11.830   1.385  10.780 -0.5627 -0.5947  0.2261
  895MOL0     C23427  11.774   1.036  11.065 -0.5713  0.6160 -0.4223
  895MOL0     C23428  11.870   0.942  11.021  0.2657 -0.1018 -0.1948
  895MOL0     C23429  11.890   0.822  11.090 -0.1806  0.0795 -0.2966
  895MOL0     C23430  11.818   0.795  11.204 -0.2146  0.2585 -1.1518
  895MOL0     O23431  11.834   0.682  11.279  0.2889  1.6564  0.6653
  895MOL0     C23432  11.907   0.572  11.225  0.8977  0.5041 -0.2516
  895MOL0     C23433  11.920   0.464  11.341  0.1997 -0.2256 -0.9088
  895MOL0     C23434  12.025   0.350  11.323  0.1519 -0.4621 -0.6474
  895MOL0     C23435  12.170   0.400  11.344 -0.4312 -0.1466  1.0269
  895MOL0     C23436  12.249   0.277  11.308 -0.0900  0.1058 -1.2963
  895MOL0     C23437  12.316   0.182  11.269  1.2157 -0.2604 -0.3882
  895MOL0     C23438  11.724   0.890  11.258  0.0736 -0.3051  0.1940
  895MOL0     C23439  11.710   1.015  11.186 -0.0398  0.1651  0.0994
  895MOL0     C23440  11.613   1.109  11.253  0.4642  0.5575 -0.2520
  895MOL0     H23441  11.654   1.120  10.658  1.5811 -0.5232  1.1023
  895MOL0     H23442  11.606   1.258  10.491  1.5844  0.5432 -1.1544
  895MOL0     H23443  11.492   1.472  10.423  1.2315 -2.4779 -0.2179
  895MOL0     H23444  11.616   1.423  10.316 -0.5284 -0.3996  0.0174
  895MOL0     H23445  11.512   1.619  10.218 -1.6463 -0.5469  1.9624
  895MOL0     H23446  11.505   1.693  10.371 -1.1646 -0.1182 -0.9514
  895MOL0     H23447  11.739   1.741  10.375 -0.3440 -1.4450 -0.0606
  895MOL0     H23448  11.767   1.652  10.220  0.8892  2.6858 -0.2251
  895MOL0     H23449  11.592   1.799  10.102  2.9417  2.2024 -3.3684
  895MOL0     H23450  11.600   1.907  10.239 -0.5934  1.5276 -1.4313
  895MOL0     H23451  11.852   1.825  10.079  1.1239  0.0107 -0.8223
  895MOL0     H23452  11.840   1.928  10.216 -0.1543  1.6445 -1.4645
  895MOL0     H23453  11.735   1.993   9.935 -1.8469 -1.2818  0.1810
  895MOL0     H23454  11.657   2.067  10.078  0.4975  0.5649 -0.7233
  895MOL0     H23455  11.902   2.160  10.130  1.7954 -0.8069 -0.7014
  895MOL0     H23456  11.817   2.216   9.987  2.6350  0.1308 -1.2462
  895MOL0     H23457  12.006   1.989   9.978  0.9197 -0.0648  0.0988
  895MOL0     H23458  11.936   2.078   9.841  1.8639  1.5238  0.7640
  895MOL0     H23459  12.252   2.065   9.861 -1.8832 -0.5757 -0.6727
  895MOL0     H23460  12.480   2.248   9.902  1.7910  1.7705 -0.4489
  895MOL0     H23461  12.441   2.404   9.840  2.7688 -0.0120  1.0384
  895MOL0     H23462  12.528   2.278   9.674 -0.3223 -0.1674  0.3697
  895MOL0     H23463  12.391   2.157   9.675 -1.7437 -0.0609 -0.2623
  895MOL0     H23464  12.230   2.329   9.603 -0.0725  4.3276  1.5879
  895MOL0     H23465  12.347   2.458   9.619  0.7704  1.6260 -1.0537
  895MOL0     H23466  12.489   2.333   9.447 -0.2249  1.8962  1.5936
  895MOL0     H23467  12.362   2.214   9.443  0.2427 -0.6046 -1.8960
  895MOL0     H23468  12.208   2.217   9.181 -1.9322  0.2016 -3.0847
  895MOL0     H23469  11.924   2.065   9.109  1.0469 -1.0476  2.0466
  895MOL0     H23470  12.086   2.115   9.047  0.7715  4.0228  0.9216
  895MOL0     H23471  11.946   2.198   8.991  0.4796  3.6916  1.4834
  895MOL0     H23472  11.538   2.412   9.465 -0.8687 -2.0008  0.3206
  895MOL0     H23473  11.306   2.379   9.487  0.8339  1.8348  1.2966
  895MOL0     H23474  11.075   2.281   9.458 -1.5992 -1.8514 -0.4536
  895MOL0     H23475  11.030   2.452   9.397  1.9357  0.1008  0.0186
  895MOL0     H23476  10.852   2.340   9.249  0.8454  0.5354 -0.8390
  895MOL0     H23477  10.891   2.185   9.332 -0.5993  0.6198 -2.4371
  895MOL0     H23478  10.831   2.431   9.501 -2.1965  1.2789 -3.2161
  895MOL0     H23479  10.874   2.270   9.548  1.2778  1.0213 -0.1441
  895MOL0     H23480  10.628   2.321   9.385  2.3986  0.4367 -2.2484
  895MOL0     H23481  10.642   2.316   9.570  2.6902 -0.2450  1.0995
  895MOL0     H23482  10.682   2.100   9.357  3.1824  1.4806 -0.1033
  895MOL0     H23483  10.697   2.069   9.535  0.1471  0.4360 -0.1533
  895MOL0     H23484  10.457   2.123   9.570 -2.1824  1.4885 -0.6227
  895MOL0     H23485  10.484   1.979   9.475 -3.2659 -0.2419 -0.1721
  895MOL0     H23486  10.468   2.137   9.274 -0.8984  1.8678 -0.4979
  895MOL0     H23487  10.384   2.254   9.388  2.0863  0.1334  2.9414
  895MOL0     H23488  10.217   2.109   9.434  1.2627 -3.1392  2.3388
  895MOL0     H23489  10.307   1.965   9.381  4.4298  0.5793  1.8195
  895MOL0     H23490  11.284   2.333   9.043  1.1638  1.6674 -0.6113
  895MOL0     H23491  11.535   2.388   9.046 -2.1150  3.3302 -0.5728
  895MOL0     H23492  11.869   2.501   9.399 -1.8168 -0.1097 -0.5847
  895MOL0     H23493  12.095   2.533   9.458  0.8846 -0.7733 -0.4179
  895MOL0     H23494  11.845   1.579  10.663 -1.7174  0.2255  0.6307
  895MOL0     H23495  11.899   1.412  10.859  1.3806 -1.5335 -1.0468
  895MOL0     H23496  11.912   0.963  10.924  0.7914 -1.8847 -0.3818
  895MOL0     H23497  11.948   0.741  11.047  0.5439  1.0963 -1.2962
  895MOL0     H23498  11.859   0.524  11.139  1.3842  0.9437 -0.7772
  895MOL0     H23499  12.003   0.618  11.198  0.6495  2.0201  1.3008
  895MOL0     H23500  11.824   0.417  11.363 -0.3838  1.3805  0.2093
  895MOL0     H23501  11.945   0.510  11.438 -0.1473 -0.6071 -0.6379
  895MOL0     H23502  12.005   0.280  11.405 -1.9303 -1.3692 -1.8590
  895MOL0     H23503  12.002   0.296  11.231 -1.3448 -2.2194  0.6890
  895MOL0     H23504  12.184   0.424  11.450 -1.4272 -2.6579  1.7843
  895MOL0     H23505  12.202   0.480  11.276  1.6369  0.0989  2.2016
  895MOL0     H23506  12.386   0.117  11.221  2.3192 -1.6028  2.8017
  895MOL0     H23507  11.678   0.885  11.356  1.9064 -3.2641  1.0412
  895MOL0     H23508  11.611   1.100  11.362 -1.2216 -0.2628 -0.3114
  895MOL0     H23509  11.635   1.214  11.233 -0.7350  1.2787  1.9196
  895MOL0     H23510  11.509   1.097  11.219  0.1953 -0.2100  0.7853
  896MOL0     O23511   9.292   3.025   5.575  0.5626 -0.0993  0.0132
  896MOL0     C23512   9.359   2.922   5.536  0.4868  0.1874  0.2357
  896MOL0     O23513   9.318   2.823   5.453  0.0756  0.5036 -0.6242
  896MOL0     C23514   9.213   2.854   5.374  0.0216  0.7366 -0.9816
  896MOL0     C23515   9.095   2.799   5.410  0.4983 -0.5564 -0.0287
  896MOL0     C23516   8.982   2.819   5.332 -0.2599 -0.8644  0.3308
  896MOL0     C23517   8.979   2.897   5.213  0.1899  0.3746 -0.6077
  896MOL0     O23518   8.864   2.934   5.140  0.3196  0.2829 -0.1756
  896MOL0     C23519   8.741   2.874   5.168  0.0565  0.4830 -0.3661
  896MOL0     C23520   8.714   2.736   5.123 -1.2143  1.4501  0.6138
  896MOL0     C23521   8.575   2.672   5.153  0.3681  0.7381  0.2981
  896MOL0     C23522   8.454   2.769   5.108 -0.4013  0.4211 -0.1083
  896MOL0     C23523   8.339   2.752   5.219 -0.5345 -0.2175  0.8532
  896MOL0     C23524   8.214   2.837   5.210 -0.0509 -0.1767 -0.2372
  896MOL0     C23525   8.231   2.987   5.177 -0.2080  0.0668  0.0146
  896MOL0     C23526   8.095   3.053   5.179  0.5327 -1.3352  0.8255
  896MOL0     N23527   8.108   3.198   5.154 -0.0181 -0.7853  1.2949
  896MOL0     C23528   8.053   3.251   5.044 -0.1596  0.1755  0.6810
  896MOL0     C23529   8.113   3.374   5.044  0.9138 -0.7052 -0.5099
  896MOL0     C23530   8.100   3.487   4.943  0.2283 -0.2521  0.1978
  896MOL0     C23531   8.158   3.452   4.807  1.0887 -0.2394  0.2880
  896MOL0     C23532   8.162   3.570   4.700  0.1231  0.1030 -0.7853
  896MOL0     C23533   8.178   3.506   4.567 -0.0262 -0.9078 -0.1701
  896MOL0     O23534   8.057   3.436   4.542 -0.8284  0.1583 -0.6608
  896MOL0     C23535   8.028   3.392   4.417  0.0387 -0.5126 -0.1253
  896MOL0     C23536   7.897   3.347   4.390  0.9155  0.2013 -0.4998
  896MOL0     C23537   7.845   3.302   4.265 -0.6031 -0.3933  0.6234
  896MOL0     C23538   7.703   3.277   4.252  0.7334  0.4374  0.0041
  896MOL0     C23539   7.937   3.305   4.152 -0.3467 -0.8460 -1.4404
  896MOL0     C23540   7.902   3.284   4.010 -0.1241 -0.0921  1.0778
  896MOL0     O23541   7.772   3.259   3.981  0.0898 -0.1959 -0.1080
  896MOL0     C23542   7.704   3.309   3.863 -0.1693  0.4552  0.3329
  896MOL0     C23543   7.567   3.273   3.858 -1.2833  0.6590  0.0251
  896MOL0     C23544   7.489   3.310   3.751 -0.1176  0.6306 -0.0598
  896MOL0     C23545   7.544   3.387   3.647 -0.1495 -0.5581 -1.0270
  896MOL0     O23546   7.463   3.433   3.537 -0.2572  0.2994 -0.1213
  896MOL0     C23547   7.528   3.492   3.419 -0.0361  0.8986  0.3683
  896MOL0     C23548   7.428   3.543   3.320 -0.3348 -1.1740 -0.1824
  896MOL0     C23549   7.331   3.440   3.270 -0.3159  0.2050 -0.4361
  896MOL0     C23550   7.285   3.449   3.123 -0.2902 -0.1491 -0.9336
  896MOL0     C23551   7.163   3.542   3.103  0.3949  1.2226  0.6523
  896MOL0     C23552   7.117   3.551   2.961 -0.3118 -0.0097 -0.1919
  896MOL0     C23553   7.082   3.413   2.895 -0.4459 -1.1409  0.0741
  896MOL0     C23554   7.000   3.430   2.764 -0.7168  0.2168 -0.2947
  896MOL0    Cl23555   6.891   3.294   2.748  0.4373 -0.1082 -0.5963
  896MOL0     C23556   7.678   3.429   3.663 -0.2394  0.4442  0.1718
  896MOL0     C23557   7.758   3.394   3.767  0.5319  0.0070 -0.1117
  896MOL0     O23558   7.998   3.286   3.931 -0.0381 -0.0123 -0.0601
  896MOL0     C23559   8.075   3.350   4.186 -0.2465  0.2194 -0.1395
  896MOL0     C23560   8.107   3.409   4.304 -0.9112 -0.6110 -0.0256
  896MOL0     N23561   8.200   3.386   5.149 -0.4377 -0.5175  0.5163
  896MOL0     N23562   8.194   3.280   5.222 -0.1861 -0.3093  0.0505
  896MOL0     C23563   9.113   2.946   5.170  1.1380 -0.4349 -0.2512
  896MOL0     C23564   9.219   2.927   5.259  0.1717  0.3764 -0.2817
  896MOL0     C23565   9.487   2.912   5.610 -0.0208 -0.5339  0.5504
  896MOL0     C23566   9.542   3.036   5.645  0.2467  0.6885  0.8752
  896MOL0     C23567   9.665   3.048   5.709 -0.7974  1.0207 -0.3571
  896MOL0     C23568   9.738   2.931   5.738  0.5166  0.9367 -0.2570
  896MOL0     O23569   9.847   2.919   5.813  0.5546 -0.0691  0.2017
  896MOL0     C23570   9.850   3.029   5.909 -0.1146  0.0571  0.2518
  896MOL0     C23571   9.976   3.036   5.998 -0.3471 -0.3816  0.1136
  896MOL0     C23572  10.103   3.060   5.909 -0.7235  0.6439 -0.8091
  896MOL0     C23573  10.229   3.041   5.997  0.5483  0.4931  0.5961
  896MOL0     C23574  10.318   2.934   5.951 -0.2944 -0.8516 -0.5016
  896MOL0     C23575  10.417   2.866   5.931 -1.3792  0.1264 -0.3273
  896MOL0     C23576   9.679   2.811   5.695  0.8337  0.1877  0.2671
  896MOL0     C23577   9.559   2.792   5.634  1.1461  0.5346  0.3150
  896MOL0     C23578   9.504   2.649   5.628 -0.1022  0.1642  0.3434
  896MOL0     H23579   9.081   2.753   5.507 -0.7727  1.3533  0.7628
  896MOL0     H23580   8.894   2.789   5.389 -2.1804  3.0307 -0.2467
  896MOL0     H23581   8.670   2.930   5.107  0.2443  2.2653  0.9694
  896MOL0     H23582   8.707   2.891   5.271  0.3310  0.5478 -0.2864
  896MOL0     H23583   8.739   2.737   5.017  0.7966  1.3930  1.0435
  896MOL0     H23584   8.788   2.666   5.164 -3.0736 -1.4806 -0.6932
  896MOL0     H23585   8.570   2.576   5.101  1.1702  2.3992 -3.1252
  896MOL0     H23586   8.582   2.640   5.257 -0.9199  0.5791  0.3490
  896MOL0     H23587   8.484   2.867   5.070  4.6706 -1.7176 -2.5622
  896MOL0     H23588   8.409   2.731   5.016 -0.1779  1.7163 -0.7701
  896MOL0     H23589   8.382   2.767   5.318 -2.8595 -1.4535  2.1389
  896MOL0     H23590   8.305   2.650   5.201  1.0876 -0.9393  1.7322
  896MOL0     H23591   8.150   2.784   5.139 -0.3745  1.4562 -1.1987
  896MOL0     H23592   8.175   2.830   5.312 -0.0829  0.4014 -0.2116
  896MOL0     H23593   8.263   2.996   5.072  1.6419 -0.9417  0.4560
  896MOL0     H23594   8.302   3.049   5.233  0.5502  0.3011 -1.1578
  896MOL0     H23595   8.030   3.010   5.102  1.9466 -0.2802 -1.0444
  896MOL0     H23596   8.050   3.050   5.279 -1.7205  0.5887 -0.0612
  896MOL0     H23597   7.986   3.211   4.968  0.8206  2.1580 -1.3439
  896MOL0     H23598   8.150   3.571   4.993 -0.6416 -0.8292  2.1671
  896MOL0     H23599   7.993   3.505   4.929  0.1271  0.3525  1.5705
  896MOL0     H23600   8.262   3.419   4.817  0.3747 -2.7734  0.0381
  896MOL0     H23601   8.098   3.374   4.760  0.9954  0.2809 -0.4634
  896MOL0     H23602   8.073   3.633   4.708 -0.3736 -0.6774 -0.0324
  896MOL0     H23603   8.246   3.638   4.719 -0.0767 -0.4053  2.4716
  896MOL0     H23604   8.184   3.589   4.496  0.7923 -0.3289  0.5591
  896MOL0     H23605   8.259   3.433   4.563 -0.1056 -1.0873  1.1564
  896MOL0     H23606   7.819   3.347   4.466  1.4566  0.2694  0.0641
  896MOL0     H23607   7.676   3.177   4.219  0.3876 -0.0533  1.6640
  896MOL0     H23608   7.668   3.358   4.187  1.1516 -0.7215 -1.7316
  896MOL0     H23609   7.650   3.277   4.348 -1.4962  0.6836 -1.1615
  896MOL0     H23610   7.532   3.202   3.932  1.4477 -0.5819  0.2291
  896MOL0     H23611   7.388   3.270   3.744 -0.3131  1.2642 -1.1189
  896MOL0     H23612   7.588   3.576   3.456  4.5176 -2.2570  0.9749
  896MOL0     H23613   7.596   3.425   3.366 -2.6184 -0.1817 -1.8061
  896MOL0     H23614   7.375   3.626   3.367  0.5577  1.0557 -2.8197
  896MOL0     H23615   7.475   3.593   3.234 -0.3518 -0.0791  0.4328
  896MOL0     H23616   7.246   3.457   3.337 -1.8809 -3.1890 -1.3774
  896MOL0     H23617   7.374   3.340   3.276  0.0830  0.4609  3.3982
  896MOL0     H23618   7.261   3.346   3.097 -1.0678 -0.8241  2.1200
  896MOL0     H23619   7.364   3.476   3.052 -1.6948 -3.8228 -4.2354
  896MOL0     H23620   7.078   3.510   3.165  1.0529  0.0220  0.9695
  896MOL0     H23621   7.202   3.640   3.131  0.6396  1.7667 -1.4465
  896MOL0     H23622   7.197   3.592   2.898 -0.5579 -0.7916 -1.0482
  896MOL0     H23623   7.031   3.616   2.947 -0.9040 -0.3653  1.5946
  896MOL0     H23624   7.023   3.347   2.960 -0.7977  1.3655  2.5090
  896MOL0     H23625   7.176   3.365   2.868 -0.2472 -0.0791 -1.2363
  896MOL0     H23626   7.076   3.425   2.685 -1.1967 -0.9850 -0.7050
  896MOL0     H23627   6.943   3.523   2.763 -1.6096 -0.3229 -0.2647
  896MOL0     H23628   7.721   3.487   3.582 -2.2213 -0.5191 -1.6819
  896MOL0     H23629   7.863   3.420   3.769  1.0037 -1.6489 -1.5159
  896MOL0     H23630   8.152   3.362   4.110  1.4766  0.5782  1.5702
  896MOL0     H23631   8.205   3.453   4.310 -1.9995  1.8947  0.4967
  896MOL0     H23632   9.126   2.999   5.076 -4.7390 -0.4116 -1.3874
  896MOL0     H23633   9.314   2.971   5.230  0.6223 -0.1278  0.3840
  896MOL0     H23634   9.488   3.127   5.622  0.7298  0.8791  0.4781
  896MOL0     H23635   9.685   3.150   5.739 -1.6699  0.9439  0.5230
  896MOL0     H23636   9.846   3.126   5.858  0.7308 -0.9638 -1.8639
  896MOL0     H23637   9.772   2.998   5.979 -3.7524  0.3839 -3.2928
  896MOL0     H23638   9.990   2.947   6.060 -0.0996 -1.2451 -1.1577
  896MOL0     H23639   9.974   3.122   6.066 -1.0767 -0.1069 -0.2397
  896MOL0     H23640  10.108   2.985   5.829 -1.6525 -1.7825  1.2600
  896MOL0     H23641  10.105   3.158   5.862 -0.0441  0.0294 -2.1245
  896MOL0     H23642  10.202   3.026   6.102  1.1571 -1.9027  0.4709
  896MOL0     H23643  10.285   3.134   5.985 -1.2902  1.7614  1.3939
  896MOL0     H23644  10.505   2.805   5.922 -0.5884  1.0930  0.5575
  896MOL0     H23645   9.739   2.721   5.709 -2.0271 -1.4254  3.9174
  896MOL0     H23646   9.541   2.604   5.720  1.9753  1.0801 -0.0022
  896MOL0     H23647   9.395   2.640   5.619 -0.3289  2.5167  0.2587
  896MOL0     H23648   9.539   2.582   5.549 -1.8894 -1.3307  0.7442
  897MOL0     O23649   2.670   2.878   1.469 -0.1420  0.0682 -0.3700
  897MOL0     C23650   2.643   2.807   1.562 -0.1636 -0.3515  0.4151
  897MOL0     O23651   2.521   2.760   1.596 -0.5439 -0.1978 -0.0337
  897MOL0     C23652   2.422   2.846   1.611  0.1544 -0.7355  0.1070
  897MOL0     C23653   2.428   2.992   1.599 -0.2424  0.3233 -0.0076
  897MOL0     C23654   2.310   3.070   1.619 -0.5899 -1.1620 -0.2628
  897MOL0     C23655   2.192   3.016   1.654  0.4239 -0.7969  0.1487
  897MOL0     O23656   2.077   3.092   1.663  0.5824 -0.3492  0.8688
  897MOL0     C23657   2.077   3.211   1.589  0.1918 -0.0668 -0.3929
  897MOL0     C23658   1.942   3.272   1.529 -0.6333  0.6529 -0.2386
  897MOL0     C23659   1.815   3.276   1.624  0.2749 -1.1339 -0.1702
  897MOL0     C23660   1.698   3.331   1.547  0.3679 -0.3922 -0.0524
  897MOL0     C23661   1.575   3.296   1.609 -0.1384 -0.4959 -0.1605
  897MOL0     C23662   1.446   3.302   1.512 -0.6044  0.0634  0.3548
  897MOL0     C23663   1.329   3.261   1.598  0.4250 -0.3200 -0.5665
  897MOL0     C23664   1.188   3.263   1.536  0.7889  0.2423 -0.4416
  897MOL0     N23665   1.076   3.208   1.612 -0.3518  0.3429  0.3880
  897MOL0     C23666   1.014   3.088   1.592 -0.9317  0.1919 -0.9227
  897MOL0     C23667   0.892   3.096   1.664  0.1710 -0.1212  1.7859
  897MOL0     C23668   0.795   2.986   1.658  0.2778  0.1677  1.1003
  897MOL0     C23669   0.646   3.032   1.631  0.6060  0.4085  0.0494
  897MOL0     C23670   0.640   3.135   1.515 -0.4938 -0.0034  0.7647
  897MOL0     C23671   0.499   3.122   1.452 -0.1020 -0.2629 -0.3328
  897MOL0     O23672   0.485   3.007   1.366 -0.6217 -0.5361  0.3695
  897MOL0     C23673   0.421   3.014   1.241  0.3673 -0.3539  1.2342
  897MOL0     C23674   0.364   2.903   1.191 -0.4572  0.5300 -0.3225
  897MOL0     C23675   0.283   2.897   1.079 -0.0320 -0.3731  0.1628
  897MOL0     C23676   0.242   2.772   1.032 -0.1195 -0.7909 -0.8234
  897MOL0     C23677   0.261   3.014   1.008  0.2128 -0.7541  0.0123
  897MOL0     C23678   0.175   3.022   0.884 -0.9715 -0.6426  0.8679
  897MOL0     O23679   0.208   3.108   0.790 -0.4635  0.4902 -0.5748
  897MOL0     C23680   0.107   3.132   0.705 -0.4140 -0.0091 -0.5301
  897MOL0     C23681   0.059   3.265   0.693 -0.0016  0.6784 -0.3090
  897MOL0     C23682  -0.045   3.292   0.594 -1.0018  0.4117 -1.2305
  897MOL0     C23683  -0.078   3.190   0.501 -1.0176 -0.4000 -0.0990
  897MOL0     O23684  -0.186   3.216   0.420  0.0309 -0.7690 -0.2277
  897MOL0     C23685  -0.157   3.216   0.277  0.4990  0.0087 -0.6476
  897MOL0     C23686  -0.231   3.326   0.208  0.1840 -0.0004 -0.5372
  897MOL0     C23687  -0.190   3.467   0.267 -0.3599  0.2231  0.8891
  897MOL0     C23688  -0.221   3.572   0.161  0.6660  0.5392  0.0085
  897MOL0     C23689  -0.218   3.722   0.208  0.6987  0.1045 -0.3886
  897MOL0     C23690  -0.349   3.761   0.289 -0.0554  1.1846 -0.0526
  897MOL0     C23691  -0.345   3.913   0.303 -0.5593  0.1552  0.5279
  897MOL0     C23692  -0.482   3.966   0.363 -0.0228 -0.6439 -0.9249
  897MOL0    Cl23693  -0.517   3.891   0.515 -0.6852  0.3349  0.1786
  897MOL0     C23694  -0.018   3.061   0.504 -0.1119  0.3386  0.0229
  897MOL0     C23695   0.077   3.038   0.602 -0.8451  0.3494 -0.0723
  897MOL0     O23696   0.082   2.943   0.878 -0.9751  0.9862  0.1448
  897MOL0     C23697   0.331   3.135   1.044  0.2288 -0.2838 -0.5136
  897MOL0     C23698   0.410   3.133   1.161  0.1497  0.0642 -0.0104
  897MOL0     N23699   0.881   3.218   1.725 -1.5838  0.1262  0.3307
  897MOL0     N23700   0.997   3.276   1.711 -1.1587  0.5287  0.1219
  897MOL0     C23701   2.190   2.886   1.684  0.3981 -0.5518  0.2099
  897MOL0     C23702   2.303   2.799   1.663 -0.2315  0.3903 -0.0403
  897MOL0     C23703   2.760   2.749   1.630  0.8286  0.2219  0.8654
  897MOL0     C23704   2.871   2.706   1.563 -0.6262 -0.0403  0.2655
  897MOL0     C23705   2.978   2.653   1.624  0.0776  0.4161 -0.3273
  897MOL0     C23706   2.982   2.636   1.758  0.0038 -0.0601  0.2822
  897MOL0     O23707   3.078   2.560   1.833 -0.3054  0.8875  0.0750
  897MOL0     C23708   3.206   2.541   1.766 -0.2575 -0.6992  0.3188
  897MOL0     C23709   3.193   2.421   1.674  0.2815  0.0468 -0.2696
  897MOL0     C23710   3.304   2.408   1.566 -0.0221 -0.2626  0.8759
  897MOL0     C23711   3.447   2.448   1.616 -0.4418  0.5775  0.1387
  897MOL0     C23712   3.512   2.337   1.688 -0.8822  0.2647  0.2229
  897MOL0     C23713   3.592   2.252   1.727  0.6551  1.0621 -0.5366
  897MOL0     C23714   2.874   2.685   1.843  1.2899  0.8438  0.2175
  897MOL0     C23715   2.759   2.743   1.776  0.0314 -0.6190 -0.3080
  897MOL0     C23716   2.645   2.788   1.858 -1.1540 -0.3061  0.4718
  897MOL0     H23717   2.520   3.035   1.562  0.7990 -1.7432 -0.0024
  897MOL0     H23718   2.303   3.178   1.615 -2.8757 -1.2899 -0.7416
  897MOL0     H23719   2.140   3.208   1.500  0.2594  2.7407 -0.5442
  897MOL0     H23720   2.121   3.289   1.653 -2.9641  1.4186  0.1705
  897MOL0     H23721   1.971   3.374   1.504 -3.6373  1.5365 -0.3923
  897MOL0     H23722   1.924   3.212   1.439  2.2742  2.5850 -2.2909
  897MOL0     H23723   1.781   3.176   1.653  1.5034 -1.4706  0.1375
  897MOL0     H23724   1.836   3.325   1.719 -1.3366 -1.1293  0.2199
  897MOL0     H23725   1.710   3.439   1.541  0.6337 -0.4787 -1.2345
  897MOL0     H23726   1.696   3.284   1.448 -2.3333 -3.3430  1.2040
  897MOL0     H23727   1.559   3.348   1.704 -3.7182 -0.8771 -0.4232
  897MOL0     H23728   1.576   3.191   1.640 -3.3343 -0.9290 -1.2279
  897MOL0     H23729   1.427   3.405   1.482 -2.4292 -0.0213  1.0916
  897MOL0     H23730   1.454   3.229   1.431 -0.1537  1.0371 -0.4961
  897MOL0     H23731   1.329   3.325   1.686 -0.5785  2.0252 -2.1765
  897MOL0     H23732   1.352   3.155   1.610 -0.5071 -0.6202 -1.3878
  897MOL0     H23733   1.162   3.369   1.526 -3.3691 -0.6182 -0.3217
  897MOL0     H23734   1.187   3.214   1.439 -1.7557 -3.6298  1.3215
  897MOL0     H23735   1.038   3.006   1.526  0.4407 -0.7512  0.6792
  897MOL0     H23736   0.780   2.932   1.752 -4.2865 -2.7701 -0.9429
  897MOL0     H23737   0.814   2.921   1.572 -1.1704  2.4312 -1.0990
  897MOL0     H23738   0.580   2.948   1.607  1.2352  1.0531 -5.1736
  897MOL0     H23739   0.604   3.084   1.718 -0.6938  0.7976 -0.7842
  897MOL0     H23740   0.649   3.234   1.561 -2.3860 -0.2197  1.7112
  897MOL0     H23741   0.716   3.122   1.438 -2.2990  0.0282 -1.1374
  897MOL0     H23742   0.419   3.116   1.525  0.1167 -2.3181 -0.1897
  897MOL0     H23743   0.479   3.213   1.395 -2.8332  0.8824  2.2208
  897MOL0     H23744   0.376   2.814   1.253  1.3173  0.2472 -0.9991
  897MOL0     H23745   0.267   2.690   1.099  0.3152  0.0670  0.0942
  897MOL0     H23746   0.302   2.741   0.946  2.2324  1.8815 -0.2788
  897MOL0     H23747   0.134   2.765   1.014 -0.7975  1.4358  1.6879
  897MOL0     H23748   0.094   3.345   0.759 -2.6153  0.1081  1.9328
  897MOL0     H23749  -0.094   3.387   0.574  2.2218  2.3055 -0.8834
  897MOL0     H23750  -0.051   3.233   0.257  0.9272 -0.8311  0.7500
  897MOL0     H23751  -0.197   3.124   0.235 -0.2480  0.4817 -1.0060
  897MOL0     H23752  -0.207   3.308   0.103 -0.4239 -3.8428 -0.1588
  897MOL0     H23753  -0.336   3.300   0.222  0.3389 -2.7968 -3.4962
  897MOL0     H23754  -0.084   3.474   0.294 -0.2522 -2.4875  1.5108
  897MOL0     H23755  -0.245   3.490   0.360  0.3248  3.0759  0.6895
  897MOL0     H23756  -0.313   3.545   0.108  0.0270 -4.0099  2.8064
  897MOL0     H23757  -0.147   3.562   0.081  1.7576  3.6925  0.4993
  897MOL0     H23758  -0.122   3.750   0.252 -0.4273  1.6132  1.2253
  897MOL0     H23759  -0.219   3.782   0.117  0.2283  1.4679  0.4837
  897MOL0     H23760  -0.352   3.719   0.390 -1.1643 -0.9872 -0.9323
  897MOL0     H23761  -0.440   3.740   0.232 -1.1382  0.5619  1.7990
  897MOL0     H23762  -0.338   3.967   0.208  1.0040  1.5276  1.3792
  897MOL0     H23763  -0.259   3.935   0.366 -1.5098 -1.7699  2.6613
  897MOL0     H23764  -0.561   3.933   0.296  0.0171 -3.6699  0.3509
  897MOL0     H23765  -0.471   4.074   0.373 -0.7175 -0.6231 -0.3220
  897MOL0     H23766  -0.047   2.987   0.430 -0.7985 -1.3296  1.8629
  897MOL0     H23767   0.137   2.949   0.588  0.7984  1.5246 -0.9079
  897MOL0     H23768   0.321   3.227   0.989 -0.6791 -0.2070 -0.2354
  897MOL0     H23769   0.466   3.225   1.163 -2.2630  1.6243  1.9490
  897MOL0     H23770   2.095   2.851   1.722  0.2655  1.0833  1.4883
  897MOL0     H23771   2.285   2.694   1.685 -0.5134  0.5473  0.5267
  897MOL0     H23772   2.872   2.707   1.454  1.3388  0.5482  0.2528
  897MOL0     H23773   3.065   2.634   1.561  1.5662  2.7521  0.8678
  897MOL0     H23774   3.237   2.632   1.714  1.1117 -1.1973  0.2271
  897MOL0     H23775   3.281   2.514   1.841  0.8646 -2.9931 -1.5029
  897MOL0     H23776   3.100   2.423   1.616  0.6223 -0.7679 -0.8538
  897MOL0     H23777   3.204   2.333   1.739 -2.2753  0.7508  1.2515
  897MOL0     H23778   3.316   2.305   1.532  5.6793  1.0359 -2.1754
  897MOL0     H23779   3.261   2.462   1.481 -4.6258 -2.3278  1.5736
  897MOL0     H23780   3.438   2.528   1.691 -1.9465 -0.4609  1.1043
  897MOL0     H23781   3.514   2.475   1.534 -0.1348 -0.4672  0.0303
  897MOL0     H23782   3.667   2.186   1.768  0.0149  0.7528  0.1541
  897MOL0     H23783   2.883   2.681   1.951 -0.4634  1.2231  0.4182
  897MOL0     H23784   2.665   2.796   1.966  2.6536 -3.0871  0.1688
  897MOL0     H23785   2.611   2.890   1.835  0.1746  1.3454  4.7201
  897MOL0     H23786   2.554   2.732   1.835 -2.3113  2.4488 -2.4171
  898MOL0     O23787   8.724   1.306   1.746 -0.4103  0.0971 -0.2533
  898MOL0     C23788   8.733   1.431   1.765  0.0847 -0.0295  0.7316
  898MOL0     O23789   8.663   1.504   1.854 -0.4204 -0.1983  0.3835
  898MOL0     C23790   8.585   1.440   1.942  0.5018 -0.0184 -1.4293
  898MOL0     C23791   8.447   1.464   1.923 -0.4155  1.0292 -0.1212
  898MOL0     C23792   8.355   1.401   2.004 -0.5055  0.1003  0.8770
  898MOL0     C23793   8.395   1.328   2.114 -0.3343  0.2213  0.3955
  898MOL0     O23794   8.288   1.283   2.183  0.0288  0.7436 -0.3435
  898MOL0     C23795   8.298   1.159   2.256 -0.5142  0.6316 -0.7968
  898MOL0     C23796   8.343   1.032   2.192 -0.1842  0.2204  0.2946
  898MOL0     C23797   8.357   0.926   2.309 -1.3308  0.5276 -0.5010
  898MOL0     C23798   8.230   0.862   2.339 -0.2428 -0.1261  0.5855
  898MOL0     C23799   8.215   0.833   2.494 -0.4807 -0.2210  0.5184
  898MOL0     C23800   8.199   0.953   2.585 -0.3299  0.6581  0.0662
  898MOL0     C23801   8.056   1.005   2.596  0.4221 -0.6774  0.0249
  898MOL0     C23802   8.054   1.115   2.701 -0.2084 -0.1210 -0.1795
  898MOL0     N23803   8.145   1.237   2.685 -0.0542  0.5952 -0.3469
  898MOL0     C23804   8.244   1.268   2.776  0.0701 -0.2589 -0.3658
  898MOL0     C23805   8.284   1.389   2.744  0.5975 -0.3080  0.0221
  898MOL0     C23806   8.396   1.469   2.796 -0.2372  0.8712  0.7198
  898MOL0     C23807   8.372   1.477   2.946 -0.0390  0.1205  0.6767
  898MOL0     C23808   8.494   1.536   3.014 -0.2419  0.0326  0.2544
  898MOL0     C23809   8.473   1.559   3.170 -0.2162 -0.0891  1.1612
  898MOL0     O23810   8.357   1.636   3.203  0.0703  0.1014 -0.3418
  898MOL0     C23811   8.327   1.646   3.337  0.4187 -0.7284  0.2053
  898MOL0     C23812   8.192   1.680   3.357  0.6400 -0.9036  0.6345
  898MOL0     C23813   8.146   1.694   3.491  0.6535 -0.5400  0.0039
  898MOL0     C23814   8.012   1.755   3.514  0.3232  0.0099  0.3920
  898MOL0     C23815   8.227   1.654   3.600  0.8882  0.1087  0.2416
  898MOL0     C23816   8.180   1.643   3.740  0.3862 -0.3787 -0.1448
  898MOL0     O23817   8.259   1.686   3.845  0.4532 -0.1731  0.2280
  898MOL0     C23818   8.201   1.653   3.969 -0.5032  0.2515 -0.7836
  898MOL0     C23819   8.089   1.712   4.013  0.8601 -0.0251  0.0408
  898MOL0     C23820   8.008   1.670   4.117  0.6482 -0.0057 -0.0248
  898MOL0     C23821   8.065   1.578   4.202 -0.1244  0.7104  0.1301
  898MOL0     O23822   8.012   1.535   4.322 -0.3616 -0.2462 -0.0898
  898MOL0     C23823   7.891   1.582   4.366  0.5276  0.2845  0.0516
  898MOL0     C23824   7.909   1.705   4.449 -0.1039  0.0760 -0.1150
  898MOL0     C23825   8.042   1.723   4.527  0.3805  0.7487  0.8708
  898MOL0     C23826   8.037   1.665   4.676 -0.4123 -0.2746  1.0704
  898MOL0     C23827   8.141   1.716   4.767 -0.0456 -0.4675  0.0334
  898MOL0     C23828   8.101   1.674   4.914 -0.4237 -0.5272 -0.0312
  898MOL0     C23829   8.219   1.685   5.006 -1.0078  0.2439  0.5965
  898MOL0     C23830   8.189   1.615   5.131 -0.0511  0.5240 -0.5677
  898MOL0    Cl23831   8.343   1.622   5.233  0.4595  0.4265 -0.2919
  898MOL0     C23832   8.194   1.515   4.168  0.1304 -0.0655 -0.0048
  898MOL0     C23833   8.255   1.552   4.050  0.0217  0.0451 -0.3303
  898MOL0     O23834   8.069   1.598   3.757  0.5180  0.3340  0.3982
  898MOL0     C23835   8.361   1.619   3.578  0.3194  0.0800  0.9288
  898MOL0     C23836   8.415   1.625   3.452 -0.5634 -0.2948  0.3395
  898MOL0     N23837   8.223   1.419   2.626  1.0407 -0.2182 -0.7763
  898MOL0     N23838   8.143   1.327   2.590 -0.4491  0.0163  0.0168
  898MOL0     C23839   8.532   1.321   2.148 -0.0997 -1.0661 -0.0069
  898MOL0     C23840   8.628   1.373   2.060 -0.2424  1.6457  0.4083
  898MOL0     C23841   8.827   1.513   1.685 -0.2430 -0.3997 -0.6622
  898MOL0     C23842   8.963   1.492   1.694  0.3132 -0.3292 -0.4402
  898MOL0     C23843   9.056   1.593   1.638  0.2331  0.0654 -0.1165
  898MOL0     C23844   9.009   1.699   1.563 -0.0366  0.4458 -0.1043
  898MOL0     O23845   9.098   1.787   1.511  0.5628  0.8610  0.0352
  898MOL0     C23846   9.170   1.751   1.397 -0.3533  0.2151 -0.0250
  898MOL0     C23847   9.086   1.724   1.272  0.2207 -0.5587 -0.7573
  898MOL0     C23848   9.023   1.849   1.217 -1.7692  0.3465 -0.9546
  898MOL0     C23849   8.900   1.826   1.133  0.0395  0.0207  0.7521
  898MOL0     C23850   8.928   1.745   1.016  0.7908  0.0498 -0.2313
  898MOL0     C23851   8.938   1.659   0.928 -0.5975 -0.7405  0.2405
  898MOL0     C23852   8.874   1.709   1.536  0.1707 -0.2708 -1.0029
  898MOL0     C23853   8.780   1.621   1.606  0.2957 -0.2003  1.5835
  898MOL0     C23854   8.636   1.624   1.572 -0.2218  0.3749  0.4235
  898MOL0     H23855   8.420   1.519   1.833 -1.2048  0.2280 -0.3962
  898MOL0     H23856   8.247   1.412   2.004 -0.5136  0.0501  1.8412
  898MOL0     H23857   8.211   1.130   2.316  0.5795 -1.1748  0.0201
  898MOL0     H23858   8.372   1.185   2.332  0.1824 -0.9288 -0.8970
  898MOL0     H23859   8.270   0.999   2.117  1.6495 -1.7249 -0.7486
  898MOL0     H23860   8.435   1.058   2.139 -0.9057 -0.8480 -1.5850
  898MOL0     H23861   8.439   0.859   2.281 -2.1269 -0.0304 -1.5414
  898MOL0     H23862   8.392   0.981   2.397 -0.7647 -0.1799 -0.2744
  898MOL0     H23863   8.142   0.916   2.302 -0.8749 -0.0612  2.1115
  898MOL0     H23864   8.238   0.768   2.284  3.8659  1.3661 -1.7271
  898MOL0     H23865   8.314   0.791   2.516 -0.0038  0.0993 -0.9162
  898MOL0     H23866   8.145   0.754   2.522 -0.6276 -0.3079 -0.0896
  898MOL0     H23867   8.218   0.923   2.688 -1.4314  5.6288  2.0105
  898MOL0     H23868   8.264   1.033   2.548 -0.4922  1.7455  2.0163
  898MOL0     H23869   7.993   0.924   2.634  2.2064 -1.8836  0.4808
  898MOL0     H23870   8.024   1.061   2.507  0.2932  2.4166  1.8519
  898MOL0     H23871   7.951   1.146   2.718 -0.0699  0.0825  0.3090
  898MOL0     H23872   8.073   1.067   2.797 -2.0187 -0.8996 -0.1829
  898MOL0     H23873   8.289   1.208   2.855  3.4662  0.0955 -1.8448
  898MOL0     H23874   8.408   1.567   2.747  1.0701  0.7853  0.8400
  898MOL0     H23875   8.482   1.409   2.766 -1.6109 -1.1254  0.5089
  898MOL0     H23876   8.283   1.540   2.958 -0.5627 -0.5317  0.2971
  898MOL0     H23877   8.369   1.380   2.996 -0.8266 -1.1149 -1.5954
  898MOL0     H23878   8.582   1.475   2.992 -0.2541  0.2577 -0.4533
  898MOL0     H23879   8.501   1.638   2.974 -3.0339 -0.2373 -1.2220
  898MOL0     H23880   8.460   1.460   3.214  1.3003 -0.5284  0.6804
  898MOL0     H23881   8.562   1.605   3.212  0.2242  1.7863 -1.5374
  898MOL0     H23882   8.117   1.704   3.283  0.7549  1.0341  1.0837
  898MOL0     H23883   7.977   1.813   3.429 -0.9998 -1.3362 -0.0243
  898MOL0     H23884   8.016   1.834   3.590 -1.9132  0.7178 -0.1506
  898MOL0     H23885   7.940   1.679   3.544 -1.3996  2.4732  3.0167
  898MOL0     H23886   8.058   1.803   3.962  1.7959 -0.3896 -1.2381
  898MOL0     H23887   7.922   1.727   4.149 -0.0390 -0.6270 -0.7125
  898MOL0     H23888   7.828   1.589   4.277  0.4410 -2.9260 -0.2542
  898MOL0     H23889   7.855   1.501   4.429 -1.7011  1.8463  0.9159
  898MOL0     H23890   7.895   1.793   4.385  3.0980  2.2490  1.8777
  898MOL0     H23891   7.827   1.712   4.521  0.4889  0.2505  0.5500
  898MOL0     H23892   8.059   1.830   4.542 -1.2872  1.1354  0.2747
  898MOL0     H23893   8.120   1.686   4.460 -0.9895  1.0582 -0.9769
  898MOL0     H23894   8.048   1.556   4.664  1.3211  0.0567 -0.9508
  898MOL0     H23895   7.938   1.687   4.716 -1.6294 -1.4619 -1.0711
  898MOL0     H23896   8.242   1.679   4.745  0.1300 -1.0372  1.6634
  898MOL0     H23897   8.149   1.825   4.762  3.0175 -0.6680 -2.5354
  898MOL0     H23898   8.052   1.576   4.920 -3.4791  0.9528  1.4215
  898MOL0     H23899   8.025   1.745   4.949  1.4766  0.8395  1.5340
  898MOL0     H23900   8.234   1.793   5.017  0.8102  0.3643 -2.2262
  898MOL0     H23901   8.313   1.643   4.971 -0.0499  1.3938  1.7153
  898MOL0     H23902   8.179   1.510   5.100 -2.7137  1.1990 -2.2993
  898MOL0     H23903   8.095   1.640   5.181  0.2901 -0.3502  0.5634
  898MOL0     H23904   8.235   1.432   4.224  2.3010  0.2532 -1.0045
  898MOL0     H23905   8.338   1.485   4.026  0.2864 -0.6340  2.2144
  898MOL0     H23906   8.417   1.597   3.669 -0.9594 -1.9676  1.2802
  898MOL0     H23907   8.518   1.591   3.452 -1.4137 -3.3689  2.8245
  898MOL0     H23908   8.562   1.276   2.242 -1.4033 -1.7778  0.0893
  898MOL0     H23909   8.733   1.362   2.082 -0.5070  0.5803  1.3018
  898MOL0     H23910   8.991   1.401   1.747 -1.4736 -1.0463 -0.6453
  898MOL0     H23911   9.164   1.589   1.643  0.4839  1.6537 -2.2859
  898MOL0     H23912   9.230   1.839   1.371 -0.4289  0.8979  1.9781
  898MOL0     H23913   9.233   1.665   1.422 -0.0948  1.1641  2.8956
  898MOL0     H23914   9.007   1.649   1.288 -0.2386 -0.1826 -1.2185
  898MOL0     H23915   9.146   1.682   1.192 -0.6300 -0.5769 -1.4035
  898MOL0     H23916   8.995   1.914   1.301  0.7268 -0.2597  0.4725
  898MOL0     H23917   9.098   1.896   1.152  1.3176 -1.9239  0.6947
  898MOL0     H23918   8.859   1.919   1.093  1.0385 -0.0427 -0.4828
  898MOL0     H23919   8.841   1.764   1.201  2.6372 -5.1168 -1.1048
  898MOL0     H23920   8.941   1.582   0.854  5.6906 -1.2071  0.4171
  898MOL0     H23921   8.847   1.788   1.467  1.1184  1.1520  0.1827
  898MOL0     H23922   8.624   1.690   1.485 -0.8038 -2.0643 -1.4787
  898MOL0     H23923   8.597   1.534   1.523 -0.4073  3.2800 -5.7960
  898MOL0     H23924   8.584   1.673   1.655  0.2057  2.4921 -0.5003
  899MOL0     O23925   7.890   1.245   5.289 -0.0999 -0.3942 -0.2784
  899MOL0     C23926   7.922   1.199   5.398 -0.7607  0.8799  0.4799
  899MOL0     O23927   8.041   1.148   5.428 -0.9195  0.0479 -0.0124
  899MOL0     C23928   8.132   1.141   5.326 -0.3175  0.7922  0.5190
  899MOL0     C23929   8.147   1.021   5.257 -0.1338 -0.7348 -0.9785
  899MOL0     C23930   8.232   1.021   5.149 -0.5505  0.2072  0.4108
  899MOL0     C23931   8.305   1.130   5.111 -0.8691 -0.5584 -0.4330
  899MOL0     O23932   8.400   1.117   5.009 -0.6610  0.3723 -0.9443
  899MOL0     C23933   8.505   1.020   5.047  0.2208 -0.2382 -0.1326
  899MOL0     C23934   8.650   1.060   5.007 -0.7926  0.5551 -0.1722
  899MOL0     C23935   8.750   0.932   5.013  0.6238  0.0280 -0.8783
  899MOL0     C23936   8.882   0.950   4.958 -0.0683  0.9884 -0.3910
  899MOL0     C23937   8.961   1.062   5.035  0.6033 -0.2237 -0.2615
  899MOL0     C23938   8.963   1.036   5.184  1.0308 -0.4153 -0.3049
  899MOL0     C23939   9.019   0.899   5.234 -0.2364 -0.8875 -0.0110
  899MOL0     C23940   9.035   0.882   5.382 -0.3849 -0.5324 -0.6670
  899MOL0     N23941   9.124   0.978   5.441 -0.5794 -0.1776  0.2761
  899MOL0     C23942   9.093   1.100   5.513 -0.6375 -0.0327  0.2759
  899MOL0     C23943   9.205   1.148   5.562  0.4201 -0.4591 -0.2733
  899MOL0     C23944   9.222   1.262   5.658 -0.1102 -0.7650 -0.9632
  899MOL0     C23945   9.103   1.286   5.754 -0.2006  0.0227 -0.6872
  899MOL0     C23946   9.143   1.382   5.860  0.4086 -0.6047  1.3012
  899MOL0     C23947   9.051   1.378   5.983 -0.9147  0.1380 -0.1539
  899MOL0     O23948   9.075   1.256   6.054  0.1203 -0.4811 -0.4231
  899MOL0     C23949   9.188   1.233   6.126 -0.4706  0.0270 -0.2756
  899MOL0     C23950   9.200   1.114   6.192 -0.0100 -0.0410 -0.1815
  899MOL0     C23951   9.312   1.078   6.266 -0.7515  0.0643  0.6244
  899MOL0     C23952   9.304   0.950   6.350 -0.4051  0.2415  0.0466
  899MOL0     C23953   9.430   1.169   6.267 -0.0228  0.0843 -0.2962
  899MOL0     C23954   9.560   1.137   6.324 -0.9915 -0.3325 -1.2395
  899MOL0     O23955   9.628   1.247   6.378 -0.9339  0.0330 -0.3145
  899MOL0     C23956   9.756   1.212   6.420 -0.5906 -0.6627  0.3829
  899MOL0     C23957   9.792   1.216   6.557  0.0106 -0.1569 -0.8637
  899MOL0     C23958   9.926   1.181   6.601  0.8057 -0.0143 -0.3995
  899MOL0     C23959  10.022   1.150   6.497  0.5469  0.2947 -0.2556
  899MOL0     O23960  10.157   1.134   6.500 -0.8577  0.8166 -0.0540
  899MOL0     C23961  10.229   1.186   6.620 -0.2005  0.6037 -0.6996
  899MOL0     C23962  10.308   1.322   6.594  0.1014  0.7253 -0.3489
  899MOL0     C23963  10.208   1.429   6.565  0.2934  0.2917 -0.1512
  899MOL0     C23964  10.280   1.546   6.494  0.2501 -0.7658  0.8907
  899MOL0     C23965  10.176   1.636   6.422  0.8977 -0.0792  0.6556
  899MOL0     C23966  10.236   1.750   6.355  0.4385  0.7030 -0.1671
  899MOL0     C23967  10.126   1.846   6.302 -0.7932 -0.0164  0.2957
  899MOL0     C23968  10.152   1.906   6.167 -0.3754  0.5977  0.3988
  899MOL0    Cl23969  10.162   1.784   6.049  0.3756 -0.2341 -0.1117
  899MOL0     C23970   9.984   1.155   6.366  0.8417  0.9178  0.1560
  899MOL0     C23971   9.858   1.182   6.327  0.3456  0.0199  1.2060
  899MOL0     O23972   9.607   1.029   6.307 -0.1307  0.4662 -0.7653
  899MOL0     C23973   9.407   1.288   6.212 -0.9323 -0.6586  0.9329
  899MOL0     C23974   9.292   1.325   6.144 -0.7243  0.4180  0.8149
  899MOL0     N23975   9.301   1.066   5.514  0.2216 -0.3240 -0.6358
  899MOL0     N23976   9.255   0.968   5.451 -0.7285 -0.1691 -0.3997
  899MOL0     C23977   8.285   1.250   5.178 -0.4949 -0.6734 -0.1619
  899MOL0     C23978   8.194   1.255   5.277 -0.9594 -0.6190  0.1086
  899MOL0     C23979   7.816   1.172   5.492  0.6776 -0.5482  1.3191
  899MOL0     C23980   7.690   1.140   5.445  0.4081 -0.2421  0.0619
  899MOL0     C23981   7.594   1.081   5.525  0.0107  0.6326 -0.1847
  899MOL0     C23982   7.620   1.063   5.656 -0.2369  0.1404  0.1583
  899MOL0     O23983   7.513   1.010   5.729  0.1599 -0.6391 -0.8012
  899MOL0     C23984   7.515   1.022   5.874 -0.1290  0.4675 -0.5941
  899MOL0     C23985   7.370   0.991   5.929 -0.0830 -0.4354  0.0943
  899MOL0     C23986   7.402   0.972   6.084 -0.5863  1.3346  0.6895
  899MOL0     C23987   7.281   0.970   6.174  0.5967 -0.5571  0.1422
  899MOL0     C23988   7.200   1.087   6.165  0.6521  0.0439  0.8208
  899MOL0     C23989   7.154   1.196   6.174  2.1710 -1.0169 -0.0269
  899MOL0     C23990   7.745   1.109   5.713 -0.7538 -0.8489 -0.3375
  899MOL0     C23991   7.845   1.159   5.626  0.1548 -0.9996 -1.1853
  899MOL0     C23992   7.975   1.193   5.693  0.5379  0.4390  0.7591
  899MOL0     H23993   8.100   0.926   5.283 -1.8468 -0.0060 -1.2948
  899MOL0     H23994   8.226   0.934   5.084 -0.8644  0.8923 -0.5069
  899MOL0     H23995   8.463   0.927   5.008 -0.2006 -0.8270  1.6436
  899MOL0     H23996   8.506   1.002   5.155 -0.9447 -0.2382 -0.1092
  899MOL0     H23997   8.656   1.084   4.901 -0.9735 -1.7326 -0.7520
  899MOL0     H23998   8.681   1.137   5.078  1.5743 -0.7586  0.3325
  899MOL0     H23999   8.756   0.896   5.116  0.9437  1.4609 -0.3765
  899MOL0     H24000   8.700   0.854   4.954 -1.0258  1.3213 -1.2719
  899MOL0     H24001   8.933   0.854   4.970 -1.4942  0.1319 -0.9972
  899MOL0     H24002   8.865   0.963   4.851 -0.3772 -3.2800 -1.0203
  899MOL0     H24003   8.921   1.160   5.004  0.9819 -0.2150 -0.7315
  899MOL0     H24004   9.060   1.077   4.990 -0.2100  1.0693 -1.7622
  899MOL0     H24005   9.028   1.116   5.220 -1.3873  1.0533  1.0658
  899MOL0     H24006   8.870   1.061   5.234  1.4306  1.4563 -0.4163
  899MOL0     H24007   9.121   0.895   5.195 -0.9729 -2.5739 -1.9970
  899MOL0     H24008   8.974   0.813   5.183 -0.3768 -1.2810  0.7727
  899MOL0     H24009   8.937   0.896   5.427  1.5042 -0.0589  3.7931
  899MOL0     H24010   9.069   0.782   5.411  2.5411  0.9000  1.3208
  899MOL0     H24011   8.990   1.122   5.539 -1.7032  0.4932 -3.7327
  899MOL0     H24012   9.244   1.355   5.606 -0.3386 -0.2268 -0.1058
  899MOL0     H24013   9.304   1.231   5.724 -1.4142 -1.8852  0.1882
  899MOL0     H24014   9.014   1.330   5.709 -0.5636  1.3447  1.2178
  899MOL0     H24015   9.067   1.198   5.808  1.9246 -0.7067 -0.3661
  899MOL0     H24016   9.251   1.375   5.880  1.1169 -2.2855 -2.3741
  899MOL0     H24017   9.124   1.484   5.826  0.8206 -0.0315  2.6861
  899MOL0     H24018   9.069   1.467   6.043  2.0007  1.6009 -2.8634
  899MOL0     H24019   8.947   1.373   5.950 -1.4218 -1.2740  1.5323
  899MOL0     H24020   9.117   1.045   6.184 -1.9195  2.0281  0.6796
  899MOL0     H24021   9.293   0.960   6.459  0.3688 -3.6003  0.6160
  899MOL0     H24022   9.396   0.893   6.335 -1.3135 -1.1401 -0.4184
  899MOL0     H24023   9.218   0.892   6.316 -1.4017  0.9850  1.1840
  899MOL0     H24024   9.711   1.235   6.627  1.3226 -0.1573  0.7397
  899MOL0     H24025   9.949   1.178   6.707 -1.1056  2.5847  0.1756
  899MOL0     H24026  10.178   1.213   6.713 -1.0944  2.7639 -1.7365
  899MOL0     H24027  10.303   1.111   6.649 -0.6621 -0.6467 -2.5748
  899MOL0     H24028  10.361   1.359   6.682  0.5038  1.8550 -1.0524
  899MOL0     H24029  10.367   1.307   6.503 -2.5417  2.3228 -2.4893
  899MOL0     H24030  10.141   1.455   6.648  0.1092 -2.5024  0.6829
  899MOL0     H24031  10.136   1.389   6.492 -0.4733  1.2319  0.0729
  899MOL0     H24032  10.355   1.521   6.419 -0.5455 -0.3366 -0.0629
  899MOL0     H24033  10.324   1.608   6.573  2.1692 -1.6620  0.5877
  899MOL0     H24034  10.112   1.580   6.354 -0.6357  0.9536  1.1991
  899MOL0     H24035  10.113   1.673   6.503  1.8352 -0.2679  1.4924
  899MOL0     H24036  10.303   1.719   6.275  0.1154 -0.7901  0.1250
  899MOL0     H24037  10.292   1.812   6.426 -2.7658  2.5969  0.9384
  899MOL0     H24038  10.111   1.927   6.374  1.6190  2.8311 -2.1256
  899MOL0     H24039  10.030   1.793   6.297 -1.2944  0.8687  0.3233
  899MOL0     H24040  10.241   1.967   6.153 -0.7944  1.2709  0.6137
  899MOL0     H24041  10.065   1.968   6.142 -0.7709  0.7423  1.9962
  899MOL0     H24042  10.058   1.156   6.287 -0.2403  0.7850 -0.9032
  899MOL0     H24043   9.829   1.184   6.223  2.3695  2.4890  0.6111
  899MOL0     H24044   9.486   1.363   6.214  0.6638 -2.2791  1.0679
  899MOL0     H24045   9.276   1.425   6.105 -0.6678  0.4524  0.8796
  899MOL0     H24046   8.354   1.327   5.146 -1.5996  1.8715  2.9096
  899MOL0     H24047   8.184   1.358   5.310  1.5570  0.1588 -1.2706
  899MOL0     H24048   7.661   1.174   5.346  1.5573  0.5564 -0.0124
  899MOL0     H24049   7.495   1.057   5.486  0.1369 -1.0565  0.4261
  899MOL0     H24050   7.593   0.959   5.916  0.6471  0.6323 -1.7579
  899MOL0     H24051   7.536   1.125   5.903  0.4424  0.8187 -2.1524
  899MOL0     H24052   7.326   0.901   5.885  0.0231 -0.2348 -0.4181
  899MOL0     H24053   7.306   1.078   5.913  0.8953  0.4373  0.8118
  899MOL0     H24054   7.448   0.874   6.099  2.4537  2.7077  1.1319
  899MOL0     H24055   7.468   1.049   6.125  1.6233  0.2557 -0.6651
  899MOL0     H24056   7.314   0.954   6.277  2.4160  0.0321 -0.3063
  899MOL0     H24057   7.227   0.882   6.138  3.6302 -2.4596 -0.1487
  899MOL0     H24058   7.115   1.296   6.171  1.8115 -1.1348 -3.5323
  899MOL0     H24059   7.750   1.104   5.821  1.6756 -0.4625 -0.3668
  899MOL0     H24060   8.054   1.117   5.691  0.8340  0.4999  4.3871
  899MOL0     H24061   8.015   1.287   5.651  0.2199  0.0769 -0.3855
  899MOL0     H24062   7.963   1.205   5.801  1.3802  2.1042  0.7168
  900MOL0     O24063   6.170   7.638   6.114  0.3034 -0.8004  0.9319
  900MOL0     C24064   6.284   7.664   6.076  0.0315  0.1123 -0.3652
  900MOL0     O24065   6.327   7.711   5.954  0.6457  0.5606 -0.6502
  900MOL0     C24066   6.235   7.706   5.858  0.3194  0.3154 -0.3799
  900MOL0     C24067   6.151   7.814   5.824 -0.2705 -0.0141 -0.2286
  900MOL0     C24068   6.058   7.811   5.730 -0.4906  0.2853  0.1670
  900MOL0     C24069   6.062   7.697   5.639  0.4603 -0.0492  0.1162
  900MOL0     O24070   5.967   7.711   5.532  0.1126  0.3758  0.2908
  900MOL0     C24071   5.934   7.590   5.465  0.6623  0.1709 -0.0713
  900MOL0     C24072   5.781   7.601   5.425  0.3374  0.1283 -0.6591
  900MOL0     C24073   5.752   7.736   5.352  0.2946  0.0073 -1.5544
  900MOL0     C24074   5.837   7.753   5.224  0.3584  0.8074 -0.7316
  900MOL0     C24075   5.837   7.895   5.164  0.1028  0.2572  0.1658
  900MOL0     C24076   5.698   7.936   5.115 -0.8909  0.3277 -0.0337
  900MOL0     C24077   5.699   8.088   5.076  0.7849 -0.7722  0.1783
  900MOL0     C24078   5.613   8.182   5.169 -0.7399  0.9976 -0.6886
  900MOL0     N24079   5.587   8.315   5.126 -0.0788 -0.9939  0.1159
  900MOL0     C24080   5.466   8.371   5.114 -0.0468  0.2367  0.4747
  900MOL0     C24081   5.490   8.505   5.087 -0.6977 -0.3350  0.0059
  900MOL0     C24082   5.393   8.609   5.040  0.4447 -0.9073  0.3491
  900MOL0     C24083   5.349   8.714   5.137  0.1673 -0.1744 -1.5208
  900MOL0     C24084   5.207   8.764   5.105 -0.7094 -0.0543 -1.3512
  900MOL0     C24085   5.155   8.871   5.204  0.0993 -0.1087 -0.6574
  900MOL0     O24086   5.018   8.918   5.155 -0.2762 -0.9109  0.4278
  900MOL0     C24087   5.007   9.047   5.180 -0.3847 -0.7779 -0.5722
  900MOL0     C24088   4.946   9.120   5.074  0.2696 -0.1274  0.4667
  900MOL0     C24089   4.929   9.251   5.089  0.6782 -0.0561 -1.0406
  900MOL0     C24090   4.860   9.318   4.976  0.5283  0.4603 -0.0286
  900MOL0     C24091   4.966   9.323   5.213  0.2340 -0.6904  1.3433
  900MOL0     C24092   4.931   9.464   5.240  0.0352  0.0387 -0.2716
  900MOL0     O24093   4.910   9.501   5.368 -0.0630 -0.0738  0.1092
  900MOL0     C24094   4.867   9.630   5.387 -0.1136  0.2753  0.5882
  900MOL0     C24095   4.952   9.708   5.463  0.0634  0.5211  0.1035
  900MOL0     C24096   4.910   9.839   5.500  0.5646 -0.2393 -0.2537
  900MOL0     C24097   4.800   9.893   5.459 -0.7280 -0.0922 -1.1803
  900MOL0     O24098   4.774  10.028   5.485 -0.6715  0.5256 -0.2078
  900MOL0     C24099   4.678  10.094   5.405 -0.3520  0.0092 -0.0655
  900MOL0     C24100   4.651  10.227   5.465 -0.1268 -0.0608 -0.2376
  900MOL0     C24101   4.552  10.307   5.385 -0.5031  0.2576  0.8755
  900MOL0     C24102   4.527  10.444   5.448 -0.0192  0.2114 -0.0945
  900MOL0     C24103   4.460  10.551   5.349  0.1609  0.4435  0.0116
  900MOL0     C24104   4.418  10.690   5.409 -0.6831 -0.3292  0.1953
  900MOL0     C24105   4.533  10.789   5.443  0.0853  0.3558  0.3394
  900MOL0     C24106   4.508  10.917   5.371  0.4125 -0.5046 -0.1967
  900MOL0    Cl24107   4.353  10.992   5.440  0.4425  0.2312  0.0708
  900MOL0     C24108   4.705   9.801   5.392 -0.0972 -0.7270 -0.7618
  900MOL0     C24109   4.739   9.676   5.352  0.4325  0.2811  1.2989
  900MOL0     O24110   4.935   9.539   5.141  0.0330  0.2920  0.9141
  900MOL0     C24111   5.037   9.252   5.308  0.4243  0.2352  0.3705
  900MOL0     C24112   5.049   9.113   5.296 -0.0300 -0.5853  0.3651
  900MOL0     N24113   5.630   8.525   5.089  0.4899  0.0466 -0.5591
  900MOL0     N24114   5.680   8.410   5.123 -0.5468  0.3016  0.7067
  900MOL0     C24115   6.145   7.593   5.666 -0.1473 -0.4150 -0.0414
  900MOL0     C24116   6.231   7.597   5.775  0.4486 -0.4801  0.8250
  900MOL0     C24117   6.372   7.644   6.189  0.1237  0.1414  0.1325
  900MOL0     C24118   6.469   7.750   6.199  0.2960 -0.3554 -0.9345
  900MOL0     C24119   6.577   7.733   6.291  0.2153 -0.1338  0.3886
  900MOL0     C24120   6.569   7.632   6.389 -0.2846 -0.2589  0.1879
  900MOL0     O24121   6.675   7.625   6.476  0.3549 -0.0026  0.0095
  900MOL0     C24122   6.680   7.726   6.580 -0.1289 -0.2295  0.3885
  900MOL0     C24123   6.710   7.652   6.711  0.5942 -0.6043  0.1151
  900MOL0     C24124   6.636   7.520   6.751  0.2005  0.3238 -0.8418
  900MOL0     C24125   6.480   7.562   6.760  0.1298 -0.3607 -0.5706
  900MOL0     C24126   6.405   7.443   6.776  0.2713  0.2937  0.0828
  900MOL0     C24127   6.340   7.343   6.799  0.3077 -0.2937  0.7442
  900MOL0     C24128   6.460   7.533   6.391  0.0516 -0.3875  0.1168
  900MOL0     C24129   6.365   7.532   6.292 -0.2324 -0.7864 -0.3243
  900MOL0     C24130   6.254   7.438   6.281  0.9451 -0.6410  0.7806
  900MOL0     H24131   6.144   7.896   5.894  1.0567 -0.5474  0.5686
  900MOL0     H24132   5.994   7.897   5.714 -3.8226 -1.7354  1.5083
  900MOL0     H24133   5.940   7.504   5.533  1.0776 -0.2185 -0.5883
  900MOL0     H24134   5.985   7.564   5.372 -3.1426  2.6379 -3.1557
  900MOL0     H24135   5.752   7.514   5.364 -2.0277 -1.2490  2.1313
  900MOL0     H24136   5.717   7.602   5.514 -2.8057  0.9939 -2.7473
  900MOL0     H24137   5.647   7.755   5.330 -0.4734  0.2905  1.7571
  900MOL0     H24138   5.778   7.823   5.413  3.4055  0.5508 -3.4217
  900MOL0     H24139   5.942   7.725   5.238 -0.1622 -1.1150 -0.3328
  900MOL0     H24140   5.804   7.680   5.149  0.2977 -0.9968  0.9795
  900MOL0     H24141   5.909   7.879   5.083  2.4415 -1.8058  2.4463
  900MOL0     H24142   5.872   7.966   5.240 -0.0417 -0.9540  1.4115
  900MOL0     H24143   5.668   7.867   5.035  1.8260 -0.5318 -0.4364
  900MOL0     H24144   5.630   7.927   5.200 -0.5328 -0.0325  0.2210
  900MOL0     H24145   5.653   8.082   4.976 -0.3619  0.3155  0.6043
  900MOL0     H24146   5.795   8.138   5.063 -0.6568  2.3104  0.3347
  900MOL0     H24147   5.525   8.126   5.200  0.4851 -1.9421 -2.0753
  900MOL0     H24148   5.688   8.195   5.248  1.0792 -1.5843 -1.8375
  900MOL0     H24149   5.374   8.313   5.120 -1.5762  2.5076  0.1913
  900MOL0     H24150   5.302   8.561   5.002  2.6379 -2.0602 -4.0540
  900MOL0     H24151   5.441   8.651   4.952 -1.6884  0.5129 -0.2140
  900MOL0     H24152   5.360   8.674   5.238 -1.0267  0.3117 -1.1831
  900MOL0     H24153   5.406   8.807   5.143 -3.9536  2.6083 -1.1424
  900MOL0     H24154   5.218   8.806   5.004  1.7674 -0.8604 -1.4987
  900MOL0     H24155   5.133   8.685   5.090  0.0867 -0.8822 -1.0167
  900MOL0     H24156   5.137   8.846   5.309  0.1812  2.7272  0.1368
  900MOL0     H24157   5.233   8.948   5.202  0.6327 -0.5637 -4.5268
  900MOL0     H24158   4.912   9.082   4.978 -0.2851  4.3765 -1.3459
  900MOL0     H24159   4.771   9.364   5.019 -0.5341 -1.0883 -0.4823
  900MOL0     H24160   4.810   9.252   4.905  1.9065 -3.6079  2.4153
  900MOL0     H24161   4.927   9.381   4.917  0.4107  1.3665  0.7817
  900MOL0     H24162   5.051   9.684   5.500  0.3716  3.3899  1.4118
  900MOL0     H24163   4.984   9.899   5.551  3.4376 -1.0152 -3.1552
  900MOL0     H24164   4.710  10.097   5.300 -2.9314 -1.4357 -0.9744
  900MOL0     H24165   4.583  10.041   5.402 -0.2664 -0.1049 -1.4109
  900MOL0     H24166   4.615  10.203   5.565 -0.6979  0.5318 -0.2984
  900MOL0     H24167   4.742  10.283   5.490  0.5812 -1.4960  0.5365
  900MOL0     H24168   4.457  10.257   5.366 -0.5501  1.0270 -1.2247
  900MOL0     H24169   4.590  10.330   5.285 -3.6699  3.2216  0.1700
  900MOL0     H24170   4.621  10.488   5.484 -0.9654  0.8672  1.7066
  900MOL0     H24171   4.457  10.430   5.531 -0.9718 -1.4547 -1.1430
  900MOL0     H24172   4.528  10.569   5.265 -1.1928 -2.8198 -1.9589
  900MOL0     H24173   4.365  10.507   5.319  0.8316 -1.7393  0.9195
  900MOL0     H24174   4.351  10.683   5.496 -0.0059  2.6453  1.0616
  900MOL0     H24175   4.365  10.737   5.326  0.8198  2.2454  0.5931
  900MOL0     H24176   4.629  10.743   5.415  0.8365  2.7372 -1.2706
  900MOL0     H24177   4.532  10.809   5.550 -1.6637  1.3069  0.1902
  900MOL0     H24178   4.506  10.901   5.263 -1.6405 -3.2796  0.1493
  900MOL0     H24179   4.586  10.991   5.389 -0.5551  0.9947 -1.7939
  900MOL0     H24180   4.605   9.839   5.376  0.2197  1.9662  2.4254
  900MOL0     H24181   4.667   9.614   5.300  0.0757  0.7124  1.2734
  900MOL0     H24182   5.067   9.299   5.401  2.1914 -0.6563  0.2903
  900MOL0     H24183   5.102   9.054   5.371 -0.8283 -0.8045  0.7645
  900MOL0     H24184   6.135   7.511   5.595 -0.4334  2.6054 -3.8414
  900MOL0     H24185   6.303   7.519   5.797  2.3200  1.3655  1.6457
  900MOL0     H24186   6.469   7.833   6.130  2.5918 -0.9981 -1.7821
  900MOL0     H24187   6.659   7.805   6.294 -1.1357  1.6962 -2.3850
  900MOL0     H24188   6.758   7.800   6.559  0.9169 -2.2518 -3.7885
  900MOL0     H24189   6.586   7.775   6.607 -0.2684 -1.8551  3.3408
  900MOL0     H24190   6.718   7.731   6.787 -1.1773 -0.1637 -0.1074
  900MOL0     H24191   6.814   7.620   6.703  1.6178  1.6932  2.4633
  900MOL0     H24192   6.658   7.442   6.677  0.8908  0.8232 -1.1802
  900MOL0     H24193   6.678   7.486   6.846  0.9452 -0.7144 -1.5205
  900MOL0     H24194   6.455   7.608   6.664 -1.0453 -0.1135 -0.1583
  900MOL0     H24195   6.448   7.631   6.839  2.0519 -2.5572  2.3169
  900MOL0     H24196   6.282   7.254   6.813  1.4177 -0.9316  1.4440
  900MOL0     H24197   6.469   7.466   6.476  2.7557  2.1531  2.0340
  900MOL0     H24198   6.156   7.486   6.293  1.8786  2.4776 -2.2550
  900MOL0     H24199   6.260   7.371   6.194  0.7404 -0.0270  0.2838
  900MOL0     H24200   6.268   7.374   6.369  4.6094 -0.6214  0.3619
  901MOL0     O24201   1.731   3.773   2.986 -0.2067  0.3329  0.7164
  901MOL0     C24202   1.634   3.758   2.918  0.3807  1.0904 -0.1254
  901MOL0     O24203   1.598   3.642   2.873  1.5242  0.5047 -0.4919
  901MOL0     C24204   1.670   3.523   2.894  0.6939  0.0816 -0.3422
  901MOL0     C24205   1.685   3.477   3.030 -0.6481 -0.2797  0.4682
  901MOL0     C24206   1.742   3.349   3.061 -0.3405 -1.3205 -0.6150
  901MOL0     C24207   1.800   3.275   2.968  1.1548  0.3527  0.3995
  901MOL0     O24208   1.859   3.163   3.019 -0.9410 -0.5353 -0.5854
  901MOL0     C24209   1.968   3.116   2.941 -0.1105  0.3703  0.1685
  901MOL0     C24210   2.016   2.978   2.992  0.0214  0.1553 -0.1884
  901MOL0     C24211   2.153   2.939   2.951  0.7371 -0.0490  1.1441
  901MOL0     C24212   2.268   2.992   3.046 -0.6042 -0.4976 -0.6914
  901MOL0     C24213   2.399   3.005   2.968 -0.2255  0.4360 -0.4907
  901MOL0     C24214   2.487   2.885   2.945 -0.2457 -0.4807 -0.0430
  901MOL0     C24215   2.530   2.812   3.074  0.1201 -0.9805 -0.1794
  901MOL0     C24216   2.617   2.692   3.049 -0.8718  0.6321 -0.5041
  901MOL0     N24217   2.753   2.742   3.018  0.1354 -0.7660  0.6985
  901MOL0     C24218   2.803   2.765   2.882  0.5567  0.6721  0.5527
  901MOL0     C24219   2.931   2.755   2.889 -0.3330 -0.0513 -0.6794
  901MOL0     C24220   3.023   2.795   2.775 -0.4093 -0.7950 -0.0420
  901MOL0     C24221   3.179   2.794   2.804 -0.8382  1.1876 -0.5695
  901MOL0     C24222   3.237   2.896   2.905 -0.6314  0.8081 -0.0527
  901MOL0     C24223   3.366   2.847   2.970  0.4115 -0.1099  0.3251
  901MOL0     O24224   3.417   2.950   3.056 -0.6693 -0.1258 -0.0328
  901MOL0     C24225   3.443   2.936   3.196 -0.1254  0.8564 -0.0211
  901MOL0     C24226   3.469   2.810   3.261  0.6074 -0.3828  0.4078
  901MOL0     C24227   3.497   2.807   3.401  0.4456 -1.1989 -0.1162
  901MOL0     C24228   3.511   2.669   3.457 -0.1037  0.4962 -0.0436
  901MOL0     C24229   3.509   2.929   3.480  0.2472 -0.5279  0.1802
  901MOL0     C24230   3.570   2.932   3.616  0.6176  0.9454 -0.6212
  901MOL0     O24231   3.563   3.057   3.673 -0.0982  0.6134 -0.1048
  901MOL0     C24232   3.585   3.063   3.809 -0.6993 -0.5138 -0.2124
  901MOL0     C24233   3.496   3.006   3.902 -0.0523  0.0025  0.7517
  901MOL0     C24234   3.521   3.019   4.045  0.3477 -1.0933  0.4170
  901MOL0     C24235   3.627   3.093   4.101 -0.7012  0.5308  0.0689
  901MOL0     O24236   3.643   3.092   4.235  0.0080  0.1944 -0.3495
  901MOL0     C24237   3.703   2.967   4.283  0.3687 -0.1098  0.1718
  901MOL0     C24238   3.847   2.984   4.329 -0.1637  0.1975  0.0279
  901MOL0     C24239   3.938   2.875   4.376 -0.5515  0.9192 -0.0929
  901MOL0     C24240   3.871   2.795   4.498 -0.5458  1.3295  0.3099
  901MOL0     C24241   3.989   2.726   4.571 -0.3299  0.5472  0.7061
  901MOL0     C24242   4.070   2.623   4.492  0.1485 -0.9710  1.6021
  901MOL0     C24243   4.181   2.569   4.579  0.4162  0.5656  0.5793
  901MOL0     C24244   4.140   2.487   4.703 -0.5798 -0.3191  0.8359
  901MOL0    Cl24245   4.170   2.560   4.859  0.4684  0.1868 -0.2265
  901MOL0     C24246   3.724   3.141   4.006 -0.6454  0.1602 -0.4049
  901MOL0     C24247   3.702   3.125   3.865 -0.3287 -0.6907  0.4232
  901MOL0     O24248   3.608   2.827   3.676 -0.0337 -0.0476  0.2257
  901MOL0     C24249   3.497   3.045   3.404 -0.1031 -0.4127 -0.1184
  901MOL0     C24250   3.465   3.052   3.267 -0.6486  0.2144  0.3268
  901MOL0     N24251   2.963   2.727   3.023  0.4886  0.8081  0.2413
  901MOL0     N24252   2.856   2.722   3.104  0.9231 -0.1133  0.0036
  901MOL0     C24253   1.793   3.321   2.837 -0.2735  0.3240  0.6016
  901MOL0     C24254   1.726   3.437   2.798 -0.6176 -0.4887  0.5888
  901MOL0     C24255   1.544   3.870   2.901 -0.6848 -0.7001  1.0415
  901MOL0     C24256   1.420   3.856   2.842  0.1136 -0.1131  1.0177
  901MOL0     C24257   1.325   3.956   2.827  0.5474 -0.9093  0.0668
  901MOL0     C24258   1.345   4.074   2.899 -0.5273 -0.6260  0.5158
  901MOL0     O24259   1.267   4.182   2.914  0.3023  0.0657  0.5671
  901MOL0     C24260   1.148   4.199   2.832  0.4854 -0.1493 -0.1116
  901MOL0     C24261   1.110   4.344   2.811  0.1223  0.5427  0.9739
  901MOL0     C24262   1.036   4.376   2.937  0.8175  0.8227 -0.2323
  901MOL0     C24263   0.983   4.519   2.925  0.8207 -0.6489  0.8443
  901MOL0     C24264   0.888   4.548   3.032 -0.4023 -0.5679  0.1767
  901MOL0     C24265   0.809   4.584   3.123 -0.1391  0.3644  0.5355
  901MOL0     C24266   1.459   4.086   2.967 -0.5210  0.3228  0.0222
  901MOL0     C24267   1.564   3.996   2.968 -0.4816  0.0636  1.1318
  901MOL0     C24268   1.688   4.056   3.038 -0.2173  0.5064 -0.5418
  901MOL0     H24269   1.653   3.535   3.117  3.9972  0.0319  2.2721
  901MOL0     H24270   1.730   3.317   3.164  1.0250  0.4087  0.1410
  901MOL0     H24271   2.050   3.188   2.952 -1.0991  1.9165 -1.8452
  901MOL0     H24272   1.941   3.109   2.835 -0.9304  1.0746  0.3154
  901MOL0     H24273   2.018   2.985   3.101  2.2597  3.7145 -0.3010
  901MOL0     H24274   1.943   2.903   2.958  0.7366 -0.8382  0.4408
  901MOL0     H24275   2.158   2.830   2.955 -1.4168 -0.1851  1.5249
  901MOL0     H24276   2.184   2.964   2.849  0.0073  0.5900  1.0666
  901MOL0     H24277   2.237   3.090   3.081 -4.2885 -2.1227  1.2300
  901MOL0     H24278   2.285   2.925   3.131 -0.9893 -0.7153 -0.7818
  901MOL0     H24279   2.447   3.089   3.019  2.6779 -0.8004 -1.0041
  901MOL0     H24280   2.375   3.027   2.863 -0.7937  0.9545 -0.2548
  901MOL0     H24281   2.437   2.808   2.887  0.9956  0.7464 -2.9238
  901MOL0     H24282   2.574   2.915   2.886 -1.4884  2.2899 -0.6461
  901MOL0     H24283   2.446   2.768   3.129 -0.3561 -0.4589 -0.4752
  901MOL0     H24284   2.576   2.885   3.141 -1.0629 -2.3058  2.2404
  901MOL0     H24285   2.614   2.633   3.141 -1.9382  2.2671  0.5596
  901MOL0     H24286   2.582   2.639   2.960 -1.6676 -1.9778  1.2626
  901MOL0     H24287   2.756   2.787   2.787 -1.0827  3.3382  1.8416
  901MOL0     H24288   2.991   2.898   2.754 -1.4413 -1.3067 -1.0888
  901MOL0     H24289   2.996   2.721   2.699 -0.4785  0.4574 -1.2980
  901MOL0     H24290   3.200   2.691   2.833  2.2208  1.7977 -0.3074
  901MOL0     H24291   3.224   2.814   2.706 -2.1101 -1.6696 -1.8436
  901MOL0     H24292   3.256   2.990   2.852 -1.3568  0.8540 -0.2392
  901MOL0     H24293   3.166   2.935   2.979  0.6616 -0.6626  2.0849
  901MOL0     H24294   3.343   2.755   3.024  1.1972 -1.8593 -2.0995
  901MOL0     H24295   3.444   2.818   2.898 -1.3040 -1.0858 -1.2484
  901MOL0     H24296   3.467   2.718   3.203  0.3119 -0.6559  0.8375
  901MOL0     H24297   3.444   2.599   3.406  2.9640 -0.8905 -2.5109
  901MOL0     H24298   3.474   2.660   3.559  1.3906 -0.4425  0.4581
  901MOL0     H24299   3.614   2.633   3.464  0.7223  3.0325  4.3017
  901MOL0     H24300   3.406   2.962   3.861  1.0161 -0.3195 -1.4230
  901MOL0     H24301   3.442   2.979   4.108  1.2014 -1.0876  1.5209
  901MOL0     H24302   3.634   2.940   4.364  1.4873  1.0064  1.5620
  901MOL0     H24303   3.680   2.882   4.219 -0.2824 -0.6105  1.0418
  901MOL0     H24304   3.902   3.025   4.244  2.7396 -2.1460  0.6140
  901MOL0     H24305   3.840   3.055   4.411 -0.1844  1.9303 -1.4299
  901MOL0     H24306   4.032   2.918   4.411 -0.1988  0.1457 -0.0582
  901MOL0     H24307   3.970   2.805   4.298  0.7883  1.0184  0.3420
  901MOL0     H24308   3.790   2.726   4.474  1.6517 -2.6435  3.0556
  901MOL0     H24309   3.841   2.869   4.573  1.2296  3.4588 -0.9252
  901MOL0     H24310   4.062   2.795   4.613  0.7623 -2.1531  3.5849
  901MOL0     H24311   3.955   2.675   4.661  1.4339  1.5439  1.9836
  901MOL0     H24312   4.113   2.673   4.405 -1.7716  3.4846  2.9283
  901MOL0     H24313   4.002   2.547   4.452  0.6675  0.0408 -1.4600
  901MOL0     H24314   4.237   2.658   4.612 -1.4213  0.5781  4.0822
  901MOL0     H24315   4.243   2.512   4.509  0.8064  4.0060 -2.2122
  901MOL0     H24316   4.208   2.401   4.700 -0.3824 -0.1756  1.1444
  901MOL0     H24317   4.034   2.464   4.687 -0.7706  0.8840  0.2515
  901MOL0     H24318   3.814   3.196   4.031 -0.1177  0.4002 -2.5975
  901MOL0     H24319   3.775   3.154   3.790  0.6268 -1.1485  1.1679
  901MOL0     H24320   3.494   3.146   3.443 -5.0097  1.3047 -3.9089
  901MOL0     H24321   3.460   3.145   3.212  2.8603  0.7513  0.6951
  901MOL0     H24322   1.832   3.264   2.753 -1.8506  3.5545 -2.6043
  901MOL0     H24323   1.724   3.453   2.690  0.2556 -0.6717  0.5415
  901MOL0     H24324   1.400   3.762   2.790  1.7098  0.9955 -1.8608
  901MOL0     H24325   1.233   3.921   2.779  1.1243 -3.9331  0.9296
  901MOL0     H24326   1.168   4.152   2.735  2.5488  0.4046  0.0039
  901MOL0     H24327   1.065   4.135   2.864  0.3479  0.4430  0.7573
  901MOL0     H24328   1.042   4.347   2.725  1.8598 -2.2633 -0.6319
  901MOL0     H24329   1.199   4.406   2.796  0.7959 -0.0977  2.1758
  901MOL0     H24330   0.944   4.317   2.948 -1.5150  4.0973 -0.4538
  901MOL0     H24331   1.106   4.371   3.021 -1.7105  0.4518  2.0263
  901MOL0     H24332   0.957   4.548   2.822  4.2107  0.2804  0.1180
  901MOL0     H24333   1.060   4.596   2.933 -0.3449  0.4852  1.6110
  901MOL0     H24334   0.736   4.612   3.196 -0.9581  0.6989 -0.3851
  901MOL0     H24335   1.464   4.176   3.028 -3.0310 -1.4745  3.1927
  901MOL0     H24336   1.776   4.028   2.980 -0.9724  3.2592 -3.3014
  901MOL0     H24337   1.685   4.164   3.055 -2.3116  0.7679 -2.1531
  901MOL0     H24338   1.690   4.019   3.141  1.6598  1.2398 -0.2721
  902MOL0     O24339   1.498   5.602   2.517 -0.5249  0.1010 -0.2447
  902MOL0     C24340   1.507   5.489   2.478 -0.3767  0.9296  0.3560
  902MOL0     O24341   1.508   5.377   2.561 -0.3261 -0.2733  0.3735
  902MOL0     C24342   1.464   5.384   2.698  0.2517 -0.5312 -0.5535
  902MOL0     C24343   1.340   5.307   2.727  0.7413  0.5189  0.0178
  902MOL0     C24344   1.296   5.290   2.857 -0.0115 -0.5235  0.2917
  902MOL0     C24345   1.365   5.354   2.962 -0.7180 -0.2460  0.0277
  902MOL0     O24346   1.340   5.331   3.095 -0.7098 -0.9320  0.5615
  902MOL0     C24347   1.337   5.194   3.135  0.5451 -0.2758  0.4732
  902MOL0     C24348   1.393   5.172   3.276 -0.4016 -0.2948  0.0351
  902MOL0     C24349   1.531   5.234   3.297  0.0914  0.7928 -0.4500
  902MOL0     C24350   1.609   5.171   3.419 -1.2859  0.0360 -0.2878
  902MOL0     C24351   1.549   5.203   3.557 -0.3949 -0.0036  0.4522
  902MOL0     C24352   1.647   5.151   3.652  1.2177  0.1121 -0.2408
  902MOL0     C24353   1.603   5.181   3.795  0.1359  0.6085 -0.8074
  902MOL0     C24354   1.724   5.172   3.896 -0.6354 -0.2444 -0.3757
  902MOL0     N24355   1.674   5.145   4.036 -0.3353  0.1003  0.2772
  902MOL0     C24356   1.699   5.026   4.112 -0.4164 -0.4292 -0.3144
  902MOL0     C24357   1.667   5.054   4.243  0.5782 -0.2648  0.6401
  902MOL0     C24358   1.711   4.986   4.369 -0.0324 -0.4260 -0.4528
  902MOL0     C24359   1.597   4.957   4.473  0.3647  0.5781 -0.1522
  902MOL0     C24360   1.558   5.089   4.543  0.5352  0.3211  0.3793
  902MOL0     C24361   1.466   5.060   4.666 -0.6574 -0.1052 -0.6561
  902MOL0     O24362   1.386   4.951   4.640  0.8137 -0.5595  0.5120
  902MOL0     C24363   1.247   4.974   4.629 -0.0703  0.2811 -0.3118
  902MOL0     C24364   1.203   4.954   4.506 -0.3477 -0.2893 -0.2297
  902MOL0     C24365   1.070   4.977   4.476 -0.6155 -0.6002 -0.1571
  902MOL0     C24366   1.033   4.950   4.335 -0.4359  0.8684  0.0501
  902MOL0     C24367   0.978   5.027   4.578 -0.2948 -1.1223  0.7137
  902MOL0     C24368   0.835   5.061   4.556  0.6449  0.6557  0.1688
  902MOL0     O24369   0.775   4.995   4.462  0.7336 -0.6834  0.2223
  902MOL0     C24370   0.637   4.996   4.438  0.1250 -0.6202  1.0657
  902MOL0     C24371   0.545   4.941   4.531 -0.9369  0.6671 -0.3435
  902MOL0     C24372   0.411   4.948   4.508  0.4615 -0.3112 -0.9669
  902MOL0     C24373   0.357   5.021   4.394 -1.7773 -0.3351 -0.0059
  902MOL0     O24374   0.231   5.033   4.362  0.1568  0.4408  0.1967
  902MOL0     C24375   0.129   4.977   4.445 -0.1661  0.1642  0.5905
  902MOL0     C24376   0.015   4.919   4.359 -0.7383 -0.9792  0.3138
  902MOL0     C24377  -0.069   5.027   4.281 -0.0575 -0.4455 -0.4657
  902MOL0     C24378  -0.199   5.062   4.349  0.6277 -0.5700 -0.2695
  902MOL0     C24379  -0.288   5.146   4.247  0.0181 -0.5615 -0.0064
  902MOL0     C24380  -0.269   5.298   4.241 -0.4098 -1.0395  0.2125
  902MOL0     C24381  -0.368   5.364   4.136  0.2874  0.8178 -0.0792
  902MOL0     C24382  -0.487   5.451   4.200 -0.0110 -0.2221  0.3887
  902MOL0    Cl24383  -0.551   5.563   4.077 -0.1644 -0.1338 -0.3027
  902MOL0     C24384   0.448   5.064   4.293  0.5225  0.8009  0.2568
  902MOL0     C24385   0.577   5.045   4.321  0.5910 -0.5539 -0.1126
  902MOL0     O24386   0.779   5.137   4.637 -0.2512 -1.1683  0.4303
  902MOL0     C24387   1.022   5.038   4.706 -0.6619 -0.0182  0.1120
  902MOL0     C24388   1.161   5.011   4.727  1.3843 -0.1473 -0.1470
  902MOL0     N24389   1.615   5.179   4.236 -0.4281  0.2265 -0.6605
  902MOL0     N24390   1.624   5.239   4.121  0.1353  0.4110 -0.0164
  902MOL0     C24391   1.472   5.444   2.931 -0.0878 -0.2601  0.7242
  902MOL0     C24392   1.525   5.459   2.802 -0.2782  0.0638 -0.0233
  902MOL0     C24393   1.551   5.470   2.339  0.6161 -0.0580 -0.4210
  902MOL0     C24394   1.664   5.538   2.286  0.1623  0.2651 -1.3503
  902MOL0     C24395   1.713   5.511   2.164  0.1104  0.5029 -0.4371
  902MOL0     C24396   1.642   5.427   2.076 -0.3114 -0.0316  0.5095
  902MOL0     O24397   1.680   5.388   1.945  0.0435 -1.3042 -0.1390
  902MOL0     C24398   1.821   5.429   1.915 -0.0687  0.5401  0.3997
  902MOL0     C24399   1.863   5.386   1.777  0.1383 -0.1633  1.0016
  902MOL0     C24400   1.772   5.461   1.674 -0.2026  0.1418 -0.7949
  902MOL0     C24401   1.654   5.378   1.623  0.6329  0.8371 -0.2891
  902MOL0     C24402   1.700   5.257   1.560 -0.4777 -0.2275 -0.5617
  902MOL0     C24403   1.748   5.166   1.496 -0.1029 -0.7143 -0.2450
  902MOL0     C24404   1.528   5.369   2.126 -0.8353  0.1801 -0.1292
  902MOL0     C24405   1.476   5.384   2.252 -0.3072  0.3200  0.0358
  902MOL0     C24406   1.356   5.310   2.295 -0.1889 -0.6118 -1.2426
  902MOL0     H24407   1.291   5.242   2.655 -0.4085 -0.1145  1.3276
  902MOL0     H24408   1.209   5.226   2.864 -0.3453 -0.2605 -1.1469
  902MOL0     H24409   1.394   5.136   3.062  3.1160  2.6338 -0.0521
  902MOL0     H24410   1.233   5.163   3.121  1.3522 -2.5472 -1.1148
  902MOL0     H24411   1.332   5.229   3.346 -0.0423 -1.7023  1.5640
  902MOL0     H24412   1.391   5.066   3.304  1.6455  0.4225  3.5267
  902MOL0     H24413   1.595   5.215   3.210 -1.4016 -2.7597 -0.9455
  902MOL0     H24414   1.524   5.343   3.302 -2.2163  0.6853 -0.5044
  902MOL0     H24415   1.632   5.066   3.400  1.0327  0.7224 -1.5846
  902MOL0     H24416   1.698   5.234   3.416  0.1361 -1.5150  3.5192
  902MOL0     H24417   1.452   5.154   3.570  0.0451 -2.9224 -4.5285
  902MOL0     H24418   1.559   5.310   3.571  1.5346  0.0716 -1.0616
  902MOL0     H24419   1.673   5.045   3.642 -0.5253 -0.5747  1.7511
  902MOL0     H24420   1.745   5.198   3.639  1.0986 -0.1648 -2.6066
  902MOL0     H24421   1.538   5.101   3.830 -3.9528  3.0315 -2.0946
  902MOL0     H24422   1.566   5.282   3.815 -0.3247  0.3856 -0.5199
  902MOL0     H24423   1.759   5.072   3.866 -0.3921 -2.2498  5.3959
  902MOL0     H24424   1.801   5.249   3.894 -0.2659 -0.6174 -1.1170
  902MOL0     H24425   1.748   4.937   4.074 -1.3573 -1.0444 -0.1021
  902MOL0     H24426   1.786   5.058   4.403 -0.3161  1.2684 -3.1685
  902MOL0     H24427   1.764   4.891   4.358  0.0303 -0.6096  1.1788
  902MOL0     H24428   1.515   4.902   4.425 -0.7988  1.0919  1.1422
  902MOL0     H24429   1.635   4.895   4.555 -1.0570 -0.6928 -0.4028
  902MOL0     H24430   1.637   5.164   4.554 -0.3339  0.9562  3.3143
  902MOL0     H24431   1.484   5.137   4.479 -1.6448 -1.2473  1.5788
  902MOL0     H24432   1.538   5.046   4.748  0.7236 -0.6159 -1.9276
  902MOL0     H24433   1.416   5.154   4.694 -2.1136 -0.8986 -0.5036
  902MOL0     H24434   1.262   4.916   4.423 -1.1206  0.7934 -1.3080
  902MOL0     H24435   0.950   4.879   4.330  2.8428 -3.4157  0.7286
  902MOL0     H24436   1.113   4.907   4.274 -1.9686 -2.3407  0.1095
  902MOL0     H24437   0.994   5.037   4.283 -1.0366  1.0259  0.7386
  902MOL0     H24438   0.581   4.897   4.623  1.8827  1.1866 -1.1002
  902MOL0     H24439   0.345   4.909   4.584 -0.5703 -1.4735 -2.4078
  902MOL0     H24440   0.165   4.892   4.504  0.5627 -0.8632 -1.2221
  902MOL0     H24441   0.084   5.060   4.499 -0.8166 -0.3166  0.8072
  902MOL0     H24442   0.064   4.869   4.275 -0.5843  1.5584 -1.2178
  902MOL0     H24443  -0.046   4.852   4.420 -0.7110 -0.3291  1.0733
  902MOL0     H24444  -0.096   4.982   4.185 -3.2612 -0.1499  0.2146
  902MOL0     H24445  -0.018   5.123   4.268  1.7146 -0.9360  2.1604
  902MOL0     H24446  -0.182   5.108   4.447  0.5099 -2.0661  0.4770
  902MOL0     H24447  -0.269   4.979   4.366 -3.0545  1.2097 -4.5824
  902MOL0     H24448  -0.274   5.112   4.144  2.5268  0.8851 -0.2216
  902MOL0     H24449  -0.393   5.133   4.277 -0.5033  0.5503 -1.2374
  902MOL0     H24450  -0.171   5.330   4.203 -0.2252 -1.2771  0.4807
  902MOL0     H24451  -0.275   5.327   4.346 -0.8352 -2.0452  0.4833
  902MOL0     H24452  -0.413   5.292   4.067  0.5667 -0.2740  0.8330
  902MOL0     H24453  -0.318   5.441   4.077 -0.8847 -0.5497 -3.0586
  902MOL0     H24454  -0.453   5.511   4.286  2.7071 -2.0106  0.6920
  902MOL0     H24455  -0.561   5.384   4.245 -1.8746  2.2874  1.2950
  902MOL0     H24456   0.405   5.103   4.201 -2.9167 -2.1477  0.4030
  902MOL0     H24457   0.641   5.071   4.237  0.5738  1.4965  0.4611
  902MOL0     H24458   0.954   5.051   4.790 -2.7671  0.2281 -1.5704
  902MOL0     H24459   1.202   5.030   4.826 -0.7273  0.5095  0.6557
  902MOL0     H24460   1.536   5.494   3.004  1.5821  2.6855 -2.4623
  902MOL0     H24461   1.591   5.543   2.781 -3.1226  1.9577 -2.2558
  902MOL0     H24462   1.717   5.617   2.337 -2.3025  0.5460  0.9838
  902MOL0     H24463   1.805   5.559   2.133  0.8283  1.0174  2.2571
  902MOL0     H24464   1.831   5.537   1.916 -1.1952  0.7075  3.4960
  902MOL0     H24465   1.884   5.381   1.991  0.6453 -1.9138 -1.5769
  902MOL0     H24466   1.857   5.278   1.759 -0.6711  0.4755 -4.3302
  902MOL0     H24467   1.966   5.413   1.755  0.1365 -2.9736 -4.2025
  902MOL0     H24468   1.729   5.552   1.718 -0.4616 -1.4308  2.5507
  902MOL0     H24469   1.828   5.497   1.588  2.5573  0.1776  0.9025
  902MOL0     H24470   1.587   5.434   1.557 -1.4435 -1.4817 -0.2990
  902MOL0     H24471   1.602   5.359   1.718  3.1223 -0.0982  0.9698
  902MOL0     H24472   1.793   5.095   1.430  0.6175 -1.9389  1.5067
  902MOL0     H24473   1.468   5.322   2.049  0.4290  2.1280 -2.4237
  902MOL0     H24474   1.274   5.370   2.337 -0.5815 -2.0364  0.1325
  902MOL0     H24475   1.301   5.255   2.219 -2.0650  1.0107 -1.1439
  902MOL0     H24476   1.395   5.228   2.356  1.1796  1.0298  0.2346
  903MOL0     O24477   4.720   8.151   2.231  1.4657  0.6293 -0.0961
  903MOL0     C24478   4.763   8.268   2.246  0.0322  0.4919 -0.0173
  903MOL0     O24479   4.778   8.332   2.363 -0.6972  1.1983  0.2023
  903MOL0     C24480   4.732   8.272   2.475  0.4763  0.3816 -0.6539
  903MOL0     C24481   4.777   8.137   2.512  0.5767  0.0058  0.5551
  903MOL0     C24482   4.709   8.069   2.611 -0.3024  0.4783 -0.9984
  903MOL0     C24483   4.599   8.125   2.681  0.1969  0.8121 -0.2420
  903MOL0     O24484   4.543   8.042   2.772 -0.2170 -1.1008 -0.5955
  903MOL0     C24485   4.492   8.111   2.893  0.3194  0.5878  0.6531
  903MOL0     C24486   4.470   8.019   3.013 -0.2826 -0.3461 -0.2533
  903MOL0     C24487   4.598   7.935   3.051  0.2139  0.2907 -0.1686
  903MOL0     C24488   4.591   7.800   2.979 -1.4794  0.4264  0.6109
  903MOL0     C24489   4.728   7.735   2.965  1.0896  0.0856 -0.5748
  903MOL0     C24490   4.781   7.720   3.106  0.3910  0.1314  0.0831
  903MOL0     C24491   4.912   7.640   3.115  0.6769  0.6467 -0.8761
  903MOL0     C24492   4.889   7.488   3.092  1.7384 -0.2983  0.2604
  903MOL0     N24493   5.006   7.405   3.076  0.3318 -0.2824 -0.2718
  903MOL0     C24494   5.038   7.344   2.961  0.2658 -0.4841  0.2335
  903MOL0     C24495   5.160   7.296   2.975  0.6476 -0.4976 -0.6753
  903MOL0     C24496   5.244   7.217   2.885 -0.8354  0.0386 -0.3538
  903MOL0     C24497   5.173   7.161   2.755 -0.3449 -0.2385  0.7685
  903MOL0     C24498   5.216   7.029   2.690 -0.0872 -0.1193  1.2989
  903MOL0     C24499   5.175   6.903   2.783  0.6194  1.0911  0.7808
  903MOL0     O24500   5.172   6.785   2.712  0.2430 -0.8386 -0.5955
  903MOL0     C24501   5.124   6.676   2.773  0.7483  0.4247  0.3633
  903MOL0     C24502   5.129   6.649   2.910 -0.0676  0.1261  0.5370
  903MOL0     C24503   5.081   6.525   2.956  0.4768  0.0392  0.3610
  903MOL0     C24504   5.084   6.504   3.102  0.4010  0.1975 -0.2961
  903MOL0     C24505   5.035   6.430   2.870 -0.3885 -0.0390  0.8783
  903MOL0     C24506   4.979   6.286   2.908 -0.0713  0.1176 -0.1037
  903MOL0     O24507   4.899   6.223   2.816  0.2603  0.4557  0.6359
  903MOL0     C24508   4.853   6.103   2.855 -0.4822  0.8531  0.2497
  903MOL0     C24509   4.891   5.980   2.793 -0.7435 -0.1708 -0.2028
  903MOL0     C24510   4.863   5.852   2.844  0.3690  0.3514 -0.0911
  903MOL0     C24511   4.789   5.835   2.959  1.4903 -0.3977 -0.0810
  903MOL0     O24512   4.751   5.716   3.018 -0.2339 -0.8149 -0.1504
  903MOL0     C24513   4.849   5.604   3.024 -0.1844 -0.3295  0.2584
  903MOL0     C24514   4.776   5.476   3.074  0.1793 -0.0304  0.2075
  903MOL0     C24515   4.883   5.379   3.099 -0.2840  0.6652  0.0637
  903MOL0     C24516   4.944   5.368   3.250  0.3573  0.6621 -0.7667
  903MOL0     C24517   5.089   5.331   3.248 -1.3771 -0.2973 -0.6712
  903MOL0     C24518   5.133   5.245   3.372  0.4865 -0.5379  0.5765
  903MOL0     C24519   5.117   5.312   3.503  0.1388  0.8424 -0.0267
  903MOL0     C24520   5.156   5.224   3.628 -0.3595  1.1897  0.3204
  903MOL0    Cl24521   5.314   5.136   3.605  0.0960 -0.2187  0.3064
  903MOL0     C24522   4.738   5.952   3.019  1.2315  0.5546  0.0056
  903MOL0     C24523   4.775   6.075   2.968  0.5617 -0.1326  0.0346
  903MOL0     O24524   5.016   6.239   3.015 -0.0760 -0.0281 -0.3303
  903MOL0     C24525   5.009   6.459   2.735 -0.6132 -0.9181 -0.2094
  903MOL0     C24526   5.055   6.590   2.688  0.1437  0.8562 -0.7660
  903MOL0     N24527   5.204   7.333   3.098  0.5205 -0.4901 -0.2138
  903MOL0     N24528   5.101   7.392   3.166 -0.6780 -0.0499 -0.1262
  903MOL0     C24529   4.566   8.258   2.652  0.3653 -0.3803 -0.6301
  903MOL0     C24530   4.629   8.329   2.550 -0.0475  0.2011  0.2387
  903MOL0     C24531   4.822   8.357   2.130 -0.4044 -0.6803  0.3677
  903MOL0     C24532   4.875   8.292   2.017  1.1268 -0.1604 -0.9550
  903MOL0     C24533   4.958   8.354   1.931 -0.6975 -0.4716  0.9369
  903MOL0     C24534   5.005   8.481   1.959 -0.4703 -0.3600  0.0764
  903MOL0     O24535   5.106   8.524   1.885  0.0727  0.0525 -0.4183
  903MOL0     C24536   5.174   8.647   1.897 -0.1344  0.2943 -0.7397
  903MOL0     C24537   5.266   8.640   2.017 -0.2854 -0.2598  0.9778
  903MOL0     C24538   5.380   8.537   1.994  0.2625  0.3481  1.1534
  903MOL0     C24539   5.339   8.387   2.006 -0.8567 -0.1157  1.1304
  903MOL0     C24540   5.462   8.306   1.990 -0.0483 -1.1052 -1.1204
  903MOL0     C24541   5.571   8.243   1.990 -1.0544 -1.0828  1.1403
  903MOL0     C24542   4.952   8.552   2.068 -0.1151 -0.4715 -0.7609
  903MOL0     C24543   4.864   8.494   2.156  0.3572 -0.5705  0.6990
  903MOL0     C24544   4.812   8.591   2.257  0.6827 -0.7425  0.3348
  903MOL0     H24545   4.858   8.079   2.468  0.3931 -0.4792  0.8455
  903MOL0     H24546   4.753   7.970   2.621  0.5778  1.0409  1.0935
  903MOL0     H24547   4.404   8.164   2.855  2.0379  2.0664 -1.5073
  903MOL0     H24548   4.549   8.194   2.937 -1.9079  0.3057  4.5009
  903MOL0     H24549   4.438   8.084   3.094  0.4803  0.9671 -0.9721
  903MOL0     H24550   4.387   7.955   2.981 -3.4286  2.5089  1.6795
  903MOL0     H24551   4.677   8.000   3.011 -1.9629  2.0054 -1.9875
  903MOL0     H24552   4.599   7.939   3.160 -0.0908  1.9267 -0.1848
  903MOL0     H24553   4.520   7.741   3.038 -4.8421  1.7326 -1.8367
  903MOL0     H24554   4.553   7.818   2.878  0.8159 -0.4057 -0.4567
  903MOL0     H24555   4.799   7.793   2.904  2.6453 -1.3433 -0.1877
  903MOL0     H24556   4.720   7.635   2.922  2.9566 -0.1386 -0.4543
  903MOL0     H24557   4.795   7.820   3.149 -0.1854  0.9685 -1.5577
  903MOL0     H24558   4.699   7.672   3.160 -1.1656  2.9964  0.4885
  903MOL0     H24559   4.954   7.654   3.215  0.6904  0.6433 -0.8816
  903MOL0     H24560   4.990   7.675   3.046  1.3859  0.8815  0.0224
  903MOL0     H24561   4.828   7.442   3.171 -0.7961  0.7175 -0.9798
  903MOL0     H24562   4.830   7.476   3.000  0.6693  1.9436  0.5777
  903MOL0     H24563   4.974   7.344   2.873  0.1439 -1.6696  0.3113
  903MOL0     H24564   5.286   7.135   2.944  0.3770  2.0400  1.7452
  903MOL0     H24565   5.334   7.274   2.861 -0.8578  0.7783  1.2381
  903MOL0     H24566   5.065   7.149   2.759 -0.4455 -0.4607 -1.2159
  903MOL0     H24567   5.182   7.231   2.671 -3.1696  0.5867  1.0620
  903MOL0     H24568   5.152   7.024   2.602  2.5477 -1.2896 -0.6996
  903MOL0     H24569   5.322   7.024   2.662 -0.4137  1.9887 -0.6272
  903MOL0     H24570   5.240   6.893   2.870  2.4394  0.0653 -0.6251
  903MOL0     H24571   5.078   6.935   2.821  0.8841  4.5019 -1.0019
  903MOL0     H24572   5.157   6.717   2.989  3.6812 -1.6453  0.9304
  903MOL0     H24573   4.984   6.482   3.141 -0.2923  2.1000 -0.8480
  903MOL0     H24574   5.125   6.588   3.159  1.1461 -1.6187  1.9661
  903MOL0     H24575   5.156   6.422   3.111 -0.0325 -0.2801 -1.0346
  903MOL0     H24576   4.943   5.978   2.698 -0.6201 -1.9704 -0.1168
  903MOL0     H24577   4.904   5.765   2.794  2.5734  1.6579 -0.7049
  903MOL0     H24578   4.905   5.593   2.931  0.2772  4.6231 -0.3459
  903MOL0     H24579   4.934   5.622   3.091  0.7077 -0.5912 -0.7639
  903MOL0     H24580   4.736   5.496   3.173  1.5927 -0.3660  0.8804
  903MOL0     H24581   4.696   5.433   3.014  0.6754  0.2413 -0.6737
  903MOL0     H24582   4.972   5.389   3.038  1.4177 -2.5051  1.7327
  903MOL0     H24583   4.836   5.282   3.078 -3.1247  1.2275  2.9756
  903MOL0     H24584   4.895   5.279   3.291  3.9534 -1.6641 -1.0526
  903MOL0     H24585   4.929   5.462   3.303  1.4989 -0.0570  0.9138
  903MOL0     H24586   5.090   5.262   3.163 -2.3098 -2.7847  1.2209
  903MOL0     H24587   5.154   5.417   3.234 -0.7187 -0.7176 -0.2552
  903MOL0     H24588   5.238   5.217   3.360  1.6035  2.3884  2.4757
  903MOL0     H24589   5.067   5.157   3.370  0.5930 -0.6212  0.7110
  903MOL0     H24590   5.011   5.337   3.507 -0.1811 -0.3371 -0.6176
  903MOL0     H24591   5.164   5.410   3.503  1.4608  0.3329  2.9902
  903MOL0     H24592   5.081   5.145   3.644 -1.3981  1.6941 -1.7271
  903MOL0     H24593   5.165   5.282   3.720 -1.4527  0.9750  0.5854
  903MOL0     H24594   4.679   5.946   3.111 -0.8532 -2.0856 -1.3380
  903MOL0     H24595   4.756   6.158   3.036  1.0428 -0.4702  0.5908
  903MOL0     H24596   4.961   6.389   2.668  0.5815  0.0397 -2.1538
  903MOL0     H24597   5.055   6.620   2.584 -1.0508 -1.7716 -1.6091
  903MOL0     H24598   4.485   8.311   2.701 -0.5656 -0.1912 -2.2926
  903MOL0     H24599   4.576   8.414   2.508  1.0058  0.0197 -1.5587
  903MOL0     H24600   4.830   8.197   1.993 -2.3353  0.6981  1.3817
  903MOL0     H24601   4.993   8.305   1.841 -0.7907  0.4039  0.4148
  903MOL0     H24602   5.233   8.680   1.810  2.1618  0.2826  0.7296
  903MOL0     H24603   5.121   8.741   1.915 -0.7187 -0.3703  1.2174
  903MOL0     H24604   5.198   8.625   2.101 -2.2090  2.2667 -0.0084
  903MOL0     H24605   5.304   8.741   2.035 -0.9825 -0.1018  1.6504
  903MOL0     H24606   5.407   8.544   1.888 -2.7044 -2.5784  0.0090
  903MOL0     H24607   5.471   8.555   2.052 -0.1921  0.9101  1.7068
  903MOL0     H24608   5.272   8.370   1.921 -1.5210 -0.9701  1.8046
  903MOL0     H24609   5.283   8.368   2.098 -3.9495  1.1718 -0.3141
  903MOL0     H24610   5.661   8.188   1.969  0.3426  1.9875 -1.8939
  903MOL0     H24611   4.970   8.659   2.075 -1.8285 -0.2704  1.8314
  903MOL0     H24612   4.793   8.686   2.207 -2.4532 -0.8259  1.1756
  903MOL0     H24613   4.719   8.552   2.299  0.3943 -0.3377  0.0712
  903MOL0     H24614   4.883   8.626   2.332  2.9679 -0.4562 -1.8044
  904MOL0     O24615   1.453   7.442   9.758  0.1956  0.5656 -0.3000
  904MOL0     C24616   1.372   7.349   9.771 -0.1895 -0.8618  0.6286
  904MOL0     O24617   1.403   7.217   9.774 -0.2598 -0.4081 -0.4194
  904MOL0     C24618   1.529   7.183   9.729  0.9647 -0.0292  0.4865
  904MOL0     C24619   1.595   7.084   9.797 -0.7188  0.0517 -1.1100
  904MOL0     C24620   1.722   7.042   9.773 -0.2273  0.8815  0.8180
  904MOL0     C24621   1.782   7.093   9.656  0.1953  0.7993 -0.6561
  904MOL0     O24622   1.915   7.055   9.638  0.1080 -0.9426 -0.6692
  904MOL0     C24623   1.992   7.099   9.527  0.0546 -0.1161  0.2771
  904MOL0     C24624   2.128   7.038   9.528  0.3728 -0.5735 -0.1967
  904MOL0     C24625   2.194   7.092   9.409  0.1706  0.4018 -0.4446
  904MOL0     C24626   2.341   7.076   9.417 -0.1274  0.8822 -0.0179
  904MOL0     C24627   2.402   7.075   9.277 -0.4587  0.4578  0.1464
  904MOL0     C24628   2.380   7.212   9.219  0.3107  0.6798 -0.7406
  904MOL0     C24629   2.456   7.332   9.291 -0.6021  0.4185 -0.3626
  904MOL0     C24630   2.387   7.473   9.289 -0.1950  0.9733 -0.4753
  904MOL0     N24631   2.269   7.468   9.380 -0.1594  0.2384 -0.3142
  904MOL0     C24632   2.283   7.458   9.516 -0.1078 -0.2654  0.2258
  904MOL0     C24633   2.162   7.482   9.569 -0.0801 -0.2986 -0.5486
  904MOL0     C24634   2.119   7.482   9.710  0.4018 -0.4106  1.1911
  904MOL0     C24635   2.145   7.615   9.776 -0.5548  0.8003  0.5976
  904MOL0     C24636   2.091   7.643   9.917 -0.9363  0.0541  0.5004
  904MOL0     C24637   2.167   7.772   9.961 -0.3802 -0.9700 -0.7164
  904MOL0     O24638   2.304   7.746   9.992  0.1345  0.1640  0.1051
  904MOL0     C24639   2.396   7.846   9.996  0.7369 -0.7809 -0.1494
  904MOL0     C24640   2.522   7.820   9.961  0.0321  1.0214  0.7304
  904MOL0     C24641   2.622   7.919   9.953 -0.1355  1.0314 -0.0278
  904MOL0     C24642   2.760   7.881   9.894  1.0941  0.1534  0.4110
  904MOL0     C24643   2.595   8.054   9.986 -0.2354 -0.3933  0.2433
  904MOL0     C24644   2.691   8.160   9.990 -0.3431 -0.2041 -1.5849
  904MOL0     O24645   2.632   8.288  10.015 -0.0513 -0.4983 -0.0982
  904MOL0     C24646   2.720   8.374  10.066  0.2954  0.3967 -0.0308
  904MOL0     C24647   2.773   8.469   9.979  0.1955  0.1916  0.5052
  904MOL0     C24648   2.855   8.565  10.031  0.0749  0.3714 -0.7154
  904MOL0     C24649   2.901   8.560  10.168  0.4489  0.3355  0.7178
  904MOL0     O24650   2.995   8.649  10.201  0.0928 -0.1260  0.0016
  904MOL0     C24651   3.098   8.604  10.279 -0.5657 -0.1012 -0.2673
  904MOL0     C24652   3.193   8.730  10.309  0.4721  0.7182 -0.1812
  904MOL0     C24653   3.326   8.693  10.368  0.0261 -0.5986  0.0697
  904MOL0     C24654   3.417   8.812  10.383 -0.3319 -0.2113 -0.0974
  904MOL0     C24655   3.553   8.789  10.458  0.5351  0.6475 -0.4110
  904MOL0     C24656   3.645   8.916  10.465 -0.9497  0.4904  1.0214
  904MOL0     C24657   3.771   8.864  10.542 -1.0858 -0.0939 -0.6723
  904MOL0     C24658   3.884   8.959  10.514 -1.0576  0.2194 -0.6775
  904MOL0    Cl24659   3.910   9.073  10.643  0.3785  0.1516  0.1249
  904MOL0     C24660   2.832   8.477  10.252  0.9039  0.8586 -0.4064
  904MOL0     C24661   2.738   8.391  10.197  0.1800 -0.1355 -0.7834
  904MOL0     O24662   2.808   8.132   9.988 -0.6226  0.3955 -0.8101
  904MOL0     C24663   2.465   8.080  10.018  0.4337  0.2065  0.5246
  904MOL0     C24664   2.366   7.980  10.027 -0.3676  0.4051 -0.3389
  904MOL0     N24665   2.072   7.501   9.459  0.1639  1.0302 -0.6193
  904MOL0     N24666   2.139   7.492   9.341 -0.3062 -0.1977  0.0608
  904MOL0     C24667   1.707   7.175   9.575 -0.3366 -0.0190 -0.7899
  904MOL0     C24668   1.585   7.233   9.610 -0.0164  0.2618  0.8946
  904MOL0     C24669   1.232   7.387   9.810  0.4870 -0.4264 -1.0168
  904MOL0     C24670   1.143   7.282   9.809  0.3429  0.4454  0.2896
  904MOL0     C24671   1.006   7.298   9.818 -0.1984  0.2359 -0.3085
  904MOL0     C24672   0.954   7.419   9.863  0.3743  0.9091  0.7743
  904MOL0     O24673   0.822   7.444   9.850 -0.5054  0.0348 -0.5392
  904MOL0     C24674   0.784   7.447   9.715  0.3804 -0.0339  0.6797
  904MOL0     C24675   0.650   7.483   9.705  0.4683 -1.2659 -0.6237
  904MOL0     C24676   0.537   7.396   9.783 -0.8486 -0.1253  0.2249
  904MOL0     C24677   0.405   7.407   9.715 -1.2685 -0.7779 -0.0809
  904MOL0     C24678   0.329   7.292   9.753 -0.9864  0.0603 -0.7126
  904MOL0     C24679   0.258   7.203   9.789 -0.3797  0.0622  1.0384
  904MOL0     C24680   1.053   7.521   9.885  0.4323 -0.4505 -0.1709
  904MOL0     C24681   1.190   7.514   9.859 -0.4745 -1.1777 -0.0188
  904MOL0     C24682   1.273   7.631   9.886 -1.0359  0.5047  0.4122
  904MOL0     H24683   1.567   7.052   9.897  0.1737  0.0956 -0.8389
  904MOL0     H24684   1.774   6.980   9.845  1.2096  1.1875  0.0672
  904MOL0     H24685   2.006   7.208   9.532  2.4560 -0.2648 -1.2885
  904MOL0     H24686   1.948   7.071   9.431 -0.9500 -1.9917  1.2303
  904MOL0     H24687   2.184   7.052   9.622 -2.9357  1.8910  1.6020
  904MOL0     H24688   2.105   6.931   9.523  0.2657 -0.6273  1.0294
  904MOL0     H24689   2.165   7.026   9.326  0.6203  0.0330 -0.3133
  904MOL0     H24690   2.155   7.193   9.393 -2.0508 -0.3119  0.1571
  904MOL0     H24691   2.388   7.151   9.481  2.0451 -0.0115 -0.4765
  904MOL0     H24692   2.382   6.984   9.459  2.5667  1.0625 -2.0088
  904MOL0     H24693   2.350   6.999   9.217 -0.9979  0.6186  0.4100
  904MOL0     H24694   2.509   7.052   9.280 -0.2566  1.3686  0.0472
  904MOL0     H24695   2.409   7.213   9.113 -0.2766 -4.5316 -1.1768
  904MOL0     H24696   2.272   7.230   9.222  0.1943 -0.0873 -0.3050
  904MOL0     H24697   2.555   7.346   9.249 -0.9209  5.1186 -0.1175
  904MOL0     H24698   2.482   7.319   9.397  1.0230  3.1396 -0.3331
  904MOL0     H24699   2.455   7.554   9.316  0.3740  0.7205 -1.1177
  904MOL0     H24700   2.357   7.496   9.186  1.3268 -0.6741 -1.3350
  904MOL0     H24701   2.366   7.439   9.583 -1.0126 -1.9164  0.9627
  904MOL0     H24702   2.179   7.412   9.770  0.8412 -0.8369  0.2627
  904MOL0     H24703   2.014   7.458   9.731 -0.1829 -1.4422 -2.2917
  904MOL0     H24704   2.254   7.615   9.772 -0.5090  0.9450  1.7128
  904MOL0     H24705   2.106   7.691   9.707 -0.9895  0.4711  0.4756
  904MOL0     H24706   1.984   7.664   9.908 -0.9815 -0.6580 -1.0080
  904MOL0     H24707   2.107   7.561   9.986 -2.2215  1.7141  2.9136
  904MOL0     H24708   2.154   7.851   9.886 -0.7112  0.4330  0.7813
  904MOL0     H24709   2.109   7.805  10.047  0.0096  1.3158 -1.2724
  904MOL0     H24710   2.542   7.716   9.940  0.7359  1.5642 -1.5579
  904MOL0     H24711   2.843   7.888   9.964 -0.5208  1.2766  2.3151
  904MOL0     H24712   2.782   7.950   9.812 -1.7631  0.5521 -0.1258
  904MOL0     H24713   2.762   7.774   9.872  1.8273 -0.3686  2.7279
  904MOL0     H24714   2.759   8.462   9.872 -0.2625  0.4029  0.5521
  904MOL0     H24715   2.908   8.632   9.964 -1.0977  0.7242 -1.3112
  904MOL0     H24716   3.075   8.569  10.380 -0.9345  3.5588  1.0765
  904MOL0     H24717   3.153   8.523  10.228 -2.5905 -0.8754 -1.3227
  904MOL0     H24718   3.212   8.781  10.214  2.5749 -0.0435 -0.2277
  904MOL0     H24719   3.136   8.783  10.387 -1.9365 -0.5560 -0.9653
  904MOL0     H24720   3.379   8.627  10.298  0.6954  0.7866 -0.7732
  904MOL0     H24721   3.313   8.639  10.462 -2.2865 -0.7371 -0.2612
  904MOL0     H24722   3.354   8.889  10.429 -0.9715  0.1672 -1.5154
  904MOL0     H24723   3.432   8.860  10.285 -1.2000 -1.2525 -0.7628
  904MOL0     H24724   3.526   8.752  10.557  2.2368  1.4075  0.3860
  904MOL0     H24725   3.605   8.702  10.416  0.0983 -1.6504  3.3393
  904MOL0     H24726   3.599   9.003  10.511 -0.7307  1.6003 -0.7598
  904MOL0     H24727   3.668   8.937  10.360  0.9075 -2.2240  0.7618
  904MOL0     H24728   3.807   8.767  10.505  1.8656  0.8630 -0.5805
  904MOL0     H24729   3.756   8.837  10.647  2.5695 -1.5209 -0.3664
  904MOL0     H24730   3.887   9.002  10.414  3.2092 -2.3916 -1.9210
  904MOL0     H24731   3.971   8.893  10.511 -1.9887 -1.1496  0.4454
  904MOL0     H24732   2.872   8.474  10.353 -0.2728 -0.7979  0.0526
  904MOL0     H24733   2.690   8.314  10.255  0.6833 -0.8505 -1.3049
  904MOL0     H24734   2.424   8.179  10.036 -2.2691 -0.1691 -2.6122
  904MOL0     H24735   2.267   8.020  10.046 -0.2785  1.6957 -2.2513
  904MOL0     H24736   1.749   7.217   9.485  1.0391  2.0901  0.7229
  904MOL0     H24737   1.538   7.297   9.536 -0.1897 -0.6349  0.2079
  904MOL0     H24738   1.189   7.185   9.801  0.2493  0.2973  1.4369
  904MOL0     H24739   0.937   7.216   9.798  0.4334  0.0564 -1.8912
  904MOL0     H24740   0.843   7.521   9.660  0.0646  1.6538  2.5094
  904MOL0     H24741   0.796   7.352   9.661  1.6206 -0.6234  1.9268
  904MOL0     H24742   0.638   7.489   9.596  0.8842  0.2237 -0.6186
  904MOL0     H24743   0.624   7.585   9.738 -4.2084 -2.5187  0.3773
  904MOL0     H24744   0.580   7.296   9.783 -1.3971 -0.3923 -1.3180
  904MOL0     H24745   0.542   7.429   9.887 -0.4714 -0.3879  0.2907
  904MOL0     H24746   0.433   7.383   9.612 -1.1688  0.5789 -0.3798
  904MOL0     H24747   0.357   7.505   9.719  1.3466  0.8951 -3.6849
  904MOL0     H24748   0.203   7.125   9.836  0.8541 -0.3623  1.8185
  904MOL0     H24749   1.005   7.609   9.927 -0.6463  0.0811 -2.3764
  904MOL0     H24750   1.287   7.677   9.788 -4.4165  0.8726 -0.0100
  904MOL0     H24751   1.229   7.702   9.958  3.2498  2.4773  1.4149
  904MOL0     H24752   1.375   7.611   9.920 -0.7262 -0.1500 -0.8665
  905MOL0     O24753   1.210   9.334   6.462  0.2397  0.5266  0.4776
  905MOL0     C24754   1.124   9.368   6.542  1.2476 -0.1786 -0.0278
  905MOL0     O24755   1.037   9.286   6.614 -0.3003  0.3104  0.4960
  905MOL0     C24756   1.062   9.154   6.603  0.0518  0.1077 -0.7571
  905MOL0     C24757   1.086   9.081   6.723 -0.4445 -0.3866 -0.1662
  905MOL0     C24758   1.084   8.940   6.718 -0.1637 -0.0131  0.2681
  905MOL0     C24759   1.063   8.875   6.590 -0.4340 -0.6735 -0.6649
  905MOL0     O24760   1.066   8.740   6.603 -0.0162  0.3370  0.5757
  905MOL0     C24761   0.978   8.665   6.514 -0.1702 -0.6184  0.3652
  905MOL0     C24762   0.953   8.522   6.568 -0.8570  0.3903  0.0162
  905MOL0     C24763   0.929   8.499   6.727  0.3371  0.2875  0.8479
  905MOL0     C24764   1.052   8.438   6.797 -0.6443 -0.5454 -0.0101
  905MOL0     C24765   1.023   8.414   6.951 -0.9207 -0.3233  0.7358
  905MOL0     C24766   1.155   8.372   7.018 -0.3112  0.8684 -0.4752
  905MOL0     C24767   1.136   8.255   7.113 -0.5790 -0.3563  0.1031
  905MOL0     C24768   1.065   8.291   7.245 -0.2311  0.4295 -0.3485
  905MOL0     N24769   1.150   8.371   7.337  1.2303  0.5284 -0.3563
  905MOL0     C24770   1.163   8.513   7.349  0.7682 -0.2317  0.1630
  905MOL0     C24771   1.268   8.527   7.428  0.8135 -0.6777 -1.1547
  905MOL0     C24772   1.341   8.652   7.466 -0.1182  0.3060 -0.3104
  905MOL0     C24773   1.397   8.736   7.354  0.4017 -0.6355 -0.3220
  905MOL0     C24774   1.515   8.831   7.393  0.2210  0.0455 -0.7557
  905MOL0     C24775   1.651   8.755   7.393 -0.3222 -0.2602 -0.5277
  905MOL0     O24776   1.724   8.775   7.266 -0.0599 -0.0780  0.2157
  905MOL0     C24777   1.769   8.896   7.231 -0.4519 -0.0489  0.7249
  905MOL0     C24778   1.794   9.002   7.315  0.9953  0.0857 -0.7021
  905MOL0     C24779   1.837   9.129   7.271  0.7454  0.1608  0.4210
  905MOL0     C24780   1.838   9.238   7.374 -0.6560 -0.1239 -0.5328
  905MOL0     C24781   1.885   9.145   7.135 -0.5735 -0.3178  0.6633
  905MOL0     C24782   1.961   9.257   7.085 -0.0175  0.2228  0.5034
  905MOL0     O24783   1.987   9.248   6.943  0.2755  0.4407 -0.6752
  905MOL0     C24784   2.071   9.338   6.896  0.9303 -0.2059 -0.8751
  905MOL0     C24785   2.200   9.300   6.875 -1.2463 -0.7937  0.7368
  905MOL0     C24786   2.279   9.405   6.817 -0.5780 -0.1582  0.9281
  905MOL0     C24787   2.226   9.539   6.790 -0.6217  0.9410  0.0607
  905MOL0     O24788   2.305   9.647   6.748 -0.0165  0.4485 -0.1800
  905MOL0     C24789   2.443   9.627   6.698 -0.2353 -0.5012  1.0731
  905MOL0     C24790   2.485   9.768   6.637 -1.2935 -0.8052 -0.1043
  905MOL0     C24791   2.618   9.800   6.696 -0.1665 -0.0729  1.2681
  905MOL0     C24792   2.669   9.931   6.633 -0.6521  0.7928 -0.5134
  905MOL0     C24793   2.815   9.961   6.663  0.0885  0.3028 -0.6433
  905MOL0     C24794   2.870  10.084   6.582  0.5117  0.5092 -0.2582
  905MOL0     C24795   2.808  10.218   6.648 -0.0809  1.3128 -0.1576
  905MOL0     C24796   2.854  10.341   6.573  0.7830  0.1796 -0.4583
  905MOL0    Cl24797   2.798  10.497   6.636  0.7024 -0.2189  0.1574
  905MOL0     C24798   2.086   9.564   6.806  0.2018  0.2039  0.8577
  905MOL0     C24799   2.013   9.462   6.854 -0.0836  0.8059  0.1214
  905MOL0     O24800   1.989   9.347   7.160  1.1254 -0.3430  0.1327
  905MOL0     C24801   1.867   9.023   7.050  0.0353 -1.4282  0.0604
  905MOL0     C24802   1.811   8.909   7.099 -0.1735  0.8070  0.2773
  905MOL0     N24803   1.304   8.405   7.471  0.1591 -0.5040  0.0304
  905MOL0     N24804   1.244   8.311   7.408  0.1304  0.4862 -0.5508
  905MOL0     C24805   1.050   8.944   6.471  0.8448 -0.1744  0.4452
  905MOL0     C24806   1.047   9.086   6.478 -0.5211  0.6301 -0.5633
  905MOL0     C24807   1.091   9.514   6.538  0.1059 -0.1461 -0.5603
  905MOL0     C24808   1.155   9.588   6.437 -0.5629 -0.1946 -0.6505
  905MOL0     C24809   1.126   9.733   6.419 -1.2918  0.3289 -0.1663
  905MOL0     C24810   1.039   9.799   6.509 -0.3177 -0.0994  1.0731
  905MOL0     O24811   1.004   9.928   6.511  0.0477 -1.0316 -0.4370
  905MOL0     C24812   1.022  10.009   6.397 -0.5486  0.3147  0.1248
  905MOL0     C24813   1.166  10.067   6.386 -0.1887  0.4194  1.1654
  905MOL0     C24814   1.217  10.135   6.513 -0.0358  0.8096  0.0613
  905MOL0     C24815   1.114  10.233   6.570 -1.0648  0.3817 -0.3042
  905MOL0     C24816   1.160  10.282   6.696 -0.9710 -0.0339 -0.4886
  905MOL0     C24817   1.193  10.316   6.809 -0.6472  0.7800 -0.2776
  905MOL0     C24818   0.973   9.727   6.606 -0.9126 -0.3665 -0.6167
  905MOL0     C24819   0.990   9.586   6.618  0.6368 -0.1914  0.9369
  905MOL0     C24820   0.905   9.520   6.719 -0.4666 -0.9237 -0.6031
  905MOL0     H24821   1.102   9.143   6.811  0.0451  1.5218 -1.5401
  905MOL0     H24822   1.094   8.882   6.809  0.3059 -1.6855 -0.7942
  905MOL0     H24823   1.018   8.659   6.413  2.5337 -0.7509  1.3660
  905MOL0     H24824   0.877   8.708   6.514 -0.0048 -0.2286  0.3858
  905MOL0     H24825   0.872   8.480   6.508  0.9991 -1.3458 -1.4157
  905MOL0     H24826   1.037   8.456   6.547  0.6481  1.9220  0.9665
  905MOL0     H24827   0.903   8.594   6.774 -1.8566  1.7208 -2.7821
  905MOL0     H24828   0.844   8.432   6.740  0.8743 -1.3083 -2.7063
  905MOL0     H24829   1.090   8.348   6.747 -2.9324 -0.9740 -1.0979
  905MOL0     H24830   1.125   8.519   6.785 -1.7666  0.8409  1.9580
  905MOL0     H24831   0.952   8.332   6.963  0.6082 -1.9423 -0.6622
  905MOL0     H24832   0.986   8.509   6.990  1.5560  0.6960  0.8057
  905MOL0     H24833   1.213   8.327   6.937 -2.9475 -3.4056 -0.3054
  905MOL0     H24834   1.214   8.452   7.063  1.0286 -1.0298  1.3641
  905MOL0     H24835   1.240   8.235   7.142  0.3419 -0.5804 -2.9794
  905MOL0     H24836   1.113   8.160   7.066  0.7196  1.3220 -4.4021
  905MOL0     H24837   0.968   8.340   7.233 -2.7407 -2.6304  4.4673
  905MOL0     H24838   1.051   8.196   7.297 -0.2434  1.6326  1.9600
  905MOL0     H24839   1.118   8.596   7.295  1.3632  0.1010  0.1668
  905MOL0     H24840   1.408   8.637   7.551  1.1920 -2.1709 -1.6795
  905MOL0     H24841   1.259   8.717   7.500 -0.4272  0.0603 -0.5728
  905MOL0     H24842   1.430   8.671   7.273  1.3569  1.9199 -2.1140
  905MOL0     H24843   1.308   8.781   7.311  0.2462  0.3793  1.0021
  905MOL0     H24844   1.540   8.914   7.327  0.9091 -0.7899 -1.5853
  905MOL0     H24845   1.499   8.875   7.492  3.1197 -3.4098  1.5384
  905MOL0     H24846   1.711   8.796   7.476 -1.5668  3.1010 -1.1372
  905MOL0     H24847   1.642   8.648   7.416 -0.3669 -0.2263 -0.3877
  905MOL0     H24848   1.765   8.994   7.420 -1.7099  0.2799 -1.3723
  905MOL0     H24849   1.787   9.219   7.469  0.6338 -0.3371  0.1459
  905MOL0     H24850   1.804   9.335   7.338 -0.4181  0.5450  0.9294
  905MOL0     H24851   1.945   9.254   7.392 -0.2249 -3.2044  0.3218
  905MOL0     H24852   2.250   9.207   6.899 -2.2476 -0.5749  4.2286
  905MOL0     H24853   2.387   9.408   6.804 -0.3245  3.9887  2.4836
  905MOL0     H24854   2.502   9.612   6.789 -0.0881 -0.8592  0.9178
  905MOL0     H24855   2.455   9.549   6.622 -0.4826  0.2389  0.2565
  905MOL0     H24856   2.468   9.772   6.529 -0.2534  5.5620 -0.4255
  905MOL0     H24857   2.412   9.838   6.680 -0.2822 -0.1757  0.6567
  905MOL0     H24858   2.696   9.727   6.672  1.3797  2.1013 -0.6954
  905MOL0     H24859   2.615   9.809   6.805  0.4104  0.5545  1.2411
  905MOL0     H24860   2.605  10.006   6.680 -1.0340 -1.3268  2.6000
  905MOL0     H24861   2.649   9.920   6.526  0.8410 -5.1294 -0.5376
  905MOL0     H24862   2.841   9.975   6.769  2.4031  0.1339 -1.1425
  905MOL0     H24863   2.873   9.874   6.631  1.5522  1.2207 -0.5911
  905MOL0     H24864   2.840  10.082   6.476 -0.4497  0.6811  0.0053
  905MOL0     H24865   2.978  10.075   6.593  0.3516 -0.9544  0.2677
  905MOL0     H24866   2.860  10.212   6.744  0.6205 -0.8337 -0.6308
  905MOL0     H24867   2.701  10.207   6.668  0.2884 -2.5211  0.3858
  905MOL0     H24868   2.832  10.338   6.466 -2.2788 -0.6837  0.1004
  905MOL0     H24869   2.963  10.350   6.573  0.7995  0.0080 -1.5179
  905MOL0     H24870   2.046   9.661   6.781  2.0920  1.5588  2.7121
  905MOL0     H24871   1.908   9.470   6.880 -0.5613  0.7889 -1.6767
  905MOL0     H24872   1.884   9.019   6.943 -2.4364 -0.6300 -0.4240
  905MOL0     H24873   1.801   8.819   7.038 -2.4291  0.0141  1.6988
  905MOL0     H24874   1.042   8.897   6.373  2.2286 -2.0769  1.1830
  905MOL0     H24875   1.027   9.136   6.384 -1.3529  1.2318 -0.0832
  905MOL0     H24876   1.222   9.541   6.366 -0.9678  2.8727 -3.3001
  905MOL0     H24877   1.177   9.778   6.334 -1.5212 -1.0561 -1.0582
  905MOL0     H24878   1.004   9.947   6.308  2.4762  1.7416 -1.6371
  905MOL0     H24879   0.945  10.087   6.391 -0.6181  0.1739 -1.0293
  905MOL0     H24880   1.159  10.137   6.303 -0.5840  1.7613  2.2891
  905MOL0     H24881   1.238   9.988   6.362 -0.4999  0.3954  0.3021
  905MOL0     H24882   1.231  10.052   6.583 -2.6355 -0.4639 -0.7784
  905MOL0     H24883   1.312  10.182   6.489  1.0811 -1.3109  0.0781
  905MOL0     H24884   1.013  10.191   6.582 -1.6688  0.6485 -3.5802
  905MOL0     H24885   1.103  10.311   6.494 -0.7846  1.3647  0.6331
  905MOL0     H24886   1.207  10.341   6.913 -0.1795  0.4585 -0.2617
  905MOL0     H24887   0.906   9.777   6.676 -1.3049 -0.4236 -0.9423
  905MOL0     H24888   0.815   9.473   6.678 -0.7095 -1.4582  0.5233
  905MOL0     H24889   0.964   9.449   6.776 -1.3383 -0.6677  0.6706
  905MOL0     H24890   0.870   9.591   6.795  1.2818  1.4740 -1.8860
  906MOL0     O24891   4.479   6.355   8.721  0.3552  0.2166  0.0521
  906MOL0     C24892   4.375   6.406   8.744  1.1645 -1.2090 -0.8357
  906MOL0     O24893   4.252   6.375   8.682  0.4375  1.0180 -0.4539
  906MOL0     C24894   4.260   6.274   8.587  0.9215  0.1785 -0.2339
  906MOL0     C24895   4.298   6.295   8.456  0.2264 -0.0955 -0.0306
  906MOL0     C24896   4.303   6.193   8.364 -0.2907  0.5735 -0.4185
  906MOL0     C24897   4.279   6.061   8.393  0.9511  0.4853 -0.1908
  906MOL0     O24898   4.286   5.962   8.301  0.4561  0.4421  0.1124
  906MOL0     C24899   4.419   5.932   8.271 -0.2182 -0.0662  0.0251
  906MOL0     C24900   4.428   5.789   8.228 -0.4030 -0.2578  0.0145
  906MOL0     C24901   4.567   5.726   8.259  0.4139 -1.0326 -0.0639
  906MOL0     C24902   4.583   5.692   8.407 -0.0922  0.0531 -0.5885
  906MOL0     C24903   4.729   5.674   8.427  0.5343  1.1691  0.7025
  906MOL0     C24904   4.743   5.675   8.576 -0.1632  1.1558 -0.4997
  906MOL0     C24905   4.897   5.638   8.617  1.3428  1.5784 -0.4829
  906MOL0     C24906   4.912   5.651   8.768 -0.8725  0.6904  0.0981
  906MOL0     N24907   4.858   5.772   8.825  0.2354  0.7955  0.5377
  906MOL0     C24908   4.885   5.903   8.785  0.4085  0.2250  0.5359
  906MOL0     C24909   4.795   5.980   8.835 -0.7283 -0.3590 -0.2001
  906MOL0     C24910   4.774   6.124   8.800  0.6817 -0.4794  0.4164
  906MOL0     C24911   4.864   6.208   8.886 -1.0387 -1.1694  0.5487
  906MOL0     C24912   4.845   6.354   8.843 -0.0290 -0.3300  0.1103
  906MOL0     C24913   4.890   6.457   8.955  1.0163 -0.3464 -0.3235
  906MOL0     O24914   4.784   6.476   9.050 -1.1505  0.0761 -0.7960
  906MOL0     C24915   4.817   6.575   9.141 -0.5928 -0.0140  0.5191
  906MOL0     C24916   4.858   6.705   9.109 -0.6009  0.0683  0.3937
  906MOL0     C24917   4.895   6.798   9.207  0.4977 -0.1391 -0.2735
  906MOL0     C24918   4.926   6.938   9.163 -0.0855  0.1670 -0.1336
  906MOL0     C24919   4.904   6.764   9.341  0.1165  0.3326  0.6615
  906MOL0     C24920   4.940   6.851   9.455 -0.2450  1.0856  0.7807
  906MOL0     O24921   4.882   6.809   9.570  0.2495  0.7794  0.0675
  906MOL0     C24922   4.885   6.923   9.658 -0.3162  0.0530  0.7173
  906MOL0     C24923   4.990   6.960   9.740  0.0469 -0.4760 -0.7925
  906MOL0     C24924   4.962   7.058   9.844  0.6664  0.9696  0.0714
  906MOL0     C24925   4.838   7.120   9.851 -0.5111  0.1179  0.0745
  906MOL0     O24926   4.797   7.218   9.934 -0.0164 -0.0748 -0.0062
  906MOL0     C24927   4.815   7.168  10.068  0.0234 -0.5596 -0.3628
  906MOL0     C24928   4.923   7.246  10.150 -0.0486 -0.6293 -0.7227
  906MOL0     C24929   4.873   7.384  10.170 -0.0270 -0.2660 -0.4123
  906MOL0     C24930   4.977   7.468  10.245 -0.7625  0.6260  0.0792
  906MOL0     C24931   4.924   7.605  10.270  0.1210  0.0993  0.3115
  906MOL0     C24932   5.014   7.708  10.333 -0.4564 -0.7107 -0.0083
  906MOL0     C24933   5.123   7.753  10.245 -0.6332 -0.0737  0.3650
  906MOL0     C24934   5.200   7.872  10.303  0.8341 -0.3405  0.4690
  906MOL0    Cl24935   5.344   7.784  10.380  0.0706  0.1419  0.0928
  906MOL0     C24936   4.742   7.092   9.755 -0.6931  1.4916  0.5898
  906MOL0     C24937   4.763   6.987   9.660  0.4764  0.2165  0.1176
  906MOL0     O24938   5.010   6.955   9.436 -0.5561 -0.9197 -0.0460
  906MOL0     C24939   4.884   6.628   9.367  0.4906 -0.4679 -0.9298
  906MOL0     C24940   4.841   6.539   9.276  0.6420 -0.7112 -0.7477
  906MOL0     N24941   4.706   5.893   8.907 -0.1461  1.0415  0.0467
  906MOL0     N24942   4.756   5.772   8.904 -0.2244 -0.4208  0.4171
  906MOL0     C24943   4.233   6.026   8.518  0.6361  0.8179 -0.0266
  906MOL0     C24944   4.223   6.134   8.612 -1.0838 -1.2743  0.1211
  906MOL0     C24945   4.382   6.510   8.852  0.3302 -0.1743  0.0374
  906MOL0     C24946   4.335   6.638   8.817 -0.1603  0.0962 -0.4577
  906MOL0     C24947   4.326   6.735   8.921 -0.9597 -0.1850  0.0861
  906MOL0     C24948   4.394   6.725   9.041  0.8911  0.6585  0.2938
  906MOL0     O24949   4.393   6.833   9.117 -0.7424  0.3284 -0.7390
  906MOL0     C24950   4.481   6.838   9.228 -0.0887 -0.4840 -0.5936
  906MOL0     C24951   4.513   6.978   9.287 -0.4167  0.4925 -0.4994
  906MOL0     C24952   4.548   7.077   9.177 -0.6857  0.6351  0.1238
  906MOL0     C24953   4.553   7.215   9.246  0.0158  0.1574  0.7185
  906MOL0     C24954   4.685   7.237   9.305  0.2896  0.2608  0.2252
  906MOL0     C24955   4.787   7.255   9.358  0.2936 -0.1912  1.2172
  906MOL0     C24956   4.448   6.596   9.076  0.4701  0.0985  0.6152
  906MOL0     C24957   4.427   6.490   8.983  0.1205  0.1508 -0.6092
  906MOL0     C24958   4.455   6.352   9.043  0.2714  0.0372 -0.5752
  906MOL0     H24959   4.311   6.399   8.428 -1.3236  0.6766  1.8518
  906MOL0     H24960   4.332   6.210   8.261  0.7398 -0.2844 -0.2928
  906MOL0     H24961   4.489   5.956   8.352  1.5546  1.3056 -1.8165
  906MOL0     H24962   4.448   5.996   8.187 -1.7072  0.5414 -0.0584
  906MOL0     H24963   4.346   5.742   8.284 -1.2082  2.7616  1.5910
  906MOL0     H24964   4.411   5.789   8.119 -2.8530 -1.4727  0.3077
  906MOL0     H24965   4.579   5.630   8.208  0.6095 -1.5512  0.9324
  906MOL0     H24966   4.642   5.795   8.218 -0.5583 -2.1388 -4.1907
  906MOL0     H24967   4.529   5.754   8.479 -1.7265 -1.5841 -0.3309
  906MOL0     H24968   4.540   5.594   8.428 -0.3202  0.6516  2.0332
  906MOL0     H24969   4.783   5.760   8.387  3.5067 -0.1070  1.6136
  906MOL0     H24970   4.773   5.590   8.372  2.1348  2.2464  0.2430
  906MOL0     H24971   4.717   5.774   8.616  0.0277  2.2527 -2.9475
  906MOL0     H24972   4.673   5.603   8.620 -1.3426  0.2342 -3.6348
  906MOL0     H24973   4.973   5.694   8.562  4.0216 -1.9820 -0.7484
  906MOL0     H24974   4.912   5.533   8.590 -0.5232  1.3784 -0.9081
  906MOL0     H24975   4.867   5.563   8.815 -0.6046  1.6744  2.2955
  906MOL0     H24976   5.020   5.662   8.777 -0.3663  0.4396 -3.8721
  906MOL0     H24977   4.962   5.938   8.716 -0.1060  1.9207  0.7853
  906MOL0     H24978   4.668   6.145   8.814  0.5989  1.1659 -2.0257
  906MOL0     H24979   4.792   6.138   8.693  0.6532 -1.9707  0.1970
  906MOL0     H24980   4.838   6.195   8.991 -1.8259 -1.9340  0.2801
  906MOL0     H24981   4.970   6.189   8.868 -0.3849  2.6847 -0.3732
  906MOL0     H24982   4.903   6.385   8.756  0.1794  0.6276  0.5718
  906MOL0     H24983   4.742   6.382   8.817  0.3277  1.6587  0.6558
  906MOL0     H24984   4.976   6.423   9.013  1.1278  1.5313  0.6725
  906MOL0     H24985   4.915   6.545   8.896  0.2235 -3.1203 -5.3954
  906MOL0     H24986   4.863   6.738   9.006  2.3049  1.2491  0.8122
  906MOL0     H24987   5.031   6.957   9.187  0.3234 -3.0927  1.1829
  906MOL0     H24988   4.855   7.013   9.199 -0.7392 -0.3864 -0.2328
  906MOL0     H24989   4.921   6.943   9.054  1.2455  1.8000 -0.1522
  906MOL0     H24990   5.091   6.924   9.721  1.8022  3.2274  0.5985
  906MOL0     H24991   5.032   7.089   9.921  1.8806 -1.0771 -0.1512
  906MOL0     H24992   4.721   7.164  10.124  1.6782 -1.9094  2.5183
  906MOL0     H24993   4.841   7.061  10.065 -0.0644 -0.5836 -0.2726
  906MOL0     H24994   4.935   7.198  10.248  2.6306 -3.8247 -2.3993
  906MOL0     H24995   5.020   7.250  10.100 -0.5346 -2.0564 -1.8517
  906MOL0     H24996   4.772   7.387  10.211  0.6091 -0.2368  1.2322
  906MOL0     H24997   4.875   7.424  10.068  4.3171  2.6091  0.5213
  906MOL0     H24998   5.062   7.458  10.177  0.4449 -2.9010  1.8792
  906MOL0     H24999   4.984   7.417  10.341 -1.2837  0.9494  0.2933
  906MOL0     H25000   4.883   7.638  10.174  1.0601 -0.7190 -0.3900
  906MOL0     H25001   4.839   7.601  10.339 -0.1125  2.2114  0.2374
  906MOL0     H25002   5.055   7.666  10.425  1.3001 -3.8476 -2.0202
  906MOL0     H25003   4.956   7.797  10.357  2.0440  0.9738  0.1948
  906MOL0     H25004   5.073   7.776  10.150  1.2231  2.7183 -0.0507
  906MOL0     H25005   5.189   7.668  10.225  0.0528  0.6905 -0.8004
  906MOL0     H25006   5.136   7.926  10.373 -0.5620 -1.6864  0.2637
  906MOL0     H25007   5.230   7.926  10.212 -0.4582 -1.8012 -0.8716
  906MOL0     H25008   4.647   7.143   9.768 -0.3902  1.9869  0.9004
  906MOL0     H25009   4.679   6.964   9.595 -1.4400  0.7556  2.2742
  906MOL0     H25010   4.891   6.600   9.471 -2.5402  3.2779  0.4842
  906MOL0     H25011   4.830   6.435   9.305  1.0372 -1.6666 -3.7214
  906MOL0     H25012   4.202   5.926   8.547 -0.4089  1.1582  0.0764
  906MOL0     H25013   4.203   6.110   8.716  0.2931 -0.5268  0.5827
  906MOL0     H25014   4.280   6.643   8.723 -2.4632 -3.9251  0.4743
  906MOL0     H25015   4.267   6.825   8.911 -0.1546  0.7602  2.9698
  906MOL0     H25016   4.440   6.776   9.309 -5.9017  1.2749 -1.7514
  906MOL0     H25017   4.579   6.803   9.194  0.8264  0.4198  0.9591
  906MOL0     H25018   4.595   6.975   9.359 -3.2674  1.0295  3.1129
  906MOL0     H25019   4.424   7.007   9.345 -1.5929  3.9222 -3.6384
  906MOL0     H25020   4.642   7.052   9.127 -0.3066  1.6729  0.3054
  906MOL0     H25021   4.467   7.087   9.103 -0.1847 -1.7906 -0.8364
  906MOL0     H25022   4.482   7.223   9.329 -2.7196 -1.1188 -1.3442
  906MOL0     H25023   4.522   7.296   9.179 -0.2729 -1.5381 -1.3023
  906MOL0     H25024   4.880   7.232   9.405  1.0100  1.9151  0.9059
  906MOL0     H25025   4.479   6.569   9.176 -2.0587 -0.1517  1.4088
  906MOL0     H25026   4.374   6.324   9.111  1.4550  1.0579  1.3638
  906MOL0     H25027   4.458   6.278   8.963 -2.5572 -2.5886  1.4901
  906MOL0     H25028   4.547   6.358   9.102 -0.3439 -0.2831  0.4557
  907MOL0     O25029   0.193   3.743   2.962 -1.1953 -0.4085 -0.2623
  907MOL0     C25030   0.160   3.749   2.846 -0.6928  0.4422 -0.2421
  907MOL0     O25031   0.075   3.661   2.787 -0.3365  0.3631  0.2179
  907MOL0     C25032   0.024   3.561   2.865 -0.3710  0.0004  0.7007
  907MOL0     C25033  -0.076   3.601   2.949 -0.4975 -0.0340  0.1142
  907MOL0     C25034  -0.112   3.513   3.051  0.7697 -0.4194 -0.0434
  907MOL0     C25035  -0.045   3.396   3.081 -0.4825  0.3923  0.5480
  907MOL0     O25036  -0.079   3.312   3.187  0.3200 -0.1002  0.1600
  907MOL0     C25037  -0.179   3.347   3.274  0.2116  0.3970  0.6506
  907MOL0     C25038  -0.187   3.247   3.395 -0.5818 -0.2726 -0.1638
  907MOL0     C25039  -0.062   3.246   3.474 -0.5036 -0.4236 -0.8483
  907MOL0     C25040  -0.086   3.183   3.613 -0.5606  0.3938 -0.2714
  907MOL0     C25041   0.042   3.167   3.695 -0.4089  0.4074  0.0958
  907MOL0     C25042   0.086   3.306   3.734 -0.2085  0.8650 -1.4627
  907MOL0     C25043   0.190   3.292   3.850 -0.7585  0.3773  0.8468
  907MOL0     C25044   0.301   3.393   3.840  0.7015  0.4890 -0.9255
  907MOL0     N25045   0.371   3.401   3.964 -0.5087 -0.3281 -0.0594
  907MOL0     C25046   0.332   3.486   4.066 -0.0287 -0.3276  0.3810
  907MOL0     C25047   0.399   3.442   4.172  0.0918  0.3413  0.4187
  907MOL0     C25048   0.385   3.479   4.307  0.7047 -0.2177  0.0988
  907MOL0     C25049   0.247   3.472   4.368 -1.2526  0.3253 -0.4442
  907MOL0     C25050   0.190   3.335   4.353  0.4529  1.1512  0.1269
  907MOL0     C25051   0.266   3.228   4.440 -0.4985 -1.1870  0.2055
  907MOL0     O25052   0.192   3.110   4.448 -0.3159 -0.0342 -0.2155
  907MOL0     C25053   0.074   3.095   4.516 -0.5782  1.0107  0.1334
  907MOL0     C25054  -0.009   2.989   4.473  0.4367 -0.6393  0.6991
  907MOL0     C25055  -0.127   2.957   4.532  0.4806  0.8906 -0.5912
  907MOL0     C25056  -0.209   2.846   4.474  0.2728  0.8834 -1.0624
  907MOL0     C25057  -0.168   3.025   4.649 -0.3032  0.2217  0.4377
  907MOL0     C25058  -0.291   2.993   4.735  0.2863  0.1324  0.0606
  907MOL0     O25059  -0.287   3.037   4.859  0.6471  0.2741  0.2109
  907MOL0     C25060  -0.399   3.052   4.940  0.5066 -0.2719 -0.5565
  907MOL0     C25061  -0.388   3.000   5.069  0.0307 -1.3573  0.1824
  907MOL0     C25062  -0.502   3.001   5.149  0.2370 -0.6255 -0.3326
  907MOL0     C25063  -0.624   3.050   5.107 -1.0954 -0.5525 -0.2087
  907MOL0     O25064  -0.745   3.046   5.174  0.2285 -0.1175  0.0942
  907MOL0     C25065  -0.743   3.043   5.317  0.0779  0.2221  0.2971
  907MOL0     C25066  -0.786   2.907   5.380  0.5261 -1.4254  0.1407
  907MOL0     C25067  -0.762   2.909   5.528 -0.9613  0.4818 -0.3525
  907MOL0     C25068  -0.880   2.954   5.626  0.5824 -0.4104 -0.0115
  907MOL0     C25069  -1.010   2.884   5.629  0.4528 -0.2965 -0.6619
  907MOL0     C25070  -0.976   2.727   5.641  0.1831 -0.0973  0.6997
  907MOL0     C25071  -1.107   2.649   5.637  0.5005  0.3151  0.1157
  907MOL0     C25072  -1.079   2.494   5.661 -0.1791 -0.0299 -0.0451
  907MOL0    Cl25073  -0.972   2.420   5.533 -0.0863  0.3164 -0.3112
  907MOL0     C25074  -0.638   3.094   4.974 -0.0835  0.1654  0.0699
  907MOL0     C25075  -0.522   3.098   4.894 -0.0955 -0.4238  0.3019
  907MOL0     O25076  -0.381   2.929   4.695 -0.1230 -0.1898  1.2111
  907MOL0     C25077  -0.071   3.115   4.700  0.8677  0.0710  0.7121
  907MOL0     C25078   0.051   3.152   4.634  1.0505  0.6178  0.2145
  907MOL0     N25079   0.477   3.345   4.131 -0.8505 -0.0230  0.6214
  907MOL0     N25080   0.470   3.323   4.006  0.0703 -0.2968  0.1013
  907MOL0     C25081   0.064   3.358   2.997 -0.7063  0.4382 -0.4338
  907MOL0     C25082   0.090   3.438   2.884  0.1256 -0.4331 -0.5417
  907MOL0     C25083   0.227   3.854   2.773  0.0046 -0.3409 -0.1135
  907MOL0     C25084   0.288   3.963   2.845  0.2316 -0.1464  0.7243
  907MOL0     C25085   0.332   4.078   2.777  0.4150  0.0310 -0.6999
  907MOL0     C25086   0.319   4.087   2.637 -0.2897 -1.0491  0.0795
  907MOL0     O25087   0.337   4.219   2.583  0.6201 -0.1112 -0.2987
  907MOL0     C25088   0.254   4.284   2.487  1.0601 -0.4194 -0.4796
  907MOL0     C25089   0.275   4.237   2.341 -0.5786 -0.2523 -0.8584
  907MOL0     C25090   0.426   4.225   2.311 -0.2216 -0.0812 -1.2564
  907MOL0     C25091   0.425   4.162   2.169  0.0027  0.3546 -0.2491
  907MOL0     C25092   0.394   4.017   2.178 -0.0592 -0.3586  0.2094
  907MOL0     C25093   0.363   3.903   2.188  0.5321 -0.0799  0.7229
  907MOL0     C25094   0.269   3.969   2.568  0.4033  0.0111 -0.3156
  907MOL0     C25095   0.220   3.861   2.636  0.5777  0.1157  1.2497
  907MOL0     C25096   0.158   3.759   2.539 -0.0255 -0.3653 -0.4100
  907MOL0     H25097  -0.118   3.699   2.930 -2.7202 -1.0021 -0.2147
  907MOL0     H25098  -0.193   3.553   3.110  1.1219 -0.7447  0.6790
  907MOL0     H25099  -0.272   3.352   3.216  1.1209 -3.9261 -1.5592
  907MOL0     H25100  -0.166   3.451   3.306 -1.4364  0.5971  0.8066
  907MOL0     H25101  -0.264   3.277   3.467 -2.5968 -2.1777 -1.3973
  907MOL0     H25102  -0.202   3.144   3.360  2.3147 -0.9197  0.2453
  907MOL0     H25103   0.021   3.194   3.426  0.1530  0.4209 -0.6488
  907MOL0     H25104  -0.031   3.348   3.500 -0.7651 -0.3306 -0.8903
  907MOL0     H25105  -0.161   3.234   3.674  1.1996  0.0429  2.3660
  907MOL0     H25106  -0.120   3.080   3.602  0.8302 -0.0144 -1.0476
  907MOL0     H25107   0.118   3.120   3.632 -2.0954 -2.1527 -0.1761
  907MOL0     H25108   0.021   3.099   3.779  0.9001  0.6332  0.6402
  907MOL0     H25109   0.138   3.367   3.659 -2.0310  2.4340 -1.5408
  907MOL0     H25110   0.004   3.368   3.773  1.1758  0.8762  1.7623
  907MOL0     H25111   0.222   3.189   3.869  0.4502  1.2075  3.9188
  907MOL0     H25112   0.127   3.316   3.937 -2.5567  1.0206 -0.5754
  907MOL0     H25113   0.368   3.363   3.759  0.8868  0.0695 -0.6163
  907MOL0     H25114   0.268   3.495   3.817  1.7912  0.5532 -2.3298
  907MOL0     H25115   0.249   3.556   4.067 -0.3466 -0.6652 -1.0503
  907MOL0     H25116   0.411   3.582   4.331 -1.0775  0.3330 -0.2215
  907MOL0     H25117   0.461   3.417   4.355  1.9969  0.1278 -1.4047
  907MOL0     H25118   0.258   3.499   4.473 -2.0562  1.5545 -0.6649
  907MOL0     H25119   0.184   3.549   4.323  1.1396  3.9328  1.8538
  907MOL0     H25120   0.089   3.350   4.391  0.4436  2.2920 -0.3152
  907MOL0     H25121   0.189   3.293   4.252  2.0462 -2.0783  1.3043
  907MOL0     H25122   0.360   3.198   4.394 -1.4916 -1.4184 -1.8268
  907MOL0     H25123   0.278   3.264   4.542 -2.0217 -2.2259  0.7902
  907MOL0     H25124   0.019   2.945   4.378 -1.2165 -0.1148 -0.0784
  907MOL0     H25125  -0.149   2.760   4.443  4.6530  2.4418  1.9680
  907MOL0     H25126  -0.266   2.881   4.388 -2.7006  0.0628  0.4591
  907MOL0     H25127  -0.271   2.798   4.550  0.9469 -1.2528 -1.7994
  907MOL0     H25128  -0.294   2.966   5.111  0.5315 -0.5793 -0.3026
  907MOL0     H25129  -0.485   2.980   5.254 -2.0150  0.4631  0.3182
  907MOL0     H25130  -0.645   3.076   5.352  0.3951  1.3065 -1.4679
  907MOL0     H25131  -0.813   3.116   5.358 -2.1099 -1.4886 -0.1757
  907MOL0     H25132  -0.894   2.905   5.362  0.4875 -0.4154  0.1599
  907MOL0     H25133  -0.739   2.820   5.334  0.7875 -1.0455 -0.3333
  907MOL0     H25134  -0.678   2.977   5.545 -3.2885  3.4842  0.1033
  907MOL0     H25135  -0.734   2.808   5.558 -0.2094  0.7900  0.0132
  907MOL0     H25136  -0.901   3.060   5.611 -3.6517 -1.0821 -0.0346
  907MOL0     H25137  -0.832   2.940   5.724 -1.1892 -1.5214  0.7528
  907MOL0     H25138  -1.074   2.912   5.713 -2.9414 -0.8336 -2.9086
  907MOL0     H25139  -1.065   2.912   5.539  0.4689 -0.7454 -0.8140
  907MOL0     H25140  -0.917   2.712   5.732  0.4169  0.5934  0.6741
  907MOL0     H25141  -0.914   2.695   5.557  0.5674 -0.6322  1.1804
  907MOL0     H25142  -1.171   2.665   5.549 -1.7379 -0.9903  1.4068
  907MOL0     H25143  -1.171   2.687   5.717  0.1785 -0.9780  0.4913
  907MOL0     H25144  -1.180   2.452   5.661 -0.7380  1.1991 -1.6570
  907MOL0     H25145  -1.036   2.473   5.759 -0.9050 -1.0533  0.0681
  907MOL0     H25146  -0.726   3.147   4.939 -0.0361  1.0645  1.2438
  907MOL0     H25147  -0.529   3.124   4.789  0.2772 -2.1142 -0.1810
  907MOL0     H25148  -0.081   3.161   4.798  2.4800  3.3011 -0.5006
  907MOL0     H25149   0.115   3.229   4.676  1.6149 -0.2002  0.8908
  907MOL0     H25150   0.126   3.270   3.013  1.9228  1.5054 -3.5980
  907MOL0     H25151   0.170   3.407   2.817  0.1683 -4.0134  0.9293
  907MOL0     H25152   0.295   3.960   2.953  1.0987 -2.8848  0.6641
  907MOL0     H25153   0.351   4.168   2.835 -3.0804  0.9306 -0.7434
  907MOL0     H25154   0.148   4.262   2.502  0.6313 -0.4804 -3.0973
  907MOL0     H25155   0.272   4.391   2.501 -1.4676  0.0986 -0.7171
  907MOL0     H25156   0.229   4.319   2.285  0.4719 -0.1000 -1.5343
  907MOL0     H25157   0.220   4.143   2.325  0.1418 -0.9791  0.7711
  907MOL0     H25158   0.476   4.322   2.310 -0.5730  0.1199 -3.1559
  907MOL0     H25159   0.476   4.164   2.387  0.5353  1.8267 -0.1387
  907MOL0     H25160   0.526   4.173   2.131 -1.1492  0.6291 -3.5912
  907MOL0     H25161   0.349   4.197   2.099  0.0389  0.2078 -0.3624
  907MOL0     H25162   0.315   3.807   2.186 -1.4031  0.8147 -1.5050
  907MOL0     H25163   0.266   3.976   2.460  2.5141  0.6197 -0.3723
  907MOL0     H25164   0.200   3.665   2.576 -2.9336 -1.5487  0.1487
  907MOL0     H25165   0.050   3.747   2.552  0.2396 -2.7781 -0.0708
  907MOL0     H25166   0.173   3.779   2.432 -3.3718  0.3387 -0.8434
  908MOL0     O25167   9.667   9.091   0.974 -0.7345  0.5095  0.1813
  908MOL0     C25168   9.657   9.005   0.884  0.3148  0.9901 -0.4590
  908MOL0     O25169   9.671   9.035   0.751 -0.5066  0.7323  0.3783
  908MOL0     C25170   9.695   8.921   0.671  0.1973 -0.8286  0.5717
  908MOL0     C25171   9.800   8.836   0.693  0.8863  0.1922  0.2559
  908MOL0     C25172   9.802   8.723   0.614 -0.1898  0.8176  0.6453
  908MOL0     C25173   9.708   8.695   0.518 -0.0571  0.4407 -0.0034
  908MOL0     O25174   9.726   8.569   0.456 -0.4875 -0.2528 -0.9213
  908MOL0     C25175   9.609   8.484   0.449  0.3821 -0.6553  0.2041
  908MOL0     C25176   9.542   8.454   0.584  0.7042 -0.5658  0.1777
  908MOL0     C25177   9.624   8.398   0.698  0.7111 -0.7628  0.4125
  908MOL0     C25178   9.594   8.256   0.743  0.1635  0.9226  0.4582
  908MOL0     C25179   9.684   8.214   0.852 -0.0836 -0.1376  0.0227
  908MOL0     C25180   9.638   8.079   0.908  0.1173 -0.9342  0.0351
  908MOL0     C25181   9.713   8.033   1.030  0.3626  0.2501 -1.1869
  908MOL0     C25182   9.666   7.906   1.100 -0.7789 -0.1519  0.6620
  908MOL0     N25183   9.550   7.936   1.185 -0.0964 -0.0150  0.3364
  908MOL0     C25184   9.538   7.903   1.317  0.6237 -0.6085  0.5205
  908MOL0     C25185   9.399   7.901   1.333 -0.1173  0.8627  0.9157
  908MOL0     C25186   9.326   7.885   1.468 -0.5130 -0.3125  0.7125
  908MOL0     C25187   9.369   7.957   1.599 -0.7202 -0.2062 -0.4293
  908MOL0     C25188   9.274   7.905   1.721  1.0804  0.5156 -0.3417
  908MOL0     C25189   9.331   7.950   1.863 -0.3741  0.6158 -0.3419
  908MOL0     O25190   9.257   7.907   1.976  0.7223  0.6758 -0.2084
  908MOL0     C25191   9.311   7.934   2.098  0.0637 -0.8555 -0.1314
  908MOL0     C25192   9.402   8.027   2.134 -1.2012 -0.2306 -1.0593
  908MOL0     C25193   9.436   8.056   2.264  0.2353 -0.0073 -0.5617
  908MOL0     C25194   9.552   8.149   2.288  0.3332  0.1829  0.3983
  908MOL0     C25195   9.376   7.994   2.377  0.4272  0.0935 -0.5395
  908MOL0     C25196   9.415   8.020   2.515  0.3483  0.6113 -0.6583
  908MOL0     O25197   9.313   8.005   2.609 -0.0984  0.7343 -0.4683
  908MOL0     C25198   9.325   7.974   2.747 -0.6604  0.5258  0.8117
  908MOL0     C25199   9.446   7.943   2.801 -0.2432  0.9652  0.1956
  908MOL0     C25200   9.460   7.911   2.940 -0.8744 -0.6487 -0.2857
  908MOL0     C25201   9.342   7.893   3.016 -0.3341  0.4611  0.4180
  908MOL0     O25202   9.339   7.837   3.145  0.1670  0.1455 -0.4175
  908MOL0     C25203   9.397   7.702   3.140  0.4642 -0.8857  0.6272
  908MOL0     C25204   9.433   7.653   3.273  0.6329 -0.6430 -0.6857
  908MOL0     C25205   9.317   7.646   3.388 -1.2598 -0.0296  1.1138
  908MOL0     C25206   9.290   7.782   3.451  0.3800  0.5320 -0.1997
  908MOL0     C25207   9.192   7.764   3.574  0.4019  0.3267 -0.8042
  908MOL0     C25208   9.141   7.901   3.607  0.2838  0.0687  0.2652
  908MOL0     C25209   9.010   7.897   3.682 -0.0380 -0.7923  0.7604
  908MOL0     C25210   8.961   8.041   3.702  0.5493 -0.9494  0.2101
  908MOL0    Cl25211   8.866   8.065   3.854 -0.0110  0.1008 -0.1707
  908MOL0     C25212   9.218   7.928   2.954 -0.5303  0.9926 -0.0751
  908MOL0     C25213   9.213   7.968   2.819  0.1913 -0.1828  0.1361
  908MOL0     O25214   9.527   8.062   2.547  0.1940  0.1000  0.2713
  908MOL0     C25215   9.276   7.899   2.349  0.0139 -0.8018 -0.1884
  908MOL0     C25216   9.244   7.881   2.207  0.0912  0.0703  0.2222
  908MOL0     N25217   9.339   7.930   1.208 -0.1379  0.1627 -0.6162
  908MOL0     N25218   9.428   7.943   1.127 -0.2541 -0.3616  0.1442
  908MOL0     C25219   9.603   8.784   0.500  0.1290 -0.5882  0.2570
  908MOL0     C25220   9.598   8.908   0.567 -1.1703 -0.7087  0.6783
  908MOL0     C25221   9.605   8.874   0.929 -0.0837  0.4720  0.3326
  908MOL0     C25222   9.489   8.805   0.877 -0.5776 -0.7837  1.3135
  908MOL0     C25223   9.440   8.693   0.942  0.9718  0.5064  0.0374
  908MOL0     C25224   9.512   8.627   1.047 -0.3953 -0.0954  0.3567
  908MOL0     O25225   9.462   8.525   1.121 -0.2223  0.0107  0.7222
  908MOL0     C25226   9.387   8.418   1.069 -0.3746 -0.0551  0.0017
  908MOL0     C25227   9.245   8.408   1.119  0.0377  0.2867  0.3208
  908MOL0     C25228   9.219   8.387   1.265  0.7322 -0.1056  0.3848
  908MOL0     C25229   9.279   8.263   1.314 -0.6180 -0.3549  0.3113
  908MOL0     C25230   9.421   8.276   1.345 -0.2363  0.0560 -0.7867
  908MOL0     C25231   9.537   8.287   1.376 -1.2890  0.1950  0.1565
  908MOL0     C25232   9.630   8.694   1.093 -0.7040  0.4621 -0.3855
  908MOL0     C25233   9.676   8.814   1.038 -0.4018  0.5622  0.7610
  908MOL0     C25234   9.788   8.881   1.107 -0.7449 -0.3165 -0.3821
  908MOL0     H25235   9.870   8.856   0.773  1.0031  1.3215 -0.1085
  908MOL0     H25236   9.873   8.642   0.628  0.0260  0.6208 -1.4099
  908MOL0     H25237   9.644   8.395   0.396  3.3749 -0.7985  2.1276
  908MOL0     H25238   9.529   8.534   0.395 -2.4272 -2.4576  2.4028
  908MOL0     H25239   9.500   8.549   0.619  0.2401  0.2548 -2.4287
  908MOL0     H25240   9.458   8.386   0.569 -1.9789  2.2443  1.2328
  908MOL0     H25241   9.723   8.387   0.653  0.1084 -0.3390 -1.0875
  908MOL0     H25242   9.622   8.475   0.775  2.0008  0.3524 -0.6129
  908MOL0     H25243   9.487   8.248   0.765 -0.1039 -0.1607 -1.0362
  908MOL0     H25244   9.608   8.197   0.652 -1.2972 -0.1825  0.9085
  908MOL0     H25245   9.702   8.297   0.922  2.7019 -0.4849 -0.1742
  908MOL0     H25246   9.782   8.191   0.810 -0.7620  0.1378 -1.7891
  908MOL0     H25247   9.535   8.100   0.939  0.4197  1.3439 -0.3600
  908MOL0     H25248   9.634   8.003   0.829 -0.5663 -0.6289 -0.2291
  908MOL0     H25249   9.731   8.115   1.100  1.5801  1.0378 -2.3666
  908MOL0     H25250   9.811   8.007   0.988 -0.2793 -0.4573 -2.3175
  908MOL0     H25251   9.644   7.835   1.020  3.3772 -0.5574 -0.3126
  908MOL0     H25252   9.744   7.860   1.161  0.9346 -0.3353 -1.5554
  908MOL0     H25253   9.615   7.872   1.387  1.2621  0.6925  0.4348
  908MOL0     H25254   9.317   7.778   1.492 -1.8627 -0.2942  0.3389
  908MOL0     H25255   9.227   7.924   1.445  0.1959  0.4081 -1.3089
  908MOL0     H25256   9.474   7.932   1.615 -0.5634  0.3929 -0.4898
  908MOL0     H25257   9.355   8.065   1.589  0.4078  0.1760  1.6348
  908MOL0     H25258   9.174   7.943   1.700  1.3854  1.3728 -0.2556
  908MOL0     H25259   9.258   7.797   1.728 -1.6217  0.8101 -1.0001
  908MOL0     H25260   9.432   7.908   1.867  1.7587  4.9962 -1.6005
  908MOL0     H25261   9.343   8.059   1.870  2.6822  0.2633  1.5410
  908MOL0     H25262   9.439   8.091   2.054  1.0080  0.1080  0.1577
  908MOL0     H25263   9.515   8.231   2.351 -2.0344 -0.7638  0.3162
  908MOL0     H25264   9.590   8.204   2.202 -0.7492  0.9684  0.4013
  908MOL0     H25265   9.632   8.088   2.332 -0.7064 -1.3370  0.2454
  908MOL0     H25266   9.531   7.944   2.733  1.4770  1.8182  2.2572
  908MOL0     H25267   9.559   7.900   2.982  0.2935  0.6613 -2.5004
  908MOL0     H25268   9.329   7.635   3.085 -0.5973  0.1045  0.7051
  908MOL0     H25269   9.490   7.704   3.083  0.3056 -2.9249  0.1841
  908MOL0     H25270   9.470   7.553   3.248  3.8845 -0.2735  1.8629
  908MOL0     H25271   9.516   7.708   3.319  0.0002  2.3813 -2.9036
  908MOL0     H25272   9.355   7.575   3.463 -2.1569 -0.1982  1.4195
  908MOL0     H25273   9.229   7.602   3.341  1.4408 -1.2875 -3.3726
  908MOL0     H25274   9.244   7.835   3.368 -1.3717 -0.8805 -0.1849
  908MOL0     H25275   9.381   7.831   3.486 -0.4208 -0.5812  4.0443
  908MOL0     H25276   9.120   7.683   3.557  0.2182 -1.4599  5.7400
  908MOL0     H25277   9.238   7.720   3.663 -1.6388 -1.9836 -0.7723
  908MOL0     H25278   9.125   7.953   3.512 -0.4645  0.9154  0.8334
  908MOL0     H25279   9.211   7.959   3.668 -0.6402  3.2048 -1.4239
  908MOL0     H25280   9.031   7.849   3.778  0.1797 -1.0106  0.6032
  908MOL0     H25281   8.936   7.833   3.633 -0.4834  2.3299 -3.1140
  908MOL0     H25282   8.894   8.070   3.620 -1.4797  0.0009  2.0872
  908MOL0     H25283   9.044   8.112   3.703  0.4769 -0.8667  0.9524
  908MOL0     H25284   9.120   7.907   2.998 -1.5369 -0.3581 -2.7420
  908MOL0     H25285   9.113   7.987   2.782 -0.2642 -0.7932  0.9968
  908MOL0     H25286   9.204   7.857   2.419  1.2666 -1.4590  0.7350
  908MOL0     H25287   9.155   7.821   2.191 -0.5478  0.5166  1.9268
  908MOL0     H25288   9.529   8.763   0.423 -0.5727  2.9786 -0.2217
  908MOL0     H25289   9.523   8.985   0.554  0.3260  1.0101  1.8404
  908MOL0     H25290   9.428   8.856   0.802 -2.3270 -1.5991  2.1180
  908MOL0     H25291   9.345   8.655   0.906  1.1823 -2.4956  2.2621
  908MOL0     H25292   9.379   8.426   0.960 -3.6450  0.6392  0.2100
  908MOL0     H25293   9.438   8.321   1.079  1.7689  0.6802 -2.6078
  908MOL0     H25294   9.199   8.323   1.068  2.8019 -0.9473 -0.3010
  908MOL0     H25295   9.198   8.499   1.081 -0.7668  0.3859  1.5001
  908MOL0     H25296   9.242   8.474   1.327 -2.8030  2.1306 -1.1414
  908MOL0     H25297   9.112   8.373   1.285  0.5793 -1.1177 -0.9793
  908MOL0     H25298   9.251   8.190   1.237 -0.8110  1.1759 -1.1150
  908MOL0     H25299   9.234   8.229   1.408  0.9076 -0.4443  1.0335
  908MOL0     H25300   9.641   8.299   1.397 -1.9310  3.0815  2.4195
  908MOL0     H25301   9.695   8.658   1.172  0.4270 -3.0802 -2.6650
  908MOL0     H25302   9.839   8.801   1.163 -2.7967  0.3152  2.6382
  908MOL0     H25303   9.855   8.941   1.044 -1.0864  0.3486 -0.1189
  908MOL0     H25304   9.740   8.945   1.181 -1.5073 -0.4786 -0.7263
  909MOL0     O25305   9.712   9.041   5.796  0.4392 -0.3258  0.4001
  909MOL0     C25306   9.817   9.092   5.786  0.0466  0.1197 -0.2658
  909MOL0     O25307   9.840   9.222   5.745  0.2396 -0.3423 -0.0024
  909MOL0     C25308   9.773   9.264   5.629 -0.6752  0.0991 -0.4237
  909MOL0     C25309   9.804   9.392   5.584 -0.2264  0.4156 -0.1742
  909MOL0     C25310   9.771   9.434   5.453  0.0741  0.2598 -0.8105
  909MOL0     C25311   9.708   9.347   5.363  0.2907  0.2932 -0.2941
  909MOL0     O25312   9.669   9.380   5.237 -0.4503  0.1100  0.2282
  909MOL0     C25313   9.766   9.384   5.141 -0.5241  0.1062  0.0510
  909MOL0     C25314   9.707   9.426   5.005 -0.4565  0.5880  0.5705
  909MOL0     C25315   9.820   9.445   4.901 -0.0538 -0.1205  0.1745
  909MOL0     C25316   9.756   9.476   4.764  0.7831 -0.4493 -0.0969
  909MOL0     C25317   9.860   9.483   4.650  0.5490 -0.1373  0.3889
  909MOL0     C25318   9.784   9.544   4.529  0.1606 -0.5609  0.9859
  909MOL0     C25319   9.890   9.589   4.426  0.3639  0.1536 -0.0434
  909MOL0     C25320   9.841   9.625   4.284 -0.0478 -0.1866  0.7742
  909MOL0     N25321   9.941   9.667   4.188 -0.3515 -0.5851  0.4971
  909MOL0     C25322  10.046   9.582   4.152  0.0606 -0.7242  0.1382
  909MOL0     C25323  10.130   9.663   4.081  0.4326  0.4066 -0.6377
  909MOL0     C25324  10.265   9.614   4.021 -0.1734  0.3663 -0.5096
  909MOL0     C25325  10.300   9.679   3.884  0.5334 -0.2881 -0.6337
  909MOL0     C25326  10.392   9.596   3.793  0.6823 -0.5317 -0.4911
  909MOL0     C25327  10.313   9.518   3.695  0.2531  0.0321  1.0017
  909MOL0     O25328  10.268   9.391   3.746 -0.0271 -0.6116 -0.3674
  909MOL0     C25329  10.351   9.281   3.740 -0.0183 -0.3697 -0.3218
  909MOL0     C25330  10.427   9.251   3.855  0.5084  0.0814  0.0760
  909MOL0     C25331  10.506   9.127   3.837  0.5907 -0.4109 -0.7637
  909MOL0     C25332  10.575   9.092   3.971 -0.9845  0.2739  0.0756
  909MOL0     C25333  10.502   9.048   3.719  0.5267 -0.3246  0.5066
  909MOL0     C25334  10.569   8.924   3.698 -1.1359 -0.7941 -0.0335
  909MOL0     O25335  10.650   8.893   3.797  1.2523  0.5333  0.1517
  909MOL0     C25336  10.702   8.768   3.802 -0.4213  0.0355 -0.0107
  909MOL0     C25337  10.638   8.665   3.858  0.4114  0.5513 -0.7985
  909MOL0     C25338  10.696   8.539   3.848 -0.6041 -0.3647  0.3454
  909MOL0     C25339  10.820   8.514   3.782  0.6175 -0.1482  0.4626
  909MOL0     O25340  10.874   8.386   3.776 -0.8680  0.0626 -0.7294
  909MOL0     C25341  10.926   8.339   3.650  0.1278 -0.2191  0.5838
  909MOL0     C25342  10.907   8.191   3.637  0.7529 -0.1939 -0.1862
  909MOL0     C25343  10.998   8.104   3.731  0.5547  0.4239  1.3348
  909MOL0     C25344  10.988   7.955   3.707  0.8983 -0.2208 -0.7117
  909MOL0     C25345  11.066   7.873   3.813  0.1203  0.2885 -0.4678
  909MOL0     C25346  11.065   7.725   3.781 -0.9347  0.0926  0.3715
  909MOL0     C25347  11.123   7.635   3.890  0.0457  0.7748 -0.6170
  909MOL0     C25348  11.109   7.487   3.870  1.3199  0.4367  0.2597
  909MOL0    Cl25349  11.249   7.401   3.952 -0.1150  0.7751  0.3620
  909MOL0     C25350  10.890   8.626   3.735  0.2176 -0.4311  0.2853
  909MOL0     C25351  10.830   8.754   3.746  0.2287 -0.0091 -0.5189
  909MOL0     O25352  10.551   8.852   3.598 -0.4023  0.6860 -0.7626
  909MOL0     C25353  10.416   9.091   3.612  0.0487 -0.5703 -0.5312
  909MOL0     C25354  10.355   9.213   3.622  0.1765 -0.1101  0.0242
  909MOL0     N25355  10.072   9.792   4.068 -0.2574  0.2250 -0.7183
  909MOL0     N25356   9.960   9.794   4.143 -0.5944  0.0982 -0.0544
  909MOL0     C25357   9.663   9.226   5.409  0.4832 -0.4950  0.1149
  909MOL0     C25358   9.697   9.178   5.542 -0.5444 -0.6527  0.3374
  909MOL0     C25359   9.938   9.007   5.849  0.1382  1.2065  0.3705
  909MOL0     C25360  10.070   9.068   5.843 -1.0283  0.3062  0.4797
  909MOL0     C25361  10.182   9.009   5.890  0.9165  0.4916  0.6376
  909MOL0     C25362  10.174   8.894   5.966 -0.8061  0.6319 -0.3786
  909MOL0     O25363  10.281   8.833   6.019  0.1146  0.2182 -0.0655
  909MOL0     C25364  10.401   8.808   5.942  0.1183  0.4872 -0.5760
  909MOL0     C25365  10.508   8.742   6.039 -0.7302  0.2038  0.1351
  909MOL0     C25366  10.632   8.718   5.961 -1.8948  0.5673 -0.7872
  909MOL0     C25367  10.739   8.832   5.949  0.7906  0.4572  0.7763
  909MOL0     C25368  10.793   8.880   6.079 -0.4777  0.0292 -0.2057
  909MOL0     C25369  10.834   8.917   6.187  0.7484  0.9171  0.0327
  909MOL0     C25370  10.048   8.830   5.975 -0.5144  0.0952  0.5940
  909MOL0     C25371   9.932   8.876   5.915  0.5324  0.4346  0.7132
  909MOL0     C25372   9.806   8.791   5.920  0.1909  0.2999 -0.0065
  909MOL0     H25373   9.858   9.462   5.647 -2.4059  1.9026  0.1314
  909MOL0     H25374   9.804   9.524   5.403  2.4909 -1.7696 -3.1946
  909MOL0     H25375   9.808   9.283   5.131  3.6583  1.6657  0.0144
  909MOL0     H25376   9.845   9.451   5.176  0.0426 -1.4622  2.0460
  909MOL0     H25377   9.627   9.358   4.974 -0.8048  2.1243 -2.1539
  909MOL0     H25378   9.649   9.517   5.021  0.4051  1.3727 -0.5845
  909MOL0     H25379   9.882   9.534   4.917 -0.7535  0.6092 -1.0346
  909MOL0     H25380   9.877   9.353   4.885  3.1567  1.0990  3.3067
  909MOL0     H25381   9.675   9.406   4.740 -0.2650  1.0756 -1.1971
  909MOL0     H25382   9.700   9.570   4.769 -1.6297 -1.7644 -0.7196
  909MOL0     H25383   9.900   9.384   4.627  3.1991  1.2555 -1.5003
  909MOL0     H25384   9.944   9.547   4.678 -2.0997  1.9435  4.5338
  909MOL0     H25385   9.713   9.479   4.478  0.8425 -1.0292  0.6354
  909MOL0     H25386   9.726   9.630   4.564  0.8160  0.7135 -0.8987
  909MOL0     H25387   9.966   9.510   4.419  1.3401  0.9653  0.9160
  909MOL0     H25388   9.942   9.678   4.462 -2.1280  2.0156 -0.7720
  909MOL0     H25389   9.786   9.534   4.258  2.0507 -1.7861  1.6334
  909MOL0     H25390   9.767   9.705   4.288  0.6362  0.5617 -0.6410
  909MOL0     H25391  10.051   9.474   4.160 -2.3769 -0.9800 -0.9769
  909MOL0     H25392  10.265   9.506   4.005 -0.6161  0.0450  1.3926
  909MOL0     H25393  10.349   9.628   4.090  0.7462 -1.5487 -1.1925
  909MOL0     H25394  10.219   9.718   3.822  2.1621  4.1679 -0.3501
  909MOL0     H25395  10.359   9.769   3.904 -0.0562  0.1486 -0.8480
  909MOL0     H25396  10.465   9.655   3.736 -0.1516  0.8514 -0.1585
  909MOL0     H25397  10.442   9.519   3.852 -0.5808 -0.7122  0.3906
  909MOL0     H25398  10.220   9.562   3.660 -0.0234 -0.8800  0.5729
  909MOL0     H25399  10.374   9.507   3.605 -0.0670  2.3739  0.4432
  909MOL0     H25400  10.424   9.307   3.947  1.4692 -2.7256  1.9488
  909MOL0     H25401  10.682   9.101   3.954 -0.2783 -1.8792  2.7582
  909MOL0     H25402  10.554   8.992   4.010  0.4139  0.0666  0.3316
  909MOL0     H25403  10.553   9.167   4.048 -1.9799  1.0771 -0.9376
  909MOL0     H25404  10.550   8.667   3.921  0.5561  0.3812 -0.5878
  909MOL0     H25405  10.646   8.459   3.901 -0.3270 -0.1762  0.8948
  909MOL0     H25406  10.873   8.387   3.566 -2.3079 -0.6995  1.7617
  909MOL0     H25407  11.033   8.351   3.633  0.2247 -1.5067  0.1609
  909MOL0     H25408  10.805   8.156   3.648  0.9516 -0.6006  0.3518
  909MOL0     H25409  10.936   8.161   3.536  1.1935 -2.2313  0.5069
  909MOL0     H25410  10.982   8.136   3.834  3.3708  2.1510  1.3520
  909MOL0     H25411  11.103   8.128   3.710  0.1018  1.0314 -0.4702
  909MOL0     H25412  11.022   7.922   3.608  0.3804  0.4377 -1.1189
  909MOL0     H25413  10.882   7.932   3.716  0.8454  0.8121  2.8555
  909MOL0     H25414  11.167   7.913   3.808  0.2116 -0.0417 -4.6368
  909MOL0     H25415  11.021   7.888   3.912 -1.0147  0.0333 -0.9319
  909MOL0     H25416  11.116   7.690   3.691 -1.1179  2.2049 -0.6352
  909MOL0     H25417  10.958   7.704   3.766 -0.2436 -2.4361 -1.6629
  909MOL0     H25418  11.081   7.664   3.987 -0.6470 -0.8341 -0.4060
  909MOL0     H25419  11.229   7.660   3.905 -0.0933  1.6895 -1.0749
  909MOL0     H25420  11.105   7.475   3.761  0.2022  4.8196 -0.3784
  909MOL0     H25421  11.012   7.453   3.906  0.2722  0.1719 -2.5802
  909MOL0     H25422  10.991   8.611   3.698 -0.8526  0.3450 -3.2953
  909MOL0     H25423  10.877   8.839   3.697 -0.9776  1.0170  0.0744
  909MOL0     H25424  10.400   9.034   3.521  0.0595  0.8873 -1.4850
  909MOL0     H25425  10.303   9.269   3.545  2.5013 -0.5613 -2.0115
  909MOL0     H25426   9.609   9.161   5.340  0.5689 -0.5769  0.1246
  909MOL0     H25427   9.680   9.073   5.563  0.5379 -0.6781  1.1735
  909MOL0     H25428  10.107   9.164   5.807  0.1508 -0.5927 -0.8235
  909MOL0     H25429  10.279   9.054   5.871  2.8810 -3.3466  0.4581
  909MOL0     H25430  10.364   8.737   5.867  2.2483 -0.5448 -0.7207
  909MOL0     H25431  10.435   8.900   5.892  0.0826 -0.3409 -2.1940
  909MOL0     H25432  10.461   8.652   6.081  0.9012 -0.6876  0.1133
  909MOL0     H25433  10.522   8.804   6.128 -4.1220 -1.1262  1.7999
  909MOL0     H25434  10.683   8.630   6.001 -1.4760  1.3181  0.4112
  909MOL0     H25435  10.600   8.699   5.858 -3.7972  1.1594 -0.3518
  909MOL0     H25436  10.702   8.923   5.900  2.2980  0.3092 -0.7258
  909MOL0     H25437  10.809   8.791   5.876 -0.9492  1.4086 -1.5817
  909MOL0     H25438  10.858   8.964   6.280  0.0339 -0.5166  0.9753
  909MOL0     H25439  10.049   8.725   6.000  0.1704 -0.4753 -1.5693
  909MOL0     H25440   9.771   8.755   5.822 -0.6143 -1.8479  1.0038
  909MOL0     H25441   9.830   8.694   5.964 -0.8690  0.5281  1.1194
  909MOL0     H25442   9.721   8.838   5.969 -0.2234 -0.7407  0.2977
  910MOL0     O25443   5.041   8.540   1.013 -1.0378  0.4991 -0.6072
  910MOL0     C25444   5.077   8.426   1.041  0.2647  1.1257 -0.7575
  910MOL0     O25445   4.990   8.332   1.091  0.5520 -0.2162 -0.3036
  910MOL0     C25446   4.859   8.349   1.049  0.1762 -0.2463 -0.1953
  910MOL0     C25447   4.813   8.255   0.951 -0.5451  0.6072  0.7490
  910MOL0     C25448   4.692   8.277   0.895 -0.3701 -0.0150  0.1082
  910MOL0     C25449   4.606   8.381   0.935 -0.7136 -0.6718 -0.5823
  910MOL0     O25450   4.475   8.397   0.889  0.3158  0.2203  0.0094
  910MOL0     C25451   4.460   8.426   0.749  0.5163 -0.0141  1.2609
  910MOL0     C25452   4.501   8.560   0.710  0.3898 -0.7913  0.7808
  910MOL0     C25453   4.414   8.664   0.782 -0.2949  1.0293 -0.0620
  910MOL0     C25454   4.402   8.793   0.708  0.8501  0.4923  0.5935
  910MOL0     C25455   4.289   8.883   0.751 -0.4687  0.3226  0.5200
  910MOL0     C25456   4.304   9.020   0.691 -0.1182 -0.5595 -0.5830
  910MOL0     C25457   4.219   9.126   0.772  0.1147 -0.2229  0.9794
  910MOL0     C25458   4.185   9.237   0.670  0.5198 -0.8396  1.0534
  910MOL0     N25459   4.136   9.359   0.728  0.9601 -0.2904  0.9794
  910MOL0     C25460   4.179   9.425   0.842  0.9679 -0.5514  0.3421
  910MOL0     C25461   4.091   9.528   0.860  0.7486  0.3966 -1.3349
  910MOL0     C25462   4.080   9.611   0.985  0.3109  0.0016 -0.2775
  910MOL0     C25463   3.953   9.581   1.060 -0.2544  0.1637  1.3459
  910MOL0     C25464   3.955   9.641   1.197 -0.4103  0.8070 -0.0094
  910MOL0     C25465   3.810   9.661   1.263  0.0183  0.4433  0.0406
  910MOL0     O25466   3.754   9.535   1.311 -0.6885  0.4188 -0.1897
  910MOL0     C25467   3.660   9.552   1.409  0.3544  0.4634  0.0631
  910MOL0     C25468   3.668   9.478   1.530 -0.0348  0.2125  0.5801
  910MOL0     C25469   3.578   9.489   1.633  0.8619 -0.1519  1.1126
  910MOL0     C25470   3.601   9.394   1.753  0.3351  0.6711  0.9813
  910MOL0     C25471   3.465   9.583   1.619 -0.5377 -0.1918  0.0887
  910MOL0     C25472   3.361   9.604   1.727  0.3324 -0.3507  0.2154
  910MOL0     O25473   3.264   9.680   1.686 -0.5593  0.0158 -0.0102
  910MOL0     C25474   3.196   9.750   1.785  0.7071  0.1152 -0.4324
  910MOL0     C25475   3.163   9.884   1.758 -0.2601 -0.0366 -0.9247
  910MOL0     C25476   3.075   9.966   1.845 -0.7621  0.2984  0.5530
  910MOL0     C25477   3.016   9.894   1.950 -0.4253 -0.7501 -0.6069
  910MOL0     O25478   2.930   9.965   2.022 -0.2136 -0.3526  0.3305
  910MOL0     C25479   2.797   9.910   2.028  0.8939 -0.3019  0.3533
  910MOL0     C25480   2.698  10.018   2.069 -0.4730  0.4617  0.3206
  910MOL0     C25481   2.555   9.974   2.044 -0.3069 -0.5227 -0.2968
  910MOL0     C25482   2.462  10.087   2.082 -0.1200 -0.0553 -0.4380
  910MOL0     C25483   2.307  10.032   2.068  0.2357  0.7006 -1.0998
  910MOL0     C25484   2.210  10.102   2.166 -0.4736  0.6416 -0.3435
  910MOL0     C25485   2.178  10.240   2.119  0.6705 -0.0157  0.0091
  910MOL0     C25486   2.103  10.332   2.216  0.7832 -0.6466 -0.3837
  910MOL0    Cl25487   1.932  10.282   2.257 -0.5870  0.3510 -0.2228
  910MOL0     C25488   3.044   9.762   1.981 -0.3980  0.3710 -0.7731
  910MOL0     C25489   3.132   9.695   1.903 -0.3499 -0.4564  0.8828
  910MOL0     O25490   3.384   9.575   1.836 -0.1667  0.2811 -0.6529
  910MOL0     C25491   3.465   9.661   1.507  0.6121  1.2732  0.2774
  910MOL0     C25492   3.557   9.646   1.401  1.0306 -0.2632  0.0850
  910MOL0     N25493   4.003   9.540   0.748 -0.5490 -0.6031  0.1893
  910MOL0     N25494   4.036   9.441   0.673  0.3473  0.1877 -0.8151
  910MOL0     C25495   4.654   8.468   1.038 -0.9259 -0.4575 -0.0092
  910MOL0     C25496   4.782   8.452   1.097  0.0282 -0.7207  0.5261
  910MOL0     C25497   5.225   8.393   1.043 -0.5394 -0.1637 -0.1147
  910MOL0     C25498   5.258   8.286   1.125  0.6233 -0.2688  0.5235
  910MOL0     C25499   5.388   8.245   1.137 -0.1516  0.3141  0.8226
  910MOL0     C25500   5.490   8.318   1.081  0.1667  0.1660 -0.0776
  910MOL0     O25501   5.617   8.269   1.094 -0.4903 -0.2623 -0.7342
  910MOL0     C25502   5.690   8.338   1.198  0.7753  0.5287 -0.4736
  910MOL0     C25503   5.840   8.359   1.161 -0.8851  0.4933  0.6375
  910MOL0     C25504   5.856   8.444   1.030 -0.3651  0.4016 -0.0785
  910MOL0     C25505   5.878   8.363   0.898 -0.6189  0.0325  0.2509
  910MOL0     C25506   5.823   8.446   0.791  0.3928 -0.9405 -0.4139
  910MOL0     C25507   5.738   8.512   0.739 -0.3659  0.4734 -0.2103
  910MOL0     C25508   5.456   8.420   0.992  0.7189 -0.0102 -0.2376
  910MOL0     C25509   5.324   8.458   0.963 -0.1207 -0.5086 -0.1407
  910MOL0     C25510   5.300   8.561   0.853 -0.0121  0.6046  1.1062
  910MOL0     H25511   4.878   8.175   0.916 -2.7880 -1.9242  1.9681
  910MOL0     H25512   4.662   8.215   0.811  1.9190 -1.4689  0.2729
  910MOL0     H25513   4.361   8.396   0.714  2.3004 -1.6483 -2.9417
  910MOL0     H25514   4.523   8.357   0.693 -0.1661 -0.8787  1.5291
  910MOL0     H25515   4.609   8.571   0.722  0.2848  0.4532  0.8061
  910MOL0     H25516   4.476   8.577   0.605 -3.6413 -0.6353  1.5947
  910MOL0     H25517   4.313   8.623   0.792  0.4178 -0.3394  1.9643
  910MOL0     H25518   4.462   8.677   0.879  2.5216  0.6634 -1.3027
  910MOL0     H25519   4.493   8.845   0.739  1.8790 -1.9023  1.9182
  910MOL0     H25520   4.390   8.773   0.601 -0.5890  3.4392  0.0973
  910MOL0     H25521   4.302   8.893   0.859  2.0997  2.4717  0.1196
  910MOL0     H25522   4.193   8.843   0.718 -0.5996  1.3605 -0.4162
  910MOL0     H25523   4.409   9.050   0.694 -0.0736 -0.3933 -2.5696
  910MOL0     H25524   4.269   9.035   0.589  2.9149 -0.7570 -1.7745
  910MOL0     H25525   4.278   9.157   0.859 -0.0044  2.3660  0.1990
  910MOL0     H25526   4.120   9.089   0.799 -1.4659  2.0986 -1.2055
  910MOL0     H25527   4.275   9.269   0.616 -1.3214  1.8184 -0.7214
  910MOL0     H25528   4.115   9.193   0.598  0.7738 -0.7172  0.7259
  910MOL0     H25529   4.254   9.386   0.910  0.9421 -2.3746 -0.6082
  910MOL0     H25530   4.081   9.716   0.955  1.0540  0.7395  2.0796
  910MOL0     H25531   4.167   9.596   1.049  0.3179  1.7875  0.1915
  910MOL0     H25532   3.869   9.625   1.005  3.6410  5.0186 -1.6003
  910MOL0     H25533   3.936   9.476   1.082 -1.9564 -0.0388 -0.6510
  910MOL0     H25534   4.013   9.580   1.267 -0.7192 -0.3495 -0.7368
  910MOL0     H25535   3.999   9.740   1.182 -0.2692  0.6516 -0.6252
  910MOL0     H25536   3.831   9.733   1.343  4.4539 -2.2038  1.6103
  910MOL0     H25537   3.737   9.704   1.193  0.8996  2.1460  0.1149
  910MOL0     H25538   3.735   9.393   1.542 -0.5086 -0.0422  1.5277
  910MOL0     H25539   3.508   9.349   1.789  1.4779 -2.6944  0.1028
  910MOL0     H25540   3.649   9.433   1.843 -1.4334 -0.5003  2.5198
  910MOL0     H25541   3.674   9.320   1.718  2.6110  3.1446  0.2154
  910MOL0     H25542   3.197   9.909   1.658  0.6066  0.4393 -0.5264
  910MOL0     H25543   3.047  10.068   1.822  3.7255  2.0201  1.6406
  910MOL0     H25544   2.764   9.865   1.935  2.3088  1.9346 -1.3293
  910MOL0     H25545   2.797   9.835   2.108 -0.6856  0.2340  0.9041
  910MOL0     H25546   2.716  10.044   2.174 -2.5653  0.7691  0.6543
  910MOL0     H25547   2.720  10.106   2.007  1.0875 -1.3923 -1.9382
  910MOL0     H25548   2.522   9.889   2.105 -2.5771  0.3966 -0.1601
  910MOL0     H25549   2.557   9.953   1.937  2.9833  2.1349 -0.9376
  910MOL0     H25550   2.463  10.172   2.012  0.5288  0.5580  0.2937
  910MOL0     H25551   2.484  10.124   2.183  0.7352 -0.2209 -0.5586
  910MOL0     H25552   2.275  10.036   1.963 -2.6432 -3.0369 -0.5955
  910MOL0     H25553   2.305   9.926   2.095 -0.2188  0.7160 -1.0570
  910MOL0     H25554   2.261  10.107   2.263 -1.9946  0.4940  0.5042
  910MOL0     H25555   2.114  10.050   2.177 -1.6037  2.8506  0.8363
  910MOL0     H25556   2.117  10.237   2.028  0.3240  5.3965 -0.2860
  910MOL0     H25557   2.265  10.299   2.085 -1.0995  2.5605 -0.3638
  910MOL0     H25558   2.102  10.437   2.187 -0.1687  0.0880  2.0689
  910MOL0     H25559   2.157  10.352   2.308 -2.5705 -0.2128  1.6770
  910MOL0     H25560   2.990   9.706   2.057  0.4686  1.9191  1.0635
  910MOL0     H25561   3.159   9.594   1.933  2.8666  0.0413 -0.0000
  910MOL0     H25562   3.382   9.728   1.486 -0.9418  0.1377  2.3140
  910MOL0     H25563   3.525   9.697   1.311  0.9277  2.4729  1.5713
  910MOL0     H25564   4.598   8.545   1.089 -0.6870 -1.0989  1.2609
  910MOL0     H25565   4.816   8.511   1.183  0.4537 -3.1820  2.1426
  910MOL0     H25566   5.185   8.233   1.186  0.3677  1.4848  1.8196
  910MOL0     H25567   5.416   8.147   1.176  3.3422  0.6294 -0.4621
  910MOL0     H25568   5.657   8.441   1.218  1.2654  1.0209 -2.0568
  910MOL0     H25569   5.660   8.292   1.293  0.4677  1.0234 -0.3255
  910MOL0     H25570   5.891   8.262   1.154  1.1799  1.5556 -0.0033
  910MOL0     H25571   5.881   8.427   1.236  3.3135 -0.9061 -0.0982
  910MOL0     H25572   5.768   8.508   1.027  1.1446  2.5730 -0.9040
  910MOL0     H25573   5.943   8.510   1.045 -0.8516  1.1117 -0.3103
  910MOL0     H25574   5.839   8.262   0.883 -1.8527  0.3697  1.0295
  910MOL0     H25575   5.987   8.369   0.886 -0.1690  3.5979  3.9534
  910MOL0     H25576   5.658   8.552   0.679  0.5716  1.3541 -0.9198
  910MOL0     H25577   5.532   8.471   0.933  2.4723 -1.9676  0.1987
  910MOL0     H25578   5.393   8.572   0.797  0.0433  0.1124  1.0975
  910MOL0     H25579   5.214   8.537   0.791  2.0368 -3.0829 -0.6339
  910MOL0     H25580   5.267   8.658   0.893 -1.0939  1.4158 -1.5381
  911MOL0     O25581   9.552  11.540   5.325 -0.3764 -0.2447 -1.2099
  911MOL0     C25582   9.574  11.482   5.219  0.5196 -0.9485 -0.9517
  911MOL0     O25583   9.664  11.377   5.206 -0.0276  0.8036  0.1852
  911MOL0     C25584   9.774  11.362   5.287 -1.0588  0.1955 -0.5572
  911MOL0     C25585   9.805  11.430   5.404 -0.1979 -0.0048  0.7112
  911MOL0     C25586   9.924  11.391   5.465 -0.2289  1.0567  0.0317
  911MOL0     C25587   9.994  11.276   5.423  0.1521  0.0610  1.1990
  911MOL0     O25588  10.102  11.220   5.495 -0.0520 -0.3213  0.6780
  911MOL0     C25589  10.160  11.292   5.602  0.6776 -0.1879 -0.9190
  911MOL0     C25590  10.254  11.408   5.564  0.2902  0.3495 -0.6945
  911MOL0     C25591  10.389  11.369   5.497 -0.2406 -0.3693 -0.3410
  911MOL0     C25592  10.505  11.478   5.521  0.4965 -0.2232  0.0759
  911MOL0     C25593  10.528  11.591   5.416 -0.5836  0.1603 -0.3101
  911MOL0     C25594  10.651  11.665   5.455  1.0966 -1.3858 -0.1043
  911MOL0     C25595  10.639  11.808   5.396 -0.2898  0.4158 -0.3607
  911MOL0     C25596  10.548  11.905   5.460  0.4602 -0.4384 -1.0092
  911MOL0     N25597  10.536  12.021   5.376 -0.6186  0.0482 -0.2636
  911MOL0     C25598  10.450  12.120   5.384 -0.5359 -0.7473  0.4379
  911MOL0     C25599  10.483  12.217   5.294 -0.3394  0.3182 -0.1404
  911MOL0     C25600  10.426  12.353   5.232 -0.5731 -0.3795  0.7062
  911MOL0     C25601  10.480  12.479   5.313 -0.1814  0.2209 -0.3812
  911MOL0     C25602  10.391  12.598   5.264 -1.3054 -0.5371 -0.1810
  911MOL0     C25603  10.423  12.726   5.351  0.0239 -0.0618 -0.5223
  911MOL0     O25604  10.344  12.835   5.312 -0.3049 -1.3894  0.1651
  911MOL0     C25605  10.336  12.954   5.387 -1.1246 -0.2651  0.4559
  911MOL0     C25606  10.451  13.032   5.415 -0.3639 -0.0646 -0.3600
  911MOL0     C25607  10.447  13.159   5.487 -0.9456  0.3905  0.1529
  911MOL0     C25608  10.581  13.200   5.538  0.1017 -0.2280 -0.0752
  911MOL0     C25609  10.320  13.220   5.501  0.2715  0.7672 -0.0451
  911MOL0     C25610  10.293  13.362   5.547  0.4924  0.3066 -0.8114
  911MOL0     O25611  10.164  13.407   5.549 -0.0955 -0.3926  0.4759
  911MOL0     C25612  10.149  13.533   5.594  0.1456  0.0536 -0.9557
  911MOL0     C25613  10.158  13.556   5.735  0.4903 -0.2610 -0.2519
  911MOL0     C25614  10.148  13.691   5.780 -0.2120 -0.5164  0.3433
  911MOL0     C25615  10.136  13.796   5.683 -0.3470  0.2523  0.5755
  911MOL0     O25616  10.122  13.919   5.744 -0.8589  0.1102 -0.3160
  911MOL0     C25617  10.093  14.031   5.663 -0.2701  0.7833 -0.7541
  911MOL0     C25618  10.031  14.136   5.766  0.8864 -0.2082  0.3121
  911MOL0     C25619  10.135  14.207   5.834  0.1008  0.1999 -0.8741
  911MOL0     C25620  10.164  14.131   5.963 -0.1823 -0.4427  0.1628
  911MOL0     C25621  10.286  14.181   6.037 -0.9510 -0.4567 -0.6995
  911MOL0     C25622  10.354  14.075   6.130  1.0336 -0.2605 -1.1694
  911MOL0     C25623  10.499  14.119   6.172  0.3796 -0.6365 -1.0381
  911MOL0     C25624  10.491  14.258   6.239  0.2226  1.0376 -0.2306
  911MOL0    Cl25625  10.654  14.308   6.279 -0.2087  0.0468 -0.5811
  911MOL0     C25626  10.138  13.761   5.546  0.1678 -0.1890  0.3730
  911MOL0     C25627  10.158  13.633   5.511  0.2981 -0.2307 -0.4200
  911MOL0     O25628  10.391  13.422   5.601  0.2385  0.3673 -0.2505
  911MOL0     C25629  10.208  13.146   5.448 -0.9205  0.3165 -0.0007
  911MOL0     C25630  10.221  13.023   5.390  0.9680  1.2697  0.4719
  911MOL0     N25631  10.595  12.169   5.232 -0.2455 -0.5553  0.5282
  911MOL0     N25632  10.621  12.062   5.282 -0.3510 -0.0689 -0.0811
  911MOL0     C25633   9.958  11.207   5.312  0.1530 -0.9679 -0.2845
  911MOL0     C25634   9.846  11.260   5.243  0.0613  0.8252 -0.5389
  911MOL0     C25635   9.503  11.523   5.093  0.1950 -0.6487 -0.5533
  911MOL0     C25636   9.501  11.433   4.981 -0.3804  0.0847  0.2862
  911MOL0     C25637   9.451  11.481   4.865 -0.5763  0.4765  0.1380
  911MOL0     C25638   9.383  11.593   4.845  0.2642  0.0468 -0.2966
  911MOL0     O25639   9.331  11.632   4.729 -1.0750 -0.4846 -0.3478
  911MOL0     C25640   9.334  11.560   4.608  0.0803  0.9748  0.1583
  911MOL0     C25641   9.458  11.586   4.526  0.7364  0.0005 -0.0232
  911MOL0     C25642   9.458  11.729   4.461  0.3258  1.0924  0.3218
  911MOL0     C25643   9.449  11.842   4.573 -0.0168 -0.2017 -0.1608
  911MOL0     C25644   9.492  11.971   4.510 -0.3833  0.7492 -0.1301
  911MOL0     C25645   9.538  12.072   4.464 -0.6061  0.4637 -0.7392
  911MOL0     C25646   9.369  11.677   4.950  0.0390  0.4633  0.3833
  911MOL0     C25647   9.438  11.648   5.075 -0.8358 -0.3923 -0.5581
  911MOL0     C25648   9.435  11.744   5.187  0.3207  0.2061  0.2312
  911MOL0     H25649   9.740  11.510   5.438 -0.7508 -0.3167  0.4035
  911MOL0     H25650   9.951  11.430   5.563  0.9722  1.5417 -0.4728
  911MOL0     H25651  10.226  11.221   5.652  0.0542 -2.1994 -2.7462
  911MOL0     H25652  10.081  11.313   5.675 -0.6687 -5.0689 -0.5635
  911MOL0     H25653  10.199  11.472   5.495 -2.1701 -0.5392  0.3340
  911MOL0     H25654  10.269  11.472   5.652  0.6514  0.3149 -0.7297
  911MOL0     H25655  10.436  11.274   5.525 -0.9174 -0.9683 -1.1849
  911MOL0     H25656  10.369  11.354   5.391  2.3886 -2.1076 -0.7079
  911MOL0     H25657  10.507  11.522   5.621 -1.4799  0.3186 -0.0836
  911MOL0     H25658  10.599  11.423   5.507  0.0645 -1.5972  2.1402
  911MOL0     H25659  10.439  11.654   5.414  0.3863  1.5595 -0.4208
  911MOL0     H25660  10.547  11.548   5.318  0.7713  1.7173 -0.7754
  911MOL0     H25661  10.661  11.672   5.564  4.1769 -0.6087 -0.3553
  911MOL0     H25662  10.744  11.626   5.412  2.4089  0.8383  0.5389
  911MOL0     H25663  10.608  11.801   5.291  2.9578  2.0718 -1.6071
  911MOL0     H25664  10.739  11.852   5.389 -1.1352  2.2929 -1.5011
  911MOL0     H25665  10.445  11.867   5.462 -0.0401  0.7992 -1.9039
  911MOL0     H25666  10.580  11.940   5.559 -1.1381  4.0115 -1.7975
  911MOL0     H25667  10.371  12.128   5.459  0.6234 -0.1059  1.6374
  911MOL0     H25668  10.317  12.344   5.237 -0.7357  0.8486 -0.1521
  911MOL0     H25669  10.455  12.348   5.126  0.1279  1.2176  0.7914
  911MOL0     H25670  10.453  12.474   5.419 -0.2709 -1.3576 -0.4562
  911MOL0     H25671  10.587  12.495   5.299  0.2518  0.0824  2.3265
  911MOL0     H25672  10.401  12.624   5.158 -0.2497 -0.3263 -0.0390
  911MOL0     H25673  10.286  12.567   5.269 -2.2479  2.4455  0.5603
  911MOL0     H25674  10.395  12.704   5.455  2.4398  1.1743  0.4691
  911MOL0     H25675  10.528  12.752   5.337  0.5102 -2.2887 -1.3885
  911MOL0     H25676  10.547  12.994   5.382  2.0271  5.0531 -0.2159
  911MOL0     H25677  10.632  13.106   5.561 -1.0183 -0.2923  2.4992
  911MOL0     H25678  10.580  13.243   5.638 -0.1104 -4.0481  1.7618
  911MOL0     H25679  10.636  13.262   5.467 -0.0795  0.7932  0.6448
  911MOL0     H25680  10.169  13.486   5.817  0.6643 -0.6268 -0.5862
  911MOL0     H25681  10.138  13.720   5.884 -0.2128  4.5184 -0.8179
  911MOL0     H25682  10.173  14.074   5.602 -2.0498 -0.3623 -4.1711
  911MOL0     H25683  10.019  14.002   5.588  0.3593 -0.8409 -0.7846
  911MOL0     H25684   9.974  14.212   5.711  0.8130 -0.2951  0.2700
  911MOL0     H25685   9.961  14.088   5.834 -1.3616  0.4209 -1.4408
  911MOL0     H25686  10.111  14.311   5.858  0.3755  0.4632 -1.6969
  911MOL0     H25687  10.227  14.199   5.775  2.5487  1.2118  2.4687
  911MOL0     H25688  10.188  14.025   5.945  1.7177 -0.1863  0.8869
  911MOL0     H25689  10.077  14.132   6.028 -0.0994  0.0206  0.2711
  911MOL0     H25690  10.354  14.206   5.955 -2.2572  2.0759 -1.1236
  911MOL0     H25691  10.251  14.268   6.091 -0.4652 -0.7698  0.1303
  911MOL0     H25692  10.369  13.979   6.081 -1.8174  0.6735 -4.1663
  911MOL0     H25693  10.296  14.059   6.221  2.0854  1.0494 -0.2202
  911MOL0     H25694  10.576  14.119   6.094  1.3071 -2.4511 -0.2004
  911MOL0     H25695  10.534  14.043   6.243  2.0868 -0.3464 -1.5251
  911MOL0     H25696  10.420  14.253   6.322  0.2864  0.5615 -0.2035
  911MOL0     H25697  10.455  14.324   6.159 -2.2988 -1.2138 -1.0864
  911MOL0     H25698  10.127  13.831   5.463  1.0271 -1.2406 -0.6697
  911MOL0     H25699  10.166  13.616   5.404  0.1057 -2.1985 -0.1509
  911MOL0     H25700  10.114  13.200   5.440  0.8445  3.6895  0.4118
  911MOL0     H25701  10.144  12.974   5.331  0.1411 -0.1143  2.5665
  911MOL0     H25702  10.018  11.128   5.266 -0.4935  0.8106 -4.7351
  911MOL0     H25703   9.800  11.210   5.158 -1.0437  1.9651 -0.6494
  911MOL0     H25704   9.562  11.343   4.990  1.0865  1.2320  4.0429
  911MOL0     H25705   9.461  11.408   4.786 -0.3083  1.0760 -0.3966
  911MOL0     H25706   9.349  11.452   4.618  2.4681  1.2081 -0.2962
  911MOL0     H25707   9.241  11.574   4.552 -0.6388 -2.0011  0.4155
  911MOL0     H25708   9.462  11.513   4.445 -1.2410 -1.5112  1.1427
  911MOL0     H25709   9.541  11.554   4.589 -1.3143 -2.9631  1.4137
  911MOL0     H25710   9.552  11.730   4.406 -0.0835  1.3162 -0.3910
  911MOL0     H25711   9.387  11.747   4.380  1.3916 -5.0826 -2.4945
  911MOL0     H25712   9.507  11.826   4.664 -1.4013 -0.4871  0.6921
  911MOL0     H25713   9.346  11.843   4.609  1.2548 -0.7568  3.8927
  911MOL0     H25714   9.579  12.163   4.423  0.6418  1.2600  2.0435
  911MOL0     H25715   9.316  11.770   4.940 -0.1882  0.1299 -2.4428
  911MOL0     H25716   9.388  11.836   5.152 -0.1747 -0.7622 -1.8336
  911MOL0     H25717   9.385  11.712   5.279  0.5768  1.3546  0.7791
  911MOL0     H25718   9.534  11.779   5.216 -0.3894  1.8047  0.8404
  912MOL0     O25719   9.519   2.232  10.798 -0.3548 -0.8798 -0.1284
  912MOL0     C25720   9.583   2.275  10.894 -0.0494  0.3781  1.2021
  912MOL0     O25721   9.707   2.322  10.885 -0.6935 -0.3822 -0.2505
  912MOL0     C25722   9.771   2.325  10.756  0.5218 -0.5681  0.3438
  912MOL0     C25723   9.871   2.226  10.719  0.5213 -0.7198 -0.1174
  912MOL0     C25724   9.927   2.225  10.597 -0.3027 -0.6382  0.7105
  912MOL0     C25725   9.900   2.330  10.506 -0.3176 -0.5898 -0.9658
  912MOL0     O25726   9.949   2.323  10.381  0.7519 -0.3273  1.5542
  912MOL0     C25727   9.896   2.408  10.282  0.3658  0.6959 -0.5117
  912MOL0     C25728   9.959   2.387  10.145  0.6777  0.2204  0.3490
  912MOL0     C25729   9.892   2.472  10.036  0.3448  0.4581 -0.5652
  912MOL0     C25730   9.940   2.626  10.039  0.4884  0.5438  1.2255
  912MOL0     C25731   9.844   2.721   9.966 -0.4015 -0.8088  0.6106
  912MOL0     C25732   9.906   2.812   9.862  0.5651  0.1277 -0.6638
  912MOL0     C25733   9.830   2.946   9.865  0.9234  0.5964  0.8594
  912MOL0     C25734   9.687   2.952   9.799 -0.9513  0.0164  0.4900
  912MOL0     N25735   9.686   2.924   9.653  1.2028  0.0420  0.0135
  912MOL0     C25736   9.771   2.967   9.563 -0.5750  0.4852  1.3409
  912MOL0     C25737   9.705   2.964   9.443 -0.6819  0.3913 -1.1697
  912MOL0     C25738   9.744   3.011   9.306 -0.1590 -0.5486 -0.0236
  912MOL0     C25739   9.890   3.006   9.294 -0.3297  0.2507  1.3457
  912MOL0     C25740   9.934   3.033   9.148  1.0096  0.2301 -0.8267
  912MOL0     C25741  10.079   2.983   9.110  0.2538 -0.0873 -0.8181
  912MOL0     O25742  10.175   3.026   9.205  0.3904 -0.9466 -0.3502
  912MOL0     C25743  10.205   3.156   9.217 -1.0131 -1.1449  0.0407
  912MOL0     C25744  10.253   3.192   9.343  0.5697  0.2886  0.3366
  912MOL0     C25745  10.290   3.325   9.374 -0.5527  0.9609  1.0203
  912MOL0     C25746  10.334   3.346   9.518 -1.1360  0.7022 -0.2789
  912MOL0     C25747  10.281   3.427   9.266 -0.0204  0.5380 -0.3836
  912MOL0     C25748  10.322   3.573   9.277  0.6979 -2.0124  0.4353
  912MOL0     O25749  10.362   3.633   9.397  0.6609  0.0860 -0.6428
  912MOL0     C25750  10.405   3.764   9.407 -0.0356  0.0200  0.1943
  912MOL0     C25751  10.529   3.787   9.472  0.0250 -0.5787 -0.1638
  912MOL0     C25752  10.590   3.915   9.491  0.3296  0.1291  0.4981
  912MOL0     C25753  10.523   4.022   9.428 -0.2082 -0.1768 -0.4379
  912MOL0     O25754  10.561   4.154   9.425  0.6234  0.1414 -0.1036
  912MOL0     C25755  10.701   4.167   9.393  0.2495 -0.3906 -0.6086
  912MOL0     C25756  10.756   4.311   9.419  1.2981 -0.4280  0.6293
  912MOL0     C25757  10.879   4.351   9.347 -0.4803  0.0973  0.3423
  912MOL0     C25758  10.997   4.256   9.377  0.2568 -0.0608  0.0340
  912MOL0     C25759  11.110   4.317   9.296  0.7913  0.6652  0.1298
  912MOL0     C25760  11.238   4.235   9.313  0.4291 -0.8306 -0.8393
  912MOL0     C25761  11.342   4.287   9.212 -0.2577 -0.8341 -0.9014
  912MOL0     C25762  11.468   4.219   9.213 -0.8094 -0.1818 -0.3473
  912MOL0    Cl25763  11.571   4.288   9.358 -0.0942  0.3229  0.6639
  912MOL0     C25764  10.405   3.993   9.365 -0.4907 -0.1782 -0.2529
  912MOL0     C25765  10.335   3.871   9.351 -0.9370  0.2042 -0.1992
  912MOL0     O25766  10.319   3.636   9.167 -0.1132 -0.1128 -0.2667
  912MOL0     C25767  10.237   3.380   9.136  0.2235 -0.2464  0.4429
  912MOL0     C25768  10.206   3.254   9.117 -0.4711  0.3944  0.2583
  912MOL0     N25769   9.584   2.899   9.463 -0.6435  0.3750 -0.3386
  912MOL0     N25770   9.567   2.872   9.592  0.7045 -0.7594 -0.9611
  912MOL0     C25771   9.821   2.443  10.547  0.0778  0.7918 -1.1780
  912MOL0     C25772   9.750   2.429  10.671  0.4624  0.2793 -0.3059
  912MOL0     C25773   9.511   2.278  11.032 -0.9799  0.8234  0.9641
  912MOL0     C25774   9.579   2.336  11.137  0.5689  0.3303  0.0923
  912MOL0     C25775   9.514   2.352  11.256  0.0228  0.5454 -0.2551
  912MOL0     C25776   9.387   2.290  11.280 -1.1809  0.1633 -0.6214
  912MOL0     O25777   9.346   2.274  11.402 -0.5013  0.3968 -0.3321
  912MOL0     C25778   9.397   2.346  11.518  0.0363  0.8775 -0.3983
  912MOL0     C25779   9.340   2.483  11.517 -0.6268  0.2655  0.1910
  912MOL0     C25780   9.391   2.578  11.633  1.2554 -0.4623 -0.1690
  912MOL0     C25781   9.538   2.624  11.615 -1.2382  0.4165 -0.6726
  912MOL0     C25782   9.582   2.706  11.725 -0.5372 -0.0602  0.6264
  912MOL0     C25783   9.633   2.769  11.811  0.9426  0.3224 -0.6212
  912MOL0     C25784   9.330   2.217  11.184  0.0753 -0.4874  0.2367
  912MOL0     C25785   9.386   2.208  11.055 -0.5513 -0.0800  0.8865
  912MOL0     C25786   9.300   2.137  10.954 -0.3101  0.3002  0.3262
  912MOL0     H25787   9.894   2.152  10.795  1.1874 -1.1558 -0.7253
  912MOL0     H25788   9.988   2.145  10.556 -0.9454 -1.2108  0.8798
  912MOL0     H25789   9.924   2.511  10.308 -0.9949  0.4824  2.2132
  912MOL0     H25790   9.788   2.411  10.269  0.3822 -0.3391 -1.0046
  912MOL0     H25791  10.066   2.405  10.138  0.4716  2.0172  1.1776
  912MOL0     H25792   9.953   2.280  10.124 -0.6467 -0.0183  1.7613
  912MOL0     H25793   9.923   2.426   9.941  2.4937 -0.1605  0.3547
  912MOL0     H25794   9.784   2.462  10.038  0.4144 -0.7547 -1.6515
  912MOL0     H25795   9.926   2.662  10.141 -1.4564  0.4228  1.0387
  912MOL0     H25796  10.045   2.635  10.009  0.1266  0.6054 -0.1032
  912MOL0     H25797   9.805   2.779  10.050  0.2646 -1.8402  1.6588
  912MOL0     H25798   9.769   2.664   9.912  0.8715 -1.5881 -0.3984
  912MOL0     H25799  10.014   2.827   9.874  0.5407 -0.7096  0.9220
  912MOL0     H25800   9.895   2.762   9.766  1.5135  0.1726 -0.8061
  912MOL0     H25801   9.895   3.014   9.809 -1.1909  1.4863 -0.6472
  912MOL0     H25802   9.836   2.979   9.969  4.3420 -0.3391  1.0678
  912MOL0     H25803   9.614   2.891   9.854 -1.2984 -0.2997 -0.3125
  912MOL0     H25804   9.656   3.056   9.812  0.2080  0.3792  0.4216
  912MOL0     H25805   9.872   3.006   9.566 -1.3633  3.2717 -1.8953
  912MOL0     H25806   9.715   3.115   9.288 -2.2096 -0.9062  0.9714
  912MOL0     H25807   9.694   2.959   9.224 -0.0353 -1.1114  0.2510
  912MOL0     H25808   9.941   3.065   9.370  0.2188  0.1857  1.0335
  912MOL0     H25809   9.923   2.903   9.314  0.1831 -0.1125 -1.0862
  912MOL0     H25810   9.858   2.981   9.088  0.3928  0.0869  0.0533
  912MOL0     H25811   9.926   3.139   9.126  2.5071  0.7838  1.0948
  912MOL0     H25812  10.071   2.875   9.099  1.8716 -0.3856  0.5784
  912MOL0     H25813  10.110   3.022   9.012  2.5025  0.0699 -0.1057
  912MOL0     H25814  10.251   3.119   9.423 -0.1728  0.4362  0.4556
  912MOL0     H25815  10.281   3.436   9.551 -3.5417 -0.6701 -0.1214
  912MOL0     H25816  10.442   3.346   9.532 -1.0197  0.6778 -1.1335
  912MOL0     H25817  10.311   3.258   9.579 -0.4351 -1.1630 -2.5763
  912MOL0     H25818  10.583   3.700   9.509 -1.6112 -2.8692 -2.8326
  912MOL0     H25819  10.684   3.938   9.539  0.4308  4.3773 -1.2438
  912MOL0     H25820  10.749   4.091   9.454 -3.5310 -2.4961  0.0869
  912MOL0     H25821  10.707   4.151   9.285 -2.0405 -1.7536 -0.6155
  912MOL0     H25822  10.680   4.379   9.380  1.5151  1.0794  2.6686
  912MOL0     H25823  10.764   4.337   9.525  2.1574  0.1923  0.4177
  912MOL0     H25824  10.915   4.451   9.372  4.5396 -1.6233  1.0467
  912MOL0     H25825  10.858   4.344   9.240 -0.8349  3.2157  0.1034
  912MOL0     H25826  10.974   4.151   9.355 -2.9602  0.1913  1.6121
  912MOL0     H25827  11.035   4.255   9.479  3.2321 -2.5848 -0.9282
  912MOL0     H25828  11.081   4.310   9.191  3.9507  0.6687 -0.8534
  912MOL0     H25829  11.122   4.423   9.321 -3.3759  1.1139  0.8927
  912MOL0     H25830  11.216   4.131   9.290 -2.1132 -0.0893 -2.1437
  912MOL0     H25831  11.281   4.260   9.411  0.4417 -0.9907 -0.8048
  912MOL0     H25832  11.364   4.393   9.229 -3.4750 -0.4348  2.0926
  912MOL0     H25833  11.307   4.284   9.109 -0.0522  2.1342 -1.1434
  912MOL0     H25834  11.528   4.247   9.126  2.2067 -1.5855  1.1391
  912MOL0     H25835  11.457   4.112   9.234 -2.8793 -0.6616 -3.2294
  912MOL0     H25836  10.351   4.082   9.336  5.7759  4.5093  0.3456
  912MOL0     H25837  10.245   3.855   9.294 -2.4445  1.1630  1.7823
  912MOL0     H25838  10.232   3.451   9.054  2.7390  0.8288  1.1230
  912MOL0     H25839  10.165   3.227   9.021  0.9563 -2.3002  0.3267
  912MOL0     H25840   9.803   2.530  10.485  2.1843  2.3270  0.2388
  912MOL0     H25841   9.687   2.507  10.712 -1.4914 -1.9847  1.3167
  912MOL0     H25842   9.676   2.381  11.122  0.4291  0.2900 -1.0315
  912MOL0     H25843   9.559   2.401  11.341  0.1857 -2.9454  1.8882
  912MOL0     H25844   9.355   2.294  11.605  1.1114  0.2814 -0.2223
  912MOL0     H25845   9.505   2.354  11.528  0.0402 -1.1870  2.4349
  912MOL0     H25846   9.231   2.471  11.523 -0.6036  0.1852  0.4399
  912MOL0     H25847   9.359   2.536  11.423 -0.1298  0.3016  0.3137
  912MOL0     H25848   9.318   2.660  11.631  1.3934 -0.3028  0.8703
  912MOL0     H25849   9.378   2.530  11.731 -2.8594  1.1659  0.2570
  912MOL0     H25850   9.540   2.672  11.517  0.4059 -0.2529 -0.9938
  912MOL0     H25851   9.606   2.538  11.612 -2.0755 -0.2490 -1.4225
  912MOL0     H25852   9.686   2.833  11.879  0.1464  0.4270 -0.0756
  912MOL0     H25853   9.239   2.163  11.207 -0.3449 -1.2670 -2.8356
  912MOL0     H25854   9.195   2.129  10.981 -1.3181  2.5882 -2.3965
  912MOL0     H25855   9.301   2.195  10.861  3.8379 -1.1455 -0.7592
  912MOL0     H25856   9.350   2.040  10.939  0.3826  0.5912  0.7102
  913MOL0     O25857   0.034   9.037   1.719 -0.5056  0.0048  0.6217
  913MOL0     C25858  -0.085   9.069   1.733 -0.8719 -0.3994  0.1949
  913MOL0     O25859  -0.126   9.176   1.814 -0.5160 -0.3783 -0.2073
  913MOL0     C25860  -0.036   9.272   1.842 -1.3630 -0.2019 -0.2462
  913MOL0     C25861   0.024   9.284   1.971 -0.3436  0.0008  0.1069
  913MOL0     C25862   0.112   9.374   2.009  0.4684 -0.3229 -0.1827
  913MOL0     C25863   0.163   9.464   1.913  0.3410  0.2186  0.3015
  913MOL0     O25864   0.252   9.544   1.971 -0.1798  0.1157  0.3786
  913MOL0     C25865   0.272   9.686   1.935 -0.1902 -0.5398  0.5394
  913MOL0     C25866   0.412   9.735   1.981 -0.1014  0.1547 -1.0899
  913MOL0     C25867   0.507   9.623   1.996 -0.2536 -0.3445 -0.1793
  913MOL0     C25868   0.651   9.673   2.049 -0.1673  0.5928  0.9636
  913MOL0     C25869   0.749   9.560   2.038  0.6902  0.1509 -0.1727
  913MOL0     C25870   0.862   9.600   2.133 -0.8667 -0.3652 -0.4326
  913MOL0     C25871   0.836   9.561   2.277  0.8110 -0.5176  0.0082
  913MOL0     C25872   0.943   9.602   2.366  0.1034 -0.7672  1.1374
  913MOL0     N25873   1.062   9.509   2.360 -0.3361  0.6204 -0.0328
  913MOL0     C25874   1.183   9.534   2.303 -0.3869  0.3094 -0.0390
  913MOL0     C25875   1.278   9.450   2.363 -0.0244 -0.8247  0.2632
  913MOL0     C25876   1.431   9.459   2.352  0.5786  0.3499 -0.3942
  913MOL0     C25877   1.499   9.342   2.431 -1.2486  0.3269 -0.0483
  913MOL0     C25878   1.616   9.400   2.517  0.6760  0.5687 -0.1048
  913MOL0     C25879   1.659   9.309   2.628  0.3926 -0.5592 -0.1773
  913MOL0     O25880   1.762   9.381   2.699  0.1791 -0.5346 -0.0611
  913MOL0     C25881   1.824   9.304   2.796 -0.2213  0.2191  0.6246
  913MOL0     C25882   1.774   9.319   2.928 -1.2903  0.5237  0.3779
  913MOL0     C25883   1.833   9.249   3.040  0.8282 -0.0044  0.5455
  913MOL0     C25884   1.772   9.265   3.178  0.2012 -0.9616  0.8519
  913MOL0     C25885   1.935   9.151   3.013  0.4561 -0.5165  0.5175
  913MOL0     C25886   2.003   9.065   3.115  0.3203 -0.1263  0.1910
  913MOL0     O25887   1.932   8.986   3.196 -0.2635  0.9268  0.9131
  913MOL0     C25888   2.003   8.898   3.264 -0.3952  1.2590 -0.2832
  913MOL0     C25889   2.024   8.922   3.401 -0.8741 -0.1322  0.0832
  913MOL0     C25890   2.101   8.829   3.472  0.7749 -0.2028  0.1674
  913MOL0     C25891   2.159   8.723   3.403  0.2094  0.3858 -0.8302
  913MOL0     O25892   2.241   8.629   3.461 -0.0846  0.6196 -0.9093
  913MOL0     C25893   2.201   8.561   3.580 -1.2264 -0.5006 -0.0818
  913MOL0     C25894   2.090   8.454   3.561 -0.0111  0.1718  0.1231
  913MOL0     C25895   2.063   8.337   3.657 -0.6904 -0.1347 -0.0828
  913MOL0     C25896   1.947   8.258   3.610  0.0096  0.2043  0.7093
  913MOL0     C25897   1.966   8.107   3.591 -0.5445 -0.4178  0.9300
  913MOL0     C25898   2.089   8.068   3.499 -0.1595  0.2530  0.4154
  913MOL0     C25899   2.063   8.105   3.354 -0.0415 -0.3776  0.6746
  913MOL0     C25900   2.172   8.033   3.272  0.2219  0.3808 -0.6595
  913MOL0    Cl25901   2.111   8.049   3.103 -0.6010  0.4899  0.1945
  913MOL0     C25902   2.141   8.711   3.269 -0.2431  0.4248  0.0839
  913MOL0     C25903   2.056   8.792   3.202  0.1484 -0.4223 -0.8416
  913MOL0     O25904   2.122   9.067   3.109  0.3368  0.3133  0.3189
  913MOL0     C25905   1.980   9.130   2.875  1.1837 -0.2868 -0.0772
  913MOL0     C25906   1.927   9.210   2.778 -0.4159  1.0180 -0.0373
  913MOL0     N25907   1.202   9.381   2.451 -0.1521  0.9795 -0.1512
  913MOL0     N25908   1.077   9.412   2.458  0.5934 -0.4509 -1.0694
  913MOL0     C25909   0.110   9.456   1.784  0.4633 -0.0622 -1.2343
  913MOL0     C25910   0.013   9.360   1.745 -0.5815  0.5699 -0.2071
  913MOL0     C25911  -0.199   8.995   1.671 -0.5158  0.3439 -0.9126
  913MOL0     C25912  -0.324   9.069   1.688  0.4269  1.0248 -0.5389
  913MOL0     C25913  -0.442   9.005   1.656 -1.0196 -0.3862  0.5663
  913MOL0     C25914  -0.438   8.878   1.587 -0.2549  0.2455 -0.7566
  913MOL0     O25915  -0.551   8.813   1.540  0.0130 -0.5592  0.0418
  913MOL0     C25916  -0.669   8.889   1.510  0.2455 -1.2800  0.3785
  913MOL0     C25917  -0.778   8.787   1.467  0.2795 -0.3153 -0.3277
  913MOL0     C25918  -0.805   8.707   1.595 -0.2319 -0.6637 -0.0314
  913MOL0     C25919  -0.920   8.605   1.580  0.5499 -0.1677 -0.0834
  913MOL0     C25920  -0.908   8.517   1.689 -0.2093  1.3141 -0.4674
  913MOL0     C25921  -0.902   8.454   1.793 -0.6783  0.6590 -0.3023
  913MOL0     C25922  -0.313   8.821   1.560  0.2007 -0.3432  0.9137
  913MOL0     C25923  -0.195   8.872   1.614 -0.1174  0.2688  0.4347
  913MOL0     C25924  -0.077   8.792   1.584 -0.4969  0.1458  1.1908
  913MOL0     H25925  -0.006   9.220   2.054  0.8421  2.5310  2.6410
  913MOL0     H25926   0.154   9.379   2.109 -0.4070 -2.0432  0.3061
  913MOL0     H25927   0.203   9.746   1.995  1.6690  1.4365  0.8146
  913MOL0     H25928   0.249   9.710   1.830 -0.2794  2.9424  1.2520
  913MOL0     H25929   0.460   9.793   1.902 -0.4029  1.6865 -0.1940
  913MOL0     H25930   0.414   9.798   2.071 -0.7179  1.7961 -2.1712
  913MOL0     H25931   0.480   9.534   2.053 -1.0261  0.1782  0.2997
  913MOL0     H25932   0.515   9.577   1.897 -1.6633  0.3890 -0.6675
  913MOL0     H25933   0.683   9.761   1.993 -2.4336 -1.2959 -3.8891
  913MOL0     H25934   0.630   9.705   2.151 -2.6202  0.0423  0.6940
  913MOL0     H25935   0.799   9.560   1.940 -0.3013  0.2734 -0.6860
  913MOL0     H25936   0.701   9.464   2.053  1.2959 -0.1128  0.1103
  913MOL0     H25937   0.959   9.559   2.102  0.9990  1.2291  2.7112
  913MOL0     H25938   0.885   9.706   2.140  1.4054 -0.8903  1.8012
  913MOL0     H25939   0.828   9.452   2.279  3.3915 -0.7937 -0.4770
  913MOL0     H25940   0.745   9.607   2.316  1.0693 -0.9878  1.2160
  913MOL0     H25941   0.970   9.706   2.344 -1.8409 -0.5553 -0.6279
  913MOL0     H25942   0.899   9.600   2.466  0.4773  1.6209  1.4118
  913MOL0     H25943   1.213   9.611   2.233  1.0914  1.8369  2.1409
  913MOL0     H25944   1.462   9.561   2.377 -1.8198  1.2114 -0.6446
  913MOL0     H25945   1.465   9.446   2.249  0.2440 -1.9219 -0.2703
  913MOL0     H25946   1.427   9.294   2.498  1.8078 -1.1048  2.4756
  913MOL0     H25947   1.524   9.266   2.355  0.8155 -0.4231  1.3031
  913MOL0     H25948   1.699   9.423   2.451  2.1204 -2.3682  0.5518
  913MOL0     H25949   1.578   9.496   2.555  1.1517  0.6054  0.2816
  913MOL0     H25950   1.581   9.286   2.701  3.0294  0.3861  3.2040
  913MOL0     H25951   1.690   9.210   2.592 -0.5967 -1.4848  1.4260
  913MOL0     H25952   1.693   9.391   2.940 -1.4785  0.2158  1.0263
  913MOL0     H25953   1.850   9.238   3.250  1.8862  0.2206 -0.4426
  913MOL0     H25954   1.680   9.208   3.195  0.7302 -1.5082  2.0161
  913MOL0     H25955   1.752   9.373   3.179 -1.4996 -1.1912 -1.5956
  913MOL0     H25956   1.980   9.010   3.447  1.4333  1.9311 -1.3834
  913MOL0     H25957   2.105   8.855   3.577  0.5278  1.6766 -0.2620
  913MOL0     H25958   2.283   8.508   3.629  0.3692 -0.1668 -2.2352
  913MOL0     H25959   2.163   8.643   3.642 -0.2086  0.0439 -0.1730
  913MOL0     H25960   1.996   8.506   3.538  0.4165  0.6540 -0.5782
  913MOL0     H25961   2.125   8.415   3.465  0.0002 -1.0402  0.5978
  913MOL0     H25962   2.032   8.403   3.738 -0.4909  1.3189 -1.1323
  913MOL0     H25963   2.148   8.276   3.690 -1.8025 -1.0029  1.2749
  913MOL0     H25964   1.909   8.301   3.517  0.5006 -0.1536  0.3440
  913MOL0     H25965   1.864   8.270   3.681  0.4038  3.1427  0.8037
  913MOL0     H25966   1.974   8.049   3.684  0.0031 -2.0438 -0.0909
  913MOL0     H25967   1.877   8.060   3.547 -1.5626  0.7604  1.6574
  913MOL0     H25968   2.102   7.960   3.511  0.6495  0.5467  2.7080
  913MOL0     H25969   2.178   8.125   3.527 -0.5570  0.4730  1.2708
  913MOL0     H25970   2.066   8.215   3.352 -0.6869 -0.3156  1.9748
  913MOL0     H25971   1.965   8.073   3.318  0.5684 -0.1215 -1.2818
  913MOL0     H25972   2.179   7.925   3.293 -2.2546  0.5192  1.3534
  913MOL0     H25973   2.267   8.085   3.287  1.5888 -2.4196  1.4389
  913MOL0     H25974   2.189   8.631   3.215 -0.3299  1.3628 -1.4444
  913MOL0     H25975   2.043   8.786   3.095  1.3453  2.5626 -1.2546
  913MOL0     H25976   2.051   9.053   2.845  0.7678 -0.0356 -1.8146
  913MOL0     H25977   1.955   9.197   2.674 -1.5735  1.0724 -0.3748
  913MOL0     H25978   0.140   9.528   1.709 -0.9033  1.0631 -0.7425
  913MOL0     H25979  -0.024   9.359   1.643  1.6547 -0.6568 -1.0777
  913MOL0     H25980  -0.343   9.160   1.743 -4.3785  1.5316 -2.4681
  913MOL0     H25981  -0.528   9.061   1.691  0.4409 -0.2118  4.2824
  913MOL0     H25982  -0.688   8.965   1.587  2.1933 -0.6017  0.2252
  913MOL0     H25983  -0.648   8.947   1.420 -2.0170 -0.1846  0.4792
  913MOL0     H25984  -0.743   8.721   1.387  1.0400 -2.2962  1.5603
  913MOL0     H25985  -0.872   8.834   1.435  0.8805  0.4528 -0.9926
  913MOL0     H25986  -0.717   8.646   1.612 -1.4691 -2.5610 -0.1341
  913MOL0     H25987  -0.817   8.776   1.679 -1.5713 -0.0170 -0.7212
  913MOL0     H25988  -0.917   8.556   1.483 -0.7965  2.1302 -1.3677
  913MOL0     H25989  -1.012   8.664   1.572 -0.0325 -0.3315  3.4184
  913MOL0     H25990  -0.910   8.392   1.881  1.0724  1.7163  0.6536
  913MOL0     H25991  -0.318   8.724   1.512  0.9867 -0.2653  0.6588
  913MOL0     H25992  -0.090   8.687   1.613  1.4729  0.7010  4.7037
  913MOL0     H25993  -0.060   8.809   1.477 -1.4869  1.7758  1.2642
  913MOL0     H25994   0.010   8.830   1.638 -0.7046  2.1025  0.2212
  914MOL0     O25995   4.211   3.141   4.014  1.3483  0.8899  0.1276
  914MOL0     C25996   4.225   3.031   4.072  0.3024  0.2431 -0.3487
  914MOL0     O25997   4.312   3.006   4.182 -0.3670  0.1904  0.0980
  914MOL0     C25998   4.424   3.087   4.211 -0.4412  0.0739 -0.6371
  914MOL0     C25999   4.476   3.086   4.341 -0.6320  0.0330 -0.3152
  914MOL0     C26000   4.576   3.168   4.383 -0.3943  0.6733  0.0743
  914MOL0     C26001   4.639   3.256   4.290 -0.2337 -0.1264 -0.7163
  914MOL0     O26002   4.745   3.333   4.325  0.0754  0.3278 -1.3910
  914MOL0     C26003   4.861   3.272   4.388  0.3854  0.1460  0.2246
  914MOL0     C26004   4.869   3.305   4.542 -0.4352 -0.0436  0.2814
  914MOL0     C26005   5.011   3.295   4.617  0.1308  0.5795  0.5052
  914MOL0     C26006   5.127   3.371   4.555 -0.4140 -0.7443 -0.4681
  914MOL0     C26007   5.253   3.379   4.645  0.9545 -0.4710 -0.1608
  914MOL0     C26008   5.371   3.320   4.573  0.0667  0.3965 -0.0083
  914MOL0     C26009   5.415   3.389   4.445 -0.1342 -0.1181 -0.5711
  914MOL0     C26010   5.536   3.466   4.482 -0.3373  0.1218 -0.1564
  914MOL0     N26011   5.571   3.573   4.392  1.3470 -0.1173 -0.4079
  914MOL0     C26012   5.677   3.646   4.398  0.1662 -0.2467  0.0828
  914MOL0     C26013   5.701   3.698   4.275  1.8376 -0.1883  0.4242
  914MOL0     C26014   5.800   3.798   4.232 -0.2693  0.8537 -0.4115
  914MOL0     C26015   5.792   3.925   4.311 -0.4223 -0.0526 -0.2366
  914MOL0     C26016   5.664   4.010   4.276 -0.8125 -0.0825 -0.0504
  914MOL0     C26017   5.606   4.073   4.402 -0.4678  0.8445  0.1536
  914MOL0     O26018   5.479   4.139   4.376  0.2028 -0.3046  1.0338
  914MOL0     C26019   5.359   4.071   4.384 -0.1707  0.4752 -0.2647
  914MOL0     C26020   5.347   3.951   4.448  0.1512  0.1781  0.5551
  914MOL0     C26021   5.229   3.873   4.461 -1.0261 -0.5200  0.0827
  914MOL0     C26022   5.229   3.738   4.534  0.9503  0.7865 -1.3762
  914MOL0     C26023   5.113   3.937   4.414 -1.0407 -0.4231  0.3674
  914MOL0     C26024   4.990   3.877   4.444 -0.0286 -0.6155 -0.3880
  914MOL0     O26025   4.964   3.841   4.575  0.2909 -0.0298 -0.2320
  914MOL0     C26026   4.865   3.759   4.618  0.1737  0.7033  0.0465
  914MOL0     C26027   4.849   3.758   4.754 -0.3697  0.5066  0.4712
  914MOL0     C26028   4.727   3.704   4.806  1.1575  0.5759 -0.7210
  914MOL0     C26029   4.625   3.641   4.730 -0.4263 -0.5827  0.6008
  914MOL0     O26030   4.515   3.579   4.786 -0.1893  0.3852 -0.1396
  914MOL0     C26031   4.481   3.450   4.732  0.3065 -0.3145  0.0948
  914MOL0     C26032   4.399   3.371   4.828 -0.9466 -0.2697  0.0641
  914MOL0     C26033   4.265   3.448   4.858  0.7528 -0.9821 -0.0446
  914MOL0     C26034   4.193   3.388   4.975 -0.1608  0.5348 -0.1642
  914MOL0     C26035   4.057   3.465   5.017 -0.0221 -0.4314  0.4172
  914MOL0     C26036   4.066   3.585   5.098  0.2270  0.7633 -0.2507
  914MOL0     C26037   4.136   3.560   5.234 -0.8766  0.0045  0.2229
  914MOL0     C26038   4.112   3.670   5.333  0.4088  0.6348  0.2335
  914MOL0    Cl26039   4.209   3.630   5.473  0.4665  0.0593  0.0781
  914MOL0     C26040   4.647   3.652   4.596 -0.5348  0.2867  0.7529
  914MOL0     C26041   4.760   3.714   4.540  0.3001 -0.5416 -0.6071
  914MOL0     O26042   4.902   3.882   4.355 -0.7451 -1.1306  0.3924
  914MOL0     C26043   5.122   4.053   4.342  0.4749  0.1525  0.0554
  914MOL0     C26044   5.241   4.133   4.332  0.2638 -1.0994 -0.0681
  914MOL0     N26045   5.600   3.648   4.200 -1.0754 -0.4745  0.1113
  914MOL0     N26046   5.520   3.583   4.265 -0.1401 -0.2082 -0.8740
  914MOL0     C26047   4.585   3.266   4.166  0.2223  0.3071  0.7800
  914MOL0     C26048   4.486   3.177   4.118 -0.4403  0.6868  0.5079
  914MOL0     C26049   4.135   2.916   4.048  0.4965 -0.1644 -0.2539
  914MOL0     C26050   4.005   2.945   3.997 -0.8434  0.1358 -0.9623
  914MOL0     C26051   3.912   2.852   3.962  0.0325  0.4592 -0.4451
  914MOL0     C26052   3.931   2.724   4.000 -0.0188  1.2382 -0.1771
  914MOL0     O26053   3.830   2.630   3.983  0.5750 -0.4245 -0.2521
  914MOL0     C26054   3.754   2.634   3.863  0.3318 -0.4092 -0.4446
  914MOL0     C26055   3.734   2.499   3.806  0.2787  0.1288  0.5792
  914MOL0     C26056   3.662   2.405   3.911 -0.6950  0.2065 -0.3026
  914MOL0     C26057   3.670   2.252   3.873  0.1604 -0.2826  0.0144
  914MOL0     C26058   3.588   2.165   3.950  0.5393 -0.5740 -0.3725
  914MOL0     C26059   3.507   2.100   4.018 -0.0797 -0.4035  0.2106
  914MOL0     C26060   4.055   2.691   4.057  0.6185  0.2679  0.6285
  914MOL0     C26061   4.158   2.779   4.081 -0.7628 -0.1997 -0.8435
  914MOL0     C26062   4.291   2.711   4.127 -0.0660  0.9988  0.0528
  914MOL0     H26063   4.437   3.016   4.414  2.8542 -0.7160  1.0680
  914MOL0     H26064   4.619   3.158   4.482  1.9244  1.8854 -0.7225
  914MOL0     H26065   4.952   3.317   4.347  2.3812  2.3051  5.9797
  914MOL0     H26066   4.868   3.166   4.360  4.6584  0.2490  0.2363
  914MOL0     H26067   4.835   3.409   4.544 -2.0927 -0.5546  0.0473
  914MOL0     H26068   4.788   3.256   4.596 -0.2403 -1.0734 -0.3329
  914MOL0     H26069   5.011   3.330   4.721  0.5198 -0.3621  0.8237
  914MOL0     H26070   5.025   3.188   4.605 -1.6124  0.5024 -1.5853
  914MOL0     H26071   5.144   3.324   4.457 -3.3644 -0.8101 -1.0339
  914MOL0     H26072   5.099   3.476   4.540  1.5941 -0.1865 -0.5962
  914MOL0     H26073   5.231   3.324   4.737  0.4024 -0.5662 -0.3433
  914MOL0     H26074   5.269   3.486   4.662 -2.7649  0.3413 -0.8848
  914MOL0     H26075   5.454   3.315   4.643 -0.1916  1.1096  0.3556
  914MOL0     H26076   5.343   3.219   4.542  0.0119  0.7668 -1.2515
  914MOL0     H26077   5.340   3.450   4.394 -0.7302 -0.0522  0.3734
  914MOL0     H26078   5.446   3.304   4.383  0.2966 -1.8312  1.8255
  914MOL0     H26079   5.500   3.514   4.573 -0.2691 -0.7517  0.3424
  914MOL0     H26080   5.624   3.405   4.501  0.0805  0.7382 -0.0949
  914MOL0     H26081   5.750   3.656   4.478 -0.7566  0.6376  0.8320
  914MOL0     H26082   5.780   3.824   4.128 -1.8801 -1.4162 -0.7345
  914MOL0     H26083   5.902   3.760   4.247 -0.2766  1.6289  2.0427
  914MOL0     H26084   5.800   3.901   4.418  3.5424  0.5939 -0.2282
  914MOL0     H26085   5.876   3.990   4.285 -1.0048  0.5903 -0.5328
  914MOL0     H26086   5.695   4.097   4.216 -1.7348  0.3282  0.0546
  914MOL0     H26087   5.594   3.947   4.220 -0.8493  2.1730 -2.7582
  914MOL0     H26088   5.590   3.995   4.478 -1.6379 -0.3915 -1.2928
  914MOL0     H26089   5.674   4.146   4.447 -0.1045  3.2468 -3.8910
  914MOL0     H26090   5.433   3.899   4.488 -0.0065  0.4498  1.2599
  914MOL0     H26091   5.325   3.686   4.537 -0.0812 -1.1662 -0.7849
  914MOL0     H26092   5.153   3.668   4.500 -1.4196  2.7755 -0.4763
  914MOL0     H26093   5.204   3.748   4.640  0.9649  1.0792 -1.3997
  914MOL0     H26094   4.923   3.804   4.819  1.2209 -3.0787  1.4865
  914MOL0     H26095   4.723   3.697   4.915  3.1300 -0.4984 -0.6619
  914MOL0     H26096   4.427   3.460   4.637 -0.7335 -0.7773  0.6210
  914MOL0     H26097   4.576   3.396   4.720  0.1099 -0.7261  0.3362
  914MOL0     H26098   4.377   3.268   4.798 -2.3696  0.1699 -0.4846
  914MOL0     H26099   4.455   3.367   4.922 -1.6567  2.7861  0.7063
  914MOL0     H26100   4.205   3.445   4.766 -0.7198 -0.2634  0.8699
  914MOL0     H26101   4.267   3.555   4.879 -2.3468 -1.2394  2.2028
  914MOL0     H26102   4.255   3.383   5.065 -4.8719  1.1251  3.5583
  914MOL0     H26103   4.163   3.286   4.950 -0.5098  1.4276 -4.0190
  914MOL0     H26104   4.001   3.497   4.928  1.8096  2.5206  0.1943
  914MOL0     H26105   3.993   3.394   5.071 -1.0788 -1.1997 -1.7126
  914MOL0     H26106   3.964   3.618   5.120 -0.6045 -2.7247  1.7902
  914MOL0     H26107   4.129   3.660   5.048  1.0506  1.9696  2.3972
  914MOL0     H26108   4.244   3.573   5.221 -0.6749 -0.3848  1.4076
  914MOL0     H26109   4.125   3.462   5.280  0.8197  1.0090  3.0500
  914MOL0     H26110   4.006   3.671   5.360  0.2875  0.3062 -0.2181
  914MOL0     H26111   4.149   3.769   5.307 -1.0011  1.5387  1.5494
  914MOL0     H26112   4.568   3.610   4.535  1.5634  0.3942 -2.2294
  914MOL0     H26113   4.780   3.726   4.434  1.5018 -2.3525 -0.6305
  914MOL0     H26114   5.023   4.090   4.316  0.0610 -0.8425  0.1296
  914MOL0     H26115   5.247   4.238   4.305  3.1994 -1.0414  0.5073
  914MOL0     H26116   4.626   3.340   4.099  1.6539 -1.6704 -0.6249
  914MOL0     H26117   4.451   3.180   4.016  0.1999  1.6647  0.3059
  914MOL0     H26118   3.990   3.050   3.976 -0.6807  0.4937  0.5802
  914MOL0     H26119   3.816   2.885   3.926 -1.2279 -2.5625 -0.1965
  914MOL0     H26120   3.662   2.687   3.890  0.4285  0.3923 -1.5754
  914MOL0     H26121   3.803   2.689   3.782 -0.6072 -2.4411 -2.5023
  914MOL0     H26122   3.828   2.448   3.782 -0.0232 -0.1972  0.0700
  914MOL0     H26123   3.678   2.500   3.712 -0.4245 -0.7405  0.9694
  914MOL0     H26124   3.701   2.398   4.013  2.0463 -3.1138 -1.3560
  914MOL0     H26125   3.558   2.437   3.921 -0.3517  1.3429 -0.2304
  914MOL0     H26126   3.774   2.219   3.873  0.4452  0.5890 -0.1831
  914MOL0     H26127   3.621   2.248   3.775 -0.9551  1.8173  0.4084
  914MOL0     H26128   3.423   2.050   4.062 -0.6452 -0.5672 -1.0051
  914MOL0     H26129   4.071   2.583   4.062 -1.2432  0.0151  2.2010
  914MOL0     H26130   4.327   2.757   4.219 -0.8027  3.8823 -0.9650
  914MOL0     H26131   4.281   2.602   4.132  2.4076  0.6290 -1.3403
  914MOL0     H26132   4.358   2.720   4.041 -0.1702 -0.1809 -0.1601
  915MOL0     O26133   3.552  11.333   2.088  0.0675  0.3700  0.0389
  915MOL0     C26134   3.580  11.377   1.979  0.1660 -0.8107  0.0991
  915MOL0     O26135   3.656  11.487   1.962  0.2416  0.3457 -0.2623
  915MOL0     C26136   3.757  11.527   2.044  0.8398  0.5002  0.2734
  915MOL0     C26137   3.847  11.437   2.108  0.2465 -0.5023  0.2602
  915MOL0     C26138   3.957  11.479   2.180 -0.0337  0.5255 -0.9387
  915MOL0     C26139   3.987  11.617   2.187 -0.9985 -0.1408  0.4892
  915MOL0     O26140   4.088  11.670   2.259 -0.3548 -0.7943  0.9153
  915MOL0     C26141   4.116  11.624   2.389  0.4754  1.0621 -0.3782
  915MOL0     C26142   4.163  11.735   2.480  0.8131 -0.7578  0.5215
  915MOL0     C26143   4.043  11.823   2.535 -0.3272 -0.2856 -0.7474
  915MOL0     C26144   3.907  11.836   2.468  0.5287 -0.2962 -1.3847
  915MOL0     C26145   3.806  11.905   2.563  0.6904 -0.3281  0.6136
  915MOL0     C26146   3.665  11.890   2.513 -0.1190 -0.2692 -0.1103
  915MOL0     C26147   3.566  11.993   2.552 -0.3899 -0.2284 -0.2088
  915MOL0     C26148   3.539  11.982   2.699  0.0665  0.2080 -0.3894
  915MOL0     N26149   3.423  12.079   2.734 -0.1025 -0.7092  0.7368
  915MOL0     C26150   3.337  12.073   2.842  0.2578 -0.8159  1.3584
  915MOL0     C26151   3.230  12.148   2.809 -0.2008 -0.4360 -0.3667
  915MOL0     C26152   3.089  12.148   2.876  0.6999 -0.3513  0.7965
  915MOL0     C26153   2.978  12.115   2.773  0.6079  0.2083  0.6754
  915MOL0     C26154   2.847  12.092   2.835  0.2661  0.7873 -0.2005
  915MOL0     C26155   2.730  12.074   2.738 -0.4945 -1.2329  1.4642
  915MOL0     O26156   2.592  12.078   2.786  0.7103  1.0301 -0.0260
  915MOL0     C26157   2.531  11.977   2.841  1.0534  0.1455  0.8919
  915MOL0     C26158   2.580  11.845   2.859  0.7313  0.0519  1.7347
  915MOL0     C26159   2.517  11.746   2.928  0.3090 -0.1167  0.3578
  915MOL0     C26160   2.580  11.611   2.943  0.1541 -0.1233 -0.1139
  915MOL0     C26161   2.389  11.770   2.978  0.8543  0.1429 -0.0072
  915MOL0     C26162   2.294  11.679   3.037 -0.4551 -0.9683 -0.0110
  915MOL0     O26163   2.290  11.555   2.976  1.1733 -0.1523 -0.3528
  915MOL0     C26164   2.256  11.437   3.049  0.4440 -0.3725  0.5825
  915MOL0     C26165   2.290  11.425   3.182 -0.0017  0.0049 -0.5680
  915MOL0     C26166   2.247  11.303   3.249 -0.0913  0.8406 -0.1500
  915MOL0     C26167   2.184  11.195   3.173  0.3087  0.5083 -0.0298
  915MOL0     O26168   2.142  11.069   3.216  0.7822  0.0440 -0.3412
  915MOL0     C26169   2.170  11.039   3.360 -1.2774 -0.6474 -0.8224
  915MOL0     C26170   2.185  10.894   3.384 -0.4370  1.2097 -0.8997
  915MOL0     C26171   2.235  10.857   3.527 -0.1649  0.4815  0.3039
  915MOL0     C26172   2.154  10.744   3.574  0.8209  0.0136  0.0146
  915MOL0     C26173   2.218  10.703   3.711  1.1414  0.1737 -0.2618
  915MOL0     C26174   2.161  10.564   3.744  0.1094  0.2937  0.3148
  915MOL0     C26175   1.998  10.548   3.751  0.4139 -0.2296 -0.8597
  915MOL0     C26176   1.960  10.414   3.810  0.5568  0.5161 -0.1816
  915MOL0    Cl26177   1.974  10.296   3.675  0.1849 -0.0883  0.1556
  915MOL0     C26178   2.157  11.209   3.045  0.1263 -0.3960  0.0428
  915MOL0     C26179   2.201  11.329   2.978  0.1153 -0.0463 -0.7297
  915MOL0     O26180   2.237  11.723   3.141  0.2549 -0.4725  0.0345
  915MOL0     C26181   2.342  11.904   2.975  0.3492  0.2085  0.8184
  915MOL0     C26182   2.402  12.006   2.899  0.1279  0.7347  0.2392
  915MOL0     N26183   3.259  12.208   2.685 -0.2852  0.1420 -0.2320
  915MOL0     N26184   3.380  12.176   2.656 -0.6019  0.0067  0.0118
  915MOL0     C26185   3.909  11.700   2.107  0.5396  0.3224 -0.7367
  915MOL0     C26186   3.799  11.656   2.034  0.2830  0.4426 -0.7826
  915MOL0     C26187   3.499  11.324   1.864  0.1756  0.0262 -1.0707
  915MOL0     C26188   3.485  11.402   1.752 -0.5504 -0.3092 -0.1787
  915MOL0     C26189   3.413  11.356   1.643  1.7004 -0.7014 -0.3587
  915MOL0     C26190   3.372  11.221   1.631  1.0242  0.0906 -0.2116
  915MOL0     O26191   3.311  11.177   1.519 -0.6674  0.1926  0.5246
  915MOL0     C26192   3.245  11.048   1.506  0.0583 -0.2614 -0.2059
  915MOL0     C26193   3.109  11.056   1.588 -0.6445  0.2369  0.1036
  915MOL0     C26194   3.011  11.145   1.512  0.2159 -0.4825 -0.5007
  915MOL0     C26195   3.009  11.284   1.564  0.0032 -0.2545  0.1081
  915MOL0     C26196   2.876  11.348   1.528  0.1247  0.1034  0.5342
  915MOL0     C26197   2.780  11.405   1.502  0.7391 -0.7082  0.1140
  915MOL0     C26198   3.387  11.139   1.743  0.0589 -0.5834 -1.2065
  915MOL0     C26199   3.439  11.191   1.861 -0.0019  0.3047  0.4320
  915MOL0     C26200   3.428  11.099   1.988 -0.4328  0.8860 -0.3796
  915MOL0     H26201   3.835  11.330   2.097 -1.8715 -0.0964 -2.3664
  915MOL0     H26202   4.032  11.421   2.235 -1.3030 -0.3732 -0.0948
  915MOL0     H26203   4.196  11.549   2.376 -0.1734  0.7634 -3.6055
  915MOL0     H26204   4.028  11.575   2.431  1.0087 -0.5808 -1.0978
  915MOL0     H26205   4.218  11.692   2.564 -1.4285 -0.8885  1.9951
  915MOL0     H26206   4.235  11.805   2.437 -2.8722  3.6061  0.7077
  915MOL0     H26207   4.025  11.772   2.631  2.9290  0.9496  0.6690
  915MOL0     H26208   4.079  11.920   2.571 -1.5263 -0.4921  1.1517
  915MOL0     H26209   3.909  11.887   2.372  2.5459  1.6113 -0.4134
  915MOL0     H26210   3.873  11.733   2.455  3.6270 -1.7040  0.5579
  915MOL0     H26211   3.833  12.011   2.576  0.3867 -0.1625 -0.0577
  915MOL0     H26212   3.812  11.851   2.658  1.4346  2.8808  2.5741
  915MOL0     H26213   3.661  11.881   2.404 -0.8153  1.4340 -0.2596
  915MOL0     H26214   3.636  11.791   2.548  1.5825 -0.8404 -0.2014
  915MOL0     H26215   3.475  11.978   2.493  0.5832 -3.1826 -1.1151
  915MOL0     H26216   3.594  12.097   2.532 -3.6482  0.5460 -1.4346
  915MOL0     H26217   3.511  11.878   2.717  4.1166 -0.7309  1.6607
  915MOL0     H26218   3.624  12.014   2.760 -1.2057  0.9957  1.0597
  915MOL0     H26219   3.348  12.024   2.938  0.7067 -2.6593  0.4143
  915MOL0     H26220   3.071  12.247   2.918 -1.5467 -0.4554  0.1982
  915MOL0     H26221   3.083  12.073   2.956 -0.1918 -2.3141 -1.0344
  915MOL0     H26222   2.977  12.194   2.698  1.4151  0.1160  0.5615
  915MOL0     H26223   2.997  12.018   2.728 -1.5738 -0.4379  1.0381
  915MOL0     H26224   2.846  12.003   2.899 -3.4277 -0.8489 -2.2516
  915MOL0     H26225   2.817  12.176   2.899 -2.1260 -0.1707  0.0121
  915MOL0     H26226   2.753  12.152   2.664 -1.8566 -2.1525  0.0058
  915MOL0     H26227   2.736  11.986   2.674  0.3129 -0.3339  0.2592
  915MOL0     H26228   2.675  11.826   2.810  1.3523  0.6758  2.6776
  915MOL0     H26229   2.688  11.618   2.933  0.2170  1.6027  1.2309
  915MOL0     H26230   2.544  11.542   2.866 -0.1782  1.3101 -1.2808
  915MOL0     H26231   2.562  11.576   3.045  0.4102 -0.0422 -0.0406
  915MOL0     H26232   2.317  11.512   3.241 -0.3592 -0.0610 -0.3023
  915MOL0     H26233   2.246  11.307   3.357  0.9742  1.7874 -0.1581
  915MOL0     H26234   2.259  11.088   3.401 -2.2755  0.1785  0.4584
  915MOL0     H26235   2.081  11.063   3.418 -0.6932  0.6138 -0.4040
  915MOL0     H26236   2.086  10.854   3.361  1.2593 -4.9476  0.6664
  915MOL0     H26237   2.262  10.850   3.320 -0.1350 -0.2179  0.3927
  915MOL0     H26238   2.228  10.940   3.598  1.2319  1.5981 -0.7930
  915MOL0     H26239   2.342  10.834   3.529 -0.5541 -1.5892  2.6613
  915MOL0     H26240   2.158  10.664   3.500  2.6303  0.4561 -0.4123
  915MOL0     H26241   2.050  10.776   3.587  0.3358 -1.7288  0.6926
  915MOL0     H26242   2.324  10.679   3.699  0.8806  0.0517 -2.8976
  915MOL0     H26243   2.210  10.776   3.792 -3.4880 -1.8733  1.5030
  915MOL0     H26244   2.193  10.534   3.844  3.3706 -0.1606 -0.7548
  915MOL0     H26245   2.184  10.488   3.669  0.4508  0.5798  0.1270
  915MOL0     H26246   1.953  10.575   3.655  0.6060 -1.1652 -1.2303
  915MOL0     H26247   1.972  10.623   3.826 -0.4121 -1.7181  0.4071
  915MOL0     H26248   1.852  10.412   3.826 -0.3540 -1.7636 -4.8689
  915MOL0     H26249   2.020  10.384   3.896 -1.5270  1.8828  1.8649
  915MOL0     H26250   2.125  11.126   2.983  0.6151 -0.0316 -0.7119
  915MOL0     H26251   2.174  11.345   2.874  0.1084 -1.6688 -0.9937
  915MOL0     H26252   2.242  11.918   3.014 -0.7965 -1.3469 -1.3178
  915MOL0     H26253   2.343  12.096   2.907 -1.3154 -0.0522 -1.0368
  915MOL0     H26254   3.925  11.807   2.095  1.8499  0.3060  0.5757
  915MOL0     H26255   3.740  11.734   1.987 -0.4768  1.9274  2.3944
  915MOL0     H26256   3.528  11.502   1.747  1.8256 -1.2623 -0.4961
  915MOL0     H26257   3.395  11.427   1.562  3.5355 -1.2702 -1.3176
  915MOL0     H26258   3.213  11.018   1.406  0.7053 -0.0842 -0.4738
  915MOL0     H26259   3.305  10.965   1.545 -0.9037  0.4840  3.2456
  915MOL0     H26260   3.115  11.089   1.692  0.6809 -2.1024  0.8367
  915MOL0     H26261   3.072  10.957   1.614 -1.8197  0.7292  0.3823
  915MOL0     H26262   3.018  11.140   1.403 -0.1150  4.3900 -0.9373
  915MOL0     H26263   2.916  11.101   1.545 -0.7744  3.1783  2.0899
  915MOL0     H26264   3.095  11.338   1.522 -0.0964 -0.0728  0.1363
  915MOL0     H26265   3.013  11.283   1.673  1.1672 -1.8913  0.0919
  915MOL0     H26266   2.686  11.455   1.486  0.7586 -0.3389  1.0682
  915MOL0     H26267   3.366  11.033   1.745  0.5860 -0.7546  2.7187
  915MOL0     H26268   3.370  11.149   2.066  1.3164 -1.2180  2.4609
  915MOL0     H26269   3.371  11.009   1.963  0.6979  0.3503 -1.0991
  915MOL0     H26270   3.524  11.077   2.034 -1.7405  0.1180  2.1933
  916MOL0     O26271   9.018   6.542   4.155  0.1643 -0.0374  0.5924
  916MOL0     C26272   9.028   6.456   4.249 -0.4370  0.1689 -0.7837
  916MOL0     O26273   9.148   6.405   4.290  0.2456 -0.3182  0.6778
  916MOL0     C26274   9.266   6.414   4.221  0.1679  1.0108  0.1857
  916MOL0     C26275   9.279   6.414   4.090  0.3728  0.4682  0.5678
  916MOL0     C26276   9.400   6.438   4.024  0.5105 -0.1158  0.7623
  916MOL0     C26277   9.513   6.446   4.095 -0.2337 -0.0913 -0.9077
  916MOL0     O26278   9.635   6.459   4.028 -1.3755  0.2002 -0.3864
  916MOL0     C26279   9.744   6.528   4.092 -0.0235 -0.3941 -0.1414
  916MOL0     C26280   9.829   6.415   4.158  0.3052 -0.6003 -0.0509
  916MOL0     C26281   9.915   6.345   4.045 -0.4416 -0.0863  0.4691
  916MOL0     C26282   9.990   6.236   4.126 -0.4468  0.5566  0.2156
  916MOL0     C26283   9.906   6.140   4.218  0.1583  0.8331 -0.4041
  916MOL0     C26284   9.798   6.071   4.138 -0.0629  0.0649  0.4558
  916MOL0     C26285   9.735   5.979   4.242  0.4076  0.5981  0.5853
  916MOL0     C26286   9.606   5.917   4.177  0.0934  0.1664  0.2406
  916MOL0     N26287   9.630   5.852   4.048 -0.2144  0.6633 -0.1688
  916MOL0     C26288   9.730   5.765   4.008  0.3862  0.2134  0.5828
  916MOL0     C26289   9.688   5.700   3.894 -0.2440 -0.3766  0.9077
  916MOL0     C26290   9.778   5.602   3.823  0.0036 -0.0667  0.6946
  916MOL0     C26291   9.720   5.548   3.688  0.1844 -0.0939  0.3305
  916MOL0     C26292   9.815   5.433   3.644 -0.8008 -0.1424 -0.0141
  916MOL0     C26293   9.753   5.360   3.521 -0.0837  0.0633 -0.0882
  916MOL0     O26294   9.840   5.260   3.473  0.5170  0.2888 -0.5152
  916MOL0     C26295   9.777   5.142   3.437  0.9530  0.0431  0.6591
  916MOL0     C26296   9.642   5.117   3.405  0.1296 -0.5045  0.5162
  916MOL0     C26297   9.591   4.990   3.364  0.0628 -0.7415 -0.6262
  916MOL0     C26298   9.439   4.995   3.338 -0.0667  0.0309  0.5992
  916MOL0     C26299   9.679   4.878   3.353 -0.8060  0.2407 -0.6126
  916MOL0     C26300   9.646   4.753   3.277  0.3434 -1.3932  0.2486
  916MOL0     O26301   9.750   4.663   3.250 -0.9520 -0.4956  1.1489
  916MOL0     C26302   9.726   4.558   3.170  0.6108 -0.2924 -0.1132
  916MOL0     C26303   9.712   4.429   3.223  0.4413 -0.2355  0.3834
  916MOL0     C26304   9.672   4.333   3.131  0.5735  0.0915 -0.7664
  916MOL0     C26305   9.647   4.348   2.996 -0.3855 -0.8039 -1.1454
  916MOL0     O26306   9.604   4.237   2.930 -0.1140 -0.5572 -0.3286
  916MOL0     C26307   9.555   4.245   2.797  0.1870 -0.5134  0.0734
  916MOL0     C26308   9.658   4.177   2.702  0.3225 -0.2802 -0.0413
  916MOL0     C26309   9.607   4.120   2.567  0.1857  0.7058  0.3713
  916MOL0     C26310   9.531   4.227   2.489  1.1199  0.5057 -0.3907
  916MOL0     C26311   9.494   4.170   2.351 -0.0966  0.8609 -1.0426
  916MOL0     C26312   9.614   4.130   2.270  0.0311 -0.0919  1.0443
  916MOL0     C26313   9.712   4.248   2.261 -0.6650  0.4234 -0.0652
  916MOL0     C26314   9.821   4.229   2.156  0.8453 -0.2094 -0.9234
  916MOL0    Cl26315   9.753   4.219   1.997 -0.2489 -0.0665  0.3285
  916MOL0     C26316   9.683   4.474   2.941 -0.1485  0.6450  0.3173
  916MOL0     C26317   9.716   4.578   3.027  0.2723 -0.1857  0.0144
  916MOL0     O26318   9.525   4.730   3.257  0.1665  0.8675  0.2095
  916MOL0     C26319   9.815   4.907   3.375 -0.4012  0.0798  0.3818
  916MOL0     C26320   9.863   5.034   3.421 -0.0436 -0.1024  0.5648
  916MOL0     N26321   9.562   5.756   3.857  0.0537  0.0981 -0.2775
  916MOL0     N26322   9.530   5.835   3.953  0.8325  0.6706  0.0327
  916MOL0     C26323   9.503   6.460   4.232  0.2235  0.1597 -0.1034
  916MOL0     C26324   9.380   6.438   4.297  0.5676 -0.9737 -0.4246
  916MOL0     C26325   8.906   6.382   4.288 -0.1381  1.2173  0.9929
  916MOL0     C26326   8.793   6.408   4.215 -0.9092 -0.5125 -0.3745
  916MOL0     C26327   8.674   6.358   4.257  0.8808  0.2996  0.1712
  916MOL0     C26328   8.652   6.279   4.372 -0.5700  0.1847  0.0440
  916MOL0     O26329   8.518   6.239   4.376 -0.3203 -0.2966 -0.1454
  916MOL0     C26330   8.465   6.139   4.469  0.3428  0.2668 -1.0243
  916MOL0     C26331   8.355   6.201   4.557  0.5226 -0.4147 -0.2794
  916MOL0     C26332   8.293   6.100   4.662 -1.0102 -0.8147  0.1935
  916MOL0     C26333   8.179   6.012   4.607 -0.5633  0.2160 -0.4421
  916MOL0     C26334   8.237   5.881   4.562  0.1020  0.2119 -0.2197
  916MOL0     C26335   8.280   5.779   4.508 -0.3763  0.2952 -1.0575
  916MOL0     C26336   8.773   6.238   4.440  0.2232 -0.2942  0.4113
  916MOL0     C26337   8.897   6.295   4.400 -0.7358 -0.5816 -0.0330
  916MOL0     C26338   9.013   6.275   4.502 -0.5341  0.9965  0.1506
  916MOL0     H26339   9.188   6.420   4.031  0.9190  0.4881 -0.2924
  916MOL0     H26340   9.403   6.458   3.917  0.8134 -3.7283 -0.0330
  916MOL0     H26341   9.718   6.596   4.173  1.5800 -0.9245  0.8532
  916MOL0     H26342   9.803   6.588   4.022  0.1646 -0.8042 -0.3391
  916MOL0     H26343   9.896   6.470   4.224  0.9442  0.9672 -1.9042
  916MOL0     H26344   9.766   6.346   4.215  0.6178 -1.4429 -0.6973
  916MOL0     H26345   9.863   6.310   3.956 -0.4352  1.1679 -0.0521
  916MOL0     H26346   9.988   6.410   3.995  0.0662 -0.8018  0.2667
  916MOL0     H26347  10.037   6.160   4.062  0.5852 -1.2178  2.8828
  916MOL0     H26348  10.065   6.283   4.189 -1.9274  1.2796  1.4879
  916MOL0     H26349   9.861   6.197   4.300  2.4702 -0.3768  1.8020
  916MOL0     H26350   9.968   6.060   4.258 -2.3041 -0.8230  0.3661
  916MOL0     H26351   9.726   6.149   4.114  1.0814  3.0090  5.1607
  916MOL0     H26352   9.838   6.012   4.055 -2.1432  0.5938 -0.9898
  916MOL0     H26353   9.701   6.040   4.325  0.0419  2.9284 -1.1817
  916MOL0     H26354   9.797   5.892   4.266  0.8320  0.7539  0.0888
  916MOL0     H26355   9.569   5.845   4.251  0.8951 -1.0780 -0.5460
  916MOL0     H26356   9.528   5.992   4.161  1.0964  1.5816  1.6290
  916MOL0     H26357   9.820   5.737   4.063 -0.5266  0.6780  2.3915
  916MOL0     H26358   9.794   5.525   3.900 -0.4749  0.4666  1.3421
  916MOL0     H26359   9.873   5.648   3.794 -0.6528  0.2989 -1.0103
  916MOL0     H26360   9.612   5.530   3.693 -0.1852  0.0821 -3.6496
  916MOL0     H26361   9.725   5.633   3.619  0.4838 -1.3852 -1.2759
  916MOL0     H26362   9.915   5.471   3.619 -1.2871  1.9804  1.0175
  916MOL0     H26363   9.829   5.361   3.725 -0.2523 -2.2316 -1.8571
  916MOL0     H26364   9.652   5.329   3.549  0.0775 -0.3876 -0.0016
  916MOL0     H26365   9.743   5.427   3.435  0.6349 -2.0652 -1.9044
  916MOL0     H26366   9.580   5.203   3.428  1.9735  0.5845  1.6331
  916MOL0     H26367   9.386   5.086   3.369  0.6755  1.2677 -1.5304
  916MOL0     H26368   9.399   4.912   3.397 -1.0009 -0.2036 -0.3238
  916MOL0     H26369   9.421   4.971   3.233 -1.7917  0.5057  0.7584
  916MOL0     H26370   9.735   4.412   3.327 -1.9714 -0.4477  0.9558
  916MOL0     H26371   9.652   4.233   3.169  1.5043  0.0461 -0.3581
  916MOL0     H26372   9.458   4.194   2.802 -0.1505  0.1757  3.2116
  916MOL0     H26373   9.531   4.345   2.759 -1.1498 -1.7271 -2.4804
  916MOL0     H26374   9.739   4.249   2.685 -2.2231  2.8470  0.1814
  916MOL0     H26375   9.712   4.098   2.755  0.2363 -1.5102 -1.6929
  916MOL0     H26376   9.553   4.027   2.590 -1.7698  1.8322  0.6205
  916MOL0     H26377   9.704   4.092   2.525  0.1496  2.7064 -1.1842
  916MOL0     H26378   9.581   4.323   2.470 -0.2253  1.5382  1.0564
  916MOL0     H26379   9.444   4.246   2.553  1.1940 -5.1990  2.0290
  916MOL0     H26380   9.446   4.075   2.374 -0.4107  1.5046  1.1866
  916MOL0     H26381   9.424   4.235   2.298  0.1348  2.4648  0.4980
  916MOL0     H26382   9.591   4.111   2.164  1.8598  0.2551  0.5486
  916MOL0     H26383   9.665   4.045   2.315 -2.2675 -1.7497  0.6715
  916MOL0     H26384   9.763   4.262   2.357 -3.7607 -1.4084  2.0446
  916MOL0     H26385   9.657   4.342   2.252 -0.4909  0.7302  1.6738
  916MOL0     H26386   9.877   4.136   2.176  1.8856  0.5034 -0.4371
  916MOL0     H26387   9.898   4.306   2.153  1.8022 -1.1449 -1.2245
  916MOL0     H26388   9.690   4.478   2.833  1.1074  2.3044  0.4056
  916MOL0     H26389   9.727   4.675   2.981 -0.4234 -1.5294 -3.2383
  916MOL0     H26390   9.879   4.822   3.353 -2.7753 -2.1475  1.5378
  916MOL0     H26391   9.967   5.057   3.441  1.3546 -2.4832 -3.0206
  916MOL0     H26392   9.595   6.457   4.290  0.4653 -2.3124 -0.5119
  916MOL0     H26393   9.360   6.443   4.404 -0.0644  1.0040 -0.5861
  916MOL0     H26394   8.784   6.455   4.117  0.2207 -0.1682 -0.3360
  916MOL0     H26395   8.582   6.387   4.206  1.6299 -0.2721 -1.5918
  916MOL0     H26396   8.416   6.059   4.414 -2.2878  0.8653  0.2696
  916MOL0     H26397   8.541   6.089   4.531 -0.1012 -1.4926 -1.8520
  916MOL0     H26398   8.273   6.233   4.493  3.0248  2.3560 -2.3460
  916MOL0     H26399   8.390   6.289   4.611  1.5179  1.1577 -3.2505
  916MOL0     H26400   8.368   6.030   4.700 -0.7357  0.8112  2.9252
  916MOL0     H26401   8.253   6.143   4.755 -1.5799 -4.1148  1.6093
  916MOL0     H26402   8.135   6.060   4.520  2.5135 -2.2898 -3.6984
  916MOL0     H26403   8.109   5.988   4.688 -0.4185  0.5520 -0.2133
  916MOL0     H26404   8.292   5.681   4.467 -0.7258  1.2569 -3.6089
  916MOL0     H26405   8.755   6.173   4.525  1.6733  1.8522  2.4946
  916MOL0     H26406   9.094   6.226   4.447 -1.5181 -0.6586  0.1233
  916MOL0     H26407   9.058   6.368   4.540  0.0285  0.6092  0.4585
  916MOL0     H26408   8.988   6.208   4.585  1.8550 -0.9476 -0.5948
  917MOL0     O26409   7.279   7.398   7.918  0.0545 -0.7404 -0.5818
  917MOL0     C26410   7.298   7.280   7.955 -0.1408  0.6860  0.9837
  917MOL0     O26411   7.380   7.197   7.885 -0.6435 -0.1381 -0.2732
  917MOL0     C26412   7.475   7.239   7.795 -0.0980  1.2820 -0.2525
  917MOL0     C26413   7.519   7.134   7.699 -0.9188 -0.1436 -0.3183
  917MOL0     C26414   7.617   7.170   7.603  1.1552  0.0342 -0.1305
  917MOL0     C26415   7.674   7.296   7.594  0.6055 -0.1403 -0.9980
  917MOL0     O26416   7.770   7.320   7.497  0.2043  0.2748  0.6354
  917MOL0     C26417   7.780   7.458   7.448  0.2573 -0.2433  0.0399
  917MOL0     C26418   7.872   7.467   7.331 -0.2768  0.3771  0.8419
  917MOL0     C26419   7.839   7.370   7.210  0.0233 -0.0167  0.4189
  917MOL0     C26420   7.691   7.362   7.155 -0.7299 -0.4341 -0.8500
  917MOL0     C26421   7.602   7.266   7.229  0.1204  0.4443 -0.0403
  917MOL0     C26422   7.466   7.230   7.158  0.0147 -0.4006  0.0107
  917MOL0     C26423   7.401   7.088   7.212  0.4887 -0.2639  0.2862
  917MOL0     C26424   7.292   7.112   7.325 -0.5377 -0.2204  0.7750
  917MOL0     N26425   7.157   7.141   7.271 -0.6276 -0.2103  0.0463
  917MOL0     C26426   7.125   7.268   7.232  0.4301 -0.2815 -0.6329
  917MOL0     C26427   6.999   7.256   7.175  0.0836  0.5780 -0.4428
  917MOL0     C26428   6.902   7.354   7.117 -0.0982  0.7248  0.3288
  917MOL0     C26429   6.957   7.417   6.987 -0.2350  0.2890  0.2370
  917MOL0     C26430   6.973   7.316   6.873  0.9768  0.2579  0.5570
  917MOL0     C26431   6.988   7.395   6.745 -0.2526 -0.2943  0.0119
  917MOL0     O26432   7.038   7.533   6.760  0.0120 -0.0748  0.2165
  917MOL0     C26433   7.041   7.616   6.649  0.4179 -0.9739  0.4803
  917MOL0     C26434   7.003   7.581   6.522 -1.1124 -0.4940 -0.0306
  917MOL0     C26435   7.014   7.667   6.407 -0.6784  0.2151 -0.2080
  917MOL0     C26436   6.979   7.604   6.268 -0.5021 -0.2279 -0.1920
  917MOL0     C26437   7.072   7.799   6.426 -1.0826  0.2893  0.1457
  917MOL0     C26438   7.093   7.893   6.311  0.0537  0.6281 -0.0753
  917MOL0     O26439   7.140   8.017   6.345  0.4900 -0.3664  0.1920
  917MOL0     C26440   7.192   8.107   6.254  1.0658  0.4508 -0.5160
  917MOL0     C26441   7.234   8.080   6.119  0.1415 -0.6043 -0.3970
  917MOL0     C26442   7.265   8.179   6.032 -0.1258 -0.4050 -0.1619
  917MOL0     C26443   7.259   8.314   6.080 -0.0169  0.4744  0.9559
  917MOL0     O26444   7.277   8.432   6.010 -0.0589 -0.3914 -0.0600
  917MOL0     C26445   7.282   8.413   5.865 -0.0434  0.1331  0.2048
  917MOL0     C26446   7.257   8.547   5.786  0.0976  0.1347  0.0340
  917MOL0     C26447   7.273   8.529   5.626  0.2347  0.0418  0.1467
  917MOL0     C26448   7.172   8.616   5.553 -0.0384  0.2587  0.7745
  917MOL0     C26449   7.032   8.563   5.575  0.9600 -0.7484 -0.3892
  917MOL0     C26450   6.938   8.618   5.467 -0.5643  0.9652 -0.0538
  917MOL0     C26451   6.941   8.767   5.439  0.8372  0.2585 -0.2982
  917MOL0     C26452   6.897   8.857   5.548  0.2502 -0.3019  0.1520
  917MOL0    Cl26453   6.945   9.036   5.525  0.2672 -0.0053  0.1756
  917MOL0     C26454   7.240   8.338   6.207  0.0679  0.1288  0.8709
  917MOL0     C26455   7.197   8.237   6.295  0.7828  0.2603 -0.6678
  917MOL0     O26456   7.062   7.858   6.197  0.4645 -0.0106  0.9513
  917MOL0     C26457   7.106   7.842   6.560  0.7007 -0.4897  0.2637
  917MOL0     C26458   7.092   7.748   6.664  0.8269 -0.6474 -1.3203
  917MOL0     N26459   6.970   7.121   7.185  1.1647 -0.7116 -0.3662
  917MOL0     N26460   7.065   7.052   7.238 -1.2369 -0.2407 -0.0146
  917MOL0     C26461   7.638   7.394   7.699 -0.3601  0.1700  0.4488
  917MOL0     C26462   7.546   7.364   7.793  0.8101  0.9247  0.3086
  917MOL0     C26463   7.226   7.209   8.056 -0.9118 -0.7482 -0.1770
  917MOL0     C26464   7.230   7.066   8.064 -0.6194 -0.6095 -0.3471
  917MOL0     C26465   7.177   6.991   8.168  0.4174 -0.2966  0.3596
  917MOL0     C26466   7.103   7.056   8.266  0.7125  0.2956 -0.6622
  917MOL0     O26467   7.042   6.983   8.366 -0.0193  1.1995  0.6934
  917MOL0     C26468   6.934   7.044   8.433  1.3204 -0.4873 -0.0083
  917MOL0     C26469   6.823   6.943   8.474 -0.2673 -0.9308  0.0669
  917MOL0     C26470   6.865   6.856   8.599  0.1779 -0.1685 -0.2357
  917MOL0     C26471   6.796   6.718   8.601  0.2611  0.4519  0.5836
  917MOL0     C26472   6.830   6.628   8.490  0.4235  0.8016  0.5628
  917MOL0     C26473   6.851   6.538   8.412 -1.0840 -0.2918 -0.2949
  917MOL0     C26474   7.120   7.196   8.263 -0.2337 -0.0935  0.0223
  917MOL0     C26475   7.159   7.278   8.159 -0.2060 -0.3124 -0.5613
  917MOL0     C26476   7.149   7.427   8.170  0.6947  0.2439  0.0208
  917MOL0     H26477   7.491   7.032   7.720 -2.4960  0.4694  0.7531
  917MOL0     H26478   7.661   7.092   7.542  0.7314 -1.4881  1.4183
  917MOL0     H26479   7.823   7.526   7.522 -0.4009  1.7419 -1.3095
  917MOL0     H26480   7.681   7.492   7.416  0.8399 -0.6074 -2.3690
  917MOL0     H26481   7.867   7.568   7.290  4.0037  0.7738  0.8610
  917MOL0     H26482   7.974   7.444   7.363 -1.0855 -0.0945  3.3641
  917MOL0     H26483   7.896   7.404   7.124  0.8898  0.9600  1.3532
  917MOL0     H26484   7.882   7.271   7.227 -1.5344 -1.3340 -2.5764
  917MOL0     H26485   7.657   7.465   7.141  0.2502  0.0256 -0.0040
  917MOL0     H26486   7.693   7.318   7.055  0.9709 -2.4955  0.0156
  917MOL0     H26487   7.575   7.304   7.328  1.4260  2.1645 -0.3016
  917MOL0     H26488   7.649   7.170   7.251  0.3234 -0.1667 -2.7943
  917MOL0     H26489   7.398   7.315   7.170 -1.2119 -1.3781  0.3464
  917MOL0     H26490   7.487   7.224   7.051  1.3388  0.5058  0.2030
  917MOL0     H26491   7.481   7.022   7.247 -1.5302 -1.6389  2.6567
  917MOL0     H26492   7.348   7.031   7.134  0.3792 -2.7855  2.1044
  917MOL0     H26493   7.278   7.016   7.375 -1.5630  0.1906  1.3211
  917MOL0     H26494   7.334   7.183   7.397  3.9095 -0.6632 -1.0555
  917MOL0     H26495   7.175   7.364   7.240 -0.9886  0.3785  0.9898
  917MOL0     H26496   6.870   7.427   7.191  0.5304 -0.4873  1.8419
  917MOL0     H26497   6.810   7.303   7.087 -0.4154  1.4640  0.0346
  917MOL0     H26498   6.891   7.498   6.953 -0.9376  0.0589  1.0154
  917MOL0     H26499   7.055   7.457   7.014  1.3429 -2.9259 -0.2736
  917MOL0     H26500   7.062   7.254   6.879  1.0143  0.2408 -0.0639
  917MOL0     H26501   6.888   7.246   6.871 -0.7645  2.2258 -1.6202
  917MOL0     H26502   7.055   7.352   6.670 -2.1317 -0.3559 -1.7222
  917MOL0     H26503   6.886   7.390   6.705 -0.3089 -1.5634  0.2526
  917MOL0     H26504   6.962   7.482   6.503 -0.0639 -0.8326 -0.6058
  917MOL0     H26505   6.882   7.651   6.249 -1.5210 -1.1928  2.2284
  917MOL0     H26506   6.972   7.494   6.267 -0.9788 -0.2826 -3.8540
  917MOL0     H26507   7.050   7.616   6.186 -1.5158 -1.9316 -1.3893
  917MOL0     H26508   7.227   7.984   6.069  2.0384  0.0626 -2.0986
  917MOL0     H26509   7.293   8.157   5.929 -0.2724  1.1394 -0.5637
  917MOL0     H26510   7.371   8.356   5.837 -1.1350 -2.2810  1.3423
  917MOL0     H26511   7.197   8.351   5.834  0.9608 -1.9997  1.5126
  917MOL0     H26512   7.154   8.575   5.811  0.2805  1.9257 -1.0430
  917MOL0     H26513   7.311   8.629   5.835 -0.1796 -0.6807  1.7621
  917MOL0     H26514   7.255   8.425   5.597 -5.3955  0.9359 -0.8788
  917MOL0     H26515   7.374   8.561   5.601 -0.5964  1.2546 -1.9509
  917MOL0     H26516   7.180   8.619   5.444  0.8453  0.4666  0.8315
  917MOL0     H26517   7.174   8.720   5.587 -3.4488  1.1057 -1.2141
  917MOL0     H26518   7.042   8.454   5.571 -0.2348 -0.8460 -1.7260
  917MOL0     H26519   6.991   8.594   5.672  2.2512  2.4815 -0.7618
  917MOL0     H26520   6.835   8.589   5.488 -1.1047  0.4360 -2.9876
  917MOL0     H26521   6.956   8.566   5.373  0.7384  0.0994  0.6477
  917MOL0     H26522   6.874   8.762   5.353  2.4904  0.1922 -1.6426
  917MOL0     H26523   7.044   8.798   5.417  1.8381 -2.8956 -0.4828
  917MOL0     H26524   6.957   8.839   5.637  0.8332  1.0323  0.0487
  917MOL0     H26525   6.789   8.847   5.560  0.3014  0.3586  1.2874
  917MOL0     H26526   7.247   8.444   6.232  0.8478  0.1275  0.6997
  917MOL0     H26527   7.160   8.266   6.392 -2.1886 -0.6003 -1.4505
  917MOL0     H26528   7.154   7.938   6.576  1.9399 -0.7504 -1.5882
  917MOL0     H26529   7.121   7.780   6.763  1.9776 -3.6340 -0.5863
  917MOL0     H26530   7.703   7.480   7.707  0.7998 -0.6905  0.4491
  917MOL0     H26531   7.524   7.435   7.872 -0.8987 -0.7316  1.4080
  917MOL0     H26532   7.285   7.008   7.991  1.4363  1.3893 -0.5249
  917MOL0     H26533   7.192   6.884   8.163  2.6727 -0.0421  0.6225
  917MOL0     H26534   6.961   7.110   8.517  0.1120  1.5010 -1.0826
  917MOL0     H26535   6.891   7.110   8.356  0.1450 -2.4277 -1.0815
  917MOL0     H26536   6.788   6.876   8.395  0.9578 -1.5916  0.0608
  917MOL0     H26537   6.746   7.012   8.508  0.3069 -0.9676  1.4944
  917MOL0     H26538   6.974   6.850   8.591 -0.0094 -2.4615 -2.9005
  917MOL0     H26539   6.857   6.894   8.701  2.9561 -5.7965  2.5373
  917MOL0     H26540   6.688   6.732   8.610 -0.3524 -3.3430  0.6519
  917MOL0     H26541   6.820   6.665   8.694  0.7946  1.2094  0.8900
  917MOL0     H26542   6.897   6.456   8.362  1.2098  2.8832 -3.9567
  917MOL0     H26543   7.089   7.247   8.354 -2.0068  1.0798 -1.1811
  917MOL0     H26544   7.086   7.457   8.254  1.0117  1.4585 -0.1611
  917MOL0     H26545   7.249   7.464   8.193 -0.1882  1.2661  2.5187
  917MOL0     H26546   7.110   7.486   8.086  1.0040  2.3222  1.2789
  918MOL0     O26547   7.015   7.380  11.155 -0.1428  0.1351  0.4454
  918MOL0     C26548   7.013   7.389  11.029 -0.0647  0.3208 -0.2502
  918MOL0     O26549   7.083   7.484  10.952 -0.2836 -0.5240 -0.2327
  918MOL0     C26550   7.198   7.529  11.009  0.2408 -0.1220  0.0244
  918MOL0     C26551   7.283   7.463  11.100 -0.3263  0.1830  0.5979
  918MOL0     C26552   7.407   7.507  11.130 -0.0370 -0.4303  0.4070
  918MOL0     C26553   7.454   7.628  11.073  0.0945 -0.4062  0.7310
  918MOL0     O26554   7.582   7.678  11.085 -1.0883  0.1614 -0.3991
  918MOL0     C26555   7.657   7.650  11.210  0.7373 -0.4604  0.5307
  918MOL0     C26556   7.792   7.723  11.220  0.0866  0.0098 -0.1357
  918MOL0     C26557   7.899   7.632  11.276 -0.1794  0.1667  0.2477
  918MOL0     C26558   8.041   7.713  11.295  0.1390 -0.7447  0.4448
  918MOL0     C26559   8.127   7.633  11.394 -0.9903  0.1373 -0.0481
  918MOL0     C26560   8.082   7.667  11.546 -0.6361  0.6618  0.1706
  918MOL0     C26561   8.198   7.626  11.629 -0.8807 -1.0878  0.1724
  918MOL0     C26562   8.188   7.495  11.694  0.0317 -0.3029  0.3468
  918MOL0     N26563   8.150   7.492  11.836 -0.3130 -0.6978  0.6264
  918MOL0     C26564   8.034   7.522  11.898 -0.3708  0.0117 -0.0675
  918MOL0     C26565   8.044   7.501  12.035 -0.5913  0.4410  0.6841
  918MOL0     C26566   7.922   7.516  12.113  0.2887 -0.8349 -0.9331
  918MOL0     C26567   7.946   7.469  12.264 -0.2018 -0.3755 -0.0852
  918MOL0     C26568   8.038   7.556  12.351  0.1822 -0.2812 -0.9652
  918MOL0     C26569   7.980   7.694  12.377  0.3373  0.7676  0.6146
  918MOL0     O26570   8.043   7.738  12.502  0.1752  0.1742 -0.1606
  918MOL0     C26571   8.048   7.877  12.517  0.8916 -0.7403  0.3273
  918MOL0     C26572   7.996   7.971  12.434 -0.8775 -0.5471  0.2774
  918MOL0     C26573   8.005   8.102  12.463  0.5345  0.0987  0.8804
  918MOL0     C26574   7.998   8.198  12.346 -0.0360 -0.4519 -0.0977
  918MOL0     C26575   8.054   8.145  12.591 -0.0107 -0.7962 -0.4614
  918MOL0     C26576   8.052   8.282  12.649 -0.5234  0.4412 -0.0090
  918MOL0     O26577   8.069   8.294  12.785  0.7544  0.0608 -0.0468
  918MOL0     C26578   8.063   8.420  12.839 -0.3975  0.0056 -0.5033
  918MOL0     C26579   8.184   8.479  12.873  0.1339 -0.0634  0.3017
  918MOL0     C26580   8.181   8.604  12.931  0.3350  0.2383  1.0477
  918MOL0     C26581   8.065   8.686  12.954  0.5142  0.5691  0.0235
  918MOL0     O26582   8.066   8.810  13.021 -0.9085  1.1225  0.0486
  918MOL0     C26583   8.194   8.877  13.027 -0.1893 -0.3090  0.6951
  918MOL0     C26584   8.180   8.988  13.121  0.8216 -0.8703 -0.2210
  918MOL0     C26585   8.299   9.086  13.095  0.8082  0.5815  0.4873
  918MOL0     C26586   8.291   9.209  13.170 -0.4231 -1.0901 -0.6705
  918MOL0     C26587   8.152   9.281  13.162  0.2076 -0.5465 -0.1419
  918MOL0     C26588   8.109   9.314  13.022  0.0098 -0.1243 -0.2315
  918MOL0     C26589   8.202   9.401  12.942 -0.4764  0.2159  0.5588
  918MOL0     C26590   8.134   9.512  12.852 -0.6217 -0.0364 -0.6742
  918MOL0    Cl26591   8.027   9.435  12.735  0.3927 -0.4435  0.1688
  918MOL0     C26592   7.949   8.628  12.919  0.0007 -0.6923 -0.6585
  918MOL0     C26593   7.947   8.498  12.868 -0.2478  0.6824  0.1296
  918MOL0     O26594   8.031   8.374  12.575 -0.3973 -0.2575  0.7354
  918MOL0     C26595   8.109   8.048  12.679 -0.2366  0.2894 -0.0093
  918MOL0     C26596   8.104   7.916  12.643  0.1485  1.3383 -0.1183
  918MOL0     N26597   8.176   7.477  12.050 -0.1502 -0.5490 -0.6121
  918MOL0     N26598   8.237   7.481  11.943 -0.7393  0.3591  0.0125
  918MOL0     C26599   7.379   7.693  10.975  1.2301 -0.4619  0.3714
  918MOL0     C26600   7.250   7.646  10.948  0.2073 -0.1376  0.2791
  918MOL0     C26601   6.925   7.309  10.957 -0.5666 -0.1334 -0.1555
  918MOL0     C26602   6.795   7.329  10.970  0.4166  0.0719 -0.2482
  918MOL0     C26603   6.707   7.224  10.937 -0.4638 -1.2215 -0.7940
  918MOL0     C26604   6.748   7.116  10.857  0.2455  0.1670  0.2379
  918MOL0     O26605   6.655   7.012  10.836 -0.5544 -0.5101 -0.4315
  918MOL0     C26606   6.702   6.887  10.785  1.1532  1.6520  1.0996
  918MOL0     C26607   6.598   6.776  10.790  0.1900 -0.3123 -0.3597
  918MOL0     C26608   6.494   6.767  10.903 -0.0646  0.1644 -0.0239
  918MOL0     C26609   6.569   6.723  11.030 -0.6705 -0.0688  0.3418
  918MOL0     C26610   6.462   6.711  11.130  0.6988 -0.7963 -0.2663
  918MOL0     C26611   6.378   6.674  11.211  0.0743 -0.0463 -0.2486
  918MOL0     C26612   6.876   7.116  10.824  0.0056  0.3335 -0.1479
  918MOL0     C26613   6.974   7.206  10.876  1.0735 -0.3161  0.7008
  918MOL0     C26614   7.127   7.178  10.857  0.7033 -0.2967 -0.6852
  918MOL0     H26615   7.258   7.363  11.134 -0.4335 -0.1427 -0.4196
  918MOL0     H26616   7.463   7.450  11.204 -1.4959  0.7713  2.5511
  918MOL0     H26617   7.680   7.543  11.214 -1.6237 -1.1447 -1.6406
  918MOL0     H26618   7.591   7.678  11.292  0.0496 -2.9154  0.9110
  918MOL0     H26619   7.815   7.754  11.118  1.9549  0.0721  0.2649
  918MOL0     H26620   7.791   7.808  11.289  1.1001 -0.7230  0.8206
  918MOL0     H26621   7.870   7.586  11.371  0.3849 -0.5763  0.0650
  918MOL0     H26622   7.915   7.554  11.202  0.2890 -2.3213  2.8258
  918MOL0     H26623   8.102   7.714  11.204 -1.2851 -0.6642 -0.5398
  918MOL0     H26624   8.020   7.815  11.327  0.8567 -1.0095  1.8474
  918MOL0     H26625   8.221   7.689  11.383 -2.2798  3.0534  2.3739
  918MOL0     H26626   8.139   7.526  11.375 -2.6307 -0.6339  2.6141
  918MOL0     H26627   8.052   7.772  11.558 -2.0303  0.3715 -0.6332
  918MOL0     H26628   7.992   7.608  11.562 -0.5167  0.3591 -0.2668
  918MOL0     H26629   8.186   7.708  11.699  0.3138  0.6764 -1.5631
  918MOL0     H26630   8.289   7.642  11.571 -1.0240  2.5738  0.7452
  918MOL0     H26631   8.124   7.431  11.633  0.7598 -1.5344  0.8478
  918MOL0     H26632   8.290   7.456  11.693  1.7962  3.6383  1.9250
  918MOL0     H26633   7.935   7.530  11.854 -0.6386  1.6384  0.7580
  918MOL0     H26634   7.838   7.462  12.070 -0.8439  0.7847 -0.8434
  918MOL0     H26635   7.888   7.620  12.112  0.3412 -0.7809  0.6519
  918MOL0     H26636   7.843   7.452  12.297  0.1048 -0.1886  1.0000
  918MOL0     H26637   7.989   7.369  12.264 -0.4373 -0.5383 -2.5572
  918MOL0     H26638   8.038   7.502  12.447 -1.9377  1.5094  0.1452
  918MOL0     H26639   8.140   7.556  12.311 -0.1328  0.0973 -1.7736
  918MOL0     H26640   8.017   7.748  12.290 -0.4836 -1.9006 -1.5269
  918MOL0     H26641   7.871   7.705  12.382  0.3217  0.1368  3.1567
  918MOL0     H26642   7.950   7.952  12.337 -0.7685  0.2408  0.0674
  918MOL0     H26643   8.086   8.261  12.328 -0.2519 -0.3242 -0.7516
  918MOL0     H26644   7.912   8.263  12.364 -1.0927 -1.8643  0.0537
  918MOL0     H26645   7.976   8.155  12.248 -1.1583 -0.4850  0.1539
  918MOL0     H26646   8.274   8.425  12.846 -1.3512 -3.0279  0.7573
  918MOL0     H26647   8.272   8.642  12.976 -0.5433  0.8865  2.3029
  918MOL0     H26648   8.279   8.817  13.062  0.3911 -0.7741 -1.3883
  918MOL0     H26649   8.221   8.907  12.925  1.5947 -1.3727  0.7974
  918MOL0     H26650   8.080   9.026  13.099  0.2651 -2.5515 -0.7457
  918MOL0     H26651   8.187   8.951  13.223  3.9756  1.2538  0.4796
  918MOL0     H26652   8.301   9.106  12.988 -0.4602  2.1310  0.7186
  918MOL0     H26653   8.390   9.032  13.121  1.1159  0.8138 -0.1021
  918MOL0     H26654   8.370   9.265  13.120 -2.0746 -0.0942 -2.2989
  918MOL0     H26655   8.328   9.187  13.270  4.8790  0.4223 -1.9485
  918MOL0     H26656   8.079   9.207  13.198 -0.7292 -1.5423 -3.6541
  918MOL0     H26657   8.154   9.374  13.219  2.9153 -0.3616 -0.4096
  918MOL0     H26658   8.020   9.373  13.045  0.7232  1.0719 -0.4797
  918MOL0     H26659   8.080   9.242  12.945  0.2862  0.8074 -1.2290
  918MOL0     H26660   8.255   9.338  12.871  2.0449  4.2809 -1.5628
  918MOL0     H26661   8.281   9.445  13.002 -0.6058 -0.0143  0.9002
  918MOL0     H26662   8.217   9.572  12.813 -0.9568  0.9615  0.1219
  918MOL0     H26663   8.079   9.586  12.910  0.4097  0.8029 -0.7268
  918MOL0     H26664   7.860   8.687  12.934  1.1443  0.5177  1.9717
  918MOL0     H26665   7.854   8.448  12.845  0.8068 -1.4375  0.2400
  918MOL0     H26666   8.138   8.062  12.783 -0.6863 -2.3564  0.5594
  918MOL0     H26667   8.126   7.845  12.723 -0.7668 -0.9762 -1.8328
  918MOL0     H26668   7.413   7.781  10.923  0.0137 -1.8148 -3.0332
  918MOL0     H26669   7.184   7.680  10.868 -0.8327 -1.7722  0.3877
  918MOL0     H26670   6.759   7.416  11.024 -3.3873 -1.8551  0.6335
  918MOL0     H26671   6.602   7.227  10.962 -0.4249 -0.0781 -0.7477
  918MOL0     H26672   6.741   6.918  10.688  0.7569  2.1711  1.1023
  918MOL0     H26673   6.779   6.841  10.847 -0.7295 -2.1878  0.8914
  918MOL0     H26674   6.646   6.678  10.784  1.7824  0.1160  2.9461
  918MOL0     H26675   6.545   6.793  10.696 -0.1728  0.9250  0.0560
  918MOL0     H26676   6.458   6.869  10.919  1.4033  0.4903  1.4615
  918MOL0     H26677   6.419   6.691  10.881  1.2565 -1.3493  0.5052
  918MOL0     H26678   6.647   6.798  11.047 -1.7504  1.5635 -1.4312
  918MOL0     H26679   6.616   6.625  11.023  1.4816  0.9432 -0.0932
  918MOL0     H26680   6.296   6.640  11.270  0.4194 -2.5820 -1.1015
  918MOL0     H26681   6.911   7.032  10.765  1.4218  2.0040 -1.8164
  918MOL0     H26682   7.185   7.177  10.951  2.0547  0.0921 -1.4868
  918MOL0     H26683   7.143   7.076  10.822  2.5785 -0.7834  1.3103
  918MOL0     H26684   7.170   7.246  10.784 -1.7816  0.0466 -1.9231
  919MOL0     O26685   6.132   5.983   3.029  0.1805  0.5089  0.4852
  919MOL0     C26686   6.219   6.066   3.052  0.3491 -0.1815  0.7623
  919MOL0     O26687   6.327   6.089   2.980  0.2332 -0.2598  0.2152
  919MOL0     C26688   6.335   5.996   2.888 -0.2329  0.8396  0.0413
  919MOL0     C26689   6.284   6.000   2.760  1.0191  0.0388  0.4201
  919MOL0     C26690   6.308   5.890   2.669  0.2052 -1.3378  0.2321
  919MOL0     C26691   6.401   5.791   2.713 -0.0098  0.0888 -0.1606
  919MOL0     O26692   6.425   5.688   2.621  0.2968 -0.0230 -0.1784
  919MOL0     C26693   6.550   5.625   2.610 -1.2663  0.2330  1.1265
  919MOL0     C26694   6.543   5.493   2.546  0.9887 -0.4141  0.7710
  919MOL0     C26695   6.517   5.360   2.616  0.1988  0.0922 -0.3718
  919MOL0     C26696   6.380   5.361   2.692  0.0831 -0.2512 -0.6665
  919MOL0     C26697   6.368   5.229   2.772 -0.1034 -0.5935  0.0544
  919MOL0     C26698   6.261   5.131   2.715  0.6404 -0.2105 -0.3758
  919MOL0     C26699   6.296   5.056   2.582 -0.8507  0.0001  0.5670
  919MOL0     C26700   6.168   5.000   2.523  0.6537  0.1508 -0.3603
  919MOL0     N26701   6.195   4.899   2.424  0.3298 -0.0242 -0.0087
  919MOL0     C26702   6.204   4.764   2.455 -0.2839 -0.2273  0.5660
  919MOL0     C26703   6.244   4.702   2.331  0.5187 -0.4009 -1.1292
  919MOL0     C26704   6.294   4.564   2.333 -0.7057  0.6380  0.1182
  919MOL0     C26705   6.425   4.555   2.246  0.0087  0.5163  1.1175
  919MOL0     C26706   6.558   4.559   2.323  0.9947  0.1646  0.6336
  919MOL0     C26707   6.685   4.521   2.259  0.4120 -0.1469  0.9594
  919MOL0     O26708   6.770   4.481   2.367 -0.6735 -0.3095 -0.4159
  919MOL0     C26709   6.889   4.426   2.342 -0.1239  0.8547  0.6064
  919MOL0     C26710   6.965   4.388   2.454  0.4339 -0.2389 -0.3609
  919MOL0     C26711   7.088   4.329   2.443  0.2089 -0.4685 -0.5414
  919MOL0     C26712   7.144   4.312   2.575 -0.7285  0.6213 -0.1289
  919MOL0     C26713   7.145   4.291   2.321  0.6099 -0.8471  0.5886
  919MOL0     C26714   7.268   4.212   2.309  0.3340 -0.4741  0.5007
  919MOL0     O26715   7.298   4.123   2.407 -0.4684 -0.1427  0.4452
  919MOL0     C26716   7.402   4.038   2.371 -0.4386  0.6572  0.0412
  919MOL0     C26717   7.380   3.903   2.335  0.1037 -0.8788  0.0476
  919MOL0     C26718   7.489   3.810   2.319  0.2445  0.6578  0.0200
  919MOL0     C26719   7.620   3.854   2.348 -0.3335 -0.3472  0.6759
  919MOL0     O26720   7.726   3.757   2.348  1.4026  0.1153  0.3279
  919MOL0     C26721   7.862   3.790   2.395  0.2251  0.0862 -0.6141
  919MOL0     C26722   7.932   3.653   2.378 -0.5263 -0.2516  0.0936
  919MOL0     C26723   8.057   3.646   2.469  0.3558 -0.1967  0.5903
  919MOL0     C26724   8.081   3.503   2.528  0.0962 -0.3530 -0.3267
  919MOL0     C26725   7.977   3.457   2.626  0.9092  0.3709  0.7732
  919MOL0     C26726   7.982   3.310   2.678  0.7708  0.1731 -0.3457
  919MOL0     C26727   7.911   3.305   2.820 -0.0004  0.7239 -1.0684
  919MOL0     C26728   7.803   3.196   2.842  0.3678  0.5665  0.8458
  919MOL0    Cl26729   7.733   3.222   3.009  0.2226  0.4387  0.4864
  919MOL0     C26730   7.639   3.985   2.375  0.2840 -0.1369  0.3106
  919MOL0     C26731   7.531   4.075   2.390 -0.4878  0.3665 -0.8167
  919MOL0     O26732   7.337   4.233   2.210 -0.5231 -0.4837  0.5682
  919MOL0     C26733   7.075   4.336   2.207  0.0288 -0.5033 -0.5613
  919MOL0     C26734   6.952   4.404   2.215  0.6707 -0.3041 -1.0538
  919MOL0     N26735   6.243   4.795   2.235 -0.4577 -0.2099 -0.1975
  919MOL0     N26736   6.217   4.912   2.290 -0.3750  0.1455  0.7383
  919MOL0     C26737   6.458   5.789   2.838 -0.3146 -0.4639  0.2899
  919MOL0     C26738   6.427   5.895   2.928 -0.6782  0.3939  0.4033
  919MOL0     C26739   6.179   6.178   3.144  0.7389  0.9455  0.0060
  919MOL0     C26740   6.057   6.247   3.127 -0.5534 -0.6387 -0.4989
  919MOL0     C26741   6.011   6.351   3.205 -0.7063 -0.0895 -0.0735
  919MOL0     C26742   6.102   6.393   3.312  0.9003  0.5760  0.5363
  919MOL0     O26743   6.045   6.491   3.393 -0.9246  0.1850  0.7457
  919MOL0     C26744   6.137   6.560   3.472  0.9403 -0.5343  0.4295
  919MOL0     C26745   6.090   6.706   3.502  0.2060 -0.3463  0.0266
  919MOL0     C26746   6.136   6.820   3.400  0.9149 -1.0014  0.0670
  919MOL0     C26747   6.061   6.780   3.267 -0.1155 -0.6293  0.1048
  919MOL0     C26748   6.069   6.880   3.170 -1.5496 -1.0047  0.4116
  919MOL0     C26749   6.085   6.962   3.075  0.2198 -1.2519 -0.4092
  919MOL0     C26750   6.222   6.324   3.333 -0.2843 -0.6506 -0.1273
  919MOL0     C26751   6.263   6.214   3.250 -0.5723  0.1722  0.8563
  919MOL0     C26752   6.382   6.124   3.274  0.2022  0.2996 -0.3153
  919MOL0     H26753   6.222   6.083   2.725  2.2202  0.2863 -1.2424
  919MOL0     H26754   6.258   5.885   2.573 -0.6723  1.5873  0.4252
  919MOL0     H26755   6.600   5.618   2.708  1.5389  1.6394 -0.0780
  919MOL0     H26756   6.623   5.693   2.563  1.3537 -0.5842  3.6754
  919MOL0     H26757   6.462   5.507   2.473  1.0031 -3.2348  0.1158
  919MOL0     H26758   6.636   5.476   2.491 -1.0703  0.8040 -3.5224
  919MOL0     H26759   6.512   5.278   2.544 -2.7880 -0.6256  0.5216
  919MOL0     H26760   6.605   5.342   2.678  3.3871  4.4436 -3.0450
  919MOL0     H26761   6.385   5.451   2.753  2.1886 -0.5784 -0.2672
  919MOL0     H26762   6.297   5.364   2.621  0.0954  0.5148 -0.6561
  919MOL0     H26763   6.336   5.244   2.875 -0.1382  0.9565 -0.1586
  919MOL0     H26764   6.466   5.181   2.771  0.0005 -0.4340 -1.7367
  919MOL0     H26765   6.244   5.060   2.796  0.2096  0.3748  0.0616
  919MOL0     H26766   6.163   5.181   2.708 -0.9344 -3.0843 -0.3927
  919MOL0     H26767   6.365   4.977   2.616 -1.3785 -0.0828  1.4834
  919MOL0     H26768   6.362   5.112   2.516  0.6176  0.5372  2.3781
  919MOL0     H26769   6.091   4.970   2.594 -0.7033  5.1176  0.6255
  919MOL0     H26770   6.127   5.086   2.468  0.1790  1.3203  1.7333
  919MOL0     H26771   6.216   4.713   2.551  1.0222  0.7859  0.9662
  919MOL0     H26772   6.221   4.508   2.275 -2.1116  1.8991  0.5984
  919MOL0     H26773   6.305   4.525   2.435 -1.3650  2.4834  0.9465
  919MOL0     H26774   6.433   4.454   2.205  3.6751 -0.0569  2.7787
  919MOL0     H26775   6.420   4.628   2.165 -2.2737  1.8406  2.3347
  919MOL0     H26776   6.573   4.662   2.359 -1.6095 -0.2189  3.0820
  919MOL0     H26777   6.545   4.492   2.408  1.9230  1.5804  1.9598
  919MOL0     H26778   6.666   4.446   2.182 -3.4555  0.3601  1.2252
  919MOL0     H26779   6.726   4.604   2.201 -1.3901  0.3388  0.3177
  919MOL0     H26780   6.911   4.420   2.542 -2.3464  0.4163 -2.1867
  919MOL0     H26781   7.240   4.363   2.582 -0.5519  0.6312 -2.1272
  919MOL0     H26782   7.159   4.205   2.593 -0.0659  0.7534  0.1363
  919MOL0     H26783   7.091   4.362   2.657  2.6089  0.7464  2.1776
  919MOL0     H26784   7.278   3.873   2.314 -1.0467  1.2439  2.1822
  919MOL0     H26785   7.463   3.705   2.309  0.4128  0.6388 -0.2385
  919MOL0     H26786   7.918   3.861   2.335 -0.0212  0.8026 -0.0185
  919MOL0     H26787   7.855   3.813   2.502 -1.6229 -2.6301 -0.0087
  919MOL0     H26788   7.856   3.574   2.385 -4.4922  2.6823 -3.9738
  919MOL0     H26789   7.968   3.645   2.275  2.1749 -0.2765  0.9655
  919MOL0     H26790   8.048   3.714   2.554 -2.3061  0.4637 -0.1331
  919MOL0     H26791   8.139   3.685   2.409 -0.8551  3.9823  1.3280
  919MOL0     H26792   8.179   3.501   2.577 -0.4285 -2.2969  0.7436
  919MOL0     H26793   8.080   3.442   2.438  1.2702 -1.2913  0.2691
  919MOL0     H26794   7.966   3.524   2.712 -0.0155  0.5038  0.5636
  919MOL0     H26795   7.879   3.466   2.577  0.2853 -1.3306  1.6357
  919MOL0     H26796   8.082   3.272   2.699  1.0735  1.4913  0.7665
  919MOL0     H26797   7.942   3.238   2.606  1.0279 -0.9962  0.6608
  919MOL0     H26798   7.860   3.398   2.848 -0.7490 -0.1509  0.5570
  919MOL0     H26799   7.997   3.293   2.886 -0.1093 -0.1490 -1.0723
  919MOL0     H26800   7.837   3.092   2.837  2.6862  1.2998 -1.9348
  919MOL0     H26801   7.728   3.196   2.762  1.1546 -0.5659  0.0797
  919MOL0     H26802   7.733   4.031   2.404  0.9156  1.5603 -3.7862
  919MOL0     H26803   7.549   4.179   2.413  1.1400 -0.3397  1.4761
  919MOL0     H26804   7.116   4.321   2.108 -0.8410 -0.5698 -0.9261
  919MOL0     H26805   6.904   4.438   2.124  1.9086  0.9373 -1.2796
  919MOL0     H26806   6.543   5.730   2.873  3.0732  2.1814 -2.6711
  919MOL0     H26807   6.466   5.900   3.029 -0.8590  2.0970  0.4265
  919MOL0     H26808   5.990   6.213   3.049 -2.3086  1.3873  0.0424
  919MOL0     H26809   5.906   6.376   3.198 -0.5978 -0.1390 -4.4252
  919MOL0     H26810   6.141   6.504   3.566 -2.2457 -2.5135 -0.4487
  919MOL0     H26811   6.234   6.549   3.422 -1.0402  1.6898 -4.4545
  919MOL0     H26812   6.143   6.725   3.596  1.5128 -0.6291 -0.6270
  919MOL0     H26813   5.982   6.699   3.518  0.3160  0.1884  1.1630
  919MOL0     H26814   6.098   6.911   3.447  0.6865 -1.9087  1.7243
  919MOL0     H26815   6.238   6.835   3.362  0.5741 -1.4393 -1.0450
  919MOL0     H26816   5.955   6.760   3.289 -0.1408  0.8868  1.5676
  919MOL0     H26817   6.110   6.701   3.211  0.7893 -0.5187  0.7176
  919MOL0     H26818   6.126   7.030   3.003  1.8403  0.9237  2.3294
  919MOL0     H26819   6.284   6.347   3.419  0.4651  2.2552 -1.3379
  919MOL0     H26820   6.436   6.172   3.356  1.1098  0.1934 -0.8379
  919MOL0     H26821   6.345   6.026   3.304  2.3468 -0.8444 -1.2330
  919MOL0     H26822   6.454   6.103   3.194  0.5629 -3.1513  0.7818
  920MOL0     O26823   5.482   6.654   3.817 -0.0967 -1.2397  0.5519
  920MOL0     C26824   5.501   6.779   3.822  0.0989  0.6723 -0.2636
  920MOL0     O26825   5.549   6.856   3.719  0.8773  0.2069  0.0814
  920MOL0     C26826   5.540   6.794   3.596  0.0101 -0.3506  0.1821
  920MOL0     C26827   5.418   6.778   3.517  0.0505  0.0116  0.4527
  920MOL0     C26828   5.421   6.709   3.399  0.3926 -0.0418 -0.1391
  920MOL0     C26829   5.541   6.654   3.356  0.0127  0.7611  0.3339
  920MOL0     O26830   5.553   6.585   3.236 -0.0419 -0.0024 -0.0267
  920MOL0     C26831   5.437   6.544   3.155  0.4359 -0.1147  0.0019
  920MOL0     C26832   5.485   6.473   3.025 -0.7563 -1.0682  0.5316
  920MOL0     C26833   5.550   6.566   2.919 -0.1547 -0.3996 -0.0435
  920MOL0     C26834   5.632   6.479   2.824 -0.7764 -0.6932 -1.1871
  920MOL0     C26835   5.684   6.569   2.707 -0.4677  0.4198 -0.0396
  920MOL0     C26836   5.752   6.475   2.601  1.1585 -0.0770  0.1036
  920MOL0     C26837   5.676   6.358   2.558  0.3986 -0.3181  0.3907
  920MOL0     C26838   5.535   6.386   2.498 -0.0612  0.2536 -0.6954
  920MOL0     N26839   5.545   6.452   2.373 -0.3813 -0.0506  0.0366
  920MOL0     C26840   5.538   6.585   2.358  0.8860  0.0650  0.7314
  920MOL0     C26841   5.533   6.601   2.221 -0.5368 -0.8794  0.5435
  920MOL0     C26842   5.508   6.740   2.169  0.5102 -0.2147 -0.0421
  920MOL0     C26843   5.612   6.782   2.071  0.4337  0.4058 -0.4155
  920MOL0     C26844   5.578   6.900   1.976 -0.2102 -0.2832  0.0207
  920MOL0     C26845   5.577   7.030   2.055  0.3714  0.1638  0.0983
  920MOL0     O26846   5.445   7.053   2.101  0.1474 -0.0997 -0.0745
  920MOL0     C26847   5.425   7.148   2.196  0.4712 -0.1550  0.1805
  920MOL0     C26848   5.519   7.233   2.239  0.0399  0.1386 -0.0241
  920MOL0     C26849   5.500   7.316   2.357 -0.1743 -0.5578  0.4656
  920MOL0     C26850   5.626   7.376   2.419  0.1270  0.8405 -0.5763
  920MOL0     C26851   5.367   7.338   2.407  0.4134 -0.6022 -0.2356
  920MOL0     C26852   5.327   7.417   2.522  0.7227 -0.0493 -1.1214
  920MOL0     O26853   5.221   7.508   2.508  0.1476 -0.8613  0.7250
  920MOL0     C26854   5.185   7.612   2.601  0.2842  0.2079  0.7847
  920MOL0     C26855   5.262   7.642   2.715  0.3012 -0.8455  0.9501
  920MOL0     C26856   5.211   7.732   2.811 -0.4208 -0.1180  0.0312
  920MOL0     C26857   5.097   7.805   2.787 -0.2202  0.1563  1.0119
  920MOL0     O26858   5.056   7.891   2.886 -0.0491  0.5372 -0.1070
  920MOL0     C26859   4.987   8.006   2.844  0.2029  0.2554 -0.0451
  920MOL0     C26860   4.976   8.104   2.959  0.3011 -0.4505 -0.5471
  920MOL0     C26861   4.920   8.231   2.901  0.1047 -0.1949 -0.3933
  920MOL0     C26862   4.868   8.324   3.004 -0.2488  0.1926 -0.0620
  920MOL0     C26863   4.882   8.480   2.972  0.0447  0.2691 -0.0869
  920MOL0     C26864   5.031   8.525   2.981  0.8155 -1.4328  0.4121
  920MOL0     C26865   5.060   8.670   2.928 -0.4912  0.4154 -0.1826
  920MOL0     C26866   4.941   8.766   2.943  0.2225 -0.2240 -0.2820
  920MOL0    Cl26867   4.984   8.938   2.908  0.3731 -0.0354  0.4190
  920MOL0     C26868   5.014   7.776   2.668  0.1467 -0.5805  0.1660
  920MOL0     C26869   5.067   7.676   2.582 -0.9728 -0.3105  0.4145
  920MOL0     O26870   5.384   7.390   2.626  0.3611  0.3563  0.1387
  920MOL0     C26871   5.259   7.268   2.340 -0.1204  1.5226 -0.2834
  920MOL0     C26872   5.299   7.165   2.244  0.0582 -0.4896 -0.2442
  920MOL0     N26873   5.551   6.484   2.156 -0.2570 -0.4916  0.7166
  920MOL0     N26874   5.575   6.390   2.251  0.3425 -0.1105  0.1878
  920MOL0     C26875   5.660   6.679   3.425  0.2793 -0.2492 -0.7827
  920MOL0     C26876   5.660   6.736   3.548  0.2770  0.6271 -0.2319
  920MOL0     C26877   5.443   6.856   3.927 -0.0479 -0.4902 -0.6497
  920MOL0     C26878   5.373   6.976   3.908 -0.6281  0.4354  0.3156
  920MOL0     C26879   5.325   7.055   4.014  0.0724  0.1735  0.3349
  920MOL0     C26880   5.349   7.009   4.147  0.1253  0.3557  0.4652
  920MOL0     O26881   5.303   7.072   4.257 -0.2117 -0.3114  0.5862
  920MOL0     C26882   5.217   7.191   4.247  1.0240  0.5098 -0.7209
  920MOL0     C26883   5.178   7.241   4.387  0.0163  0.0151 -0.0489
  920MOL0     C26884   5.086   7.362   4.388  0.0034  0.7600 -0.6569
  920MOL0     C26885   5.036   7.395   4.521 -0.8964 -0.6916 -0.5555
  920MOL0     C26886   5.121   7.392   4.642 -0.1813 -0.7512  0.3356
  920MOL0     C26887   5.195   7.374   4.734 -0.3598  0.3089  0.1648
  920MOL0     C26888   5.421   6.892   4.175 -0.5899  0.0280 -0.4191
  920MOL0     C26889   5.469   6.816   4.066  0.6640 -0.6123 -0.5913
  920MOL0     C26890   5.566   6.711   4.116  0.4589  0.4495 -0.4870
  920MOL0     H26891   5.325   6.823   3.552  1.2530  3.0975 -0.0151
  920MOL0     H26892   5.323   6.695   3.356  0.0874 -3.4165  1.3751
  920MOL0     H26893   5.378   6.635   3.135  1.2038  1.0174  2.3972
  920MOL0     H26894   5.380   6.466   3.207  2.5847 -3.0283 -1.7636
  920MOL0     H26895   5.557   6.393   3.045  0.9316 -1.2638 -4.7652
  920MOL0     H26896   5.402   6.418   2.980  1.1281 -2.6250 -1.2511
  920MOL0     H26897   5.469   6.620   2.868  0.1813 -1.1172 -1.3620
  920MOL0     H26898   5.607   6.630   2.987 -3.4477  0.1866  2.4137
  920MOL0     H26899   5.714   6.425   2.870  0.5806  0.8436 -1.7186
  920MOL0     H26900   5.562   6.404   2.784 -0.9561 -0.7313 -0.8053
  920MOL0     H26901   5.757   6.642   2.743 -1.8507  0.7837  2.1593
  920MOL0     H26902   5.593   6.607   2.660 -0.2774  0.3052 -0.5060
  920MOL0     H26903   5.790   6.538   2.520  0.9456 -1.8128 -1.4023
  920MOL0     H26904   5.845   6.434   2.640  0.9283 -0.5210  0.1969
  920MOL0     H26905   5.662   6.287   2.640 -0.1985 -1.4261 -0.6403
  920MOL0     H26906   5.741   6.314   2.482  2.5468  1.8593  0.8263
  920MOL0     H26907   5.487   6.288   2.500 -3.2952  1.6365  3.6887
  920MOL0     H26908   5.471   6.453   2.556  0.6723  0.6720 -0.3562
  920MOL0     H26909   5.552   6.668   2.427 -1.2231  0.1409  1.1235
  920MOL0     H26910   5.507   6.819   2.246 -1.0260 -0.4789  0.2483
  920MOL0     H26911   5.414   6.749   2.114  1.1549  0.2479 -1.0934
  920MOL0     H26912   5.714   6.795   2.110  0.2782 -1.1101  0.5606
  920MOL0     H26913   5.607   6.694   2.006 -1.4909 -0.5681  0.9669
  920MOL0     H26914   5.659   6.912   1.904  0.2716  3.7706  0.9872
  920MOL0     H26915   5.480   6.878   1.932  0.3475  0.6319 -1.7733
  920MOL0     H26916   5.654   7.026   2.133 -0.6875  1.1466  1.2382
  920MOL0     H26917   5.609   7.097   1.975  0.1990  0.6186  0.4064
  920MOL0     H26918   5.619   7.227   2.197  0.2425  0.4412  0.4134
  920MOL0     H26919   5.653   7.335   2.517 -1.4819 -3.4075 -1.6452
  920MOL0     H26920   5.606   7.483   2.410 -1.3195  0.5396 -1.2300
  920MOL0     H26921   5.718   7.360   2.362  0.4817  0.3407  0.1230
  920MOL0     H26922   5.362   7.602   2.729  1.5646  0.9205 -2.0868
  920MOL0     H26923   5.274   7.755   2.897 -0.7054 -1.8631  0.7691
  920MOL0     H26924   5.035   8.046   2.753  1.4248 -2.4880 -0.6996
  920MOL0     H26925   4.893   7.972   2.799 -0.8728  1.6669  1.0100
  920MOL0     H26926   4.914   8.063   3.039  1.3794 -2.9506 -0.8735
  920MOL0     H26927   5.073   8.109   3.009 -1.3667 -0.3290  2.9768
  920MOL0     H26928   4.831   8.213   2.840  0.0163  0.6920 -0.5365
  920MOL0     H26929   5.008   8.268   2.847  0.6119  0.2228  0.6915
  920MOL0     H26930   4.920   8.282   3.090 -1.1068  2.2559  1.5587
  920MOL0     H26931   4.761   8.302   3.014  0.2644 -2.6100 -0.0363
  920MOL0     H26932   4.838   8.495   2.873 -1.8597 -1.6389  0.3756
  920MOL0     H26933   4.825   8.536   3.047  1.5830  2.0068 -0.1516
  920MOL0     H26934   5.093   8.459   2.920  0.5963  0.9368 -2.6256
  920MOL0     H26935   5.066   8.517   3.085  2.2985  3.4488  0.5696
  920MOL0     H26936   5.080   8.657   2.821 -1.1320  0.9311 -0.3732
  920MOL0     H26937   5.153   8.705   2.973  0.3623 -0.3461 -1.3183
  920MOL0     H26938   4.899   8.762   3.044 -1.6201 -1.9534 -1.0481
  920MOL0     H26939   4.850   8.739   2.888 -0.5977 -0.7684  1.2914
  920MOL0     H26940   4.913   7.812   2.650 -0.8242 -1.8916  2.5159
  920MOL0     H26941   4.997   7.654   2.502  1.0142  0.8810 -1.7810
  920MOL0     H26942   5.152   7.284   2.348 -0.0614  1.0435  2.9203
  920MOL0     H26943   5.222   7.100   2.203  0.5222 -1.0384 -0.2547
  920MOL0     H26944   5.761   6.664   3.389  1.9871  4.2483  1.3643
  920MOL0     H26945   5.749   6.746   3.608  1.0313 -2.7319 -0.6213
  920MOL0     H26946   5.352   7.012   3.808 -3.2196 -2.7071 -0.4369
  920MOL0     H26947   5.257   7.131   3.976 -0.1373  1.0669  2.3448
  920MOL0     H26948   5.282   7.263   4.197 -0.3253  1.8782 -0.5648
  920MOL0     H26949   5.123   7.179   4.192  1.0317  0.5623 -0.7453
  920MOL0     H26950   5.265   7.252   4.452 -0.8767 -3.4815  2.0462
  920MOL0     H26951   5.131   7.153   4.432 -0.2303  1.6913  3.2896
  920MOL0     H26952   5.151   7.443   4.355  1.8246 -0.2016  0.4295
  920MOL0     H26953   5.005   7.346   4.316 -2.7266  1.6805  2.0129
  920MOL0     H26954   4.945   7.336   4.539 -3.2314  3.1933  1.8351
  920MOL0     H26955   4.993   7.496   4.518  0.0061 -0.2797  0.0626
  920MOL0     H26956   5.279   7.354   4.798 -0.8662  1.8809  1.3987
  920MOL0     H26957   5.449   6.874   4.278  1.4305  2.8952 -0.3333
  920MOL0     H26958   5.632   6.675   4.037 -1.6351 -0.4576 -1.9010
  920MOL0     H26959   5.634   6.765   4.183  0.5166  3.1088 -2.5216
  920MOL0     H26960   5.514   6.631   4.170 -1.7929  0.8727 -1.8909
  921MOL0     O26961   7.693   2.352   4.432 -1.0635 -0.3078  0.0563
  921MOL0     C26962   7.633   2.320   4.528 -0.2249  0.0286 -1.3291
  921MOL0     O26963   7.505   2.360   4.561 -0.5585 -1.2475 -0.2357
  921MOL0     C26964   7.450   2.463   4.496 -0.4826 -0.3367 -0.1304
  921MOL0     C26965   7.451   2.469   4.353  0.5672  0.4652  0.1230
  921MOL0     C26966   7.375   2.563   4.284  0.2025  0.4438 -0.8062
  921MOL0     C26967   7.312   2.654   4.363 -0.4494 -0.9227  0.5827
  921MOL0     O26968   7.223   2.755   4.317 -0.4284 -0.0190 -0.4721
  921MOL0     C26969   7.239   2.812   4.182  0.2950 -0.2594 -0.5674
  921MOL0     C26970   7.136   2.926   4.166  0.4682 -0.5360  0.4270
  921MOL0     C26971   6.989   2.876   4.189 -0.7789 -0.1417  0.0013
  921MOL0     C26972   6.890   2.985   4.211  0.9534  0.9248  0.0696
  921MOL0     C26973   6.747   2.925   4.173  0.0445  0.1864  0.0909
  921MOL0     C26974   6.721   2.933   4.026  1.0644  0.7381 -0.2432
  921MOL0     C26975   6.564   2.929   4.000  0.2120 -0.2367  0.0741
  921MOL0     C26976   6.528   2.994   3.870 -0.3508  0.2731  0.3526
  921MOL0     N26977   6.535   3.141   3.861 -0.2158  1.0700 -0.5474
  921MOL0     C26978   6.480   3.222   3.952  0.2530 -0.2921 -0.2345
  921MOL0     C26979   6.490   3.342   3.903  0.2049  0.8218  0.9576
  921MOL0     C26980   6.464   3.476   3.973  0.2452  0.0008 -0.5424
  921MOL0     C26981   6.455   3.586   3.871  0.7963 -0.6005  0.7126
  921MOL0     C26982   6.393   3.715   3.928  0.0451 -0.9834 -0.1784
  921MOL0     C26983   6.429   3.836   3.840  1.3721 -0.8480 -0.0625
  921MOL0     O26984   6.569   3.866   3.837 -0.1887  0.7555  0.5894
  921MOL0     C26985   6.617   3.907   3.957 -0.6365  0.2024 -0.1529
  921MOL0     C26986   6.695   3.812   4.040  0.3068 -0.8467  0.2320
  921MOL0     C26987   6.765   3.868   4.151  0.6251 -0.0544 -0.2658
  921MOL0     C26988   6.864   3.771   4.224 -0.4286 -0.7110  0.5436
  921MOL0     C26989   6.746   4.004   4.193 -0.4063 -0.0021 -0.3328
  921MOL0     C26990   6.817   4.080   4.305 -0.2026  0.8855 -0.1653
  921MOL0     O26991   6.767   4.192   4.351 -0.1541 -0.0884  0.8744
  921MOL0     C26992   6.857   4.283   4.371  0.7279 -0.6393  0.5366
  921MOL0     C26993   6.922   4.295   4.489 -0.1941 -0.2780 -0.5448
  921MOL0     C26994   7.001   4.417   4.509  0.5948 -0.1140 -0.5940
  921MOL0     C26995   7.006   4.514   4.423  0.8254  0.1403 -0.3415
  921MOL0     O26996   7.069   4.634   4.453 -0.3778  0.2112  0.4291
  921MOL0     C26997   7.058   4.747   4.362 -0.5770  0.2292  0.0847
  921MOL0     C26998   7.117   4.869   4.415 -0.2746  0.2953  0.0067
  921MOL0     C26999   7.059   4.903   4.549 -1.1157  0.1303  0.2955
  921MOL0     C27000   7.127   5.039   4.592 -0.5018  0.0576 -1.2161
  921MOL0     C27001   7.069   5.154   4.513 -0.2342 -0.6987 -0.2522
  921MOL0     C27002   6.913   5.173   4.522  0.9973  0.1352  0.3208
  921MOL0     C27003   6.855   5.165   4.669  0.1527 -0.3361 -0.1387
  921MOL0     C27004   6.711   5.161   4.664  0.8651  0.7495 -1.7627
  921MOL0    Cl27005   6.651   5.289   4.562 -0.2375  0.2084  0.0098
  921MOL0     C27006   6.948   4.493   4.298 -0.6306 -0.0156  0.1919
  921MOL0     C27007   6.870   4.378   4.274 -0.8257 -0.7380  0.3744
  921MOL0     O27008   6.918   4.033   4.355  0.2731  0.6417 -0.5043
  921MOL0     C27009   6.664   4.090   4.107 -0.4137 -0.8966  0.9709
  921MOL0     C27010   6.607   4.037   3.993 -0.7089 -0.2192 -0.1190
  921MOL0     N27011   6.542   3.327   3.777 -0.5063 -0.5960  0.2892
  921MOL0     N27012   6.577   3.211   3.756  0.2661 -0.1635  0.2154
  921MOL0     C27013   7.314   2.660   4.500  0.2332 -0.0380  0.1810
  921MOL0     C27014   7.390   2.563   4.569  0.1743 -0.4178 -0.8216
  921MOL0     C27015   7.713   2.244   4.635  0.1100  0.5051 -0.2040
  921MOL0     C27016   7.658   2.239   4.766 -0.8804  0.7694  0.4264
  921MOL0     C27017   7.706   2.166   4.867 -0.2856  0.6008  0.4493
  921MOL0     C27018   7.821   2.083   4.848  0.4040  1.0520  0.0406
  921MOL0     O27019   7.887   2.025   4.954  0.3111  0.6875 -0.0487
  921MOL0     C27020   7.824   2.014   5.079  0.3118  0.6728  0.9333
  921MOL0     C27021   7.883   1.918   5.174  0.4737  0.7098 -0.6635
  921MOL0     C27022   7.831   1.935   5.323  0.0961  0.2392  0.9797
  921MOL0     C27023   7.824   1.790   5.397 -0.1380 -0.2493 -0.3801
  921MOL0     C27024   7.945   1.763   5.484  0.2787 -0.3474 -0.5522
  921MOL0     C27025   8.032   1.732   5.560 -0.3084 -0.3938 -0.5667
  921MOL0     C27026   7.876   2.087   4.713 -0.5189 -0.0244 -0.7999
  921MOL0     C27027   7.823   2.156   4.605  0.1311  0.5968  0.3007
  921MOL0     C27028   7.884   2.129   4.466 -0.2036 -0.2907  0.1150
  921MOL0     H27029   7.501   2.392   4.295  5.7717  2.3008  1.6219
  921MOL0     H27030   7.367   2.573   4.177 -3.8978 -0.6210 -0.8040
  921MOL0     H27031   7.233   2.737   4.102 -2.0868 -0.8502  0.0945
  921MOL0     H27032   7.341   2.849   4.167  0.3726  0.6289  1.7306
  921MOL0     H27033   7.145   3.002   4.244  1.2378  1.5521 -1.5706
  921MOL0     H27034   7.143   2.968   4.065 -1.3810  1.6244  1.1057
  921MOL0     H27035   6.964   2.824   4.096  1.3575 -1.8956  0.3395
  921MOL0     H27036   6.991   2.803   4.270  3.0343 -1.5548 -1.1844
  921MOL0     H27037   6.890   3.022   4.314 -1.4106  5.3279 -1.2685
  921MOL0     H27038   6.902   3.070   4.143 -0.4444  1.7410  0.8083
  921MOL0     H27039   6.680   2.991   4.230 -0.1819 -0.4844  0.6101
  921MOL0     H27040   6.733   2.820   4.200 -1.7150  0.2495 -0.4373
  921MOL0     H27041   6.763   3.026   3.986  0.8620  1.0481  0.2577
  921MOL0     H27042   6.759   2.842   3.977 -1.1331 -1.6620  2.2038
  921MOL0     H27043   6.510   2.976   4.083  2.6256 -1.1548  2.2973
  921MOL0     H27044   6.522   2.828   4.002 -2.0755  0.6455 -0.3185
  921MOL0     H27045   6.587   2.945   3.791  0.8708  1.8365  0.2530
  921MOL0     H27046   6.421   2.977   3.853 -0.7327  2.5871  0.1866
  921MOL0     H27047   6.440   3.200   4.050 -1.4087 -2.4022 -1.2772
  921MOL0     H27048   6.547   3.498   4.041 -1.3673 -0.8158  1.8186
  921MOL0     H27049   6.369   3.464   4.026 -1.0623 -3.0262 -3.2409
  921MOL0     H27050   6.553   3.599   3.824  0.9128 -1.1057  0.8115
  921MOL0     H27051   6.388   3.548   3.794  2.4832  0.3767 -1.3139
  921MOL0     H27052   6.285   3.700   3.921 -0.3413 -1.4569  3.9656
  921MOL0     H27053   6.415   3.739   4.033  2.1892  2.2026 -1.1880
  921MOL0     H27054   6.409   3.810   3.735  3.0881 -0.6784 -0.4711
  921MOL0     H27055   6.373   3.923   3.874  1.9173  0.2115 -1.7428
  921MOL0     H27056   6.712   3.714   3.997 -1.7559 -1.3479  0.4465
  921MOL0     H27057   6.867   3.787   4.332 -1.9129 -2.5325  0.9220
  921MOL0     H27058   6.961   3.785   4.177  0.6453 -1.9067  2.3167
  921MOL0     H27059   6.833   3.668   4.203 -5.4193  0.9641 -1.9921
  921MOL0     H27060   6.892   4.225   4.565  1.0063  1.8059  2.0111
  921MOL0     H27061   7.031   4.427   4.613 -1.6453  1.2597 -0.0302
  921MOL0     H27062   7.107   4.737   4.265 -0.1526  3.4047 -0.1314
  921MOL0     H27063   6.953   4.772   4.341  0.2164  2.4029 -1.7404
  921MOL0     H27064   7.225   4.857   4.428 -0.4613 -1.2845  0.2079
  921MOL0     H27065   7.105   4.956   4.348  2.2207  0.7552  0.0625
  921MOL0     H27066   7.087   4.827   4.622 -0.1504 -1.5175 -1.6990
  921MOL0     H27067   6.949   4.908   4.552 -1.1390  0.5059 -0.7943
  921MOL0     H27068   7.235   5.041   4.573  0.0702  0.0241  1.7019
  921MOL0     H27069   7.115   5.057   4.699 -2.5742 -0.6073 -1.2921
  921MOL0     H27070   7.120   5.247   4.536 -1.9604  1.3440 -3.8167
  921MOL0     H27071   7.086   5.136   4.406 -1.3166 -3.8298 -0.0243
  921MOL0     H27072   6.867   5.102   4.454  1.9859 -2.5246  2.2618
  921MOL0     H27073   6.907   5.276   4.486  1.5860 -0.1951 -0.7563
  921MOL0     H27074   6.892   5.256   4.719  1.5983  0.3048 -2.2425
  921MOL0     H27075   6.901   5.085   4.727 -1.8763 -0.0649  1.9920
  921MOL0     H27076   6.667   5.169   4.764 -1.0478 -1.8520 -2.3037
  921MOL0     H27077   6.679   5.063   4.627 -3.2132 -0.3285  3.4575
  921MOL0     H27078   6.963   4.565   4.218 -1.8589 -0.6601 -0.6554
  921MOL0     H27079   6.839   4.368   4.171  4.1804 -3.9220 -1.1518
  921MOL0     H27080   6.657   4.198   4.119  3.4421 -0.6457  2.6032
  921MOL0     H27081   6.569   4.091   3.907  0.1392 -4.3020 -3.3615
  921MOL0     H27082   7.270   2.743   4.555  0.9488  1.4830 -1.4436
  921MOL0     H27083   7.389   2.550   4.677 -4.4817 -3.5788 -0.9684
  921MOL0     H27084   7.564   2.293   4.779 -1.2332 -0.2851  2.5207
  921MOL0     H27085   7.668   2.170   4.969  2.1954 -0.0327  1.4755
  921MOL0     H27086   7.831   2.117   5.113 -0.8009  1.1370 -0.1719
  921MOL0     H27087   7.718   1.985   5.071  0.8126 -2.2817  3.1580
  921MOL0     H27088   7.992   1.925   5.186  0.6442 -1.3242 -0.7315
  921MOL0     H27089   7.868   1.818   5.132  1.4484 -0.0021  0.5903
  921MOL0     H27090   7.895   2.001   5.382  3.5307  0.4919 -2.6081
  921MOL0     H27091   7.725   1.960   5.310  0.0689 -0.1398  0.4273
  921MOL0     H27092   7.821   1.698   5.338 -0.6485 -0.6317  0.2240
  921MOL0     H27093   7.734   1.781   5.459 -0.4061  4.2324  0.1999
  921MOL0     H27094   8.089   1.709   5.647 -2.0278 -3.6850 -0.1442
  921MOL0     H27095   7.972   2.037   4.707 -0.2182  0.6259 -1.6472
  921MOL0     H27096   7.966   2.057   4.462 -1.1979 -1.5635  1.5423
  921MOL0     H27097   7.803   2.091   4.404 -1.5170  1.7960  0.4432
  921MOL0     H27098   7.908   2.226   4.422 -2.7609 -0.0906 -0.9724
  922MOL0     O27099  10.969   3.137   4.427 -0.0242  0.6075 -0.5113
  922MOL0     C27100  10.976   3.189   4.533  0.2270  0.7534  0.1930
  922MOL0     O27101  10.884   3.176   4.636  0.5949  0.0593 -0.0725
  922MOL0     C27102  10.763   3.135   4.609  0.2373  0.0667  0.0187
  922MOL0     C27103  10.684   3.198   4.515  0.7110 -0.7362  0.0498
  922MOL0     C27104  10.557   3.155   4.483  0.0212  0.2050  1.3031
  922MOL0     C27105  10.496   3.051   4.549  0.2653 -0.8362  0.7824
  922MOL0     O27106  10.364   3.026   4.514 -0.7957  0.1313 -0.3230
  922MOL0     C27107  10.298   2.909   4.560  0.1035 -0.3733  0.0391
  922MOL0     C27108  10.167   2.884   4.482  0.3105 -0.2011 -0.8128
  922MOL0     C27109  10.185   2.865   4.333  0.4938  0.1941 -0.6143
  922MOL0     C27110  10.252   2.722   4.319  0.8096 -0.6291  0.1991
  922MOL0     C27111  10.227   2.644   4.183  0.4489 -0.6911 -0.5095
  922MOL0     C27112  10.086   2.634   4.147 -0.2937 -1.6332 -0.0955
  922MOL0     C27113  10.039   2.514   4.062  0.9489 -0.8512  0.7472
  922MOL0     C27114   9.882   2.502   4.068 -0.9706 -0.8987  0.3054
  922MOL0     N27115   9.842   2.409   3.964  0.0933 -0.9147 -0.4779
  922MOL0     C27116   9.847   2.268   3.964  0.3715  0.1527 -0.6920
  922MOL0     C27117   9.793   2.225   3.847  0.2327  0.3354 -1.1294
  922MOL0     C27118   9.781   2.077   3.816  0.3499 -0.0945  0.2483
  922MOL0     C27119   9.894   2.029   3.733  1.0025 -0.5041  0.3577
  922MOL0     C27120   9.896   1.877   3.736  0.0874  0.2991  0.0486
  922MOL0     C27121  10.018   1.809   3.664  0.2725 -0.1121  0.2772
  922MOL0     O27122  10.143   1.830   3.739  0.1041  0.4708 -0.5490
  922MOL0     C27123  10.235   1.728   3.750  0.6120 -0.3476 -0.7788
  922MOL0     C27124  10.229   1.628   3.850  0.1709 -0.4674 -0.9345
  922MOL0     C27125  10.318   1.520   3.838  0.4795 -0.1505 -0.7901
  922MOL0     C27126  10.298   1.404   3.931  0.5291  0.2470 -0.5240
  922MOL0     C27127  10.417   1.517   3.738 -0.4263  0.5725 -0.1006
  922MOL0     C27128  10.511   1.404   3.713 -0.4120  0.0375 -0.2626
  922MOL0     O27129  10.545   1.366   3.581 -0.0553 -0.5381  0.1528
  922MOL0     C27130  10.460   1.401   3.480 -1.1743  0.6688 -0.2366
  922MOL0     C27131  10.527   1.454   3.367  0.1373  0.7495 -0.2044
  922MOL0     C27132  10.453   1.480   3.253 -0.6253 -0.6222  0.5302
  922MOL0     C27133  10.312   1.482   3.250 -1.0219  0.3553  0.2358
  922MOL0     O27134  10.229   1.511   3.143  0.3287 -0.1402  0.8079
  922MOL0     C27135  10.286   1.600   3.038  0.2686 -0.2133  0.3676
  922MOL0     C27136  10.187   1.650   2.940  0.3683 -0.5047  0.5673
  922MOL0     C27137  10.157   1.547   2.843 -0.1106 -0.0500  0.1750
  922MOL0     C27138  10.184   1.574   2.693 -0.2657  0.8873  0.1271
  922MOL0     C27139  10.130   1.467   2.601  0.4201  1.0178  0.0818
  922MOL0     C27140  10.182   1.466   2.449  0.0546  0.9783 -0.8033
  922MOL0     C27141  10.109   1.348   2.362 -0.3768  0.0618 -0.1583
  922MOL0     C27142  10.144   1.340   2.212 -0.6930 -0.5899  0.1528
  922MOL0    Cl27143  10.325   1.319   2.206 -0.4738  0.1264 -0.1323
  922MOL0     C27144  10.253   1.440   3.367  0.0022  0.6630  0.0305
  922MOL0     C27145  10.328   1.390   3.477 -0.2463 -0.7460  0.1224
  922MOL0     O27146  10.549   1.344   3.812 -0.5471 -0.4431 -0.4320
  922MOL0     C27147  10.433   1.630   3.649 -0.3714 -0.4830  0.4155
  922MOL0     C27148  10.333   1.727   3.656 -1.0151 -0.2438  0.0344
  922MOL0     N27149   9.752   2.330   3.769 -0.0367  0.7184 -0.9282
  922MOL0     N27150   9.787   2.432   3.838  0.2804  0.7402  0.2033
  922MOL0     C27151  10.580   2.985   4.647 -0.2205 -0.2373 -1.0687
  922MOL0     C27152  10.711   3.021   4.679 -0.8491 -0.1879 -0.3536
  922MOL0     C27153  11.097   3.274   4.567  0.0229  0.9472 -0.5117
  922MOL0     C27154  11.092   3.365   4.673 -0.4373 -0.7683 -0.4547
  922MOL0     C27155  11.198   3.448   4.705 -0.4001 -0.7981  0.7698
  922MOL0     C27156  11.315   3.451   4.628  0.3096  0.7019 -0.4366
  922MOL0     O27157  11.417   3.538   4.659  0.6012 -1.3530  0.0808
  922MOL0     C27158  11.403   3.663   4.600 -0.3191 -0.3306  0.3337
  922MOL0     C27159  11.507   3.711   4.499 -0.4280 -0.0408 -0.4517
  922MOL0     C27160  11.505   3.622   4.372 -0.2137  0.5027 -0.9339
  922MOL0     C27161  11.568   3.691   4.253  0.8865 -0.3498 -1.3380
  922MOL0     C27162  11.539   3.623   4.132 -0.7351 -0.2967 -0.4207
  922MOL0     C27163  11.497   3.581   4.030  0.0848  0.4377  0.1021
  922MOL0     C27164  11.324   3.364   4.532  0.6781  0.0592  0.0240
  922MOL0     C27165  11.219   3.276   4.493 -0.3678  0.1459  0.2188
  922MOL0     C27166  11.251   3.191   4.383 -0.1984 -0.6417  0.4291
  922MOL0     H27167  10.720   3.286   4.463 -1.3178 -0.6065 -1.2677
  922MOL0     H27168  10.510   3.215   4.405 -1.1178 -2.1063  0.1265
  922MOL0     H27169  10.275   2.923   4.666 -0.7919  1.9099 -0.4135
  922MOL0     H27170  10.369   2.825   4.556  1.3046  0.3837  2.8642
  922MOL0     H27171  10.108   2.799   4.519  0.4810 -0.7176 -1.7201
  922MOL0     H27172  10.112   2.975   4.509 -0.2807 -1.2206  1.7726
  922MOL0     H27173  10.105   2.894   4.264  3.0017  2.4568 -2.8304
  922MOL0     H27174  10.255   2.944   4.303  0.3833  1.3492  1.9570
  922MOL0     H27175  10.360   2.728   4.328  0.6220  0.2083  2.2884
  922MOL0     H27176  10.213   2.660   4.399  1.5407 -2.6904 -0.9651
  922MOL0     H27177  10.278   2.550   4.203  0.5545  0.0096  3.4735
  922MOL0     H27178  10.279   2.692   4.100  2.0478  2.0595  1.8908
  922MOL0     H27179  10.035   2.633   4.244  2.1130  0.7609  1.3266
  922MOL0     H27180  10.061   2.728   4.098  4.8500  0.2187  0.2199
  922MOL0     H27181  10.084   2.423   4.100  0.5740 -1.5457 -0.4154
  922MOL0     H27182  10.072   2.530   3.958 -1.3075  1.1671  0.2487
  922MOL0     H27183   9.847   2.473   4.168  1.2197  0.2256  1.4619
  922MOL0     H27184   9.846   2.603   4.046  1.5836  0.4434  1.8651
  922MOL0     H27185   9.894   2.201   4.035  1.5404  2.2791  0.6830
  922MOL0     H27186   9.690   2.062   3.758  0.9744  0.4098 -0.9136
  922MOL0     H27187   9.779   2.034   3.917 -0.6875 -0.1655  0.2037
  922MOL0     H27188   9.870   2.060   3.631  0.3258  1.7161  1.1222
  922MOL0     H27189   9.982   2.069   3.786  1.4345 -1.7920  0.6374
  922MOL0     H27190   9.903   1.835   3.837 -0.3665 -2.3060 -0.9296
  922MOL0     H27191   9.802   1.852   3.685  0.5072  2.6402 -2.0812
  922MOL0     H27192  10.011   1.702   3.644 -1.9606 -0.7278  3.5418
  922MOL0     H27193  10.021   1.849   3.562  1.2466 -5.2193 -2.0141
  922MOL0     H27194  10.169   1.642   3.940  0.1000 -0.2360 -1.0174
  922MOL0     H27195  10.226   1.429   4.009  1.5413  2.2752 -0.1789
  922MOL0     H27196  10.394   1.384   3.979  0.3054  1.2523  0.3644
  922MOL0     H27197  10.265   1.314   3.878  0.9256  0.9597 -2.0378
  922MOL0     H27198  10.633   1.451   3.343  0.2654 -0.9897  0.4591
  922MOL0     H27199  10.504   1.503   3.160  0.3548  0.3855  1.2926
  922MOL0     H27200  10.313   1.695   3.083  1.6021 -0.9134  1.0994
  922MOL0     H27201  10.376   1.561   2.991  0.2235  1.0075 -0.7814
  922MOL0     H27202  10.105   1.685   3.003  0.7943 -0.7089  1.2475
  922MOL0     H27203  10.239   1.737   2.899 -2.9489  0.1945 -2.6837
  922MOL0     H27204  10.051   1.519   2.851 -0.3371  0.6625 -0.1750
  922MOL0     H27205  10.201   1.452   2.871 -3.3643 -0.8097  3.4706
  922MOL0     H27206  10.293   1.572   2.686 -0.3220  1.1275 -1.1142
  922MOL0     H27207  10.143   1.669   2.658  2.0185  1.4435 -1.2721
  922MOL0     H27208  10.152   1.374   2.655 -1.0093  0.9303  0.5435
  922MOL0     H27209  10.022   1.479   2.594  0.3757 -0.1602 -3.1500
  922MOL0     H27210  10.289   1.448   2.434 -0.4972 -1.3550 -2.6199
  922MOL0     H27211  10.169   1.563   2.399  1.0255  0.5437 -1.9464
  922MOL0     H27212  10.000   1.360   2.360 -0.2958  0.7970 -0.8882
  922MOL0     H27213  10.135   1.253   2.411 -0.3663 -0.2274 -0.7114
  922MOL0     H27214  10.113   1.437   2.170 -2.1999 -0.4992  1.4107
  922MOL0     H27215  10.088   1.269   2.152 -0.0889  1.4373 -3.0779
  922MOL0     H27216  10.145   1.430   3.376 -0.0737  1.6015  0.1801
  922MOL0     H27217  10.272   1.346   3.558  0.5454  0.5627  1.4406
  922MOL0     H27218  10.509   1.633   3.572  2.3148 -1.1629  2.8561
  922MOL0     H27219  10.329   1.808   3.583  2.4905  0.1877  0.1570
  922MOL0     H27220  10.542   2.898   4.700 -0.7385  1.1435  0.9268
  922MOL0     H27221  10.776   2.967   4.747  0.4457 -0.9250 -2.1025
  922MOL0     H27222  11.004   3.363   4.737  1.5862 -0.7462  2.5042
  922MOL0     H27223  11.191   3.514   4.791  1.5249 -0.7144  0.9029
  922MOL0     H27224  11.308   3.677   4.548  1.3910 -0.6233 -3.2146
  922MOL0     H27225  11.407   3.744   4.673 -2.7195 -1.3977  1.7635
  922MOL0     H27226  11.606   3.703   4.546  0.6691  4.1977 -1.5992
  922MOL0     H27227  11.482   3.810   4.462  0.1715  1.1741  2.1706
  922MOL0     H27228  11.568   3.534   4.393 -1.7482 -0.6060 -0.8097
  922MOL0     H27229  11.408   3.574   4.355  1.3998 -2.5161 -2.5797
  922MOL0     H27230  11.674   3.708   4.271  0.4626 -0.3413  1.6749
  922MOL0     H27231  11.500   3.777   4.245 -1.7729 -1.6435  3.4984
  922MOL0     H27232  11.447   3.536   3.947  1.5346 -4.4549  1.4857
  922MOL0     H27233  11.415   3.375   4.474  1.1799  0.0231  0.7820
  922MOL0     H27234  11.235   3.091   4.422 -2.4707  0.6680  3.2149
  922MOL0     H27235  11.171   3.209   4.310 -2.5302  1.4045  3.2235
  922MOL0     H27236  11.349   3.217   4.342  0.4112 -0.2658  2.0434
  923MOL0     O27237  10.626   0.814   3.276 -0.3711 -0.8863 -1.0911
  923MOL0     C27238  10.703   0.850   3.184 -1.0401  0.1756  0.1345
  923MOL0     O27239  10.820   0.916   3.195  0.0461 -0.2031  0.2025
  923MOL0     C27240  10.861   0.949   3.325  1.0994 -0.3570  0.3945
  923MOL0     C27241  10.944   0.878   3.407  0.3829  0.2120  0.1764
  923MOL0     C27242  10.973   0.917   3.532 -0.5968  0.3832  0.1465
  923MOL0     C27243  10.902   1.030   3.590 -0.4809 -0.5227 -0.0212
  923MOL0     O27244  10.918   1.060   3.727 -0.4136  0.3605  0.7798
  923MOL0     C27245  10.819   1.148   3.780  0.2959  0.1598  0.6040
  923MOL0     C27246  10.846   1.180   3.926  0.1141 -0.5194 -0.2184
  923MOL0     C27247  10.921   1.090   4.014  0.6248 -0.3695  0.0106
  923MOL0     C27248  10.866   1.092   4.156 -0.7491  0.8247  0.2950
  923MOL0     C27249  10.959   1.017   4.251  0.4814 -0.3558  0.6531
  923MOL0     C27250  10.876   0.983   4.378  0.4808 -0.2893 -1.6298
  923MOL0     C27251  10.829   1.108   4.459  0.2888 -0.9163 -0.8105
  923MOL0     C27252  10.951   1.178   4.514 -0.4414 -0.2394 -0.0728
  923MOL0     N27253  11.014   1.108   4.625 -0.5013  0.2090 -0.1274
  923MOL0     C27254  10.954   1.022   4.713 -0.4628 -0.8055 -0.3475
  923MOL0     C27255  11.063   0.952   4.770 -0.4874 -0.9780  0.5965
  923MOL0     C27256  11.051   0.831   4.857  0.8187  0.4600 -0.3629
  923MOL0     C27257  11.158   0.820   4.969  0.2073 -0.2907 -0.5436
  923MOL0     C27258  11.175   0.684   5.034 -0.7806 -0.0062  0.1126
  923MOL0     C27259  11.072   0.690   5.148  0.2756  0.1910 -0.1703
  923MOL0     O27260  11.052   0.563   5.201  0.2650  0.0134 -0.0627
  923MOL0     C27261  10.986   0.558   5.327  0.0540 -0.2939  0.2498
  923MOL0     C27262  10.906   0.649   5.395 -0.1616  0.4265 -0.7831
  923MOL0     C27263  10.844   0.618   5.520  0.2126  0.1656 -0.1586
  923MOL0     C27264  10.737   0.713   5.558  0.6364  0.3311  0.0392
  923MOL0     C27265  10.880   0.498   5.581 -0.1228 -0.2259 -0.2957
  923MOL0     C27266  10.834   0.458   5.709  0.0215 -0.2837 -0.4980
  923MOL0     O27267  10.929   0.400   5.799 -0.0259 -1.1416 -0.0708
  923MOL0     C27268  10.886   0.325   5.906 -0.2677  0.7823  0.5083
  923MOL0     C27269  10.757   0.263   5.915  0.8777  0.7758  0.8905
  923MOL0     C27270  10.731   0.183   6.024 -0.2013 -0.6455  0.0922
  923MOL0     C27271  10.821   0.154   6.128  0.4119  0.2406 -0.2723
  923MOL0     O27272  10.793   0.061   6.231  0.3949  0.5603  0.6688
  923MOL0     C27273  10.691   0.104   6.321 -0.3964 -0.1887  0.2926
  923MOL0     C27274  10.726   0.075   6.465  0.2278 -0.6533 -0.1439
  923MOL0     C27275  10.664  -0.046   6.526  0.5433  1.2996 -1.5326
  923MOL0     C27276  10.751  -0.066   6.651  0.4370  0.6806 -0.1679
  923MOL0     C27277  10.672  -0.157   6.757 -0.1137 -0.3276  0.2175
  923MOL0     C27278  10.771  -0.206   6.859  0.6234 -0.9118  0.4135
  923MOL0     C27279  10.826  -0.084   6.942 -0.1453 -0.4273 -0.2514
  923MOL0     C27280  10.877  -0.123   7.082  0.2796  0.2683 -0.2108
  923MOL0    Cl27281  11.044  -0.193   7.084 -0.1548  0.4058 -0.4506
  923MOL0     C27282  10.945   0.219   6.121 -0.3539 -0.2143  1.0142
  923MOL0     C27283  10.977   0.296   6.012  0.6675 -0.0810 -0.1470
  923MOL0     O27284  10.718   0.484   5.733  0.0817 -0.0333 -0.4738
  923MOL0     C27285  10.978   0.417   5.520 -0.0165 -0.0772 -0.4421
  923MOL0     C27286  11.022   0.438   5.389  0.0444 -0.6840 -1.1613
  923MOL0     N27287  11.179   1.005   4.724 -0.3621 -0.7247 -0.7346
  923MOL0     N27288  11.148   1.098   4.637  0.0311  0.1549 -0.1992
  923MOL0     C27289  10.801   1.085   3.505  0.2494 -0.3051 -0.3629
  923MOL0     C27290  10.792   1.059   3.370 -0.1529 -0.0546  0.7936
  923MOL0     C27291  10.649   0.829   3.045  1.0939 -0.1649  0.4933
  923MOL0     C27292  10.506   0.832   3.025  0.4289 -0.4648  0.7863
  923MOL0     C27293  10.452   0.848   2.893 -0.5475  0.3273  0.1208
  923MOL0     C27294  10.542   0.853   2.781 -0.0751 -0.3193  0.2861
  923MOL0     O27295  10.523   0.869   2.642 -0.4392 -0.1744  0.0548
  923MOL0     C27296  10.390   0.878   2.584 -0.6677  0.6281 -1.2966
  923MOL0     C27297  10.388   0.933   2.441  0.4004  0.2148 -0.9961
  923MOL0     C27298  10.236   0.954   2.403 -0.5066 -0.6037 -0.4316
  923MOL0     C27299  10.163   0.823   2.382  0.5435  0.0498 -0.6091
  923MOL0     C27300  10.036   0.819   2.452  0.2833 -0.2861  0.3414
  923MOL0     C27301   9.924   0.821   2.501 -0.0257 -0.3246 -0.9065
  923MOL0     C27302  10.677   0.826   2.810 -0.2229  0.2741  0.0709
  923MOL0     C27303  10.733   0.819   2.933  1.3553  0.3386  0.3867
  923MOL0     C27304  10.885   0.816   2.943  0.9528  0.4260  0.3578
  923MOL0     H27305  10.991   0.787   3.372 -2.1334 -1.7749  1.5826
  923MOL0     H27306  11.043   0.856   3.589 -1.8363 -0.1162  1.1647
  923MOL0     H27307  10.724   1.096   3.765  2.3134 -3.8227  0.4574
  923MOL0     H27308  10.827   1.248   3.735  0.7629  1.8959  4.1788
  923MOL0     H27309  10.894   1.278   3.936  0.2988 -0.4498 -1.5994
  923MOL0     H27310  10.744   1.185   3.965  0.6158 -0.8178  1.1742
  923MOL0     H27311  10.922   0.988   3.975 -0.7256 -0.6133  0.5820
  923MOL0     H27312  11.023   1.131   4.014  1.6235 -2.5984 -2.0703
  923MOL0     H27313  10.851   1.196   4.187  0.7223  1.9810 -2.5115
  923MOL0     H27314  10.762   1.058   4.155 -1.7028  3.4160 -2.1539
  923MOL0     H27315  11.052   1.072   4.260  2.3282 -2.9456 -1.1156
  923MOL0     H27316  10.988   0.927   4.196  1.5048  0.6195 -0.4423
  923MOL0     H27317  10.789   0.919   4.356 -0.1490  0.5277 -1.5848
  923MOL0     H27318  10.945   0.920   4.435  1.4628  1.2562 -1.0464
  923MOL0     H27319  10.764   1.093   4.545  0.7006  2.8173  0.3248
  923MOL0     H27320  10.778   1.175   4.389 -0.7651 -2.6514 -1.7815
  923MOL0     H27321  11.021   1.210   4.437  0.7911  0.1581  1.1869
  923MOL0     H27322  10.915   1.275   4.549 -1.4219  0.0672 -1.8321
  923MOL0     H27323  10.850   1.006   4.742 -0.2733 -0.5456  0.5131
  923MOL0     H27324  11.065   0.747   4.788  0.2897 -0.9175  1.1379
  923MOL0     H27325  10.951   0.811   4.898  0.8992 -2.8032 -1.4523
  923MOL0     H27326  11.255   0.865   4.946  1.2564 -1.5442  1.1867
  923MOL0     H27327  11.119   0.892   5.041 -1.2609  0.2495 -1.8238
  923MOL0     H27328  11.154   0.602   4.965 -0.1731  0.0563 -0.1491
  923MOL0     H27329  11.274   0.674   5.079  0.1742  5.1162 -0.1870
  923MOL0     H27330  11.094   0.761   5.229 -3.2830 -0.3083  1.4421
  923MOL0     H27331  10.975   0.723   5.110 -0.4656 -0.4312  1.1082
  923MOL0     H27332  10.889   0.746   5.350  1.9552  1.0370 -0.4030
  923MOL0     H27333  10.757   0.750   5.659 -0.8507  2.7101 -0.4467
  923MOL0     H27334  10.642   0.660   5.560 -1.1717  3.3316 -0.6232
  923MOL0     H27335  10.718   0.782   5.475 -1.7345 -0.0772  0.1818
  923MOL0     H27336  10.685   0.276   5.834 -0.3109 -0.7718  1.6510
  923MOL0     H27337  10.634   0.134   6.030 -0.9790  0.7681 -0.4421
  923MOL0     H27338  10.678   0.212   6.306 -0.5603 -0.4435 -1.8398
  923MOL0     H27339  10.602   0.046   6.293 -0.9420  1.5916 -2.0479
  923MOL0     H27340  10.835   0.083   6.468  0.3225 -0.6701 -2.0743
  923MOL0     H27341  10.685   0.150   6.533  1.0865  1.6241 -1.9840
  923MOL0     H27342  10.666  -0.130   6.455 -2.0113  0.1854 -0.4151
  923MOL0     H27343  10.559  -0.034   6.553  0.8318 -1.9645  1.8296
  923MOL0     H27344  10.777   0.027   6.703 -1.4130  0.9969  0.2322
  923MOL0     H27345  10.842  -0.123   6.628  0.3758 -0.2322  1.6432
  923MOL0     H27346  10.585  -0.104   6.796 -1.5125 -0.9629 -1.8361
  923MOL0     H27347  10.638  -0.252   6.714 -1.0941 -0.6080  1.5423
  923MOL0     H27348  10.858  -0.258   6.817  0.1753  0.2414 -2.1521
  923MOL0     H27349  10.717  -0.280   6.918  2.5365 -3.6011 -0.9673
  923MOL0     H27350  10.753  -0.004   6.958  0.7633  0.4512 -0.3677
  923MOL0     H27351  10.906  -0.024   6.896 -2.4119  1.8261 -1.5439
  923MOL0     H27352  10.825  -0.210   7.123  2.0604 -0.1955  1.2027
  923MOL0     H27353  10.870  -0.041   7.154  0.8536 -0.0997  0.2823
  923MOL0     H27354  11.028   0.184   6.181  1.0421 -3.2644 -2.3164
  923MOL0     H27355  11.071   0.349   5.999 -0.7294  1.9642 -2.7465
  923MOL0     H27356  11.001   0.320   5.562 -3.1357 -0.8979 -0.4062
  923MOL0     H27357  11.096   0.381   5.334  3.6784  0.8813  1.6730
  923MOL0     H27358  10.730   1.153   3.552  2.6775  2.4414 -0.3777
  923MOL0     H27359  10.726   1.105   3.297  0.3512  2.0006  1.5665
  923MOL0     H27360  10.440   0.839   3.110 -1.6337  1.9713 -0.8529
  923MOL0     H27361  10.345   0.860   2.880 -0.5821  2.3568  1.7745
  923MOL0     H27362  10.353   0.775   2.596  1.1901  0.0967  0.3779
  923MOL0     H27363  10.343   0.955   2.646  1.6083  0.7533  0.3756
  923MOL0     H27364  10.425   0.867   2.361 -2.3092 -0.5786 -1.7102
  923MOL0     H27365  10.435   1.031   2.440  1.5734 -0.3178 -2.7024
  923MOL0     H27366  10.197   1.009   2.490 -0.8675 -3.2925  1.2162
  923MOL0     H27367  10.239   1.028   2.323  2.0030 -0.0214  0.1094
  923MOL0     H27368  10.223   0.738   2.417  1.5892 -0.1090 -2.6441
  923MOL0     H27369  10.147   0.825   2.274 -1.2878  2.8643 -0.3726
  923MOL0     H27370   9.822   0.837   2.527  0.6531  2.2822  0.5539
  923MOL0     H27371  10.741   0.804   2.725  1.2674 -0.8712  1.4062
  923MOL0     H27372  10.905   0.921   2.966  1.8283  0.3225  0.0838
  923MOL0     H27373  10.912   0.749   3.026  0.7030  1.1541  1.0458
  923MOL0     H27374  10.933   0.781   2.852 -1.3933 -0.0547 -0.7893
  924MOL0     O27375   8.696   0.767   2.162 -0.2241  0.2899  1.2102
  924MOL0     C27376   8.593   0.711   2.109 -0.9394 -0.0020  0.0201
  924MOL0     O27377   8.548   0.588   2.158 -0.7409 -0.3177 -0.7026
  924MOL0     C27378   8.618   0.530   2.264  0.2647 -0.0994 -0.2144
  924MOL0     C27379   8.628   0.585   2.386  0.3412  0.5954 -0.2408
  924MOL0     C27380   8.705   0.521   2.483 -0.1992 -0.0328 -0.3539
  924MOL0     C27381   8.775   0.405   2.459 -0.4882  0.0297 -0.1567
  924MOL0     O27382   8.855   0.353   2.554 -0.1277 -0.7106 -0.0310
  924MOL0     C27383   8.941   0.439   2.623 -1.7846  0.2002  0.1522
  924MOL0     C27384   9.042   0.336   2.698 -0.4008 -0.5949 -0.1146
  924MOL0     C27385   9.150   0.265   2.615  0.5758 -0.4574 -0.2141
  924MOL0     C27386   9.139   0.117   2.599  0.1072  0.5997  0.3955
  924MOL0     C27387   9.240   0.071   2.493  0.4468  0.1428  0.4914
  924MOL0     C27388   9.230  -0.083   2.472  0.5176 -0.3000 -1.2232
  924MOL0     C27389   9.298  -0.121   2.341  0.5887  1.2971 -0.4155
  924MOL0     C27390   9.443  -0.093   2.311  0.7531 -0.6509  0.5771
  924MOL0     N27391   9.538  -0.125   2.420  0.4109  1.2494 -1.1127
  924MOL0     C27392   9.578  -0.055   2.526 -0.0107 -0.8608  0.2577
  924MOL0     C27393   9.651  -0.137   2.601  0.3436 -0.4392 -0.1843
  924MOL0     C27394   9.726  -0.094   2.726  0.6570  0.2049  1.4678
  924MOL0     C27395   9.759   0.053   2.729 -0.3874  0.4498  0.4848
  924MOL0     C27396   9.780   0.085   2.875  0.3151 -0.4587 -0.2115
  924MOL0     C27397   9.847   0.225   2.892 -0.3234  0.5972 -0.7173
  924MOL0     O27398   9.886   0.245   3.030 -0.3488  0.3561 -0.4395
  924MOL0     C27399   9.861   0.367   3.084 -0.5561  0.1239 -0.3227
  924MOL0     C27400   9.928   0.484   3.035  0.0607 -0.5166  0.1426
  924MOL0     C27401   9.902   0.611   3.095 -0.3038  0.3702 -0.7620
  924MOL0     C27402   9.957   0.737   3.022 -0.5190 -0.0157 -0.2201
  924MOL0     C27403   9.814   0.625   3.209  0.9546 -1.3419  0.5240
  924MOL0     C27404   9.776   0.760   3.270 -0.2242  0.8762 -0.0421
  924MOL0     O27405   9.701   0.739   3.387  0.2308  0.3663  0.0399
  924MOL0     C27406   9.678   0.837   3.478 -1.4583  0.9614  0.1852
  924MOL0     C27407   9.552   0.889   3.506  0.5591  0.6493 -0.8633
  924MOL0     C27408   9.526   0.971   3.620  0.5480  0.4033  0.7558
  924MOL0     C27409   9.636   1.007   3.699 -0.7162 -0.8940 -0.2511
  924MOL0     O27410   9.619   1.049   3.829  1.0818  0.3410 -0.8999
  924MOL0     C27411   9.516   1.145   3.866  0.3282 -0.1829 -0.8099
  924MOL0     C27412   9.530   1.178   4.020 -0.4069 -0.3568  0.2746
  924MOL0     C27413   9.494   1.063   4.110 -0.4991  0.1848  0.7430
  924MOL0     C27414   9.491   1.109   4.258 -0.6071  0.1423  0.2359
  924MOL0     C27415   9.485   0.990   4.359  0.0734 -0.7522  0.5397
  924MOL0     C27416   9.483   1.036   4.511  0.0662  0.1803 -0.2568
  924MOL0     C27417   9.489   0.925   4.619  0.1573 -0.8746  0.4274
  924MOL0     C27418   9.615   0.843   4.612 -0.4480 -0.6537  0.7148
  924MOL0    Cl27419   9.697   0.810   4.763  0.2980 -0.0303  0.2917
  924MOL0     C27420   9.767   0.955   3.676  0.4900 -0.4005  0.8690
  924MOL0     C27421   9.786   0.876   3.562  0.6139 -0.3945  0.1436
  924MOL0     O27422   9.796   0.871   3.228  0.1835 -0.4071  0.1594
  924MOL0     C27423   9.759   0.505   3.259  0.4080 -0.4590 -0.3438
  924MOL0     C27424   9.778   0.385   3.194 -0.3540 -0.2367  0.8641
  924MOL0     N27425   9.666  -0.253   2.539 -0.7600  0.5559  0.5400
  924MOL0     N27426   9.594  -0.255   2.427 -0.2431 -0.0627 -0.5087
  924MOL0     C27427   8.757   0.341   2.336 -0.4343 -0.6188  0.4894
  924MOL0     C27428   8.684   0.403   2.236  0.3113 -0.3769 -0.2498
  924MOL0     C27429   8.516   0.800   2.012 -1.2487  0.4078  0.3283
  924MOL0     C27430   8.582   0.906   1.955  0.1276 -0.6978  0.9451
  924MOL0     C27431   8.529   0.976   1.845 -0.0864  0.6594  0.0513
  924MOL0     C27432   8.398   0.945   1.805 -0.2669  0.6711 -0.4534
  924MOL0     O27433   8.341   1.003   1.693 -0.2873 -0.0415 -0.5424
  924MOL0     C27434   8.352   1.141   1.700  0.4095  0.3822  0.5679
  924MOL0     C27435   8.228   1.196   1.637 -0.0558  0.3802 -0.4798
  924MOL0     C27436   8.232   1.347   1.615  0.0097 -0.4047 -0.0851
  924MOL0     C27437   8.348   1.394   1.520 -0.1151  0.3843 -0.6692
  924MOL0     C27438   8.330   1.531   1.495  0.5660  1.2842 -0.7631
  924MOL0     C27439   8.325   1.651   1.483  0.4515 -0.7267 -0.7297
  924MOL0     C27440   8.334   0.843   1.869 -0.7575 -0.3351  0.1402
  924MOL0     C27441   8.393   0.763   1.971 -0.0856  0.2914  0.3348
  924MOL0     C27442   8.308   0.645   2.015  0.3592  0.2331  0.9914
  924MOL0     H27443   8.576   0.679   2.404 -1.3475 -0.1153 -1.1607
  924MOL0     H27444   8.703   0.567   2.581 -3.2584 -2.4811  0.9098
  924MOL0     H27445   8.896   0.501   2.702 -0.0337 -0.4814  1.7722
  924MOL0     H27446   9.005   0.504   2.563  1.7557 -2.9062  0.1563
  924MOL0     H27447   9.107   0.394   2.765  2.6132 -4.0691  0.2999
  924MOL0     H27448   8.990   0.264   2.761 -1.5658 -0.7961 -1.2623
  924MOL0     H27449   9.158   0.312   2.516 -0.8147  0.2888  0.0141
  924MOL0     H27450   9.252   0.268   2.656  0.7207  1.1885 -0.6376
  924MOL0     H27451   9.178   0.074   2.691  2.9014  0.4741 -0.7453
  924MOL0     H27452   9.041   0.081   2.568  0.3723  0.3525 -0.1785
  924MOL0     H27453   9.343   0.093   2.522  0.9943 -2.2882  0.6804
  924MOL0     H27454   9.225   0.125   2.399  1.4442 -1.9441 -0.9644
  924MOL0     H27455   9.273  -0.135   2.558 -1.7683 -0.8132 -0.3129
  924MOL0     H27456   9.127  -0.118   2.458  0.5034 -1.1628  0.7337
  924MOL0     H27457   9.246  -0.073   2.258  3.7655  0.2185 -3.2749
  924MOL0     H27458   9.283  -0.230   2.336  0.8485  1.1629  1.2730
  924MOL0     H27459   9.467  -0.137   2.214 -1.0549  2.0242 -1.2038
  924MOL0     H27460   9.457   0.012   2.285 -3.1204 -0.4606 -1.4606
  924MOL0     H27461   9.547   0.048   2.539  2.7272  0.2145 -1.0045
  924MOL0     H27462   9.815  -0.158   2.732  1.2960  0.8023 -0.6815
  924MOL0     H27463   9.661  -0.113   2.811 -2.4432  1.4600 -0.4739
  924MOL0     H27464   9.847   0.062   2.665 -0.8173  1.0172 -0.0292
  924MOL0     H27465   9.668   0.107   2.701 -0.2851  0.7025  0.6398
  924MOL0     H27466   9.695   0.078   2.944 -0.2457 -0.8701 -0.9320
  924MOL0     H27467   9.856   0.013   2.908 -0.0241 -0.9104 -0.3951
  924MOL0     H27468   9.928   0.226   2.818 -1.3783 -1.4867 -2.0040
  924MOL0     H27469   9.777   0.304   2.862 -0.1882  2.0054  2.3215
  924MOL0     H27470   9.999   0.484   2.953  1.7628 -3.3930  1.4877
  924MOL0     H27471   9.881   0.804   2.982  0.0366  1.5572  1.2118
  924MOL0     H27472  10.020   0.712   2.937 -0.0150  0.9785 -0.1546
  924MOL0     H27473  10.011   0.796   3.097  1.2735 -1.3045 -0.4288
  924MOL0     H27474   9.467   0.853   3.448  0.3244 -2.8716  1.3246
  924MOL0     H27475   9.427   1.001   3.652  1.4912  3.0364  1.3892
  924MOL0     H27476   9.530   1.238   3.809 -0.4267  0.8453  0.6119
  924MOL0     H27477   9.413   1.113   3.848 -0.5780  2.5899 -1.1685
  924MOL0     H27478   9.633   1.200   4.052  0.6340 -2.0259 -1.7113
  924MOL0     H27479   9.463   1.261   4.044  0.3930 -0.0207  1.4505
  924MOL0     H27480   9.575   0.989   4.105 -1.8403 -1.2448 -1.2789
  924MOL0     H27481   9.399   1.018   4.081  0.3990 -2.4506  1.5695
  924MOL0     H27482   9.402   1.170   4.274 -1.2045  0.0081 -2.1687
  924MOL0     H27483   9.576   1.171   4.289 -2.2049  2.0957  0.9099
  924MOL0     H27484   9.396   0.934   4.331 -2.3352  2.4026  1.3600
  924MOL0     H27485   9.571   0.922   4.352 -0.4888 -1.8610  3.1293
  924MOL0     H27486   9.392   1.092   4.530 -0.6067 -1.5341  2.0305
  924MOL0     H27487   9.565   1.107   4.525  1.2203 -1.3817  1.2995
  924MOL0     H27488   9.404   0.860   4.597  1.1868 -1.9655 -0.4543
  924MOL0     H27489   9.479   0.973   4.717 -0.2625 -0.0288 -0.0201
  924MOL0     H27490   9.681   0.895   4.542 -2.1560 -1.1737 -1.3628
  924MOL0     H27491   9.607   0.750   4.555 -0.1316 -0.6551  0.6675
  924MOL0     H27492   9.847   0.987   3.742 -0.9211  3.5818  0.8752
  924MOL0     H27493   9.885   0.841   3.534  0.8070  0.1091  0.1778
  924MOL0     H27494   9.692   0.505   3.345  0.7470 -0.7622 -0.0768
  924MOL0     H27495   9.723   0.301   3.235  0.4050  0.4380  3.4461
  924MOL0     H27496   8.813   0.256   2.299 -0.3952  0.5433 -2.3167
  924MOL0     H27497   8.666   0.359   2.139 -0.2726 -1.9585  0.5436
  924MOL0     H27498   8.676   0.944   1.993  0.3784  2.2428 -2.0840
  924MOL0     H27499   8.584   1.047   1.784  0.7100  1.8300  1.9978
  924MOL0     H27500   8.351   1.188   1.799 -0.7932 -0.0232  0.7595
  924MOL0     H27501   8.435   1.175   1.636  1.6023  0.5285  2.1287
  924MOL0     H27502   8.146   1.174   1.707  0.6480 -1.6710 -0.2639
  924MOL0     H27503   8.201   1.143   1.545  0.7369 -1.9772  0.5758
  924MOL0     H27504   8.136   1.388   1.584  0.6838  2.7277  1.6163
  924MOL0     H27505   8.234   1.401   1.710 -3.9102 -0.9272  0.4722
  924MOL0     H27506   8.339   1.328   1.434 -0.8029 -4.0693  2.4505
  924MOL0     H27507   8.442   1.374   1.572 -0.4928 -0.0328 -0.1339
  924MOL0     H27508   8.327   1.758   1.473 -0.0012 -0.6930 -0.4746
  924MOL0     H27509   8.236   0.816   1.832 -0.2585 -0.9230 -0.7846
  924MOL0     H27510   8.298   0.628   2.122 -1.4643  0.0241  0.8159
  924MOL0     H27511   8.209   0.642   1.970 -0.5205 -0.8172  2.8936
  924MOL0     H27512   8.351   0.549   1.983  0.3345 -0.0770  1.8514
  925MOL0     O27513   3.612   3.457   8.771  0.2557  0.5832 -0.6246
  925MOL0     C27514   3.721   3.409   8.746  0.0582 -0.2947 -0.3683
  925MOL0     O27515   3.748   3.290   8.701  0.8724 -0.4087 -0.2533
  925MOL0     C27516   3.657   3.192   8.688 -0.1003 -0.1502  0.6287
  925MOL0     C27517   3.662   3.108   8.578  0.5448 -0.4376  0.1414
  925MOL0     C27518   3.562   3.011   8.559 -0.4509 -0.5094  0.0895
  925MOL0     C27519   3.459   2.999   8.651  0.3379  0.6028  0.1057
  925MOL0     O27520   3.353   2.914   8.641  0.6253 -0.1668 -0.1539
  925MOL0     C27521   3.230   2.978   8.584 -0.1503 -0.2137  0.6393
  925MOL0     C27522   3.155   2.868   8.519 -0.3991  0.6271 -0.7728
  925MOL0     C27523   3.205   2.839   8.373 -0.6864 -0.2769 -0.4148
  925MOL0     C27524   3.106   2.741   8.302 -0.0106 -0.8843 -0.1068
  925MOL0     C27525   3.182   2.648   8.198 -0.3572  0.1666  1.1176
  925MOL0     C27526   3.078   2.577   8.120  0.5162  0.1032  0.0190
  925MOL0     C27527   3.149   2.455   8.076  0.2026  0.5950  0.7890
  925MOL0     C27528   3.072   2.388   7.970 -0.7808  0.4350 -1.0638
  925MOL0     N27529   2.940   2.338   8.003  0.3221  0.1114  0.2238
  925MOL0     C27530   2.903   2.210   8.047  0.3953  1.0177 -0.7347
  925MOL0     C27531   2.769   2.227   8.053 -1.0933  0.8614 -0.0379
  925MOL0     C27532   2.677   2.130   8.129  0.5552 -0.5747  0.4168
  925MOL0     C27533   2.557   2.090   8.046  0.5974  0.5924 -0.4176
  925MOL0     C27534   2.598   2.031   7.911  0.4408 -0.2529 -0.8030
  925MOL0     C27535   2.472   1.979   7.837 -0.3849  0.9703  0.8698
  925MOL0     O27536   2.370   2.072   7.847 -0.0631 -0.3397 -0.3144
  925MOL0     C27537   2.293   2.083   7.742 -0.7240 -0.2434 -0.1276
  925MOL0     C27538   2.222   1.975   7.692  0.2667 -0.0437 -0.3104
  925MOL0     C27539   2.134   1.987   7.585  0.2983  0.0243 -0.7185
  925MOL0     C27540   2.070   1.870   7.523 -0.9382  0.6397 -0.4324
  925MOL0     C27541   2.115   2.112   7.521 -0.5964  0.6057 -0.2963
  925MOL0     C27542   2.027   2.142   7.401 -0.2801  0.2001 -0.2171
  925MOL0     O27543   1.901   2.079   7.401 -0.6664 -0.2977  0.0139
  925MOL0     C27544   1.830   2.087   7.284 -0.8383  0.4899  0.3805
  925MOL0     C27545   1.855   2.006   7.169 -0.7777 -0.1444  0.1226
  925MOL0     C27546   1.771   2.005   7.059  0.1309 -0.2310  0.3011
  925MOL0     C27547   1.652   2.070   7.063 -0.0728  0.5672  0.1505
  925MOL0     O27548   1.558   2.058   6.964 -0.1270 -0.0465  0.1414
  925MOL0     C27549   1.553   1.932   6.883 -0.7855  0.1991  0.5348
  925MOL0     C27550   1.530   1.972   6.736  0.6712  0.2815  0.8251
  925MOL0     C27551   1.381   1.948   6.699 -0.0291 -0.5409  0.6078
  925MOL0     C27552   1.367   1.975   6.548 -0.1488  0.7746  0.7975
  925MOL0     C27553   1.222   1.974   6.493  0.1219  0.4285 -0.7257
  925MOL0     C27554   1.157   1.840   6.511 -0.5601 -0.4946 -0.4414
  925MOL0     C27555   1.047   1.806   6.413  0.0802  0.3988  1.0624
  925MOL0     C27556   0.991   1.668   6.422  1.1521  0.1254 -0.1280
  925MOL0    Cl27557   1.105   1.527   6.401  0.0107  0.6620 -0.4139
  925MOL0     C27558   1.623   2.153   7.175 -0.2379 -0.4054 -0.5348
  925MOL0     C27559   1.709   2.163   7.287  0.0676  0.3375 -0.5669
  925MOL0     O27560   2.073   2.214   7.319  0.7464 -0.6532 -0.2125
  925MOL0     C27561   2.195   2.216   7.574 -0.8287  0.3771  1.4991
  925MOL0     C27562   2.288   2.206   7.674 -0.5020 -0.1912  0.3525
  925MOL0     N27563   2.733   2.353   8.008 -0.1299  0.8018  0.8183
  925MOL0     N27564   2.834   2.414   7.976  0.2481  0.0079 -1.0879
  925MOL0     C27565   3.465   3.070   8.773 -0.7216 -0.4641 -0.1321
  925MOL0     C27566   3.563   3.169   8.784  0.5232  0.5640  0.3163
  925MOL0     C27567   3.835   3.500   8.759 -0.1037 -0.2744  0.3675
  925MOL0     C27568   3.950   3.459   8.828 -1.5729  0.2646  0.0814
  925MOL0     C27569   4.049   3.549   8.857  0.0117 -0.6232 -0.8472
  925MOL0     C27570   4.043   3.679   8.802  0.9407  0.8037 -0.2392
  925MOL0     O27571   4.145   3.774   8.820  0.4915  0.3441 -0.4667
  925MOL0     C27572   4.287   3.749   8.801  0.6557  0.7413  0.9409
  925MOL0     C27573   4.360   3.710   8.925 -1.1178 -0.9896  0.7733
  925MOL0     C27574   4.517   3.714   8.919 -0.2146 -0.6260  0.0930
  925MOL0     C27575   4.561   3.861   8.957 -0.1756  0.0726  0.6165
  925MOL0     C27576   4.711   3.875   8.961 -0.2269  0.6361  1.4643
  925MOL0     C27577   4.826   3.885   8.963 -0.0828  0.1533  1.0084
  925MOL0     C27578   3.930   3.715   8.728 -0.5707  1.0026 -0.3894
  925MOL0     C27579   3.835   3.627   8.697  0.1072  0.5059  0.2330
  925MOL0     C27580   3.713   3.690   8.619 -0.5528 -0.2489 -0.7391
  925MOL0     H27581   3.742   3.124   8.507  0.1375 -2.0700 -0.7239
  925MOL0     H27582   3.589   2.947   8.476  3.1383 -1.0336  1.4756
  925MOL0     H27583   3.266   3.047   8.508  2.4367 -1.3725  0.6900
  925MOL0     H27584   3.163   3.033   8.651 -1.8579  1.0032 -1.9029
  925MOL0     H27585   3.160   2.779   8.582  0.0434  1.7927  0.8929
  925MOL0     H27586   3.051   2.902   8.523 -1.7227 -2.2194 -4.5185
  925MOL0     H27587   3.206   2.927   8.309 -0.5976 -1.4432 -2.0599
  925MOL0     H27588   3.306   2.798   8.365 -0.3660  0.4605 -0.2316
  925MOL0     H27589   3.038   2.694   8.374  0.0864  1.0286  1.3384
  925MOL0     H27590   3.045   2.813   8.247 -0.0831 -0.6717  0.2480
  925MOL0     H27591   3.243   2.580   8.257 -1.5913 -1.1715  0.9028
  925MOL0     H27592   3.254   2.703   8.135  1.0955 -0.3352  2.2939
  925MOL0     H27593   2.992   2.545   8.180  1.1885 -0.0057  0.9355
  925MOL0     H27594   3.041   2.642   8.040 -0.7598  1.2595  1.4747
  925MOL0     H27595   3.156   2.390   8.163 -0.6479  1.5398  1.5870
  925MOL0     H27596   3.244   2.486   8.030 -0.4851  1.2348 -0.2538
  925MOL0     H27597   3.081   2.452   7.881  1.1882  2.6453  0.6080
  925MOL0     H27598   3.143   2.308   7.944  0.7723  2.8099 -5.0654
  925MOL0     H27599   2.964   2.133   8.092 -0.6166  0.0561 -0.9635
  925MOL0     H27600   2.638   2.180   8.218 -1.6594 -0.6951 -0.4170
  925MOL0     H27601   2.727   2.041   8.167 -0.5968 -1.4745 -0.1116
  925MOL0     H27602   2.508   2.006   8.096  1.1653 -1.3912 -3.0187
  925MOL0     H27603   2.486   2.173   8.039 -1.5976 -1.1694 -0.3538
  925MOL0     H27604   2.660   2.101   7.854  0.7134  0.8081  0.7435
  925MOL0     H27605   2.660   1.943   7.932  1.6998  0.8941  0.5094
  925MOL0     H27606   2.488   1.979   7.729 -2.6529  3.0402  0.4434
  925MOL0     H27607   2.440   1.884   7.881  0.9627  0.6735  1.2421
  925MOL0     H27608   2.236   1.877   7.738  2.8696  0.0790 -0.7234
  925MOL0     H27609   1.971   1.856   7.568 -1.7795  0.6433 -2.2081
  925MOL0     H27610   2.141   1.788   7.541 -0.5032  1.0716 -0.1440
  925MOL0     H27611   2.061   1.886   7.416  2.1483  4.1692 -0.3767
  925MOL0     H27612   1.942   1.941   7.166 -0.8537 -0.3835  1.8436
  925MOL0     H27613   1.813   1.955   6.972  1.0011  0.8290  0.0878
  925MOL0     H27614   1.644   1.872   6.877 -0.0380  1.2612  0.9495
  925MOL0     H27615   1.480   1.861   6.924  1.2327 -3.1752 -1.2506
  925MOL0     H27616   1.557   2.076   6.719  0.4841  0.8041  3.3576
  925MOL0     H27617   1.587   1.911   6.665 -4.9189 -3.0709 -1.4615
  925MOL0     H27618   1.318   2.016   6.757 -1.0677  0.4547 -1.5840
  925MOL0     H27619   1.358   1.844   6.726 -0.6455 -0.4228  0.5461
  925MOL0     H27620   1.430   1.914   6.482 -3.1131  0.2270 -1.7824
  925MOL0     H27621   1.405   2.071   6.512 -0.2494 -0.0372 -1.6407
  925MOL0     H27622   1.159   2.043   6.550  0.3900 -0.8435  1.1981
  925MOL0     H27623   1.209   1.992   6.386 -0.3506 -0.0065 -0.7471
  925MOL0     H27624   1.133   1.823   6.616  0.4018 -3.3972 -0.5830
  925MOL0     H27625   1.230   1.769   6.471 -1.5627  0.6075 -4.8281
  925MOL0     H27626   1.075   1.817   6.308  0.5633 -3.0064  0.7188
  925MOL0     H27627   0.965   1.878   6.424 -1.8573 -1.4430 -0.4776
  925MOL0     H27628   0.912   1.660   6.347  2.3572  1.0572 -1.5352
  925MOL0     H27629   0.938   1.655   6.517  0.7964  0.9135 -0.2118
  925MOL0     H27630   1.528   2.205   7.181 -0.2269 -0.3194 -1.0172
  925MOL0     H27631   1.692   2.223   7.375  1.0031  0.6606 -0.5865
  925MOL0     H27632   2.169   2.312   7.531 -0.3880 -1.5734 -3.7548
  925MOL0     H27633   2.348   2.291   7.705 -0.7198 -0.4191  1.4353
  925MOL0     H27634   3.403   3.044   8.858 -3.6192  1.9102 -1.3424
  925MOL0     H27635   3.573   3.210   8.885 -1.1483 -1.2290  1.2760
  925MOL0     H27636   3.972   3.361   8.870  5.0839  1.2597  0.0038
  925MOL0     H27637   4.127   3.517   8.926 -2.3884  0.2374  2.5151
  925MOL0     H27638   4.282   3.657   8.742  0.3464  0.3745  1.5232
  925MOL0     H27639   4.344   3.820   8.742 -0.2386 -0.4972 -1.5420
  925MOL0     H27640   4.322   3.612   8.957 -3.0232 -1.3488 -2.1271
  925MOL0     H27641   4.334   3.776   9.009  3.1255  1.7555  0.2035
  925MOL0     H27642   4.561   3.650   8.996 -0.3051  0.2833  0.9211
  925MOL0     H27643   4.560   3.675   8.826  1.3483  1.6461 -0.2183
  925MOL0     H27644   4.531   3.901   9.055  2.2520  4.4247 -0.1555
  925MOL0     H27645   4.526   3.933   8.882 -0.4076  0.4695  1.0963
  925MOL0     H27646   4.932   3.898   8.961  0.2699 -2.2577  0.0664
  925MOL0     H27647   3.921   3.820   8.701 -0.2027  1.6054  1.6896
  925MOL0     H27648   3.758   3.741   8.532 -0.9529  3.3163  0.9582
  925MOL0     H27649   3.638   3.617   8.588 -0.1540 -0.4747 -1.1948
  925MOL0     H27650   3.668   3.773   8.674  0.8771  0.1812 -0.1570
  926MOL0     O27651   1.974   1.866   0.561  0.0334 -0.4487 -0.2998
  926MOL0     C27652   1.881   1.798   0.602 -1.2307  0.6996  0.0173
  926MOL0     O27653   1.880   1.742   0.726  0.7487 -0.0875  0.2411
  926MOL0     C27654   1.963   1.791   0.819  0.5337 -0.0518  0.3083
  926MOL0     C27655   2.075   1.724   0.876 -0.2131 -0.0505  0.1908
  926MOL0     C27656   2.141   1.782   0.989 -0.1700  0.2682  0.4101
  926MOL0     C27657   2.117   1.915   1.027  0.2951 -0.4622 -0.5370
  926MOL0     O27658   2.192   1.949   1.137  0.2982 -0.7382  0.3629
  926MOL0     C27659   2.223   2.088   1.177  0.6469 -0.9071  0.1523
  926MOL0     C27660   2.368   2.112   1.209 -0.6093 -0.9418 -0.1313
  926MOL0     C27661   2.457   2.096   1.093 -0.1744  0.1729  0.6154
  926MOL0     C27662   2.586   2.192   1.109  0.4430  0.4881 -0.4455
  926MOL0     C27663   2.703   2.123   1.041 -0.1838 -0.4567  0.1983
  926MOL0     C27664   2.686   2.144   0.886  0.3882 -0.2053 -0.0345
  926MOL0     C27665   2.794   2.064   0.810  0.2614 -0.2987 -0.3359
  926MOL0     C27666   2.786   2.083   0.661 -0.5796  0.6573 -0.2284
  926MOL0     N27667   2.847   2.207   0.622  0.2547 -0.5918 -0.0133
  926MOL0     C27668   2.784   2.320   0.576  1.1905  1.1071  0.8495
  926MOL0     C27669   2.885   2.400   0.543  0.7707 -0.2213  0.0939
  926MOL0     C27670   2.855   2.550   0.549  0.3315  0.7461  0.0299
  926MOL0     C27671   2.978   2.616   0.604 -0.4814  0.6801  0.2453
  926MOL0     C27672   2.966   2.771   0.617 -0.1143  0.2325 -0.8717
  926MOL0     C27673   2.903   2.816   0.745 -0.1613 -0.3364 -0.8782
  926MOL0     O27674   2.984   2.812   0.861 -0.6249  0.0795  1.0141
  926MOL0     C27675   2.970   2.908   0.958  0.2821  0.2156 -0.6144
  926MOL0     C27676   2.848   2.943   1.020 -0.2358  0.9460 -0.3091
  926MOL0     C27677   2.843   3.048   1.116 -0.2073  0.7536 -0.5500
  926MOL0     C27678   2.711   3.073   1.175  0.6527 -0.9801 -0.7266
  926MOL0     C27679   2.956   3.127   1.148  0.0156 -0.2360  0.2346
  926MOL0     C27680   2.966   3.248   1.240 -0.1707 -0.7300  0.3566
  926MOL0     O27681   3.093   3.296   1.268  0.5111 -0.3479 -0.5901
  926MOL0     C27682   3.105   3.410   1.346 -0.1555  0.4458  0.3022
  926MOL0     C27683   3.073   3.400   1.481 -0.1842  0.1102 -0.1488
  926MOL0     C27684   3.095   3.519   1.559  0.3866 -0.1509 -0.7336
  926MOL0     C27685   3.131   3.637   1.495 -0.4739 -1.1613 -0.4791
  926MOL0     O27686   3.141   3.759   1.555 -0.6514  0.5405  0.4414
  926MOL0     C27687   3.082   3.791   1.683  0.1467  0.3336  0.3156
  926MOL0     C27688   3.148   3.930   1.719  0.3029  0.0372  0.4734
  926MOL0     C27689   3.303   3.907   1.750 -0.0060 -0.2914  0.2066
  926MOL0     C27690   3.342   3.801   1.841  0.0198  1.7796 -1.1479
  926MOL0     C27691   3.489   3.800   1.875 -0.3172  0.2515  0.1176
  926MOL0     C27692   3.538   3.692   1.963  0.1223  0.0346 -0.4965
  926MOL0     C27693   3.475   3.692   2.097  0.4147 -0.5888  0.5347
  926MOL0     C27694   3.556   3.601   2.189  0.8632 -0.4987  0.2518
  926MOL0    Cl27695   3.694   3.674   2.261 -0.4728  0.0897 -0.1872
  926MOL0     C27696   3.157   3.649   1.358 -0.0811  0.1017 -0.0574
  926MOL0     C27697   3.156   3.525   1.284 -0.1990 -0.3725 -0.3388
  926MOL0     O27698   2.863   3.291   1.294 -0.1782 -0.1988 -0.2890
  926MOL0     C27699   3.070   3.084   1.079 -0.9335  0.0518  0.4231
  926MOL0     C27700   3.076   2.978   0.991  0.7799  0.1062  0.2964
  926MOL0     N27701   3.005   2.339   0.551  0.8026 -0.8328 -0.6314
  926MOL0     N27702   2.979   2.225   0.599 -0.7238 -0.0096 -0.0233
  926MOL0     C27703   2.017   1.980   0.957 -0.4926 -0.6743 -0.9585
  926MOL0     C27704   1.939   1.917   0.869  0.3679 -0.2240 -0.7716
  926MOL0     C27705   1.776   1.760   0.511 -0.6924  0.0959  1.3751
  926MOL0     C27706   1.719   1.624   0.515  0.5863 -0.0048 -1.0742
  926MOL0     C27707   1.611   1.579   0.431 -0.7460 -0.4025 -0.4890
  926MOL0     C27708   1.563   1.679   0.348  0.5115 -0.2072 -0.7434
  926MOL0     O27709   1.462   1.645   0.266  0.1376 -0.0393 -0.4115
  926MOL0     C27710   1.344   1.594   0.323  0.2764  0.1013  0.3946
  926MOL0     C27711   1.233   1.636   0.235  0.1564  0.3675 -0.3783
  926MOL0     C27712   1.252   1.570   0.096  0.5461  0.6961  0.1694
  926MOL0     C27713   1.231   1.411   0.101  0.3815  0.1727 -0.4229
  926MOL0     C27714   1.185   1.358  -0.026  0.3905 -0.9647  0.8852
  926MOL0     C27715   1.148   1.317  -0.131  0.4084  0.3087  0.7703
  926MOL0     C27716   1.620   1.809   0.331  0.2695 -0.5635 -0.4302
  926MOL0     C27717   1.735   1.847   0.403  0.4295  0.4161  0.3325
  926MOL0     C27718   1.782   1.982   0.386 -0.3664 -1.3283 -0.8694
  926MOL0     H27719   2.094   1.620   0.855  0.9882 -0.0661  1.1983
  926MOL0     H27720   2.216   1.732   1.049  0.5717  2.5961  1.5539
  926MOL0     H27721   2.169   2.115   1.268 -0.1049  0.5657 -0.6944
  926MOL0     H27722   2.188   2.160   1.101 -2.4991 -0.4480  1.8558
  926MOL0     H27723   2.376   2.208   1.262  2.7514 -1.4179  0.4673
  926MOL0     H27724   2.401   2.039   1.284 -0.9214 -1.0924 -0.1413
  926MOL0     H27725   2.481   1.992   1.068  1.8264  0.8423 -0.4984
  926MOL0     H27726   2.409   2.130   1.002 -0.5559 -1.9665 -0.0456
  926MOL0     H27727   2.554   2.287   1.065 -0.2074 -0.3087 -1.7664
  926MOL0     H27728   2.613   2.196   1.215 -0.4020  1.5940 -0.2676
  926MOL0     H27729   2.713   2.016   1.057 -0.4356 -0.7266 -1.3404
  926MOL0     H27730   2.796   2.164   1.083  0.7084 -0.2738 -1.8483
  926MOL0     H27731   2.590   2.121   0.840 -0.2075  1.0991  0.5087
  926MOL0     H27732   2.712   2.250   0.876  2.4385 -0.6040  0.6202
  926MOL0     H27733   2.783   1.959   0.839 -0.2098 -0.2373 -0.2774
  926MOL0     H27734   2.896   2.096   0.831 -0.0090  2.1138 -2.2365
  926MOL0     H27735   2.843   2.003   0.612  1.6870  2.2691 -0.3459
  926MOL0     H27736   2.682   2.071   0.627 -0.5735 -1.7537  0.3871
  926MOL0     H27737   2.680   2.350   0.584  1.6115  2.2850  2.6007
  926MOL0     H27738   2.770   2.574   0.613  1.2736  3.2286  0.4349
  926MOL0     H27739   2.840   2.577   0.444  2.8273  0.5728 -0.4302
  926MOL0     H27740   3.031   2.570   0.688 -1.7368  1.9727  1.7970
  926MOL0     H27741   3.051   2.607   0.523 -0.0297 -1.8280  0.8482
  926MOL0     H27742   3.071   2.800   0.615  0.8118 -2.7779 -0.2501
  926MOL0     H27743   2.913   2.805   0.527  0.0513 -2.2910 -2.0107
  926MOL0     H27744   2.880   2.918   0.715 -0.4283  0.1970  1.0133
  926MOL0     H27745   2.810   2.761   0.758  0.6982 -1.3535  1.7775
  926MOL0     H27746   2.762   2.885   0.987  2.9443 -2.8638 -2.7578
  926MOL0     H27747   2.722   3.062   1.283 -0.0844 -2.0514 -0.7477
  926MOL0     H27748   2.646   2.995   1.133 -1.1748 -0.5772  1.1814
  926MOL0     H27749   2.664   3.168   1.147  0.1730 -1.0408 -0.1422
  926MOL0     H27750   3.043   3.310   1.533 -1.3912  0.5558 -0.0249
  926MOL0     H27751   3.083   3.518   1.666 -3.3260  0.1939 -1.0023
  926MOL0     H27752   2.976   3.798   1.660  0.3261  1.1262 -0.3586
  926MOL0     H27753   3.099   3.710   1.754 -0.4178 -0.2381 -0.1944
  926MOL0     H27754   3.129   3.992   1.631 -0.3252  0.7965  1.1228
  926MOL0     H27755   3.085   3.963   1.802 -1.7261 -0.2464 -0.8824
  926MOL0     H27756   3.342   4.005   1.781 -3.2354  0.9424  0.7052
  926MOL0     H27757   3.340   3.880   1.651  1.2133 -0.9228  0.8067
  926MOL0     H27758   3.309   3.709   1.792 -4.3602  0.4351  3.3625
  926MOL0     H27759   3.274   3.811   1.926 -0.5115  1.4386 -1.5238
  926MOL0     H27760   3.548   3.783   1.784  0.5235  0.4364  0.6205
  926MOL0     H27761   3.508   3.893   1.929 -2.7790  0.7079  0.3234
  926MOL0     H27762   3.643   3.715   1.982  0.6901 -0.9661 -2.1952
  926MOL0     H27763   3.536   3.595   1.912 -0.3669 -0.1667 -0.0993
  926MOL0     H27764   3.379   3.642   2.083  0.5463 -0.1880 -2.5351
  926MOL0     H27765   3.449   3.792   2.134 -1.5829  0.2562 -2.7712
  926MOL0     H27766   3.580   3.524   2.115 -0.3437  0.0325 -0.7480
  926MOL0     H27767   3.487   3.563   2.264 -3.8085  0.7931 -2.8979
  926MOL0     H27768   3.180   3.745   1.314 -1.5313 -0.1847 -1.5321
  926MOL0     H27769   3.184   3.524   1.179 -0.0141 -0.6072 -0.2896
  926MOL0     H27770   3.163   3.139   1.094 -0.6741 -0.3657  0.3637
  926MOL0     H27771   3.168   2.961   0.936  0.3306  0.6773 -0.6641
  926MOL0     H27772   1.994   2.079   0.993 -0.2594  0.5680 -3.9450
  926MOL0     H27773   1.858   1.971   0.821  1.2582 -0.0976 -2.1971
  926MOL0     H27774   1.755   1.554   0.590  1.0668 -1.2538 -2.4163
  926MOL0     H27775   1.572   1.479   0.449  0.8603 -0.7465  1.4212
  926MOL0     H27776   1.350   1.485   0.329 -0.4898 -0.3349 -3.8318
  926MOL0     H27777   1.329   1.630   0.425 -4.1187 -1.6070  0.5763
  926MOL0     H27778   1.236   1.746   0.240  4.0859  0.3991 -0.1126
  926MOL0     H27779   1.140   1.603   0.282  0.9384 -1.0420  0.2472
  926MOL0     H27780   1.169   1.622   0.046  1.0462  0.0928 -1.3465
  926MOL0     H27781   1.354   1.587   0.062  1.6725 -2.6049  1.4229
  926MOL0     H27782   1.145   1.408   0.168 -0.7834 -0.7898 -1.8828
  926MOL0     H27783   1.317   1.351   0.132  0.0652 -1.5829 -2.6344
  926MOL0     H27784   1.107   1.284  -0.225 -3.5728 -1.1999  2.8103
  926MOL0     H27785   1.581   1.865   0.247  1.2814 -2.0553 -1.9495
  926MOL0     H27786   1.782   2.027   0.486  1.2342 -2.3585 -0.3842
  926MOL0     H27787   1.884   1.980   0.347 -0.1882  0.3525 -0.5735
  926MOL0     H27788   1.719   2.045   0.321 -1.6019 -0.1937  1.3157
  927MOL0     O27789   6.076   6.014   2.477  0.3377  0.5016  0.2490
  927MOL0     C27790   5.961   5.977   2.442 -0.1196 -0.9443 -0.5933
  927MOL0     O27791   5.918   5.931   2.322 -0.2962  0.0436 -0.6066
  927MOL0     C27792   6.018   5.911   2.232 -0.4411 -1.0685  1.6106
  927MOL0     C27793   6.067   6.018   2.153 -0.4830  0.6960 -0.7245
  927MOL0     C27794   6.168   6.004   2.062  0.1863 -1.5428  0.1103
  927MOL0     C27795   6.251   5.898   2.066  0.5862  0.1253  0.0008
  927MOL0     O27796   6.369   5.902   1.993 -0.4103  0.5183  0.7569
  927MOL0     C27797   6.366   5.879   1.854 -0.0585 -0.1575  0.9350
  927MOL0     C27798   6.497   5.902   1.789  1.2041  1.3144  1.7206
  927MOL0     C27799   6.601   5.827   1.863  0.2107 -0.1376 -0.0315
  927MOL0     C27800   6.619   5.674   1.820  0.5463 -0.5842 -1.1091
  927MOL0     C27801   6.746   5.621   1.883 -0.0716 -0.0892 -0.0934
  927MOL0     C27802   6.778   5.481   1.823 -0.0145 -0.5893  0.1630
  927MOL0     C27803   6.933   5.463   1.848 -0.0082 -0.1821  0.0050
  927MOL0     C27804   6.976   5.341   1.773 -1.0617 -0.8573  0.4960
  927MOL0     N27805   7.125   5.309   1.797 -0.2248 -0.4866 -0.3594
  927MOL0     C27806   7.178   5.197   1.847  0.1811 -0.8943  0.3545
  927MOL0     C27807   7.304   5.219   1.850  0.1695 -0.6302  0.5462
  927MOL0     C27808   7.408   5.123   1.913  0.1292  0.0383  0.3426
  927MOL0     C27809   7.391   5.118   2.066 -0.6864  0.2037  0.1004
  927MOL0     C27810   7.318   4.988   2.114  0.5897 -0.0232  0.3163
  927MOL0     C27811   7.296   5.004   2.269 -0.1536  0.5870  1.0573
  927MOL0     O27812   7.404   5.070   2.329 -0.0107  0.0611 -0.6077
  927MOL0     C27813   7.379   5.120   2.446  0.4346 -0.7702  0.1964
  927MOL0     C27814   7.328   5.055   2.556  0.8497 -0.0526 -0.0728
  927MOL0     C27815   7.284   5.110   2.676 -0.2849 -0.5713  0.0945
  927MOL0     C27816   7.211   5.037   2.781  0.5268  0.8812 -0.5489
  927MOL0     C27817   7.320   5.252   2.696  0.3915  0.3416  0.2930
  927MOL0     C27818   7.289   5.331   2.818  0.2446  0.2978 -0.7016
  927MOL0     O27819   7.314   5.470   2.815  0.5114 -0.3177 -0.4907
  927MOL0     C27820   7.255   5.541   2.919 -0.9057 -0.3187  0.7555
  927MOL0     C27821   7.328   5.653   2.965 -0.1551 -0.5372 -0.4117
  927MOL0     C27822   7.274   5.749   3.050  0.1846 -0.0923 -0.2511
  927MOL0     C27823   7.143   5.736   3.106  0.0486  1.1783 -0.3642
  927MOL0     O27824   7.098   5.824   3.202  0.0544  1.1638 -0.4497
  927MOL0     C27825   6.980   5.782   3.275 -0.6914  0.0080 -0.0419
  927MOL0     C27826   6.961   5.876   3.395  1.0335  0.3122  0.7372
  927MOL0     C27827   6.906   6.010   3.360 -0.5241  0.1185  0.1331
  927MOL0     C27828   6.902   6.102   3.480  0.3913 -0.5180 -0.1470
  927MOL0     C27829   7.039   6.142   3.531 -0.8102  0.4565 -0.5542
  927MOL0     C27830   7.032   6.244   3.646 -0.2369 -1.4074  0.5089
  927MOL0     C27831   7.146   6.229   3.745  1.0583  0.1849 -0.6724
  927MOL0     C27832   7.092   6.125   3.852 -0.5777  0.0174  1.0306
  927MOL0    Cl27833   7.203   6.080   3.985 -0.0666  0.0753  0.0010
  927MOL0     C27834   7.070   5.622   3.060  0.0520  0.5782 -0.1273
  927MOL0     C27835   7.124   5.528   2.968 -1.0609 -0.2096 -0.0076
  927MOL0     O27836   7.234   5.277   2.920 -0.5442 -0.0608 -0.1564
  927MOL0     C27837   7.379   5.320   2.584 -0.6298  0.6674 -0.2266
  927MOL0     C27838   7.406   5.260   2.468  0.7399  0.9627  0.2886
  927MOL0     N27839   7.332   5.337   1.778 -0.7990  0.5264  0.1412
  927MOL0     N27840   7.223   5.392   1.753 -0.1049  0.0892  0.0088
  927MOL0     C27841   6.202   5.786   2.133  0.1853 -0.3499 -0.3539
  927MOL0     C27842   6.084   5.792   2.210  1.0197 -0.1969 -0.4397
  927MOL0     C27843   5.860   5.991   2.549  0.3139  0.7335  0.1341
  927MOL0     C27844   5.900   5.977   2.685 -0.0785 -0.2868 -0.2916
  927MOL0     C27845   5.809   5.978   2.798  0.3101  0.8778  0.1501
  927MOL0     C27846   5.673   5.988   2.772 -0.6500 -0.0561 -0.2967
  927MOL0     O27847   5.572   5.988   2.857 -1.1511 -0.3019  0.4956
  927MOL0     C27848   5.594   6.002   3.000 -0.1299 -0.2753 -0.2981
  927MOL0     C27849   5.586   5.864   3.059 -0.0587  0.7674 -0.2172
  927MOL0     C27850   5.452   5.813   3.022 -0.0496  0.8068 -0.1876
  927MOL0     C27851   5.438   5.672   3.083 -0.8419 -0.0479  0.4133
  927MOL0     C27852   5.315   5.623   3.034 -0.4233  1.0193  0.1635
  927MOL0     C27853   5.206   5.580   3.000  0.9488 -0.2817 -0.8875
  927MOL0     C27854   5.636   6.009   2.642  0.1760  0.1540 -0.8721
  927MOL0     C27855   5.720   6.008   2.528 -0.4388  0.3548  0.0467
  927MOL0     C27856   5.654   6.027   2.404 -0.4121 -0.5057  0.6784
  927MOL0     H27857   6.021   6.115   2.166  2.6680  2.6304 -2.7895
  927MOL0     H27858   6.206   6.084   2.000  1.4951 -0.7634  1.8194
  927MOL0     H27859   6.292   5.950   1.815  0.7175 -1.9893 -4.6997
  927MOL0     H27860   6.327   5.784   1.816  1.2528 -0.1090 -0.6317
  927MOL0     H27861   6.501   5.870   1.685  2.9797  2.1051  1.5252
  927MOL0     H27862   6.533   6.005   1.793  0.6266  1.5624  0.7180
  927MOL0     H27863   6.696   5.872   1.834 -0.9014  1.9439 -0.6430
  927MOL0     H27864   6.596   5.846   1.970 -0.7403 -1.2972  0.1415
  927MOL0     H27865   6.533   5.617   1.858  1.0929 -1.0846 -0.6064
  927MOL0     H27866   6.619   5.669   1.711 -0.0403 -0.0739 -1.1393
  927MOL0     H27867   6.741   5.599   1.991  0.1615  0.1022 -0.0433
  927MOL0     H27868   6.831   5.687   1.863  0.4740 -1.0556 -1.0249
  927MOL0     H27869   6.727   5.406   1.885  1.3475  0.8170  3.1751
  927MOL0     H27870   6.760   5.488   1.715  2.1510 -0.1881 -0.2004
  927MOL0     H27871   6.947   5.466   1.956 -3.2525  0.1452  0.5317
  927MOL0     H27872   7.001   5.539   1.808  0.1955 -1.0920 -1.4730
  927MOL0     H27873   6.919   5.259   1.819 -4.3038  0.5411 -0.6729
  927MOL0     H27874   6.955   5.353   1.667  0.2790  2.0431  0.4865
  927MOL0     H27875   7.127   5.119   1.902  1.4281 -0.0404  2.8934
  927MOL0     H27876   7.510   5.160   1.896  0.6022 -1.2234  0.3460
  927MOL0     H27877   7.392   5.027   1.863 -3.9541  1.1880 -0.9526
  927MOL0     H27878   7.492   5.101   2.104  0.7538 -0.3787 -3.5933
  927MOL0     H27879   7.348   5.207   2.113  0.1989 -0.7838  2.9852
  927MOL0     H27880   7.219   4.990   2.067 -0.2913 -0.3582  2.0791
  927MOL0     H27881   7.381   4.903   2.086 -0.1723 -0.8679  1.0707
  927MOL0     H27882   7.195   5.041   2.287 -0.8693  0.7194 -2.4945
  927MOL0     H27883   7.301   4.903   2.310  1.5192 -0.0484 -0.5590
  927MOL0     H27884   7.312   4.950   2.533 -0.8848  0.3282 -0.7987
  927MOL0     H27885   7.256   5.045   2.881  0.4775  0.0298 -0.4565
  927MOL0     H27886   7.195   4.934   2.751 -0.1424  1.2708 -1.5726
  927MOL0     H27887   7.120   5.089   2.813  2.3334  3.7025  0.4624
  927MOL0     H27888   7.416   5.690   2.913 -0.4375 -0.5742 -0.9277
  927MOL0     H27889   7.327   5.838   3.082  2.8550 -2.9303  4.2773
  927MOL0     H27890   6.887   5.788   3.217 -1.0483  1.9122  0.6425
  927MOL0     H27891   6.979   5.681   3.317 -1.0944 -0.3201 -0.8196
  927MOL0     H27892   6.904   5.833   3.478  2.2244 -2.4235  0.2452
  927MOL0     H27893   7.064   5.885   3.431  1.5756 -3.1855  0.4094
  927MOL0     H27894   6.812   5.998   3.306  0.3171 -2.4580 -0.9265
  927MOL0     H27895   6.962   6.069   3.287 -0.9222 -1.0358 -1.1477
  927MOL0     H27896   6.842   6.060   3.561  0.8339  2.2697  1.7258
  927MOL0     H27897   6.850   6.189   3.439  0.4198 -0.5348 -0.2200
  927MOL0     H27898   7.085   6.057   3.581 -0.5771  1.0566  0.2677
  927MOL0     H27899   7.097   6.181   3.447 -0.1603 -0.9846 -0.8003
  927MOL0     H27900   6.936   6.220   3.693  0.0726 -0.5298  1.6593
  927MOL0     H27901   7.033   6.349   3.616  0.8998 -1.5898 -0.1664
  927MOL0     H27902   7.165   6.326   3.792 -0.3433 -0.0702  0.4970
  927MOL0     H27903   7.243   6.213   3.697  2.6121  0.0591  2.3018
  927MOL0     H27904   7.073   6.039   3.787 -2.5616  2.5799 -2.0714
  927MOL0     H27905   6.994   6.150   3.894  0.0888 -2.1415  4.1716
  927MOL0     H27906   6.968   5.607   3.093 -0.3796  1.2877 -1.0666
  927MOL0     H27907   7.059   5.445   2.942 -0.7531 -1.4154  2.7138
  927MOL0     H27908   7.379   5.429   2.586 -0.2899  0.8498  5.1436
  927MOL0     H27909   7.460   5.307   2.386 -0.7551  2.3095  0.0466
  927MOL0     H27910   6.256   5.692   2.129  2.5911  1.0113 -2.5252
  927MOL0     H27911   6.053   5.706   2.269  2.2975  0.8022  1.8650
  927MOL0     H27912   6.005   5.968   2.710  0.8715  1.5843 -3.0766
  927MOL0     H27913   5.835   5.974   2.903 -0.0001 -0.4727  0.1936
  927MOL0     H27914   5.690   6.042   3.035 -0.9983  0.4240  1.4559
  927MOL0     H27915   5.515   6.070   3.035 -0.2419 -0.1956 -0.7076
  927MOL0     H27916   5.582   5.871   3.168  1.6687  2.0068 -0.2082
  927MOL0     H27917   5.667   5.801   3.023 -0.9774 -0.0743 -0.8715
  927MOL0     H27918   5.376   5.886   3.052 -0.2660  1.9109 -3.1319
  927MOL0     H27919   5.444   5.803   2.913 -3.4366  0.0015  0.0368
  927MOL0     H27920   5.452   5.681   3.191  2.1162  1.7203  0.0062
  927MOL0     H27921   5.524   5.617   3.043  0.5808  1.0096  1.9201
  927MOL0     H27922   5.115   5.540   2.960  0.0973  1.0709 -0.3543
  927MOL0     H27923   5.533   6.044   2.633  0.6420  1.7771 -0.2477
  927MOL0     H27924   5.719   6.078   2.332  1.5646 -2.5823  0.8618
  927MOL0     H27925   5.633   5.928   2.363  1.1153 -0.8843  0.7368
  927MOL0     H27926   5.550   6.061   2.397 -0.0146  0.7280  0.4894
  928MOL0     O27927   6.173   2.224   8.717 -0.4231 -0.0553  0.1774
  928MOL0     C27928   6.160   2.100   8.708 -0.1599 -0.2352  0.0410
  928MOL0     O27929   6.240   2.013   8.770 -0.1749 -0.0557  0.5724
  928MOL0     C27930   6.376   2.039   8.802  0.2552 -0.0062  1.8035
  928MOL0     C27931   6.468   2.106   8.724 -0.4464 -0.0515  0.7137
  928MOL0     C27932   6.600   2.118   8.771 -0.1310  0.0631  0.3592
  928MOL0     C27933   6.635   2.065   8.896  0.4924  0.4824  0.1859
  928MOL0     O27934   6.763   2.076   8.945 -1.1364  0.3787  0.0160
  928MOL0     C27935   6.860   2.124   8.859 -0.6439  0.0439 -0.5841
  928MOL0     C27936   7.006   2.103   8.919  0.6080 -0.1552 -1.0295
  928MOL0     C27937   7.115   2.178   8.841 -0.1271 -0.4252 -0.0604
  928MOL0     C27938   7.257   2.147   8.879 -0.1780 -0.0914 -0.4153
  928MOL0     C27939   7.348   2.251   8.795  0.3000  0.5597  0.2866
  928MOL0     C27940   7.502   2.221   8.811 -0.3901  0.1916  0.4291
  928MOL0     C27941   7.564   2.273   8.951  0.5305  0.7291  1.6098
  928MOL0     C27942   7.716   2.273   8.968 -0.0953  0.9859 -0.5165
  928MOL0     N27943   7.800   2.283   8.846 -1.0267 -0.8161  0.4223
  928MOL0     C27944   7.885   2.393   8.826  0.7054 -0.0407 -0.9386
  928MOL0     C27945   7.953   2.374   8.717  1.0416 -0.9946  0.1111
  928MOL0     C27946   8.051   2.459   8.639 -0.1711 -0.0862 -0.2487
  928MOL0     C27947   8.003   2.481   8.493  0.7132  0.4391  0.6725
  928MOL0     C27948   8.088   2.561   8.402 -0.1012  0.2316  0.5208
  928MOL0     C27949   8.076   2.708   8.437 -1.3701  0.0659  0.2655
  928MOL0     O27950   7.945   2.745   8.391  0.8628 -0.4866  0.6309
  928MOL0     C27951   7.877   2.850   8.443 -0.4998  0.1355  0.0821
  928MOL0     C27952   7.795   2.921   8.363 -0.4967  0.3247 -0.4414
  928MOL0     C27953   7.745   3.044   8.401 -0.0345 -0.5959 -0.3745
  928MOL0     C27954   7.680   3.120   8.293 -0.0822  0.1809 -0.1508
  928MOL0     C27955   7.756   3.090   8.539 -0.8245 -0.3151 -0.6535
  928MOL0     C27956   7.711   3.221   8.596  0.7980 -0.3799  0.3600
  928MOL0     O27957   7.615   3.298   8.528  0.3099  0.4467 -0.2005
  928MOL0     C27958   7.553   3.403   8.591 -0.0205 -0.2717  0.6353
  928MOL0     C27959   7.620   3.521   8.619 -0.7861 -0.3425 -0.1311
  928MOL0     C27960   7.557   3.629   8.681 -0.0205  0.6171 -0.0185
  928MOL0     C27961   7.427   3.626   8.732 -0.4404  0.4882  0.2872
  928MOL0     O27962   7.378   3.731   8.812  0.4947  0.1047  0.2336
  928MOL0     C27963   7.266   3.704   8.899  0.6835 -0.0034  0.4293
  928MOL0     C27964   7.290   3.584   8.992 -0.4474 -0.4105 -1.1010
  928MOL0     C27965   7.161   3.557   9.077 -0.5398 -0.7691  0.6671
  928MOL0     C27966   7.162   3.413   9.145  0.6127  0.5409 -1.1648
  928MOL0     C27967   7.035   3.383   9.218  0.5370 -0.0661 -0.1757
  928MOL0     C27968   6.903   3.391   9.151 -0.0617 -0.0498  0.1236
  928MOL0     C27969   6.797   3.372   9.259  0.5427 -0.6779  1.3142
  928MOL0     C27970   6.779   3.503   9.345  0.9879  0.0588 -0.6226
  928MOL0    Cl27971   6.611   3.507   9.414 -0.0488  0.1381 -0.2937
  928MOL0     C27972   7.358   3.509   8.688 -0.1021  0.6077 -0.4145
  928MOL0     C27973   7.418   3.400   8.618 -0.1140 -0.7546 -0.0594
  928MOL0     O27974   7.739   3.251   8.711  0.0091  0.1560  0.3204
  928MOL0     C27975   7.834   3.010   8.623 -1.0015 -0.3309  0.2731
  928MOL0     C27976   7.888   2.882   8.581 -0.4148  0.9642 -0.0369
  928MOL0     N27977   7.911   2.256   8.667 -0.7521 -0.2435 -0.7999
  928MOL0     N27978   7.826   2.196   8.751  0.9626  0.1855  0.8051
  928MOL0     C27979   6.537   2.003   8.970  0.2887 -0.3006  0.6885
  928MOL0     C27980   6.413   1.979   8.912 -0.5514  0.3134 -0.7216
  928MOL0     C27981   6.039   2.051   8.649  0.0708 -0.6500 -0.5506
  928MOL0     C27982   6.059   1.928   8.585  0.0040  0.4105  0.4400
  928MOL0     C27983   5.960   1.856   8.532 -0.9617 -0.1189  0.0819
  928MOL0     C27984   5.830   1.906   8.521 -0.3487 -0.4461 -0.9458
  928MOL0     O27985   5.743   1.834   8.449  0.9396 -0.4578 -0.1783
  928MOL0     C27986   5.642   1.905   8.370  0.0418 -0.4484  0.5054
  928MOL0     C27987   5.694   1.933   8.228  0.6177 -0.1612  0.2360
  928MOL0     C27988   5.730   1.801   8.148 -0.1129  0.4813  0.2994
  928MOL0     C27989   5.789   1.819   8.002  0.9242  0.6060  0.5142
  928MOL0     C27990   5.683   1.845   7.901 -0.4052 -0.5271 -0.9374
  928MOL0     C27991   5.602   1.859   7.819  0.7252 -0.6680  0.9105
  928MOL0     C27992   5.812   2.037   8.580  0.7645  0.1225 -0.2533
  928MOL0     C27993   5.909   2.113   8.649 -0.5842 -0.3383 -0.3757
  928MOL0     C27994   5.865   2.230   8.738 -0.1320 -0.5174  0.0431
  928MOL0     H27995   6.434   2.141   8.628  1.2527  3.5254  1.2719
  928MOL0     H27996   6.676   2.163   8.708  2.3988 -0.5723  2.7343
  928MOL0     H27997   6.846   2.233   8.854  1.5377  0.3325 -1.9648
  928MOL0     H27998   6.862   2.079   8.759 -1.2046 -0.4728 -0.3661
  928MOL0     H27999   7.009   2.141   9.022 -0.7601 -3.2711  0.2960
  928MOL0     H28000   7.037   1.999   8.905  1.3069 -0.6481  2.9656
  928MOL0     H28001   7.102   2.148   8.736  3.5748 -0.7303 -0.5495
  928MOL0     H28002   7.091   2.285   8.847  0.0782 -0.1768 -2.6194
  928MOL0     H28003   7.265   2.174   8.985  1.4656  1.9000 -0.9839
  928MOL0     H28004   7.277   2.040   8.874 -2.4511 -0.5944  0.1167
  928MOL0     H28005   7.324   2.352   8.829  3.5082  1.2601  0.8404
  928MOL0     H28006   7.325   2.245   8.689 -2.5571 -2.6357  0.9286
  928MOL0     H28007   7.526   2.116   8.795  0.0155  0.2506  0.6351
  928MOL0     H28008   7.557   2.279   8.736 -2.5446  1.1297 -0.4949
  928MOL0     H28009   7.524   2.220   9.038  2.4131 -0.1022  2.0163
  928MOL0     H28010   7.531   2.377   8.960  2.1938  1.0823  5.6709
  928MOL0     H28011   7.748   2.360   9.027 -1.7322  0.4564  1.2386
  928MOL0     H28012   7.737   2.186   9.030 -1.8367  1.2595  0.5156
  928MOL0     H28013   7.888   2.475   8.897 -2.2958 -0.8679  0.2960
  928MOL0     H28014   8.145   2.402   8.644 -0.0292  0.0632 -1.1184
  928MOL0     H28015   8.074   2.554   8.689  2.5019 -0.3552 -0.8016
  928MOL0     H28016   8.000   2.378   8.457 -2.4837  0.8399 -0.5241
  928MOL0     H28017   7.900   2.514   8.478  0.5557 -0.3757 -0.0840
  928MOL0     H28018   8.192   2.530   8.419  1.6167  3.7801 -2.1565
  928MOL0     H28019   8.069   2.550   8.295  1.0233  4.0209 -0.2097
  928MOL0     H28020   8.084   2.698   8.546 -0.1768  0.1800  0.2036
  928MOL0     H28021   8.151   2.768   8.385 -2.5314  0.8835 -0.5078
  928MOL0     H28022   7.792   2.894   8.257  0.5215  1.5611 -0.8065
  928MOL0     H28023   7.719   3.220   8.277 -2.1350  0.9987 -0.3156
  928MOL0     H28024   7.575   3.131   8.321  0.3504  3.2726  0.5510
  928MOL0     H28025   7.688   3.060   8.202  0.0338  1.9286 -1.3398
  928MOL0     H28026   7.718   3.533   8.574 -0.4554 -1.1559  0.3635
  928MOL0     H28027   7.613   3.717   8.708  5.4061 -2.4698  0.1620
  928MOL0     H28028   7.250   3.791   8.963  1.2703 -0.6884  1.5473
  928MOL0     H28029   7.166   3.688   8.857  0.9779  1.4119 -0.8800
  928MOL0     H28030   7.314   3.490   8.942 -0.4819 -0.2614 -1.3967
  928MOL0     H28031   7.378   3.607   9.053 -0.8203 -2.4466  0.3173
  928MOL0     H28032   7.069   3.574   9.019  0.6540  1.6172 -0.6690
  928MOL0     H28033   7.167   3.636   9.153  1.8084  0.8020 -1.0010
  928MOL0     H28034   7.252   3.407   9.207 -0.7139 -0.8140  0.7495
  928MOL0     H28035   7.167   3.338   9.066 -1.8948 -1.0450  0.0392
  928MOL0     H28036   7.032   3.289   9.275 -1.6732 -0.7978 -1.3855
  928MOL0     H28037   7.035   3.464   9.291 -0.5915  0.6844 -0.9738
  928MOL0     H28038   6.912   3.319   9.069 -0.4574  1.3351 -1.1926
  928MOL0     H28039   6.894   3.481   9.090  1.5245  0.3257  0.3842
  928MOL0     H28040   6.818   3.285   9.323  2.7516 -2.5082 -1.6439
  928MOL0     H28041   6.702   3.368   9.205  0.9110  1.1069  0.4706
  928MOL0     H28042   6.795   3.594   9.287 -0.1818  0.1130 -0.8987
  928MOL0     H28043   6.852   3.505   9.426  1.3682 -1.4787 -0.9081
  928MOL0     H28044   7.251   3.509   8.701 -0.1526  4.0265  0.2922
  928MOL0     H28045   7.363   3.311   8.589  0.6775 -0.8569 -1.3358
  928MOL0     H28046   7.856   3.043   8.724  0.8501 -1.2149  0.2065
  928MOL0     H28047   7.950   2.845   8.662  0.1809  1.1268 -0.4129
  928MOL0     H28048   6.567   1.951   9.060  0.9500 -0.8752  0.1397
  928MOL0     H28049   6.351   1.914   8.973  2.5046 -2.0782  0.1043
  928MOL0     H28050   6.156   1.889   8.556 -1.2830 -0.1935 -3.7635
  928MOL0     H28051   5.981   1.764   8.479 -1.6459  0.6265 -1.5557
  928MOL0     H28052   5.550   1.848   8.361 -1.9197  2.5086  0.3413
  928MOL0     H28053   5.594   1.997   8.406 -2.0209 -0.4243 -2.0116
  928MOL0     H28054   5.776   2.005   8.237  2.4678 -2.1189  0.1024
  928MOL0     H28055   5.608   1.979   8.179 -0.0017 -1.0017  0.5248
  928MOL0     H28056   5.813   1.750   8.196  0.9946  0.4335 -1.5754
  928MOL0     H28057   5.649   1.727   8.145  1.3723 -1.3649  2.6415
  928MOL0     H28058   5.832   1.725   7.966 -0.7744 -0.0174  0.0178
  928MOL0     H28059   5.867   1.896   7.995  0.5459  0.8054 -2.7714
  928MOL0     H28060   5.523   1.859   7.747  1.0239  4.7711  0.1084
  928MOL0     H28061   5.714   2.083   8.588  0.5314 -0.6025  1.4770
  928MOL0     H28062   5.857   2.323   8.682 -3.1003  0.3431  1.7034
  928MOL0     H28063   5.767   2.209   8.781 -0.7799  1.8732 -0.1639
  928MOL0     H28064   5.937   2.240   8.820  1.6612  0.1083 -1.5495
  929MOL0     O28065  11.603   6.254   2.887 -0.2931  0.0165 -0.2138
  929MOL0     C28066  11.599   6.366   2.834 -0.2290 -0.0364  0.5581
  929MOL0     O28067  11.617   6.490   2.905  0.2722 -0.8156 -0.9061
  929MOL0     C28068  11.641   6.468   3.041 -0.4243 -0.8510 -0.0165
  929MOL0     C28069  11.544   6.432   3.134 -0.2600 -0.0245 -0.7732
  929MOL0     C28070  11.573   6.404   3.268  0.6191  0.3224  0.2700
  929MOL0     C28071  11.713   6.415   3.316  0.4635 -0.2261  0.1385
  929MOL0     O28072  11.762   6.407   3.442  1.0205  0.1125 -0.0297
  929MOL0     C28073  11.667   6.368   3.545  0.9751 -0.5663  0.0070
  929MOL0     C28074  11.587   6.488   3.605  0.1604 -0.2302 -0.1618
  929MOL0     C28075  11.516   6.590   3.509  0.5879 -0.1259  0.0612
  929MOL0     C28076  11.454   6.707   3.592 -0.1656 -0.0394 -0.1826
  929MOL0     C28077  11.411   6.829   3.508  0.6888  0.2418  0.3314
  929MOL0     C28078  11.334   6.907   3.615 -0.5285  0.6692 -0.7041
  929MOL0     C28079  11.280   7.032   3.534  0.0691  0.3137  0.5639
  929MOL0     C28080  11.244   7.135   3.640  0.1031 -0.7401 -0.0505
  929MOL0     N28081  11.147   7.086   3.736  1.1226 -0.8920 -0.4407
  929MOL0     C28082  11.162   7.091   3.868  0.6855 -0.1075  0.9734
  929MOL0     C28083  11.045   7.058   3.917  0.2536  0.6495 -0.3843
  929MOL0     C28084  11.005   7.058   4.054  0.4783  0.5798 -0.5695
  929MOL0     C28085  10.948   6.914   4.091  0.1284  0.1328  0.4209
  929MOL0     C28086  10.825   6.931   4.186 -0.1113 -0.4130 -0.3865
  929MOL0     C28087  10.788   6.801   4.261 -1.7549 -0.9014 -0.6573
  929MOL0     O28088  10.717   6.708   4.168 -0.3075  0.3549 -0.5515
  929MOL0     C28089  10.696   6.582   4.212  0.1353 -0.5582  0.2209
  929MOL0     C28090  10.710   6.527   4.345 -0.5756 -0.0548  1.2284
  929MOL0     C28091  10.711   6.396   4.379 -0.3560  1.0560  0.2624
  929MOL0     C28092  10.752   6.358   4.526  0.5793  0.3483 -0.9147
  929MOL0     C28093  10.678   6.299   4.279  0.0188 -0.7894 -0.2742
  929MOL0     C28094  10.643   6.160   4.306  2.1940 -1.2974  0.1761
  929MOL0     O28095  10.660   6.084   4.206 -1.0295 -0.4338 -0.0830
  929MOL0     C28096  10.633   5.953   4.215 -0.6175  0.0693  0.1748
  929MOL0     C28097  10.722   5.873   4.287 -0.5293  0.2876  0.8571
  929MOL0     C28098  10.704   5.739   4.323  0.1039  0.1682 -0.5941
  929MOL0     C28099  10.595   5.678   4.254 -0.4901  0.5211 -0.2648
  929MOL0     O28100  10.573   5.540   4.274  0.0957  0.1178  0.0786
  929MOL0     C28101  10.515   5.504   4.396 -0.4227  0.7089  0.5220
  929MOL0     C28102  10.444   5.366   4.392 -0.0551 -0.4928 -0.1196
  929MOL0     C28103  10.344   5.354   4.282 -0.4065 -0.7806 -0.4490
  929MOL0     C28104  10.212   5.439   4.305  0.1971 -0.0028 -0.4936
  929MOL0     C28105  10.096   5.402   4.208 -0.0579  0.5793 -0.7247
  929MOL0     C28106   9.961   5.441   4.274 -0.4713 -0.2040  0.8861
  929MOL0     C28107   9.849   5.426   4.177 -0.4457  0.7017 -0.7421
  929MOL0     C28108   9.717   5.451   4.254  0.7787  0.6328  0.3169
  929MOL0    Cl28109   9.572   5.434   4.141 -0.5157  0.2726  0.6607
  929MOL0     C28110  10.506   5.753   4.175  0.5959 -0.7872 -0.5259
  929MOL0     C28111  10.522   5.893   4.157 -0.3743 -0.4877 -0.2012
  929MOL0     O28112  10.606   6.125   4.415  0.6641  0.1267  0.0353
  929MOL0     C28113  10.651   6.353   4.151 -0.8244 -0.3235 -0.4864
  929MOL0     C28114  10.666   6.490   4.114  1.0092 -0.3703  0.5187
  929MOL0     N28115  10.958   7.043   3.811 -0.2746  0.1057 -0.4181
  929MOL0     N28116  11.014   7.068   3.702 -1.0666 -0.4769 -0.3507
  929MOL0     C28117  11.798   6.474   3.227  0.8025  0.6327  0.7091
  929MOL0     C28118  11.770   6.487   3.088 -0.7143  0.0811  0.1513
  929MOL0     C28119  11.561   6.363   2.694  0.2715  1.0094  0.2474
  929MOL0     C28120  11.472   6.270   2.639  0.5028 -0.7050  0.4027
  929MOL0     C28121  11.451   6.260   2.507 -0.4455 -0.1758  0.4201
  929MOL0     C28122  11.526   6.338   2.422  1.0683 -0.2439 -0.2214
  929MOL0     O28123  11.496   6.322   2.292 -0.1558 -0.0317  0.3575
  929MOL0     C28124  11.486   6.450   2.219  0.2573  0.0450  1.2068
  929MOL0     C28125  11.392   6.458   2.099  0.4693  0.4300  0.7947
  929MOL0     C28126  11.248   6.432   2.151  0.4098  0.6020  1.2559
  929MOL0     C28127  11.187   6.543   2.233  0.0322  0.7182 -0.4111
  929MOL0     C28128  11.160   6.661   2.146 -0.7227 -0.3285 -0.0005
  929MOL0     C28129  11.143   6.754   2.070 -0.1511 -0.4905  0.2341
  929MOL0     C28130  11.617   6.436   2.468 -0.3568  0.5125  0.8377
  929MOL0     C28131  11.624   6.451   2.608 -0.2749 -0.0948  0.4528
  929MOL0     C28132  11.723   6.560   2.642 -0.3462 -0.1354 -0.8126
  929MOL0     H28133  11.443   6.418   3.099 -0.4094  1.5753 -1.0747
  929MOL0     H28134  11.492   6.366   3.329 -3.4886  3.4485 -2.6722
  929MOL0     H28135  11.718   6.317   3.628 -0.6655  1.5803  2.4821
  929MOL0     H28136  11.600   6.285   3.521 -0.2754  1.2395 -3.3391
  929MOL0     H28137  11.507   6.441   3.662  0.5893 -0.1060  0.5625
  929MOL0     H28138  11.634   6.543   3.687 -1.9976  0.3663  0.7370
  929MOL0     H28139  11.597   6.625   3.445  1.2364 -1.4452  0.1085
  929MOL0     H28140  11.440   6.535   3.454  0.1304 -1.9213  2.3115
  929MOL0     H28141  11.366   6.667   3.643  0.0543  0.4708  0.6096
  929MOL0     H28142  11.530   6.749   3.659 -0.3135 -1.4214  0.8926
  929MOL0     H28143  11.345   6.814   3.422  1.9901  0.8092 -0.8185
  929MOL0     H28144  11.493   6.891   3.469 -1.1836  0.2672 -4.2406
  929MOL0     H28145  11.260   6.856   3.678 -0.1777  2.4793  1.2857
  929MOL0     H28146  11.396   6.937   3.699 -1.9605 -1.9213  1.4377
  929MOL0     H28147  11.192   7.001   3.476  0.1511 -0.5028  0.8648
  929MOL0     H28148  11.342   7.070   3.453 -0.4343  2.1934  1.0150
  929MOL0     H28149  11.337   7.177   3.678 -1.3625  3.7572 -0.8437
  929MOL0     H28150  11.196   7.219   3.589 -0.0504 -0.9571 -0.2681
  929MOL0     H28151  11.262   7.105   3.907  2.1091 -0.3223 -2.3092
  929MOL0     H28152  10.932   7.138   4.069 -0.9306 -0.3859 -1.9111
  929MOL0     H28153  11.088   7.094   4.115  0.1413  2.4164 -1.1291
  929MOL0     H28154  10.899   6.863   4.008  1.2479 -0.8323  0.3336
  929MOL0     H28155  11.024   6.857   4.146 -0.5327 -1.3031 -0.1106
  929MOL0     H28156  10.852   7.004   4.262  1.9898 -1.6286  0.1011
  929MOL0     H28157  10.745   6.978   4.128 -0.3995  4.1018  3.0901
  929MOL0     H28158  10.878   6.759   4.307 -3.4351 -1.0180  2.8389
  929MOL0     H28159  10.728   6.821   4.350  0.8736 -1.0594  1.2992
  929MOL0     H28160  10.725   6.591   4.431  0.3492  0.1024  0.9669
  929MOL0     H28161  10.832   6.283   4.520  2.0919  1.8193  0.0143
  929MOL0     H28162  10.665   6.323   4.581  2.4969 -2.9248  0.3096
  929MOL0     H28163  10.777   6.446   4.585 -2.1388 -0.4719  1.6502
  929MOL0     H28164  10.809   5.928   4.323 -1.9277  1.2949  2.8782
  929MOL0     H28165  10.783   5.692   4.381  2.3240  0.7998 -2.9344
  929MOL0     H28166  10.576   5.518   4.486 -0.4218  4.2764  0.1010
  929MOL0     H28167  10.434   5.572   4.424 -1.3463 -1.1525  2.8057
  929MOL0     H28168  10.524   5.294   4.374  2.6283  1.4607  2.8375
  929MOL0     H28169  10.377   5.351   4.478 -2.3735  2.1088 -1.2910
  929MOL0     H28170  10.315   5.249   4.279  1.9536 -1.5602  0.9715
  929MOL0     H28171  10.381   5.366   4.179 -0.2330  0.3855 -0.2723
  929MOL0     H28172  10.226   5.548   4.303 -0.7878  0.3061  2.7927
  929MOL0     H28173  10.183   5.427   4.410  3.0718 -0.7248  0.3085
  929MOL0     H28174  10.097   5.465   4.118 -2.4125 -0.2033 -1.3559
  929MOL0     H28175  10.107   5.297   4.179 -0.2783 -0.7588  3.4764
  929MOL0     H28176   9.960   5.545   4.307 -0.8462 -0.1882  0.8231
  929MOL0     H28177   9.953   5.377   4.363  0.5696  2.7162  3.2614
  929MOL0     H28178   9.851   5.327   4.131 -0.5699  0.7465 -0.8461
  929MOL0     H28179   9.871   5.496   4.095  0.7048  1.2654  0.0239
  929MOL0     H28180   9.723   5.554   4.292 -2.3021  1.0344 -0.0468
  929MOL0     H28181   9.701   5.379   4.334 -2.9585 -2.1487 -2.5878
  929MOL0     H28182  10.419   5.701   4.136 -0.7604  1.3508 -0.5074
  929MOL0     H28183  10.442   5.947   4.108 -1.6674 -1.6443  0.5779
  929MOL0     H28184  10.620   6.292   4.066  2.4009 -0.4113 -1.7247
  929MOL0     H28185  10.651   6.529   4.014  2.6287 -0.7537  0.0918
  929MOL0     H28186  11.889   6.512   3.272  0.7759  1.1018  0.3839
  929MOL0     H28187  11.842   6.533   3.021  0.7947 -0.4450  1.3414
  929MOL0     H28188  11.430   6.200   2.710  1.7665 -1.3352  0.5628
  929MOL0     H28189  11.382   6.176   2.496 -1.5151  0.7048  0.1876
  929MOL0     H28190  11.454   6.532   2.284 -0.6018  1.5917 -1.0522
  929MOL0     H28191  11.588   6.475   2.186 -0.3748  0.9158 -0.1855
  929MOL0     H28192  11.421   6.371   2.039 -3.0517  0.9477 -2.0068
  929MOL0     H28193  11.399   6.553   2.046 -0.5348  0.7728  1.2467
  929MOL0     H28194  11.185   6.407   2.064  1.8197 -0.6834  0.5477
  929MOL0     H28195  11.251   6.339   2.208  0.0323  0.6653  1.3856
  929MOL0     H28196  11.253   6.569   2.316  3.2629 -0.7701 -2.3390
  929MOL0     H28197  11.090   6.504   2.265  0.6811  1.0106  2.1171
  929MOL0     H28198  11.117   6.817   1.987  2.1263 -0.4566 -0.5065
  929MOL0     H28199  11.668   6.500   2.397  2.7209 -3.1150 -0.5074
  929MOL0     H28200  11.667   6.644   2.685 -1.1929 -1.5208  0.9510
  929MOL0     H28201  11.791   6.521   2.719 -0.4973  5.7574  2.9312
  929MOL0     H28202  11.786   6.593   2.560  0.3570 -1.8308 -0.9922
  930MOL0     O28203   1.162   3.027   8.506 -0.3396 -0.2264 -1.0021
  930MOL0     C28204   1.239   2.987   8.420  1.1322  0.4281  0.3911
  930MOL0     O28205   1.202   2.933   8.301 -0.3877  0.4369 -0.2655
  930MOL0     C28206   1.072   2.967   8.260 -0.7894 -0.0388 -0.1305
  930MOL0     C28207   0.974   2.877   8.268 -0.4335  0.5570  0.0927
  930MOL0     C28208   0.831   2.905   8.251 -0.6471 -0.8787  0.3796
  930MOL0     C28209   0.798   3.031   8.209  0.1217 -0.0235 -0.4952
  930MOL0     O28210   0.672   3.055   8.181  0.8264  0.4645  0.0766
  930MOL0     C28211   0.646   3.052   8.037  0.0136 -0.3312 -0.8858
  930MOL0     C28212   0.620   2.911   7.999 -0.3769 -0.4504 -0.3385
  930MOL0     C28213   0.586   2.878   7.861 -0.6658 -0.3069  0.8435
  930MOL0     C28214   0.576   2.722   7.848  0.4033  0.1042 -0.4499
  930MOL0     C28215   0.568   2.684   7.701  0.6067 -0.1722 -0.9882
  930MOL0     C28216   0.700   2.656   7.635 -0.2961  0.2503 -1.2084
  930MOL0     C28217   0.685   2.602   7.490 -0.0045  0.3602  0.3304
  930MOL0     C28218   0.808   2.624   7.405 -0.7136  0.1624  0.9274
  930MOL0     N28219   0.890   2.500   7.395  0.9659 -1.1377  0.8753
  930MOL0     C28220   0.964   2.455   7.501  0.8574  0.8112 -0.2464
  930MOL0     C28221   0.995   2.325   7.463 -0.3313 -0.1398  0.0844
  930MOL0     C28222   1.085   2.247   7.555  0.6155  0.4233 -0.7897
  930MOL0     C28223   1.158   2.117   7.508  0.4786 -0.4153 -0.2300
  930MOL0     C28224   1.052   2.014   7.488 -0.4258  0.3472  0.5477
  930MOL0     C28225   1.018   1.963   7.627  0.2046 -0.2110 -0.2960
  930MOL0     O28226   1.134   1.936   7.706 -0.5552  0.2254  0.1851
  930MOL0     C28227   1.123   1.926   7.841  0.7967  0.3863 -0.0159
  930MOL0     C28228   1.001   1.927   7.912 -0.8391 -0.8905 -0.7470
  930MOL0     C28229   0.994   1.919   8.057 -0.0576  0.5202  1.0565
  930MOL0     C28230   0.855   1.911   8.114  0.2501 -0.5004  0.0086
  930MOL0     C28231   1.119   1.897   8.123  0.4334 -0.6831 -0.4258
  930MOL0     C28232   1.132   1.867   8.273 -0.3432 -0.5873 -0.4195
  930MOL0     O28233   1.254   1.823   8.311 -0.6684 -0.2200 -0.9548
  930MOL0     C28234   1.279   1.775   8.433 -0.6747  1.1265  0.1193
  930MOL0     C28235   1.277   1.850   8.557  0.7159  1.1724 -0.2336
  930MOL0     C28236   1.295   1.790   8.684  0.0437  0.2399 -0.0470
  930MOL0     C28237   1.345   1.659   8.688 -0.6490 -0.7703 -0.1723
  930MOL0     O28238   1.397   1.618   8.805 -0.3452  0.3725 -0.4885
  930MOL0     C28239   1.388   1.476   8.829  1.0784 -0.0390 -0.1515
  930MOL0     C28240   1.458   1.472   8.964 -0.2332 -0.0997  0.2311
  930MOL0     C28241   1.440   1.330   9.021  0.1716  0.1582  0.4253
  930MOL0     C28242   1.315   1.338   9.123 -0.9158  0.9423 -0.7075
  930MOL0     C28243   1.299   1.191   9.194  0.1145 -1.2517  0.0452
  930MOL0     C28244   1.166   1.183   9.275  0.6717  1.1897 -0.0021
  930MOL0     C28245   1.162   1.045   9.344 -0.0570 -0.2431  0.3721
  930MOL0     C28246   1.050   1.060   9.450 -0.1226  0.4857  0.6288
  930MOL0    Cl28247   1.110   1.162   9.587  0.3905 -0.7937 -0.6089
  930MOL0     C28248   1.338   1.576   8.569 -0.1123 -1.2334 -0.0195
  930MOL0     C28249   1.300   1.633   8.449  0.4395 -0.4362 -0.0869
  930MOL0     O28250   1.037   1.878   8.348  0.6179 -0.6058 -0.7393
  930MOL0     C28251   1.245   1.897   8.051  1.2832 -0.3409 -0.7449
  930MOL0     C28252   1.244   1.913   7.914  1.0745  0.2881  0.8354
  930MOL0     N28253   0.937   2.296   7.341 -0.0127 -0.1266 -0.3751
  930MOL0     N28254   0.866   2.398   7.306 -0.4469 -0.0098  0.0715
  930MOL0     C28255   0.900   3.125   8.199 -0.1051 -0.8632 -0.6477
  930MOL0     C28256   1.034   3.090   8.217  0.7153 -0.3590 -0.2144
  930MOL0     C28257   1.372   2.973   8.460  0.0802  0.7797  0.9711
  930MOL0     C28258   1.396   2.898   8.571 -0.0693  0.4108 -0.3897
  930MOL0     C28259   1.529   2.865   8.615 -0.2698 -0.2290 -0.6928
  930MOL0     C28260   1.641   2.923   8.548 -0.3670 -0.5791 -0.5511
  930MOL0     O28261   1.775   2.891   8.574 -0.5120  0.0234  0.5894
  930MOL0     C28262   1.823   2.778   8.648  0.3383 -0.6741 -0.1962
  930MOL0     C28263   1.971   2.812   8.683  0.1657 -0.5375  0.5447
  930MOL0     C28264   2.053   2.799   8.550  0.1689  0.6911  0.8402
  930MOL0     C28265   2.200   2.792   8.587  0.5619 -0.1028  2.1012
  930MOL0     C28266   2.250   2.677   8.651  0.4442  0.4169  0.4335
  930MOL0     C28267   2.299   2.568   8.678 -0.3452  0.3426  0.2957
  930MOL0     C28268   1.620   3.002   8.439 -0.2409  0.0022 -0.4865
  930MOL0     C28269   1.490   3.023   8.386 -0.0645 -0.4591 -0.0716
  930MOL0     C28270   1.473   3.109   8.265  0.7077 -0.7628  0.4266
  930MOL0     H28271   1.021   2.784   8.299 -0.6504  0.7746  1.1190
  930MOL0     H28272   0.758   2.828   8.272 -1.9254  0.2954  0.3219
  930MOL0     H28273   0.729   3.108   7.992  2.0062  0.4150  3.2237
  930MOL0     H28274   0.560   3.118   8.021 -0.1578  0.3908  2.2395
  930MOL0     H28275   0.708   2.851   8.024  1.5057  1.4916 -1.9471
  930MOL0     H28276   0.533   2.873   8.054 -0.6156 -1.1647 -1.1960
  930MOL0     H28277   0.483   2.911   7.843 -0.4250 -0.4387 -0.8845
  930MOL0     H28278   0.652   2.926   7.789 -0.5673 -1.0170  0.4535
  930MOL0     H28279   0.656   2.666   7.898 -1.3882 -2.3680 -0.1420
  930MOL0     H28280   0.486   2.683   7.896 -1.2407 -0.9460 -4.0195
  930MOL0     H28281   0.519   2.758   7.638 -0.3057  0.9568  0.9533
  930MOL0     H28282   0.498   2.600   7.709 -0.5916  0.8551 -0.3409
  930MOL0     H28283   0.747   2.755   7.629 -1.5866  1.0912  1.1361
  930MOL0     H28284   0.764   2.585   7.688  1.3848  0.4920 -2.8072
  930MOL0     H28285   0.606   2.651   7.431 -0.6618  0.6523  1.4274
  930MOL0     H28286   0.668   2.495   7.504  3.1204 -0.4024 -0.9464
  930MOL0     H28287   0.791   2.663   7.304  2.1828  0.7705  0.5672
  930MOL0     H28288   0.867   2.708   7.443 -1.0380  0.1077  1.5488
  930MOL0     H28289   0.986   2.511   7.592  1.9320 -0.7373  0.4882
  930MOL0     H28290   1.031   2.227   7.648  0.7641  0.4375 -0.7007
  930MOL0     H28291   1.169   2.312   7.579 -2.0068  3.4526  1.1127
  930MOL0     H28292   1.201   2.132   7.409  1.7328  0.5604  0.4425
  930MOL0     H28293   1.237   2.094   7.580 -0.7759 -0.2861  1.2585
  930MOL0     H28294   0.975   2.042   7.415 -0.0899  0.9645  0.4265
  930MOL0     H28295   1.107   1.935   7.437 -1.0240  0.4475 -0.2655
  930MOL0     H28296   0.952   2.034   7.678 -0.5194 -1.9124  1.2254
  930MOL0     H28297   0.958   1.873   7.615 -0.5722  0.4033 -1.1893
  930MOL0     H28298   0.908   1.938   7.857 -1.3721  0.2753  0.3425
  930MOL0     H28299   0.788   1.889   8.030 -1.0254 -0.2632  0.9307
  930MOL0     H28300   0.823   2.004   8.161  2.7647  0.1184  0.6674
  930MOL0     H28301   0.846   1.834   8.191 -1.1006  0.4477  0.8539
  930MOL0     H28302   1.246   1.953   8.551  0.5932  1.0449 -4.6526
  930MOL0     H28303   1.287   1.837   8.781  1.6308 -0.2744  0.3687
  930MOL0     H28304   1.284   1.442   8.830  0.9057  0.4773  0.3814
  930MOL0     H28305   1.432   1.405   8.759  2.3680  2.3056 -1.8448
  930MOL0     H28306   1.565   1.488   8.948 -0.9180  3.3085 -1.8894
  930MOL0     H28307   1.423   1.543   9.039 -2.6488 -2.7158  1.8246
  930MOL0     H28308   1.527   1.317   9.087  0.7116  1.4922 -0.0031
  930MOL0     H28309   1.414   1.263   8.939 -0.8910 -0.0798  0.9480
  930MOL0     H28310   1.233   1.358   9.054  0.5572  0.3063 -2.7400
  930MOL0     H28311   1.341   1.414   9.196  3.7592 -0.3220 -0.7034
  930MOL0     H28312   1.290   1.112   9.119  2.5991 -1.4936 -0.0759
  930MOL0     H28313   1.385   1.177   9.261  2.2355  0.7317 -2.0898
  930MOL0     H28314   1.075   1.198   9.216  0.1234  2.4318  1.1131
  930MOL0     H28315   1.165   1.258   9.355  0.7418  0.0397  1.1148
  930MOL0     H28316   1.256   1.010   9.387 -0.1027 -2.5131 -1.2062
  930MOL0     H28317   1.129   0.966   9.276 -0.7097 -1.8334  2.4266
  930MOL0     H28318   1.035   0.959   9.489  1.4224 -0.9278 -2.1199
  930MOL0     H28319   0.955   1.095   9.410  0.7820  1.8828 -0.3786
  930MOL0     H28320   1.390   1.481   8.567  2.8686  0.2285  1.4720
  930MOL0     H28321   1.298   1.567   8.363  0.4111 -2.9896  1.7756
  930MOL0     H28322   1.342   1.882   8.098  0.9192  0.2677  0.2464
  930MOL0     H28323   1.337   1.904   7.859  0.6081  2.2302 -0.3544
  930MOL0     H28324   0.881   3.222   8.154  0.4004 -0.3379  0.2486
  930MOL0     H28325   1.104   3.170   8.196 -1.2697  1.3324 -0.6737
  930MOL0     H28326   1.314   2.840   8.614  1.0833  0.2754  1.7324
  930MOL0     H28327   1.547   2.794   8.695 -0.7230 -0.8056 -1.0972
  930MOL0     H28328   1.773   2.760   8.744 -1.9039  1.8435 -0.7781
  930MOL0     H28329   1.812   2.686   8.589 -0.0425 -1.8882  1.6902
  930MOL0     H28330   2.007   2.748   8.764 -0.8804 -0.7645  0.8437
  930MOL0     H28331   1.982   2.911   8.729  0.6050 -1.2288  1.9619
  930MOL0     H28332   2.020   2.719   8.483 -1.2502 -1.6070  4.0309
  930MOL0     H28333   2.049   2.893   8.495  0.2901 -1.6962 -3.7397
  930MOL0     H28334   2.239   2.873   8.649  3.1204 -1.7662  2.8540
  930MOL0     H28335   2.240   2.804   8.486  0.3523  1.7980  2.2129
  930MOL0     H28336   2.336   2.479   8.726  0.7923  0.9840  0.6416
  930MOL0     H28337   1.709   3.030   8.384 -2.2483  1.1595 -3.3756
  930MOL0     H28338   1.382   3.169   8.263  0.1236 -1.6174  0.7364
  930MOL0     H28339   1.564   3.168   8.253 -0.1270  0.1985 -1.5692
  930MOL0     H28340   1.479   3.039   8.182  2.7316 -1.1071  0.8083
  931MOL0     O28341   9.899  10.734   6.484 -0.9147 -0.4734 -0.5422
  931MOL0     C28342   9.949  10.658   6.400 -0.9420  1.0119  0.0704
  931MOL0     O28343   9.884  10.595   6.294 -0.0168  0.2213 -1.4586
  931MOL0     C28344   9.748  10.596   6.315 -0.2491 -0.3920  0.7609
  931MOL0     C28345   9.679  10.714   6.300  0.1863  0.6233 -0.7132
  931MOL0     C28346   9.535  10.720   6.288 -1.0462  0.2019  0.5055
  931MOL0     C28347   9.456  10.611   6.318 -0.0543  2.1740 -0.3495
  931MOL0     O28348   9.323  10.607   6.307 -0.3310  0.3351  0.7401
  931MOL0     C28349   9.261  10.692   6.212 -1.0608 -0.5826 -0.5761
  931MOL0     C28350   9.138  10.624   6.154  0.2110  0.1504  1.5358
  931MOL0     C28351   9.148  10.571   6.011 -1.0413 -0.5026  0.9065
  931MOL0     C28352   9.165  10.682   5.899  0.1866 -0.1499  0.1199
  931MOL0     C28353   9.192  10.617   5.764  0.4572  0.3339 -0.5447
  931MOL0     C28354   9.210  10.706   5.643  0.6975 -1.3730  0.5135
  931MOL0     C28355   9.186  10.641   5.506 -0.2491 -0.4379 -0.0093
  931MOL0     C28356   9.048  10.578   5.476  0.0204  0.2449 -0.3933
  931MOL0     N28357   9.033  10.536   5.337  0.2182  0.2281 -0.2787
  931MOL0     C28358   9.091  10.419   5.284  0.5657  0.0289 -0.9456
  931MOL0     C28359   9.101  10.440   5.156  0.6266 -0.3332  0.0187
  931MOL0     C28360   9.158  10.336   5.053  0.9307  0.2060 -0.3469
  931MOL0     C28361   9.290  10.383   4.990 -0.4429 -0.7085 -0.6766
  931MOL0     C28362   9.395  10.399   5.108 -0.2713 -0.4836 -0.2274
  931MOL0     C28363   9.527  10.436   5.052 -0.7823 -0.4956  0.6616
  931MOL0     O28364   9.635  10.345   5.105  0.7389  0.4134 -0.5321
  931MOL0     C28365   9.665  10.358   5.238 -0.6722  0.6140 -0.6873
  931MOL0     C28366   9.613  10.445   5.329 -0.2600  0.4260  0.9400
  931MOL0     C28367   9.666  10.467   5.460  0.8179 -0.2408 -0.9220
  931MOL0     C28368   9.624  10.598   5.536  1.0119  1.4484  0.3610
  931MOL0     C28369   9.772  10.385   5.500 -0.4939 -0.1896 -0.1010
  931MOL0     C28370   9.822  10.389   5.637 -0.1292 -0.5600  0.5373
  931MOL0     O28371   9.885  10.272   5.683 -0.1280  0.0925 -0.1536
  931MOL0     C28372   9.892  10.241   5.811 -0.3934 -0.3981  0.1156
  931MOL0     C28373   9.832  10.304   5.918  0.2802  0.0243  0.0271
  931MOL0     C28374   9.847  10.257   6.055 -0.9324  0.1078  0.2395
  931MOL0     C28375   9.923  10.135   6.071  0.1711  0.0801 -0.7708
  931MOL0     O28376   9.931  10.065   6.186 -0.0234  0.6414 -1.1048
  931MOL0     C28377   9.870  10.111   6.310  0.9881  0.7554 -0.1662
  931MOL0     C28378   9.758  10.001   6.340 -0.3869 -0.3183 -0.3142
  931MOL0     C28379   9.809   9.857   6.349  1.3030 -0.1455  0.2224
  931MOL0     C28380   9.881   9.838   6.474  0.0358 -0.2199  0.4362
  931MOL0     C28381   9.945   9.703   6.459 -0.8379 -0.3215  0.6093
  931MOL0     C28382  10.032   9.660   6.587  0.8948  0.4899  0.9613
  931MOL0     C28383  10.115   9.517   6.576 -0.0699 -0.4808  0.5436
  931MOL0     C28384  10.149   9.471   6.718  0.5468 -0.5661  0.7181
  931MOL0    Cl28385  10.256   9.601   6.788 -0.6036 -0.0950  0.2523
  931MOL0     C28386   9.988  10.076   5.965  0.3588 -0.6773  0.8656
  931MOL0     C28387   9.966  10.124   5.837  1.4792 -0.3871  0.7993
  931MOL0     O28388   9.806  10.492   5.700 -0.0395 -1.1506 -0.0133
  931MOL0     C28389   9.832  10.302   5.408  0.2487  0.1964 -0.6620
  931MOL0     C28390   9.776  10.280   5.282  0.8915  0.4481  0.1195
  931MOL0     N28391   9.068  10.569   5.123 -0.0251  0.4151 -0.1022
  931MOL0     N28392   9.013  10.618   5.229 -0.5740 -1.0079 -0.2109
  931MOL0     C28393   9.527  10.487   6.358 -0.0553  0.4053 -0.2403
  931MOL0     C28394   9.671  10.484   6.339 -0.7685 -0.4491 -0.2699
  931MOL0     C28395  10.094  10.646   6.399 -0.5580  0.7321 -0.5362
  931MOL0     C28396  10.160  10.634   6.275  0.0212  0.4570 -0.5235
  931MOL0     C28397  10.302  10.636   6.264 -0.6444 -0.0727  0.5159
  931MOL0     C28398  10.376  10.646   6.378  0.2235 -0.5392  0.3829
  931MOL0     O28399  10.510  10.674   6.369  0.7755  0.0276  0.0868
  931MOL0     C28400  10.591  10.579   6.299 -0.3307 -0.3844  0.3809
  931MOL0     C28401  10.716  10.634   6.227  0.1290  0.5045  0.2671
  931MOL0     C28402  10.670  10.734   6.122 -0.7148 -0.7781  0.7286
  931MOL0     C28403  10.647  10.676   5.979  0.9151  0.0274 -0.6408
  931MOL0     C28404  10.756  10.589   5.941 -0.9062  0.3499 -0.0348
  931MOL0     C28405  10.834  10.505   5.898 -0.9308 -0.3505 -0.7955
  931MOL0     C28406  10.312  10.646   6.502  0.4252 -0.6311 -0.7226
  931MOL0     C28407  10.173  10.649   6.510 -0.3672  0.0988 -0.1172
  931MOL0     C28408  10.120  10.645   6.653 -0.9552  0.1220 -0.2278
  931MOL0     H28409   9.724  10.811   6.280  1.3470  0.4072  0.6608
  931MOL0     H28410   9.491  10.815   6.260 -0.3841  0.8956  1.7084
  931MOL0     H28411   9.316  10.733   6.127 -1.0095 -0.5577 -0.5312
  931MOL0     H28412   9.228  10.776   6.273  0.9868  1.0277 -1.5702
  931MOL0     H28413   9.104  10.546   6.223  0.0628  0.0137  1.3100
  931MOL0     H28414   9.052  10.692   6.157  1.4052  1.7026  1.3627
  931MOL0     H28415   9.230  10.500   6.006 -2.3769 -2.0087 -1.3630
  931MOL0     H28416   9.053  10.521   5.987 -0.8378  0.8900 -3.5874
  931MOL0     H28417   9.067  10.730   5.889  1.1565  3.3638  4.2178
  931MOL0     H28418   9.245  10.755   5.916  1.8452 -1.5005 -1.5121
  931MOL0     H28419   9.114  10.544   5.741  0.5039 -0.6148  1.9370
  931MOL0     H28420   9.283  10.560   5.784 -0.7208 -2.5515 -2.7847
  931MOL0     H28421   9.144  10.793   5.650  0.9746 -0.5900 -3.8352
  931MOL0     H28422   9.315  10.737   5.647  0.0833  1.0816 -0.3199
  931MOL0     H28423   9.261  10.563   5.489 -0.9675 -1.7979  2.4930
  931MOL0     H28424   9.187  10.728   5.440 -1.1309 -0.5617 -0.1927
  931MOL0     H28425   9.039  10.494   5.546 -0.0317  0.8271  0.2996
  931MOL0     H28426   8.972  10.648   5.510 -0.4940 -1.4842  2.3119
  931MOL0     H28427   9.126  10.340   5.350 -0.9234  0.9477  1.0449
  931MOL0     H28428   9.088  10.329   4.969  1.0211 -0.9933 -0.3346
  931MOL0     H28429   9.157  10.232   5.086 -2.7929 -0.7763 -2.8948
  931MOL0     H28430   9.338  10.320   4.914  1.5649  0.2048 -0.2317
  931MOL0     H28431   9.264  10.476   4.939  1.0661  1.5159  2.3061
  931MOL0     H28432   9.353  10.471   5.179  2.4988 -0.0020  1.0369
  931MOL0     H28433   9.404  10.308   5.169  2.0474  0.6894  1.2814
  931MOL0     H28434   9.518  10.431   4.943 -2.3612 -0.8963  0.7889
  931MOL0     H28435   9.559  10.535   5.085  1.0256 -1.3723  1.7297
  931MOL0     H28436   9.536  10.508   5.287  0.5860 -0.1640 -1.6356
  931MOL0     H28437   9.708  10.668   5.541  0.6541  1.8893  0.2995
  931MOL0     H28438   9.580  10.564   5.630 -2.0083 -1.5583 -1.9145
  931MOL0     H28439   9.540  10.645   5.484 -0.5161 -2.5813 -1.2370
  931MOL0     H28440   9.760  10.383   5.904 -0.9911 -0.9410  0.8289
  931MOL0     H28441   9.786  10.303   6.132 -0.2803  2.9110 -0.8281
  931MOL0     H28442   9.951  10.108   6.384  0.2167  3.1468  0.8384
  931MOL0     H28443   9.839  10.215   6.317 -2.4687 -0.0909 -0.7696
  931MOL0     H28444   9.709  10.028   6.434 -0.3680 -2.2609  0.2866
  931MOL0     H28445   9.679   9.999   6.264  0.3556  0.3274 -1.1238
  931MOL0     H28446   9.878   9.840   6.266 -1.8244  1.5450 -2.9701
  931MOL0     H28447   9.732   9.780   6.337  0.9409  0.5299 -2.3417
  931MOL0     H28448   9.813   9.851   6.559 -1.5810  1.8662 -1.0584
  931MOL0     H28449   9.961   9.911   6.486 -0.7664  1.4564 -3.1630
  931MOL0     H28450   9.873   9.625   6.432 -0.2418 -0.1502 -1.6499
  931MOL0     H28451  10.018   9.715   6.378  1.2951 -0.8036  2.3477
  931MOL0     H28452   9.957   9.647   6.666 -3.7505 -4.9435 -3.4013
  931MOL0     H28453  10.101   9.742   6.610  1.5764  1.2838 -3.1235
  931MOL0     H28454  10.210   9.516   6.523 -0.6157 -2.3412 -0.5004
  931MOL0     H28455  10.035   9.453   6.536  0.7476 -0.2963 -1.4706
  931MOL0     H28456  10.215   9.384   6.706 -0.9346 -1.8187  1.3319
  931MOL0     H28457  10.069   9.449   6.789  2.2474 -0.2672  2.8394
  931MOL0     H28458  10.062   9.998   5.979  4.8746  2.5469 -2.1204
  931MOL0     H28459  10.018  10.079   5.753  0.0708 -0.7471  0.0778
  931MOL0     H28460   9.925  10.248   5.422 -0.6813 -1.4964 -0.7039
  931MOL0     H28461   9.821  10.200   5.224  3.1540  2.4640 -1.1332
  931MOL0     H28462   9.485  10.392   6.391  3.6526 -1.7852 -1.3036
  931MOL0     H28463   9.729  10.394   6.352  1.0254  0.6595 -0.2393
  931MOL0     H28464  10.116  10.640   6.176  1.6576  1.6424 -1.2032
  931MOL0     H28465  10.359  10.641   6.172  1.6611 -3.4488  1.5847
  931MOL0     H28466  10.633  10.517   6.379 -1.9150  1.9235  3.1939
  931MOL0     H28467  10.527  10.524   6.229 -0.5549  1.4756 -0.9655
  931MOL0     H28468  10.782  10.555   6.187  0.9103  1.4139 -0.2896
  931MOL0     H28469  10.783  10.672   6.304  0.8631  0.6105 -0.4005
  931MOL0     H28470  10.589  10.800   6.155 -0.8144  0.2663 -1.4003
  931MOL0     H28471  10.751  10.807   6.113 -1.4218 -0.0938 -0.3151
  931MOL0     H28472  10.614  10.756   5.911  4.8592  0.8632 -1.8625
  931MOL0     H28473  10.567  10.602   5.985  4.7284 -4.4255  3.3318
  931MOL0     H28474  10.898  10.430   5.856  2.5359  2.0591 -0.2430
  931MOL0     H28475  10.388  10.639   6.579 -1.2014  0.0353  1.0398
  931MOL0     H28476  10.151  10.552   6.702  0.2684  1.2776  1.2885
  931MOL0     H28477  10.170  10.730   6.702  2.6075  0.3745 -3.7599
  931MOL0     H28478  10.013  10.666   6.664 -0.8214  0.8127 -0.1605
  932MOL0     O28479   1.680   9.527  11.453 -0.6480 -0.1232 -0.4484
  932MOL0     C28480   1.704   9.580  11.347  0.2348 -0.1699  0.4484
  932MOL0     O28481   1.810   9.544  11.254 -0.0246 -0.2400 -0.6150
  932MOL0     C28482   1.904   9.455  11.299  0.5923  0.0370  0.1039
  932MOL0     C28483   1.940   9.431  11.431  0.1020 -0.1452 -0.5494
  932MOL0     C28484   2.033   9.338  11.475 -0.0145 -0.2811  0.3810
  932MOL0     C28485   2.100   9.261  11.377  0.4197 -0.5357 -0.4612
  932MOL0     O28486   2.194   9.172  11.410 -0.6110  0.0187 -0.3947
  932MOL0     C28487   2.212   9.120  11.548  0.4360 -0.2263  0.5632
  932MOL0     C28488   2.353   9.164  11.589 -0.0020  0.5004 -0.7929
  932MOL0     C28489   2.367   9.308  11.607  0.7921 -0.9802  0.0472
  932MOL0     C28490   2.493   9.331  11.677 -0.1317 -0.1219  0.0931
  932MOL0     C28491   2.616   9.301  11.584 -0.5239 -0.8977  0.7060
  932MOL0     C28492   2.743   9.356  11.651 -0.0284  0.1866 -0.2542
  932MOL0     C28493   2.867   9.323  11.569  0.6442  0.0119 -0.2420
  932MOL0     C28494   2.868   9.386  11.430 -0.5962 -0.2729  0.5202
  932MOL0     N28495   3.002   9.371  11.368 -0.4511  0.6884 -0.1406
  932MOL0     C28496   3.047   9.270  11.295  0.7091 -0.0225  0.7655
  932MOL0     C28497   3.170   9.308  11.246 -0.6976 -0.2701  0.5631
  932MOL0     C28498   3.268   9.204  11.189  0.3780 -0.0107  0.0740
  932MOL0     C28499   3.257   9.067  11.263  0.3615 -0.7761 -0.2217
  932MOL0     C28500   3.299   8.954  11.169  0.0166 -0.1507 -0.7355
  932MOL0     C28501   3.458   8.966  11.142  0.8514  0.0640 -0.1171
  932MOL0     O28502   3.484   8.846  11.074 -0.3807 -0.1276  0.1864
  932MOL0     C28503   3.528   8.731  11.140  0.0199  0.1310 -0.9938
  932MOL0     C28504   3.560   8.721  11.277  0.3085  0.4990  0.1074
  932MOL0     C28505   3.585   8.597  11.337 -0.2386 -0.4330  0.3380
  932MOL0     C28506   3.625   8.603  11.480  1.2239  0.0540  0.1906
  932MOL0     C28507   3.567   8.479  11.274  0.1731  0.2494 -0.4740
  932MOL0     C28508   3.613   8.354  11.348 -0.2364 -0.2804 -0.8144
  932MOL0     O28509   3.586   8.329  11.482 -0.0928 -0.7501 -0.8661
  932MOL0     C28510   3.645   8.226  11.551 -0.7036  0.4635  0.4475
  932MOL0     C28511   3.704   8.256  11.680  0.6780 -0.0648 -0.1729
  932MOL0     C28512   3.750   8.148  11.764 -0.8178 -0.3538 -0.2191
  932MOL0     C28513   3.747   8.020  11.724 -0.4595  0.1189  0.6046
  932MOL0     O28514   3.791   7.908  11.792 -0.7399 -0.4318 -0.1488
  932MOL0     C28515   3.865   7.920  11.918 -0.7946 -0.3056  0.5079
  932MOL0     C28516   4.012   7.965  11.892  0.0478  0.4651  0.3740
  932MOL0     C28517   4.079   7.884  11.782  0.3879 -1.5460  0.4921
  932MOL0     C28518   4.230   7.930  11.774  1.0995  0.8540 -0.0612
  932MOL0     C28519   4.298   7.851  11.670 -0.2171  0.7230 -0.1611
  932MOL0     C28520   4.283   7.701  11.682 -0.2236 -0.8097 -0.0901
  932MOL0     C28521   4.404   7.630  11.620  0.6568  0.5368 -0.0424
  932MOL0     C28522   4.384   7.482  11.599  0.1212 -0.1470  0.0606
  932MOL0    Cl28523   4.548   7.423  11.540  0.2163  0.2539  0.2067
  932MOL0     C28524   3.690   7.985  11.599  0.1155 -0.1097 -0.1543
  932MOL0     C28525   3.648   8.089  11.518  0.2667 -0.4919  0.3252
  932MOL0     O28526   3.676   8.276  11.276  0.4422 -0.5978 -0.2022
  932MOL0     C28527   3.538   8.484  11.138  0.7576  0.4054  0.8043
  932MOL0     C28528   3.528   8.605  11.068 -0.7323 -0.0472  0.6726
  932MOL0     N28529   3.199   9.432  11.295  0.3727 -0.6486  0.2641
  932MOL0     N28530   3.093   9.471  11.367  0.6046  0.0027  0.6904
  932MOL0     C28531   2.056   9.274  11.249 -0.4235  0.2496 -0.4838
  932MOL0     C28532   1.964   9.376  11.202 -0.1709  1.0969  1.1435
  932MOL0     C28533   1.615   9.686  11.301  1.1477 -0.4295 -0.2466
  932MOL0     C28534   1.629   9.735  11.164  0.4648 -0.0909 -0.0276
  932MOL0     C28535   1.545   9.827  11.116 -0.5466  0.4505 -0.2633
  932MOL0     C28536   1.458   9.897  11.191  0.8178 -0.6888 -1.2897
  932MOL0     O28537   1.359   9.990  11.158 -0.0962  0.0827 -0.0283
  932MOL0     C28538   1.347  10.031  11.022  0.0722 -0.3935 -0.3204
  932MOL0     C28539   1.460  10.129  10.968 -0.3163 -0.3175 -0.1065
  932MOL0     C28540   1.489  10.115  10.814  0.6107  0.2826  1.2897
  932MOL0     C28541   1.524  10.247  10.747 -0.8487 -0.3250 -0.6611
  932MOL0     C28542   1.664  10.294  10.787  0.4220 -0.2726 -0.6870
  932MOL0     C28543   1.777  10.322  10.829 -0.9295 -0.4764 -0.4606
  932MOL0     C28544   1.441   9.851  11.316 -0.8684  0.0761 -0.7179
  932MOL0     C28545   1.516   9.752  11.374  0.0408 -0.1299 -0.0187
  932MOL0     C28546   1.478   9.726  11.519  0.1952 -0.3224  0.3066
  932MOL0     H28547   1.907   9.490  11.516  1.5916 -2.7663  2.0289
  932MOL0     H28548   2.067   9.344  11.578 -1.8710  0.1792  1.0127
  932MOL0     H28549   2.208   9.011  11.541 -1.4000 -0.2866  1.8954
  932MOL0     H28550   2.132   9.152  11.615  0.2489 -0.0374  0.2513
  932MOL0     H28551   2.380   9.109  11.680  0.0007  2.1907  0.2821
  932MOL0     H28552   2.427   9.120  11.521  0.1246 -2.7548  1.2384
  932MOL0     H28553   2.364   9.343  11.503  0.3629 -3.5443 -0.8772
  932MOL0     H28554   2.279   9.337  11.665 -0.1175 -2.8698 -0.2973
  932MOL0     H28555   2.498   9.437  11.702  6.9420 -0.1991  0.9400
  932MOL0     H28556   2.505   9.276  11.771 -2.1307  0.2815  0.6421
  932MOL0     H28557   2.603   9.342  11.483  0.0426  0.3687  1.1246
  932MOL0     H28558   2.640   9.194  11.580 -0.4383 -0.9984  2.8454
  932MOL0     H28559   2.738   9.463  11.676 -0.6632  0.5233 -1.7223
  932MOL0     H28560   2.754   9.305  11.747  2.9920 -1.0294 -1.1411
  932MOL0     H28561   2.880   9.214  11.563  0.6685  0.0101 -0.1689
  932MOL0     H28562   2.953   9.348  11.632 -0.8826  0.2226  1.8726
  932MOL0     H28563   2.804   9.334  11.358  1.2409  0.2350 -1.6034
  932MOL0     H28564   2.854   9.494  11.441 -0.6585 -0.2606  0.3189
  932MOL0     H28565   2.993   9.177  11.284  0.8684 -0.4473  3.1990
  932MOL0     H28566   3.368   9.248  11.184  1.7952 -2.9639 -5.2939
  932MOL0     H28567   3.248   9.185  11.083 -0.6009  0.7390  0.1070
  932MOL0     H28568   3.317   9.069  11.354 -0.7775  1.7534  0.5906
  932MOL0     H28569   3.154   9.038  11.287  0.0642  1.6236  1.7310
  932MOL0     H28570   3.287   8.860  11.222 -1.0050 -1.0090 -2.4000
  932MOL0     H28571   3.243   8.956  11.075 -0.8210 -5.9836 -0.6831
  932MOL0     H28572   3.482   9.050  11.076 -1.1601  2.5977  2.1573
  932MOL0     H28573   3.522   8.982  11.229  3.3431 -1.7068 -1.4734
  932MOL0     H28574   3.551   8.810  11.339 -0.2841 -0.7527  1.8935
  932MOL0     H28575   3.559   8.542  11.543  0.4490 -0.7419 -1.3364
  932MOL0     H28576   3.609   8.703  11.521  0.1505  0.5973 -1.4764
  932MOL0     H28577   3.725   8.563  11.497  0.7387 -1.1061  0.4130
  932MOL0     H28578   3.705   8.359  11.716 -3.3825 -0.2516  1.0296
  932MOL0     H28579   3.790   8.175  11.861 -0.6217  1.4038 -0.7646
  932MOL0     H28580   3.811   7.989  11.984  0.3719 -0.7862  2.0063
  932MOL0     H28581   3.861   7.818  11.957  0.2345 -1.9989 -3.3217
  932MOL0     H28582   4.027   8.072  11.874 -0.8921  0.0460 -3.9724
  932MOL0     H28583   4.063   7.945  11.987  1.0572  1.3565  0.0297
  932MOL0     H28584   4.017   7.907  11.695  0.9409  0.1783  0.5106
  932MOL0     H28585   4.054   7.781  11.811 -3.3614 -0.5014  1.6195
  932MOL0     H28586   4.273   7.904  11.871  1.0795  1.1214  0.0185
  932MOL0     H28587   4.226   8.038  11.754 -1.4375  1.0550  1.1216
  932MOL0     H28588   4.254   7.877  11.574 -1.3907 -0.3028  0.0747
  932MOL0     H28589   4.404   7.878  11.668  0.9783 -3.2418  0.6123
  932MOL0     H28590   4.196   7.677  11.620  0.9204  0.3869 -2.2998
  932MOL0     H28591   4.277   7.675  11.788  1.2034 -1.9440 -0.2609
  932MOL0     H28592   4.484   7.639  11.694 -1.6202  0.7276  2.5555
  932MOL0     H28593   4.431   7.695  11.536 -0.7724  2.0260  0.6044
  932MOL0     H28594   4.307   7.470  11.523 -1.5206  0.4138  1.5643
  932MOL0     H28595   4.346   7.442  11.693 -0.8249  0.0359 -0.2383
  932MOL0     H28596   3.700   7.880  11.575  2.7465 -0.0118  0.2927
  932MOL0     H28597   3.607   8.049  11.426  0.8331  0.5003 -0.3717
  932MOL0     H28598   3.544   8.389  11.086 -0.4315 -0.2379  1.7812
  932MOL0     H28599   3.503   8.615  10.963 -0.8043 -0.1955  0.6747
  932MOL0     H28600   2.101   9.205  11.179 -0.1813  0.9425 -1.0254
  932MOL0     H28601   1.943   9.369  11.096  2.8195  0.3083  0.5133
  932MOL0     H28602   1.698   9.687  11.096 -1.2876 -2.6036 -0.1710
  932MOL0     H28603   1.555   9.853  11.011 -0.4733  1.0598 -0.1101
  932MOL0     H28604   1.354   9.936  10.967  0.0081 -0.2106 -0.6484
  932MOL0     H28605   1.250  10.076  11.001 -1.0940 -0.3617  4.1125
  932MOL0     H28606   1.554  10.109  11.019 -0.3597  1.8211  0.9141
  932MOL0     H28607   1.438  10.232  10.997  2.2833 -0.1884  1.7641
  932MOL0     H28608   1.575  10.049  10.802 -0.0039 -0.5053  1.1089
  932MOL0     H28609   1.402  10.068  10.767  0.5634  0.6852  0.9724
  932MOL0     H28610   1.453  10.327  10.773 -2.4885 -1.7127 -0.6593
  932MOL0     H28611   1.521  10.245  10.638  2.4292 -2.8228 -0.8406
  932MOL0     H28612   1.877  10.355  10.852 -0.7683 -0.5194 -1.0874
  932MOL0     H28613   1.369   9.909  11.372  1.2232  1.3804  0.7696
  932MOL0     H28614   1.569   9.709  11.577 -0.3196 -1.9000  0.6968
  932MOL0     H28615   1.420   9.808  11.564  1.0806  1.1343 -1.1118
  932MOL0     H28616   1.423   9.631  11.520  0.7314 -0.6571 -1.1282
  933MOL0     O28617   6.972   4.242  10.699 -0.1853 -0.6294  0.1036
  933MOL0     C28618   6.916   4.210  10.599  0.0582  1.0713  0.5497
  933MOL0     O28619   6.953   4.233  10.469 -0.3016 -0.5883 -0.0954
  933MOL0     C28620   7.060   4.309  10.427  0.2089  0.2621  0.1231
  933MOL0     C28621   7.139   4.249  10.330 -0.1733 -0.6192 -0.4452
  933MOL0     C28622   7.251   4.311  10.274  0.2333 -1.2671  1.2643
  933MOL0     C28623   7.276   4.445  10.311  0.4524 -0.0198 -0.0661
  933MOL0     O28624   7.383   4.513  10.262  0.0376  0.3133 -0.3309
  933MOL0     C28625   7.395   4.659  10.256  0.4428 -0.5115  0.0456
  933MOL0     C28626   7.295   4.729  10.165  0.5146  1.5565  0.1484
  933MOL0     C28627   7.275   4.876  10.182  0.0022 -0.6947  0.2850
  933MOL0     C28628   7.196   4.905  10.314 -0.0593  0.6913 -0.0050
  933MOL0     C28629   7.044   4.855  10.314  0.1133 -0.2046  1.9618
  933MOL0     C28630   6.955   4.898  10.423 -0.0181 -0.0661  0.6368
  933MOL0     C28631   6.834   4.815  10.411  0.4434  0.2366  0.5217
  933MOL0     C28632   6.732   4.871  10.510 -0.7967 -0.6418  0.3936
  933MOL0     N28633   6.665   4.995  10.465 -0.2105 -1.5691 -0.5027
  933MOL0     C28634   6.560   4.990  10.378 -0.3024 -0.0917 -0.5139
  933MOL0     C28635   6.488   5.098  10.401 -0.1307  0.3932  0.3315
  933MOL0     C28636   6.369   5.129  10.320  0.4469 -0.5741 -0.0617
  933MOL0     C28637   6.287   5.250  10.375  0.1379  0.5875 -0.2746
  933MOL0     C28638   6.162   5.258  10.294  1.2763  0.0618  0.2796
  933MOL0     C28639   6.062   5.364  10.346  0.0643  0.5011  0.5582
  933MOL0     O28640   6.123   5.496  10.341 -0.0860  0.3418  0.2283
  933MOL0     C28641   6.050   5.603  10.390 -0.1542 -0.2197  0.2141
  933MOL0     C28642   6.124   5.725  10.406 -1.2092  0.4875 -0.3769
  933MOL0     C28643   6.073   5.828  10.475  0.5329  0.1479  0.3547
  933MOL0     C28644   6.166   5.939  10.522  0.1832  0.2633 -0.8949
  933MOL0     C28645   5.943   5.810  10.532 -0.0508 -0.0425  0.4026
  933MOL0     C28646   5.894   5.917  10.617  0.1287 -1.4516 -0.8249
  933MOL0     O28647   5.974   5.961  10.725 -0.7716  0.5742  0.2743
  933MOL0     C28648   5.952   6.066  10.811  0.1253 -0.0336 -0.5880
  933MOL0     C28649   5.824   6.123  10.825 -0.0631  0.9717 -0.0439
  933MOL0     C28650   5.808   6.224  10.910  1.2371 -0.6122  0.6175
  933MOL0     C28651   5.915   6.287  10.967 -0.3450 -0.0389  0.6684
  933MOL0     O28652   5.904   6.402  11.042  0.4121  0.6879  0.4396
  933MOL0     C28653   5.787   6.490  11.031 -0.5812 -0.4253  0.0714
  933MOL0     C28654   5.822   6.623  11.098  0.3397  0.1643 -0.5415
  933MOL0     C28655   5.865   6.616  11.237  0.2512 -0.7706  0.0708
  933MOL0     C28656   5.856   6.752  11.316  0.2154 -0.0193  0.8293
  933MOL0     C28657   5.835   6.744  11.468 -0.2842  0.2743 -0.6394
  933MOL0     C28658   5.920   6.848  11.541 -0.2011 -0.1790  0.0538
  933MOL0     C28659   5.916   6.829  11.694 -0.6271  0.6612 -0.2680
  933MOL0     C28660   6.062   6.847  11.755  0.5212  0.2698 -0.0617
  933MOL0    Cl28661   6.148   6.706  11.708  0.1043  0.8759 -0.0029
  933MOL0     C28662   6.041   6.233  10.957 -0.2827  1.0642  0.9447
  933MOL0     C28663   6.061   6.121  10.876  0.0332  0.3698 -0.0735
  933MOL0     O28664   5.774   5.955  10.599  0.1948  0.3375  0.2189
  933MOL0     C28665   5.862   5.705  10.491  0.8935  0.6910  0.2117
  933MOL0     C28666   5.922   5.600  10.424  0.2470  0.8468  0.3868
  933MOL0     N28667   6.538   5.173  10.498 -1.0604 -0.2395 -0.7828
  933MOL0     N28668   6.647   5.115  10.531  0.2350  0.4413  0.6170
  933MOL0     C28669   7.183   4.512  10.397  0.1526 -0.4738  0.6068
  933MOL0     C28670   7.077   4.445  10.460  0.6524 -0.8263  0.5329
  933MOL0     C28671   6.805   4.127  10.612 -0.2446  0.0600 -0.8289
  933MOL0     C28672   6.820   4.004  10.672 -0.6492  0.5668 -0.0019
  933MOL0     C28673   6.714   3.913  10.664 -0.0559  0.7446 -1.0072
  933MOL0     C28674   6.586   3.946  10.639 -1.3601  0.8419  0.7073
  933MOL0     O28675   6.486   3.848  10.655 -0.3059 -0.9014 -0.8265
  933MOL0     C28676   6.353   3.902  10.633 -0.0758 -0.1785 -0.6069
  933MOL0     C28677   6.252   3.789  10.652  0.0051 -0.1207  0.1448
  933MOL0     C28678   6.248   3.750  10.797 -0.4134 -0.4557  0.7296
  933MOL0     C28679   6.106   3.688  10.836 -0.1477  0.5808 -0.2238
  933MOL0     C28680   6.075   3.564  10.766 -0.3820  0.5247  0.3187
  933MOL0     C28681   6.051   3.462  10.714 -0.3875  0.5872 -0.5519
  933MOL0     C28682   6.573   4.075  10.582 -0.4117  0.0849 -0.0785
  933MOL0     C28683   6.678   4.163  10.566 -0.5912  0.3874  0.3511
  933MOL0     C28684   6.643   4.289  10.491 -0.8734 -0.6209  0.2356
  933MOL0     H28685   7.118   4.152  10.287 -3.4389 -0.3910  0.3343
  933MOL0     H28686   7.308   4.245  10.209 -0.7020 -2.2213  1.3835
  933MOL0     H28687   7.495   4.679  10.216 -0.1936 -0.1549 -1.4255
  933MOL0     H28688   7.393   4.708  10.354 -2.4829  2.4177 -1.3041
  933MOL0     H28689   7.323   4.706  10.062 -0.6325  1.0300 -0.0730
  933MOL0     H28690   7.197   4.682  10.182  1.8993 -0.5538  3.2985
  933MOL0     H28691   7.369   4.931  10.179  0.7163 -1.6743  2.3386
  933MOL0     H28692   7.203   4.903  10.104 -2.0174  0.6551  2.4984
  933MOL0     H28693   7.254   4.869  10.399 -2.5873 -0.0594  1.5085
  933MOL0     H28694   7.190   5.014  10.324  1.8883  0.7649  0.8303
  933MOL0     H28695   7.041   4.746  10.306  0.2793 -0.0906 -0.5679
  933MOL0     H28696   7.002   4.899  10.223  2.3097 -3.0843 -0.6584
  933MOL0     H28697   6.999   4.867  10.518  0.1582 -0.2637  0.4911
  933MOL0     H28698   6.938   5.005  10.411 -1.0082 -0.1284  1.4376
  933MOL0     H28699   6.854   4.710  10.434  1.7849  0.7165  1.6762
  933MOL0     H28700   6.787   4.817  10.312  3.8686  1.6910 -1.2372
  933MOL0     H28701   6.651   4.798  10.519 -2.6269  1.2474 -0.0545
  933MOL0     H28702   6.774   4.889  10.609  1.1418  2.3550 -0.8387
  933MOL0     H28703   6.533   4.920  10.300  1.9658 -0.6490 -0.8902
  933MOL0     H28704   6.301   5.044  10.326  1.0185 -0.9238  2.4086
  933MOL0     H28705   6.399   5.146  10.216 -0.0557 -2.5224 -0.5647
  933MOL0     H28706   6.269   5.238  10.482  2.6592  1.7962  0.3534
  933MOL0     H28707   6.335   5.348  10.366 -0.8878  0.9704 -2.2552
  933MOL0     H28708   6.189   5.283  10.191 -3.6944 -0.5688 -1.4343
  933MOL0     H28709   6.112   5.161  10.297  1.5898 -0.0965  0.4808
  933MOL0     H28710   5.973   5.361  10.282 -0.5269  0.0891  1.3901
  933MOL0     H28711   6.038   5.335  10.449 -1.8753 -0.8711 -0.2144
  933MOL0     H28712   6.227   5.719  10.373 -1.4644 -2.0515 -0.8986
  933MOL0     H28713   6.202   5.921  10.624  2.1640 -3.0869 -2.0403
  933MOL0     H28714   6.125   6.040  10.510 -4.6178 -0.7798  3.4216
  933MOL0     H28715   6.264   5.925  10.475 -0.2972 -0.6555 -1.6507
  933MOL0     H28716   5.727   6.084  10.798 -1.0776  3.2121  0.1538
  933MOL0     H28717   5.711   6.273  10.917  2.1242  1.2220  0.5084
  933MOL0     H28718   5.766   6.504  10.924 -0.3009  1.0025  0.1884
  933MOL0     H28719   5.694   6.456  11.077 -1.7637  1.0207 -1.1189
  933MOL0     H28720   5.892   6.675  11.031  0.5803 -1.0668 -1.2948
  933MOL0     H28721   5.736   6.689  11.085  1.8479  3.0618  2.7224
  933MOL0     H28722   5.972   6.592  11.239  0.5977  0.7389  1.5198
  933MOL0     H28723   5.808   6.542  11.293  0.1698  0.2989  1.4489
  933MOL0     H28724   5.781   6.819  11.273  1.4403  0.7281 -0.2387
  933MOL0     H28725   5.954   6.797  11.297  0.2594 -1.0184 -1.7345
  933MOL0     H28726   5.730   6.760  11.495  0.1158  4.3956 -0.8021
  933MOL0     H28727   5.859   6.642  11.499 -1.8466  0.0862  0.0524
  933MOL0     H28728   5.870   6.944  11.529 -3.4418 -0.9892  4.3050
  933MOL0     H28729   6.025   6.846  11.511 -1.1372  3.5824 -4.7661
  933MOL0     H28730   5.870   6.732  11.718  3.1995 -0.5435  3.4064
  933MOL0     H28731   5.854   6.907  11.738  0.7536  0.8766  1.4161
  933MOL0     H28732   6.054   6.860  11.863 -1.2372  0.3962 -0.1707
  933MOL0     H28733   6.104   6.940  11.716  0.3845  0.7054  0.8124
  933MOL0     H28734   6.123   6.293  10.995  1.0011  2.2001 -3.0797
  933MOL0     H28735   6.159   6.081  10.853 -0.1903 -0.4469  0.3373
  933MOL0     H28736   5.759   5.694  10.522  1.6230 -1.7652  2.0443
  933MOL0     H28737   5.862   5.511  10.407 -1.1250  2.0622 -1.6002
  933MOL0     H28738   7.213   4.612  10.424 -0.2853 -0.2826  0.3941
  933MOL0     H28739   7.004   4.485  10.529  0.1912 -1.3529  0.3624
  933MOL0     H28740   6.911   3.969  10.720 -1.3621 -0.1557  0.8501
  933MOL0     H28741   6.742   3.814  10.698  0.6349  1.3511  0.3159
  933MOL0     H28742   6.344   3.981  10.708  0.4898 -1.6001  1.0289
  933MOL0     H28743   6.345   3.944  10.532 -2.5190  2.8997  0.6900
  933MOL0     H28744   6.286   3.698  10.602 -0.8128 -0.6088  0.4608
  933MOL0     H28745   6.149   3.814  10.624  0.3627  0.3635 -0.7704
  933MOL0     H28746   6.332   3.684  10.822  0.0726  0.0507  0.4503
  933MOL0     H28747   6.257   3.844  10.852  0.3038 -1.0661  1.6916
  933MOL0     H28748   6.040   3.764  10.795 -0.7508 -0.3908 -1.0903
  933MOL0     H28749   6.096   3.680  10.945  0.7404  0.1106 -0.1681
  933MOL0     H28750   6.018   3.382  10.651  0.5833  1.5583 -2.3714
  933MOL0     H28751   6.476   4.109  10.545  0.0731 -1.2926 -2.8070
  933MOL0     H28752   6.553   4.345  10.518  0.4470  1.8524 -0.2215
  933MOL0     H28753   6.727   4.358  10.484  1.0985 -2.9779 -0.9183
  933MOL0     H28754   6.622   4.265  10.386 -1.8654 -2.6480  0.8254
  934MOL0     O28755   2.992   0.671   3.702  0.2757 -1.2892 -0.0682
  934MOL0     C28756   2.926   0.779   3.716 -0.1394 -0.6991 -0.2384
  934MOL0     O28757   2.805   0.787   3.775 -0.2548 -0.4512  0.0007
  934MOL0     C28758   2.738   0.671   3.800  0.9163  0.2382 -0.6610
  934MOL0     C28759   2.602   0.670   3.772  0.2865 -0.0262  0.8588
  934MOL0     C28760   2.520   0.553   3.792 -0.2554  0.5552  0.2358
  934MOL0     C28761   2.578   0.436   3.850  0.9764  1.1662  1.2703
  934MOL0     O28762   2.511   0.310   3.846  0.7647 -0.4814 -0.5175
  934MOL0     C28763   2.473   0.269   3.980 -0.2122 -0.5646  0.0978
  934MOL0     C28764   2.509   0.125   3.986  0.5510  0.6838  0.7850
  934MOL0     C28765   2.476   0.060   4.117  0.4632 -0.0023  0.2087
  934MOL0     C28766   2.573  -0.054   4.149 -0.2106  0.0517 -0.5880
  934MOL0     C28767   2.562  -0.100   4.298 -0.6851 -1.2551 -0.2327
  934MOL0     C28768   2.420  -0.154   4.328 -0.2059  0.7676  0.3182
  934MOL0     C28769   2.402  -0.167   4.481 -0.9099 -0.2085  0.2781
  934MOL0     C28770   2.252  -0.156   4.504 -0.7140 -0.0555  0.9478
  934MOL0     N28771   2.166  -0.268   4.454 -0.6446  0.9830  0.7079
  934MOL0     C28772   2.189  -0.398   4.495 -0.6802 -0.8782 -0.7775
  934MOL0     C28773   2.102  -0.467   4.436  0.0348  0.3109 -0.0272
  934MOL0     C28774   2.095  -0.620   4.448 -0.3574 -0.6283 -0.3567
  934MOL0     C28775   2.169  -0.686   4.570 -0.3346  0.1611 -0.3682
  934MOL0     C28776   2.160  -0.837   4.563  0.0586 -0.4902  0.0434
  934MOL0     C28777   2.227  -0.881   4.692 -0.6669 -0.2043  0.0348
  934MOL0     O28778   2.209  -1.022   4.694 -0.4351  0.5871  0.3544
  934MOL0     C28779   2.297  -1.114   4.750 -0.0779  0.6467  0.1934
  934MOL0     C28780   2.315  -1.244   4.698 -1.0357  0.7970  0.5960
  934MOL0     C28781   2.409  -1.338   4.750 -0.2275  0.0301 -0.7502
  934MOL0     C28782   2.414  -1.468   4.676 -0.4012  0.3585  0.2307
  934MOL0     C28783   2.483  -1.300   4.871 -0.1820  0.1559  1.2439
  934MOL0     C28784   2.583  -1.392   4.942  0.0700  1.1970 -0.7747
  934MOL0     O28785   2.596  -1.516   4.895  0.2724 -0.0552 -0.5402
  934MOL0     C28786   2.645  -1.628   4.968  0.2201  0.4831 -0.4249
  934MOL0     C28787   2.657  -1.629   5.110 -0.1065 -0.7492 -0.5805
  934MOL0     C28788   2.701  -1.739   5.170 -0.2087  0.4518  0.5448
  934MOL0     C28789   2.727  -1.856   5.095  1.0965  0.0782 -0.5157
  934MOL0     O28790   2.762  -1.963   5.162 -0.3039  1.4102 -0.7440
  934MOL0     C28791   2.888  -2.034   5.135  0.5867 -0.2877 -0.2736
  934MOL0     C28792   2.906  -2.142   5.241 -0.8838  0.2778 -0.2819
  934MOL0     C28793   2.924  -2.086   5.386  0.2092 -0.3998 -0.8459
  934MOL0     C28794   2.932  -2.213   5.470 -0.1450 -0.0202  0.9262
  934MOL0     C28795   2.949  -2.174   5.607  0.4394 -0.0879 -1.8621
  934MOL0     C28796   2.997  -2.296   5.692 -1.2677  0.5442 -0.7021
  934MOL0     C28797   3.010  -2.251   5.836  0.3809 -0.3282  0.6247
  934MOL0     C28798   3.047  -2.372   5.919  0.6330 -0.2348  0.2899
  934MOL0    Cl28799   2.916  -2.498   5.913  0.3298 -0.2051 -0.2952
  934MOL0     C28800   2.719  -1.857   4.954 -0.5355 -0.2791  0.5018
  934MOL0     C28801   2.676  -1.744   4.894  0.4681 -0.0627  0.1683
  934MOL0     O28802   2.650  -1.348   5.034 -0.0631 -0.8226  0.2215
  934MOL0     C28803   2.477  -1.167   4.911 -1.1287  1.0334 -0.6743
  934MOL0     C28804   2.379  -1.080   4.856 -0.2634  0.6118 -0.6518
  934MOL0     N28805   2.022  -0.390   4.365  0.8424 -1.1451 -0.5431
  934MOL0     N28806   2.063  -0.265   4.367  0.3241 -0.4884  0.2198
  934MOL0     C28807   2.716   0.441   3.881 -0.2913  0.3079 -0.2929
  934MOL0     C28808   2.791   0.553   3.861  0.7848 -0.1420 -0.3787
  934MOL0     C28809   2.990   0.911   3.690  0.8361  0.3977  0.6936
  934MOL0     C28810   3.127   0.916   3.716 -0.4169  1.0102  0.0541
  934MOL0     C28811   3.196   1.035   3.692  0.4050  0.2488  0.7895
  934MOL0     C28812   3.131   1.145   3.636 -0.8763  0.4130 -0.1539
  934MOL0     O28813   3.210   1.245   3.609 -0.8543 -1.2574  0.8027
  934MOL0     C28814   3.156   1.377   3.586  0.4428  0.6793  0.3361
  934MOL0     C28815   3.160   1.404   3.439 -0.4106 -0.2211 -0.3894
  934MOL0     C28816   3.103   1.536   3.387  0.1512  0.6840  0.5842
  934MOL0     C28817   3.178   1.660   3.441  0.3171 -0.8797 -0.1625
  934MOL0     C28818   3.314   1.669   3.387  0.2566 -1.4210  0.4887
  934MOL0     C28819   3.424   1.677   3.347  0.2668  0.0476 -0.7806
  934MOL0     C28820   2.991   1.142   3.626 -0.4246 -0.4115  0.6106
  934MOL0     C28821   2.921   1.020   3.647 -0.7872  0.9109  0.2018
  934MOL0     C28822   2.780   1.022   3.606 -0.7250 -1.1337  0.9703
  934MOL0     H28823   2.563   0.767   3.743 -0.2173 -1.1569 -2.6664
  934MOL0     H28824   2.416   0.540   3.765  0.3595 -0.0123 -2.1650
  934MOL0     H28825   2.368   0.262   4.008 -0.5090 -0.2714 -0.8987
  934MOL0     H28826   2.514   0.328   4.063 -0.3915 -1.6679  0.9896
  934MOL0     H28827   2.461   0.074   3.903  2.3738  0.4598 -0.1900
  934MOL0     H28828   2.616   0.111   3.967  0.2727 -0.7718  0.1876
  934MOL0     H28829   2.465   0.124   4.206  2.0183 -1.7147  1.7257
  934MOL0     H28830   2.372   0.036   4.095  0.7286  1.6788 -3.7381
  934MOL0     H28831   2.553  -0.136   4.080 -6.0395  2.5463 -2.5394
  934MOL0     H28832   2.676  -0.021   4.136  0.0593 -1.0649 -1.4270
  934MOL0     H28833   2.590  -0.016   4.362 -1.5140 -0.0199 -1.4247
  934MOL0     H28834   2.621  -0.188   4.324  0.4970 -0.4856 -0.2482
  934MOL0     H28835   2.336  -0.091   4.298 -2.2838 -2.6107 -1.6345
  934MOL0     H28836   2.402  -0.243   4.268 -1.7837  0.1221  1.6885
  934MOL0     H28837   2.446  -0.084   4.537 -0.9091 -1.3018  1.9829
  934MOL0     H28838   2.455  -0.253   4.523  1.3079 -0.3771 -2.6148
  934MOL0     H28839   2.241  -0.152   4.612  1.4196 -3.0887  1.4332
  934MOL0     H28840   2.208  -0.064   4.466 -3.1476 -1.6142 -0.3275
  934MOL0     H28841   2.268  -0.422   4.566 -0.5629  0.8151 -0.2874
  934MOL0     H28842   2.143  -0.667   4.361 -2.3829 -1.4652 -1.0941
  934MOL0     H28843   1.992  -0.655   4.435 -0.4397 -0.7172  0.4947
  934MOL0     H28844   2.271  -0.649   4.586  0.4535 -2.3092  0.8833
  934MOL0     H28845   2.117  -0.647   4.658 -2.4047  1.1678 -1.9526
  934MOL0     H28846   2.057  -0.873   4.565  0.5162 -1.9245 -0.7198
  934MOL0     H28847   2.200  -0.875   4.468 -1.1051  1.7108 -1.4168
  934MOL0     H28848   2.332  -0.853   4.686 -1.5591  3.7345  0.3349
  934MOL0     H28849   2.185  -0.829   4.778 -3.5665  0.1381 -1.4410
  934MOL0     H28850   2.269  -1.279   4.607  3.9912 -3.6789 -0.8094
  934MOL0     H28851   2.496  -1.540   4.684 -3.4050 -3.2228  1.8449
  934MOL0     H28852   2.422  -1.440   4.571 -2.2405 -0.2642 -0.1211
  934MOL0     H28853   2.326  -1.534   4.675  0.1797 -0.5964 -3.3371
  934MOL0     H28854   2.613  -1.548   5.168 -1.1455 -1.4759 -0.3308
  934MOL0     H28855   2.723  -1.733   5.276  3.3392 -1.0444  0.0456
  934MOL0     H28856   2.882  -2.066   5.030 -0.7535  1.9124 -0.9307
  934MOL0     H28857   2.971  -1.963   5.145  2.4873 -2.4815  0.5150
  934MOL0     H28858   2.824  -2.214   5.236 -2.3649  1.8642  0.3616
  934MOL0     H28859   2.992  -2.200   5.205 -2.5719 -1.6713 -1.3255
  934MOL0     H28860   2.851  -2.013   5.422  0.2812 -1.3333  1.4114
  934MOL0     H28861   3.022  -2.040   5.392  0.3827 -0.4933 -2.6222
  934MOL0     H28862   3.028  -2.254   5.438  0.2825  2.1901 -0.8943
  934MOL0     H28863   2.850  -2.282   5.451  0.5713 -0.3728 -1.1394
  934MOL0     H28864   3.027  -2.097   5.611  1.2950 -0.9308 -1.9240
  934MOL0     H28865   2.853  -2.140   5.647  0.9390 -1.1124  0.3610
  934MOL0     H28866   3.099  -2.324   5.665 -1.3866  0.6148 -1.2281
  934MOL0     H28867   2.925  -2.376   5.672  1.7354 -1.8144 -3.1113
  934MOL0     H28868   2.913  -2.217   5.875  0.1696 -0.1120 -0.0738
  934MOL0     H28869   3.084  -2.170   5.838  0.4535 -0.2845 -1.6216
  934MOL0     H28870   3.056  -2.337   6.022  0.0766 -0.0175  0.2676
  934MOL0     H28871   3.145  -2.406   5.885  1.4734 -0.3274  2.6365
  934MOL0     H28872   2.734  -1.946   4.894 -0.0156  1.0048 -1.3275
  934MOL0     H28873   2.657  -1.746   4.787 -0.9325 -0.9726  0.3990
  934MOL0     H28874   2.546  -1.142   4.990  0.7262 -3.3091 -0.6540
  934MOL0     H28875   2.378  -0.974   4.879  0.0536  0.8583 -1.7073
  934MOL0     H28876   2.746   0.348   3.929 -2.7318 -0.0523  0.6792
  934MOL0     H28877   2.894   0.552   3.898  1.2187 -0.8778 -1.5625
  934MOL0     H28878   3.188   0.834   3.750  1.4355  1.4277 -2.0188
  934MOL0     H28879   3.303   1.038   3.709  0.4997 -0.0028  0.2491
  934MOL0     H28880   3.053   1.392   3.621 -0.3824 -3.4979  0.3137
  934MOL0     H28881   3.226   1.451   3.625  0.7513  0.9782 -0.7457
  934MOL0     H28882   3.121   1.314   3.390  0.1103  0.1845 -1.5946
  934MOL0     H28883   3.265   1.402   3.407 -0.3248 -2.7254 -0.1030
  934MOL0     H28884   3.099   1.548   3.278 -1.1620  0.6285  0.6177
  934MOL0     H28885   3.001   1.539   3.424 -0.5236  0.3400 -1.1237
  934MOL0     H28886   3.198   1.648   3.548  2.9012 -1.3069 -0.6346
  934MOL0     H28887   3.127   1.753   3.414 -0.0630 -1.1551 -0.4013
  934MOL0     H28888   3.528   1.670   3.320  0.1273  0.1271 -1.3560
  934MOL0     H28889   2.938   1.225   3.580 -1.1929 -1.6451 -0.8014
  934MOL0     H28890   2.771   0.962   3.515  1.4000  2.3341 -1.7896
  934MOL0     H28891   2.705   0.992   3.680 -0.2946  0.0147  1.9163
  934MOL0     H28892   2.750   1.120   3.566 -3.6463 -2.2067  0.2817
  935MOL0     O28893   3.905   4.665  10.451  0.8687 -0.6329 -0.7345
  935MOL0     C28894   3.901   4.622  10.333 -0.2642  0.7043 -0.3247
  935MOL0     O28895   3.853   4.502  10.285  0.2929  0.0347 -0.0719
  935MOL0     C28896   3.768   4.430  10.368  0.8235 -0.4560 -0.0438
  935MOL0     C28897   3.816   4.339  10.458 -0.1674  0.7317  0.0920
  935MOL0     C28898   3.736   4.264  10.538  0.8881  1.1472  0.0437
  935MOL0     C28899   3.593   4.286  10.539 -0.0313  0.2336  0.2471
  935MOL0     O28900   3.523   4.204  10.625  0.2701  0.6404  0.3586
  935MOL0     C28901   3.380   4.216  10.634 -0.4571  0.4973  0.2452
  935MOL0     C28902   3.318   4.115  10.536  0.0506 -0.2729  0.6649
  935MOL0     C28903   3.162   4.125  10.517  0.1178  0.2995 -0.4793
  935MOL0     C28904   3.127   4.030  10.397  0.2531 -1.4336 -0.3444
  935MOL0     C28905   2.991   4.055  10.348  0.9266  0.6450  0.0412
  935MOL0     C28906   2.931   3.963  10.241  0.4505 -0.0603 -1.0528
  935MOL0     C28907   2.791   3.992  10.207  0.1419 -0.4528 -0.0947
  935MOL0     C28908   2.716   3.868  10.164 -0.3178  1.0172 -0.4462
  935MOL0     N28909   2.577   3.897  10.126  0.0998  0.6989 -0.3035
  935MOL0     C28910   2.471   3.815  10.148 -0.2441  0.3595  0.6076
  935MOL0     C28911   2.366   3.873  10.092  0.2624 -0.5144  0.7551
  935MOL0     C28912   2.234   3.817  10.102  0.0019  1.0469 -0.4376
  935MOL0     C28913   2.146   3.900  10.196 -0.1566  0.7406 -0.3771
  935MOL0     C28914   2.108   4.042  10.150  0.7974  0.2570 -0.0921
  935MOL0     C28915   2.012   4.035  10.028 -1.4105  0.1679  0.1100
  935MOL0     O28916   1.968   4.170   9.996 -0.0730 -0.9335 -1.0875
  935MOL0     C28917   1.927   4.196   9.868  0.3305 -0.1283  0.2933
  935MOL0     C28918   1.904   4.096   9.765 -0.2027 -0.1127 -0.8123
  935MOL0     C28919   1.863   4.128   9.644 -0.0097 -0.3467 -0.4583
  935MOL0     C28920   1.793   4.024   9.559  0.6956  0.4582  0.0034
  935MOL0     C28921   1.862   4.264   9.603  0.0975 -0.1492 -0.3233
  935MOL0     C28922   1.825   4.312   9.464  0.2133 -0.0355  0.0757
  935MOL0     O28923   1.773   4.438   9.460  1.2039  0.1371 -0.2334
  935MOL0     C28924   1.793   4.525   9.353 -0.7587 -0.3710 -1.0927
  935MOL0     C28925   1.915   4.597   9.337  0.3094 -0.4107 -0.2872
  935MOL0     C28926   1.938   4.680   9.229 -0.3093 -0.7957  0.5094
  935MOL0     C28927   1.823   4.707   9.135  0.0001  0.2225  0.0421
  935MOL0     O28928   1.839   4.800   9.033  0.0755 -0.2334  0.4757
  935MOL0     C28929   1.764   4.784   8.911 -0.3168  0.4962  0.6032
  935MOL0     C28930   1.651   4.893   8.891 -0.0178 -0.2104 -0.7103
  935MOL0     C28931   1.710   5.040   8.862 -0.3875  1.3259  0.4919
  935MOL0     C28932   1.854   5.064   8.917 -0.3235  0.5227 -0.7560
  935MOL0     C28933   1.903   5.208   8.913  0.1904 -0.2638  0.3022
  935MOL0     C28934   2.054   5.217   8.908  0.5212  0.0948  0.4273
  935MOL0     C28935   2.093   5.357   8.866  0.9383 -0.8508  0.1710
  935MOL0     C28936   2.121   5.452   8.986 -0.3160 -0.2221  0.8702
  935MOL0    Cl28937   2.241   5.381   9.098  0.1792 -0.0019 -0.2605
  935MOL0     C28938   1.705   4.636   9.161  0.1275  1.2041  0.2194
  935MOL0     C28939   1.684   4.547   9.269 -0.5577  0.3834  0.5741
  935MOL0     O28940   1.853   4.244   9.370  0.2279  0.4349  0.1066
  935MOL0     C28941   1.889   4.364   9.699  0.0235  0.1848 -0.1539
  935MOL0     C28942   1.925   4.324   9.830  0.5272 -0.1381  0.2688
  935MOL0     N28943   2.404   3.999  10.042 -1.1184  0.4175 -0.4192
  935MOL0     N28944   2.527   4.005  10.074  0.2174  0.9101  0.0333
  935MOL0     C28945   3.536   4.390  10.458 -0.8358 -0.7793 -0.4009
  935MOL0     C28946   3.630   4.459  10.378 -0.4078 -0.6314  0.8130
  935MOL0     C28947   3.970   4.694  10.231 -0.2727 -0.6833 -0.1936
  935MOL0     C28948   4.070   4.774  10.279 -0.1165  0.0445  0.7694
  935MOL0     C28949   4.145   4.855  10.199  0.0703  0.1983 -0.0523
  935MOL0     C28950   4.127   4.861  10.061  0.8534 -0.4596 -0.6758
  935MOL0     O28951   4.195   4.951   9.989  0.0309 -0.0378  0.5586
  935MOL0     C28952   4.313   5.019  10.044 -1.0906  0.2850 -0.5704
  935MOL0     C28953   4.418   4.921  10.012  0.6136  0.3291 -0.9594
  935MOL0     C28954   4.559   4.985  10.037  0.7060 -0.7798  0.0624
  935MOL0     C28955   4.658   4.896   9.968 -0.5916 -0.7615 -0.9133
  935MOL0     C28956   4.792   4.908  10.038 -0.6407 -0.9264  0.2111
  935MOL0     C28957   4.887   4.937  10.113 -0.2398 -0.2171  0.7215
  935MOL0     C28958   4.027   4.783  10.011  0.2094  0.9381  0.1263
  935MOL0     C28959   3.938   4.698  10.092 -1.0582 -0.7329 -0.8008
  935MOL0     C28960   3.822   4.626  10.033 -0.9401 -0.2606  0.4624
  935MOL0     H28961   3.921   4.311  10.454 -0.9287 -3.3274  2.6331
  935MOL0     H28962   3.764   4.185  10.606 -0.7459  0.9400  0.5323
  935MOL0     H28963   3.349   4.317  10.607  0.0214  1.1679  2.0690
  935MOL0     H28964   3.340   4.193  10.733 -1.6111 -4.0609 -1.0456
  935MOL0     H28965   3.354   4.150  10.439 -1.7215  0.1200  0.1121
  935MOL0     H28966   3.342   4.013  10.568 -4.9092 -1.6754  0.7964
  935MOL0     H28967   3.132   4.108  10.621 -0.2714  1.5752 -0.3614
  935MOL0     H28968   3.134   4.226  10.487  0.6962 -0.2588 -3.0861
  935MOL0     H28969   3.199   4.053  10.318 -0.4425  5.4982  0.4724
  935MOL0     H28970   3.142   3.927  10.433  1.8948 -1.3630 -0.7711
  935MOL0     H28971   2.985   4.156  10.306  0.5287  0.5773 -0.0729
  935MOL0     H28972   2.921   4.052  10.432  0.8140 -0.4013 -0.0718
  935MOL0     H28973   2.990   3.961  10.149  0.2748  0.0094 -1.1675
  935MOL0     H28974   2.940   3.868  10.293 -3.3429 -0.8187 -1.4473
  935MOL0     H28975   2.801   4.062  10.123  3.2843  1.3840  1.6273
  935MOL0     H28976   2.734   4.042  10.287 -3.5024 -0.6264 -2.3362
  935MOL0     H28977   2.777   3.811  10.093 -1.7936 -1.9050  0.4713
  935MOL0     H28978   2.698   3.803  10.250 -2.0022 -0.1111 -1.5854
  935MOL0     H28979   2.470   3.717  10.195  1.6805 -1.2594 -2.3792
  935MOL0     H28980   2.237   3.711  10.128 -3.6934  0.9134 -0.0048
  935MOL0     H28981   2.181   3.822  10.006  0.7010  2.8953 -0.7731
  935MOL0     H28982   2.053   3.843  10.201  1.1750 -1.6189 -1.2503
  935MOL0     H28983   2.198   3.906  10.292 -0.0580  3.5095 -0.5015
  935MOL0     H28984   2.062   4.082  10.241  1.5778 -2.1135  1.4456
  935MOL0     H28985   2.190   4.103  10.112  0.9537 -1.8204 -3.4858
  935MOL0     H28986   2.074   4.007   9.942 -0.4518  0.3407  0.7310
  935MOL0     H28987   1.923   3.972  10.036 -3.2741  2.7005  0.7144
  935MOL0     H28988   1.916   3.990   9.789 -4.6325 -1.1642 -2.4282
  935MOL0     H28989   1.779   3.939   9.626 -3.0869  0.5344 -0.5162
  935MOL0     H28990   1.854   4.010   9.468 -1.4743 -0.8545 -1.3506
  935MOL0     H28991   1.690   4.037   9.524  0.3909 -0.5756  0.4777
  935MOL0     H28992   1.993   4.575   9.409 -2.0769 -0.2323  2.5431
  935MOL0     H28993   2.031   4.733   9.211 -3.0608  3.8508 -2.1939
  935MOL0     H28994   1.828   4.800   8.824 -3.2721  2.4876 -1.3591
  935MOL0     H28995   1.716   4.686   8.903  0.2990  0.3601 -2.7142
  935MOL0     H28996   1.592   4.855   8.808 -0.1760  1.3265 -1.3210
  935MOL0     H28997   1.594   4.898   8.985  0.3365 -0.2558 -0.4889
  935MOL0     H28998   1.647   5.109   8.920 -0.5802  1.4384  0.1489
  935MOL0     H28999   1.708   5.064   8.755 -0.2412  1.3342  0.4909
  935MOL0     H29000   1.922   4.991   8.871 -0.2445 -0.3082  0.6168
  935MOL0     H29001   1.857   5.030   9.021  2.6540 -3.5850 -1.9068
  935MOL0     H29002   1.858   5.250   8.822  0.6923 -0.7952 -0.1958
  935MOL0     H29003   1.869   5.258   9.004  2.0875  1.3444  0.1787
  935MOL0     H29004   2.092   5.145   8.834 -2.9466 -0.1343 -1.3403
  935MOL0     H29005   2.105   5.192   9.001 -0.8361 -1.1370  0.8570
  935MOL0     H29006   2.022   5.408   8.801 -0.8518 -0.7124  2.1411
  935MOL0     H29007   2.186   5.345   8.809 -1.5843  1.3230 -5.0695
  935MOL0     H29008   2.021   5.466   9.028 -1.5456 -1.4754 -1.4428
  935MOL0     H29009   2.162   5.549   8.957  0.6867 -0.8809 -0.0100
  935MOL0     H29010   1.619   4.665   9.102 -0.1435  1.1793  0.5999
  935MOL0     H29011   1.587   4.509   9.299  1.2545 -3.6260  2.1999
  935MOL0     H29012   1.894   4.467   9.663  5.1453 -0.5119 -2.2855
  935MOL0     H29013   1.956   4.408   9.893 -0.6366  1.0209 -0.6406
  935MOL0     H29014   3.433   4.425  10.459 -0.1122  1.5365 -0.9295
  935MOL0     H29015   3.604   4.540  10.311  3.9491  1.6855  1.5134
  935MOL0     H29016   4.096   4.761  10.384 -0.8061 -2.8572  0.6730
  935MOL0     H29017   4.215   4.909  10.262  0.9764 -1.5647  0.5393
  935MOL0     H29018   4.325   5.110   9.984  0.6033 -1.2032 -2.6244
  935MOL0     H29019   4.309   5.044  10.151  1.0495 -2.8712  0.3952
  935MOL0     H29020   4.398   4.881   9.912 -0.9577  1.0165 -0.9644
  935MOL0     H29021   4.401   4.846  10.089 -4.3010  1.6460 -0.4033
  935MOL0     H29022   4.562   5.080   9.984  3.5557 -1.8084 -1.8892
  935MOL0     H29023   4.581   4.994  10.144 -0.6167 -2.3619  0.5174
  935MOL0     H29024   4.665   4.941   9.868 -2.3436  1.9476  0.0738
  935MOL0     H29025   4.641   4.789   9.961  0.0856 -0.8940 -0.6276
  935MOL0     H29026   4.972   4.986  10.156 -1.2836  3.6730 -1.1805
  935MOL0     H29027   4.014   4.790   9.903 -0.7662 -0.4217  0.1230
  935MOL0     H29028   3.795   4.685   9.945  2.6822  0.6326 -0.1882
  935MOL0     H29029   3.856   4.529   9.997  1.0294  0.2972  0.7469
  935MOL0     H29030   3.731   4.622  10.095 -1.6136 -0.6351 -0.5241
  936MOL0     O29031   3.478   8.150   8.327  0.5229  0.3306  0.7540
  936MOL0     C29032   3.527   8.034   8.327  0.1950 -0.2594  0.0652
  936MOL0     O29033   3.461   7.923   8.358  0.2110 -0.3214 -0.0169
  936MOL0     C29034   3.333   7.947   8.396  0.2937 -0.4539 -0.7594
  936MOL0     C29035   3.291   7.952   8.536 -0.3275  0.1538  0.1211
  936MOL0     C29036   3.151   7.958   8.571 -0.8114  0.6291  0.5626
  936MOL0     C29037   3.053   7.955   8.468  0.7783  0.0967 -0.2156
  936MOL0     O29038   2.915   7.967   8.493 -0.3040 -1.2727  0.2639
  936MOL0     C29039   2.864   7.902   8.609  0.2366  0.2327 -0.2435
  936MOL0     C29040   2.726   7.849   8.571  0.5015 -0.3659 -0.0415
  936MOL0     C29041   2.634   7.953   8.509 -0.7553  0.3226 -0.7491
  936MOL0     C29042   2.494   7.893   8.497 -0.8632  0.5030 -0.5148
  936MOL0     C29043   2.390   8.002   8.465  0.0688 -0.1421  0.8097
  936MOL0     C29044   2.243   7.968   8.482  0.2267 -0.3923  1.0989
  936MOL0     C29045   2.186   7.866   8.383  0.4956  0.6695 -0.1705
  936MOL0     C29046   2.039   7.834   8.406 -0.1302  0.0780 -0.1809
  936MOL0     N29047   1.988   7.769   8.293 -0.6108  1.0134  0.4146
  936MOL0     C29048   1.915   7.650   8.304  0.3079  0.5842 -0.2125
  936MOL0     C29049   1.842   7.647   8.183 -0.0653 -0.6982 -1.0221
  936MOL0     C29050   1.764   7.532   8.131  0.4550  0.0634 -0.0654
  936MOL0     C29051   1.870   7.444   8.060  0.5226  0.2360 -0.0123
  936MOL0     C29052   1.828   7.377   7.930 -0.0097 -0.3797  0.5466
  936MOL0     C29053   1.680   7.324   7.924  0.2902 -0.4067 -0.1971
  936MOL0     O29054   1.678   7.190   7.972  0.3357  0.2651  0.0391
  936MOL0     C29055   1.562   7.146   8.037 -0.5081 -0.6043  0.6517
  936MOL0     C29056   1.433   7.168   7.980 -0.3207 -0.4829  0.2324
  936MOL0     C29057   1.311   7.115   8.030 -0.0104  0.4435 -0.3692
  936MOL0     C29058   1.192   7.129   7.938  0.4427  1.0210 -0.1235
  936MOL0     C29059   1.306   7.039   8.153  0.3578  0.0621  0.3998
  936MOL0     C29060   1.185   6.979   8.215  0.2493 -0.1701 -0.9297
  936MOL0     O29061   1.197   6.882   8.314  0.0467  0.2592 -0.5438
  936MOL0     C29062   1.092   6.819   8.378 -0.1254 -0.3440  0.2486
  936MOL0     C29063   1.004   6.747   8.297 -0.2202  0.5876  0.6569
  936MOL0     C29064   0.888   6.681   8.355 -0.2752 -0.0289 -0.2686
  936MOL0     C29065   0.865   6.695   8.499  0.0834 -0.3219 -0.7251
  936MOL0     O29066   0.756   6.646   8.557 -0.2260  0.5057 -0.3722
  936MOL0     C29067   0.699   6.704   8.678 -0.5270  0.1587 -0.2966
  936MOL0     C29068   0.558   6.747   8.640  0.1482 -0.2014  0.8581
  936MOL0     C29069   0.457   6.633   8.627 -0.2058 -0.2056  0.1366
  936MOL0     C29070   0.423   6.613   8.477 -0.0749 -0.4643 -0.0122
  936MOL0     C29071   0.319   6.493   8.459 -0.1962 -0.4781  0.1356
  936MOL0     C29072   0.200   6.508   8.546  0.0657 -0.1429 -0.5440
  936MOL0     C29073   0.093   6.402   8.517  0.2282  1.1031 -0.4884
  936MOL0     C29074  -0.052   6.413   8.571  0.6377 -0.0578 -0.2599
  936MOL0    Cl29075  -0.050   6.533   8.704  0.5018  0.3770 -0.0956
  936MOL0     C29076   0.968   6.755   8.574  0.6584 -0.5211  0.0654
  936MOL0     C29077   1.076   6.812   8.519 -0.0089 -0.2911  1.7721
  936MOL0     O29078   1.079   7.022   8.185  0.2208 -0.4473  0.4166
  936MOL0     C29079   1.431   7.016   8.198 -0.3129  0.1174  0.2038
  936MOL0     C29080   1.558   7.058   8.145 -0.6260  1.0554 -0.2161
  936MOL0     N29081   1.872   7.761   8.119  0.9360 -0.1677 -0.0869
  936MOL0     N29082   1.958   7.836   8.182 -0.4450  0.5338  0.1797
  936MOL0     C29083   3.101   7.967   8.336 -0.4294  1.3815 -0.2620
  936MOL0     C29084   3.234   7.957   8.302 -0.7650  0.2101  0.3169
  936MOL0     C29085   3.677   8.016   8.326  1.5258  0.1976  0.1401
  936MOL0     C29086   3.712   7.900   8.243 -0.3630 -0.4775  0.4760
  936MOL0     C29087   3.851   7.878   8.221 -0.4057  0.0674  1.3580
  936MOL0     C29088   3.945   7.979   8.253  0.1151 -0.5902 -0.6323
  936MOL0     O29089   4.073   7.957   8.226  0.1098 -0.3549 -0.2935
  936MOL0     C29090   4.176   8.057   8.223  0.9963 -0.2661 -0.1878
  936MOL0     C29091   4.184   8.147   8.102  0.1648  0.6253  0.9157
  936MOL0     C29092   4.294   8.253   8.102  0.0742  0.7126  0.1742
  936MOL0     C29093   4.238   8.385   8.157 -0.3834  0.1038  0.6053
  936MOL0     C29094   4.212   8.473   8.043  0.3298 -0.0205  0.9094
  936MOL0     C29095   4.202   8.526   7.932  0.9508 -0.2437  0.0207
  936MOL0     C29096   3.906   8.091   8.329  0.0156  0.7452  0.1517
  936MOL0     C29097   3.771   8.105   8.369 -0.8217 -0.8755  0.5288
  936MOL0     C29098   3.732   8.227   8.453  0.7043  0.8554 -0.2623
  936MOL0     H29099   3.368   7.935   8.610  1.6916 -1.8933 -2.2996
  936MOL0     H29100   3.126   7.985   8.673 -2.3064 -0.4305  0.5005
  936MOL0     H29101   2.851   7.973   8.691  0.4166 -2.5946  2.4376
  936MOL0     H29102   2.935   7.824   8.637  2.0198  2.2664  1.1178
  936MOL0     H29103   2.734   7.778   8.488 -4.6011 -1.8555  0.3940
  936MOL0     H29104   2.679   7.791   8.651 -1.2184 -1.5000 -1.7926
  936MOL0     H29105   2.643   8.029   8.588  0.5711 -1.6890  1.1393
  936MOL0     H29106   2.670   8.003   8.419  3.8038  0.2190  0.7792
  936MOL0     H29107   2.497   7.813   8.423 -1.6612 -0.3384  0.3274
  936MOL0     H29108   2.471   7.844   8.592  0.6874 -0.5269 -0.6460
  936MOL0     H29109   2.402   8.028   8.359 -2.3824 -1.3585  0.1588
  936MOL0     H29110   2.419   8.093   8.518  3.8473 -0.4577 -0.3641
  936MOL0     H29111   2.229   7.922   8.580 -0.4169 -2.4649  0.0906
  936MOL0     H29112   2.183   8.060   8.486  0.2020 -0.2891 -0.6974
  936MOL0     H29113   2.243   7.773   8.383 -0.6385 -0.0637 -1.5847
  936MOL0     H29114   2.194   7.915   8.286  0.2013 -2.2644 -1.7729
  936MOL0     H29115   2.036   7.760   8.486 -1.4892  2.9447  2.6584
  936MOL0     H29116   1.972   7.920   8.417  0.2110  0.0144  3.2832
  936MOL0     H29117   1.920   7.581   8.388 -0.0880  2.1709  1.1517
  936MOL0     H29118   1.679   7.571   8.074 -0.8849 -2.0863  0.3376
  936MOL0     H29119   1.717   7.461   8.201  2.8987 -0.0862  1.5313
  936MOL0     H29120   1.963   7.494   8.032  1.4173 -1.2720  0.2297
  936MOL0     H29121   1.896   7.368   8.133  1.0536  1.1089  0.7254
  936MOL0     H29122   1.827   7.446   7.845 -1.0481 -0.1000  0.7757
  936MOL0     H29123   1.901   7.297   7.914  0.6931  0.1191  1.1872
  936MOL0     H29124   1.619   7.393   7.983 -0.3896 -2.7846  2.1131
  936MOL0     H29125   1.652   7.330   7.818  1.0255 -0.2402 -0.3861
  936MOL0     H29126   1.441   7.223   7.887  2.3692  2.5761  2.0749
  936MOL0     H29127   1.145   7.228   7.941  1.7850  1.7247 -1.2080
  936MOL0     H29128   1.110   7.057   7.951  1.9492 -0.8622 -0.5409
  936MOL0     H29129   1.217   7.116   7.832 -1.1213  0.9635 -0.5167
  936MOL0     H29130   1.017   6.731   8.190 -0.3886 -2.0721  0.9842
  936MOL0     H29131   0.809   6.634   8.297 -0.8822  3.1284 -2.2485
  936MOL0     H29132   0.693   6.631   8.759  0.7998 -0.1797 -0.4936
  936MOL0     H29133   0.757   6.790   8.710 -0.1694  0.2259 -1.1031
  936MOL0     H29134   0.522   6.812   8.720 -0.3831  0.5712  0.0076
  936MOL0     H29135   0.558   6.814   8.554  2.1763  1.6820  2.2132
  936MOL0     H29136   0.371   6.646   8.694  0.3981 -2.3300  1.4151
  936MOL0     H29137   0.502   6.542   8.667 -3.0071 -1.0996  1.4956
  936MOL0     H29138   0.517   6.584   8.427  2.1329  0.6597  3.1549
  936MOL0     H29139   0.382   6.701   8.427  0.4667  0.1602  0.6290
  936MOL0     H29140   0.283   6.488   8.356 -2.0071  2.4741  0.5169
  936MOL0     H29141   0.360   6.392   8.469 -2.4843 -1.4211  0.5036
  936MOL0     H29142   0.179   6.616   8.551  4.5505  0.9736 -1.5645
  936MOL0     H29143   0.240   6.497   8.647  0.7279  2.7060 -0.4122
  936MOL0     H29144   0.132   6.310   8.561 -2.3011  0.0891 -0.2099
  936MOL0     H29145   0.094   6.378   8.410  3.5129 -2.8009  0.1591
  936MOL0     H29146  -0.090   6.318   8.610  0.8949 -0.1844 -0.3135
  936MOL0     H29147  -0.119   6.434   8.487 -2.3099 -0.2857  1.8793
  936MOL0     H29148   0.962   6.766   8.682  0.5468  0.6568 -0.0482
  936MOL0     H29149   1.157   6.860   8.574  0.3114 -0.5773  1.5497
  936MOL0     H29150   1.444   6.959   8.289  1.3524  1.0097  0.5645
  936MOL0     H29151   1.648   7.025   8.194 -1.8846  0.5733  1.8969
  936MOL0     H29152   3.040   7.986   8.249  2.2292 -0.5671 -2.7310
  936MOL0     H29153   3.261   7.975   8.199  0.7296  1.3920  0.8714
  936MOL0     H29154   3.635   7.835   8.202 -1.4398  1.4336 -0.6684
  936MOL0     H29155   3.869   7.794   8.154  1.6643  1.6008 -0.1305
  936MOL0     H29156   4.159   8.120   8.310 -1.7130  0.4948 -1.1701
  936MOL0     H29157   4.273   8.008   8.225 -0.1027 -2.6813 -1.5340
  936MOL0     H29158   4.085   8.187   8.078 -0.4971 -3.0513 -4.1389
  936MOL0     H29159   4.194   8.080   8.016 -3.0225 -0.0620  0.9608
  936MOL0     H29160   4.377   8.224   8.168 -1.6470  0.3996  2.3003
  936MOL0     H29161   4.339   8.258   8.003  0.3846  0.5330  0.3013
  936MOL0     H29162   4.320   8.444   8.199 -0.1879  0.6305 -0.4864
  936MOL0     H29163   4.147   8.380   8.217 -1.7482  0.6104 -1.3300
  936MOL0     H29164   4.196   8.577   7.838 -0.9679 -0.4021  0.0275
  936MOL0     H29165   3.970   8.174   8.359  0.8808  0.4703 -0.8594
  936MOL0     H29166   3.695   8.185   8.547  0.0396  2.2458  0.1111
  936MOL0     H29167   3.823   8.279   8.486  1.8721 -2.4825  2.5613
  936MOL0     H29168   3.662   8.294   8.405 -0.1655 -0.6458 -1.1677
  937MOL0     O29169   4.850   0.333   1.524  0.1552  0.4599  0.9309
  937MOL0     C29170   4.929   0.334   1.616  0.6049  1.3617 -0.6981
  937MOL0     O29171   5.056   0.273   1.617  0.9134  0.1715  0.9605
  937MOL0     C29172   5.092   0.183   1.517  0.9968 -0.1250 -0.4224
  937MOL0     C29173   5.149   0.054   1.545  0.3662 -0.2279  0.0437
  937MOL0     C29174   5.173  -0.040   1.448  0.7412  0.4317  0.0885
  937MOL0     C29175   5.142  -0.009   1.321 -0.0743  0.4405  1.1719
  937MOL0     O29176   5.174  -0.090   1.213  0.2531  0.2724  0.1269
  937MOL0     C29177   5.054  -0.145   1.156 -0.0985  0.7640  0.2485
  937MOL0     C29178   5.073  -0.168   1.005  0.0437 -0.7174  0.6407
  937MOL0     C29179   5.195  -0.256   0.973 -1.0647 -0.1167 -0.7051
  937MOL0     C29180   5.184  -0.312   0.835 -0.3142  0.1488 -0.1485
  937MOL0     C29181   5.270  -0.432   0.817  0.0967  0.0503 -0.7702
  937MOL0     C29182   5.243  -0.505   0.674  0.2445 -0.4024  0.5653
  937MOL0     C29183   5.289  -0.656   0.661  0.3598 -0.1406  0.4435
  937MOL0     C29184   5.434  -0.652   0.706 -1.0560 -0.2320 -0.3177
  937MOL0     N29185   5.497  -0.776   0.665 -0.4160 -0.4294  0.9886
  937MOL0     C29186   5.573  -0.781   0.553  0.3512  0.2905  0.5216
  937MOL0     C29187   5.606  -0.905   0.553 -0.4464 -0.1593 -0.0420
  937MOL0     C29188   5.663  -0.961   0.435  0.6108 -0.3663 -0.4227
  937MOL0     C29189   5.814  -0.976   0.442  0.9504 -0.4088  0.1534
  937MOL0     C29190   5.863  -0.991   0.291 -0.9078 -1.0474 -0.0273
  937MOL0     C29191   5.837  -1.133   0.238 -0.4417 -0.4610  0.0172
  937MOL0     O29192   5.861  -1.224   0.342  0.1883  0.2788  0.4930
  937MOL0     C29193   5.856  -1.354   0.299 -0.1560  0.2604  0.5579
  937MOL0     C29194   5.928  -1.440   0.381 -0.5997  0.1220  0.2274
  937MOL0     C29195   5.959  -1.578   0.332 -0.1911 -0.9803 -0.6017
  937MOL0     C29196   6.048  -1.652   0.431  0.3642  0.8795 -1.4035
  937MOL0     C29197   5.892  -1.630   0.220  1.0155  0.3231  0.5035
  937MOL0     C29198   5.898  -1.765   0.167 -0.5341  0.0113 -0.1043
  937MOL0     O29199   5.827  -1.800   0.058 -0.1574  0.7105 -0.1155
  937MOL0     C29200   5.857  -1.912  -0.017 -0.7105  0.8251  0.0869
  937MOL0     C29201   5.988  -1.956  -0.043 -0.4631 -0.0325 -0.6627
  937MOL0     C29202   6.019  -2.075  -0.109 -0.0854 -0.7294  0.1719
  937MOL0     C29203   5.914  -2.155  -0.157  1.0733 -0.0889  0.2474
  937MOL0     O29204   5.926  -2.276  -0.224  0.1695 -0.5716  0.2731
  937MOL0     C29205   6.061  -2.305  -0.291 -0.1004  0.0667  0.1485
  937MOL0     C29206   6.048  -2.410  -0.398 -0.1813 -0.1489 -0.0020
  937MOL0     C29207   6.015  -2.547  -0.337 -0.8241 -0.0033  0.2771
  937MOL0     C29208   6.038  -2.667  -0.423  0.1499  0.7565 -0.2164
  937MOL0     C29209   6.181  -2.713  -0.414 -0.9098  0.6567 -0.0719
  937MOL0     C29210   6.209  -2.864  -0.438 -1.0957  0.0323  0.1744
  937MOL0     C29211   6.231  -2.898  -0.583 -0.2450 -0.1668 -0.1744
  937MOL0     C29212   6.351  -2.833  -0.649 -0.8773  0.5041  0.4241
  937MOL0    Cl29213   6.323  -2.810  -0.822 -0.5362 -0.5817  0.0085
  937MOL0     C29214   5.779  -2.113  -0.128  0.2947  0.1950 -0.1755
  937MOL0     C29215   5.751  -1.992  -0.064  0.5062 -0.6641 -0.4928
  937MOL0     O29216   5.968  -1.846   0.237 -0.3059  0.3455  0.3674
  937MOL0     C29217   5.802  -1.543   0.152 -0.2651  0.4247 -0.5098
  937MOL0     C29218   5.792  -1.406   0.190 -0.4246  0.1753  0.6555
  937MOL0     N29219   5.564  -0.975   0.668 -0.3328 -0.3489 -0.3794
  937MOL0     N29220   5.491  -0.896   0.728  0.4125  0.1598 -1.0456
  937MOL0     C29221   5.109   0.127   1.287  0.5027  0.1991 -0.7076
  937MOL0     C29222   5.077   0.217   1.382  0.9255 -0.0287  0.2169
  937MOL0     C29223   4.905   0.417   1.733  0.1265  0.7867  0.1344
  937MOL0     C29224   5.015   0.495   1.785  0.4660 -0.2954 -0.8830
  937MOL0     C29225   4.982   0.589   1.892  0.0252  0.3923 -0.0669
  937MOL0     C29226   4.855   0.607   1.935 -0.1274  0.9026  0.0803
  937MOL0     O29227   4.851   0.703   2.031  0.9009 -0.1656  0.3110
  937MOL0     C29228   4.749   0.711   2.135  1.0706  0.4683 -0.1879
  937MOL0     C29229   4.824   0.774   2.246  0.5175  0.3997 -0.2085
  937MOL0     C29230   4.763   0.767   2.382 -0.8607  0.2501 -0.4359
  937MOL0     C29231   4.610   0.813   2.391  0.1363 -0.2024  0.1541
  937MOL0     C29232   4.598   0.882   2.523  0.3844  0.6496  0.7713
  937MOL0     C29233   4.603   0.940   2.632 -0.2455 -0.2076  1.1671
  937MOL0     C29234   4.758   0.530   1.885 -0.3413 -0.4215  0.0174
  937MOL0     C29235   4.781   0.431   1.782 -0.2091 -0.6623  0.4559
  937MOL0     C29236   4.648   0.353   1.762 -0.1274 -0.7745  0.1032
  937MOL0     H29237   5.158   0.030   1.650 -3.3387  1.3281  0.8360
  937MOL0     H29238   5.213  -0.137   1.479 -0.4238 -0.0364  0.1593
  937MOL0     H29239   4.970  -0.077   1.169 -0.2398  0.4625  0.9729
  937MOL0     H29240   5.028  -0.236   1.210 -0.8982  2.0289  2.0867
  937MOL0     H29241   4.981  -0.207   0.961 -1.9994  2.3886  1.8196
  937MOL0     H29242   5.079  -0.071   0.955  1.5116 -1.0029  0.2187
  937MOL0     H29243   5.291  -0.207   0.992 -0.3454 -1.8263  0.3075
  937MOL0     H29244   5.180  -0.341   1.041 -2.1360  0.8468  0.2998
  937MOL0     H29245   5.082  -0.342   0.808  0.4292 -3.3740  0.4706
  937MOL0     H29246   5.226  -0.233   0.771 -1.4363  2.1473  1.4593
  937MOL0     H29247   5.240  -0.493   0.903  1.4391  0.9964  0.4151
  937MOL0     H29248   5.376  -0.404   0.825 -0.3083  1.3157  0.7304
  937MOL0     H29249   5.135  -0.511   0.658  0.1232 -3.6689  1.8384
  937MOL0     H29250   5.280  -0.443   0.592  1.0518 -2.4864 -0.7447
  937MOL0     H29251   5.270  -0.684   0.556 -1.1009 -3.1742  1.4015
  937MOL0     H29252   5.228  -0.716   0.729  1.9126 -3.5954 -0.9730
  937MOL0     H29253   5.475  -0.560   0.664 -2.3460 -0.4096 -2.1118
  937MOL0     H29254   5.441  -0.654   0.815  2.9847 -0.7203 -0.4602
  937MOL0     H29255   5.585  -0.705   0.476 -2.4154  0.9041  0.6113
  937MOL0     H29256   5.630  -0.910   0.345 -1.8360 -2.2831 -0.6986
  937MOL0     H29257   5.611  -1.057   0.441  1.4234 -0.7610  0.8292
  937MOL0     H29258   5.866  -0.887   0.480  1.0460 -0.8438  1.0729
  937MOL0     H29259   5.843  -1.066   0.497  1.6457 -0.8766 -0.9475
  937MOL0     H29260   5.812  -0.918   0.227  1.9914  0.0741 -1.2000
  937MOL0     H29261   5.968  -0.964   0.279 -1.2910  0.8088  0.4685
  937MOL0     H29262   5.728  -1.133   0.226 -0.6125  1.8815  0.9837
  937MOL0     H29263   5.894  -1.150   0.146  0.6837  1.1613  0.3693
  937MOL0     H29264   5.978  -1.400   0.469  1.8775 -1.1860 -0.4780
  937MOL0     H29265   6.074  -1.586   0.515  1.3551 -1.4499  0.2555
  937MOL0     H29266   6.149  -1.677   0.396  1.3047  1.1110  0.9168
  937MOL0     H29267   5.992  -1.737   0.469  0.0824  0.6178 -2.3880
  937MOL0     H29268   6.069  -1.898  -0.000 -0.1318 -0.2214 -1.0305
  937MOL0     H29269   6.126  -2.090  -0.117  0.1388 -0.1840  1.7743
  937MOL0     H29270   6.108  -2.216  -0.334 -4.0907  1.7873 -1.1550
  937MOL0     H29271   6.129  -2.352  -0.220 -1.9655  1.9837  3.4592
  937MOL0     H29272   5.964  -2.378  -0.460  0.3734 -0.4730 -0.9513
  937MOL0     H29273   6.143  -2.426  -0.451  0.4223 -1.6705  1.4423
  937MOL0     H29274   5.907  -2.540  -0.317 -0.9132  0.9469 -0.4669
  937MOL0     H29275   6.075  -2.563  -0.247 -0.1589 -2.1005 -0.4896
  937MOL0     H29276   6.007  -2.660  -0.528  0.7280 -2.9130 -0.7781
  937MOL0     H29277   5.976  -2.745  -0.378 -0.3883  0.4366 -1.4654
  937MOL0     H29278   6.239  -2.665  -0.494 -0.0563 -3.0470 -1.8882
  937MOL0     H29279   6.219  -2.689  -0.315 -0.0792  0.8417 -0.4216
  937MOL0     H29280   6.122  -2.915  -0.397 -4.0759  4.3859 -0.0101
  937MOL0     H29281   6.300  -2.887  -0.382 -0.2665  2.1504 -0.1872
  937MOL0     H29282   6.140  -2.867  -0.636 -2.2077 -0.3999  2.8217
  937MOL0     H29283   6.233  -3.007  -0.592 -0.5644 -0.2452  0.6116
  937MOL0     H29284   6.440  -2.888  -0.618 -0.3977  1.8111  1.4842
  937MOL0     H29285   6.371  -2.735  -0.603 -1.6981  0.0462  1.7993
  937MOL0     H29286   5.697  -2.178  -0.156 -0.0838  0.9052 -0.7603
  937MOL0     H29287   5.653  -1.952  -0.043  0.7902  0.0525 -0.5016
  937MOL0     H29288   5.745  -1.573   0.064  1.6560 -1.0449 -1.3196
  937MOL0     H29289   5.736  -1.348   0.118 -0.6937 -3.9977 -2.9288
  937MOL0     H29290   5.105   0.151   1.181 -3.1159 -2.6749 -1.4415
  937MOL0     H29291   5.029   0.311   1.353 -2.3907 -1.8261 -0.6306
  937MOL0     H29292   5.118   0.499   1.749  0.2300  2.3011 -1.4672
  937MOL0     H29293   5.065   0.649   1.927  1.2726 -1.1222 -0.3281
  937MOL0     H29294   4.662   0.769   2.103  0.6721  1.3063  2.1953
  937MOL0     H29295   4.710   0.611   2.157  2.5145  0.1811  1.2313
  937MOL0     H29296   4.846   0.878   2.220  0.2799  0.6156  0.4351
  937MOL0     H29297   4.923   0.728   2.243  1.1267  1.6783 -0.7510
  937MOL0     H29298   4.774   0.668   2.428 -0.8301  0.7012  0.5372
  937MOL0     H29299   4.824   0.826   2.450  0.0979 -0.2262 -0.8685
  937MOL0     H29300   4.550   0.723   2.379 -0.5044  0.2692 -0.2515
  937MOL0     H29301   4.571   0.884   2.318  0.6133 -1.4160 -1.3179
  937MOL0     H29302   4.597   0.981   2.731 -4.3758 -1.6292  1.7302
  937MOL0     H29303   4.655   0.554   1.909 -0.4289 -1.5836  0.8491
  937MOL0     H29304   4.664   0.262   1.820 -1.8204 -0.3662  1.2687
  937MOL0     H29305   4.558   0.395   1.809  0.5053 -2.3549  2.9957
  937MOL0     H29306   4.626   0.338   1.656 -0.7960  1.1719 -0.0614
  938MOL0     O29307   6.033   8.667   6.288  0.0693  0.1695  0.1646
  938MOL0     C29308   5.927   8.659   6.346  0.7413  0.2826  1.0466
  938MOL0     O29309   5.886   8.756   6.438  0.2651  0.3985 -0.3380
  938MOL0     C29310   5.975   8.855   6.472 -0.0768  0.7434  0.2495
  938MOL0     C29311   6.092   8.822   6.533 -0.4836 -0.8736  0.4329
  938MOL0     C29312   6.175   8.929   6.559  0.0427  1.5961 -1.1496
  938MOL0     C29313   6.156   9.058   6.513 -0.0768  0.6849 -0.0919
  938MOL0     O29314   6.247   9.172   6.520 -0.5528  0.4835 -0.0763
  938MOL0     C29315   6.388   9.146   6.545 -0.6916 -0.4789 -0.3417
  938MOL0     C29316   6.490   9.245   6.487 -0.2014  0.0547  0.1574
  938MOL0     C29317   6.630   9.236   6.549  0.0002  0.0832  0.1074
  938MOL0     C29318   6.740   9.251   6.439  0.5178  0.2915  0.6111
  938MOL0     C29319   6.885   9.264   6.478 -0.3038  0.4616  0.8638
  938MOL0     C29320   6.937   9.139   6.547  0.4261  0.5642 -0.1773
  938MOL0     C29321   6.909   9.008   6.469 -0.3058  0.0373 -0.6665
  938MOL0     C29322   6.991   8.897   6.530  0.1329 -0.1234  0.3309
  938MOL0     N29323   6.998   8.776   6.448  0.8254 -0.3031  0.4307
  938MOL0     C29324   6.894   8.701   6.403  0.9424  0.1322  0.1573
  938MOL0     C29325   6.944   8.603   6.328  0.6117  0.2387 -0.0700
  938MOL0     C29326   6.851   8.494   6.284 -0.3158  0.3964  0.4469
  938MOL0     C29327   6.804   8.517   6.136  0.0992 -0.0998 -0.2538
  938MOL0     C29328   6.912   8.491   6.029  0.2056  0.9104  0.3781
  938MOL0     C29329   6.853   8.442   5.897  0.9230 -0.3566 -0.2971
  938MOL0     O29330   6.756   8.544   5.857 -0.0457  0.4852 -0.8511
  938MOL0     C29331   6.689   8.506   5.742 -0.2182 -0.3759  0.2809
  938MOL0     C29332   6.737   8.412   5.648  0.6368  0.4549  0.8069
  938MOL0     C29333   6.666   8.376   5.530  0.2199  0.2109 -0.6561
  938MOL0     C29334   6.707   8.263   5.439 -0.5455 -1.3665 -0.4435
  938MOL0     C29335   6.542   8.438   5.498  0.3865  0.2122 -0.0343
  938MOL0     C29336   6.440   8.401   5.389 -0.1236 -0.0697 -0.5347
  938MOL0     O29337   6.370   8.498   5.309  0.8640  0.6822  0.2871
  938MOL0     C29338   6.414   8.624   5.289  0.1861  0.1906 -0.1620
  938MOL0     C29339   6.332   8.733   5.317  0.2895 -0.8150  0.2925
  938MOL0     C29340   6.387   8.865   5.313  1.0124 -0.0206  0.1424
  938MOL0     C29341   6.512   8.893   5.255 -1.1660  0.6114  0.3119
  938MOL0     O29342   6.554   9.021   5.258  0.7536 -0.9114  0.6965
  938MOL0     C29343   6.687   9.051   5.248 -0.6278 -0.2465  0.3537
  938MOL0     C29344   6.705   9.195   5.303 -0.2348 -0.0891 -0.3234
  938MOL0     C29345   6.646   9.306   5.204  1.1401  0.1214 -0.2975
  938MOL0     C29346   6.492   9.309   5.202  0.1840 -0.7875  0.0419
  938MOL0     C29347   6.421   9.310   5.330  2.0239  0.8860 -0.7675
  938MOL0     C29348   6.265   9.304   5.316 -0.4649  0.6493 -0.4237
  938MOL0     C29349   6.202   9.255   5.451 -0.7292 -0.4007 -0.4181
  938MOL0     C29350   6.078   9.169   5.436  0.0003 -0.3622 -0.2892
  938MOL0    Cl29351   6.099   9.043   5.304  0.2707  0.1764  0.1370
  938MOL0     C29352   6.597   8.783   5.222  0.1062  0.5712 -0.2497
  938MOL0     C29353   6.544   8.649   5.238  0.7773  0.3907 -0.6381
  938MOL0     O29354   6.418   8.277   5.380 -0.4229 -0.8837  0.8196
  938MOL0     C29355   6.494   8.527   5.600 -0.6369  0.4546  0.6030
  938MOL0     C29356   6.569   8.563   5.709 -0.0187 -0.5345  0.7647
  938MOL0     N29357   7.083   8.609   6.332 -0.1755 -0.2720 -0.4426
  938MOL0     N29358   7.108   8.719   6.389 -0.8675  1.1282  0.0135
  938MOL0     C29359   6.032   9.080   6.452 -0.8354  0.0031  0.2419
  938MOL0     C29360   5.939   8.984   6.429 -0.0583  0.2046 -0.0468
  938MOL0     C29361   5.833   8.553   6.318  0.4806 -0.1721  1.8623
  938MOL0     C29362   5.785   8.487   6.434  1.0427  0.5233  0.0343
  938MOL0     C29363   5.691   8.386   6.426  0.0879  0.6737 -0.3795
  938MOL0     C29364   5.649   8.332   6.304  0.3599  0.3407  0.0557
  938MOL0     O29365   5.596   8.199   6.287 -0.0123 -0.4944  0.1012
  938MOL0     C29366   5.686   8.128   6.202 -0.4694  0.5808  0.5405
  938MOL0     C29367   5.606   8.026   6.135  0.6486  0.2402  0.9290
  938MOL0     C29368   5.676   7.933   6.039  0.5305  0.1698 -0.8698
  938MOL0     C29369   5.744   7.985   5.909  0.4363  0.4402 -0.8061
  938MOL0     C29370   5.870   8.070   5.937  0.6752 -0.0914 -0.1589
  938MOL0     C29371   5.953   8.150   5.978  0.5318  0.4422 -0.0562
  938MOL0     C29372   5.682   8.424   6.194 -0.9318  1.4218  0.0550
  938MOL0     C29373   5.766   8.534   6.194  0.0460 -0.5371  0.6505
  938MOL0     C29374   5.809   8.614   6.080  0.0784  0.6185 -0.0587
  938MOL0     H29375   6.122   8.720   6.550 -0.3135 -0.7752  0.7390
  938MOL0     H29376   6.262   8.904   6.619 -2.1606 -1.0327  1.2482
  938MOL0     H29377   6.398   9.050   6.494 -3.5218  0.2531 -2.5006
  938MOL0     H29378   6.403   9.129   6.652 -1.5686 -2.0078 -0.4449
  938MOL0     H29379   6.504   9.226   6.380  0.7843  2.5831 -0.2415
  938MOL0     H29380   6.455   9.348   6.482 -2.5063 -0.7354 -1.1255
  938MOL0     H29381   6.647   9.319   6.617  1.5185  0.9579 -1.2749
  938MOL0     H29382   6.644   9.142   6.604 -1.1650  0.0892  0.4276
  938MOL0     H29383   6.732   9.170   6.366 -0.2751  0.2530  0.7345
  938MOL0     H29384   6.735   9.352   6.398  0.8588 -0.1812 -0.6311
  938MOL0     H29385   6.899   9.350   6.545 -1.4546  2.2675 -1.0606
  938MOL0     H29386   6.940   9.289   6.386 -1.3206 -1.1471 -0.2340
  938MOL0     H29387   7.043   9.164   6.561  0.1607  1.5881  0.0192
  938MOL0     H29388   6.900   9.115   6.647  3.9641  1.3845  1.4800
  938MOL0     H29389   6.922   9.029   6.362  1.5899 -0.9185 -0.6769
  938MOL0     H29390   6.807   8.980   6.496  1.2197 -1.5921  4.5230
  938MOL0     H29391   7.097   8.922   6.539  1.1100 -2.8559 -1.8904
  938MOL0     H29392   6.951   8.872   6.629 -1.8309 -1.3749 -0.7100
  938MOL0     H29393   6.790   8.731   6.393  1.4730  1.3578 -3.0228
  938MOL0     H29394   6.785   8.478   6.370 -0.8666  0.9419  0.1371
  938MOL0     H29395   6.904   8.399   6.278 -1.4687 -0.1884 -3.8541
  938MOL0     H29396   6.716   8.458   6.108  0.8511 -2.2722  1.6939
  938MOL0     H29397   6.781   8.624   6.127  0.3483  0.0238  0.5086
  938MOL0     H29398   6.964   8.581   5.997 -1.3804  1.5430 -0.5311
  938MOL0     H29399   6.988   8.419   6.062 -0.0818  1.0814  1.4743
  938MOL0     H29400   6.940   8.421   5.833  0.1798  0.3295 -1.5795
  938MOL0     H29401   6.794   8.351   5.912  0.5287  0.0432  0.6410
  938MOL0     H29402   6.830   8.356   5.644 -0.3922 -1.2589 -1.2817
  938MOL0     H29403   6.656   8.167   5.454  0.6369 -1.8565  0.6802
  938MOL0     H29404   6.816   8.253   5.447 -0.1906  2.2901  1.0071
  938MOL0     H29405   6.686   8.305   5.341 -0.5460  1.3905  0.6663
  938MOL0     H29406   6.228   8.706   5.335 -1.4065  2.2211 -3.4709
  938MOL0     H29407   6.334   8.954   5.344 -2.4340  0.1341 -5.0985
  938MOL0     H29408   6.742   8.982   5.313 -1.0105 -1.2070 -0.3177
  938MOL0     H29409   6.713   9.046   5.142  0.4111  0.2179  0.5801
  938MOL0     H29410   6.654   9.201   5.399  2.7101 -1.9547  1.4953
  938MOL0     H29411   6.810   9.218   5.322  0.3026 -1.9932 -0.7273
  938MOL0     H29412   6.679   9.295   5.100 -1.5469 -3.3246 -0.9713
  938MOL0     H29413   6.687   9.404   5.231 -1.3558  1.8095 -2.0949
  938MOL0     H29414   6.453   9.223   5.146  0.0401 -0.5574 -0.2098
  938MOL0     H29415   6.464   9.404   5.157 -0.2296  0.1040  2.0743
  938MOL0     H29416   6.453   9.221   5.385 -2.4945 -1.2605 -1.1326
  938MOL0     H29417   6.446   9.398   5.391  3.4878 -0.2204  0.3102
  938MOL0     H29418   6.236   9.243   5.231 -0.7040  1.9457 -1.3097
  938MOL0     H29419   6.233   9.406   5.290  1.5888  0.8161 -2.6196
  938MOL0     H29420   6.186   9.338   5.520 -2.5456 -0.8278 -0.2778
  938MOL0     H29421   6.269   9.185   5.500 -1.7176  0.7434  2.8008
  938MOL0     H29422   5.988   9.225   5.407  0.5772  0.9442  0.4116
  938MOL0     H29423   6.066   9.111   5.528  1.1581 -2.8595 -1.6068
  938MOL0     H29424   6.694   8.797   5.177  0.0252 -0.0483 -0.6367
  938MOL0     H29425   6.597   8.559   5.212  0.9255 -0.8094  3.1982
  938MOL0     H29426   6.400   8.572   5.570 -1.4828 -0.5030  1.7536
  938MOL0     H29427   6.526   8.641   5.770  0.8230 -0.9388  1.9304
  938MOL0     H29428   6.013   9.178   6.411  1.5051  1.7488  2.9542
  938MOL0     H29429   5.859   8.994   6.357  0.7302 -0.0296 -0.9852
  938MOL0     H29430   5.831   8.491   6.532  1.7598 -0.9204 -0.2174
  938MOL0     H29431   5.649   8.337   6.513  0.1294  2.6635  0.8040
  938MOL0     H29432   5.744   8.191   6.135 -1.4985  0.2218 -0.7382
  938MOL0     H29433   5.762   8.076   6.261  0.1240  0.4943 -0.2796
  938MOL0     H29434   5.524   8.079   6.085 -1.0418  0.8367  4.0378
  938MOL0     H29435   5.552   7.961   6.205  2.7507 -1.4535  1.0589
  938MOL0     H29436   5.754   7.885   6.098 -0.9982 -1.7031 -0.2591
  938MOL0     H29437   5.608   7.854   6.005  1.5530 -0.5336 -1.3304
  938MOL0     H29438   5.668   8.038   5.851 -1.0336 -0.1104  0.5554
  938MOL0     H29439   5.772   7.901   5.844  1.6749  2.5582 -3.1989
  938MOL0     H29440   6.021   8.221   6.020 -0.7814  3.9816 -3.3855
  938MOL0     H29441   5.648   8.387   6.098  1.1724 -2.3862  0.6192
  938MOL0     H29442   5.878   8.560   6.013 -0.0098 -0.0187  0.3556
  938MOL0     H29443   5.715   8.637   6.029 -1.1479 -3.4216 -0.0233
  938MOL0     H29444   5.863   8.705   6.108 -0.7291  1.5532 -1.3979
  939MOL0     O29445   0.442   3.133   6.095 -0.0543 -0.1587 -0.5299
  939MOL0     C29446   0.387   3.069   6.016 -0.2732  0.8144 -0.5677
  939MOL0     O29447   0.426   3.045   5.887  0.4531  0.3639 -0.0431
  939MOL0     C29448   0.556   3.088   5.862  0.1774 -0.2383 -1.1507
  939MOL0     C29449   0.588   3.227   5.873  0.1303  0.4942 -0.1091
  939MOL0     C29450   0.705   3.273   5.825 -0.0254  0.7830 -0.3082
  939MOL0     C29451   0.801   3.194   5.757 -0.8739  0.5470 -0.1711
  939MOL0     O29452   0.912   3.255   5.711 -0.0368 -0.3527  0.1588
  939MOL0     C29453   0.942   3.253   5.571  0.1239  0.7829  0.2145
  939MOL0     C29454   1.052   3.339   5.516 -1.3495  1.1389 -0.0964
  939MOL0     C29455   1.184   3.256   5.511  0.4543  0.5941  0.9129
  939MOL0     C29456   1.246   3.190   5.636  0.1120  0.3792 -0.5746
  939MOL0     C29457   1.276   3.275   5.756  0.3379  0.3175 -1.4298
  939MOL0     C29458   1.362   3.386   5.717  0.5075 -0.8148 -0.1060
  939MOL0     C29459   1.425   3.477   5.828  0.1873  0.0180 -0.0748
  939MOL0     C29460   1.556   3.549   5.783 -0.8347 -0.3451 -0.4815
  939MOL0     N29461   1.613   3.616   5.901  0.1757  0.8060 -0.4375
  939MOL0     C29462   1.658   3.552   6.018 -0.3316  0.4486  0.7038
  939MOL0     C29463   1.705   3.648   6.104 -0.0943  0.9033 -0.7546
  939MOL0     C29464   1.770   3.607   6.237  0.6066 -1.4040  0.5852
  939MOL0     C29465   1.924   3.623   6.226 -0.9286 -0.0036  0.1978
  939MOL0     C29466   1.984   3.486   6.186 -0.2006  0.5096 -0.3352
  939MOL0     C29467   2.132   3.485   6.183  0.4515 -0.8089 -0.0672
  939MOL0     O29468   2.185   3.559   6.072  0.4325 -0.0131 -0.5002
  939MOL0     C29469   2.320   3.587   6.068  0.4606  1.0912  0.3100
  939MOL0     C29470   2.371   3.687   5.990 -0.0314 -0.2349 -0.8264
  939MOL0     C29471   2.509   3.717   5.978 -0.2533 -0.3393  0.4394
  939MOL0     C29472   2.542   3.832   5.901  0.5006  0.8280  0.2249
  939MOL0     C29473   2.604   3.629   6.035  0.2472  0.4043 -0.3013
  939MOL0     C29474   2.751   3.642   6.028 -0.9419  0.1022 -0.0397
  939MOL0     O29475   2.799   3.764   6.066 -0.3528 -0.2077  0.5231
  939MOL0     C29476   2.915   3.819   6.043 -0.5660 -0.1184  0.3016
  939MOL0     C29477   2.939   3.944   6.101 -0.2766  0.2043  0.7540
  939MOL0     C29478   3.044   4.025   6.056 -0.6481 -0.4950  0.8681
  939MOL0     C29479   3.139   3.976   5.960 -0.5050  0.7924 -0.0837
  939MOL0     O29480   3.240   4.070   5.938 -0.0323  1.0740  0.8436
  939MOL0     C29481   3.320   4.058   5.816 -0.2298 -0.2773 -0.7390
  939MOL0     C29482   3.407   4.189   5.817 -0.1164  0.3405  0.0946
  939MOL0     C29483   3.520   4.184   5.922 -0.1372  0.7931 -0.3752
  939MOL0     C29484   3.642   4.107   5.863  0.7103 -0.3265  0.8238
  939MOL0     C29485   3.768   4.108   5.954  0.2866  0.7433  0.2868
  939MOL0     C29486   3.860   4.225   5.925  0.7368  1.7813  0.6568
  939MOL0     C29487   3.992   4.200   6.007 -0.0638 -0.3107 -0.1110
  939MOL0     C29488   3.975   4.255   6.153  0.7558 -0.3807  0.0527
  939MOL0    Cl29489   3.966   4.434   6.145  0.1999  0.4094 -0.5827
  939MOL0     C29490   3.124   3.845   5.905  0.4620 -0.3829  0.8416
  939MOL0     C29491   3.010   3.774   5.948  0.1815 -0.5619  0.2594
  939MOL0     O29492   2.822   3.545   5.998  0.1441  0.1839 -0.2142
  939MOL0     C29493   2.554   3.518   6.108  0.6301  0.5532  0.2637
  939MOL0     C29494   2.417   3.499   6.129  0.3374  0.2573 -0.4368
  939MOL0     N29495   1.683   3.767   6.041 -0.4784  0.2864  0.2612
  939MOL0     N29496   1.640   3.752   5.918  0.2127 -0.6870 -0.6899
  939MOL0     C29497   0.783   3.053   5.757  0.2430 -0.3576  0.0928
  939MOL0     C29498   0.660   2.999   5.806 -0.0819 -0.3995 -0.0225
  939MOL0     C29499   0.255   2.999   6.046  0.1998  0.0661 -1.0431
  939MOL0     C29500   0.215   2.884   5.971 -0.6030 -0.2940  0.0249
  939MOL0     C29501   0.108   2.806   6.029 -0.6409 -0.2331  0.7807
  939MOL0     C29502   0.019   2.851   6.122  0.2081 -0.1569  0.7706
  939MOL0     O29503  -0.087   2.771   6.155  0.6433  0.9130 -0.4809
  939MOL0     C29504  -0.166   2.726   6.042  0.6795  0.0341  0.4338
  939MOL0     C29505  -0.195   2.581   6.037  0.3878  0.7761 -0.1427
  939MOL0     C29506  -0.266   2.540   5.908 -0.0533 -0.9109 -0.7046
  939MOL0     C29507  -0.168   2.496   5.801 -0.4501 -0.2216  0.2519
  939MOL0     C29508  -0.094   2.371   5.833 -0.4708  0.4137  0.2204
  939MOL0     C29509  -0.022   2.287   5.880 -0.5756 -0.7561 -0.6173
  939MOL0     C29510   0.052   2.970   6.186  0.1280 -0.4362  0.6847
  939MOL0     C29511   0.166   3.043   6.153 -1.0323  0.1938 -1.2552
  939MOL0     C29512   0.197   3.163   6.236 -0.1721  0.4006 -0.2227
  939MOL0     H29513   0.505   3.290   5.904 -0.8768 -1.4637  1.4329
  939MOL0     H29514   0.713   3.382   5.824 -0.0475  0.7882 -0.0305
  939MOL0     H29515   0.854   3.294   5.521  1.0988  1.7032 -0.8158
  939MOL0     H29516   0.956   3.151   5.537  5.4887  0.8905  1.2069
  939MOL0     H29517   1.023   3.366   5.414 -0.8219  0.3391 -0.4684
  939MOL0     H29518   1.065   3.432   5.571 -1.8672  0.6184  0.9417
  939MOL0     H29519   1.163   3.177   5.439  2.2533  0.7490  0.1635
  939MOL0     H29520   1.255   3.323   5.460  0.0505  0.3297 -0.0221
  939MOL0     H29521   1.181   3.112   5.679  1.0662 -0.8176 -1.2364
  939MOL0     H29522   1.340   3.142   5.609  0.2862 -0.9854  2.0821
  939MOL0     H29523   1.336   3.218   5.827 -1.1784  0.5408  0.0871
  939MOL0     H29524   1.189   3.318   5.807  0.6246 -0.5370 -0.1715
  939MOL0     H29525   1.443   3.334   5.665  1.0782 -0.6272  0.5896
  939MOL0     H29526   1.313   3.450   5.643  3.1885 -0.1372 -1.3995
  939MOL0     H29527   1.456   3.415   5.912 -0.8972 -0.9348 -0.3558
  939MOL0     H29528   1.356   3.547   5.876 -1.5788 -1.5555 -0.2202
  939MOL0     H29529   1.632   3.474   5.758  0.9786  0.8062  1.2760
  939MOL0     H29530   1.544   3.602   5.687 -4.0189 -0.5342 -0.2808
  939MOL0     H29531   1.669   3.446   6.038  0.6044  1.0938  4.4578
  939MOL0     H29532   1.732   3.505   6.247  0.6987 -1.4390  0.5768
  939MOL0     H29533   1.744   3.671   6.322 -1.0545 -1.7104  0.3445
  939MOL0     H29534   1.960   3.689   6.146  0.0528 -1.2353 -0.4060
  939MOL0     H29535   1.966   3.644   6.325  5.6184 -4.2867 -1.0353
  939MOL0     H29536   1.970   3.409   6.261  2.6552  0.1928 -0.0353
  939MOL0     H29537   1.946   3.455   6.088  4.7876 -1.5622 -1.9265
  939MOL0     H29538   2.171   3.520   6.279 -1.0559  0.0392  0.2677
  939MOL0     H29539   2.167   3.381   6.189 -1.8735 -1.5920  4.1464
  939MOL0     H29540   2.305   3.767   5.957  2.0842  0.4291 -3.8768
  939MOL0     H29541   2.454   3.853   5.840 -1.3234 -0.6721  2.1955
  939MOL0     H29542   2.627   3.810   5.835 -1.0127 -1.6366 -1.0492
  939MOL0     H29543   2.555   3.925   5.957  1.8710 -0.5030  2.2391
  939MOL0     H29544   2.877   3.983   6.182  0.8494  0.6405  1.4357
  939MOL0     H29545   3.038   4.122   6.103 -0.0902 -0.1649  0.2805
  939MOL0     H29546   3.383   3.968   5.817 -1.4691 -1.1760 -0.6991
  939MOL0     H29547   3.254   4.043   5.730  3.2864 -0.1647 -3.6598
  939MOL0     H29548   3.455   4.195   5.719  0.8699  0.2729  0.5544
  939MOL0     H29549   3.339   4.272   5.837  0.3027  1.6747 -3.3520
  939MOL0     H29550   3.476   4.131   6.007  0.5679  1.5073  0.4558
  939MOL0     H29551   3.543   4.281   5.967 -1.4604  0.4079  1.2094
  939MOL0     H29552   3.671   4.149   5.766  1.4054  1.3095  1.6918
  939MOL0     H29553   3.610   4.003   5.851 -0.0496  0.2104 -2.8436
  939MOL0     H29554   3.731   4.096   6.057 -1.4469 -2.9104 -0.5907
  939MOL0     H29555   3.814   4.013   5.925 -0.7360  0.4382 -0.3884
  939MOL0     H29556   3.812   4.321   5.946 -1.3293  0.8019  0.7039
  939MOL0     H29557   3.893   4.214   5.822  1.7071  2.9684  0.8163
  939MOL0     H29558   4.080   4.247   5.962 -0.5771  0.0754 -0.7336
  939MOL0     H29559   4.008   4.092   6.013 -4.2911 -1.0250  2.0220
  939MOL0     H29560   4.061   4.223   6.212 -0.1648 -1.0667  1.0906
  939MOL0     H29561   3.884   4.221   6.205  0.5255 -0.3327 -0.3103
  939MOL0     H29562   3.192   3.796   5.836 -0.0019  1.1941 -0.7856
  939MOL0     H29563   3.008   3.671   5.913  2.0294 -0.7154  0.4762
  939MOL0     H29564   2.627   3.457   6.162  0.8272  0.5211 -0.0381
  939MOL0     H29565   2.376   3.409   6.173 -0.9287  1.2285  0.4730
  939MOL0     H29566   0.854   2.981   5.718 -0.6697 -0.3889 -1.6174
  939MOL0     H29567   0.644   2.892   5.803 -1.2882 -0.3044  1.5231
  939MOL0     H29568   0.277   2.847   5.890 -1.2814  0.8874 -1.0722
  939MOL0     H29569   0.089   2.709   5.984 -0.6638  0.0354  0.2075
  939MOL0     H29570  -0.265   2.769   6.063  1.6832  1.5182  2.3930
  939MOL0     H29571  -0.126   2.764   5.947  4.5086 -0.1026  1.8536
  939MOL0     H29572  -0.262   2.549   6.117 -0.2419  1.4315 -0.3870
  939MOL0     H29573  -0.099   2.530   6.047  1.2744  2.0354 -1.6183
  939MOL0     H29574  -0.336   2.459   5.931 -1.6305  0.2975 -1.0543
  939MOL0     H29575  -0.328   2.625   5.877 -1.2345 -0.6852  2.0158
  939MOL0     H29576  -0.099   2.574   5.768 -1.5901  0.3378 -0.8921
  939MOL0     H29577  -0.237   2.478   5.718  1.9521  0.2445 -1.9434
  939MOL0     H29578   0.022   2.193   5.910 -2.8086 -1.4426  0.7333
  939MOL0     H29579  -0.004   3.008   6.271  0.4753 -3.3844  2.3295
  939MOL0     H29580   0.125   3.219   6.296  0.0949  2.3679 -1.6384
  939MOL0     H29581   0.272   3.151   6.315 -1.3215 -0.7165  0.7587
  939MOL0     H29582   0.233   3.238   6.166  1.3113 -0.5721 -0.5546
  940MOL0     O29583   2.623   2.589   0.306  0.0492  0.3169 -0.5860
  940MOL0     C29584   2.557   2.491   0.272 -0.2991  0.1279 -0.3543
  940MOL0     O29585   2.527   2.454   0.144  0.4263 -0.4196  0.7092
  940MOL0     C29586   2.568   2.541   0.036 -0.2293 -0.9792  0.5415
  940MOL0     C29587   2.649   2.499  -0.074  1.1379  0.0953 -0.5772
  940MOL0     C29588   2.654   2.575  -0.194  0.0107  0.4008 -0.4303
  940MOL0     C29589   2.571   2.688  -0.207 -0.3062  0.4018  0.8392
  940MOL0     O29590   2.585   2.768  -0.319 -0.4836  0.2354 -0.1865
  940MOL0     C29591   2.700   2.769  -0.394 -0.9633  0.1074 -0.5014
  940MOL0     C29592   2.685   2.713  -0.539 -0.3604  0.7672 -0.5576
  940MOL0     C29593   2.822   2.713  -0.603 -0.6001  0.1864  0.1701
  940MOL0     C29594   2.890   2.589  -0.554 -0.0945 -0.5146  1.1519
  940MOL0     C29595   3.022   2.572  -0.621  0.0572 -0.7269  0.2385
  940MOL0     C29596   3.128   2.688  -0.577 -0.9586 -0.0906 -0.4002
  940MOL0     C29597   3.277   2.652  -0.606 -0.8612 -0.0143 -1.0671
  940MOL0     C29598   3.362   2.782  -0.612  0.0131  0.0095 -0.0056
  940MOL0     N29599   3.370   2.846  -0.473  0.4525  0.0697  0.1271
  940MOL0     C29600   3.445   2.806  -0.369  0.1706 -0.5295  0.2261
  940MOL0     C29601   3.423   2.894  -0.273 -0.0516  0.0823  0.6561
  940MOL0     C29602   3.508   2.903  -0.148  0.2492 -0.1956  1.0608
  940MOL0     C29603   3.422   2.888  -0.026 -0.0735  0.2445 -1.0386
  940MOL0     C29604   3.513   2.874   0.102 -0.1325  0.0071  0.0600
  940MOL0     C29605   3.426   2.887   0.231  0.3234 -0.4080  1.0917
  940MOL0     O29606   3.506   2.836   0.343  0.5206 -0.3882  0.8210
  940MOL0     C29607   3.481   2.709   0.369 -0.1347  1.2121  0.2072
  940MOL0     C29608   3.562   2.607   0.316  0.2085 -0.5453 -0.6063
  940MOL0     C29609   3.531   2.478   0.326  0.2461 -0.0577 -0.0649
  940MOL0     C29610   3.608   2.383   0.242  0.0760 -0.6025  0.1197
  940MOL0     C29611   3.418   2.432   0.396  0.8345  1.0257  0.7527
  940MOL0     C29612   3.383   2.290   0.420 -0.0901  0.4341  0.0796
  940MOL0     O29613   3.354   2.260   0.538  0.6920  0.4136 -0.8674
  940MOL0     C29614   3.364   2.131   0.596 -0.2240  0.3547  0.1693
  940MOL0     C29615   3.271   2.094   0.693  0.1356  0.1341  0.0894
  940MOL0     C29616   3.276   1.971   0.751  0.6821  0.4681 -0.6131
  940MOL0     C29617   3.373   1.879   0.717 -0.6113 -0.1545  0.2542
  940MOL0     O29618   3.355   1.756   0.778 -0.5787  0.8862 -0.5044
  940MOL0     C29619   3.421   1.632   0.733  0.1803 -0.8965 -1.6527
  940MOL0     C29620   3.355   1.578   0.609 -1.1327 -0.6172 -0.2302
  940MOL0     C29621   3.207   1.574   0.607 -0.1385 -0.2981  0.3636
  940MOL0     C29622   3.161   1.499   0.483  0.1269 -0.2622 -0.0693
  940MOL0     C29623   3.005   1.489   0.479  0.5199 -0.2898  0.8319
  940MOL0     C29624   2.951   1.400   0.599  0.7305 -0.9013 -0.0813
  940MOL0     C29625   2.808   1.378   0.579 -0.7377 -0.1947 -0.2509
  940MOL0     C29626   2.749   1.290   0.698  0.1808 -0.0819 -0.7528
  940MOL0    Cl29627   2.580   1.286   0.670 -0.1920  0.7633  0.2246
  940MOL0     C29628   3.482   1.915   0.630  0.2686 -0.4035 -0.4295
  940MOL0     C29629   3.481   2.044   0.573  0.3928  0.6259 -0.2870
  940MOL0     O29630   3.396   2.203   0.329 -0.2088 -0.5920  0.0198
  940MOL0     C29631   3.332   2.529   0.450 -0.1784  0.8038  0.0927
  940MOL0     C29632   3.364   2.671   0.443 -0.2766  0.0793  0.2647
  940MOL0     N29633   3.335   2.983  -0.317 -0.2545  0.6509  0.5662
  940MOL0     N29634   3.298   2.965  -0.436 -0.1714 -0.2537  0.0969
  940MOL0     C29635   2.494   2.735  -0.095  0.0166 -0.4458 -0.1457
  940MOL0     C29636   2.496   2.665   0.029  0.0133 -0.3601 -0.0554
  940MOL0     C29637   2.505   2.399   0.369  0.1673 -0.4676 -0.1129
  940MOL0     C29638   2.518   2.261   0.349  0.3114 -0.2223 -1.2438
  940MOL0     C29639   2.458   2.167   0.442 -0.1073 -0.2838 -0.1540
  940MOL0     C29640   2.384   2.210   0.557 -0.4280 -0.7176 -0.3319
  940MOL0     O29641   2.308   2.143   0.647 -0.3951  1.0740  0.3721
  940MOL0     C29642   2.238   2.022   0.594  0.0326 -1.0202  0.2607
  940MOL0     C29643   2.309   1.885   0.619 -0.1499  0.0096  0.9656
  940MOL0     C29644   2.411   1.891   0.737  0.3436  0.2272  0.3420
  940MOL0     C29645   2.442   1.758   0.791 -0.1856  1.0193 -0.1476
  940MOL0     C29646   2.471   1.662   0.683 -0.9296 -0.4400 -0.0573
  940MOL0     C29647   2.504   1.593   0.595  0.7347  0.1759 -0.1300
  940MOL0     C29648   2.388   2.356   0.575  0.2038  0.2735 -0.0148
  940MOL0     C29649   2.448   2.446   0.490 -0.0911 -0.0531 -0.4291
  940MOL0     C29650   2.414   2.595   0.510 -0.6141  0.4281 -0.3626
  940MOL0     H29651   2.696   2.401  -0.064  0.4065 -0.2095 -0.0461
  940MOL0     H29652   2.711   2.530  -0.275 -0.5725 -1.4143  0.1361
  940MOL0     H29653   2.778   2.710  -0.345 -1.1043 -1.8833 -2.5180
  940MOL0     H29654   2.726   2.874  -0.410 -0.2402 -0.0993 -0.7218
  940MOL0     H29655   2.631   2.618  -0.546 -2.3803  1.9738 -4.3492
  940MOL0     H29656   2.618   2.775  -0.599 -1.9696 -0.4564 -0.0936
  940MOL0     H29657   2.816   2.697  -0.711 -1.0634 -0.3261  0.2663
  940MOL0     H29658   2.881   2.803  -0.588 -0.3277  0.2220 -1.0045
  940MOL0     H29659   2.896   2.590  -0.445  3.9542 -1.6913  1.1074
  940MOL0     H29660   2.825   2.511  -0.594  1.2257  0.1872 -2.8255
  940MOL0     H29661   3.016   2.570  -0.730  3.4108  2.6546 -0.1715
  940MOL0     H29662   3.074   2.480  -0.595  3.8207  1.3654  0.7255
  940MOL0     H29663   3.111   2.779  -0.636  2.3945 -1.3670 -3.7606
  940MOL0     H29664   3.116   2.715  -0.472 -0.1878 -0.0786 -0.3094
  940MOL0     H29665   3.278   2.596  -0.701  0.6380 -0.9775 -0.5242
  940MOL0     H29666   3.315   2.575  -0.539  2.0423  2.9351  0.9478
  940MOL0     H29667   3.465   2.766  -0.644  0.0038  1.9195 -1.1502
  940MOL0     H29668   3.322   2.862  -0.675 -0.1145  1.3248  1.6601
  940MOL0     H29669   3.523   2.730  -0.369  3.3964  2.4736 -1.8376
  940MOL0     H29670   3.568   2.994  -0.157 -2.2342  1.4961  0.6205
  940MOL0     H29671   3.565   2.810  -0.157 -1.8576 -1.4346 -0.3121
  940MOL0     H29672   3.356   2.971   0.002 -0.4094 -0.7707  1.4964
  940MOL0     H29673   3.355   2.801  -0.026 -2.1146  1.6734  1.0092
  940MOL0     H29674   3.547   2.770   0.105  2.5290  0.8218  1.3131
  940MOL0     H29675   3.598   2.944   0.100  0.7415 -0.8262 -4.9803
  940MOL0     H29676   3.404   2.990   0.257 -0.3748 -0.8140  2.1724
  940MOL0     H29677   3.332   2.833   0.217  0.0077 -1.2084  5.1942
  940MOL0     H29678   3.648   2.636   0.257 -2.1502  2.7819 -2.7466
  940MOL0     H29679   3.635   2.294   0.299  0.5208  0.2316  1.2644
  940MOL0     H29680   3.693   2.429   0.192 -2.3934  2.5687 -1.5946
  940MOL0     H29681   3.543   2.362   0.157  0.2616 -0.6435 -0.0111
  940MOL0     H29682   3.190   2.164   0.709 -0.6349 -1.0987  1.9278
  940MOL0     H29683   3.201   1.945   0.824  3.2355 -3.1545  1.0651
  940MOL0     H29684   3.529   1.648   0.725 -0.0356  1.0169 -1.0725
  940MOL0     H29685   3.385   1.557   0.804 -0.3489  1.7778  1.1001
  940MOL0     H29686   3.382   1.649   0.530  1.8810 -0.3579  0.9113
  940MOL0     H29687   3.412   1.486   0.589 -1.5041 -1.4341  2.1544
  940MOL0     H29688   3.159   1.672   0.620 -2.7350 -1.4114 -0.1528
  940MOL0     H29689   3.181   1.519   0.698 -2.5830 -3.7640 -2.1839
  940MOL0     H29690   3.196   1.396   0.495  1.3536 -0.2489 -2.6018
  940MOL0     H29691   3.206   1.530   0.387  0.4106  0.6643  0.3531
  940MOL0     H29692   2.957   1.587   0.471 -0.9002 -1.0496 -0.3980
  940MOL0     H29693   2.975   1.444   0.384  0.1858 -1.6093  1.5470
  940MOL0     H29694   2.953   1.460   0.691  0.8029 -2.3301  0.8732
  940MOL0     H29695   3.004   1.305   0.614  0.1818 -0.9394  1.7760
  940MOL0     H29696   2.785   1.339   0.479 -2.4376 -0.9304  0.3908
  940MOL0     H29697   2.767   1.479   0.586  2.7134  1.2942  0.1809
  940MOL0     H29698   2.770   1.334   0.796 -2.8844  0.8057 -0.4055
  940MOL0     H29699   2.784   1.187   0.697 -0.2198 -0.3092  1.7384
  940MOL0     H29700   3.555   1.841   0.599 -0.5654 -1.1305 -0.7008
  940MOL0     H29701   3.561   2.083   0.511 -0.5009  2.9199 -0.1071
  940MOL0     H29702   3.243   2.490   0.498  0.6431  1.2464  2.0345
  940MOL0     H29703   3.310   2.754   0.487 -0.6194  0.6725 -1.2167
  940MOL0     H29704   2.443   2.831  -0.089 -1.9070 -1.4206 -0.2743
  940MOL0     H29705   2.427   2.688   0.110  1.2666 -0.8882  1.2071
  940MOL0     H29706   2.556   2.217   0.257 -0.7714 -0.4964 -1.5772
  940MOL0     H29707   2.473   2.062   0.416 -1.2097 -1.0716  2.1508
  940MOL0     H29708   2.156   2.000   0.664  1.3646 -0.0649  2.2191
  940MOL0     H29709   2.204   2.054   0.496 -1.2523  0.7233  1.2115
  940MOL0     H29710   2.371   1.855   0.534 -0.6001 -2.3895  1.4137
  940MOL0     H29711   2.232   1.809   0.635  1.2052 -1.3035  1.4511
  940MOL0     H29712   2.509   1.933   0.713 -0.1363  2.1802  1.5710
  940MOL0     H29713   2.375   1.961   0.814 -1.1119 -0.3256  0.2086
  940MOL0     H29714   2.350   1.727   0.842  1.8354 -1.5764  2.2376
  940MOL0     H29715   2.528   1.766   0.858  1.4030  0.3876 -2.0247
  940MOL0     H29716   2.528   1.516   0.525  2.3658  0.7982 -0.3076
  940MOL0     H29717   2.330   2.409   0.650 -0.2757  1.5482 -1.2463
  940MOL0     H29718   2.498   2.626   0.573  1.7071 -2.9027 -1.5495
  940MOL0     H29719   2.425   2.663   0.425 -0.1238  2.0206  0.9226
  940MOL0     H29720   2.310   2.610   0.541 -1.2373 -2.7098 -0.5570
  941MOL0     O29721   8.560   0.726   9.489  0.3046  0.6507  0.3568
  941MOL0     C29722   8.555   0.772   9.604  0.8152 -0.4785  0.3410
  941MOL0     O29723   8.528   0.701   9.717  0.2134  0.0243 -0.0520
  941MOL0     C29724   8.498   0.569   9.703  0.9336 -0.0769  0.0372
  941MOL0     C29725   8.590   0.476   9.732 -1.1694 -0.3598 -0.0256
  941MOL0     C29726   8.556   0.345   9.702 -0.6608 -0.0679  0.1153
  941MOL0     C29727   8.423   0.297   9.687 -0.1518 -0.3248  0.1028
  941MOL0     O29728   8.399   0.156   9.674  0.3433  0.2197 -0.7943
  941MOL0     C29729   8.262   0.106   9.656  0.1884  0.2774  0.1046
  941MOL0     C29730   8.267  -0.037   9.704 -0.6945  1.2369 -0.2984
  941MOL0     C29731   8.124  -0.112   9.683  0.0663 -0.4620 -0.1342
  941MOL0     C29732   8.042  -0.083   9.551 -0.4513 -0.3500 -1.0137
  941MOL0     C29733   7.918  -0.170   9.547  0.1441  0.2551  0.3985
  941MOL0     C29734   7.806  -0.137   9.453 -0.3694 -0.3628  0.5909
  941MOL0     C29735   7.755   0.001   9.487  0.4884 -0.1360 -0.1479
  941MOL0     C29736   7.656   0.043   9.384 -0.0002 -1.1540 -0.3591
  941MOL0     N29737   7.610   0.177   9.407 -0.5244 -0.0934  0.0960
  941MOL0     C29738   7.480   0.217   9.391 -0.6211 -0.0861 -1.1700
  941MOL0     C29739   7.482   0.351   9.383  0.7712  0.5803  0.0092
  941MOL0     C29740   7.382   0.454   9.355  0.3912  0.4430 -0.1308
  941MOL0     C29741   7.365   0.490   9.213  0.1096  0.6423  0.5164
  941MOL0     C29742   7.496   0.539   9.142 -0.0589  0.7941 -0.0783
  941MOL0     C29743   7.472   0.551   8.991  0.0533  0.5822  0.1598
  941MOL0     O29744   7.449   0.419   8.938  0.0731 -0.5724 -0.1223
  941MOL0     C29745   7.542   0.316   8.940  0.0834  0.8895  0.5697
  941MOL0     C29746   7.513   0.185   8.972 -0.6638  0.0723  0.0260
  941MOL0     C29747   7.608   0.073   8.981  0.4971 -0.0168 -0.0222
  941MOL0     C29748   7.551  -0.062   9.002  0.7926 -0.1736  0.7562
  941MOL0     C29749   7.744   0.101   8.961 -0.6053  0.1085 -0.4129
  941MOL0     C29750   7.862   0.013   8.978  0.5556 -0.6329 -0.4527
  941MOL0     O29751   7.987   0.064   8.979  0.3333  0.4225 -0.2646
  941MOL0     C29752   8.091  -0.019   9.007 -0.5593  0.3053 -0.2879
  941MOL0     C29753   8.123  -0.073   9.137  0.1605  0.0683  0.0041
  941MOL0     C29754   8.231  -0.154   9.154 -0.4792 -0.2758 -0.5262
  941MOL0     C29755   8.319  -0.178   9.053  0.6299  0.0338  0.7263
  941MOL0     O29756   8.429  -0.258   9.064 -1.3110  0.7455 -0.4792
  941MOL0     C29757   8.534  -0.198   9.147  0.4157  0.7123 -0.1303
  941MOL0     C29758   8.642  -0.305   9.177  0.1949  0.8935  0.5955
  941MOL0     C29759   8.590  -0.415   9.269 -0.5478  0.4747 -0.3120
  941MOL0     C29760   8.707  -0.473   9.358 -1.1244  0.8475 -0.6539
  941MOL0     C29761   8.656  -0.591   9.450  0.5194 -1.1590  0.4359
  941MOL0     C29762   8.554  -0.560   9.564  0.6863 -0.3303  0.0252
  941MOL0     C29763   8.504  -0.680   9.645  0.5306 -0.7577 -0.1113
  941MOL0     C29764   8.413  -0.767   9.551  0.5460 -0.1963  0.9665
  941MOL0    Cl29765   8.360  -0.922   9.616 -0.0774 -0.3106 -0.0477
  941MOL0     C29766   8.300  -0.119   8.927  0.4474 -0.4420 -0.3227
  941MOL0     C29767   8.187  -0.039   8.903  0.2608  0.1028 -0.2946
  941MOL0     O29768   7.840  -0.109   8.987 -0.3825  0.3831 -0.8798
  941MOL0     C29769   7.772   0.232   8.927 -0.7875  0.9302  0.3122
  941MOL0     C29770   7.677   0.341   8.914  0.0720  0.8682  0.3520
  941MOL0     N29771   7.617   0.385   9.389  0.4292 -1.6743 -0.1151
  941MOL0     N29772   7.687   0.278   9.405 -0.7291 -0.8572 -0.0265
  941MOL0     C29773   8.324   0.394   9.688  0.2253 -0.2934  0.2463
  941MOL0     C29774   8.364   0.536   9.698 -0.0447  0.6113 -0.5332
  941MOL0     C29775   8.552   0.922   9.621 -0.1838  0.1856 -0.0515
  941MOL0     C29776   8.477   0.970   9.729  0.3483 -0.4405  1.0449
  941MOL0     C29777   8.467   1.107   9.738  0.4178  0.9387 -0.5742
  941MOL0     C29778   8.534   1.199   9.659  0.0613  0.8802 -0.6135
  941MOL0     O29779   8.511   1.331   9.665  0.0906 -0.3400  1.0656
  941MOL0     C29780   8.430   1.387   9.769 -0.0199 -0.3335 -0.7006
  941MOL0     C29781   8.508   1.380   9.902  0.9070 -0.1011  0.1305
  941MOL0     C29782   8.633   1.482   9.906 -0.5004  0.3709 -0.1906
  941MOL0     C29783   8.595   1.623   9.951 -0.3585  0.7523  0.4342
  941MOL0     C29784   8.555   1.706   9.841 -0.4287 -0.2842  0.4049
  941MOL0     C29785   8.531   1.774   9.742 -0.0674  0.6379  0.5124
  941MOL0     C29786   8.610   1.143   9.556  0.4093 -0.0986 -0.1496
  941MOL0     C29787   8.631   1.002   9.548 -0.4732 -0.4645  0.0637
  941MOL0     C29788   8.748   0.964   9.461  0.9308  0.0250 -0.2093
  941MOL0     H29789   8.695   0.501   9.747 -2.1209  2.8558  2.4416
  941MOL0     H29790   8.636   0.272   9.709 -2.6741 -2.4068  0.1443
  941MOL0     H29791   8.228   0.111   9.552 -0.1293 -1.4227  0.0954
  941MOL0     H29792   8.194   0.159   9.723  0.0626  0.0893  0.1274
  941MOL0     H29793   8.341  -0.093   9.645 -1.0991  1.1986 -0.7755
  941MOL0     H29794   8.304  -0.041   9.807  1.5339  1.5933 -1.0403
  941MOL0     H29795   8.138  -0.218   9.703 -3.3685 -0.7857  1.2005
  941MOL0     H29796   8.057  -0.095   9.768  1.8387  1.1091  1.0341
  941MOL0     H29797   8.005   0.020   9.552  0.0087 -0.1806  0.2563
  941MOL0     H29798   8.111  -0.096   9.467  0.2600 -1.0253 -0.3456
  941MOL0     H29799   7.879  -0.184   9.648  1.4059  0.9835  1.0136
  941MOL0     H29800   7.947  -0.274   9.529 -0.6180  0.0466  0.3332
  941MOL0     H29801   7.838  -0.136   9.348  2.4983 -1.4793  1.3751
  941MOL0     H29802   7.724  -0.208   9.466  0.5652 -1.1281  2.6653
  941MOL0     H29803   7.822   0.088   9.493  2.2305 -1.5349  2.3488
  941MOL0     H29804   7.704   0.004   9.583 -1.2199 -2.4608 -0.8846
  941MOL0     H29805   7.710   0.047   9.289 -3.1801 -1.7545 -2.3506
  941MOL0     H29806   7.576  -0.032   9.380  1.4164 -2.8375  1.3777
  941MOL0     H29807   7.405   0.145   9.361  1.5015 -3.3648  0.8623
  941MOL0     H29808   7.408   0.546   9.408 -0.6392  0.8135 -0.2545
  941MOL0     H29809   7.290   0.424   9.405  0.4025 -0.0729 -0.4135
  941MOL0     H29810   7.315   0.403   9.167  0.2727  1.7428 -1.9087
  941MOL0     H29811   7.299   0.577   9.206 -3.0520 -1.6755 -2.2298
  941MOL0     H29812   7.511   0.642   9.175  0.6958  0.7601 -0.2881
  941MOL0     H29813   7.589   0.485   9.164  0.2489  1.2178 -0.3185
  941MOL0     H29814   7.381   0.608   8.973  0.9507  1.7420 -0.8593
  941MOL0     H29815   7.554   0.599   8.937 -0.9236 -0.1417 -2.0495
  941MOL0     H29816   7.407   0.180   8.997 -0.1250  2.7749  3.5545
  941MOL0     H29817   7.583  -0.117   9.091 -0.5123 -0.6337  0.9768
  941MOL0     H29818   7.569  -0.112   8.906  2.8752  1.7851  0.0443
  941MOL0     H29819   7.443  -0.051   9.016  0.5687 -1.1502 -0.0721
  941MOL0     H29820   8.054  -0.057   9.220  1.6185 -0.7064  1.4198
  941MOL0     H29821   8.254  -0.200   9.250  4.9718  3.0348  0.1643
  941MOL0     H29822   8.585  -0.110   9.107  1.5983  0.1277  0.0669
  941MOL0     H29823   8.484  -0.181   9.243 -0.5477  0.6581 -0.6023
  941MOL0     H29824   8.675  -0.361   9.088 -0.2108 -1.2098  1.7030
  941MOL0     H29825   8.732  -0.253   9.211 -0.1568  1.4805  0.6489
  941MOL0     H29826   8.554  -0.496   9.205  1.1305  0.4826 -1.3187
  941MOL0     H29827   8.513  -0.379   9.339 -2.6609 -1.0983 -1.7336
  941MOL0     H29828   8.756  -0.396   9.419  0.5621 -0.9919  0.4567
  941MOL0     H29829   8.779  -0.521   9.291 -2.0588 -0.7350 -0.5644
  941MOL0     H29830   8.603  -0.661   9.384 -0.8466  0.9910 -0.8574
  941MOL0     H29831   8.747  -0.633   9.494  2.2215  1.5561 -0.3014
  941MOL0     H29832   8.467  -0.507   9.524  2.6429  3.2063  0.0763
  941MOL0     H29833   8.592  -0.488   9.636 -0.4757 -1.4529  1.8445
  941MOL0     H29834   8.448  -0.641   9.731  2.7537  1.9561  0.2473
  941MOL0     H29835   8.597  -0.734   9.664  0.6091 -1.5302 -2.3813
  941MOL0     H29836   8.448  -0.787   9.449 -4.7048 -1.1949 -0.9744
  941MOL0     H29837   8.318  -0.720   9.521 -0.4337 -3.1647 -1.0087
  941MOL0     H29838   8.385  -0.136   8.861 -1.2928 -0.6874 -2.5901
  941MOL0     H29839   8.185   0.008   8.805  2.2360  1.0893  0.0846
  941MOL0     H29840   7.878   0.244   8.908 -0.3028  2.3279  3.2465
  941MOL0     H29841   7.705   0.441   8.883  1.0678  0.6378  0.4801
  941MOL0     H29842   8.217   0.375   9.686 -0.0376  0.9981  0.5723
  941MOL0     H29843   8.296   0.620   9.694 -0.7766  0.0283 -0.8861
  941MOL0     H29844   8.416   0.899   9.783 -1.3992 -0.3872 -0.7014
  941MOL0     H29845   8.394   1.136   9.813  1.5228 -1.8253  1.7745
  941MOL0     H29846   8.396   1.490   9.764  1.8740  0.6017  2.4907
  941MOL0     H29847   8.335   1.334   9.783 -0.6695  1.0455  0.4097
  941MOL0     H29848   8.556   1.282   9.909  0.9247 -0.0349  1.1107
  941MOL0     H29849   8.442   1.398   9.988 -0.9656  1.5602 -1.5591
  941MOL0     H29850   8.694   1.449   9.991 -1.7451  2.5897  1.6835
  941MOL0     H29851   8.692   1.488   9.814 -0.1329  0.0758  0.0193
  941MOL0     H29852   8.673   1.669  10.012 -0.0359 -1.1169  1.5063
  941MOL0     H29853   8.496   1.615   9.999 -2.2074  1.1951 -3.0088
  941MOL0     H29854   8.499   1.836   9.660 -2.7846 -1.7250 -0.3654
  941MOL0     H29855   8.654   1.221   9.494  0.0496 -0.7435 -1.2511
  941MOL0     H29856   8.811   0.892   9.513  0.0745 -0.7754 -0.2603
  941MOL0     H29857   8.711   0.915   9.371 -3.0592  0.5088  1.0074
  941MOL0     H29858   8.807   1.052   9.430  1.0427  1.6474  3.9599
  942MOL0     O29859   7.525   5.083   5.738  0.4574  0.7094 -0.3175
  942MOL0     C29860   7.585   5.189   5.752  0.9561  0.2212 -0.0348
  942MOL0     O29861   7.709   5.206   5.824 -0.3036  0.7003 -0.1332
  942MOL0     C29862   7.782   5.105   5.880  0.5520 -0.2236  1.0027
  942MOL0     C29863   7.919   5.118   5.882 -0.4102  1.0064  0.6159
  942MOL0     C29864   8.001   5.004   5.914 -0.5682  0.3932  0.2226
  942MOL0     C29865   7.940   4.884   5.956  0.3713  0.1081 -0.4699
  942MOL0     O29866   8.020   4.783   5.999 -0.1166 -0.9312  0.4378
  942MOL0     C29867   8.019   4.675   5.905  0.0410 -0.2241 -0.8962
  942MOL0     C29868   8.078   4.557   5.974 -0.9824  0.7931 -0.5896
  942MOL0     C29869   8.222   4.581   6.029  0.6040  1.0748 -0.8628
  942MOL0     C29870   8.317   4.670   5.954  0.1275  0.0643 -0.4505
  942MOL0     C29871   8.474   4.661   5.996 -0.2640  0.0789 -0.3369
  942MOL0     C29872   8.561   4.763   5.920  0.1456  0.7666 -0.8817
  942MOL0     C29873   8.705   4.759   5.961 -0.0389  0.6807  0.3247
  942MOL0     C29874   8.776   4.874   5.888  0.9898 -0.0902 -0.6058
  942MOL0     N29875   8.753   4.882   5.743  0.6342 -0.0157  0.2595
  942MOL0     C29876   8.799   4.796   5.641 -0.0716 -0.2846  0.1406
  942MOL0     C29877   8.796   4.866   5.528  0.1425  0.3483  0.5674
  942MOL0     C29878   8.860   4.818   5.402  0.9722 -0.1652 -1.3760
  942MOL0     C29879   8.803   4.692   5.351  0.6667  0.3971 -0.7194
  942MOL0     C29880   8.870   4.654   5.213 -0.3419 -1.3102  0.3597
  942MOL0     C29881   9.029   4.652   5.192 -0.7594 -0.5649 -0.5028
  942MOL0     O29882   9.093   4.545   5.258  0.0533  0.6787  0.3115
  942MOL0     C29883   9.217   4.506   5.218 -0.2468 -0.0108  0.1096
  942MOL0     C29884   9.260   4.388   5.274 -0.6228 -0.2380  0.1762
  942MOL0     C29885   9.386   4.331   5.234 -0.1316  0.6334  0.2181
  942MOL0     C29886   9.417   4.201   5.293 -0.2647  0.4471 -0.4647
  942MOL0     C29887   9.458   4.393   5.135 -0.1124 -0.4781 -0.1843
  942MOL0     C29888   9.577   4.340   5.076 -0.8708 -0.5982  0.1711
  942MOL0     O29889   9.582   4.218   5.044  0.1941  0.5130 -0.3236
  942MOL0     C29890   9.682   4.175   4.961  0.7178  0.1037  0.2169
  942MOL0     C29891   9.655   4.049   4.900  1.0845 -0.7723  0.2772
  942MOL0     C29892   9.750   3.974   4.835  0.0350 -0.5888 -0.9130
  942MOL0     C29893   9.871   4.034   4.809  0.3907 -0.5469 -0.5258
  942MOL0     O29894   9.971   3.977   4.738 -0.0690  0.3637 -0.0139
  942MOL0     C29895   9.986   3.836   4.749 -0.6649  0.4553 -0.1693
  942MOL0     C29896  10.134   3.801   4.733 -0.1623 -0.3057 -0.6984
  942MOL0     C29897  10.155   3.646   4.704 -0.0404 -0.6961  0.2619
  942MOL0     C29898  10.301   3.602   4.680 -0.4217 -0.9836  0.4744
  942MOL0     C29899  10.316   3.449   4.665 -0.7441 -0.8743  0.0410
  942MOL0     C29900  10.441   3.397   4.723  0.5750  0.6737  0.5893
  942MOL0     C29901  10.454   3.405   4.870 -0.1528  0.3477  0.1040
  942MOL0     C29902  10.544   3.301   4.932 -0.3625 -0.6616 -0.1436
  942MOL0    Cl29903  10.705   3.354   4.885  0.2090  0.0728  0.1841
  942MOL0     C29904   9.910   4.155   4.871 -0.4956  0.2484  0.7124
  942MOL0     C29905   9.819   4.211   4.958 -0.6451  0.0473  0.0905
  942MOL0     O29906   9.668   4.422   5.054 -0.2904 -0.0198 -0.6448
  942MOL0     C29907   9.409   4.507   5.081  0.2636 -0.0879 -0.0859
  942MOL0     C29908   9.289   4.568   5.122  0.1741 -0.2603  0.1817
  942MOL0     N29909   8.718   4.976   5.554  0.1504 -0.4135 -0.0487
  942MOL0     N29910   8.700   4.990   5.683  0.5942  0.4620 -0.5246
  942MOL0     C29911   7.805   4.875   5.969  0.9990  0.3001  1.0677
  942MOL0     C29912   7.722   4.984   5.917  0.2628  0.1192  0.0755
  942MOL0     C29913   7.552   5.307   5.673 -0.2559  0.7494  0.0085
  942MOL0     C29914   7.650   5.375   5.603  0.1103 -0.9278  0.8575
  942MOL0     C29915   7.620   5.495   5.544 -0.8903 -0.3077 -0.3576
  942MOL0     C29916   7.491   5.548   5.531  0.3732 -0.7126  0.2565
  942MOL0     O29917   7.463   5.670   5.491  0.1739 -0.5311  0.5381
  942MOL0     C29918   7.409   5.760   5.588 -0.7099  0.0759  0.5294
  942MOL0     C29919   7.476   5.892   5.557 -0.9184  0.1437 -0.0743
  942MOL0     C29920   7.618   5.898   5.621 -0.0259  0.3259  0.3688
  942MOL0     C29921   7.701   6.021   5.563  0.8167 -0.2990 -0.0418
  942MOL0     C29922   7.826   6.052   5.629  1.5475  0.2185  0.4059
  942MOL0     C29923   7.918   6.085   5.703  0.2975  1.1911  0.3198
  942MOL0     C29924   7.392   5.477   5.587  1.0398 -0.5090  0.2034
  942MOL0     C29925   7.425   5.356   5.661  1.0726  0.1736  0.8836
  942MOL0     C29926   7.303   5.275   5.718 -0.8848 -0.9246 -0.5218
  942MOL0     H29927   7.961   5.213   5.850 -0.2555  0.5432 -0.6002
  942MOL0     H29928   8.109   5.003   5.903 -0.7005 -2.7837 -1.7987
  942MOL0     H29929   8.085   4.704   5.822  1.1648  1.3898  0.5013
  942MOL0     H29930   7.918   4.658   5.868  0.2123  0.2918 -1.6392
  942MOL0     H29931   8.025   4.535   6.066  0.1213  2.9895  0.6614
  942MOL0     H29932   8.071   4.472   5.906  3.3933 -0.1792 -0.0959
  942MOL0     H29933   8.211   4.627   6.127  4.0167 -2.2816  1.3616
  942MOL0     H29934   8.273   4.486   6.046  1.8494  1.9465  0.6062
  942MOL0     H29935   8.298   4.647   5.849 -1.2228  0.7398 -0.3784
  942MOL0     H29936   8.278   4.769   5.979  2.2637  0.1934  2.8566
  942MOL0     H29937   8.521   4.566   5.969  0.0343  0.8640 -2.8993
  942MOL0     H29938   8.484   4.677   6.104  2.0590 -0.5243 -0.4025
  942MOL0     H29939   8.559   4.739   5.813  3.3468 -3.2886 -0.2873
  942MOL0     H29940   8.520   4.863   5.936 -3.7565 -0.6359 -1.0269
  942MOL0     H29941   8.749   4.664   5.929  0.1105  0.8679 -0.0237
  942MOL0     H29942   8.723   4.761   6.069  0.7521  0.2616  0.2046
  942MOL0     H29943   8.738   4.968   5.929 -2.6427 -1.6924  0.0792
  942MOL0     H29944   8.884   4.866   5.908  0.7390 -1.8898  0.1952
  942MOL0     H29945   8.833   4.694   5.656  3.5937  0.6292 -1.0235
  942MOL0     H29946   8.966   4.798   5.420  0.9463 -0.1453 -1.1986
  942MOL0     H29947   8.859   4.899   5.329  1.4550  0.8924 -0.2563
  942MOL0     H29948   8.850   4.623   5.422 -0.1165  0.4759 -0.1151
  942MOL0     H29949   8.694   4.681   5.345  0.7637  0.1414 -3.4428
  942MOL0     H29950   8.839   4.550   5.198  0.1975 -1.6193  1.3515
  942MOL0     H29951   8.828   4.720   5.137 -0.7173 -0.4677  1.2821
  942MOL0     H29952   9.033   4.639   5.083  2.8778 -2.6779 -0.3106
  942MOL0     H29953   9.075   4.749   5.214 -2.2567 -0.2427  1.4600
  942MOL0     H29954   9.181   4.335   5.327 -1.2802  1.3179  0.7954
  942MOL0     H29955   9.423   4.207   5.402 -2.1207  0.1770 -0.3120
  942MOL0     H29956   9.508   4.155   5.254 -0.5385  1.7696 -2.8244
  942MOL0     H29957   9.328   4.143   5.268 -0.9018  0.6992  1.1139
  942MOL0     H29958   9.547   4.037   4.900  1.1448 -1.4323 -0.2910
  942MOL0     H29959   9.724   3.875   4.798 -1.9486 -0.0084 -1.1688
  942MOL0     H29960   9.958   3.792   4.845  0.9549 -0.3510 -0.0249
  942MOL0     H29961   9.922   3.791   4.672 -3.6707  0.8805  1.8909
  942MOL0     H29962  10.163   3.855   4.643 -0.7572 -2.0675 -2.0093
  942MOL0     H29963  10.193   3.837   4.818 -0.5933  0.9337 -0.9152
  942MOL0     H29964  10.084   3.613   4.628  0.5623 -0.3182 -0.4846
  942MOL0     H29965  10.125   3.596   4.797 -0.2406 -0.2766  0.4263
  942MOL0     H29966  10.364   3.640   4.761 -1.5322 -1.8704  1.8066
  942MOL0     H29967  10.334   3.648   4.587 -1.7062 -1.2461 -0.1244
  942MOL0     H29968  10.226   3.394   4.697 -1.9124 -0.3078 -2.0581
  942MOL0     H29969  10.325   3.431   4.557 -0.4799  0.1793 -0.1190
  942MOL0     H29970  10.525   3.447   4.673  1.9991 -3.4481 -1.5823
  942MOL0     H29971  10.454   3.295   4.685  1.1157  0.6666  0.7923
  942MOL0     H29972  10.356   3.382   4.914 -1.1137  1.3721 -1.3863
  942MOL0     H29973  10.492   3.502   4.904 -1.7956  0.2341  2.5419
  942MOL0     H29974  10.522   3.197   4.904  0.5845 -0.7957 -0.4203
  942MOL0     H29975  10.536   3.310   5.040  0.4380 -2.6619  0.1391
  942MOL0     H29976  10.006   4.197   4.842 -2.2836  1.8473 -3.8697
  942MOL0     H29977   9.864   4.299   5.003 -0.5530  1.0061 -1.7543
  942MOL0     H29978   9.482   4.552   5.015  1.0160 -0.9322  0.1478
  942MOL0     H29979   9.252   4.660   5.079 -0.7493  0.3499  2.1703
  942MOL0     H29980   7.756   4.785   6.007  1.4551 -0.3895  0.0569
  942MOL0     H29981   7.616   4.975   5.937  0.3350  1.9898  1.4443
  942MOL0     H29982   7.755   5.353   5.622  0.5940 -0.5587 -1.2069
  942MOL0     H29983   7.705   5.548   5.501 -2.7032 -1.0203 -5.5211
  942MOL0     H29984   7.306   5.768   5.555 -1.3684 -5.4596  0.3506
  942MOL0     H29985   7.420   5.732   5.693 -1.1115 -0.9203  0.3163
  942MOL0     H29986   7.413   5.974   5.594 -0.5101 -0.1790  1.4202
  942MOL0     H29987   7.487   5.895   5.448 -1.7833 -0.7712 -0.2034
  942MOL0     H29988   7.620   5.909   5.730  1.2201 -0.3187  0.4271
  942MOL0     H29989   7.675   5.810   5.591 -0.7050  0.1197 -0.3610
  942MOL0     H29990   7.635   6.107   5.577  0.0663 -0.9677  0.6856
  942MOL0     H29991   7.713   5.999   5.457  2.0895  0.9928 -0.1901
  942MOL0     H29992   8.010   6.097   5.756  0.4420  0.7058  0.1777
  942MOL0     H29993   7.289   5.510   5.591  1.8043  2.1760  0.0044
  942MOL0     H29994   7.326   5.249   5.821  0.0558 -0.6499 -0.6529
  942MOL0     H29995   7.213   5.338   5.718  0.0006  0.4278 -1.7727
  942MOL0     H29996   7.288   5.189   5.653 -1.2274  2.0638 -4.8738
  943MOL0     O29997   9.218   9.557   5.505  0.2957  0.2618 -0.5458
  943MOL0     C29998   9.218   9.474   5.412  0.8367 -0.0979  0.1034
  943MOL0     O29999   9.209   9.342   5.422 -0.0480  0.2108 -0.3041
  943MOL0     C30000   9.229   9.293   5.550 -0.6405 -0.3453 -0.4626
  943MOL0     C30001   9.125   9.241   5.619  1.3700  1.2991  0.5979
  943MOL0     C30002   9.141   9.175   5.736 -0.2400  0.3748 -0.8914
  943MOL0     C30003   9.267   9.174   5.802  0.0204  0.0876 -0.1403
  943MOL0     O30004   9.286   9.101   5.911  0.4584 -0.0965  0.1753
  943MOL0     C30005   9.415   9.096   5.977  0.5225 -0.3433 -1.0512
  943MOL0     C30006   9.395   9.038   6.120 -0.6088  0.0025  0.5991
  943MOL0     C30007   9.308   9.121   6.213 -0.4509  1.1968  0.7421
  943MOL0     C30008   9.242   9.040   6.330 -0.4212 -0.2608 -0.4219
  943MOL0     C30009   9.128   9.117   6.398 -0.3178  1.0038 -0.2419
  943MOL0     C30010   9.078   9.041   6.518 -0.7443 -0.3151  0.4815
  943MOL0     C30011   8.974   9.127   6.586 -0.7129 -0.6178  0.1854
  943MOL0     C30012   8.933   9.062   6.714 -0.1189  0.0995 -0.4620
  943MOL0     N30013   8.814   9.120   6.779  0.1269  0.4561  0.5164
  943MOL0     C30014   8.821   9.240   6.845 -0.2446 -0.8589 -0.7973
  943MOL0     C30015   8.691   9.258   6.893 -0.7001 -0.2276  0.1304
  943MOL0     C30016   8.643   9.380   6.977  0.5138  0.8801 -0.5176
  943MOL0     C30017   8.703   9.506   6.922  0.9056  0.2226  0.3294
  943MOL0     C30018   8.639   9.627   6.982 -0.0657 -0.2534 -0.1900
  943MOL0     C30019   8.736   9.747   6.965  0.9709  1.0399 -0.5384
  943MOL0     O30020   8.684   9.851   7.049 -0.4277  0.5870 -0.1111
  943MOL0     C30021   8.754   9.976   7.065  0.1678 -0.4333  1.0977
  943MOL0     C30022   8.782  10.032   7.181 -0.1886  0.0000 -1.1919
  943MOL0     C30023   8.851  10.142   7.217 -0.5415 -0.5374  0.1779
  943MOL0     C30024   8.875  10.179   7.361 -0.2606 -0.0893  0.7726
  943MOL0     C30025   8.897  10.228   7.106 -1.4460  0.3955 -0.5423
  943MOL0     C30026   8.960  10.364   7.129 -0.2649  0.2895 -0.5876
  943MOL0     O30027   9.013  10.419   7.015 -0.2487 -0.3108  0.8672
  943MOL0     C30028   9.041  10.557   7.028 -0.2939  0.3618 -0.5952
  943MOL0     C30029   9.169  10.603   7.071 -0.4557 -0.7095  0.7939
  943MOL0     C30030   9.185  10.743   7.090 -0.1524  0.3800 -1.0100
  943MOL0     C30031   9.086  10.837   7.066  0.2487 -0.8545  0.4043
  943MOL0     O30032   9.104  10.968   7.081 -0.4035 -1.0848 -0.0624
  943MOL0     C30033   9.030  11.056   7.000  0.8797 -0.7360  0.2481
  943MOL0     C30034   8.910  11.143   7.064 -0.9791 -0.2453  0.9726
  943MOL0     C30035   8.949  11.245   7.168  0.2898 -1.0118  0.5576
  943MOL0     C30036   8.821  11.291   7.234 -0.0602 -0.6880  0.3876
  943MOL0     C30037   8.857  11.401   7.332  1.0079  0.0032 -0.9928
  943MOL0     C30038   8.937  11.520   7.282  0.5145 -0.0760  0.1619
  943MOL0     C30039   8.915  11.643   7.381 -0.0437  0.9682 -0.0294
  943MOL0     C30040   9.027  11.743   7.372  0.1818  0.5988  0.5348
  943MOL0    Cl30041   9.054  11.810   7.202  0.1623 -0.1677  0.1224
  943MOL0     C30042   8.955  10.786   7.041 -0.6149 -0.6263  0.1164
  943MOL0     C30043   8.936  10.645   7.021  0.3962 -0.7715  0.0899
  943MOL0     O30044   8.964  10.415   7.241  0.9084  0.0573 -0.1130
  943MOL0     C30045   8.875  10.177   6.976  0.4426 -0.3509 -0.2739
  943MOL0     C30046   8.814  10.047   6.960 -0.1027  0.9654  0.1543
  943MOL0     N30047   8.615   9.148   6.860  0.1612  0.2054  0.0340
  943MOL0     N30048   8.693   9.074   6.786  0.2850  0.9077 -0.1451
  943MOL0     C30049   9.372   9.236   5.732  0.1725 -0.2430  0.0572
  943MOL0     C30050   9.346   9.302   5.607 -0.6492  1.2195  0.7016
  943MOL0     C30051   9.208   9.533   5.280 -0.0762 -0.3210  0.4902
  943MOL0     C30052   9.084   9.543   5.210  0.1030  0.8907  0.2723
  943MOL0     C30053   9.079   9.608   5.078 -0.2381  0.1788  0.1295
  943MOL0     C30054   9.189   9.667   5.021  0.8008 -0.6224  0.0325
  943MOL0     O30055   9.165   9.733   4.902  0.7563  0.2878  0.1620
  943MOL0     C30056   9.176   9.873   4.924  0.1572 -0.0330 -0.8641
  943MOL0     C30057   9.170   9.955   4.801 -0.1041  0.6821 -0.3967
  943MOL0     C30058   9.054   9.930   4.709 -0.6545  0.6393 -0.6848
  943MOL0     C30059   9.035  10.020   4.589 -0.0224 -0.3769  0.1839
  943MOL0     C30060   9.118   9.979   4.474 -0.5564  0.4216  0.1605
  943MOL0     C30061   9.181   9.925   4.387 -0.8937  0.4313  0.2551
  943MOL0     C30062   9.310   9.662   5.089  0.2829 -0.3276  0.0754
  943MOL0     C30063   9.319   9.594   5.210 -0.2999  0.0160  1.1244
  943MOL0     C30064   9.449   9.585   5.288  0.1899  0.5389 -0.1361
  943MOL0     H30065   9.028   9.236   5.570  0.1054 -2.8593  3.0349
  943MOL0     H30066   9.047   9.131   5.768  0.7772  0.4813  2.7603
  943MOL0     H30067   9.460   9.195   5.986  2.3225 -1.1677 -0.4996
  943MOL0     H30068   9.491   9.035   5.927  1.8344  2.2632 -2.4102
  943MOL0     H30069   9.352   8.938   6.128  0.1084 -0.4735 -1.0127
  943MOL0     H30070   9.495   9.035   6.164 -0.3175  1.4428  0.1113
  943MOL0     H30071   9.365   9.210   6.242 -1.7530  1.4756  2.6077
  943MOL0     H30072   9.222   9.168   6.164  0.3459  3.4506  1.3874
  943MOL0     H30073   9.191   8.950   6.296 -1.8855  0.9689 -1.6360
  943MOL0     H30074   9.322   9.006   6.397 -1.1127  1.4959  1.3952
  943MOL0     H30075   9.045   9.130   6.329  1.9036 -0.7814 -3.4900
  943MOL0     H30076   9.170   9.212   6.434 -0.7215  0.4066  1.9917
  943MOL0     H30077   9.040   8.939   6.510  2.1450 -2.1128  5.2738
  943MOL0     H30078   9.159   9.022   6.589  2.9574 -1.9076 -3.7115
  943MOL0     H30079   8.885   9.135   6.523 -2.2475 -0.5860  2.2694
  943MOL0     H30080   9.008   9.231   6.589 -0.3982 -0.7384  1.9204
  943MOL0     H30081   8.913   8.956   6.694 -1.6732  0.5391 -1.4071
  943MOL0     H30082   9.018   9.069   6.783 -1.5651 -2.4629  1.8076
  943MOL0     H30083   8.903   9.309   6.863 -0.2780 -1.2800  1.2382
  943MOL0     H30084   8.687   9.363   7.076  0.2375  2.1174 -0.1718
  943MOL0     H30085   8.535   9.392   6.988  0.2764 -1.0454 -0.3142
  943MOL0     H30086   8.811   9.505   6.941  0.9207  4.0223  1.1965
  943MOL0     H30087   8.686   9.513   6.814  4.6778 -1.3388 -0.5191
  943MOL0     H30088   8.538   9.647   6.946 -1.5523 -3.5639  1.6883
  943MOL0     H30089   8.629   9.610   7.090  1.0535  0.8686  0.1051
  943MOL0     H30090   8.836   9.718   6.998  0.7092  1.7095  0.9420
  943MOL0     H30091   8.736   9.785   6.862 -0.1577  0.4193 -0.7839
  943MOL0     H30092   8.744   9.969   7.261 -0.6101 -2.5225 -3.2415
  943MOL0     H30093   8.832  10.099   7.422 -0.1791 -1.1019 -0.4740
  943MOL0     H30094   8.822  10.271   7.389 -0.9223  1.0187 -3.3891
  943MOL0     H30095   8.983  10.192   7.372  0.2974 -3.5252  0.3853
  943MOL0     H30096   9.250  10.531   7.079  0.0472 -0.3239 -0.4980
  943MOL0     H30097   9.283  10.773   7.126 -0.4081 -0.6581  0.6666
  943MOL0     H30098   9.098  11.133   6.962 -3.2272  3.3130  0.0825
  943MOL0     H30099   8.997  11.004   6.909  2.6349  1.5243 -1.8265
  943MOL0     H30100   8.850  11.183   6.982  2.1223 -1.5476 -2.2117
  943MOL0     H30101   8.832  11.071   7.093 -0.8548 -0.8171 -0.0304
  943MOL0     H30102   9.005  11.327   7.123 -1.1952 -0.4926 -0.4079
  943MOL0     H30103   9.019  11.198   7.238  0.1970 -1.1398  0.5640
  943MOL0     H30104   8.785  11.199   7.280  1.3319 -0.7899  1.3287
  943MOL0     H30105   8.759  11.328   7.152  4.2888  4.5065 -1.2053
  943MOL0     H30106   8.762  11.435   7.375  2.0419  1.4998  0.2212
  943MOL0     H30107   8.922  11.360   7.409 -0.2694 -0.2680 -0.0274
  943MOL0     H30108   8.885  11.548   7.191  4.2698  0.4535 -2.0323
  943MOL0     H30109   9.041  11.487   7.270  1.3721  2.7142 -0.6818
  943MOL0     H30110   8.906  11.613   7.486 -1.1500  0.7199 -0.1868
  943MOL0     H30111   8.820  11.688   7.350 -0.4377  1.5144  1.8376
  943MOL0     H30112   9.116  11.691   7.409 -1.1933  0.5294  4.0767
  943MOL0     H30113   9.002  11.834   7.427  2.0065  1.7838 -0.5011
  943MOL0     H30114   8.872  10.856   7.038 -0.7462 -0.8043 -0.7644
  943MOL0     H30115   8.837  10.602   7.014  1.0190 -2.4883  1.1945
  943MOL0     H30116   8.909  10.239   6.893  3.7347 -0.3920  0.8941
  943MOL0     H30117   8.807  10.015   6.856 -0.5497 -0.2137  0.5354
  943MOL0     H30118   9.476   9.228   5.763  1.1869 -0.3103 -3.0072
  943MOL0     H30119   9.435   9.324   5.548 -1.9125  2.1154 -0.9413
  943MOL0     H30120   8.988   9.509   5.247  0.0253  0.5725 -0.2299
  943MOL0     H30121   8.979   9.607   5.035 -0.5257  0.1319  0.7856
  943MOL0     H30122   9.104   9.911   4.997  2.7173 -0.3147  2.0470
  943MOL0     H30123   9.269   9.900   4.974  0.3372 -2.6574  0.4065
  943MOL0     H30124   9.266   9.921   4.763  0.7833  5.0361 -2.7888
  943MOL0     H30125   9.179  10.063   4.820 -0.2269  0.8906 -1.4877
  943MOL0     H30126   9.070   9.828   4.673 -2.7483 -1.4705  3.6246
  943MOL0     H30127   8.958   9.941   4.761 -0.9071 -0.8279 -0.7982
  943MOL0     H30128   9.064  10.120   4.623  2.7182 -0.9101 -0.3559
  943MOL0     H30129   8.930  10.026   4.561 -0.2630  1.9038  1.3785
  943MOL0     H30130   9.219   9.883   4.296  3.0370 -1.5536  2.4915
  943MOL0     H30131   9.393   9.720   5.051 -1.1085  1.3638 -0.5149
  943MOL0     H30132   9.425   9.636   5.382  0.0354  1.4164 -0.6456
  943MOL0     H30133   9.478   9.485   5.322 -1.2316  1.1331  3.2232
  943MOL0     H30134   9.534   9.614   5.226 -1.8766 -1.9320 -4.5798
  944MOL0     O30135   2.093   3.210   2.638 -0.2914 -0.0277 -0.5424
  944MOL0     C30136   2.077   3.206   2.515  1.3079  0.1393  0.0861
  944MOL0     O30137   2.176   3.216   2.422 -0.1367 -0.2641 -0.2284
  944MOL0     C30138   2.301   3.212   2.481  1.3028  1.3277  0.1419
  944MOL0     C30139   2.362   3.088   2.457  1.0325 -0.3385  0.3854
  944MOL0     C30140   2.490   3.071   2.513 -0.1975  1.4553  0.6739
  944MOL0     C30141   2.557   3.165   2.580  0.2512 -1.0914 -0.8409
  944MOL0     O30142   2.680   3.135   2.648  0.1894 -0.3167 -0.1117
  944MOL0     C30143   2.775   3.226   2.612 -0.3311 -0.3638  1.2603
  944MOL0     C30144   2.909   3.186   2.666 -0.0101  0.7188 -0.0766
  944MOL0     C30145   2.985   3.309   2.709  0.0191 -0.5788  0.1969
  944MOL0     C30146   3.099   3.280   2.815  0.4664 -1.2940  0.2072
  944MOL0     C30147   3.143   3.403   2.894 -0.3696 -0.1589  0.4121
  944MOL0     C30148   3.258   3.385   2.988 -0.3330  0.4503 -0.1200
  944MOL0     C30149   3.312   3.522   3.042  0.2437 -0.4981  0.3685
  944MOL0     C30150   3.456   3.539   3.103 -0.2238  0.9153  0.7243
  944MOL0     N30151   3.491   3.470   3.228  0.1312 -0.0904 -0.6928
  944MOL0     C30152   3.416   3.482   3.344  0.1097 -0.3514 -0.6372
  944MOL0     C30153   3.495   3.430   3.441 -0.0515  0.2881  0.5256
  944MOL0     C30154   3.439   3.403   3.576  0.0840 -0.6531 -0.2779
  944MOL0     C30155   3.440   3.525   3.673 -1.0766 -0.1129 -0.0829
  944MOL0     C30156   3.578   3.582   3.704 -0.1260 -0.9245 -0.9460
  944MOL0     C30157   3.545   3.713   3.788  0.0993  0.4664  0.1485
  944MOL0     O30158   3.655   3.779   3.847  0.0618 -0.6514 -0.5966
  944MOL0     C30159   3.632   3.878   3.948 -0.5632  1.1398 -0.3319
  944MOL0     C30160   3.499   3.902   3.993  0.1095 -0.6125 -0.8015
  944MOL0     C30161   3.467   4.000   4.094 -0.2266  0.5173 -0.2293
  944MOL0     C30162   3.315   4.023   4.123  0.3810 -0.9479  0.3038
  944MOL0     C30163   3.581   4.064   4.161  0.5687  0.0223  0.4364
  944MOL0     C30164   3.571   4.161   4.269 -0.1425 -0.1817  0.2551
  944MOL0     O30165   3.691   4.194   4.333  0.5598  0.3450  0.5774
  944MOL0     C30166   3.674   4.255   4.444  1.0379  0.4674 -0.5627
  944MOL0     C30167   3.662   4.187   4.556 -0.0752 -0.5461 -0.9743
  944MOL0     C30168   3.634   4.259   4.685 -0.5312  0.1237  0.1005
  944MOL0     C30169   3.601   4.396   4.688  0.0703  0.5385 -0.0888
  944MOL0     O30170   3.579   4.451   4.814 -0.4088 -0.0460 -0.0320
  944MOL0     C30171   3.476   4.400   4.899  1.1682 -0.0668 -0.1547
  944MOL0     C30172   3.348   4.427   4.831  0.4323 -0.5758 -0.5817
  944MOL0     C30173   3.338   4.583   4.813 -0.1825  0.0899 -0.1199
  944MOL0     C30174   3.193   4.630   4.773 -0.5784  1.5725 -0.3121
  944MOL0     C30175   3.133   4.574   4.646 -0.1281  0.5490  0.1710
  944MOL0     C30176   2.989   4.580   4.603  0.2369  0.3197 -1.2607
  944MOL0     C30177   2.911   4.488   4.712  0.9498 -0.1487  0.1707
  944MOL0     C30178   2.893   4.354   4.650 -0.5721  0.5319 -1.4631
  944MOL0    Cl30179   2.855   4.243   4.773 -0.0125  0.0171  0.1944
  944MOL0     C30180   3.616   4.466   4.569 -0.2230 -0.4380  0.4235
  944MOL0     C30181   3.660   4.393   4.445 -0.4401 -1.4223  0.7396
  944MOL0     O30182   3.465   4.211   4.311  0.3900  1.0718 -0.3747
  944MOL0     C30183   3.715   4.032   4.116  0.6584 -0.3576  0.2085
  944MOL0     C30184   3.738   3.939   4.015 -0.5221 -0.3484  0.5732
  944MOL0     N30185   3.607   3.367   3.383 -0.4656  0.2303  0.0307
  944MOL0     N30186   3.607   3.400   3.260  0.5538 -0.2734 -0.2941
  944MOL0     C30187   2.487   3.275   2.624 -0.1068  0.4486  0.3846
  944MOL0     C30188   2.364   3.300   2.564  0.9281  0.2956  0.2161
  944MOL0     C30189   1.943   3.152   2.486 -1.0569 -0.0039 -0.4861
  944MOL0     C30190   1.851   3.245   2.431 -0.1039 -0.2454  0.5726
  944MOL0     C30191   1.712   3.197   2.407  0.5617  0.5209  0.8516
  944MOL0     C30192   1.676   3.069   2.442 -0.4120  0.0066  0.0652
  944MOL0     O30193   1.548   3.027   2.408  0.1618 -0.2678  0.4469
  944MOL0     C30194   1.489   2.931   2.502 -0.3173 -0.4912 -0.1015
  944MOL0     C30195   1.333   2.917   2.468 -0.8299 -0.0806 -0.8413
  944MOL0     C30196   1.270   2.838   2.588 -0.2836 -0.2781 -0.0753
  944MOL0     C30197   1.281   2.686   2.570 -0.1183 -0.7636 -0.0923
  944MOL0     C30198   1.181   2.636   2.652  0.0501  0.2001 -0.7592
  944MOL0     C30199   1.079   2.601   2.712  0.5410  0.8346  0.3456
  944MOL0     C30200   1.773   2.991   2.513 -0.2849  0.4826  0.0042
  944MOL0     C30201   1.904   3.021   2.522  0.5735  0.0996 -0.2342
  944MOL0     C30202   1.991   2.922   2.585 -0.4892 -0.3413 -0.0076
  944MOL0     H30203   2.308   3.015   2.397  2.7086 -2.5392  1.4178
  944MOL0     H30204   2.548   2.982   2.491  1.0644  2.5071 -0.4367
  944MOL0     H30205   2.749   3.325   2.651 -0.8377 -0.0376  0.1206
  944MOL0     H30206   2.775   3.233   2.503 -0.1541  0.8650  1.3211
  944MOL0     H30207   2.895   3.127   2.757  3.5520 -1.3024 -0.6560
  944MOL0     H30208   2.967   3.129   2.592  0.2109  3.2477 -1.9752
  944MOL0     H30209   3.032   3.367   2.629 -0.8074 -0.4638 -0.2089
  944MOL0     H30210   2.924   3.381   2.764  2.4551  0.4336  1.7383
  944MOL0     H30211   3.062   3.206   2.887 -0.4498 -1.9221 -0.8648
  944MOL0     H30212   3.180   3.226   2.764 -0.7466 -0.5187 -2.7193
  944MOL0     H30213   3.054   3.442   2.944 -0.5643 -0.4092  0.2677
  944MOL0     H30214   3.165   3.476   2.815 -0.0281 -0.3382  0.3396
  944MOL0     H30215   3.226   3.340   3.083  3.0421  0.0920  1.0085
  944MOL0     H30216   3.338   3.321   2.947 -0.9735 -1.3710  1.2911
  944MOL0     H30217   3.249   3.542   3.129 -0.8097 -0.5821 -0.3580
  944MOL0     H30218   3.302   3.601   2.967  0.3636 -0.8059  0.0185
  944MOL0     H30219   3.521   3.501   3.024 -0.3028 -2.4863  2.1138
  944MOL0     H30220   3.475   3.645   3.127  1.5791  0.6052  0.8564
  944MOL0     H30221   3.312   3.510   3.353 -0.1863 -1.3827 -0.8353
  944MOL0     H30222   3.507   3.333   3.625  0.6766  1.1028  1.5650
  944MOL0     H30223   3.334   3.371   3.572 -0.6040  1.1125  1.4355
  944MOL0     H30224   3.393   3.613   3.629  2.6892  2.9347  1.4179
  944MOL0     H30225   3.388   3.495   3.765 -1.0184 -0.2466 -0.0928
  944MOL0     H30226   3.641   3.511   3.760  0.1333  1.1780  1.6318
  944MOL0     H30227   3.635   3.608   3.615 -1.2060  1.3585 -1.0341
  944MOL0     H30228   3.491   3.785   3.727 -0.9367  0.7888  1.3911
  944MOL0     H30229   3.479   3.678   3.867  1.8427 -0.5218  1.2533
  944MOL0     H30230   3.417   3.837   3.965 -0.5140 -0.0816 -0.2229
  944MOL0     H30231   3.263   4.091   4.055  0.7048 -2.4455 -1.5210
  944MOL0     H30232   3.290   4.059   4.223  2.0811  3.2201 -0.5406
  944MOL0     H30233   3.257   3.931   4.118  0.3737 -1.0685  2.0155
  944MOL0     H30234   3.676   4.080   4.558  1.4061 -0.3689  0.2088
  944MOL0     H30235   3.627   4.208   4.780 -1.4397 -1.8025 -0.9548
  944MOL0     H30236   3.494   4.295   4.924  1.0349 -0.0529 -0.0038
  944MOL0     H30237   3.483   4.451   4.995 -2.6775  0.1498  0.1484
  944MOL0     H30238   3.334   4.371   4.737 -2.1190  0.6463 -1.0151
  944MOL0     H30239   3.267   4.398   4.899 -0.2677 -0.2527 -1.2595
  944MOL0     H30240   3.400   4.620   4.731  2.1646 -0.4943  1.2740
  944MOL0     H30241   3.359   4.638   4.905  3.0505  1.7334 -1.6709
  944MOL0     H30242   3.193   4.739   4.778  1.5058  1.5746  2.0319
  944MOL0     H30243   3.124   4.590   4.848  1.7763  1.2614  1.8269
  944MOL0     H30244   3.185   4.621   4.561 -1.7574 -0.6604 -1.5571
  944MOL0     H30245   3.175   4.474   4.632  3.0917  1.4041  2.4200
  944MOL0     H30246   2.976   4.552   4.498  0.9781  0.4019 -1.3838
  944MOL0     H30247   2.956   4.684   4.613  1.7144  0.5941  3.1419
  944MOL0     H30248   2.814   4.528   4.742  1.9032  1.0099  1.8915
  944MOL0     H30249   2.968   4.479   4.805  0.7084  1.1126  0.4515
  944MOL0     H30250   2.968   4.325   4.577  0.2627 -0.5627 -0.2173
  944MOL0     H30251   2.799   4.343   4.596 -2.2144 -3.5986  1.7122
  944MOL0     H30252   3.598   4.573   4.574  0.7077  0.0879 -3.7147
  944MOL0     H30253   3.687   4.455   4.360  1.5363 -1.5681  1.1915
  944MOL0     H30254   3.801   4.080   4.163  1.7624  0.0143 -2.0406
  944MOL0     H30255   3.831   3.888   3.995 -1.2568 -0.9732 -1.5302
  944MOL0     H30256   2.530   3.337   2.701  0.0123 -0.7365  1.3012
  944MOL0     H30257   2.294   3.381   2.583 -1.6377 -0.9254 -3.0917
  944MOL0     H30258   1.882   3.348   2.420  1.0020 -0.1066  3.7117
  944MOL0     H30259   1.636   3.254   2.356 -1.1718  1.3956  4.1659
  944MOL0     H30260   1.537   2.833   2.504 -2.8169 -1.7822  0.4224
  944MOL0     H30261   1.508   2.982   2.597  1.1315  2.5258 -1.8589
  944MOL0     H30262   1.303   2.865   2.376  0.9974 -0.5602 -1.2140
  944MOL0     H30263   1.285   3.015   2.471 -2.8098 -1.0016  0.9646
  944MOL0     H30264   1.324   2.863   2.679  2.5372  2.0439 -2.1811
  944MOL0     H30265   1.164   2.863   2.599 -0.8836 -2.7973  0.5446
  944MOL0     H30266   1.384   2.656   2.593  0.0536 -1.0965 -1.2584
  944MOL0     H30267   1.262   2.663   2.465  0.3708  1.0595 -0.6093
  944MOL0     H30268   0.985   2.595   2.761 -2.2690  3.2220 -4.0847
  944MOL0     H30269   1.740   2.895   2.552 -2.2884  1.1043 -0.0669
  944MOL0     H30270   1.953   2.904   2.686  0.9575  1.5836  0.9413
  944MOL0     H30271   1.985   2.827   2.531  0.2839 -1.1064  1.1975
  944MOL0     H30272   2.097   2.948   2.572 -0.2931 -1.0033  0.1931
  945MOL0     O30273   7.164  10.566   4.530  0.0513 -0.0245 -0.3185
  945MOL0     C30274   7.203  10.657   4.611  0.3376  0.1034 -0.7081
  945MOL0     O30275   7.319  10.718   4.610  0.5571  0.2687 -0.1566
  945MOL0     C30276   7.413  10.689   4.513 -0.6099 -0.3358 -0.2274
  945MOL0     C30277   7.551  10.654   4.554  0.8197 -0.2901 -0.2427
  945MOL0     C30278   7.643  10.640   4.460  0.2466 -0.4623  0.5998
  945MOL0     C30279   7.622  10.653   4.326 -0.7831 -0.3293  0.1358
  945MOL0     O30280   7.726  10.637   4.237 -0.5732  0.1137  0.2341
  945MOL0     C30281   7.706  10.548   4.134  0.2120 -0.1979 -0.7913
  945MOL0     C30282   7.699  10.392   4.166  0.9724 -1.3387 -0.2487
  945MOL0     C30283   7.669  10.309   4.043  0.3696  1.0318  0.7384
  945MOL0     C30284   7.520  10.285   4.034 -0.4910 -0.9237 -0.2987
  945MOL0     C30285   7.484  10.190   3.920  0.1713 -0.2679 -0.1842
  945MOL0     C30286   7.435  10.263   3.794 -0.7487 -0.1461  0.2160
  945MOL0     C30287   7.402  10.160   3.694 -0.6655  0.2807  0.5528
  945MOL0     C30288   7.330  10.216   3.571 -0.3283 -0.1866  0.3430
  945MOL0     N30289   7.353  10.138   3.453  0.0608  0.1316 -0.0149
  945MOL0     C30290   7.302  10.009   3.427 -0.4793 -0.6821 -0.0244
  945MOL0     C30291   7.359   9.972   3.313  0.4546  0.4458 -0.6792
  945MOL0     C30292   7.328   9.837   3.254  0.2383  0.0215 -0.3688
  945MOL0     C30293   7.202   9.837   3.162 -0.0150 -0.6400 -0.5041
  945MOL0     C30294   7.228   9.859   3.011  0.5228  0.0250  0.4303
  945MOL0     C30295   7.300   9.992   2.988  0.6188 -0.7918  0.5879
  945MOL0     O30296   7.299  10.030   2.854  0.1601 -1.3899  0.7186
  945MOL0     C30297   7.375  10.139   2.827  0.0608  0.1640  0.4615
  945MOL0     C30298   7.458  10.208   2.919 -0.0727  0.3406  0.4058
  945MOL0     C30299   7.548  10.295   2.871 -0.5813 -1.1232 -0.7297
  945MOL0     C30300   7.634  10.358   2.973  0.1655 -0.2292  0.2624
  945MOL0     C30301   7.553  10.336   2.739  0.3359 -0.9849  0.4621
  945MOL0     C30302   7.656  10.428   2.670 -0.5041 -0.2785 -0.4115
  945MOL0     O30303   7.670  10.423   2.534  1.0368 -0.0059 -0.2442
  945MOL0     C30304   7.772  10.487   2.469 -1.1950 -0.3330  0.2926
  945MOL0     C30305   7.913  10.462   2.487  0.6511  0.8045 -1.1573
  945MOL0     C30306   7.998  10.518   2.400  0.1484  1.0522 -0.0571
  945MOL0     C30307   7.964  10.605   2.296 -0.1819 -0.0344  0.2111
  945MOL0     O30308   8.054  10.668   2.208 -0.4335  0.0558  0.5349
  945MOL0     C30309   8.163  10.588   2.161  0.8581  0.0499 -0.1319
  945MOL0     C30310   8.108  10.475   2.072 -0.0473 -0.0173  0.3011
  945MOL0     C30311   8.002  10.523   1.976  0.4898  0.0026  0.4040
  945MOL0     C30312   8.042  10.632   1.883 -0.3336 -0.2141  0.3417
  945MOL0     C30313   7.917  10.673   1.797 -1.2706 -1.0944 -0.0035
  945MOL0     C30314   7.961  10.740   1.669 -0.6214  0.5525 -0.1273
  945MOL0     C30315   7.825  10.740   1.599 -0.1288  0.1596 -0.1772
  945MOL0     C30316   7.831  10.827   1.477  0.5386  1.1355 -0.8264
  945MOL0    Cl30317   7.879  11.004   1.528  0.2312  0.3260  0.2194
  945MOL0     C30318   7.827  10.628   2.282  0.4468 -0.3187  0.1147
  945MOL0     C30319   7.735  10.574   2.366  0.4334 -0.1476  0.0018
  945MOL0     O30320   7.731  10.489   2.746  0.0040  0.2460 -0.2288
  945MOL0     C30321   7.460  10.280   2.648 -0.5980  0.1543  0.3510
  945MOL0     C30322   7.363  10.185   2.688 -0.2904  0.2757 -0.4782
  945MOL0     N30323   7.447  10.066   3.268  0.1095 -0.2842  0.0670
  945MOL0     N30324   7.452  10.159   3.358 -0.5636 -0.4823 -0.0930
  945MOL0     C30325   7.496  10.678   4.282  0.3415 -0.0407 -0.3815
  945MOL0     C30326   7.397  10.705   4.377  0.6868 -0.6772  0.0116
  945MOL0     C30327   7.103  10.702   4.711 -0.4646  0.1112 -0.3642
  945MOL0     C30328   7.149  10.783   4.820  0.1283  1.4764 -0.7181
  945MOL0     C30329   7.077  10.815   4.933 -0.0536 -0.3501  0.2726
  945MOL0     C30330   6.944  10.769   4.937  0.1006 -0.4843  0.3889
  945MOL0     O30331   6.864  10.778   5.040  0.2824  0.0788 -0.2167
  945MOL0     C30332   6.916  10.801   5.171  0.0842 -0.4709  0.6616
  945MOL0     C30333   6.791  10.805   5.260  0.3050  0.2162  0.5311
  945MOL0     C30334   6.807  10.858   5.405 -0.5832 -0.1575  0.8027
  945MOL0     C30335   6.795  10.751   5.512 -0.9882 -0.1033  0.4156
  945MOL0     C30336   6.925  10.688   5.538 -1.3281  0.5994 -0.2140
  945MOL0     C30337   7.032  10.637   5.565 -0.3409  0.3799 -0.6456
  945MOL0     C30338   6.882  10.715   4.818  0.3092  0.4863 -0.4565
  945MOL0     C30339   6.960  10.679   4.710  0.3469  0.5148  0.6280
  945MOL0     C30340   6.883  10.619   4.593 -0.5368 -0.1581  0.9035
  945MOL0     H30341   7.575  10.655   4.659 -1.2431  0.2835  0.2723
  945MOL0     H30342   7.744  10.619   4.495  0.0930 -0.5346  1.0088
  945MOL0     H30343   7.792  10.566   4.068  1.8972  3.2863  2.0357
  945MOL0     H30344   7.619  10.587   4.080 -0.1008 -1.2249 -1.0435
  945MOL0     H30345   7.800  10.383   4.206 -0.0873 -4.9638  2.0548
  945MOL0     H30346   7.619  10.367   4.236  0.7489  0.2911  0.1093
  945MOL0     H30347   7.709  10.369   3.961 -0.5288  2.1162  1.0567
  945MOL0     H30348   7.724  10.215   4.045 -0.9674  0.0648 -2.2931
  945MOL0     H30349   7.482  10.220   4.114 -3.0938 -0.6981 -1.2394
  945MOL0     H30350   7.464  10.379   4.034 -3.0514 -2.3378  0.0224
  945MOL0     H30351   7.400  10.128   3.952 -1.1793  1.7092  0.3058
  945MOL0     H30352   7.561  10.118   3.895  1.1118  1.0535 -1.2441
  945MOL0     H30353   7.346  10.321   3.821  0.1049  0.1995  2.4738
  945MOL0     H30354   7.514  10.328   3.755  2.0924 -1.1562  3.7433
  945MOL0     H30355   7.347  10.073   3.730 -1.1204  0.6071  0.6586
  945MOL0     H30356   7.496  10.125   3.650 -2.4056 -1.1760 -2.3510
  945MOL0     H30357   7.222  10.218   3.592 -0.6280  1.3889 -1.1333
  945MOL0     H30358   7.362  10.319   3.556 -1.7642  0.5526  1.9621
  945MOL0     H30359   7.233   9.957   3.494  2.9355 -0.1657  4.3224
  945MOL0     H30360   7.314   9.770   3.339 -0.3624 -0.1670 -0.6108
  945MOL0     H30361   7.410   9.794   3.197  0.1612 -2.6392  1.3759
  945MOL0     H30362   7.146   9.744   3.177  0.6414 -1.0706 -0.6513
  945MOL0     H30363   7.126   9.908   3.194  2.5655  1.1051  2.1993
  945MOL0     H30364   7.286   9.778   2.967 -0.7768 -1.1076  0.7312
  945MOL0     H30365   7.130   9.845   2.964  0.6805 -0.9543  0.3833
  945MOL0     H30366   7.247  10.069   3.044  0.1479 -0.0948 -0.7705
  945MOL0     H30367   7.399   9.991   3.035  0.4440  2.3951  1.2230
  945MOL0     H30368   7.462  10.179   3.023  1.3948  0.5563  0.4366
  945MOL0     H30369   7.734  10.316   2.971  1.2027  2.1008 -0.2486
  945MOL0     H30370   7.587  10.347   3.071 -2.6549 -0.1882 -0.9711
  945MOL0     H30371   7.633  10.467   2.962 -0.3034 -0.1668  0.8502
  945MOL0     H30372   7.956  10.394   2.560  1.9013  2.8451  0.0731
  945MOL0     H30373   8.104  10.496   2.409  0.0742 -0.0341 -1.4437
  945MOL0     H30374   8.223  10.648   2.092  0.8676  2.8214  2.0729
  945MOL0     H30375   8.221  10.542   2.242  0.5777 -2.5335 -1.2980
  945MOL0     H30376   8.182  10.428   2.006  1.1376  0.6671  1.1156
  945MOL0     H30377   8.066  10.391   2.127  1.7578 -2.6902 -2.1047
  945MOL0     H30378   7.910  10.535   2.034  0.8857 -0.2269  1.0987
  945MOL0     H30379   7.980  10.442   1.905  0.2468  0.5242 -0.1213
  945MOL0     H30380   8.123  10.588   1.823  0.9481 -1.9512  3.1494
  945MOL0     H30381   8.072  10.719   1.942 -1.8992 -0.4562  1.5591
  945MOL0     H30382   7.853  10.586   1.782 -2.6809  0.0200 -0.6137
  945MOL0     H30383   7.861  10.744   1.858  0.9070 -0.2839  1.1571
  945MOL0     H30384   8.029  10.685   1.603  0.6564  1.3092  0.5134
  945MOL0     H30385   8.001  10.840   1.687  0.5956  0.5721 -2.4766
  945MOL0     H30386   7.749  10.788   1.661 -0.5577 -2.7836  1.7402
  945MOL0     H30387   7.794  10.642   1.563 -1.0529  0.0958  0.7603
  945MOL0     H30388   7.728  10.827   1.441 -0.2965  1.2188  1.3591
  945MOL0     H30389   7.898  10.791   1.399 -0.6492  2.1821 -2.3806
  945MOL0     H30390   7.794  10.684   2.196  1.6084 -2.5498 -1.9167
  945MOL0     H30391   7.631  10.586   2.339  0.4415  0.8270  0.3510
  945MOL0     H30392   7.460  10.311   2.544 -1.4086  0.3429  0.4012
  945MOL0     H30393   7.320  10.122   2.611 -1.8459 -1.0051  1.3253
  945MOL0     H30394   7.466  10.676   4.178 -4.6405 -2.5883  0.8255
  945MOL0     H30395   7.296  10.731   4.347  0.2041 -0.7494  1.4785
  945MOL0     H30396   7.256  10.800   4.830  0.8327 -2.6765  0.9290
  945MOL0     H30397   7.130  10.882   5.000  0.2945 -2.6064  2.4055
  945MOL0     H30398   6.995  10.737   5.211 -0.8283 -1.3199  1.1505
  945MOL0     H30399   6.958  10.902   5.169  0.2030 -0.4951 -1.7612
  945MOL0     H30400   6.740  10.708   5.258 -1.1235  0.9386  0.0574
  945MOL0     H30401   6.725  10.875   5.207  0.4938 -0.7779 -1.0833
  945MOL0     H30402   6.900  10.913   5.415 -0.2700 -0.3360 -0.9319
  945MOL0     H30403   6.734  10.937   5.427  0.8703  1.4566 -0.0263
  945MOL0     H30404   6.722  10.671   5.493  0.4303 -1.5398  0.7765
  945MOL0     H30405   6.771  10.795   5.609  0.8453  0.5135  0.6235
  945MOL0     H30406   7.125  10.606   5.609 -0.1083  2.5746  0.5758
  945MOL0     H30407   6.778  10.688   4.829 -0.0020  1.3366 -1.2444
  945MOL0     H30408   6.925  10.671   4.507 -0.6586  2.4862  2.3481
  945MOL0     H30409   6.899  10.511   4.591 -3.8049 -0.7839  2.3015
  945MOL0     H30410   6.777  10.643   4.582 -0.1656  1.0197 -0.4139
  946MOL0     O30411   5.807   3.040   7.655 -0.4314 -0.1910  1.2982
  946MOL0     C30412   5.804   2.947   7.569  1.0277  0.5582  0.2124
  946MOL0     O30413   5.761   2.961   7.439  0.3583  0.4545  0.0296
  946MOL0     C30414   5.719   3.077   7.378  0.3040 -0.7918  1.0190
  946MOL0     C30415   5.730   3.089   7.236  0.1474  0.4194  0.3466
  946MOL0     C30416   5.671   3.198   7.167  0.2139  0.0239  0.8307
  946MOL0     C30417   5.588   3.288   7.241  0.5609 -0.2510 -0.8714
  946MOL0     O30418   5.510   3.387   7.196 -0.4603  0.2956  1.1806
  946MOL0     C30419   5.542   3.453   7.074  0.4327  0.7196  0.3015
  946MOL0     C30420   5.436   3.556   7.039 -0.2495  0.5758  0.6419
  946MOL0     C30421   5.304   3.491   7.005  0.6630  0.1523  0.1100
  946MOL0     C30422   5.195   3.491   7.115 -0.3591  0.2041  0.0529
  946MOL0     C30423   5.107   3.360   7.086  0.3975 -0.5788 -0.4278
  946MOL0     C30424   5.051   3.337   6.943 -0.8239  0.3313  0.4314
  946MOL0     C30425   4.935   3.430   6.904  0.3692  1.2364 -0.1874
  946MOL0     C30426   4.904   3.436   6.755  0.7237  0.0974 -0.2636
  946MOL0     N30427   4.872   3.310   6.691  0.1193 -0.3976  0.7856
  946MOL0     C30428   4.740   3.269   6.678  0.5993 -0.9084  0.4565
  946MOL0     C30429   4.736   3.159   6.615 -0.3692  0.0658 -0.0247
  946MOL0     C30430   4.611   3.078   6.583 -0.6269  0.8930 -0.3586
  946MOL0     C30431   4.614   2.984   6.455 -0.7241 -0.2397  0.2865
  946MOL0     C30432   4.713   2.880   6.419  0.0648  0.3298 -0.2801
  946MOL0     C30433   4.699   2.767   6.523 -0.5035  0.6527  0.5931
  946MOL0     O30434   4.657   2.643   6.456 -0.2304 -0.6659 -0.6953
  946MOL0     C30435   4.667   2.533   6.541  0.3044  0.8599 -0.1878
  946MOL0     C30436   4.713   2.537   6.679  0.1079 -0.4011 -0.4032
  946MOL0     C30437   4.700   2.428   6.767  0.0508  0.4093 -0.3307
  946MOL0     C30438   4.748   2.437   6.918  0.3470 -0.1463  0.5758
  946MOL0     C30439   4.635   2.313   6.722  0.5604 -0.2359 -1.0651
  946MOL0     C30440   4.630   2.180   6.793 -0.3042 -0.6378  0.5812
  946MOL0     O30441   4.522   2.111   6.756  0.2050  0.4041  0.3718
  946MOL0     C30442   4.500   1.987   6.803  0.5732  0.2618 -0.7155
  946MOL0     C30443   4.577   1.875   6.764  0.6632 -0.4300 -0.3462
  946MOL0     C30444   4.533   1.744   6.802  0.7233  0.6215  0.1976
  946MOL0     C30445   4.418   1.729   6.881 -1.4891  1.1164 -0.0178
  946MOL0     O30446   4.394   1.597   6.915 -1.3611  0.3249 -0.3176
  946MOL0     C30447   4.257   1.559   6.957 -0.2295  0.1913 -0.3157
  946MOL0     C30448   4.241   1.409   6.971 -0.3652  0.0446 -0.6030
  946MOL0     C30449   4.272   1.332   6.845 -0.2227 -0.1781 -0.4818
  946MOL0     C30450   4.327   1.196   6.883  1.3605 -0.1040  0.3477
  946MOL0     C30451   4.297   1.084   6.782  0.7885  0.1071 -0.2648
  946MOL0     C30452   4.158   1.016   6.807 -0.4886 -0.7341 -0.3423
  946MOL0     C30453   4.149   0.930   6.682 -0.0839  0.4278  0.5539
  946MOL0     C30454   4.043   0.818   6.686  0.4413 -0.0966 -0.1920
  946MOL0    Cl30455   3.883   0.916   6.671  0.3588  0.8556  0.3674
  946MOL0     C30456   4.344   1.841   6.915 -0.2799  0.3308 -1.1743
  946MOL0     C30457   4.384   1.969   6.887  0.3682  0.2603 -0.1310
  946MOL0     O30458   4.723   2.142   6.867 -0.0096 -0.2586 -0.6729
  946MOL0     C30459   4.584   2.309   6.588 -0.1500  0.3088 -0.0451
  946MOL0     C30460   4.613   2.408   6.485 -0.3036  0.1558 -0.6565
  946MOL0     N30461   4.871   3.125   6.581 -0.1876 -0.1962  0.9599
  946MOL0     N30462   4.951   3.229   6.614 -0.7665 -0.9238  0.8181
  946MOL0     C30463   5.577   3.277   7.386 -0.2197 -0.1346  1.0924
  946MOL0     C30464   5.646   3.173   7.449  0.0013 -0.9595  0.6160
  946MOL0     C30465   5.853   2.816   7.609  0.3295  0.8677  1.4416
  946MOL0     C30466   5.933   2.751   7.510 -0.6371  1.5220 -0.3759
  946MOL0     C30467   6.011   2.649   7.555 -0.7853 -0.7078 -0.3290
  946MOL0     C30468   6.016   2.595   7.682  0.3072  0.1859 -0.3799
  946MOL0     O30469   6.106   2.493   7.720  0.9001  0.5806 -0.0490
  946MOL0     C30470   6.159   2.492   7.850  0.0507  0.4714  0.9729
  946MOL0     C30471   6.238   2.365   7.874  0.6658 -0.0743 -1.1641
  946MOL0     C30472   6.356   2.368   7.782  0.5265 -0.8316 -0.4061
  946MOL0     C30473   6.465   2.272   7.829  0.1291 -0.1715  0.2258
  946MOL0     C30474   6.561   2.255   7.722 -0.5456  0.2796  0.0212
  946MOL0     C30475   6.638   2.220   7.627  0.1822  0.0757 -0.1456
  946MOL0     C30476   5.929   2.658   7.780  0.6778  0.2535 -0.3516
  946MOL0     C30477   5.845   2.769   7.742 -0.5574 -0.6118 -0.5322
  946MOL0     C30478   5.747   2.804   7.849  0.4240 -0.7301 -0.2220
  946MOL0     H30479   5.769   3.011   7.171 -0.8932 -0.0796  0.3093
  946MOL0     H30480   5.689   3.204   7.060  1.5865  1.0151  1.0829
  946MOL0     H30481   5.551   3.380   6.994  0.6434  2.4875 -1.3472
  946MOL0     H30482   5.641   3.499   7.067  2.0879 -2.4984  0.8025
  946MOL0     H30483   5.417   3.633   7.114 -2.0515  0.3231  0.4880
  946MOL0     H30484   5.463   3.603   6.945 -2.9196 -3.9757 -2.8550
  946MOL0     H30485   5.261   3.541   6.918 -2.2949 -2.1002  0.1141
  946MOL0     H30486   5.326   3.388   6.975  1.2669  0.6640 -1.2870
  946MOL0     H30487   5.236   3.470   7.214  0.0904  0.5646 -0.0527
  946MOL0     H30488   5.143   3.587   7.114 -2.1264 -0.5925 -3.9067
  946MOL0     H30489   5.024   3.361   7.157  2.6496  2.9336  2.5731
  946MOL0     H30490   5.169   3.274   7.113 -0.6433 -1.2770 -0.2235
  946MOL0     H30491   5.131   3.337   6.868  0.5894  3.9933  1.6839
  946MOL0     H30492   5.016   3.234   6.945 -1.8165  0.6137 -1.0821
  946MOL0     H30493   4.962   3.530   6.940  2.6688  1.0306 -1.1772
  946MOL0     H30494   4.848   3.392   6.959  0.6150 -0.5184 -0.9677
  946MOL0     H30495   4.824   3.510   6.741 -0.1185 -0.9390 -1.1811
  946MOL0     H30496   4.994   3.482   6.715  0.6446  5.4904  4.5576
  946MOL0     H30497   4.653   3.318   6.721  0.1808 -2.7326  1.7972
  946MOL0     H30498   4.535   3.155   6.571 -1.1453  0.1716 -1.9300
  946MOL0     H30499   4.583   3.018   6.670  1.3541 -3.0523 -2.1681
  946MOL0     H30500   4.519   2.929   6.451 -1.4912  0.9030  1.9058
  946MOL0     H30501   4.616   3.059   6.375  0.4668  0.7768  1.2354
  946MOL0     H30502   4.688   2.840   6.320 -0.4038 -0.1261  0.0131
  946MOL0     H30503   4.809   2.932   6.418 -0.7950  2.0957 -2.9238
  946MOL0     H30504   4.794   2.755   6.575  0.1850 -0.8248 -0.8987
  946MOL0     H30505   4.623   2.796   6.596 -0.1818  4.2621 -0.3510
  946MOL0     H30506   4.759   2.625   6.724 -3.8635  2.7858 -1.9375
  946MOL0     H30507   4.662   2.431   6.985 -0.0973  0.6982  0.0956
  946MOL0     H30508   4.801   2.532   6.930  0.9382 -0.0147 -2.2987
  946MOL0     H30509   4.823   2.363   6.950  0.9050 -0.8578 -2.1594
  946MOL0     H30510   4.660   1.902   6.699 -0.4567  3.4980 -0.4340
  946MOL0     H30511   4.585   1.651   6.781 -1.7274 -0.8515  0.2331
  946MOL0     H30512   4.263   1.599   7.058  3.8293 -1.7023  0.3626
  946MOL0     H30513   4.179   1.611   6.899 -1.2393 -1.1576 -0.2084
  946MOL0     H30514   4.306   1.376   7.052 -0.0195  0.2386 -0.7944
  946MOL0     H30515   4.147   1.386   7.022 -1.2213  0.0048 -2.1352
  946MOL0     H30516   4.329   1.395   6.776 -4.3088  1.9196 -2.2949
  946MOL0     H30517   4.179   1.327   6.788 -0.2761 -0.8275 -0.3486
  946MOL0     H30518   4.298   1.171   6.986 -3.4275 -0.9700 -0.9528
  946MOL0     H30519   4.436   1.200   6.893  2.2131 -4.4281 -3.6987
  946MOL0     H30520   4.306   1.123   6.680  3.9705  0.5419  0.0579
  946MOL0     H30521   4.378   1.010   6.779  0.2841 -0.4712  0.0184
  946MOL0     H30522   4.082   1.094   6.803 -1.4010 -1.6682 -1.7818
  946MOL0     H30523   4.150   0.973   6.908 -0.9138  1.8986  0.8226
  946MOL0     H30524   4.242   0.881   6.654  0.1485  1.8697 -1.3854
  946MOL0     H30525   4.111   1.000   6.607  1.4662 -0.9935 -1.6741
  946MOL0     H30526   4.048   0.757   6.776  0.7932 -1.3830 -1.0616
  946MOL0     H30527   4.058   0.754   6.599 -1.5798 -0.0973 -0.5979
  946MOL0     H30528   4.258   1.822   6.979 -0.8048  1.9548 -1.3624
  946MOL0     H30529   4.317   2.047   6.921 -0.7174 -0.6082 -0.2340
  946MOL0     H30530   4.519   2.226   6.562 -0.1849 -0.6209  2.6716
  946MOL0     H30531   4.575   2.414   6.383  3.1219  1.4639 -2.0112
  946MOL0     H30532   5.515   3.327   7.460  0.4474  1.5994  0.5059
  946MOL0     H30533   5.630   3.156   7.555  1.0699 -3.1456  0.4664
  946MOL0     H30534   5.950   2.789   7.410  3.7974  2.4193  0.4938
  946MOL0     H30535   6.075   2.606   7.479  1.5323  1.3148  0.3526
  946MOL0     H30536   6.217   2.584   7.864 -0.0665  0.5809  0.7331
  946MOL0     H30537   6.080   2.491   7.926 -1.9846 -3.5752 -0.8906
  946MOL0     H30538   6.180   2.273   7.863  2.7664 -1.5435 -0.6277
  946MOL0     H30539   6.269   2.367   7.979  1.4179  0.0734 -1.3824
  946MOL0     H30540   6.309   2.349   7.685 -2.4894  4.9634 -0.4973
  946MOL0     H30541   6.405   2.466   7.776  3.2049 -2.1302 -1.5972
  946MOL0     H30542   6.416   2.178   7.855 -1.7380  0.6651 -0.0844
  946MOL0     H30543   6.520   2.303   7.918  0.1495 -2.5598  1.1166
  946MOL0     H30544   6.714   2.195   7.556  0.8906 -0.8046  0.8873
  946MOL0     H30545   5.923   2.619   7.881 -0.6619 -1.2756 -0.9805
  946MOL0     H30546   5.784   2.771   7.946 -2.0620  1.1660  1.5032
  946MOL0     H30547   5.724   2.911   7.860 -0.4624 -1.0412  1.1351
  946MOL0     H30548   5.652   2.751   7.839  1.0718 -2.2163  1.0764
  947MOL0     O30549   7.194   3.839  10.135  0.0481 -0.1838  0.3778
  947MOL0     C30550   7.183   3.956  10.091 -0.1237 -0.1558 -0.8249
  947MOL0     O30551   7.067   4.017  10.075 -0.2671 -0.2975  0.1030
  947MOL0     C30552   6.959   3.939  10.101  0.1187 -0.3250  0.7577
  947MOL0     C30553   6.863   3.962  10.211 -0.8050  0.1306  1.2062
  947MOL0     C30554   6.734   3.908  10.209  0.1383  0.2318  0.8349
  947MOL0     C30555   6.706   3.797  10.122  0.0982  0.4811 -0.1482
  947MOL0     O30556   6.579   3.743  10.141 -0.5232 -0.1776  0.3450
  947MOL0     C30557   6.572   3.602  10.127  0.7029 -0.3342  0.2456
  947MOL0     C30558   6.493   3.542  10.252 -0.1402  0.3909  0.4997
  947MOL0     C30559   6.557   3.572  10.396 -0.0208 -1.1316  0.2041
  947MOL0     C30560   6.506   3.470  10.496 -0.5089 -0.2937 -0.8147
  947MOL0     C30561   6.584   3.508  10.628 -0.5750 -0.0123  0.2845
  947MOL0     C30562   6.563   3.387  10.722 -0.1306  0.3354  0.1003
  947MOL0     C30563   6.629   3.407  10.863 -0.2410 -0.3883  0.2994
  947MOL0     C30564   6.590   3.538  10.932 -0.1015  0.6730  0.1799
  947MOL0     N30565   6.600   3.526  11.073  0.9963  0.0743 -0.8322
  947MOL0     C30566   6.713   3.497  11.149 -0.1305  0.4028  0.1477
  947MOL0     C30567   6.671   3.516  11.287  1.1290 -0.7275 -0.5404
  947MOL0     C30568   6.759   3.538  11.402 -0.0844  0.0498  0.1360
  947MOL0     C30569   6.705   3.462  11.516  0.2042 -0.6946 -0.3521
  947MOL0     C30570   6.792   3.504  11.643 -0.3678  0.9336  0.2229
  947MOL0     C30571   6.719   3.465  11.780 -0.2112 -0.1665 -0.1680
  947MOL0     O30572   6.823   3.445  11.878 -0.7108 -0.2538 -0.0559
  947MOL0     C30573   6.905   3.554  11.919  0.2016  0.5510  0.7301
  947MOL0     C30574   7.025   3.528  11.974 -0.1326  0.2101  0.6812
  947MOL0     C30575   7.120   3.629  12.005 -0.4524 -0.3231 -0.6180
  947MOL0     C30576   7.265   3.591  12.041  0.5572 -0.0092 -0.1411
  947MOL0     C30577   7.076   3.763  12.005  0.7143  0.4256  0.2222
  947MOL0     C30578   7.156   3.879  12.066  0.7054  0.8508  1.1674
  947MOL0     O30579   7.110   4.010  12.036 -0.0097 -0.1056  0.2535
  947MOL0     C30580   7.163   4.119  12.100 -0.1322 -0.5306  0.4437
  947MOL0     C30581   7.279   4.131  12.189 -1.2735 -0.4847  0.2805
  947MOL0     C30582   7.309   4.267  12.226  0.0659 -0.7058  0.0138
  947MOL0     C30583   7.262   4.390  12.165 -0.3123  0.4751 -0.2801
  947MOL0     O30584   7.321   4.509  12.188 -0.4791 -0.1649  0.6431
  947MOL0     C30585   7.328   4.606  12.082  0.8344  0.7223  0.6281
  947MOL0     C30586   7.424   4.712  12.133 -0.9184 -0.9760  0.2427
  947MOL0     C30587   7.345   4.842  12.167 -0.0889 -0.3625  0.6481
  947MOL0     C30588   7.296   4.922  12.042  0.7642 -0.1936 -0.4673
  947MOL0     C30589   7.208   5.042  12.094 -0.5937  0.4151 -0.3393
  947MOL0     C30590   7.146   5.122  11.988  0.3630  0.4367  0.9792
  947MOL0     C30591   7.241   5.183  11.886 -1.0447  1.3304 -0.6685
  947MOL0     C30592   7.187   5.294  11.800  0.1914 -0.0346  0.6359
  947MOL0    Cl30593   7.026   5.235  11.730 -0.1428  0.6855 -0.0029
  947MOL0     C30594   7.172   4.370  12.063  0.5513 -0.3995 -1.2012
  947MOL0     C30595   7.115   4.241  12.047  0.5053 -0.9775  0.0590
  947MOL0     O30596   7.244   3.849  12.147  1.1729  0.0581  0.2569
  947MOL0     C30597   6.953   3.787  11.954  0.5196  0.1438 -0.0286
  947MOL0     C30598   6.863   3.690  11.906  0.1634 -1.0474  1.2912
  947MOL0     N30599   6.538   3.551  11.280 -0.0382  0.9480 -0.2728
  947MOL0     N30600   6.495   3.541  11.160  0.3011 -0.0955 -0.2508
  947MOL0     C30601   6.786   3.777  10.008 -0.0656  0.0953 -0.4524
  947MOL0     C30602   6.916   3.848   9.996  1.0363  0.0555 -0.8531
  947MOL0     C30603   7.307   4.025  10.035 -0.0393  1.3396  0.4445
  947MOL0     C30604   7.299   4.110   9.920 -0.6970 -0.1715 -0.3892
  947MOL0     C30605   7.419   4.183   9.879  0.3748  0.1233  0.5719
  947MOL0     C30606   7.542   4.153   9.928 -0.9630 -1.2557 -0.0719
  947MOL0     O30607   7.646   4.219   9.869 -0.1306  0.0744 -0.0893
  947MOL0     C30608   7.769   4.230   9.939  0.5319 -0.4701 -0.7359
  947MOL0     C30609   7.749   4.326  10.057 -0.6637  0.0936 -0.2758
  947MOL0     C30610   7.702   4.467  10.034 -0.0170  0.5051  0.8793
  947MOL0     C30611   7.583   4.506   9.944  0.5463 -0.3926 -0.6850
  947MOL0     C30612   7.563   4.650   9.948 -0.1390 -0.0683  0.3748
  947MOL0     C30613   7.544   4.774   9.956 -0.0970 -0.4175  0.8171
  947MOL0     C30614   7.551   4.054  10.033 -1.1499  0.2398 -0.4816
  947MOL0     C30615   7.438   3.997  10.089  0.7485 -0.6899  0.4527
  947MOL0     C30616   7.465   3.916  10.210 -0.5434  0.6349  0.4284
  947MOL0     H30617   6.890   4.048  10.273 -0.8053  2.6644 -2.0380
  947MOL0     H30618   6.661   3.934  10.285 -0.7135  0.8749 -0.1862
  947MOL0     H30619   6.660   3.548  10.091 -0.7220 -1.8545 -1.1238
  947MOL0     H30620   6.502   3.598  10.043 -0.4017 -0.6411  1.1556
  947MOL0     H30621   6.393   3.585  10.245 -1.5496 -2.7955 -1.9906
  947MOL0     H30622   6.479   3.435  10.231  3.7758  0.0093 -0.9420
  947MOL0     H30623   6.666   3.578  10.401  0.1562 -2.4128 -1.3389
  947MOL0     H30624   6.524   3.672  10.427  1.5722 -0.7268  0.6571
  947MOL0     H30625   6.398   3.479  10.507 -0.4023 -0.4196  0.4522
  947MOL0     H30626   6.528   3.369  10.460 -0.6085 -1.1646  1.4549
  947MOL0     H30627   6.544   3.596  10.680  3.9689  1.7019  1.3777
  947MOL0     H30628   6.688   3.527  10.602  0.3439 -2.5582  1.7097
  947MOL0     H30629   6.466   3.336  10.714  0.0765 -0.2718  1.2706
  947MOL0     H30630   6.622   3.308  10.674  2.0841  0.7826  1.9610
  947MOL0     H30631   6.736   3.415  10.845 -0.7257  2.5399 -2.1418
  947MOL0     H30632   6.607   3.318  10.923  0.7877  1.0212  2.9227
  947MOL0     H30633   6.656   3.619  10.901  0.2747 -0.1594 -1.2811
  947MOL0     H30634   6.488   3.573  10.912  0.1499  0.1583 -2.2869
  947MOL0     H30635   6.815   3.482  11.116  0.0368  2.0651 -0.1848
  947MOL0     H30636   6.766   3.645  11.420 -3.4911  0.2779  0.8670
  947MOL0     H30637   6.849   3.485  11.370  0.5008 -0.3792  2.2979
  947MOL0     H30638   6.598   3.487  11.524  0.4534  0.5200 -0.6951
  947MOL0     H30639   6.704   3.353  11.508 -3.4420 -0.7196 -1.4848
  947MOL0     H30640   6.879   3.440  11.628 -0.2074  1.3462 -0.6872
  947MOL0     H30641   6.812   3.611  11.651 -0.9553  0.9481  2.1505
  947MOL0     H30642   6.653   3.548  11.808 -1.8098 -0.8958 -1.5937
  947MOL0     H30643   6.662   3.372  11.782 -1.7353  0.7530  0.2172
  947MOL0     H30644   7.063   3.427  11.974 -3.0806 -1.0412 -1.2658
  947MOL0     H30645   7.284   3.603  12.148  0.9126 -0.6286 -0.1270
  947MOL0     H30646   7.338   3.653  11.988  3.0377 -1.0196  1.8913
  947MOL0     H30647   7.282   3.488  12.010 -2.2714 -1.1901  1.8064
  947MOL0     H30648   7.340   4.044  12.216 -0.9895  0.1519  1.8097
  947MOL0     H30649   7.381   4.294  12.303  1.4695  1.2525 -1.8535
  947MOL0     H30650   7.359   4.555  11.990 -2.6573 -3.0534  1.2382
  947MOL0     H30651   7.226   4.640  12.058 -2.1150 -4.3369  4.0067
  947MOL0     H30652   7.483   4.676  12.218 -0.5493 -0.7857  0.0711
  947MOL0     H30653   7.509   4.726  12.066 -0.2602 -5.0578 -0.0343
  947MOL0     H30654   7.429   4.895  12.212  0.1278 -1.4435  1.5612
  947MOL0     H30655   7.274   4.811  12.245  2.0948 -4.2504  1.3861
  947MOL0     H30656   7.235   4.856  11.980 -0.7661  0.5987  0.1405
  947MOL0     H30657   7.378   4.950  11.975 -0.9973  0.6965 -2.3300
  947MOL0     H30658   7.130   4.990  12.151  1.1684 -0.2875  1.5361
  947MOL0     H30659   7.266   5.099  12.166 -0.9162  1.5452 -0.9393
  947MOL0     H30660   7.090   5.200  12.040 -2.5822 -1.6140  1.1517
  947MOL0     H30661   7.077   5.062  11.927  0.7785  0.6274  0.3141
  947MOL0     H30662   7.272   5.097  11.825  0.7531  1.2877  0.2439
  947MOL0     H30663   7.325   5.218  11.946  0.5037 -4.5958  1.3750
  947MOL0     H30664   7.257   5.316  11.719 -1.9104 -1.7873 -1.8174
  947MOL0     H30665   7.158   5.381  11.860  0.3359 -0.8490  1.9163
  947MOL0     H30666   7.147   4.451  11.995  0.6376  1.0432  0.4176
  947MOL0     H30667   7.030   4.244  11.979  1.4804  0.0504 -1.1611
  947MOL0     H30668   6.903   3.882  11.969 -0.5698 -0.3838 -0.1568
  947MOL0     H30669   6.766   3.718  11.866 -0.6437 -2.9922  1.8008
  947MOL0     H30670   6.756   3.715   9.925 -1.7115  2.3186 -1.6326
  947MOL0     H30671   6.967   3.859   9.901 -0.6346  1.2745 -1.6521
  947MOL0     H30672   7.201   4.121   9.874 -0.3357 -0.3464 -1.2253
  947MOL0     H30673   7.408   4.257   9.801  0.0231  1.2208  1.6391
  947MOL0     H30674   7.803   4.132   9.975 -2.7725 -1.3813  0.2447
  947MOL0     H30675   7.835   4.277   9.865  1.3990  1.2464  1.0282
  947MOL0     H30676   7.844   4.328  10.110 -0.5726 -0.1884 -0.4272
  947MOL0     H30677   7.673   4.284  10.124 -3.0913  0.5601 -2.5844
  947MOL0     H30678   7.694   4.513  10.133 -2.2918 -1.8132  1.8877
  947MOL0     H30679   7.789   4.507   9.982  1.2508 -1.7398  1.1240
  947MOL0     H30680   7.491   4.460   9.980  0.1771 -1.4244 -2.8000
  947MOL0     H30681   7.594   4.482   9.838 -2.7218  1.0057 -1.4665
  947MOL0     H30682   7.533   4.880   9.958  1.4317 -0.2049 -0.5575
  947MOL0     H30683   7.649   4.021  10.067 -0.8228  1.5458 -0.0636
  947MOL0     H30684   7.560   3.939  10.260 -0.4017 -0.9195  0.9079
  947MOL0     H30685   7.380   3.938  10.276 -2.2420 -2.1272 -0.7020
  947MOL0     H30686   7.465   3.811  10.183  2.1314  0.9211 -1.0056
  948MOL0     O30687  11.474   5.577   4.277 -0.4498  0.7389  0.2822
  948MOL0     C30688  11.497   5.666   4.356 -0.1276 -0.4548  0.3511
  948MOL0     O30689  11.547   5.657   4.484 -0.1546  0.0280 -0.6162
  948MOL0     C30690  11.558   5.531   4.529 -0.5203 -0.1150  0.9839
  948MOL0     C30691  11.444   5.458   4.567 -0.6396 -0.4190  0.3853
  948MOL0     C30692  11.460   5.327   4.628 -0.5747  0.2038 -0.4979
  948MOL0     C30693  11.593   5.267   4.647  0.4145  0.5961 -0.2492
  948MOL0     O30694  11.610   5.149   4.725 -0.5997 -0.4749  0.1950
  948MOL0     C30695  11.591   5.174   4.867  0.3691 -0.0332  0.1218
  948MOL0     C30696  11.700   5.104   4.950  0.0952  0.6748 -0.1399
  948MOL0     C30697  11.752   4.974   4.888 -0.7821  0.6445  0.1991
  948MOL0     C30698  11.866   4.923   4.970 -0.3163  1.1481 -0.1598
  948MOL0     C30699  11.893   4.763   4.945 -0.6982 -0.5117 -0.3288
  948MOL0     C30700  12.024   4.705   5.011 -0.1058  0.0680 -0.1271
  948MOL0     C30701  12.062   4.574   4.927 -0.3282 -0.0278 -0.0443
  948MOL0     C30702  12.207   4.528   4.971  0.4475 -0.2302  0.1021
  948MOL0     N30703  12.248   4.398   4.911  0.1094 -0.0636  0.7164
  948MOL0     C30704  12.316   4.303   4.975 -0.7570 -0.1091  0.1812
  948MOL0     C30705  12.366   4.219   4.880 -1.0830 -0.8644  0.0629
  948MOL0     C30706  12.450   4.100   4.928 -0.1886  1.1782 -0.1123
  948MOL0     C30707  12.371   3.968   4.941 -0.1826 -0.7167 -0.2582
  948MOL0     C30708  12.246   3.992   5.034 -0.2737 -0.3953  0.0528
  948MOL0     C30709  12.187   3.855   5.070 -0.2450  0.5186 -0.2489
  948MOL0     O30710  12.126   3.792   4.966 -0.1006  0.6339  0.2789
  948MOL0     C30711  12.034   3.696   4.997 -0.6856  0.3731 -0.7379
  948MOL0     C30712  11.968   3.653   4.884 -0.3486 -0.1041 -0.5222
  948MOL0     C30713  11.868   3.561   4.897 -0.1242  0.0738 -1.3522
  948MOL0     C30714  11.817   3.511   4.757  0.1020 -0.4694  1.2484
  948MOL0     C30715  11.832   3.499   5.023  0.0815  0.2532  0.0468
  948MOL0     C30716  11.746   3.390   5.043  0.8236  0.2541 -1.4878
  948MOL0     O30717  11.766   3.329   5.164  0.4699 -0.1578 -0.7657
  948MOL0     C30718  11.675   3.248   5.220 -0.0941  0.2858  0.0383
  948MOL0     C30719  11.720   3.129   5.276  0.6707 -0.0793 -0.0386
  948MOL0     C30720  11.639   3.043   5.349 -0.1681 -0.5123 -0.3362
  948MOL0     C30721  11.500   3.071   5.359  0.8841  0.5170 -0.9456
  948MOL0     O30722  11.409   2.995   5.436  0.3316  0.9685 -0.0660
  948MOL0     C30723  11.449   2.883   5.520 -0.5277  0.4098  0.1774
  948MOL0     C30724  11.333   2.806   5.577 -0.6475 -0.1041  0.3203
  948MOL0     C30725  11.274   2.723   5.464  0.6321  0.4067 -0.1875
  948MOL0     C30726  11.161   2.621   5.505 -0.2510 -0.4261 -0.0813
  948MOL0     C30727  11.100   2.524   5.396  0.0426 -0.3142  0.6400
  948MOL0     C30728  11.199   2.408   5.339  0.6783 -0.8035  0.3458
  948MOL0     C30729  11.279   2.328   5.436 -0.5951  0.4757 -0.1720
  948MOL0     C30730  11.192   2.236   5.526  0.5876 -0.8584 -0.8340
  948MOL0    Cl30731  11.135   2.094   5.428  0.9006 -0.2409  0.2704
  948MOL0     C30732  11.453   3.197   5.302  0.2041  0.3961  0.8327
  948MOL0     C30733  11.545   3.283   5.245 -0.0712 -0.6091 -0.9851
  948MOL0     O30734  11.668   3.348   4.962  1.0096  0.0228 -0.5462
  948MOL0     C30735  11.896   3.561   5.138  0.2633  0.1006 -0.3430
  948MOL0     C30736  12.001   3.653   5.128  0.2850 -0.3483  0.4143
  948MOL0     N30737  12.308   4.255   4.764  0.1407  0.7936  0.0196
  948MOL0     N30738  12.239   4.366   4.779 -0.2298  0.2174  0.9175
  948MOL0     C30739  11.703   5.350   4.595  0.5258 -0.8509 -0.7221
  948MOL0     C30740  11.687   5.479   4.531  0.8930 -0.2072  0.9814
  948MOL0     C30741  11.468   5.808   4.313  1.0315 -0.5047  0.0043
  948MOL0     C30742  11.475   5.913   4.401  0.2752  0.1950  0.1690
  948MOL0     C30743  11.444   6.046   4.374 -1.0224 -0.3689  1.3336
  948MOL0     C30744  11.401   6.077   4.239  0.7726 -0.3633 -0.1323
  948MOL0     O30745  11.371   6.203   4.205 -0.0128 -0.3002 -0.0624
  948MOL0     C30746  11.488   6.284   4.209  0.3989 -0.7905 -0.6037
  948MOL0     C30747  11.486   6.387   4.098 -0.1092  0.7095  1.1328
  948MOL0     C30748  11.376   6.485   4.094  0.5482 -0.8827  0.5515
  948MOL0     C30749  11.383   6.562   3.965  0.5920 -1.0723  0.3641
  948MOL0     C30750  11.251   6.631   3.942 -0.5627 -1.3296  0.4432
  948MOL0     C30751  11.153   6.699   3.917  0.8076  1.8477  0.5028
  948MOL0     C30752  11.404   5.980   4.140 -0.4610  0.6835  0.2543
  948MOL0     C30753  11.444   5.855   4.173  0.4892  0.9673 -1.4364
  948MOL0     C30754  11.435   5.752   4.062  0.2879  0.3310 -0.1045
  948MOL0     H30755  11.355   5.518   4.585 -1.2827 -1.6386  1.4009
  948MOL0     H30756  11.385   5.273   4.684  1.7811 -4.6152 -1.4701
  948MOL0     H30757  11.491   5.162   4.910  1.8232 -0.7690  3.6504
  948MOL0     H30758  11.614   5.279   4.891 -1.4463  0.0450  1.7168
  948MOL0     H30759  11.786   5.166   4.975  0.4541 -0.2867  1.1336
  948MOL0     H30760  11.659   5.075   5.047  1.0679 -2.0555 -0.4543
  948MOL0     H30761  11.671   4.902   4.879  0.6495 -0.7619 -2.6237
  948MOL0     H30762  11.784   4.972   4.784  2.7230  1.0452  1.1567
  948MOL0     H30763  11.967   4.964   4.965  1.2439 -2.0303  1.5041
  948MOL0     H30764  11.836   4.936   5.075  0.4254  0.1298  0.2011
  948MOL0     H30765  11.909   4.753   4.837  1.1506  1.5268 -0.3297
  948MOL0     H30766  11.796   4.717   4.962 -3.0799  3.6077 -1.3815
  948MOL0     H30767  12.112   4.769   5.010 -0.7105  0.9137 -0.3377
  948MOL0     H30768  11.988   4.681   5.112 -1.9381 -0.1005 -0.7830
  948MOL0     H30769  12.063   4.597   4.820  2.0263  3.9303  0.5990
  948MOL0     H30770  11.982   4.501   4.937 -0.0407 -0.3626 -0.1884
  948MOL0     H30771  12.270   4.601   4.919 -2.4681  1.6555 -0.9973
  948MOL0     H30772  12.222   4.542   5.078  0.3968  2.3029 -0.1771
  948MOL0     H30773  12.347   4.297   5.079  1.6413  0.5842 -0.4209
  948MOL0     H30774  12.496   4.118   5.026 -0.9349  2.4449  0.0193
  948MOL0     H30775  12.524   4.079   4.849  0.8539 -0.3908  1.2086
  948MOL0     H30776  12.341   3.928   4.843  2.3797 -0.0588 -1.3806
  948MOL0     H30777  12.444   3.904   4.990  1.7355  0.6399 -1.2134
  948MOL0     H30778  12.265   4.052   5.124 -1.8549  1.1458 -0.6009
  948MOL0     H30779  12.168   4.048   4.983 -1.0316 -0.8079  0.7238
  948MOL0     H30780  12.266   3.782   5.092  1.3964  1.7633 -1.7335
  948MOL0     H30781  12.122   3.865   5.158  0.8036  1.6015  0.4349
  948MOL0     H30782  12.001   3.696   4.790  1.8857  0.6876  0.5620
  948MOL0     H30783  11.894   3.523   4.680 -2.2577  1.6126 -1.0179
  948MOL0     H30784  11.725   3.557   4.719  0.1677 -0.8103  0.6610
  948MOL0     H30785  11.792   3.405   4.766 -2.8159 -0.1933 -1.6219
  948MOL0     H30786  11.826   3.104   5.276  0.4239 -1.2261  0.7244
  948MOL0     H30787  11.700   2.964   5.391 -0.0210  0.3983  1.2361
  948MOL0     H30788  11.510   2.814   5.461  1.1417 -1.1511  3.4291
  948MOL0     H30789  11.512   2.909   5.606 -0.2553  0.5930 -0.0767
  948MOL0     H30790  11.376   2.733   5.647 -2.1481  1.8559  3.5584
  948MOL0     H30791  11.260   2.861   5.637  1.3566  0.3463  2.4809
  948MOL0     H30792  11.357   2.671   5.416 -0.9529 -1.8268 -0.6376
  948MOL0     H30793  11.218   2.790   5.398 -1.2530 -2.3017 -1.5421
  948MOL0     H30794  11.076   2.677   5.545 -1.9815 -2.6193 -0.4811
  948MOL0     H30795  11.204   2.557   5.583  1.3966 -0.4519 -0.9495
  948MOL0     H30796  11.007   2.495   5.446 -1.4174  3.7289  0.6797
  948MOL0     H30797  11.065   2.583   5.311  1.0844  0.4190  0.7012
  948MOL0     H30798  11.252   2.464   5.262 -3.6047  0.3540 -2.0369
  948MOL0     H30799  11.139   2.339   5.279  1.7768 -1.9656  0.5136
  948MOL0     H30800  11.328   2.400   5.502  0.8842 -1.7081  1.2525
  948MOL0     H30801  11.354   2.271   5.381 -1.1426 -0.7122  0.2749
  948MOL0     H30802  11.109   2.303   5.552 -0.7148 -1.5613 -2.8661
  948MOL0     H30803  11.250   2.206   5.614 -1.0068  1.2775  1.0852
  948MOL0     H30804  11.349   3.224   5.317  0.2874  2.5468 -1.7586
  948MOL0     H30805  11.502   3.378   5.214  0.7497 -1.5488 -5.7225
  948MOL0     H30806  11.878   3.531   5.240  0.6461  0.3626 -0.1954
  948MOL0     H30807  12.050   3.695   5.215  1.9803  1.1355 -1.1644
  948MOL0     H30808  11.797   5.307   4.628  0.0773  1.0349  3.6646
  948MOL0     H30809  11.767   5.533   4.481 -1.0091  0.1113 -1.9866
  948MOL0     H30810  11.498   5.906   4.507 -0.0464  4.5687  0.7204
  948MOL0     H30811  11.462   6.130   4.439  0.7193 -0.9779  1.6935
  948MOL0     H30812  11.482   6.335   4.306 -0.4378  0.3700 -1.2424
  948MOL0     H30813  11.584   6.231   4.198 -0.9177 -3.1033 -1.6874
  948MOL0     H30814  11.487   6.318   4.012  0.1323  2.1977 -0.0927
  948MOL0     H30815  11.581   6.441   4.098  1.5286 -1.9856  1.7541
  948MOL0     H30816  11.282   6.431   4.109  1.1161 -1.9206  0.4830
  948MOL0     H30817  11.394   6.552   4.178  2.0856  1.1526 -1.2894
  948MOL0     H30818  11.385   6.484   3.889 -2.2351 -0.8517 -0.0568
  948MOL0     H30819  11.464   6.636   3.964  0.1506 -0.2800  4.7467
  948MOL0     H30820  11.065   6.754   3.891 -1.1070 -0.0151  2.6336
  948MOL0     H30821  11.389   6.017   4.039  1.1000  0.0231 -0.2575
  948MOL0     H30822  11.343   5.696   4.082 -0.8891  2.2109 -0.0181
  948MOL0     H30823  11.421   5.792   3.962  1.2746 -1.2079 -0.8971
  948MOL0     H30824  11.525   5.690   4.067  0.4114  0.5317  0.1890
  949MOL0     O30825   1.437   5.236   8.712  0.0473 -0.1519  0.3924
  949MOL0     C30826   1.363   5.302   8.786 -0.3634  0.1806 -0.2458
  949MOL0     O30827   1.227   5.338   8.755  0.2419  0.2085 -0.0409
  949MOL0     C30828   1.176   5.266   8.649  0.0459  0.4096  0.3196
  949MOL0     C30829   1.146   5.133   8.671  0.2109 -0.4963 -0.7670
  949MOL0     C30830   1.071   5.062   8.572 -0.1529  0.0613  0.0861
  949MOL0     C30831   1.013   5.122   8.466  0.2622 -0.1151  0.1358
  949MOL0     O30832   0.942   5.063   8.371  0.2415  0.0208 -0.0101
  949MOL0     C30833   0.941   4.919   8.365 -0.4409  0.4301 -1.3247
  949MOL0     C30834   0.873   4.896   8.239  0.4751 -0.2725  0.2468
  949MOL0     C30835   0.822   4.759   8.248  0.3124 -0.1770  0.9385
  949MOL0     C30836   0.817   4.693   8.111 -0.1661  0.5748 -0.3514
  949MOL0     C30837   0.758   4.557   8.123 -0.3645  0.5285 -0.1085
  949MOL0     C30838   0.615   4.547   8.181  0.6435 -0.3128  0.4338
  949MOL0     C30839   0.529   4.412   8.166 -0.1857  0.3841 -0.3021
  949MOL0     C30840   0.610   4.288   8.214 -0.5518  0.0288 -0.0255
  949MOL0     N30841   0.638   4.284   8.360 -0.2895  0.0611 -0.3502
  949MOL0     C30842   0.761   4.312   8.418  0.3233  0.0016 -0.0406
  949MOL0     C30843   0.739   4.318   8.554 -0.5687  0.1318 -0.7824
  949MOL0     C30844   0.840   4.356   8.659  0.4784 -0.5596  0.0877
  949MOL0     C30845   0.805   4.492   8.726 -0.1170  0.0071  0.0941
  949MOL0     C30846   0.781   4.615   8.630  0.7558 -0.4210 -0.4805
  949MOL0     C30847   0.759   4.738   8.718  0.5895  0.0929  0.3277
  949MOL0     O30848   0.880   4.756   8.790 -0.5014  0.5895  0.1405
  949MOL0     C30849   0.869   4.843   8.900 -0.1507 -0.2095 -0.8732
  949MOL0     C30850   0.876   4.980   8.878 -0.1549  0.4782  0.1028
  949MOL0     C30851   0.871   5.070   8.983  0.5665  0.3423  0.3370
  949MOL0     C30852   0.872   5.219   8.946  0.0084  0.8172  0.1576
  949MOL0     C30853   0.867   5.026   9.117  0.4567 -0.8057  0.4900
  949MOL0     C30854   0.873   5.115   9.232  0.0821  0.1544  1.0944
  949MOL0     O30855   0.881   5.253   9.220  0.6809 -0.3005  0.1915
  949MOL0     C30856   0.968   5.318   9.308  0.7009 -0.7723  0.9070
  949MOL0     C30857   0.942   5.455   9.336  0.2225  0.3602 -0.3375
  949MOL0     C30858   1.031   5.538   9.411 -0.2649  0.3739 -0.8813
  949MOL0     C30859   1.155   5.482   9.459 -0.4308 -0.4108  1.1953
  949MOL0     O30860   1.229   5.559   9.534  0.2331 -0.5240 -0.2594
  949MOL0     C30861   1.266   5.529   9.666 -1.0915 -0.4754 -0.3528
  949MOL0     C30862   1.140   5.504   9.759 -0.5002  0.6733  0.1745
  949MOL0     C30863   1.038   5.620   9.774 -0.4683  0.1174  0.0150
  949MOL0     C30864   0.999   5.630   9.928 -0.9341 -0.0259  0.3943
  949MOL0     C30865   0.936   5.763   9.966 -0.1222  0.2313  0.2795
  949MOL0     C30866   1.017   5.894   9.945 -0.4181 -0.3284  0.4775
  949MOL0     C30867   1.141   5.900  10.032 -1.3347 -0.6380  0.2472
  949MOL0     C30868   1.193   6.030  10.057 -0.1903 -0.2139 -0.9784
  949MOL0    Cl30869   1.349   6.016  10.136 -0.0148 -0.0308 -0.2603
  949MOL0     C30870   1.177   5.342   9.432 -0.1641 -0.5804 -0.3798
  949MOL0     C30871   1.088   5.258   9.356  0.3582  0.6126  0.2150
  949MOL0     O30872   0.856   5.053   9.341 -0.3601 -1.4959 -1.0003
  949MOL0     C30873   0.874   4.887   9.135  0.1621 -0.4838 -0.1421
  949MOL0     C30874   0.871   4.796   9.031 -0.0174 -0.8403 -0.0551
  949MOL0     N30875   0.616   4.264   8.582 -0.1179 -0.1721  0.0919
  949MOL0     N30876   0.560   4.249   8.463  0.2270  0.2555  0.8167
  949MOL0     C30877   1.048   5.258   8.446  0.7957  0.2459 -0.2572
  949MOL0     C30878   1.122   5.328   8.532 -0.5806 -0.7569  0.2586
  949MOL0     C30879   1.438   5.378   8.898  0.6034  0.3508 -0.2538
  949MOL0     C30880   1.569   5.428   8.868 -0.5192  0.1281  0.7313
  949MOL0     C30881   1.634   5.516   8.963  0.2234  0.7967  0.0732
  949MOL0     C30882   1.576   5.548   9.085  1.0646 -0.5028  0.2562
  949MOL0     O30883   1.631   5.626   9.181 -0.0583 -0.2836 -0.3021
  949MOL0     C30884   1.765   5.679   9.153  0.3546 -0.1625 -0.6237
  949MOL0     C30885   1.811   5.761   9.268  0.2517 -0.5774  0.0097
  949MOL0     C30886   1.721   5.890   9.292 -1.1432 -0.1740 -0.0235
  949MOL0     C30887   1.793   5.988   9.395 -0.5292 -0.1360  0.7059
  949MOL0     C30888   1.926   6.036   9.348 -0.3747  0.2140 -0.9931
  949MOL0     C30889   2.038   6.073   9.316  0.3127  0.5453  0.0637
  949MOL0     C30890   1.449   5.490   9.111 -0.1802 -0.2298 -0.1403
  949MOL0     C30891   1.377   5.421   9.018 -0.0489  0.9098 -1.0693
  949MOL0     C30892   1.232   5.385   9.062 -0.4649 -0.4229 -0.5638
  949MOL0     H30893   1.167   5.105   8.774 -0.8013 -0.8511 -0.6482
  949MOL0     H30894   1.053   4.957   8.594  1.4364  0.1862  2.3136
  949MOL0     H30895   0.888   4.884   8.455  1.4842  2.8617  0.9052
  949MOL0     H30896   1.044   4.883   8.364 -0.0025  1.0581  2.5217
  949MOL0     H30897   0.791   4.968   8.232 -0.6833 -1.4772  0.8932
  949MOL0     H30898   0.932   4.910   8.149 -0.9597  4.0517 -0.2613
  949MOL0     H30899   0.891   4.705   8.315  1.5914 -4.3278 -3.1978
  949MOL0     H30900   0.721   4.766   8.289 -1.0981  0.0100 -2.2719
  949MOL0     H30901   0.756   4.754   8.045 -0.3019  0.2916 -0.4904
  949MOL0     H30902   0.914   4.687   8.061 -1.1961 -1.5981 -2.2996
  949MOL0     H30903   0.833   4.489   8.164 -0.1269 -0.0503 -1.4483
  949MOL0     H30904   0.755   4.526   8.018 -1.4748  0.8008 -0.1653
  949MOL0     H30905   0.623   4.553   8.290 -0.3576  1.4458  0.4507
  949MOL0     H30906   0.555   4.630   8.142  0.1525 -1.3357 -1.0712
  949MOL0     H30907   0.501   4.406   8.061 -2.7735 -0.8716  0.3878
  949MOL0     H30908   0.441   4.418   8.231  0.5821  0.1784  0.7970
  949MOL0     H30909   0.529   4.217   8.192 -1.0321  0.2221  1.0296
  949MOL0     H30910   0.706   4.267   8.167 -0.1162 -0.8539  1.2126
  949MOL0     H30911   0.850   4.325   8.358 -0.7342 -1.9103 -2.1936
  949MOL0     H30912   0.940   4.372   8.617 -0.4011 -1.0100 -2.3140
  949MOL0     H30913   0.849   4.271   8.727  2.7300 -0.3694  0.1374
  949MOL0     H30914   0.718   4.487   8.793  1.0103  2.9174  2.0151
  949MOL0     H30915   0.882   4.511   8.802 -3.5460  0.6204  3.7778
  949MOL0     H30916   0.866   4.625   8.562 -0.0808 -0.3223 -1.5492
  949MOL0     H30917   0.690   4.601   8.570 -1.6177  0.2512  2.6619
  949MOL0     H30918   0.742   4.816   8.644 -0.5097 -3.0674 -3.0329
  949MOL0     H30919   0.675   4.736   8.789  0.4512 -1.5483  0.1526
  949MOL0     H30920   0.892   5.020   8.778  2.4786 -0.2657  0.1636
  949MOL0     H30921   0.844   5.218   8.841  2.1004 -0.8298 -0.4543
  949MOL0     H30922   0.973   5.258   8.963  0.4494 -0.1168 -0.2735
  949MOL0     H30923   0.800   5.287   8.993 -0.8128  1.3149 -1.7396
  949MOL0     H30924   0.843   5.483   9.301  0.2910  0.6630 -0.2935
  949MOL0     H30925   1.005   5.641   9.432 -0.9013  0.4384 -1.8975
  949MOL0     H30926   1.315   5.432   9.675 -1.8242 -1.0739 -2.3477
  949MOL0     H30927   1.338   5.600   9.707 -0.1571 -3.2947  3.4807
  949MOL0     H30928   1.097   5.414   9.714  0.9128 -0.0028  0.1152
  949MOL0     H30929   1.185   5.468   9.852  0.1188 -0.6583 -0.5890
  949MOL0     H30930   0.944   5.602   9.721 -1.7753 -2.3139  2.8888
  949MOL0     H30931   1.081   5.713   9.736 -3.6683  0.3885 -3.5837
  949MOL0     H30932   1.089   5.620   9.990 -0.2295  1.4309 -0.3422
  949MOL0     H30933   0.937   5.545   9.957  0.3518 -1.0341  0.2973
  949MOL0     H30934   0.839   5.769   9.916 -1.4567 -3.4143  2.0616
  949MOL0     H30935   0.911   5.752  10.072 -1.5400  1.6240  0.1360
  949MOL0     H30936   0.948   5.975   9.970 -2.1830 -1.6421  0.0480
  949MOL0     H30937   1.048   5.903   9.840  0.0016 -0.1199  0.6178
  949MOL0     H30938   1.206   5.819   9.996 -4.8974 -2.2979 -3.2387
  949MOL0     H30939   1.115   5.861  10.132 -1.2788 -1.3476 -0.0038
  949MOL0     H30940   1.112   6.075  10.116 -1.1556 -2.5444 -0.4065
  949MOL0     H30941   1.216   6.088   9.967  0.2957 -1.2985 -1.5626
  949MOL0     H30942   1.268   5.304   9.476  0.0645  0.9205  0.5272
  949MOL0     H30943   1.105   5.151   9.356 -1.2576  0.3262  0.9258
  949MOL0     H30944   0.872   4.829   9.227 -2.5729 -0.2216  0.0508
  949MOL0     H30945   0.861   4.689   9.039 -2.7227 -0.5978  1.1017
  949MOL0     H30946   0.995   5.314   8.369  0.5888  0.6943  0.2082
  949MOL0     H30947   1.134   5.435   8.519 -2.0660 -0.5170  0.7610
  949MOL0     H30948   1.618   5.410   8.773  0.2928 -1.2974  1.3868
  949MOL0     H30949   1.733   5.540   8.926  0.6283 -1.1862 -0.2604
  949MOL0     H30950   1.830   5.591   9.150 -1.5241 -1.5886 -1.0274
  949MOL0     H30951   1.754   5.736   9.060 -0.1812 -0.6776 -0.8799
  949MOL0     H30952   1.917   5.776   9.247  1.1451 -4.4742  0.8767
  949MOL0     H30953   1.799   5.690   9.351 -0.3622 -1.2450 -0.6315
  949MOL0     H30954   1.726   5.948   9.200 -0.8978  3.1963  1.9432
  949MOL0     H30955   1.626   5.861   9.338 -2.0243  2.9096  0.3441
  949MOL0     H30956   1.788   5.943   9.495  0.6906 -1.7153  0.1041
  949MOL0     H30957   1.730   6.076   9.409  0.6280  1.2519 -2.1823
  949MOL0     H30958   2.138   6.098   9.284  0.6874 -1.3994 -0.4092
  949MOL0     H30959   1.383   5.526   9.190 -1.5159  0.5057 -1.5304
  949MOL0     H30960   1.225   5.275   9.059 -4.0003 -0.4274  1.7578
  949MOL0     H30961   1.201   5.421   9.160  0.3938  0.2411 -0.5208
  949MOL0     H30962   1.162   5.428   8.990 -0.3865  2.1350  0.7958
  950MOL0     O30963   0.706   9.794   9.695 -0.6338  0.0576  0.0938
  950MOL0     C30964   0.810   9.785   9.633  0.1909  0.1052 -0.5776
  950MOL0     O30965   0.855   9.877   9.538  0.0688  0.4400  0.6302
  950MOL0     C30966   0.786   9.993   9.537  0.3330  0.6032 -0.6066
  950MOL0     C30967   0.657   9.995   9.463 -0.5521  0.0251 -0.9375
  950MOL0     C30968   0.581  10.111   9.458 -0.3329  0.4019  0.2193
  950MOL0     C30969   0.621  10.214   9.546  0.3122 -0.5697 -0.1259
  950MOL0     O30970   0.537  10.324   9.568  0.4387 -0.2734 -0.0493
  950MOL0     C30971   0.409  10.331   9.503  0.2530  0.4560 -0.4266
  950MOL0     C30972   0.321  10.425   9.579 -0.7785  0.1073 -0.0439
  950MOL0     C30973   0.170  10.403   9.556 -0.1177  0.4057  0.8701
  950MOL0     C30974   0.096  10.520   9.627 -0.0710 -0.1612  0.7672
  950MOL0     C30975  -0.039  10.476   9.683  0.4822  0.8081  0.3335
  950MOL0     C30976  -0.140  10.427   9.577 -0.0870  0.1774 -0.1904
  950MOL0     C30977  -0.273  10.376   9.638  0.2019 -0.6336  0.4269
  950MOL0     C30978  -0.380  10.363   9.522 -0.0100  0.0916  0.1300
  950MOL0     N30979  -0.327  10.285   9.407  0.5335  1.1888  0.6787
  950MOL0     C30980  -0.392  10.300   9.288  0.3524 -0.3957 -0.2414
  950MOL0     C30981  -0.363  10.193   9.219 -0.4106  0.4068 -0.3591
  950MOL0     C30982  -0.408  10.181   9.076 -0.0878  0.0681 -0.0161
  950MOL0     C30983  -0.291  10.212   8.979  0.0295 -0.1321 -0.9966
  950MOL0     C30984  -0.327  10.198   8.826 -0.1462 -0.4612  0.0661
  950MOL0     C30985  -0.423  10.298   8.785  0.0624  0.8500 -0.2130
  950MOL0     O30986  -0.381  10.435   8.812 -0.6821  0.1728 -0.3765
  950MOL0     C30987  -0.283  10.477   8.733 -0.1777  0.7595  0.9292
  950MOL0     C30988  -0.161  10.523   8.784  0.0479  0.2975 -0.3748
  950MOL0     C30989  -0.047  10.545   8.698  0.0353 -0.1912 -0.3420
  950MOL0     C30990   0.088  10.544   8.762  0.2784 -0.6443  0.2349
  950MOL0     C30991  -0.068  10.553   8.558 -0.0478  0.2956  0.8860
  950MOL0     C30992   0.048  10.571   8.459  0.0671 -0.3838  0.3319
  950MOL0     O30993   0.183  10.583   8.506 -0.2360  0.2411 -0.5158
  950MOL0     C30994   0.285  10.603   8.417 -0.6200  0.7535  0.3465
  950MOL0     C30995   0.289  10.580   8.277 -0.2851  1.2075 -0.4218
  950MOL0     C30996   0.408  10.615   8.200  0.6259  0.5271 -1.1357
  950MOL0     C30997   0.507  10.695   8.258 -0.3774  0.8904  0.0106
  950MOL0     O30998   0.608  10.758   8.188  0.5481  0.4450  0.6763
  950MOL0     C30999   0.720  10.667   8.152 -0.6922  0.5984  0.3861
  950MOL0     C31000   0.822  10.736   8.056  0.5327 -0.1538  0.1557
  950MOL0     C31001   0.840  10.883   8.097  0.0792  1.0771  1.1535
  950MOL0     C31002   0.875  10.911   8.236  0.5409 -0.0272 -0.3165
  950MOL0     C31003   0.922  11.052   8.271 -0.4099  0.0771 -0.4282
  950MOL0     C31004   0.967  11.051   8.419  0.2355 -0.4241 -0.5893
  950MOL0     C31005   0.998  11.194   8.474 -0.1069  0.7544  0.3254
  950MOL0     C31006   1.028  11.194   8.621  0.1535  0.6043 -0.1088
  950MOL0    Cl31007   1.102  11.351   8.666  0.4314 -0.4899 -0.0492
  950MOL0     C31008   0.494  10.736   8.387  0.3689  0.3818  1.2807
  950MOL0     C31009   0.386  10.693   8.460 -0.4811 -0.4844 -0.1390
  950MOL0     O31010   0.014  10.582   8.335 -0.0783 -0.1774  0.7037
  950MOL0     C31011  -0.199  10.541   8.510  0.3041  0.8731 -0.9832
  950MOL0     C31012  -0.294  10.489   8.591  0.7080 -0.0301 -0.2953
  950MOL0     N31013  -0.278  10.111   9.293  0.7224 -0.1785 -0.3220
  950MOL0     N31014  -0.267  10.153   9.415 -0.3543 -1.1229  0.0758
  950MOL0     C31015   0.734  10.214   9.628  0.5986 -0.6539  0.8061
  950MOL0     C31016   0.816  10.100   9.622  0.5984  0.1971  0.2515
  950MOL0     C31017   0.875   9.644   9.640  0.0327 -1.3027  0.7176
  950MOL0     C31018   0.794   9.527   9.625 -0.1424  0.1635 -0.9998
  950MOL0     C31019   0.836   9.388   9.619  0.2388 -0.3451  0.4887
  950MOL0     C31020   0.981   9.369   9.629 -0.4399  0.3507 -0.6669
  950MOL0     O31021   1.035   9.245   9.613 -0.8111  0.8349  0.4192
  950MOL0     C31022   1.127   9.197   9.725  0.0928  0.2952  0.1595
  950MOL0     C31023   1.188   9.055   9.701  0.4353 -0.3290 -0.0223
  950MOL0     C31024   1.230   8.991   9.835  0.3733  0.3889  0.8562
  950MOL0     C31025   1.304   8.852   9.821 -0.3101  0.4318 -0.0471
  950MOL0     C31026   1.445   8.872   9.802  0.0818 -0.7623 -0.4879
  950MOL0     C31027   1.559   8.878   9.761 -0.3689  0.6762 -0.4500
  950MOL0     C31028   1.063   9.486   9.632 -0.1262 -0.3503  0.4058
  950MOL0     C31029   1.010   9.621   9.628  1.1938  0.2284  0.6008
  950MOL0     C31030   1.105   9.735   9.620 -0.1634  1.2380 -1.0286
  950MOL0     H31031   0.648   9.909   9.398  1.3688 -0.3572 -0.7783
  950MOL0     H31032   0.492  10.110   9.397 -1.6982  2.9959  1.9752
  950MOL0     H31033   0.355  10.236   9.510 -1.4094  1.2497 -1.6971
  950MOL0     H31034   0.428  10.367   9.401  2.4161  0.4299 -0.0770
  950MOL0     H31035   0.354  10.417   9.683  0.3462 -2.8636 -0.5477
  950MOL0     H31036   0.338  10.528   9.546 -2.2642  0.7217  1.0062
  950MOL0     H31037   0.148  10.393   9.450  2.1090 -2.8037  0.5743
  950MOL0     H31038   0.147  10.305   9.598 -0.3075  0.2554  0.4135
  950MOL0     H31039   0.149  10.571   9.708 -3.1767  2.6308  1.2576
  950MOL0     H31040   0.062  10.600   9.561 -1.4876  1.6257  3.4706
  950MOL0     H31041  -0.089  10.562   9.728 -1.5834 -0.5427  0.7792
  950MOL0     H31042  -0.024  10.393   9.753  1.4032 -0.9947 -1.9148
  950MOL0     H31043  -0.153  10.519   9.520 -1.1771  0.0313 -0.1974
  950MOL0     H31044  -0.099  10.346   9.516 -1.2389  1.2578 -2.4787
  950MOL0     H31045  -0.310  10.442   9.716  0.6915 -0.8146  0.8151
  950MOL0     H31046  -0.261  10.279   9.688  1.2655  1.2056  4.0883
  950MOL0     H31047  -0.473  10.322   9.561 -0.1827  2.3158  2.3774
  950MOL0     H31048  -0.414  10.460   9.485  0.5469  0.2201 -0.0562
  950MOL0     H31049  -0.460  10.375   9.247  0.4849  0.4506  1.0299
  950MOL0     H31050  -0.496  10.244   9.058 -0.3631 -0.1505  0.5406
  950MOL0     H31051  -0.440  10.076   9.070 -1.7063  0.3283  2.4208
  950MOL0     H31052  -0.250  10.306   9.014 -1.3420 -0.8593  3.0381
  950MOL0     H31053  -0.210  10.139   8.979  1.1554  0.9720 -3.6486
  950MOL0     H31054  -0.240  10.218   8.763 -0.6902 -2.2112 -1.3369
  950MOL0     H31055  -0.372  10.100   8.808 -0.7350 -0.2720  0.4725
  950MOL0     H31056  -0.444  10.282   8.679  1.0477  0.7187 -0.3960
  950MOL0     H31057  -0.512  10.284   8.848  0.5027 -2.3636 -0.1476
  950MOL0     H31058  -0.141  10.509   8.890  1.4226 -0.7512 -0.7408
  950MOL0     H31059   0.149  10.466   8.717  0.7087  0.8996 -1.9974
  950MOL0     H31060   0.076  10.535   8.871  0.7543 -2.3138  0.1658
  950MOL0     H31061   0.137  10.642   8.763 -4.2073  1.9109 -0.8127
  950MOL0     H31062   0.223  10.519   8.216  0.6733  1.5667 -1.8860
  950MOL0     H31063   0.420  10.597   8.094  1.8701  3.9306 -1.6853
  950MOL0     H31064   0.777  10.645   8.242  1.9725  1.8203 -0.8608
  950MOL0     H31065   0.677  10.572   8.119 -0.9336  1.3280 -1.5599
  950MOL0     H31066   0.921  10.689   8.047  2.6839  4.0121 -0.6795
  950MOL0     H31067   0.781  10.734   7.954  2.7639 -3.9699 -0.8753
  950MOL0     H31068   0.750  10.938   8.066 -1.3703 -1.5052  0.5391
  950MOL0     H31069   0.925  10.914   8.035  0.1181  1.9401  1.6096
  950MOL0     H31070   0.953  10.837   8.255  0.3750  0.1615  1.1939
  950MOL0     H31071   0.801  10.868   8.304  3.8494 -1.9791  2.3846
  950MOL0     H31072   1.011  11.095   8.222  0.7516 -0.5589  1.0529
  950MOL0     H31073   0.832  11.111   8.251 -2.1405 -2.4143 -0.3334
  950MOL0     H31074   1.042  10.972   8.430 -3.4562 -4.6774 -2.6193
  950MOL0     H31075   0.885  11.012   8.480 -3.3764  4.3604 -1.7950
  950MOL0     H31076   0.919  11.265   8.449 -0.3863  1.1951  2.3072
  950MOL0     H31077   1.080  11.224   8.409 -0.2712 -1.7958 -1.2157
  950MOL0     H31078   1.103  11.117   8.638 -0.3460  0.0824 -0.2711
  950MOL0     H31079   0.935  11.164   8.671  0.6932 -0.4127  0.2924
  950MOL0     H31080   0.567  10.805   8.427  1.7849  0.5503 -1.3790
  950MOL0     H31081   0.382  10.744   8.556 -0.4125 -1.4594  0.4005
  950MOL0     H31082  -0.216  10.567   8.405  2.3144  2.5223 -0.9688
  950MOL0     H31083  -0.385  10.460   8.540  0.3717 -1.9611  1.2766
  950MOL0     H31084   0.767  10.300   9.686  0.2351 -1.1409  1.7481
  950MOL0     H31085   0.909  10.095   9.677  0.2759  0.8763  0.8870
  950MOL0     H31086   0.687   9.540   9.611  0.3254  2.7777 -2.7545
  950MOL0     H31087   0.776   9.300   9.597  0.5602  0.2889 -3.5174
  950MOL0     H31088   1.204   9.272   9.749 -0.1804  1.5760 -2.5611
  950MOL0     H31089   1.066   9.192   9.815 -1.5966  0.0184 -0.9713
  950MOL0     H31090   1.269   9.050   9.628  1.4990  4.0105  0.6100
  950MOL0     H31091   1.102   9.001   9.660 -0.1177  0.3866  0.1772
  950MOL0     H31092   1.296   9.052   9.897 -0.3789  0.3817  1.6808
  950MOL0     H31093   1.136   8.973   9.887 -0.1210 -0.4835 -0.3094
  950MOL0     H31094   1.269   8.810   9.727 -0.6979  3.5260 -1.4096
  950MOL0     H31095   1.292   8.781   9.903  1.3579 -1.3928 -1.2684
  950MOL0     H31096   1.658   8.876   9.721  0.3405 -2.0443  1.2106
  950MOL0     H31097   1.169   9.467   9.618  0.2471  0.7776  1.4985
  950MOL0     H31098   1.095   9.818   9.690  0.7469 -0.1098  0.8026
  950MOL0     H31099   1.207   9.704   9.644 -0.1627  0.4041 -2.0434
  950MOL0     H31100   1.110   9.770   9.517 -0.6805 -0.9151 -1.8450
  951MOL0     O31101   0.446   8.948   0.299  0.4427 -0.2069  0.2919
  951MOL0     C31102   0.422   8.879   0.400  0.2588 -0.3485  0.7580
  951MOL0     O31103   0.498   8.897   0.512  0.4520 -0.2134  0.3522
  951MOL0     C31104   0.614   8.962   0.517  0.4457  1.1751 -0.8079
  951MOL0     C31105   0.716   8.886   0.473 -0.8605  0.7171  0.4923
  951MOL0     C31106   0.840   8.948   0.471  0.0717  0.2102 -0.6741
  951MOL0     C31107   0.857   9.078   0.521  0.1843  0.8812 -0.8541
  951MOL0     O31108   0.980   9.137   0.538 -0.2824  0.1450  0.2729
  951MOL0     C31109   1.090   9.090   0.452 -0.0738 -0.1115  0.8104
  951MOL0     C31110   1.187   9.209   0.443 -0.3310 -0.3800 -0.0926
  951MOL0     C31111   1.264   9.225   0.582  0.4497 -0.0305  0.0153
  951MOL0     C31112   1.364   9.339   0.582  0.3545 -0.6005 -0.3772
  951MOL0     C31113   1.448   9.364   0.722  0.0277  0.3097  0.1732
  951MOL0     C31114   1.554   9.466   0.714 -0.0569  0.5514 -0.1706
  951MOL0     C31115   1.640   9.476   0.843 -0.0392  0.0996  0.2539
  951MOL0     C31116   1.735   9.594   0.826  0.7433  0.2806  0.3223
  951MOL0     N31117   1.839   9.549   0.731 -0.2172  0.8764 -0.8573
  951MOL0     C31118   1.913   9.430   0.734  1.0949 -0.0189  0.6740
  951MOL0     C31119   1.961   9.426   0.604 -0.0129 -0.0794  0.3848
  951MOL0     C31120   2.029   9.313   0.535 -0.4875  1.1193 -0.6697
  951MOL0     C31121   1.943   9.200   0.500 -0.9909  0.2285 -0.3126
  951MOL0     C31122   1.885   9.208   0.361 -0.3423 -0.1454  0.5682
  951MOL0     C31123   1.789   9.096   0.323 -0.4156 -0.1597  0.0493
  951MOL0     O31124   1.684   9.069   0.423  0.2456  0.0232  0.6188
  951MOL0     C31125   1.583   8.984   0.383  0.1498  1.1021 -0.3731
  951MOL0     C31126   1.561   8.944   0.243  0.0629  0.7327 -0.8742
  951MOL0     C31127   1.465   8.840   0.204  0.3637 -0.8827 -0.1661
  951MOL0     C31128   1.455   8.796   0.065 -0.0788 -1.0645  0.4787
  951MOL0     C31129   1.388   8.796   0.304 -0.3423 -0.1252  0.1583
  951MOL0     C31130   1.266   8.723   0.269  0.5839 -0.2832  0.4380
  951MOL0     O31131   1.148   8.799   0.275 -0.1852  0.2641  0.0320
  951MOL0     C31132   1.032   8.732   0.263  0.1266  0.0632 -0.5226
  951MOL0     C31133   1.002   8.620   0.344  0.2445  0.3072  0.6722
  951MOL0     C31134   0.873   8.572   0.337  0.0909  0.7575 -0.4764
  951MOL0     C31135   0.771   8.635   0.254 -0.7431  0.7495 -0.0599
  951MOL0     O31136   0.641   8.591   0.234 -0.2508  0.9853  1.1703
  951MOL0     C31137   0.601   8.467   0.293 -1.0036 -0.0548  0.6753
  951MOL0     C31138   0.445   8.442   0.279 -0.9191 -0.1639 -0.4396
  951MOL0     C31139   0.403   8.409   0.133 -0.0805 -0.5936 -1.0771
  951MOL0     C31140   0.250   8.374   0.133 -0.2441 -0.4450 -0.8298
  951MOL0     C31141   0.193   8.367  -0.012  0.2491  0.3658  0.0332
  951MOL0     C31142   0.062   8.291  -0.004 -0.0526  0.0555  0.1782
  951MOL0     C31143  -0.049   8.340   0.090 -0.0061  0.0535 -0.1553
  951MOL0     C31144  -0.081   8.485   0.062 -0.0805  0.6025 -0.3623
  951MOL0    Cl31145  -0.233   8.528   0.137 -0.3819 -0.2316  0.0357
  951MOL0     C31146   0.800   8.756   0.192 -0.6378  0.3555 -0.3511
  951MOL0     C31147   0.928   8.806   0.205  0.9196 -0.0411 -0.7988
  951MOL0     O31148   1.287   8.611   0.216 -0.4567  0.4268  0.0500
  951MOL0     C31149   1.399   8.836   0.440 -0.0513  0.0976 -0.3919
  951MOL0     C31150   1.486   8.936   0.476 -0.8446 -0.6505 -0.2913
  951MOL0     N31151   1.944   9.550   0.536 -0.2169  0.8706  0.2960
  951MOL0     N31152   1.868   9.618   0.616  0.1850  0.5310 -0.0557
  951MOL0     C31153   0.750   9.149   0.576 -0.4148 -0.2592 -0.1255
  951MOL0     C31154   0.628   9.091   0.562 -0.1927 -0.4836 -0.1896
  951MOL0     C31155   0.307   8.788   0.412  0.2448 -0.2429  0.5628
  951MOL0     C31156   0.309   8.700   0.522 -0.2001 -1.0734 -0.8260
  951MOL0     C31157   0.192   8.625   0.547 -0.8786  0.0975  0.0127
  951MOL0     C31158   0.087   8.621   0.459  0.2694  0.4547  0.8677
  951MOL0     O31159  -0.022   8.534   0.466 -0.6643 -0.4330 -0.4960
  951MOL0     C31160  -0.057   8.458   0.582 -0.6663 -0.0620 -0.1633
  951MOL0     C31161  -0.009   8.322   0.572  0.9630 -1.3090 -0.3330
  951MOL0     C31162  -0.107   8.237   0.482 -1.1375  0.4321  0.7615
  951MOL0     C31163  -0.230   8.185   0.553  0.2169  0.6097 -0.0894
  951MOL0     C31164  -0.196   8.070   0.633  0.6506  0.4139 -0.0631
  951MOL0     C31165  -0.164   7.985   0.710 -0.2509 -0.4416  0.2985
  951MOL0     C31166   0.091   8.693   0.349  0.6762  0.5837 -0.2535
  951MOL0     C31167   0.190   8.788   0.326  0.1238  0.5769  0.2581
  951MOL0     C31168   0.174   8.877   0.199 -0.7059  0.5053 -0.4649
  951MOL0     H31169   0.714   8.779   0.451  1.0985  0.6145  0.6129
  951MOL0     H31170   0.926   8.897   0.429  0.6483 -1.6669  2.4653
  951MOL0     H31171   1.071   9.073   0.346  1.2659  0.0351  0.5271
  951MOL0     H31172   1.134   9.000   0.494 -0.2256 -1.1419 -1.1433
  951MOL0     H31173   1.263   9.180   0.370 -0.8457  2.7276 -2.0468
  951MOL0     H31174   1.146   9.305   0.412 -0.0506 -0.4013 -0.5269
  951MOL0     H31175   1.191   9.250   0.659  0.7311  1.4194 -0.1654
  951MOL0     H31176   1.312   9.130   0.610 -3.1874 -2.8721 -2.3716
  951MOL0     H31177   1.433   9.333   0.497  0.7778  1.6053 -0.2707
  951MOL0     H31178   1.300   9.425   0.560  2.6041  0.6249 -2.8848
  951MOL0     H31179   1.473   9.261   0.750 -2.2315  0.4561  3.2750
  951MOL0     H31180   1.374   9.400   0.795 -1.0044 -0.4650 -0.4490
  951MOL0     H31181   1.617   9.435   0.630 -0.8584 -1.5893 -0.0485
  951MOL0     H31182   1.504   9.554   0.673 -0.1909 -1.1084 -4.0471
  951MOL0     H31183   1.692   9.382   0.862  0.5365  0.0881 -1.2101
  951MOL0     H31184   1.584   9.492   0.935 -0.0686  0.1010  0.2359
  951MOL0     H31185   1.682   9.680   0.785 -0.3771 -1.7730 -2.9479
  951MOL0     H31186   1.779   9.613   0.924  1.5012  0.0323  0.0457
  951MOL0     H31187   1.928   9.360   0.816 -1.5962  0.1086  1.3875
  951MOL0     H31188   2.087   9.266   0.615 -2.8408 -0.7938  0.0690
  951MOL0     H31189   2.098   9.356   0.462  3.7181 -0.0632  2.2652
  951MOL0     H31190   1.996   9.105   0.508 -2.9951 -0.8248  1.2641
  951MOL0     H31191   1.855   9.199   0.564  1.3279 -0.1734  3.1277
  951MOL0     H31192   1.839   9.305   0.343  4.2478  2.2229  0.1883
  951MOL0     H31193   1.965   9.193   0.288 -2.1714 -0.0192 -1.5361
  951MOL0     H31194   1.744   9.127   0.228  0.6781  3.2218  0.4862
  951MOL0     H31195   1.853   9.009   0.308 -0.2883  0.0474 -0.6635
  951MOL0     H31196   1.599   9.013   0.168  0.2375  1.9070  0.2652
  951MOL0     H31197   1.350   8.806   0.038  1.1130  2.7267 -4.4504
  951MOL0     H31198   1.491   8.693   0.066 -1.9012 -1.7428  2.5764
  951MOL0     H31199   1.512   8.850  -0.012  0.1211 -1.9586 -0.0140
  951MOL0     H31200   1.075   8.571   0.408  1.4422 -0.5660 -1.2733
  951MOL0     H31201   0.837   8.487   0.394 -1.2186  0.0433 -2.2678
  951MOL0     H31202   0.657   8.382   0.252  1.3254 -0.2604  3.9168
  951MOL0     H31203   0.626   8.472   0.400  1.3648 -3.1238  0.4037
  951MOL0     H31204   0.423   8.366   0.355  0.4601  1.1564  1.3784
  951MOL0     H31205   0.381   8.524   0.312 -3.2094 -1.4447 -1.5071
  951MOL0     H31206   0.466   8.330   0.091 -1.6254 -1.0243 -2.6722
  951MOL0     H31207   0.407   8.499   0.072 -2.8558 -2.7388 -4.8522
  951MOL0     H31208   0.196   8.448   0.192  0.7852  0.1809 -0.6377
  951MOL0     H31209   0.230   8.277   0.179  2.9139 -0.0021  1.8704
  951MOL0     H31210   0.181   8.468  -0.051 -2.3596  0.3421  0.6443
  951MOL0     H31211   0.262   8.313  -0.077 -0.7367 -1.1142  0.1750
  951MOL0     H31212   0.074   8.184   0.012  0.3099 -0.2507 -1.8118
  951MOL0     H31213   0.032   8.295  -0.110  0.2487  0.4028  0.1055
  951MOL0     H31214  -0.002   8.331   0.188 -4.2711  0.4764  2.1611
  951MOL0     H31215  -0.138   8.278   0.081  0.6154 -0.5442 -4.6921
  951MOL0     H31216  -0.086   8.482  -0.047 -0.0518 -2.9580 -0.3873
  951MOL0     H31217  -0.002   8.555   0.093 -1.1025  2.5648 -1.9879
  951MOL0     H31218   0.729   8.812   0.131 -1.0617 -0.1624 -0.3411
  951MOL0     H31219   0.944   8.906   0.167 -1.1298  0.8567  0.5021
  951MOL0     H31220   1.327   8.794   0.510  0.3753  1.8526  1.1728
  951MOL0     H31221   1.490   8.975   0.577  1.0466 -1.0016 -0.2052
  951MOL0     H31222   0.759   9.251   0.614 -2.3128  0.3030 -1.0995
  951MOL0     H31223   0.539   9.148   0.585  0.2536  0.9230 -1.7735
  951MOL0     H31224   0.389   8.680   0.593 -2.3796 -1.8744  1.5507
  951MOL0     H31225   0.194   8.549   0.624  0.3481  1.2685  1.1787
  951MOL0     H31226  -0.018   8.513   0.668 -1.8650 -1.0431  1.0475
  951MOL0     H31227  -0.166   8.464   0.595 -0.6070 -1.4407  1.2474
  951MOL0     H31228   0.006   8.274   0.669  0.9530 -1.5194 -0.4367
  951MOL0     H31229   0.088   8.331   0.522  1.2359  0.6212  0.4221
  951MOL0     H31230  -0.141   8.301   0.399 -2.3939 -1.0090  0.1261
  951MOL0     H31231  -0.045   8.164   0.430  2.3209  1.8306  2.6007
  951MOL0     H31232  -0.309   8.157   0.482  0.1564 -0.9468  0.5656
  951MOL0     H31233  -0.289   8.258   0.610  0.2097 -1.0328  2.1356
  951MOL0     H31234  -0.118   7.907   0.768 -1.4458 -1.3151  0.1219
  951MOL0     H31235   0.008   8.687   0.280 -0.9139 -2.2746  1.6817
  951MOL0     H31236   0.068   8.886   0.174 -1.1109 -2.9342 -0.4888
  951MOL0     H31237   0.222   8.974   0.211  2.0272 -0.7699 -0.2584
  951MOL0     H31238   0.215   8.835   0.107 -2.9539  1.8315 -2.1599
  952MOL0     O31239   2.836   1.380   2.521 -0.0026  0.5381  1.0199
  952MOL0     C31240   2.847   1.262   2.556 -0.5950 -0.0395  0.4901
  952MOL0     O31241   2.739   1.183   2.584  0.1026 -0.1325 -0.4829
  952MOL0     C31242   2.623   1.253   2.600  0.4239  0.8203 -0.3544
  952MOL0     C31243   2.541   1.269   2.489 -0.1529  0.0689 -0.1957
  952MOL0     C31244   2.419   1.329   2.505  0.1523 -0.3165 -0.3361
  952MOL0     C31245   2.387   1.399   2.629  0.1296 -0.1561  0.8865
  952MOL0     O31246   2.276   1.473   2.650  0.1778 -0.1265  0.8537
  952MOL0     C31247   2.204   1.536   2.539 -0.1721  0.1775  0.9646
  952MOL0     C31248   2.277   1.662   2.504  1.6881  0.5040 -0.0248
  952MOL0     C31249   2.215   1.743   2.390 -0.1731  0.9784  0.3050
  952MOL0     C31250   2.120   1.853   2.426 -0.7139 -0.0208  0.5434
  952MOL0     C31251   2.093   1.961   2.319  0.7225 -0.5598 -0.1529
  952MOL0     C31252   2.057   1.903   2.178 -0.5125 -0.3540  0.3695
  952MOL0     C31253   2.038   2.019   2.068  0.2080 -0.3997  0.4411
  952MOL0     C31254   1.905   2.083   2.085  0.1333  0.9002  0.0210
  952MOL0     N31255   1.886   2.169   1.971 -0.2633 -0.8791 -0.6259
  952MOL0     C31256   1.900   2.135   1.840  0.3925 -0.2753  1.0502
  952MOL0     C31257   1.900   2.249   1.767  0.3687 -0.1305 -0.2835
  952MOL0     C31258   1.933   2.273   1.621  0.5715 -0.0500  0.0411
  952MOL0     C31259   2.022   2.398   1.606  0.8658 -0.5013 -0.4543
  952MOL0     C31260   2.088   2.442   1.475  0.5616 -0.0150 -0.9741
  952MOL0     C31261   2.230   2.395   1.464  0.5647 -0.4043 -0.0181
  952MOL0     O31262   2.319   2.440   1.573 -0.0097  0.0375 -0.1561
  952MOL0     C31263   2.434   2.376   1.600 -0.2985 -1.2634 -0.2683
  952MOL0     C31264   2.473   2.254   1.550  0.0396 -0.4120 -0.2989
  952MOL0     C31265   2.606   2.192   1.566 -0.2123  0.2834 -0.2120
  952MOL0     C31266   2.624   2.055   1.507  0.0352  0.4206 -0.0948
  952MOL0     C31267   2.707   2.262   1.632  0.4691  1.2307 -0.1543
  952MOL0     C31268   2.840   2.204   1.676 -0.6141 -0.5238  0.1593
  952MOL0     O31269   2.886   2.103   1.593 -0.2611 -0.6871  0.6247
  952MOL0     C31270   3.024   2.080   1.583  1.1441  0.5795  0.1464
  952MOL0     C31271   3.124   2.074   1.679  0.2828 -0.6041 -0.7883
  952MOL0     C31272   3.254   2.035   1.651  1.3514  0.4572 -0.7556
  952MOL0     C31273   3.294   2.002   1.522  0.6753 -0.0916 -0.2282
  952MOL0     O31274   3.425   1.977   1.491  0.6720 -0.4367  1.2840
  952MOL0     C31275   3.507   1.912   1.599 -0.2649  0.3890  0.3327
  952MOL0     C31276   3.630   1.845   1.549 -0.0249  0.1489  1.0770
  952MOL0     C31277   3.680   1.895   1.410 -0.5052  0.4447  0.2031
  952MOL0     C31278   3.647   1.805   1.295  0.8899  0.0955  0.5104
  952MOL0     C31279   3.500   1.756   1.281  0.0602 -0.7016  0.0151
  952MOL0     C31280   3.479   1.689   1.152 -0.5851  0.2566 -0.0506
  952MOL0     C31281   3.341   1.620   1.139  0.1053 -0.4379 -0.0810
  952MOL0     C31282   3.232   1.721   1.177 -0.8080 -0.7573 -0.1424
  952MOL0    Cl31283   3.065   1.675   1.108  0.0550 -1.1215  0.4844
  952MOL0     C31284   3.201   2.010   1.422 -0.1247  0.4483 -0.4318
  952MOL0     C31285   3.064   2.046   1.451 -0.4018  0.0682 -0.2447
  952MOL0     O31286   2.907   2.246   1.774  0.9466  0.1419  0.1283
  952MOL0     C31287   2.664   2.386   1.692 -0.0973  0.5410 -0.8797
  952MOL0     C31288   2.533   2.436   1.679 -0.1985 -0.6423  0.4990
  952MOL0     N31289   1.890   2.351   1.858 -0.0335  0.5303  0.3046
  952MOL0     N31290   1.872   2.305   1.973 -0.0525  1.8741 -0.3592
  952MOL0     C31291   2.474   1.380   2.739  0.5957  0.4765  0.3208
  952MOL0     C31292   2.585   1.304   2.718  0.1842  0.1662 -0.0660
  952MOL0     C31293   2.993   1.205   2.551  0.1315  0.0736 -0.2943
  952MOL0     C31294   3.104   1.284   2.516 -0.3296 -0.1864  0.4363
  952MOL0     C31295   3.235   1.235   2.501 -0.8163 -0.3981 -0.7150
  952MOL0     C31296   3.260   1.099   2.531 -0.3233 -0.5121 -0.5089
  952MOL0     O31297   3.397   1.070   2.536  0.2846  0.3050  0.3102
  952MOL0     C31298   3.432   0.936   2.576 -0.5792 -0.3449 -1.3123
  952MOL0     C31299   3.577   0.912   2.571 -0.2876 -0.0090  0.2939
  952MOL0     C31300   3.638   0.936   2.437 -1.1679 -0.7848  0.5249
  952MOL0     C31301   3.663   1.082   2.415 -0.4539 -0.4674  0.9522
  952MOL0     C31302   3.764   1.123   2.317 -0.2277 -0.0909  0.5581
  952MOL0     C31303   3.820   1.150   2.215  0.8534 -0.3143 -0.3654
  952MOL0     C31304   3.154   1.015   2.572 -0.0949  0.2811  0.0385
  952MOL0     C31305   3.020   1.067   2.586  0.2340 -0.1988 -0.4687
  952MOL0     C31306   2.911   0.970   2.653  0.2568  0.9986 -0.1396
  952MOL0     H31307   2.572   1.235   2.391  2.0634  1.9366 -0.2467
  952MOL0     H31308   2.349   1.319   2.423  0.4082 -1.0411 -0.4721
  952MOL0     H31309   2.102   1.566   2.565 -0.0084  1.4075  0.2706
  952MOL0     H31310   2.193   1.462   2.459 -4.2332 -1.9730  3.1659
  952MOL0     H31311   2.271   1.721   2.595 -1.8126  0.2271  0.0890
  952MOL0     H31312   2.382   1.637   2.491  1.4582 -0.2635 -0.4992
  952MOL0     H31313   2.303   1.782   2.338 -0.9413 -1.0524 -2.8108
  952MOL0     H31314   2.150   1.686   2.322 -2.2678  4.0269 -0.4583
  952MOL0     H31315   2.034   1.802   2.471 -0.3374  0.3659  1.7318
  952MOL0     H31316   2.158   1.905   2.514 -2.2534 -0.6896  1.6497
  952MOL0     H31317   2.188   2.015   2.311  1.2725 -0.9422  2.8302
  952MOL0     H31318   2.013   2.020   2.364  0.9412 -1.4146  1.4282
  952MOL0     H31319   2.129   1.828   2.143 -0.3471  0.5918 -1.4532
  952MOL0     H31320   1.960   1.853   2.180 -0.8787  0.3767  1.9354
  952MOL0     H31321   2.048   1.977   1.968  1.5460  2.2406 -0.6303
  952MOL0     H31322   2.112   2.099   2.080 -3.3637  3.4591 -0.8567
  952MOL0     H31323   1.830   2.004   2.077  0.0072  1.2012 -3.3993
  952MOL0     H31324   1.900   2.141   2.178 -0.3144  3.3158 -1.3986
  952MOL0     H31325   1.913   2.032   1.807 -0.2582  0.4505 -1.7873
  952MOL0     H31326   1.838   2.274   1.565 -0.2152  1.2166  1.3204
  952MOL0     H31327   1.988   2.186   1.585 -0.6342 -0.8307  0.0078
  952MOL0     H31328   1.951   2.475   1.636  0.0726 -1.0143 -0.9923
  952MOL0     H31329   2.096   2.402   1.686  1.8316 -0.5882 -1.3130
  952MOL0     H31330   2.029   2.408   1.390 -2.8940 -0.2092  1.2852
  952MOL0     H31331   2.089   2.550   1.458  3.3224 -0.3597 -3.9989
  952MOL0     H31332   2.224   2.285   1.469 -0.2095 -0.3694 -0.0985
  952MOL0     H31333   2.268   2.429   1.368  2.1221 -2.4387 -0.1966
  952MOL0     H31334   2.397   2.201   1.493 -1.0173  0.5491  0.1800
  952MOL0     H31335   2.677   2.063   1.411 -1.6658  0.9930 -1.0351
  952MOL0     H31336   2.526   2.010   1.487 -1.1600  2.4696  0.8122
  952MOL0     H31337   2.681   1.990   1.574 -3.4985 -3.1312 -0.1403
  952MOL0     H31338   3.104   2.098   1.784  1.4391 -0.9514 -0.4754
  952MOL0     H31339   3.317   2.038   1.739  0.2786  1.4177  0.0181
  952MOL0     H31340   3.536   1.990   1.669 -0.0856 -1.0807  1.9559
  952MOL0     H31341   3.460   1.831   1.655  2.4095 -1.8038 -0.3578
  952MOL0     H31342   3.704   1.843   1.629 -0.7420 -1.7248  1.7466
  952MOL0     H31343   3.610   1.740   1.528  2.0148  0.2772 -2.2100
  952MOL0     H31344   3.787   1.922   1.408 -1.1396  3.3232  0.5990
  952MOL0     H31345   3.630   1.992   1.400 -0.1375  1.0389  3.1812
  952MOL0     H31346   3.701   1.711   1.310 -0.4434 -0.4901  1.8038
  952MOL0     H31347   3.676   1.861   1.205 -0.4160 -0.5822 -0.3623
  952MOL0     H31348   3.467   1.685   1.357  1.9628 -0.4249  1.1419
  952MOL0     H31349   3.435   1.843   1.287  1.2124  0.0662  2.5996
  952MOL0     H31350   3.542   1.600   1.138 -1.6321 -0.6030  0.5479
  952MOL0     H31351   3.500   1.748   1.063  2.9523 -1.1378 -0.3142
  952MOL0     H31352   3.322   1.533   1.203  1.1782  1.1537  2.5738
  952MOL0     H31353   3.328   1.588   1.035  2.4407 -3.3080  0.3742
  952MOL0     H31354   3.256   1.806   1.113 -1.6618  0.2894  0.8959
  952MOL0     H31355   3.238   1.759   1.279 -1.4018 -0.3469 -0.2578
  952MOL0     H31356   3.234   1.971   1.325  0.0392 -0.0945 -0.1633
  952MOL0     H31357   2.998   2.051   1.365  0.3328  0.4620 -0.7880
  952MOL0     H31358   2.743   2.429   1.753  1.6257 -1.7786 -1.3469
  952MOL0     H31359   2.490   2.532   1.707  0.6885 -0.4495  1.2797
  952MOL0     H31360   2.457   1.437   2.830 -0.5513  2.7631 -1.2218
  952MOL0     H31361   2.658   1.282   2.795 -1.7333 -2.6361  1.0894
  952MOL0     H31362   3.077   1.385   2.487  2.0887  0.1260 -0.9994
  952MOL0     H31363   3.325   1.282   2.465 -0.1133 -3.2834 -3.1538
  952MOL0     H31364   3.398   0.929   2.680 -0.7370 -1.8640 -1.4504
  952MOL0     H31365   3.366   0.864   2.528  0.2435 -2.3560  0.4127
  952MOL0     H31366   3.584   0.804   2.592 -0.4915 -0.6417 -2.5527
  952MOL0     H31367   3.638   0.965   2.645  1.7015 -0.6627 -0.7980
  952MOL0     H31368   3.738   0.891   2.432 -2.3281 -3.6868  1.2244
  952MOL0     H31369   3.561   0.893   2.372 -3.8824  1.3878  2.0867
  952MOL0     H31370   3.692   1.125   2.511  3.2885  1.2327 -0.7506
  952MOL0     H31371   3.567   1.132   2.397 -1.9374 -2.8284  1.8276
  952MOL0     H31372   3.865   1.156   2.117 -0.4870 -0.1066 -0.9900
  952MOL0     H31373   3.161   0.913   2.606 -3.3954 -0.8127 -2.0579
  952MOL0     H31374   2.839   1.004   2.728 -2.7643 -0.0737 -2.3475
  952MOL0     H31375   2.854   0.915   2.578 -0.9753 -0.9335  2.0733
  952MOL0     H31376   2.976   0.899   2.706  1.7509  3.0540  0.9094
  953MOL0     O31377   6.525   2.601   2.621 -0.5726 -0.3766  0.4389
  953MOL0     C31378   6.513   2.551   2.512  0.4696 -0.0394 -0.0398
  953MOL0     O31379   6.597   2.455   2.468  0.0762  0.6033 -0.4767
  953MOL0     C31380   6.683   2.386   2.546  0.5458  0.8982  0.1151
  953MOL0     C31381   6.815   2.415   2.562 -1.1975 -0.0423  0.5496
  953MOL0     C31382   6.906   2.339   2.637  1.1474 -0.6745  0.0209
  953MOL0     C31383   6.860   2.237   2.720  0.2463 -0.1638  0.5032
  953MOL0     O31384   6.933   2.169   2.810  0.1466  0.7193  0.2274
  953MOL0     C31385   7.056   2.229   2.859  0.2036 -0.0115  0.6624
  953MOL0     C31386   7.123   2.138   2.967 -0.5794  0.8517  0.9391
  953MOL0     C31387   7.089   1.993   2.983  0.3150 -0.1469  0.1220
  953MOL0     C31388   7.173   1.917   3.087 -0.1461  0.2631  0.2654
  953MOL0     C31389   7.153   1.952   3.232  0.3711 -0.6356  0.0508
  953MOL0     C31390   7.260   1.889   3.331 -0.5513 -0.1444 -0.7926
  953MOL0     C31391   7.402   1.936   3.296 -0.8924 -0.7425  0.2963
  953MOL0     C31392   7.502   1.872   3.391  0.3933 -0.1445  0.4540
  953MOL0     N31393   7.527   1.728   3.352 -0.1978  0.5969  0.7499
  953MOL0     C31394   7.485   1.624   3.429  0.4561 -0.7055 -0.0625
  953MOL0     C31395   7.561   1.528   3.397 -0.4524  0.7542  0.1950
  953MOL0     C31396   7.543   1.399   3.482 -1.0346  0.9934  0.7849
  953MOL0     C31397   7.654   1.288   3.446  0.3289 -1.1542  0.2285
  953MOL0     C31398   7.798   1.330   3.478  0.5998  0.0006 -0.1554
  953MOL0     C31399   7.900   1.220   3.518 -0.9619  0.3093  0.1233
  953MOL0     O31400   7.902   1.107   3.426 -0.4172 -0.6622  0.0647
  953MOL0     C31401   7.978   0.997   3.454  0.6467  0.2903 -0.1742
  953MOL0     C31402   8.051   0.977   3.567  0.2729  0.1835 -0.8874
  953MOL0     C31403   8.117   0.863   3.590  0.5647  0.7605 -0.2530
  953MOL0     C31404   8.182   0.836   3.726  0.7639 -0.5326  0.0413
  953MOL0     C31405   8.117   0.758   3.490 -0.2020  0.3993  0.3310
  953MOL0     C31406   8.183   0.621   3.518  0.3168 -1.0061 -0.6561
  953MOL0     O31407   8.099   0.524   3.485 -0.2329  0.1346 -0.3995
  953MOL0     C31408   8.140   0.401   3.458  0.4976 -0.1219 -0.1586
  953MOL0     C31409   8.183   0.354   3.333  0.5351 -0.0788  0.7197
  953MOL0     C31410   8.195   0.221   3.296 -1.4429 -0.6974  0.1158
  953MOL0     C31411   8.162   0.129   3.395 -0.0292  0.0639  0.4284
  953MOL0     O31412   8.157  -0.005   3.379 -0.0720  0.3898 -0.6856
  953MOL0     C31413   8.035  -0.062   3.337  0.2499  0.1774  0.2678
  953MOL0     C31414   8.014  -0.198   3.401 -1.1786  0.2286  1.0928
  953MOL0     C31415   8.104  -0.313   3.329  0.2900  0.0193 -0.0216
  953MOL0     C31416   8.128  -0.428   3.427  0.5650  0.5773 -0.3498
  953MOL0     C31417   8.248  -0.520   3.384 -0.4264 -0.3079 -0.8351
  953MOL0     C31418   8.277  -0.641   3.472 -0.0632  0.2105 -0.5287
  953MOL0     C31419   8.366  -0.743   3.419  1.2119  0.1745 -0.1615
  953MOL0     C31420   8.301  -0.833   3.303  0.3566  0.6889 -0.1870
  953MOL0    Cl31421   8.434  -0.910   3.201 -0.3562 -0.1817 -0.2750
  953MOL0     C31422   8.111   0.166   3.522 -0.5741 -0.0441  0.2157
  953MOL0     C31423   8.102   0.299   3.549  0.3333 -0.1628  0.2756
  953MOL0     O31424   8.302   0.611   3.567  0.0352  0.4478  0.0860
  953MOL0     C31425   8.049   0.773   3.372 -0.6783 -0.3224  0.8188
  953MOL0     C31426   7.979   0.895   3.357 -0.9426 -0.8573  0.5291
  953MOL0     N31427   7.640   1.551   3.290  0.2405 -0.1372  0.0287
  953MOL0     N31428   7.627   1.679   3.269 -0.2563 -0.3352 -0.3758
  953MOL0     C31429   6.726   2.201   2.707  0.3706 -0.0975 -0.9155
  953MOL0     C31430   6.641   2.274   2.617  1.0566  0.0432 -0.1519
  953MOL0     C31431   6.417   2.607   2.420  0.3147 -0.8150 -0.2062
  953MOL0     C31432   6.370   2.531   2.311 -0.3378  0.4466 -0.5218
  953MOL0     C31433   6.276   2.567   2.223 -0.0333 -0.2451  1.0896
  953MOL0     C31434   6.205   2.690   2.244  0.6825  0.8373 -0.2171
  953MOL0     O31435   6.095   2.727   2.173 -0.6443 -0.4280 -0.9532
  953MOL0     C31436   6.024   2.630   2.101  0.4134 -1.2181 -0.7890
  953MOL0     C31437   5.899   2.706   2.029  0.0108 -0.1097  0.7852
  953MOL0     C31438   5.810   2.789   2.121 -0.2763 -0.1707 -0.1660
  953MOL0     C31439   5.863   2.911   2.193 -1.2065 -0.2854 -0.0308
  953MOL0     C31440   5.920   3.008   2.093  0.7357 -0.2021  0.6075
  953MOL0     C31441   5.970   3.084   2.020  0.4759 -1.4194 -0.0071
  953MOL0     C31442   6.244   2.765   2.356  0.6363  0.5946 -0.0576
  953MOL0     C31443   6.342   2.727   2.443 -0.3530 -0.2170 -0.1138
  953MOL0     C31444   6.357   2.819   2.567  0.0734  0.1234  1.0197
  953MOL0     H31445   6.863   2.488   2.498  1.0594 -1.2360  0.7788
  953MOL0     H31446   7.007   2.372   2.656 -0.8480  7.0307  0.7272
  953MOL0     H31447   7.044   2.331   2.896 -5.4918 -0.2688  0.4059
  953MOL0     H31448   7.121   2.222   2.771 -1.0945 -0.7929 -0.2727
  953MOL0     H31449   7.232   2.142   2.963 -0.5108 -0.0482  1.5578
  953MOL0     H31450   7.094   2.200   3.053 -1.3421  1.6986  0.0945
  953MOL0     H31451   6.983   1.984   3.006  0.3092 -1.9695 -0.4889
  953MOL0     H31452   7.104   1.945   2.886 -1.7872 -0.5314 -0.0508
  953MOL0     H31453   7.146   1.811   3.087 -5.1038  1.2477  0.7751
  953MOL0     H31454   7.277   1.925   3.054  0.5353 -1.6472  1.7517
  953MOL0     H31455   7.052   1.925   3.264  0.5282 -1.8915 -0.4675
  953MOL0     H31456   7.149   2.059   3.251 -2.7262 -0.5316 -0.6601
  953MOL0     H31457   7.227   1.909   3.433  1.7015  4.4296 -0.7076
  953MOL0     H31458   7.268   1.780   3.320 -3.9780 -0.5964 -0.0812
  953MOL0     H31459   7.408   2.045   3.307 -0.1586 -0.4722 -2.2296
  953MOL0     H31460   7.432   1.912   3.194 -0.2699 -4.0937  1.1355
  953MOL0     H31461   7.598   1.923   3.383 -0.2881  1.0701 -0.2846
  953MOL0     H31462   7.469   1.884   3.494  2.5854 -1.4935  1.3685
  953MOL0     H31463   7.412   1.636   3.509  1.1016  1.8663  0.2123
  953MOL0     H31464   7.446   1.354   3.460 -1.7815  2.8437  0.1244
  953MOL0     H31465   7.536   1.411   3.590  0.0532 -4.6282  1.8291
  953MOL0     H31466   7.617   1.214   3.517 -1.2897 -0.7237 -0.1192
  953MOL0     H31467   7.645   1.245   3.346 -2.2325 -3.2845  1.2578
  953MOL0     H31468   7.841   1.375   3.389  0.9175 -0.8649 -0.4529
  953MOL0     H31469   7.794   1.394   3.567 -2.8970 -0.9142  0.4909
  953MOL0     H31470   8.001   1.259   3.536 -1.6824  2.4391 -0.1028
  953MOL0     H31471   7.867   1.180   3.615 -5.0783  5.7036  1.4457
  953MOL0     H31472   8.041   1.046   3.650 -0.8840 -1.6478  0.5908
  953MOL0     H31473   8.148   0.921   3.785  1.2488  1.3580 -2.2382
  953MOL0     H31474   8.292   0.836   3.727  0.7806 -1.1955  1.1733
  953MOL0     H31475   8.147   0.744   3.775  2.4927 -1.7958 -0.9496
  953MOL0     H31476   8.215   0.427   3.259  0.7790  0.1887  1.0853
  953MOL0     H31477   8.250   0.212   3.202 -3.3533 -0.3544 -1.0830
  953MOL0     H31478   7.950  -0.004   3.374 -2.4089 -2.2425 -1.5315
  953MOL0     H31479   8.030  -0.076   3.228  2.1986 -4.3946  0.5195
  953MOL0     H31480   8.050  -0.194   3.505  0.1602  4.9411  0.6442
  953MOL0     H31481   7.906  -0.217   3.404 -1.2244 -0.0098 -1.0551
  953MOL0     H31482   8.203  -0.277   3.301  1.7579 -1.7375  2.5141
  953MOL0     H31483   8.051  -0.345   3.239  0.1392  3.3531 -1.2663
  953MOL0     H31484   8.032  -0.480   3.425  1.6934 -1.6354 -0.1067
  953MOL0     H31485   8.155  -0.391   3.526  0.4996 -0.4034  0.0436
  953MOL0     H31486   8.229  -0.554   3.282 -0.7686  2.0325 -1.6233
  953MOL0     H31487   8.337  -0.458   3.373 -0.5886 -0.0377 -0.6554
  953MOL0     H31488   8.189  -0.700   3.502  0.9255 -1.5533 -0.9487
  953MOL0     H31489   8.316  -0.607   3.568 -2.8070  2.3967 -0.0376
  953MOL0     H31490   8.384  -0.811   3.503 -3.6992 -1.8581 -0.4353
  953MOL0     H31491   8.459  -0.698   3.383  1.8969 -0.4314  0.7968
  953MOL0     H31492   8.247  -0.763   3.239  1.8927  2.1323  0.0138
  953MOL0     H31493   8.251  -0.918   3.349  0.9573 -1.1012 -2.6225
  953MOL0     H31494   8.073   0.097   3.596 -2.0794  1.4223  0.8717
  953MOL0     H31495   8.040   0.318   3.636  0.4647 -1.0711  0.5814
  953MOL0     H31496   8.039   0.682   3.313 -0.6832 -1.2082  2.1498
  953MOL0     H31497   7.929   0.918   3.264  2.0766  1.5368 -0.6994
  953MOL0     H31498   6.702   2.129   2.785 -0.5926  2.7683  1.6912
  953MOL0     H31499   6.536   2.249   2.622  1.4756 -1.8278  0.2502
  953MOL0     H31500   6.417   2.433   2.299  0.5935  0.5378  1.8941
  953MOL0     H31501   6.251   2.490   2.151  4.2082  0.7417 -1.8077
  953MOL0     H31502   6.087   2.586   2.024  1.9872  0.4417 -0.5378
  953MOL0     H31503   5.998   2.544   2.163 -1.2073 -0.0478  0.2466
  953MOL0     H31504   5.826   2.639   1.983  1.6675 -2.3722  1.3056
  953MOL0     H31505   5.941   2.768   1.949 -0.6353  0.5733  0.9666
  953MOL0     H31506   5.719   2.821   2.068 -0.3364  0.9426  0.5715
  953MOL0     H31507   5.779   2.720   2.199 -4.2216  0.3544 -1.0680
  953MOL0     H31508   5.943   2.883   2.262  0.9364 -1.6078 -2.8746
  953MOL0     H31509   5.775   2.954   2.243  0.0136  2.9351 -0.3841
  953MOL0     H31510   5.998   3.168   1.960 -1.5999  0.0473  0.9417
  953MOL0     H31511   6.195   2.861   2.372  2.2443  1.1710  1.9546
  953MOL0     H31512   6.462   2.846   2.587  0.6477  0.0571 -1.5056
  953MOL0     H31513   6.295   2.908   2.554 -1.7600 -1.4644 -2.4303
  953MOL0     H31514   6.319   2.757   2.648  5.2478 -1.3137  2.7648
  954MOL0     O31515   1.233   5.753  11.592  0.4735  0.6929 -0.5721
  954MOL0     C31516   1.324   5.822  11.550 -0.6314 -1.0956 -0.9574
  954MOL0     O31517   1.362   5.949  11.602 -0.0057  0.3664  0.4743
  954MOL0     C31518   1.279   5.988  11.701 -0.1521 -1.2393 -0.4123
  954MOL0     C31519   1.147   6.011  11.660  0.7265 -0.0466 -0.4576
  954MOL0     C31520   1.054   6.046  11.763  0.9314 -0.1424  0.1250
  954MOL0     C31521   1.092   6.075  11.896  0.4030 -0.1452  0.2569
  954MOL0     O31522   1.001   6.102  11.995 -0.3670 -0.3521 -0.1465
  954MOL0     C31523   0.997   6.239  12.034  0.3359 -1.3783  1.0011
  954MOL0     C31524   0.911   6.315  11.926 -0.1121 -0.0690  0.1963
  954MOL0     C31525   0.885   6.457  11.975  0.2127  1.0015  0.2308
  954MOL0     C31526   0.761   6.513  11.907 -1.3180  0.0422 -0.7985
  954MOL0     C31527   0.724   6.655  11.950  1.4341 -0.0801 -0.4604
  954MOL0     C31528   0.638   6.627  12.061  0.0586 -0.4544 -0.4895
  954MOL0     C31529   0.576   6.763  12.100 -0.0834  0.3376 -0.0493
  954MOL0     C31530   0.488   6.736  12.220  0.5357  0.1468 -0.4524
  954MOL0     N31531   0.418   6.863  12.251 -0.6136  0.4994 -0.1444
  954MOL0     C31532   0.478   6.968  12.319  0.1497  0.3216 -0.2851
  954MOL0     C31533   0.387   7.064  12.318  0.3804 -0.0449  0.2304
  954MOL0     C31534   0.407   7.202  12.373  0.3918 -0.3125  0.1236
  954MOL0     C31535   0.347   7.215  12.518  0.5780  0.3605 -0.6445
  954MOL0     C31536   0.396   7.108  12.627  0.2505 -0.4228 -0.2776
  954MOL0     C31537   0.534   7.137  12.680  0.3931 -0.0612 -0.2709
  954MOL0     O31538   0.641   7.085  12.593 -0.6466  0.7724  0.2887
  954MOL0     C31539   0.731   7.015  12.669 -0.2307  0.5706 -0.2262
  954MOL0     C31540   0.691   6.883  12.698  0.8181  0.0615 -0.0950
  954MOL0     C31541   0.779   6.790  12.749 -0.2066  0.3036 -0.4383
  954MOL0     C31542   0.728   6.649  12.765  1.0475  0.5591  0.0846
  954MOL0     C31543   0.918   6.827  12.771 -0.4942 -0.2550  0.0883
  954MOL0     C31544   1.034   6.752  12.821 -0.0003  0.8590 -1.1436
  954MOL0     O31545   1.032   6.620  12.792 -0.1175 -0.7746  1.3266
  954MOL0     C31546   1.089   6.526  12.873 -0.2749 -0.2248 -0.6488
  954MOL0     C31547   1.160   6.419  12.808  0.5216  0.7993 -0.3179
  954MOL0     C31548   1.220   6.323  12.884  0.2480  0.7244 -0.5198
  954MOL0     C31549   1.220   6.342  13.024 -0.0642  0.8971 -0.2021
  954MOL0     O31550   1.293   6.256  13.103  0.0783 -0.1851 -0.7574
  954MOL0     C31551   1.427   6.205  13.052  1.1754 -0.0441  0.7919
  954MOL0     C31552   1.416   6.058  12.996 -0.8386  0.3050 -0.1135
  954MOL0     C31553   1.548   6.008  12.937  0.4542 -0.2878 -0.6386
  954MOL0     C31554   1.557   5.855  12.906  0.1871 -0.4976  1.0180
  954MOL0     C31555   1.696   5.805  12.860  0.6646  0.5090 -0.2852
  954MOL0     C31556   1.700   5.650  12.820 -0.2704  0.4112  0.2538
  954MOL0     C31557   1.809   5.606  12.720  1.2189  0.7497 -0.3252
  954MOL0     C31558   1.951   5.604  12.770  0.0083  0.1195  0.2585
  954MOL0    Cl31559   1.963   5.493  12.909 -0.4683 -0.3969  0.1521
  954MOL0     C31560   1.146   6.439  13.084 -0.1561  0.8271  0.6226
  954MOL0     C31561   1.078   6.536  13.013 -0.0845  0.0441 -0.0280
  954MOL0     O31562   1.129   6.803  12.882  0.0272 -0.5010 -0.1404
  954MOL0     C31563   0.947   6.963  12.734 -0.8248  0.5191 -0.0111
  954MOL0     C31564   0.864   7.052  12.673  0.2192 -0.0732 -0.6142
  954MOL0     N31565   0.274   7.021  12.250 -0.3923 -0.3178 -0.1099
  954MOL0     N31566   0.294   6.904  12.216  0.0089  0.3933  0.5693
  954MOL0     C31567   1.224   6.062  11.928 -0.1563  0.0129  0.5365
  954MOL0     C31568   1.317   6.025  11.830 -0.3347  0.9339 -1.4883
  954MOL0     C31569   1.402   5.777  11.426 -0.1721 -0.3478  0.5512
  954MOL0     C31570   1.461   5.874  11.343  0.1508  0.0555 -0.2292
  954MOL0     C31571   1.523   5.842  11.227  0.5329  0.6730 -0.1280
  954MOL0     C31572   1.525   5.714  11.184  0.8572  1.0175 -0.4553
  954MOL0     O31573   1.594   5.678  11.074  0.4107 -0.4764 -0.6248
  954MOL0     C31574   1.585   5.763  10.961  0.0183  0.8533 -0.1190
  954MOL0     C31575   1.716   5.822  10.941 -0.0855 -0.8361  0.4704
  954MOL0     C31576   1.696   5.939  10.837 -0.0600 -0.2795 -0.5145
  954MOL0     C31577   1.816   6.037  10.826 -0.5604 -0.1785 -0.1544
  954MOL0     C31578   1.941   5.990  10.757  0.1040  1.0881 -0.1979
  954MOL0     C31579   2.039   5.938  10.713 -0.4642 -0.5695 -0.1391
  954MOL0     C31580   1.479   5.615  11.268  0.6908 -0.1465 -0.5103
  954MOL0     C31581   1.410   5.643  11.388  0.0239 -0.4916  0.0013
  954MOL0     C31582   1.397   5.539  11.497 -0.6492  0.3542 -0.2605
  954MOL0     H31583   1.108   5.991  11.561 -2.0561  1.8711  0.1358
  954MOL0     H31584   0.948   6.066  11.769  1.1815  0.8535  2.2613
  954MOL0     H31585   1.097   6.273  12.061 -0.5492 -0.4098  3.3468
  954MOL0     H31586   0.939   6.249  12.126 -1.9040 -1.0317 -0.3437
  954MOL0     H31587   0.980   6.315  11.841 -1.7414  0.8941 -1.1657
  954MOL0     H31588   0.828   6.247  11.906  0.5889 -0.6951 -0.6745
  954MOL0     H31589   0.884   6.464  12.084  2.4685  0.6053  0.3304
  954MOL0     H31590   0.958   6.531  11.940 -0.6399  1.9935  0.4817
  954MOL0     H31591   0.795   6.521  11.803  0.1347  3.2974 -0.1782
  954MOL0     H31592   0.681   6.440  11.926  0.1817 -1.6229 -0.6886
  954MOL0     H31593   0.675   6.705  11.866  0.3257  0.6224  0.5775
  954MOL0     H31594   0.815   6.709  11.977  2.3259 -1.7520  0.0652
  954MOL0     H31595   0.550   6.562  12.051  0.6374 -1.7260  1.9785
  954MOL0     H31596   0.698   6.585  12.143 -0.6693 -2.5303 -0.9451
  954MOL0     H31597   0.523   6.807  12.015  1.6223  2.3802 -0.1428
  954MOL0     H31598   0.655   6.833  12.130 -2.5594  2.5859  1.6400
  954MOL0     H31599   0.410   6.661  12.206 -3.3642  3.9462 -1.3058
  954MOL0     H31600   0.532   6.707  12.315 -1.8301  1.4148  1.1267
  954MOL0     H31601   0.576   6.975  12.365 -0.4539  0.1732  1.0910
  954MOL0     H31602   0.356   7.281  12.317  0.7672  0.7403  1.2062
  954MOL0     H31603   0.513   7.231  12.367  0.0889  0.5405 -1.7295
  954MOL0     H31604   0.372   7.313  12.560 -0.9931 -0.0861  1.5392
  954MOL0     H31605   0.238   7.214  12.502  0.3590  1.0031  0.6341
  954MOL0     H31606   0.327   7.129  12.710  0.2999  3.0640 -0.9890
  954MOL0     H31607   0.369   7.006  12.598 -3.7351 -0.3641  2.4646
  954MOL0     H31608   0.566   7.235  12.717 -1.2559  0.0528  1.0210
  954MOL0     H31609   0.517   7.081  12.773 -7.4419  0.0254 -0.9390
  954MOL0     H31610   0.590   6.853  12.672  1.1754 -1.1679 -0.1551
  954MOL0     H31611   0.619   6.643  12.762  1.0425  1.0249 -1.3475
  954MOL0     H31612   0.748   6.603  12.862 -1.5238 -1.0974 -0.0665
  954MOL0     H31613   0.768   6.585  12.686  0.3115 -1.7120  1.4582
  954MOL0     H31614   1.160   6.398  12.702  0.8330 -2.2640  0.1792
  954MOL0     H31615   1.261   6.237  12.832 -0.9253  0.6065 -1.2671
  954MOL0     H31616   1.454   6.269  12.968 -2.5637  0.1592 -0.4869
  954MOL0     H31617   1.498   6.206  13.135  0.9497  1.6792  0.9960
  954MOL0     H31618   1.403   5.991  13.081 -0.0020 -0.1978 -0.3749
  954MOL0     H31619   1.333   6.044  12.927 -0.7327  1.1853 -0.4276
  954MOL0     H31620   1.625   6.025  13.012  0.8904  2.2393 -1.5816
  954MOL0     H31621   1.579   6.056  12.845 -0.2644 -1.2561 -1.4094
  954MOL0     H31622   1.498   5.829  12.817 -1.1731 -3.5861  2.6976
  954MOL0     H31623   1.507   5.792  12.979 -2.2412 -0.3813 -0.4124
  954MOL0     H31624   1.717   5.844  12.760  0.6106  0.5768 -0.2700
  954MOL0     H31625   1.769   5.822  12.939 -1.7211  1.3071  1.9028
  954MOL0     H31626   1.606   5.633  12.767  0.0305  2.0708 -0.8837
  954MOL0     H31627   1.697   5.581  12.905  1.2328  0.2785  0.2278
  954MOL0     H31628   1.805   5.672  12.633 -0.1207  0.8862 -0.1839
  954MOL0     H31629   1.772   5.512  12.678 -2.6710  2.3365 -0.9395
  954MOL0     H31630   1.994   5.698  12.805  1.5067  0.5132 -2.3424
  954MOL0     H31631   2.014   5.562  12.690  2.1267 -1.9593  2.8370
  954MOL0     H31632   1.164   6.438  13.191  0.2816  0.3407  0.5466
  954MOL0     H31633   1.018   6.618  13.052  1.3293  2.1182 -1.9775
  954MOL0     H31634   1.048   6.998  12.754 -0.2069  1.4765 -4.0022
  954MOL0     H31635   0.896   7.145  12.628  1.9534 -0.1657  0.3064
  954MOL0     H31636   1.257   6.104  12.023  2.9449 -1.8513  0.4317
  954MOL0     H31637   1.422   6.015  11.857 -0.5421  0.2943 -0.8725
  954MOL0     H31638   1.453   5.981  11.354 -0.2758 -0.0189  0.1966
  954MOL0     H31639   1.564   5.923  11.167  0.5134  0.1983 -0.7895
  954MOL0     H31640   1.556   5.695  10.881 -0.0206  0.0109  0.5900
  954MOL0     H31641   1.508   5.840  10.964  0.2571  1.0897  0.0578
  954MOL0     H31642   1.786   5.752  10.893 -1.5470 -2.3264  0.4215
  954MOL0     H31643   1.768   5.856  11.031  1.2194 -1.3235 -0.0682
  954MOL0     H31644   1.672   5.908  10.735  0.2393  3.7313 -1.9484
  954MOL0     H31645   1.622   6.007  10.880  0.0410 -0.3447 -0.2390
  954MOL0     H31646   1.843   6.097  10.913  0.9310 -0.5292 -0.3439
  954MOL0     H31647   1.761   6.110  10.767  0.7900  1.5162  0.6023
  954MOL0     H31648   2.118   5.878  10.673  1.4041  2.7719 -1.9374
  954MOL0     H31649   1.494   5.508  11.255  2.3434  0.1782 -1.4428
  954MOL0     H31650   1.296   5.529  11.538 -1.5685  1.3083 -2.1651
  954MOL0     H31651   1.433   5.443  11.459 -1.0045  0.8687 -1.9752
  954MOL0     H31652   1.462   5.572  11.579 -2.7230  2.5758  0.5921
  955MOL0     O31653   2.104   7.339   7.376 -0.4780  0.2401 -0.1269
  955MOL0     C31654   2.195   7.386   7.454  0.7223 -0.1911 -0.1075
  955MOL0     O31655   2.244   7.319   7.564 -0.5053  0.3689 -1.1264
  955MOL0     C31656   2.167   7.209   7.609 -0.1624 -0.4340 -0.4533
  955MOL0     C31657   2.207   7.083   7.570  0.0647  1.0001 -0.7441
  955MOL0     C31658   2.130   6.970   7.595 -0.5076  0.1154  0.1684
  955MOL0     C31659   2.019   6.985   7.678 -0.1011 -0.1060  0.0380
  955MOL0     O31660   1.942   6.879   7.707  0.1669 -0.2378  0.0544
  955MOL0     C31661   1.933   6.773   7.604  0.5345  0.1403 -0.4895
  955MOL0     C31662   1.801   6.706   7.625 -0.4594 -0.0539 -1.1782
  955MOL0     C31663   1.787   6.570   7.542 -0.4295 -0.3056  0.7197
  955MOL0     C31664   1.771   6.448   7.624  0.0521 -0.2066 -0.9745
  955MOL0     C31665   1.648   6.426   7.709  0.4573  0.3516 -0.0151
  955MOL0     C31666   1.638   6.286   7.785 -0.0844  0.2155  1.2623
  955MOL0     C31667   1.738   6.279   7.905  0.7848 -0.4161 -0.1089
  955MOL0     C31668   1.720   6.140   7.975  0.6147 -0.1811 -0.1290
  955MOL0     N31669   1.727   6.163   8.121  0.8966 -0.1818  0.0294
  955MOL0     C31670   1.612   6.216   8.187 -0.3588  0.5782 -0.0542
  955MOL0     C31671   1.639   6.190   8.312  0.5956  0.4495  0.0413
  955MOL0     C31672   1.534   6.225   8.419  0.5272 -0.4220  1.0899
  955MOL0     C31673   1.447   6.346   8.396 -0.1663  0.0496 -0.0327
  955MOL0     C31674   1.528   6.480   8.373 -0.1724  0.0569  0.8969
  955MOL0     C31675   1.431   6.595   8.372  0.8929  0.3069  0.3588
  955MOL0     O31676   1.487   6.698   8.291  0.0699 -0.8981 -0.3746
  955MOL0     C31677   1.466   6.705   8.157 -0.0582 -0.7427 -0.0485
  955MOL0     C31678   1.338   6.710   8.090  0.6582  0.1532  0.2241
  955MOL0     C31679   1.329   6.718   7.950  0.5321  0.3906 -0.6231
  955MOL0     C31680   1.181   6.717   7.892 -0.5810 -0.0323  0.0611
  955MOL0     C31681   1.443   6.735   7.869 -0.0044  0.3229  0.6003
  955MOL0     C31682   1.440   6.753   7.724  1.3778  0.3489  0.4183
  955MOL0     O31683   1.479   6.880   7.685 -0.0577 -0.5615 -0.3970
  955MOL0     C31684   1.440   6.941   7.575  0.1365 -0.7585 -0.2148
  955MOL0     C31685   1.369   6.898   7.462  0.2793  0.0986  0.5076
  955MOL0     C31686   1.352   6.979   7.347 -0.0738  0.5335  0.3291
  955MOL0     C31687   1.391   7.113   7.349  0.0151 -0.2716  0.1590
  955MOL0     O31688   1.349   7.179   7.226  0.6872 -0.3244 -0.2728
  955MOL0     C31689   1.354   7.318   7.222 -0.9713 -1.0060 -0.2284
  955MOL0     C31690   1.229   7.384   7.279  0.5750 -0.6138  0.5440
  955MOL0     C31691   1.228   7.531   7.251 -0.0466 -0.1340 -0.1867
  955MOL0     C31692   1.102   7.601   7.305 -1.2424  0.0578  0.0436
  955MOL0     C31693   1.094   7.751   7.299  0.1227  1.2295 -1.1748
  955MOL0     C31694   0.968   7.798   7.381 -0.1398 -0.7907 -0.4024
  955MOL0     C31695   0.843   7.760   7.299  0.3616 -0.5726 -0.7372
  955MOL0     C31696   0.720   7.842   7.366 -0.3856  0.0399 -0.1113
  955MOL0    Cl31697   0.733   8.022   7.362 -0.2807  0.5396  0.1629
  955MOL0     C31698   1.456   7.163   7.465 -0.0765 -0.8030  0.3960
  955MOL0     C31699   1.487   7.074   7.578 -0.2037  0.7158  1.3117
  955MOL0     O31700   1.406   6.659   7.651 -0.0514  0.2233 -0.3158
  955MOL0     C31701   1.569   6.732   7.940 -0.4317 -0.8417  0.2461
  955MOL0     C31702   1.576   6.710   8.072 -0.4418 -0.4944 -0.2921
  955MOL0     N31703   1.756   6.123   8.324 -0.3768 -0.9611  0.4582
  955MOL0     N31704   1.813   6.108   8.211 -0.5059 -0.2626  0.7630
  955MOL0     C31705   1.958   7.113   7.691 -0.2321 -0.1390  1.0988
  955MOL0     C31706   2.039   7.221   7.665 -0.2624 -0.1661  0.1402
  955MOL0     C31707   2.250   7.515   7.423 -0.6048 -0.1398 -0.4120
  955MOL0     C31708   2.273   7.539   7.283 -0.2784 -0.6180 -0.0241
  955MOL0     C31709   2.324   7.660   7.242 -0.8689 -0.4227  0.9278
  955MOL0     C31710   2.362   7.762   7.331  0.3129 -0.0837  0.0546
  955MOL0     O31711   2.391   7.888   7.296 -0.0003  0.0880 -0.7304
  955MOL0     C31712   2.404   7.929   7.155  0.7499 -0.0633 -0.5971
  955MOL0     C31713   2.420   8.082   7.145  0.5216 -0.1965 -0.6075
  955MOL0     C31714   2.568   8.130   7.164  0.6928  0.9021  1.5063
  955MOL0     C31715   2.589   8.272   7.205 -0.3302  0.4368 -0.5895
  955MOL0     C31716   2.591   8.272   7.356 -0.7587 -0.6346  0.7672
  955MOL0     C31717   2.589   8.287   7.478  0.6793 -0.6571 -0.9573
  955MOL0     C31718   2.339   7.739   7.471  0.3534  0.3223  0.3142
  955MOL0     C31719   2.294   7.618   7.518  0.7022  0.7272 -0.2260
  955MOL0     C31720   2.271   7.591   7.679  0.1456 -0.3192  0.7986
  955MOL0     H31721   2.299   7.079   7.512  0.0191 -3.7825 -0.8563
  955MOL0     H31722   2.174   6.875   7.567  1.7490  0.2025  2.9568
  955MOL0     H31723   2.019   6.709   7.621  2.3110  2.6226  0.5827
  955MOL0     H31724   1.925   6.814   7.503 -0.8426 -0.3351 -0.5905
  955MOL0     H31725   1.793   6.685   7.732 -2.6476 -0.2709 -1.3315
  955MOL0     H31726   1.714   6.763   7.590 -1.6857 -2.3232 -2.0324
  955MOL0     H31727   1.695   6.581   7.484 -0.9999 -2.6121  1.0790
  955MOL0     H31728   1.873   6.551   7.477 -0.8083 -1.0263  0.4154
  955MOL0     H31729   1.777   6.351   7.573  2.5477  0.4674 -2.0854
  955MOL0     H31730   1.847   6.444   7.702 -0.5995  0.4937 -0.2878
  955MOL0     H31731   1.554   6.441   7.656  0.6270 -3.0791 -1.4838
  955MOL0     H31732   1.630   6.500   7.788  0.6291  1.0733 -0.6346
  955MOL0     H31733   1.538   6.278   7.827  0.0923 -0.3802  1.5801
  955MOL0     H31734   1.668   6.207   7.715 -0.6158  1.5587 -0.5530
  955MOL0     H31735   1.711   6.357   7.977  0.6879 -1.0987  0.6010
  955MOL0     H31736   1.841   6.289   7.870  0.9607 -2.5754 -0.3617
  955MOL0     H31737   1.615   6.112   7.960 -0.0533  2.0601  0.0641
  955MOL0     H31738   1.795   6.073   7.932 -0.7255 -0.2625 -2.5463
  955MOL0     H31739   1.518   6.253   8.146 -0.7941  0.2174  0.6045
  955MOL0     H31740   1.588   6.232   8.514  5.1549  0.5752 -1.3596
  955MOL0     H31741   1.466   6.139   8.422  1.6920 -1.3385  1.8825
  955MOL0     H31742   1.384   6.331   8.307 -0.0359  1.9526 -0.4906
  955MOL0     H31743   1.390   6.366   8.487 -0.2000  1.8141 -0.3925
  955MOL0     H31744   1.603   6.506   8.447  0.6688 -0.9245  0.4159
  955MOL0     H31745   1.575   6.480   8.274  3.7198  4.2320  2.4014
  955MOL0     H31746   1.328   6.572   8.341  0.0355  0.7703  2.6512
  955MOL0     H31747   1.420   6.623   8.477 -1.9714  0.2163  0.1797
  955MOL0     H31748   1.249   6.686   8.148  1.6752  1.5020  2.4789
  955MOL0     H31749   1.124   6.797   7.940 -0.7497 -0.6378  0.9053
  955MOL0     H31750   1.130   6.624   7.918  1.8112 -1.8487 -1.2919
  955MOL0     H31751   1.178   6.738   7.785 -2.3034  1.7677  0.3999
  955MOL0     H31752   1.336   6.795   7.449  1.8155 -0.1301 -2.6082
  955MOL0     H31753   1.314   6.939   7.254  1.7100  1.5025 -0.8892
  955MOL0     H31754   1.445   7.356   7.270 -0.9178 -1.5401  0.0956
  955MOL0     H31755   1.368   7.352   7.119  0.0558  0.1641  0.2673
  955MOL0     H31756   1.144   7.333   7.233  1.0791  1.4908 -3.0910
  955MOL0     H31757   1.225   7.366   7.387  0.8517  1.7650  1.0167
  955MOL0     H31758   1.226   7.547   7.143 -3.0887  0.7095 -0.0976
  955MOL0     H31759   1.322   7.573   7.289  1.4496 -1.4510 -2.2353
  955MOL0     H31760   1.076   7.582   7.410 -1.3165  0.2801  0.0665
  955MOL0     H31761   1.019   7.562   7.246 -1.7087 -2.9462  2.4106
  955MOL0     H31762   1.185   7.784   7.349  0.5537 -2.2505  0.6886
  955MOL0     H31763   1.090   7.796   7.199  2.9790  0.0513 -1.9116
  955MOL0     H31764   0.971   7.907   7.383  1.3633 -0.7111 -2.7896
  955MOL0     H31765   0.965   7.766   7.486  2.0273 -0.5908 -0.2382
  955MOL0     H31766   0.826   7.652   7.301  1.7856 -0.8564  3.1642
  955MOL0     H31767   0.851   7.795   7.195  0.7229 -2.8028 -1.5134
  955MOL0     H31768   0.705   7.829   7.474 -1.2237  1.2777 -0.0590
  955MOL0     H31769   0.624   7.816   7.321 -0.3815 -1.2887  0.6084
  955MOL0     H31770   1.479   7.268   7.456 -0.8688 -0.5627  1.0554
  955MOL0     H31771   1.526   7.092   7.678 -0.3141  1.0844  1.2887
  955MOL0     H31772   1.664   6.754   7.892 -0.6528 -3.1088 -1.3710
  955MOL0     H31773   1.672   6.711   8.123 -1.5761  1.9813  2.0513
  955MOL0     H31774   1.855   7.141   7.708 -0.4958  0.6098 -1.3153
  955MOL0     H31775   1.989   7.317   7.667 -2.9487 -1.4726  0.3216
  955MOL0     H31776   2.239   7.465   7.210 -1.2251  0.3446 -0.5867
  955MOL0     H31777   2.310   7.665   7.135 -3.3762 -4.4706  0.8494
  955MOL0     H31778   2.478   7.866   7.104  0.1237  0.6266 -2.4068
  955MOL0     H31779   2.314   7.909   7.097  0.3686  1.1106 -0.4389
  955MOL0     H31780   2.358   8.118   7.228 -1.7548 -3.6809 -0.5763
  955MOL0     H31781   2.390   8.120   7.046  0.7566 -1.9023 -1.3570
  955MOL0     H31782   2.611   8.056   7.232  0.4492 -0.0516  0.6514
  955MOL0     H31783   2.605   8.118   7.062 -2.3290 -0.5415  0.4609
  955MOL0     H31784   2.508   8.328   7.156 -0.4531 -0.3637 -1.3407
  955MOL0     H31785   2.686   8.301   7.163 -1.0745  0.9399 -2.0424
  955MOL0     H31786   2.578   8.300   7.584  1.7606  0.4128 -0.9595
  955MOL0     H31787   2.351   7.829   7.529  1.9233 -0.3244  1.0383
  955MOL0     H31788   2.172   7.551   7.701  0.5086 -0.8801  1.4377
  955MOL0     H31789   2.344   7.516   7.713  2.0056  1.3779  0.7804
  955MOL0     H31790   2.283   7.673   7.749 -0.3310 -0.8626  1.5292
  956MOL0     O31791   0.198   2.429   8.627  0.0742  0.2066 -0.0849
  956MOL0     C31792   0.241   2.406   8.742  0.3733 -0.3436  0.2991
  956MOL0     O31793   0.158   2.374   8.840  0.5227 -0.3126 -0.3420
  956MOL0     C31794   0.033   2.333   8.807  0.1893 -0.7651  0.0656
  956MOL0     C31795  -0.063   2.424   8.779 -0.1511  0.2142 -0.1398
  956MOL0     C31796  -0.199   2.382   8.760 -0.0169  0.0815 -0.0317
  956MOL0     C31797  -0.238   2.250   8.783 -0.0202  0.4322 -0.7326
  956MOL0     O31798  -0.372   2.226   8.772 -0.6769 -0.6465 -0.1781
  956MOL0     C31799  -0.427   2.100   8.739  0.4227  0.5537  0.1407
  956MOL0     C31800  -0.554   2.094   8.636  0.2878 -0.1509 -1.0036
  956MOL0     C31801  -0.512   2.147   8.498 -0.2254  0.3086 -0.1882
  956MOL0     C31802  -0.639   2.158   8.415 -0.9006  0.4920  0.9991
  956MOL0     C31803  -0.604   2.159   8.266  0.4492  0.3262  0.3755
  956MOL0     C31804  -0.512   2.265   8.218 -0.1198 -0.5810 -1.1543
  956MOL0     C31805  -0.458   2.230   8.073 -0.3678  0.2116  0.0438
  956MOL0     C31806  -0.391   2.333   7.987 -0.0732 -0.3348  0.5083
  956MOL0     N31807  -0.345   2.275   7.860 -1.4851  0.0886 -0.8826
  956MOL0     C31808  -0.423   2.263   7.746 -0.4861 -0.2785  0.7125
  956MOL0     C31809  -0.358   2.174   7.672 -0.5388 -0.8574  1.1292
  956MOL0     C31810  -0.399   2.140   7.533 -1.0966 -0.2338  0.3117
  956MOL0     C31811  -0.425   2.264   7.447 -1.0568  0.5019 -0.0811
  956MOL0     C31812  -0.297   2.334   7.417  0.5988 -0.9571 -1.0401
  956MOL0     C31813  -0.195   2.247   7.347  0.1155 -0.8034  0.7022
  956MOL0     O31814  -0.104   2.179   7.428 -0.7179 -0.7511 -0.7643
  956MOL0     C31815   0.006   2.117   7.367  0.3943 -0.2578 -0.1482
  956MOL0     C31816   0.092   2.055   7.454 -0.9731 -0.7571  1.0474
  956MOL0     C31817   0.210   1.986   7.403  0.2883  0.3435 -0.9055
  956MOL0     C31818   0.306   1.939   7.512 -0.4830  0.0606  0.0054
  956MOL0     C31819   0.234   1.992   7.268 -0.2600  0.8138  0.4027
  956MOL0     C31820   0.353   1.932   7.204  0.0980 -0.5464 -0.9268
  956MOL0     O31821   0.471   1.998   7.214 -0.0697 -0.0757  0.6734
  956MOL0     C31822   0.587   1.925   7.233  0.2703 -0.5113 -0.4845
  956MOL0     C31823   0.593   1.805   7.298  0.4825  0.6347 -0.1954
  956MOL0     C31824   0.720   1.755   7.335 -0.0954  0.2608  0.8826
  956MOL0     C31825   0.841   1.807   7.279 -0.2362 -0.8878  0.1437
  956MOL0     O31826   0.959   1.738   7.303  0.2495  0.4410  0.4551
  956MOL0     C31827   1.072   1.763   7.214 -0.0925 -1.3743 -0.1275
  956MOL0     C31828   1.174   1.646   7.248 -0.4398 -0.9051  0.3871
  956MOL0     C31829   1.296   1.648   7.139  0.2083 -0.3972 -0.7018
  956MOL0     C31830   1.393   1.528   7.156 -1.0431 -0.6137  0.3954
  956MOL0     C31831   1.331   1.393   7.111 -0.4606 -0.4259 -0.5641
  956MOL0     C31832   1.331   1.356   6.966 -0.4305  0.1277 -1.2780
  956MOL0     C31833   1.189   1.390   6.908  0.8409  0.4155 -0.9608
  956MOL0     C31834   1.204   1.390   6.759  0.1208  0.0237  0.1922
  956MOL0    Cl31835   1.285   1.552   6.719  0.2253  0.1989 -0.0326
  956MOL0     C31836   0.827   1.928   7.220 -0.8975 -0.3783  0.2574
  956MOL0     C31837   0.702   1.993   7.202  0.0079  0.1161  0.7229
  956MOL0     O31838   0.327   1.812   7.148 -0.8375 -1.0526 -0.8821
  956MOL0     C31839   0.141   2.056   7.179 -0.6381  0.7739 -0.0324
  956MOL0     C31840   0.028   2.120   7.226 -0.4212  0.0167 -0.3342
  956MOL0     N31841  -0.260   2.123   7.749 -0.6722  0.4326 -0.2784
  956MOL0     N31842  -0.246   2.183   7.856  0.1050 -0.1151 -0.0036
  956MOL0     C31843  -0.134   2.154   8.798  0.0408 -0.1929  0.0620
  956MOL0     C31844   0.002   2.199   8.819 -1.2035 -0.5687 -0.5393
  956MOL0     C31845   0.378   2.409   8.778 -0.8770  0.8772 -0.3287
  956MOL0     C31846   0.410   2.452   8.909 -0.0702  0.5201  0.1897
  956MOL0     C31847   0.542   2.478   8.954 -0.2218 -0.0249 -0.4944
  956MOL0     C31848   0.646   2.463   8.867  1.2144 -0.1577  0.8589
  956MOL0     O31849   0.779   2.468   8.886  0.0503  0.2278 -1.1520
  956MOL0     C31850   0.822   2.467   9.026  0.3705  0.7076  0.0414
  956MOL0     C31851   0.974   2.444   9.020 -0.0159 -0.0015 -0.3895
  956MOL0     C31852   1.039   2.435   9.156 -0.3087 -0.3632 -1.1619
  956MOL0     C31853   1.192   2.446   9.128 -1.6317 -1.0071 -0.3263
  956MOL0     C31854   1.251   2.415   9.258 -0.9862 -0.9491 -0.8449
  956MOL0     C31855   1.297   2.372   9.363  0.7191  1.1990  0.4570
  956MOL0     C31856   0.614   2.414   8.745  0.0728  0.3901  0.7707
  956MOL0     C31857   0.483   2.389   8.688 -0.4172 -0.4888 -0.5933
  956MOL0     C31858   0.471   2.326   8.554  0.1482  0.2774 -0.4422
  956MOL0     H31859  -0.036   2.528   8.762 -1.1241  0.9590  2.3738
  956MOL0     H31860  -0.278   2.454   8.743  0.4308  1.1014  1.8938
  956MOL0     H31861  -0.470   2.067   8.833 -0.0156 -2.7174 -1.0744
  956MOL0     H31862  -0.362   2.021   8.700  0.5551  0.3661  0.7368
  956MOL0     H31863  -0.576   1.987   8.636  2.4059 -0.7543  2.3682
  956MOL0     H31864  -0.643   2.146   8.673 -0.3173 -0.9660 -1.2830
  956MOL0     H31865  -0.443   2.232   8.495  1.1568 -0.6827  1.7748
  956MOL0     H31866  -0.443   2.072   8.458  0.2561  1.1526 -0.9658
  956MOL0     H31867  -0.709   2.078   8.441 -0.2899 -1.8375 -3.5561
  956MOL0     H31868  -0.685   2.256   8.432  0.6569  1.5793 -0.6764
  956MOL0     H31869  -0.696   2.175   8.210  1.3117 -0.1829 -1.2487
  956MOL0     H31870  -0.563   2.061   8.241  2.5498  1.6510 -1.9047
  956MOL0     H31871  -0.565   2.359   8.204 -0.1394 -0.7556 -2.3662
  956MOL0     H31872  -0.428   2.272   8.288 -1.4017 -2.4510  0.7020
  956MOL0     H31873  -0.543   2.212   8.007 -1.5270 -1.8314  1.9523
  956MOL0     H31874  -0.386   2.148   8.080  2.7952  2.1920 -4.4479
  956MOL0     H31875  -0.452   2.421   7.966  0.8034  0.0537 -0.5142
  956MOL0     H31876  -0.312   2.368   8.055 -0.7740  0.0286  1.1478
  956MOL0     H31877  -0.497   2.338   7.719 -0.3409  0.6735  2.7887
  956MOL0     H31878  -0.495   2.088   7.533 -0.6028 -1.5620 -3.8189
  956MOL0     H31879  -0.331   2.066   7.490  1.7971  1.4853  1.6627
  956MOL0     H31880  -0.464   2.227   7.352  2.4170 -0.7469 -1.1746
  956MOL0     H31881  -0.494   2.331   7.499 -0.2677  0.6853  0.7661
  956MOL0     H31882  -0.326   2.420   7.357 -0.2710 -0.6988 -0.2738
  956MOL0     H31883  -0.253   2.371   7.510 -0.5555 -1.9003 -0.0734
  956MOL0     H31884  -0.239   2.177   7.275  1.9528 -0.9147 -0.3874
  956MOL0     H31885  -0.150   2.318   7.276 -4.5559  0.8812 -0.9622
  956MOL0     H31886   0.060   2.030   7.555  0.0820 -1.6589  1.1716
  956MOL0     H31887   0.340   1.842   7.475 -2.7165 -1.3750  1.5099
  956MOL0     H31888   0.257   1.943   7.610 -0.5482  0.4241 -0.0413
  956MOL0     H31889   0.395   2.002   7.504 -1.8360  2.0250 -0.3684
  956MOL0     H31890   0.498   1.770   7.338  0.6944  2.4500  2.0944
  956MOL0     H31891   0.720   1.666   7.396  1.1360  1.3467  2.5806
  956MOL0     H31892   1.040   1.754   7.110 -0.1188 -1.5244 -0.1062
  956MOL0     H31893   1.123   1.857   7.235  3.8920 -3.6653  1.7093
  956MOL0     H31894   1.218   1.671   7.345 -1.1630 -2.0325  1.0241
  956MOL0     H31895   1.129   1.547   7.248 -3.7237  0.4353 -1.3978
  956MOL0     H31896   1.349   1.741   7.159 -0.5807 -0.2453  0.7685
  956MOL0     H31897   1.257   1.670   7.039 -0.4789  3.5833  0.2735
  956MOL0     H31898   1.409   1.528   7.264 -4.0309  1.5076  0.9280
  956MOL0     H31899   1.479   1.556   7.094  0.0006 -0.4328  1.8692
  956MOL0     H31900   1.403   1.334   7.168  2.0684  3.4170  0.5752
  956MOL0     H31901   1.232   1.383   7.157  0.3558  1.8583  1.9625
  956MOL0     H31902   1.359   1.251   6.958  0.1344 -0.1373  2.2482
  956MOL0     H31903   1.407   1.409   6.908  1.0124 -1.3807 -0.8222
  956MOL0     H31904   1.154   1.487   6.945 -1.5157 -1.9736  4.0782
  956MOL0     H31905   1.113   1.319   6.942  0.0206  0.7573 -1.9971
  956MOL0     H31906   1.111   1.383   6.703 -0.4391 -0.2015  1.1421
  956MOL0     H31907   1.273   1.310   6.729 -1.3625 -0.5553 -1.9486
  956MOL0     H31908   0.910   1.991   7.191 -0.7980 -0.3500  0.6078
  956MOL0     H31909   0.689   2.093   7.160  2.1151 -0.0541 -0.4907
  956MOL0     H31910   0.155   2.049   7.072 -1.8518 -0.5080 -0.1407
  956MOL0     H31911  -0.033   2.155   7.144 -1.1438 -2.5524 -0.9999
  956MOL0     H31912  -0.172   2.053   8.798  0.0310 -0.2506 -2.3254
  956MOL0     H31913   0.082   2.129   8.843 -0.8580 -1.3928 -3.6561
  956MOL0     H31914   0.332   2.471   8.983  1.7346  0.9296  2.0801
  956MOL0     H31915   0.565   2.501   9.057 -0.9939  2.5549 -0.8337
  956MOL0     H31916   0.789   2.558   9.077 -4.0282 -1.3117  1.2594
  956MOL0     H31917   0.780   2.386   9.086  1.6891 -0.3721 -0.4270
  956MOL0     H31918   1.016   2.527   8.962  0.8927 -0.2755 -0.1396
  956MOL0     H31919   1.001   2.362   8.954  4.9215  0.8965  0.0965
  956MOL0     H31920   1.015   2.513   9.229  2.5176 -1.8465  1.5482
  956MOL0     H31921   1.022   2.334   9.194  1.1694 -1.7243 -3.8579
  956MOL0     H31922   1.212   2.548   9.092 -0.9320 -0.6456  1.0525
  956MOL0     H31923   1.227   2.379   9.049  2.5155 -1.3656  1.5646
  956MOL0     H31924   1.349   2.343   9.452 -0.4771 -0.0805  0.7645
  956MOL0     H31925   0.693   2.393   8.674  0.7713  0.1019  1.6195
  956MOL0     H31926   0.571   2.311   8.514  0.1403  0.4679 -0.5394
  956MOL0     H31927   0.411   2.234   8.555  1.1725 -0.4037  0.7358
  956MOL0     H31928   0.427   2.397   8.483  0.1173 -2.1527 -3.0292
  957MOL0     O31929   0.988   9.575   8.583 -0.3000  0.0682 -0.3083
  957MOL0     C31930   0.948   9.621   8.688 -0.1148 -0.6855 -0.5174
  957MOL0     O31931   0.836   9.581   8.756 -0.1936 -0.8371 -0.1020
  957MOL0     C31932   0.744   9.509   8.687  0.4331  0.0128 -0.5606
  957MOL0     C31933   0.697   9.539   8.563  0.3221 -1.2794 -0.2044
  957MOL0     C31934   0.593   9.459   8.501  1.1074  0.1474  0.5668
  957MOL0     C31935   0.542   9.348   8.577  0.4675 -0.1313  0.6661
  957MOL0     O31936   0.444   9.278   8.523 -0.6568  0.7468  0.5548
  957MOL0     C31937   0.317   9.320   8.576 -0.4245  1.1999  0.8983
  957MOL0     C31938   0.226   9.222   8.515 -0.1627  0.6067 -0.1326
  957MOL0     C31939   0.214   9.100   8.595  0.5462  0.3342  0.1169
  957MOL0     C31940   0.329   8.999   8.567 -0.6425  0.3656 -1.0243
  957MOL0     C31941   0.294   8.874   8.653 -0.3505  0.4266 -0.4956
  957MOL0     C31942   0.374   8.753   8.600 -0.3380 -0.6120 -0.4499
  957MOL0     C31943   0.370   8.641   8.715 -0.9044 -0.5664 -1.2693
  957MOL0     C31944   0.442   8.520   8.653  0.1456  0.0089 -0.1752
  957MOL0     N31945   0.359   8.470   8.543  0.2070  0.5805  1.2365
  957MOL0     C31946   0.221   8.451   8.521  1.3419  0.5015  0.8622
  957MOL0     C31947   0.202   8.399   8.393  0.0485  0.1582  0.5518
  957MOL0     C31948   0.068   8.362   8.344 -0.3888  0.4805 -0.2934
  957MOL0     C31949  -0.011   8.477   8.288 -0.0124 -0.5310 -0.0381
  957MOL0     C31950  -0.128   8.431   8.196  0.6610  1.0264 -0.5834
  957MOL0     C31951  -0.099   8.407   8.047 -0.5410  0.0831  0.4319
  957MOL0     O31952  -0.227   8.436   7.989 -0.2367  0.2768 -0.3108
  957MOL0     C31953  -0.246   8.433   7.853 -0.6343 -0.1149  0.3041
  957MOL0     C31954  -0.147   8.403   7.753  0.7789 -1.5794 -0.1789
  957MOL0     C31955  -0.188   8.410   7.620 -0.8546 -0.0989 -0.4042
  957MOL0     C31956  -0.087   8.371   7.513  0.7231 -0.1000 -0.3085
  957MOL0     C31957  -0.323   8.447   7.573  1.1030 -0.0737 -0.0673
  957MOL0     C31958  -0.378   8.441   7.434 -0.6819  0.5517 -0.3318
  957MOL0     O31959  -0.513   8.468   7.438  0.1342  0.3197  0.9326
  957MOL0     C31960  -0.591   8.411   7.344 -0.4012 -0.2751  0.0320
  957MOL0     C31961  -0.558   8.292   7.277  0.4073 -0.8033  0.1467
  957MOL0     C31962  -0.657   8.245   7.191  0.9642 -0.4478  0.6322
  957MOL0     C31963  -0.785   8.300   7.181 -0.2713  0.1753 -0.3102
  957MOL0     O31964  -0.878   8.260   7.092  0.2945 -0.2971  0.2489
  957MOL0     C31965  -0.879   8.136   7.037 -0.9077  0.2433  0.2089
  957MOL0     C31966  -0.993   8.103   6.931 -0.2313 -0.0079 -1.0492
  957MOL0     C31967  -0.972   8.156   6.797  1.1508 -0.2742 -0.1973
  957MOL0     C31968  -0.860   8.090   6.722 -0.5010  0.7198 -0.4673
  957MOL0     C31969  -0.827   8.149   6.589  0.0289  0.3733  0.5153
  957MOL0     C31970  -0.938   8.117   6.484 -0.1241 -0.0386 -0.4341
  957MOL0     C31971  -0.910   8.194   6.347 -0.3783  0.6647 -0.3216
  957MOL0     C31972  -0.949   8.346   6.360  0.4611 -0.1104 -0.0531
  957MOL0    Cl31973  -0.896   8.469   6.241  0.2163 -0.0785 -0.3764
  957MOL0     C31974  -0.814   8.418   7.245 -0.3711 -0.4108 -1.1372
  957MOL0     C31975  -0.715   8.474   7.330  0.4859  1.0147 -0.5325
  957MOL0     O31976  -0.313   8.411   7.339  0.3610 -0.7053 -0.1485
  957MOL0     C31977  -0.415   8.461   7.681 -1.1084  0.3212  0.9818
  957MOL0     C31978  -0.377   8.464   7.814  0.5803 -0.7031 -0.1691
  957MOL0     N31979   0.325   8.394   8.335  0.4272  0.2780  0.1298
  957MOL0     N31980   0.419   8.438   8.423 -0.3672  0.6850 -0.3812
  957MOL0     C31981   0.590   9.327   8.711 -0.1083 -0.0092  0.5510
  957MOL0     C31982   0.686   9.415   8.767  0.5022 -0.4492 -1.2604
  957MOL0     C31983   1.005   9.751   8.707 -1.0792 -0.0593 -0.6660
  957MOL0     C31984   0.918   9.860   8.700 -0.0306  0.2407 -0.2480
  957MOL0     C31985   0.962   9.990   8.700 -0.1455  0.2570 -0.7417
  957MOL0     C31986   1.092  10.023   8.683  0.0858  0.2449  0.0450
  957MOL0     O31987   1.111  10.160   8.698 -0.2703  0.0914  0.2465
  957MOL0     C31988   1.248  10.212   8.714  0.0400  0.3196  0.5866
  957MOL0     C31989   1.245  10.366   8.744  0.6338 -0.6885  0.7228
  957MOL0     C31990   1.378  10.430   8.709  0.8560  0.4596 -1.0265
  957MOL0     C31991   1.498  10.410   8.805 -0.8975 -0.1093  1.2814
  957MOL0     C31992   1.459  10.461   8.939 -0.7131 -0.6642  0.2268
  957MOL0     C31993   1.434  10.477   9.058  0.2215  0.2427  0.3268
  957MOL0     C31994   1.182   9.919   8.695 -0.4032 -0.9774  0.3090
  957MOL0     C31995   1.148   9.786   8.696  0.8447 -0.1880 -0.0522
  957MOL0     C31996   1.258   9.677   8.702 -0.7298 -0.0958  0.3475
  957MOL0     H31997   0.755   9.616   8.514  6.6589 -4.3535  1.3977
  957MOL0     H31998   0.548   9.483   8.406 -3.3789 -0.5292  2.2474
  957MOL0     H31999   0.296   9.417   8.531 -0.9236  0.9795  0.6459
  957MOL0     H32000   0.315   9.316   8.685  1.9070  1.6709  1.0124
  957MOL0     H32001   0.130   9.274   8.512 -1.5354 -1.8142 -1.1554
  957MOL0     H32002   0.251   9.222   8.408  1.1521  2.5227  0.1071
  957MOL0     H32003   0.212   9.131   8.700 -1.9271 -1.1953  0.6081
  957MOL0     H32004   0.122   9.046   8.572  0.6514  0.2953 -0.2094
  957MOL0     H32005   0.326   8.972   8.461  1.0958 -2.6353 -0.4147
  957MOL0     H32006   0.424   9.038   8.605 -1.8531  2.4061  0.1012
  957MOL0     H32007   0.188   8.847   8.642 -1.0329  2.6827  0.0274
  957MOL0     H32008   0.303   8.903   8.757 -0.9254  0.8754 -0.5617
  957MOL0     H32009   0.321   8.716   8.512  3.0836  0.2904 -3.0799
  957MOL0     H32010   0.476   8.772   8.564  0.2390 -1.1204  0.8434
  957MOL0     H32011   0.268   8.613   8.741 -1.2265 -0.1644 -2.0728
  957MOL0     H32012   0.407   8.690   8.806  0.3092  0.3711 -2.2194
  957MOL0     H32013   0.545   8.526   8.618  0.0400 -2.5474 -1.1788
  957MOL0     H32014   0.446   8.444   8.732  1.9863  1.1362  0.8829
  957MOL0     H32015   0.140   8.482   8.585  0.2726  1.5403 -0.8992
  957MOL0     H32016   0.009   8.312   8.421  0.7225 -3.6161 -1.8509
  957MOL0     H32017   0.088   8.291   8.264  1.7105  0.6204  0.0640
  957MOL0     H32018  -0.046   8.530   8.376 -2.7441 -1.5302 -0.4499
  957MOL0     H32019   0.052   8.535   8.219 -0.1535 -0.5564 -0.1894
  957MOL0     H32020  -0.176   8.337   8.225  0.8186  0.3684 -2.3158
  957MOL0     H32021  -0.200   8.512   8.207 -0.5304 -0.3219  2.7515
  957MOL0     H32022  -0.029   8.482   8.010 -1.6605  1.8196  1.6579
  957MOL0     H32023  -0.068   8.304   8.027 -1.7693  0.0815 -1.7397
  957MOL0     H32024  -0.046   8.374   7.782  1.5267  1.5759  0.7371
  957MOL0     H32025  -0.002   8.311   7.545 -1.1404 -3.7754 -1.7057
  957MOL0     H32026  -0.071   8.470   7.469  2.6409  0.3594  1.2911
  957MOL0     H32027  -0.126   8.306   7.434  3.0989 -1.3454 -0.5386
  957MOL0     H32028  -0.463   8.239   7.277  0.9714  0.1744 -0.2932
  957MOL0     H32029  -0.639   8.162   7.124 -3.3652 -1.0967 -0.0462
  957MOL0     H32030  -0.782   8.109   6.994 -1.2423  1.7750 -1.6207
  957MOL0     H32031  -0.914   8.075   7.122 -3.3605  3.0364  1.3889
  957MOL0     H32032  -1.007   7.994   6.929 -1.6389  0.1452 -0.6489
  957MOL0     H32033  -1.093   8.131   6.963 -0.0010 -0.7707  0.4591
  957MOL0     H32034  -0.951   8.262   6.809 -0.8651  0.2333 -0.7583
  957MOL0     H32035  -1.061   8.142   6.736  1.0610 -3.8435  0.5230
  957MOL0     H32036  -0.887   7.985   6.709 -2.0568  1.1973 -1.3516
  957MOL0     H32037  -0.769   8.101   6.782  1.0541  0.6352 -2.6683
  957MOL0     H32038  -0.824   8.258   6.605 -1.9338  0.6841 -0.9264
  957MOL0     H32039  -0.729   8.119   6.551 -0.8039 -0.2247 -1.2539
  957MOL0     H32040  -1.041   8.134   6.518 -0.5156 -2.6014 -0.1227
  957MOL0     H32041  -0.927   8.008   6.472  0.8240 -0.1113  0.8302
  957MOL0     H32042  -0.969   8.151   6.265  0.8189 -4.6060  1.1817
  957MOL0     H32043  -0.804   8.182   6.324  0.2573  1.9162  1.7399
  957MOL0     H32044  -0.920   8.379   6.461  2.6211  1.4386 -1.1011
  957MOL0     H32045  -1.057   8.336   6.348  0.5890  0.6771 -2.1465
  957MOL0     H32046  -0.913   8.452   7.215 -0.5281  1.7441  1.4390
  957MOL0     H32047  -0.732   8.570   7.379 -1.3271  0.2128  0.5263
  957MOL0     H32048  -0.522   8.462   7.668 -0.9279  2.8976 -1.2777
  957MOL0     H32049  -0.447   8.477   7.896 -0.1921 -0.1728 -0.8890
  957MOL0     H32050   0.552   9.242   8.765  2.7386 -2.8347 -1.5071
  957MOL0     H32051   0.713   9.415   8.872 -0.2271 -1.3700 -1.0624
  957MOL0     H32052   0.810   9.848   8.697  0.1114 -1.1618 -3.3537
  957MOL0     H32053   0.889  10.070   8.699 -2.0016 -1.3659 -0.4030
  957MOL0     H32054   1.285  10.155   8.800  1.2514  0.8053  0.4041
  957MOL0     H32055   1.304  10.190   8.623 -1.2333  0.4831 -0.2752
  957MOL0     H32056   1.217  10.376   8.850 -0.5838 -0.3235  0.3905
  957MOL0     H32057   1.158  10.411   8.694  0.1732 -0.4852  1.6878
  957MOL0     H32058   1.406  10.401   8.607  0.2838 -2.2318 -0.4904
  957MOL0     H32059   1.356  10.536   8.696  2.8710  0.8948 -1.1043
  957MOL0     H32060   1.584  10.458   8.759 -1.5245 -0.5397 -0.3984
  957MOL0     H32061   1.530  10.305   8.811  1.7632  0.6340  1.4062
  957MOL0     H32062   1.410  10.493   9.161  1.4300 -3.0632  1.2345
  957MOL0     H32063   1.287   9.948   8.701 -0.2581 -1.3663 -0.2461
  957MOL0     H32064   1.237   9.592   8.637 -0.9500  0.6986 -0.6353
  957MOL0     H32065   1.352   9.724   8.671  0.2930 -1.9842  0.3877
  957MOL0     H32066   1.272   9.643   8.805  2.1828  0.8129  0.3647
  958MOL0     O32067   4.295   9.997   5.504  0.9379  0.6500 -0.4056
  958MOL0     C32068   4.299  10.074   5.602 -0.9821  0.7696  0.2749
  958MOL0     O32069   4.396  10.062   5.702  0.1295 -0.3695  0.1288
  958MOL0     C32070   4.464   9.944   5.726 -0.2840 -0.5684 -1.0980
  958MOL0     C32071   4.592   9.957   5.767 -0.5231 -1.6913 -0.1671
  958MOL0     C32072   4.684   9.860   5.797  1.0532 -0.1358  0.4971
  958MOL0     C32073   4.632   9.736   5.819  0.3822 -0.1321 -0.7999
  958MOL0     O32074   4.703   9.634   5.867  0.2599  0.1135  0.3470
  958MOL0     C32075   4.823   9.592   5.805 -1.1310 -1.0772  0.4120
  958MOL0     C32076   4.849   9.455   5.853  0.2695 -0.6476  0.3876
  958MOL0     C32077   4.974   9.399   5.780  0.2700  0.2526 -0.5039
  958MOL0     C32078   5.107   9.484   5.794 -0.1715  0.4261 -0.2740
  958MOL0     C32079   5.237   9.420   5.744 -0.7323 -0.5900  0.7894
  958MOL0     C32080   5.220   9.357   5.605  0.0186 -0.8845 -1.0583
  958MOL0     C32081   5.346   9.294   5.537 -0.5795  0.6923 -0.4356
  958MOL0     C32082   5.411   9.179   5.611 -1.1213 -0.2607 -0.7151
  958MOL0     N32083   5.324   9.058   5.642  1.0719 -0.8687  0.2236
  958MOL0     C32084   5.223   9.042   5.740 -0.6791 -0.7627  0.1394
  958MOL0     C32085   5.164   8.933   5.706  0.9792  0.6716  1.0101
  958MOL0     C32086   5.034   8.891   5.773 -0.5829 -0.2118  0.1724
  958MOL0     C32087   4.903   8.917   5.692 -0.7781 -0.1879 -0.1376
  958MOL0     C32088   4.878   9.063   5.681 -0.3113 -0.2896 -0.0503
  958MOL0     C32089   4.743   9.095   5.619  0.7635 -0.3627 -0.5636
  958MOL0     O32090   4.723   9.238   5.630 -1.1873 -0.1516  1.8964
  958MOL0     C32091   4.636   9.295   5.544 -0.4729 -0.4895 -0.4160
  958MOL0     C32092   4.596   9.242   5.418  0.6913  0.0043 -0.3313
  958MOL0     C32093   4.512   9.318   5.327  0.6328  0.1598 -0.7189
  958MOL0     C32094   4.500   9.257   5.191  1.2980  0.3380 -0.3171
  958MOL0     C32095   4.460   9.446   5.364  0.5344 -0.4673 -0.5372
  958MOL0     C32096   4.360   9.520   5.285  0.0081 -0.1847  0.5181
  958MOL0     O32097   4.397   9.639   5.256  0.1473 -1.5397  1.1691
  958MOL0     C32098   4.335   9.695   5.141  0.3869 -0.6163 -0.7374
  958MOL0     C32099   4.280   9.824   5.148 -0.2226 -1.1910 -0.2224
  958MOL0     C32100   4.214   9.892   5.040 -0.4523 -0.4018 -0.4177
  958MOL0     C32101   4.214   9.826   4.917 -0.7049 -0.8091 -0.2005
  958MOL0     O32102   4.130   9.886   4.825  0.3312  0.2957 -0.4517
  958MOL0     C32103   4.192   9.946   4.713  0.6718 -0.8268 -0.5251
  958MOL0     C32104   4.087  10.047   4.653  0.7349  0.0252 -0.4002
  958MOL0     C32105   4.099  10.198   4.698  0.3387  0.2308 -0.9842
  958MOL0     C32106   4.101  10.206   4.856 -1.1071 -0.2013  0.6631
  958MOL0     C32107   4.096  10.353   4.898  0.9522 -0.0821 -0.0915
  958MOL0     C32108   4.133  10.371   5.043  0.0313 -0.0875  0.0547
  958MOL0     C32109   4.083  10.506   5.098  0.3905 -0.8409  0.5587
  958MOL0     C32110   4.129  10.622   5.017  1.1380 -0.8277  0.4921
  958MOL0    Cl32111   4.081  10.783   5.079  0.3006  0.0560 -0.1939
  958MOL0     C32112   4.281   9.703   4.898  0.9506 -0.8844  0.3178
  958MOL0     C32113   4.348   9.645   5.014  0.0438 -0.4022  0.3811
  958MOL0     O32114   4.256   9.459   5.260 -0.2369 -0.1629  0.3163
  958MOL0     C32115   4.498   9.497   5.493  0.4188 -0.1755 -0.7875
  958MOL0     C32116   4.577   9.421   5.576  0.2356  0.1597 -0.5332
  958MOL0     N32117   5.230   8.860   5.603  0.1133 -0.1994  0.4822
  958MOL0     N32118   5.327   8.947   5.571  0.5333  0.2528  0.2339
  958MOL0     C32119   4.506   9.707   5.777 -0.2872 -0.1826  1.1586
  958MOL0     C32120   4.419   9.810   5.722 -0.3396 -0.1167 -0.1109
  958MOL0     C32121   4.222  10.203   5.594  0.5450 -0.0331  0.2812
  958MOL0     C32122   4.130  10.216   5.493 -0.2807 -1.0922 -0.2208
  958MOL0     C32123   4.055  10.337   5.479  0.5966  0.5944 -0.2733
  958MOL0     C32124   4.062  10.434   5.577 -1.6004 -0.1731  0.2389
  958MOL0     O32125   3.994  10.550   5.559  0.6480 -0.0799 -0.8434
  958MOL0     C32126   4.082  10.665   5.527  0.1976 -0.0735  0.0380
  958MOL0     C32127   4.017  10.802   5.520 -0.3547  0.8261  0.2542
  958MOL0     C32128   3.913  10.829   5.621  0.0905  0.3035  0.0626
  958MOL0     C32129   3.961  10.816   5.764 -0.6753  0.2457 -0.2086
  958MOL0     C32130   3.912  10.933   5.831 -0.4280  0.1583  0.6825
  958MOL0     C32131   3.892  11.034   5.895  0.4263  0.1090 -0.6384
  958MOL0     C32132   4.147  10.421   5.690  0.2861  1.7156 -0.4074
  958MOL0     C32133   4.233  10.306   5.698  0.3452  0.4164 -0.1998
  958MOL0     C32134   4.326  10.307   5.811 -0.5269 -0.0069 -0.3548
  958MOL0     H32135   4.615  10.060   5.743 -2.9101 -1.1738 -0.4882
  958MOL0     H32136   4.788   9.886   5.814  1.8055 -1.3431 -1.6964
  958MOL0     H32137   4.906   9.653   5.841 -0.9429 -2.9496  3.5060
  958MOL0     H32138   4.826   9.594   5.695  1.0076 -0.2894  0.4545
  958MOL0     H32139   4.872   9.452   5.960  1.7510  1.8452  0.2018
  958MOL0     H32140   4.769   9.383   5.834  1.5754 -2.8341  2.5433
  958MOL0     H32141   4.988   9.304   5.834 -0.8497  0.2040 -0.2740
  958MOL0     H32142   4.942   9.366   5.681 -3.8152  1.9719  0.0432
  958MOL0     H32143   5.094   9.585   5.753 -5.5399 -0.2172 -0.9024
  958MOL0     H32144   5.122   9.507   5.900  0.7940 -1.0470 -0.0630
  958MOL0     H32145   5.272   9.340   5.809  1.1478 -0.6935 -0.2811
  958MOL0     H32146   5.319   9.492   5.736 -0.2686 -1.1435  0.4683
  958MOL0     H32147   5.149   9.274   5.612  0.1760 -0.8642  2.2456
  958MOL0     H32148   5.169   9.435   5.549  0.9343  0.7256  0.2681
  958MOL0     H32149   5.422   9.372   5.529 -0.8790  1.0346 -0.0525
  958MOL0     H32150   5.318   9.253   5.440  3.0084 -2.4221 -0.3677
  958MOL0     H32151   5.499   9.152   5.551  0.4609  2.6042  0.1172
  958MOL0     H32152   5.455   9.218   5.703 -1.2644  0.1390 -0.8176
  958MOL0     H32153   5.185   9.109   5.817  0.3000  2.0744 -1.7022
  958MOL0     H32154   5.021   8.930   5.875 -1.4560  1.4120 -0.5265
  958MOL0     H32155   5.039   8.781   5.779 -2.3523 -0.2694  1.8662
  958MOL0     H32156   4.924   8.877   5.592  3.9000 -4.2251  2.0424
  958MOL0     H32157   4.831   8.851   5.741  3.7809 -3.4646  3.1211
  958MOL0     H32158   4.867   9.112   5.778 -0.9992  3.0875 -1.6961
  958MOL0     H32159   4.960   9.115   5.630  0.9251 -0.6078  1.5235
  958MOL0     H32160   4.744   9.063   5.515 -0.3456  2.8810 -1.6993
  958MOL0     H32161   4.657   9.052   5.670  0.4315  0.3503 -0.5179
  958MOL0     H32162   4.630   9.147   5.377  0.0999  0.0022 -0.8318
  958MOL0     H32163   4.558   9.165   5.182  0.0980 -0.6370  1.5493
  958MOL0     H32164   4.537   9.324   5.112  0.8203 -0.1915 -1.0101
  958MOL0     H32165   4.400   9.212   5.192  1.9108 -1.0727  1.3535
  958MOL0     H32166   4.279   9.885   5.237 -2.6712 -1.3042 -0.1237
  958MOL0     H32167   4.146   9.975   5.056 -1.1801 -0.6532 -2.0148
  958MOL0     H32168   4.276  10.010   4.743 -2.2718  1.9923  2.5539
  958MOL0     H32169   4.221   9.871   4.638  2.1045 -2.3750  1.4307
  958MOL0     H32170   4.084  10.049   4.543  0.0445 -0.5152 -0.3966
  958MOL0     H32171   3.989  10.004   4.679 -0.4197  2.9801  0.4703
  958MOL0     H32172   4.017  10.261   4.663  0.3327 -0.4692 -2.3115
  958MOL0     H32173   4.192  10.239   4.657  0.6720  1.2556  0.7262
  958MOL0     H32174   4.186  10.161   4.909 -1.1407 -1.5815 -0.4025
  958MOL0     H32175   4.017  10.152   4.900 -1.5668 -0.6570 -0.7394
  958MOL0     H32176   4.159  10.415   4.833  1.0896  2.6889  2.4971
  958MOL0     H32177   3.994  10.389   4.882  0.9445  0.1509  0.4651
  958MOL0     H32178   4.240  10.375   5.062  0.7085  1.3855 -3.3352
  958MOL0     H32179   4.092  10.289   5.103 -0.4794  0.6123  0.6918
  958MOL0     H32180   4.121  10.522   5.199 -0.8511  0.9537  0.8015
  958MOL0     H32181   3.974  10.509   5.113  0.2771  3.2093  0.0466
  958MOL0     H32182   4.087  10.624   4.916  2.1373 -1.1232  0.0561
  958MOL0     H32183   4.238  10.620   5.010  1.2312 -0.3567  1.5633
  958MOL0     H32184   4.299   9.662   4.799  0.6429  0.7343 -0.4562
  958MOL0     H32185   4.404   9.552   5.010 -1.6098 -1.4463  0.7795
  958MOL0     H32186   4.473   9.597   5.525  2.4921  0.2617 -0.3732
  958MOL0     H32187   4.613   9.447   5.675  2.8153 -2.0355 -0.7512
  958MOL0     H32188   4.475   9.604   5.794 -2.8186  0.5268  1.2213
  958MOL0     H32189   4.329   9.782   5.668 -0.6999  0.2603  0.2838
  958MOL0     H32190   4.122  10.132   5.424 -0.8147 -1.9720  0.8836
  958MOL0     H32191   3.989  10.351   5.393  1.1210  1.1468 -0.5963
  958MOL0     H32192   4.143  10.655   5.617 -0.6757 -0.6714  0.5922
  958MOL0     H32193   4.137  10.652   5.434 -1.1654  0.1415 -0.8232
  958MOL0     H32194   3.971  10.799   5.421 -1.7378 -1.1896  0.9050
  958MOL0     H32195   4.095  10.874   5.545 -1.7378  2.4779 -0.0409
  958MOL0     H32196   3.877  10.929   5.594  2.3280  1.1074 -0.0823
  958MOL0     H32197   3.831  10.756   5.621  1.9567 -1.8850 -0.6426
  958MOL0     H32198   4.070  10.818   5.776 -0.8605  0.4289  1.9995
  958MOL0     H32199   3.931  10.732   5.828 -0.7865 -0.1035 -0.7117
  958MOL0     H32200   3.861  11.113   5.960  2.4273  2.8598 -2.7852
  958MOL0     H32201   4.135  10.496   5.768 -1.5790  1.8897 -0.8032
  958MOL0     H32202   4.421  10.305   5.756 -0.9309  2.5926 -1.3065
  958MOL0     H32203   4.321  10.395   5.877  1.4420  0.5242 -0.8210
  958MOL0     H32204   4.311  10.217   5.871 -0.8456 -1.1787 -2.1210
  959MOL0     O32205   1.658   2.061   4.592  1.3326 -0.5094  0.6177
  959MOL0     C32206   1.766   2.014   4.623 -0.1825  0.2352  0.6426
  959MOL0     O32207   1.886   2.068   4.597  0.2209 -0.5697 -0.1325
  959MOL0     C32208   1.896   2.194   4.543  1.5313 -0.3968 -0.9272
  959MOL0     C32209   1.803   2.304   4.565  0.4512  1.2335 -0.1480
  959MOL0     C32210   1.825   2.428   4.517 -0.9899 -0.0871  0.9433
  959MOL0     C32211   1.946   2.469   4.444  0.9257  0.1107 -0.6231
  959MOL0     O32212   1.939   2.590   4.391 -0.2144  0.4306  0.1139
  959MOL0     C32213   2.005   2.692   4.467 -0.2617  0.1419 -0.0305
  959MOL0     C32214   1.889   2.744   4.555 -0.0405  0.8735  1.3778
  959MOL0     C32215   1.919   2.870   4.636  0.8499  0.2786 -0.2435
  959MOL0     C32216   1.803   2.962   4.656 -0.2422  0.2525  0.3682
  959MOL0     C32217   1.722   3.013   4.530  0.2755  0.0246  0.3017
  959MOL0     C32218   1.809   3.063   4.412 -0.2938 -0.1225  0.0745
  959MOL0     C32219   1.728   3.132   4.302  1.3934  0.0531 -0.1032
  959MOL0     C32220   1.665   3.023   4.218 -0.1146  0.3935 -0.0603
  959MOL0     N32221   1.632   3.089   4.087  0.5644 -0.8158  0.1664
  959MOL0     C32222   1.562   3.207   4.069 -0.2750 -0.0557  0.3006
  959MOL0     C32223   1.559   3.242   3.932 -0.1209 -0.6598 -0.7851
  959MOL0     C32224   1.512   3.361   3.859  0.5489 -0.6286  0.1298
  959MOL0     C32225   1.367   3.358   3.810  0.1445  0.2157  0.7818
  959MOL0     C32226   1.270   3.341   3.924 -0.1513 -0.2374  0.2146
  959MOL0     C32227   1.153   3.440   3.919  0.2844  0.1304 -0.6888
  959MOL0     O32228   1.056   3.434   4.026 -0.2141  0.0124  0.2272
  959MOL0     C32229   0.937   3.501   4.007  0.6340 -0.0644 -1.3735
  959MOL0     C32230   0.857   3.459   3.910  1.2447  0.8952 -0.2838
  959MOL0     C32231   0.734   3.529   3.893  0.0565  0.3563  0.1119
  959MOL0     C32232   0.658   3.487   3.760 -0.2462 -0.5749  0.4752
  959MOL0     C32233   0.693   3.627   3.990  0.8094 -0.6164  1.2013
  959MOL0     C32234   0.569   3.705   3.976 -0.4441  0.3691  0.6688
  959MOL0     O32235   0.543   3.784   4.089  0.5690 -0.5339 -0.1920
  959MOL0     C32236   0.436   3.869   4.077 -0.3863  0.6372  0.2215
  959MOL0     C32237   0.395   3.953   3.970  0.4229  0.2460 -0.4639
  959MOL0     C32238   0.281   4.036   3.984  0.3994  0.7847 -0.0836
  959MOL0     C32239   0.194   4.019   4.086  0.6171  1.3084  0.4465
  959MOL0     O32240   0.082   4.098   4.105  0.4492 -0.1310 -0.6612
  959MOL0     C32241  -0.044   4.026   4.130  0.1284  0.4265  0.5950
  959MOL0     C32242  -0.147   4.103   4.042 -0.3540 -0.0348  0.0856
  959MOL0     C32243  -0.279   4.044   4.031  0.0843  0.3872 -0.8571
  959MOL0     C32244  -0.394   4.139   3.990 -0.0319  0.3225  0.8849
  959MOL0     C32245  -0.521   4.080   3.941  0.6247  1.0627  0.2715
  959MOL0     C32246  -0.613   4.165   3.847 -0.6227  0.0520  0.2264
  959MOL0     C32247  -0.525   4.220   3.723 -0.6398  0.9445  0.3220
  959MOL0     C32248  -0.592   4.249   3.587  0.0010 -0.6521 -1.3090
  959MOL0    Cl32249  -0.616   4.076   3.528  0.0101 -0.0076  0.0054
  959MOL0     C32250   0.229   3.928   4.190  0.1730  0.7100 -0.1330
  959MOL0     C32251   0.349   3.855   4.186  0.6043 -0.4378 -0.6139
  959MOL0     O32252   0.516   3.715   3.865 -0.5919 -0.1377 -0.5908
  959MOL0     C32253   0.786   3.663   4.087 -0.6787 -0.5611  0.5482
  959MOL0     C32254   0.905   3.595   4.103 -0.3480 -0.2596  0.3844
  959MOL0     N32255   1.655   3.149   3.871 -0.4168 -0.2741 -0.9636
  959MOL0     N32256   1.692   3.064   3.964  0.3909 -1.3010  0.3080
  959MOL0     C32257   2.037   2.366   4.425  0.3497 -0.1057 -0.0590
  959MOL0     C32258   2.009   2.238   4.468 -0.4745  0.7136 -0.4167
  959MOL0     C32259   1.763   1.908   4.715 -0.1549  1.1238 -0.4759
  959MOL0     C32260   1.866   1.896   4.805  0.1401 -0.5593  0.2769
  959MOL0     C32261   1.866   1.805   4.914  0.1182 -0.0247  0.8188
  959MOL0     C32262   1.755   1.719   4.931  0.3468  0.4917  0.4284
  959MOL0     O32263   1.752   1.617   5.013  0.3101  0.1885 -0.9026
  959MOL0     C32264   1.783   1.647   5.151  0.4241 -0.2005  0.7544
  959MOL0     C32265   1.764   1.514   5.234 -0.1051 -0.9087  0.1187
  959MOL0     C32266   1.620   1.463   5.246  0.1035 -0.6268  0.3000
  959MOL0     C32267   1.601   1.345   5.344  0.2303 -1.2649 -0.6946
  959MOL0     C32268   1.469   1.283   5.309 -0.4124 -0.3515 -0.5186
  959MOL0     C32269   1.380   1.202   5.273 -0.3085 -0.4613 -0.7342
  959MOL0     C32270   1.659   1.715   4.830 -0.6451  0.0514 -1.2277
  959MOL0     C32271   1.657   1.809   4.726  0.5795  0.6888 -0.7950
  959MOL0     C32272   1.549   1.787   4.619 -0.7746 -0.6785  0.6207
  959MOL0     H32273   1.714   2.301   4.627  1.1070  0.2460  0.7742
  959MOL0     H32274   1.742   2.498   4.524 -1.9144 -1.0837  0.2919
  959MOL0     H32275   2.043   2.767   4.397  0.7289 -2.3069 -2.2898
  959MOL0     H32276   2.091   2.657   4.526 -1.9215 -3.5548  0.4567
  959MOL0     H32277   1.803   2.751   4.487 -0.2065  1.2899  1.6327
  959MOL0     H32278   1.866   2.662   4.624  0.8654 -2.1739 -1.6478
  959MOL0     H32279   1.941   2.827   4.734 -1.5742  1.0336  0.7122
  959MOL0     H32280   2.000   2.923   4.587 -1.8269  2.5623 -2.5538
  959MOL0     H32281   1.740   2.923   4.736 -0.1588 -0.2098  0.2095
  959MOL0     H32282   1.840   3.059   4.690 -1.7715  1.3358 -0.8425
  959MOL0     H32283   1.661   3.094   4.570  0.7686  0.8141 -0.5157
  959MOL0     H32284   1.651   2.933   4.503 -1.5598  0.6511  2.9080
  959MOL0     H32285   1.867   3.143   4.459  2.2249 -1.8709  0.1536
  959MOL0     H32286   1.886   2.992   4.380  0.5184 -0.4693  2.5749
  959MOL0     H32287   1.796   3.191   4.240 -1.5132  2.1919 -1.4665
  959MOL0     H32288   1.657   3.206   4.341  0.4105 -0.1887 -1.3968
  959MOL0     H32289   1.745   2.956   4.188 -0.6589  0.3975 -1.6217
  959MOL0     H32290   1.589   2.960   4.266 -1.1850  1.6153 -0.1000
  959MOL0     H32291   1.498   3.255   4.142  0.6433  3.5808 -1.0831
  959MOL0     H32292   1.583   3.379   3.778  3.4153 -1.6606  2.2336
  959MOL0     H32293   1.528   3.445   3.927 -0.1338 -1.4122  1.2883
  959MOL0     H32294   1.345   3.455   3.764  2.1510 -0.3687 -1.6043
  959MOL0     H32295   1.352   3.292   3.724  0.4138 -1.2205  1.7837
  959MOL0     H32296   1.221   3.243   3.915  1.0749 -1.3085  3.6500
  959MOL0     H32297   1.313   3.340   4.025  1.1744  1.0478 -0.3050
  959MOL0     H32298   1.184   3.544   3.906 -2.5958  0.9253 -1.9670
  959MOL0     H32299   1.101   3.435   3.823 -1.1221  0.3784  0.0409
  959MOL0     H32300   0.888   3.383   3.839  2.7148  0.3107  0.9365
  959MOL0     H32301   0.554   3.477   3.794 -0.0124 -1.6740  0.8886
  959MOL0     H32302   0.689   3.387   3.729 -1.7726 -0.4293 -1.7118
  959MOL0     H32303   0.679   3.561   3.682  1.5653 -1.9763 -0.4287
  959MOL0     H32304   0.462   3.957   3.884  0.6299  0.8607 -0.2756
  959MOL0     H32305   0.265   4.105   3.901  3.8232  1.0309 -0.6911
  959MOL0     H32306  -0.048   3.922   4.097  0.0687  0.1334  1.5051
  959MOL0     H32307  -0.082   4.034   4.233  1.4391  2.0790  0.9876
  959MOL0     H32308  -0.142   4.208   4.075  2.0832 -0.3789  0.9747
  959MOL0     H32309  -0.113   4.107   3.938 -0.7762 -1.6541 -0.1318
  959MOL0     H32310  -0.305   4.003   4.128  0.2920  1.3843 -0.3683
  959MOL0     H32311  -0.280   3.960   3.961 -1.7567 -0.9889  0.7150
  959MOL0     H32312  -0.350   4.201   3.910 -0.7124  0.2448  0.4400
  959MOL0     H32313  -0.407   4.214   4.068  0.0705  0.4486  0.7821
  959MOL0     H32314  -0.489   3.995   3.879  3.3099  2.9730 -1.1682
  959MOL0     H32315  -0.582   4.044   4.024 -0.3789  0.2709 -0.7616
  959MOL0     H32316  -0.653   4.248   3.907 -0.9205  1.1103 -1.3737
  959MOL0     H32317  -0.686   4.096   3.804  1.2266 -1.2801 -0.9175
  959MOL0     H32318  -0.457   4.144   3.684  0.6292  2.6167 -0.8934
  959MOL0     H32319  -0.463   4.299   3.765 -0.0915 -0.3782  2.1055
  959MOL0     H32320  -0.547   4.322   3.519  0.8140 -0.8013 -0.9478
  959MOL0     H32321  -0.690   4.294   3.606 -0.7051 -1.4985 -2.7326
  959MOL0     H32322   0.159   3.925   4.272  0.0384 -0.5683 -0.2779
  959MOL0     H32323   0.385   3.797   4.270 -2.5258 -1.1576  0.3618
  959MOL0     H32324   0.778   3.748   4.155 -1.8516  0.3460 -0.6648
  959MOL0     H32325   0.959   3.614   4.195 -2.4307 -1.9111  2.0563
  959MOL0     H32326   2.124   2.380   4.361  1.2716  1.8209  1.4949
  959MOL0     H32327   2.065   2.149   4.441 -0.3054  0.4635  0.7342
  959MOL0     H32328   1.938   1.978   4.802  0.9831 -1.3136 -0.9101
  959MOL0     H32329   1.951   1.806   4.982  2.0941  2.0712 -1.4472
  959MOL0     H32330   1.882   1.689   5.172  0.1836  0.4171  0.6718
  959MOL0     H32331   1.711   1.716   5.197 -2.1866 -0.5822 -2.4412
  959MOL0     H32332   1.804   1.524   5.336 -2.8107 -3.1320  1.5391
  959MOL0     H32333   1.824   1.441   5.179 -0.2773  0.3860 -1.9040
  959MOL0     H32334   1.564   1.553   5.271 -1.1268 -1.9170  2.6131
  959MOL0     H32335   1.590   1.429   5.146  5.2350  0.6186 -1.9775
  959MOL0     H32336   1.598   1.386   5.445  1.2121 -1.7617 -0.4578
  959MOL0     H32337   1.682   1.273   5.335  0.1674 -1.2046 -1.9615
  959MOL0     H32338   1.295   1.138   5.264  0.2114 -1.3930  0.6407
  959MOL0     H32339   1.580   1.641   4.830 -0.3405 -0.3935  1.6897
  959MOL0     H32340   1.608   1.791   4.527 -0.1451  1.1446  1.0723
  959MOL0     H32341   1.495   1.693   4.636 -0.3214 -0.9662  0.4719
  959MOL0     H32342   1.479   1.871   4.611  0.4451  0.2738 -0.3974
  960MOL0     O32343  11.166   3.162   3.107  0.0826 -0.0081 -0.9314
  960MOL0     C32344  11.128   3.052   3.058  0.7988 -0.0721 -0.1663
  960MOL0     O32345  11.147   3.011   2.926  0.1610 -0.0524 -0.2219
  960MOL0     C32346  11.211   3.086   2.831  0.3199 -0.2285 -0.2539
  960MOL0     C32347  11.332   3.154   2.853 -0.7895  0.7170 -0.3258
  960MOL0     C32348  11.400   3.227   2.760  0.1371  0.3201  0.1638
  960MOL0     C32349  11.364   3.215   2.622  0.0693 -1.0533  0.3033
  960MOL0     O32350  11.430   3.266   2.513  0.2046 -0.7609 -0.6011
  960MOL0     C32351  11.563   3.320   2.531  1.1031 -0.1643 -0.2742
  960MOL0     C32352  11.550   3.471   2.539 -0.7087 -0.4160 -0.4265
  960MOL0     C32353  11.495   3.537   2.409 -0.8333  0.3762 -0.1238
  960MOL0     C32354  11.557   3.496   2.281 -0.6900  0.1426  0.6967
  960MOL0     C32355  11.460   3.534   2.163 -0.3438 -0.7800  0.5091
  960MOL0     C32356  11.538   3.551   2.039  0.4978  0.4752  1.0220
  960MOL0     C32357  11.589   3.411   1.986  0.2387 -1.0454 -0.3837
  960MOL0     C32358  11.708   3.438   1.890  1.0209 -0.4168 -0.1905
  960MOL0     N32359  11.747   3.316   1.812 -0.0912  0.9733  0.7951
  960MOL0     C32360  11.672   3.269   1.713 -0.1104 -0.5038 -0.4912
  960MOL0     C32361  11.744   3.161   1.665 -0.1493  0.2639  0.6051
  960MOL0     C32362  11.705   3.054   1.560 -0.0823 -0.4176  0.2352
  960MOL0     C32363  11.643   3.126   1.442  0.2632 -0.4669 -1.1226
  960MOL0     C32364  11.640   3.033   1.323  0.0854 -0.0517  0.2067
  960MOL0     C32365  11.583   3.096   1.196  0.0258 -0.0693  0.9390
  960MOL0     O32366  11.640   3.211   1.132  0.0488 -0.4739 -0.5378
  960MOL0     C32367  11.556   3.320   1.122  0.2347 -0.1039 -0.4472
  960MOL0     C32368  11.484   3.331   1.003 -0.5149 -0.8175  0.3271
  960MOL0     C32369  11.381   3.430   0.982 -1.0700  0.7296  0.2993
  960MOL0     C32370  11.323   3.433   0.843 -0.0039  0.3990 -1.0579
  960MOL0     C32371  11.352   3.519   1.089 -0.7976  0.2645 -1.1392
  960MOL0     C32372  11.265   3.634   1.089  0.0768 -0.6221  0.4081
  960MOL0     O32373  11.140   3.610   1.044  0.3855  0.6272 -0.0437
  960MOL0     C32374  11.047   3.716   1.049 -0.6184 -0.7042  0.8708
  960MOL0     C32375  11.033   3.796   0.938 -0.6838  0.2382 -0.7205
  960MOL0     C32376  10.932   3.888   0.936 -0.5157  0.2052  0.5738
  960MOL0     C32377  10.854   3.923   1.048 -0.1516  0.1460 -0.0415
  960MOL0     O32378  10.751   4.011   1.019 -0.2246  0.7315 -0.4346
  960MOL0     C32379  10.692   4.065   1.137  0.0759 -0.2076  0.2730
  960MOL0     C32380  10.582   4.162   1.095 -0.5747 -0.7527 -1.2959
  960MOL0     C32381  10.535   4.234   1.224 -0.0295 -0.4348 -0.4875
  960MOL0     C32382  10.409   4.172   1.288 -0.4176  0.1913 -0.4671
  960MOL0     C32383  10.291   4.270   1.297 -0.7784 -1.2112  0.3300
  960MOL0     C32384  10.164   4.203   1.347  0.4585  0.6432  0.6636
  960MOL0     C32385  10.172   4.143   1.490 -0.6684  0.8964 -0.5321
  960MOL0     C32386  10.164   4.246   1.603 -0.4398 -0.1900  1.1775
  960MOL0    Cl32387  10.004   4.234   1.674  0.3349 -0.1055  0.2082
  960MOL0     C32388  10.878   3.840   1.165 -0.3570  0.7089 -0.5435
  960MOL0     C32389  10.970   3.733   1.162 -0.3992 -0.2021  0.6175
  960MOL0     O32390  11.306   3.739   1.144 -0.1054 -0.1837  0.1752
  960MOL0     C32391  11.421   3.495   1.223 -0.2693 -0.8620  0.1456
  960MOL0     C32392  11.519   3.395   1.231  0.0549  0.1046  0.3535
  960MOL0     N32393  11.873   3.161   1.728 -0.5319  0.0982  0.7346
  960MOL0     N32394  11.863   3.247   1.817 -0.2470  0.1809 -0.0662
  960MOL0     C32395  11.241   3.146   2.594 -0.5733  0.2435 -0.6360
  960MOL0     C32396  11.169   3.081   2.695 -0.1827 -0.7069  0.7115
  960MOL0     C32397  11.040   2.963   3.144 -0.2158  0.0361 -0.3841
  960MOL0     C32398  10.937   2.891   3.078 -0.3820  0.3134 -0.3656
  960MOL0     C32399  10.841   2.819   3.146  0.8316  0.1078  0.2404
  960MOL0     C32400  10.834   2.823   3.281 -0.4691 -0.4614 -0.2828
  960MOL0     O32401  10.732   2.746   3.338  0.3121 -0.4862  0.1859
  960MOL0     C32402  10.631   2.823   3.402 -0.1136 -0.3856 -0.4954
  960MOL0     C32403  10.625   2.788   3.549  0.6827  0.9105  0.3451
  960MOL0     C32404  10.594   2.642   3.565  0.1866  0.9937 -0.3708
  960MOL0     C32405  10.629   2.604   3.710  1.2713  1.2643 -0.6844
  960MOL0     C32406  10.584   2.675   3.825  0.4337  0.5003 -0.0718
  960MOL0     C32407  10.537   2.719   3.926  0.3754 -0.5106  0.3544
  960MOL0     C32408  10.939   2.888   3.350  0.3604 -0.2117  0.0151
  960MOL0     C32409  11.045   2.954   3.288 -0.1689 -0.3335  0.3961
  960MOL0     C32410  11.146   3.015   3.376 -0.0917 -0.9743  0.7861
  960MOL0     H32411  11.375   3.145   2.952  0.7117 -3.2405 -1.1306
  960MOL0     H32412  11.489   3.279   2.795  0.7888  2.4848 -4.1331
  960MOL0     H32413  11.615   3.274   2.446 -1.5111 -5.4468  0.5318
  960MOL0     H32414  11.602   3.275   2.623  3.4735  1.2676 -0.5127
  960MOL0     H32415  11.477   3.503   2.614  1.1045  0.8781  0.8630
  960MOL0     H32416  11.646   3.515   2.566 -0.6892 -1.7632  2.0159
  960MOL0     H32417  11.393   3.503   2.427 -0.4089 -0.9356 -0.0781
  960MOL0     H32418  11.499   3.645   2.422  0.0897  0.3924 -0.4329
  960MOL0     H32419  11.656   3.541   2.269 -0.0696 -1.5167 -0.8274
  960MOL0     H32420  11.590   3.392   2.279  1.8189  0.8684  0.9267
  960MOL0     H32421  11.411   3.629   2.184  1.9607  0.5849 -0.0471
  960MOL0     H32422  11.381   3.459   2.150  1.9464 -2.9826 -1.9947
  960MOL0     H32423  11.471   3.601   1.968  0.1319 -1.7669 -0.3060
  960MOL0     H32424  11.616   3.625   2.063  1.5359  0.3605 -1.6199
  960MOL0     H32425  11.504   3.358   1.943 -0.4926  0.5072 -0.9196
  960MOL0     H32426  11.634   3.358   2.070  1.9870  0.2451 -0.4225
  960MOL0     H32427  11.668   3.502   1.811 -1.4525 -0.1215  1.2273
  960MOL0     H32428  11.789   3.488   1.944  1.1522 -1.4833  0.6297
  960MOL0     H32429  11.580   3.317   1.683  0.7097 -0.3222 -2.9973
  960MOL0     H32430  11.629   2.989   1.605 -0.3892  0.6218  1.2696
  960MOL0     H32431  11.784   2.984   1.531  0.6377 -0.4522  2.1590
  960MOL0     H32432  11.545   3.162   1.475  0.4949 -1.6804  1.0611
  960MOL0     H32433  11.700   3.217   1.422 -0.4591  0.9226  2.2891
  960MOL0     H32434  11.745   3.008   1.302 -0.1295 -0.4321 -0.4315
  960MOL0     H32435  11.591   2.940   1.355  2.7531 -0.9215  2.1086
  960MOL0     H32436  11.581   3.009   1.129 -0.3190 -1.0854  2.2305
  960MOL0     H32437  11.478   3.120   1.214  0.5505  0.4333  3.7568
  960MOL0     H32438  11.500   3.255   0.926 -0.4367 -0.7783  0.3048
  960MOL0     H32439  11.396   3.447   0.764  2.7461  1.1758  1.4355
  960MOL0     H32440  11.251   3.514   0.829 -1.1795 -0.6547 -1.2962
  960MOL0     H32441  11.260   3.344   0.832  0.5161 -0.0989 -0.1233
  960MOL0     H32442  11.088   3.774   0.847 -0.9529  2.4811 -1.4858
  960MOL0     H32443  10.913   3.946   0.846 -0.2938 -1.9781 -0.9453
  960MOL0     H32444  10.644   3.993   1.204 -2.6679  0.4015 -0.8900
  960MOL0     H32445  10.775   4.115   1.187  1.1532 -1.2889 -0.3717
  960MOL0     H32446  10.626   4.238   1.029  2.4718 -0.1028  1.2458
  960MOL0     H32447  10.499   4.103   1.054  0.1324 -2.4678 -0.3707
  960MOL0     H32448  10.508   4.339   1.206  0.6199  0.1663  1.6984
  960MOL0     H32449  10.606   4.231   1.307 -1.7157  1.0039  1.1116
  960MOL0     H32450  10.443   4.145   1.389  3.9090  0.2770 -1.6968
  960MOL0     H32451  10.381   4.081   1.235  1.5735 -0.9222  0.2737
  960MOL0     H32452  10.312   4.348   1.371  1.3701 -1.9510  0.5748
  960MOL0     H32453  10.265   4.313   1.199  2.8617 -2.7816 -1.5261
  960MOL0     H32454  10.150   4.122   1.274 -1.7597  3.4669 -2.3571
  960MOL0     H32455  10.074   4.264   1.337 -0.0368 -0.4857 -3.1873
  960MOL0     H32456  10.262   4.082   1.492 -0.3977  1.0459 -3.5159
  960MOL0     H32457  10.091   4.071   1.503  0.9156 -0.8229  0.3340
  960MOL0     H32458  10.174   4.348   1.565 -0.1066  0.8866  3.9344
  960MOL0     H32459  10.235   4.235   1.686  2.5020 -0.1997 -1.1541
  960MOL0     H32460  10.811   3.840   1.251  2.6075  0.4754  1.9301
  960MOL0     H32461  10.975   3.675   1.254  0.0659 -0.8507  0.1903
  960MOL0     H32462  11.394   3.552   1.311 -0.0794 -2.1544  1.0735
  960MOL0     H32463  11.575   3.381   1.323  1.5194  2.1047 -0.1710
  960MOL0     H32464  11.214   3.142   2.489  0.1637  1.9843 -0.9102
  960MOL0     H32465  11.085   3.016   2.672  1.5733 -2.5817 -0.7510
  960MOL0     H32466  10.936   2.885   2.970 -0.6096  2.0191 -0.4822
  960MOL0     H32467  10.768   2.755   3.097  2.1252 -1.5514  0.4026
  960MOL0     H32468  10.644   2.932   3.402 -0.4894 -0.3369  0.2224
  960MOL0     H32469  10.536   2.797   3.354 -1.1574  0.4460  1.0365
  960MOL0     H32470  10.538   2.837   3.592 -1.2417  0.0779 -2.3650
  960MOL0     H32471  10.716   2.813   3.605  2.1973 -1.2957 -0.9408
  960MOL0     H32472  10.486   2.624   3.553  0.7257 -0.9686 -3.4450
  960MOL0     H32473  10.645   2.565   3.507  4.2010  0.4396  3.3799
  960MOL0     H32474  10.737   2.615   3.719  2.0479 -2.6502 -2.7457
  960MOL0     H32475  10.615   2.496   3.719  0.4323  1.0412 -3.4466
  960MOL0     H32476  10.489   2.748   4.017 -1.4033 -0.9688 -0.3969
  960MOL0     H32477  10.936   2.882   3.458 -2.4317  0.2724  0.0412
  960MOL0     H32478  11.131   3.122   3.393 -1.5499 -0.6490 -1.9738
  960MOL0     H32479  11.135   2.969   3.475 -0.4007 -0.4674  0.9906
  960MOL0     H32480  11.248   2.985   3.349  0.5472  1.2701  0.5038
  961MOL0     O32481   9.839   0.381   2.410  0.2959 -0.0645  1.1959
  961MOL0     C32482   9.870   0.267   2.376 -0.7066  0.1435  0.7156
  961MOL0     O32483   9.798   0.175   2.297  0.0283 -0.2384 -0.3306
  961MOL0     C32484   9.667   0.202   2.263  0.7883 -0.8569  0.3772
  961MOL0     C32485   9.568   0.284   2.328  0.2496  0.6330  0.0164
  961MOL0     C32486   9.445   0.301   2.276  0.7568 -0.2779 -0.2984
  961MOL0     C32487   9.395   0.257   2.155  0.2594  1.3489  0.2619
  961MOL0     O32488   9.264   0.272   2.130 -0.8424 -0.3112 -0.5303
  961MOL0     C32489   9.210   0.277   1.998 -0.1476  0.0740 -0.7959
  961MOL0     C32490   9.094   0.381   1.981 -0.5542  0.4113 -0.0709
  961MOL0     C32491   9.152   0.525   1.978  0.5862  0.3924  0.2294
  961MOL0     C32492   9.033   0.617   1.981  0.6451 -0.6139  0.5215
  961MOL0     C32493   9.087   0.760   1.961 -0.0832 -0.2247  0.5648
  961MOL0     C32494   8.991   0.868   1.990 -0.2770  0.6770 -0.1268
  961MOL0     C32495   9.052   1.005   1.947  0.4023  0.6084 -0.3419
  961MOL0     C32496   8.954   1.108   1.971  0.2053 -0.6749 -0.6468
  961MOL0     N32497   8.934   1.148   2.110  0.0254 -0.6623 -0.2456
  961MOL0     C32498   9.007   1.244   2.176 -0.4001  0.2382 -0.1931
  961MOL0     C32499   8.941   1.281   2.289 -0.2234  0.0364  0.2846
  961MOL0     C32500   8.983   1.378   2.396 -0.3326 -0.9131 -0.2656
  961MOL0     C32501   8.993   1.518   2.333  0.5561 -0.3160 -0.0365
  961MOL0     C32502   8.857   1.584   2.271 -0.5581 -0.5579 -0.3993
  961MOL0     C32503   8.727   1.541   2.360  0.1130  0.7676  0.1819
  961MOL0     O32504   8.743   1.557   2.498 -0.3293 -0.1481 -0.1660
  961MOL0     C32505   8.745   1.697   2.540  0.2279  0.7830  0.5447
  961MOL0     C32506   8.725   1.807   2.465  0.8139  0.0598  1.2459
  961MOL0     C32507   8.753   1.934   2.505  0.6184 -0.5756 -0.3451
  961MOL0     C32508   8.751   2.039   2.399 -0.9173  1.0121  0.6598
  961MOL0     C32509   8.775   1.945   2.645  0.2446  0.3046  0.1349
  961MOL0     C32510   8.777   2.070   2.697 -0.8801 -0.6318  0.3236
  961MOL0     O32511   8.669   2.144   2.685 -0.6038 -0.5834  0.8486
  961MOL0     C32512   8.679   2.281   2.713  0.3629  0.0785  0.0748
  961MOL0     C32513   8.688   2.319   2.846 -0.2977 -0.6091 -0.6180
  961MOL0     C32514   8.712   2.454   2.872  0.2657 -0.7270  1.1689
  961MOL0     C32515   8.695   2.552   2.772  0.5791  0.1453  0.3923
  961MOL0     O32516   8.719   2.688   2.787  0.1109  0.4010  0.2280
  961MOL0     C32517   8.725   2.734   2.921 -0.2265  0.1120  0.5144
  961MOL0     C32518   8.585   2.753   2.985 -0.7242  0.5988  0.0364
  961MOL0     C32519   8.486   2.833   2.894  0.1040 -0.0581 -0.4473
  961MOL0     C32520   8.390   2.748   2.805 -0.0918 -0.4700  1.0287
  961MOL0     C32521   8.337   2.825   2.685  0.9982  1.3150 -0.2390
  961MOL0     C32522   8.237   2.739   2.597 -0.4460  0.7526 -0.9978
  961MOL0     C32523   8.167   2.825   2.500  0.9494  0.5350  1.2295
  961MOL0     C32524   8.025   2.884   2.539 -0.3976  0.2311  0.0445
  961MOL0    Cl32525   8.028   2.983   2.683 -0.0689  0.0446 -0.0682
  961MOL0     C32526   8.679   2.509   2.636  0.2815  0.5860  0.7473
  961MOL0     C32527   8.674   2.371   2.609  0.4506 -0.2460  0.0554
  961MOL0     O32528   8.873   2.093   2.773  0.4273 -0.4844  0.3694
  961MOL0     C32529   8.766   1.839   2.729  0.0523  0.0082 -0.6527
  961MOL0     C32530   8.743   1.711   2.679  0.6388 -0.1478  0.6254
  961MOL0     N32531   8.835   1.199   2.296  0.9058  0.4928  0.1893
  961MOL0     N32532   8.825   1.126   2.188  0.5318 -0.1837  0.3466
  961MOL0     C32533   9.486   0.169   2.085 -0.6188 -1.0800  0.3916
  961MOL0     C32534   9.617   0.140   2.147  0.7048 -0.5706  0.1480
  961MOL0     C32535   9.987   0.221   2.455  0.4357 -0.3638  0.7207
  961MOL0     C32536  10.011   0.079   2.447  0.0497 -0.1691 -0.3312
  961MOL0     C32537  10.100   0.017   2.539 -0.9827  0.5056  1.6024
  961MOL0     C32538  10.177   0.099   2.625 -0.1672  0.7694 -0.5233
  961MOL0     O32539  10.266   0.039   2.707  0.2390 -0.7416 -1.2639
  961MOL0     C32540  10.336   0.114   2.811 -0.2714 -1.2034  0.5413
  961MOL0     C32541  10.416   0.019   2.901 -0.6847 -0.5818  0.7679
  961MOL0     C32542  10.331  -0.091   2.962  0.1407  0.8233  0.3845
  961MOL0     C32543  10.200  -0.055   3.045 -0.0703 -1.1095 -0.7689
  961MOL0     C32544  10.094  -0.138   3.003 -0.4303 -0.1995  0.5556
  961MOL0     C32545  10.009  -0.203   2.957  0.5376  0.8463 -0.2829
  961MOL0     C32546  10.160   0.236   2.624 -0.6586  0.0966  0.2618
  961MOL0     C32547  10.074   0.303   2.532 -0.3419  0.2336 -0.7487
  961MOL0     C32548  10.066   0.453   2.529  0.5347  0.3706 -0.0898
  961MOL0     H32549   9.590   0.319   2.428  1.1994  0.2703 -0.0499
  961MOL0     H32550   9.372   0.362   2.329  1.5319  1.0252 -0.6789
  961MOL0     H32551   9.178   0.174   1.981 -4.0882  1.1106 -0.5051
  961MOL0     H32552   9.290   0.300   1.926  2.6387 -1.5574  1.5570
  961MOL0     H32553   9.038   0.359   1.890 -1.6340 -1.6893  1.0207
  961MOL0     H32554   9.034   0.362   2.071 -0.3710  2.8504  0.6519
  961MOL0     H32555   9.219   0.536   2.063  0.2751 -3.8848  1.2671
  961MOL0     H32556   9.208   0.538   1.885 -3.9137  0.5387 -2.8149
  961MOL0     H32557   8.948   0.578   1.923  0.0217 -2.0803  2.3300
  961MOL0     H32558   8.985   0.612   2.079 -0.6868 -1.0171 -0.1287
  961MOL0     H32559   9.133   0.769   1.863  1.6901  1.8038  1.4856
  961MOL0     H32560   9.182   0.772   2.015 -0.5939  3.3317  0.9227
  961MOL0     H32561   8.898   0.851   1.935  0.8328 -0.4570 -1.7613
  961MOL0     H32562   8.968   0.862   2.097  1.0440  0.8040  0.1769
  961MOL0     H32563   9.079   1.016   1.842  1.4676  2.4716  0.0744
  961MOL0     H32564   9.142   1.018   2.008 -0.0889 -3.0955  1.4561
  961MOL0     H32565   8.975   1.198   1.912 -3.7651  0.6930 -0.2151
  961MOL0     H32566   8.856   1.070   1.941  0.1239 -2.1260  1.2696
  961MOL0     H32567   9.092   1.300   2.140 -1.1044  1.9868  0.7218
  961MOL0     H32568   9.082   1.344   2.430  0.0376 -0.4992 -0.9199
  961MOL0     H32569   8.919   1.385   2.485 -0.6458  0.8248 -0.5992
  961MOL0     H32570   9.033   1.575   2.418  1.1260  1.8947 -1.6863
  961MOL0     H32571   9.072   1.514   2.257  0.2321 -1.9955 -0.3119
  961MOL0     H32572   8.871   1.693   2.274  1.5838 -0.8131  0.5525
  961MOL0     H32573   8.849   1.555   2.166 -2.6764  1.9696 -1.0608
  961MOL0     H32574   8.630   1.583   2.331 -1.2940 -0.4686  2.7515
  961MOL0     H32575   8.722   1.432   2.352 -0.4808  0.6560  1.7498
  961MOL0     H32576   8.710   1.787   2.359 -1.6279 -0.3068  1.6105
  961MOL0     H32577   8.696   2.128   2.432 -1.2837  0.8805  0.4077
  961MOL0     H32578   8.695   2.008   2.311  0.2980 -0.8564  0.4962
  961MOL0     H32579   8.850   2.076   2.370 -0.3051 -0.7393  0.4117
  961MOL0     H32580   8.689   2.242   2.923 -0.6654  1.5781  1.6941
  961MOL0     H32581   8.732   2.478   2.976  0.3896 -2.9308  1.6923
  961MOL0     H32582   8.799   2.677   2.978  1.5300  2.3168  0.5882
  961MOL0     H32583   8.774   2.831   2.904 -2.8084  1.7490  1.7236
  961MOL0     H32584   8.547   2.654   3.012  3.1665 -0.9005  0.6888
  961MOL0     H32585   8.593   2.816   3.074  2.4663  0.3573  0.0427
  961MOL0     H32586   8.538   2.912   2.839 -2.2640  3.9298  2.4638
  961MOL0     H32587   8.430   2.890   2.969  1.0550  2.9277 -1.8356
  961MOL0     H32588   8.299   2.724   2.861 -0.8603  0.6832  0.3198
  961MOL0     H32589   8.443   2.660   2.768  3.2121  2.1307 -1.1247
  961MOL0     H32590   8.292   2.915   2.727  0.5398  1.1344 -0.3392
  961MOL0     H32591   8.423   2.852   2.622  1.3769  0.7502  0.0215
  961MOL0     H32592   8.166   2.681   2.657  0.4210  2.1194  1.5136
  961MOL0     H32593   8.296   2.665   2.543  0.0486  0.0254  0.4842
  961MOL0     H32594   8.144   2.763   2.413  0.6949 -1.2177  2.4917
  961MOL0     H32595   8.231   2.907   2.467  0.8991  0.1113  0.0229
  961MOL0     H32596   7.961   2.798   2.565 -1.3006  1.3185  1.5506
  961MOL0     H32597   7.992   2.956   2.463 -0.6907 -0.3331 -0.3780
  961MOL0     H32598   8.669   2.574   2.550 -1.5214  0.7366  1.0321
  961MOL0     H32599   8.670   2.340   2.505 -1.3587 -2.2170  0.6490
  961MOL0     H32600   8.770   1.851   2.837  2.7547 -2.5297 -0.3473
  961MOL0     H32601   8.729   1.629   2.749 -1.0379  0.6691  1.3154
  961MOL0     H32602   9.441   0.131   1.994 -1.3588  1.6186 -0.4537
  961MOL0     H32603   9.680   0.076   2.086  2.5208  2.4404 -1.3879
  961MOL0     H32604   9.937   0.013   2.405 -1.6567  0.9340  0.7954
  961MOL0     H32605  10.108  -0.092   2.541 -0.2404  0.2495 -3.0341
  961MOL0     H32606  10.403   0.187   2.764 -4.6095  2.9575  0.1261
  961MOL0     H32607  10.267   0.173   2.872 -0.4184  3.6710 -3.7036
  961MOL0     H32608  10.463   0.074   2.983  0.4523  1.0471 -0.8879
  961MOL0     H32609  10.500  -0.025   2.846 -1.8769  0.9303 -2.5716
  961MOL0     H32610  10.297  -0.163   2.886 -2.9624  3.7206 -1.2739
  961MOL0     H32611  10.391  -0.145   3.036 -0.8603 -1.1249 -0.1520
  961MOL0     H32612  10.171   0.047   3.017 -1.2014 -1.2123 -0.0140
  961MOL0     H32613  10.212  -0.058   3.153 -1.5651  1.8815 -0.4288
  961MOL0     H32614   9.926  -0.251   2.909  0.6917 -1.8775  1.9073
  961MOL0     H32615  10.205   0.309   2.691 -2.8297  1.7199  0.0677
  961MOL0     H32616  10.085   0.471   2.423  5.0433 -0.7459  0.3302
  961MOL0     H32617   9.969   0.494   2.559  0.3717  1.8422 -2.3442
  961MOL0     H32618  10.151   0.490   2.587  1.0382 -1.8705  0.6989
  962MOL0     O32619   1.123  11.062   4.812  0.4144  0.6457 -0.1158
  962MOL0     C32620   1.242  11.065   4.823 -0.6057 -0.4476  0.4027
  962MOL0     O32621   1.315  11.049   4.938 -0.3044  0.0563  0.0800
  962MOL0     C32622   1.231  11.031   5.054 -0.9545 -0.1128 -0.3842
  962MOL0     C32623   1.241  10.912   5.126 -0.1312 -0.5091 -0.0680
  962MOL0     C32624   1.172  10.893   5.250  0.1345 -0.2295 -0.8425
  962MOL0     C32625   1.089  10.994   5.301 -0.9402 -0.5659 -0.1571
  962MOL0     O32626   1.012  10.959   5.404 -0.0935  0.2795 -0.0543
  962MOL0     C32627   0.888  11.031   5.432  0.0798 -0.7408  0.1344
  962MOL0     C32628   0.817  10.940   5.533  0.0244  0.3557  0.2623
  962MOL0     C32629   0.672  10.970   5.539  0.8845  0.2056 -0.2432
  962MOL0     C32630   0.585  10.960   5.407  0.9770 -0.0655 -0.8863
  962MOL0     C32631   0.553  11.092   5.334  0.6239 -0.4463 -0.2253
  962MOL0     C32632   0.404  11.085   5.296  0.5012 -0.0863  1.1420
  962MOL0     C32633   0.379  11.194   5.200 -0.7659  0.2196  0.1982
  962MOL0     C32634   0.236  11.215   5.166 -0.9204  0.5277 -0.0380
  962MOL0     N32635   0.226  11.315   5.058  0.0851 -0.3747 -0.5939
  962MOL0     C32636   0.172  11.444   5.063  0.2219 -0.6523  0.0618
  962MOL0     C32637   0.191  11.489   4.931 -0.1874  0.3349 -0.3425
  962MOL0     C32638   0.156  11.623   4.874 -0.3244 -0.0978 -0.4886
  962MOL0     C32639   0.276  11.673   4.796  0.4981 -0.4082 -0.3060
  962MOL0     C32640   0.242  11.804   4.730 -0.8506  0.2303 -0.5924
  962MOL0     C32641   0.151  11.806   4.617 -0.5309  0.3362  0.1659
  962MOL0     O32642   0.225  11.833   4.499 -0.7437 -0.0831 -0.2954
  962MOL0     C32643   0.238  11.961   4.451 -0.2722 -0.2931  0.4932
  962MOL0     C32644   0.304  11.979   4.332 -0.0157 -0.1223  1.0217
  962MOL0     C32645   0.307  12.105   4.270  0.1174  0.4013  0.4834
  962MOL0     C32646   0.360  12.115   4.132  0.2079 -0.6497  0.6197
  962MOL0     C32647   0.270  12.226   4.341 -0.2706 -0.7050 -0.3090
  962MOL0     C32648   0.271  12.370   4.292 -0.3531 -0.0061  0.8688
  962MOL0     O32649   0.334  12.398   4.171 -0.1180  0.4974 -0.2118
  962MOL0     C32650   0.366  12.525   4.136 -0.9871 -0.1395 -0.0625
  962MOL0     C32651   0.496  12.580   4.166 -0.2918  0.5225 -0.0770
  962MOL0     C32652   0.533  12.715   4.132  0.0150  0.8671 -0.9457
  962MOL0     C32653   0.424  12.798   4.087  0.5076  0.3501 -0.5180
  962MOL0     O32654   0.459  12.924   4.062  0.2855 -0.2520 -0.0815
  962MOL0     C32655   0.343  13.019   4.060  0.6255  0.5371  0.3329
  962MOL0     C32656   0.394  13.154   4.068 -0.3150 -0.4847 -0.5518
  962MOL0     C32657   0.479  13.187   4.181 -0.1758  0.9760 -0.6220
  962MOL0     C32658   0.428  13.152   4.321  0.0702 -1.1114 -0.3704
  962MOL0     C32659   0.293  13.209   4.343  0.1889 -0.9913 -0.7446
  962MOL0     C32660   0.258  13.227   4.498 -0.3407  0.5151 -0.7692
  962MOL0     C32661   0.129  13.297   4.513  1.1829  0.9641 -0.5927
  962MOL0     C32662   0.122  13.373   4.648  0.0883  0.4974  0.4564
  962MOL0    Cl32663   0.082  13.274   4.789 -0.0613 -0.1038  0.6287
  962MOL0     C32664   0.301  12.741   4.067 -0.4377 -0.2638 -0.3125
  962MOL0     C32665   0.270  12.607   4.086  0.2902 -0.0040  0.3153
  962MOL0     O32666   0.213  12.455   4.358  0.4012  0.1220  0.3336
  962MOL0     C32667   0.199  12.192   4.463  0.0019 -0.2927 -0.1048
  962MOL0     C32668   0.178  12.068   4.517 -1.5389  0.7013  0.3987
  962MOL0     N32669   0.232  11.388   4.857 -0.1597 -0.2506  1.0856
  962MOL0     N32670   0.256  11.290   4.928 -0.3342  0.4623  0.1812
  962MOL0     C32671   1.085  11.118   5.236  0.2469  0.0309  0.6661
  962MOL0     C32672   1.155  11.132   5.107  0.0189  0.0767  0.1337
  962MOL0     C32673   1.328  11.058   4.693  0.6137 -0.8366 -0.0710
  962MOL0     C32674   1.467  11.054   4.705 -0.9727 -0.7505  0.4484
  962MOL0     C32675   1.558  11.060   4.589  0.5013 -0.6353  0.8362
  962MOL0     C32676   1.498  11.074   4.454 -0.2036 -0.2842  0.0871
  962MOL0     O32677   1.561  11.099   4.336 -0.1918 -0.2316 -0.0109
  962MOL0     C32678   1.678  11.185   4.339 -0.2076 -0.9547  0.8453
  962MOL0     C32679   1.619  11.325   4.283 -0.0439 -0.2905  0.4273
  962MOL0     C32680   1.730  11.422   4.289 -0.2624 -0.5611 -0.7266
  962MOL0     C32681   1.685  11.556   4.239 -0.2878  0.5717 -0.1509
  962MOL0     C32682   1.789  11.654   4.226  0.2681 -0.2419 -0.4194
  962MOL0     C32683   1.873  11.734   4.225  0.2465  0.1030  0.5514
  962MOL0     C32684   1.357  11.059   4.449  0.7131  1.3649 -0.2893
  962MOL0     C32685   1.274  11.060   4.560  0.1519 -0.4550 -0.5814
  962MOL0     C32686   1.124  11.071   4.533 -0.4455  0.4576  0.8884
  962MOL0     H32687   1.318  10.841   5.095  2.5759  2.6588 -1.2455
  962MOL0     H32688   1.174  10.797   5.301 -1.3461 -0.7524 -1.7215
  962MOL0     H32689   0.827  11.048   5.343 -1.1104 -3.2466  0.3840
  962MOL0     H32690   0.912  11.121   5.490  1.4129 -1.2786  0.4486
  962MOL0     H32691   0.821  10.836   5.497  2.0180 -0.9524  3.7462
  962MOL0     H32692   0.856  10.948   5.635 -1.1405 -0.0877  0.7634
  962MOL0     H32693   0.632  10.908   5.620 -2.4258  0.3689 -1.5848
  962MOL0     H32694   0.669  11.069   5.585 -0.5865 -0.1797  0.5569
  962MOL0     H32695   0.638  10.891   5.341  3.5729  0.9076  0.0173
  962MOL0     H32696   0.495  10.910   5.443  0.6449  2.4230  2.1301
  962MOL0     H32697   0.609  11.102   5.240  0.1075  0.7141 -0.4288
  962MOL0     H32698   0.570  11.179   5.398 -4.9072 -1.1997  2.8401
  962MOL0     H32699   0.380  10.984   5.261 -2.8229  1.5117 -1.7815
  962MOL0     H32700   0.354  11.103   5.391 -0.4947 -0.7425  0.7633
  962MOL0     H32701   0.426  11.159   5.108  3.4017  0.5081  1.9829
  962MOL0     H32702   0.427  11.287   5.232 -0.0058  0.1901 -0.7979
  962MOL0     H32703   0.201  11.122   5.121  2.5791 -0.1878 -1.6538
  962MOL0     H32704   0.180  11.227   5.259 -2.9024 -1.9507 -0.7978
  962MOL0     H32705   0.122  11.489   5.149  0.7221 -0.8886  0.4840
  962MOL0     H32706   0.131  11.693   4.953  0.7997 -0.2423  0.0257
  962MOL0     H32707   0.057  11.614   4.829 -0.6513  2.4269 -0.4049
  962MOL0     H32708   0.354  11.682   4.872 -0.6287  3.1182  0.6365
  962MOL0     H32709   0.327  11.610   4.723  0.5156  1.1291 -1.6912
  962MOL0     H32710   0.213  11.875   4.808  0.5108 -1.1447  1.2568
  962MOL0     H32711   0.331  11.861   4.705 -0.8336  0.5038  0.0614
  962MOL0     H32712   0.085  11.721   4.598  0.0620  0.4989 -3.4822
  962MOL0     H32713   0.073  11.880   4.631 -0.7727  0.7297 -2.5716
  962MOL0     H32714   0.342  11.891   4.282  3.0863  2.0871 -0.8328
  962MOL0     H32715   0.447  12.181   4.121  0.8111 -0.8957  3.2119
  962MOL0     H32716   0.274  12.151   4.074 -1.3390 -1.5059  2.3113
  962MOL0     H32717   0.399  12.019   4.097  0.1062  0.1803 -2.0457
  962MOL0     H32718   0.575  12.509   4.189  1.1281  1.5140 -1.6612
  962MOL0     H32719   0.631  12.762   4.138  0.5598 -0.2924 -0.2724
  962MOL0     H32720   0.274  13.014   3.974  0.3526  0.8486  0.5302
  962MOL0     H32721   0.288  13.013   4.154 -0.6391  1.5006 -0.2990
  962MOL0     H32722   0.441  13.180   3.972  0.9964  1.9121  0.6543
  962MOL0     H32723   0.306  13.219   4.065 -1.9867 -2.6294 -2.7004
  962MOL0     H32724   0.492  13.295   4.182  0.0033  0.9633  0.9747
  962MOL0     H32725   0.578  13.143   4.163  0.0449 -0.3157  2.9343
  962MOL0     H32726   0.492  13.214   4.385 -0.6350 -0.4118 -0.3327
  962MOL0     H32727   0.428  13.044   4.340 -1.6089 -0.7951  1.8799
  962MOL0     H32728   0.304  13.311   4.307  0.0954 -0.6899  0.0520
  962MOL0     H32729   0.209  13.168   4.287 -3.9204  4.0661  0.8663
  962MOL0     H32730   0.342  13.289   4.531 -1.0403  1.7494 -1.2813
  962MOL0     H32731   0.244  13.142   4.566  0.1784  1.9548  1.2069
  962MOL0     H32732   0.045  13.230   4.493 -0.1269  2.3249  0.1487
  962MOL0     H32733   0.118  13.364   4.427 -0.8441  0.7103 -0.5578
  962MOL0     H32734   0.054  13.455   4.625  0.9304  0.6119 -1.9722
  962MOL0     H32735   0.220  13.416   4.667 -0.1432  1.4339 -0.3808
  962MOL0     H32736   0.214  12.797   4.032 -0.2592 -0.7379 -1.5833
  962MOL0     H32737   0.167  12.577   4.070  0.2730  0.5630 -0.7178
  962MOL0     H32738   0.148  12.269   4.521 -1.9269 -2.5912  1.4476
  962MOL0     H32739   0.125  12.054   4.610 -1.6910 -2.7229 -0.0903
  962MOL0     H32740   1.044  11.210   5.277 -0.7240 -0.0224 -0.1449
  962MOL0     H32741   1.146  11.217   5.039 -0.3343  1.0898  1.4100
  962MOL0     H32742   1.513  11.040   4.802 -0.5061 -0.9178  0.2057
  962MOL0     H32743   1.665  11.062   4.611  0.5235 -1.9479  0.8901
  962MOL0     H32744   1.715  11.212   4.438 -2.5698  1.6334  1.1598
  962MOL0     H32745   1.765  11.153   4.282 -1.2161 -1.9405 -0.1776
  962MOL0     H32746   1.536  11.358   4.346 -0.8816  2.9085 -2.1291
  962MOL0     H32747   1.581  11.316   4.182  1.7153  2.5593 -0.6069
  962MOL0     H32748   1.764  11.437   4.392 -0.8290  5.2208 -1.0688
  962MOL0     H32749   1.817  11.393   4.229  0.2876  2.1205 -1.3256
  962MOL0     H32750   1.608  11.601   4.302 -0.7924  0.9542 -1.0214
  962MOL0     H32751   1.644  11.540   4.139 -2.0048  0.9940  0.4604
  962MOL0     H32752   1.954  11.804   4.225  1.9020 -1.5477 -3.1656
  962MOL0     H32753   1.305  11.062   4.354 -0.5600  0.3605  0.3542
  962MOL0     H32754   1.072  10.986   4.578  2.0085 -0.9095  1.3482
  962MOL0     H32755   1.089  11.167   4.572 -0.9040  1.9365 -2.7899
  962MOL0     H32756   1.097  11.063   4.427  0.7947 -4.2735  0.6682
  963MOL0     O32757  11.365   2.288   9.736  0.1459  0.3031  0.6593
  963MOL0     C32758  11.439   2.194   9.751  0.1252  0.1863 -1.0543
  963MOL0     O32759  11.567   2.201   9.780 -0.4106  0.1283 -0.0578
  963MOL0     C32760  11.645   2.309   9.783 -1.2161  0.8605  0.2922
  963MOL0     C32761  11.765   2.298   9.711 -0.9260 -0.3337 -0.0986
  963MOL0     C32762  11.839   2.412   9.695 -0.1358 -1.0220 -1.0900
  963MOL0     C32763  11.804   2.532   9.755 -0.9254  0.7001  0.0623
  963MOL0     O32764  11.880   2.649   9.753  0.2319  0.1764  0.3063
  963MOL0     C32765  12.012   2.628   9.791  0.1750  0.1400 -0.0735
  963MOL0     C32766  12.085   2.761   9.824  1.3243 -0.1996  0.0054
  963MOL0     C32767  12.087   2.871   9.720 -0.9032 -0.4805  0.8538
  963MOL0     C32768  12.127   3.004   9.783 -0.0209  0.7082 -0.6875
  963MOL0     C32769  12.183   3.109   9.681 -0.0835 -0.7591  0.7660
  963MOL0     C32770  12.199   3.258   9.744 -0.1523  0.2558  0.6756
  963MOL0     C32771  12.257   3.361   9.649  0.2706  0.4226  0.7171
  963MOL0     C32772  12.397   3.329   9.602 -0.4982  0.4021  0.4918
  963MOL0     N32773  12.435   3.415   9.491 -1.4236  0.1564 -0.3753
  963MOL0     C32774  12.487   3.537   9.523 -0.3415 -0.6279 -0.0825
  963MOL0     C32775  12.554   3.575   9.409 -0.4796  0.3831  0.2670
  963MOL0     C32776  12.626   3.707   9.398  1.0499 -0.3828 -0.4709
  963MOL0     C32777  12.748   3.696   9.304 -0.1698 -0.2832 -0.2158
  963MOL0     C32778  12.862   3.787   9.318 -1.0971  0.2012  0.1266
  963MOL0     C32779  12.820   3.933   9.357  0.0325  0.5226  0.7638
  963MOL0     O32780  12.923   4.029   9.339  0.3383 -1.1198  0.3361
  963MOL0     C32781  12.925   4.136   9.417 -0.4947  0.0069 -0.5711
  963MOL0     C32782  13.019   4.157   9.518 -0.8446 -1.0665 -0.1438
  963MOL0     C32783  13.030   4.285   9.588 -1.0608 -0.7574 -0.7033
  963MOL0     C32784  13.149   4.294   9.686 -1.2756 -0.0618 -0.2616
  963MOL0     C32785  12.933   4.382   9.564 -0.6757 -0.2018 -0.6412
  963MOL0     C32786  12.947   4.525   9.611  0.5189  0.5541  0.7774
  963MOL0     O32787  12.859   4.617   9.558 -0.1743  0.0499 -0.5966
  963MOL0     C32788  12.907   4.742   9.529 -0.2509  0.7029  0.2753
  963MOL0     C32789  12.959   4.771   9.402  0.8931 -0.0683 -0.6895
  963MOL0     C32790  13.021   4.892   9.370 -0.3328 -0.4974  0.0196
  963MOL0     C32791  13.025   5.000   9.470 -0.1887 -0.3342 -0.0858
  963MOL0     O32792  13.088   5.109   9.445 -0.6505  0.5613  0.0700
  963MOL0     C32793  13.115   5.167   9.311  0.2756 -0.9186 -0.1311
  963MOL0     C32794  13.248   5.120   9.261 -0.3414 -0.0928 -0.8534
  963MOL0     C32795  13.364   5.189   9.337 -0.0371 -0.2542  0.2681
  963MOL0     C32796  13.372   5.343   9.325 -0.7463  0.4602 -0.8968
  963MOL0     C32797  13.503   5.389   9.405  0.3486  0.3756 -0.4583
  963MOL0     C32798  13.481   5.372   9.561 -0.3367 -0.2341  0.0705
  963MOL0     C32799  13.594   5.438   9.640  0.0995  0.6328  0.3466
  963MOL0     C32800  13.549   5.481   9.776  1.1160  0.2135  0.6950
  963MOL0    Cl32801  13.451   5.348   9.857 -0.1592  0.1973  0.0020
  963MOL0     C32802  12.986   4.966   9.603 -0.0718  0.6179  0.6373
  963MOL0     C32803  12.923   4.843   9.629 -0.3564 -0.7226 -0.8709
  963MOL0     O32804  13.037   4.564   9.680  0.1099 -0.7371 -0.4458
  963MOL0     C32805  12.835   4.353   9.468 -1.3030  0.1589  0.4963
  963MOL0     C32806  12.839   4.236   9.394  0.2003 -0.1170 -0.4771
  963MOL0     N32807  12.510   3.495   9.307  1.1196 -0.1560 -0.5703
  963MOL0     N32808  12.445   3.392   9.359  0.1381  0.3445  0.5396
  963MOL0     C32809  11.684   2.537   9.832 -0.1870 -0.0553  1.1086
  963MOL0     C32810  11.606   2.422   9.847  0.0897 -0.6074  0.7809
  963MOL0     C32811  11.368   2.062   9.754 -0.1584  0.2601  0.6921
  963MOL0     C32812  11.239   2.056   9.807 -0.5652 -0.7894  0.1856
  963MOL0     C32813  11.152   1.946   9.797 -0.9024 -0.3198  0.3354
  963MOL0     C32814  11.204   1.826   9.736 -0.0133  0.4344  0.4989
  963MOL0     O32815  11.129   1.717   9.752 -0.7118  0.6900 -0.5242
  963MOL0     C32816  11.056   1.656   9.646 -0.8979 -0.6202 -0.1014
  963MOL0     C32817  10.924   1.729   9.610  0.7841 -0.2130 -0.0021
  963MOL0     C32818  10.828   1.734   9.732 -0.4883  0.4152  0.4634
  963MOL0     C32819  10.721   1.834   9.709  0.2637 -0.4947 -0.5242
  963MOL0     C32820  10.610   1.811   9.815 -0.2256  0.5584  0.3667
  963MOL0     C32821  10.528   1.798   9.908  0.3759 -0.0570 -0.6274
  963MOL0     C32822  11.330   1.820   9.685 -0.7477 -0.6614  0.4154
  963MOL0     C32823  11.415   1.935   9.688  0.7331  0.0943  0.2604
  963MOL0     C32824  11.545   1.920   9.623  0.9094  0.4692 -1.0108
  963MOL0     H32825  11.794   2.202   9.669  0.0998  0.8693 -2.3304
  963MOL0     H32826  11.926   2.394   9.632 -0.0763  2.5196 -2.2531
  963MOL0     H32827  12.071   2.598   9.704  1.1721  1.2016  0.2118
  963MOL0     H32828  12.005   2.567   9.881 -1.5892  0.7462  0.2368
  963MOL0     H32829  12.030   2.817   9.900  4.3815  2.4070  0.4943
  963MOL0     H32830  12.184   2.730   9.858  1.4355  0.4233  0.2493
  963MOL0     H32831  12.144   2.849   9.629 -2.1280  0.9477 -0.3093
  963MOL0     H32832  11.986   2.891   9.685 -0.3184 -0.9250 -1.2176
  963MOL0     H32833  12.046   3.045   9.845  1.6155  1.9852  0.6919
  963MOL0     H32834  12.206   2.983   9.855 -0.8973 -0.7937 -0.1025
  963MOL0     H32835  12.113   3.131   9.600  0.3253  4.7508  1.5265
  963MOL0     H32836  12.283   3.078   9.649  0.2631 -2.3620  3.1699
  963MOL0     H32837  12.096   3.285   9.771 -1.9954 -1.0119 -3.9994
  963MOL0     H32838  12.254   3.247   9.838 -0.0209 -2.6244  0.3759
  963MOL0     H32839  12.262   3.458   9.698 -1.1686 -0.4533  2.7201
  963MOL0     H32840  12.194   3.371   9.560 -0.5391  0.1552  1.2514
  963MOL0     H32841  12.471   3.338   9.682  3.7463  0.2658 -3.0278
  963MOL0     H32842  12.404   3.225   9.568 -3.0721  0.2541  0.1965
  963MOL0     H32843  12.489   3.582   9.621 -0.7853 -1.2574  0.2185
  963MOL0     H32844  12.649   3.753   9.494  0.5153  0.8901 -0.9340
  963MOL0     H32845  12.554   3.775   9.352  1.0757 -1.3029 -1.9299
  963MOL0     H32846  12.795   3.599   9.320  2.3056  1.1967  2.6685
  963MOL0     H32847  12.710   3.711   9.202 -0.7319 -0.9648 -0.1127
  963MOL0     H32848  12.938   3.742   9.383  0.5961 -1.7794 -2.9520
  963MOL0     H32849  12.908   3.807   9.221  3.5003 -0.8713  1.8364
  963MOL0     H32850  12.739   3.981   9.301 -1.2518 -1.2469  0.9981
  963MOL0     H32851  12.792   3.935   9.462  1.7695 -0.5961  1.2961
  963MOL0     H32852  13.084   4.076   9.547 -2.6409 -1.5760  2.7744
  963MOL0     H32853  13.223   4.373   9.670  2.9644 -2.5595  4.0719
  963MOL0     H32854  13.211   4.203   9.689 -1.4190 -0.1377  0.9562
  963MOL0     H32855  13.111   4.323   9.784 -2.5493  0.6631 -0.9521
  963MOL0     H32856  12.977   4.702   9.320 -0.0309  0.7064 -1.5679
  963MOL0     H32857  13.063   4.907   9.271 -0.6622 -0.7008 -0.1494
  963MOL0     H32858  13.041   5.140   9.236  0.3441 -0.0450 -0.5283
  963MOL0     H32859  13.100   5.275   9.321 -2.9820 -1.4461  2.7890
  963MOL0     H32860  13.252   5.011   9.267 -0.4571 -0.0284  0.6465
  963MOL0     H32861  13.255   5.143   9.154 -1.0520  2.3257 -0.4474
  963MOL0     H32862  13.459   5.148   9.303  0.2432  0.6498 -0.0821
  963MOL0     H32863  13.354   5.160   9.442 -1.6141 -0.4534  0.0961
  963MOL0     H32864  13.283   5.397   9.358 -0.8086  0.0260 -0.3165
  963MOL0     H32865  13.386   5.377   9.223 -2.4108  0.1676 -1.2495
  963MOL0     H32866  13.592   5.343   9.361  0.3138  2.4730 -2.9920
  963MOL0     H32867  13.516   5.493   9.374  3.9223  0.6796  1.5691
  963MOL0     H32868  13.482   5.263   9.576  2.2760 -0.3617 -0.4948
  963MOL0     H32869  13.383   5.417   9.577  0.1410  1.3771 -1.3082
  963MOL0     H32870  13.623   5.535   9.598 -3.0511  1.3384 -0.4600
  963MOL0     H32871  13.677   5.368   9.650 -1.6250 -1.4025  1.0856
  963MOL0     H32872  13.488   5.571   9.788 -0.3830 -0.5731 -0.6087
  963MOL0     H32873  13.637   5.508   9.835  1.2641  0.1257  0.5154
  963MOL0     H32874  12.993   5.033   9.688  2.8606 -0.1385  1.1147
  963MOL0     H32875  12.892   4.807   9.727 -3.0534 -1.0813 -1.7787
  963MOL0     H32876  12.764   4.429   9.437 -2.1662 -0.1278  1.6829
  963MOL0     H32877  12.772   4.219   9.310  0.3974 -3.3591 -0.1000
  963MOL0     H32878  11.657   2.629   9.882 -0.3019  0.8233 -0.4788
  963MOL0     H32879  11.526   2.414   9.920  0.7534 -0.5117  1.5354
  963MOL0     H32880  11.205   2.142   9.864 -1.2661  0.5735 -2.1531
  963MOL0     H32881  11.062   1.948   9.858 -0.3097 -0.6832  1.2505
  963MOL0     H32882  11.123   1.630   9.563  1.8128  0.1695  1.7140
  963MOL0     H32883  11.027   1.556   9.680 -6.4112  0.4482 -0.6778
  963MOL0     H32884  10.878   1.688   9.520 -0.7582 -1.4366  1.2803
  963MOL0     H32885  10.943   1.830   9.573 -2.0188  0.4666  0.2403
  963MOL0     H32886  10.792   1.633   9.752  2.0889 -1.1692 -2.1366
  963MOL0     H32887  10.885   1.767   9.819  0.7192  3.6697 -1.3788
  963MOL0     H32888  10.686   1.819   9.606 -1.2397  2.3768 -0.5430
  963MOL0     H32889  10.742   1.941   9.718 -2.2869 -0.0925  1.9498
  963MOL0     H32890  10.454   1.787   9.985  0.3115 -2.1649 -0.9289
  963MOL0     H32891  11.359   1.727   9.637  2.8656 -2.2515  4.9152
  963MOL0     H32892  11.605   1.932   9.714 -0.0941  2.6011 -0.5782
  963MOL0     H32893  11.559   1.821   9.577  3.2954 -0.3905  1.2919
  963MOL0     H32894  11.563   2.002   9.553 -1.2732  2.7461  0.8821
  964MOL0     O32895   4.102   9.080   0.381 -0.6739  0.2694  0.3759
  964MOL0     C32896   4.039   9.083   0.274 -1.2179  0.6204 -0.3757
  964MOL0     O32897   3.914   9.037   0.255  0.4048  0.5196  0.5880
  964MOL0     C32898   3.838   8.993   0.360 -0.9382 -0.6839  0.1278
  964MOL0     C32899   3.828   9.075   0.477  0.1982 -0.2884  0.1723
  964MOL0     C32900   3.762   9.031   0.593  0.3152  0.2413  0.0432
  964MOL0     C32901   3.699   8.902   0.593  0.5685 -0.1209 -0.3144
  964MOL0     O32902   3.631   8.835   0.692  0.1169  0.4204  0.1080
  964MOL0     C32903   3.611   8.925   0.797 -0.3763  0.7742 -1.3885
  964MOL0     C32904   3.731   8.912   0.910 -0.5675 -1.0762  0.5085
  964MOL0     C32905   3.697   9.025   1.022  0.0941 -0.2148 -0.5547
  964MOL0     C32906   3.749   9.152   0.961  0.7985  0.4426  0.3940
  964MOL0     C32907   3.690   9.269   1.051  0.9594  0.1571  0.2449
  964MOL0     C32908   3.536   9.292   1.025 -1.1583 -0.2663 -0.7359
  964MOL0     C32909   3.486   9.428   1.083  0.2247 -0.9163  0.3363
  964MOL0     C32910   3.551   9.545   1.009  0.5626  0.4846 -0.2310
  964MOL0     N32911   3.526   9.554   0.867 -0.6422  0.7777  0.0219
  964MOL0     C32912   3.627   9.566   0.768 -0.2125  0.3604  1.4237
  964MOL0     C32913   3.550   9.554   0.659  0.0138  0.4726  0.3976
  964MOL0     C32914   3.598   9.548   0.513  0.5377  0.1261  0.1770
  964MOL0     C32915   3.620   9.403   0.463  0.5599 -0.3442 -0.0633
  964MOL0     C32916   3.658   9.396   0.314  0.4926 -0.6640 -0.9327
  964MOL0     C32917   3.801   9.443   0.293  0.2763 -0.1098  0.0139
  964MOL0     O32918   3.853   9.381   0.171  0.4877 -0.4224 -1.1475
  964MOL0     C32919   3.911   9.464   0.079  0.6723  0.3132 -0.0317
  964MOL0     C32920   3.966   9.586   0.115 -0.8974 -0.6589  0.4169
  964MOL0     C32921   4.001   9.684   0.020 -0.1230  0.2181  0.1570
  964MOL0     C32922   4.062   9.807   0.081  0.2749  0.0399 -0.0242
  964MOL0     C32923   3.970   9.656  -0.120 -1.3090 -1.3288 -0.3831
  964MOL0     C32924   3.992   9.763  -0.228 -0.5805  0.7643  0.9386
  964MOL0     O32925   3.947   9.731  -0.351 -0.5148  0.5207 -0.8319
  964MOL0     C32926   3.950   9.828  -0.445  0.1570 -0.2704 -1.3887
  964MOL0     C32927   3.974   9.788  -0.577 -0.3640  1.2634 -0.1269
  964MOL0     C32928   3.968   9.876  -0.686  0.5280  0.5772  0.9066
  964MOL0     C32929   3.960  10.008  -0.669 -0.6308 -0.7169 -0.2265
  964MOL0     O32930   3.962  10.096  -0.773  0.7764 -0.3481 -0.0996
  964MOL0     C32931   3.837  10.177  -0.807 -1.7164 -0.3778 -0.8219
  964MOL0     C32932   3.800  10.138  -0.948 -0.1307 -0.4194  0.4571
  964MOL0     C32933   3.710  10.248  -1.010 -0.4195  0.0182 -0.0992
  964MOL0     C32934   3.597  10.283  -0.920  0.3070  0.4106 -0.8820
  964MOL0     C32935   3.452  10.313  -0.993 -0.8100 -0.2243 -0.9833
  964MOL0     C32936   3.451  10.438  -1.083  0.6994 -0.2621 -0.4783
  964MOL0     C32937   3.319  10.468  -1.149  0.1861  0.4602 -0.1186
  964MOL0     C32938   3.224  10.553  -1.073 -0.1359 -0.8431  0.5134
  964MOL0    Cl32939   3.172  10.484  -0.926  0.0121  0.1321 -0.0381
  964MOL0     C32940   3.941  10.056  -0.535  0.1743  0.1399  0.1316
  964MOL0     C32941   3.926   9.965  -0.424  0.3382 -0.4036 -0.5883
  964MOL0     O32942   4.059   9.866  -0.197 -0.2383  0.3636  0.5498
  964MOL0     C32943   3.930   9.523  -0.152  0.7759 -0.6260 -0.2233
  964MOL0     C32944   3.888   9.431  -0.055 -0.5865 -0.5219 -0.5069
  964MOL0     N32945   3.413   9.533   0.686 -0.2560 -0.7057 -0.1768
  964MOL0     N32946   3.405   9.538   0.813 -0.3361 -0.2429 -0.3283
  964MOL0     C32947   3.707   8.830   0.473  0.4853  0.0646 -0.2723
  964MOL0     C32948   3.775   8.871   0.354 -0.0354  0.3443 -0.2874
  964MOL0     C32949   4.103   9.130   0.150 -0.1070 -0.6236  0.5044
  964MOL0     C32950   4.056   9.085   0.026 -0.0389  0.9223  0.4578
  964MOL0     C32951   4.089   9.149  -0.096 -0.2093  0.2685  0.2940
  964MOL0     C32952   4.180   9.254  -0.095  0.1620  0.1323  1.0984
  964MOL0     O32953   4.192   9.314  -0.221  0.3222 -0.1186  0.2344
  964MOL0     C32954   4.264   9.432  -0.240 -0.9033 -0.1083  0.1105
  964MOL0     C32955   4.296   9.445  -0.396  0.1313 -0.4913 -0.2083
  964MOL0     C32956   4.436   9.522  -0.420 -1.3423 -0.5725 -0.2350
  964MOL0     C32957   4.409   9.675  -0.447  0.4879 -0.1192 -0.7764
  964MOL0     C32958   4.502   9.768  -0.383 -0.0883 -0.7211 -0.7034
  964MOL0     C32959   4.556   9.859  -0.325  0.0588 -0.0656  0.6515
  964MOL0     C32960   4.233   9.298   0.029 -0.8793  0.5859  0.5533
  964MOL0     C32961   4.197   9.233   0.151 -0.4200 -0.2547 -0.2624
  964MOL0     C32962   4.251   9.290   0.285  0.2986 -0.0350 -0.4479
  964MOL0     H32963   3.868   9.176   0.473  0.9935 -0.6161 -0.4447
  964MOL0     H32964   3.754   9.101   0.676 -2.0186  2.5887 -1.9495
  964MOL0     H32965   3.520   8.890   0.848  2.3429 -0.3490  3.2658
  964MOL0     H32966   3.575   9.019   0.755 -1.0330 -0.0961 -2.8455
  964MOL0     H32967   3.719   8.809   0.943 -0.0627 -1.2614  0.1244
  964MOL0     H32968   3.832   8.916   0.867  0.2613 -4.3073  1.9010
  964MOL0     H32969   3.589   9.029   1.034  0.0191  1.1950 -1.4881
  964MOL0     H32970   3.751   9.011   1.116 -3.4282  0.4440  1.7140
  964MOL0     H32971   3.859   9.156   0.958  1.0725 -3.5357 -2.7728
  964MOL0     H32972   3.705   9.170   0.863  0.9436 -1.0907  0.0237
  964MOL0     H32973   3.753   9.356   1.030  1.4908  0.4789  2.8074
  964MOL0     H32974   3.698   9.246   1.158 -1.8751 -0.9208  0.2849
  964MOL0     H32975   3.497   9.297   0.923 -0.4582  0.4827 -0.9824
  964MOL0     H32976   3.487   9.206   1.071 -1.0145  0.7471  1.4201
  964MOL0     H32977   3.498   9.429   1.191 -1.9224  0.2983  0.6262
  964MOL0     H32978   3.378   9.439   1.067  0.3350  4.1701  1.4582
  964MOL0     H32979   3.514   9.634   1.062 -1.6104 -1.4519  1.7560
  964MOL0     H32980   3.658   9.555   1.028  0.4915 -0.5943  0.8763
  964MOL0     H32981   3.735   9.573   0.777 -0.3029  4.3901  0.9983
  964MOL0     H32982   3.696   9.597   0.519 -1.3315  4.1619  1.5999
  964MOL0     H32983   3.534   9.608   0.448 -0.5798 -2.2359 -1.0115
  964MOL0     H32984   3.690   9.354   0.531  0.2801  3.2004  3.1687
  964MOL0     H32985   3.529   9.343   0.474  0.7486 -0.7280 -0.5727
  964MOL0     H32986   3.656   9.289   0.294 -3.3690 -0.9444  0.0761
  964MOL0     H32987   3.590   9.451   0.248  2.0857  0.1159 -1.9779
  964MOL0     H32988   3.798   9.552   0.291 -0.4909 -0.0974  1.0272
  964MOL0     H32989   3.862   9.404   0.374 -1.3912  0.9178  1.8512
  964MOL0     H32990   3.997   9.606   0.217  1.3037 -1.8784  0.0465
  964MOL0     H32991   4.072   9.793   0.189 -1.7171 -0.8185  0.0784
  964MOL0     H32992   3.985   9.884   0.069 -1.4112 -1.5347  0.2776
  964MOL0     H32993   4.159   9.836   0.038  1.1086 -0.4794  1.4367
  964MOL0     H32994   3.986   9.682  -0.594 -0.2792  0.9338  1.8394
  964MOL0     H32995   3.978   9.842  -0.789  0.0305 -3.6916  2.0847
  964MOL0     H32996   3.760  10.164  -0.731 -0.7900 -2.2324 -0.1253
  964MOL0     H32997   3.870  10.281  -0.808  3.4243 -1.7276 -0.4372
  964MOL0     H32998   3.899  10.137  -0.995 -0.4193 -0.4895 -0.1531
  964MOL0     H32999   3.759  10.036  -0.948  0.5178 -0.6908  0.5273
  964MOL0     H33000   3.674  10.228  -1.112  1.9882  1.3122 -1.3130
  964MOL0     H33001   3.775  10.332  -1.038  0.6391 -1.6312 -3.1405
  964MOL0     H33002   3.623  10.356  -0.842  2.0478 -2.0000  0.9523
  964MOL0     H33003   3.579  10.190  -0.864 -0.4780  2.0156  1.7271
  964MOL0     H33004   3.421  10.236  -1.064 -3.3892  0.2144 -0.4375
  964MOL0     H33005   3.376  10.311  -0.915 -1.1348 -0.8599 -1.3128
  964MOL0     H33006   3.527  10.429  -1.161 -0.3271  0.3804 -1.5713
  964MOL0     H33007   3.476  10.530  -1.029 -3.5694  1.3122 -0.8619
  964MOL0     H33008   3.283  10.375  -1.196 -0.0297  0.7888 -0.6134
  964MOL0     H33009   3.345  10.514  -1.245 -1.3369 -0.4812 -1.0363
  964MOL0     H33010   3.139  10.579  -1.136  1.1275  2.6976  0.0337
  964MOL0     H33011   3.266  10.650  -1.046  0.0559 -0.0549 -2.3621
  964MOL0     H33012   3.921  10.161  -0.516  3.6780  1.1579 -1.1228
  964MOL0     H33013   3.900  10.010  -0.329 -0.0083 -0.3998 -0.6855
  964MOL0     H33014   3.899   9.505  -0.254 -1.9850 -1.2142  0.6324
  964MOL0     H33015   3.855   9.332  -0.085 -3.6294  0.4049 -0.5271
  964MOL0     H33016   3.661   8.732   0.466 -2.9242  1.5403 -0.4924
  964MOL0     H33017   3.780   8.815   0.261 -0.5824 -2.6987  1.3655
  964MOL0     H33018   3.970   9.019   0.020  1.0035 -0.7348  2.4674
  964MOL0     H33019   4.016   9.145  -0.176 -0.7349 -0.7027  0.8037
  964MOL0     H33020   4.213   9.520  -0.200  0.6046  0.0697  1.7174
  964MOL0     H33021   4.359   9.435  -0.187 -0.5366  2.6589 -0.5340
  964MOL0     H33022   4.215   9.479  -0.461 -2.9584 -3.4195  1.8095
  964MOL0     H33023   4.323   9.342  -0.417 -0.0986 -0.3771 -1.0988
  964MOL0     H33024   4.509   9.520  -0.338 -0.5099  2.2582 -0.8120
  964MOL0     H33025   4.486   9.490  -0.511 -3.0394 -0.3586 -1.2820
  964MOL0     H33026   4.312   9.715  -0.415 -0.0542 -1.7827 -0.2506
  964MOL0     H33027   4.421   9.709  -0.550  0.2875  2.1764 -0.1155
  964MOL0     H33028   4.610   9.934  -0.271  5.5089 -0.5940 -3.2417
  964MOL0     H33029   4.308   9.376   0.030 -0.3175  0.0941  2.4623
  964MOL0     H33030   4.315   9.226   0.345 -0.9590 -1.2126 -0.3087
  964MOL0     H33031   4.321   9.371   0.264 -0.0121  0.2150 -0.5344
  964MOL0     H33032   4.166   9.323   0.346  1.0664 -0.5265  0.9309
  965MOL0     O33033  11.191  10.626   3.541 -0.8089  0.0761  0.0126
  965MOL0     C33034  11.258  10.529   3.571 -1.8803  0.4992  0.3400
  965MOL0     O33035  11.282  10.415   3.489  0.7137 -0.5795  0.0714
  965MOL0     C33036  11.166  10.378   3.426  1.5729 -0.1432 -0.1521
  965MOL0     C33037  11.067  10.316   3.504  0.4970 -0.0958 -0.7715
  965MOL0     C33038  10.952  10.278   3.441  0.2106  1.2548 -0.0111
  965MOL0     C33039  10.927  10.296   3.301  1.2543 -0.1253 -0.5644
  965MOL0     O33040  10.807  10.250   3.246 -0.1538 -0.7642  0.2480
  965MOL0     C33041  10.717  10.155   3.306  1.1570 -0.1402 -0.0400
  965MOL0     C33042  10.616  10.126   3.187 -0.1030  0.2763 -0.0491
  965MOL0     C33043  10.505  10.233   3.159 -0.0200  0.5805  0.2982
  965MOL0     C33044  10.417  10.195   3.040  0.7966 -0.7274  0.0552
  965MOL0     C33045  10.313  10.305   3.025  0.0358 -0.0190  0.1584
  965MOL0     C33046  10.225  10.344   3.149  0.4760  0.3685 -0.1585
  965MOL0     C33047  10.121  10.446   3.111  0.0146  0.4146 -0.9019
  965MOL0     C33048  10.086  10.539   3.230 -0.6619  1.5504  0.5572
  965MOL0     N33049  10.003  10.653   3.187 -0.4115 -0.1827  0.3466
  965MOL0     C33050  10.032  10.783   3.174 -0.0159  0.2263  1.3432
  965MOL0     C33051   9.911  10.833   3.134  0.0637 -0.2892  0.6384
  965MOL0     C33052   9.882  10.978   3.103 -0.2995  0.0501  0.2913
  965MOL0     C33053   9.781  10.996   2.999  1.0486 -0.2958  0.9039
  965MOL0     C33054   9.772  11.147   2.958  1.2356  0.2060  0.5484
  965MOL0     C33055   9.646  11.191   2.892 -0.6303  0.9095  0.2292
  965MOL0     O33056   9.632  11.112   2.778 -0.6169  0.5223  0.6468
  965MOL0     C33057   9.514  11.111   2.709 -0.3073  0.7801  0.1658
  965MOL0     C33058   9.401  11.162   2.749  0.9875 -0.2628 -0.1681
  965MOL0     C33059   9.290  11.171   2.658  0.4757 -0.7909 -0.9976
  965MOL0     C33060   9.164  11.244   2.707 -0.2230  0.2060  0.5206
  965MOL0     C33061   9.304  11.108   2.523  0.1241  0.7499 -0.0729
  965MOL0     C33062   9.192  11.089   2.431  0.8278 -0.4832 -0.1320
  965MOL0     O33063   9.217  11.066   2.297 -0.4750 -1.0649 -0.3231
  965MOL0     C33064   9.131  11.020   2.200  0.1957  0.3590  0.0981
  965MOL0     C33065   9.164  11.028   2.070  0.1539 -0.4261 -0.6746
  965MOL0     C33066   9.080  10.971   1.976  1.2120 -0.2109  0.0448
  965MOL0     C33067   8.955  10.916   2.004 -0.2727  1.4291 -0.0010
  965MOL0     O33068   8.872  10.867   1.905 -0.7707 -0.4791 -0.9330
  965MOL0     C33069   8.790  10.973   1.861  0.6297  0.1917  0.0632
  965MOL0     C33070   8.704  10.918   1.736 -0.0194 -0.4552 -0.0766
  965MOL0     C33071   8.599  11.017   1.695 -0.2555  0.7734 -0.1586
  965MOL0     C33072   8.461  10.949   1.695 -1.1085  0.8410 -0.6979
  965MOL0     C33073   8.354  11.043   1.668 -0.3461 -0.0678  0.0952
  965MOL0     C33074   8.345  11.090   1.523  0.4685 -0.5103 -0.4250
  965MOL0     C33075   8.394  11.237   1.522  0.7649 -0.9965 -0.2821
  965MOL0     C33076   8.276  11.328   1.550  0.2876  0.7168  0.5845
  965MOL0    Cl33077   8.343  11.485   1.569 -0.2326 -0.2049 -0.3387
  965MOL0     C33078   8.918  10.911   2.136 -0.2149 -0.2285  0.0883
  965MOL0     C33079   9.007  10.958   2.233  0.3561  0.5741 -0.4114
  965MOL0     O33080   9.082  11.075   2.488 -0.4426 -0.5295 -0.7306
  965MOL0     C33081   9.426  11.044   2.493 -1.0342 -0.4337  0.0515
  965MOL0     C33082   9.525  11.043   2.590 -0.2611 -0.2885 -1.0930
  965MOL0     N33083   9.817  10.740   3.148  0.6896 -0.6637 -0.2475
  965MOL0     N33084   9.875  10.633   3.187  0.8807 -0.2549 -0.7835
  965MOL0     C33085  11.021  10.368   3.227  0.8017  0.5730 -0.3850
  965MOL0     C33086  11.136  10.411   3.289 -0.9815 -0.0263 -0.7348
  965MOL0     C33087  11.325  10.523   3.693  0.2817  0.2006  0.2096
  965MOL0     C33088  11.316  10.412   3.773  0.0015 -0.2941  0.1517
  965MOL0     C33089  11.392  10.401   3.895  0.2094 -0.0006  0.2567
  965MOL0     C33090  11.464  10.510   3.928  0.5932 -0.0918 -0.6501
  965MOL0     O33091  11.541  10.486   4.043  0.0426 -0.0023  0.2756
  965MOL0     C33092  11.506  10.551   4.164  0.8306 -0.1205  0.1393
  965MOL0     C33093  11.492  10.429   4.266 -0.6996 -0.4608 -0.0915
  965MOL0     C33094  11.623  10.399   4.338  0.1485  0.5739 -0.5674
  965MOL0     C33095  11.606  10.279   4.432 -0.2938  0.5528  0.9672
  965MOL0     C33096  11.734  10.262   4.491 -0.2255 -0.3412  0.0283
  965MOL0     C33097  11.827  10.237   4.551 -0.1166 -0.4015 -0.6211
  965MOL0     C33098  11.459  10.626   3.860  0.0758 -0.1845 -0.0673
  965MOL0     C33099  11.388  10.635   3.742 -0.5088  0.0831 -0.2908
  965MOL0     C33100  11.415  10.776   3.675  0.5529 -0.0149 -0.5157
  965MOL0     H33101  11.077  10.284   3.607 -0.9083 -1.0664 -0.9167
  965MOL0     H33102  10.885  10.218   3.503  0.4600  0.0523 -0.8833
  965MOL0     H33103  10.662  10.198   3.390 -0.2037  1.8999 -1.8738
  965MOL0     H33104  10.779  10.070   3.337 -0.7482 -0.1551  4.5594
  965MOL0     H33105  10.677  10.099   3.100  2.7938  1.1325  1.5871
  965MOL0     H33106  10.554  10.040   3.214 -1.5286  1.0399 -0.7789
  965MOL0     H33107  10.442  10.251   3.247  0.2864 -0.2842  0.6983
  965MOL0     H33108  10.562  10.325   3.142  1.2657 -0.1054  0.7685
  965MOL0     H33109  10.470  10.175   2.946 -0.7727 -3.0761 -0.3980
  965MOL0     H33110  10.370  10.098   3.055  1.3611 -1.0691 -0.3379
  965MOL0     H33111  10.251  10.298   2.935  2.8202  1.8775 -2.0888
  965MOL0     H33112  10.363  10.396   2.992 -1.1813 -0.7213 -4.4787
  965MOL0     H33113  10.175  10.260   3.199 -1.4765  0.7727 -1.2946
  965MOL0     H33114  10.286  10.399   3.220 -1.3528  0.8806  1.0925
  965MOL0     H33115  10.029  10.399   3.074  0.7760 -1.0107 -1.0494
  965MOL0     H33116  10.159  10.506   3.027  0.2578 -0.5761 -1.5136
  965MOL0     H33117  10.048  10.473   3.308  2.1712  0.1173  0.8395
  965MOL0     H33118  10.183  10.573   3.268 -1.9489  0.8487  5.0435
  965MOL0     H33119  10.127  10.834   3.168  0.0349 -0.0300 -0.6171
  965MOL0     H33120   9.974  11.021   3.064 -0.8232  1.1341  0.2034
  965MOL0     H33121   9.849  11.025   3.197 -3.8708  1.6007 -1.5156
  965MOL0     H33122   9.796  10.941   2.905 -2.6439  1.2382 -0.7782
  965MOL0     H33123   9.692  10.960   3.051  1.3803 -0.1317  1.5933
  965MOL0     H33124   9.798  11.206   3.047  0.2283  1.5003  0.0210
  965MOL0     H33125   9.860  11.162   2.895  2.6663 -4.0520  1.1926
  965MOL0     H33126   9.560  11.194   2.960 -3.4293 -0.1773 -2.9999
  965MOL0     H33127   9.671  11.295   2.871  1.5636  0.3755 -0.0542
  965MOL0     H33128   9.378  11.186   2.852  0.4566 -0.7964 -0.1553
  965MOL0     H33129   9.096  11.277   2.629  0.1516 -1.4652 -0.5575
  965MOL0     H33130   9.187  11.330   2.770 -0.2959  0.2312  0.5133
  965MOL0     H33131   9.100  11.173   2.760  0.1365 -2.0762 -1.8997
  965MOL0     H33132   9.263  11.058   2.040 -0.3098  1.4357 -0.4726
  965MOL0     H33133   9.119  10.949   1.877 -0.7671 -0.9859 -0.5992
  965MOL0     H33134   8.726  11.001   1.945  1.6498  0.1095  0.8824
  965MOL0     H33135   8.851  11.058   1.829 -0.1158  0.8646  0.3900
  965MOL0     H33136   8.782  10.901   1.661  1.2298  4.3226 -0.1426
  965MOL0     H33137   8.663  10.825   1.778  1.8062 -0.4066  2.0405
  965MOL0     H33138   8.637  11.040   1.596  0.4736  0.8723  0.1397
  965MOL0     H33139   8.594  11.110   1.753  7.7686  0.8235  1.5668
  965MOL0     H33140   8.440  10.897   1.789  0.7886  3.6494  1.4469
  965MOL0     H33141   8.465  10.877   1.613 -2.2049 -1.5103  1.1880
  965MOL0     H33142   8.266  10.981   1.688 -1.4321 -0.5292 -4.8215
  965MOL0     H33143   8.352  11.125   1.740 -2.3556  0.6977 -0.7323
  965MOL0     H33144   8.244  11.060   1.496 -0.1801 -0.4768  1.7600
  965MOL0     H33145   8.411  11.043   1.449  0.1226 -1.4021 -0.1783
  965MOL0     H33146   8.437  11.255   1.423 -1.6395  0.9558 -1.0822
  965MOL0     H33147   8.465  11.258   1.603 -1.5032 -0.5640  1.7108
  965MOL0     H33148   8.234  11.302   1.648  1.9452  0.0686  1.1551
  965MOL0     H33149   8.205  11.316   1.468 -0.3158 -0.6373  1.2673
  965MOL0     H33150   8.826  10.860   2.166  1.2796 -0.9399  4.2177
  965MOL0     H33151   8.975  10.935   2.334 -0.9940 -0.4843 -1.0490
  965MOL0     H33152   9.453  10.999   2.398 -1.8606 -1.5150  0.3164
  965MOL0     H33153   9.625  11.005   2.573  1.5634  1.5710  3.7334
  965MOL0     H33154  10.997  10.391   3.124 -1.2524  0.5229  0.0361
  965MOL0     H33155  11.217  10.461   3.236 -1.4677 -2.1512 -3.7109
  965MOL0     H33156  11.268  10.323   3.733  0.5298 -0.6272  0.2522
  965MOL0     H33157  11.412  10.304   3.939 -0.6079 -0.6453 -0.7452
  965MOL0     H33158  11.580  10.629   4.188 -0.6188  1.8800 -1.5220
  965MOL0     H33159  11.411  10.604   4.152 -0.1098 -1.8167 -0.1826
  965MOL0     H33160  11.457  10.335   4.222 -0.6833 -1.8565  2.6466
  965MOL0     H33161  11.417  10.454   4.342 -1.1745 -3.8706  0.7202
  965MOL0     H33162  11.699  10.375   4.263 -0.8302 -2.2292 -0.7885
  965MOL0     H33163  11.656  10.482   4.401  0.5944 -0.5624  0.7571
  965MOL0     H33164  11.592  10.184   4.378 -0.2090  1.1088 -0.0570
  965MOL0     H33165  11.541  10.306   4.516 -2.6119 -0.3896 -0.4170
  965MOL0     H33166  11.912  10.206   4.609 -0.2398  0.2920 -0.0607
  965MOL0     H33167  11.511  10.712   3.901 -0.2194 -0.3415  0.6583
  965MOL0     H33168  11.412  10.773   3.566 -3.1489 -4.4599 -0.5850
  965MOL0     H33169  11.339  10.841   3.720 -0.7451 -2.6721  1.3659
  965MOL0     H33170  11.512  10.817   3.707  0.2511  0.1580  0.2146
  966MOL0     O33171  10.935  10.224   3.791 -0.8862  0.2252 -0.3319
  966MOL0     C33172  10.997  10.262   3.895 -1.3965  0.0605 -1.0259
  966MOL0     O33173  10.976  10.383   3.966  0.3208 -0.3983 -0.9233
  966MOL0     C33174  10.899  10.478   3.897  0.8163 -0.6826  0.1248
  966MOL0     C33175  10.958  10.552   3.798 -0.5230 -0.7987  1.4276
  966MOL0     C33176  10.906  10.661   3.733 -0.9192 -0.1012 -0.2075
  966MOL0     C33177  10.770  10.694   3.761  0.0036 -0.0210 -0.0198
  966MOL0     O33178  10.697  10.794   3.722  0.2438 -0.7376  0.0560
  966MOL0     C33179  10.751  10.894   3.637 -0.4093  0.1024 -0.5514
  966MOL0     C33180  10.648  10.995   3.597  1.1729  0.3670 -0.5741
  966MOL0     C33181  10.607  11.095   3.709  0.7122 -0.0108 -0.5922
  966MOL0     C33182  10.481  11.044   3.783 -0.3306  0.5635 -1.3120
  966MOL0     C33183  10.481  11.047   3.939 -0.2178  0.5431  0.1979
  966MOL0     C33184  10.567  10.930   4.001 -0.4647 -0.0604 -0.4558
  966MOL0     C33185  10.567  10.943   4.154 -0.0121  0.1633 -0.0285
  966MOL0     C33186  10.618  10.805   4.220 -0.0747  0.0490  0.5463
  966MOL0     N33187  10.758  10.801   4.200  0.4221 -0.0108 -0.4195
  966MOL0     C33188  10.826  10.686   4.205 -0.1219  0.2652  0.1188
  966MOL0     C33189  10.955  10.724   4.244 -0.9759 -0.0196 -0.3392
  966MOL0     C33190  11.079  10.649   4.283 -0.1918 -0.0877 -0.7204
  966MOL0     C33191  11.178  10.725   4.372 -0.1018 -0.2902 -0.2902
  966MOL0     C33192  11.122  10.722   4.518 -0.6856  0.5775  0.0332
  966MOL0     C33193  11.218  10.826   4.588  0.0537  0.2423 -0.9144
  966MOL0     O33194  11.211  10.810   4.735 -0.1732 -0.0348  0.6625
  966MOL0     C33195  11.129  10.887   4.811 -0.9150  0.9160  0.9505
  966MOL0     C33196  11.061  10.839   4.912  0.3946  0.4509 -0.4683
  966MOL0     C33197  10.960  10.908   4.973 -0.1012 -0.0556  0.0008
  966MOL0     C33198  10.875  10.830   5.078  0.5800 -0.6828  1.0127
  966MOL0     C33199  10.941  11.049   4.950  0.7284  0.3740  0.3147
  966MOL0     C33200  10.849  11.142   5.031  1.2941 -0.7661  0.4009
  966MOL0     O33201  10.886  11.271   5.012  0.2966  0.2508 -0.0650
  966MOL0     C33202  10.804  11.374   5.038  1.1319 -0.3026  0.0693
  966MOL0     C33203  10.687  11.386   4.966  0.2167 -0.8887 -0.5269
  966MOL0     C33204  10.625  11.506   4.958  0.8622 -0.1430  0.8673
  966MOL0     C33205  10.662  11.616   5.037  0.0152  1.3508 -0.1579
  966MOL0     O33206  10.618  11.744   5.039  0.9758 -0.5200  0.5292
  966MOL0     C33207  10.592  11.813   4.916  0.7613 -0.0480 -0.1214
  966MOL0     C33208  10.660  11.947   4.926  0.6699 -0.5913  0.4944
  966MOL0     C33209  10.814  11.936   4.959  0.1519 -0.4291  0.1473
  966MOL0     C33210  10.911  12.034   4.874  0.4678 -0.8188 -0.7112
  966MOL0     C33211  10.903  12.017   4.725 -0.6022 -0.6720 -0.4196
  966MOL0     C33212  10.987  12.112   4.635 -0.7116  0.6638 -0.1203
  966MOL0     C33213  10.917  12.245   4.634  0.5355 -0.2490  0.2417
  966MOL0     C33214  10.814  12.268   4.525 -0.4380  0.8107  0.3698
  966MOL0    Cl33215  10.885  12.257   4.364 -0.1157  0.9803 -0.0193
  966MOL0     C33216  10.776  11.602   5.115 -0.0249  0.0457 -0.4616
  966MOL0     C33217  10.846  11.484   5.105 -0.5050  0.3064  0.1537
  966MOL0     O33218  10.745  11.101   5.079  0.5919 -0.2345 -0.2809
  966MOL0     C33219  11.026  11.101   4.850 -0.4341 -0.3714 -0.1273
  966MOL0     C33220  11.118  11.021   4.785 -0.1256  0.6527  0.6987
  966MOL0     N33221  10.956  10.863   4.269  0.3306  0.6974  0.2672
  966MOL0     N33222  10.837  10.902   4.234 -0.1781  0.5910  0.9135
  966MOL0     C33223  10.705  10.608   3.850 -0.1853 -0.0981 -0.4181
  966MOL0     C33224  10.766  10.503   3.916  0.7783 -0.4253 -0.9915
  966MOL0     C33225  11.123  10.184   3.941  0.3586  1.2082  0.9507
  966MOL0     C33226  11.173  10.094   3.845  0.0459  0.1172 -0.4752
  966MOL0     C33227  11.291  10.022   3.870 -0.4675  0.8768  0.3192
  966MOL0     C33228  11.353  10.024   3.990  0.4306  0.5688  0.1214
  966MOL0     O33229  11.472   9.948   4.003 -0.0710  0.1761 -0.6437
  966MOL0     C33230  11.515   9.911   4.133 -0.7379 -0.4982 -0.0781
  966MOL0     C33231  11.663   9.878   4.140 -1.2039 -0.2912 -0.4557
  966MOL0     C33232  11.707   9.869   4.292  0.5740  0.6114 -0.1959
  966MOL0     C33233  11.854   9.874   4.332  0.5800 -0.3028  0.5441
  966MOL0     C33234  11.936   9.796   4.239  0.2336 -0.2422  0.2273
  966MOL0     C33235  12.004   9.712   4.186 -0.1841 -0.6631  0.7964
  966MOL0     C33236  11.295  10.094   4.090  1.3448 -0.0378 -0.4576
  966MOL0     C33237  11.194  10.184   4.061  0.4254  0.0327 -0.5720
  966MOL0     C33238  11.166  10.291   4.161  0.4310 -0.5272 -1.3908
  966MOL0     H33239  11.065  10.544   3.778 -0.2455  4.9054 -1.3269
  966MOL0     H33240  10.967  10.714   3.661 -0.9445 -0.0131 -0.1641
  966MOL0     H33241  10.800  10.859   3.546  0.2019 -1.4665  0.3582
  966MOL0     H33242  10.828  10.954   3.687  1.4273 -1.6723 -1.1391
  966MOL0     H33243  10.695  11.055   3.519 -0.8757  2.4557 -0.3120
  966MOL0     H33244  10.556  10.951   3.558  0.4320  0.3065  1.1221
  966MOL0     H33245  10.682  11.112   3.787 -1.3906 -2.1938  2.1249
  966MOL0     H33246  10.590  11.199   3.679  2.7717  0.6036  0.1921
  966MOL0     H33247  10.391  11.095   3.747 -2.4817 -2.6293 -0.8726
  966MOL0     H33248  10.455  10.942   3.753 -1.2081  0.3384  0.1157
  966MOL0     H33249  10.379  11.030   3.974 -1.4911 -1.9048 -4.0161
  966MOL0     H33250  10.523  11.146   3.963 -0.3763  1.0750 -1.5850
  966MOL0     H33251  10.518  10.837   3.971 -1.1758  0.1918 -0.1077
  966MOL0     H33252  10.670  10.906   3.971 -0.2747 -0.3236  0.3910
  966MOL0     H33253  10.459  10.951   4.168 -0.1394  1.3529 -1.3681
  966MOL0     H33254  10.614  11.027   4.205 -4.0387  0.8674  3.0021
  966MOL0     H33255  10.588  10.799   4.325  2.0847 -0.5595  1.1796
  966MOL0     H33256  10.573  10.720   4.168  1.1080 -1.1776  1.4786
  966MOL0     H33257  10.787  10.585   4.203  1.1886 -0.2684  0.0647
  966MOL0     H33258  11.128  10.622   4.189  0.5440  0.4521 -0.5049
  966MOL0     H33259  11.043  10.558   4.330  0.5843  0.2435  0.5751
  966MOL0     H33260  11.275  10.673   4.380 -1.6015 -2.9647  3.7863
  966MOL0     H33261  11.185  10.830   4.344 -0.5913 -0.4790 -1.1411
  966MOL0     H33262  11.019  10.758   4.528 -0.0809  1.9109  2.2930
  966MOL0     H33263  11.134  10.633   4.580 -0.0072  1.6762  1.5486
  966MOL0     H33264  11.321  10.825   4.553  0.1466  0.1001 -0.6455
  966MOL0     H33265  11.193  10.927   4.557  2.5456  0.5732 -2.0561
  966MOL0     H33266  11.079  10.735   4.939  1.8408  0.8668  0.2988
  966MOL0     H33267  10.809  10.772   5.014 -0.1885  0.0789  1.0883
  966MOL0     H33268  10.809  10.884   5.147  2.2453 -0.7393  2.7679
  966MOL0     H33269  10.943  10.776   5.145 -0.1960 -1.9970  0.7703
  966MOL0     H33270  10.648  11.303   4.906 -1.8495 -1.0971  0.9749
  966MOL0     H33271  10.556  11.527   4.877 -1.9314  3.6644  3.8726
  966MOL0     H33272  10.636  11.765   4.828  2.7907  1.2525  0.1038
  966MOL0     H33273  10.484  11.831   4.911 -0.0594 -2.9541  3.0368
  966MOL0     H33274  10.653  11.993   4.827  2.3530 -2.6542 -0.6631
  966MOL0     H33275  10.603  11.999   5.002 -1.2578 -2.4363  0.4017
  966MOL0     H33276  10.849  11.838   4.927  0.3721  0.3724 -2.2721
  966MOL0     H33277  10.817  11.935   5.068  1.0818 -0.3448  0.1373
  966MOL0     H33278  11.014  12.016   4.906  1.6289  1.2359 -2.9480
  966MOL0     H33279  10.890  12.137   4.906 -0.2377 -1.7733  2.2205
  966MOL0     H33280  10.927  11.914   4.697 -2.0554 -2.0395  2.8719
  966MOL0     H33281  10.797  12.032   4.702 -0.4310 -1.1767 -1.6246
  966MOL0     H33282  10.994  12.049   4.545 -1.2893 -1.6024  1.3587
  966MOL0     H33283  11.088  12.124   4.677  0.0463 -1.3666 -1.1940
  966MOL0     H33284  10.997  12.314   4.602  1.4195 -1.1995  0.3540
  966MOL0     H33285  10.874  12.261   4.733  0.1387 -1.6299  0.3086
  966MOL0     H33286  10.765  12.362   4.553 -1.2406  0.1846  1.1148
  966MOL0     H33287  10.734  12.195   4.532  2.7573 -3.1618 -0.7500
  966MOL0     H33288  10.833  11.678   5.167  1.2581 -3.1447  3.3079
  966MOL0     H33289  10.942  11.462   5.151 -1.1974 -1.1560  0.9730
  966MOL0     H33290  11.028  11.205   4.818  1.5681  0.0371  1.1230
  966MOL0     H33291  11.174  11.074   4.708 -6.3164  0.4188 -4.8568
  966MOL0     H33292  10.597  10.612   3.858 -0.0508  1.7773  1.1668
  966MOL0     H33293  10.721  10.439   3.991 -2.6239  2.0837 -0.6304
  966MOL0     H33294  11.120  10.091   3.750 -1.1865  2.4305  0.0641
  966MOL0     H33295  11.334   9.956   3.794 -1.0292 -0.6586  1.2835
  966MOL0     H33296  11.495   9.994   4.201  1.1264 -1.1043  1.2947
  966MOL0     H33297  11.462   9.824   4.171 -0.8365 -1.1051 -1.5285
  966MOL0     H33298  11.727   9.949   4.088  3.0969 -1.0505  3.2415
  966MOL0     H33299  11.681   9.780   4.095  0.7202 -0.3358  0.3522
  966MOL0     H33300  11.650   9.943   4.349 -0.6159 -0.8619  0.6123
  966MOL0     H33301  11.682   9.764   4.315  3.5157 -0.0243  0.4642
  966MOL0     H33302  11.858   9.833   4.433 -0.5069 -0.6438  0.4710
  966MOL0     H33303  11.895   9.975   4.328  1.0130 -0.2943  3.4032
  966MOL0     H33304  12.044   9.640   4.117 -1.5549  0.5048 -1.3575
  966MOL0     H33305  11.337  10.106   4.190  0.3800 -0.3536  0.0032
  966MOL0     H33306  11.223  10.283   4.254 -1.4820  0.4789 -0.0491
  966MOL0     H33307  11.189  10.389   4.118 -0.5378 -0.5184 -1.9184
  966MOL0     H33308  11.059  10.287   4.187  0.1902  1.4571 -1.9268
  967MOL0     O33309   4.606   3.398  10.056  0.1745  0.6704 -0.5828
  967MOL0     C33310   4.652   3.364  10.165 -0.7993  0.1960  0.7925
  967MOL0     O33311   4.603   3.397  10.285  0.0563 -0.2846 -0.2526
  967MOL0     C33312   4.498   3.485  10.288  0.5842 -0.5193  0.2489
  967MOL0     C33313   4.496   3.610  10.365  0.2169 -0.0229 -0.2280
  967MOL0     C33314   4.388   3.694  10.367 -0.4492  0.4166 -0.3404
  967MOL0     C33315   4.265   3.667  10.296  0.0734 -0.0073 -0.5471
  967MOL0     O33316   4.159   3.751  10.287  0.1884  0.1678 -0.7270
  967MOL0     C33317   4.163   3.883  10.347  0.6392  0.2127  0.1581
  967MOL0     C33318   4.137   3.883  10.492 -0.0222  0.3911 -1.2099
  967MOL0     C33319   3.995   3.890  10.519  0.4471  0.9146  0.1200
  967MOL0     C33320   3.957   3.912  10.668  0.6087 -0.1771  0.7266
  967MOL0     C33321   3.977   3.790  10.754 -0.1963 -0.3900  0.1416
  967MOL0     C33322   3.892   3.796  10.873  0.8741 -0.1505 -0.8722
  967MOL0     C33323   3.944   3.894  10.980 -0.9354  0.3816 -0.7792
  967MOL0     C33324   3.863   3.891  11.118 -0.7550 -0.7826  0.1978
  967MOL0     N33325   3.721   3.919  11.109 -0.4690  0.3332  1.0893
  967MOL0     C33326   3.671   4.035  11.060 -0.0163 -0.0736 -0.2009
  967MOL0     C33327   3.539   4.021  11.087 -0.2894 -0.4360 -0.5445
  967MOL0     C33328   3.437   4.121  11.034  0.3281  0.5539 -0.1986
  967MOL0     C33329   3.320   4.134  11.128 -0.8265 -0.0215  0.0959
  967MOL0     C33330   3.254   4.269  11.110 -0.2722 -0.5968 -0.7055
  967MOL0     C33331   3.216   4.338  11.242  0.3406  0.7565 -0.7596
  967MOL0     O33332   3.124   4.439  11.203  0.6344  0.6409 -0.2063
  967MOL0     C33333   3.131   4.541  11.296  0.0447  0.9653  0.5264
  967MOL0     C33334   3.059   4.534  11.420  1.4391 -0.0611  0.1877
  967MOL0     C33335   3.047   4.646  11.506  1.1656 -0.0891 -0.1630
  967MOL0     C33336   2.930   4.634  11.601  0.2795  0.8880 -0.4945
  967MOL0     C33337   3.142   4.750  11.494 -0.0983  0.9843  0.8345
  967MOL0     C33338   3.152   4.866  11.581  0.0583 -0.6960 -0.0777
  967MOL0     O33339   3.277   4.930  11.588  0.0331 -0.2657  0.0183
  967MOL0     C33340   3.277   5.065  11.595  1.0755 -0.4347 -0.5044
  967MOL0     C33341   3.398   5.118  11.640  0.4984  0.2640 -0.7954
  967MOL0     C33342   3.420   5.259  11.633  0.4151 -0.6876 -0.6644
  967MOL0     C33343   3.312   5.350  11.590 -0.0330 -0.0522 -0.1392
  967MOL0     O33344   3.343   5.481  11.599 -0.6006  0.5063  0.3844
  967MOL0     C33345   3.262   5.574  11.526 -0.0817 -0.2007 -0.2717
  967MOL0     C33346   3.356   5.689  11.490  0.0810  0.0626 -0.1420
  967MOL0     C33347   3.427   5.669  11.358 -0.3590  0.5502  1.3541
  967MOL0     C33348   3.515   5.540  11.342  0.2918  0.2366 -0.7348
  967MOL0     C33349   3.628   5.545  11.452 -0.1228 -0.0630 -0.5952
  967MOL0     C33350   3.736   5.656  11.441  0.0849  0.3329  1.3207
  967MOL0     C33351   3.827   5.634  11.577  0.1587  0.6333  0.7426
  967MOL0     C33352   3.955   5.721  11.552  0.0791 -0.6791  0.4231
  967MOL0    Cl33353   4.083   5.620  11.475 -0.3661  0.4043 -0.4777
  967MOL0     C33354   3.199   5.289  11.548  0.2681  0.3881 -0.8809
  967MOL0     C33355   3.174   5.152  11.558  0.1485  0.2111  1.5617
  967MOL0     O33356   3.047   4.904  11.632 -0.1966  0.4575 -0.4258
  967MOL0     C33357   3.221   4.745  11.380 -0.0069  0.4822  0.3311
  967MOL0     C33358   3.213   4.646  11.279  0.2393 -0.2032  0.0813
  967MOL0     N33359   3.518   3.895  11.154 -0.3277 -0.4239 -0.0897
  967MOL0     N33360   3.626   3.835  11.151 -0.1440  0.1563 -1.5960
  967MOL0     C33361   4.263   3.554  10.212 -0.6859  0.9758  0.4652
  967MOL0     C33362   4.375   3.454  10.226 -0.1964 -0.2686  0.8648
  967MOL0     C33363   4.776   3.283  10.174  0.6157 -0.5258  0.2911
  967MOL0     C33364   4.773   3.186  10.275 -0.5756 -0.2195  0.5428
  967MOL0     C33365   4.866   3.078  10.271 -1.0759 -0.2826 -0.0959
  967MOL0     C33366   4.972   3.070  10.180 -0.0728 -0.2072 -0.2004
  967MOL0     O33367   5.073   2.982  10.176  0.4051 -0.1873  0.4625
  967MOL0     C33368   5.065   2.853  10.230 -0.0375 -1.0177 -0.4630
  967MOL0     C33369   5.117   2.851  10.370  0.0687 -0.2143 -0.1084
  967MOL0     C33370   5.068   2.717  10.437  0.4884  1.0302 -0.0653
  967MOL0     C33371   5.135   2.701  10.566  0.5648  0.6809  0.0658
  967MOL0     C33372   5.076   2.593  10.643 -0.7799  0.2713 -0.0117
  967MOL0     C33373   5.019   2.503  10.700  0.8213  0.4210  0.1830
  967MOL0     C33374   4.982   3.178  10.100  0.3638  1.0029  0.4145
  967MOL0     C33375   4.889   3.282  10.091  0.3837 -0.0771  0.4630
  967MOL0     C33376   4.901   3.366   9.969 -1.1421 -0.3155  1.1612
  967MOL0     H33377   4.587   3.643  10.415 -0.3919  2.4855 -0.6580
  967MOL0     H33378   4.395   3.783  10.429 -0.7312  1.1209 -1.3028
  967MOL0     H33379   4.100   3.949  10.287 -1.9219 -0.3296  2.0812
  967MOL0     H33380   4.270   3.907  10.345  1.1102 -1.5169  1.4815
  967MOL0     H33381   4.182   3.795  10.540 -0.9289  1.7756  2.6059
  967MOL0     H33382   4.177   3.970  10.546 -0.8371 -0.6267  1.1744
  967MOL0     H33383   3.942   3.969  10.464 -3.1412 -0.4617  1.2790
  967MOL0     H33384   3.937   3.803  10.488 -0.2842 -0.1239  3.9298
  967MOL0     H33385   4.009   3.994  10.719 -0.1461  0.9749 -0.2934
  967MOL0     H33386   3.850   3.933  10.662  0.7169  0.2413  0.0917
  967MOL0     H33387   4.081   3.793  10.786 -0.9845 -0.9573  3.0938
  967MOL0     H33388   3.956   3.698  10.699  0.3413  0.8487 -2.2624
  967MOL0     H33389   3.789   3.819  10.844 -0.1226 -0.3312  2.1069
  967MOL0     H33390   3.889   3.703  10.930 -1.6755 -0.1966 -0.9713
  967MOL0     H33391   3.938   3.994  10.936 -0.7617 -0.2797 -2.3576
  967MOL0     H33392   4.040   3.859  11.017 -2.6838 -3.0006  1.0638
  967MOL0     H33393   3.879   3.794  11.166 -1.4302 -0.6782  0.6487
  967MOL0     H33394   3.906   3.972  11.177  1.4069  0.3715 -2.7088
  967MOL0     H33395   3.731   4.104  11.002 -0.4354  0.0133 -0.5383
  967MOL0     H33396   3.408   4.087  10.933 -2.3695 -1.9948  1.2619
  967MOL0     H33397   3.495   4.214  11.029 -0.6633  1.1211 -3.2167
  967MOL0     H33398   3.241   4.061  11.110 -1.9419  1.1641  0.0013
  967MOL0     H33399   3.355   4.138  11.232  1.6682  0.7985 -0.7056
  967MOL0     H33400   3.327   4.328  11.054 -0.1484 -1.1339 -1.1194
  967MOL0     H33401   3.170   4.258  11.041  0.7267 -1.2911 -1.8545
  967MOL0     H33402   3.159   4.262  11.297 -0.8504  2.0921 -0.0955
  967MOL0     H33403   3.309   4.369  11.292  0.5033  2.7337 -2.1904
  967MOL0     H33404   3.016   4.438  11.448  0.4648  0.7499  1.5963
  967MOL0     H33405   2.977   4.635  11.699 -1.8914  0.1142  0.6159
  967MOL0     H33406   2.876   4.541  11.578 -0.7188  1.5933 -1.0972
  967MOL0     H33407   2.853   4.712  11.597 -1.5119 -0.8079 -1.4227
  967MOL0     H33408   3.486   5.069  11.680 -0.1895  0.3033  0.8894
  967MOL0     H33409   3.502   5.317  11.674 -1.0906  3.3403 -2.7871
  967MOL0     H33410   3.222   5.537  11.431 -0.6953 -1.5002  0.4610
  967MOL0     H33411   3.174   5.598  11.586 -1.2832 -4.2356 -0.1057
  967MOL0     H33412   3.286   5.771  11.473  0.0914 -0.3961 -2.6565
  967MOL0     H33413   3.418   5.725  11.573 -1.4446  1.6230  0.3786
  967MOL0     H33414   3.495   5.754  11.345 -0.3790  0.8815  3.2515
  967MOL0     H33415   3.357   5.670  11.274  0.9267  1.5592  0.2285
  967MOL0     H33416   3.560   5.539  11.243 -0.0631  1.9944 -0.9279
  967MOL0     H33417   3.453   5.450  11.348  2.1011 -0.9953  3.8703
  967MOL0     H33418   3.586   5.528  11.551 -1.4832 -2.1143 -1.4503
  967MOL0     H33419   3.688   5.454  11.449 -4.3178 -3.2214  0.8530
  967MOL0     H33420   3.696   5.757  11.433  1.7506  0.9576  0.4443
  967MOL0     H33421   3.803   5.642  11.356 -0.7465 -1.6213  0.9192
  967MOL0     H33422   3.858   5.530  11.593  0.8397  1.1083  2.7840
  967MOL0     H33423   3.767   5.661  11.664 -0.3632  0.2912  0.4917
  967MOL0     H33424   3.975   5.763  11.652  1.2040  0.7211 -0.3529
  967MOL0     H33425   3.924   5.809  11.495 -0.0340 -0.4539  0.8233
  967MOL0     H33426   3.115   5.351  11.518 -0.8378 -1.4501 -1.6874
  967MOL0     H33427   3.078   5.110  11.531  0.6423 -2.3168  3.3682
  967MOL0     H33428   3.283   4.826  11.342 -3.1788  1.5633 -3.2865
  967MOL0     H33429   3.282   4.647  11.195  1.2134 -0.1454  0.8674
  967MOL0     H33430   4.177   3.521  10.154 -1.2165  3.6832 -0.4149
  967MOL0     H33431   4.370   3.360  10.172  2.1963  0.5436 -0.9609
  967MOL0     H33432   4.687   3.194  10.341  0.2123  2.3522  1.3635
  967MOL0     H33433   4.857   3.007  10.352  0.5093 -0.5374 -0.1053
  967MOL0     H33434   4.964   2.813  10.216  0.7354 -2.3296 -3.0104
  967MOL0     H33435   5.129   2.792  10.166  5.4939  3.5574 -0.0936
  967MOL0     H33436   5.067   2.933  10.423  0.6558 -0.0805  0.2532
  967MOL0     H33437   5.225   2.863  10.378 -0.0462 -0.0684  1.9280
  967MOL0     H33438   4.961   2.706  10.457  0.4688 -2.4869 -1.2748
  967MOL0     H33439   5.093   2.636  10.367  0.2872  0.9671 -0.0646
  967MOL0     H33440   5.136   2.795  10.621 -0.5823  0.4544  0.5084
  967MOL0     H33441   5.239   2.667  10.555  0.9306  1.5794  0.6541
  967MOL0     H33442   4.968   2.422  10.747 -1.0156  0.5453 -1.5050
  967MOL0     H33443   5.068   3.184  10.035  0.7300 -3.1120  0.2146
  967MOL0     H33444   4.999   3.353   9.923 -0.5495  2.7840  1.2833
  967MOL0     H33445   4.827   3.341   9.894 -0.2534  1.3082 -0.3403
  967MOL0     H33446   4.877   3.470   9.993  0.6276  0.0949  1.3240
  968MOL0     O33447   5.442  10.081   5.218  0.3734  0.4150 -1.0402
  968MOL0     C33448   5.519  10.011   5.156  0.3036  0.4925  0.4822
  968MOL0     O33449   5.604  10.056   5.059 -0.1184 -0.3130 -0.6278
  968MOL0     C33450   5.608  10.185   5.030  1.1208  0.2412 -0.6096
  968MOL0     C33451   5.542  10.238   4.918 -1.3380  0.5718 -0.0717
  968MOL0     C33452   5.521  10.375   4.905  0.5384 -0.1089 -0.0728
  968MOL0     C33453   5.588  10.463   4.991 -0.2421 -0.3551  0.0120
  968MOL0     O33454   5.589  10.606   4.989  0.6640  0.1401 -0.3266
  968MOL0     C33455   5.522  10.678   4.890  0.0314 -0.2117  0.0474
  968MOL0     C33456   5.366  10.682   4.911 -0.4562 -0.5197  0.3869
  968MOL0     C33457   5.326  10.828   4.858 -0.1355  0.2195 -0.4391
  968MOL0     C33458   5.176  10.859   4.893 -0.8368  0.1010  0.3052
  968MOL0     C33459   5.081  10.756   4.843  0.2014 -0.0434 -0.3029
  968MOL0     C33460   5.072  10.746   4.692 -0.2954 -0.4869 -0.4279
  968MOL0     C33461   4.941  10.670   4.642  0.1890  1.0221  1.0907
  968MOL0     C33462   4.922  10.524   4.691 -0.1133  0.0634  0.6312
  968MOL0     N33463   5.041  10.433   4.680 -0.0014 -0.5068 -0.6376
  968MOL0     C33464   5.129  10.417   4.572  0.2898  0.3450  0.1414
  968MOL0     C33465   5.250  10.364   4.610 -0.1629  0.4126 -0.4605
  968MOL0     C33466   5.371  10.336   4.537 -0.4805  0.8056  0.3159
  968MOL0     C33467   5.364  10.195   4.456 -0.0735 -0.1210 -0.7504
  968MOL0     C33468   5.388  10.081   4.556  0.6583  0.6849 -0.6642
  968MOL0     C33469   5.523  10.011   4.522  0.4894  0.8303  0.3580
  968MOL0     O33470   5.621  10.111   4.527  0.1078  0.0718 -0.2779
  968MOL0     C33471   5.752  10.074   4.502  0.2089 -0.4384  0.9504
  968MOL0     C33472   5.835   9.995   4.577 -0.0959 -0.3798 -0.1509
  968MOL0     C33473   5.980   9.977   4.548  0.7049  0.0329  0.3396
  968MOL0     C33474   6.064   9.911   4.653 -0.7160 -0.2724 -0.3227
  968MOL0     C33475   6.024  10.044   4.429 -0.1849 -0.1507  0.2175
  968MOL0     C33476   6.169  10.055   4.380 -0.8134  0.2975 -0.3858
  968MOL0     O33477   6.197  10.068   4.246 -0.5288 -0.8285  0.0309
  968MOL0     C33478   6.323  10.102   4.206 -0.7110 -0.1218  0.8142
  968MOL0     C33479   6.406  10.009   4.148  0.1661 -0.1423  0.6861
  968MOL0     C33480   6.525  10.047   4.100 -0.9324 -0.3779 -0.1769
  968MOL0     C33481   6.583  10.170   4.108 -0.0213  0.1241  0.3261
  968MOL0     O33482   6.712  10.192   4.049  0.5347  0.1926 -0.5337
  968MOL0     C33483   6.773  10.310   4.091 -0.3062 -0.5308 -0.1564
  968MOL0     C33484   6.907  10.349   4.011  0.3457  1.0270  0.6182
  968MOL0     C33485   7.027  10.247   4.025 -0.0501 -0.4753  0.1558
  968MOL0     C33486   7.085  10.212   4.157 -0.6550 -0.5304  0.5244
  968MOL0     C33487   7.137  10.344   4.234  0.1015  0.4367  0.6247
  968MOL0     C33488   7.255  10.316   4.338 -0.4259 -0.1366 -0.6558
  968MOL0     C33489   7.194  10.256   4.468  0.5610 -0.0704  0.1507
  968MOL0     C33490   7.284  10.247   4.596  0.4792  0.6488  0.3669
  968MOL0    Cl33491   7.193  10.186   4.737  0.1311 -0.0762 -0.0083
  968MOL0     C33492   6.496  10.261   4.180 -0.0171  0.4998  0.6445
  968MOL0     C33493   6.371  10.229   4.224  0.5052  0.8050  0.5457
  968MOL0     O33494   6.249  10.065   4.475 -0.0673 -0.3379  0.4015
  968MOL0     C33495   5.931  10.125   4.350  0.0511 -0.3657  0.7097
  968MOL0     C33496   5.795  10.139   4.384  0.2424  0.4897 -0.6909
  968MOL0     N33497   5.233  10.344   4.748  0.3747 -0.7474 -0.2041
  968MOL0     N33498   5.107  10.373   4.784 -0.1500  0.3870 -0.1285
  968MOL0     C33499   5.663  10.415   5.097 -0.0213 -1.0625 -0.5325
  968MOL0     C33500   5.678  10.277   5.122  0.8386 -0.3112  0.9746
  968MOL0     C33501   5.526   9.865   5.189 -0.1855  0.0496  0.1328
  968MOL0     C33502   5.636   9.800   5.123  0.0219  0.0024 -0.5812
  968MOL0     C33503   5.653   9.664   5.134  0.6550 -1.5582  1.0967
  968MOL0     C33504   5.566   9.591   5.208  0.0273 -0.0442 -0.7765
  968MOL0     O33505   5.567   9.459   5.238 -0.0141  0.9970 -1.2474
  968MOL0     C33506   5.672   9.386   5.183 -1.3127  0.7386  0.1504
  968MOL0     C33507   5.653   9.230   5.185  0.6708 -0.9756 -0.0277
  968MOL0     C33508   5.559   9.176   5.075 -1.0869  0.4889  0.1984
  968MOL0     C33509   5.414   9.180   5.122 -0.0958 -0.3151  0.2395
  968MOL0     C33510   5.328   9.144   5.009  0.6769  0.9226  0.5733
  968MOL0     C33511   5.250   9.129   4.916 -0.5883  0.0210  1.0447
  968MOL0     C33512   5.458   9.655   5.275 -0.3691 -0.8090  0.7588
  968MOL0     C33513   5.441   9.791   5.270  1.1471 -0.2768 -0.3898
  968MOL0     C33514   5.319   9.844   5.326  0.3308  0.6768  0.1615
  968MOL0     H33515   5.508  10.163   4.847  1.3592 -1.8694  0.9875
  968MOL0     H33516   5.472  10.420   4.819 -1.1809 -0.1966  0.8150
  968MOL0     H33517   5.555  10.645   4.792  2.3662 -1.5774  1.2067
  968MOL0     H33518   5.554  10.782   4.895  0.7946 -0.4630  0.6519
  968MOL0     H33519   5.326  10.601   4.848  1.3847 -1.8077  0.7995
  968MOL0     H33520   5.330  10.679   5.014 -0.8858  1.5354  0.3357
  968MOL0     H33521   5.378  10.919   4.888 -1.1677  1.1712 -1.4005
  968MOL0     H33522   5.334  10.831   4.749  2.9160  0.7405 -0.2828
  968MOL0     H33523   5.170  10.867   5.002  0.6361 -1.7375  0.5726
  968MOL0     H33524   5.147  10.956   4.853 -0.9273 -0.2506 -0.4980
  968MOL0     H33525   4.977  10.780   4.869  0.2367  1.1115 -1.1822
  968MOL0     H33526   5.103  10.657   4.884  0.9641  0.0650 -0.4457
  968MOL0     H33527   5.063  10.846   4.650 -0.0401  0.2214  1.1227
  968MOL0     H33528   5.167  10.704   4.655  0.4813  0.2420  0.6872
  968MOL0     H33529   4.940  10.676   4.533  0.4585  0.7347  1.0741
  968MOL0     H33530   4.854  10.729   4.675 -2.0035 -2.8019  2.7517
  968MOL0     H33531   4.901  10.538   4.797  3.4919 -1.0441  1.6301
  968MOL0     H33532   4.835  10.492   4.632  0.7345  3.3348 -2.7780
  968MOL0     H33533   5.118  10.454   4.470  1.5298  1.5755  0.4326
  968MOL0     H33534   5.457  10.337   4.604  0.6166  1.2382 -1.0390
  968MOL0     H33535   5.384  10.421   4.469  0.7047  0.4610  0.0886
  968MOL0     H33536   5.266  10.187   4.407 -0.5416  2.1074 -0.3122
  968MOL0     H33537   5.435  10.195   4.372  1.3167  1.6470  0.3308
  968MOL0     H33538   5.376  10.107   4.662 -0.3156  0.6440 -0.7535
  968MOL0     H33539   5.312  10.005   4.537 -1.6726  2.8451 -0.5470
  968MOL0     H33540   5.558   9.929   4.586 -1.6580  0.7851  1.5552
  968MOL0     H33541   5.517   9.969   4.421 -1.0886  2.4840 -0.2864
  968MOL0     H33542   5.782   9.942   4.656 -3.2808  2.5750 -0.1171
  968MOL0     H33543   6.017   9.817   4.682 -2.2501  0.5618 -0.0537
  968MOL0     H33544   6.059   9.964   4.748 -1.6375  2.0802 -1.6176
  968MOL0     H33545   6.173   9.910   4.637 -0.7062  1.8045 -0.6699
  968MOL0     H33546   6.374   9.906   4.150 -1.4708  0.2197 -1.8215
  968MOL0     H33547   6.577   9.965   4.050  1.6739  0.7730  0.4573
  968MOL0     H33548   6.702  10.392   4.080 -2.0300 -1.8288  0.7572
  968MOL0     H33549   6.786  10.302   4.199 -0.9353 -1.7222 -0.1505
  968MOL0     H33550   6.893  10.372   3.905 -3.1750  2.2018  1.2203
  968MOL0     H33551   6.943  10.446   4.046  0.9697  0.9326  0.2655
  968MOL0     H33552   7.107  10.286   3.961 -0.4950  0.2646  0.0432
  968MOL0     H33553   6.994  10.153   3.979 -0.6591 -1.7577  3.0013
  968MOL0     H33554   7.173  10.147   4.152 -0.8333 -0.6786 -3.3561
  968MOL0     H33555   7.009  10.176   4.227 -1.4093  2.1516  1.2124
  968MOL0     H33556   7.175  10.413   4.158  0.4070 -2.0494 -1.6595
  968MOL0     H33557   7.052  10.390   4.285  0.1819  0.1704  0.9991
  968MOL0     H33558   7.310  10.404   4.372  0.4268 -1.2989  1.0949
  968MOL0     H33559   7.327  10.246   4.295  0.1845 -0.2487  0.5278
  968MOL0     H33560   7.159  10.159   4.433  2.8024 -1.7708  2.3100
  968MOL0     H33561   7.107  10.315   4.501  0.0138 -2.9386  4.6965
  968MOL0     H33562   7.335  10.341   4.621 -0.1366  1.0442  0.1721
  968MOL0     H33563   7.359  10.171   4.572 -0.1491 -0.5567  2.0268
  968MOL0     H33564   6.521  10.365   4.202  0.6736  0.6605 -0.8010
  968MOL0     H33565   6.305  10.299   4.272 -0.8181 -0.5152  0.7200
  968MOL0     H33566   5.967  10.190   4.270 -1.5944  0.1517  0.3644
  968MOL0     H33567   5.728  10.207   4.333 -3.2667 -0.4070  2.3081
  968MOL0     H33568   5.714  10.483   5.165 -3.2763  2.2542 -1.0485
  968MOL0     H33569   5.723  10.246   5.215  1.8619 -2.8975 -0.2788
  968MOL0     H33570   5.715   9.856   5.074  0.3842 -0.9464 -1.1175
  968MOL0     H33571   5.723   9.616   5.068 -0.5998 -0.2727 -1.2962
  968MOL0     H33572   5.678   9.404   5.075 -3.9381  1.6631  0.0650
  968MOL0     H33573   5.765   9.410   5.235  2.0187  1.2592 -5.3547
  968MOL0     H33574   5.628   9.209   5.290  0.2853  0.3174  0.1501
  968MOL0     H33575   5.750   9.185   5.162  0.3083 -1.4962 -0.5704
  968MOL0     H33576   5.571   9.223   4.977 -2.1763 -0.8704 -0.6248
  968MOL0     H33577   5.588   9.071   5.060  0.1172  1.1076 -2.3377
  968MOL0     H33578   5.385   9.282   5.151  2.8846  1.2405 -1.8216
  968MOL0     H33579   5.392   9.115   5.208  1.4561 -0.3379  0.6534
  968MOL0     H33580   5.180   9.112   4.837  2.2356 -2.4295 -1.1669
  968MOL0     H33581   5.377   9.600   5.322 -3.1046  0.2949 -2.3087
  968MOL0     H33582   5.348   9.912   5.407 -0.6973  1.0745  0.2081
  968MOL0     H33583   5.266   9.901   5.249  0.3393 -0.2067 -0.5061
  968MOL0     H33584   5.251   9.769   5.365 -2.1972  0.8588 -3.4209
  969MOL0     O33585   4.326   8.508   3.742  0.1612  0.0297  0.5190
  969MOL0     C33586   4.253   8.451   3.665  0.4215  0.1863 -1.1930
  969MOL0     O33587   4.295   8.369   3.571  0.1052  0.1513  0.4475
  969MOL0     C33588   4.429   8.352   3.542  0.5496 -0.8740 -1.0582
  969MOL0     C33589   4.453   8.233   3.471 -0.3994  0.0734 -0.5139
  969MOL0     C33590   4.585   8.189   3.435 -0.5733 -0.1675 -0.2270
  969MOL0     C33591   4.696   8.274   3.470 -0.8542 -0.6423 -0.8196
  969MOL0     O33592   4.829   8.259   3.428  0.8616 -0.0358  0.1873
  969MOL0     C33593   4.867   8.135   3.362 -0.6246 -0.8011  0.2724
  969MOL0     C33594   5.017   8.144   3.354  0.2924  0.6069  0.2272
  969MOL0     C33595   5.055   8.006   3.307 -0.7425  0.6553 -0.8206
  969MOL0     C33596   5.201   8.001   3.283 -1.1735  0.3511  0.1123
  969MOL0     C33597   5.242   7.871   3.197  0.2790 -0.0941  0.0715
  969MOL0     C33598   5.285   7.759   3.289  0.1438  0.1160 -0.9121
  969MOL0     C33599   5.382   7.669   3.219  1.0794  0.0310  0.5792
  969MOL0     C33600   5.431   7.543   3.293 -0.4375  0.8839  0.0038
  969MOL0     N33601   5.533   7.475   3.218 -0.5891  1.0026  0.6495
  969MOL0     C33602   5.515   7.406   3.096  0.3094  0.4238 -0.2109
  969MOL0     C33603   5.644   7.395   3.057  0.6662  0.8730  0.6320
  969MOL0     C33604   5.667   7.323   2.927 -0.2892  0.3767 -0.5807
  969MOL0     C33605   5.752   7.410   2.835  0.5079 -0.2043 -0.3989
  969MOL0     C33606   5.685   7.549   2.816 -0.7303 -0.4874  0.0868
  969MOL0     C33607   5.790   7.639   2.742  0.2018  0.4378 -1.0044
  969MOL0     O33608   5.820   7.571   2.619  1.1603 -0.1207 -0.8833
  969MOL0     C33609   5.914   7.616   2.531  0.5929 -0.5704 -0.0137
  969MOL0     C33610   5.957   7.749   2.524 -0.4023 -0.7801 -0.3396
  969MOL0     C33611   6.069   7.803   2.449  0.8162  1.5901  0.0362
  969MOL0     C33612   6.081   7.955   2.429  0.9859  0.9844 -0.1614
  969MOL0     C33613   6.147   7.703   2.390 -0.7622 -0.1056  0.4265
  969MOL0     C33614   6.271   7.732   2.326  0.5698  0.1634 -1.2843
  969MOL0     O33615   6.337   7.626   2.269  0.3928 -0.3479  0.1424
  969MOL0     C33616   6.458   7.612   2.209 -0.3553 -0.9730 -0.4055
  969MOL0     C33617   6.558   7.716   2.220  0.2278  0.9813 -0.0090
  969MOL0     C33618   6.682   7.704   2.165  0.7521  1.0628 -1.4523
  969MOL0     C33619   6.712   7.591   2.085 -0.1776  0.6151  0.5316
  969MOL0     O33620   6.820   7.587   2.002  0.2910 -0.4738 -0.2271
  969MOL0     C33621   6.923   7.686   2.007 -0.2486 -0.5604  0.1622
  969MOL0     C33622   7.043   7.634   1.926 -0.0663  0.7993  1.1936
  969MOL0     C33623   7.047   7.635   1.767 -0.7335 -0.0809  0.3227
  969MOL0     C33624   7.178   7.560   1.704 -0.1718 -0.5084 -0.2179
  969MOL0     C33625   7.180   7.557   1.549 -0.3917  0.8553  0.2515
  969MOL0     C33626   7.316   7.497   1.498 -0.0201 -1.0297 -0.4934
  969MOL0     C33627   7.326   7.346   1.538 -0.0287 -0.5717 -0.4998
  969MOL0     C33628   7.439   7.288   1.471  0.5282 -0.0411  0.3157
  969MOL0    Cl33629   7.509   7.154   1.559  0.5650 -0.4156  0.2449
  969MOL0     C33630   6.615   7.492   2.068 -0.1085  0.4313  0.8858
  969MOL0     C33631   6.486   7.506   2.130 -0.0224 -0.5240  0.4114
  969MOL0     O33632   6.323   7.840   2.356 -0.9785 -0.6981  0.0356
  969MOL0     C33633   6.107   7.568   2.397 -0.9124  0.3377  0.3645
  969MOL0     C33634   5.982   7.525   2.456 -0.1773  0.1483 -0.5417
  969MOL0     N33635   5.730   7.431   3.155 -0.7558  0.0811 -0.1573
  969MOL0     N33636   5.667   7.494   3.246  0.2737  0.2461  0.5002
  969MOL0     C33637   4.666   8.394   3.536 -0.2334  0.3384  0.2909
  969MOL0     C33638   4.544   8.430   3.574  0.6589 -0.5203  0.6469
  969MOL0     C33639   4.102   8.473   3.677  0.2325 -0.4971  0.0025
  969MOL0     C33640   4.025   8.403   3.580 -0.0067 -0.9186  0.6679
  969MOL0     C33641   3.889   8.430   3.568  0.2731  0.0154 -0.0568
  969MOL0     C33642   3.833   8.523   3.663 -0.2867  0.2539  0.5378
  969MOL0     O33643   3.707   8.565   3.654 -0.7211  0.4215  0.4490
  969MOL0     C33644   3.598   8.496   3.593  0.4640  0.5670 -0.4260
  969MOL0     C33645   3.512   8.417   3.693 -0.1774  0.3057 -0.2533
  969MOL0     C33646   3.457   8.510   3.813 -0.1489  0.2515  0.7661
  969MOL0     C33647   3.572   8.552   3.918  0.1320 -0.1871  0.3614
  969MOL0     C33648   3.516   8.583   4.051  0.2101 -0.3301 -0.4823
  969MOL0     C33649   3.490   8.609   4.165 -0.2794 -0.1613 -0.1907
  969MOL0     C33650   3.908   8.574   3.775 -0.9360  0.6129  1.0964
  969MOL0     C33651   4.053   8.552   3.778  0.5983  0.2407 -0.2879
  969MOL0     C33652   4.133   8.612   3.900  0.1908 -0.4352  0.8773
  969MOL0     H33653   4.379   8.157   3.450 -0.6192 -0.1266  0.8495
  969MOL0     H33654   4.612   8.096   3.384 -2.9204 -0.9713 -0.1230
  969MOL0     H33655   4.834   8.137   3.258 -1.9231 -0.8405  0.6682
  969MOL0     H33656   4.819   8.046   3.404 -2.5791 -1.1529 -2.4360
  969MOL0     H33657   5.042   8.220   3.280  2.5077 -2.5790 -2.6140
  969MOL0     H33658   5.066   8.168   3.448 -1.3870  1.4453  0.9377
  969MOL0     H33659   5.015   7.931   3.376 -4.8228 -1.0700 -4.5095
  969MOL0     H33660   4.996   7.988   3.216  0.1214  1.7057 -1.6111
  969MOL0     H33661   5.227   8.085   3.219 -1.3506  2.3338  2.5143
  969MOL0     H33662   5.261   8.008   3.374 -1.7541  0.5666  0.4794
  969MOL0     H33663   5.327   7.894   3.132  1.2231 -1.8613  0.6019
  969MOL0     H33664   5.159   7.837   3.134 -0.5397 -1.7360  1.9241
  969MOL0     H33665   5.338   7.802   3.375 -0.9730  2.5171 -1.3524
  969MOL0     H33666   5.200   7.704   3.329  0.8169 -0.1431  0.2286
  969MOL0     H33667   5.472   7.729   3.205  0.1414  1.8881  2.1413
  969MOL0     H33668   5.338   7.638   3.124 -3.2645 -0.1488  2.3833
  969MOL0     H33669   5.480   7.572   3.386  0.4498  1.3829 -0.6000
  969MOL0     H33670   5.346   7.476   3.312  0.3330 -0.9506 -2.5445
  969MOL0     H33671   5.418   7.384   3.051 -1.5884  0.2353  3.5725
  969MOL0     H33672   5.573   7.296   2.879  0.9983  1.3527 -4.0113
  969MOL0     H33673   5.711   7.223   2.937 -0.4186 -0.0505 -3.4608
  969MOL0     H33674   5.851   7.418   2.879  0.9234 -4.2966 -0.2128
  969MOL0     H33675   5.764   7.359   2.739  0.1079 -1.4802  0.2017
  969MOL0     H33676   5.592   7.550   2.758  0.3175  0.3451 -1.6669
  969MOL0     H33677   5.665   7.595   2.913 -1.9020  0.5360 -0.5927
  969MOL0     H33678   5.750   7.739   2.723 -0.3537  0.6645  1.1100
  969MOL0     H33679   5.877   7.633   2.808 -0.0753 -0.8870 -0.7338
  969MOL0     H33680   5.906   7.813   2.595  2.1149  1.2189 -0.1677
  969MOL0     H33681   6.098   7.966   2.322  1.3194  1.0323 -0.1057
  969MOL0     H33682   6.158   8.017   2.476  0.8237 -1.3904  3.6108
  969MOL0     H33683   5.993   8.012   2.463  0.7117 -0.5059  1.8080
  969MOL0     H33684   6.552   7.800   2.287  0.3422  0.7435  0.3006
  969MOL0     H33685   6.758   7.778   2.190  0.8462  0.1387  1.4837
  969MOL0     H33686   6.910   7.781   1.955 -1.0252 -0.6865  0.1020
  969MOL0     H33687   6.965   7.718   2.103 -2.0653  3.5133 -0.1688
  969MOL0     H33688   7.131   7.695   1.949  0.2119  0.9177 -0.1147
  969MOL0     H33689   7.059   7.534   1.965 -2.0342  1.8958  5.3257
  969MOL0     H33690   7.043   7.734   1.720 -0.9536  0.1472  0.8108
  969MOL0     H33691   6.953   7.593   1.732 -0.5407 -1.2649  1.1937
  969MOL0     H33692   7.170   7.454   1.728 -1.7611 -0.9888 -2.5640
  969MOL0     H33693   7.266   7.604   1.753  0.1277 -1.7242  0.3757
  969MOL0     H33694   7.098   7.489   1.522 -2.5561  1.6689  4.0571
  969MOL0     H33695   7.162   7.658   1.511  1.9133  1.9211  1.8173
  969MOL0     H33696   7.397   7.555   1.544 -1.5161  1.4527 -0.7926
  969MOL0     H33697   7.319   7.510   1.389  1.5814 -0.4803 -0.4124
  969MOL0     H33698   7.235   7.295   1.508 -1.0397  0.4816  0.6564
  969MOL0     H33699   7.342   7.336   1.646 -3.4210  0.1090  0.1811
  969MOL0     H33700   7.523   7.358   1.476  0.1156  0.3700  2.2837
  969MOL0     H33701   7.410   7.264   1.368  3.9906 -1.1724 -0.5192
  969MOL0     H33702   6.635   7.399   2.015  1.7639  0.2110  1.8755
  969MOL0     H33703   6.395   7.449   2.112 -1.1324  1.0450  0.8077
  969MOL0     H33704   6.160   7.487   2.347  0.6276  0.8958  1.0434
  969MOL0     H33705   5.950   7.421   2.462  2.0911 -0.6749 -1.4997
  969MOL0     H33706   4.744   8.465   3.559 -0.8997  2.6796 -3.7876
  969MOL0     H33707   4.546   8.518   3.639  1.5771 -0.1784  0.1679
  969MOL0     H33708   4.077   8.360   3.496  1.8595  0.1588  1.2269
  969MOL0     H33709   3.844   8.379   3.484 -0.4666  2.2379 -1.0788
  969MOL0     H33710   3.525   8.570   3.558 -0.4073 -0.8723 -1.7773
  969MOL0     H33711   3.633   8.434   3.510  2.8610  0.7821  0.3416
  969MOL0     H33712   3.568   8.334   3.738 -1.2697 -0.3712 -0.0806
  969MOL0     H33713   3.431   8.371   3.636  1.7475 -1.4226 -1.7391
  969MOL0     H33714   3.423   8.607   3.773 -1.0053  0.0592  1.0004
  969MOL0     H33715   3.379   8.460   3.871 -0.6062  1.9890  1.7130
  969MOL0     H33716   3.626   8.643   3.890 -2.6553  1.2717 -0.6433
  969MOL0     H33717   3.639   8.465   3.921 -0.2260 -0.5462 -1.1691
  969MOL0     H33718   3.458   8.618   4.266 -0.5566 -0.7554 -0.2224
  969MOL0     H33719   3.867   8.654   3.836  3.2959  3.0033  1.1996
  969MOL0     H33720   4.219   8.676   3.876 -1.8229  1.4059 -1.9816
  969MOL0     H33721   4.060   8.676   3.949 -1.6074 -2.0967  0.5123
  969MOL0     H33722   4.162   8.539   3.976  2.6076 -1.1887 -0.6498
  970MOL0     O33723  10.947   5.035   0.017  0.4976 -0.8546 -0.1558
  970MOL0     C33724  10.955   4.980  -0.091 -0.3297  0.1022  0.1865
  970MOL0     O33725  11.041   5.023  -0.188  0.0452 -0.0105  1.0841
  970MOL0     C33726  11.179   5.027  -0.173 -0.3937 -0.1574 -0.7198
  970MOL0     C33727  11.262   5.099  -0.253 -0.6384  0.1155  0.8532
  970MOL0     C33728  11.395   5.124  -0.216  1.0169  0.2903 -0.2839
  970MOL0     C33729  11.453   5.051  -0.104  0.2134  0.1074 -0.3704
  970MOL0     O33730  11.581   5.054  -0.056  0.0753  0.0898 -0.4457
  970MOL0     C33731  11.668   5.071  -0.166 -0.9629 -0.8435  0.2893
  970MOL0     C33732  11.811   5.021  -0.146 -0.3677  0.1671  0.9609
  970MOL0     C33733  11.895   5.150  -0.118  0.3591  0.1781 -0.1174
  970MOL0     C33734  12.044   5.115  -0.099  0.9236  0.0555  0.8973
  970MOL0     C33735  12.129   5.247  -0.106  0.2783  0.0924 -0.3560
  970MOL0     C33736  12.273   5.213  -0.063  0.5518 -0.3468  1.2799
  970MOL0     C33737  12.377   5.210  -0.188 -0.3225  0.2453 -0.1856
  970MOL0     C33738  12.505   5.159  -0.132 -0.4840  0.5585 -0.1582
  970MOL0     N33739  12.570   5.213  -0.010  0.4598  0.3993  0.8624
  970MOL0     C33740  12.609   5.343   0.002 -1.6255  0.3193  0.7741
  970MOL0     C33741  12.667   5.337   0.123 -0.4196  0.4217  0.1280
  970MOL0     C33742  12.738   5.450   0.180  0.4885 -0.4899 -0.3862
  970MOL0     C33743  12.651   5.498   0.300 -0.1776 -0.2662 -1.0188
  970MOL0     C33744  12.666   5.653   0.323  0.6267  0.0449  0.6604
  970MOL0     C33745  12.796   5.722   0.373 -0.3880 -0.0210  0.3127
  970MOL0     O33746  12.840   5.682   0.510  0.3757 -0.5963  0.7415
  970MOL0     C33747  12.780   5.721   0.633  0.0822 -0.2034  0.0161
  970MOL0     C33748  12.837   5.665   0.747  0.0379  0.7790  0.0975
  970MOL0     C33749  12.793   5.702   0.876 -0.6757 -0.3423 -0.6062
  970MOL0     C33750  12.862   5.639   0.998  0.2422 -0.0998  0.2089
  970MOL0     C33751  12.680   5.802   0.883 -0.0413 -0.8018  0.0530
  970MOL0     C33752  12.599   5.815   1.006 -0.3960 -0.8126  0.1980
  970MOL0     O33753  12.620   5.739   1.115 -0.3335 -0.4259 -0.0859
  970MOL0     C33754  12.611   5.801   1.235 -0.0718 -1.0160  0.3515
  970MOL0     C33755  12.612   5.943   1.265  0.0966 -0.3076 -0.5661
  970MOL0     C33756  12.591   5.990   1.397 -0.0573 -0.7072 -0.9373
  970MOL0     C33757  12.569   5.904   1.506  0.2182  0.1674  0.2105
  970MOL0     O33758  12.544   5.947   1.637  0.1041 -0.4563  0.7317
  970MOL0     C33759  12.590   6.083   1.682 -0.7098  0.7207  0.2288
  970MOL0     C33760  12.537   6.114   1.824 -0.2871 -0.2600  0.3286
  970MOL0     C33761  12.603   6.020   1.929 -0.1270  0.1744 -0.8228
  970MOL0     C33762  12.569   6.048   2.078  0.1608 -0.4727 -0.2955
  970MOL0     C33763  12.587   5.921   2.157  0.1913 -0.4111 -0.2330
  970MOL0     C33764  12.732   5.904   2.206 -0.6100 -0.0184 -0.2839
  970MOL0     C33765  12.751   5.765   2.285  0.0603  0.2839 -0.4021
  970MOL0     C33766  12.894   5.752   2.333  0.5471  0.8668  0.0211
  970MOL0    Cl33767  12.922   5.850   2.478 -0.2956 -0.0771  0.1146
  970MOL0     C33768  12.573   5.772   1.483 -0.3009  1.0896 -0.4643
  970MOL0     C33769  12.581   5.716   1.348 -0.2579  0.5084 -0.3561
  970MOL0     O33770  12.521   5.914   1.003 -0.2446 -0.0980  0.8180
  970MOL0     C33771  12.627   5.860   0.755  0.3942  0.3777  0.2956
  970MOL0     C33772  12.680   5.819   0.633  1.1897  0.7966 -0.2456
  970MOL0     N33773  12.667   5.204   0.176  0.6338 -0.7869  0.9825
  970MOL0     N33774  12.618   5.131   0.087  0.7711  0.8431 -0.3646
  970MOL0     C33775  11.376   4.961  -0.038 -0.0850 -0.6099 -0.3944
  970MOL0     C33776  11.239   4.951  -0.063  0.0278  0.1358 -1.1979
  970MOL0     C33777  10.872   4.856  -0.113  0.0451 -0.5956 -0.8057
  970MOL0     C33778  10.919   4.755  -0.196  0.0826  0.0814  0.8680
  970MOL0     C33779  10.869   4.631  -0.215 -0.0990 -0.0155 -0.3375
  970MOL0     C33780  10.749   4.599  -0.141 -0.2735  1.0430  0.7137
  970MOL0     O33781  10.681   4.487  -0.146  0.1699 -0.3491 -0.1854
  970MOL0     C33782  10.723   4.387  -0.245  1.3578 -0.7776 -0.3028
  970MOL0     C33783  10.587   4.333  -0.297 -0.3396 -0.1019 -0.0463
  970MOL0     C33784  10.601   4.228  -0.412  0.4608  1.1875 -0.0919
  970MOL0     C33785  10.679   4.282  -0.534 -0.3343  1.2230 -1.0166
  970MOL0     C33786  10.612   4.402  -0.589  0.1413  0.0394 -0.2190
  970MOL0     C33787  10.581   4.511  -0.628  0.4478 -0.9229 -0.8707
  970MOL0     C33788  10.703   4.704  -0.053 -0.2512  0.2296  0.7481
  970MOL0     C33789  10.754   4.825  -0.042 -0.9612 -0.5850  1.2935
  970MOL0     C33790  10.684   4.926   0.038  0.8524  0.0661 -0.8699
  970MOL0     H33791  11.215   5.146  -0.339 -0.2610  1.0163  1.1260
  970MOL0     H33792  11.454   5.199  -0.267  1.7034 -1.2838 -1.8884
  970MOL0     H33793  11.671   5.175  -0.200  0.7184 -1.7012 -2.4767
  970MOL0     H33794  11.633   5.016  -0.254 -0.8698  1.8579 -1.5503
  970MOL0     H33795  11.811   4.954  -0.060  2.4777 -1.5947 -0.2729
  970MOL0     H33796  11.855   4.968  -0.231  1.1226  1.4804  0.8537
  970MOL0     H33797  11.885   5.215  -0.205 -4.0254 -0.1812 -0.1145
  970MOL0     H33798  11.860   5.203  -0.029  2.2169 -0.3714  1.0192
  970MOL0     H33799  12.055   5.046  -0.015 -0.7650 -2.4486 -0.8100
  970MOL0     H33800  12.085   5.061  -0.185 -1.0113  1.6267 -1.0987
  970MOL0     H33801  12.094   5.326  -0.038  1.3191  1.0777 -0.9206
  970MOL0     H33802  12.126   5.295  -0.204  0.4874 -0.4919 -0.6560
  970MOL0     H33803  12.298   5.292   0.008  0.7975 -2.2773  3.4455
  970MOL0     H33804  12.272   5.125   0.002 -2.3777  0.8940  3.1382
  970MOL0     H33805  12.398   5.308  -0.232  0.1927 -0.3741 -1.3782
  970MOL0     H33806  12.343   5.144  -0.268  1.0482  1.9075 -2.2466
  970MOL0     H33807  12.493   5.051  -0.118 -3.2319  0.9699  1.5399
  970MOL0     H33808  12.585   5.172  -0.205  0.4569  0.8354  0.8775
  970MOL0     H33809  12.595   5.431  -0.060  1.1746  0.5623  0.3633
  970MOL0     H33810  12.737   5.531   0.106  2.2512  1.6539  1.7895
  970MOL0     H33811  12.837   5.420   0.216 -1.1581 -1.7907  3.5913
  970MOL0     H33812  12.543   5.481   0.291 -0.4422 -0.8804  2.1681
  970MOL0     H33813  12.675   5.450   0.396  2.8516  0.2854 -1.3972
  970MOL0     H33814  12.645   5.708   0.231 -3.1984 -0.0606  1.3149
  970MOL0     H33815  12.586   5.686   0.389 -0.4289 -2.5895  0.8251
  970MOL0     H33816  12.874   5.690   0.304 -1.0518  0.1361 -0.5251
  970MOL0     H33817  12.775   5.829   0.380  0.8474  0.1864  1.2338
  970MOL0     H33818  12.914   5.593   0.720 -0.1199  0.2586  0.9894
  970MOL0     H33819  12.937   5.563   0.974 -1.3174 -2.2227  1.6496
  970MOL0     H33820  12.791   5.574   1.050  0.5909 -0.0062  0.8071
  970MOL0     H33821  12.912   5.715   1.058  1.4267  0.6848 -1.6709
  970MOL0     H33822  12.630   6.017   1.187 -1.7655 -0.5488 -1.2827
  970MOL0     H33823  12.600   6.095   1.425 -2.8537 -0.6824  0.2243
  970MOL0     H33824  12.698   6.093   1.671 -0.8957 -0.2500 -4.1236
  970MOL0     H33825  12.535   6.154   1.620  1.2019  0.7695 -1.4956
  970MOL0     H33826  12.561   6.218   1.846 -1.1406 -0.5248  2.9456
  970MOL0     H33827  12.428   6.105   1.821 -0.3974  1.1861 -1.2995
  970MOL0     H33828  12.711   6.031   1.912 -0.6579  3.8554 -2.9629
  970MOL0     H33829  12.573   5.917   1.910  0.3063 -0.7889  2.8194
  970MOL0     H33830  12.464   6.071   2.093  1.1623  4.1739  1.1982
  970MOL0     H33831  12.615   6.141   2.112 -2.5567  2.2158 -3.3581
  970MOL0     H33832  12.519   5.931   2.242 -0.4611  0.7029 -0.8635
  970MOL0     H33833  12.551   5.836   2.097 -2.9172 -0.0824  0.9567
  970MOL0     H33834  12.761   5.987   2.271 -0.1605  0.4930 -1.1196
  970MOL0     H33835  12.806   5.900   2.125 -0.7748 -1.3336 -0.3932
  970MOL0     H33836  12.735   5.687   2.210  2.0707 -1.0738  0.4804
  970MOL0     H33837  12.685   5.759   2.371 -2.0153  0.9924 -1.8593
  970MOL0     H33838  12.970   5.778   2.259  2.1750 -2.4701  0.3694
  970MOL0     H33839  12.901   5.648   2.365 -0.0021  1.5086  2.5089
  970MOL0     H33840  12.564   5.704   1.567 -0.0228  2.7501  0.9426
  970MOL0     H33841  12.572   5.608   1.338  1.9407  0.2003  0.2855
  970MOL0     H33842  12.549   5.934   0.741 -1.4375 -1.4919  0.3194
  970MOL0     H33843  12.633   5.858   0.544  2.6039  3.9685  0.2379
  970MOL0     H33844  11.427   4.907   0.041 -0.2073 -0.6993 -0.3749
  970MOL0     H33845  11.193   4.883   0.008 -0.2200  2.1135  0.6654
  970MOL0     H33846  11.010   4.781  -0.249 -0.6911 -0.0773 -0.5846
  970MOL0     H33847  10.917   4.566  -0.288  2.3710  1.0529  0.2255
  970MOL0     H33848  10.782   4.431  -0.326  4.6127  1.2695  2.8470
  970MOL0     H33849  10.769   4.302  -0.193 -1.4114 -0.5117  2.8742
  970MOL0     H33850  10.528   4.420  -0.327  0.2954  0.3526 -0.0031
  970MOL0     H33851  10.537   4.295  -0.207  1.5440  3.1398  2.5746
  970MOL0     H33852  10.643   4.148  -0.352 -3.2713  0.6848  2.2147
  970MOL0     H33853  10.500   4.205  -0.448  0.1325 -0.1508  1.5914
  970MOL0     H33854  10.674   4.203  -0.610 -0.3493  1.6686 -1.4848
  970MOL0     H33855  10.783   4.298  -0.507  0.1062 -2.5116  0.0856
  970MOL0     H33856  10.558   4.611  -0.659 -0.2474  0.3056  3.0685
  970MOL0     H33857  10.614   4.674   0.001 -0.9910 -2.4480 -1.7063
  970MOL0     H33858  10.692   5.032   0.011  2.0233 -0.0536 -1.0496
  970MOL0     H33859  10.577   4.906   0.040  0.5145  1.4432 -2.3778
  970MOL0     H33860  10.705   4.929   0.145  0.1738 -0.3740 -0.7215
  971MOL0     O33861  10.998   3.193   9.137 -0.0131 -0.1407 -0.3303
  971MOL0     C33862  11.109   3.190   9.093  0.0598  0.5927  0.2747
  971MOL0     O33863  11.141   3.201   8.964  0.0636  0.9651  0.4276
  971MOL0     C33864  11.071   3.112   8.876 -0.6167  1.0308 -0.3503
  971MOL0     C33865  11.130   2.995   8.822 -0.6156  1.1936 -0.8500
  971MOL0     C33866  11.050   2.892   8.758  0.0323  0.0279 -0.3659
  971MOL0     C33867  10.913   2.912   8.733  0.0827 -0.5184  1.0293
  971MOL0     O33868  10.862   2.821   8.641 -0.0012 -0.2933 -1.5039
  971MOL0     C33869  10.776   2.884   8.550 -0.8335  0.3071 -0.8039
  971MOL0     C33870  10.774   2.801   8.425  0.4131 -0.8193 -0.3792
  971MOL0     C33871  10.739   2.657   8.439  0.4642  0.9130 -0.1242
  971MOL0     C33872  10.748   2.584   8.305 -0.1470  0.2027 -0.1156
  971MOL0     C33873  10.709   2.433   8.316  0.3688 -0.1554  1.1446
  971MOL0     C33874  10.551   2.426   8.330 -0.6384 -0.1947  0.6200
  971MOL0     C33875  10.501   2.278   8.312  0.6540 -0.4248 -0.3105
  971MOL0     C33876  10.547   2.188   8.419 -0.2583  0.2106 -1.1254
  971MOL0     N33877  10.480   2.200   8.551  0.7461 -0.8565 -0.3995
  971MOL0     C33878  10.350   2.161   8.579 -0.1664  0.3886  0.2623
  971MOL0     C33879  10.326   2.206   8.711  0.0507 -0.6196  0.0669
  971MOL0     C33880  10.202   2.193   8.793  0.4870  0.4117 -1.4292
  971MOL0     C33881  10.079   2.238   8.716  1.2761  1.6203  0.1931
  971MOL0     C33882  10.083   2.380   8.659 -0.4540  0.0955  1.3375
  971MOL0     C33883   9.946   2.431   8.597 -0.6840 -0.2054 -0.2425
  971MOL0     O33884   9.840   2.414   8.697 -0.4668  0.1203 -0.8585
  971MOL0     C33885   9.727   2.357   8.642 -0.3574  0.5731 -0.1818
  971MOL0     C33886   9.662   2.407   8.526 -1.0564  0.7315  0.0306
  971MOL0     C33887   9.552   2.339   8.470  0.1208 -0.1385  0.0705
  971MOL0     C33888   9.505   2.392   8.339  0.0438 -0.1331  0.2555
  971MOL0     C33889   9.496   2.226   8.532 -0.0871 -0.1983 -0.6032
  971MOL0     C33890   9.383   2.144   8.468  0.5327 -0.5934  0.5177
  971MOL0     O33891   9.366   2.025   8.528 -0.3881  0.1273  0.6023
  971MOL0     C33892   9.264   1.932   8.497 -0.1839  0.1086  0.4936
  971MOL0     C33893   9.181   1.877   8.593  0.0089  0.3309 -0.1231
  971MOL0     C33894   9.070   1.804   8.559  0.0036 -0.0426 -1.9525
  971MOL0     C33895   9.034   1.774   8.427  0.0858  0.4509  0.0064
  971MOL0     O33896   8.913   1.706   8.413 -1.5085 -0.1423 -0.2691
  971MOL0     C33897   8.863   1.679   8.280 -0.5718 -0.2982 -0.3444
  971MOL0     C33898   8.711   1.654   8.278  0.1022 -0.6794  0.2224
  971MOL0     C33899   8.621   1.738   8.371  0.4545  0.8088  0.3886
  971MOL0     C33900   8.477   1.756   8.324 -0.5056  0.3002  0.4245
  971MOL0     C33901   8.373   1.794   8.439 -0.3399  0.0659  0.6846
  971MOL0     C33902   8.231   1.809   8.374  0.4922 -0.2597  0.2459
  971MOL0     C33903   8.166   1.673   8.332 -0.6439 -0.2299 -0.9586
  971MOL0     C33904   8.019   1.678   8.314 -1.2182  0.2074 -0.2311
  971MOL0    Cl33905   7.951   1.514   8.278 -0.2928 -0.1442  0.4312
  971MOL0     C33906   9.125   1.813   8.336 -0.0436  0.2078  1.3198
  971MOL0     C33907   9.226   1.900   8.366 -0.2796  0.1117  0.9082
  971MOL0     O33908   9.313   2.180   8.376 -0.3081 -0.4431  0.4052
  971MOL0     C33909   9.569   2.165   8.647 -0.0024 -0.1310 -0.1687
  971MOL0     C33910   9.680   2.240   8.693  0.7769 -0.4943  0.0535
  971MOL0     N33911  10.441   2.274   8.750  0.5194 -0.1557 -0.2557
  971MOL0     N33912  10.518   2.283   8.652 -0.3092 -0.1929  0.2207
  971MOL0     C33913  10.853   3.031   8.785 -0.8515  0.0383 -0.3051
  971MOL0     C33914  10.936   3.119   8.855 -0.0217  0.0228  0.0700
  971MOL0     C33915  11.221   3.202   9.188 -0.3172  0.6943  0.1137
  971MOL0     C33916  11.326   3.288   9.142 -0.3066  0.6906 -0.8403
  971MOL0     C33917  11.425   3.325   9.226  0.5184  0.9322 -1.1480
  971MOL0     C33918  11.426   3.269   9.364 -0.6362 -0.7999  1.3426
  971MOL0     O33919  11.525   3.285   9.450  0.2480  0.4991 -0.2242
  971MOL0     C33920  11.659   3.289   9.401 -1.4366 -0.1781 -0.7540
  971MOL0     C33921  11.770   3.257   9.501  0.2650  0.0984  0.4948
  971MOL0     C33922  11.775   3.353   9.618  0.4356 -0.2687 -0.3293
  971MOL0     C33923  11.865   3.477   9.574  0.7035  0.0110  0.5255
  971MOL0     C33924  11.913   3.540   9.696 -0.4497 -0.2881 -0.0750
  971MOL0     C33925  11.962   3.604   9.787  0.3367 -0.0515 -0.2783
  971MOL0     C33926  11.331   3.178   9.403  0.0966  0.8077  0.1643
  971MOL0     C33927  11.219   3.150   9.320 -1.0613 -0.4045 -0.7477
  971MOL0     C33928  11.113   3.052   9.369  0.3910  0.5661  1.1049
  971MOL0     H33929  11.235   2.972   8.838 -1.3209 -0.3200  2.4792
  971MOL0     H33930  11.115   2.806   8.743  0.4136  0.1137  0.7025
  971MOL0     H33931  10.815   2.977   8.509  3.7946 -0.0185  2.1470
  971MOL0     H33932  10.678   2.889   8.599 -1.3842  0.2082 -1.8735
  971MOL0     H33933  10.716   2.864   8.356 -3.0248 -3.7765 -0.5109
  971MOL0     H33934  10.874   2.816   8.383  0.1203  0.2447 -0.7270
  971MOL0     H33935  10.814   2.608   8.503 -0.2776 -0.8462 -0.5457
  971MOL0     H33936  10.633   2.646   8.464  0.7534  1.8083  1.7166
  971MOL0     H33937  10.689   2.637   8.231  2.5577  4.4708  0.4412
  971MOL0     H33938  10.853   2.580   8.273  0.2741 -0.6278  1.2600
  971MOL0     H33939  10.758   2.392   8.404  0.1054 -2.2192  0.3935
  971MOL0     H33940  10.737   2.370   8.231  0.3678 -0.6690  1.5241
  971MOL0     H33941  10.517   2.472   8.423 -2.3009 -2.8617  1.4342
  971MOL0     H33942  10.495   2.477   8.251  0.6568 -2.3774 -1.8825
  971MOL0     H33943  10.536   2.239   8.215  2.1775  0.3809 -0.1198
  971MOL0     H33944  10.393   2.267   8.305  0.5342 -0.7714  1.7234
  971MOL0     H33945  10.546   2.082   8.395  2.0390 -0.2582  0.5556
  971MOL0     H33946  10.650   2.211   8.445  0.1503  1.1743 -3.3782
  971MOL0     H33947  10.299   2.106   8.501 -1.4637  1.1079  0.5703
  971MOL0     H33948  10.211   2.258   8.881  4.1041 -0.1195 -1.2711
  971MOL0     H33949  10.200   2.090   8.831  0.0450  0.1744 -2.0750
  971MOL0     H33950  10.050   2.176   8.631 -0.8158  1.0606  1.2356
  971MOL0     H33951   9.998   2.237   8.791  1.4704 -6.0803  1.0531
  971MOL0     H33952  10.118   2.436   8.747  1.5694  0.0950  0.5872
  971MOL0     H33953  10.157   2.414   8.586  0.0921 -0.6305  1.5348
  971MOL0     H33954   9.966   2.536   8.574 -1.0930 -0.0060  0.2870
  971MOL0     H33955   9.927   2.366   8.511  3.6366 -1.8318 -0.2348
  971MOL0     H33956   9.700   2.492   8.471 -0.6305  0.5109 -0.0192
  971MOL0     H33957   9.551   2.486   8.308 -3.2690  1.3801 -0.3956
  971MOL0     H33958   9.406   2.433   8.357  0.6706  0.7986  1.7441
  971MOL0     H33959   9.523   2.318   8.260  1.1072  1.4539 -1.0767
  971MOL0     H33960   9.181   1.907   8.698 -0.1833  2.9026 -0.7768
  971MOL0     H33961   9.001   1.775   8.637  0.1434  2.1490 -0.9504
  971MOL0     H33962   8.875   1.769   8.219 -1.4902 -0.3893 -0.6799
  971MOL0     H33963   8.910   1.587   8.242 -1.3527 -1.9820  2.4533
  971MOL0     H33964   8.683   1.665   8.173  1.3319 -6.6250 -1.1103
  971MOL0     H33965   8.707   1.546   8.298  1.3492 -1.1296 -1.7119
  971MOL0     H33966   8.661   1.839   8.389  0.5967  0.6757  0.8100
  971MOL0     H33967   8.623   1.681   8.463 -2.1058  0.3902  0.2617
  971MOL0     H33968   8.451   1.655   8.293 -0.4003  0.8807 -1.6821
  971MOL0     H33969   8.472   1.822   8.237 -0.8034  1.4967  1.3304
  971MOL0     H33970   8.376   1.731   8.529  2.1084 -1.0984 -0.1183
  971MOL0     H33971   8.396   1.888   8.489  1.7891 -1.1698  2.1860
  971MOL0     H33972   8.233   1.877   8.288 -2.2446 -1.2803 -0.7531
  971MOL0     H33973   8.166   1.862   8.445 -1.5354  2.2696 -3.1306
  971MOL0     H33974   8.187   1.601   8.412 -1.1555  0.9107  0.2344
  971MOL0     H33975   8.216   1.631   8.244  0.8299 -2.4498  0.8562
  971MOL0     H33976   7.998   1.751   8.235 -0.2449  0.3283 -0.3887
  971MOL0     H33977   7.974   1.716   8.407  0.1042  0.6074  0.2584
  971MOL0     H33978   9.115   1.788   8.231 -1.1037  0.7689  1.2717
  971MOL0     H33979   9.292   1.929   8.285  0.9914  1.9784  2.5170
  971MOL0     H33980   9.543   2.067   8.686 -0.5779  0.6642  1.5427
  971MOL0     H33981   9.734   2.205   8.780 -1.0436  0.4886  1.6712
  971MOL0     H33982  10.745   3.042   8.779 -0.6697  4.2874  0.8506
  971MOL0     H33983  10.889   3.206   8.901  2.8239  2.0469 -0.5822
  971MOL0     H33984  11.326   3.327   9.041  2.4551 -0.2309 -1.2881
  971MOL0     H33985  11.507   3.391   9.200 -0.4599  1.9437 -1.7737
  971MOL0     H33986  11.675   3.226   9.313  1.7920 -2.3851  1.1608
  971MOL0     H33987  11.682   3.388   9.362 -0.1716 -1.6145 -4.0163
  971MOL0     H33988  11.861   3.265   9.441 -0.5952  1.9913 -0.6396
  971MOL0     H33989  11.776   3.150   9.523  1.5293 -0.6890 -2.9900
  971MOL0     H33990  11.673   3.379   9.647  1.3387  1.6186  1.3847
  971MOL0     H33991  11.828   3.314   9.706  0.2213 -0.2289 -0.1819
  971MOL0     H33992  11.796   3.535   9.512  0.7819 -0.3024  0.1430
  971MOL0     H33993  11.949   3.433   9.519 -0.3466  0.1872 -1.2894
  971MOL0     H33994  11.997   3.662   9.869  2.2619  0.7059 -1.5653
  971MOL0     H33995  11.335   3.140   9.504  0.1682 -1.0315 -0.4882
  971MOL0     H33996  11.136   3.006   9.466 -2.0280  0.8825  1.8976
  971MOL0     H33997  11.016   3.102   9.380  0.6611  0.8341  2.5220
  971MOL0     H33998  11.121   2.976   9.291  1.4256  0.1050  1.6396
  972MOL0     O33999   2.975   5.323  10.999  0.1265 -0.6795 -0.0601
  972MOL0     C34000   2.863   5.356  10.948 -0.1469 -0.1655 -0.0774
  972MOL0     O34001   2.848   5.446  10.848 -0.0376  0.2085  0.2227
  972MOL0     C34002   2.954   5.514  10.798 -0.6331 -0.2017 -1.1678
  972MOL0     C34003   3.078   5.463  10.756  0.2692  0.5893  0.5288
  972MOL0     C34004   3.167   5.557  10.703 -0.9132 -0.2014 -0.1192
  972MOL0     C34005   3.141   5.691  10.675  1.0036  0.1902 -0.1499
  972MOL0     O34006   3.222   5.777  10.613 -0.5938 -0.3770  0.2084
  972MOL0     C34007   3.351   5.793  10.671 -1.2542  0.4586 -0.1765
  972MOL0     C34008   3.339   5.889  10.781  0.2029 -0.1135 -0.1605
  972MOL0     C34009   3.462   5.878  10.876 -0.3579  0.7959 -0.5570
  972MOL0     C34010   3.469   5.990  10.990  0.5390  0.4862  0.4770
  972MOL0     C34011   3.599   5.973  11.061 -0.9417  1.0301 -0.2330
  972MOL0     C34012   3.581   6.066  11.182 -0.1402  0.1202 -0.3993
  972MOL0     C34013   3.725   6.095  11.248  0.7387 -1.4583  0.2265
  972MOL0     C34014   3.727   6.227  11.332  0.1537 -0.3280 -0.0594
  972MOL0     N34015   3.739   6.332  11.228  0.0051  0.8594  0.1119
  972MOL0     C34016   3.860   6.398  11.203 -0.3502 -0.2306 -0.4021
  972MOL0     C34017   3.823   6.515  11.144  0.0362 -0.8430 -0.9190
  972MOL0     C34018   3.914   6.599  11.062 -0.3922  0.4165 -0.2564
  972MOL0     C34019   3.897   6.540  10.923  0.8384 -0.1765 -0.4499
  972MOL0     C34020   3.992   6.610  10.821  0.4696 -0.3055 -0.5919
  972MOL0     C34021   3.945   6.746  10.764 -0.2127  1.2833 -0.0139
  972MOL0     O34022   3.897   6.839  10.869 -0.6047 -0.1064 -0.3255
  972MOL0     C34023   3.768   6.879  10.842 -0.8240 -0.6419  0.4048
  972MOL0     C34024   3.658   6.827  10.914 -0.0857  1.0892 -0.3750
  972MOL0     C34025   3.527   6.861  10.898  0.8043 -0.4608 -0.1680
  972MOL0     C34026   3.431   6.802  10.992 -0.1258  0.7327  0.2701
  972MOL0     C34027   3.490   6.947  10.795 -1.0559  0.3999 -0.3035
  972MOL0     C34028   3.350   6.988  10.756 -0.0614 -0.1523  0.0998
  972MOL0     O34029   3.356   7.068  10.645  0.4891 -0.2153 -0.2799
  972MOL0     C34030   3.261   7.175  10.630 -0.4787  0.8185 -0.0737
  972MOL0     C34031   3.263   7.242  10.506  0.6246  0.1717  0.8295
  972MOL0     C34032   3.172   7.350  10.492 -0.3679 -0.2308  0.2947
  972MOL0     C34033   3.080   7.388  10.590  1.0092  0.1384  0.4040
  972MOL0     O34034   2.990   7.487  10.580  0.5318 -0.0607 -0.4157
  972MOL0     C34035   2.885   7.464  10.487 -1.0461  0.0843  0.5153
  972MOL0     C34036   2.744   7.425  10.536  0.4596 -0.0004  0.5374
  972MOL0     C34037   2.773   7.287  10.601 -0.1326  0.6123 -0.7610
  972MOL0     C34038   2.652   7.213  10.640  0.8399  0.5534 -0.6961
  972MOL0     C34039   2.661   7.095  10.734 -0.7422  0.3266 -0.0696
  972MOL0     C34040   2.782   7.009  10.695  0.3142  1.2567 -0.0444
  972MOL0     C34041   2.795   6.883  10.792  0.1636  1.3297 -0.0081
  972MOL0     C34042   2.915   6.797  10.730  0.3492 -0.3184  0.1017
  972MOL0    Cl34043   2.954   6.661  10.845  0.2360  0.2392  0.5275
  972MOL0     C34044   3.088   7.330  10.714 -0.0721  0.0123 -0.1976
  972MOL0     C34045   3.174   7.221  10.730 -0.8233 -0.0715  0.1719
  972MOL0     O34046   3.250   6.958  10.821 -0.4093 -0.9340 -0.7605
  972MOL0     C34047   3.603   6.993  10.715  0.1975 -0.5421  0.1673
  972MOL0     C34048   3.735   6.975  10.748 -0.0604  0.3043 -0.1987
  972MOL0     N34049   3.689   6.518  11.143  0.3338  0.3742 -0.0664
  972MOL0     N34050   3.640   6.418  11.202  0.2078 -0.0827  0.3442
  972MOL0     C34051   3.011   5.739  10.721 -0.1075 -0.2156 -0.5864
  972MOL0     C34052   2.925   5.648  10.782 -0.0956 -0.9893  0.3604
  972MOL0     C34053   2.748   5.278  11.006  1.1880  0.6776  0.5858
  972MOL0     C34054   2.767   5.140  11.026 -0.5787  0.5225 -0.7138
  972MOL0     C34055   2.670   5.064  11.090 -0.2717  0.3673  0.2937
  972MOL0     C34056   2.540   5.114  11.109 -0.0946 -1.3891 -0.8721
  972MOL0     O34057   2.441   5.038  11.169 -0.1024 -0.5079 -0.5242
  972MOL0     C34058   2.479   4.953  11.275 -1.3264 -0.9046  1.5246
  972MOL0     C34059   2.356   4.908  11.354 -1.3386 -0.0658  0.4128
  972MOL0     C34060   2.264   4.817  11.268 -0.8773 -0.8547 -0.1722
  972MOL0     C34061   2.137   4.782  11.347 -0.8887  0.1240 -0.0630
  972MOL0     C34062   2.167   4.685  11.451  1.3525  0.2756 -0.1298
  972MOL0     C34063   2.184   4.607  11.541 -0.2486  0.0045 -0.2260
  972MOL0     C34064   2.507   5.248  11.072  0.1720 -0.6713 -0.2452
  972MOL0     C34065   2.618   5.327  11.024  0.0167  0.4427 -1.0962
  972MOL0     C34066   2.581   5.467  10.986  0.1500  0.0653 -0.4521
  972MOL0     H34067   3.099   5.356  10.751  0.4828  0.5811  1.4430
  972MOL0     H34068   3.269   5.520  10.698 -0.9434 -0.9189  2.9503
  972MOL0     H34069   3.429   5.823  10.600 -0.4827  1.4048  1.0248
  972MOL0     H34070   3.394   5.701  10.711  0.0865 -0.1142 -2.7155
  972MOL0     H34071   3.326   5.990  10.742  1.5976  0.9498  1.9105
  972MOL0     H34072   3.246   5.877  10.837 -0.4327  1.6863 -0.7556
  972MOL0     H34073   3.454   5.782  10.928 -0.3821 -1.2833 -4.0957
  972MOL0     H34074   3.551   5.879  10.813  0.4005 -1.3931  0.3909
  972MOL0     H34075   3.464   6.090  10.947  0.3544  0.2832  0.0175
  972MOL0     H34076   3.383   5.974  11.056 -0.3156 -1.3684 -0.9617
  972MOL0     H34077   3.684   5.994  10.995  2.6751 -2.6959  2.7100
  972MOL0     H34078   3.604   5.872  11.102 -0.2988  2.0222  2.3657
  972MOL0     H34079   3.532   6.161  11.158  1.4816  0.3371 -3.2849
  972MOL0     H34080   3.514   6.017  11.254 -0.7588 -1.5741 -2.0566
  972MOL0     H34081   3.801   6.089  11.169  0.8060 -0.8737  0.2408
  972MOL0     H34082   3.734   6.014  11.322  0.9683 -0.7958  0.9419
  972MOL0     H34083   3.641   6.235  11.398 -0.1280  1.6596 -0.6053
  972MOL0     H34084   3.820   6.228  11.389  0.3635 -2.3637 -0.2936
  972MOL0     H34085   3.961   6.365  11.225 -1.7264 -2.6033  3.4516
  972MOL0     H34086   4.015   6.581  11.101 -0.0230  1.1508 -0.8257
  972MOL0     H34087   3.904   6.706  11.086 -2.8462 -0.2863  2.4158
  972MOL0     H34088   3.917   6.433  10.912  1.7743 -0.2922  1.9357
  972MOL0     H34089   3.789   6.544  10.902  0.6010 -1.5127  0.3624
  972MOL0     H34090   4.086   6.632  10.873  1.8012 -0.1909 -2.9043
  972MOL0     H34091   4.014   6.543  10.738  1.2853 -1.5105  0.5521
  972MOL0     H34092   4.028   6.805  10.722 -0.8631  2.5308  0.3965
  972MOL0     H34093   3.878   6.733  10.679  0.2551  0.3735 -0.2572
  972MOL0     H34094   3.688   6.759  10.992  3.8671  3.0191  0.0062
  972MOL0     H34095   3.433   6.851  11.089  3.5797  0.8424  0.2732
  972MOL0     H34096   3.468   6.700  11.009 -0.0680  1.3648  4.9843
  972MOL0     H34097   3.327   6.787  10.959  0.3091  3.5856 -2.9886
  972MOL0     H34098   3.327   7.209  10.425 -0.6331 -0.0925 -0.0821
  972MOL0     H34099   3.156   7.409  10.402 -2.0948 -1.6053 -0.3537
  972MOL0     H34100   2.872   7.551  10.422 -1.9324 -1.1096 -0.9745
  972MOL0     H34101   2.918   7.381  10.424  0.1755  0.8351  0.1417
  972MOL0     H34102   2.701   7.496  10.608  1.3583 -0.2555  1.3603
  972MOL0     H34103   2.677   7.419  10.450  1.5318  0.4460 -0.3466
  972MOL0     H34104   2.834   7.297  10.691  0.2185 -0.0296 -0.9236
  972MOL0     H34105   2.826   7.222  10.531  0.3550  2.0934 -1.8351
  972MOL0     H34106   2.593   7.191  10.551 -4.8759 -3.6515  3.4114
  972MOL0     H34107   2.589   7.288  10.688  3.4301  1.0097  2.3155
  972MOL0     H34108   2.671   7.144  10.831 -0.7503 -0.5317  0.3805
  972MOL0     H34109   2.565   7.043  10.730 -0.8494  0.5828 -1.1475
  972MOL0     H34110   2.876   7.064  10.706  1.0289 -0.0695  0.8912
  972MOL0     H34111   2.776   6.976  10.591 -3.0424  0.7798  0.1733
  972MOL0     H34112   2.712   6.813  10.786 -0.3399  1.7654  1.4790
  972MOL0     H34113   2.810   6.911  10.897  0.6327 -2.2397  1.0033
  972MOL0     H34114   2.994   6.872  10.722  0.6636 -0.6944 -0.4727
  972MOL0     H34115   2.903   6.751  10.631  2.7858 -1.3367  0.2097
  972MOL0     H34116   3.023   7.371  10.792 -3.6106 -2.1161 -1.7790
  972MOL0     H34117   3.161   7.174  10.827 -3.3110  0.7028  0.2772
  972MOL0     H34118   3.579   7.057  10.630 -1.2913 -0.0327  0.9283
  972MOL0     H34119   3.799   7.046  10.697 -0.1318  1.2078  0.9224
  972MOL0     H34120   2.980   5.841  10.701 -1.1787  0.0029  1.8660
  972MOL0     H34121   2.833   5.692  10.818 -0.1494 -0.7192 -0.0986
  972MOL0     H34122   2.865   5.095  11.009 -0.7047  0.0031 -0.1099
  972MOL0     H34123   2.693   4.959  11.111 -3.6865 -0.7380 -0.8186
  972MOL0     H34124   2.519   4.867  11.221  0.7715  1.1032 -0.3521
  972MOL0     H34125   2.550   5.017  11.329  1.2263 -2.4456  0.1905
  972MOL0     H34126   2.301   4.995  11.393 -1.0520  0.6400 -0.7291
  972MOL0     H34127   2.393   4.849  11.438  0.1852  1.3933  0.8261
  972MOL0     H34128   2.230   4.884  11.188  0.3494  0.0116 -0.0006
  972MOL0     H34129   2.316   4.738  11.213  0.3655  1.0721 -1.9392
  972MOL0     H34130   2.064   4.751  11.271  1.3187 -1.9694 -1.4782
  972MOL0     H34131   2.094   4.878  11.380  3.0674  2.2815 -0.5921
  972MOL0     H34132   2.207   4.543  11.624 -1.0419 -2.2869 -1.6702
  972MOL0     H34133   2.410   5.295  11.074  0.9054  1.3200 -3.9561
  972MOL0     H34134   2.593   5.479  10.878  1.9014  1.5987 -0.1515
  972MOL0     H34135   2.477   5.498  11.000  0.2665  1.0589 -1.5897
  972MOL0     H34136   2.655   5.529  11.038 -0.8376 -0.5912  1.8518
  973MOL0     O34137   9.010   0.514  10.596 -0.4143  0.0251 -0.1340
  973MOL0     C34138   9.058   0.425  10.657  0.0814 -0.0622 -0.8233
  973MOL0     O34139   9.042   0.419  10.796  1.0529  0.1792  0.0857
  973MOL0     C34140   8.987   0.525  10.864  0.0356  0.2588 -0.5628
  973MOL0     C34141   9.065   0.640  10.884  0.1893  0.5665 -1.3000
  973MOL0     C34142   9.001   0.750  10.938  0.1185  0.4689  0.1751
  973MOL0     C34143   8.857   0.750  10.977 -0.7791 -0.3745 -0.0872
  973MOL0     O34144   8.791   0.855  11.041  0.3322  0.5118 -0.3764
  973MOL0     C34145   8.783   0.965  10.952  0.1326  0.7899  0.4070
  973MOL0     C34146   8.695   1.066  11.010  0.3620 -0.1079  0.1059
  973MOL0     C34147   8.569   0.998  11.054  0.6830  0.9022 -0.7922
  973MOL0     C34148   8.453   1.093  11.056 -0.2584  0.5151 -0.1618
  973MOL0     C34149   8.318   1.036  11.109 -0.9598  0.4254  0.1351
  973MOL0     C34150   8.313   1.012  11.260  0.0096 -0.1786  0.1510
  973MOL0     C34151   8.215   0.910  11.291 -0.7433 -1.0876 -0.4455
  973MOL0     C34152   8.069   0.969  11.303  0.5280 -0.0348  0.0398
  973MOL0     N34153   8.043   1.044  11.431  0.1006 -0.0862  0.4960
  973MOL0     C34154   7.946   1.017  11.519  1.0038  0.0502  0.8154
  973MOL0     C34155   7.976   1.111  11.620  0.2492  0.0507 -0.3270
  973MOL0     C34156   7.893   1.120  11.746 -0.3060  0.1968 -0.6333
  973MOL0     C34157   7.977   1.196  11.848  0.9453  0.3213  0.1621
  973MOL0     C34158   7.911   1.187  11.985  0.0012  0.1742 -0.9144
  973MOL0     C34159   7.992   1.272  12.085  0.0481  1.2504 -0.2675
  973MOL0     O34160   8.000   1.409  12.039  0.2631 -0.3370 -0.1951
  973MOL0     C34161   7.946   1.520  12.097  0.0581 -0.5324 -1.1930
  973MOL0     C34162   7.907   1.627  12.016 -0.8903 -1.1936 -0.4481
  973MOL0     C34163   7.855   1.741  12.060  1.1750 -0.8707 -0.5019
  973MOL0     C34164   7.839   1.852  11.950 -0.2032  0.0696 -0.4813
  973MOL0     C34165   7.820   1.754  12.198  0.2785 -0.5502  0.1176
  973MOL0     C34166   7.751   1.869  12.270  0.2158 -0.6297  0.1209
  973MOL0     O34167   7.671   1.956  12.209 -0.0202  0.5050  0.7669
  973MOL0     C34168   7.651   2.079  12.264 -0.0582 -1.3596 -0.3164
  973MOL0     C34169   7.734   2.182  12.227  0.3714 -0.8815 -0.8605
  973MOL0     C34170   7.722   2.306  12.287  0.1910 -0.5851 -0.2443
  973MOL0     C34171   7.619   2.321  12.379  1.0084  0.4625 -0.6443
  973MOL0     O34172   7.615   2.442  12.444 -0.2900 -0.8663 -0.2979
  973MOL0     C34173   7.492   2.513  12.435  0.4309  0.3553  0.6591
  973MOL0     C34174   7.505   2.660  12.450  0.0097  0.0530  0.5257
  973MOL0     C34175   7.555   2.725  12.583 -1.2217  0.1179  0.2554
  973MOL0     C34176   7.608   2.871  12.557  0.4784 -0.0860 -0.7461
  973MOL0     C34177   7.683   2.906  12.680  0.5987 -0.2546 -0.9192
  973MOL0     C34178   7.716   3.046  12.698 -0.1035  0.0836  0.2210
  973MOL0     C34179   7.592   3.138  12.726 -0.0229  0.1464 -0.0182
  973MOL0     C34180   7.633   3.284  12.738 -0.0115 -1.0683 -0.2221
  973MOL0    Cl34181   7.479   3.375  12.753  0.0773 -0.0578 -0.6409
  973MOL0     C34182   7.537   2.215  12.421 -0.7292 -0.3459 -0.7206
  973MOL0     C34183   7.555   2.095  12.358 -0.1553  0.1441  1.2129
  973MOL0     O34184   7.796   1.894  12.383 -0.1087 -0.2290 -0.3919
  973MOL0     C34185   7.842   1.639  12.276 -0.8750 -0.2954 -0.5734
  973MOL0     C34186   7.903   1.516  12.233 -0.0275  0.5325 -0.5074
  973MOL0     N34187   8.078   1.200  11.584 -0.5537  0.0186  1.2718
  973MOL0     N34188   8.122   1.142  11.483 -0.8188 -0.3846  0.5239
  973MOL0     C34189   8.786   0.633  10.947 -0.2193 -0.0587  0.0041
  973MOL0     C34190   8.854   0.521  10.893  0.5427 -0.2807 -1.4375
  973MOL0     C34191   9.150   0.321  10.601 -0.3140 -0.8139 -0.5107
  973MOL0     C34192   9.253   0.277  10.689  0.2029 -0.6903  0.4027
  973MOL0     C34193   9.358   0.194  10.638 -0.2151  0.0380  1.0366
  973MOL0     C34194   9.348   0.134  10.509 -0.5949  0.1781 -1.6353
  973MOL0     O34195   9.444   0.043  10.476 -0.4884 -0.2412  0.1925
  973MOL0     C34196   9.521   0.051  10.356  0.6871  0.2575  0.0761
  973MOL0     C34197   9.579  -0.083  10.296 -0.3598 -1.2726 -0.7710
  973MOL0     C34198   9.704  -0.139  10.385  0.2279 -0.3172  1.0235
  973MOL0     C34199   9.792  -0.034  10.465 -0.1401 -2.0684  0.2400
  973MOL0     C34200   9.843   0.060  10.359  0.4136 -0.9215 -1.0326
  973MOL0     C34201   9.880   0.137  10.272 -0.4346 -0.9784 -0.2122
  973MOL0     C34202   9.248   0.180  10.431 -0.6135 -0.0646  0.4570
  973MOL0     C34203   9.154   0.267  10.471  1.0370 -1.0709 -0.2447
  973MOL0     C34204   9.044   0.314  10.377 -0.4089 -0.1837  0.2978
  973MOL0     H34205   9.171   0.634  10.865  0.9824  0.3013  2.4485
  973MOL0     H34206   9.053   0.843  10.958 -1.3414  1.2374  0.6175
  973MOL0     H34207   8.735   0.933  10.859  1.7625  1.5560 -0.7621
  973MOL0     H34208   8.885   0.991  10.920  0.6304 -1.2953  0.1372
  973MOL0     H34209   8.734   1.118  11.098  1.5837 -0.8115 -0.0007
  973MOL0     H34210   8.683   1.149  10.940 -1.0336 -0.2146  0.1887
  973MOL0     H34211   8.523   0.924  10.988 -1.3289 -0.7211  2.1685
  973MOL0     H34212   8.582   0.951  11.152  0.4392  0.6657 -0.8710
  973MOL0     H34213   8.494   1.178  11.113 -1.3629  2.4426 -2.0880
  973MOL0     H34214   8.448   1.120  10.951  1.0709  0.8011 -0.1661
  973MOL0     H34215   8.321   0.943  11.052 -0.8019  0.7407 -0.3695
  973MOL0     H34216   8.237   1.095  11.066 -1.1519  0.3687  0.4129
  973MOL0     H34217   8.405   0.965  11.293  1.7364  0.8280 -2.8390
  973MOL0     H34218   8.295   1.103  11.317 -3.3819 -1.7822  1.9845
  973MOL0     H34219   8.239   0.871  11.391  3.9878  1.7664 -0.1563
  973MOL0     H34220   8.235   0.833  11.216 -0.1686  0.0124 -1.4571
  973MOL0     H34221   8.051   1.035  11.219  2.1367  0.4972  0.0693
  973MOL0     H34222   7.999   0.887  11.288 -1.3645  1.2765  1.2543
  973MOL0     H34223   7.859   0.953  11.515  0.4016  0.9055 -1.5713
  973MOL0     H34224   7.856   1.026  11.788  0.7755 -0.4881 -1.1599
  973MOL0     H34225   7.797   1.170  11.730 -0.2492  1.2314  1.8482
  973MOL0     H34226   8.080   1.161  11.853  0.5706 -0.8191  0.2907
  973MOL0     H34227   7.974   1.298  11.810 -3.3876 -0.5136 -2.4441
  973MOL0     H34228   7.810   1.223  11.967  0.8829  1.6039 -3.6209
  973MOL0     H34229   7.912   1.085  12.024  1.0203  0.3172 -0.5366
  973MOL0     H34230   7.934   1.269  12.178 -0.4149  1.5831 -0.5370
  973MOL0     H34231   8.092   1.228  12.088 -0.9951 -1.2331  1.8325
  973MOL0     H34232   7.924   1.608  11.911  1.7743 -0.0948 -0.2814
  973MOL0     H34233   7.795   1.807  11.861  1.0003 -0.2803 -0.9256
  973MOL0     H34234   7.934   1.904  11.933  0.2337 -1.2232 -2.3415
  973MOL0     H34235   7.784   1.935  11.995 -1.3933 -0.1965 -1.4031
  973MOL0     H34236   7.809   2.174  12.148  1.3209  1.8559 -0.3484
  973MOL0     H34237   7.790   2.383  12.255  0.8458 -0.9422  0.2566
  973MOL0     H34238   7.453   2.494  12.335  3.2547 -0.4906 -0.3887
  973MOL0     H34239   7.439   2.477  12.524  0.2360  0.5498  0.6204
  973MOL0     H34240   7.576   2.692  12.373 -3.0859  0.1587 -2.5249
  973MOL0     H34241   7.412   2.710  12.421  2.3605  3.1715 -2.3107
  973MOL0     H34242   7.649   2.675  12.606 -1.1766  0.3102  0.4850
  973MOL0     H34243   7.489   2.713  12.669 -0.1947  2.2199  1.3918
  973MOL0     H34244   7.525   2.940  12.540  0.6765 -0.3262 -3.0448
  973MOL0     H34245   7.674   2.881  12.471  3.0988  0.9636  1.2638
  973MOL0     H34246   7.607   2.884  12.756 -1.1427  2.5530 -1.7282
  973MOL0     H34247   7.765   2.835  12.695  0.7270  0.2460  1.0573
  973MOL0     H34248   7.779   3.089  12.620 -0.9530  2.6125  0.8262
  973MOL0     H34249   7.795   3.062  12.772  2.1597  4.5164 -2.7199
  973MOL0     H34250   7.548   3.107  12.821  2.1802 -1.5402  0.5280
  973MOL0     H34251   7.507   3.130  12.656  0.7918  3.4713 -1.5801
  973MOL0     H34252   7.685   3.312  12.646 -1.2357 -2.2350 -1.2880
  973MOL0     H34253   7.697   3.307  12.824 -2.5344  2.4001  0.9608
  973MOL0     H34254   7.480   2.230  12.512  0.4874  1.1960 -0.1446
  973MOL0     H34255   7.506   2.010  12.404 -0.3730  1.5952  3.9421
  973MOL0     H34256   7.816   1.638  12.382  1.3824 -0.5036  0.0354
  973MOL0     H34257   7.911   1.430  12.298 -0.7007  1.0112  0.2285
  973MOL0     H34258   8.679   0.623  10.962 -0.5240 -1.2443 -2.4058
  973MOL0     H34259   8.792   0.436  10.869  1.6627 -1.4527 -0.3668
  973MOL0     H34260   9.257   0.311  10.792  1.5778  0.7869 -0.0874
  973MOL0     H34261   9.426   0.163  10.717  3.4968 -1.1472 -2.3131
  973MOL0     H34262   9.455   0.101  10.284  0.9045  1.1838  0.5084
  973MOL0     H34263   9.594   0.121  10.397 -2.3812  2.7747  1.6454
  973MOL0     H34264   9.619  -0.068  10.196  5.1524  0.9114  1.3661
  973MOL0     H34265   9.509  -0.168  10.291 -1.4089 -0.7074  2.0592
  973MOL0     H34266   9.668  -0.210  10.459  2.4253 -0.7387  1.7427
  973MOL0     H34267   9.780  -0.185  10.321  2.2319  0.2092  2.8976
  973MOL0     H34268   9.876  -0.067  10.527  1.0361 -0.5074 -0.4307
  973MOL0     H34269   9.724   0.016  10.535  3.3519  2.1901  1.0530
  973MOL0     H34270   9.905   0.192  10.184 -1.0456  0.4604  0.4867
  973MOL0     H34271   9.231   0.158  10.326  2.0747  1.0104 -0.2935
  973MOL0     H34272   9.047   0.252  10.288  1.4563 -1.9935  1.5318
  973MOL0     H34273   8.942   0.292  10.410 -0.0700 -3.0577 -0.3106
  973MOL0     H34274   9.047   0.420  10.349 -2.1005 -0.4381 -1.0424
  974MOL0     O34275   7.384   7.221   2.626  0.2891 -0.5833  0.1778
  974MOL0     C34276   7.281   7.283   2.658  0.0903  0.6994  1.5378
  974MOL0     O34277   7.157   7.231   2.629 -0.7131 -0.9388  0.0859
  974MOL0     C34278   7.143   7.092   2.607  0.5712  0.4125  0.1441
  974MOL0     C34279   7.089   7.021   2.716  0.1862 -0.5169  0.0720
  974MOL0     C34280   7.055   6.882   2.705  0.8811  1.1642 -0.1744
  974MOL0     C34281   7.084   6.809   2.580  0.0173  0.1537 -0.1938
  974MOL0     O34282   7.070   6.676   2.560  0.3406  0.4369 -0.0901
  974MOL0     C34283   7.069   6.596   2.676  0.0844 -0.4075  1.0060
  974MOL0     C34284   7.204   6.587   2.742 -0.3963 -0.1934 -0.3011
  974MOL0     C34285   7.222   6.445   2.795 -0.9157  0.3133  0.0939
  974MOL0     C34286   7.345   6.441   2.899 -0.5228 -0.9469  0.1388
  974MOL0     C34287   7.299   6.488   3.035  0.4156 -0.0645 -0.6065
  974MOL0     C34288   7.409   6.479   3.143 -0.2601 -0.1826 -0.0160
  974MOL0     C34289   7.350   6.519   3.277  0.5479  0.8747 -0.2728
  974MOL0     C34290   7.468   6.565   3.374  0.5486  0.0100 -0.4822
  974MOL0     N34291   7.443   6.606   3.509  0.4190  0.3313  1.0796
  974MOL0     C34292   7.419   6.735   3.549 -0.3080 -0.5386 -0.5450
  974MOL0     C34293   7.381   6.727   3.682 -0.1214  0.4558 -0.1548
  974MOL0     C34294   7.355   6.817   3.790 -0.0997 -0.9757  0.2726
  974MOL0     C34295   7.422   6.775   3.919  0.2831  0.5773 -0.2474
  974MOL0     C34296   7.571   6.756   3.905  0.1259  0.5458  0.5366
  974MOL0     C34297   7.622   6.741   4.046 -0.1123 -1.1086  0.8427
  974MOL0     O34298   7.750   6.686   4.047  0.6759  0.5844  0.2256
  974MOL0     C34299   7.780   6.596   4.147 -0.0380  1.8086 -0.1691
  974MOL0     C34300   7.795   6.458   4.113 -0.0192  0.2935 -0.0061
  974MOL0     C34301   7.846   6.369   4.200 -0.1577  0.6712 -1.2520
  974MOL0     C34302   7.847   6.224   4.165  0.0151  0.0489  1.0983
  974MOL0     C34303   7.877   6.401   4.336  0.2832 -0.7397  1.0629
  974MOL0     C34304   7.907   6.307   4.445 -0.5403  0.6265  0.4104
  974MOL0     O34305   7.834   6.277   4.546  0.1149  0.5362 -0.7075
  974MOL0     C34306   7.712   6.347   4.564 -0.1563 -0.1274  0.5884
  974MOL0     C34307   7.713   6.453   4.647  0.4105  0.4431 -0.2904
  974MOL0     C34308   7.587   6.519   4.678 -0.8580  0.3352  0.1237
  974MOL0     C34309   7.465   6.469   4.641 -0.7687  0.9587 -0.0091
  974MOL0     O34310   7.355   6.532   4.687  0.0764  0.4192  0.0165
  974MOL0     C34311   7.228   6.496   4.626 -0.1499  0.5259 -0.7868
  974MOL0     C34312   7.106   6.576   4.680 -0.2027  0.8243 -0.4731
  974MOL0     C34313   7.064   6.525   4.817  0.4414  0.0518 -0.2888
  974MOL0     C34314   6.920   6.586   4.852  0.7302  0.3275 -0.6588
  974MOL0     C34315   6.877   6.566   5.007  0.3192  0.5388  0.4503
  974MOL0     C34316   6.926   6.677   5.107  1.3656  0.8574 -0.0524
  974MOL0     C34317   6.830   6.792   5.120 -0.4328  0.3152 -0.0798
  974MOL0     C34318   6.733   6.760   5.232 -0.3683  0.2556 -0.5580
  974MOL0    Cl34319   6.790   6.745   5.394 -0.2033  0.2421  0.2878
  974MOL0     C34320   7.471   6.357   4.555  0.0335  0.1860 -0.2310
  974MOL0     C34321   7.591   6.304   4.508 -0.8843  0.2485  0.2763
  974MOL0     O34322   8.010   6.246   4.424  0.3476 -0.7632 -0.0385
  974MOL0     C34323   7.860   6.539   4.370  0.4838 -0.2134  0.1117
  974MOL0     C34324   7.818   6.635   4.274 -0.2510 -0.5206  0.8044
  974MOL0     N34325   7.350   6.597   3.697 -0.0997 -0.1724  0.1607
  974MOL0     N34326   7.396   6.527   3.603  0.3646 -0.1572  0.4474
  974MOL0     C34327   7.149   6.887   2.486  0.8576 -0.6636  0.2171
  974MOL0     C34328   7.169   7.028   2.487 -0.5861  0.3502  0.2100
  974MOL0     C34329   7.296   7.427   2.684 -0.6057  0.3278 -0.3579
  974MOL0     C34330   7.190   7.518   2.645 -0.2063 -0.5077  0.1928
  974MOL0     C34331   7.209   7.658   2.658  0.5476 -0.1015  0.0913
  974MOL0     C34332   7.318   7.713   2.725  0.1542  0.5859 -0.5262
  974MOL0     O34333   7.325   7.843   2.765  0.2283 -0.1378  0.5165
  974MOL0     C34334   7.238   7.877   2.873 -0.1931  0.5914 -0.4332
  974MOL0     C34335   7.285   7.865   3.016 -0.4720 -0.1349 -0.6178
  974MOL0     C34336   7.191   7.925   3.125 -0.0403 -0.1750 -0.8147
  974MOL0     C34337   7.162   8.075   3.109 -0.0536  0.1787 -0.1504
  974MOL0     C34338   7.125   8.136   3.234 -0.7531 -0.8029  0.1414
  974MOL0     C34339   7.088   8.188   3.331 -0.8850  0.1748  0.2890
  974MOL0     C34340   7.408   7.615   2.779 -0.0906 -0.1811  0.2416
  974MOL0     C34341   7.400   7.476   2.758  0.6710  0.1784 -0.7056
  974MOL0     C34342   7.493   7.381   2.844  0.2621 -0.3298 -0.8838
  974MOL0     H34343   7.072   7.071   2.811 -3.3477  1.4309 -1.4196
  974MOL0     H34344   6.997   6.836   2.783 -0.1186  1.4325 -0.7431
  974MOL0     H34345   7.048   6.492   2.647  1.6525 -0.7503  0.9685
  974MOL0     H34346   6.981   6.617   2.737 -0.4437  0.6211 -0.0787
  974MOL0     H34347   7.291   6.620   2.683  1.1947  0.4079  2.2014
  974MOL0     H34348   7.202   6.659   2.825 -0.5837 -0.4751 -0.0604
  974MOL0     H34349   7.124   6.410   2.830 -1.3812 -0.2584 -1.6532
  974MOL0     H34350   7.232   6.374   2.712  0.0690  0.7470 -0.1806
  974MOL0     H34351   7.369   6.335   2.912  0.7173 -0.6129  0.6584
  974MOL0     H34352   7.425   6.510   2.873 -0.2244 -1.0197  0.8503
  974MOL0     H34353   7.219   6.419   3.063  0.2237 -0.0785 -1.1605
  974MOL0     H34354   7.265   6.591   3.024 -0.4130 -0.5683 -3.8776
  974MOL0     H34355   7.455   6.380   3.143 -0.7922 -0.4415  1.0523
  974MOL0     H34356   7.484   6.554   3.112  0.7083 -2.3167 -3.3767
  974MOL0     H34357   7.295   6.435   3.321  0.8439 -0.3704 -2.1797
  974MOL0     H34358   7.281   6.601   3.255 -0.5468 -0.0756 -0.4983
  974MOL0     H34359   7.522   6.470   3.376 -1.6156 -1.2969  1.1204
  974MOL0     H34360   7.519   6.642   3.316  0.6854  0.1417 -0.1885
  974MOL0     H34361   7.448   6.825   3.496  0.3558  1.7331  3.2900
  974MOL0     H34362   7.248   6.833   3.805  0.3872  0.3756  3.0798
  974MOL0     H34363   7.397   6.912   3.755 -0.7613 -0.5484  0.6062
  974MOL0     H34364   7.396   6.852   3.992 -2.5623 -1.7867  1.4673
  974MOL0     H34365   7.369   6.683   3.947 -1.5939  2.0187  1.1904
  974MOL0     H34366   7.601   6.667   3.849  2.1003  0.7393  1.2057
  974MOL0     H34367   7.608   6.849   3.859 -3.4657  1.6720 -0.3703
  974MOL0     H34368   7.636   6.843   4.085  2.9350  0.5424 -3.6518
  974MOL0     H34369   7.545   6.685   4.098 -2.7010  0.3860 -1.1329
  974MOL0     H34370   7.781   6.437   4.008 -2.2171 -2.6275  0.7370
  974MOL0     H34371   7.798   6.210   4.068  1.4182 -1.2623  0.5413
  974MOL0     H34372   7.786   6.169   4.237 -1.4962 -1.6444 -1.3058
  974MOL0     H34373   7.942   6.171   4.163 -1.9941 -3.9208  0.2478
  974MOL0     H34374   7.807   6.489   4.689 -0.5572 -0.2592  2.7773
  974MOL0     H34375   7.591   6.594   4.756 -0.8838  0.5159 -0.0483
  974MOL0     H34376   7.247   6.516   4.520  2.4182  1.0255 -0.3073
  974MOL0     H34377   7.212   6.389   4.640  0.2970  0.2521 -2.2505
  974MOL0     H34378   7.121   6.684   4.685  2.2669  0.5871 -1.3987
  974MOL0     H34379   7.022   6.568   4.610  0.4132 -0.3260 -1.0962
  974MOL0     H34380   7.133   6.560   4.894 -1.6164  2.7733  0.4676
  974MOL0     H34381   7.051   6.416   4.817 -0.7955  0.0857 -3.4981
  974MOL0     H34382   6.845   6.523   4.801 -1.0943  0.1518  2.0539
  974MOL0     H34383   6.896   6.687   4.819 -0.4944 -0.6726 -3.1419
  974MOL0     H34384   6.770   6.559   5.026  0.5555 -1.3378  1.3468
  974MOL0     H34385   6.918   6.468   5.034  0.3497 -0.3131 -2.4405
  974MOL0     H34386   7.022   6.712   5.068 -0.1969  2.1025 -3.1201
  974MOL0     H34387   6.936   6.618   5.199 -0.2385  0.9096  0.1800
  974MOL0     H34388   6.754   6.789   5.041 -1.0358 -4.3172  0.3979
  974MOL0     H34389   6.888   6.884   5.131 -0.4379  0.1846  1.2616
  974MOL0     H34390   6.678   6.666   5.219  1.8240 -1.4513  1.5659
  974MOL0     H34391   6.658   6.840   5.236  0.7419  1.3716  4.2628
  974MOL0     H34392   7.376   6.309   4.531 -0.4004 -0.7315  2.9117
  974MOL0     H34393   7.593   6.213   4.449  0.9157  0.1307  0.4473
  974MOL0     H34394   7.885   6.572   4.470 -1.3195 -1.9533  1.2230
  974MOL0     H34395   7.822   6.740   4.298 -0.5089  0.2495 -2.1461
  974MOL0     H34396   7.187   6.840   2.396  2.3546  3.4068 -1.4906
  974MOL0     H34397   7.201   7.090   2.403  1.1458  0.5782  1.0013
  974MOL0     H34398   7.098   7.488   2.595 -0.5553 -0.1894  0.6399
  974MOL0     H34399   7.123   7.722   2.644 -0.1731 -1.3671 -1.7066
  974MOL0     H34400   7.208   7.982   2.860 -2.3920 -0.0941 -1.4052
  974MOL0     H34401   7.152   7.810   2.864  0.2233 -0.2975  1.6343
  974MOL0     H34402   7.381   7.917   3.016 -0.1352 -0.6874  1.0210
  974MOL0     H34403   7.289   7.758   3.039  0.3571  0.2770  1.3538
  974MOL0     H34404   7.102   7.862   3.124  0.2165 -0.5882  0.4744
  974MOL0     H34405   7.231   7.904   3.224 -1.7688  0.2782  0.0233
  974MOL0     H34406   7.076   8.083   3.041 -2.4861  0.2424  2.7184
  974MOL0     H34407   7.243   8.127   3.058 -0.4058  0.9500  0.0601
  974MOL0     H34408   7.032   8.247   3.401 -1.4891  0.6637 -0.5999
  974MOL0     H34409   7.482   7.652   2.848  1.5389 -1.5435 -0.6965
  974MOL0     H34410   7.435   7.301   2.890 -1.0167  2.3807  2.7158
  974MOL0     H34411   7.581   7.349   2.787 -1.0688 -4.7863 -0.8102
  974MOL0     H34412   7.540   7.428   2.931  1.2840  0.5121 -1.8521
  975MOL0     O34413   3.287  11.484   4.400  0.0277  0.4495  0.2703
  975MOL0     C34414   3.191  11.426   4.458 -0.8480  0.0513  0.5981
  975MOL0     O34415   3.179  11.291   4.458  0.3456  0.3059 -0.1710
  975MOL0     C34416   3.275  11.206   4.404  0.8006 -0.4119 -0.4656
  975MOL0     C34417   3.254  11.145   4.281 -0.1759 -0.9408  1.6298
  975MOL0     C34418   3.355  11.053   4.230 -0.3714 -0.7962  0.8397
  975MOL0     C34419   3.481  11.051   4.289  0.2470 -0.4313 -0.5426
  975MOL0     O34420   3.579  10.962   4.253 -1.4726 -0.6788  0.0870
  975MOL0     C34421   3.629  10.987   4.123  0.8989 -0.3081 -0.2952
  975MOL0     C34422   3.770  10.925   4.102  0.1779  0.1020  0.0988
  975MOL0     C34423   3.796  10.771   4.110  0.0796  0.5710  0.0369
  975MOL0     C34424   3.691  10.683   4.065  0.2709 -0.1269  0.2291
  975MOL0     C34425   3.727  10.534   4.053 -0.8008  0.4153 -0.4825
  975MOL0     C34426   3.821  10.503   3.938  1.3434  0.0397 -0.4311
  975MOL0     C34427   3.778  10.531   3.796 -0.5125 -0.2729  0.1917
  975MOL0     C34428   3.831  10.425   3.698  0.1869 -0.2514  0.7355
  975MOL0     N34429   3.764  10.423   3.570  0.4905 -0.2573  0.3632
  975MOL0     C34430   3.726  10.307   3.502  0.4747 -0.4290  0.2929
  975MOL0     C34431   3.703  10.348   3.375  0.3876 -0.9930 -0.9121
  975MOL0     C34432   3.665  10.263   3.255  0.5057 -0.0269 -0.2912
  975MOL0     C34433   3.789  10.188   3.197 -0.9228  0.0628  0.4316
  975MOL0     C34434   3.859  10.270   3.092 -0.4535 -0.2299  0.4930
  975MOL0     C34435   3.794  10.254   2.949  0.4890  0.1067 -0.0982
  975MOL0     O34436   3.802  10.127   2.895  0.3003  0.0054  0.6369
  975MOL0     C34437   3.856  10.103   2.769  0.2250 -0.5116  0.2246
  975MOL0     C34438   3.785  10.009   2.695  0.0684  0.1491  0.3628
  975MOL0     C34439   3.830   9.970   2.567  0.6007 -0.1533  0.4029
  975MOL0     C34440   3.737   9.861   2.519 -0.4469  0.3175 -1.0120
  975MOL0     C34441   3.942  10.030   2.511  0.0740 -0.0750  0.5153
  975MOL0     C34442   4.006   9.977   2.378  0.4375  1.5132  0.6219
  975MOL0     O34443   4.098  10.052   2.319 -0.6497 -1.0439  0.6486
  975MOL0     C34444   4.167  10.047   2.204 -0.0061  0.0839  0.4764
  975MOL0     C34445   4.171   9.934   2.135 -1.2867  0.8143 -1.0338
  975MOL0     C34446   4.224   9.923   2.004  0.6180 -0.6542  0.2030
  975MOL0     C34447   4.278  10.040   1.943  0.3075 -0.2309 -0.1488
  975MOL0     O34448   4.323  10.050   1.808 -0.7159  0.3948 -0.1105
  975MOL0     C34449   4.437   9.968   1.782  0.2647  0.0165  0.1376
  975MOL0     C34450   4.561  10.035   1.828 -0.0549  0.3862 -0.4707
  975MOL0     C34451   4.697   9.966   1.807 -0.7790 -1.1174  1.3594
  975MOL0     C34452   4.720   9.910   1.673 -0.6707  0.6330 -1.3481
  975MOL0     C34453   4.864   9.874   1.659 -0.3981 -0.0708  0.1503
  975MOL0     C34454   4.920   9.861   1.517  0.3766  0.4665 -1.1274
  975MOL0     C34455   4.873   9.739   1.435 -0.0992  0.9955 -0.5146
  975MOL0     C34456   4.894   9.750   1.289 -0.0472  0.2132  0.0053
  975MOL0    Cl34457   4.835   9.587   1.204 -0.3348 -0.4651 -0.2578
  975MOL0     C34458   4.263  10.165   2.009  1.0869  0.5860  1.4610
  975MOL0     C34459   4.215  10.168   2.143  0.1056  0.6684  0.2280
  975MOL0     O34460   3.994   9.856   2.363 -0.0951 -0.2953  0.2881
  975MOL0     C34461   4.005  10.129   2.577 -0.6186 -1.1637 -1.0833
  975MOL0     C34462   3.965  10.167   2.708  0.7417  0.1830 -0.0435
  975MOL0     N34463   3.718  10.484   3.367 -0.0021  0.4059  0.1245
  975MOL0     N34464   3.767  10.526   3.477  0.0411  0.1623  0.0091
  975MOL0     C34465   3.510  11.131   4.406 -0.0507  0.2510  0.9474
  975MOL0     C34466   3.405  11.201   4.464  0.0953 -1.4837 -0.0687
  975MOL0     C34467   3.083  11.512   4.518 -0.2298  0.2976  0.1618
  975MOL0     C34468   2.961  11.448   4.561 -0.4108 -0.2288 -0.8541
  975MOL0     C34469   2.854  11.508   4.628 -0.3677  0.3647  1.1493
  975MOL0     C34470   2.868  11.643   4.657 -0.4002 -0.4280  0.2329
  975MOL0     O34471   2.750  11.690   4.720  0.2399 -0.0873  0.7693
  975MOL0     C34472   2.718  11.827   4.741 -0.2240  0.7692  0.0292
  975MOL0     C34473   2.584  11.854   4.676 -0.2035  0.7399  0.5417
  975MOL0     C34474   2.464  11.775   4.728 -0.1812 -0.1899 -1.3786
  975MOL0     C34475   2.429  11.795   4.877  0.3182  0.9424 -0.2665
  975MOL0     C34476   2.405  11.939   4.911  0.0379  0.4375 -0.6289
  975MOL0     C34477   2.386  12.045   4.955  0.9192  0.0666  0.9031
  975MOL0     C34478   2.984  11.715   4.618 -0.2187 -1.1194  0.3765
  975MOL0     C34479   3.098  11.650   4.557  0.4702 -0.1190 -0.0273
  975MOL0     C34480   3.218  11.727   4.527 -0.5723  0.6259  0.5934
  975MOL0     H34481   3.150  11.149   4.251 -0.6392  0.6214  3.2646
  975MOL0     H34482   3.347  10.987   4.144 -0.4670  1.0196 -0.6070
  975MOL0     H34483   3.631  11.096   4.116 -4.0459 -0.0425 -1.3772
  975MOL0     H34484   3.568  10.954   4.039  1.4299  1.0134 -1.2219
  975MOL0     H34485   3.800  10.965   4.005  1.6819 -1.2613 -0.0332
  975MOL0     H34486   3.850  10.968   4.162 -0.0937  1.0651 -0.2053
  975MOL0     H34487   3.885  10.757   4.048  1.1397 -0.5775  1.7344
  975MOL0     H34488   3.825  10.724   4.205  2.1048  3.3343  0.9138
  975MOL0     H34489   3.606  10.698   4.132 -0.2346  2.3788 -0.8518
  975MOL0     H34490   3.652  10.726   3.972  0.4463  1.5425  0.8744
  975MOL0     H34491   3.629  10.484   4.052 -1.4416  1.5369  1.4451
  975MOL0     H34492   3.765  10.498   4.149 -1.3381  2.2965  0.4848
  975MOL0     H34493   3.912  10.550   3.977  0.0006  2.6165 -0.1502
  975MOL0     H34494   3.843  10.397   3.947  2.6413  0.3184 -0.1285
  975MOL0     H34495   3.811  10.629   3.759  0.1428 -1.2063 -1.8183
  975MOL0     H34496   3.669  10.528   3.786 -0.4447  0.7485 -1.2174
  975MOL0     H34497   3.932  10.458   3.670 -0.0581  1.0337  1.2795
  975MOL0     H34498   3.842  10.322   3.733 -1.9064 -1.4664 -1.8249
  975MOL0     H34499   3.732  10.201   3.525  0.7521 -1.6360 -4.3615
  975MOL0     H34500   3.595  10.320   3.194  0.9559  1.6167  0.6712
  975MOL0     H34501   3.603  10.181   3.293  1.1570  0.1715  1.2796
  975MOL0     H34502   3.853  10.157   3.279 -1.0200  0.1816  0.5525
  975MOL0     H34503   3.751  10.100   3.144 -2.5780  0.3986  1.0016
  975MOL0     H34504   3.845  10.375   3.118  0.5626  0.2564 -0.7669
  975MOL0     H34505   3.966  10.245   3.097  0.1974  2.4198  1.9699
  975MOL0     H34506   3.690  10.289   2.957 -0.0706 -1.6703  1.0027
  975MOL0     H34507   3.823  10.332   2.878 -1.6414  2.9072  1.8367
  975MOL0     H34508   3.701   9.958   2.742 -1.5381  3.8765  1.9075
  975MOL0     H34509   3.757   9.839   2.414 -1.6831  0.3352 -1.2653
  975MOL0     H34510   3.631   9.885   2.529 -0.4953 -0.7091  1.9025
  975MOL0     H34511   3.755   9.777   2.586 -1.0628  1.8766  1.2615
  975MOL0     H34512   4.127   9.842   2.171  0.9595  0.2269  0.4122
  975MOL0     H34513   4.220   9.837   1.938  1.3713 -0.3353 -0.2690
  975MOL0     H34514   4.443   9.870   1.831  3.8816  0.0622  0.0962
  975MOL0     H34515   4.445   9.955   1.673 -0.2031  0.7136  0.0147
  975MOL0     H34516   4.567  10.125   1.767 -2.3192  1.2773  0.4771
  975MOL0     H34517   4.563  10.055   1.936  2.2187 -0.5740 -0.2805
  975MOL0     H34518   4.705   9.883   1.877 -0.3032 -2.7698 -0.5555
  975MOL0     H34519   4.772  10.041   1.834 -1.2366 -0.1778  0.1192
  975MOL0     H34520   4.688   9.985   1.601 -0.0296  1.5902 -0.6635
  975MOL0     H34521   4.656   9.822   1.664 -0.9629  0.4255  1.5644
  975MOL0     H34522   4.922   9.946   1.718  0.9538  0.6446 -1.9381
  975MOL0     H34523   4.894   9.781   1.708 -0.1395  0.3466  0.7964
  975MOL0     H34524   5.029   9.858   1.527  0.5696  3.2519 -1.4810
  975MOL0     H34525   4.902   9.953   1.461  1.9885  2.7486  1.7821
  975MOL0     H34526   4.766   9.732   1.457  0.1560 -2.0539  0.2264
  975MOL0     H34527   4.904   9.637   1.461 -4.9384 -0.4909  0.4340
  975MOL0     H34528   4.997   9.774   1.259 -0.0492  0.2173  0.0007
  975MOL0     H34529   4.846   9.843   1.257  0.6949  0.6088  0.0236
  975MOL0     H34530   4.297  10.251   1.953  1.5107 -0.0452  0.7303
  975MOL0     H34531   4.192  10.252   2.208 -3.2059 -1.5722  2.2478
  975MOL0     H34532   4.095  10.173   2.535 -0.0538 -2.2776 -1.0905
  975MOL0     H34533   4.010  10.257   2.750 -0.1102  1.2811 -1.3816
  975MOL0     H34534   3.604  11.116   4.457  0.5177 -0.8742 -0.3782
  975MOL0     H34535   3.402  11.265   4.552 -3.6263 -0.5434 -0.7470
  975MOL0     H34536   2.966  11.340   4.549 -0.2561 -0.3815  0.4053
  975MOL0     H34537   2.769  11.446   4.653 -0.3307  0.4003  1.3624
  975MOL0     H34538   2.723  11.840   4.850  2.5944 -0.4792  0.1557
  975MOL0     H34539   2.793  11.900   4.708 -1.6361  1.4988 -1.7403
  975MOL0     H34540   2.588  11.829   4.569 -1.4799 -0.9414  0.8530
  975MOL0     H34541   2.566  11.962   4.678  1.3636  1.2052 -2.6963
  975MOL0     H34542   2.368  11.805   4.685  0.8805 -0.9372 -4.5012
  975MOL0     H34543   2.478  11.668   4.709 -2.9440 -1.1203  0.9227
  975MOL0     H34544   2.509  11.762   4.944 -1.6047 -1.4248  1.0006
  975MOL0     H34545   2.343  11.734   4.907  0.5034 -0.2287 -1.9971
  975MOL0     H34546   2.374  12.150   4.973  0.2564  0.3576 -1.0357
  975MOL0     H34547   2.985  11.823   4.632  0.5923 -0.0124 -5.4377
  975MOL0     H34548   3.308  11.682   4.568 -0.3589  1.0555  0.6028
  975MOL0     H34549   3.226  11.733   4.418  2.4334  0.6818  0.7463
  975MOL0     H34550   3.222  11.821   4.583 -1.6758  0.2503  1.3506
  976MOL0     O34551   2.403  10.591   8.251 -0.3487 -0.4659  0.7273
  976MOL0     C34552   2.365  10.589   8.367 -0.5996  0.6588  0.2186
  976MOL0     O34553   2.253  10.516   8.419  0.4504 -0.0589  0.2255
  976MOL0     C34554   2.214  10.390   8.375  0.7294 -0.2457  0.6138
  976MOL0     C34555   2.290  10.317   8.285  0.5540  0.2501  0.0548
  976MOL0     C34556   2.250  10.188   8.244  0.1639  0.0060 -0.3973
  976MOL0     C34557   2.128  10.136   8.291  0.0840  0.4278  0.4240
  976MOL0     O34558   2.088  10.012   8.243 -0.0092 -0.2008 -0.5014
  976MOL0     C34559   1.973   9.989   8.165  0.1412 -0.5841 -0.5477
  976MOL0     C34560   1.962   9.854   8.095 -0.8031 -0.6544  0.2664
  976MOL0     C34561   1.910   9.751   8.186  0.8520  0.1594 -0.0721
  976MOL0     C34562   1.926   9.608   8.120 -0.2148 -0.1037  0.3970
  976MOL0     C34563   2.074   9.575   8.077  0.1658 -0.0364 -0.6604
  976MOL0     C34564   2.101   9.436   8.050  0.6631 -0.2722 -0.6029
  976MOL0     C34565   2.247   9.410   7.997  0.3035  0.3274 -0.3294
  976MOL0     C34566   2.256   9.255   7.980  0.1940  0.2639 -0.7452
  976MOL0     N34567   2.376   9.204   7.925 -0.0344 -0.4088  0.4427
  976MOL0     C34568   2.414   9.199   7.789  0.2136 -0.3329 -1.8641
  976MOL0     C34569   2.551   9.186   7.796  0.1887 -0.3910 -0.5605
  976MOL0     C34570   2.645   9.168   7.674  0.1937 -0.8897 -0.5646
  976MOL0     C34571   2.604   9.041   7.600  0.9459  0.1937 -0.3444
  976MOL0     C34572   2.715   8.974   7.517 -0.3142 -0.9848 -0.7091
  976MOL0     C34573   2.656   8.882   7.405 -0.3459 -0.3560  0.2418
  976MOL0     O34574   2.580   8.766   7.460  1.1985 -0.5053  1.0251
  976MOL0     C34575   2.483   8.688   7.393  0.1712 -0.3175  1.2786
  976MOL0     C34576   2.372   8.631   7.460 -0.5631  0.4800 -0.0582
  976MOL0     C34577   2.286   8.544   7.404 -0.7700 -0.2233  0.4495
  976MOL0     C34578   2.189   8.468   7.491  0.0793 -0.6217  0.5752
  976MOL0     C34579   2.297   8.523   7.267  0.3989  0.3570  0.0908
  976MOL0     C34580   2.203   8.441   7.201 -0.0575  0.1449 -0.7610
  976MOL0     O34581   2.072   8.469   7.236  0.5865 -0.6314 -0.1959
  976MOL0     C34582   1.968   8.418   7.172  1.0607  0.3065 -0.5118
  976MOL0     C34583   1.849   8.463   7.217  1.4740  0.0835 -1.3303
  976MOL0     C34584   1.726   8.436   7.152 -0.5161  0.0929  0.5133
  976MOL0     C34585   1.730   8.350   7.040  0.8722 -0.4734  0.7973
  976MOL0     O34586   1.615   8.318   6.968 -0.4546  0.6358 -0.2882
  976MOL0     C34587   1.645   8.246   6.849 -0.8106 -0.5897  0.0178
  976MOL0     C34588   1.523   8.222   6.763  0.0103 -0.0083  1.3151
  976MOL0     C34589   1.469   8.354   6.695 -1.0157  0.6585 -0.2424
  976MOL0     C34590   1.569   8.414   6.588  1.0422  0.1785 -0.5327
  976MOL0     C34591   1.498   8.531   6.502  0.7425  0.2042  0.5192
  976MOL0     C34592   1.455   8.645   6.590  0.4602  0.7105  0.0392
  976MOL0     C34593   1.448   8.775   6.515  0.0418 -0.5566  0.8385
  976MOL0     C34594   1.451   8.905   6.597 -0.7630 -0.9411 -0.0124
  976MOL0    Cl34595   1.476   9.040   6.480  0.4773 -0.1005 -0.4465
  976MOL0     C34596   1.860   8.299   6.996  0.1880 -0.5614  0.4956
  976MOL0     C34597   1.973   8.326   7.067  0.2654 -0.6051  0.5015
  976MOL0     O34598   2.250   8.362   7.118  1.1286  0.3309 -0.8524
  976MOL0     C34599   2.400   8.595   7.193 -0.2452  0.7729  0.9475
  976MOL0     C34600   2.492   8.682   7.252  0.0923  0.2747  0.5997
  976MOL0     N34601   2.582   9.163   7.924  0.1218  0.4752  0.3468
  976MOL0     N34602   2.477   9.162   8.001  0.2550 -0.9802 -0.6902
  976MOL0     C34603   2.042  10.209   8.374 -0.0496 -0.7097 -0.7318
  976MOL0     C34604   2.091  10.335   8.420 -0.4564 -0.0075  0.5587
  976MOL0     C34605   2.436  10.679   8.460 -0.5804  1.4547 -0.4932
  976MOL0     C34606   2.386  10.679   8.594 -0.2127 -0.5861 -0.6769
  976MOL0     C34607   2.449  10.748   8.700 -0.0550 -0.2048 -0.0363
  976MOL0     C34608   2.550  10.840   8.667 -0.6059 -0.5095 -0.2680
  976MOL0     O34609   2.614  10.897   8.773  0.5169  0.4296 -1.0967
  976MOL0     C34610   2.662  11.029   8.764 -0.4645 -0.6638  0.0850
  976MOL0     C34611   2.818  11.036   8.751  0.9700  0.4267  0.2552
  976MOL0     C34612   2.878  10.940   8.856  0.1440 -1.0891 -0.5223
  976MOL0     C34613   3.027  10.973   8.865 -0.1033 -0.3533  0.3200
  976MOL0     C34614   3.068  10.887   8.972 -0.0150 -0.4374  0.0728
  976MOL0     C34615   3.127  10.813   9.050  1.0854 -1.1927 -0.1581
  976MOL0     C34616   2.584  10.857   8.538  0.3344  0.9797  0.5211
  976MOL0     C34617   2.537  10.774   8.434 -1.0374 -0.6108 -1.0539
  976MOL0     C34618   2.582  10.818   8.296  0.8549  0.0939  0.1130
  976MOL0     H34619   2.383  10.356   8.244  1.9428 -2.9267 -0.0896
  976MOL0     H34620   2.293  10.140   8.157 -0.8358 -1.0948 -0.3124
  976MOL0     H34621   1.966  10.059   8.081 -0.1279  0.9175  0.6782
  976MOL0     H34622   1.889  10.008   8.231  2.8919 -0.3881  3.2091
  976MOL0     H34623   1.891   9.880   8.015 -1.1751  1.4589  1.2419
  976MOL0     H34624   2.063   9.841   8.056 -1.1521  0.7332 -1.2283
  976MOL0     H34625   1.948   9.754   8.289 -2.0982  0.0440  1.1279
  976MOL0     H34626   1.807   9.784   8.202  0.9790  0.7592 -0.4548
  976MOL0     H34627   1.901   9.522   8.182 -0.2417 -1.4022 -1.3472
  976MOL0     H34628   1.861   9.604   8.032  1.1253 -0.6703 -0.6054
  976MOL0     H34629   2.137   9.616   8.157  1.2162 -0.0534 -1.4587
  976MOL0     H34630   2.099   9.642   7.995  1.9314  1.0145  0.6560
  976MOL0     H34631   2.081   9.372   8.137  1.0665  0.3985 -0.0144
  976MOL0     H34632   2.037   9.399   7.969  0.7830 -4.4679  0.9455
  976MOL0     H34633   2.322   9.436   8.073  0.2601 -2.6691  0.8725
  976MOL0     H34634   2.257   9.462   7.902  1.6423  0.5073 -0.1192
  976MOL0     H34635   2.246   9.214   8.080  1.2944  4.0544  1.1161
  976MOL0     H34636   2.179   9.210   7.916  0.6337 -0.3871 -0.8330
  976MOL0     H34637   2.355   9.218   7.700  2.0391  1.9631 -2.6981
  976MOL0     H34638   2.748   9.166   7.712  0.9252  3.7901 -1.6712
  976MOL0     H34639   2.640   9.247   7.598  1.7668 -1.7486 -1.6118
  976MOL0     H34640   2.584   8.959   7.670  0.9150  0.3334 -0.1914
  976MOL0     H34641   2.511   9.062   7.547 -2.6218 -1.7674  4.4010
  976MOL0     H34642   2.776   9.054   7.475 -1.7348  1.7317  1.9690
  976MOL0     H34643   2.768   8.923   7.598  1.0428 -0.2795 -1.1234
  976MOL0     H34644   2.588   8.949   7.352 -2.7973  0.0634  3.5933
  976MOL0     H34645   2.740   8.846   7.344  0.6970 -2.8743  2.9284
  976MOL0     H34646   2.366   8.653   7.566 -1.0715  2.2622 -0.4272
  976MOL0     H34647   2.169   8.370   7.447 -1.3052  0.8590 -2.4033
  976MOL0     H34648   2.101   8.532   7.479  0.1293 -1.0006 -2.8278
  976MOL0     H34649   2.225   8.471   7.594  3.9482  4.6315 -0.4906
  976MOL0     H34650   1.842   8.532   7.301 -0.4082 -1.2431 -0.3157
  976MOL0     H34651   1.632   8.485   7.174 -0.4365  0.1988  0.6108
  976MOL0     H34652   1.721   8.306   6.799  2.7133 -1.8925  3.3548
  976MOL0     H34653   1.680   8.143   6.867  1.0633  0.3581  2.2966
  976MOL0     H34654   1.549   8.151   6.683  2.6646 -1.3749  3.2255
  976MOL0     H34655   1.448   8.166   6.819  0.1302 -2.5245 -0.8408
  976MOL0     H34656   1.426   8.424   6.767 -2.3652 -0.0031 -0.3618
  976MOL0     H34657   1.376   8.329   6.643 -1.4299  2.3852 -0.3784
  976MOL0     H34658   1.600   8.332   6.522 -2.3720 -1.9924  0.3017
  976MOL0     H34659   1.662   8.444   6.637  1.9172 -2.3819 -0.5025
  976MOL0     H34660   1.575   8.553   6.427 -0.1580  2.5138  0.1795
  976MOL0     H34661   1.407   8.495   6.454  0.5474  2.0304 -0.5984
  976MOL0     H34662   1.533   8.659   6.666  0.3701  1.9288 -0.0681
  976MOL0     H34663   1.372   8.614   6.654  2.0156  2.0715  2.9381
  976MOL0     H34664   1.349   8.791   6.470 -0.9702  1.0116  3.3599
  976MOL0     H34665   1.518   8.774   6.431  1.3532  1.0345  1.8407
  976MOL0     H34666   1.530   8.903   6.673 -3.4018 -1.5664  2.9396
  976MOL0     H34667   1.359   8.928   6.651 -0.8724  1.5050 -1.1347
  976MOL0     H34668   1.874   8.233   6.911 -1.6423  1.5676 -1.6044
  976MOL0     H34669   2.070   8.287   7.036  2.1175  0.0217  4.7650
  976MOL0     H34670   2.395   8.571   7.087 -2.4559 -1.8964  1.5358
  976MOL0     H34671   2.564   8.737   7.191  2.0241  0.2764  2.7577
  976MOL0     H34672   1.945  10.166   8.399  0.3274 -0.5210  1.2194
  976MOL0     H34673   2.039  10.394   8.495 -1.2752  1.2182 -0.9071
  976MOL0     H34674   2.306  10.616   8.631 -1.9658  1.4334 -0.8484
  976MOL0     H34675   2.423  10.727   8.803 -0.7607  0.1291 -0.1405
  976MOL0     H34676   2.614  11.086   8.684  1.1674  0.1485 -0.3610
  976MOL0     H34677   2.643  11.077   8.861  0.7717 -1.7603  0.9041
  976MOL0     H34678   2.835  11.143   8.767  1.3010  0.3503  0.4166
  976MOL0     H34679   2.850  11.023   8.647  0.4725  0.3996  0.1013
  976MOL0     H34680   2.833  10.970   8.952  0.0814 -1.5890 -0.3942
  976MOL0     H34681   2.856  10.835   8.836  1.6779 -1.5418  0.0513
  976MOL0     H34682   3.057  11.074   8.895 -3.0373  1.3254 -1.9141
  976MOL0     H34683   3.074  10.943   8.771 -0.7703  0.3123 -0.2326
  976MOL0     H34684   3.178  10.743   9.114  1.0219  0.1026  1.3830
  976MOL0     H34685   2.645  10.941   8.508  1.3461  0.7023  1.6960
  976MOL0     H34686   2.501  10.864   8.239  1.2440  0.2640 -0.3131
  976MOL0     H34687   2.656  10.897   8.279  0.5558  0.0367 -1.6469
  976MOL0     H34688   2.633  10.739   8.240  0.9487  0.4192 -0.2692
  977MOL0     O34689   1.719   9.273  10.049 -0.0562  0.1276  0.4614
  977MOL0     C34690   1.727   9.335  10.152 -0.1675 -0.1851  0.5457
  977MOL0     O34691   1.708   9.284  10.271 -0.9091  0.1325  0.3563
  977MOL0     C34692   1.653   9.153  10.301 -0.3111 -0.7412 -0.1221
  977MOL0     C34693   1.598   9.063  10.203 -0.6489  0.7441 -0.8596
  977MOL0     C34694   1.555   8.937  10.258 -0.0462 -1.3689 -0.5657
  977MOL0     C34695   1.554   8.914  10.393 -0.4265 -0.0127 -0.8434
  977MOL0     O34696   1.514   8.796  10.447  0.0936  0.2439 -0.1853
  977MOL0     C34697   1.615   8.703  10.486  1.1069  0.0384 -0.7402
  977MOL0     C34698   1.652   8.599  10.371  0.0220 -0.5395 -0.2411
  977MOL0     C34699   1.541   8.489  10.356  0.0513 -0.2275 -0.4238
  977MOL0     C34700   1.568   8.377  10.466  0.2006  0.4013  0.0020
  977MOL0     C34701   1.463   8.261  10.440  0.1403  0.8948  0.9166
  977MOL0     C34702   1.434   8.158  10.541  0.5354  0.0281  0.2678
  977MOL0     C34703   1.311   8.062  10.505 -0.4924 -1.4357 -0.5440
  977MOL0     C34704   1.339   7.982  10.380  0.1386  0.5196  0.9656
  977MOL0     N34705   1.216   7.898  10.346  0.2594  0.1424 -0.4806
  977MOL0     C34706   1.095   7.942  10.305  0.3580 -0.0128 -0.6030
  977MOL0     C34707   1.038   7.837  10.249 -0.8667 -0.2839  0.4219
  977MOL0     C34708   0.895   7.827  10.197 -0.9293  0.5252  0.4868
  977MOL0     C34709   0.815   7.739  10.290 -1.2098 -0.4229 -0.3856
  977MOL0     C34710   0.763   7.821  10.413  0.3703 -0.6055 -0.3027
  977MOL0     C34711   0.700   7.739  10.527 -0.4334  0.6562 -0.1091
  977MOL0     O34712   0.559   7.730  10.507 -0.2837  0.6463 -0.7538
  977MOL0     C34713   0.481   7.658  10.587  0.5761 -0.1845 -0.0073
  977MOL0     C34714   0.515   7.573  10.695  1.1051  0.5614 -0.0706
  977MOL0     C34715   0.421   7.511  10.776 -0.1565  0.4749 -0.5517
  977MOL0     C34716   0.478   7.428  10.894  0.4573 -0.0803 -0.5563
  977MOL0     C34717   0.280   7.538  10.761  0.4878  0.3359 -0.2788
  977MOL0     C34718   0.161   7.493  10.834 -0.6457 -0.1651  0.0871
  977MOL0     O34719   0.035   7.512  10.777 -0.5226  0.6272 -0.6296
  977MOL0     C34720  -0.072   7.442  10.833  0.9332 -0.2841  0.5251
  977MOL0     C34721  -0.071   7.302  10.868  0.2761  0.7228 -0.5285
  977MOL0     C34722  -0.165   7.252  10.958  0.4841 -0.2115  0.2420
  977MOL0     C34723  -0.269   7.337  11.014 -0.4988  0.3286  0.4654
  977MOL0     O34724  -0.381   7.307  11.092  0.7083  0.2936 -0.0664
  977MOL0     C34725  -0.401   7.172  11.140 -0.0550  0.1579  0.0780
  977MOL0     C34726  -0.519   7.164  11.234 -0.5623 -0.1382 -0.6653
  977MOL0     C34727  -0.647   7.231  11.176 -0.4804  0.4464  1.0474
  977MOL0     C34728  -0.678   7.179  11.031  0.4288 -0.1828  0.5409
  977MOL0     C34729  -0.830   7.183  11.009 -0.1297 -0.4111 -0.9795
  977MOL0     C34730  -0.868   7.334  11.021  0.5365 -0.3057  0.1205
  977MOL0     C34731  -0.780   7.436  10.946  0.3455  1.1663 -0.1589
  977MOL0     C34732  -0.873   7.561  10.915 -0.4468  0.3674  0.2941
  977MOL0    Cl34733  -0.985   7.546  10.775  0.6715  0.1745  0.4938
  977MOL0     C34734  -0.270   7.474  10.961 -0.2540  0.0308 -1.5875
  977MOL0     C34735  -0.169   7.520  10.888  0.5365 -0.5018  0.5964
  977MOL0     O34736   0.181   7.414  10.924  0.4569  0.4715  0.0668
  977MOL0     C34737   0.254   7.626  10.646 -0.8079  0.7521  0.4300
  977MOL0     C34738   0.348   7.685  10.562  0.3375  0.1472 -0.3799
  977MOL0     N34739   1.117   7.728  10.253 -0.7672  0.0975  0.1888
  977MOL0     N34740   1.236   7.772  10.300 -0.6280  1.0292  0.6774
  977MOL0     C34741   1.604   9.013  10.481  1.0875  0.4716  0.3687
  977MOL0     C34742   1.644   9.132  10.438  0.5244 -0.2705  0.3942
  977MOL0     C34743   1.783   9.472  10.153 -0.4185 -0.0038  0.2843
  977MOL0     C34744   1.764   9.533  10.031  0.3606 -0.8909 -0.0295
  977MOL0     C34745   1.809   9.660  10.012 -1.3372 -0.4281  0.3998
  977MOL0     C34746   1.878   9.730  10.102  0.0670  0.7097  0.2493
  977MOL0     O34747   1.895   9.872  10.084 -0.2002 -0.3929 -0.5042
  977MOL0     C34748   1.958   9.947  10.184 -0.5172  0.3940 -0.0458
  977MOL0     C34749   1.992  10.093  10.137 -0.1128  0.4523  0.1587
  977MOL0     C34750   1.875  10.172  10.084  1.0516  0.2703 -0.2143
  977MOL0     C34751   1.823  10.283  10.168  0.1733  0.1747  0.2188
  977MOL0     C34752   1.775  10.247  10.305  0.1933  1.3962  0.1432
  977MOL0     C34753   1.739  10.184  10.407 -0.3658  0.4094  0.8681
  977MOL0     C34754   1.902   9.668  10.225  0.0265 -0.1084 -0.3052
  977MOL0     C34755   1.845   9.541  10.260 -0.3726 -0.0997  0.2829
  977MOL0     C34756   1.859   9.483  10.402  0.3317  0.4595  0.9998
  977MOL0     H34757   1.601   9.078  10.095  3.7834 -0.4572 -1.1045
  977MOL0     H34758   1.533   8.851  10.195  0.9451 -2.1977  0.1755
  977MOL0     H34759   1.576   8.630  10.557  0.8347  1.9350  1.1518
  977MOL0     H34760   1.690   8.758  10.542 -1.0963  2.0238  0.4285
  977MOL0     H34761   1.669   8.658  10.280  1.6125 -1.9579 -0.9149
  977MOL0     H34762   1.755   8.571  10.391  0.8578  1.6030 -1.2240
  977MOL0     H34763   1.439   8.525  10.374 -1.2873 -2.8471 -2.1239
  977MOL0     H34764   1.543   8.443  10.257 -6.1186  0.6085 -1.3471
  977MOL0     H34765   1.672   8.344  10.463  0.2015  0.4634 -1.7869
  977MOL0     H34766   1.556   8.406  10.571  1.8085  0.6300  0.1427
  977MOL0     H34767   1.480   8.211  10.345  1.0278  2.7628  0.0274
  977MOL0     H34768   1.364   8.308  10.428  1.1166  3.6421  2.6133
  977MOL0     H34769   1.517   8.089  10.561 -1.8389 -2.5311  1.9906
  977MOL0     H34770   1.410   8.202  10.637  2.4208 -0.6678  1.1241
  977MOL0     H34771   1.224   8.128  10.492 -0.3353 -1.1852 -0.3189
  977MOL0     H34772   1.284   8.001  10.592 -1.7539 -1.0717 -0.6535
  977MOL0     H34773   1.352   8.050  10.296 -1.6477 -2.6212 -2.1292
  977MOL0     H34774   1.429   7.920  10.389 -1.8613 -2.3304  4.0908
  977MOL0     H34775   1.056   8.042  10.317  3.0283  0.8651  1.7976
  977MOL0     H34776   0.896   7.784  10.096 -3.1155 -1.3239  1.1580
  977MOL0     H34777   0.853   7.927  10.184 -3.0728 -0.5224 -1.4716
  977MOL0     H34778   0.726   7.715  10.232 -0.9233  0.9433 -1.4320
  977MOL0     H34779   0.868   7.646  10.313  1.4325  1.0394 -0.1853
  977MOL0     H34780   0.846   7.874  10.462  1.0864 -1.5023 -0.5173
  977MOL0     H34781   0.694   7.899  10.380  0.0031 -1.8612 -2.7116
  977MOL0     H34782   0.740   7.638  10.540  1.0156  1.3541  1.2700
  977MOL0     H34783   0.720   7.794  10.620  0.1222 -0.5613  0.5094
  977MOL0     H34784   0.620   7.558  10.718  0.8661  1.2447  1.6047
  977MOL0     H34785   0.578   7.466  10.916  0.0851  0.7192 -0.2118
  977MOL0     H34786   0.495   7.325  10.861  0.0126 -0.0163 -0.9942
  977MOL0     H34787   0.410   7.436  10.979 -0.9552 -1.8860 -1.4170
  977MOL0     H34788   0.011   7.233  10.852  0.9377  1.7220 -1.5823
  977MOL0     H34789  -0.157   7.148  10.989 -1.7762  0.0136  1.8030
  977MOL0     H34790  -0.406   7.103  11.055  0.3757 -1.7954  1.5840
  977MOL0     H34791  -0.306   7.144  11.186 -1.5511 -1.3406  2.4662
  977MOL0     H34792  -0.546   7.061  11.260 -0.7004  0.6102  2.6338
  977MOL0     H34793  -0.489   7.212  11.328 -1.1433 -0.9674 -0.0389
  977MOL0     H34794  -0.624   7.338  11.169 -3.2340  1.0857  0.4699
  977MOL0     H34795  -0.733   7.227  11.243 -0.3439  1.4023  1.2984
  977MOL0     H34796  -0.641   7.076  11.020  1.8904  0.0621  2.5863
  977MOL0     H34797  -0.629   7.236  10.952 -1.2324  2.4536  1.2925
  977MOL0     H34798  -0.857   7.142  10.911 -0.3154  0.5213 -1.3273
  977MOL0     H34799  -0.879   7.125  11.087  1.1344 -0.4999 -0.2156
  977MOL0     H34800  -0.866   7.364  11.126  1.5031  0.0191  0.0185
  977MOL0     H34801  -0.969   7.355  10.983  1.1862  1.7523 -0.6182
  977MOL0     H34802  -0.750   7.389  10.852 -1.4847  1.0519 -0.7318
  977MOL0     H34803  -0.694   7.462  11.009  2.8967 -0.9588 -2.5010
  977MOL0     H34804  -0.801   7.640  10.891  0.8807 -1.7357 -3.4903
  977MOL0     H34805  -0.934   7.582  11.003  0.5926 -0.5775  1.2661
  977MOL0     H34806  -0.343   7.543  11.001  1.3339  1.1886 -0.5475
  977MOL0     H34807  -0.174   7.629  10.882  1.4915 -0.4660  0.2443
  977MOL0     H34808   0.151   7.655  10.633 -0.5678  0.4406 -3.1013
  977MOL0     H34809   0.333   7.746  10.473 -0.4923 -0.9615 -1.0173
  977MOL0     H34810   1.620   8.986  10.585  0.2090  0.0311  0.3994
  977MOL0     H34811   1.685   9.205  10.507 -2.4650  2.4599 -0.4606
  977MOL0     H34812   1.718   9.486   9.945  1.9980  0.2168 -1.5841
  977MOL0     H34813   1.790   9.715   9.920  3.4043  0.7647 -0.1182
  977MOL0     H34814   1.893   9.952  10.272 -0.0551  1.3318  0.2490
  977MOL0     H34815   2.054   9.904  10.215 -0.1648  0.2124 -1.3367
  977MOL0     H34816   2.063  10.091  10.054  1.0677  1.8584  1.0881
  977MOL0     H34817   2.046  10.134  10.222  0.6043 -4.1024  2.1549
  977MOL0     H34818   1.911  10.212   9.989 -1.7511 -2.7016 -2.8215
  977MOL0     H34819   1.800  10.097  10.055  1.2201  0.0029  0.0340
  977MOL0     H34820   1.730  10.323  10.127 -1.1115  0.3041  3.0554
  977MOL0     H34821   1.899  10.361  10.167 -2.0838  2.7148 -3.9806
  977MOL0     H34822   1.741  10.132  10.500  0.1655 -2.7355 -0.7816
  977MOL0     H34823   1.956   9.719  10.305 -1.9078  2.4159 -0.5061
  977MOL0     H34824   1.897   9.381  10.398  0.1297  0.3699  1.3238
  977MOL0     H34825   1.931   9.545  10.457 -0.9858  0.6626  2.5937
  977MOL0     H34826   1.763   9.477  10.455 -0.7287 -1.1711 -0.9695
  978MOL0     O34827   6.534  10.539   4.839 -0.4932  0.1093  0.0314
  978MOL0     C34828   6.508  10.451   4.914 -0.4142 -0.0229  0.0297
  978MOL0     O34829   6.595  10.385   4.996  0.0117  0.2639  0.6296
  978MOL0     C34830   6.724  10.418   5.003  0.4178  0.7537  0.3724
  978MOL0     C34831   6.781  10.462   5.127  1.1594 -0.5890 -0.2994
  978MOL0     C34832   6.912  10.472   5.138 -0.5609  0.4816  0.0200
  978MOL0     C34833   6.995  10.443   5.027  0.2307  0.4613 -0.5329
  978MOL0     O34834   7.123  10.465   5.035  0.3384 -0.4316 -0.1735
  978MOL0     C34835   7.196  10.346   5.065  0.5652  0.3752  0.2342
  978MOL0     C34836   7.234  10.326   5.216  0.4537 -0.3808  0.6967
  978MOL0     C34837   7.329  10.437   5.257 -0.0432 -0.4681  0.5194
  978MOL0     C34838   7.339  10.453   5.410  0.2472  0.0014 -0.6834
  978MOL0     C34839   7.428  10.566   5.444 -0.3466 -0.3314  0.0215
  978MOL0     C34840   7.453  10.567   5.592  0.5029  0.6229  0.2395
  978MOL0     C34841   7.561  10.662   5.633 -0.1666 -0.0358  0.2494
  978MOL0     C34842   7.551  10.682   5.780  0.4097  0.1641 -0.0605
  978MOL0     N34843   7.625  10.578   5.851 -0.3714  0.4977 -0.0183
  978MOL0     C34844   7.757  10.596   5.891 -0.0797 -0.0159 -0.3814
  978MOL0     C34845   7.787  10.476   5.936  1.0386  0.0117 -0.3828
  978MOL0     C34846   7.926  10.431   5.984 -0.5868 -0.6154  0.0238
  978MOL0     C34847   7.965  10.464   6.133  0.7584 -0.3609  0.1316
  978MOL0     C34848   7.862  10.431   6.234  0.0931  0.8263 -1.1582
  978MOL0     C34849   7.897  10.282   6.280 -0.3042  0.1041 -0.6683
  978MOL0     O34850   8.028  10.275   6.350  1.6226  0.7113  1.0129
  978MOL0     C34851   8.018  10.330   6.474  0.6122 -0.2736 -0.3241
  978MOL0     C34852   8.003  10.249   6.580 -0.5436 -0.7507  0.1648
  978MOL0     C34853   8.029  10.295   6.710 -0.1452 -0.4682  0.2731
  978MOL0     C34854   8.000  10.194   6.816 -0.7094  0.1729  0.5177
  978MOL0     C34855   8.038  10.440   6.735  0.8317  0.1619  1.1667
  978MOL0     C34856   8.061  10.503   6.866  0.2387  0.2072 -0.3550
  978MOL0     O34857   8.030  10.640   6.886 -0.2741  0.7019  0.8777
  978MOL0     C34858   8.050  10.682   7.013  0.2004  0.3693  0.1940
  978MOL0     C34859   8.171  10.751   7.035 -0.7959  0.9782 -0.6321
  978MOL0     C34860   8.196  10.808   7.155  0.0127  0.4136  0.3029
  978MOL0     C34861   8.103  10.789   7.258  0.1686  0.2085 -1.0180
  978MOL0     O34862   8.144  10.833   7.378  1.2287 -0.3234 -0.5103
  978MOL0     C34863   8.172  10.747   7.489  0.1969  0.3947 -0.3986
  978MOL0     C34864   8.203  10.813   7.624  0.3474  0.1298 -0.3360
  978MOL0     C34865   8.226  10.710   7.734  0.0892 -0.2280 -0.0608
  978MOL0     C34866   8.310  10.769   7.845 -0.5928  0.6160  0.8206
  978MOL0     C34867   8.288  10.683   7.975  0.9874  1.1972  0.3613
  978MOL0     C34868   8.342  10.540   7.948 -0.8098  0.0019  0.4110
  978MOL0     C34869   8.313  10.436   8.051 -0.3648 -0.3144 -0.3320
  978MOL0     C34870   8.432  10.418   8.152  0.8575  0.0685  0.4815
  978MOL0    Cl34871   8.434  10.551   8.283  0.4671  0.0201  0.5018
  978MOL0     C34872   7.990  10.714   7.241  0.0100  0.1898 -0.2947
  978MOL0     C34873   7.959  10.662   7.114  0.3917 -0.0749 -0.5720
  978MOL0     O34874   8.112  10.428   6.955 -0.0689 -0.1581  0.3519
  978MOL0     C34875   8.046  10.518   6.620  0.8352  1.2522  0.2316
  978MOL0     C34876   8.029  10.466   6.494  0.1727 -0.2965 -0.6753
  978MOL0     N34877   7.677  10.392   5.931  0.3371  0.0057 -0.1701
  978MOL0     N34878   7.569  10.451   5.890 -0.0796  0.0692  0.1245
  978MOL0     C34879   6.939  10.393   4.910  0.5312 -0.2803  0.0606
  978MOL0     C34880   6.806  10.374   4.902  1.0092 -0.8340 -0.8983
  978MOL0     C34881   6.373  10.399   4.905  1.2304 -0.1554 -0.7760
  978MOL0     C34882   6.323  10.371   4.779  1.2320  0.4989  0.3242
  978MOL0     C34883   6.187  10.334   4.754 -0.7161 -0.4934  0.7583
  978MOL0     C34884   6.106  10.303   4.868  1.2271 -0.2665  0.0848
  978MOL0     O34885   5.975  10.261   4.870 -0.7826  0.6790  0.8389
  978MOL0     C34886   5.896  10.293   4.759 -0.3843 -0.3023  0.3983
  978MOL0     C34887   5.893  10.443   4.711 -0.0601  0.0737 -0.2948
  978MOL0     C34888   5.785  10.465   4.607  1.3648  0.4974  0.4677
  978MOL0     C34889   5.770  10.601   4.545  0.0599 -0.5712  1.0254
  978MOL0     C34890   5.729  10.597   4.402 -0.6778  0.6026  0.0953
  978MOL0     C34891   5.713  10.593   4.279  1.0919 -0.0928 -0.1912
  978MOL0     C34892   6.163  10.318   4.995  0.2786 -0.0850 -0.2230
  978MOL0     C34893   6.298  10.366   5.013  0.1503 -0.6952  0.1533
  978MOL0     C34894   6.355  10.371   5.148 -0.2076 -0.3386 -0.2283
  978MOL0     H34895   6.704  10.489   5.199 -0.2445 -3.0377 -0.7595
  978MOL0     H34896   6.956  10.508   5.230 -0.7475  0.9678 -0.0791
  978MOL0     H34897   7.280  10.344   4.994 -0.5352 -0.0356 -1.0962
  978MOL0     H34898   7.128  10.266   5.035  0.4550  1.3724 -2.5374
  978MOL0     H34899   7.146  10.316   5.281  0.3385 -2.7784  0.2761
  978MOL0     H34900   7.283  10.228   5.219 -1.4581 -1.5054 -1.6027
  978MOL0     H34901   7.428  10.427   5.212 -0.2453  1.1815 -0.3528
  978MOL0     H34902   7.289  10.528   5.210  2.0129 -0.0192 -0.4755
  978MOL0     H34903   7.244  10.476   5.460  2.0674  1.7154  2.3369
  978MOL0     H34904   7.375  10.361   5.456 -1.6330 -0.9712 -1.0275
  978MOL0     H34905   7.370  10.655   5.421 -2.8609 -1.6959  0.6709
  978MOL0     H34906   7.524  10.551   5.393  0.5601  0.3044  1.4584
  978MOL0     H34907   7.360  10.609   5.630 -0.9851 -0.8859 -1.5050
  978MOL0     H34908   7.467  10.467   5.634 -1.4878 -1.6884 -3.9326
  978MOL0     H34909   7.524  10.749   5.577 -3.4459 -1.6299 -0.2782
  978MOL0     H34910   7.664  10.633   5.611 -0.0749 -1.4706  2.3905
  978MOL0     H34911   7.603  10.774   5.809  2.9036 -0.0491 -3.2821
  978MOL0     H34912   7.447  10.689   5.813  0.1678  2.7306 -1.1434
  978MOL0     H34913   7.823  10.683   5.888  1.7459 -1.1551  2.4920
  978MOL0     H34914   8.002  10.475   5.919  0.1612 -1.8371  0.0613
  978MOL0     H34915   7.936  10.324   5.969  0.2413 -0.5921  0.3514
  978MOL0     H34916   8.066  10.425   6.146  1.4581  0.8655 -1.2833
  978MOL0     H34917   7.979  10.572   6.120  2.7260 -0.7293 -1.4398
  978MOL0     H34918   7.848  10.499   6.319 -0.2927 -1.0316  0.3341
  978MOL0     H34919   7.763  10.423   6.188 -0.2209 -1.6658 -0.2234
  978MOL0     H34920   7.817  10.239   6.342 -0.2001  0.4375 -0.3009
  978MOL0     H34921   7.909  10.217   6.193 -3.2266 -0.1272 -1.0171
  978MOL0     H34922   8.003  10.144   6.552 -1.6554  0.2677 -4.5683
  978MOL0     H34923   8.089  10.168   6.874 -0.6665 -1.7885 -0.3512
  978MOL0     H34924   7.953  10.102   6.780 -0.5206  0.5471 -0.7231
  978MOL0     H34925   7.921  10.237   6.878 -1.4335  0.9646 -0.9144
  978MOL0     H34926   8.236  10.759   6.949 -0.6653 -3.0690 -1.0987
  978MOL0     H34927   8.291  10.855   7.176  0.2647 -0.1037  0.3434
  978MOL0     H34928   8.098  10.667   7.499  0.1453  0.1515 -2.3461
  978MOL0     H34929   8.259  10.685   7.463 -0.7407 -0.6909 -1.0286
  978MOL0     H34930   8.284  10.886   7.611 -1.9306  2.8223 -0.2260
  978MOL0     H34931   8.118  10.869   7.663 -0.5909 -1.7577  0.4272
  978MOL0     H34932   8.289  10.628   7.699  2.6298  0.8800  1.6802
  978MOL0     H34933   8.139  10.653   7.769  1.2822 -3.0359 -1.3249
  978MOL0     H34934   8.279  10.872   7.864  1.6579  1.4211  0.4818
  978MOL0     H34935   8.412  10.762   7.807 -0.9505 -1.4326  0.1149
  978MOL0     H34936   8.327  10.740   8.060 -1.8114  2.1055  1.1406
  978MOL0     H34937   8.182  10.674   8.002  0.3826 -3.1968 -2.4531
  978MOL0     H34938   8.451  10.545   7.939 -0.7025  2.2075  2.0641
  978MOL0     H34939   8.310  10.498   7.852 -0.1284 -1.6025  0.8472
  978MOL0     H34940   8.313  10.340   7.998  3.1594 -0.9079  0.4646
  978MOL0     H34941   8.228  10.453   8.118  2.7117  2.6930  3.3034
  978MOL0     H34942   8.529  10.412   8.102  0.2381 -2.7200 -0.5764
  978MOL0     H34943   8.420  10.320   8.199 -2.0618  0.1693  0.1529
  978MOL0     H34944   7.929  10.700   7.329  2.0371 -0.1008  1.1240
  978MOL0     H34945   7.866  10.614   7.086 -1.5214  2.1433  1.4808
  978MOL0     H34946   8.057  10.626   6.633 -2.0320  1.8022 -1.1290
  978MOL0     H34947   8.043  10.540   6.416  0.2665  0.0493 -0.3301
  978MOL0     H34948   7.010  10.373   4.830  1.9354  2.2405  0.5723
  978MOL0     H34949   6.770  10.306   4.825  0.4214 -0.7907 -0.6669
  978MOL0     H34950   6.385  10.386   4.691  1.0961 -1.6834 -0.1770
  978MOL0     H34951   6.153  10.332   4.651  0.9314  1.0911  0.1450
  978MOL0     H34952   5.933  10.231   4.676  2.1014  0.3947  0.8891
  978MOL0     H34953   5.793  10.267   4.785  0.1151 -5.4239 -1.5611
  978MOL0     H34954   5.988  10.448   4.659 -0.6344  0.2067 -1.3597
  978MOL0     H34955   5.878  10.510   4.797 -0.9212 -2.7192  1.8655
  978MOL0     H34956   5.811  10.403   4.522  0.6431  0.8500 -0.0250
  978MOL0     H34957   5.693  10.419   4.644  2.7888 -1.7445  1.4354
  978MOL0     H34958   5.863  10.658   4.536 -0.5916  0.2157 -1.2191
  978MOL0     H34959   5.697  10.664   4.596  2.5302  3.6572 -0.2059
  978MOL0     H34960   5.682  10.601   4.177  1.6236  0.5709 -0.3088
  978MOL0     H34961   6.097  10.284   5.074 -0.2148 -1.4889 -1.2035
  978MOL0     H34962   6.276  10.366   5.224 -0.0250 -0.7757 -0.0577
  978MOL0     H34963   6.434  10.297   5.162 -0.5546 -0.4564  1.3256
  978MOL0     H34964   6.397  10.471   5.153 -1.5886  0.3373 -1.4883
  979MOL0     O34965   2.587   9.271   1.161 -1.0862 -0.0104  0.2917
  979MOL0     C34966   2.580   9.180   1.085 -0.3021  0.5774  0.2341
  979MOL0     O34967   2.537   9.050   1.114  0.9351 -0.5186 -0.5043
  979MOL0     C34968   2.491   9.039   1.247 -0.1374  1.1472  0.3177
  979MOL0     C34969   2.578   9.075   1.353  0.5500 -0.1964 -0.4289
  979MOL0     C34970   2.540   9.069   1.489 -0.1531  0.3585  1.3499
  979MOL0     C34971   2.409   9.035   1.518  0.0168  0.0046 -0.7121
  979MOL0     O34972   2.367   9.029   1.642  0.0583 -0.8099 -0.2448
  979MOL0     C34973   2.323   8.898   1.694  0.8001 -0.7915 -0.2830
  979MOL0     C34974   2.398   8.774   1.653 -0.5616  0.7887 -0.0260
  979MOL0     C34975   2.540   8.782   1.721  0.9793 -0.4522 -0.2514
  979MOL0     C34976   2.610   8.645   1.721 -0.7797 -1.1636  0.3910
  979MOL0     C34977   2.754   8.645   1.745  0.4319 -0.4014  0.2992
  979MOL0     C34978   2.793   8.706   1.889  0.0854  0.5096 -0.5126
  979MOL0     C34979   2.938   8.704   1.921 -0.3218 -0.3249 -0.0180
  979MOL0     C34980   3.010   8.806   1.832  0.8876  0.0250 -0.6830
  979MOL0     N34981   2.968   8.941   1.872  0.2578 -0.0750 -0.2332
  979MOL0     C34982   2.906   9.051   1.808 -0.8362  1.1785 -0.5656
  979MOL0     C34983   2.934   9.156   1.879  0.0791 -0.7604 -0.1329
  979MOL0     C34984   2.921   9.301   1.847 -0.2816 -0.5319  0.0468
  979MOL0     C34985   3.002   9.355   1.731 -0.0810 -0.0288  0.3919
  979MOL0     C34986   2.968   9.495   1.686  0.8840 -0.3899 -0.8080
  979MOL0     C34987   2.827   9.513   1.638 -0.3913 -0.2011  0.8889
  979MOL0     O34988   2.752   9.576   1.735  0.2893  1.1752 -0.4648
  979MOL0     C34989   2.613   9.566   1.736 -0.6785 -0.7510 -0.0984
  979MOL0     C34990   2.541   9.509   1.631 -0.6980  0.5810 -0.0871
  979MOL0     C34991   2.403   9.520   1.627 -0.9361 -0.5951 -0.0614
  979MOL0     C34992   2.349   9.462   1.498  0.1331  0.0657  0.0201
  979MOL0     C34993   2.324   9.582   1.732  0.4928 -0.4694 -0.8824
  979MOL0     C34994   2.176   9.609   1.723  0.4761  0.0908 -0.9659
  979MOL0     O34995   2.108   9.612   1.842  0.0028  0.1103  0.1976
  979MOL0     C34996   1.973   9.598   1.853 -0.2737 -0.4514 -0.6809
  979MOL0     C34997   1.915   9.601   1.977  0.5037 -0.0196 -0.3391
  979MOL0     C34998   1.777   9.577   2.003 -0.7095  0.0862  0.0617
  979MOL0     C34999   1.698   9.545   1.890  0.2237 -0.1816 -0.4391
  979MOL0     O35000   1.565   9.514   1.919 -0.2536  0.0215 -0.0201
  979MOL0     C35001   1.468   9.553   1.824 -0.2844  0.2607 -0.2492
  979MOL0     C35002   1.352   9.626   1.899  0.1780 -1.0467 -0.3638
  979MOL0     C35003   1.253   9.703   1.806  0.3904  0.0808  0.5034
  979MOL0     C35004   1.129   9.768   1.881 -0.8372  0.2264  0.2786
  979MOL0     C35005   1.154   9.904   1.933 -0.1609  0.5246 -0.5475
  979MOL0     C35006   1.056   9.940   2.048  0.2704 -0.1900  0.2157
  979MOL0     C35007   0.914   9.973   2.019 -0.2328  0.0784 -0.0621
  979MOL0     C35008   0.912  10.119   1.966  0.0099 -0.8663 -0.3649
  979MOL0    Cl35009   0.936  10.236   2.085  0.4322  0.1665  0.0585
  979MOL0     C35010   1.757   9.545   1.759 -0.6917  0.7390 -0.4727
  979MOL0     C35011   1.895   9.563   1.739 -0.6284 -0.6852 -0.0657
  979MOL0     O35012   2.135   9.658   1.621  0.3801  0.9358 -0.3157
  979MOL0     C35013   2.399   9.620   1.840  0.6442  0.3025 -0.4755
  979MOL0     C35014   2.543   9.610   1.852  0.7488 -0.7559  1.1763
  979MOL0     N35015   2.989   9.126   2.000 -0.0529  0.2403  0.0421
  979MOL0     N35016   3.011   9.001   1.990 -0.3840  0.4427  0.2198
  979MOL0     C35017   2.321   8.999   1.416 -0.8916  0.1350  0.7322
  979MOL0     C35018   2.358   8.993   1.281  1.0421 -1.5886 -0.6799
  979MOL0     C35019   2.651   9.203   0.959  0.5014 -0.4027  0.4800
  979MOL0     C35020   2.700   9.334   0.934  0.9179  0.3707 -0.1378
  979MOL0     C35021   2.765   9.375   0.813 -0.0198 -0.5175 -0.8086
  979MOL0     C35022   2.785   9.278   0.725  0.2407  1.2108 -0.0656
  979MOL0     O35023   2.840   9.306   0.604  0.7951  0.0203  0.3884
  979MOL0     C35024   2.867   9.442   0.558 -0.4463 -0.4288  0.4931
  979MOL0     C35025   2.911   9.414   0.411 -0.7554 -0.4784 -0.7964
  979MOL0     C35026   3.058   9.359   0.395 -0.4581  0.5144  0.0616
  979MOL0     C35027   3.182   9.429   0.432 -0.1952 -0.8402  0.4579
  979MOL0     C35028   3.173   9.563   0.378 -0.7881  0.1936  0.2619
  979MOL0     C35029   3.147   9.669   0.322  1.1125 -0.2512 -0.8674
  979MOL0     C35030   2.745   9.145   0.743  0.6696  0.7235 -0.2773
  979MOL0     C35031   2.692   9.103   0.865  0.2612 -0.8063 -0.5050
  979MOL0     C35032   2.645   8.961   0.865 -0.1489  0.2038 -0.8977
  979MOL0     H35033   2.679   9.104   1.328  0.5054 -1.4188 -2.2057
  979MOL0     H35034   2.622   9.090   1.557 -0.0596  3.5222  0.4083
  979MOL0     H35035   2.223   8.884   1.653  0.4532  1.0531 -0.1715
  979MOL0     H35036   2.313   8.901   1.803  2.9732  0.2801 -0.0624
  979MOL0     H35037   2.344   8.688   1.693 -0.4937  1.2434  1.0789
  979MOL0     H35038   2.408   8.764   1.544  0.0099  1.2376 -0.0176
  979MOL0     H35039   2.595   8.860   1.666  1.0141 -1.9089 -2.3996
  979MOL0     H35040   2.540   8.818   1.824  2.6564 -2.2969  0.4439
  979MOL0     H35041   2.568   8.575   1.794 -0.4715 -0.0462  1.6911
  979MOL0     H35042   2.592   8.604   1.622 -2.4950 -0.3712  0.3240
  979MOL0     H35043   2.811   8.691   1.664 -0.2213 -0.2221 -0.0668
  979MOL0     H35044   2.791   8.542   1.743  0.6817 -0.3296  0.9356
  979MOL0     H35045   2.758   8.809   1.890 -1.7500 -0.0616 -1.4966
  979MOL0     H35046   2.732   8.655   1.964  1.0973 -2.4764 -1.5774
  979MOL0     H35047   2.979   8.605   1.898 -1.8729 -0.5274 -2.1468
  979MOL0     H35048   2.957   8.715   2.028 -3.2963 -2.9001  0.9162
  979MOL0     H35049   3.111   8.772   1.856  0.3943 -1.3603 -0.5019
  979MOL0     H35050   3.002   8.790   1.724  5.0078 -1.5051 -0.9372
  979MOL0     H35051   2.864   9.056   1.708  2.5384  0.3900 -2.1658
  979MOL0     H35052   2.951   9.342   1.944 -0.6213  0.1721 -0.1395
  979MOL0     H35053   2.813   9.310   1.833 -0.2083  0.4619  0.0510
  979MOL0     H35054   3.109   9.351   1.755  0.0398 -2.4802 -0.3396
  979MOL0     H35055   2.988   9.284   1.649  1.2108 -1.4838  1.3666
  979MOL0     H35056   2.985   9.557   1.775  1.1908  0.1218 -1.2211
  979MOL0     H35057   3.029   9.513   1.597  1.2013  0.1944 -0.4853
  979MOL0     H35058   2.827   9.590   1.560 -2.0601  1.6651  2.6200
  979MOL0     H35059   2.798   9.415   1.599 -1.3044 -0.3557  1.9270
  979MOL0     H35060   2.591   9.466   1.545 -0.0734  1.1056  0.0080
  979MOL0     H35061   2.309   9.544   1.438  0.0968  0.9932  1.2768
  979MOL0     H35062   2.258   9.404   1.520 -0.4952  0.9365 -0.2353
  979MOL0     H35063   2.407   9.398   1.431  1.2552 -0.6955  1.6635
  979MOL0     H35064   1.978   9.619   2.064  2.3182 -0.4318 -1.5181
  979MOL0     H35065   1.742   9.583   2.105 -0.8403  0.2871  0.0055
  979MOL0     H35066   1.506   9.620   1.746  2.4783 -1.6929 -0.7182
  979MOL0     H35067   1.422   9.468   1.773 -1.0603 -0.4176  1.5044
  979MOL0     H35068   1.291   9.549   1.948 -0.2864 -0.6169 -0.2463
  979MOL0     H35069   1.393   9.692   1.976 -1.7101  0.0968 -0.2793
  979MOL0     H35070   1.216   9.633   1.730 -1.0111 -3.0496  3.7691
  979MOL0     H35071   1.301   9.784   1.750  1.8152 -1.6002 -0.8466
  979MOL0     H35072   1.100   9.702   1.964  3.0310 -0.8401  1.0051
  979MOL0     H35073   1.050   9.784   1.808  0.1058  1.2635 -0.5376
  979MOL0     H35074   1.253   9.904   1.981  0.0199  0.3650 -0.9135
  979MOL0     H35075   1.151   9.980   1.855 -1.9742  0.4674 -0.5726
  979MOL0     H35076   1.102  10.028   2.094  2.0270  1.1757 -3.6921
  979MOL0     H35077   1.060   9.864   2.127 -2.0154 -1.5487 -0.8624
  979MOL0     H35078   0.862   9.976   2.115  1.4217  0.9756  0.8412
  979MOL0     H35079   0.867   9.904   1.948  0.6340  1.0714 -1.6888
  979MOL0     H35080   0.809  10.136   1.933 -0.3088  0.7787  1.3120
  979MOL0     H35081   0.978  10.136   1.880  0.4490 -2.6207 -0.3945
  979MOL0     H35082   1.696   9.508   1.677 -0.3961 -0.2975 -0.2352
  979MOL0     H35083   1.927   9.583   1.637  1.2214  2.2293  0.9545
  979MOL0     H35084   2.350   9.670   1.923  1.1098  0.4685 -0.3000
  979MOL0     H35085   2.598   9.657   1.932  2.4719  0.9611 -0.8930
  979MOL0     H35086   2.219   8.963   1.430 -1.2036  0.3612 -0.7880
  979MOL0     H35087   2.284   8.978   1.203  0.1026  2.9797 -0.9011
  979MOL0     H35088   2.684   9.404   1.016  0.2436  0.5620 -0.4261
  979MOL0     H35089   2.790   9.481   0.802 -0.9585 -0.1381  0.4682
  979MOL0     H35090   2.785   9.513   0.570  0.4667  0.7642 -0.1939
  979MOL0     H35091   2.954   9.474   0.617  0.7833  0.1976 -1.5451
  979MOL0     H35092   2.902   9.507   0.355  1.5787 -0.6266 -1.5356
  979MOL0     H35093   2.845   9.342   0.362 -0.2689 -2.1559  0.8991
  979MOL0     H35094   3.063   9.271   0.461 -1.4784 -1.1294 -1.9375
  979MOL0     H35095   3.067   9.325   0.291 -0.9091  0.8979 -0.1017
  979MOL0     H35096   3.263   9.366   0.396 -0.7016 -1.2379 -0.0049
  979MOL0     H35097   3.198   9.449   0.538 -1.5728  1.0607  0.3616
  979MOL0     H35098   3.119   9.746   0.253 -1.2867  0.0052  0.2960
  979MOL0     H35099   2.783   9.085   0.662  2.1626 -0.6250  1.3326
  979MOL0     H35100   2.666   8.929   0.968  0.9144  1.0467 -0.8405
  979MOL0     H35101   2.538   8.959   0.844 -0.0842  0.1852 -1.2303
  979MOL0     H35102   2.693   8.887   0.800  0.9693 -1.6441  1.8089
  980MOL0     O35103   1.091   8.756   7.052 -0.5252 -1.3963  0.7236
  980MOL0     C35104   1.067   8.857   7.115  0.2376  1.1195 -0.6395
  980MOL0     O35105   0.946   8.882   7.160  0.4768 -0.4671 -0.0682
  980MOL0     C35106   0.864   8.773   7.156  0.6279  0.1471 -1.6658
  980MOL0     C35107   0.895   8.678   7.247 -0.0237  0.0888  0.6571
  980MOL0     C35108   0.814   8.563   7.257 -0.1944 -0.2397 -0.1678
  980MOL0     C35109   0.710   8.531   7.159 -0.8796 -0.3963 -0.0291
  980MOL0     O35110   0.627   8.417   7.167  0.1786  0.0672 -0.4492
  980MOL0     C35111   0.645   8.309   7.268  0.2190 -0.0859  0.6723
  980MOL0     C35112   0.582   8.350   7.401  0.4778 -0.2160 -0.2378
  980MOL0     C35113   0.437   8.385   7.379  0.0401  0.1253 -0.0064
  980MOL0     C35114   0.387   8.459   7.506 -0.7579 -0.2533  0.7931
  980MOL0     C35115   0.336   8.367   7.624 -0.9270  0.2607 -0.0167
  980MOL0     C35116   0.279   8.445   7.740  0.6340 -0.1293  0.2807
  980MOL0     C35117   0.207   8.351   7.840 -0.1560 -0.0154 -0.1923
  980MOL0     C35118   0.308   8.267   7.921 -0.2728 -0.1504  0.0339
  980MOL0     N35119   0.241   8.180   8.016 -0.4858  0.3559 -0.9639
  980MOL0     C35120   0.303   8.114   8.121  0.5348  1.8654 -0.5574
  980MOL0     C35121   0.199   8.037   8.177 -0.1615 -1.5642  0.1642
  980MOL0     C35122   0.205   7.949   8.296  0.1190 -0.8122 -0.7694
  980MOL0     C35123   0.161   8.024   8.426 -0.8249 -0.6917 -0.3371
  980MOL0     C35124   0.099   7.947   8.546  0.6586 -0.8452  0.2598
  980MOL0     C35125   0.050   8.043   8.660 -0.9100 -0.2383 -0.2211
  980MOL0     O35126   0.166   8.114   8.711 -0.6547 -0.1721  0.1053
  980MOL0     C35127   0.157   8.220   8.791 -0.4258 -0.6047  0.1212
  980MOL0     C35128   0.267   8.260   8.855  0.4612  0.1702  0.0807
  980MOL0     C35129   0.278   8.375   8.930  0.6333 -1.0781  0.0832
  980MOL0     C35130   0.396   8.386   9.024 -0.1121  0.9174  0.1063
  980MOL0     C35131   0.160   8.464   8.934 -0.4494  0.0860 -0.9079
  980MOL0     C35132   0.157   8.598   9.004 -0.0680  0.7533 -0.3007
  980MOL0     O35133   0.114   8.700   8.934  0.2685 -0.1976  0.8577
  980MOL0     C35134   0.100   8.828   8.998 -0.5914  0.8102  0.3033
  980MOL0     C35135   0.213   8.890   9.039  0.7886 -0.0563  0.6521
  980MOL0     C35136   0.204   9.016   9.101  0.0818 -0.9826 -0.4325
  980MOL0     C35137   0.078   9.082   9.121 -0.2793  0.4382  0.4294
  980MOL0     O35138   0.064   9.208   9.165  0.6253  0.7123  0.8576
  980MOL0     C35139   0.145   9.259   9.268 -1.6029 -0.5295  0.5616
  980MOL0     C35140   0.204   9.388   9.200  0.7920  0.4587 -0.7807
  980MOL0     C35141   0.309   9.346   9.091  0.5328  0.0008  0.5693
  980MOL0     C35142   0.401   9.456   9.043 -0.3484 -0.3251  0.3077
  980MOL0     C35143   0.336   9.588   9.015 -0.5599 -0.2967  0.2211
  980MOL0     C35144   0.431   9.669   8.916  0.4592  0.1225 -0.0880
  980MOL0     C35145   0.404   9.815   8.927  0.3832  0.5951  0.1024
  980MOL0     C35146   0.458   9.872   9.050 -0.5060 -1.6042 -0.2354
  980MOL0    Cl35147   0.619   9.935   9.021 -0.3010  0.3625 -1.0296
  980MOL0     C35148  -0.032   9.011   9.073  0.1761  0.4344  0.6242
  980MOL0     C35149  -0.021   8.883   9.026  0.6286  0.1603 -0.0711
  980MOL0     O35150   0.198   8.596   9.122 -0.1498  0.1629  0.2881
  980MOL0     C35151   0.046   8.424   8.869  0.8639  0.1835 -0.1819
  980MOL0     C35152   0.043   8.305   8.795 -0.3756 -0.3418  0.0607
  980MOL0     N35153   0.093   8.045   8.091  0.5994 -0.0104  0.3270
  980MOL0     N35154   0.112   8.140   8.008  0.3621  0.0259  0.0128
  980MOL0     C35155   0.697   8.628   7.059 -0.3593  0.2803  1.8182
  980MOL0     C35156   0.773   8.744   7.051  0.3887  0.3567  0.3446
  980MOL0     C35157   1.174   8.958   7.140 -0.6760  0.6176 -0.2938
  980MOL0     C35158   1.139   9.069   7.217 -0.7514 -0.0688  0.1034
  980MOL0     C35159   1.223   9.183   7.207 -0.0198 -0.4587  0.6982
  980MOL0     C35160   1.346   9.189   7.132 -0.4798 -0.8567 -0.3685
  980MOL0     O35161   1.417   9.307   7.149 -0.0261 -0.1467 -0.3838
  980MOL0     C35162   1.546   9.329   7.089  0.4856 -0.0204  0.2990
  980MOL0     C35163   1.546   9.364   6.939 -0.9971  0.5532 -0.1740
  980MOL0     C35164   1.447   9.464   6.899  0.1484 -0.4433  0.8276
  980MOL0     C35165   1.498   9.606   6.932 -0.1474  0.0388 -0.0248
  980MOL0     C35166   1.411   9.708   6.882  0.2105 -0.9744  0.6077
  980MOL0     C35167   1.332   9.788   6.843 -0.3835 -0.7336  0.0036
  980MOL0     C35168   1.388   9.072   7.077 -0.0113  0.1264  0.2346
  980MOL0     C35169   1.300   8.958   7.064 -1.0475 -0.2218  0.2927
  980MOL0     C35170   1.352   8.854   6.969 -0.2064 -0.7895 -0.9944
  980MOL0     H35171   0.959   8.707   7.330  2.3648  1.4639 -1.4787
  980MOL0     H35172   0.838   8.499   7.341 -0.7064 -0.5214 -0.2277
  980MOL0     H35173   0.748   8.273   7.272 -0.6656 -4.0663 -3.4778
  980MOL0     H35174   0.592   8.220   7.233  2.2002 -0.3714 -1.9127
  980MOL0     H35175   0.603   8.260   7.459 -0.6915 -1.5632 -1.8288
  980MOL0     H35176   0.625   8.441   7.446 -1.8220  1.5040 -1.3293
  980MOL0     H35177   0.430   8.456   7.296  1.6990  0.0902 -0.2143
  980MOL0     H35178   0.394   8.284   7.370  2.6174 -1.0311 -0.2369
  980MOL0     H35179   0.464   8.523   7.552 -1.3670  0.9515  0.1745
  980MOL0     H35180   0.302   8.524   7.485  0.4841  0.7896 -1.4128
  980MOL0     H35181   0.420   8.307   7.659 -1.7735 -1.2230 -0.4298
  980MOL0     H35182   0.259   8.297   7.588  1.7036 -1.8528 -1.9313
  980MOL0     H35183   0.347   8.507   7.799 -2.1417 -0.3458  4.0434
  980MOL0     H35184   0.196   8.501   7.696 -0.0901 -0.0944  1.6457
  980MOL0     H35185   0.139   8.284   7.787  1.9108 -0.2907 -2.6882
  980MOL0     H35186   0.141   8.402   7.912 -0.5547 -0.3619 -0.3085
  980MOL0     H35187   0.371   8.199   7.863  0.0681 -0.1848  0.4425
  980MOL0     H35188   0.376   8.339   7.966 -2.9090  1.4528  1.7288
  980MOL0     H35189   0.408   8.110   8.149  0.2466  1.4952  0.5122
  980MOL0     H35190   0.306   7.908   8.305  1.4870  2.0935 -1.4205
  980MOL0     H35191   0.132   7.873   8.269  0.1705 -0.0247 -3.5232
  980MOL0     H35192   0.249   8.085   8.451 -0.2119  0.5879 -4.7029
  980MOL0     H35193   0.086   8.099   8.400 -1.0027 -1.1287 -1.1302
  980MOL0     H35194   0.014   7.894   8.501 -1.0446  1.6142  0.3801
  980MOL0     H35195   0.169   7.872   8.583  0.2998 -0.9254  0.7840
  980MOL0     H35196  -0.018   8.109   8.606 -0.1331 -0.3366 -1.3651
  980MOL0     H35197   0.007   7.999   8.751  0.7198 -2.2875 -0.3731
  980MOL0     H35198   0.350   8.191   8.840  0.5831  0.4233 -0.4135
  980MOL0     H35199   0.440   8.485   9.035  0.9613  0.4349  0.2431
  980MOL0     H35200   0.471   8.306   9.023 -1.9346 -0.8951 -0.4873
  980MOL0     H35201   0.349   8.361   9.120 -1.1083 -2.9727 -1.1823
  980MOL0     H35202   0.309   8.842   9.028 -0.1213 -1.7544 -0.2175
  980MOL0     H35203   0.295   9.056   9.145 -1.4723  0.6721  1.4255
  980MOL0     H35204   0.081   9.293   9.350 -1.8168  1.1745 -0.2622
  980MOL0     H35205   0.214   9.185   9.311 -0.3273 -0.0061 -0.5154
  980MOL0     H35206   0.124   9.449   9.158  0.0993  1.4484  1.7832
  980MOL0     H35207   0.247   9.448   9.281  0.2103  0.3502 -0.3877
  980MOL0     H35208   0.251   9.311   9.005 -3.5462 -0.5132  3.2494
  980MOL0     H35209   0.371   9.262   9.125  1.5696 -1.0596 -3.4823
  980MOL0     H35210   0.453   9.418   8.955  1.7309  1.4846  0.6417
  980MOL0     H35211   0.476   9.475   9.120  0.9972 -1.5264 -0.6461
  980MOL0     H35212   0.234   9.573   8.978 -1.1043  2.9127  0.1098
  980MOL0     H35213   0.321   9.642   9.108 -0.7876  2.0448 -1.0848
  980MOL0     H35214   0.422   9.641   8.810 -0.6628  0.2809 -0.0535
  980MOL0     H35215   0.533   9.648   8.949  0.5563  1.4135  0.4944
  980MOL0     H35216   0.295   9.828   8.938  0.3992  0.1384  0.8788
  980MOL0     H35217   0.428   9.857   8.830  1.0045 -1.5710 -0.7353
  980MOL0     H35218   0.458   9.803   9.135  1.7980  1.1411  2.1884
  980MOL0     H35219   0.408   9.967   9.072  2.6678 -0.1347  1.3314
  980MOL0     H35220  -0.134   9.046   9.081  0.7453  2.2993  0.2001
  980MOL0     H35221  -0.099   8.809   9.011  0.6398 -0.5116  2.7417
  980MOL0     H35222  -0.037   8.489   8.846  0.2639 -1.8534 -4.7968
  980MOL0     H35223  -0.043   8.280   8.733  0.4277 -3.2980 -0.0272
  980MOL0     H35224   0.628   8.616   6.976  1.2005  2.2419  0.0955
  980MOL0     H35225   0.749   8.825   6.983  0.7963 -0.0065 -0.2433
  980MOL0     H35226   1.050   9.088   7.276  0.3320  3.1391  0.9203
  980MOL0     H35227   1.185   9.268   7.263  0.5407 -1.0125  1.9485
  980MOL0     H35228   1.600   9.412   7.136  0.2190  0.8305 -0.8559
  980MOL0     H35229   1.608   9.239   7.098  0.0414 -0.2479  1.2272
  980MOL0     H35230   1.538   9.269   6.886  2.2222 -0.3496  0.7002
  980MOL0     H35231   1.646   9.401   6.912 -0.5296 -0.3322  0.3046
  980MOL0     H35232   1.418   9.458   6.794  0.6494 -3.6962  0.7706
  980MOL0     H35233   1.347   9.448   6.941 -1.7161  3.7684 -1.4249
  980MOL0     H35234   1.599   9.617   6.892  1.6326 -1.5158  3.5767
  980MOL0     H35235   1.510   9.617   7.040  0.9436  2.7658 -0.3389
  980MOL0     H35236   1.252   9.855   6.821  1.7133  1.8955 -0.1221
  980MOL0     H35237   1.482   9.070   7.023 -0.5366 -1.2236 -0.6784
  980MOL0     H35238   1.429   8.904   6.909 -1.0846  0.2520 -1.2674
  980MOL0     H35239   1.402   8.775   7.026 -1.0420  0.9162  2.3515
  980MOL0     H35240   1.279   8.817   6.897 -0.5100  1.8459 -2.1361
  981MOL0     O35241  10.747   2.416   1.377  0.9595  0.4885  0.0407
  981MOL0     C35242  10.754   2.354   1.269 -0.2284 -0.0833 -0.3589
  981MOL0     O35243  10.645   2.331   1.192  0.5313  0.0530 -0.0529
  981MOL0     C35244  10.512   2.361   1.225  0.0398 -0.3523 -0.0393
  981MOL0     C35245  10.421   2.271   1.187  0.6332  0.6268  0.1210
  981MOL0     C35246  10.287   2.281   1.236  0.8378  1.5138  0.2326
  981MOL0     C35247  10.236   2.399   1.296 -0.4488  1.1411  0.1141
  981MOL0     O35248  10.103   2.393   1.333 -0.6126 -0.0194 -0.4261
  981MOL0     C35249  10.035   2.518   1.309  0.2969 -0.3005 -0.7318
  981MOL0     C35250   9.903   2.472   1.238 -0.1279  0.8779 -1.4297
  981MOL0     C35251   9.824   2.591   1.192  0.7756  0.3926 -0.5460
  981MOL0     C35252   9.691   2.546   1.135  0.1577  0.3881 -0.2084
  981MOL0     C35253   9.612   2.664   1.079  0.4117 -0.2604 -0.5545
  981MOL0     C35254   9.489   2.607   1.012 -0.9393 -0.1489  0.7522
  981MOL0     C35255   9.406   2.502   1.081 -0.2159  0.6596 -0.4951
  981MOL0     C35256   9.256   2.516   1.038  0.1691  0.0985  0.6869
  981MOL0     N35257   9.178   2.425   1.120  0.2625  0.5777 -0.9220
  981MOL0     C35258   9.134   2.454   1.252 -0.3803  0.2273  0.5561
  981MOL0     C35259   9.101   2.333   1.298  0.3969 -0.5085 -1.1537
  981MOL0     C35260   9.060   2.317   1.455 -0.6658 -0.6522  1.0444
  981MOL0     C35261   8.923   2.248   1.458  1.0757  0.7733 -0.1887
  981MOL0     C35262   8.815   2.328   1.382  0.5126 -0.8770  0.1475
  981MOL0     C35263   8.712   2.392   1.469 -0.1217 -0.1555  0.1048
  981MOL0     O35264   8.776   2.490   1.561 -0.3892  0.1875  0.7390
  981MOL0     C35265   8.711   2.490   1.684  0.5383  0.2938 -0.3586
  981MOL0     C35266   8.575   2.485   1.697 -0.2063  0.0270 -0.4294
  981MOL0     C35267   8.505   2.478   1.817 -0.3396  0.4193 -0.5176
  981MOL0     C35268   8.353   2.458   1.810  0.0044  0.8673 -0.8112
  981MOL0     C35269   8.588   2.476   1.936 -0.3405  0.2327  1.7369
  981MOL0     C35270   8.547   2.438   2.071 -0.4436  0.5236 -0.0687
  981MOL0     O35271   8.433   2.392   2.090 -0.3199  0.0905  0.2958
  981MOL0     C35272   8.365   2.380   2.213  0.0715 -0.2696  1.4298
  981MOL0     C35273   8.425   2.316   2.324 -0.6911 -1.1917 -0.8051
  981MOL0     C35274   8.359   2.313   2.449 -0.2152 -0.0201  0.7810
  981MOL0     C35275   8.232   2.374   2.456 -0.4674 -0.3393  0.5135
  981MOL0     O35276   8.169   2.366   2.578  0.4588  0.1237  0.2212
  981MOL0     C35277   8.110   2.231   2.610  0.9438 -0.6092  0.5992
  981MOL0     C35278   8.001   2.202   2.503 -0.2360  0.9503  0.7594
  981MOL0     C35279   7.918   2.082   2.556  0.0100  0.0097  0.2810
  981MOL0     C35280   7.795   2.066   2.463  0.3764  0.4248 -0.5821
  981MOL0     C35281   7.723   1.943   2.521 -0.7211 -0.4119  0.4496
  981MOL0     C35282   7.773   1.800   2.493  0.5207 -0.1559  0.2121
  981MOL0     C35283   7.666   1.694   2.513  0.0111  0.9797  0.9885
  981MOL0     C35284   7.715   1.572   2.589 -0.1383 -0.2141  0.0252
  981MOL0    Cl35285   7.601   1.447   2.558 -0.1127  0.4924  0.0791
  981MOL0     C35286   8.173   2.438   2.341 -0.1973 -0.6334 -0.1758
  981MOL0     C35287   8.244   2.441   2.218 -0.1691  0.8282  0.4983
  981MOL0     O35288   8.627   2.450   2.158 -0.1636  0.3963  0.4260
  981MOL0     C35289   8.732   2.504   1.921 -0.0713 -0.5082  0.7336
  981MOL0     C35290   8.791   2.502   1.799 -0.3308 -0.1778  0.2206
  981MOL0     N35291   9.127   2.234   1.207 -0.0230 -0.3435 -0.5497
  981MOL0     N35292   9.172   2.284   1.103  0.3473 -1.1578  0.5214
  981MOL0     C35293  10.327   2.506   1.317 -0.3501  0.3629  0.0857
  981MOL0     C35294  10.460   2.483   1.277 -0.0751  0.2514 -0.2832
  981MOL0     C35295  10.879   2.295   1.227 -0.5441  0.5111 -0.1666
  981MOL0     C35296  10.871   2.209   1.116 -0.2811 -1.0785  0.1779
  981MOL0     C35297  10.984   2.149   1.064  0.5181  0.3772  0.3289
  981MOL0     C35298  11.113   2.171   1.117  0.0221  0.5861  0.6628
  981MOL0     O35299  11.238   2.109   1.095  0.0294 -0.2494  0.4884
  981MOL0     C35300  11.259   2.006   0.995 -0.2224 -0.0483 -0.3321
  981MOL0     C35301  11.223   1.872   1.062  0.3895  0.4128 -0.3095
  981MOL0     C35302  11.349   1.820   1.147  0.0556 -0.3977 -0.5868
  981MOL0     C35303  11.313   1.699   1.234  0.2855  0.7333  0.2512
  981MOL0     C35304  11.410   1.668   1.341  0.1925  0.2593 -0.2121
  981MOL0     C35305  11.479   1.648   1.439  0.0467 -0.7605 -0.1091
  981MOL0     C35306  11.114   2.250   1.222 -0.1189 -0.1265 -0.8785
  981MOL0     C35307  11.007   2.322   1.276  0.9410 -0.0366  0.5063
  981MOL0     C35308  11.043   2.424   1.385 -0.8046  0.0372 -0.4210
  981MOL0     H35309  10.446   2.185   1.125  0.4893  1.5728 -1.2955
  981MOL0     H35310  10.226   2.195   1.210  2.6822  0.5274 -1.0472
  981MOL0     H35311  10.094   2.587   1.248  2.9726 -1.1782  0.7049
  981MOL0     H35312  10.004   2.569   1.401 -0.3351 -2.6332  0.4212
  981MOL0     H35313   9.922   2.402   1.157  1.8883 -1.9906  1.2821
  981MOL0     H35314   9.848   2.411   1.311 -2.9080  0.5481 -3.6435
  981MOL0     H35315   9.796   2.660   1.272  2.0547  0.5083 -0.1742
  981MOL0     H35316   9.882   2.661   1.131 -0.1716  0.0345 -1.9025
  981MOL0     H35317   9.708   2.477   1.052 -0.8013  1.1981 -1.1078
  981MOL0     H35318   9.629   2.501   1.214 -0.6672  0.8009 -0.6039
  981MOL0     H35319   9.676   2.737   1.029  1.7753 -0.4953  0.7677
  981MOL0     H35320   9.572   2.722   1.163  2.7781 -1.2119  1.3732
  981MOL0     H35321   9.428   2.681   0.960  0.1443 -1.7677 -3.1704
  981MOL0     H35322   9.529   2.553   0.926 -0.7058  2.4241 -0.8501
  981MOL0     H35323   9.411   2.514   1.190  0.4232 -1.1603 -0.2837
  981MOL0     H35324   9.439   2.399   1.062  0.4639  1.2971 -3.2058
  981MOL0     H35325   9.219   2.617   1.054 -1.0470 -0.6536  3.1796
  981MOL0     H35326   9.247   2.488   0.932  2.2396 -2.3810  1.0680
  981MOL0     H35327   9.146   2.551   1.299 -0.8030 -0.8927  3.1542
  981MOL0     H35328   9.052   2.412   1.509  4.0190 -1.3560  3.5347
  981MOL0     H35329   9.141   2.267   1.510  1.9259 -0.8914 -2.6440
  981MOL0     H35330   8.929   2.150   1.410  2.5882  1.5989 -1.8264
  981MOL0     H35331   8.904   2.246   1.565  3.8370  1.3042  0.3922
  981MOL0     H35332   8.865   2.400   1.317 -1.3024 -0.5742 -1.0007
  981MOL0     H35333   8.767   2.264   1.307 -2.6159 -0.8092  1.8889
  981MOL0     H35334   8.639   2.445   1.406 -0.1530 -0.2033  0.1009
  981MOL0     H35335   8.659   2.310   1.517  1.4734  0.1771  2.6331
  981MOL0     H35336   8.502   2.484   1.617  0.6249 -1.9720 -1.2219
  981MOL0     H35337   8.299   2.510   1.730 -1.3160 -1.5920 -1.6374
  981MOL0     H35338   8.318   2.501   1.904 -0.7104 -0.3030 -0.5182
  981MOL0     H35339   8.322   2.353   1.802 -0.1385  0.8717 -0.3208
  981MOL0     H35340   8.518   2.264   2.305 -1.8393 -3.1339 -1.4459
  981MOL0     H35341   8.394   2.277   2.545  0.5286  2.5107  1.5258
  981MOL0     H35342   8.183   2.151   2.622  1.9447  0.0771 -0.5963
  981MOL0     H35343   8.052   2.247   2.701 -3.0112 -2.6955 -1.3007
  981MOL0     H35344   7.938   2.288   2.480 -1.7629 -0.0053  1.1698
  981MOL0     H35345   8.056   2.178   2.411 -1.8126 -2.9740  0.6396
  981MOL0     H35346   7.891   2.093   2.662 -4.7289 -0.5676 -0.6454
  981MOL0     H35347   7.974   1.989   2.542  0.6570  0.7153 -2.5316
  981MOL0     H35348   7.811   2.046   2.357 -1.0078  0.2593 -0.7788
  981MOL0     H35349   7.744   2.163   2.469  0.0544  0.2810 -0.9421
  981MOL0     H35350   7.720   1.944   2.630  1.1701 -3.6617  0.6767
  981MOL0     H35351   7.623   1.947   2.478 -0.0524  1.6411 -1.0842
  981MOL0     H35352   7.862   1.782   2.553  0.4861  1.4778  0.8206
  981MOL0     H35353   7.797   1.789   2.387 -0.4621  0.1856 -0.0618
  981MOL0     H35354   7.628   1.668   2.414  0.5213  0.7371  0.8511
  981MOL0     H35355   7.573   1.735   2.553 -0.4030  1.5037 -0.4506
  981MOL0     H35356   7.720   1.596   2.695  0.7299 -1.0647  0.1901
  981MOL0     H35357   7.816   1.539   2.565 -1.2332 -2.0719 -2.5450
  981MOL0     H35358   8.079   2.492   2.345 -0.7032 -1.4692 -0.5256
  981MOL0     H35359   8.187   2.478   2.134 -0.4422  3.4767  1.7350
  981MOL0     H35360   8.803   2.522   2.001  4.6509 -1.0987 -2.9497
  981MOL0     H35361   8.896   2.528   1.786 -0.1024 -1.4417 -0.6278
  981MOL0     H35362  10.316   2.594   1.380 -1.5936  1.4031 -1.4918
  981MOL0     H35363  10.536   2.558   1.293  0.5527 -0.5105  0.4733
  981MOL0     H35364  10.780   2.196   1.059 -1.2413 -2.0417  1.8610
  981MOL0     H35365  10.973   2.100   0.968  1.0762 -1.0427  0.9588
  981MOL0     H35366  11.203   2.032   0.904  0.0093 -0.0912 -0.4892
  981MOL0     H35367  11.364   2.003   0.962 -0.9676 -1.9185 -2.8162
  981MOL0     H35368  11.209   1.797   0.983  0.7837 -0.6851  0.6409
  981MOL0     H35369  11.137   1.891   1.127  0.2494 -1.0387 -0.0461
  981MOL0     H35370  11.428   1.785   1.080  0.2064 -3.6396  1.1085
  981MOL0     H35371  11.387   1.893   1.219  1.2735 -2.1550  0.6439
  981MOL0     H35372  11.295   1.604   1.182 -0.4135  0.5611  0.7827
  981MOL0     H35373  11.226   1.731   1.292 -0.1855 -0.5368  0.2782
  981MOL0     H35374  11.530   1.637   1.533 -1.8522  0.9199  1.1839
  981MOL0     H35375  11.214   2.258   1.263  0.4019 -1.1611 -1.8767
  981MOL0     H35376  11.029   2.525   1.345 -2.5986  0.0666  0.1850
  981MOL0     H35377  10.987   2.414   1.479 -1.2857  2.5976 -0.3520
  981MOL0     H35378  11.144   2.401   1.419 -0.7595  0.3647 -0.3283
  982MOL0     O35379  10.674   4.405   5.903  0.1586  0.0398 -0.3118
  982MOL0     C35380  10.792   4.442   5.885  0.6292  0.1434 -0.5789
  982MOL0     O35381  10.838   4.570   5.890 -0.0607  0.5722 -0.2581
  982MOL0     C35382  10.766   4.672   5.947 -0.1024  0.6460 -0.1312
  982MOL0     C35383  10.832   4.751   6.048  0.0427  0.1878  0.0500
  982MOL0     C35384  10.763   4.857   6.108 -0.4899 -0.4132  0.2497
  982MOL0     C35385  10.628   4.880   6.089 -0.4949 -0.5591  1.1880
  982MOL0     O35386  10.557   4.965   6.165  0.3610  0.8526  0.1215
  982MOL0     C35387  10.453   4.893   6.231 -0.6611  0.4971  0.0697
  982MOL0     C35388  10.414   4.971   6.360  0.0006 -0.7932 -0.7009
  982MOL0     C35389  10.514   4.962   6.474  0.6411  0.9279 -0.3860
  982MOL0     C35390  10.446   4.925   6.604 -0.2368  0.0877  0.1957
  982MOL0     C35391  10.524   4.909   6.736 -0.7753  0.4108 -0.1615
  982MOL0     C35392  10.538   5.035   6.823  0.0561 -0.2854 -0.0287
  982MOL0     C35393  10.596   5.001   6.956 -1.1851 -0.4888 -0.4404
  982MOL0     C35394  10.600   5.118   7.060  0.0542  0.2540  0.0151
  982MOL0     N35395  10.470   5.115   7.128 -0.2267 -0.5350 -0.0114
  982MOL0     C35396  10.351   5.160   7.086  0.0667 -0.6971 -0.0486
  982MOL0     C35397  10.263   5.115   7.177 -0.1586  0.1985 -0.5953
  982MOL0     C35398  10.123   5.169   7.204 -0.4895 -0.6397  0.5654
  982MOL0     C35399  10.010   5.120   7.106 -0.0708  0.0908 -0.7203
  982MOL0     C35400   9.937   5.002   7.167  0.3887 -0.0154  0.4424
  982MOL0     C35401  10.014   4.862   7.168  0.6438  0.7418  0.6583
  982MOL0     O35402  10.028   4.826   7.028 -0.3538  0.0797 -0.3039
  982MOL0     C35403  10.093   4.712   7.017 -0.4829  0.8754  0.5178
  982MOL0     C35404  10.032   4.588   7.000 -0.5022 -0.8081  0.1064
  982MOL0     C35405  10.105   4.474   6.950 -0.0245 -0.7604  0.2838
  982MOL0     C35406  10.021   4.357   6.911  0.2377  0.4438  0.1493
  982MOL0     C35407  10.236   4.492   6.923 -0.3523 -0.1449 -0.2853
  982MOL0     C35408  10.327   4.387   6.866  0.1237  0.2989 -0.2560
  982MOL0     O35409  10.453   4.420   6.826  0.5198  0.9658  0.1227
  982MOL0     C35410  10.543   4.315   6.800  0.0439 -0.4723  0.2413
  982MOL0     C35411  10.669   4.333   6.840 -0.3368 -0.4866 -0.4469
  982MOL0     C35412  10.769   4.245   6.802  0.7184  0.0717 -0.1671
  982MOL0     C35413  10.733   4.120   6.753  1.2830  0.1871  0.5688
  982MOL0     O35414  10.833   4.027   6.727 -0.5008  0.1429 -0.3176
  982MOL0     C35415  10.882   3.963   6.850  0.5067 -0.3474  0.5318
  982MOL0     C35416  10.862   3.813   6.856  0.2278 -0.1273 -0.3156
  982MOL0     C35417  10.717   3.774   6.840 -0.5671 -1.5542  0.1454
  982MOL0     C35418  10.676   3.646   6.919 -0.0305 -0.6838  0.6773
  982MOL0     C35419  10.727   3.513   6.851  0.0243 -0.4316  0.4797
  982MOL0     C35420  10.780   3.411   6.954 -0.1747 -0.5140  0.4673
  982MOL0     C35421  10.678   3.362   7.070  0.1623 -0.4177  0.0850
  982MOL0     C35422  10.558   3.297   7.012 -0.0164 -0.3328 -0.1571
  982MOL0    Cl35423  10.581   3.139   6.925 -0.4843  0.1730  0.5296
  982MOL0     C35424  10.600   4.100   6.704 -1.1270  0.6832 -0.3615
  982MOL0     C35425  10.509   4.198   6.727  0.3117 -0.6897 -0.4642
  982MOL0     O35426  10.277   4.275   6.875 -0.1632  0.0467 -0.0699
  982MOL0     C35427  10.300   4.615   6.944 -0.5020  0.1254  0.4313
  982MOL0     C35428  10.227   4.718   6.984  0.6442 -1.0490 -0.1914
  982MOL0     N35429  10.337   5.043   7.278  0.7928  0.1017  1.3524
  982MOL0     N35430  10.461   5.039   7.234 -0.1940  0.5126 -1.0030
  982MOL0     C35431  10.569   4.811   5.980 -0.3488  0.8846  0.3136
  982MOL0     C35432  10.632   4.704   5.914  0.4103  0.0259  0.2220
  982MOL0     C35433  10.892   4.344   5.822  0.8424 -0.5440 -0.4964
  982MOL0     C35434  10.833   4.249   5.748 -0.6847  0.1236 -0.0681
  982MOL0     C35435  10.921   4.146   5.696  0.5699 -0.0531 -0.0901
  982MOL0     C35436  11.058   4.150   5.697 -0.4227  0.1041  0.4931
  982MOL0     O35437  11.134   4.061   5.625  0.4424  0.4116 -0.6067
  982MOL0     C35438  11.259   4.105   5.569 -1.1449 -0.6038  0.7742
  982MOL0     C35439  11.256   4.241   5.488  0.3004 -0.7583  0.5132
  982MOL0     C35440  11.379   4.295   5.428 -0.4028  0.5735  0.4673
  982MOL0     C35441  11.453   4.383   5.527 -0.8618  0.3853 -0.0964
  982MOL0     C35442  11.575   4.330   5.580 -0.2248 -0.1347  0.5750
  982MOL0     C35443  11.678   4.284   5.614 -0.1187  0.3845 -0.3369
  982MOL0     C35444  11.112   4.247   5.782 -0.6788 -0.1360 -0.8965
  982MOL0     C35445  11.019   4.334   5.843  0.1739 -0.9916  0.1452
  982MOL0     C35446  11.092   4.438   5.927  0.1330  1.1644 -0.2105
  982MOL0     H35447  10.935   4.727   6.072  0.4127 -0.6584 -2.0651
  982MOL0     H35448  10.824   4.927   6.164 -2.6747  2.6349 -0.8835
  982MOL0     H35449  10.484   4.788   6.238  2.2929  0.7605 -4.6385
  982MOL0     H35450  10.360   4.893   6.173  0.6296 -0.8757 -2.1130
  982MOL0     H35451  10.409   5.079   6.346 -1.0209 -0.0518  3.8809
  982MOL0     H35452  10.311   4.945   6.386 -0.5137  0.6656 -1.1636
  982MOL0     H35453  10.586   4.882   6.454 -0.0874  0.3608 -0.7880
  982MOL0     H35454  10.566   5.056   6.490 -0.3900  1.1445  2.1486
  982MOL0     H35455  10.376   5.007   6.624  0.5722  0.2739  2.6102
  982MOL0     H35456  10.382   4.837   6.590 -0.0711  0.2003 -1.5042
  982MOL0     H35457  10.624   4.875   6.709 -1.3096 -2.4987  1.1271
  982MOL0     H35458  10.476   4.836   6.802 -0.9563  0.6742  0.0005
  982MOL0     H35459  10.604   5.110   6.780  1.4246 -0.8755  0.9353
  982MOL0     H35460  10.445   5.088   6.845  2.5923  3.4703  2.9018
  982MOL0     H35461  10.698   4.972   6.930 -1.8444 -1.0733 -2.5884
  982MOL0     H35462  10.529   4.924   6.996 -1.4765  0.6423  1.3514
  982MOL0     H35463  10.688   5.103   7.123 -0.3310  1.0117  0.7537
  982MOL0     H35464  10.604   5.214   7.007 -1.2596  1.1661  1.4868
  982MOL0     H35465  10.331   5.236   7.011  0.4569 -1.2913 -0.7739
  982MOL0     H35466  10.132   5.278   7.201  1.0836 -0.7573 -1.0721
  982MOL0     H35467  10.096   5.140   7.306  2.1775 -0.0221  1.5357
  982MOL0     H35468   9.936   5.201   7.099 -1.7549 -0.5710  4.7208
  982MOL0     H35469  10.048   5.094   7.007 -2.1571 -0.5247 -1.4111
  982MOL0     H35470   9.891   5.016   7.265 -4.9893  0.6594 -1.7929
  982MOL0     H35471   9.848   4.988   7.105  0.5300  2.5520 -0.4461
  982MOL0     H35472  10.114   4.860   7.212  2.0160 -0.6155 -2.2140
  982MOL0     H35473   9.952   4.785   7.215 -0.7940  1.3498 -0.1675
  982MOL0     H35474   9.926   4.610   7.012 -0.6851 -0.0128 -2.3191
  982MOL0     H35475   9.914   4.380   6.905 -1.2233 -5.0481 -3.9562
  982MOL0     H35476  10.039   4.276   6.983  2.7437  0.1090 -0.7797
  982MOL0     H35477  10.045   4.307   6.817  1.2994  1.6071 -0.2151
  982MOL0     H35478  10.709   4.421   6.889  0.9149 -1.2248 -0.1057
  982MOL0     H35479  10.871   4.266   6.833  0.1668  0.4009  1.5225
  982MOL0     H35480  10.989   3.988   6.854  0.3104  0.3482  1.6799
  982MOL0     H35481  10.847   4.017   6.938 -1.4275 -1.7752  0.7014
  982MOL0     H35482  10.930   3.765   6.785 -1.2526 -0.2914 -1.6626
  982MOL0     H35483  10.898   3.795   6.958  1.7606 -1.2417 -1.0053
  982MOL0     H35484  10.700   3.780   6.732 -0.9290 -1.0212  0.2270
  982MOL0     H35485  10.659   3.861   6.872  1.0067  0.2094 -1.4862
  982MOL0     H35486  10.568   3.648   6.903 -0.0166 -0.5596  0.6015
  982MOL0     H35487  10.720   3.648   7.019  2.3476 -0.2724 -0.3124
  982MOL0     H35488  10.652   3.476   6.781  0.7906 -0.3134 -0.4246
  982MOL0     H35489  10.822   3.540   6.804 -0.3005  0.1431  0.1437
  982MOL0     H35490  10.873   3.448   6.999 -0.6200  0.0549  0.9338
  982MOL0     H35491  10.802   3.320   6.897  0.5370  0.0854 -0.2493
  982MOL0     H35492  10.644   3.444   7.134  3.3430 -1.0990  2.9381
  982MOL0     H35493  10.738   3.303   7.140  1.2948  1.7946  1.0896
  982MOL0     H35494  10.521   3.367   6.936  1.0253 -0.5511 -0.8870
  982MOL0     H35495  10.483   3.279   7.089  1.6079 -1.8004  1.1673
  982MOL0     H35496  10.585   4.025   6.627  1.4129  3.0236 -3.4764
  982MOL0     H35497  10.414   4.195   6.675 -2.1579 -2.3219  3.7095
  982MOL0     H35498  10.404   4.640   6.926  0.9412 -3.4226  2.7383
  982MOL0     H35499  10.272   4.817   6.977 -2.8552  1.1073  3.6319
  982MOL0     H35500  10.465   4.831   5.953 -0.5402  0.7716  0.9428
  982MOL0     H35501  10.586   4.654   5.829 -2.6643 -2.9274  3.3477
  982MOL0     H35502  10.728   4.239   5.723 -1.0359 -2.3578  2.0176
  982MOL0     H35503  10.875   4.078   5.626  2.3189 -0.5168 -0.8610
  982MOL0     H35504  11.342   4.101   5.639  1.1350  2.1058 -1.4851
  982MOL0     H35505  11.300   4.029   5.501  2.6091  1.8073  0.0262
  982MOL0     H35506  11.213   4.326   5.542  0.1671 -1.1358  1.0091
  982MOL0     H35507  11.199   4.228   5.395  0.9649 -0.9922  0.1342
  982MOL0     H35508  11.436   4.207   5.398 -0.2818  0.4405  1.0834
  982MOL0     H35509  11.359   4.362   5.343  1.7869  0.5461 -0.1392
  982MOL0     H35510  11.389   4.410   5.611 -1.5942 -1.1283 -0.1406
  982MOL0     H35511  11.473   4.475   5.471 -0.7002  0.0793 -0.5536
  982MOL0     H35512  11.780   4.256   5.626  1.1549  4.3775 -0.5705
  982MOL0     H35513  11.218   4.253   5.805 -0.9356 -2.8116  1.6520
  982MOL0     H35514  11.103   4.527   5.866  0.4520  0.3682 -1.3494
  982MOL0     H35515  11.033   4.453   6.018 -0.8094 -2.4166 -0.0766
  982MOL0     H35516  11.189   4.408   5.967 -1.0298  1.4996  3.2066
  983MOL0     O35517  11.003   0.801   8.407 -0.1935 -0.6285  0.6023
  983MOL0     C35518  10.901   0.844   8.359 -0.1505 -1.0159  1.6071
  983MOL0     O35519  10.896   0.964   8.288  0.2128 -0.8381  0.9988
  983MOL0     C35520  11.004   1.027   8.225  0.0956 -0.1296 -0.8761
  983MOL0     C35521  11.118   0.965   8.183  0.5769 -0.5183  1.0275
  983MOL0     C35522  11.227   1.042   8.122 -0.9779 -1.2946  0.3229
  983MOL0     C35523  11.207   1.175   8.100  0.2392  0.4876 -1.1910
  983MOL0     O35524  11.312   1.252   8.067 -0.2495  0.0548 -0.2594
  983MOL0     C35525  11.305   1.388   8.029 -0.0042  1.1086 -0.1668
  983MOL0     C35526  11.442   1.428   7.962  0.5795  0.0859 -0.2115
  983MOL0     C35527  11.467   1.577   7.948  0.6619 -0.2056  0.4947
  983MOL0     C35528  11.606   1.624   7.935 -0.4227  0.4881  0.3995
  983MOL0     C35529  11.620   1.769   7.909 -1.0535 -0.1780 -0.2240
  983MOL0     C35530  11.752   1.836   7.880 -0.5263 -0.6157 -0.0504
  983MOL0     C35531  11.742   1.987   7.881  0.0514 -0.3212  1.3710
  983MOL0     C35532  11.722   2.059   8.012 -0.3282  0.4356  0.4033
  983MOL0     N35533  11.798   2.019   8.133  0.1556 -0.1821 -0.4875
  983MOL0     C35534  11.800   1.904   8.203 -0.3114  0.2138 -0.0649
  983MOL0     C35535  11.887   1.918   8.297  0.0935 -0.1300 -0.9377
  983MOL0     C35536  11.928   1.809   8.393  0.0419 -0.1782 -0.6968
  983MOL0     C35537  12.081   1.778   8.388  1.3147  0.1802 -0.1055
  983MOL0     C35538  12.156   1.870   8.479  1.1047 -0.1535 -1.3486
  983MOL0     C35539  12.304   1.829   8.480  0.3448  0.1264  0.3668
  983MOL0     O35540  12.309   1.710   8.557  0.2911  0.3060 -0.4390
  983MOL0     C35541  12.361   1.594   8.501  0.3746 -1.4845 -0.3159
  983MOL0     C35542  12.468   1.599   8.417 -0.2760 -0.5411 -0.1001
  983MOL0     C35543  12.526   1.481   8.366 -0.0408 -0.3768  0.9356
  983MOL0     C35544  12.623   1.501   8.251  0.5114 -0.3374 -0.1710
  983MOL0     C35545  12.478   1.351   8.407  1.3534 -0.1790  0.3881
  983MOL0     C35546  12.517   1.217   8.363  0.9117 -0.0313 -0.1940
  983MOL0     O35547  12.414   1.125   8.340 -0.2748 -0.3609 -0.2357
  983MOL0     C35548  12.453   0.999   8.302  0.7140  0.1856 -0.2148
  983MOL0     C35549  12.512   0.907   8.392  0.3170 -0.0456 -0.1147
  983MOL0     C35550  12.553   0.782   8.346  1.3970  0.9561 -0.3781
  983MOL0     C35551  12.525   0.746   8.216 -0.0017  0.9611  0.4965
  983MOL0     O35552  12.566   0.614   8.193  0.3326  0.3520  0.4153
  983MOL0     C35553  12.494   0.541   8.101 -0.2041  0.0280 -0.4373
  983MOL0     C35554  12.513   0.395   8.139 -0.8742 -1.0406  0.1398
  983MOL0     C35555  12.505   0.359   8.291  0.0998  0.3291  0.3431
  983MOL0     C35556  12.366   0.385   8.340 -0.4201 -0.1080 -0.5479
  983MOL0     C35557  12.342   0.338   8.482 -0.8097 -0.0056  0.2975
  983MOL0     C35558  12.399   0.418   8.593  0.1257 -0.7752  0.4385
  983MOL0     C35559  12.366   0.354   8.729  0.0629 -0.4595  0.1748
  983MOL0     C35560  12.335   0.455   8.827 -0.2717  0.0004  0.0477
  983MOL0    Cl35561  12.228   0.380   8.952  0.5702  0.2565  0.1273
  983MOL0     C35562  12.461   0.829   8.128 -0.7051  0.2876  0.1782
  983MOL0     C35563  12.426   0.961   8.165  0.0027  0.1158 -1.1194
  983MOL0     O35564  12.633   1.193   8.363  0.0339  0.1037  1.2526
  983MOL0     C35565  12.376   1.351   8.497  0.5649 -0.5270  0.1169
  983MOL0     C35566  12.320   1.473   8.548  0.5541 -0.5863 -0.8465
  983MOL0     N35567  11.940   2.045   8.288 -0.0853  0.0607  0.3982
  983MOL0     N35568  11.893   2.105   8.184 -0.3506 -0.2734 -0.6107
  983MOL0     C35569  11.090   1.235   8.145  1.1345  0.3202 -0.0832
  983MOL0     C35570  10.992   1.163   8.206  0.4556  0.5346 -0.3629
  983MOL0     C35571  10.782   0.756   8.361  0.5401 -0.6957 -0.2077
  983MOL0     C35572  10.798   0.623   8.422 -0.6427 -0.5534  1.1108
  983MOL0     C35573  10.696   0.537   8.439  0.5972 -0.3373  0.1248
  983MOL0     C35574  10.566   0.572   8.408 -0.3334  0.6095 -0.1889
  983MOL0     O35575  10.470   0.484   8.453  0.0403 -0.4637 -0.5231
  983MOL0     C35576  10.336   0.508   8.412 -1.4686  0.2086  1.6529
  983MOL0     C35577  10.305   0.434   8.282 -0.0337 -0.4774 -0.2808
  983MOL0     C35578  10.337   0.279   8.292  0.4013  0.1857  0.0886
  983MOL0     C35579  10.353   0.198   8.157 -1.0672 -0.7876 -0.7349
  983MOL0     C35580  10.219   0.152   8.125 -0.8425  0.1339  0.6446
  983MOL0     C35581  10.112   0.105   8.094 -0.6932  0.2937  0.0849
  983MOL0     C35582  10.543   0.693   8.341 -0.1586 -0.0475 -0.4061
  983MOL0     C35583  10.647   0.781   8.311  0.2344  0.1292 -0.5677
  983MOL0     C35584  10.616   0.908   8.247  0.1266  0.2184  0.4436
  983MOL0     H35585  11.142   0.860   8.202  3.5083 -0.1013  0.1584
  983MOL0     H35586  11.323   0.994   8.103  1.3190  2.7547  0.3021
  983MOL0     H35587  11.282   1.454   8.113 -1.0444 -0.0283  0.4748
  983MOL0     H35588  11.223   1.407   7.959 -1.2603 -1.7925  0.3660
  983MOL0     H35589  11.525   1.397   8.025  2.7901  2.0107 -2.0094
  983MOL0     H35590  11.456   1.363   7.875 -1.8503  0.0288 -0.6311
  983MOL0     H35591  11.409   1.592   7.856 -0.8161 -2.9502  0.8762
  983MOL0     H35592  11.419   1.618   8.037  1.1421 -2.6718  1.9505
  983MOL0     H35593  11.654   1.601   8.031 -1.3382 -2.2464  0.2869
  983MOL0     H35594  11.644   1.565   7.851 -2.0586  1.9840 -1.4821
  983MOL0     H35595  11.588   1.812   8.005  1.0748  3.4657 -0.9434
  983MOL0     H35596  11.555   1.801   7.827 -0.1420 -0.6987 -1.1706
  983MOL0     H35597  11.821   1.797   7.956  1.3919 -1.2935 -2.0123
  983MOL0     H35598  11.795   1.813   7.782 -3.0330 -0.8341 -1.1742
  983MOL0     H35599  11.658   2.018   7.817  1.4277 -2.7191 -1.8724
  983MOL0     H35600  11.835   2.014   7.831 -1.1113 -1.6915 -1.7990
  983MOL0     H35601  11.748   2.163   7.993 -2.6427  0.5119 -3.2843
  983MOL0     H35602  11.616   2.075   8.035 -0.0364 -0.7461  2.8885
  983MOL0     H35603  11.754   1.810   8.176  0.4778  0.0616 -0.9512
  983MOL0     H35604  11.864   1.724   8.366 -0.2012  0.2858 -1.6425
  983MOL0     H35605  11.892   1.827   8.495 -0.0247 -3.6521  0.0071
  983MOL0     H35606  12.089   1.677   8.430 -1.3712 -0.4494 -0.9221
  983MOL0     H35607  12.108   1.775   8.282 -0.2226  1.8925 -0.5975
  983MOL0     H35608  12.142   1.975   8.450 -0.9797 -0.6472 -2.2926
  983MOL0     H35609  12.112   1.869   8.579 -0.7620 -0.8744 -2.1469
  983MOL0     H35610  12.325   1.815   8.374 -1.5712  2.8606 -0.4710
  983MOL0     H35611  12.369   1.906   8.524 -0.7648  0.3064  1.7661
  983MOL0     H35612  12.503   1.697   8.387 -0.0880  0.7462  3.7595
  983MOL0     H35613  12.722   1.468   8.284  0.2895  1.5633  2.7379
  983MOL0     H35614  12.621   1.607   8.224 -1.7509 -0.6838 -1.6681
  983MOL0     H35615  12.569   1.463   8.164 -0.0603 -1.5301  0.6778
  983MOL0     H35616  12.517   0.928   8.498  0.2764 -3.9395  0.8188
  983MOL0     H35617  12.576   0.701   8.414 -0.3954 -1.5201 -2.5453
  983MOL0     H35618  12.390   0.573   8.102 -0.2549 -0.1289  0.7261
  983MOL0     H35619  12.538   0.568   8.005 -0.3900  1.0680 -0.2393
  983MOL0     H35620  12.435   0.339   8.086 -0.0909 -3.6628  1.5866
  983MOL0     H35621  12.609   0.355   8.106 -0.3371  0.4679 -0.2239
  983MOL0     H35622  12.570   0.428   8.345 -1.1319  0.7970  1.2828
  983MOL0     H35623  12.518   0.252   8.306  2.1991  0.6397  1.1441
  983MOL0     H35624  12.315   0.325   8.265  0.7459 -1.3202 -0.4245
  983MOL0     H35625  12.346   0.492   8.329  2.4742  0.5571 -0.1790
  983MOL0     H35626  12.234   0.344   8.496 -0.6299  0.2106  1.6739
  983MOL0     H35627  12.363   0.230   8.485 -2.0155 -0.3504 -1.6408
  983MOL0     H35628  12.353   0.517   8.589  0.6621 -0.3106  3.2400
  983MOL0     H35629  12.507   0.428   8.588  0.0735 -1.0214 -2.0187
  983MOL0     H35630  12.455   0.296   8.757  0.2525  1.5844  4.6159
  983MOL0     H35631  12.273   0.296   8.726  0.6350 -1.4231  0.5146
  983MOL0     H35632  12.299   0.548   8.782 -1.1736  0.3549  1.4419
  983MOL0     H35633  12.428   0.487   8.876  0.4576  2.6208 -2.7345
  983MOL0     H35634  12.450   0.810   8.022  0.5159  4.4608 -0.8705
  983MOL0     H35635  12.375   1.021   8.090 -2.2924  0.6391  0.7518
  983MOL0     H35636  12.331   1.254   8.512  1.2172 -0.4935  2.7289
  983MOL0     H35637  12.232   1.456   8.609 -0.4441 -1.4676 -2.4375
  983MOL0     H35638  11.073   1.342   8.135  2.2704  0.5910  0.7564
  983MOL0     H35639  10.893   1.208   8.218 -1.5326 -4.0875  4.3181
  983MOL0     H35640  10.896   0.599   8.463 -1.6168 -0.5161  3.6457
  983MOL0     H35641  10.718   0.448   8.498  1.9591 -0.6665 -0.8366
  983MOL0     H35642  10.265   0.481   8.491 -0.7995  2.1565  2.9915
  983MOL0     H35643  10.317   0.614   8.395  0.6062  0.1825 -1.8846
  983MOL0     H35644  10.357   0.485   8.201  0.7874 -2.7041 -1.2373
  983MOL0     H35645  10.199   0.446   8.258 -0.5988 -0.9219  1.7643
  983MOL0     H35646  10.436   0.277   8.340 -0.6834  0.1942  2.4656
  983MOL0     H35647  10.250   0.242   8.347 -2.6280  3.9492 -1.7472
  983MOL0     H35648  10.417   0.113   8.181  3.9914  2.9155  0.9260
  983MOL0     H35649  10.394   0.268   8.082 -0.0616 -0.7612 -0.1839
  983MOL0     H35650  10.022   0.048   8.078 -1.2840  0.2621  2.9552
  983MOL0     H35651  10.449   0.707   8.289  0.7688  2.1515 -1.6621
  983MOL0     H35652  10.665   0.916   8.150 -1.4947  1.3554 -0.3151
  983MOL0     H35653  10.511   0.903   8.217  0.3149 -0.7382 -0.0798
  983MOL0     H35654  10.631   0.994   8.313 -1.7030  0.5446  0.4930
  984MOL0     O35655   9.445   6.241   2.480  0.4412  0.5778  0.3690
  984MOL0     C35656   9.545   6.254   2.558  0.0164 -1.0067  0.5967
  984MOL0     O35657   9.667   6.194   2.551 -0.5654 -0.1003  0.2669
  984MOL0     C35658   9.690   6.113   2.437  0.0870  0.3785 -0.7837
  984MOL0     C35659   9.769   6.004   2.458 -0.0077  0.5443  0.4021
  984MOL0     C35660   9.767   5.898   2.364 -0.5166  0.0114 -0.8985
  984MOL0     C35661   9.701   5.895   2.244  0.4187 -0.1208 -0.2240
  984MOL0     O35662   9.689   5.793   2.149 -0.3302  0.4070 -0.0838
  984MOL0     C35663   9.569   5.722   2.165 -0.1472 -0.4448  0.5269
  984MOL0     C35664   9.562   5.590   2.080 -0.9651  0.0797 -0.4692
  984MOL0     C35665   9.448   5.503   2.135  1.4530  0.0048 -0.0169
  984MOL0     C35666   9.430   5.381   2.034  0.3421 -0.1784  0.3144
  984MOL0     C35667   9.299   5.314   2.043  0.5315  0.0150  0.4203
  984MOL0     C35668   9.280   5.200   1.934 -0.7186  0.4493 -0.2394
  984MOL0     C35669   9.166   5.104   1.977 -0.1173  0.4143 -0.8138
  984MOL0     C35670   9.212   4.963   2.004  0.6619  0.3005 -0.9704
  984MOL0     N35671   9.194   4.880   1.887 -0.2925  0.2952  0.3554
  984MOL0     C35672   9.258   4.895   1.759  0.1437  0.7503 -1.4062
  984MOL0     C35673   9.241   4.767   1.707 -0.1434  0.7716 -0.6776
  984MOL0     C35674   9.274   4.735   1.566 -0.1591 -0.1958  0.0346
  984MOL0     C35675   9.360   4.611   1.547 -0.6099  0.9549 -0.3574
  984MOL0     C35676   9.502   4.619   1.601  1.1425 -0.3937 -0.3325
  984MOL0     C35677   9.606   4.704   1.518  0.3379  1.2179  0.5837
  984MOL0     O35678   9.584   4.844   1.562 -0.5387 -0.1261 -0.4507
  984MOL0     C35679   9.605   4.941   1.475 -0.0062 -0.8098 -0.1257
  984MOL0     C35680   9.565   5.072   1.505 -0.2598 -0.2180  0.4059
  984MOL0     C35681   9.606   5.187   1.439 -0.0383  1.0457  0.9527
  984MOL0     C35682   9.569   5.313   1.501  0.5940 -0.5102  0.4156
  984MOL0     C35683   9.682   5.164   1.321  0.1321 -0.2573 -0.7996
  984MOL0     C35684   9.721   5.285   1.242  0.5392  0.6763  0.3123
  984MOL0     O35685   9.614   5.377   1.210  0.0769 -0.1550  0.2083
  984MOL0     C35686   9.658   5.472   1.118  0.2143 -1.0182  0.1905
  984MOL0     C35687   9.755   5.564   1.152  0.4100 -0.6006 -0.0483
  984MOL0     C35688   9.783   5.675   1.061  0.2002 -0.0323 -0.4998
  984MOL0     C35689   9.727   5.698   0.938  0.1615 -0.4741  0.7619
  984MOL0     O35690   9.762   5.807   0.866 -0.2635  0.1354  0.0996
  984MOL0     C35691   9.709   5.805   0.731  0.0764  0.8169 -0.4904
  984MOL0     C35692   9.773   5.921   0.657  0.1278 -1.2524  0.1368
  984MOL0     C35693   9.749   5.932   0.507 -0.9767  0.1162  0.0253
  984MOL0     C35694   9.886   5.946   0.433 -0.5553 -0.6966  0.5112
  984MOL0     C35695   9.844   5.986   0.290  0.2007 -0.1112  0.1895
  984MOL0     C35696   9.825   6.140   0.285 -0.7014  0.0934  0.4808
  984MOL0     C35697   9.699   6.173   0.196  0.0809  0.2817 -0.5976
  984MOL0     C35698   9.704   6.326   0.170  0.7846  0.4586 -1.0362
  984MOL0    Cl35699   9.821   6.356   0.033  0.0050 -0.2275  0.6761
  984MOL0     C35700   9.637   5.603   0.901  0.3999  0.1030  0.5464
  984MOL0     C35701   9.594   5.495   0.990 -1.3161  0.4821  0.2282
  984MOL0     O35702   9.831   5.283   1.185  0.0323 -0.5501  0.6728
  984MOL0     C35703   9.734   5.039   1.287  0.4113 -0.4228 -0.0538
  984MOL0     C35704   9.693   4.926   1.363 -0.2927 -0.0276 -0.1694
  984MOL0     N35705   9.204   4.669   1.804 -0.0104 -0.5686 -0.6432
  984MOL0     N35706   9.171   4.746   1.908 -1.4153 -0.3220 -0.2936
  984MOL0     C35707   9.632   6.021   2.205 -0.6123  0.4428 -0.6191
  984MOL0     C35708   9.636   6.129   2.298 -0.9817  0.5600 -0.9450
  984MOL0     C35709   9.523   6.366   2.648  0.8189  0.0605 -0.5226
  984MOL0     C35710   9.629   6.446   2.701  0.5065  0.6982 -0.4063
  984MOL0     C35711   9.614   6.553   2.786  0.4660 -0.0868 -0.1193
  984MOL0     C35712   9.488   6.587   2.831 -0.4630 -0.1267  0.2974
  984MOL0     O35713   9.475   6.689   2.920  0.1248 -0.1212 -0.0588
  984MOL0     C35714   9.410   6.800   2.869 -0.0003  0.2193  0.4340
  984MOL0     C35715   9.423   6.929   2.958  0.5370 -0.3753  0.0779
  984MOL0     C35716   9.302   6.934   3.042 -0.1397 -0.4949  0.0582
  984MOL0     C35717   9.302   7.050   3.134  0.0360 -0.3070 -0.1156
  984MOL0     C35718   9.344   7.171   3.081 -1.3754 -0.6932  0.1968
  984MOL0     C35719   9.377   7.274   3.030 -0.7758  0.5912  0.1913
  984MOL0     C35720   9.383   6.499   2.789  0.1106  0.0564 -0.2084
  984MOL0     C35721   9.397   6.394   2.698 -0.1542 -0.6323 -0.0739
  984MOL0     C35722   9.272   6.310   2.678 -1.4360  0.9602 -0.2110
  984MOL0     H35723   9.820   5.994   2.553  1.0081  2.5512  0.1289
  984MOL0     H35724   9.825   5.813   2.397  1.2671  1.8524  1.0081
  984MOL0     H35725   9.477   5.770   2.130 -2.3218 -3.7874  1.1148
  984MOL0     H35726   9.555   5.690   2.269 -3.1094 -1.5856 -0.1202
  984MOL0     H35727   9.537   5.619   1.977 -2.8886 -0.5966 -0.2398
  984MOL0     H35728   9.655   5.533   2.089 -0.9016  0.2815  0.2067
  984MOL0     H35729   9.473   5.452   2.229  0.8545  0.6444  0.4987
  984MOL0     H35730   9.351   5.553   2.139  1.4409 -0.0851  1.4815
  984MOL0     H35731   9.434   5.422   1.933  0.6983 -0.9283  0.0172
  984MOL0     H35732   9.504   5.306   2.063 -0.2024 -0.4951  0.9178
  984MOL0     H35733   9.209   5.376   2.042 -0.1125 -0.6327  4.2164
  984MOL0     H35734   9.289   5.257   2.135  0.5136 -0.9431 -0.1596
  984MOL0     H35735   9.253   5.248   1.839  0.2136 -0.5150 -1.0152
  984MOL0     H35736   9.369   5.145   1.903 -0.4200  1.8530 -2.0973
  984MOL0     H35737   9.102   5.096   1.889  1.6511 -0.9251 -2.0498
  984MOL0     H35738   9.096   5.142   2.052 -1.5236  1.0141 -2.3708
  984MOL0     H35739   9.317   4.972   2.032 -0.1690  1.5632  2.2370
  984MOL0     H35740   9.159   4.918   2.089  1.4001 -3.1478 -2.1470
  984MOL0     H35741   9.287   4.978   1.695  1.8864  0.3456 -1.1866
  984MOL0     H35742   9.327   4.819   1.520  1.9649 -2.6931 -2.5013
  984MOL0     H35743   9.180   4.726   1.511 -0.1275 -0.2596 -0.0102
  984MOL0     H35744   9.304   4.529   1.594  0.6975  0.2326 -0.0196
  984MOL0     H35745   9.354   4.582   1.442 -3.7344 -1.5709  0.3462
  984MOL0     H35746   9.491   4.663   1.701 -2.6576 -0.4830 -0.5457
  984MOL0     H35747   9.546   4.524   1.632  2.9665  1.3075  2.7798
  984MOL0     H35748   9.706   4.661   1.525 -1.4993 -4.4396 -1.7593
  984MOL0     H35749   9.574   4.689   1.414 -2.0138 -0.6205  1.4861
  984MOL0     H35750   9.499   5.083   1.590  1.6791  1.2791  1.8378
  984MOL0     H35751   9.626   5.403   1.476 -0.4193  0.6479  2.0572
  984MOL0     H35752   9.578   5.299   1.609  1.9291 -1.5933  0.1877
  984MOL0     H35753   9.464   5.338   1.484  1.1561  0.6050 -1.7497
  984MOL0     H35754   9.815   5.569   1.242  5.1649  3.5846 -2.9176
  984MOL0     H35755   9.855   5.744   1.104  0.8714 -1.0362  0.0219
  984MOL0     H35756   9.744   5.714   0.682 -1.2804  0.2570 -0.4697
  984MOL0     H35757   9.599   5.809   0.723 -0.0668 -0.0644  0.7798
  984MOL0     H35758   9.741   6.011   0.710 -3.9379 -0.8842 -2.4872
  984MOL0     H35759   9.882   5.914   0.669  0.4959  2.8206  0.7927
  984MOL0     H35760   9.689   6.022   0.494 -1.6645 -0.2899  0.3381
  984MOL0     H35761   9.695   5.843   0.472 -2.0676 -0.0784  2.0447
  984MOL0     H35762   9.929   5.846   0.444  1.0624 -0.0693  0.3246
  984MOL0     H35763   9.958   6.020   0.470  0.3534 -0.2132 -1.9930
  984MOL0     H35764   9.932   5.968   0.227  0.7668  2.3399  0.2100
  984MOL0     H35765   9.759   5.938   0.241 -1.4292  4.1102 -1.5575
  984MOL0     H35766   9.911   6.183   0.233 -0.9886 -0.0825 -0.1481
  984MOL0     H35767   9.820   6.178   0.388 -1.3454 -0.2163  0.5687
  984MOL0     H35768   9.613   6.133   0.251  1.5679 -2.9939 -0.3924
  984MOL0     H35769   9.708   6.132   0.094  2.4963  0.8980 -0.6935
  984MOL0     H35770   9.733   6.380   0.261  1.1406 -0.4978 -0.5671
  984MOL0     H35771   9.599   6.347   0.151 -1.2255  0.3565  6.5438
  984MOL0     H35772   9.594   5.613   0.802  5.5504  0.6212 -1.9894
  984MOL0     H35773   9.511   5.429   0.969 -0.4569 -0.0172 -1.8649
  984MOL0     H35774   9.807   5.027   1.208  2.1556 -1.3890  1.6241
  984MOL0     H35775   9.733   4.829   1.335 -2.5163 -0.0181 -4.1572
  984MOL0     H35776   9.588   6.030   2.107  3.0989  0.2563 -2.4763
  984MOL0     H35777   9.572   6.213   2.273 -3.0880 -0.8718 -0.6660
  984MOL0     H35778   9.732   6.430   2.671  0.4148 -1.2532  0.1919
  984MOL0     H35779   9.693   6.612   2.832  1.4247 -3.6088  3.2708
  984MOL0     H35780   9.450   6.822   2.769 -1.5733  0.6680 -0.1430
  984MOL0     H35781   9.304   6.774   2.856  0.5443 -2.6181  1.1571
  984MOL0     H35782   9.415   7.014   2.890  2.7335 -0.5111 -0.4384
  984MOL0     H35783   9.508   6.934   3.026  1.0858  0.9198 -0.6773
  984MOL0     H35784   9.221   6.952   2.971  2.4649  0.1099 -3.0121
  984MOL0     H35785   9.295   6.840   3.097  2.1831 -1.7995 -1.7249
  984MOL0     H35786   9.371   7.011   3.210 -0.0312 -2.9973 -1.3337
  984MOL0     H35787   9.202   7.065   3.177 -1.0017 -1.8938 -1.8382
  984MOL0     H35788   9.414   7.360   2.976 -0.4210  1.6689  2.0554
  984MOL0     H35789   9.286   6.524   2.830 -0.1949 -0.4184 -0.6298
  984MOL0     H35790   9.238   6.307   2.574 -1.5585 -0.1755 -0.1432
  984MOL0     H35791   9.290   6.203   2.691 -1.6617  0.8593 -0.7202
  984MOL0     H35792   9.191   6.338   2.746 -1.2907 -1.8043  1.1999
  985MOL0     O35793   2.883   4.414   7.514  0.1602  0.2156  0.2023
  985MOL0     C35794   2.805   4.497   7.555 -0.8817  0.7236  0.6719
  985MOL0     O35795   2.684   4.520   7.495  0.9360  0.3731  0.0818
  985MOL0     C35796   2.694   4.530   7.360 -0.1529  0.4199 -1.2598
  985MOL0     C35797   2.721   4.664   7.309  0.7034  0.1181 -0.4358
  985MOL0     C35798   2.726   4.679   7.169  0.2146 -0.5813  0.5428
  985MOL0     C35799   2.713   4.577   7.078 -0.0462  0.1653  0.0203
  985MOL0     O35800   2.724   4.599   6.941 -0.3536  0.2883  0.1297
  985MOL0     C35801   2.645   4.701   6.888  0.0780  0.1201 -0.0634
  985MOL0     C35802   2.638   4.713   6.738  0.7023 -0.6788  0.5026
  985MOL0     C35803   2.770   4.746   6.670 -0.3494  0.2867 -0.2750
  985MOL0     C35804   2.760   4.675   6.529  0.0166  0.3971  0.2794
  985MOL0     C35805   2.747   4.768   6.405  0.4887  0.5203 -0.3835
  985MOL0     C35806   2.891   4.820   6.365 -0.5359  0.3481 -0.6265
  985MOL0     C35807   2.893   4.917   6.244 -0.1233  0.4785  0.0234
  985MOL0     C35808   3.023   4.991   6.228  0.3538 -0.0967  0.1217
  985MOL0     N35809   3.135   4.901   6.213  0.7447  0.2712  0.6125
  985MOL0     C35810   3.215   4.837   6.304  0.4116 -0.2176 -0.1637
  985MOL0     C35811   3.299   4.763   6.227  0.1035  0.1222 -0.4485
  985MOL0     C35812   3.383   4.658   6.295 -0.2939  0.8952 -0.3679
  985MOL0     C35813   3.335   4.518   6.257 -0.0353 -0.1427 -0.1463
  985MOL0     C35814   3.193   4.485   6.310 -0.0456 -0.1328 -1.2804
  985MOL0     C35815   3.175   4.331   6.337  0.2584 -0.1180  1.4029
  985MOL0     O35816   3.250   4.278   6.450  0.2384 -0.1819  0.1631
  985MOL0     C35817   3.226   4.325   6.575  0.1742  1.1934 -0.3453
  985MOL0     C35818   3.339   4.347   6.649  0.5312 -1.1484 -1.0703
  985MOL0     C35819   3.334   4.426   6.763 -0.8140 -0.0841 -0.0553
  985MOL0     C35820   3.471   4.453   6.825  0.1691 -0.4706  0.9881
  985MOL0     C35821   3.207   4.474   6.813 -0.7168  0.0598 -0.9609
  985MOL0     C35822   3.192   4.550   6.935  0.3154 -0.7089 -0.1799
  985MOL0     O35823   3.069   4.560   6.994  0.6914  0.2909 -0.6825
  985MOL0     C35824   3.061   4.639   7.104  0.1005 -0.1487 -0.0200
  985MOL0     C35825   3.069   4.775   7.096 -0.7237 -0.8915  0.3902
  985MOL0     C35826   3.045   4.857   7.205  0.3556  0.9387  1.1414
  985MOL0     C35827   3.015   4.799   7.330 -0.6475 -0.1337 -0.1459
  985MOL0     O35828   3.014   4.889   7.440  0.2555 -0.3664  0.3917
  985MOL0     C35829   3.050   4.830   7.569 -0.9004  0.4255  0.2699
  985MOL0     C35830   3.012   4.924   7.684  0.9564 -0.2026 -0.5834
  985MOL0     C35831   2.863   4.946   7.686 -1.0102 -0.8601  0.2663
  985MOL0     C35832   2.824   5.071   7.609 -0.0115  0.3093 -0.3993
  985MOL0     C35833   2.685   5.046   7.545 -0.6537  0.7661 -0.2837
  985MOL0     C35834   2.643   5.171   7.469 -0.2526  0.8000 -0.5257
  985MOL0     C35835   2.704   5.185   7.333 -0.0227  0.2263 -0.1256
  985MOL0     C35836   2.625   5.122   7.223 -0.3722  0.2958 -0.4736
  985MOL0    Cl35837   2.690   5.131   7.067  0.2571  0.8757 -0.3469
  985MOL0     C35838   3.017   4.667   7.347 -0.4958  0.0383  0.2540
  985MOL0     C35839   3.040   4.590   7.236 -0.5099  0.2702  0.1880
  985MOL0     O35840   3.296   4.611   6.961  0.2417 -1.4836 -0.3466
  985MOL0     C35841   3.091   4.456   6.732 -0.6737  1.6930 -0.6760
  985MOL0     C35842   3.100   4.374   6.615 -0.1721 -0.1896  0.2441
  985MOL0     N35843   3.279   4.798   6.095 -0.4965  0.5313 -0.1344
  985MOL0     N35844   3.184   4.885   6.094  0.1779  0.2055  0.6661
  985MOL0     C35845   2.676   4.446   7.128 -0.0934 -1.1258  0.7905
  985MOL0     C35846   2.664   4.431   7.263 -0.8463 -0.1841 -0.1357
  985MOL0     C35847   2.819   4.557   7.689 -1.1300  0.2733  0.4924
  985MOL0     C35848   2.699   4.605   7.754 -0.2632 -0.1794 -0.3995
  985MOL0     C35849   2.714   4.668   7.883  0.8568 -0.8782 -0.1375
  985MOL0     C35850   2.831   4.679   7.957 -0.2681  0.2137  0.4890
  985MOL0     O35851   2.830   4.757   8.067  0.3386  0.2284 -1.2057
  985MOL0     C35852   2.958   4.794   8.128  0.0061 -0.8609 -0.0551
  985MOL0     C35853   2.961   4.899   8.246  0.6905 -0.1987 -0.2622
  985MOL0     C35854   2.866   4.869   8.350  0.3846  0.4562 -0.7045
  985MOL0     C35855   2.900   4.739   8.427  0.0206  0.4300 -0.3324
  985MOL0     C35856   3.007   4.776   8.521  0.9230  0.0269  0.3570
  985MOL0     C35857   3.112   4.811   8.576 -0.0363 -0.9452 -0.2797
  985MOL0     C35858   2.944   4.632   7.898 -0.1900 -0.7718 -0.6906
  985MOL0     C35859   2.934   4.559   7.774  0.3141 -0.4293 -0.3191
  985MOL0     C35860   3.062   4.492   7.724 -0.4365 -0.1246 -0.4208
  985MOL0     H35861   2.740   4.741   7.383 -1.3123 -0.7510  1.0752
  985MOL0     H35862   2.737   4.778   7.126 -3.9009 -0.6349 -1.1100
  985MOL0     H35863   2.706   4.790   6.910 -1.5475  1.1829  0.3335
  985MOL0     H35864   2.548   4.710   6.938 -0.1448  0.5104 -0.5607
  985MOL0     H35865   2.589   4.617   6.720 -2.6472  1.1863 -1.0021
  985MOL0     H35866   2.559   4.780   6.703  0.2320 -1.8522 -0.7760
  985MOL0     H35867   2.771   4.855   6.659 -2.3367  0.1400 -2.9292
  985MOL0     H35868   2.859   4.710   6.723 -1.3945 -1.4019  0.4063
  985MOL0     H35869   2.840   4.601   6.521  0.3802  0.5173  2.1712
  985MOL0     H35870   2.669   4.617   6.512  0.3888  0.2554 -1.3806
  985MOL0     H35871   2.682   4.855   6.423 -0.6276 -0.0093 -1.7090
  985MOL0     H35872   2.703   4.703   6.329  0.3220 -1.1255  1.0588
  985MOL0     H35873   2.919   4.883   6.451 -0.4009 -0.0838 -0.3513
  985MOL0     H35874   2.964   4.741   6.349  0.2520  1.1002 -0.8320
  985MOL0     H35875   2.813   4.991   6.256  1.5388  2.1282  1.5517
  985MOL0     H35876   2.870   4.862   6.152 -1.5606  1.9658 -0.5457
  985MOL0     H35877   3.012   5.057   6.141 -0.9853 -2.2276 -1.4393
  985MOL0     H35878   3.028   5.063   6.310  0.7187  0.2396 -0.1890
  985MOL0     H35879   3.212   4.839   6.412  3.1906  1.0743 -0.0402
  985MOL0     H35880   3.379   4.670   6.404 -0.5505  1.5077 -0.4398
  985MOL0     H35881   3.490   4.671   6.275 -0.5952  1.2561 -1.8666
  985MOL0     H35882   3.339   4.500   6.150  1.7319  2.8063 -0.6502
  985MOL0     H35883   3.401   4.443   6.301  0.5964 -0.3251 -1.3963
  985MOL0     H35884   3.176   4.530   6.409  1.1241 -1.4694 -0.4306
  985MOL0     H35885   3.121   4.529   6.241 -0.4194  1.0227 -0.1953
  985MOL0     H35886   3.068   4.307   6.337  0.5771 -1.7230  2.4028
  985MOL0     H35887   3.208   4.291   6.241  0.4988  1.2545  0.8914
  985MOL0     H35888   3.430   4.315   6.600  0.2836 -1.9059 -1.0460
  985MOL0     H35889   3.491   4.559   6.840 -0.0312 -0.0629 -1.2992
  985MOL0     H35890   3.546   4.410   6.758 -2.5379 -1.1636 -1.8377
  985MOL0     H35891   3.481   4.409   6.925  0.0574  1.2126  1.7737
  985MOL0     H35892   3.096   4.816   6.999  2.0451 -2.5593  0.3337
  985MOL0     H35893   3.040   4.964   7.189  1.8168  0.8096 -0.4077
  985MOL0     H35894   3.006   4.735   7.600  1.7895 -0.0416  3.1735
  985MOL0     H35895   3.157   4.806   7.566 -1.4883 -2.4320 -0.6180
  985MOL0     H35896   3.040   4.869   7.775  1.1651 -0.0723 -0.5694
  985MOL0     H35897   3.053   5.024   7.674 -2.3277  1.2497 -0.9397
  985MOL0     H35898   2.846   4.970   7.791 -1.5198  0.5156 -0.1202
  985MOL0     H35899   2.811   4.859   7.643 -0.2066 -1.4290  0.4154
  985MOL0     H35900   2.890   5.090   7.524 -3.2123  3.0742 -2.5403
  985MOL0     H35901   2.841   5.164   7.664  1.9620 -1.2914  1.9343
  985MOL0     H35902   2.686   4.963   7.474  2.1567  1.7391 -1.5121
  985MOL0     H35903   2.621   5.026   7.631  1.7052  0.4834  1.4756
  985MOL0     H35904   2.682   5.261   7.515 -1.2253  2.9999 -3.6808
  985MOL0     H35905   2.533   5.169   7.476 -0.1920 -0.4182  0.5353
  985MOL0     H35906   2.801   5.135   7.333 -0.6610 -1.0668  0.3301
  985MOL0     H35907   2.721   5.291   7.313 -1.4835  0.3373 -0.9197
  985MOL0     H35908   2.527   5.170   7.212  1.1963  3.9128  0.0268
  985MOL0     H35909   2.614   5.018   7.257  1.9896  0.1567  0.0440
  985MOL0     H35910   3.020   4.615   7.442  3.5821 -0.9137 -0.2110
  985MOL0     H35911   3.039   4.483   7.254 -0.9403  0.3077  0.4094
  985MOL0     H35912   2.999   4.498   6.770 -1.3924 -0.6248  0.3277
  985MOL0     H35913   3.012   4.355   6.554 -0.2010  4.5603 -1.6458
  985MOL0     H35914   2.656   4.370   7.053 -2.6165  1.7915 -1.8170
  985MOL0     H35915   2.631   4.331   7.287  1.6908 -1.2984 -0.9143
  985MOL0     H35916   2.602   4.596   7.708  1.9290 -3.0191 -5.2491
  985MOL0     H35917   2.630   4.693   7.947  1.3989 -0.8160  0.5655
  985MOL0     H35918   3.014   4.708   8.167 -2.1382 -2.6990 -0.8225
  985MOL0     H35919   3.029   4.837   8.057  1.9732  0.0178  2.2697
  985MOL0     H35920   2.945   4.997   8.198  0.9214  0.2670  0.5918
  985MOL0     H35921   3.065   4.902   8.278  1.4204 -1.0956 -2.3664
  985MOL0     H35922   2.849   4.940   8.432 -0.8947 -3.4084  2.7317
  985MOL0     H35923   2.774   4.864   8.291 -1.5935  3.5847  1.7808
  985MOL0     H35924   2.924   4.663   8.352 -2.7943  0.3197 -1.2267
  985MOL0     H35925   2.817   4.707   8.491  1.6651  0.9130  2.1936
  985MOL0     H35926   3.194   4.847   8.634  1.6506 -2.3586 -1.6478
  985MOL0     H35927   3.040   4.618   7.946 -1.9066  0.8050  3.8031
  985MOL0     H35928   3.114   4.548   7.646 -0.7883  0.1511 -0.4592
  985MOL0     H35929   3.136   4.515   7.802  1.6111  2.2584 -2.8643
  985MOL0     H35930   3.062   4.386   7.700 -1.9726  0.1697 -1.9327
  986MOL0     O35931   4.981   4.407   4.665 -0.3228  1.2495  0.5371
  986MOL0     C35932   4.959   4.290   4.625 -0.8718 -1.3951  0.3874
  986MOL0     O35933   5.034   4.175   4.661  0.5998 -0.4855 -0.1850
  986MOL0     C35934   5.159   4.182   4.720 -0.1586  1.0608 -0.2727
  986MOL0     C35935   5.185   4.059   4.773 -0.1868  0.5071 -0.0595
  986MOL0     C35936   5.301   4.048   4.846 -0.4527  0.8718 -0.2744
  986MOL0     C35937   5.394   4.145   4.857  1.4856 -0.2577  0.7405
  986MOL0     O35938   5.509   4.102   4.917  0.4375 -0.6336 -0.6194
  986MOL0     C35939   5.570   4.204   5.010  0.2346 -0.3552 -0.4179
  986MOL0     C35940   5.674   4.139   5.103 -0.2319 -0.8236  0.6346
  986MOL0     C35941   5.612   4.068   5.221  0.5257 -0.5462  0.8404
  986MOL0     C35942   5.702   3.963   5.293 -0.6692  0.4272  0.7785
  986MOL0     C35943   5.613   3.906   5.405 -0.6500 -0.0798 -0.8657
  986MOL0     C35944   5.700   3.783   5.476 -0.4266  0.0770 -0.9918
  986MOL0     C35945   5.717   3.667   5.388  0.7105 -0.5771 -0.6931
  986MOL0     C35946   5.821   3.564   5.437  1.4364  0.0083  0.0980
  986MOL0     N35947   5.764   3.472   5.542 -0.5833  0.2646 -0.0061
  986MOL0     C35948   5.641   3.405   5.546 -0.5585  0.1510 -0.2700
  986MOL0     C35949   5.644   3.342   5.660 -0.3283  0.3609 -0.9829
  986MOL0     C35950   5.522   3.240   5.696 -0.6051 -0.5263  0.2220
  986MOL0     C35951   5.549   3.170   5.823 -0.3946 -0.4787 -0.6533
  986MOL0     C35952   5.430   3.084   5.869 -1.2776 -0.4584  0.4007
  986MOL0     C35953   5.439   3.046   6.022 -0.0538 -0.1178 -0.1085
  986MOL0     O35954   5.555   2.965   6.054 -0.0473 -0.6519  0.0141
  986MOL0     C35955   5.568   2.908   6.179  0.5567  1.0162  0.0693
  986MOL0     C35956   5.671   2.810   6.184 -0.4997 -0.8905 -0.0732
  986MOL0     C35957   5.715   2.743   6.292 -0.6890 -0.8650 -1.1142
  986MOL0     C35958   5.833   2.641   6.274 -0.9151  0.0759 -0.1790
  986MOL0     C35959   5.649   2.775   6.422 -0.0384  0.5541  0.3413
  986MOL0     C35960   5.703   2.711   6.536  0.1522  0.1830 -0.4022
  986MOL0     O35961   5.602   2.668   6.619 -0.3187 -0.6584 -0.0893
  986MOL0     C35962   5.625   2.636   6.753 -0.0686 -0.0172  0.9673
  986MOL0     C35963   5.703   2.718   6.842 -0.1406 -0.0580  0.6057
  986MOL0     C35964   5.732   2.672   6.973  0.1986 -0.3440  0.8417
  986MOL0     C35965   5.659   2.569   7.030  1.9463 -0.5783  0.9801
  986MOL0     O35966   5.683   2.553   7.168 -0.2757  1.1964 -0.1369
  986MOL0     C35967   5.614   2.441   7.234 -0.2325 -0.0068 -0.5835
  986MOL0     C35968   5.668   2.433   7.381  0.7207 -0.0929 -0.4698
  986MOL0     C35969   5.614   2.305   7.462  0.1474 -0.3367  0.4906
  986MOL0     C35970   5.698   2.280   7.590  0.3716 -0.6397  1.4771
  986MOL0     C35971   5.599   2.216   7.704 -1.1061 -0.0816  0.9345
  986MOL0     C35972   5.673   2.178   7.832 -0.6374 -0.3459 -0.1148
  986MOL0     C35973   5.743   2.309   7.886  1.2117  0.0964  0.1718
  986MOL0     C35974   5.809   2.285   8.019  0.0174 -0.0547  0.5768
  986MOL0    Cl35975   5.947   2.185   8.005  0.1671  0.3105 -0.8919
  986MOL0     C35976   5.575   2.493   6.945  0.3057  0.1712  0.0403
  986MOL0     C35977   5.562   2.526   6.809 -0.1132  0.4220  0.4625
  986MOL0     O35978   5.825   2.709   6.557  0.2628 -0.6467 -0.1058
  986MOL0     C35979   5.541   2.872   6.424 -0.0862  1.0391  0.4548
  986MOL0     C35980   5.501   2.938   6.301 -0.0406 -0.3173 -0.3297
  986MOL0     N35981   5.768   3.358   5.723  0.2246 -0.2763 -0.3207
  986MOL0     N35982   5.839   3.441   5.653  0.5464  0.3590  0.7041
  986MOL0     C35983   5.377   4.263   4.793  0.1828 -0.5297 -0.6228
  986MOL0     C35984   5.255   4.282   4.732  0.3330 -0.0302  0.2224
  986MOL0     C35985   4.840   4.263   4.540 -0.1868  0.4361 -0.8182
  986MOL0     C35986   4.801   4.123   4.527  0.2437  0.4513 -0.0288
  986MOL0     C35987   4.691   4.084   4.461  0.9747 -0.6401  0.8934
  986MOL0     C35988   4.611   4.184   4.398  0.0952  0.9520 -0.6334
  986MOL0     O35989   4.497   4.150   4.336  0.1903 -0.2078 -0.2582
  986MOL0     C35990   4.493   4.179   4.193 -0.0435  0.2106 -0.6163
  986MOL0     C35991   4.557   4.066   4.116 -0.3873 -0.1176 -1.0531
  986MOL0     C35992   4.469   3.931   4.113  1.0264 -0.0285  0.1733
  986MOL0     C35993   4.551   3.806   4.084  0.1790 -0.2546 -0.1103
  986MOL0     C35994   4.529   3.696   4.187 -0.5548 -0.0410  0.2495
  986MOL0     C35995   4.521   3.603   4.262  0.1029  0.5415 -0.2374
  986MOL0     C35996   4.648   4.319   4.408 -0.2437  0.7615  0.2124
  986MOL0     C35997   4.763   4.358   4.481  0.5069  0.1164  0.0774
  986MOL0     C35998   4.780   4.500   4.494 -0.0805  0.3426 -0.6426
  986MOL0     H35999   5.111   3.980   4.783 -0.2920  0.4063 -1.4891
  986MOL0     H36000   5.333   3.954   4.889  0.0786  0.9249 -0.5500
  986MOL0     H36001   5.498   4.268   5.063 -0.9301 -0.8725 -1.3199
  986MOL0     H36002   5.621   4.272   4.940 -1.6617 -0.6930 -2.2371
  986MOL0     H36003   5.719   4.056   5.048  0.6169 -0.7642  1.2196
  986MOL0     H36004   5.752   4.208   5.136 -0.1321 -0.6734  0.0928
  986MOL0     H36005   5.563   4.133   5.295 -1.5943  0.7675 -1.5473
  986MOL0     H36006   5.522   4.023   5.179 -1.5597  3.3758  0.5899
  986MOL0     H36007   5.740   3.883   5.228  0.1041  1.5206 -0.1399
  986MOL0     H36008   5.793   4.006   5.336 -0.3102  0.0159  0.4449
  986MOL0     H36009   5.516   3.876   5.364 -3.0372  4.4620  0.7718
  986MOL0     H36010   5.594   3.984   5.479  0.6651 -2.0795  1.7377
  986MOL0     H36011   5.801   3.820   5.496  0.0850 -1.3242 -0.9099
  986MOL0     H36012   5.654   3.748   5.568  2.8711  1.9225  1.5818
  986MOL0     H36013   5.760   3.706   5.296  0.0536 -1.8235 -1.5617
  986MOL0     H36014   5.623   3.614   5.368  0.5219  0.4496 -2.7415
  986MOL0     H36015   5.842   3.515   5.342  0.6954 -0.7933  0.3385
  986MOL0     H36016   5.908   3.607   5.487 -1.2987  2.4269  3.3036
  986MOL0     H36017   5.575   3.415   5.460  0.6107 -1.8278 -1.4716
  986MOL0     H36018   5.510   3.181   5.605 -1.9117  2.2788 -1.5802
  986MOL0     H36019   5.427   3.295   5.702 -0.3570  0.2994 -2.3007
  986MOL0     H36020   5.638   3.109   5.807  2.0111  2.1854  1.3961
  986MOL0     H36021   5.574   3.252   5.891 -0.4759 -1.5369  0.6811
  986MOL0     H36022   5.333   3.134   5.858 -1.2574 -0.5641 -0.3086
  986MOL0     H36023   5.434   2.990   5.813  1.6041 -1.5795  2.2371
  986MOL0     H36024   5.425   3.130   6.089 -0.9948 -1.2547  1.1671
  986MOL0     H36025   5.365   2.974   6.059 -0.8357  1.5034  1.6385
  986MOL0     H36026   5.736   2.806   6.097  1.5787  1.4818  1.2129
  986MOL0     H36027   5.827   2.615   6.168 -4.6605  1.0359 -0.3426
  986MOL0     H36028   5.817   2.556   6.340  3.9297 -0.1532  1.0929
  986MOL0     H36029   5.925   2.695   6.298  0.3892 -2.1347  0.0753
  986MOL0     H36030   5.758   2.802   6.800  0.7266  1.2940  4.1180
  986MOL0     H36031   5.811   2.730   7.021 -0.3226  1.8943 -0.7811
  986MOL0     H36032   5.505   2.451   7.233 -0.1539  1.4981 -3.1354
  986MOL0     H36033   5.639   2.351   7.177 -2.7175 -1.0885 -0.0909
  986MOL0     H36034   5.775   2.412   7.388  0.5131 -0.7530  3.8414
  986MOL0     H36035   5.650   2.527   7.434  1.7554  1.0555 -2.0918
  986MOL0     H36036   5.604   2.220   7.395 -1.2184  0.1748  0.0108
  986MOL0     H36037   5.510   2.319   7.495 -1.1297 -2.2506 -2.3165
  986MOL0     H36038   5.747   2.372   7.625 -0.4898 -0.5019  2.3936
  986MOL0     H36039   5.783   2.213   7.575  2.1083  1.7252  0.0294
  986MOL0     H36040   5.529   2.300   7.713 -1.6413 -0.0366 -2.4059
  986MOL0     H36041   5.550   2.131   7.656 -0.5372 -1.9417  3.4530
  986MOL0     H36042   5.752   2.102   7.833  1.1196  1.3967 -0.4154
  986MOL0     H36043   5.599   2.141   7.903 -2.3379  2.0137 -0.5490
  986MOL0     H36044   5.658   2.378   7.889 -0.1679 -1.3845 -2.0185
  986MOL0     H36045   5.819   2.355   7.822  0.8960  0.7493  0.2540
  986MOL0     H36046   5.738   2.225   8.076 -1.6168 -1.4919 -2.6691
  986MOL0     H36047   5.835   2.378   8.070  1.5657  0.6469 -1.3851
  986MOL0     H36048   5.517   2.409   6.981 -0.1277  2.1218  4.6255
  986MOL0     H36049   5.513   2.464   6.735  4.0738 -0.6010 -1.7474
  986MOL0     H36050   5.507   2.898   6.524  1.5793 -0.2588  1.4190
  986MOL0     H36051   5.426   3.015   6.313 -0.2649  0.3844 -4.7793
  986MOL0     H36052   5.453   4.341   4.796 -0.3870  0.0080  1.3515
  986MOL0     H36053   5.238   4.381   4.692  2.4777  0.0891 -0.5045
  986MOL0     H36054   4.857   4.049   4.584  2.7665  4.4709  3.2288
  986MOL0     H36055   4.652   3.982   4.461 -0.7908 -0.0545  3.1208
  986MOL0     H36056   4.388   4.152   4.184  0.3109 -2.0213  0.8635
  986MOL0     H36057   4.526   4.277   4.156  2.6541 -0.5556 -0.5014
  986MOL0     H36058   4.654   4.042   4.161 -1.9333 -1.7417  1.7145
  986MOL0     H36059   4.576   4.105   4.016 -0.4896 -0.8929 -1.3814
  986MOL0     H36060   4.411   3.926   4.205 -2.4629  0.9196 -1.7815
  986MOL0     H36061   4.396   3.946   4.033  3.0510  4.7198 -1.1809
  986MOL0     H36062   4.660   3.816   4.079  0.4359 -2.8656 -1.6941
  986MOL0     H36063   4.528   3.757   3.989 -1.3133  1.8468 -0.9125
  986MOL0     H36064   4.520   3.532   4.343 -2.8280 -0.0594 -0.6849
  986MOL0     H36065   4.579   4.394   4.372  1.2170  1.6527 -0.8175
  986MOL0     H36066   4.888   4.517   4.489  0.2290 -1.6080 -1.2233
  986MOL0     H36067   4.730   4.564   4.420  2.6464  4.4165  0.6322
  986MOL0     H36068   4.738   4.541   4.586  2.6237  1.7167  0.0788
  987MOL0     O36069   9.464   0.786   9.651 -0.3090  0.3971  0.2277
  987MOL0     C36070   9.516   0.726   9.745  0.1559  0.2247  0.1896
  987MOL0     O36071   9.517   0.770   9.874 -0.7077  0.4085 -0.1600
  987MOL0     C36072   9.500   0.909   9.886 -1.2397 -0.7177 -0.8497
  987MOL0     C36073   9.383   0.949   9.943 -0.0016 -0.2050 -0.1596
  987MOL0     C36074   9.364   1.084   9.974 -0.4782  0.2237  0.2741
  987MOL0     C36075   9.437   1.185   9.922 -0.8950 -0.2193  0.3210
  987MOL0     O36076   9.406   1.318   9.912 -0.7343 -0.6194  0.5456
  987MOL0     C36077   9.297   1.375   9.982  0.0511 -0.7289 -0.7826
  987MOL0     C36078   9.202   1.456   9.889  0.5091  0.1228 -0.1316
  987MOL0     C36079   9.168   1.600   9.932 -0.9336 -0.0549 -1.0845
  987MOL0     C36080   9.034   1.642   9.877  0.1366 -0.0527  0.5791
  987MOL0     C36081   9.005   1.779   9.934  0.0573  1.4220  0.9469
  987MOL0     C36082   8.920   1.846   9.836  0.8135 -0.3445  0.0984
  987MOL0     C36083   8.813   1.944   9.888 -0.9926  0.2016 -0.0135
  987MOL0     C36084   8.767   2.018   9.752  0.4979 -0.1590  0.0403
  987MOL0     N36085   8.648   2.109   9.790 -0.9182  0.8011  0.2885
  987MOL0     C36086   8.656   2.227   9.856  0.1143 -0.2849 -0.3532
  987MOL0     C36087   8.534   2.277   9.855 -0.5386 -0.8154 -0.7886
  987MOL0     C36088   8.492   2.416   9.904  0.4328 -0.4409 -0.2263
  987MOL0     C36089   8.543   2.434  10.047 -0.2391 -0.9805 -0.2483
  987MOL0     C36090   8.490   2.319  10.138 -0.7285 -0.1433  0.3847
  987MOL0     C36091   8.558   2.319  10.267 -0.5388 -0.3999 -1.1363
  987MOL0     O36092   8.528   2.202  10.344 -1.0284 -0.2363 -0.3018
  987MOL0     C36093   8.602   2.083  10.327 -0.0492 -0.4402  0.2705
  987MOL0     C36094   8.577   1.978  10.421 -0.6095  1.2200 -0.6369
  987MOL0     C36095   8.653   1.857  10.432 -0.4275 -0.4328 -0.3739
  987MOL0     C36096   8.602   1.752  10.535  0.6243 -0.8037  0.5375
  987MOL0     C36097   8.762   1.841  10.339  0.5328  0.3775 -0.5213
  987MOL0     C36098   8.844   1.722  10.338  0.0960  0.4767  0.0807
  987MOL0     O36099   8.979   1.726  10.322 -0.5144 -1.2524 -0.5316
  987MOL0     C36100   9.058   1.615  10.331 -0.3363 -0.8157 -0.2809
  987MOL0     C36101   9.024   1.479  10.333  0.9281  0.1585  0.0967
  987MOL0     C36102   9.118   1.377  10.349  0.1027  0.1731  0.4864
  987MOL0     C36103   9.249   1.408  10.379 -0.4280  0.6834  0.0217
  987MOL0     O36104   9.353   1.320  10.388  0.0299 -1.2271 -0.1184
  987MOL0     C36105   9.356   1.195  10.320  0.1065  0.4454  0.1925
  987MOL0     C36106   9.292   1.080  10.397 -0.5385 -0.4790  0.5988
  987MOL0     C36107   9.321   0.931  10.347 -1.1119  0.6243 -0.3834
  987MOL0     C36108   9.229   0.832  10.410 -0.4100 -0.0592 -0.5743
  987MOL0     C36109   9.289   0.687  10.400 -0.4830 -0.6542 -0.1516
  987MOL0     C36110   9.427   0.661  10.456 -0.2942  0.4250  0.3300
  987MOL0     C36111   9.453   0.507  10.467 -0.4298 -0.0917  1.2957
  987MOL0     C36112   9.513   0.462  10.328 -0.3040 -0.3208  0.4743
  987MOL0    Cl36113   9.375   0.405  10.213 -0.0905 -0.0084  0.1519
  987MOL0     C36114   9.282   1.541  10.391  0.1445  1.1670  0.0408
  987MOL0     C36115   9.191   1.639  10.360  0.2498 -0.1271 -0.4758
  987MOL0     O36116   8.778   1.619  10.337  0.2526  0.4723  0.5110
  987MOL0     C36117   8.794   1.940  10.252  0.5587 -0.5389  0.3711
  987MOL0     C36118   8.708   2.057  10.241 -0.6940  0.4436  0.1100
  987MOL0     N36119   8.450   2.183   9.806 -0.3612  0.4267  0.1377
  987MOL0     N36120   8.521   2.085   9.764 -0.6337 -0.1164 -0.6260
  987MOL0     C36121   9.559   1.150   9.867  0.3308  0.2942  0.5257
  987MOL0     C36122   9.593   1.010   9.864 -0.4175 -0.5787  0.7454
  987MOL0     C36123   9.580   0.598   9.716  0.1920 -0.2547 -0.1494
  987MOL0     C36124   9.499   0.490   9.662  0.5127 -0.8505 -0.4592
  987MOL0     C36125   9.558   0.374   9.616 -0.0550 -0.8939  0.2961
  987MOL0     C36126   9.702   0.354   9.627  0.4029  0.0671  0.4619
  987MOL0     O36127   9.754   0.247   9.569 -0.3649  0.3756  0.9327
  987MOL0     C36128   9.891   0.229   9.547  0.1928  0.9038 -0.8659
  987MOL0     C36129   9.947   0.277   9.421  0.4746  0.6197 -0.2517
  987MOL0     C36130  10.056   0.189   9.366 -0.2858 -0.1825  0.1836
  987MOL0     C36131  10.125   0.243   9.243  1.2568  1.3993  1.4892
  987MOL0     C36132  10.036   0.280   9.133 -0.1356 -0.0660  0.4632
  987MOL0     C36133   9.954   0.308   9.050 -0.3820 -0.8569  0.1697
  987MOL0     C36134   9.779   0.468   9.673 -0.2754 -0.1241 -0.0398
  987MOL0     C36135   9.717   0.583   9.718 -0.5541  0.1851 -1.4654
  987MOL0     C36136   9.808   0.701   9.758 -0.0142  0.3753 -0.3725
  987MOL0     H36137   9.305   0.877   9.968 -3.2362  2.3721 -2.0893
  987MOL0     H36138   9.264   1.092  10.014 -0.5778  1.9534 -0.2527
  987MOL0     H36139   9.339   1.447  10.052  0.3198  0.8021 -2.4285
  987MOL0     H36140   9.240   1.308  10.047  1.6705  0.6487  2.2376
  987MOL0     H36141   9.230   1.445   9.784 -0.1945  0.0031 -0.3163
  987MOL0     H36142   9.106   1.403   9.900  1.3247 -1.5721 -0.9110
  987MOL0     H36143   9.157   1.601  10.041 -0.3321  1.8433 -0.9948
  987MOL0     H36144   9.253   1.658   9.895  0.6837  0.7791  3.3531
  987MOL0     H36145   9.039   1.642   9.767  1.2148 -0.3802  0.6121
  987MOL0     H36146   8.960   1.564   9.898  0.3805 -0.4661 -0.0472
  987MOL0     H36147   9.088   1.847   9.957 -0.2866  1.7312  1.2958
  987MOL0     H36148   8.963   1.761  10.033  1.3436 -3.2898  0.8472
  987MOL0     H36149   8.983   1.896   9.762  1.9450 -2.0975 -0.1868
  987MOL0     H36150   8.861   1.773   9.780  3.0517 -0.0375 -2.8701
  987MOL0     H36151   8.838   2.010   9.972 -3.5145  2.4156 -0.8504
  987MOL0     H36152   8.746   1.868   9.930  2.3644 -3.8694 -1.3250
  987MOL0     H36153   8.849   2.081   9.716 -1.5970  2.6613 -0.1918
  987MOL0     H36154   8.736   1.948   9.674 -0.9737  2.1507 -1.5869
  987MOL0     H36155   8.739   2.285   9.895 -1.0410 -0.2262  2.2518
  987MOL0     H36156   8.384   2.428   9.910  0.6949  1.4024  3.4872
  987MOL0     H36157   8.529   2.495   9.838 -1.0552 -1.6552 -2.6419
  987MOL0     H36158   8.651   2.421  10.036 -0.6024 -4.1431 -0.9609
  987MOL0     H36159   8.520   2.532  10.092  3.6664  0.7863 -1.5990
  987MOL0     H36160   8.381   2.326  10.150 -0.7309  0.5055 -0.0034
  987MOL0     H36161   8.510   2.220  10.097  2.4591  0.4356  0.3284
  987MOL0     H36162   8.667   2.325  10.258 -0.4503  0.4589  0.2331
  987MOL0     H36163   8.526   2.405  10.327 -1.7286 -2.1963  0.9288
  987MOL0     H36164   8.495   2.008  10.487 -1.0145  0.0242 -0.5809
  987MOL0     H36165   8.687   1.695  10.574  0.7480 -0.4679  0.7685
  987MOL0     H36166   8.537   1.683  10.481 -0.0556  0.7875 -0.7511
  987MOL0     H36167   8.554   1.794  10.624 -0.5113  0.2451 -0.5434
  987MOL0     H36168   8.920   1.454  10.318 -0.7107  5.3974  0.6446
  987MOL0     H36169   9.081   1.274  10.351  2.2839 -0.6750 -0.1281
  987MOL0     H36170   9.319   1.195  10.217  0.0095 -0.0572  0.2280
  987MOL0     H36171   9.463   1.172  10.311  0.6036  2.4448  0.3565
  987MOL0     H36172   9.323   1.076  10.502  1.3702 -2.6679  0.0235
  987MOL0     H36173   9.189   1.109  10.378 -0.9900 -1.8779  0.7979
  987MOL0     H36174   9.422   0.910  10.382 -0.2436  3.3660 -0.9522
  987MOL0     H36175   9.334   0.918  10.239 -0.5663  2.5244 -0.5942
  987MOL0     H36176   9.130   0.836  10.365 -1.7855  2.4565  2.3058
  987MOL0     H36177   9.212   0.864  10.513 -4.4424 -1.3862 -0.6594
  987MOL0     H36178   9.226   0.608  10.441  0.9644 -1.4386  0.6386
  987MOL0     H36179   9.290   0.674  10.292  2.4230  2.5928 -0.7058
  987MOL0     H36180   9.426   0.696  10.560  0.8131 -0.7587  0.7662
  987MOL0     H36181   9.509   0.710  10.404 -0.7356 -0.6791 -1.4901
  987MOL0     H36182   9.365   0.448  10.492 -1.0220 -0.2321 -0.9551
  987MOL0     H36183   9.531   0.490  10.542 -1.8063 -2.5464  2.2783
  987MOL0     H36184   9.582   0.377  10.327 -0.4092 -0.4518 -1.6430
  987MOL0     H36185   9.570   0.544  10.283 -0.6941  0.5509  1.5409
  987MOL0     H36186   9.386   1.567  10.410  1.2423 -1.6097 -1.5366
  987MOL0     H36187   9.216   1.743  10.378  1.9019 -0.7348  1.0255
  987MOL0     H36188   8.881   1.928  10.189 -0.0742 -0.5740 -0.5120
  987MOL0     H36189   8.740   2.123  10.161 -0.3458 -0.6892 -0.6912
  987MOL0     H36190   9.623   1.225   9.820  2.6193 -0.1157  2.7796
  987MOL0     H36191   9.691   0.984   9.826 -0.6513 -3.0495  1.6985
  987MOL0     H36192   9.394   0.516   9.651  0.7160 -0.5824 -2.0172
  987MOL0     H36193   9.504   0.290   9.573 -3.0712 -0.6476  3.2151
  987MOL0     H36194   9.951   0.261   9.632 -1.2872 -1.1864  1.1010
  987MOL0     H36195   9.899   0.120   9.543 -0.6739  0.6925  1.4614
  987MOL0     H36196   9.972   0.381   9.441 -1.5475  0.8592  1.3760
  987MOL0     H36197   9.859   0.276   9.356 -0.7393  1.1063  1.3217
  987MOL0     H36198  10.133   0.163   9.440 -1.1947  0.6043  1.4394
  987MOL0     H36199  10.000   0.098   9.343 -0.1256 -0.9080  2.3651
  987MOL0     H36200  10.202   0.167   9.222 -0.1193  0.5088 -0.6843
  987MOL0     H36201  10.162   0.341   9.275  2.6466  2.3452 -2.4209
  987MOL0     H36202   9.897   0.310   8.959 -1.8634 -2.7719  0.9688
  987MOL0     H36203   9.886   0.457   9.670 -0.2083 -0.2072  1.7171
  987MOL0     H36204   9.908   0.666   9.730 -0.0690 -0.0254 -0.0762
  987MOL0     H36205   9.788   0.790   9.697  2.7545  1.7589  0.5627
  987MOL0     H36206   9.802   0.719   9.866 -2.1582 -0.8793 -0.2378
  988MOL0     O36207  10.627   1.934   9.183 -0.4447  0.3383  0.8495
  988MOL0     C36208  10.740   1.881   9.149 -0.5798 -0.7748  0.3000
  988MOL0     O36209  10.835   1.851   9.242  0.4981  0.2999 -0.4531
  988MOL0     C36210  10.967   1.840   9.209  0.4876  0.3902 -0.9418
  988MOL0     C36211  11.028   1.715   9.229 -0.9392 -0.2426  1.1780
  988MOL0     C36212  11.165   1.710   9.201  0.3445  0.5828  0.7381
  988MOL0     C36213  11.242   1.818   9.160 -0.2179  0.5487 -0.3017
  988MOL0     O36214  11.375   1.792   9.156 -0.1110  0.9588  0.2656
  988MOL0     C36215  11.463   1.897   9.123  0.2137  0.0056  0.5773
  988MOL0     C36216  11.598   1.831   9.083  0.3567  0.7247  0.3577
  988MOL0     C36217  11.581   1.724   8.978  0.3628 -1.1382 -0.8624
  988MOL0     C36218  11.713   1.672   8.930  0.4349 -0.1987 -0.0545
  988MOL0     C36219  11.795   1.772   8.849 -0.4796  0.0064  0.7280
  988MOL0     C36220  11.925   1.711   8.789 -0.0300 -0.0339  0.3537
  988MOL0     C36221  12.003   1.616   8.881  0.2737  0.3511  0.1790
  988MOL0     C36222  12.064   1.687   8.996  1.4830 -0.1789 -0.2608
  988MOL0     N36223  12.194   1.745   8.963  0.5410  0.7834  0.0032
  988MOL0     C36224  12.288   1.712   8.864  0.8266 -0.4331 -0.3533
  988MOL0     C36225  12.394   1.794   8.893  0.4963 -0.0380 -0.3839
  988MOL0     C36226  12.535   1.793   8.839  0.9198 -0.3614 -1.4246
  988MOL0     C36227  12.609   1.659   8.815  0.5099 -0.0195 -0.5648
  988MOL0     C36228  12.696   1.598   8.922 -0.5790 -0.0686  1.0223
  988MOL0     C36229  12.648   1.598   9.063 -0.4658 -0.5557 -0.9692
  988MOL0     O36230  12.533   1.509   9.077 -0.5608 -0.2799 -0.6320
  988MOL0     C36231  12.461   1.524   9.195 -0.1345 -0.2428  0.2000
  988MOL0     C36232  12.524   1.508   9.317 -0.1541 -0.5774 -0.3133
  988MOL0     C36233  12.459   1.495   9.436 -0.6273 -1.1814 -0.5519
  988MOL0     C36234  12.535   1.476   9.569  0.3447  0.1366  0.0987
  988MOL0     C36235  12.318   1.491   9.434  0.2840  0.2239 -0.4676
  988MOL0     C36236  12.239   1.493   9.559  0.2986  1.2369  0.0701
  988MOL0     O36237  12.286   1.558   9.664 -0.3308  0.1133  0.4974
  988MOL0     C36238  12.225   1.574   9.788  0.1710 -0.2367 -0.5028
  988MOL0     C36239  12.291   1.659   9.883  0.0251  0.2194  0.7632
  988MOL0     C36240  12.235   1.675  10.010 -0.6412  0.0774 -0.8371
  988MOL0     C36241  12.121   1.609  10.055 -0.7371  0.8218  0.5537
  988MOL0     O36242  12.074   1.626  10.174  0.7265  1.0883  0.2006
  988MOL0     C36243  12.142   1.589  10.295  0.4493 -0.6003 -0.7834
  988MOL0     C36244  12.064   1.622  10.421 -0.6288  0.2307  0.0665
  988MOL0     C36245  12.063   1.774  10.442 -0.1706 -0.0482  0.7792
  988MOL0     C36246  12.022   1.799  10.593  0.2760 -0.3538  0.5539
  988MOL0     C36247  12.051   1.942  10.619 -0.7141 -0.2437  1.2954
  988MOL0     C36248  12.000   1.980  10.753  1.1638 -0.0866  0.3521
  988MOL0     C36249  12.054   2.116  10.797 -0.1997 -0.5053  1.1415
  988MOL0     C36250  11.933   2.208  10.818 -0.8929 -0.1309 -0.7049
  988MOL0    Cl36251  11.857   2.256  10.667  0.0102 -0.2100  0.2808
  988MOL0     C36252  12.056   1.514   9.965 -0.2013 -0.0667  0.3147
  988MOL0     C36253  12.111   1.513   9.837 -0.1448  0.6449  0.6480
  988MOL0     O36254  12.139   1.412   9.566  0.4408 -0.0626 -0.0714
  988MOL0     C36255  12.253   1.492   9.305  0.0599  0.5833  0.6575
  988MOL0     C36256  12.322   1.511   9.190  0.0047 -0.1860 -0.5178
  988MOL0     N36257  12.367   1.881   9.000  0.2630  0.2391 -0.2381
  988MOL0     N36258  12.246   1.850   9.040 -1.0583  0.1297  0.6475
  988MOL0     C36259  11.182   1.941   9.151 -0.2155 -0.8974  0.1681
  988MOL0     C36260  11.042   1.955   9.173  0.2187 -0.3429 -0.1205
  988MOL0     C36261  10.760   1.852   9.004  0.4964 -0.0879 -0.0199
  988MOL0     C36262  10.810   1.729   8.955 -1.5482  0.0804 -0.5182
  988MOL0     C36263  10.835   1.706   8.822  0.9152 -0.4769 -0.1806
  988MOL0     C36264  10.808   1.799   8.732 -0.9444 -0.3037  1.0263
  988MOL0     O36265  10.816   1.778   8.593  0.6041 -0.3722 -0.2914
  988MOL0     C36266  10.904   1.685   8.532  0.5927  0.3696 -0.3312
  988MOL0     C36267  10.874   1.684   8.388  0.7210  1.0960 -0.1365
  988MOL0     C36268  10.876   1.813   8.304 -0.6985  0.4918  0.4014
  988MOL0     C36269  10.905   1.766   8.163  0.0815  0.3145  0.9312
  988MOL0     C36270  10.893   1.872   8.061  0.1349 -0.8821  0.1951
  988MOL0     C36271  10.868   1.957   7.975 -0.4224  0.4442  1.4571
  988MOL0     C36272  10.758   1.921   8.773 -0.4467  0.1869  0.7845
  988MOL0     C36273  10.723   1.947   8.905  0.0087 -1.2781 -0.6745
  988MOL0     C36274  10.657   2.080   8.922  0.9553  0.5552 -0.0265
  988MOL0     H36275  10.972   1.627   9.260  2.4774 -2.0134  2.9416
  988MOL0     H36276  11.220   1.617   9.200  0.9917  0.7758  4.5912
  988MOL0     H36277  11.477   1.965   9.207  4.7199  1.0968 -0.7730
  988MOL0     H36278  11.435   1.957   9.036  2.3804  2.4057  1.4338
  988MOL0     H36279  11.656   1.913   9.042  0.9540 -1.3197 -3.3136
  988MOL0     H36280  11.646   1.784   9.169  1.3685 -2.0063 -1.5650
  988MOL0     H36281  11.524   1.643   9.026 -1.8868  0.0816 -1.3296
  988MOL0     H36282  11.527   1.752   8.888 -0.1357  0.7963 -0.0172
  988MOL0     H36283  11.769   1.637   9.018  1.8274  1.7341 -0.1114
  988MOL0     H36284  11.693   1.589   8.862 -1.0441 -0.4781  0.6801
  988MOL0     H36285  11.834   1.860   8.902  2.2594 -2.5981  3.4429
  988MOL0     H36286  11.736   1.806   8.764  0.7122  1.1670  0.3353
  988MOL0     H36287  11.909   1.644   8.704  0.6243 -0.2828  0.4192
  988MOL0     H36288  11.989   1.794   8.759 -1.1360  0.9649  0.6891
  988MOL0     H36289  12.082   1.571   8.820 -1.6501 -2.8011 -0.2076
  988MOL0     H36290  11.939   1.531   8.907  0.8783  0.1038  0.9160
  988MOL0     H36291  11.992   1.766   9.017  2.0755 -0.0727  1.5170
  988MOL0     H36292  12.070   1.624   9.085 -0.5151  2.5974  2.0067
  988MOL0     H36293  12.281   1.632   8.792 -1.3001 -1.0065  0.4240
  988MOL0     H36294  12.599   1.847   8.909 -1.6238  0.4613  0.4343
  988MOL0     H36295  12.535   1.849   8.746 -0.2221  2.4827  0.1608
  988MOL0     H36296  12.543   1.592   8.761  1.7520 -1.2936 -0.5667
  988MOL0     H36297  12.681   1.681   8.735  1.9222 -1.1136  0.3438
  988MOL0     H36298  12.720   1.495   8.893 -2.6886 -0.5426  0.7760
  988MOL0     H36299  12.781   1.664   8.940 -1.0458  0.4041  1.5413
  988MOL0     H36300  12.723   1.564   9.135  0.6036  1.8743 -0.8461
  988MOL0     H36301  12.632   1.705   9.084  3.7700  0.3592 -1.6007
  988MOL0     H36302  12.632   1.498   9.320 -0.0961 -0.1204 -0.7098
  988MOL0     H36303  12.638   1.440   9.563 -0.0226 -1.4411  2.2292
  988MOL0     H36304  12.481   1.401   9.627 -1.0592  0.1982 -1.0662
  988MOL0     H36305  12.532   1.561   9.639 -0.4279 -0.4806  0.8363
  988MOL0     H36306  12.375   1.719   9.847 -0.3231 -0.7817 -1.9730
  988MOL0     H36307  12.277   1.740  10.085 -1.8784 -2.9038  2.7195
  988MOL0     H36308  12.167   1.483  10.295  0.6758 -0.6506  2.7237
  988MOL0     H36309  12.239   1.639  10.303 -0.2307  0.9522 -1.8128
  988MOL0     H36310  11.964   1.583  10.399  0.2063 -0.0318 -3.9702
  988MOL0     H36311  12.104   1.562  10.503  1.5334  0.7088 -0.5625
  988MOL0     H36312  11.999   1.830  10.373  1.9704  0.6948 -0.7203
  988MOL0     H36313  12.159   1.823  10.418 -1.3884  1.2476 -1.8292
  988MOL0     H36314  12.085   1.737  10.656  2.7183  2.8266  1.4799
  988MOL0     H36315  11.914   1.790  10.612  0.0561  2.1622  0.8681
  988MOL0     H36316  12.160   1.946  10.612 -0.8721  1.6036 -3.6746
  988MOL0     H36317  12.027   2.004  10.532 -0.3864  1.0120  2.0715
  988MOL0     H36318  12.056   1.910  10.816  2.9578  0.6818 -0.3349
  988MOL0     H36319  11.891   1.973  10.761  0.9267 -2.0265 -2.7127
  988MOL0     H36320  12.110   2.157  10.713  0.3951 -1.2018  1.1890
  988MOL0     H36321  12.120   2.123  10.884  3.0222  3.7068 -1.2439
  988MOL0     H36322  11.960   2.302  10.865  3.8430 -0.1609 -2.7941
  988MOL0     H36323  11.864   2.149  10.879  0.5798 -3.3989 -1.9515
  988MOL0     H36324  11.977   1.448   9.999 -0.6894 -2.0643 -4.0685
  988MOL0     H36325  12.070   1.424   9.790  2.2495 -0.2016  0.0018
  988MOL0     H36326  12.146   1.475   9.296  0.1996  0.7798 -2.2002
  988MOL0     H36327  12.282   1.517   9.089  1.2881  2.8499 -0.9474
  988MOL0     H36328  11.238   2.033   9.134 -0.6565 -0.9092 -1.5167
  988MOL0     H36329  10.992   2.047   9.145 -1.6631 -1.1368  0.4967
  988MOL0     H36330  10.840   1.654   9.027 -2.3012 -2.0347 -2.2963
  988MOL0     H36331  10.877   1.609   8.798  0.6390 -0.4658 -0.7109
  988MOL0     H36332  11.002   1.733   8.543  1.3187 -1.2305  0.4186
  988MOL0     H36333  10.905   1.582   8.567  0.2339  0.3578 -0.3494
  988MOL0     H36334  10.780   1.630   8.370  0.2160  1.9661 -0.1685
  988MOL0     H36335  10.950   1.610   8.361  2.4576  2.8635 -0.2903
  988MOL0     H36336  10.774   1.850   8.320 -1.6646 -1.6450 -0.4222
  988MOL0     H36337  10.955   1.877   8.344  1.4263 -0.6110 -1.8198
  988MOL0     H36338  10.827   1.698   8.126  1.5977 -0.7368 -0.4632
  988MOL0     H36339  11.000   1.712   8.160  1.2492  2.0918  2.9701
  988MOL0     H36340  10.849   2.025   7.894  2.2057 -1.4971 -0.9762
  988MOL0     H36341  10.710   1.982   8.697 -2.0282  0.4815  1.9707
  988MOL0     H36342  10.565   2.086   8.864  1.3330  1.5186 -0.5573
  988MOL0     H36343  10.625   2.114   9.021 -1.8234  5.4743 -2.2354
  988MOL0     H36344  10.734   2.152   8.893  3.1503 -1.0296  1.5914
  989MOL0     O36345   4.605   0.157  10.606  0.2763 -0.6664  0.0307
  989MOL0     C36346   4.519   0.159  10.511  0.0035 -0.1279 -0.3006
  989MOL0     O36347   4.414   0.248  10.501  0.0069  0.0216  0.3727
  989MOL0     C36348   4.403   0.357  10.579 -0.8784  0.0656  0.0347
  989MOL0     C36349   4.277   0.397  10.637 -1.0697 -0.2762  0.1720
  989MOL0     C36350   4.258   0.531  10.681 -0.8901 -0.4989 -0.9846
  989MOL0     C36351   4.372   0.618  10.678  0.5532 -0.4639  0.1189
  989MOL0     O36352   4.368   0.742  10.729 -0.2094 -0.8688  0.4554
  989MOL0     C36353   4.379   0.737  10.866  0.0832  0.1766 -0.3013
  989MOL0     C36354   4.401   0.875  10.930  0.6362 -0.1513 -1.1443
  989MOL0     C36355   4.304   0.884  11.047 -0.5589 -1.1733  0.9424
  989MOL0     C36356   4.319   1.020  11.117 -0.0991  0.4344  0.6729
  989MOL0     C36357   4.229   1.018  11.237  0.1893  0.4788  0.5715
  989MOL0     C36358   4.198   1.148  11.295 -0.1213 -0.8412 -0.1381
  989MOL0     C36359   4.093   1.161  11.398 -0.3472  0.0271  0.1397
  989MOL0     C36360   4.127   1.079  11.527 -0.2434  0.5144 -0.4106
  989MOL0     N36361   4.080   0.931  11.521  0.4009 -0.1154 -0.0730
  989MOL0     C36362   3.964   0.880  11.475 -0.6176  0.3784  0.1986
  989MOL0     C36363   3.978   0.742  11.477  0.0748  0.2269  0.3020
  989MOL0     C36364   3.884   0.637  11.407  0.4579  0.4513 -0.1078
  989MOL0     C36365   3.891   0.632  11.254 -0.2698  0.1350 -0.3112
  989MOL0     C36366   4.029   0.600  11.196 -0.7703  0.7776 -0.1508
  989MOL0     C36367   4.021   0.554  11.046  0.7836 -0.0092  0.1261
  989MOL0     O36368   4.141   0.502  10.995 -1.4292 -0.2736 -0.1092
  989MOL0     C36369   4.209   0.387  11.046  0.2757 -0.1047 -0.6124
  989MOL0     C36370   4.336   0.369  10.991  0.1666  0.3667  0.1778
  989MOL0     C36371   4.418   0.257  11.025 -0.2087  0.5591 -0.3644
  989MOL0     C36372   4.548   0.249  10.942  0.0833 -0.2379  0.4686
  989MOL0     C36373   4.374   0.162  11.119 -0.4739 -0.0054 -0.0201
  989MOL0     C36374   4.464   0.058  11.170 -0.2937  0.1675  0.3781
  989MOL0     O36375   4.407  -0.017  11.266 -0.7805  0.0431 -0.0752
  989MOL0     C36376   4.490  -0.092  11.346 -1.0431 -0.3181  0.1729
  989MOL0     C36377   4.483  -0.082  11.478  0.2492 -0.3360  0.5060
  989MOL0     C36378   4.568  -0.160  11.567 -1.0440  0.3034  0.6638
  989MOL0     C36379   4.635  -0.275  11.510 -0.2752 -0.2961  0.2377
  989MOL0     O36380   4.679  -0.378  11.585  0.8907 -0.4393  0.1306
  989MOL0     C36381   4.619  -0.498  11.559 -0.1445 -0.0157 -0.1606
  989MOL0     C36382   4.684  -0.629  11.626 -0.4060 -0.8580 -0.8553
  989MOL0     C36383   4.836  -0.638  11.594  0.1311 -0.7301  0.0975
  989MOL0     C36384   4.866  -0.739  11.481 -0.3430 -0.1335  0.5708
  989MOL0     C36385   5.007  -0.714  11.423  0.7673 -0.0336  0.6479
  989MOL0     C36386   5.014  -0.815  11.303  0.0805 -0.3081  0.0428
  989MOL0     C36387   5.142  -0.790  11.221  0.8110  0.1847  0.1844
  989MOL0     C36388   5.144  -0.841  11.079  0.9631  0.4079 -0.3671
  989MOL0    Cl36389   5.117  -1.015  11.063  0.0323 -0.0297 -0.0168
  989MOL0     C36390   4.647  -0.273  11.367  0.9474 -0.5297 -0.3999
  989MOL0     C36391   4.588  -0.183  11.289  0.0353 -0.8112  0.0864
  989MOL0     O36392   4.578   0.063  11.140 -1.1712  0.5804  0.9632
  989MOL0     C36393   4.250   0.186  11.179 -0.1008  1.1740  0.7547
  989MOL0     C36394   4.170   0.297  11.136 -0.7058 -0.0487 -0.0243
  989MOL0     N36395   4.099   0.713  11.547  0.2544 -0.6945 -0.0378
  989MOL0     N36396   4.158   0.832  11.566  1.1402 -0.2537 -0.1312
  989MOL0     C36397   4.494   0.576  10.625  0.2443 -0.1418  0.1160
  989MOL0     C36398   4.512   0.441  10.589 -0.4185 -1.0807  0.5956
  989MOL0     C36399   4.532   0.053  10.410  0.7362 -0.0405  0.6218
  989MOL0     C36400   4.574  -0.082  10.446 -0.2769 -1.1046 -0.7583
  989MOL0     C36401   4.594  -0.185  10.353 -0.5450 -0.3787 -0.2074
  989MOL0     C36402   4.558  -0.165  10.222  0.0263  0.1519  0.1859
  989MOL0     O36403   4.549  -0.259  10.123 -0.0041 -0.4172  0.0294
  989MOL0     C36404   4.582  -0.391  10.154  0.2848 -0.3137  0.0172
  989MOL0     C36405   4.556  -0.473  10.033  0.7204 -0.6086 -0.0518
  989MOL0     C36406   4.612  -0.408   9.910 -0.5107  0.5990  0.8721
  989MOL0     C36407   4.584  -0.487   9.779  0.3308 -0.9608 -0.2197
  989MOL0     C36408   4.463  -0.435   9.707 -0.3173  1.1499 -0.6753
  989MOL0     C36409   4.377  -0.417   9.628  0.7205  0.2720 -0.3176
  989MOL0     C36410   4.512  -0.037  10.188 -0.6219 -0.7959 -1.1211
  989MOL0     C36411   4.504   0.079  10.270 -0.7939  0.4229  0.1227
  989MOL0     C36412   4.457   0.212  10.208 -0.5827  0.3892 -1.2850
  989MOL0     H36413   4.207   0.318  10.664  1.1191 -2.4054  0.0137
  989MOL0     H36414   4.169   0.568  10.732 -1.3578 -0.6290 -1.6950
  989MOL0     H36415   4.448   0.657  10.895  0.5199  0.3929 -0.7372
  989MOL0     H36416   4.278   0.703  10.888 -0.3186  1.1646 -0.5910
  989MOL0     H36417   4.506   0.892  10.956 -0.3907  2.5656  2.0073
  989MOL0     H36418   4.381   0.952  10.855 -3.6482 -0.1014 -0.1716
  989MOL0     H36419   4.199   0.871  11.019 -0.2728 -2.5448  0.4252
  989MOL0     H36420   4.328   0.811  11.124 -0.4664  1.0645  3.1519
  989MOL0     H36421   4.425   1.043  11.132  0.3596 -0.6037 -0.7654
  989MOL0     H36422   4.287   1.096  11.045  0.2511  0.6652  0.7571
  989MOL0     H36423   4.279   0.947  11.304  1.8457  2.7447  1.8999
  989MOL0     H36424   4.136   0.976  11.197  0.7538  0.9075 -1.2788
  989MOL0     H36425   4.282   1.188  11.353 -1.3616 -0.5047  1.5153
  989MOL0     H36426   4.174   1.221  11.217 -3.3596 -0.7735  0.7732
  989MOL0     H36427   4.001   1.130  11.346 -0.8761  1.7835 -0.0551
  989MOL0     H36428   4.084   1.267  11.424 -1.4442 -0.3413  1.3877
  989MOL0     H36429   4.236   1.079  11.539 -0.1712 -0.8205 -0.8706
  989MOL0     H36430   4.090   1.137  11.612  0.0426  1.7802 -1.1322
  989MOL0     H36431   3.890   0.944  11.427  0.3457  1.3264 -0.0611
  989MOL0     H36432   3.784   0.655  11.449  1.1870 -0.2770  2.1019
  989MOL0     H36433   3.912   0.537  11.443 -0.6137 -0.1119 -0.7881
  989MOL0     H36434   3.820   0.556  11.223 -1.0463  0.4806  0.5835
  989MOL0     H36435   3.850   0.728  11.222  3.4840  4.0593  4.7888
  989MOL0     H36436   4.110   0.673  11.208  0.4714 -0.2408 -1.9165
  989MOL0     H36437   4.057   0.512  11.254 -0.4316  0.3780 -0.9043
  989MOL0     H36438   3.944   0.476  11.038 -0.1094  0.9387 -1.0090
  989MOL0     H36439   3.986   0.641  10.989 -1.7420 -1.0948 -0.1541
  989MOL0     H36440   4.372   0.432  10.910 -1.2423 -1.2048 -1.7881
  989MOL0     H36441   4.627   0.291  11.005 -1.8590 -0.4356  3.2468
  989MOL0     H36442   4.543   0.305  10.848 -2.7475 -3.9081 -1.8094
  989MOL0     H36443   4.578   0.149  10.910 -1.0192 -0.1783 -0.7916
  989MOL0     H36444   4.402  -0.026  11.525  0.4650 -1.1280  1.8848
  989MOL0     H36445   4.572  -0.144  11.674 -0.0548  1.1308  0.5109
  989MOL0     H36446   4.517  -0.505  11.598  0.7510 -0.8070  2.2525
  989MOL0     H36447   4.616  -0.519  11.452 -0.7055 -1.5463  0.1201
  989MOL0     H36448   4.672  -0.604  11.732 -0.9391  1.0103 -1.3179
  989MOL0     H36449   4.626  -0.716  11.592 -2.3758 -0.1273  0.4818
  989MOL0     H36450   4.886  -0.677  11.684  0.8835 -1.3049 -0.5603
  989MOL0     H36451   4.888  -0.544  11.574 -0.5380 -0.8210 -2.2494
  989MOL0     H36452   4.793  -0.710  11.405  1.8459 -0.7826 -1.9201
  989MOL0     H36453   4.849  -0.844  11.506 -0.3007 -0.8077 -1.9818
  989MOL0     H36454   5.010  -0.610  11.390  4.1663  0.4860  2.1059
  989MOL0     H36455   5.082  -0.740  11.498 -1.0295  0.0274  2.5352
  989MOL0     H36456   4.930  -0.810  11.232  2.2690 -0.7808 -2.7515
  989MOL0     H36457   5.020  -0.920  11.333  1.1215  0.1430  1.5127
  989MOL0     H36458   5.223  -0.835  11.279  1.1101 -0.6886 -0.8783
  989MOL0     H36459   5.156  -0.682  11.223 -0.4115  0.3516  1.2082
  989MOL0     H36460   5.236  -0.815  11.027  1.2557 -0.9819 -0.5854
  989MOL0     H36461   5.066  -0.794  11.018 -2.6404 -0.1327  3.3959
  989MOL0     H36462   4.693  -0.360  11.322  0.3443 -2.1887  1.9849
  989MOL0     H36463   4.594  -0.203  11.182  2.1798 -1.2296  0.2471
  989MOL0     H36464   4.211   0.121  11.256 -0.0160  0.3867  0.1437
  989MOL0     H36465   4.079   0.318  11.191  0.1034 -2.9653  2.7382
  989MOL0     H36466   4.569   0.654  10.617  0.7577 -0.4776  1.4121
  989MOL0     H36467   4.606   0.415  10.541 -1.0828  1.7481 -2.6361
  989MOL0     H36468   4.596  -0.101  10.550 -0.3957 -1.4864 -0.8025
  989MOL0     H36469   4.633  -0.280  10.387 -0.8282 -0.2656  0.4557
  989MOL0     H36470   4.687  -0.391  10.182  0.3238 -3.1240  0.1317
  989MOL0     H36471   4.519  -0.435  10.233  2.4108  1.2529  2.7519
  989MOL0     H36472   4.448  -0.483  10.021  0.4867  2.4005 -1.2572
  989MOL0     H36473   4.607  -0.568  10.053  1.1240 -0.9044 -2.2367
  989MOL0     H36474   4.579  -0.304   9.897 -1.6991  0.1580  0.2013
  989MOL0     H36475   4.721  -0.412   9.924 -0.0430 -2.5761 -2.2467
  989MOL0     H36476   4.582  -0.592   9.810  0.5195 -1.0178 -0.3982
  989MOL0     H36477   4.669  -0.466   9.713  0.4599 -2.8729 -0.7446
  989MOL0     H36478   4.309  -0.389   9.550  0.2985 -4.1316 -1.8066
  989MOL0     H36479   4.501  -0.033  10.080 -1.6275 -1.8369 -1.0802
  989MOL0     H36480   4.536   0.286  10.219 -2.7436  3.5217 -4.7282
  989MOL0     H36481   4.428   0.195  10.104 -1.1988  0.6849 -1.1692
  989MOL0     H36482   4.367   0.257  10.251 -1.0175 -2.3391  0.9999
  990MOL0     O36483   8.475  10.978   2.053 -0.1739 -0.2621  0.9898
  990MOL0     C36484   8.500  11.045   2.157 -0.4796  0.6220 -0.2299
  990MOL0     O36485   8.616  11.108   2.189 -1.4371 -0.7752  0.3389
  990MOL0     C36486   8.674  11.202   2.097  0.1369 -0.2712 -0.2627
  990MOL0     C36487   8.801  11.251   2.128 -0.1007  0.3900  0.1920
  990MOL0     C36488   8.858  11.333   2.028  0.5093  0.2120 -1.2835
  990MOL0     C36489   8.791  11.366   1.912 -0.8697 -0.3644  0.0810
  990MOL0     O36490   8.868  11.420   1.815  0.7039 -0.9471  0.9100
  990MOL0     C36491   8.837  11.416   1.677  1.0649  0.4076 -0.7451
  990MOL0     C36492   8.868  11.274   1.616  0.2883  0.0901  0.7778
  990MOL0     C36493   8.896  11.282   1.461 -0.3855 -0.3747 -0.5313
  990MOL0     C36494   8.775  11.280   1.389  0.0104  0.1574  0.2199
  990MOL0     C36495   8.808  11.325   1.249 -0.2686  0.1644  0.7684
  990MOL0     C36496   8.682  11.299   1.162 -0.7297  0.3697 -0.6757
  990MOL0     C36497   8.680  11.402   1.051  0.1295 -0.1578  0.7806
  990MOL0     C36498   8.566  11.382   0.955 -0.3043 -0.2922  0.5746
  990MOL0     N36499   8.443  11.440   0.998  0.0357 -0.6081  0.9078
  990MOL0     C36500   8.352  11.395   1.093  0.4662 -0.1561  0.0556
  990MOL0     C36501   8.248  11.484   1.085 -0.0350  0.5332  0.9161
  990MOL0     C36502   8.112  11.478   1.143  0.5550  0.7296  0.2261
  990MOL0     C36503   8.109  11.594   1.247 -1.2869 -0.9121  0.6326
  990MOL0     C36504   7.980  11.594   1.342 -0.8330 -0.2392  0.2067
  990MOL0     C36505   7.980  11.711   1.434 -0.0761  0.0461 -0.4578
  990MOL0     O36506   7.848  11.720   1.493 -0.4446 -0.6533  0.2510
  990MOL0     C36507   7.819  11.834   1.558 -0.8660 -1.0034  0.5233
  990MOL0     C36508   7.884  11.958   1.567 -0.0713 -0.1176  0.8002
  990MOL0     C36509   7.830  12.070   1.632  0.7141  0.1844 -0.2349
  990MOL0     C36510   7.914  12.195   1.646  0.1030 -0.6515 -0.0863
  990MOL0     C36511   7.698  12.060   1.699  0.4140  0.3426 -0.8025
  990MOL0     C36512   7.620  12.170   1.765 -0.0534  0.1388 -0.1796
  990MOL0     O36513   7.695  12.286   1.790 -0.4076  0.2828  0.1857
  990MOL0     C36514   7.618  12.395   1.813 -0.5799  0.6111  0.7652
  990MOL0     C36515   7.635  12.458   1.939 -0.2626 -0.4132  0.5708
  990MOL0     C36516   7.549  12.560   1.963 -0.8533 -1.3912  0.5137
  990MOL0     C36517   7.467  12.622   1.869  0.2341  0.5000 -0.3409
  990MOL0     O36518   7.393  12.723   1.911 -0.4309 -0.0184 -0.0153
  990MOL0     C36519   7.446  12.856   1.929  0.0434 -1.1855 -0.2377
  990MOL0     C36520   7.475  12.919   1.789 -0.3568  0.0120 -0.0173
  990MOL0     C36521   7.348  12.918   1.704 -0.7502  0.7791 -0.3344
  990MOL0     C36522   7.251  13.023   1.769  0.6672 -0.8707  0.5870
  990MOL0     C36523   7.154  13.101   1.670 -0.5005 -0.8094  0.6013
  990MOL0     C36524   7.027  13.023   1.656  0.1817 -0.2329 -0.2958
  990MOL0     C36525   7.035  12.897   1.564  0.0042  0.1080 -0.4426
  990MOL0     C36526   6.903  12.857   1.501 -0.0322  1.0097  0.6303
  990MOL0    Cl36527   6.936  12.820   1.334  0.3861 -0.4767  0.3312
  990MOL0     C36528   7.456  12.560   1.741 -0.0757 -0.7348  0.3391
  990MOL0     C36529   7.526  12.446   1.716 -0.3086 -0.0664 -0.0146
  990MOL0     O36530   7.501  12.149   1.780  0.0033 -0.3267  0.1479
  990MOL0     C36531   7.646  11.932   1.692 -0.5264  0.1394 -0.4108
  990MOL0     C36532   7.696  11.826   1.615  0.0003 -0.1070  0.3057
  990MOL0     N36533   8.267  11.574   0.974  0.1000 -0.1478  0.0922
  990MOL0     N36534   8.385  11.543   0.923 -0.6221  0.3482 -0.0490
  990MOL0     C36535   8.663  11.328   1.892  0.7199  0.1678  0.2805
  990MOL0     C36536   8.599  11.244   1.982  0.4025 -0.0012 -0.2317
  990MOL0     C36537   8.400  11.046   2.273 -0.4117 -0.5740  0.3857
  990MOL0     C36538   8.291  10.974   2.259  1.8880 -0.0398  0.0884
  990MOL0     C36539   8.202  10.950   2.360 -0.3804 -0.2080 -0.3783
  990MOL0     C36540   8.209  11.018   2.481  0.0340 -0.3901  0.6317
  990MOL0     O36541   8.128  11.000   2.592 -1.1555  1.2769  1.0603
  990MOL0     C36542   8.020  10.909   2.569 -1.1399 -0.2793  0.8061
  990MOL0     C36543   7.916  10.918   2.689 -0.0253 -0.3550  0.3807
  990MOL0     C36544   7.795  10.827   2.655  0.1572  0.8075 -0.1413
  990MOL0     C36545   7.713  10.818   2.775 -0.6227  0.2191 -0.0540
  990MOL0     C36546   7.672  10.946   2.837  0.1441 -0.2522 -1.0530
  990MOL0     C36547   7.624  11.044   2.894  0.7008  0.8610 -1.0517
  990MOL0     C36548   8.314  11.119   2.496  0.8710  0.0684 -0.3722
  990MOL0     C36549   8.408  11.139   2.386 -0.5505 -0.7643 -0.7640
  990MOL0     C36550   8.524  11.235   2.425 -0.1721  1.0864 -0.3195
  990MOL0     H36551   8.860  11.231   2.217  1.3154  2.3021 -0.2708
  990MOL0     H36552   8.964  11.345   2.044  0.3949 -0.1934 -0.0639
  990MOL0     H36553   8.888  11.491   1.614  1.6176 -0.7605 -1.7351
  990MOL0     H36554   8.730  11.442   1.676  0.8207 -0.5251 -2.1637
  990MOL0     H36555   8.965  11.235   1.648  0.8903  1.5926  0.8806
  990MOL0     H36556   8.788  11.207   1.646  1.8455 -2.2840 -0.1119
  990MOL0     H36557   8.964  11.364   1.434 -0.0766  0.0693  1.4606
  990MOL0     H36558   8.962  11.199   1.434  1.9317  0.0191  3.1884
  990MOL0     H36559   8.729  11.182   1.404  1.8927 -0.4816  2.5018
  990MOL0     H36560   8.698  11.337   1.442 -1.1170 -2.0312  1.0651
  990MOL0     H36561   8.896  11.271   1.215 -0.1580  1.6653 -1.5281
  990MOL0     H36562   8.847  11.427   1.249  0.9510 -0.2642  1.9982
  990MOL0     H36563   8.682  11.199   1.118 -1.2484  2.0039 -4.8561
  990MOL0     H36564   8.588  11.298   1.217 -0.1695 -4.5902  0.6470
  990MOL0     H36565   8.766  11.403   0.984  0.2249  4.0001  0.7351
  990MOL0     H36566   8.688  11.505   1.086  2.5677  0.5818 -1.6618
  990MOL0     H36567   8.589  11.433   0.861 -0.8282 -0.4452  0.3590
  990MOL0     H36568   8.541  11.279   0.926 -1.3257 -0.8247  3.0726
  990MOL0     H36569   8.366  11.312   1.162  0.0788  0.8706  1.3972
  990MOL0     H36570   8.088  11.386   1.197 -0.1326  0.3863 -0.6511
  990MOL0     H36571   8.032  11.500   1.072 -0.9355 -0.7297  1.3604
  990MOL0     H36572   8.196  11.581   1.312  0.2048  1.8844 -0.6459
  990MOL0     H36573   8.123  11.691   1.200 -1.1957 -2.2972 -2.4380
  990MOL0     H36574   7.889  11.602   1.282  0.0537 -1.3412 -1.3437
  990MOL0     H36575   7.969  11.502   1.401  4.3513 -0.8389  0.6787
  990MOL0     H36576   8.047  11.684   1.516  0.7013 -1.5426 -1.5602
  990MOL0     H36577   8.009  11.800   1.376  2.4085  1.6222  2.8935
  990MOL0     H36578   7.974  11.983   1.511  0.4615 -1.3620  1.0522
  990MOL0     H36579   7.921  12.225   1.751 -0.0922  0.9894 -0.5142
  990MOL0     H36580   7.873  12.276   1.584  0.3520 -0.6322 -0.2305
  990MOL0     H36581   8.015  12.185   1.604 -0.3268  1.2016 -1.7178
  990MOL0     H36582   7.703  12.430   2.018 -0.6269  1.3605  1.5690
  990MOL0     H36583   7.552  12.611   2.059  0.9336  0.1833 -0.3111
  990MOL0     H36584   7.380  12.923   1.985 -0.8949 -1.1163 -1.3827
  990MOL0     H36585   7.546  12.844   1.971  0.6413  1.0081 -0.8884
  990MOL0     H36586   7.512  13.022   1.803  1.3897 -0.7176  1.0745
  990MOL0     H36587   7.559  12.868   1.741  1.2103  1.7230  0.7643
  990MOL0     H36588   7.302  12.820   1.691  1.2209 -0.2224 -0.0756
  990MOL0     H36589   7.373  12.959   1.605  1.3436  1.2242  0.3345
  990MOL0     H36590   7.309  13.105   1.812  0.6218 -1.4340  1.7344
  990MOL0     H36591   7.179  12.985   1.841  0.2255 -0.6169  0.2847
  990MOL0     H36592   7.118  13.190   1.721  0.1996  0.4299 -0.9699
  990MOL0     H36593   7.191  13.124   1.569  0.6976  0.7951  1.3745
  990MOL0     H36594   6.966  13.104   1.612  1.0111  1.8514  2.1698
  990MOL0     H36595   6.978  13.004   1.751 -0.3570 -0.6557 -0.6544
  990MOL0     H36596   7.069  12.817   1.631  0.6346  0.9490  0.2702
  990MOL0     H36597   7.098  12.928   1.480 -0.9044  0.4066 -1.0196
  990MOL0     H36598   6.816  12.922   1.516 -3.3913 -3.5090  3.4634
  990MOL0     H36599   6.859  12.776   1.560  1.3211 -1.6116 -1.7657
  990MOL0     H36600   7.383  12.611   1.678  0.1199  3.3660  3.0163
  990MOL0     H36601   7.519  12.393   1.621  0.4210 -0.6356  0.2399
  990MOL0     H36602   7.551  11.910   1.741 -0.8612 -2.3789 -2.0077
  990MOL0     H36603   7.641  11.736   1.590  0.2896 -0.6837  1.6851
  990MOL0     H36604   8.610  11.349   1.800  0.8742 -1.7885 -0.3138
  990MOL0     H36605   8.499  11.208   1.962 -0.5728  1.4613  1.6659
  990MOL0     H36606   8.270  10.910   2.174 -1.0133  1.0946 -0.1542
  990MOL0     H36607   8.120  10.881   2.346 -1.7289  1.2250  0.1430
  990MOL0     H36608   7.970  10.940   2.477  1.0621  0.3524 -0.2409
  990MOL0     H36609   8.055  10.806   2.569  0.1573  0.1298 -0.4980
  990MOL0     H36610   7.884  11.023   2.699 -0.4788 -0.7100  4.1507
  990MOL0     H36611   7.957  10.898   2.789  1.0336 -0.3555 -0.0433
  990MOL0     H36612   7.729  10.864   2.576  0.8986  0.1711 -1.0899
  990MOL0     H36613   7.838  10.727   2.639 -2.2993 -0.4168  0.4513
  990MOL0     H36614   7.777  10.764   2.846 -0.5607 -2.9348 -2.2725
  990MOL0     H36615   7.626  10.755   2.755 -1.0449  0.0726  2.0244
  990MOL0     H36616   7.565  11.115   2.948  2.1140 -0.1879  2.1241
  990MOL0     H36617   8.314  11.171   2.592  0.5953  1.7939 -1.2647
  990MOL0     H36618   8.616  11.180   2.445 -1.0470 -0.8856 -1.3520
  990MOL0     H36619   8.539  11.312   2.349  0.5221  1.1664 -0.1026
  990MOL0     H36620   8.509  11.289   2.519  0.3201  3.2578 -1.4235
  991MOL0     O36621   8.469   7.115   7.172 -0.2233  0.0862 -0.0885
  991MOL0     C36622   8.499   7.233   7.191  0.0023 -0.0145  0.4143
  991MOL0     O36623   8.616   7.278   7.256  0.4756  0.1397 -0.4191
  991MOL0     C36624   8.720   7.183   7.263  0.4695 -0.9421 -0.2523
  991MOL0     C36625   8.788   7.124   7.158 -0.3217 -0.4573  0.4994
  991MOL0     C36626   8.913   7.057   7.161 -0.1406  0.5337 -0.8093
  991MOL0     C36627   8.977   7.040   7.289 -0.0501 -0.1087 -0.5706
  991MOL0     O36628   9.111   6.987   7.309  0.8132  0.0113 -0.3592
  991MOL0     C36629   9.164   6.901   7.201 -0.9068 -0.4981 -0.0002
  991MOL0     C36630   9.293   6.831   7.235  0.8581 -0.4538  0.0698
  991MOL0     C36631   9.266   6.693   7.301 -0.1922 -1.0565 -0.0941
  991MOL0     C36632   9.179   6.709   7.423  0.5182 -1.1457 -0.0531
  991MOL0     C36633   9.175   6.601   7.523  0.3877 -0.0114  0.1270
  991MOL0     C36634   9.132   6.470   7.450 -0.1814  0.0454 -0.3776
  991MOL0     C36635   9.073   6.360   7.547  0.5617  0.3407 -0.0593
  991MOL0     C36636   8.924   6.379   7.581 -0.3946 -0.2570 -0.4943
  991MOL0     N36637   8.892   6.279   7.683 -0.2281  0.7334  0.5431
  991MOL0     C36638   8.810   6.298   7.794  0.7143 -0.3095  0.4052
  991MOL0     C36639   8.793   6.177   7.847  0.0929 -0.2545  0.3394
  991MOL0     C36640   8.742   6.127   7.981 -0.1290 -1.3685  0.5123
  991MOL0     C36641   8.616   6.206   8.029 -0.5388 -0.4138 -0.1548
  991MOL0     C36642   8.658   6.331   8.112  0.2779  0.1526 -0.2949
  991MOL0     C36643   8.710   6.284   8.259  0.9266 -0.7996 -0.2749
  991MOL0     O36644   8.775   6.385   8.336 -0.1000  0.3608  0.4868
  991MOL0     C36645   8.715   6.473   8.420  0.6742 -0.7266  0.7942
  991MOL0     C36646   8.780   6.593   8.442  0.4553  0.1454  0.6465
  991MOL0     C36647   8.739   6.673   8.545 -0.8602 -0.5327 -0.3175
  991MOL0     C36648   8.817   6.805   8.575  0.0860  0.2168  0.3518
  991MOL0     C36649   8.627   6.647   8.621  1.0430  0.7511 -0.3264
  991MOL0     C36650   8.569   6.722   8.735  1.3072  0.6473 -0.3529
  991MOL0     O36651   8.495   6.658   8.827 -1.1233  0.2570  0.1386
  991MOL0     C36652   8.451   6.735   8.926 -0.5702 -0.4831  0.2060
  991MOL0     C36653   8.324   6.792   8.908  0.0727  0.3084 -0.8755
  991MOL0     C36654   8.281   6.886   9.000  0.3114  1.0577  0.0066
  991MOL0     C36655   8.357   6.916   9.116 -0.4498  0.6332  0.3798
  991MOL0     O36656   8.333   7.025   9.202 -0.0403 -0.0340 -0.1497
  991MOL0     C36657   8.367   7.035   9.340 -0.6079 -0.3994 -0.0943
  991MOL0     C36658   8.311   7.162   9.402 -0.0786  1.1127 -0.1926
  991MOL0     C36659   8.402   7.290   9.411  0.9688  0.5724  0.6800
  991MOL0     C36660   8.404   7.393   9.287  0.2409  0.3917 -0.5177
  991MOL0     C36661   8.439   7.330   9.157 -0.7242 -0.2445  0.1622
  991MOL0     C36662   8.574   7.260   9.148 -0.1093  0.2205 -0.3383
  991MOL0     C36663   8.592   7.186   9.013 -0.4955 -0.4185 -0.3473
  991MOL0     C36664   8.725   7.100   9.016  0.0411  0.3326  0.8556
  991MOL0    Cl36665   8.866   7.202   9.086  0.0482 -0.3826 -0.3377
  991MOL0     C36666   8.491   6.860   9.123  0.5995  0.1860 -0.8541
  991MOL0     C36667   8.535   6.765   9.033 -0.5142  0.9318  0.7045
  991MOL0     O36668   8.574   6.845   8.722 -0.0946 -0.3093  1.0960
  991MOL0     C36669   8.556   6.522   8.595 -0.0757  0.9937 -1.5838
  991MOL0     C36670   8.604   6.441   8.496 -0.3054  0.6567  0.1128
  991MOL0     N36671   8.858   6.089   7.764  0.3213  0.0572 -0.2999
  991MOL0     N36672   8.917   6.145   7.665  0.1025  0.4488 -0.3136
  991MOL0     C36673   8.906   7.102   7.402  0.1473 -1.2690  0.1156
  991MOL0     C36674   8.783   7.175   7.390 -0.4653 -0.4250  0.0380
  991MOL0     C36675   8.387   7.332   7.172 -0.5312  0.6652 -0.2872
  991MOL0     C36676   8.398   7.459   7.240  0.7227 -0.4839 -0.5703
  991MOL0     C36677   8.295   7.552   7.222  0.1928 -0.0131 -0.4877
  991MOL0     C36678   8.186   7.528   7.134 -0.0996  0.0858 -1.2296
  991MOL0     O36679   8.099   7.642   7.117 -0.1487  0.5773  0.2653
  991MOL0     C36680   8.032   7.644   6.987  0.3600 -0.9141 -1.1528
  991MOL0     C36681   7.942   7.771   6.982 -0.2346 -0.4683 -0.0262
  991MOL0     C36682   7.818   7.771   7.081 -0.0229 -0.3467  0.4675
  991MOL0     C36683   7.714   7.867   7.017 -0.1138 -0.4399 -0.0263
  991MOL0     C36684   7.735   8.011   7.048 -0.9731  0.4739 -0.5239
  991MOL0     C36685   7.742   8.125   7.083  0.1257 -0.4410 -0.2504
  991MOL0     C36686   8.171   7.403   7.074 -0.1090  0.0844  0.5805
  991MOL0     C36687   8.267   7.303   7.089  0.5872 -0.0814 -0.4672
  991MOL0     C36688   8.233   7.169   7.022  0.2673  0.0263 -0.3832
  991MOL0     H36689   8.752   7.171   7.067 -2.1168  0.1822  1.4950
  991MOL0     H36690   8.959   7.037   7.064  0.9201  0.9726 -0.4053
  991MOL0     H36691   9.191   6.963   7.115 -2.8934 -1.7510 -1.6144
  991MOL0     H36692   9.085   6.835   7.164 -0.4604 -1.1508  0.2003
  991MOL0     H36693   9.354   6.815   7.146 -0.5591 -1.5896 -0.7370
  991MOL0     H36694   9.359   6.887   7.302 -0.2457 -0.3817  1.1315
  991MOL0     H36695   9.202   6.641   7.229  0.5249 -1.2369 -0.6065
  991MOL0     H36696   9.359   6.643   7.330  1.7997  1.9877 -0.7002
  991MOL0     H36697   9.200   6.801   7.479  1.5273 -1.2474 -0.2314
  991MOL0     H36698   9.078   6.718   7.382  0.6761  0.1492 -0.2080
  991MOL0     H36699   9.117   6.618   7.614 -3.3114  0.3621 -2.0983
  991MOL0     H36700   9.273   6.574   7.563 -0.6008 -1.5547  1.6524
  991MOL0     H36701   9.061   6.492   7.370  0.6193 -0.7405 -1.3347
  991MOL0     H36702   9.231   6.446   7.409  1.9620  2.2406  2.9966
  991MOL0     H36703   9.144   6.348   7.629  0.4926  2.4026  0.3706
  991MOL0     H36704   9.075   6.265   7.493  1.4533  0.7204 -0.7231
  991MOL0     H36705   8.910   6.478   7.625 -1.1715 -0.6621  0.1965
  991MOL0     H36706   8.861   6.373   7.492  1.5114  1.5472 -2.0799
  991MOL0     H36707   8.770   6.395   7.821 -0.2379 -0.1339 -1.4969
  991MOL0     H36708   8.831   6.132   8.044  0.2858 -0.5989 -0.1170
  991MOL0     H36709   8.708   6.023   7.983  0.4224 -1.6390 -1.7588
  991MOL0     H36710   8.560   6.236   7.940 -0.5706 -1.0307 -0.3542
  991MOL0     H36711   8.552   6.152   8.100  0.1147 -1.2325 -0.1714
  991MOL0     H36712   8.732   6.390   8.056  0.7308  3.9226  3.6582
  991MOL0     H36713   8.574   6.398   8.131 -0.8785 -1.1527 -0.6856
  991MOL0     H36714   8.634   6.241   8.326  2.3677 -0.0513  1.9347
  991MOL0     H36715   8.772   6.195   8.251 -1.2421 -2.2090 -3.3751
  991MOL0     H36716   8.860   6.631   8.380  1.0606  0.3064  1.5063
  991MOL0     H36717   8.828   6.851   8.673 -1.1897  3.8661 -1.0559
  991MOL0     H36718   8.756   6.876   8.519  2.0911  0.7133 -1.3573
  991MOL0     H36719   8.916   6.806   8.527  0.3238  1.1569  0.8345
  991MOL0     H36720   8.264   6.770   8.820  3.6443  0.5477 -3.5818
  991MOL0     H36721   8.184   6.928   8.974 -0.6264 -0.7753  0.4289
  991MOL0     H36722   8.331   6.943   9.388 -0.6170 -1.0332 -1.2849
  991MOL0     H36723   8.477   7.038   9.349 -0.6065  0.6971 -0.3973
  991MOL0     H36724   8.214   7.188   9.357 -0.2849 -1.1590 -1.1859
  991MOL0     H36725   8.291   7.145   9.508 -2.2695  5.6271  0.3608
  991MOL0     H36726   8.507   7.267   9.429  0.9196  0.2334  0.5373
  991MOL0     H36727   8.362   7.356   9.488  0.1241  1.6432 -0.6273
  991MOL0     H36728   8.479   7.471   9.305  0.7630 -0.8656  3.8725
  991MOL0     H36729   8.306   7.440   9.275 -0.2974  1.0223  4.3702
  991MOL0     H36730   8.371   7.248   9.134  2.6657 -3.0607 -0.5592
  991MOL0     H36731   8.437   7.404   9.076 -0.3613  0.0514  0.4184
  991MOL0     H36732   8.586   7.186   9.229 -2.5901 -0.0222 -0.1232
  991MOL0     H36733   8.643   7.343   9.162 -1.6390  1.4162  0.3179
  991MOL0     H36734   8.592   7.251   8.926 -1.7076  0.0885  0.0147
  991MOL0     H36735   8.499   7.129   9.004 -1.4127  1.0398 -0.4297
  991MOL0     H36736   8.737   7.072   8.911 -5.0640 -2.9576  0.8447
  991MOL0     H36737   8.705   7.006   9.067  0.3546  0.1660  0.6756
  991MOL0     H36738   8.538   6.874   9.220 -1.9332  0.9968  0.3595
  991MOL0     H36739   8.625   6.706   9.041 -0.2314  0.9684 -1.6840
  991MOL0     H36740   8.468   6.486   8.647  1.2761 -1.7400 -0.9489
  991MOL0     H36741   8.543   6.354   8.472  1.0332  0.5444 -3.6435
  991MOL0     H36742   8.945   7.095   7.503 -0.3498 -4.1527  0.1977
  991MOL0     H36743   8.757   7.239   7.474  2.2336  2.4640 -1.1166
  991MOL0     H36744   8.493   7.491   7.282  1.2673 -0.0990 -2.0332
  991MOL0     H36745   8.301   7.656   7.255  0.1955 -0.2514  0.2852
  991MOL0     H36746   8.089   7.649   6.894 -1.0988 -1.4505 -2.1117
  991MOL0     H36747   7.962   7.562   6.972 -2.6666  0.8663  1.9567
  991MOL0     H36748   7.917   7.787   6.877  2.9996 -0.5321 -0.8961
  991MOL0     H36749   7.989   7.863   7.018 -0.4176 -0.6097  0.5895
  991MOL0     H36750   7.780   7.669   7.087  1.5516 -1.1001 -1.2801
  991MOL0     H36751   7.841   7.805   7.182 -2.0942  0.9704  0.5558
  991MOL0     H36752   7.609   7.845   7.037 -0.6569 -0.2492 -2.3540
  991MOL0     H36753   7.713   7.853   6.909  1.9541 -0.8361 -0.0331
  991MOL0     H36754   7.748   8.230   7.105  2.6509  0.1783 -3.2519
  991MOL0     H36755   8.084   7.377   7.013  1.5819 -3.3981 -0.6227
  991MOL0     H36756   8.308   7.153   6.944 -0.5448 -0.1041 -1.1559
  991MOL0     H36757   8.230   7.085   7.093 -0.0069  0.9801  0.7548
  991MOL0     H36758   8.137   7.184   6.972  1.0751 -2.0625 -2.7963
  992MOL0     O36759  11.129   9.068   1.099  0.4569 -1.3500 -0.6324
  992MOL0     C36760  11.014   9.082   1.150 -0.1902 -0.0891  0.2951
  992MOL0     O36761  10.973   9.173   1.236 -0.4483 -0.8609  0.0189
  992MOL0     C36762  11.054   9.274   1.276  0.0521 -0.4069  0.0121
  992MOL0     C36763  11.179   9.253   1.340  0.4997 -0.1849  0.4647
  992MOL0     C36764  11.259   9.359   1.366 -0.5784  0.5291 -0.3915
  992MOL0     C36765  11.221   9.494   1.350  0.1035 -0.1960  0.4596
  992MOL0     O36766  11.307   9.597   1.371 -0.4244 -0.1019 -0.3995
  992MOL0     C36767  11.452   9.572   1.367  1.0199  0.7045  0.2203
  992MOL0     C36768  11.510   9.708   1.323  0.0810 -0.2063 -0.1169
  992MOL0     C36769  11.659   9.702   1.353  0.5906 -0.9431  0.0316
  992MOL0     C36770  11.723   9.583   1.294 -0.1143  0.6192 -0.4536
  992MOL0     C36771  11.698   9.567   1.144 -0.5565  0.4621  0.1398
  992MOL0     C36772  11.753   9.678   1.061  0.1215 -0.1348  0.1552
  992MOL0     C36773  11.760   9.626   0.917 -1.2311 -0.0221 -0.0029
  992MOL0     C36774  11.791   9.722   0.809  0.2333  0.0302  0.0869
  992MOL0     N36775  11.706   9.839   0.817 -0.3821  0.0927  0.1346
  992MOL0     C36776  11.572   9.838   0.775  0.2013  0.3129 -0.1073
  992MOL0     C36777  11.523   9.960   0.793 -0.1202 -0.2143  0.3313
  992MOL0     C36778  11.380  10.004   0.766 -0.8982  0.3603 -0.8537
  992MOL0     C36779  11.362  10.065   0.631  0.3377  0.5213 -0.9444
  992MOL0     C36780  11.221  10.095   0.604  0.4732 -0.1634 -0.1797
  992MOL0     C36781  11.116   9.977   0.612 -0.5098 -0.0936 -0.0908
  992MOL0     O36782  10.974  10.009   0.583 -0.8725 -0.3174 -0.9027
  992MOL0     C36783  10.875   9.914   0.595  0.1666 -0.6545  1.0274
  992MOL0     C36784  10.872   9.806   0.510 -0.7629  0.1752 -0.2302
  992MOL0     C36785  10.764   9.721   0.487 -0.1405  0.3357 -0.1960
  992MOL0     C36786  10.789   9.616   0.386  0.5172  0.5072  0.2598
  992MOL0     C36787  10.640   9.757   0.555  0.1753  0.6790 -0.5937
  992MOL0     C36788  10.515   9.677   0.539 -0.3559 -0.1313 -0.3984
  992MOL0     O36789  10.420   9.703   0.631  0.2120  0.4839  0.0170
  992MOL0     C36790  10.297   9.649   0.615  0.6040 -0.8681 -0.0556
  992MOL0     C36791  10.220   9.675   0.500 -1.2259  1.1956 -1.4755
  992MOL0     C36792  10.084   9.634   0.491  0.3071  0.6852  0.2752
  992MOL0     C36793  10.019   9.581   0.608  0.2661 -0.0564 -0.3930
  992MOL0     O36794   9.884   9.537   0.602  0.2741 -0.6146 -0.1856
  992MOL0     C36795   9.787   9.596   0.506 -0.4463 -0.5941 -1.5648
  992MOL0     C36796   9.753   9.514   0.377  0.6941 -0.1428  0.1523
  992MOL0     C36797   9.693   9.376   0.404 -0.4787  0.0411 -0.2197
  992MOL0     C36798   9.789   9.266   0.382  0.0118 -0.7110  0.1329
  992MOL0     C36799   9.883   9.261   0.498  0.7182  0.0776 -0.5642
  992MOL0     C36800   9.952   9.129   0.496 -0.8455 -0.4519  0.4155
  992MOL0     C36801  10.075   9.133   0.582 -0.2886  0.4145 -0.6837
  992MOL0     C36802  10.027   9.136   0.734  0.4763  0.0311 -0.5654
  992MOL0    Cl36803  10.166   9.130   0.835  0.2119  0.4891  0.3609
  992MOL0     C36804  10.100   9.554   0.716  0.6039  0.2275 -0.0716
  992MOL0     C36805  10.235   9.593   0.725 -0.4888  0.1522  0.2575
  992MOL0     O36806  10.510   9.591   0.453 -1.1572 -0.0028 -0.2813
  992MOL0     C36807  10.640   9.872   0.641  0.8827 -0.4549  0.4873
  992MOL0     C36808  10.750   9.951   0.658  0.0327  0.3873  0.7590
  992MOL0     N36809  11.631  10.041   0.838 -0.3337  0.8510  0.0436
  992MOL0     N36810  11.735   9.966   0.860  0.1522 -0.3793 -0.1755
  992MOL0     C36811  11.086   9.511   1.315  0.1387  0.3957  0.9212
  992MOL0     C36812  11.004   9.403   1.274  0.5692 -0.1802 -0.4953
  992MOL0     C36813  10.906   8.991   1.106  0.5514 -0.3378  0.1813
  992MOL0     C36814  10.783   8.987   1.185 -0.1371 -0.7922  0.3172
  992MOL0     C36815  10.691   8.890   1.168  0.3713  0.0250 -0.2537
  992MOL0     C36816  10.686   8.828   1.040 -0.3859 -0.3237 -0.7699
  992MOL0     O36817  10.580   8.745   0.999  0.0987 -0.6031 -0.3365
  992MOL0     C36818  10.456   8.809   0.972  0.1999 -0.1752 -0.7908
  992MOL0     C36819  10.334   8.739   1.042 -0.9454  0.0269  0.0036
  992MOL0     C36820  10.202   8.819   1.054 -0.3108 -0.4361 -0.2872
  992MOL0     C36821  10.108   8.787   0.939  0.4529  0.6189  0.1652
  992MOL0     C36822  10.041   8.654   0.946 -0.6108  0.2438  0.2403
  992MOL0     C36823  10.008   8.537   0.956  0.4790  1.2444 -1.1775
  992MOL0     C36824  10.792   8.848   0.956 -0.6284  0.1880  0.0151
  992MOL0     C36825  10.905   8.914   0.989 -0.5526  1.0468  0.0914
  992MOL0     C36826  11.022   8.901   0.891  0.1832  0.6643  0.1087
  992MOL0     H36827  11.213   9.150   1.347  1.9913  0.3398  1.4365
  992MOL0     H36828  11.354   9.337   1.413 -0.8222  0.0729 -0.1007
  992MOL0     H36829  11.477   9.487   1.304 -0.1781 -0.9582  1.8650
  992MOL0     H36830  11.488   9.548   1.467 -0.8354 -3.3264  0.1489
  992MOL0     H36831  11.475   9.720   1.220  1.0353 -1.1876 -0.5752
  992MOL0     H36832  11.466   9.786   1.385 -2.5142 -1.2531 -0.5419
  992MOL0     H36833  11.707   9.796   1.325 -0.1156 -0.7360 -0.4978
  992MOL0     H36834  11.669   9.682   1.461 -2.0878 -2.5065  0.0681
  992MOL0     H36835  11.830   9.593   1.317 -0.0760  0.8859 -0.7437
  992MOL0     H36836  11.686   9.492   1.342 -1.2590  2.3273  2.1379
  992MOL0     H36837  11.594   9.549   1.115 -0.2938 -2.2632  0.5818
  992MOL0     H36838  11.750   9.474   1.122  0.9045  0.4641  3.0379
  992MOL0     H36839  11.699   9.773   1.065  2.7964  1.5113 -0.1484
  992MOL0     H36840  11.855   9.700   1.095 -0.4359  2.3201  0.4266
  992MOL0     H36841  11.661   9.586   0.893 -1.0057  0.6325 -2.3237
  992MOL0     H36842  11.827   9.540   0.907  0.7884  1.2459  1.7382
  992MOL0     H36843  11.886   9.769   0.835  0.3144 -0.1432  0.1020
  992MOL0     H36844  11.792   9.672   0.712  5.5841 -2.7862  1.2082
  992MOL0     H36845  11.525   9.747   0.741 -0.0932  0.9091 -1.3172
  992MOL0     H36846  11.365  10.076   0.847  3.0639 -2.3517  2.7726
  992MOL0     H36847  11.323   9.912   0.781  0.9676 -0.9446 -1.3313
  992MOL0     H36848  11.424  10.154   0.619  0.0637  0.6547 -1.3633
  992MOL0     H36849  11.397   9.993   0.557  4.1597  0.2287  0.8694
  992MOL0     H36850  11.188  10.171   0.675  0.7483 -0.3304  0.1300
  992MOL0     H36851  11.227  10.147   0.508 -0.1735  1.3993  0.5896
  992MOL0     H36852  11.161   9.903   0.545  0.0814  1.4738 -1.5008
  992MOL0     H36853  11.125   9.966   0.720 -0.9216 -0.0714 -0.0523
  992MOL0     H36854  10.961   9.801   0.448 -2.1598  2.5532 -2.6539
  992MOL0     H36855  10.781   9.517   0.432  1.0816 -0.9487 -2.5510
  992MOL0     H36856  10.887   9.631   0.340  0.3526 -2.4343 -1.2707
  992MOL0     H36857  10.721   9.618   0.300  1.5696 -3.4248 -0.8377
  992MOL0     H36858  10.258   9.720   0.409  0.3076 -0.6173 -1.8036
  992MOL0     H36859  10.034   9.652   0.397  1.3843 -1.0674 -0.6848
  992MOL0     H36860   9.694   9.612   0.562  0.4179  2.0934 -0.7308
  992MOL0     H36861   9.823   9.697   0.483  0.2065 -0.1914  0.9749
  992MOL0     H36862   9.685   9.563   0.306 -3.5579 -0.9211  3.2699
  992MOL0     H36863   9.855   9.514   0.336  1.0561  1.2463  0.9963
  992MOL0     H36864   9.604   9.362   0.342 -0.2707 -2.0070 -0.1243
  992MOL0     H36865   9.649   9.381   0.505  2.8104  1.0068  1.3158
  992MOL0     H36866   9.845   9.285   0.290  1.7444 -0.3438  1.2199
  992MOL0     H36867   9.742   9.167   0.372 -1.7323 -0.0372  1.2615
  992MOL0     H36868   9.952   9.342   0.469  1.4823 -0.4323 -0.2019
  992MOL0     H36869   9.840   9.274   0.598  0.3668 -0.8921 -0.5852
  992MOL0     H36870   9.995   9.127   0.395  4.1011 -0.7012  2.2137
  992MOL0     H36871   9.901   9.033   0.504  0.6379 -1.3964 -0.8763
  992MOL0     H36872  10.139   9.219   0.560  0.3085 -0.6157 -3.3514
  992MOL0     H36873  10.133   9.040   0.571  1.6832  1.1700  2.1804
  992MOL0     H36874   9.983   9.039   0.757  1.8699 -0.4390  0.2445
  992MOL0     H36875   9.966   9.225   0.752  4.5092  2.9131  0.6293
  992MOL0     H36876  10.079   9.511   0.813 -2.0560 -0.6263 -0.9435
  992MOL0     H36877  10.302   9.576   0.808 -1.1754  1.8720  1.2294
  992MOL0     H36878  10.548   9.895   0.695 -1.4226 -0.8454 -2.9527
  992MOL0     H36879  10.743  10.047   0.708 -0.6296  0.2184  1.0058
  992MOL0     H36880  11.040   9.609   1.315 -0.6443  0.0425  1.6654
  992MOL0     H36881  10.905   9.434   1.243 -0.7383 -2.4360  1.0915
  992MOL0     H36882  10.771   9.048   1.273 -1.4803 -2.8536  1.6640
  992MOL0     H36883  10.612   8.848   1.230 -0.3933 -1.9293 -2.3847
  992MOL0     H36884  10.461   8.914   1.001  3.3688  0.5650 -3.4014
  992MOL0     H36885  10.442   8.815   0.864  2.9131 -1.9094 -1.3331
  992MOL0     H36886  10.373   8.709   1.139  1.0766  3.0245  0.2319
  992MOL0     H36887  10.318   8.648   0.982  1.3629 -0.6792  0.3623
  992MOL0     H36888  10.159   8.782   1.147  2.1666 -2.4603  0.1444
  992MOL0     H36889  10.224   8.925   1.072 -0.9208 -0.7129  2.5151
  992MOL0     H36890  10.157   8.798   0.841 -0.5556  0.9430 -0.3166
  992MOL0     H36891  10.026   8.859   0.940 -0.6242 -0.4585 -2.0065
  992MOL0     H36892   9.997   8.432   0.971 -0.1864  1.7177  2.8195
  992MOL0     H36893  10.792   8.810   0.854  2.1551  3.3509 -1.3747
  992MOL0     H36894  11.120   8.885   0.936  0.6066  1.6715 -0.4106
  992MOL0     H36895  10.995   8.810   0.836 -4.1554 -0.3689  3.3668
  992MOL0     H36896  11.020   8.987   0.824  2.8100 -0.6045 -1.7849
  993MOL0     O36897   1.542   7.867   4.958 -0.0815  0.5292  0.5910
  993MOL0     C36898   1.499   7.981   4.952 -0.7862  0.0514  0.2147
  993MOL0     O36899   1.561   8.087   4.885 -1.4962 -0.5132  0.1464
  993MOL0     C36900   1.701   8.067   4.877  0.9246 -0.2166  1.0126
  993MOL0     C36901   1.758   7.999   4.770  0.8301 -0.8268 -1.3269
  993MOL0     C36902   1.895   7.987   4.751 -0.3300  0.0450 -0.2791
  993MOL0     C36903   1.981   8.059   4.840 -1.0428 -0.3825  0.1134
  993MOL0     O36904   2.115   8.062   4.810  0.2257  0.2388  0.4970
  993MOL0     C36905   2.210   8.091   4.913  0.0990  0.3838  0.1820
  993MOL0     C36906   2.352   8.076   4.858 -0.0132 -0.5725  0.3845
  993MOL0     C36907   2.447   8.136   4.952 -0.8694  0.3821  0.3976
  993MOL0     C36908   2.444   8.095   5.096 -0.3598  0.4393 -0.0079
  993MOL0     C36909   2.543   8.191   5.172  0.7108 -0.8481 -0.4312
  993MOL0     C36910   2.675   8.115   5.191 -0.0320 -1.2431  0.4965
  993MOL0     C36911   2.775   8.171   5.287 -0.3496 -0.3410 -0.7491
  993MOL0     C36912   2.917   8.165   5.239  0.3948 -0.2528  0.1192
  993MOL0     N36913   2.984   8.029   5.243 -0.1113 -0.0969  0.1924
  993MOL0     C36914   2.950   7.914   5.313 -0.0755 -0.0711  0.0386
  993MOL0     C36915   3.040   7.817   5.273  0.1318 -0.4106 -0.2956
  993MOL0     C36916   3.048   7.684   5.339  0.2750  0.0900 -0.0576
  993MOL0     C36917   3.191   7.624   5.330  0.3047  0.6628 -0.4498
  993MOL0     C36918   3.195   7.489   5.395 -0.8805 -0.5237 -0.0872
  993MOL0     C36919   3.335   7.434   5.398 -0.2515  0.3961 -0.5372
  993MOL0     O36920   3.412   7.511   5.501  0.1049  1.2039  0.0579
  993MOL0     C36921   3.550   7.496   5.509 -0.1707 -1.0212  0.8540
  993MOL0     C36922   3.620   7.582   5.586  0.6264  1.1657  0.3058
  993MOL0     C36923   3.758   7.578   5.603 -0.2114  0.2693  0.5468
  993MOL0     C36924   3.835   7.677   5.691  0.2193  0.6381  0.7790
  993MOL0     C36925   3.826   7.470   5.536 -1.0317  0.0768  0.5932
  993MOL0     C36926   3.977   7.463   5.539 -0.6181 -0.4629  0.1224
  993MOL0     O36927   4.036   7.574   5.482 -0.3020  1.1197  0.9452
  993MOL0     C36928   4.167   7.572   5.420  1.1497  0.3213 -0.2636
  993MOL0     C36929   4.234   7.693   5.429  0.4751 -0.2326 -0.8333
  993MOL0     C36930   4.358   7.702   5.380  0.8429 -0.3670  0.1970
  993MOL0     C36931   4.419   7.596   5.316  0.2584  0.1252  0.6435
  993MOL0     O36932   4.541   7.598   5.254  0.9732  0.0555 -1.0192
  993MOL0     C36933   4.603   7.721   5.230  0.7744 -0.5993 -0.6173
  993MOL0     C36934   4.628   7.730   5.075 -0.0648  0.5651  0.6485
  993MOL0     C36935   4.508   7.690   4.992  0.6919  0.1286 -0.2875
  993MOL0     C36936   4.500   7.545   4.934  0.1551 -0.3426 -0.0799
  993MOL0     C36937   4.603   7.517   4.816 -0.4111 -0.3415 -0.1606
  993MOL0     C36938   4.613   7.370   4.776  0.6612  1.1828 -0.2130
  993MOL0     C36939   4.488   7.287   4.732  0.1545 -0.4958  0.7184
  993MOL0     C36940   4.523   7.142   4.698  0.4584 -0.1339  0.0803
  993MOL0    Cl36941   4.373   7.042   4.695  0.0777  0.0727 -0.2810
  993MOL0     C36942   4.353   7.477   5.303  0.2347  0.3278 -0.3444
  993MOL0     C36943   4.221   7.467   5.354  0.1250  0.2232 -1.0753
  993MOL0     O36944   4.032   7.352   5.563 -0.0107 -0.5855  0.0521
  993MOL0     C36945   3.755   7.382   5.450 -1.1014 -0.2275 -1.3158
  993MOL0     C36946   3.619   7.383   5.440  0.1442 -0.1060 -0.0104
  993MOL0     N36947   3.124   7.880   5.185 -1.3002  1.0290  0.4132
  993MOL0     N36948   3.085   8.003   5.162 -0.0347  0.2450 -0.0197
  993MOL0     C36949   1.924   8.149   4.944  0.1646  0.9915 -0.7814
  993MOL0     C36950   1.785   8.144   4.967 -0.8442  0.0659  1.4397
  993MOL0     C36951   1.361   8.012   5.003 -1.1076 -0.8877  0.2862
  993MOL0     C36952   1.280   7.899   5.013 -0.9463 -1.3124 -0.6529
  993MOL0     C36953   1.157   7.922   5.070 -0.1952 -0.2378  0.7803
  993MOL0     C36954   1.115   8.040   5.114 -0.5492  0.0962 -0.2843
  993MOL0     O36955   0.992   8.053   5.187 -0.0204 -0.3922  0.4316
  993MOL0     C36956   0.880   8.049   5.094 -0.0835 -1.0736  0.3163
  993MOL0     C36957   0.822   8.190   5.080  0.2600 -0.3396 -0.2808
  993MOL0     C36958   0.742   8.248   5.200 -0.4595 -0.2756 -0.0704
  993MOL0     C36959   0.613   8.171   5.234 -0.5815  0.5479 -0.0435
  993MOL0     C36960   0.555   8.213   5.363 -0.6557 -0.8573  0.2568
  993MOL0     C36961   0.507   8.242   5.465  0.8496  0.2881 -0.1433
  993MOL0     C36962   1.189   8.154   5.113 -0.3975  0.2529  0.2621
  993MOL0     C36963   1.316   8.136   5.057 -0.1415  0.7033  0.2406
  993MOL0     C36964   1.398   8.260   5.079 -0.0907 -0.7567 -0.5920
  993MOL0     H36965   1.696   7.946   4.699 -0.3564 -1.1472 -0.0901
  993MOL0     H36966   1.919   7.932   4.661 -0.3819  2.6364 -1.9769
  993MOL0     H36967   2.193   8.020   4.994  1.2127 -2.9685 -2.3187
  993MOL0     H36968   2.193   8.196   4.940  2.5216  1.1163 -0.8599
  993MOL0     H36969   2.374   7.969   4.852  2.3698 -0.1636  0.7965
  993MOL0     H36970   2.360   8.111   4.755  0.9926 -1.2989  0.2029
  993MOL0     H36971   2.539   8.096   4.907 -1.0652  2.0707 -1.6679
  993MOL0     H36972   2.461   8.242   4.928  1.0896 -0.1798 -1.3073
  993MOL0     H36973   2.348   8.120   5.142  0.5740  4.7120  0.0274
  993MOL0     H36974   2.482   7.995   5.119  4.1524  2.0027  0.3146
  993MOL0     H36975   2.507   8.227   5.269  0.4123 -0.9080 -0.5187
  993MOL0     H36976   2.567   8.281   5.115  3.4566 -1.0769  0.2550
  993MOL0     H36977   2.654   8.016   5.230 -2.0084 -0.4870  1.5151
  993MOL0     H36978   2.708   8.101   5.087 -0.6173 -0.0260  0.1159
  993MOL0     H36979   2.759   8.114   5.379  1.4203 -0.0615 -0.2266
  993MOL0     H36980   2.747   8.275   5.305  0.0400  0.9852 -6.0405
  993MOL0     H36981   2.917   8.205   5.137  0.3967 -1.0255 -0.1936
  993MOL0     H36982   2.958   8.234   5.313  3.1871 -3.7756  2.1420
  993MOL0     H36983   2.861   7.892   5.373 -0.8285  1.6953 -0.3750
  993MOL0     H36984   2.987   7.610   5.287  1.2118 -0.4030 -0.4755
  993MOL0     H36985   3.011   7.700   5.441  2.2221  0.3872  0.6417
  993MOL0     H36986   3.213   7.609   5.224 -1.9454  2.3659 -1.2478
  993MOL0     H36987   3.263   7.690   5.379  0.4805 -0.5068  0.9025
  993MOL0     H36988   3.149   7.500   5.494 -1.7478 -1.6005 -0.3554
  993MOL0     H36989   3.136   7.419   5.337 -0.3192 -1.5419  0.5329
  993MOL0     H36990   3.332   7.328   5.425  0.9375  0.1457 -1.2914
  993MOL0     H36991   3.395   7.447   5.307 -2.2373  0.8820 -1.8356
  993MOL0     H36992   3.561   7.649   5.647  2.0134  3.0340 -0.3259
  993MOL0     H36993   3.896   7.738   5.625 -2.2435 -1.1664 -3.5647
  993MOL0     H36994   3.898   7.613   5.754  1.8437 -1.1464 -2.4018
  993MOL0     H36995   3.765   7.746   5.739  0.0867  0.2344  1.1857
  993MOL0     H36996   4.182   7.775   5.477  1.4894  0.3374 -0.6961
  993MOL0     H36997   4.408   7.796   5.400 -3.8211  1.7433  4.0820
  993MOL0     H36998   4.553   7.816   5.251 -0.0154 -1.0251 -0.5206
  993MOL0     H36999   4.692   7.728   5.293 -1.6759  0.0923  3.0696
  993MOL0     H37000   4.665   7.828   5.044  0.6514 -0.5082 -2.1442
  993MOL0     H37001   4.705   7.654   5.059 -0.1344  0.0259  2.6482
  993MOL0     H37002   4.514   7.761   4.909  3.6769  1.9656  1.2912
  993MOL0     H37003   4.414   7.704   5.045 -0.2339 -0.1651 -1.7815
  993MOL0     H37004   4.397   7.518   4.911 -0.2192 -0.4021  1.5743
  993MOL0     H37005   4.513   7.479   5.020 -0.6511  0.3929  0.6299
  993MOL0     H37006   4.577   7.580   4.731  1.7759  1.7368  0.5903
  993MOL0     H37007   4.702   7.552   4.848  1.1871 -1.6043 -3.3618
  993MOL0     H37008   4.666   7.321   4.859  0.3596 -0.6915 -1.0667
  993MOL0     H37009   4.681   7.358   4.691  1.0913  2.0264  0.0014
  993MOL0     H37010   4.445   7.334   4.643 -4.7789  1.8736  3.9467
  993MOL0     H37011   4.414   7.295   4.812  0.2296 -0.7322  0.8133
  993MOL0     H37012   4.594   7.099   4.769  1.5131  0.1548 -0.7760
  993MOL0     H37013   4.566   7.146   4.598 -1.6222 -0.2930 -0.8790
  993MOL0     H37014   4.406   7.398   5.249 -0.6647  0.3716 -1.3406
  993MOL0     H37015   4.167   7.372   5.351 -4.5255  2.4269  1.4712
  993MOL0     H37016   3.811   7.309   5.393 -0.3464  0.7690 -1.8695
  993MOL0     H37017   3.555   7.317   5.383  0.8886  0.2538 -1.3074
  993MOL0     H37018   1.985   8.217   5.003 -1.1611  0.8239  0.8514
  993MOL0     H37019   1.743   8.207   5.044 -0.7793 -0.2184  1.7107
  993MOL0     H37020   1.314   7.799   4.989 -0.0886 -1.3187  0.5031
  993MOL0     H37021   1.081   7.846   5.085  0.8237 -1.9915 -2.1774
  993MOL0     H37022   0.894   8.008   4.994  0.8067  0.3601 -0.1770
  993MOL0     H37023   0.813   7.977   5.141 -0.7234 -0.2130  0.7651
  993MOL0     H37024   0.747   8.179   5.001 -1.0224  0.2546  0.8286
  993MOL0     H37025   0.904   8.256   5.047  3.1814 -3.4121  0.2809
  993MOL0     H37026   0.807   8.259   5.288 -0.4398  1.1142 -0.2305
  993MOL0     H37027   0.715   8.350   5.171 -0.9778 -0.4708 -0.2728
  993MOL0     H37028   0.632   8.064   5.224  1.9160  0.8639  0.7288
  993MOL0     H37029   0.542   8.189   5.153  0.2142  0.8450 -0.6907
  993MOL0     H37030   0.472   8.260   5.565  1.1959  0.1452  0.0052
  993MOL0     H37031   1.149   8.249   5.148 -1.8610 -1.2239  2.8963
  993MOL0     H37032   1.381   8.306   5.177  0.8002 -0.5408 -0.5359
  993MOL0     H37033   1.505   8.244   5.062  0.0430  0.8118 -1.3529
  993MOL0     H37034   1.352   8.334   5.013 -0.3420  1.4883  1.9170
  994MOL0     O37035   0.196   5.030   2.330 -0.2795  0.5424 -0.5928
  994MOL0     C37036   0.300   5.096   2.323  0.4093  0.4700 -0.2323
  994MOL0     O37037   0.425   5.052   2.366  0.1370 -0.2691 -0.7477
  994MOL0     C37038   0.457   4.927   2.408  0.4156 -0.0462  0.2159
  994MOL0     C37039   0.574   4.871   2.367 -0.5337 -0.4888 -0.9195
  994MOL0     C37040   0.616   4.737   2.398 -0.3216 -0.4405  0.2822
  994MOL0     C37041   0.532   4.668   2.487 -0.2181  0.0794  0.5421
  994MOL0     O37042   0.574   4.541   2.522  0.0959  0.7810  0.5813
  994MOL0     C37043   0.670   4.537   2.636 -1.1730 -0.5374 -0.2746
  994MOL0     C37044   0.659   4.419   2.721 -0.1450  0.2393 -0.4209
  994MOL0     C37045   0.711   4.295   2.649  0.5565 -0.2656 -0.2970
  994MOL0     C37046   0.717   4.185   2.752 -0.5630  1.2321  0.5918
  994MOL0     C37047   0.776   4.057   2.676 -0.5735 -0.3880 -0.5362
  994MOL0     C37048   0.691   4.010   2.559  0.2071 -0.3093  0.3054
  994MOL0     C37049   0.758   3.888   2.483  0.5965  0.5670  0.7818
  994MOL0     C37050   0.669   3.830   2.365  0.9995 -0.0046  0.5160
  994MOL0     N37051   0.759   3.773   2.268 -0.9048 -0.0350  0.4864
  994MOL0     C37052   0.753   3.644   2.216  0.5368  0.7096 -0.0333
  994MOL0     C37053   0.839   3.643   2.116 -0.0673  0.5494  0.2995
  994MOL0     C37054   0.860   3.539   2.003 -1.1261  0.5954 -1.3419
  994MOL0     C37055   0.782   3.571   1.887  0.6322  0.0873  0.0072
  994MOL0     C37056   0.638   3.531   1.895  0.2273  0.4561  0.5640
  994MOL0     C37057   0.604   3.384   1.918 -0.0603  0.0517  0.3825
  994MOL0     O37058   0.601   3.358   2.057 -0.4029 -0.9279  0.6511
  994MOL0     C37059   0.577   3.223   2.082 -0.3105 -0.5491  0.1676
  994MOL0     C37060   0.488   3.131   2.023  0.0256  0.2485  0.5478
  994MOL0     C37061   0.465   3.003   2.073  1.2266  0.7941 -0.0993
  994MOL0     C37062   0.367   2.914   1.991  0.0666  0.3148  0.0465
  994MOL0     C37063   0.520   2.964   2.193  0.1551  0.2668  0.0604
  994MOL0     C37064   0.487   2.835   2.266  0.8484 -0.5166  0.2641
  994MOL0     O37065   0.401   2.748   2.212 -0.2662 -0.5559 -0.5915
  994MOL0     C37066   0.371   2.632   2.281 -0.9108 -0.5587  0.0948
  994MOL0     C37067   0.235   2.583   2.278  0.4069 -0.7807 -0.0406
  994MOL0     C37068   0.208   2.462   2.336  0.2336 -0.3812 -0.1606
  994MOL0     C37069   0.298   2.382   2.399 -0.5359 -0.4053  0.0331
  994MOL0     O37070   0.266   2.254   2.428  0.6678 -0.1466  0.2702
  994MOL0     C37071   0.342   2.161   2.509 -0.0040 -0.5430 -0.6635
  994MOL0     C37072   0.412   2.064   2.411  0.2663  0.4772 -0.3893
  994MOL0     C37073   0.446   1.929   2.488  0.0524 -0.1795 -0.0928
  994MOL0     C37074   0.407   1.807   2.395  0.6906  0.5147 -0.3225
  994MOL0     C37075   0.447   1.677   2.461  0.1441 -0.0260 -0.7920
  994MOL0     C37076   0.395   1.562   2.391  0.2312 -0.4763 -0.4005
  994MOL0     C37077   0.415   1.424   2.457 -0.2732  1.4437  0.1588
  994MOL0     C37078   0.337   1.309   2.404  0.0391 -0.6778 -0.6108
  994MOL0    Cl37079   0.408   1.227   2.255  0.2299  0.3949  0.5261
  994MOL0     C37080   0.427   2.437   2.421  0.3322  0.4542  0.0792
  994MOL0     C37081   0.468   2.559   2.363  0.5304 -0.3632 -0.1184
  994MOL0     O37082   0.541   2.830   2.384  0.0656  0.0598  1.4838
  994MOL0     C37083   0.625   3.043   2.245  0.6427  0.1806 -0.3139
  994MOL0     C37084   0.654   3.173   2.192 -0.1384 -0.8883  0.3776
  994MOL0     N37085   0.914   3.765   2.122  0.4325  0.0222  0.1207
  994MOL0     N37086   0.870   3.835   2.219 -0.7793 -0.7660  0.3887
  994MOL0     C37087   0.410   4.726   2.526 -0.3801  0.3394 -0.4273
  994MOL0     C37088   0.376   4.856   2.493 -0.4178 -0.7516  0.1405
  994MOL0     C37089   0.278   5.242   2.303 -0.8145  0.0383  0.5864
  994MOL0     C37090   0.361   5.332   2.373  0.5381  0.2542 -1.0105
  994MOL0     C37091   0.335   5.467   2.356  0.0795 -0.1855  1.7289
  994MOL0     C37092   0.225   5.517   2.286 -0.0366 -0.1883 -0.6605
  994MOL0     O37093   0.211   5.658   2.275 -0.3035 -0.0666 -0.3447
  994MOL0     C37094   0.087   5.717   2.235 -0.5985  0.5986  0.1267
  994MOL0     C37095  -0.010   5.722   2.355 -0.9289 -0.2483 -0.0775
  994MOL0     C37096   0.026   5.854   2.438  0.7704 -0.1178 -0.5817
  994MOL0     C37097  -0.030   5.855   2.580 -0.1079  0.1404  0.6458
  994MOL0     C37098  -0.177   5.877   2.587 -0.3733 -0.1993 -0.2810
  994MOL0     C37099  -0.297   5.891   2.591  0.7527  0.6544 -0.3877
  994MOL0     C37100   0.137   5.424   2.228 -0.3105 -0.0540  0.3275
  994MOL0     C37101   0.171   5.290   2.226  0.2822 -0.6088 -1.0238
  994MOL0     C37102   0.070   5.209   2.143 -0.2265 -0.2783 -0.0941
  994MOL0     H37103   0.625   4.939   2.300 -0.9466  0.6512 -0.1021
  994MOL0     H37104   0.703   4.681   2.364 -1.1803 -1.9146  0.4513
  994MOL0     H37105   0.652   4.626   2.697 -1.7627 -2.6480  2.8796
  994MOL0     H37106   0.774   4.541   2.603 -0.1121 -0.6255  2.7170
  994MOL0     H37107   0.715   4.440   2.813 -2.3219 -0.2643  1.0940
  994MOL0     H37108   0.555   4.406   2.752 -0.7682  2.7176 -1.3160
  994MOL0     H37109   0.642   4.270   2.568  0.2738  0.9276 -0.4368
  994MOL0     H37110   0.802   4.316   2.591 -0.6756 -2.8241 -3.4662
  994MOL0     H37111   0.778   4.225   2.834  0.3532  3.3925 -1.0347
  994MOL0     H37112   0.619   4.166   2.797  0.2543  0.5425  2.1847
  994MOL0     H37113   0.787   3.980   2.754 -0.2125  0.7130  0.5290
  994MOL0     H37114   0.875   4.083   2.638  0.0057  1.8613  2.1837
  994MOL0     H37115   0.589   3.979   2.584  0.3491 -3.0952 -2.0491
  994MOL0     H37116   0.681   4.091   2.485  2.0363 -0.6741 -0.4025
  994MOL0     H37117   0.797   3.808   2.548  1.0973  1.1989  1.2690
  994MOL0     H37118   0.845   3.937   2.438  2.6521  0.2185  4.0461
  994MOL0     H37119   0.603   3.751   2.403 -0.1834 -0.1382 -1.6840
  994MOL0     H37120   0.605   3.911   2.329  1.2056  1.2695  2.8230
  994MOL0     H37121   0.666   3.579   2.226 -0.0685  1.8065  3.2580
  994MOL0     H37122   0.835   3.438   2.037  0.1147  0.9628  0.8981
  994MOL0     H37123   0.966   3.536   1.977 -0.2854  1.8819  1.5662
  994MOL0     H37124   0.796   3.674   1.852  0.3254  0.0353 -0.2765
  994MOL0     H37125   0.818   3.505   1.808  0.0181 -2.5457  1.8069
  994MOL0     H37126   0.594   3.594   1.973  1.2085 -0.0653  1.5509
  994MOL0     H37127   0.594   3.561   1.799  0.4922 -1.5858 -0.2467
  994MOL0     H37128   0.507   3.352   1.879  0.1432  0.5065 -0.5253
  994MOL0     H37129   0.670   3.320   1.858  0.1127  0.6460 -0.0772
  994MOL0     H37130   0.440   3.155   1.929 -1.5955 -1.4702  0.8795
  994MOL0     H37131   0.414   2.815   1.988 -1.2441 -0.5280  3.4480
  994MOL0     H37132   0.370   2.941   1.884 -2.2378 -0.6529 -0.3099
  994MOL0     H37133   0.264   2.911   2.027 -0.2996  1.0865 -0.8913
  994MOL0     H37134   0.156   2.628   2.219 -1.0902 -0.6840  1.9476
  994MOL0     H37135   0.107   2.427   2.325  0.6996 -0.9442 -4.0058
  994MOL0     H37136   0.414   2.216   2.571 -1.8242 -2.0578  3.0985
  994MOL0     H37137   0.277   2.106   2.577  1.2879 -0.9857  0.2517
  994MOL0     H37138   0.338   2.039   2.335  1.3980 -0.2668 -1.2778
  994MOL0     H37139   0.504   2.114   2.380  1.6996 -2.3883 -1.0798
  994MOL0     H37140   0.394   1.928   2.584 -2.0636  1.3301 -1.1500
  994MOL0     H37141   0.554   1.917   2.497  0.1494 -1.9730 -2.5850
  994MOL0     H37142   0.468   1.821   2.306  1.3035  3.1351  0.4057
  994MOL0     H37143   0.302   1.826   2.369  0.8515  2.1146  0.1137
  994MOL0     H37144   0.556   1.677   2.451  0.2652 -0.6444  0.3396
  994MOL0     H37145   0.425   1.674   2.569  0.4733  0.8360 -0.6937
  994MOL0     H37146   0.434   1.546   2.290  4.0295  0.7257  0.6914
  994MOL0     H37147   0.289   1.578   2.373 -0.7910 -1.6723  3.4439
  994MOL0     H37148   0.391   1.451   2.561 -2.2708  2.4493 -0.5183
  994MOL0     H37149   0.523   1.409   2.452  0.1057  3.6513  0.3648
  994MOL0     H37150   0.234   1.341   2.384  0.2962  0.8151  0.3657
  994MOL0     H37151   0.322   1.232   2.480  1.7153 -0.0503  0.3957
  994MOL0     H37152   0.504   2.377   2.468 -0.6610 -0.6815  0.3189
  994MOL0     H37153   0.571   2.592   2.370  1.0467 -2.0128  0.6522
  994MOL0     H37154   0.671   2.996   2.332 -3.9878 -2.7302  0.8957
  994MOL0     H37155   0.733   3.234   2.234  1.1017  0.1393 -3.1666
  994MOL0     H37156   0.345   4.670   2.593 -0.6223 -1.5419 -2.1465
  994MOL0     H37157   0.282   4.896   2.532  0.5619 -0.7079  2.6428
  994MOL0     H37158   0.434   5.306   2.448  2.2013  3.6394 -1.2945
  994MOL0     H37159   0.383   5.547   2.412  0.5646  0.1332  0.8672
  994MOL0     H37160   0.094   5.821   2.201  0.6056 -0.5206 -3.4567
  994MOL0     H37161   0.041   5.674   2.146 -1.2631  0.1800  0.6603
  994MOL0     H37162   0.010   5.641   2.425  2.4313  1.1251  0.7032
  994MOL0     H37163  -0.115   5.712   2.325 -1.5041 -0.9745  2.0534
  994MOL0     H37164   0.134   5.848   2.455  1.3038 -0.8716 -3.5475
  994MOL0     H37165   0.008   5.954   2.398  4.1936 -0.1160 -2.4876
  994MOL0     H37166   0.032   5.912   2.650 -0.5977 -2.4148  3.3647
  994MOL0     H37167  -0.007   5.762   2.633  2.7119  0.7723  0.6688
  994MOL0     H37168  -0.400   5.918   2.580 -0.9695 -4.2381  1.0512
  994MOL0     H37169   0.050   5.465   2.177 -0.9205 -1.1665  0.4416
  994MOL0     H37170   0.001   5.160   2.213  0.0783  1.3456  1.4061
  994MOL0     H37171   0.011   5.272   2.077 -1.4129 -0.7307  0.4995
  994MOL0     H37172   0.131   5.137   2.087  3.0273  1.0144  1.5165
  995MOL0     O37173   9.173   0.042   6.604 -0.1305 -0.6012 -0.0783
  995MOL0     C37174   9.257  -0.052   6.619 -0.6704  0.7205  0.0770
  995MOL0     O37175   9.343  -0.097   6.515  0.2146  0.8373  1.1801
  995MOL0     C37176   9.318  -0.057   6.387 -0.5897  0.1872 -0.6554
  995MOL0     C37177   9.411   0.029   6.328 -0.5751 -0.3271  0.2265
  995MOL0     C37178   9.379   0.094   6.202 -0.8809 -0.3379 -1.3283
  995MOL0     C37179   9.254   0.065   6.144 -0.6246  1.4100 -0.2792
  995MOL0     O37180   9.241   0.123   6.031  0.0133 -0.4640 -0.7405
  995MOL0     C37181   9.131   0.211   6.018 -0.6959  0.9287 -1.3460
  995MOL0     C37182   9.177   0.347   6.072  0.5476  0.0899  0.6731
  995MOL0     C37183   9.051   0.449   6.063  0.0078  0.2176 -0.1066
  995MOL0     C37184   9.074   0.580   6.133  0.1278  0.0441  0.0703
  995MOL0     C37185   9.181   0.575   6.252 -0.4067  0.5624 -0.5463
  995MOL0     C37186   9.113   0.502   6.368  0.6974  0.1963  0.5722
  995MOL0     C37187   9.198   0.485   6.495  0.5401 -0.4961  0.2966
  995MOL0     C37188   9.304   0.376   6.474 -0.1209  0.3441  1.4166
  995MOL0     N37189   9.386   0.357   6.595  0.1574 -0.8663 -0.4906
  995MOL0     C37190   9.341   0.320   6.716  1.5488  0.1408 -0.5060
  995MOL0     C37191   9.446   0.286   6.785 -0.1278 -0.1097 -0.0572
  995MOL0     C37192   9.452   0.249   6.929 -0.5269  0.1459  0.5832
  995MOL0     C37193   9.549   0.142   6.955  0.4723 -0.2686  0.0044
  995MOL0     C37194   9.506   0.084   7.090 -1.2528  0.4169 -0.5005
  995MOL0     C37195   9.608  -0.028   7.148 -0.3881 -0.3493 -0.6301
  995MOL0     O37196   9.742  -0.013   7.088  0.1666  0.0396  0.8947
  995MOL0     C37197   9.865  -0.047   7.137 -0.2749 -0.3994 -0.1291
  995MOL0     C37198   9.885  -0.127   7.253 -1.0704  1.1638  0.7302
  995MOL0     C37199  10.019  -0.158   7.289  0.3280 -0.6902  0.0585
  995MOL0     C37200  10.044  -0.251   7.400  0.7314 -0.8316  0.1673
  995MOL0     C37201  10.131  -0.094   7.228  0.4232  0.1851  0.0578
  995MOL0     C37202  10.271  -0.090   7.268  0.0064  0.3188 -0.3034
  995MOL0     O37203  10.297  -0.130   7.392  0.2869 -0.0374 -0.0692
  995MOL0     C37204  10.426  -0.125   7.432 -0.3746  0.4826  0.3806
  995MOL0     C37205  10.488  -0.010   7.490  0.1005 -0.5537 -0.2153
  995MOL0     C37206  10.626  -0.019   7.524  0.1088 -0.3427  0.6760
  995MOL0     C37207  10.698  -0.137   7.515 -0.4717 -0.1714 -0.0687
  995MOL0     O37208  10.831  -0.140   7.557 -0.0735 -0.5557 -0.0236
  995MOL0     C37209  10.934  -0.145   7.455 -0.2861  0.4109  0.6275
  995MOL0     C37210  11.069  -0.128   7.528 -0.3941 -0.1861 -0.8751
  995MOL0     C37211  11.176  -0.089   7.432 -0.8641  0.5867 -0.4161
  995MOL0     C37212  11.302  -0.050   7.508  0.0777 -1.0135 -0.8126
  995MOL0     C37213  11.395   0.040   7.435  0.2612  0.7019  0.0734
  995MOL0     C37214  11.355   0.191   7.435  0.7828 -0.2686 -0.3834
  995MOL0     C37215  11.432   0.259   7.321 -0.2674 -0.1962 -0.1682
  995MOL0     C37216  11.432   0.401   7.354  0.5468 -0.8187  1.3720
  995MOL0    Cl37217  11.255   0.467   7.338  0.4002  0.2109 -0.1821
  995MOL0     C37218  10.630  -0.254   7.469  1.1365 -0.0350 -0.0708
  995MOL0     C37219  10.497  -0.245   7.427 -0.0185  0.8361  0.5832
  995MOL0     O37220  10.356  -0.068   7.184  0.0062 -0.2007  0.2378
  995MOL0     C37221  10.095  -0.026   7.112 -0.7745  0.6972  0.7637
  995MOL0     C37222   9.969   0.003   7.068  1.3245  0.2778 -0.5095
  995MOL0     N37223   9.562   0.299   6.707  0.2667  0.4454 -0.9840
  995MOL0     N37224   9.518   0.333   6.590 -0.3363 -0.7804 -0.7984
  995MOL0     C37225   9.162  -0.025   6.202  0.3078  0.3785  0.4189
  995MOL0     C37226   9.194  -0.080   6.320 -0.4019  0.2636  1.2180
  995MOL0     C37227   9.271  -0.104   6.760  0.5207  0.7198 -0.2577
  995MOL0     C37228   9.185  -0.049   6.863  0.3964 -0.4890  0.7836
  995MOL0     C37229   9.173  -0.094   6.986  0.0060  0.0688  0.1699
  995MOL0     C37230   9.254  -0.196   7.033 -0.4274  0.8961  0.2779
  995MOL0     O37231   9.245  -0.238   7.167  0.0353  0.1853  0.7771
  995MOL0     C37232   9.333  -0.340   7.214 -0.0210 -0.5579 -0.8993
  995MOL0     C37233   9.323  -0.351   7.364 -0.4661  0.0147 -0.6365
  995MOL0     C37234   9.376  -0.230   7.442 -0.1486 -1.0055 -0.5682
  995MOL0     C37235   9.369  -0.260   7.592 -0.5712  0.8873  0.0617
  995MOL0     C37236   9.237  -0.226   7.639 -0.0655  0.2898 -0.4122
  995MOL0     C37237   9.128  -0.180   7.669 -0.4063  0.0943 -0.0846
  995MOL0     C37238   9.356  -0.249   6.939  1.0021 -1.0130  0.4673
  995MOL0     C37239   9.366  -0.206   6.806  0.2017  0.4448  0.1574
  995MOL0     C37240   9.474  -0.258   6.716  0.0976  0.2577  0.6764
  995MOL0     H37241   9.495   0.064   6.386 -1.1712  2.3472 -0.3796
  995MOL0     H37242   9.454   0.158   6.156  0.4786  0.3864  1.6380
  995MOL0     H37243   9.051   0.166   6.078  1.8466 -0.2690  1.4274
  995MOL0     H37244   9.096   0.214   5.914 -2.6756 -0.8047 -0.8061
  995MOL0     H37245   9.206   0.329   6.176  1.2398  1.8320  0.8263
  995MOL0     H37246   9.265   0.391   6.024  0.0380  1.5365  0.9947
  995MOL0     H37247   9.024   0.468   5.959 -2.8735 -2.3014  0.0054
  995MOL0     H37248   8.962   0.403   6.109  1.0818  2.7359  5.2894
  995MOL0     H37249   9.122   0.635   6.051  1.5634 -5.1086 -3.0025
  995MOL0     H37250   8.977   0.621   6.162  0.5071  2.0872 -1.3388
  995MOL0     H37251   9.209   0.677   6.282  0.2882  0.4991 -0.9415
  995MOL0     H37252   9.279   0.540   6.219 -0.1132 -0.2135  1.0599
  995MOL0     H37253   9.024   0.560   6.392 -0.7637 -2.6958  2.8590
  995MOL0     H37254   9.078   0.402   6.340  0.1125  0.6636 -0.3989
  995MOL0     H37255   9.137   0.441   6.574  0.0115  0.8431  0.6682
  995MOL0     H37256   9.236   0.584   6.524  2.0242  0.2690 -3.6590
  995MOL0     H37257   9.255   0.281   6.452 -0.1482  0.9111 -1.1742
  995MOL0     H37258   9.372   0.397   6.391  2.4883 -2.2542  2.7158
  995MOL0     H37259   9.235   0.323   6.741  1.7986 -0.0047  0.5751
  995MOL0     H37260   9.356   0.220   6.972 -0.8304  2.7827  1.8925
  995MOL0     H37261   9.489   0.334   6.988  0.4918  1.4361 -1.8032
  995MOL0     H37262   9.522   0.070   6.877 -2.7372  0.6440  0.1631
  995MOL0     H37263   9.657   0.153   6.938  0.2980  0.6325 -0.6614
  995MOL0     H37264   9.493   0.158   7.170  0.0265 -0.3799  0.4909
  995MOL0     H37265   9.408   0.037   7.083 -0.3680 -1.2702 -3.4855
  995MOL0     H37266   9.610  -0.027   7.257 -0.3415  0.4410 -0.6343
  995MOL0     H37267   9.577  -0.131   7.127  1.1686 -0.3613 -3.2517
  995MOL0     H37268   9.797  -0.173   7.296  0.3060 -1.0306  1.3294
  995MOL0     H37269  10.131  -0.314   7.380  0.5982 -0.7879 -0.5983
  995MOL0     H37270   9.962  -0.315   7.432 -0.2315  0.6743  0.8605
  995MOL0     H37271  10.058  -0.191   7.491 -0.0866 -0.5174  0.0983
  995MOL0     H37272  10.428   0.080   7.494  0.9302  0.0694 -1.1525
  995MOL0     H37273  10.681   0.071   7.549 -1.0557  1.3825 -2.3978
  995MOL0     H37274  10.934  -0.242   7.406  2.1878 -0.3868  1.9996
  995MOL0     H37275  10.924  -0.071   7.375 -2.3041  1.6122  1.8949
  995MOL0     H37276  11.066  -0.050   7.605  0.1664 -1.6571  0.7090
  995MOL0     H37277  11.110  -0.221   7.571  0.1586 -0.5982 -2.2271
  995MOL0     H37278  11.140  -0.001   7.379 -1.6669 -0.8180 -2.3378
  995MOL0     H37279  11.194  -0.173   7.365 -0.1699  0.9396 -0.6756
  995MOL0     H37280  11.368  -0.129   7.544  0.2465 -0.9327 -0.9442
  995MOL0     H37281  11.278   0.008   7.599  3.1977  0.7773 -0.9952
  995MOL0     H37282  11.501   0.025   7.458  0.6630  2.1798 -0.6608
  995MOL0     H37283  11.399   0.003   7.332 -0.2176 -0.4211  0.4394
  995MOL0     H37284  11.379   0.231   7.533  0.8008 -1.6405  0.1953
  995MOL0     H37285  11.247   0.205   7.425  0.4280 -1.1223  1.8425
  995MOL0     H37286  11.387   0.235   7.225 -2.0452  1.2307  0.2440
  995MOL0     H37287  11.537   0.227   7.315  0.0843  1.0551 -1.0820
  995MOL0     H37288  11.498   0.465   7.294  0.3700 -0.8089  1.1886
  995MOL0     H37289  11.462   0.413   7.459 -0.3509  0.3418  1.5142
  995MOL0     H37290  10.679  -0.351   7.471  0.4630 -0.3943 -0.7324
  995MOL0     H37291  10.440  -0.333   7.398  0.7613  0.2361  0.8012
  995MOL0     H37292  10.170   0.019   7.047 -3.1356  2.3359 -0.9909
  995MOL0     H37293   9.948   0.063   6.980 -2.2896  2.9524  1.8556
  995MOL0     H37294   9.074  -0.046   6.141  1.3784 -1.5081 -0.5577
  995MOL0     H37295   9.120  -0.129   6.383 -0.2134  2.6467  3.4543
  995MOL0     H37296   9.109   0.013   6.816  1.3520  0.1070 -0.0203
  995MOL0     H37297   9.107  -0.057   7.065  3.2177  1.9799  2.1865
  995MOL0     H37298   9.302  -0.436   7.171  0.2466 -1.0605 -0.0085
  995MOL0     H37299   9.435  -0.320   7.182  0.4282 -2.1769 -0.5412
  995MOL0     H37300   9.383  -0.439   7.391 -1.8071 -1.4387 -2.1010
  995MOL0     H37301   9.222  -0.378   7.397  0.1683 -0.6434  0.8686
  995MOL0     H37302   9.474  -0.202   7.404 -0.2296  1.7587  1.0185
  995MOL0     H37303   9.305  -0.149   7.424 -0.0949 -0.3671  1.8109
  995MOL0     H37304   9.450  -0.219   7.653  0.9932 -1.1119 -0.5377
  995MOL0     H37305   9.378  -0.369   7.596  3.3110  1.0839  0.1315
  995MOL0     H37306   9.027  -0.158   7.698 -0.9903 -1.4572 -0.7869
  995MOL0     H37307   9.425  -0.322   6.982  0.3492 -1.7364  0.3171
  995MOL0     H37308   9.543  -0.326   6.765  0.3573  0.1276  0.1392
  995MOL0     H37309   9.442  -0.309   6.625  2.3728  0.4124 -0.2780
  995MOL0     H37310   9.537  -0.174   6.685  2.4897 -2.2630 -1.9466
  996MOL0     O37311  10.632   2.105   0.092  0.0592 -0.4601 -0.2212
  996MOL0     C37312  10.552   2.163   0.172 -0.0919  0.4545  0.4993
  996MOL0     O37313  10.450   2.244   0.139 -0.4984  0.2522 -0.0516
  996MOL0     C37314  10.476   2.337   0.040 -0.2576 -0.3987 -0.5302
  996MOL0     C37315  10.514   2.468   0.084 -0.6468 -0.3745 -0.4422
  996MOL0     C37316  10.534   2.573  -0.007 -0.3967  0.1165  0.3841
  996MOL0     C37317  10.547   2.544  -0.151 -0.5267  0.1163 -0.5110
  996MOL0     O37318  10.583   2.628  -0.245 -0.1821 -0.5437  0.4569
  996MOL0     C37319  10.623   2.766  -0.204  0.6961  0.1650  0.5927
  996MOL0     C37320  10.595   2.856  -0.328 -0.0708 -0.7193  0.7638
  996MOL0     C37321  10.678   2.985  -0.335 -0.5533 -0.0923 -0.5467
  996MOL0     C37322  10.609   3.080  -0.438  0.1137  1.0783  0.7486
  996MOL0     C37323  10.679   3.209  -0.445  0.0207 -0.4310 -0.2038
  996MOL0     C37324  10.597   3.328  -0.482  0.1157 -1.4177  0.8395
  996MOL0     C37325  10.668   3.455  -0.527 -0.0786 -0.9018  0.5305
  996MOL0     C37326  10.716   3.539  -0.412 -0.5991 -0.2411  0.2013
  996MOL0     N37327  10.749   3.675  -0.444 -0.2325 -0.3976 -0.3080
  996MOL0     C37328  10.861   3.720  -0.525  0.3175  0.3322 -0.9785
  996MOL0     C37329  10.828   3.851  -0.561  0.6050 -0.7015 -1.0743
  996MOL0     C37330  10.892   3.958  -0.645  0.1198  0.1871  0.2398
  996MOL0     C37331  11.028   4.004  -0.583 -0.6318 -0.7642 -0.3679
  996MOL0     C37332  11.107   4.085  -0.675  0.5291 -0.2654 -0.8707
  996MOL0     C37333  11.233   4.140  -0.610 -0.1643 -0.4632  0.7241
  996MOL0     O37334  11.311   4.215  -0.713  0.1526 -0.5269 -0.2534
  996MOL0     C37335  11.451   4.201  -0.701  0.5618  0.9738  0.2387
  996MOL0     C37336  11.534   4.157  -0.811 -0.1128  0.0753  0.1848
  996MOL0     C37337  11.681   4.154  -0.785  0.3164  0.5658  0.1428
  996MOL0     C37338  11.762   4.091  -0.895  0.0829  0.5467  0.1918
  996MOL0     C37339  11.733   4.187  -0.656 -0.5570  0.5137 -0.0536
  996MOL0     C37340  11.880   4.194  -0.626 -0.4089  0.8713 -0.0167
  996MOL0     O37341  11.919   4.186  -0.492 -0.4538 -0.6647  0.0797
  996MOL0     C37342  12.053   4.222  -0.457  0.0101  0.8917  1.0529
  996MOL0     C37343  12.136   4.319  -0.528 -0.7911  0.5452  0.3790
  996MOL0     C37344  12.259   4.354  -0.468  0.0666 -0.7763 -0.2257
  996MOL0     C37345  12.297   4.307  -0.346 -0.6204  0.7257 -0.0868
  996MOL0     O37346  12.419   4.336  -0.282 -1.1512  0.4227 -0.2175
  996MOL0     C37347  12.521   4.231  -0.289 -0.0430 -0.3569  0.4931
  996MOL0     C37348  12.596   4.201  -0.163  0.2111  0.0320  0.5407
  996MOL0     C37349  12.699   4.077  -0.168 -0.1842 -0.3165 -0.2761
  996MOL0     C37350  12.788   4.082  -0.051  0.7927 -0.9649  0.5147
  996MOL0     C37351  12.865   3.954  -0.029 -0.2404  1.2526 -0.0469
  996MOL0     C37352  12.767   3.831  -0.013  0.7773  0.8624  0.3821
  996MOL0     C37353  12.679   3.854   0.109 -0.3294 -0.0840 -0.1964
  996MOL0     C37354  12.586   3.743   0.160  0.7189 -0.6635 -0.6131
  996MOL0    Cl37355  12.670   3.593   0.158  0.0525  0.5434 -0.2731
  996MOL0     C37356  12.216   4.226  -0.282 -0.5304  0.0199 -1.0649
  996MOL0     C37357  12.088   4.185  -0.331  0.0958  0.3837 -0.2920
  996MOL0     O37358  11.955   4.216  -0.718  0.3335 -0.2195  0.5116
  996MOL0     C37359  11.643   4.230  -0.557  1.0202 -0.2097  0.4895
  996MOL0     C37360  11.510   4.230  -0.575  1.0207  0.4859  0.8223
  996MOL0     N37361  10.705   3.877  -0.508  0.3342  0.1972  0.6101
  996MOL0     N37362  10.666   3.782  -0.430  0.0939 -1.3532  0.2420
  996MOL0     C37363  10.524   2.410  -0.184 -0.1921 -0.3077  0.7200
  996MOL0     C37364  10.482   2.304  -0.095 -0.4586  1.1308 -0.0671
  996MOL0     C37365  10.562   2.120   0.314  0.7812 -0.7983  0.7816
  996MOL0     C37366  10.479   2.190   0.405 -0.1093 -0.1649  0.3996
  996MOL0     C37367  10.478   2.161   0.533 -0.4715  0.3051  0.4961
  996MOL0     C37368  10.554   2.055   0.577  0.2232  0.3081 -0.7441
  996MOL0     O37369  10.542   2.020   0.707  0.0527  0.6011 -0.3308
  996MOL0     C37370  10.410   2.031   0.766 -0.3065  0.3477  0.6874
  996MOL0     C37371  10.403   1.956   0.900  0.1166  0.7925 -0.8634
  996MOL0     C37372  10.252   1.936   0.928 -1.5793  0.2520 -0.1734
  996MOL0     C37373  10.232   1.844   1.047 -0.3533 -0.4233 -1.0229
  996MOL0     C37374  10.248   1.904   1.179 -0.3022  0.0361 -0.0808
  996MOL0     C37375  10.258   1.945   1.292  0.6245 -0.0789 -0.6184
  996MOL0     C37376  10.652   1.991   0.498  0.0662  1.1037  0.3324
  996MOL0     C37377  10.647   2.017   0.361 -0.0857  0.3356 -0.0093
  996MOL0     C37378  10.750   1.936   0.287  0.9367 -0.3701  0.1172
  996MOL0     H37379  10.502   2.506   0.185 -0.9718  0.8223 -0.9199
  996MOL0     H37380  10.556   2.670   0.037  3.8469 -0.3595 -0.2660
  996MOL0     H37381  10.729   2.766  -0.178  0.6451 -1.9811  0.9645
  996MOL0     H37382  10.558   2.805  -0.125  0.4510  1.8141 -0.3716
  996MOL0     H37383  10.629   2.805  -0.418  1.1885  3.3490 -1.3288
  996MOL0     H37384  10.487   2.872  -0.337 -0.4677 -3.7013 -0.8493
  996MOL0     H37385  10.675   3.044  -0.244 -0.2770 -1.8780  0.6683
  996MOL0     H37386  10.778   2.957  -0.369 -0.3482 -0.6287  0.4635
  996MOL0     H37387  10.608   3.034  -0.537  1.1281  2.3194  0.1407
  996MOL0     H37388  10.503   3.102  -0.419 -0.4064  0.4910 -1.2620
  996MOL0     H37389  10.769   3.188  -0.504  0.0489 -0.1156 -0.2754
  996MOL0     H37390  10.713   3.236  -0.345 -2.1967 -0.1433  0.5129
  996MOL0     H37391  10.523   3.311  -0.561 -2.7169  0.8676  2.8058
  996MOL0     H37392  10.541   3.355  -0.392  4.1638  3.4546  2.3605
  996MOL0     H37393  10.582   3.503  -0.574 -0.1807 -0.9563  0.6616
  996MOL0     H37394  10.744   3.422  -0.599 -0.5657  0.4201 -0.6309
  996MOL0     H37395  10.660   3.523  -0.319 -0.7893 -2.7025 -0.2616
  996MOL0     H37396  10.817   3.503  -0.393  0.7147  1.4966 -2.7436
  996MOL0     H37397  10.954   3.676  -0.559 -0.1213  0.7358 -2.8193
  996MOL0     H37398  10.820   4.038  -0.661 -1.1928 -0.2570  3.2246
  996MOL0     H37399  10.914   3.923  -0.746 -1.1083  0.0382  0.0081
  996MOL0     H37400  11.007   4.063  -0.494  2.7429  2.1346 -1.2737
  996MOL0     H37401  11.093   3.923  -0.549  0.0673 -0.1521 -0.2339
  996MOL0     H37402  11.124   4.027  -0.766  1.4695 -2.1327  0.4232
  996MOL0     H37403  11.050   4.175  -0.702  0.2907 -0.7523 -2.0667
  996MOL0     H37404  11.213   4.200  -0.521 -0.7203  0.7076 -0.1571
  996MOL0     H37405  11.281   4.051  -0.569  1.5047 -0.2714 -0.7139
  996MOL0     H37406  11.489   4.117  -0.901 -3.1832 -0.0647  1.6553
  996MOL0     H37407  11.817   4.171  -0.946  0.6670 -0.0642 -0.1498
  996MOL0     H37408  11.701   4.025  -0.957 -0.2966 -0.0486  1.1734
  996MOL0     H37409  11.819   4.020  -0.834  0.5741  0.2872 -0.5551
  996MOL0     H37410  12.114   4.354  -0.629  2.1258  4.2804  0.7768
  996MOL0     H37411  12.334   4.427  -0.498  1.2659 -0.3059  3.3872
  996MOL0     H37412  12.485   4.134  -0.325  2.2687  0.3387 -4.6980
  996MOL0     H37413  12.584   4.263  -0.373  3.4885  0.6234  3.3007
  996MOL0     H37414  12.645   4.292  -0.126  0.3422  0.3615 -0.4046
  996MOL0     H37415  12.515   4.177  -0.093 -1.0129  1.1955 -0.4198
  996MOL0     H37416  12.757   4.089  -0.260 -0.6038 -0.4253 -0.5571
  996MOL0     H37417  12.637   3.988  -0.180 -0.4626 -0.1921  0.2222
  996MOL0     H37418  12.719   4.097   0.032 -0.7950 -2.3368 -0.4738
  996MOL0     H37419  12.852   4.167  -0.074  0.4486 -0.6386  0.7602
  996MOL0     H37420  12.930   3.929  -0.113 -2.2472 -1.4163 -0.9725
  996MOL0     H37421  12.922   3.960   0.064 -4.4797  0.0694  2.9906
  996MOL0     H37422  12.833   3.750   0.020  1.7607  1.5210  0.1026
  996MOL0     H37423  12.701   3.806  -0.096  0.6089  0.5563  0.6061
  996MOL0     H37424  12.617   3.942   0.091  2.2012  1.6232 -1.2758
  996MOL0     H37425  12.755   3.873   0.185  0.5995  1.8517 -1.5151
  996MOL0     H37426  12.490   3.743   0.108 -3.0302  3.2607  5.0440
  996MOL0     H37427  12.559   3.768   0.263 -0.4882 -1.1174 -0.8012
  996MOL0     H37428  12.248   4.191  -0.185  1.8088  4.7258  0.1901
  996MOL0     H37429  12.040   4.107  -0.272 -0.1914  0.5021 -0.3674
  996MOL0     H37430  11.680   4.227  -0.454 -0.9929  1.0846  1.3109
  996MOL0     H37431  11.441   4.263  -0.498  0.5686  0.5728  0.3840
  996MOL0     H37432  10.528   2.387  -0.290  0.3208  3.3086 -0.1677
  996MOL0     H37433  10.489   2.198  -0.119  0.2110  0.6650  1.9655
  996MOL0     H37434  10.407   2.265   0.374  1.8574  0.9377 -1.8432
  996MOL0     H37435  10.396   2.212   0.582 -1.9292 -2.3878  1.0622
  996MOL0     H37436  10.390   2.135   0.791 -2.4825 -0.7079  4.0076
  996MOL0     H37437  10.341   1.987   0.694  4.1300 -0.1171 -3.8876
  996MOL0     H37438  10.446   2.012   0.984  1.3330 -0.6034 -0.5250
  996MOL0     H37439  10.462   1.866   0.885 -1.4140  0.0359 -2.7321
  996MOL0     H37440  10.211   2.034   0.956 -0.1418  0.8476 -0.0834
  996MOL0     H37441  10.202   1.904   0.836  0.3794  0.1232 -1.2268
  996MOL0     H37442  10.304   1.762   1.038 -0.6024 -1.6480  4.6242
  996MOL0     H37443  10.133   1.802   1.031 -1.1594  1.1911 -0.4851
  996MOL0     H37444  10.244   1.981   1.392 -5.3732  0.4542 -1.3005
  996MOL0     H37445  10.704   1.910   0.547 -2.0476 -0.9852 -0.6398
  996MOL0     H37446  10.690   1.879   0.214 -0.2205  0.7091  0.1943
  996MOL0     H37447  10.831   2.004   0.260 -0.1211  1.3928  1.2116
  996MOL0     H37448  10.790   1.859   0.353  0.1066  1.4622  2.8952
  997MOL0     O37449  11.479  11.460   3.988 -0.0309 -1.0043  0.1055
  997MOL0     C37450  11.381  11.431   4.047  0.5557  0.9716  0.0770
  997MOL0     O37451  11.246  11.469   4.012  0.3246 -0.7396 -0.0834
  997MOL0     C37452  11.210  11.559   3.915 -0.2280 -0.6275  0.3362
  997MOL0     C37453  11.289  11.586   3.802  0.1333  0.2970  0.1269
  997MOL0     C37454  11.257  11.683   3.708  0.5865  0.2578 -0.0292
  997MOL0     C37455  11.147  11.758   3.740 -0.0619 -0.9170 -0.1062
  997MOL0     O37456  11.127  11.865   3.652  0.2686  0.0188  0.0944
  997MOL0     C37457  11.093  12.000   3.697  0.0515 -1.1269  0.9064
  997MOL0     C37458  11.084  12.081   3.567 -0.3346 -0.4002 -0.8220
  997MOL0     C37459  10.958  12.060   3.473 -1.2823  0.0549 -0.7114
  997MOL0     C37460  10.826  12.095   3.547  0.8872  0.0579  1.0032
  997MOL0     C37461  10.714  12.080   3.441 -0.3955  1.3202  0.0830
  997MOL0     C37462  10.572  12.094   3.502 -0.2763 -0.1313  0.4184
  997MOL0     C37463  10.540  11.992   3.616 -0.5017 -0.4164 -1.1126
  997MOL0     C37464  10.531  11.847   3.572 -0.4137 -0.0907 -0.6923
  997MOL0     N37465  10.438  11.830   3.457  0.0346 -0.0920 -0.5372
  997MOL0     C37466  10.309  11.871   3.462 -0.9256  0.0966 -0.4359
  997MOL0     C37467  10.255  11.827   3.346  0.2859 -0.0320  0.0261
  997MOL0     C37468  10.116  11.831   3.293  0.2916  0.0531 -0.8180
  997MOL0     C37469  10.023  11.745   3.384 -0.3390 -0.1446  0.1025
  997MOL0     C37470   9.963  11.834   3.505 -0.3231  0.3944  0.8057
  997MOL0     C37471   9.869  11.754   3.598 -0.2090 -0.9309  0.4753
  997MOL0     O37472   9.944  11.661   3.671  0.7728 -0.3316  0.5159
  997MOL0     C37473   9.888  11.618   3.792  0.6631 -0.2330  0.4616
  997MOL0     C37474   9.769  11.666   3.839  0.7317  0.2288 -0.0483
  997MOL0     C37475   9.710  11.617   3.959 -0.3948 -0.5973 -1.3904
  997MOL0     C37476   9.579  11.680   4.019  0.2423 -0.4700 -0.5316
  997MOL0     C37477   9.774  11.518   4.030  0.6891  0.1063  0.0630
  997MOL0     C37478   9.732  11.466   4.161  0.2212  0.4903  0.3456
  997MOL0     O37479   9.843  11.419   4.235  1.0328  0.7922  0.1588
  997MOL0     C37480   9.829  11.385   4.370  1.0695 -0.3224  0.3857
  997MOL0     C37481   9.842  11.255   4.423 -1.2095 -1.2754  0.7610
  997MOL0     C37482   9.823  11.229   4.560 -1.0731  0.6762  0.0868
  997MOL0     C37483   9.796  11.327   4.650 -1.1520  0.4130  1.5494
  997MOL0     O37484   9.782  11.296   4.773  0.2764  0.7307  0.8464
  997MOL0     C37485   9.900  11.306   4.850 -0.4933  0.9847  0.4117
  997MOL0     C37486   9.964  11.159   4.850  0.0795 -0.1571 -0.0191
  997MOL0     C37487  10.086  11.171   4.943  0.3324  0.3343 -0.0473
  997MOL0     C37488  10.135  11.029   4.975  0.7019  0.0828 -0.1353
  997MOL0     C37489  10.267  11.056   5.049  0.7884  0.6116  0.0322
  997MOL0     C37490  10.335  10.926   5.082 -0.7791 -0.0155  0.0332
  997MOL0     C37491  10.471  10.975   5.146 -0.7230  1.0039  0.5555
  997MOL0     C37492  10.549  10.860   5.208 -0.3235  0.2745  0.7993
  997MOL0    Cl37493  10.437  10.757   5.306  0.3757  0.2711  0.1676
  997MOL0     C37494   9.789  11.457   4.599 -0.4913 -0.7273  0.0339
  997MOL0     C37495   9.802  11.481   4.467 -0.8615  0.7766  0.7187
  997MOL0     O37496   9.610  11.457   4.204 -0.4636  0.0791  0.5133
  997MOL0     C37497   9.906  11.483   3.982 -1.0839  0.6986 -0.4647
  997MOL0     C37498   9.955  11.531   3.871 -0.8159  0.1732  0.0565
  997MOL0     N37499  10.361  11.766   3.270 -0.2062  0.5351 -1.1060
  997MOL0     N37500  10.467  11.768   3.335  0.2327  0.4712  0.6150
  997MOL0     C37501  11.070  11.732   3.856  0.0859 -0.3367  0.7393
  997MOL0     C37502  11.096  11.631   3.941 -0.5479  0.6805  0.0916
  997MOL0     C37503  11.398  11.369   4.175  0.5986  0.4051 -0.0934
  997MOL0     C37504  11.323  11.259   4.194  0.2679  0.1532  0.9047
  997MOL0     C37505  11.333  11.195   4.314 -0.8956  1.8024 -0.6947
  997MOL0     C37506  11.414  11.234   4.413  0.3288 -0.2678 -0.0879
  997MOL0     O37507  11.406  11.181   4.534 -0.4342 -0.5150 -0.2920
  997MOL0     C37508  11.492  11.232   4.642  0.4987  0.3858 -0.8009
  997MOL0     C37509  11.453  11.139   4.764  0.3555 -0.2893  0.1855
  997MOL0     C37510  11.580  11.125   4.862 -0.7092  0.9615  0.3640
  997MOL0     C37511  11.620  10.982   4.882 -1.3690  0.3818 -0.3090
  997MOL0     C37512  11.762  10.963   4.878 -0.8934 -0.3271  0.0749
  997MOL0     C37513  11.885  10.960   4.859 -0.8719 -0.1533  0.1385
  997MOL0     C37514  11.485  11.356   4.392 -0.1120  0.3627 -0.2329
  997MOL0     C37515  11.483  11.423   4.268 -0.1730 -0.0786  0.4540
  997MOL0     C37516  11.561  11.540   4.248 -0.3468 -1.1012 -0.3338
  997MOL0     H37517  11.379  11.526   3.791 -0.9352 -1.4428  0.6751
  997MOL0     H37518  11.322  11.706   3.624  2.7161 -1.0403  1.1797
  997MOL0     H37519  11.157  12.048   3.771 -0.5886 -1.4061  1.6623
  997MOL0     H37520  10.997  12.004   3.749  0.9861  1.8504  2.6715
  997MOL0     H37521  11.092  12.187   3.597 -1.5242  0.0182 -1.9224
  997MOL0     H37522  11.179  12.056   3.519  1.8118  2.6588  1.4093
  997MOL0     H37523  10.965  12.126   3.386 -2.0717  3.3012  1.5109
  997MOL0     H37524  10.949  11.954   3.448 -2.8389  0.0628 -0.2895
  997MOL0     H37525  10.824  12.020   3.627 -0.8803 -1.2488 -0.1788
  997MOL0     H37526  10.828  12.198   3.582  1.6690  1.4084 -2.5858
  997MOL0     H37527  10.710  11.980   3.398  1.3139  0.8432  0.9147
  997MOL0     H37528  10.725  12.148   3.356  0.4802  1.2431  0.1188
  997MOL0     H37529  10.555  12.188   3.557 -1.1838 -1.1980  2.0382
  997MOL0     H37530  10.502  12.090   3.418  2.0484  2.5317 -1.8864
  997MOL0     H37531  10.443  12.019   3.658  0.0237  2.3341 -1.5052
  997MOL0     H37532  10.618  11.990   3.692 -1.6465  0.6795  0.1490
  997MOL0     H37533  10.633  11.818   3.543  0.5461  1.1300  1.2971
  997MOL0     H37534  10.506  11.785   3.659 -4.5064 -2.8428 -3.4081
  997MOL0     H37535  10.261  11.920   3.546  1.1948  0.2014  0.7928
  997MOL0     H37536  10.093  11.794   3.193  2.0203 -2.7609 -0.2703
  997MOL0     H37537  10.082  11.935   3.298  1.4697  0.4041  0.5043
  997MOL0     H37538   9.940  11.703   3.327 -1.9967  3.5666 -0.5197
  997MOL0     H37539  10.069  11.664   3.440 -1.2652  0.2843  1.5604
  997MOL0     H37540  10.046  11.868   3.566 -0.1166  4.2241 -1.2749
  997MOL0     H37541   9.913  11.926   3.470 -2.4924 -1.0811 -0.2235
  997MOL0     H37542   9.814  11.828   3.657  1.9416 -0.2184  1.6842
  997MOL0     H37543   9.802  11.693   3.536 -0.0460  1.8117 -2.6839
  997MOL0     H37544   9.712  11.742   3.787 -0.0374 -1.3562 -1.6213
  997MOL0     H37545   9.502  11.607   4.045  1.4637 -0.9752  2.0655
  997MOL0     H37546   9.540  11.760   3.955  2.3921  0.5855 -0.6149
  997MOL0     H37547   9.602  11.719   4.119 -2.7260 -1.1363  0.5122
  997MOL0     H37548   9.870  11.169   4.364 -1.0339 -1.0034  0.4458
  997MOL0     H37549   9.812  11.126   4.592 -1.3081  0.9943  1.0508
  997MOL0     H37550   9.967  11.383   4.813  2.7843 -1.1493  1.4759
  997MOL0     H37551   9.873  11.325   4.954 -2.2429 -0.2671  0.2408
  997MOL0     H37552   9.896  11.086   4.894 -1.3439  1.9260  1.4154
  997MOL0     H37553   9.998  11.129   4.750  1.4697 -0.3873  0.4953
  997MOL0     H37554  10.069  11.224   5.037 -0.6484 -3.0075  1.8307
  997MOL0     H37555  10.164  11.220   4.882 -0.3690 -0.2068 -1.4333
  997MOL0     H37556  10.156  10.965   4.889  4.5262 -0.2292  0.8195
  997MOL0     H37557  10.061  10.973   5.034 -1.0419  1.1075 -1.2753
  997MOL0     H37558  10.330  11.115   4.982 -0.6627  3.4032  0.9937
  997MOL0     H37559  10.242  11.108   5.142 -1.4693 -2.3998  1.2595
  997MOL0     H37560  10.350  10.873   4.987 -1.8997 -0.7674  0.2580
  997MOL0     H37561  10.275  10.867   5.151  0.9007  1.5711  3.0437
  997MOL0     H37562  10.454  11.055   5.218  0.3864  1.4721  0.3148
  997MOL0     H37563  10.545  11.010   5.074  1.0865  1.5382  2.5784
  997MOL0     H37564  10.633  10.895   5.269  1.0001  0.9471 -1.3099
  997MOL0     H37565  10.598  10.791   5.138  0.3753  2.3204 -0.8144
  997MOL0     H37566   9.753  11.534   4.667 -0.9968 -3.2186  2.7966
  997MOL0     H37567   9.794  11.582   4.427  2.1401  0.7409 -0.2357
  997MOL0     H37568   9.972  11.420   4.042 -3.8571  0.1998  2.3553
  997MOL0     H37569  10.055  11.498   3.846 -1.2201  0.0463 -1.5309
  997MOL0     H37570  10.983  11.792   3.882 -1.4894 -2.9382  1.7522
  997MOL0     H37571  11.035  11.616   4.029 -0.9613 -0.3166 -0.3540
  997MOL0     H37572  11.250  11.216   4.125 -0.2399  1.5183  0.5569
  997MOL0     H37573  11.291  11.097   4.331  3.5368 -0.2994 -0.4079
  997MOL0     H37574  11.594  11.199   4.619 -0.1170 -3.2541  0.9295
  997MOL0     H37575  11.488  11.334   4.681 -0.3273 -1.3001  4.2993
  997MOL0     H37576  11.420  11.044   4.719  0.4535 -1.7979  3.0547
  997MOL0     H37577  11.365  11.173   4.819  0.0328 -0.9772  0.1080
  997MOL0     H37578  11.668  11.176   4.821  0.5788 -0.8277  0.7744
  997MOL0     H37579  11.554  11.182   4.951 -2.7517  1.2996 -0.3785
  997MOL0     H37580  11.585  10.928   4.793 -1.8144  0.4621 -0.1857
  997MOL0     H37581  11.565  10.942   4.967 -2.3113  0.2200 -0.9728
  997MOL0     H37582  11.981  10.931   4.820 -1.5111 -1.4742 -0.5552
  997MOL0     H37583  11.546  11.393   4.474  1.9925 -3.6989  0.2742
  997MOL0     H37584  11.638  11.526   4.171 -1.9696 -0.1822 -2.2229
  997MOL0     H37585  11.511  11.631   4.212 -0.7768 -0.6275  1.3819
  997MOL0     H37586  11.616  11.567   4.338  2.2344 -1.1240 -1.7986
  998MOL0     O37587  11.298  10.812   3.241  0.1821  0.2965 -0.5122
  998MOL0     C37588  11.361  10.728   3.180  0.1585 -0.1686  0.2264
  998MOL0     O37589  11.488  10.707   3.197  1.2422 -0.0105  0.3396
  998MOL0     C37590  11.567  10.799   3.265  0.1040  0.2930 -0.1722
  998MOL0     C37591  11.624  10.753   3.380  0.1407 -1.3281  0.1682
  998MOL0     C37592  11.715  10.836   3.450 -0.0484 -0.5234 -0.6980
  998MOL0     C37593  11.716  10.981   3.426  0.0125 -0.2997  0.2098
  998MOL0     O37594  11.784  11.078   3.493 -0.4555  0.5930  0.5172
  998MOL0     C37595  11.794  11.080   3.637  0.1083  0.0878 -0.9902
  998MOL0     C37596  11.885  11.188   3.689  0.1449  0.0268  0.1383
  998MOL0     C37597  12.036  11.161   3.645 -0.4669 -0.2231  0.1248
  998MOL0     C37598  12.136  11.233   3.736 -0.8925  0.0180 -0.4890
  998MOL0     C37599  12.276  11.186   3.708  0.1804  0.2097  0.6987
  998MOL0     C37600  12.374  11.268   3.794 -0.8556  0.7467  0.4943
  998MOL0     C37601  12.515  11.233   3.774  0.6284 -0.2180  0.1252
  998MOL0     C37602  12.547  11.227   3.625 -0.2979  0.1946 -0.4843
  998MOL0     N37603  12.691  11.240   3.608 -1.0673  0.3671 -0.4976
  998MOL0     C37604  12.773  11.350   3.639  0.0411  0.1484  1.0760
  998MOL0     C37605  12.900  11.322   3.595 -0.4771  0.4457 -1.1847
  998MOL0     C37606  13.019  11.425   3.601 -0.5601 -0.4454 -0.0667
  998MOL0     C37607  13.097  11.427   3.735  0.3285 -0.5881  0.2203
  998MOL0     C37608  13.232  11.482   3.717 -0.6329 -0.4322  0.2347
  998MOL0     C37609  13.243  11.622   3.668 -0.0119  0.3552  0.5330
  998MOL0     O37610  13.333  11.711   3.733 -0.1250  0.1915  0.0597
  998MOL0     C37611  13.281  11.812   3.806  0.4833 -0.2428 -0.4026
  998MOL0     C37612  13.221  11.798   3.928  0.5089 -0.0442  0.6962
  998MOL0     C37613  13.164  11.905   3.990 -0.5489 -0.1856 -0.3238
  998MOL0     C37614  13.095  11.867   4.121  1.2385 -1.2557  1.1997
  998MOL0     C37615  13.161  12.038   3.941 -1.3776  0.4764 -0.2020
  998MOL0     C37616  13.113  12.165   4.012  0.5890  0.7003  0.0202
  998MOL0     O37617  13.103  12.162   4.148  0.0641 -1.0989  0.2148
  998MOL0     C37618  13.083  12.275   4.219  0.2291  0.7070  0.7969
  998MOL0     C37619  13.188  12.363   4.242  0.0421  0.6674 -0.4763
  998MOL0     C37620  13.153  12.481   4.306 -0.4524  0.1891 -0.2649
  998MOL0     C37621  13.029  12.517   4.353  0.4469 -0.1519  0.5066
  998MOL0     O37622  13.018  12.650   4.402  0.3486  0.4869  0.2809
  998MOL0     C37623  12.911  12.700   4.469  0.9522  0.0650 -0.4840
  998MOL0     C37624  12.909  12.850   4.461 -0.2490 -0.5004 -1.1789
  998MOL0     C37625  13.029  12.917   4.522  0.6421 -0.3755 -0.0875
  998MOL0     C37626  13.141  12.926   4.417 -0.6026 -0.0469 -0.2177
  998MOL0     C37627  13.228  13.052   4.441 -0.0922  1.0481 -1.1259
  998MOL0     C37628  13.296  13.063   4.583  0.4842 -0.4310  0.1491
  998MOL0     C37629  13.395  12.950   4.619 -0.5720  0.0183 -0.4104
  998MOL0     C37630  13.468  12.987   4.741 -0.4165 -0.8797  0.4302
  998MOL0    Cl37631  13.583  12.853   4.768 -1.0017 -0.1020 -0.0842
  998MOL0     C37632  12.932  12.417   4.332 -0.0401  0.7894  0.6245
  998MOL0     C37633  12.957  12.293   4.277 -0.4952 -0.3847  0.9978
  998MOL0     O37634  13.084  12.246   3.933  0.4783 -0.4135 -0.5665
  998MOL0     C37635  13.229  12.054   3.821  0.0679 -1.0332  0.3495
  998MOL0     C37636  13.288  11.938   3.752 -0.1663  0.2214  0.6896
  998MOL0     N37637  12.898  11.193   3.546  0.8697  0.6473 -0.4374
  998MOL0     N37638  12.775  11.147   3.558 -0.4480  0.3932 -1.7106
  998MOL0     C37639  11.639  11.027   3.317 -0.4578  0.9777 -1.0028
  998MOL0     C37640  11.577  10.930   3.229  0.3232  0.7533  0.0263
  998MOL0     C37641  11.301  10.657   3.063 -0.4690  0.9242 -0.8039
  998MOL0     C37642  11.380  10.565   2.992 -0.8454  0.6102 -0.0041
  998MOL0     C37643  11.332  10.478   2.899  0.9532  1.3809  0.6772
  998MOL0     C37644  11.189  10.483   2.868 -0.1997 -0.3065 -0.6851
  998MOL0     O37645  11.128  10.390   2.788  0.2177  0.6191  0.2853
  998MOL0     C37646  11.185  10.261   2.776  0.6746 -0.9161 -0.9954
  998MOL0     C37647  11.098  10.154   2.717  0.9824  0.1063  0.9352
  998MOL0     C37648  10.973  10.095   2.802  0.0328  0.4465 -0.4300
  998MOL0     C37649  10.839  10.147   2.769 -1.1792  0.1321 -0.2761
  998MOL0     C37650  10.824  10.276   2.848  0.5378 -1.0811 -0.1491
  998MOL0     C37651  10.810  10.371   2.923  0.1988  0.4006  0.1904
  998MOL0     C37652  11.110  10.583   2.928  0.2953 -0.6669 -0.2864
  998MOL0     C37653  11.166  10.678   3.025 -0.6727 -0.3662  0.9281
  998MOL0     C37654  11.070  10.782   3.075  0.4601 -0.0959  0.0507
  998MOL0     H37655  11.610  10.648   3.404  1.0525 -1.4616  0.1616
  998MOL0     H37656  11.748  10.784   3.539 -2.2479 -2.2512 -0.7865
  998MOL0     H37657  11.811  10.981   3.681 -1.9908 -0.7062 -1.8421
  998MOL0     H37658  11.692  11.093   3.676  0.7939  2.8193  0.0698
  998MOL0     H37659  11.844  11.277   3.641  0.8999  0.2659 -0.0683
  998MOL0     H37660  11.875  11.214   3.795 -1.9813 -0.3180  0.0617
  998MOL0     H37661  12.057  11.053   3.644  4.0689  0.4148 -2.4877
  998MOL0     H37662  12.054  11.186   3.540  0.7269  2.9476  0.9730
  998MOL0     H37663  12.117  11.339   3.717 -1.6688 -0.3430 -1.8627
  998MOL0     H37664  12.120  11.225   3.844  2.5217  0.8447  0.2092
  998MOL0     H37665  12.305  11.191   3.603 -0.3545 -1.5140  0.4339
  998MOL0     H37666  12.278  11.082   3.741  0.7753 -0.3068 -0.8552
  998MOL0     H37667  12.359  11.375   3.779 -0.1800  0.7940  0.1270
  998MOL0     H37668  12.352  11.247   3.900 -0.3571 -1.0591  0.2661
  998MOL0     H37669  12.537  11.138   3.824 -1.1095 -0.4808  0.4619
  998MOL0     H37670  12.581  11.308   3.819  0.0700 -0.1743  0.8910
  998MOL0     H37671  12.512  11.133   3.583 -2.7263  0.8578 -0.0945
  998MOL0     H37672  12.490  11.311   3.584 -1.0545  1.9072  3.5615
  998MOL0     H37673  12.732  11.445   3.673  0.1607  0.8916 -0.7223
  998MOL0     H37674  12.969  11.523   3.592 -3.4527 -1.7311  0.8832
  998MOL0     H37675  13.075  11.413   3.508 -1.9957  3.0664 -1.5795
  998MOL0     H37676  13.051  11.488   3.813  1.6691 -0.2037  0.7394
  998MOL0     H37677  13.112  11.323   3.766  0.1254 -0.2016  1.6795
  998MOL0     H37678  13.289  11.472   3.810  2.7413 -1.8248 -1.8061
  998MOL0     H37679  13.281  11.412   3.648 -1.3216 -1.2358  0.5325
  998MOL0     H37680  13.268  11.618   3.562 -2.4148  2.1657 -0.1698
  998MOL0     H37681  13.146  11.672   3.674  0.0637  1.2341 -3.2965
  998MOL0     H37682  13.201  11.700   3.972  1.2040 -0.5394 -0.0569
  998MOL0     H37683  12.993  11.906   4.129  1.6842 -0.0949  1.4101
  998MOL0     H37684  13.147  11.910   4.207  2.0032  0.6640 -0.1410
  998MOL0     H37685  13.081  11.759   4.130 -0.1309 -1.1180  0.9363
  998MOL0     H37686  13.294  12.358   4.220  0.4269 -1.4686  1.5296
  998MOL0     H37687  13.235  12.548   4.331  0.5973  0.8525 -4.5928
  998MOL0     H37688  12.818  12.664   4.423  1.3032  1.2730 -2.2500
  998MOL0     H37689  12.911  12.659   4.570 -0.4653  3.3457  0.9982
  998MOL0     H37690  12.903  12.887   4.358  0.5059  0.0190 -1.0519
  998MOL0     H37691  12.825  12.880   4.524  2.0223  0.1265  1.8107
  998MOL0     H37692  13.057  12.863   4.613  0.1725 -1.0664 -0.3454
  998MOL0     H37693  13.006  13.020   4.550  0.6649 -1.3780  4.3465
  998MOL0     H37694  13.097  12.926   4.317 -0.5835 -2.4465 -0.2735
  998MOL0     H37695  13.202  12.836   4.425 -2.2777 -1.2588 -0.3677
  998MOL0     H37696  13.312  13.066   4.373  2.7374  5.5534  2.6670
  998MOL0     H37697  13.155  13.133   4.430  0.8775  2.3353  1.2075
  998MOL0     H37698  13.207  13.065   4.647 -0.9910 -2.2056 -1.7222
  998MOL0     H37699  13.346  13.159   4.600  0.7573 -0.8166  1.7412
  998MOL0     H37700  13.471  12.951   4.541 -0.3297 -2.2664 -0.2597
  998MOL0     H37701  13.346  12.852   4.628 -1.1943  0.3769  0.2687
  998MOL0     H37702  13.409  13.002   4.832 -1.3549 -1.2260 -0.1082
  998MOL0     H37703  13.517  13.083   4.722 -2.8814  0.2936 -0.4630
  998MOL0     H37704  12.831  12.436   4.368 -0.9847 -2.5109  0.0653
  998MOL0     H37705  12.877  12.221   4.267 -1.0734  0.4251 -0.4340
  998MOL0     H37706  13.241  12.157   3.789 -2.0798 -1.2291 -1.2781
  998MOL0     H37707  13.346  11.955   3.662  0.4021  0.0683  1.0206
  998MOL0     H37708  11.635  11.130   3.282  1.1997  1.9121  1.3396
  998MOL0     H37709  11.519  10.960   3.142  1.7756  0.4195 -1.0821
  998MOL0     H37710  11.483  10.547   3.020 -0.4056 -1.4013 -2.5617
  998MOL0     H37711  11.388  10.394   2.858 -4.0777 -2.2205  0.2562
  998MOL0     H37712  11.280  10.259   2.722  1.4000 -1.8564  0.2544
  998MOL0     H37713  11.211  10.230   2.878 -2.2011  2.1721  0.8833
  998MOL0     H37714  11.176  10.078   2.702  3.8897  3.1840 -0.9148
  998MOL0     H37715  11.082  10.177   2.611  0.0166  1.8792  1.4296
  998MOL0     H37716  10.969   9.988   2.782  1.2626 -0.3493  2.9398
  998MOL0     H37717  10.988  10.102   2.910 -0.1803 -1.4972 -0.2410
  998MOL0     H37718  10.758  10.076   2.790 -0.2057 -0.3481  2.1870
  998MOL0     H37719  10.844  10.164   2.661  2.8795  0.8511 -0.1242
  998MOL0     H37720  10.810  10.461   2.982 -0.1576  0.0953  0.6630
  998MOL0     H37721  11.003  10.596   2.913 -0.3891 -0.5053  3.5972
  998MOL0     H37722  10.971  10.768   3.032  1.4846  1.6052 -3.1714
  998MOL0     H37723  11.065  10.772   3.184  0.1979 -0.5289  0.0017
  998MOL0     H37724  11.108  10.877   3.037 -1.7021  0.3068 -1.2498
  999MOL0     O37725   2.452   3.534   5.698  0.6269 -0.1636 -0.9260
  999MOL0     C37726   2.335   3.534   5.693  1.5433 -0.0244  0.1291
  999MOL0     O37727   2.257   3.423   5.711  1.1970  0.9398  0.2130
  999MOL0     C37728   2.319   3.303   5.729  0.3943 -0.7721 -0.8314
  999MOL0     C37729   2.362   3.269   5.865  0.6192  0.9497 -0.0248
  999MOL0     C37730   2.442   3.153   5.888 -0.4113 -1.2943 -0.0481
  999MOL0     C37731   2.471   3.065   5.788 -0.1246 -0.2638 -0.1278
  999MOL0     O37732   2.539   2.955   5.836  0.1117 -0.2928  0.7480
  999MOL0     C37733   2.565   2.860   5.735 -0.6739  0.2722 -0.6479
  999MOL0     C37734   2.590   2.719   5.816  1.1816 -0.5352  0.8180
  999MOL0     C37735   2.461   2.678   5.887  0.3263  0.4706  1.0675
  999MOL0     C37736   2.474   2.534   5.936  0.9066 -0.0072 -0.0705
  999MOL0     C37737   2.355   2.507   6.027  0.3186  0.5322  0.1911
  999MOL0     C37738   2.217   2.490   5.942 -0.0699 -0.3656  0.5028
  999MOL0     C37739   2.106   2.463   6.032  0.4282  0.1690  0.4275
  999MOL0     C37740   1.965   2.424   5.972 -1.1470 -0.0549  0.2120
  999MOL0     N37741   1.942   2.480   5.834 -0.5558 -0.8042 -0.9124
  999MOL0     C37742   1.935   2.421   5.710  1.4658 -0.0519 -0.1170
  999MOL0     C37743   1.881   2.514   5.623  0.4954  0.3238  0.0366
  999MOL0     C37744   1.859   2.486   5.476 -0.1337 -0.0394  0.6450
  999MOL0     C37745   1.709   2.445   5.440  0.0938 -0.5412  0.4636
  999MOL0     C37746   1.657   2.330   5.508 -0.6277  0.1521 -0.0740
  999MOL0     C37747   1.509   2.322   5.541 -0.5030 -0.4043  0.5414
  999MOL0     O37748   1.478   2.192   5.596  0.5447 -0.2378 -0.1334
  999MOL0     C37749   1.353   2.176   5.643  0.1605  1.1329  0.9820
  999MOL0     C37750   1.328   2.042   5.690 -0.0791 -0.5466 -0.9300
  999MOL0     C37751   1.201   1.994   5.734 -0.5365  0.0895 -0.5779
  999MOL0     C37752   1.185   1.852   5.788  0.5257 -0.1187 -0.4079
  999MOL0     C37753   1.093   2.087   5.749  0.1361  0.0606  0.2741
  999MOL0     C37754   0.959   2.064   5.809 -1.2345 -0.4886 -0.1053
  999MOL0     O37755   0.873   2.168   5.783  0.6120 -0.1226  0.1483
  999MOL0     C37756   0.757   2.170   5.856  0.3691 -0.0815 -0.1893
  999MOL0     C37757   0.644   2.173   5.783 -0.0562 -0.1258  0.1917
  999MOL0     C37758   0.518   2.179   5.851 -0.3242  0.4394  0.6576
  999MOL0     C37759   0.515   2.185   5.990  0.4993 -0.3154 -0.3270
  999MOL0     O37760   0.390   2.187   6.043 -0.4269 -0.1093 -0.0163
  999MOL0     C37761   0.369   2.231   6.178 -0.4316 -1.0778  0.8933
  999MOL0     C37762   0.217   2.212   6.195  0.3481  0.6153  0.0741
  999MOL0     C37763   0.158   2.309   6.293  0.2566 -0.4745 -0.6979
  999MOL0     C37764   0.185   2.264   6.447 -0.0113  0.2619 -0.6591
  999MOL0     C37765   0.145   2.360   6.558  0.7179  0.2428 -0.2131
  999MOL0     C37766   0.177   2.329   6.703  0.3107 -0.8774 -0.0125
  999MOL0     C37767   0.155   2.448   6.800 -1.3252  0.4438  0.2567
  999MOL0     C37768   0.001   2.459   6.826 -0.8098 -0.0184 -0.5159
  999MOL0    Cl37769  -0.017   2.568   6.977 -0.1820  0.2648  0.0574
  999MOL0     C37770   0.628   2.176   6.064 -0.4781 -1.4842 -0.0985
  999MOL0     C37771   0.751   2.182   5.995  0.5942 -0.3763  0.6446
  999MOL0     O37772   0.938   1.965   5.882 -0.3620  0.7586 -0.0020
  999MOL0     C37773   1.120   2.222   5.713 -0.2770  0.0097  0.0543
  999MOL0     C37774   1.240   2.261   5.653  0.3086  0.5963 -0.3832
  999MOL0     N37775   1.862   2.634   5.692 -0.4186 -0.2044  0.3638
  999MOL0     N37776   1.913   2.612   5.814  0.2374 -0.1975  0.3798
  999MOL0     C37777   2.432   3.103   5.656  0.9853 -0.4591  0.6121
  999MOL0     C37778   2.370   3.225   5.626  0.2423  0.2888 -0.4397
  999MOL0     C37779   2.258   3.656   5.688 -0.3903 -0.9322  0.8095
  999MOL0     C37780   2.136   3.661   5.758 -0.4270  0.3148  0.4708
  999MOL0     C37781   2.054   3.775   5.756 -0.1523  0.9082 -0.3706
  999MOL0     C37782   2.093   3.877   5.663  0.8127 -0.4198 -0.7480
  999MOL0     O37783   2.013   3.986   5.644  0.3980 -0.2462  0.2065
  999MOL0     C37784   1.866   3.962   5.635  0.1728  0.5026 -0.0114
  999MOL0     C37785   1.793   4.084   5.567  0.5835  0.3417 -0.2351
  999MOL0     C37786   1.642   4.055   5.546  0.2837  0.4159  0.6842
  999MOL0     C37787   1.562   4.184   5.515 -0.2173 -0.2612 -0.5649
  999MOL0     C37788   1.575   4.198   5.370 -0.8108 -1.0169  0.5057
  999MOL0     C37789   1.590   4.214   5.249  0.5659  0.3677  0.1392
  999MOL0     C37790   2.217   3.882   5.606 -0.3303 -0.4362  0.1609
  999MOL0     C37791   2.307   3.771   5.607 -0.0669 -0.3099 -0.5998
  999MOL0     C37792   2.433   3.771   5.529 -0.1521  0.3945  0.2629
  999MOL0     H37793   2.351   3.344   5.943 -1.5172 -0.3835  1.0690
  999MOL0     H37794   2.474   3.138   5.991  0.0890 -0.3579 -0.0597
  999MOL0     H37795   2.661   2.882   5.687  0.3456 -1.4148  0.5061
  999MOL0     H37796   2.486   2.840   5.662 -0.5411 -1.9517 -0.2576
  999MOL0     H37797   2.615   2.643   5.741 -1.5870 -1.1700  0.4087
  999MOL0     H37798   2.664   2.737   5.894  0.3110  2.7967  1.0246
  999MOL0     H37799   2.438   2.740   5.974 -1.6877  1.1733  0.1023
  999MOL0     H37800   2.382   2.703   5.816  2.3124  1.4949 -0.9042
  999MOL0     H37801   2.463   2.464   5.852 -0.7911  0.9983 -0.7442
  999MOL0     H37802   2.569   2.510   5.984 -0.5235  0.0271  2.9585
  999MOL0     H37803   2.346   2.590   6.098 -3.3404  0.1843  0.3561
  999MOL0     H37804   2.361   2.418   6.090 -0.9931  0.1562 -0.1795
  999MOL0     H37805   2.205   2.582   5.885  0.1286 -0.8236 -0.3072
  999MOL0     H37806   2.223   2.412   5.864  0.7841 -1.0202  1.1999
  999MOL0     H37807   2.087   2.562   6.074 -1.9076  0.0007 -0.1111
  999MOL0     H37808   2.128   2.395   6.115  0.0393 -0.6553 -0.1297
  999MOL0     H37809   1.952   2.315   5.964 -0.1997 -0.1202 -6.9440
  999MOL0     H37810   1.893   2.470   6.040 -1.3333  1.4413 -0.9601
  999MOL0     H37811   1.951   2.319   5.677 -0.4891 -0.4449  0.0281
  999MOL0     H37812   1.940   2.427   5.432  0.8368  1.5535  0.2040
  999MOL0     H37813   1.865   2.590   5.442 -2.1455  0.6282  2.1357
  999MOL0     H37814   1.653   2.536   5.459 -1.1748 -1.4458  1.2060
  999MOL0     H37815   1.702   2.415   5.335 -1.8084 -0.0752  0.4229
  999MOL0     H37816   1.680   2.233   5.462 -0.2432 -0.2243  0.8854
  999MOL0     H37817   1.720   2.333   5.598 -0.7898  1.2419  0.0111
  999MOL0     H37818   1.469   2.388   5.618  1.1897 -2.9180  3.8323
  999MOL0     H37819   1.459   2.340   5.445 -3.4416  1.0092  2.1785
  999MOL0     H37820   1.410   1.971   5.692 -1.1798 -1.8549 -1.1748
  999MOL0     H37821   1.120   1.787   5.730  1.9283 -2.8496  0.8874
  999MOL0     H37822   1.167   1.852   5.895  3.5611 -2.8459  0.2580
  999MOL0     H37823   1.285   1.807   5.784  0.3214 -0.6826  0.7110
  999MOL0     H37824   0.651   2.147   5.678 -0.2561 -3.5960  0.9194
  999MOL0     H37825   0.428   2.183   5.791  1.2612 -1.5407 -2.0409
  999MOL0     H37826   0.422   2.171   6.253  2.9343  0.4758 -0.0528
  999MOL0     H37827   0.402   2.335   6.175 -0.7789 -0.9625  1.1405
  999MOL0     H37828   0.179   2.208   6.093  0.9779  2.7126 -0.2763
  999MOL0     H37829   0.196   2.113   6.237 -1.7795  0.2713 -1.6282
  999MOL0     H37830   0.050   2.309   6.277  0.3047  2.9878 -1.8317
  999MOL0     H37831   0.191   2.409   6.263 -0.8541 -0.5450 -2.3154
  999MOL0     H37832   0.291   2.242   6.457 -0.0693 -1.1732 -2.5547
  999MOL0     H37833   0.147   2.164   6.467  1.1535  0.1912  1.4172
  999MOL0     H37834   0.191   2.458   6.541  2.6705 -0.3337  1.3452
  999MOL0     H37835   0.038   2.384   6.555  1.1470  2.3643 -0.4061
  999MOL0     H37836   0.275   2.280   6.703  0.3643 -0.7884 -0.7389
  999MOL0     H37837   0.102   2.251   6.716  0.4259 -1.5207 -2.5853
  999MOL0     H37838   0.202   2.541   6.765  0.6515  0.3974  2.5287
  999MOL0     H37839   0.210   2.441   6.894 -1.1131 -1.2868  0.0286
  999MOL0     H37840  -0.041   2.359   6.838 -0.5505 -0.1664 -0.8449
  999MOL0     H37841  -0.038   2.508   6.736 -2.4235  1.3418  0.8461
  999MOL0     H37842   0.611   2.163   6.171 -1.3936 -0.3062 -0.0765
  999MOL0     H37843   0.848   2.170   6.042  1.8699  0.8099 -1.4989
  999MOL0     H37844   1.052   2.300   5.746 -0.4196 -0.0567 -0.0773
  999MOL0     H37845   1.245   2.362   5.614  0.3587  0.9057  0.4147
  999MOL0     H37846   2.463   3.051   5.566  1.6690  2.5378 -0.9982
  999MOL0     H37847   2.344   3.261   5.527  2.2037  1.2339 -0.6620
  999MOL0     H37848   2.096   3.570   5.802 -0.2183 -0.8721 -1.6700
  999MOL0     H37849   1.960   3.782   5.809  0.3148  3.7826  0.2522
  999MOL0     H37850   1.856   3.876   5.567 -3.2162  1.0402 -0.3788
  999MOL0     H37851   1.809   3.941   5.726 -0.1227  2.5314  0.3190
  999MOL0     H37852   1.839   4.097   5.468  2.2481 -1.2637  0.2610
  999MOL0     H37853   1.810   4.168   5.635 -3.0198 -0.1743  1.5289
  999MOL0     H37854   1.625   3.977   5.471 -1.1468  1.8769 -0.5823
  999MOL0     H37855   1.593   4.011   5.634 -1.0332 -3.0833 -1.5812
  999MOL0     H37856   1.597   4.270   5.572  0.2743  0.7098 -2.2702
  999MOL0     H37857   1.454   4.172   5.527 -0.5726  3.4477  1.4196
  999MOL0     H37858   1.588   4.210   5.142 -2.4037 -0.4613  0.1460
  999MOL0     H37859   2.239   3.964   5.538 -1.9374  0.7158  0.9645
  999MOL0     H37860   2.451   3.865   5.476 -1.0330  0.5275  0.1891
  999MOL0     H37861   2.516   3.771   5.601 -0.0614 -2.0423  0.2410
  999MOL0     H37862   2.445   3.689   5.458 -0.2489  2.0905 -1.8002
 1000MOL0     O37863   5.074   0.013   0.341  0.4066  1.0850  0.1348
 1000MOL0     C37864   4.949   0.037   0.340 -0.2923  0.3608 -0.9291
 1000MOL0     O37865   4.872   0.078   0.236  0.5789 -0.2706  0.1185
 1000MOL0     C37866   4.925   0.100   0.113  0.7874 -0.1008  0.6702
 1000MOL0     C37867   4.828   0.131   0.023  0.3203 -1.1133 -0.1225
 1000MOL0     C37868   4.850   0.158  -0.119  0.2755  1.1308 -0.8622
 1000MOL0     C37869   4.975   0.166  -0.165  0.3789 -0.7285 -0.1794
 1000MOL0     O37870   5.008   0.206  -0.288  1.2999 -0.5117 -0.0376
 1000MOL0     C37871   4.916   0.297  -0.364 -0.1012 -0.1709  0.2268
 1000MOL0     C37872   4.984   0.318  -0.500 -0.5563 -0.3223 -0.1119
 1000MOL0     C37873   5.032   0.193  -0.591 -0.1603  0.1323 -0.8503
 1000MOL0     C37874   4.901   0.113  -0.633  0.5406  0.2293 -0.2013
 1000MOL0     C37875   4.935  -0.008  -0.718  0.3273  0.6928 -0.0521
 1000MOL0     C37876   4.982   0.025  -0.858  1.3542  0.6181 -0.1557
 1000MOL0     C37877   4.994  -0.104  -0.926  0.2238  1.0975 -0.2260
 1000MOL0     C37878   5.000  -0.075  -1.083  0.4945 -0.3038  0.4500
 1000MOL0     N37879   5.012  -0.206  -1.151 -0.3826 -0.1767  0.1123
 1000MOL0     C37880   5.133  -0.266  -1.172 -1.2152 -0.9572  0.4087
 1000MOL0     C37881   5.098  -0.383  -1.235 -0.8015 -0.9984  0.7092
 1000MOL0     C37882   5.185  -0.502  -1.257  0.0691 -0.8911 -0.2319
 1000MOL0     C37883   5.334  -0.459  -1.284  0.8945 -0.1248  0.8442
 1000MOL0     C37884   5.410  -0.561  -1.378 -0.2942  1.1798 -0.1525
 1000MOL0     C37885   5.504  -0.652  -1.297  0.1534 -0.2335  0.5003
 1000MOL0     O37886   5.621  -0.584  -1.243 -0.2272  0.1020  0.5609
 1000MOL0     C37887   5.741  -0.585  -1.321 -0.6030  0.4616  0.3660
 1000MOL0     C37888   5.851  -0.674  -1.306  0.5406 -0.2101  0.3121
 1000MOL0     C37889   5.971  -0.672  -1.385 -0.0745 -0.6263 -0.9184
 1000MOL0     C37890   6.060  -0.789  -1.361 -0.2305 -0.2238  0.6928
 1000MOL0     C37891   5.978  -0.560  -1.478  0.0904  0.2430  0.5467
 1000MOL0     C37892   6.094  -0.544  -1.571 -1.1323 -1.6610 -1.0740
 1000MOL0     O37893   6.076  -0.483  -1.694 -0.1747 -0.1576 -0.8586
 1000MOL0     C37894   6.160  -0.474  -1.793  0.2270 -0.4655 -0.1770
 1000MOL0     C37895   6.107  -0.410  -1.908 -0.7181 -1.2033 -1.1136
 1000MOL0     C37896   6.190  -0.369  -2.014  0.5694  0.6141  0.2165
 1000MOL0     C37897   6.322  -0.389  -2.007  0.0961  0.2853 -0.3228
 1000MOL0     O37898   6.424  -0.342  -2.093  0.5708 -0.0490 -0.8316
 1000MOL0     C37899   6.472  -0.207  -2.070  0.0226  0.1079 -0.7409
 1000MOL0     C37900   6.612  -0.175  -2.129  0.6808 -0.2463  0.1368
 1000MOL0     C37901   6.668  -0.047  -2.068  0.7602  0.3203 -0.0869
 1000MOL0     C37902   6.776   0.033  -2.138 -0.0267 -0.5367 -0.4027
 1000MOL0     C37903   6.720   0.106  -2.265  0.4300 -0.0963  0.6598
 1000MOL0     C37904   6.835   0.142  -2.369 -0.4587  0.6803 -0.1455
 1000MOL0     C37905   6.920   0.268  -2.331 -0.4256 -0.0053 -0.1724
 1000MOL0     C37906   7.009   0.285  -2.202  0.1663  0.0933 -0.6805
 1000MOL0    Cl37907   7.145   0.159  -2.200 -0.1098  0.2617  0.3454
 1000MOL0     C37908   6.379  -0.461  -1.895  0.1249 -0.4835  0.7657
 1000MOL0     C37909   6.296  -0.511  -1.790  0.1091 -0.9327 -0.0617
 1000MOL0     O37910   6.202  -0.585  -1.529  0.4235 -0.1432 -0.3030
 1000MOL0     C37911   5.873  -0.467  -1.497  0.0511 -0.1221 -0.3763
 1000MOL0     C37912   5.762  -0.476  -1.407  0.7250 -0.0483  0.0175
 1000MOL0     N37913   4.966  -0.392  -1.252  0.1159  0.1541 -0.0641
 1000MOL0     N37914   4.912  -0.281  -1.200 -0.5957  1.1182  0.3825
 1000MOL0     C37915   5.083   0.132  -0.078 -0.7710  0.1845  0.3907
 1000MOL0     C37916   5.053   0.095   0.063 -0.8164 -0.5453  0.1883
 1000MOL0     C37917   4.891   0.030   0.476 -0.5853 -0.6203  0.7445
 1000MOL0     C37918   4.810   0.141   0.524 -0.2094  0.2209  0.2600
 1000MOL0     C37919   4.757   0.146   0.649  0.2814  0.1142  0.5777
 1000MOL0     C37920   4.779   0.045   0.747 -0.6324  0.6730 -0.5431
 1000MOL0     O37921   4.740   0.050   0.880  0.9689  0.3251 -0.9295
 1000MOL0     C37922   4.704   0.171   0.940  0.5628 -0.3138  0.1353
 1000MOL0     C37923   4.771   0.191   1.078 -0.5971  0.1251 -0.0231
 1000MOL0     C37924   4.698   0.100   1.173 -0.2842  0.6435  0.2373
 1000MOL0     C37925   4.704   0.149   1.323 -0.3628 -0.3206 -0.2779
 1000MOL0     C37926   4.611   0.074   1.404  0.3683 -0.4522  0.2328
 1000MOL0     C37927   4.528   0.005   1.453  1.1657 -0.0176  0.2634
 1000MOL0     C37928   4.856  -0.063   0.704  0.9674 -0.8708  0.1983
 1000MOL0     C37929   4.910  -0.075   0.569  0.0186  0.4642  0.0883
 1000MOL0     C37930   4.986  -0.202   0.531 -0.0502  0.2579  0.2473
 1000MOL0     H37931   4.725   0.142   0.056 -0.5922 -2.1494 -2.4108
 1000MOL0     H37932   4.762   0.175  -0.180 -0.6654 -4.4826 -1.5918
 1000MOL0     H37933   4.906   0.393  -0.313  1.6714 -0.1447  0.6101
 1000MOL0     H37934   4.815   0.257  -0.368 -0.4859  0.7211  0.9701
 1000MOL0     H37935   4.929   0.391  -0.560 -1.1498  3.2248  4.2072
 1000MOL0     H37936   5.061   0.393  -0.483 -1.7002  0.5060  1.6887
 1000MOL0     H37937   5.085   0.244  -0.672 -2.7984  1.2521 -2.0193
 1000MOL0     H37938   5.095   0.135  -0.524 -0.4546  2.4612  1.6465
 1000MOL0     H37939   4.850   0.076  -0.543 -0.7025 -1.5227 -1.5447
 1000MOL0     H37940   4.836   0.180  -0.691  0.2535 -1.4975 -2.0030
 1000MOL0     H37941   4.837  -0.052  -0.738  0.5941  1.1654 -2.8122
 1000MOL0     H37942   5.003  -0.082  -0.675  0.9367  1.4665  0.3402
 1000MOL0     H37943   4.917   0.101  -0.902 -2.9146  0.1883  4.5553
 1000MOL0     H37944   5.086   0.058  -0.853  0.5623  3.3563  0.2219
 1000MOL0     H37945   4.913  -0.172  -0.898  1.7495 -1.3964 -1.5425
 1000MOL0     H37946   5.085  -0.152  -0.889  1.9649  0.5088 -4.6836
 1000MOL0     H37947   4.911  -0.017  -1.106  0.2523  0.8423  3.7105
 1000MOL0     H37948   5.089  -0.015  -1.103  1.2104 -1.8462 -1.3130
 1000MOL0     H37949   5.223  -0.241  -1.117 -1.1079 -0.0957 -0.1482
 1000MOL0     H37950   5.140  -0.566  -1.334  2.5225 -0.5213 -2.1046
 1000MOL0     H37951   5.177  -0.558  -1.163  0.6986  0.6079  0.7481
 1000MOL0     H37952   5.337  -0.366  -1.342 -1.3036 -1.8972 -2.4045
 1000MOL0     H37953   5.386  -0.434  -1.191 -0.1133  0.2659  1.3160
 1000MOL0     H37954   5.336  -0.624  -1.429  0.8278  1.4330 -2.2130
 1000MOL0     H37955   5.471  -0.512  -1.454 -0.0735 -0.1286 -0.8494
 1000MOL0     H37956   5.456  -0.696  -1.209  3.0893 -4.6168  0.2326
 1000MOL0     H37957   5.531  -0.743  -1.352 -0.6754  1.1273 -2.3957
 1000MOL0     H37958   5.830  -0.754  -1.236 -2.2712  0.2324  0.0763
 1000MOL0     H37959   6.152  -0.741  -1.329 -0.2184 -0.4376  0.9775
 1000MOL0     H37960   6.076  -0.851  -1.450 -2.4801 -1.8006  1.2953
 1000MOL0     H37961   6.019  -0.865  -1.294  3.4007 -3.7276 -0.6876
 1000MOL0     H37962   6.002  -0.381  -1.907 -0.4726  0.2863  2.8005
 1000MOL0     H37963   6.142  -0.324  -2.101 -2.0118 -2.4356 -0.1363
 1000MOL0     H37964   6.403  -0.133  -2.111  1.0509  0.5513 -1.7398
 1000MOL0     H37965   6.473  -0.188  -1.963 -0.2750  0.4206 -0.7947
 1000MOL0     H37966   6.690  -0.242  -2.093  1.8700  1.0956  0.1591
 1000MOL0     H37967   6.598  -0.167  -2.237 -1.1925 -1.2248  0.2564
 1000MOL0     H37968   6.723  -0.078  -1.978 -2.1689 -4.3135  0.4215
 1000MOL0     H37969   6.591   0.024  -2.037 -0.4053 -1.9913  2.8234
 1000MOL0     H37970   6.868  -0.023  -2.159  0.1446  0.7740 -3.7758
 1000MOL0     H37971   6.791   0.114  -2.066 -2.2991  0.7006 -1.2303
 1000MOL0     H37972   6.659   0.038  -2.326  3.2564  1.2654 -4.2931
 1000MOL0     H37973   6.667   0.198  -2.241  0.3130  0.0002  0.0667
 1000MOL0     H37974   6.787   0.165  -2.464 -1.1459  0.7867  0.2141
 1000MOL0     H37975   6.896   0.053  -2.379  0.2325  1.1140  0.1633
 1000MOL0     H37976   6.848   0.347  -2.355 -2.0458 -1.7195 -1.3407
 1000MOL0     H37977   6.996   0.265  -2.409  1.0672  2.2959  1.0787
 1000MOL0     H37978   6.946   0.255  -2.118  0.9800 -0.2956 -0.2011
 1000MOL0     H37979   7.057   0.381  -2.184 -0.8705  0.7861 -1.5137
 1000MOL0     H37980   6.481  -0.495  -1.880  0.5971  0.6603  0.2742
 1000MOL0     H37981   6.353  -0.563  -1.713  2.6482  1.8090  0.0574
 1000MOL0     H37982   5.878  -0.382  -1.564  0.5845  0.5536  0.4879
 1000MOL0     H37983   5.683  -0.401  -1.404 -0.1036 -0.8792 -0.4381
 1000MOL0     H37984   5.174   0.121  -0.136 -1.2627  2.9909 -1.1121
 1000MOL0     H37985   5.138   0.065   0.123 -0.0120  2.4699  0.7401
 1000MOL0     H37986   4.783   0.222   0.458 -2.6855  1.9199  3.0602
 1000MOL0     H37987   4.706   0.238   0.675 -3.1675 -1.4546 -0.0808
 1000MOL0     H37988   4.752   0.254   0.887 -0.5202  0.3164  0.1128
 1000MOL0     H37989   4.596   0.189   0.934  0.7809  0.9731 -0.4646
 1000MOL0     H37990   4.771   0.296   1.110  1.6305 -0.1168  0.9548
 1000MOL0     H37991   4.878   0.167   1.076 -0.2958  1.2335  1.1520
 1000MOL0     H37992   4.595   0.079   1.145 -0.9722  1.6812  1.8317
 1000MOL0     H37993   4.754   0.006   1.171  1.1367  1.4721 -0.3318
 1000MOL0     H37994   4.685   0.257   1.316 -6.4211 -0.8977  1.7873
 1000MOL0     H37995   4.805   0.135   1.364  0.6064  4.9210 -0.1681
 1000MOL0     H37996   4.446  -0.041   1.503 -0.9330  4.5507  1.6212
 1000MOL0     H37997   4.875  -0.138   0.780 -0.8557  0.0882  1.7213
 1000MOL0     H37998   5.018  -0.202   0.426 -0.4545 -3.1565  0.0038
 1000MOL0     H37999   5.073  -0.213   0.596  1.0342 -0.3796 -1.2542
 1000MOL0     H38000   4.929  -0.295   0.540  1.2536 -0.6052 -0.1886
 1001MOL0     O38001   1.590   7.508   3.615 -0.4448 -0.1894 -0.4027
 1001MOL0     C38002   1.696   7.560   3.645  0.7211  0.8517 -0.7411
 1001MOL0     O38003   1.725   7.690   3.633 -0.7083  0.1902  0.3008
 1001MOL0     C38004   1.621   7.774   3.596  0.0232  0.7101 -0.0441
 1001MOL0     C38005   1.561   7.833   3.701 -0.3314 -0.2541  0.1203
 1001MOL0     C38006   1.442   7.897   3.678 -0.5316 -0.1206 -0.0448
 1001MOL0     C38007   1.383   7.907   3.553 -0.6892  0.5182  0.2247
 1001MOL0     O38008   1.266   7.969   3.552  0.4306  0.3056 -0.3523
 1001MOL0     C38009   1.194   8.017   3.424 -0.0096  0.1451 -0.1681
 1001MOL0     C38010   1.125   8.153   3.418  0.2272  0.8018  0.9600
 1001MOL0     C38011   1.197   8.253   3.511  0.3120 -0.0781  0.3626
 1001MOL0     C38012   1.337   8.276   3.466 -0.3052 -0.3815 -0.1735
 1001MOL0     C38013   1.409   8.373   3.574  0.1890  0.1494  0.8768
 1001MOL0     C38014   1.545   8.413   3.529 -0.3933  0.4560 -0.0176
 1001MOL0     C38015   1.612   8.508   3.629  0.5057 -0.3633  0.8719
 1001MOL0     C38016   1.737   8.571   3.575 -0.6088 -0.6530  0.3252
 1001MOL0     N38017   1.745   8.716   3.579 -0.2569  0.2324  0.2885
 1001MOL0     C38018   1.717   8.800   3.470  1.2886  0.7477 -0.3674
 1001MOL0     C38019   1.683   8.911   3.529 -0.6114 -0.0933  1.5049
 1001MOL0     C38020   1.656   9.047   3.456  0.1831  0.8074 -0.5621
 1001MOL0     C38021   1.508   9.071   3.432  0.3640  0.4462  0.4632
 1001MOL0     C38022   1.427   8.968   3.367  0.4608 -0.5386  0.5177
 1001MOL0     C38023   1.286   9.006   3.344 -0.0103 -0.6198 -0.1822
 1001MOL0     O38024   1.204   8.897   3.309  0.1556 -0.2754 -0.7613
 1001MOL0     C38025   1.201   8.820   3.200 -0.5822  0.5015  0.8125
 1001MOL0     C38026   1.141   8.690   3.218  0.2482  0.0340 -0.1369
 1001MOL0     C38027   1.135   8.591   3.121 -0.5606  0.2680 -0.6261
 1001MOL0     C38028   1.083   8.454   3.157  1.1002 -0.4447  1.2436
 1001MOL0     C38029   1.199   8.616   2.999 -0.5754  0.1777 -0.9430
 1001MOL0     C38030   1.197   8.528   2.880  0.2123 -0.2407 -0.4714
 1001MOL0     O38031   1.308   8.540   2.805 -0.1561  0.4753 -0.1029
 1001MOL0     C38032   1.315   8.483   2.682 -0.1222 -0.7498 -0.0499
 1001MOL0     C38033   1.304   8.567   2.566  0.0965  0.0269  0.1706
 1001MOL0     C38034   1.347   8.509   2.441 -0.0358 -0.9625 -0.5800
 1001MOL0     C38035   1.400   8.391   2.428  0.5253 -0.0140 -0.2991
 1001MOL0     O38036   1.434   8.352   2.310  0.3450  0.3432  0.6360
 1001MOL0     C38037   1.575   8.345   2.298  0.6053 -0.9521 -0.0816
 1001MOL0     C38038   1.615   8.303   2.154 -0.1391  0.6069  0.4414
 1001MOL0     C38039   1.760   8.265   2.153 -0.4180 -0.3735  0.6925
 1001MOL0     C38040   1.790   8.123   2.106  0.0173  1.1016 -0.3213
 1001MOL0     C38041   1.724   8.018   2.195  0.6734 -1.2229  0.0320
 1001MOL0     C38042   1.755   7.877   2.163  0.8628  0.2332  0.0744
 1001MOL0     C38043   1.874   7.836   2.245 -0.5748 -0.2901  0.3059
 1001MOL0     C38044   1.962   7.746   2.149 -0.2413 -0.1844 -0.4829
 1001MOL0    Cl38045   1.857   7.606   2.122  0.5281  0.2510  0.3480
 1001MOL0     C38046   1.409   8.311   2.543  1.5663  0.1197  0.1343
 1001MOL0     C38047   1.368   8.355   2.667  0.0032  0.3691  0.1880
 1001MOL0     O38048   1.112   8.441   2.868  0.2991  0.3146  0.3238
 1001MOL0     C38049   1.268   8.737   2.987 -0.1913 -0.5086 -0.0863
 1001MOL0     C38050   1.274   8.840   3.081  0.3245 -0.0785 -1.3564
 1001MOL0     N38051   1.706   8.903   3.663 -0.4223 -0.2789  0.1913
 1001MOL0     N38052   1.737   8.783   3.696  1.2626  0.2384 -0.6655
 1001MOL0     C38053   1.435   7.833   3.441  0.0826 -0.9119 -0.2302
 1001MOL0     C38054   1.558   7.777   3.471  0.1416 -0.1407  0.0346
 1001MOL0     C38055   1.801   7.477   3.708  0.9699  0.0755 -0.7083
 1001MOL0     C38056   1.935   7.507   3.677 -0.4452  0.1825  0.0642
 1001MOL0     C38057   2.041   7.425   3.727  0.3668  1.0481 -0.7327
 1001MOL0     C38058   2.013   7.303   3.785 -0.4123  0.3571 -0.5715
 1001MOL0     O38059   2.107   7.211   3.824  0.0382 -0.4142  0.6774
 1001MOL0     C38060   2.171   7.235   3.951  0.0283  0.8192 -0.1271
 1001MOL0     C38061   2.128   7.126   4.057  0.3517 -1.4661  0.5107
 1001MOL0     C38062   2.163   6.972   4.027  0.1538 -0.3750 -0.1108
 1001MOL0     C38063   2.040   6.874   4.044 -1.0435 -0.5961 -0.1531
 1001MOL0     C38064   1.975   6.897   4.170  0.1700  0.8462 -0.1273
 1001MOL0     C38065   1.906   6.912   4.270 -1.0190 -0.0002 -1.2153
 1001MOL0     C38066   1.881   7.268   3.821 -0.1089  0.1473  0.8434
 1001MOL0     C38067   1.778   7.360   3.788 -0.1383 -0.4484 -0.2699
 1001MOL0     C38068   1.647   7.334   3.844  0.8359 -0.6564 -0.4355
 1001MOL0     H38069   1.601   7.812   3.800  2.5549 -3.8279 -1.5447
 1001MOL0     H38070   1.395   7.940   3.766 -1.2249 -3.1990  1.1858
 1001MOL0     H38071   1.118   7.939   3.417 -3.1978  2.6483  3.2357
 1001MOL0     H38072   1.263   8.012   3.339 -1.0531 -0.2635 -1.0251
 1001MOL0     H38073   1.121   8.184   3.314  5.3627  0.5121  0.4565
 1001MOL0     H38074   1.025   8.143   3.462  0.4359  3.4442  2.2208
 1001MOL0     H38075   1.142   8.346   3.494 -0.4169 -0.5633 -0.0099
 1001MOL0     H38076   1.189   8.214   3.613 -0.6232 -4.6446 -1.1884
 1001MOL0     H38077   1.406   8.191   3.463  0.7586  0.4096  1.0115
 1001MOL0     H38078   1.330   8.326   3.368 -0.5803 -0.9952 -0.4733
 1001MOL0     H38079   1.405   8.319   3.670 -1.1470  0.5238  1.0535
 1001MOL0     H38080   1.352   8.462   3.602  0.3691  0.3155  0.7185
 1001MOL0     H38081   1.608   8.325   3.513 -1.7019 -0.0444 -3.1578
 1001MOL0     H38082   1.547   8.469   3.435  2.7750 -0.5058 -0.6297
 1001MOL0     H38083   1.623   8.460   3.727 -1.0712 -0.2125  1.1513
 1001MOL0     H38084   1.542   8.590   3.650 -3.2757 -2.7634 -1.2961
 1001MOL0     H38085   1.826   8.532   3.625  0.1737  1.5635  0.7551
 1001MOL0     H38086   1.747   8.518   3.479  0.4442 -0.8570  0.5326
 1001MOL0     H38087   1.692   8.770   3.369 -1.3317 -1.2676  0.7604
 1001MOL0     H38088   1.699   9.047   3.355 -0.3947 -0.3377 -0.8189
 1001MOL0     H38089   1.697   9.121   3.526  0.3350 -0.6899  0.9964
 1001MOL0     H38090   1.460   9.091   3.529  0.9336  0.9657  0.6471
 1001MOL0     H38091   1.498   9.163   3.374 -4.1245  0.0821  0.3569
 1001MOL0     H38092   1.474   8.922   3.279 -0.2383 -1.1435  0.4508
 1001MOL0     H38093   1.424   8.895   3.448  1.5713  0.8612  1.8786
 1001MOL0     H38094   1.242   9.048   3.436 -0.3967  2.0179 -1.4702
 1001MOL0     H38095   1.269   9.085   3.270  0.7456 -0.9846 -0.7528
 1001MOL0     H38096   1.103   8.661   3.316 -4.3733 -0.3509 -1.8074
 1001MOL0     H38097   1.162   8.393   3.202  2.6603  0.5064 -0.0558
 1001MOL0     H38098   1.052   8.392   3.072  3.8232 -3.1729  2.0530
 1001MOL0     H38099   0.994   8.456   3.220  1.8414 -1.6028  2.3822
 1001MOL0     H38100   1.270   8.670   2.560 -1.4887 -0.5273 -4.8922
 1001MOL0     H38101   1.338   8.574   2.355  0.0503  1.0139  0.8410
 1001MOL0     H38102   1.623   8.439   2.324  1.0272 -1.2248  0.1287
 1001MOL0     H38103   1.606   8.270   2.371 -4.3465 -0.0459  3.5230
 1001MOL0     H38104   1.538   8.234   2.120 -0.3446  2.9105 -4.7004
 1001MOL0     H38105   1.604   8.396   2.097 -0.5876  1.1933  1.4446
 1001MOL0     H38106   1.797   8.282   2.254  1.2842  4.4867 -0.4604
 1001MOL0     H38107   1.815   8.338   2.092 -0.6150  0.6899  1.7499
 1001MOL0     H38108   1.895   8.096   2.092 -0.6536 -1.0029 -1.8298
 1001MOL0     H38109   1.749   8.129   2.004 -0.4309 -0.5972 -0.2784
 1001MOL0     H38110   1.736   8.040   2.302 -1.6616  2.3488 -0.2764
 1001MOL0     H38111   1.618   8.012   2.168  0.4328  0.1616  0.5831
 1001MOL0     H38112   1.772   7.883   2.055 -0.0761  3.6419  0.0054
 1001MOL0     H38113   1.666   7.823   2.198  0.5352  0.0879 -0.9634
 1001MOL0     H38114   1.864   7.778   2.337  1.0133  1.4847  1.6832
 1001MOL0     H38115   1.940   7.912   2.286 -1.1310  0.2908  0.1339
 1001MOL0     H38116   2.054   7.727   2.206  0.7586  2.0943 -1.2068
 1001MOL0     H38117   1.998   7.797   2.059  0.5406  2.1957  1.0799
 1001MOL0     H38118   1.455   8.213   2.535 -1.3472 -1.1957 -2.0881
 1001MOL0     H38119   1.371   8.292   2.756 -1.3527  0.7913  0.5643
 1001MOL0     H38120   1.299   8.762   2.886  0.2172  0.4320  0.2648
 1001MOL0     H38121   1.337   8.928   3.071  0.4913 -0.1288 -0.7872
 1001MOL0     H38122   1.384   7.829   3.345  1.9279  1.2893 -1.4068
 1001MOL0     H38123   1.602   7.718   3.391  1.7247  1.6361 -0.4832
 1001MOL0     H38124   1.944   7.589   3.607 -6.6114  2.1762  0.9634
 1001MOL0     H38125   2.145   7.458   3.723  0.6005  0.7485  1.4440
 1001MOL0     H38126   2.277   7.222   3.927  0.3884  1.3570  1.0720
 1001MOL0     H38127   2.141   7.334   3.987 -1.5162  0.8138 -1.3044
 1001MOL0     H38128   2.019   7.130   4.071  0.4751  0.7521  1.2732
 1001MOL0     H38129   2.178   7.161   4.147 -1.4216  0.3280  0.8921
 1001MOL0     H38130   2.188   6.967   3.920  2.0450 -3.0371  0.3514
 1001MOL0     H38131   2.256   6.941   4.076 -0.2925  2.7941  3.0984
 1001MOL0     H38132   2.060   6.768   4.026 -0.3744 -0.3713 -0.7961
 1001MOL0     H38133   1.965   6.907   3.971  0.0907  5.1168  0.8368
 1001MOL0     H38134   1.847   6.923   4.359 -2.6575 -1.5731 -2.0467
 1001MOL0     H38135   1.882   7.169   3.866 -0.5180  0.4268  1.4683
 1001MOL0     H38136   1.588   7.295   3.761  2.1854 -1.9356 -0.8484
 1001MOL0     H38137   1.654   7.258   3.923  2.9785 -0.7482 -0.6488
 1001MOL0     H38138   1.604   7.425   3.885  3.0742  0.5222 -0.5526
 1002MOL0     O38139   9.661   7.445   3.351  0.3931  0.5803  0.2480
 1002MOL0     C38140   9.699   7.333   3.322 -1.5540  0.2922 -0.4468
 1002MOL0     O38141   9.732   7.235   3.415  0.2423 -1.0405  0.4232
 1002MOL0     C38142   9.688   7.229   3.542  0.5085 -0.0151  1.0677
 1002MOL0     C38143   9.752   7.148   3.635 -0.8908  0.5626  0.1398
 1002MOL0     C38144   9.707   7.122   3.763  1.6568  0.1585  0.8521
 1002MOL0     C38145   9.593   7.188   3.808 -0.4547 -0.6516  0.4448
 1002MOL0     O38146   9.537   7.158   3.930 -0.4850 -0.6708  0.6605
 1002MOL0     C38147   9.575   7.235   4.037  0.5039  0.1717 -0.4765
 1002MOL0     C38148   9.462   7.324   4.087  0.7988  0.1361  0.0954
 1002MOL0     C38149   9.512   7.453   4.146  0.3599  0.7959 -0.5535
 1002MOL0     C38150   9.553   7.553   4.036 -0.3658  0.2619 -0.1402
 1002MOL0     C38151   9.442   7.654   4.003 -0.1291  0.6591 -0.7793
 1002MOL0     C38152   9.424   7.757   4.110 -0.0800  0.4635 -0.0928
 1002MOL0     C38153   9.290   7.832   4.096 -0.8104  0.6412 -0.3464
 1002MOL0     C38154   9.301   7.963   4.009 -1.0182  0.0258 -1.1629
 1002MOL0     N38155   9.321   8.088   4.084  0.1231  0.1037 -0.2683
 1002MOL0     C38156   9.339   8.204   4.018 -0.5496 -0.3900 -0.5144
 1002MOL0     C38157   9.371   8.290   4.117  0.0540  0.6994  0.3465
 1002MOL0     C38158   9.411   8.440   4.110 -0.1393 -0.0931  0.8945
 1002MOL0     C38159   9.533   8.454   4.024 -0.1548 -0.5392  0.9408
 1002MOL0     C38160   9.661   8.408   4.098  0.0041 -0.9435  0.8401
 1002MOL0     C38161   9.788   8.421   4.006  0.3685  0.0988 -0.4895
 1002MOL0     O38162   9.890   8.327   4.060 -0.2907 -0.5368 -0.1826
 1002MOL0     C38163   9.989   8.382   4.140 -0.0884 -0.1168  0.4117
 1002MOL0     C38164   9.956   8.415   4.274 -0.2521 -0.1756 -0.5980
 1002MOL0     C38165  10.055   8.463   4.362 -0.6479  0.2020 -0.4695
 1002MOL0     C38166  10.002   8.509   4.492 -0.5006  0.0687 -0.7293
 1002MOL0     C38167  10.190   8.481   4.311 -0.5293  0.3630 -0.7089
 1002MOL0     C38168  10.308   8.513   4.405  0.8781  0.3223 -1.2942
 1002MOL0     O38169  10.281   8.497   4.544  0.0330 -0.4498 -0.3604
 1002MOL0     C38170  10.387   8.488   4.631 -0.3542 -0.7355 -0.7105
 1002MOL0     C38171  10.402   8.373   4.694 -0.0106 -0.2937 -0.6456
 1002MOL0     C38172  10.512   8.344   4.782  0.1576 -0.0016  0.0242
 1002MOL0     C38173  10.605   8.438   4.809 -0.9421 -0.3211 -0.4872
 1002MOL0     O38174  10.726   8.402   4.870  0.5088  0.1299 -0.5150
 1002MOL0     C38175  10.723   8.270   4.930 -0.4318 -0.2864  0.6038
 1002MOL0     C38176  10.853   8.246   5.014  0.8620  0.8154  0.0152
 1002MOL0     C38177  10.988   8.315   4.962 -1.0455 -0.5218  0.5010
 1002MOL0     C38178  11.021   8.298   4.812  0.3240 -0.0719 -0.3605
 1002MOL0     C38179  11.031   8.154   4.756 -0.0737  0.4852 -0.2514
 1002MOL0     C38180  11.039   8.151   4.598  0.2453  0.2792 -0.3995
 1002MOL0     C38181  11.181   8.208   4.543  0.4932 -0.6594 -0.1185
 1002MOL0     C38182  11.282   8.099   4.507  0.2271  0.1134 -0.5450
 1002MOL0    Cl38183  11.429   8.190   4.431  0.2180 -0.0134 -0.2274
 1002MOL0     C38184  10.586   8.563   4.739  0.0081  0.1856 -0.7674
 1002MOL0     C38185  10.479   8.594   4.663  0.2266 -0.4396  0.6190
 1002MOL0     O38186  10.414   8.545   4.351 -0.6422 -0.2347 -0.6194
 1002MOL0     C38187  10.223   8.451   4.176  0.2962  0.0925  0.1899
 1002MOL0     C38188  10.121   8.395   4.092 -0.0244  0.2277 -0.8169
 1002MOL0     N38189   9.376   8.220   4.236 -0.3687 -0.4330 -0.1325
 1002MOL0     N38190   9.339   8.102   4.219 -0.4773  0.2377  0.4359
 1002MOL0     C38191   9.523   7.266   3.714  0.6192  0.0765 -0.1757
 1002MOL0     C38192   9.574   7.284   3.586  0.0289  0.3146  0.0754
 1002MOL0     C38193   9.748   7.309   3.182  0.2167  0.5870  0.1741
 1002MOL0     C38194   9.706   7.186   3.136 -0.2848 -0.0672  0.2338
 1002MOL0     C38195   9.737   7.149   3.003 -0.4589  0.6180 -0.0599
 1002MOL0     C38196   9.795   7.239   2.909  0.8734  0.2566 -0.2014
 1002MOL0     O38197   9.818   7.201   2.778 -0.3130  0.4417  0.9793
 1002MOL0     C38198   9.737   7.105   2.714  0.3602  0.8408  0.5931
 1002MOL0     C38199   9.716   7.122   2.562 -0.5001 -0.2207  0.1953
 1002MOL0     C38200   9.584   7.052   2.517  0.3301  0.1724 -0.5728
 1002MOL0     C38201   9.573   6.907   2.501 -0.5850 -0.6640 -0.2358
 1002MOL0     C38202   9.694   6.820   2.492 -0.3947  0.3665 -1.5871
 1002MOL0     C38203   9.800   6.761   2.496  0.0802 -0.3183 -0.4180
 1002MOL0     C38204   9.855   7.353   2.968  1.0538 -0.9360  1.0187
 1002MOL0     C38205   9.825   7.389   3.101  0.7861 -1.8116 -0.5943
 1002MOL0     C38206   9.881   7.521   3.152 -0.1908 -0.2636 -0.6530
 1002MOL0     H38207   9.829   7.081   3.596  1.2831  2.2783  1.2237
 1002MOL0     H38208   9.759   7.051   3.827  0.5210  0.2531  1.9096
 1002MOL0     H38209   9.663   7.297   4.017  0.0051  2.2415  2.8685
 1002MOL0     H38210   9.601   7.173   4.124 -1.8640 -0.1552  0.0745
 1002MOL0     H38211   9.399   7.345   4.000  2.3291  2.5434 -0.5204
 1002MOL0     H38212   9.401   7.274   4.162 -0.5116 -0.8771 -1.5579
 1002MOL0     H38213   9.442   7.487   4.223 -0.0153 -1.0636 -0.0207
 1002MOL0     H38214   9.610   7.431   4.188  1.5869  1.5392 -2.8929
 1002MOL0     H38215   9.634   7.613   4.080 -1.3553  0.2391  1.7911
 1002MOL0     H38216   9.588   7.494   3.951  2.7245  0.3815  0.8987
 1002MOL0     H38217   9.348   7.602   3.981 -2.3765  1.3761  5.0878
 1002MOL0     H38218   9.469   7.710   3.913 -1.9212 -0.8337 -2.3336
 1002MOL0     H38219   9.434   7.704   4.205  0.6284  2.1287  0.8101
 1002MOL0     H38220   9.504   7.830   4.097 -0.8941  0.9637 -3.1719
 1002MOL0     H38221   9.267   7.852   4.202 -2.2739 -2.1481 -0.0275
 1002MOL0     H38222   9.216   7.760   4.060 -1.8949  1.4718  0.1455
 1002MOL0     H38223   9.385   7.955   3.940  2.6872  0.7617  2.8459
 1002MOL0     H38224   9.217   7.964   3.938  0.3258  0.3297 -2.8251
 1002MOL0     H38225   9.335   8.224   3.911 -1.8328 -1.8133 -0.7725
 1002MOL0     H38226   9.419   8.496   4.204  1.1807  0.8947  0.2197
 1002MOL0     H38227   9.332   8.491   4.054 -0.3132 -0.8662  0.4164
 1002MOL0     H38228   9.521   8.404   3.928  2.2393  1.4700 -0.5392
 1002MOL0     H38229   9.544   8.562   4.008 -0.9412 -0.7590 -1.5355
 1002MOL0     H38230   9.680   8.477   4.181  2.0838  1.3412 -1.3489
 1002MOL0     H38231   9.634   8.308   4.134 -2.8288 -1.8962 -3.2116
 1002MOL0     H38232   9.760   8.389   3.905 -1.3317  0.2112 -0.0875
 1002MOL0     H38233   9.818   8.525   4.020  0.2172 -0.1139  1.9330
 1002MOL0     H38234   9.857   8.395   4.311 -1.0686 -1.1456 -3.0703
 1002MOL0     H38235   9.895   8.532   4.487 -0.6264 -0.2277  0.2866
 1002MOL0     H38236  10.053   8.595   4.537 -1.9013  0.9495 -0.7463
 1002MOL0     H38237  10.023   8.423   4.557 -0.4700  0.4048 -0.2880
 1002MOL0     H38238  10.330   8.297   4.667  0.9252 -2.2675  2.0211
 1002MOL0     H38239  10.511   8.245   4.824  1.1338  0.5204  1.3591
 1002MOL0     H38240  10.639   8.280   4.999 -2.7071 -4.0644 -1.3209
 1002MOL0     H38241  10.716   8.187   4.860  2.1799  0.4053 -0.6275
 1002MOL0     H38242  10.827   8.296   5.108 -1.3533  1.6563 -0.9691
 1002MOL0     H38243  10.870   8.139   5.032 -2.7200 -0.5292 -3.1318
 1002MOL0     H38244  11.065   8.260   5.017 -0.4738 -2.4814 -2.0563
 1002MOL0     H38245  11.002   8.422   4.981 -0.2817 -0.0586 -2.2583
 1002MOL0     H38246  11.117   8.339   4.777 -0.1145 -0.0939 -1.6522
 1002MOL0     H38247  10.948   8.348   4.748 -2.0150 -1.5983  0.9878
 1002MOL0     H38248  11.125   8.114   4.797  0.2256  0.4699 -0.9449
 1002MOL0     H38249  10.946   8.100   4.797  0.8743 -1.4936 -0.7456
 1002MOL0     H38250  10.952   8.199   4.553 -1.1258 -2.7892 -1.2470
 1002MOL0     H38251  11.018   8.049   4.564  0.4003  0.1148 -0.0099
 1002MOL0     H38252  11.221   8.282   4.614  0.7873  1.9550 -2.8229
 1002MOL0     H38253  11.176   8.245   4.441 -0.8416 -0.1107  0.1239
 1002MOL0     H38254  11.226   8.032   4.441  1.0647 -0.8494 -0.3102
 1002MOL0     H38255  11.307   8.043   4.598 -0.0191  0.2748 -0.3753
 1002MOL0     H38256  10.659   8.634   4.775 -1.0936  0.5050  0.9804
 1002MOL0     H38257  10.460   8.684   4.605 -5.1855 -0.1092  2.3138
 1002MOL0     H38258  10.317   8.466   4.124 -2.3934  2.4336 -4.6788
 1002MOL0     H38259  10.134   8.360   3.990 -1.0724 -3.0687  0.0364
 1002MOL0     H38260   9.433   7.322   3.737 -0.1880 -1.9306  1.8303
 1002MOL0     H38261   9.512   7.331   3.510 -2.1242 -1.0895  0.8558
 1002MOL0     H38262   9.659   7.115   3.203 -1.8098  0.3276 -0.3670
 1002MOL0     H38263   9.717   7.047   2.970 -1.0815  1.1004 -1.2357
 1002MOL0     H38264   9.783   7.008   2.735  2.4582  1.2091 -1.7960
 1002MOL0     H38265   9.638   7.112   2.760  0.5879  0.9435  1.0738
 1002MOL0     H38266   9.810   7.098   2.513 -1.4672 -0.2478 -1.7435
 1002MOL0     H38267   9.698   7.230   2.551 -0.0341 -0.3343 -2.0122
 1002MOL0     H38268   9.511   7.106   2.578  2.5648  0.5919  1.9685
 1002MOL0     H38269   9.579   7.093   2.416  2.0033  0.7622 -0.4506
 1002MOL0     H38270   9.514   6.901   2.409 -1.4138  0.9875  0.1402
 1002MOL0     H38271   9.513   6.864   2.582 -0.8134 -2.6535 -1.4141
 1002MOL0     H38272   9.896   6.713   2.496  0.0877 -0.3747 -2.2775
 1002MOL0     H38273   9.894   7.428   2.899  0.3881 -0.6207  0.9820
 1002MOL0     H38274   9.817   7.601   3.115 -2.7579 -1.0062  1.7978
 1002MOL0     H38275   9.869   7.511   3.261  1.6276 -1.2658 -0.4990
 1002MOL0     H38276   9.986   7.535   3.126 -0.5974  0.3377 -2.0222
 1003MOL0     O38277   2.701   5.406   0.321 -0.0194 -0.2803  0.3342
 1003MOL0     C38278   2.687   5.431   0.437 -0.0696 -1.0198 -0.1613
 1003MOL0     O38279   2.663   5.559   0.486  0.2556 -0.1875  0.8383
 1003MOL0     C38280   2.647   5.659   0.391 -0.9180  0.0384 -0.0785
 1003MOL0     C38281   2.744   5.751   0.381 -0.4718  0.4892 -0.0458
 1003MOL0     C38282   2.722   5.844   0.277  0.5383 -0.4869 -0.6720
 1003MOL0     C38283   2.611   5.861   0.202 -0.0402 -0.2986 -0.0555
 1003MOL0     O38284   2.582   5.967   0.117  0.2716  0.3184  0.8652
 1003MOL0     C38285   2.682   6.023   0.033 -0.1996  0.2035 -0.1042
 1003MOL0     C38286   2.622   6.126  -0.056 -0.0313 -0.6882  0.3748
 1003MOL0     C38287   2.564   6.250   0.024  0.1730  0.1181 -0.3739
 1003MOL0     C38288   2.671   6.341   0.076  0.2773 -0.5237  0.5106
 1003MOL0     C38289   2.647   6.420   0.196  0.8022 -0.3686 -0.2963
 1003MOL0     C38290   2.754   6.520   0.236 -0.3873 -0.0151  0.1066
 1003MOL0     C38291   2.850   6.462   0.326 -0.6008  0.1760 -0.4187
 1003MOL0     C38292   2.918   6.329   0.276 -0.6739 -0.1912  0.2594
 1003MOL0     N38293   3.037   6.301   0.353 -0.4107  0.6213 -0.0635
 1003MOL0     C38294   3.141   6.389   0.377  0.3784 -0.7672  0.2183
 1003MOL0     C38295   3.223   6.339   0.467 -0.0188  0.7968 -0.4011
 1003MOL0     C38296   3.353   6.385   0.519  0.8666 -0.7687  0.3263
 1003MOL0     C38297   3.462   6.368   0.413 -0.9757  0.2812  0.2319
 1003MOL0     C38298   3.567   6.483   0.430 -0.1629 -0.1505 -0.4330
 1003MOL0     C38299   3.653   6.485   0.565  0.3471 -0.1286 -0.0258
 1003MOL0     O38300   3.745   6.597   0.556  0.3545  0.8904  0.1214
 1003MOL0     C38301   3.846   6.609   0.646 -0.2050 -0.5743 -0.5728
 1003MOL0     C38302   3.843   6.561   0.772 -0.8331 -0.0547  0.1908
 1003MOL0     C38303   3.928   6.598   0.867 -0.2883  0.0639  0.1488
 1003MOL0     C38304   3.916   6.527   1.001  0.5495  0.5498 -0.3662
 1003MOL0     C38305   4.033   6.694   0.835  0.1584 -0.4011  0.1652
 1003MOL0     C38306   4.131   6.733   0.940 -0.0261  0.9459 -0.2991
 1003MOL0     O38307   4.253   6.745   0.876  0.1473  0.4475 -0.3304
 1003MOL0     C38308   4.365   6.789   0.940 -0.9392  0.1123  0.2255
 1003MOL0     C38309   4.483   6.751   0.873 -1.4255  1.4562 -1.5112
 1003MOL0     C38310   4.602   6.805   0.925 -0.6636 -0.3113 -0.5069
 1003MOL0     C38311   4.602   6.901   1.014 -0.7775  0.8014  0.4364
 1003MOL0     O38312   4.720   6.947   1.070 -0.3457 -0.5863  0.4220
 1003MOL0     C38313   4.782   6.885   1.183  0.6791  0.0347  0.2917
 1003MOL0     C38314   4.918   6.951   1.224 -0.3361  0.2491 -0.4163
 1003MOL0     C38315   5.044   6.894   1.157  0.4704 -0.6759  0.7676
 1003MOL0     C38316   5.052   6.900   1.008  0.2620 -0.1974 -0.3605
 1003MOL0     C38317   5.061   7.040   0.965  0.5816 -0.0323  0.0228
 1003MOL0     C38318   5.130   7.069   0.826 -0.1797  0.4668 -0.2432
 1003MOL0     C38319   5.137   7.226   0.804 -0.5349 -0.1288  0.3368
 1003MOL0     C38320   5.271   7.271   0.742  1.1609 -0.1332 -0.5410
 1003MOL0    Cl38321   5.313   7.150   0.609 -0.3225  0.4011 -0.1975
 1003MOL0     C38322   4.488   6.940   1.080  0.5136 -0.5758 -0.0493
 1003MOL0     C38323   4.368   6.889   1.045  0.1045 -0.3996  0.1374
 1003MOL0     O38324   4.116   6.725   1.063  0.4538 -0.0624  0.1307
 1003MOL0     C38325   4.028   6.754   0.696 -0.5724  0.7321 -1.1507
 1003MOL0     C38326   3.940   6.699   0.605 -1.2363 -0.2714 -0.7612
 1003MOL0     N38327   3.161   6.214   0.503  0.4875 -0.4244  0.1157
 1003MOL0     N38328   3.047   6.200   0.444 -0.4548  0.1881  0.5762
 1003MOL0     C38329   2.507   5.764   0.220  0.0524  0.7731 -0.2103
 1003MOL0     C38330   2.522   5.666   0.320 -0.2255 -1.4328  0.8524
 1003MOL0     C38331   2.700   5.328   0.546 -0.0284  0.3450  0.3756
 1003MOL0     C38332   2.717   5.378   0.680 -0.1821  0.5743  0.0864
 1003MOL0     C38333   2.701   5.292   0.785  0.0136 -0.4342  0.6863
 1003MOL0     C38334   2.657   5.163   0.771 -0.6060 -0.4294  1.5438
 1003MOL0     O38335   2.640   5.073   0.868 -0.2717 -1.0506 -0.4485
 1003MOL0     C38336   2.624   5.122   1.000  0.2111 -0.1226 -0.0734
 1003MOL0     C38337   2.592   5.004   1.078 -0.0473  0.0007 -0.9487
 1003MOL0     C38338   2.559   5.040   1.225  0.9822 -0.2942  0.9293
 1003MOL0     C38339   2.536   4.916   1.307  0.0029  0.5188  0.7352
 1003MOL0     C38340   2.428   4.823   1.264 -1.0166  0.0998 -0.3107
 1003MOL0     C38341   2.348   4.743   1.226 -0.8373  0.1783  0.1059
 1003MOL0     C38342   2.660   5.106   0.643 -0.8524  0.9190  0.6314
 1003MOL0     C38343   2.682   5.183   0.526 -0.2928  0.3093 -0.5293
 1003MOL0     C38344   2.665   5.117   0.396 -0.3622 -0.1280 -0.3698
 1003MOL0     H38345   2.835   5.762   0.439  0.1266  3.9476 -1.3594
 1003MOL0     H38346   2.792   5.925   0.259  0.3245 -0.2312 -0.3693
 1003MOL0     H38347   2.740   5.949  -0.023 -2.2373 -1.0091 -0.6918
 1003MOL0     H38348   2.759   6.074   0.093 -0.9875 -0.3059  1.3789
 1003MOL0     H38349   2.682   6.160  -0.141 -2.9128 -0.3157 -1.6777
 1003MOL0     H38350   2.534   6.080  -0.103 -1.9238  0.1162  2.8826
 1003MOL0     H38351   2.499   6.302  -0.047  0.5024  0.9637 -0.0666
 1003MOL0     H38352   2.502   6.234   0.112  1.3747  2.6301  1.0159
 1003MOL0     H38353   2.765   6.285   0.084 -0.4576 -2.3622 -2.2212
 1003MOL0     H38354   2.692   6.413  -0.003 -1.4439  1.0973  1.4581
 1003MOL0     H38355   2.623   6.353   0.279  0.6347  0.8143  0.6494
 1003MOL0     H38356   2.563   6.486   0.173  1.5170  1.3047  1.6193
 1003MOL0     H38357   2.811   6.556   0.151  2.8946 -2.2459  1.1513
 1003MOL0     H38358   2.704   6.601   0.291  1.8953  2.0244 -0.6677
 1003MOL0     H38359   2.816   6.446   0.429 -1.5440  0.7852 -0.6226
 1003MOL0     H38360   2.930   6.535   0.336  0.7150 -1.4264  1.4878
 1003MOL0     H38361   2.843   6.252   0.290  0.0080 -0.8327  0.4393
 1003MOL0     H38362   2.949   6.340   0.172  0.9866  4.6356  1.0087
 1003MOL0     H38363   3.151   6.480   0.318 -1.4613 -2.2186 -2.5689
 1003MOL0     H38364   3.375   6.341   0.617  2.5560 -1.2818 -0.2377
 1003MOL0     H38365   3.341   6.493   0.530  1.1398 -0.5475 -1.2879
 1003MOL0     H38366   3.508   6.269   0.430  0.6634  1.3308  2.4511
 1003MOL0     H38367   3.437   6.364   0.306  0.7610  2.5185 -0.3323
 1003MOL0     H38368   3.643   6.473   0.353  2.2100  2.3292  1.3978
 1003MOL0     H38369   3.518   6.581   0.424  0.0776 -0.0627 -0.9151
 1003MOL0     H38370   3.600   6.498   0.660  0.4680  0.1153  0.0086
 1003MOL0     H38371   3.699   6.388   0.582 -1.1905 -0.5277  2.1819
 1003MOL0     H38372   3.780   6.475   0.791 -1.4083 -0.7884 -4.1152
 1003MOL0     H38373   4.014   6.484   1.024 -0.4178 -0.4892  2.1914
 1003MOL0     H38374   3.847   6.443   0.992  1.0695  0.2978 -2.5342
 1003MOL0     H38375   3.895   6.593   1.086  0.7579 -0.5058  0.5396
 1003MOL0     H38376   4.491   6.677   0.794 -0.1271 -0.3527  0.1899
 1003MOL0     H38377   4.695   6.778   0.876 -0.8877 -0.4391 -0.8665
 1003MOL0     H38378   4.721   6.883   1.274 -0.4209 -2.8798 -0.3817
 1003MOL0     H38379   4.792   6.780   1.154  1.2818  0.5873 -1.5955
 1003MOL0     H38380   4.898   7.057   1.205 -1.5578  0.2194  0.6114
 1003MOL0     H38381   4.940   6.956   1.331  1.2022 -2.9629 -0.4688
 1003MOL0     H38382   5.049   6.787   1.179  2.0881 -0.8148 -0.0818
 1003MOL0     H38383   5.121   6.943   1.216  0.6227  0.7395 -0.5400
 1003MOL0     H38384   4.972   6.845   0.958 -0.2560  0.4195 -0.2287
 1003MOL0     H38385   5.152   6.861   0.987  0.0751 -0.8770 -0.0315
 1003MOL0     H38386   4.963   7.087   0.977  0.9200  1.3294 -2.0283
 1003MOL0     H38387   5.121   7.097   1.036 -1.5834  0.7501  1.3270
 1003MOL0     H38388   5.073   7.024   0.744  1.5549  0.3150 -1.4283
 1003MOL0     H38389   5.228   7.020   0.836 -1.0665 -1.1770  0.8478
 1003MOL0     H38390   5.104   7.280   0.893 -0.7128 -2.1466  1.5654
 1003MOL0     H38391   5.053   7.243   0.736 -0.0518 -1.9284 -0.7714
 1003MOL0     H38392   5.344   7.272   0.824  0.4297 -0.3588  0.1217
 1003MOL0     H38393   5.256   7.372   0.703 -2.8959  0.5730  2.2975
 1003MOL0     H38394   4.496   7.012   1.161 -0.5549 -2.4133  1.7968
 1003MOL0     H38395   4.285   6.922   1.107  0.1277 -1.4280  0.7430
 1003MOL0     H38396   4.108   6.825   0.679  2.7660 -2.4106 -0.0164
 1003MOL0     H38397   3.950   6.732   0.502  0.8277 -0.0105 -0.5191
 1003MOL0     H38398   2.420   5.787   0.159  0.7670  0.0815 -1.5592
 1003MOL0     H38399   2.454   5.591   0.360 -1.2847 -0.6546  0.5491
 1003MOL0     H38400   2.733   5.483   0.706  3.2700  0.0064  0.7432
 1003MOL0     H38401   2.724   5.325   0.886  1.7066 -3.3432  1.3494
 1003MOL0     H38402   2.716   5.179   1.020 -0.6705  1.5655 -0.6531
 1003MOL0     H38403   2.535   5.185   1.000 -0.2521 -0.7269 -1.8243
 1003MOL0     H38404   2.672   4.929   1.074  0.8000  0.8958 -1.0817
 1003MOL0     H38405   2.501   4.961   1.035 -0.4499  1.8634 -2.0945
 1003MOL0     H38406   2.635   5.108   1.264  0.9874  1.2030 -1.4877
 1003MOL0     H38407   2.461   5.086   1.240 -0.1564 -2.5949  0.9992
 1003MOL0     H38408   2.509   4.944   1.409  0.2196  1.1859  0.6164
 1003MOL0     H38409   2.625   4.853   1.309  0.8015  1.5716 -0.0703
 1003MOL0     H38410   2.271   4.679   1.187 -2.1583  0.4808  2.1095
 1003MOL0     H38411   2.643   5.001   0.623  0.0849  0.8436  0.1610
 1003MOL0     H38412   2.617   5.018   0.399 -1.6565  0.2572 -3.8857
 1003MOL0     H38413   2.601   5.180   0.334 -4.0410 -2.0333  1.1403
 1003MOL0     H38414   2.759   5.111   0.341 -0.6338  0.2004 -0.8804
 1004MOL0     O38415   2.938   1.892   8.019  0.5461 -0.4513 -0.0968
 1004MOL0     C38416   2.955   1.785   7.955  0.8523  0.0604  0.8022
 1004MOL0     O38417   2.898   1.755   7.831 -0.3586  0.0593  1.0441
 1004MOL0     C38418   2.854   1.846   7.742  0.3978  0.3685  0.4257
 1004MOL0     C38419   2.780   1.797   7.633 -0.4271  0.2141  0.3740
 1004MOL0     C38420   2.760   1.882   7.522 -0.0081  0.0729  0.0649
 1004MOL0     C38421   2.799   2.014   7.527  0.1753 -0.1091  0.0207
 1004MOL0     O38422   2.779   2.097   7.421 -1.5396  0.1663  0.0558
 1004MOL0     C38423   2.650   2.070   7.349  0.6957  0.6583 -0.4256
 1004MOL0     C38424   2.617   2.177   7.240  0.0225  0.0580  0.0172
 1004MOL0     C38425   2.483   2.165   7.166 -0.9943 -0.3909 -0.2845
 1004MOL0     C38426   2.485   2.224   7.028  0.1896  0.2810 -0.3054
 1004MOL0     C38427   2.352   2.204   6.959 -0.3137  0.0890 -0.1266
 1004MOL0     C38428   2.354   2.270   6.821 -0.8326  0.5345 -0.3384
 1004MOL0     C38429   2.313   2.175   6.707 -0.3598 -0.8494  0.3473
 1004MOL0     C38430   2.163   2.169   6.717  0.4671  0.4391 -0.0241
 1004MOL0     N38431   2.093   2.114   6.597 -0.6155  0.3000  0.1423
 1004MOL0     C38432   1.960   2.120   6.561  0.5790  0.6872 -0.3043
 1004MOL0     C38433   1.942   2.052   6.451  0.6414 -0.3741 -0.1194
 1004MOL0     C38434   1.801   2.020   6.387  1.2370 -0.2138  0.2813
 1004MOL0     C38435   1.773   2.091   6.249 -0.4792  0.2037 -0.2504
 1004MOL0     C38436   1.646   2.048   6.178 -1.0520  0.1721 -0.1651
 1004MOL0     C38437   1.618   2.144   6.057 -0.4050 -0.0413 -0.5974
 1004MOL0     O38438   1.587   2.274   6.112  0.3178 -0.6414  0.7887
 1004MOL0     C38439   1.477   2.328   6.053  0.1396 -0.0228  0.0964
 1004MOL0     C38440   1.502   2.421   5.949 -0.9413  0.1366  0.4487
 1004MOL0     C38441   1.396   2.494   5.895 -0.1839  0.3709 -0.3685
 1004MOL0     C38442   1.433   2.591   5.787 -0.5580  0.2887  0.1542
 1004MOL0     C38443   1.263   2.484   5.947 -0.1156  0.2501  0.7355
 1004MOL0     C38444   1.153   2.561   5.893  0.7128 -0.3624  0.3047
 1004MOL0     O38445   1.136   2.567   5.750  0.4419  0.0777  0.2558
 1004MOL0     C38446   1.020   2.632   5.702 -0.8417  0.6523 -0.3930
 1004MOL0     C38447   1.041   2.739   5.608 -0.3237 -0.0876  0.0231
 1004MOL0     C38448   0.934   2.790   5.542 -0.2294 -0.6342 -0.4028
 1004MOL0     C38449   0.804   2.747   5.564  0.1387  0.5399  0.2457
 1004MOL0     O38450   0.694   2.790   5.494 -0.1911  0.2247  0.1690
 1004MOL0     C38451   0.690   2.816   5.353 -0.0970 -0.8964  0.0775
 1004MOL0     C38452   0.667   2.969   5.336 -1.4863 -0.3087  0.9864
 1004MOL0     C38453   0.529   3.006   5.376 -0.5609  0.5683 -0.3193
 1004MOL0     C38454   0.497   3.153   5.384  0.7497 -0.7164  0.0569
 1004MOL0     C38455   0.596   3.245   5.452 -0.7188 -0.4309 -0.2784
 1004MOL0     C38456   0.546   3.393   5.464 -0.4142  0.1864  0.2541
 1004MOL0     C38457   0.449   3.428   5.567 -0.5633 -0.4278 -0.9438
 1004MOL0     C38458   0.452   3.572   5.608  0.1949  0.2461 -0.2787
 1004MOL0    Cl38459   0.359   3.672   5.485  0.7142  0.1625 -0.0544
 1004MOL0     C38460   0.781   2.647   5.653  1.1629 -0.1355 -0.3354
 1004MOL0     C38461   0.892   2.591   5.730 -0.6624  0.6397 -0.5442
 1004MOL0     O38462   1.067   2.602   5.972  0.2147 -0.2585  0.1027
 1004MOL0     C38463   1.245   2.387   6.051  0.1532  0.3196  0.6144
 1004MOL0     C38464   1.357   2.309   6.105  0.1668  1.0544 -0.7667
 1004MOL0     N38465   2.063   2.004   6.417 -0.0514  0.9543  0.3975
 1004MOL0     N38466   2.156   2.044   6.500  0.3327 -0.4038 -0.0011
 1004MOL0     C38467   2.878   2.054   7.633  0.5986 -0.2796 -0.3556
 1004MOL0     C38468   2.910   1.974   7.738 -0.0487  0.1833 -0.6828
 1004MOL0     C38469   3.029   1.675   8.031  0.2005  0.7808  0.6683
 1004MOL0     C38470   3.088   1.703   8.155  0.3851  0.3195 -0.5338
 1004MOL0     C38471   3.165   1.609   8.226  0.0934 -0.2945  0.2845
 1004MOL0     C38472   3.189   1.486   8.172 -0.3445  0.6020  0.5824
 1004MOL0     O38473   3.274   1.410   8.251 -0.3943  0.2478  0.6576
 1004MOL0     C38474   3.323   1.278   8.197  0.9420 -0.2505 -0.3999
 1004MOL0     C38475   3.234   1.168   8.252 -0.6338 -0.0674 -0.8348
 1004MOL0     C38476   3.299   1.030   8.227  0.0203  0.3532 -0.1588
 1004MOL0     C38477   3.300   0.974   8.080  0.3824 -0.5274 -0.1910
 1004MOL0     C38478   3.401   0.865   8.069  0.8025 -0.3943  0.5688
 1004MOL0     C38479   3.492   0.788   8.062 -2.2279  0.6083 -0.3497
 1004MOL0     C38480   3.128   1.447   8.058  0.8579 -0.5489  0.8839
 1004MOL0     C38481   3.044   1.537   7.981  0.4956 -0.0702 -0.5344
 1004MOL0     C38482   2.964   1.480   7.869  0.2237 -0.8592  0.1655
 1004MOL0     H38483   2.737   1.697   7.632 -1.7367  0.6980  2.1377
 1004MOL0     H38484   2.698   1.838   7.444 -1.4731 -0.9576  1.7180
 1004MOL0     H38485   2.563   2.059   7.415  0.4781 -1.8561 -1.0127
 1004MOL0     H38486   2.655   1.970   7.305 -2.3928 -0.0393  0.5602
 1004MOL0     H38487   2.613   2.270   7.297  2.1779  0.6977 -0.7966
 1004MOL0     H38488   2.697   2.192   7.167  1.9100  0.9128  2.1409
 1004MOL0     H38489   2.465   2.057   7.157  1.3069 -0.9246  0.7572
 1004MOL0     H38490   2.403   2.197   7.233 -0.0239 -1.2509  1.3745
 1004MOL0     H38491   2.525   2.324   7.048  0.4975  0.1339 -0.1905
 1004MOL0     H38492   2.538   2.149   6.969 -2.7054 -0.9896 -1.4450
 1004MOL0     H38493   2.265   2.247   7.008 -1.2320 -0.7427 -0.9832
 1004MOL0     H38494   2.338   2.099   6.933 -0.9345  0.4963 -1.5323
 1004MOL0     H38495   2.294   2.361   6.822  1.5350  2.1794 -0.3031
 1004MOL0     H38496   2.454   2.310   6.801 -1.3494  2.0548  0.0195
 1004MOL0     H38497   2.343   2.071   6.719  0.3034 -0.5181  1.7006
 1004MOL0     H38498   2.343   2.219   6.611  1.7989 -3.9066 -0.5288
 1004MOL0     H38499   2.130   2.096   6.792 -1.0580  0.3359 -0.7708
 1004MOL0     H38500   2.120   2.264   6.750 -0.9301 -0.8376  2.0909
 1004MOL0     H38501   1.875   2.160   6.615  0.6756  0.4676  0.0172
 1004MOL0     H38502   1.743   2.068   6.466  5.7187  1.9342  2.7071
 1004MOL0     H38503   1.783   1.913   6.377  0.7403 -0.0979 -0.0775
 1004MOL0     H38504   1.769   2.199   6.268 -0.7805  0.6908 -2.7015
 1004MOL0     H38505   1.856   2.066   6.183  0.0453 -0.0388  0.4876
 1004MOL0     H38506   1.645   1.945   6.142 -0.5776  0.0834  0.0747
 1004MOL0     H38507   1.567   2.055   6.254 -0.5393 -0.9015  0.4778
 1004MOL0     H38508   1.696   2.156   5.982 -1.4259 -3.5385 -2.4232
 1004MOL0     H38509   1.523   2.110   6.014  0.7097 -4.3810 -0.0430
 1004MOL0     H38510   1.608   2.429   5.927 -0.4740 -3.2379  0.8808
 1004MOL0     H38511   1.363   2.605   5.705 -0.2174  0.0346 -0.1858
 1004MOL0     H38512   1.525   2.559   5.736 -0.2336 -1.7570  1.9106
 1004MOL0     H38513   1.469   2.683   5.836  4.6461 -0.7328 -1.0989
 1004MOL0     H38514   1.140   2.781   5.603  0.3787 -1.7421 -0.8890
 1004MOL0     H38515   0.951   2.868   5.469  0.3845 -0.1046  0.2832
 1004MOL0     H38516   0.784   2.784   5.308  0.8643  3.0071 -1.0486
 1004MOL0     H38517   0.605   2.765   5.306  0.0637 -2.6619  1.5799
 1004MOL0     H38518   0.744   3.022   5.393 -1.1810 -1.2325  1.4554
 1004MOL0     H38519   0.688   2.984   5.229  0.7440  0.6507  1.5021
 1004MOL0     H38520   0.533   2.978   5.481  2.9834 -3.0511 -1.1334
 1004MOL0     H38521   0.452   2.936   5.344  0.6727 -0.4667 -1.1679
 1004MOL0     H38522   0.403   3.157   5.440  1.5933  3.7992  1.6188
 1004MOL0     H38523   0.488   3.199   5.285 -2.3213 -0.2792  0.4245
 1004MOL0     H38524   0.633   3.204   5.546  0.3107 -0.9887 -0.8993
 1004MOL0     H38525   0.689   3.241   5.394  0.4685  0.9285  1.4355
 1004MOL0     H38526   0.511   3.437   5.371  2.5381  1.0298 -0.5829
 1004MOL0     H38527   0.641   3.437   5.497  0.3626  0.8847 -2.6576
 1004MOL0     H38528   0.471   3.366   5.655  1.1521  0.4761 -0.6832
 1004MOL0     H38529   0.348   3.399   5.536 -1.8111  2.2877  0.2674
 1004MOL0     H38530   0.555   3.606   5.595  0.0937  0.0366 -1.7550
 1004MOL0     H38531   0.421   3.569   5.713  2.6929 -1.4308  0.5084
 1004MOL0     H38532   0.677   2.620   5.665  1.1508  0.2276  0.4050
 1004MOL0     H38533   0.870   2.506   5.794 -0.0865  1.2403  0.4690
 1004MOL0     H38534   1.147   2.378   6.097 -0.3640  2.7643  0.1537
 1004MOL0     H38535   1.368   2.246   6.193  5.1540  0.3828 -1.5890
 1004MOL0     H38536   2.917   2.154   7.650 -1.9425  0.5080  1.4772
 1004MOL0     H38537   2.983   2.008   7.810 -0.0983 -4.6900  2.0933
 1004MOL0     H38538   3.079   1.804   8.194  0.0436 -1.5250  4.9889
 1004MOL0     H38539   3.207   1.651   8.317  1.4017 -0.6063 -0.1630
 1004MOL0     H38540   3.304   1.271   8.089 -1.0794 -1.6886 -0.0212
 1004MOL0     H38541   3.430   1.262   8.206  0.5921 -2.9688 -0.2750
 1004MOL0     H38542   3.133   1.183   8.211  0.3606  1.2378 -2.9969
 1004MOL0     H38543   3.224   1.174   8.360  0.4891  1.4419 -0.7908
 1004MOL0     H38544   3.405   1.027   8.254 -0.5333 -0.2774  2.1472
 1004MOL0     H38545   3.261   0.948   8.289 -1.6721 -1.1242 -2.9025
 1004MOL0     H38546   3.328   1.051   8.008 -1.4652 -1.4405 -2.0009
 1004MOL0     H38547   3.204   0.926   8.058  0.3387 -0.7175  0.3922
 1004MOL0     H38548   3.575   0.721   8.056 -0.8842  2.0652  1.1739
 1004MOL0     H38549   3.125   1.341   8.035 -2.2143 -1.0733  3.0643
 1004MOL0     H38550   2.989   1.377   7.840 -3.0623 -1.4289 -1.0999
 1004MOL0     H38551   2.861   1.482   7.906  0.7260  0.3340  1.6100
 1004MOL0     H38552   2.981   1.535   7.776  0.5044 -1.5477 -0.1982
 1005MOL0     O38553  10.720  11.182   5.666 -0.2547  0.2507 -0.5177
 1005MOL0     C38554  10.684  11.135   5.775 -0.0409 -0.1634  0.4871
 1005MOL0     O38555  10.692  11.004   5.805 -0.6685 -0.5522 -0.1841
 1005MOL0     C38556  10.735  10.923   5.709 -0.2229  0.2822  0.0925
 1005MOL0     C38557  10.873  10.895   5.703 -0.0398  0.1177  0.3859
 1005MOL0     C38558  10.929  10.799   5.608  1.5068 -0.2370 -0.1305
 1005MOL0     C38559  10.825  10.719   5.546 -0.2649 -0.7513  0.2015
 1005MOL0     O38560  10.874  10.625   5.458  0.0216  0.4478 -0.6037
 1005MOL0     C38561  10.776  10.537   5.413 -0.1819  0.4699 -0.6020
 1005MOL0     C38562  10.843  10.422   5.336 -0.1605  1.0461  0.4640
 1005MOL0     C38563  10.935  10.454   5.216  0.0750  0.2657  0.2630
 1005MOL0     C38564  11.066  10.520   5.255  0.3740  0.3853  0.1105
 1005MOL0     C38565  11.170  10.519   5.150  0.5372 -1.0770  0.4199
 1005MOL0     C38566  11.215  10.385   5.117 -0.2346 -0.7309 -0.7142
 1005MOL0     C38567  11.348  10.389   5.036  0.6653  0.1029 -0.0471
 1005MOL0     C38568  11.351  10.478   4.912  0.6700  0.7835 -0.3690
 1005MOL0     N38569  11.477  10.518   4.859 -0.1671  0.3842  0.0779
 1005MOL0     C38570  11.590  10.575   4.910 -0.1946 -0.5125  0.8833
 1005MOL0     C38571  11.686  10.556   4.818  0.3947 -0.6825  0.3100
 1005MOL0     C38572  11.834  10.589   4.820 -0.1126  0.4530 -0.0237
 1005MOL0     C38573  11.917  10.464   4.843 -0.0996 -0.0141  0.5194
 1005MOL0     C38574  12.065  10.500   4.819  0.6830 -0.0172  0.1671
 1005MOL0     C38575  12.122  10.562   4.944 -0.3214 -0.5472 -0.2262
 1005MOL0     O38576  12.210  10.463   4.997  0.6074 -0.4173  0.3199
 1005MOL0     C38577  12.296  10.498   5.102  0.4090  0.3255  0.0496
 1005MOL0     C38578  12.396  10.408   5.126  0.0793 -0.4834 -0.0818
 1005MOL0     C38579  12.480  10.411   5.246  0.1072 -0.5332  0.4842
 1005MOL0     C38580  12.581  10.299   5.276  0.2592 -0.0659  0.0249
 1005MOL0     C38581  12.459  10.508   5.348 -1.0344 -0.7038 -0.3177
 1005MOL0     C38582  12.538  10.518   5.469  1.0761 -0.4014  0.8115
 1005MOL0     O38583  12.657  10.464   5.481  0.2531 -0.5413 -0.0312
 1005MOL0     C38584  12.749  10.537   5.556 -1.2280 -0.0448 -0.6434
 1005MOL0     C38585  12.755  10.669   5.594 -0.4615 -0.8576 -0.5440
 1005MOL0     C38586  12.858  10.732   5.670  0.1954  0.1086  0.7511
 1005MOL0     C38587  12.965  10.652   5.706 -1.0511 -0.5624 -1.1894
 1005MOL0     O38588  13.088  10.704   5.767  0.9557  0.2108  0.2275
 1005MOL0     C38589  13.198  10.706   5.674 -1.1290  0.3607 -0.3179
 1005MOL0     C38590  13.201  10.803   5.558 -0.5383  0.3429  0.1245
 1005MOL0     C38591  13.219  10.956   5.605  0.4677  0.2532  0.9567
 1005MOL0     C38592  13.191  11.062   5.505 -0.4208 -0.2578 -0.3071
 1005MOL0     C38593  13.041  11.068   5.473  0.0997  0.5282  0.1394
 1005MOL0     C38594  12.980  11.201   5.437  0.0585 -0.5087  0.6419
 1005MOL0     C38595  13.000  11.312   5.544 -0.9870 -0.3020 -0.6634
 1005MOL0     C38596  12.901  11.291   5.651  0.7674  0.0442 -0.4464
 1005MOL0    Cl38597  12.911  11.438   5.732  0.9065  0.2524 -0.0002
 1005MOL0     C38598  12.970  10.519   5.660 -0.2411 -0.9547 -0.7179
 1005MOL0     C38599  12.869  10.468   5.589  0.5540 -0.1274 -0.7106
 1005MOL0     O38600  12.491  10.574   5.560 -0.3769  0.0345 -0.4269
 1005MOL0     C38601  12.351  10.597   5.326  0.5797 -0.2734  0.9464
 1005MOL0     C38602  12.269  10.590   5.207 -1.0625 -1.4428  0.0552
 1005MOL0     N38603  11.632  10.478   4.717  0.4319 -0.5404 -0.6311
 1005MOL0     N38604  11.505  10.463   4.737 -0.7314 -0.0211 -0.3639
 1005MOL0     C38605  10.687  10.745   5.562  0.9308 -0.1493 -0.5718
 1005MOL0     C38606  10.642  10.845   5.647  0.8411 -0.3197 -0.0395
 1005MOL0     C38607  10.620  11.227   5.867 -0.7936  0.7344  0.0907
 1005MOL0     C38608  10.505  11.168   5.925 -0.0171 -0.0971  1.2769
 1005MOL0     C38609  10.428  11.261   5.993 -0.7009  0.6031 -0.9699
 1005MOL0     C38610  10.458  11.392   6.010  0.4254  0.0661  0.0129
 1005MOL0     O38611  10.398  11.474   6.102 -0.2234 -0.5036  0.6729
 1005MOL0     C38612  10.257  11.448   6.114 -0.3573 -0.5477  0.2064
 1005MOL0     C38613  10.189  11.464   5.977  0.4022  0.9100 -0.6268
 1005MOL0     C38614  10.037  11.510   5.993  0.7492  0.4849 -0.5559
 1005MOL0     C38615   9.963  11.507   5.865  0.2776 -0.8113 -0.5858
 1005MOL0     C38616   9.890  11.387   5.838 -0.0823 -0.6012  0.4407
 1005MOL0     C38617   9.836  11.287   5.809  0.4559  0.0093  1.8901
 1005MOL0     C38618  10.570  11.437   5.942  0.2736 -0.6620 -0.2880
 1005MOL0     C38619  10.659  11.355   5.879 -0.0709 -0.0243  0.4670
 1005MOL0     C38620  10.796  11.409   5.831 -0.6208  0.1898 -0.0114
 1005MOL0     H38621  10.945  10.958   5.754 -0.0598  0.5952 -0.1757
 1005MOL0     H38622  11.033  10.786   5.582  0.8778 -2.7659 -1.8318
 1005MOL0     H38623  10.705  10.579   5.342 -0.5320 -0.1212 -0.6089
 1005MOL0     H38624  10.724  10.488   5.496  1.9292 -0.0840  0.4756
 1005MOL0     H38625  10.895  10.366   5.415  1.6090  3.5171  1.1595
 1005MOL0     H38626  10.759  10.359   5.304  0.1223 -0.2865  2.1473
 1005MOL0     H38627  10.961  10.360   5.165  1.6407  1.3853 -1.1063
 1005MOL0     H38628  10.890  10.527   5.148  0.9767  1.0087  0.4417
 1005MOL0     H38629  11.044  10.625   5.276 -1.8971  0.4461 -2.1097
 1005MOL0     H38630  11.112  10.470   5.340  0.3707 -1.5300 -0.9645
 1005MOL0     H38631  11.244  10.587   5.193 -2.5127  2.2429  0.9483
 1005MOL0     H38632  11.138  10.558   5.053  3.3335  0.7814  0.1258
 1005MOL0     H38633  11.244  10.320   5.199  0.0610 -1.7590 -1.6128
 1005MOL0     H38634  11.136  10.331   5.064 -1.4734 -1.9664  2.1905
 1005MOL0     H38635  11.370  10.287   5.005 -2.8767 -0.3896 -1.4149
 1005MOL0     H38636  11.428  10.424   5.102 -0.3390  2.3501  0.0688
 1005MOL0     H38637  11.280  10.430   4.844 -2.2009  0.5541  2.5319
 1005MOL0     H38638  11.300  10.566   4.953 -0.1642 -1.3065  3.5937
 1005MOL0     H38639  11.614  10.627   5.002 -2.1006 -0.5996  1.4644
 1005MOL0     H38640  11.857  10.664   4.896 -0.9601 -1.1740  1.9370
 1005MOL0     H38641  11.845  10.634   4.721 -0.8832  1.7623  0.4474
 1005MOL0     H38642  11.901  10.425   4.944  0.0232  1.0731  0.9707
 1005MOL0     H38643  11.884  10.386   4.774 -4.3112 -0.4004  2.6029
 1005MOL0     H38644  12.121  10.408   4.803  0.0056 -0.2142 -1.2535
 1005MOL0     H38645  12.076  10.569   4.734  0.6940 -0.0006  0.1825
 1005MOL0     H38646  12.187  10.647   4.924  0.2078 -1.2389 -1.5909
 1005MOL0     H38647  12.049  10.590   5.021  1.4122  2.4475  0.4602
 1005MOL0     H38648  12.403  10.335   5.047  0.3771  0.3845 -0.8787
 1005MOL0     H38649  12.571  10.229   5.192 -1.8027 -0.5586  0.5973
 1005MOL0     H38650  12.575  10.236   5.365  1.6523 -2.3305 -1.3959
 1005MOL0     H38651  12.674  10.354   5.262 -0.5095  1.0270 -0.9462
 1005MOL0     H38652  12.663  10.726   5.581  1.3775  1.9521 -2.2159
 1005MOL0     H38653  12.854  10.839   5.684  0.6689  0.0034  1.7797
 1005MOL0     H38654  13.285  10.740   5.732 -0.7002 -1.5949  0.2635
 1005MOL0     H38655  13.224  10.604   5.644  1.2121  1.0541 -0.8266
 1005MOL0     H38656  13.280  10.775   5.487 -1.6265 -3.0205  0.0571
 1005MOL0     H38657  13.117  10.795   5.489  0.3246  1.5314 -1.1337
 1005MOL0     H38658  13.322  10.949   5.640  1.0176 -1.9717 -0.8854
 1005MOL0     H38659  13.149  10.977   5.687 -1.1460  2.6629 -0.8701
 1005MOL0     H38660  13.261  11.056   5.422  0.7058  4.2746  0.0314
 1005MOL0     H38661  13.204  11.156   5.559 -2.9604 -0.1509  0.2434
 1005MOL0     H38662  13.029  11.013   5.379  2.4334  2.8081 -1.6318
 1005MOL0     H38663  12.991  11.021   5.558  2.9743  0.8943  2.1719
 1005MOL0     H38664  12.873  11.183   5.418  0.0696 -0.8421  0.8715
 1005MOL0     H38665  13.026  11.232   5.342  0.7379  0.3291  1.2322
 1005MOL0     H38666  12.981  11.405   5.491  2.6187 -0.0529 -1.8241
 1005MOL0     H38667  13.101  11.323   5.585 -0.5261 -2.3110 -1.1284
 1005MOL0     H38668  12.933  11.219   5.727  2.6510  2.1531  0.8972
 1005MOL0     H38669  12.802  11.276   5.608  0.1287  1.0101  0.6486
 1005MOL0     H38670  13.055  10.459   5.692  1.4734  0.4875 -2.3389
 1005MOL0     H38671  12.858  10.363   5.564 -0.6406 -0.1073 -0.3635
 1005MOL0     H38672  12.324  10.659   5.410 -0.3948  0.5219  0.0844
 1005MOL0     H38673  12.178  10.649   5.202  0.8233  1.7837  0.9542
 1005MOL0     H38674  10.616  10.664   5.546  1.0760 -0.3739 -0.1114
 1005MOL0     H38675  10.538  10.854   5.675 -0.3157 -1.6216 -3.3863
 1005MOL0     H38676  10.483  11.066   5.895 -0.0847  0.3776 -0.3827
 1005MOL0     H38677  10.355  11.221   6.063 -0.0835  0.1252 -0.5918
 1005MOL0     H38678  10.219  11.354   6.155 -0.8103 -1.6642 -2.5537
 1005MOL0     H38679  10.210  11.529   6.171 -0.5592 -1.1716  0.9334
 1005MOL0     H38680  10.194  11.371   5.919 -3.3185 -0.0677  0.3687
 1005MOL0     H38681  10.235  11.546   5.920  3.0990 -0.8269 -1.1212
 1005MOL0     H38682   9.990  11.442   6.065  0.8073  0.4829 -0.5198
 1005MOL0     H38683  10.038  11.615   6.024  0.5212  0.8730 -1.7995
 1005MOL0     H38684  10.040  11.509   5.788 -0.1819 -0.8130 -1.0484
 1005MOL0     H38685   9.909  11.601   5.852  0.6818 -0.6681 -1.3030
 1005MOL0     H38686   9.789  11.195   5.781  0.1390  0.2267  1.6903
 1005MOL0     H38687  10.587  11.544   5.951 -4.3129  0.2507  0.3000
 1005MOL0     H38688  10.810  11.406   5.723  2.4979  0.7215  0.2595
 1005MOL0     H38689  10.802  11.515   5.859 -0.5324 -0.3900  2.3642
 1005MOL0     H38690  10.885  11.354   5.865 -0.3869  2.1645  3.0144
 1006MOL0     O38691   0.450   2.133   3.714 -0.6134  0.1215  0.4354
 1006MOL0     C38692   0.463   2.240   3.773 -0.1600  0.1087  0.7326
 1006MOL0     O38693   0.507   2.353   3.712  0.4198 -0.1152 -0.1724
 1006MOL0     C38694   0.554   2.351   3.582 -0.6817 -0.0571 -0.2820
 1006MOL0     C38695   0.485   2.408   3.472 -0.2388 -0.5325 -1.0061
 1006MOL0     C38696   0.532   2.402   3.344  0.4190 -0.0866 -1.0488
 1006MOL0     C38697   0.659   2.349   3.316  0.6183  0.7904  0.3404
 1006MOL0     O38698   0.702   2.357   3.181 -0.7728 -0.0873 -0.4526
 1006MOL0     C38699   0.805   2.268   3.140 -0.4579  0.6789 -0.2895
 1006MOL0     C38700   0.853   2.314   3.009 -0.9643 -0.0055 -0.5767
 1006MOL0     C38701   0.746   2.284   2.906 -0.4407  0.4846 -0.7095
 1006MOL0     C38702   0.796   2.305   2.765  0.1366 -0.2241 -0.5983
 1006MOL0     C38703   0.853   2.172   2.707 -0.0914  0.2353  0.2761
 1006MOL0     C38704   0.890   2.163   2.556  0.2827  1.0488 -0.2751
 1006MOL0     C38705   0.763   2.172   2.470  0.2327 -0.6742 -0.7015
 1006MOL0     C38706   0.791   2.201   2.327  0.4476  0.9789 -0.2808
 1006MOL0     N38707   0.826   2.090   2.249  0.3608 -0.0309  0.6090
 1006MOL0     C38708   0.834   2.102   2.113  0.4671 -0.1056  0.5508
 1006MOL0     C38709   0.871   1.978   2.081 -1.1641  0.5136  0.1750
 1006MOL0     C38710   0.875   1.932   1.943 -0.8642  0.0139  0.0833
 1006MOL0     C38711   0.986   2.002   1.855 -0.4462  0.3818 -0.5900
 1006MOL0     C38712   1.130   2.008   1.914  0.2451  1.0316  0.0943
 1006MOL0     C38713   1.180   1.864   1.923 -0.0349 -0.5541  0.3878
 1006MOL0     O38714   1.173   1.800   1.792  0.3885 -0.3166 -0.4332
 1006MOL0     C38715   1.199   1.667   1.778  1.3146  0.9316 -0.0534
 1006MOL0     C38716   1.202   1.577   1.894  0.9050  0.2302 -0.0832
 1006MOL0     C38717   1.202   1.442   1.875 -0.8568  0.6198  0.0829
 1006MOL0     C38718   1.225   1.346   1.989 -0.0821 -0.3073 -0.5953
 1006MOL0     C38719   1.197   1.393   1.737 -0.3626 -0.8992 -0.7590
 1006MOL0     C38720   1.198   1.250   1.710  0.7889 -0.1001  0.2080
 1006MOL0     O38721   1.319   1.209   1.651 -0.5333  0.6674 -0.2831
 1006MOL0     C38722   1.350   1.076   1.664 -0.1916  0.6598  0.0398
 1006MOL0     C38723   1.315   0.990   1.562 -0.2538 -0.1194 -0.6149
 1006MOL0     C38724   1.357   0.854   1.563 -0.0112  0.3136 -0.1477
 1006MOL0     C38725   1.431   0.808   1.664 -0.4218 -0.5561  0.2109
 1006MOL0     O38726   1.458   0.678   1.664  0.3334 -0.0896  0.7677
 1006MOL0     C38727   1.534   0.621   1.774 -0.7555 -0.0935  0.6804
 1006MOL0     C38728   1.456   0.602   1.902 -1.0309 -1.0714  1.4472
 1006MOL0     C38729   1.322   0.553   1.885  1.4347  0.3939 -0.4196
 1006MOL0     C38730   1.280   0.499   2.026 -0.3814 -0.5209 -0.5537
 1006MOL0     C38731   1.140   0.472   2.028 -0.0973 -1.3405  0.4115
 1006MOL0     C38732   1.084   0.447   2.175  0.2010 -0.4911 -0.6666
 1006MOL0     C38733   0.927   0.435   2.185  0.1250 -0.8599 -0.2046
 1006MOL0     C38734   0.886   0.403   2.327  0.4349  0.4847  0.1214
 1006MOL0    Cl38735   0.930   0.522   2.441 -0.0186  0.1220  0.0706
 1006MOL0     C38736   1.461   0.897   1.769  0.6250  1.0986  0.3547
 1006MOL0     C38737   1.423   1.029   1.768  0.0230 -0.9474 -0.5468
 1006MOL0     O38738   1.097   1.186   1.745  0.9581 -0.1073  0.7278
 1006MOL0     C38739   1.197   1.484   1.627 -1.1044 -0.4007 -0.2097
 1006MOL0     C38740   1.189   1.621   1.646 -0.3535 -0.7066 -0.6021
 1006MOL0     N38741   0.873   1.896   2.190 -0.2555  0.0452 -0.0685
 1006MOL0     N38742   0.846   1.963   2.296 -0.6487 -0.1950 -0.0904
 1006MOL0     C38743   0.734   2.309   3.422  0.0579  0.2732  0.6635
 1006MOL0     C38744   0.685   2.309   3.555 -0.1045 -0.6197 -0.1300
 1006MOL0     C38745   0.421   2.250   3.912  0.5668 -0.6076  0.0529
 1006MOL0     C38746   0.471   2.358   3.986 -0.0443 -0.1043 -0.2025
 1006MOL0     C38747   0.441   2.361   4.126  0.5387  0.0048 -0.3609
 1006MOL0     C38748   0.352   2.273   4.191 -0.0766 -0.3111  0.0847
 1006MOL0     O38749   0.315   2.294   4.323 -0.1246 -0.4196 -0.2990
 1006MOL0     C38750   0.259   2.182   4.394 -1.1011  0.7815 -0.2400
 1006MOL0     C38751   0.226   2.228   4.535  0.7218  0.5591  0.0154
 1006MOL0     C38752   0.120   2.154   4.618 -1.1642 -0.8234 -0.5529
 1006MOL0     C38753   0.119   2.211   4.761 -1.3202  0.7584 -0.4445
 1006MOL0     C38754   0.012   2.141   4.840 -0.4290 -0.4942 -0.2753
 1006MOL0     C38755  -0.073   2.077   4.896  0.6279 -0.0371 -0.1688
 1006MOL0     C38756   0.315   2.164   4.112  0.9069  0.1679  0.3344
 1006MOL0     C38757   0.347   2.145   3.975 -0.5140  0.4563 -0.3461
 1006MOL0     C38758   0.271   2.038   3.897 -0.5778 -0.5458 -0.0548
 1006MOL0     H38759   0.395   2.463   3.496  0.4058 -0.2530  1.0130
 1006MOL0     H38760   0.479   2.424   3.253  0.4836 -3.3650 -2.0051
 1006MOL0     H38761   0.760   2.169   3.140  0.7236  0.1237  0.3085
 1006MOL0     H38762   0.894   2.284   3.201  2.4514  4.1665 -4.7548
 1006MOL0     H38763   0.884   2.419   3.012 -2.0481  0.4343 -2.5249
 1006MOL0     H38764   0.947   2.264   2.984 -0.7145  1.6286 -3.4103
 1006MOL0     H38765   0.717   2.179   2.917 -0.5304  0.6990  1.6003
 1006MOL0     H38766   0.656   2.346   2.896 -0.1532  0.6243 -2.6503
 1006MOL0     H38767   0.709   2.331   2.704  1.1876 -2.2693 -3.1861
 1006MOL0     H38768   0.871   2.383   2.750 -0.6922  0.6503 -0.2846
 1006MOL0     H38769   0.784   2.091   2.733 -1.4922  1.4846  0.5772
 1006MOL0     H38770   0.950   2.152   2.753 -0.0428 -0.3622 -0.0730
 1006MOL0     H38771   0.960   2.242   2.528  3.1205 -1.0088  0.6000
 1006MOL0     H38772   0.948   2.073   2.535 -0.9962  0.6097 -2.1922
 1006MOL0     H38773   0.701   2.257   2.501  0.3119 -0.7605 -0.3021
 1006MOL0     H38774   0.700   2.084   2.473  0.6441 -1.2709 -4.4692
 1006MOL0     H38775   0.701   2.249   2.286  1.0737  1.1709 -1.4819
 1006MOL0     H38776   0.873   2.271   2.312  1.9022  0.0080  2.4951
 1006MOL0     H38777   0.822   2.188   2.049  4.2329  0.3734  0.2517
 1006MOL0     H38778   0.779   1.938   1.892  0.3520 -1.5502 -2.6417
 1006MOL0     H38779   0.889   1.824   1.937  0.1778  0.1960 -1.3827
 1006MOL0     H38780   0.986   1.957   1.755 -1.4093  0.9731 -0.8753
 1006MOL0     H38781   0.957   2.106   1.834  2.6354  1.8474  1.5133
 1006MOL0     H38782   1.196   2.071   1.854 -0.5440  0.8904 -0.9639
 1006MOL0     H38783   1.130   2.053   2.013  0.4531  2.0149 -0.3400
 1006MOL0     H38784   1.284   1.878   1.951 -0.7446  1.8584  2.2330
 1006MOL0     H38785   1.133   1.815   2.009 -1.2431  1.3232  0.8486
 1006MOL0     H38786   1.218   1.608   1.997 -0.8611  4.0888 -0.8002
 1006MOL0     H38787   1.332   1.347   2.011 -0.2332  2.6003  0.4379
 1006MOL0     H38788   1.198   1.242   1.970  0.9208 -0.6823 -0.0432
 1006MOL0     H38789   1.161   1.364   2.077 -1.3229 -1.1887 -1.2919
 1006MOL0     H38790   1.250   1.028   1.484 -2.5803  0.2918  1.3801
 1006MOL0     H38791   1.331   0.783   1.485 -2.9443  0.7067  0.3370
 1006MOL0     H38792   1.540   0.517   1.743  1.8220 -0.7701  3.0568
 1006MOL0     H38793   1.634   0.663   1.793 -2.9989  5.0115  3.1507
 1006MOL0     H38794   1.511   0.534   1.968  0.7234 -2.4801 -1.2776
 1006MOL0     H38795   1.455   0.699   1.953 -0.0365 -0.8079  0.9985
 1006MOL0     H38796   1.316   0.466   1.819  2.0391 -2.1685  2.6978
 1006MOL0     H38797   1.250   0.631   1.859 -0.3324 -2.2657 -4.4685
 1006MOL0     H38798   1.297   0.571   2.107 -2.2455 -2.2101  1.4327
 1006MOL0     H38799   1.336   0.407   2.042  4.2797  1.7635 -1.7834
 1006MOL0     H38800   1.086   0.561   1.993  2.4482  0.2272  0.2785
 1006MOL0     H38801   1.113   0.395   1.955 -3.6267  2.2592 -2.5093
 1006MOL0     H38802   1.121   0.525   2.242 -2.4980 -0.3258  0.7734
 1006MOL0     H38803   1.129   0.358   2.220 -1.0300  0.4656  2.7431
 1006MOL0     H38804   0.892   0.369   2.106  1.4343  0.2144 -1.7556
 1006MOL0     H38805   0.883   0.532   2.159 -2.8709 -0.7734  4.0877
 1006MOL0     H38806   0.923   0.301   2.345 -0.1667 -0.0040 -1.2166
 1006MOL0     H38807   0.778   0.393   2.333  0.7121 -4.2368  1.4478
 1006MOL0     H38808   1.530   0.879   1.850  3.1104  3.0871 -1.1823
 1006MOL0     H38809   1.449   1.102   1.844 -2.2861 -1.8245  1.2072
 1006MOL0     H38810   1.187   1.441   1.528  2.6364  1.0022 -1.3738
 1006MOL0     H38811   1.192   1.695   1.566  0.8876 -0.1449 -0.0667
 1006MOL0     H38812   0.836   2.279   3.406  0.0682  0.9350 -0.6134
 1006MOL0     H38813   0.753   2.281   3.635  1.5266  0.4492 -1.0881
 1006MOL0     H38814   0.532   2.445   3.964  2.5319 -1.1710  2.0981
 1006MOL0     H38815   0.481   2.439   4.189 -0.2133 -0.4799  0.7522
 1006MOL0     H38816   0.160   2.156   4.357 -1.1630  1.4671 -0.5836
 1006MOL0     H38817   0.326   2.096   4.393 -1.0867  0.6589  2.7814
 1006MOL0     H38818   0.208   2.336   4.535  1.9339  0.7809  0.7050
 1006MOL0     H38819   0.324   2.234   4.583  0.6977 -2.4255  0.6710
 1006MOL0     H38820   0.020   2.164   4.575 -1.9275 -1.1401  1.0796
 1006MOL0     H38821   0.138   2.046   4.620  1.2229 -0.4854  0.6176
 1006MOL0     H38822   0.093   2.317   4.765  3.2346  2.0745  0.2024
 1006MOL0     H38823   0.215   2.192   4.811  0.1976 -1.9551 -3.9115
 1006MOL0     H38824  -0.161   2.038   4.941 -1.2684  4.2715  0.3382
 1006MOL0     H38825   0.245   2.093   4.154  2.7505 -0.3506  2.7538
 1006MOL0     H38826   0.225   2.072   3.804  4.1548  1.8357 -1.9110
 1006MOL0     H38827   0.343   1.961   3.868  2.6924  2.2656 -0.1523
 1006MOL0     H38828   0.198   1.994   3.966 -1.2781  1.7362  0.7615
 1007MOL0     O38829   6.687   9.377  10.472 -0.2414 -0.1532 -0.2481
 1007MOL0     C38830   6.798   9.391  10.520 -0.8277 -0.9298 -0.9699
 1007MOL0     O38831   6.858   9.514  10.536  0.2081 -0.0373  0.1914
 1007MOL0     C38832   6.815   9.605  10.441 -0.7068 -0.1196  0.9142
 1007MOL0     C38833   6.768   9.729  10.476  0.0620 -0.6697 -0.3630
 1007MOL0     C38834   6.701   9.802  10.374 -0.2328  0.8234 -0.5602
 1007MOL0     C38835   6.708   9.778  10.241 -0.0386  0.6075  0.5707
 1007MOL0     O38836   6.641   9.856  10.155 -0.1856  0.1188  0.3960
 1007MOL0     C38837   6.596   9.808  10.026  0.2277 -0.4273 -0.0174
 1007MOL0     C38838   6.531   9.928   9.963 -0.5524 -0.2580 -0.6428
 1007MOL0     C38839   6.403   9.973  10.032 -0.4162  0.7533  0.5440
 1007MOL0     C38840   6.318  10.082   9.963 -0.1668 -0.0372  0.2660
 1007MOL0     C38841   6.178  10.095  10.017  0.4904  0.9593  0.2479
 1007MOL0     C38842   6.099  10.220   9.977  0.3533  1.1950  0.3445
 1007MOL0     C38843   6.073  10.222   9.822  0.4821  0.6971 -0.5658
 1007MOL0     C38844   5.988  10.109   9.771 -0.3888  0.9207  0.3678
 1007MOL0     N38845   5.933  10.131   9.636  0.2963  0.1465 -0.4415
 1007MOL0     C38846   5.909  10.255   9.587 -0.7342  0.0823 -0.7908
 1007MOL0     C38847   5.888  10.235   9.454  0.1445  0.8514 -0.7914
 1007MOL0     C38848   5.863  10.334   9.344  0.6800  0.2272  0.8525
 1007MOL0     C38849   5.991  10.368   9.269 -0.0695  0.2228  0.2151
 1007MOL0     C38850   6.099  10.426   9.355 -0.5368  0.0891 -0.5973
 1007MOL0     C38851   6.206  10.492   9.277 -0.7855  0.3579 -0.5000
 1007MOL0     O38852   6.291  10.386   9.223  0.4573  0.5308  0.6882
 1007MOL0     C38853   6.412  10.411   9.162 -0.4992  0.1232  0.0300
 1007MOL0     C38854   6.459  10.538   9.117  0.0390  1.1245 -0.7553
 1007MOL0     C38855   6.589  10.547   9.062  0.0953 -0.4892  0.4699
 1007MOL0     C38856   6.640  10.682   9.055 -0.4310 -0.4485  0.0747
 1007MOL0     C38857   6.665  10.427   9.022  0.3792 -0.1890 -0.1701
 1007MOL0     C38858   6.787  10.432   8.949 -0.1595  0.8977 -0.1780
 1007MOL0     O38859   6.833  10.321   8.890 -0.2556 -0.6693  0.0841
 1007MOL0     C38860   6.961  10.301   8.837  1.1832  0.7538  0.1721
 1007MOL0     C38861   7.070  10.385   8.850 -0.2021  1.0456  0.0515
 1007MOL0     C38862   7.198  10.354   8.802 -0.0193 -0.7670  0.0532
 1007MOL0     C38863   7.219  10.229   8.744  0.7475  0.4450  1.0824
 1007MOL0     O38864   7.354  10.185   8.720  0.2908  0.1898  0.5329
 1007MOL0     C38865   7.369  10.049   8.773  0.9690  0.2726 -0.1141
 1007MOL0     C38866   7.509   9.999   8.783 -0.4632 -0.0195  0.1692
 1007MOL0     C38867   7.569  10.079   8.903 -1.0284 -0.3310 -0.1302
 1007MOL0     C38868   7.730  10.083   8.902 -0.8223 -0.2655 -1.3004
 1007MOL0     C38869   7.782  10.161   9.028  0.0149  0.1971  0.4965
 1007MOL0     C38870   7.938  10.172   9.021 -0.1859 -0.6359  0.7773
 1007MOL0     C38871   7.985  10.296   8.947  0.2718  0.0982  0.2399
 1007MOL0     C38872   7.992  10.416   9.027  0.5262  0.1812 -0.5871
 1007MOL0    Cl38873   8.137  10.389   9.133 -0.4155  0.3107  0.0679
 1007MOL0     C38874   7.112  10.147   8.708  0.3227 -0.1519 -1.0014
 1007MOL0     C38875   6.981  10.185   8.756 -0.3683 -0.2473 -0.1371
 1007MOL0     O38876   6.840  10.537   8.940 -1.1788  0.0685 -0.3887
 1007MOL0     C38877   6.604  10.306   9.067  0.2620 -0.4941  0.0726
 1007MOL0     C38878   6.491  10.300   9.142 -1.2565  0.0857 -0.5396
 1007MOL0     N38879   5.904  10.099   9.424 -0.0975  0.5426 -0.1875
 1007MOL0     N38880   5.934  10.039   9.536  0.5090 -0.4623  0.1710
 1007MOL0     C38881   6.758   9.648  10.207  0.0612  0.9523 -0.4379
 1007MOL0     C38882   6.818   9.562  10.306  0.1682 -1.5901  0.8543
 1007MOL0     C38883   6.872   9.275  10.576  0.3957 -0.0846 -0.2959
 1007MOL0     C38884   6.933   9.287  10.701 -0.2166 -0.8357  0.3291
 1007MOL0     C38885   6.995   9.184  10.769 -0.0801  0.2740  0.1006
 1007MOL0     C38886   7.007   9.059  10.707  0.4248  1.0408  0.3896
 1007MOL0     O38887   7.082   8.953  10.761 -0.0001 -0.0892 -0.5046
 1007MOL0     C38888   7.013   8.877  10.857  0.0177 -0.0014 -0.7966
 1007MOL0     C38889   7.007   8.932  11.007 -0.1222  0.3598  0.3045
 1007MOL0     C38890   6.956   8.814  11.101  0.3820  0.3481 -0.3776
 1007MOL0     C38891   6.959   8.870  11.241  0.4463  0.3657  0.0228
 1007MOL0     C38892   6.939   8.748  11.322  0.4873 -0.3399 -0.0879
 1007MOL0     C38893   6.922   8.652  11.399  0.5092  0.0500 -0.9869
 1007MOL0     C38894   6.950   9.045  10.576  1.1155  1.2238  0.2354
 1007MOL0     C38895   6.884   9.150  10.512 -0.0336 -0.8717  0.4260
 1007MOL0     C38896   6.844   9.120  10.371  0.1557  0.1829 -0.6540
 1007MOL0     H38897   6.770   9.756  10.581 -1.7884  1.9528 -0.9083
 1007MOL0     H38898   6.646   9.889  10.410  0.2569  0.8131  0.2292
 1007MOL0     H38899   6.530   9.721  10.039  1.7876 -1.7438 -0.4722
 1007MOL0     H38900   6.670   9.770   9.954 -1.2923 -1.3914 -1.1447
 1007MOL0     H38901   6.603  10.010   9.965 -1.7684  0.8664 -1.5533
 1007MOL0     H38902   6.506   9.902   9.860 -0.4878 -2.3663 -0.1650
 1007MOL0     H38903   6.332   9.891  10.020 -1.4286  1.7822 -0.7984
 1007MOL0     H38904   6.426  10.003  10.135  0.7299  2.5796 -0.1951
 1007MOL0     H38905   6.365  10.177   9.990  0.6006 -0.6441  1.1529
 1007MOL0     H38906   6.325  10.069   9.855  0.0088  0.9260  0.1526
 1007MOL0     H38907   6.182  10.087  10.126  1.9886 -0.5159  0.1305
 1007MOL0     H38908   6.115  10.011   9.985  0.8820  0.9763 -0.5984
 1007MOL0     H38909   6.004  10.217  10.031  0.4645 -2.3048  0.6169
 1007MOL0     H38910   6.157  10.310  10.000 -1.8384  2.1289  2.6500
 1007MOL0     H38911   6.170  10.227   9.772  0.3068  0.0480 -0.9910
 1007MOL0     H38912   6.011  10.309   9.798 -0.3369 -0.0446 -1.2089
 1007MOL0     H38913   6.043  10.014   9.764  0.8560  1.7430 -3.0528
 1007MOL0     H38914   5.909  10.096   9.845  0.8799  2.6924  2.1441
 1007MOL0     H38915   5.909  10.350   9.640 -1.7007 -0.4701  0.2490
 1007MOL0     H38916   5.813  10.425   9.378  0.0480  0.4890 -0.6736
 1007MOL0     H38917   5.796  10.294   9.268 -0.6252  3.1793  0.3005
 1007MOL0     H38918   6.019  10.281   9.209  0.7469  2.7101 -3.3759
 1007MOL0     H38919   5.972  10.446   9.194  0.7621 -0.0011 -0.2346
 1007MOL0     H38920   6.053  10.496   9.425 -3.9823 -3.9389  1.6569
 1007MOL0     H38921   6.135  10.346   9.420 -0.1889  0.2202 -0.6245
 1007MOL0     H38922   6.163  10.530   9.184 -0.8855 -2.2123 -1.5927
 1007MOL0     H38923   6.272  10.563   9.328  0.3244  0.9659 -2.6647
 1007MOL0     H38924   6.404  10.630   9.136 -0.8608  0.4621 -0.0956
 1007MOL0     H38925   6.687  10.717   8.963 -2.9105  0.2012 -1.0477
 1007MOL0     H38926   6.702  10.707   9.141  0.2576 -2.7362  0.2987
 1007MOL0     H38927   6.554  10.748   9.039  0.4367  0.3547 -1.5665
 1007MOL0     H38928   7.054  10.479   8.902  1.6649  2.6567 -2.0713
 1007MOL0     H38929   7.269  10.436   8.807 -1.5557  0.5439  1.7135
 1007MOL0     H38930   7.334  10.052   8.877  4.0570  1.7678  1.0211
 1007MOL0     H38931   7.325   9.969   8.714  0.1703 -0.9077  1.9748
 1007MOL0     H38932   7.508   9.894   8.814  0.3783 -0.6963 -1.8944
 1007MOL0     H38933   7.570  10.025   8.696 -0.1665 -2.0670 -0.2972
 1007MOL0     H38934   7.527  10.059   9.002 -2.5915 -2.0426 -1.0755
 1007MOL0     H38935   7.539  10.183   8.890  1.3037  0.0964 -3.6166
 1007MOL0     H38936   7.776  10.120   8.810  1.3165 -2.4639 -1.2277
 1007MOL0     H38937   7.779   9.987   8.920  1.2979  0.6448 -1.9165
 1007MOL0     H38938   7.741  10.261   9.045 -0.3493  0.3749 -1.3113
 1007MOL0     H38939   7.761  10.113   9.124 -1.5665  1.9330  1.0737
 1007MOL0     H38940   7.970  10.081   8.970  2.2765  0.4842  0.1731
 1007MOL0     H38941   7.975  10.174   9.124 -0.0835 -4.2983  0.9342
 1007MOL0     H38942   7.910  10.312   8.868  0.6556  0.7075 -0.0086
 1007MOL0     H38943   8.078  10.278   8.892 -1.8907 -0.6909 -3.5608
 1007MOL0     H38944   7.901  10.428   9.087  1.1324  1.1450  0.1765
 1007MOL0     H38945   8.005  10.507   8.968 -2.0472  2.2997  1.8228
 1007MOL0     H38946   7.118  10.064   8.639 -1.0202  0.5235 -1.9826
 1007MOL0     H38947   6.889  10.129   8.745 -0.7202  0.6811 -2.8300
 1007MOL0     H38948   6.665  10.217   9.061  2.0717  0.6375  0.7735
 1007MOL0     H38949   6.449  10.210   9.187 -2.6988  1.4266  0.9754
 1007MOL0     H38950   6.751   9.626  10.101 -2.0726 -0.2743 -0.0908
 1007MOL0     H38951   6.854   9.467  10.268 -0.4182 -0.3850 -3.2548
 1007MOL0     H38952   6.921   9.377  10.760  1.3002 -1.3434  1.4759
 1007MOL0     H38953   7.038   9.185  10.868  2.5779  0.4506 -0.9801
 1007MOL0     H38954   6.913   8.853  10.818 -0.9997  1.9005  0.4567
 1007MOL0     H38955   7.070   8.784  10.862 -1.5575 -1.0745 -1.7129
 1007MOL0     H38956   6.944   9.020  11.020 -0.5321  0.6886 -3.1024
 1007MOL0     H38957   7.109   8.967  11.027 -0.9159  3.1922 -0.1935
 1007MOL0     H38958   6.864   8.774  11.058 -1.8382  2.4547  2.1286
 1007MOL0     H38959   7.024   8.729  11.094  0.2512  0.3051 -1.3372
 1007MOL0     H38960   6.887   8.952  11.253  1.8740  1.6262  0.4240
 1007MOL0     H38961   7.060   8.912  11.251  0.9305 -0.5394 -0.9764
 1007MOL0     H38962   6.912   8.572  11.469  1.9416  2.1224  1.7919
 1007MOL0     H38963   6.979   8.952  10.527  1.1067  1.9944 -1.2986
 1007MOL0     H38964   6.790   9.027  10.391  0.6996 -0.0477 -0.2115
 1007MOL0     H38965   6.785   9.199  10.323  1.6125  2.4666  1.0995
 1007MOL0     H38966   6.940   9.102  10.321  0.2072 -0.0969 -0.4580
 1008MOL0     O38967   3.720   2.117   6.177  0.3712  0.7354  0.4244
 1008MOL0     C38968   3.837   2.132   6.201  0.2099 -0.2895 -0.4789
 1008MOL0     O38969   3.895   2.252   6.230  0.0860  0.3465 -0.1987
 1008MOL0     C38970   3.819   2.369   6.236 -0.3553  1.1380  0.7006
 1008MOL0     C38971   3.705   2.392   6.315  0.1442  0.9666 -0.5360
 1008MOL0     C38972   3.627   2.500   6.307 -0.3263  0.5740  0.2164
 1008MOL0     C38973   3.661   2.601   6.222 -0.0914 -0.6874  1.0617
 1008MOL0     O38974   3.596   2.713   6.196 -0.6143 -0.1527 -0.1463
 1008MOL0     C38975   3.511   2.700   6.087  0.0557  0.3841  0.0791
 1008MOL0     C38976   3.424   2.829   6.104  0.5183  0.1754  0.2424
 1008MOL0     C38977   3.316   2.855   5.992  0.0415 -0.1287 -0.2660
 1008MOL0     C38978   3.297   2.998   5.972  0.9511 -0.1179 -0.3558
 1008MOL0     C38979   3.248   3.089   6.085  0.4374 -0.7975 -0.0415
 1008MOL0     C38980   3.265   3.244   6.063  0.1812 -0.8578  0.3018
 1008MOL0     C38981   3.192   3.291   5.939  0.5626 -0.5871  0.8602
 1008MOL0     C38982   3.156   3.435   5.942 -1.3268 -1.4049 -1.4014
 1008MOL0     N38983   3.280   3.521   5.958  0.2655 -0.6045  0.3323
 1008MOL0     C38984   3.310   3.594   6.073 -0.1705  1.1769 -0.3781
 1008MOL0     C38985   3.411   3.676   6.031 -0.4128  0.7688  0.5074
 1008MOL0     C38986   3.465   3.789   6.115 -0.6935  0.4555  0.6176
 1008MOL0     C38987   3.585   3.751   6.191 -0.5147 -0.4492 -0.3720
 1008MOL0     C38988   3.651   3.869   6.276 -0.0979  0.3842 -0.0977
 1008MOL0     C38989   3.535   3.936   6.358 -0.2304 -0.2456  0.5671
 1008MOL0     O38990   3.483   3.840   6.442 -0.2381 -0.4567 -0.9114
 1008MOL0     C38991   3.352   3.802   6.424  0.7402 -0.6935  1.2175
 1008MOL0     C38992   3.327   3.671   6.448 -1.1499  1.3080 -0.1366
 1008MOL0     C38993   3.200   3.623   6.446  0.5893  0.9306  0.5493
 1008MOL0     C38994   3.175   3.473   6.491  0.0434 -0.1160 -0.0138
 1008MOL0     C38995   3.087   3.705   6.396 -0.9730 -0.7590 -0.3361
 1008MOL0     C38996   2.943   3.659   6.396 -0.3085  1.3772  0.4513
 1008MOL0     O38997   2.850   3.749   6.426  0.8038  0.7087 -0.2003
 1008MOL0     C38998   2.729   3.703   6.472  0.2876  0.5645  0.7211
 1008MOL0     C38999   2.619   3.724   6.397 -0.0756 -0.7311 -0.6912
 1008MOL0     C39000   2.493   3.693   6.440  0.4318  0.2704 -0.4197
 1008MOL0     C39001   2.468   3.634   6.569 -1.6030  0.4542  0.1832
 1008MOL0     O39002   2.346   3.601   6.623  0.2251 -0.7342  0.1987
 1008MOL0     C39003   2.307   3.711   6.699  0.1666 -0.1024 -0.5878
 1008MOL0     C39004   2.179   3.688   6.782  0.0627 -0.1043  0.1645
 1008MOL0     C39005   2.213   3.602   6.903  0.1218 -0.0601 -0.2745
 1008MOL0     C39006   2.087   3.585   6.996  0.2561 -0.0506  0.7931
 1008MOL0     C39007   2.123   3.503   7.121 -0.1722 -0.2921  0.2102
 1008MOL0     C39008   2.167   3.357   7.090 -0.5997  0.0359 -0.0839
 1008MOL0     C39009   2.145   3.269   7.211  0.4418  0.1163  0.9282
 1008MOL0     C39010   2.198   3.122   7.214  0.0543 -0.5946 -0.3288
 1008MOL0    Cl39011   2.160   3.089   7.386  0.2034  0.2640  0.1248
 1008MOL0     C39012   2.584   3.600   6.640 -0.2040  0.5616  0.5564
 1008MOL0     C39013   2.715   3.638   6.598  0.7654  0.7377  0.2572
 1008MOL0     O39014   2.916   3.538   6.386  0.6340  0.0942 -0.0948
 1008MOL0     C39015   3.114   3.841   6.365  0.2683  0.4552 -0.3522
 1008MOL0     C39016   3.240   3.893   6.387  0.2678  0.7968  0.1215
 1008MOL0     N39017   3.446   3.657   5.895  0.0745  0.0071 -1.1851
 1008MOL0     N39018   3.362   3.562   5.855 -0.7164 -0.1857  0.1859
 1008MOL0     C39019   3.769   2.584   6.128 -0.0103 -0.3374  0.3472
 1008MOL0     C39020   3.846   2.469   6.140 -0.4360 -0.4379  0.1590
 1008MOL0     C39021   3.920   2.014   6.205 -0.2427 -0.5819 -0.5632
 1008MOL0     C39022   4.047   2.024   6.149  0.7346  0.4142  1.2572
 1008MOL0     C39023   4.132   1.913   6.131 -0.2013 -0.2134  0.1959
 1008MOL0     C39024   4.096   1.789   6.186  0.0765 -0.1524 -0.6705
 1008MOL0     O39025   4.182   1.678   6.184 -0.0705  0.3822  0.5045
 1008MOL0     C39026   4.140   1.537   6.165  0.3362  1.0310  0.1206
 1008MOL0     C39027   4.048   1.534   6.040  0.2902  1.2155  0.7217
 1008MOL0     C39028   4.054   1.392   5.985  1.0420 -0.8376 -0.2356
 1008MOL0     C39029   3.981   1.372   5.845  0.2967 -1.0767  0.2840
 1008MOL0     C39030   4.015   1.478   5.752  0.8153  0.9167  0.8134
 1008MOL0     C39031   4.043   1.577   5.683 -0.2121 -0.0134 -0.5985
 1008MOL0     C39032   3.964   1.777   6.235  1.1565  0.3589 -0.9523
 1008MOL0     C39033   3.880   1.885   6.254  0.0457 -1.0379 -0.4066
 1008MOL0     C39034   3.743   1.863   6.330 -0.5887  0.4770  0.4709
 1008MOL0     H39035   3.661   2.306   6.364  4.7880 -0.6531  1.2955
 1008MOL0     H39036   3.531   2.508   6.357 -1.3477  1.7843 -1.8070
 1008MOL0     H39037   3.450   2.610   6.100  1.3730 -0.5809 -0.2103
 1008MOL0     H39038   3.574   2.697   5.998 -3.4408 -0.1908 -2.6302
 1008MOL0     H39039   3.371   2.813   6.198 -0.3664 -1.7016 -0.5263
 1008MOL0     H39040   3.489   2.916   6.114  0.5057  0.3067 -0.6915
 1008MOL0     H39041   3.353   2.805   5.902  1.8735 -3.3038  2.0249
 1008MOL0     H39042   3.218   2.824   6.029  0.8763 -0.9716  1.3965
 1008MOL0     H39043   3.398   3.029   5.944  0.4368  1.5941 -0.3824
 1008MOL0     H39044   3.237   3.021   5.883 -2.4265  2.6574  2.3937
 1008MOL0     H39045   3.298   3.061   6.178 -1.0948 -2.6205  0.2885
 1008MOL0     H39046   3.140   3.080   6.100 -0.2922  1.4238 -3.0103
 1008MOL0     H39047   3.205   3.290   6.143 -0.8519 -1.8383  0.1176
 1008MOL0     H39048   3.370   3.275   6.068  0.0773  0.4159 -3.1820
 1008MOL0     H39049   3.101   3.231   5.934  0.9163 -1.2694  2.1494
 1008MOL0     H39050   3.246   3.276   5.846  0.7457  1.4001  0.5979
 1008MOL0     H39051   3.113   3.467   5.847 -1.1229  3.6862 -0.0552
 1008MOL0     H39052   3.094   3.457   6.029  1.3674  1.2865  0.0432
 1008MOL0     H39053   3.275   3.600   6.176  3.2005 -0.3321  1.0009
 1008MOL0     H39054   3.378   3.820   6.172 -2.0125  2.2614 -2.1793
 1008MOL0     H39055   3.493   3.868   6.045 -0.9623 -0.8656 -1.0322
 1008MOL0     H39056   3.560   3.662   6.251  1.3350 -2.5023 -2.4501
 1008MOL0     H39057   3.653   3.725   6.109 -0.1521  0.7465 -0.4617
 1008MOL0     H39058   3.730   3.829   6.340 -0.6464  0.5684  0.7168
 1008MOL0     H39059   3.675   3.940   6.196 -1.4710  0.9845 -0.0086
 1008MOL0     H39060   3.578   4.003   6.432  0.1441  0.7638 -0.5290
 1008MOL0     H39061   3.456   3.989   6.304 -2.3901 -1.3048  2.4879
 1008MOL0     H39062   3.407   3.603   6.474 -0.4388  2.4393  0.7057
 1008MOL0     H39063   3.266   3.418   6.517  0.0021 -0.6600 -1.0120
 1008MOL0     H39064   3.147   3.420   6.400 -1.7549  1.9473 -0.7713
 1008MOL0     H39065   3.091   3.471   6.561  0.0891 -3.2651  0.0524
 1008MOL0     H39066   2.638   3.765   6.298  4.5002  1.2514  0.7486
 1008MOL0     H39067   2.403   3.697   6.380 -0.8025  4.2936  1.3555
 1008MOL0     H39068   2.378   3.761   6.765 -1.6592  1.0668  0.5717
 1008MOL0     H39069   2.281   3.791   6.629  1.6225 -1.6035 -2.9773
 1008MOL0     H39070   2.134   3.784   6.808 -0.4000 -0.5325  1.0031
 1008MOL0     H39071   2.104   3.642   6.717  0.4597 -1.1188  0.4112
 1008MOL0     H39072   2.287   3.654   6.963  1.2835 -0.9413 -0.9053
 1008MOL0     H39073   2.264   3.511   6.870  0.2330 -0.3122  0.5752
 1008MOL0     H39074   2.002   3.537   6.947  1.2066 -1.5092  0.5300
 1008MOL0     H39075   2.050   3.683   7.026 -0.7148  0.7413 -2.5857
 1008MOL0     H39076   2.194   3.564   7.178 -3.1528  2.4210  1.3209
 1008MOL0     H39077   2.040   3.508   7.193  0.5707 -2.5419  1.3364
 1008MOL0     H39078   2.273   3.348   7.068 -1.0999 -1.1389 -2.3455
 1008MOL0     H39079   2.113   3.313   7.005  1.1827 -1.0930 -0.6694
 1008MOL0     H39080   2.036   3.277   7.214  0.2931  0.7145 -2.1993
 1008MOL0     H39081   2.189   3.319   7.297  2.5838  1.0028 -0.5943
 1008MOL0     H39082   2.307   3.118   7.207 -0.0460 -1.5247 -1.6425
 1008MOL0     H39083   2.151   3.063   7.135 -2.0300  0.2544  0.2311
 1008MOL0     H39084   2.575   3.549   6.736 -1.3119  0.2890  0.3321
 1008MOL0     H39085   2.798   3.606   6.659  1.1043 -3.1157 -1.9273
 1008MOL0     H39086   3.029   3.895   6.324 -0.4687 -1.9143 -2.1910
 1008MOL0     H39087   3.264   3.999   6.375 -1.0015  1.3798  2.2096
 1008MOL0     H39088   3.802   2.657   6.055 -0.6238 -1.6187 -1.2621
 1008MOL0     H39089   3.924   2.460   6.065 -2.0468  1.8167 -1.9422
 1008MOL0     H39090   4.086   2.117   6.110  1.3752 -1.5484 -3.3694
 1008MOL0     H39091   4.230   1.922   6.086 -0.1741  0.6676  0.4269
 1008MOL0     H39092   4.231   1.478   6.153 -0.7459 -0.2974 -2.1497
 1008MOL0     H39093   4.085   1.494   6.249 -0.1176 -3.5613 -2.2360
 1008MOL0     H39094   4.099   1.591   5.962 -0.6038 -0.1750 -0.9546
 1008MOL0     H39095   3.947   1.572   6.059 -0.8199 -1.4886  0.5595
 1008MOL0     H39096   4.160   1.366   5.981  2.1475  3.0203 -0.2418
 1008MOL0     H39097   4.021   1.314   6.054 -1.0429 -1.9404 -2.3264
 1008MOL0     H39098   3.872   1.373   5.858  0.0945  0.8508 -1.2108
 1008MOL0     H39099   4.016   1.284   5.790  1.3232  0.3517 -1.4499
 1008MOL0     H39100   4.049   1.651   5.606  1.6340 -0.4581 -0.9418
 1008MOL0     H39101   3.936   1.683   6.281  2.8048  0.1905 -0.2294
 1008MOL0     H39102   3.722   1.942   6.402 -4.4176 -0.2999  0.4002
 1008MOL0     H39103   3.663   1.860   6.255  0.1600  2.1939 -0.4507
 1008MOL0     H39104   3.757   1.774   6.391 -1.2198 -0.4432 -0.6900
 1009MOL0     O39105   3.851   5.467   6.559 -0.2792  0.9577 -0.7081
 1009MOL0     C39106   3.823   5.357   6.610  0.2822  0.3405 -0.3462
 1009MOL0     O39107   3.775   5.332   6.738 -1.1650 -0.1443  0.0191
 1009MOL0     C39108   3.794   5.418   6.836  0.2083 -0.9882 -0.2576
 1009MOL0     C39109   3.681   5.469   6.902 -0.1277  0.2513  0.4003
 1009MOL0     C39110   3.685   5.556   7.010 -0.2803 -0.5207  0.3636
 1009MOL0     C39111   3.806   5.602   7.060 -0.5024  0.4653 -0.5183
 1009MOL0     O39112   3.803   5.697   7.155  0.3658  0.4788  0.0184
 1009MOL0     C39113   3.852   5.823   7.120 -0.0693  0.4914  0.9875
 1009MOL0     C39114   3.938   5.874   7.245  0.3749 -0.4342  0.2484
 1009MOL0     C39115   3.997   6.018   7.226 -0.3525 -0.4035  0.1862
 1009MOL0     C39116   3.891   6.129   7.240 -0.7592  0.6580 -0.2019
 1009MOL0     C39117   3.946   6.270   7.242  0.1482  0.1035 -0.7474
 1009MOL0     C39118   4.042   6.306   7.352  0.0522  0.3140 -0.4972
 1009MOL0     C39119   4.121   6.435   7.322 -0.4076  0.2184 -0.6103
 1009MOL0     C39120   4.218   6.426   7.195 -1.0754  0.6113  0.0529
 1009MOL0     N39121   4.314   6.314   7.199  0.0113  0.2909  0.3690
 1009MOL0     C39122   4.373   6.263   7.310 -0.0326  0.2714 -0.3562
 1009MOL0     C39123   4.449   6.159   7.277 -0.6272  0.1442  0.3051
 1009MOL0     C39124   4.549   6.082   7.354 -0.8767  0.3127 -0.2570
 1009MOL0     C39125   4.467   6.039   7.475 -0.6603 -0.2090 -0.5129
 1009MOL0     C39126   4.524   5.898   7.524  0.1105 -0.1859 -0.8646
 1009MOL0     C39127   4.455   5.862   7.658  0.6034 -1.0261  0.3699
 1009MOL0     O39128   4.453   5.727   7.685  0.7123 -0.4307  0.0378
 1009MOL0     C39129   4.332   5.674   7.722  0.3835 -0.1087  0.7119
 1009MOL0     C39130   4.321   5.627   7.855 -1.4245 -0.6611 -0.3203
 1009MOL0     C39131   4.217   5.536   7.891  0.1084 -0.7956 -0.1397
 1009MOL0     C39132   4.205   5.476   8.035 -0.8303  0.0132 -0.2730
 1009MOL0     C39133   4.108   5.522   7.798 -0.4245 -0.9396 -0.3987
 1009MOL0     C39134   3.979   5.454   7.839 -0.3731  0.2092 -0.5024
 1009MOL0     O39135   3.983   5.333   7.909  0.7247  0.2917 -0.2167
 1009MOL0     C39136   3.868   5.284   7.967 -0.1042 -0.2421 -0.1037
 1009MOL0     C39137   3.876   5.240   8.101 -0.4549  0.4598 -1.1874
 1009MOL0     C39138   3.768   5.179   8.169  0.2499 -0.0803  0.1822
 1009MOL0     C39139   3.654   5.164   8.094 -0.0742 -0.4732  0.5646
 1009MOL0     O39140   3.540   5.103   8.143 -0.4143  0.5257  0.7088
 1009MOL0     C39141   3.486   5.113   8.270 -0.3636  0.0574 -0.7237
 1009MOL0     C39142   3.388   5.012   8.323 -0.4452  1.4330  1.3182
 1009MOL0     C39143   3.444   4.862   8.294  0.6235 -0.7647 -0.3813
 1009MOL0     C39144   3.340   4.758   8.347 -0.9514  0.1803  0.2603
 1009MOL0     C39145   3.324   4.643   8.247 -0.7562  0.8721  0.0929
 1009MOL0     C39146   3.461   4.571   8.213  0.8095 -0.6089  0.0263
 1009MOL0     C39147   3.445   4.446   8.120 -0.1388 -0.2804  0.5385
 1009MOL0     C39148   3.428   4.309   8.200  1.2000 -0.6011 -0.8961
 1009MOL0    Cl39149   3.357   4.171   8.100 -0.4287  0.1174  0.2898
 1009MOL0     C39150   3.645   5.213   7.964  0.5498 -0.1020  0.4155
 1009MOL0     C39151   3.750   5.275   7.899  0.4450  0.0676  0.2791
 1009MOL0     O39152   3.880   5.527   7.835  0.4725 -0.1615 -0.0422
 1009MOL0     C39153   4.108   5.580   7.678 -0.2950 -0.5070  0.1138
 1009MOL0     C39154   4.226   5.647   7.639  0.1914  0.0331  0.6132
 1009MOL0     N39155   4.432   6.151   7.136 -0.0420  0.3076 -0.0938
 1009MOL0     N39156   4.353   6.243   7.092  0.2462  0.4304  0.0974
 1009MOL0     C39157   3.929   5.573   6.998  1.0701  1.0877  0.1429
 1009MOL0     C39158   3.919   5.480   6.881 -0.5118  0.2116  0.3647
 1009MOL0     C39159   3.842   5.245   6.521 -0.6357  0.3957  0.0214
 1009MOL0     C39160   3.891   5.126   6.582  0.0031 -0.1866 -0.3549
 1009MOL0     C39161   3.923   5.011   6.511  0.3992  0.4914  0.3122
 1009MOL0     C39162   3.918   5.010   6.375  0.3877  0.0575 -0.2564
 1009MOL0     O39163   3.943   4.896   6.309 -0.5997  0.3984 -0.0499
 1009MOL0     C39164   4.066   4.878   6.248 -0.5295 -0.5624  0.7800
 1009MOL0     C39165   4.180   4.968   6.307 -0.3984 -0.5161 -0.5249
 1009MOL0     C39166   4.321   4.921   6.261 -0.2665 -0.3561 -0.5002
 1009MOL0     C39167   4.429   4.969   6.350  0.3285  0.2572  0.5072
 1009MOL0     C39168   4.458   4.863   6.451 -0.0887 -0.4357 -0.6715
 1009MOL0     C39169   4.458   4.785   6.546 -0.4391  0.0472 -0.2519
 1009MOL0     C39170   3.875   5.124   6.312 -0.3746  0.3424  0.5281
 1009MOL0     C39171   3.840   5.239   6.378  1.3163 -0.1964 -0.9521
 1009MOL0     C39172   3.782   5.352   6.299 -0.3591 -0.1999 -0.3643
 1009MOL0     H39173   3.586   5.427   6.870 -0.6704 -1.5584  3.8841
 1009MOL0     H39174   3.591   5.584   7.057 -0.5791 -3.8482  2.0320
 1009MOL0     H39175   3.765   5.889   7.111 -0.9500 -0.9242 -2.5230
 1009MOL0     H39176   3.911   5.833   7.029  0.0194 -1.8545  0.7067
 1009MOL0     H39177   3.880   5.875   7.337 -0.0607  0.7373 -0.0227
 1009MOL0     H39178   4.022   5.808   7.268  2.4946  2.1119  0.2768
 1009MOL0     H39179   4.074   6.030   7.303 -0.0337  1.5903 -0.3749
 1009MOL0     H39180   4.052   6.037   7.133  0.8943  1.0126  1.1521
 1009MOL0     H39181   3.830   6.119   7.150  2.6113  1.6132 -2.7841
 1009MOL0     H39182   3.829   6.096   7.324 -0.1598 -2.8116 -0.9688
 1009MOL0     H39183   3.856   6.331   7.249 -3.6852 -5.0216  1.4758
 1009MOL0     H39184   3.999   6.294   7.149 -1.4960  2.2294 -1.2053
 1009MOL0     H39185   3.987   6.327   7.444  0.2098  0.5425 -0.4536
 1009MOL0     H39186   4.106   6.220   7.374 -0.5201 -0.2772 -1.0938
 1009MOL0     H39187   4.173   6.463   7.414 -1.2509  3.1443 -0.9335
 1009MOL0     H39188   4.063   6.526   7.305  0.8615  1.0753 -0.5215
 1009MOL0     H39189   4.162   6.412   7.101 -1.5788  1.5541  0.1952
 1009MOL0     H39190   4.266   6.520   7.167 -0.4366 -0.4587 -2.8539
 1009MOL0     H39191   4.357   6.283   7.416 -1.7146 -0.8365 -0.3635
 1009MOL0     H39192   4.637   6.139   7.384 -0.4640 -0.6661  0.4285
 1009MOL0     H39193   4.576   5.990   7.301  0.8944 -0.0751  1.2206
 1009MOL0     H39194   4.484   6.106   7.561 -1.7475 -0.2367 -0.2636
 1009MOL0     H39195   4.364   6.017   7.446 -1.4572  0.6320  1.4468
 1009MOL0     H39196   4.508   5.820   7.450 -1.1823  1.8403 -2.8629
 1009MOL0     H39197   4.632   5.907   7.540  0.4896  1.1306 -3.6216
 1009MOL0     H39198   4.502   5.919   7.739 -0.7308  0.9700 -0.1715
 1009MOL0     H39199   4.356   5.907   7.667 -0.1692 -2.6386  0.2383
 1009MOL0     H39200   4.397   5.636   7.932 -1.5507 -2.6282  0.0887
 1009MOL0     H39201   4.112   5.513   8.077 -1.4161 -1.2858 -0.3819
 1009MOL0     H39202   4.296   5.508   8.086  0.2914  0.3525 -2.3623
 1009MOL0     H39203   4.202   5.368   8.024 -0.3379  0.2044 -2.9906
 1009MOL0     H39204   3.960   5.267   8.165  1.0282 -1.7248 -2.0725
 1009MOL0     H39205   3.766   5.144   8.272  2.0680  1.1340  0.6830
 1009MOL0     H39206   3.571   5.124   8.338 -1.0647  0.1871  0.1472
 1009MOL0     H39207   3.429   5.207   8.266  0.6500  0.6580 -3.7246
 1009MOL0     H39208   3.374   5.022   8.431  3.3289  1.7527  1.9011
 1009MOL0     H39209   3.295   5.017   8.266  0.0828 -0.6337  0.1593
 1009MOL0     H39210   3.527   4.839   8.361  0.5406 -2.7674 -0.9129
 1009MOL0     H39211   3.470   4.850   8.188 -0.6590 -0.4000 -0.7589
 1009MOL0     H39212   3.244   4.805   8.369 -0.1333  2.1798 -0.1858
 1009MOL0     H39213   3.379   4.722   8.443 -1.6060 -3.3426 -0.6657
 1009MOL0     H39214   3.243   4.580   8.286  1.2180 -1.9162 -0.0404
 1009MOL0     H39215   3.283   4.691   8.158 -0.5086 -0.3823 -0.7210
 1009MOL0     H39216   3.527   4.549   8.297  0.0437  1.4560  1.2513
 1009MOL0     H39217   3.505   4.640   8.141 -0.1414  0.6611  0.6230
 1009MOL0     H39218   3.540   4.437   8.066  0.3806  1.1915  1.1672
 1009MOL0     H39219   3.356   4.466   8.059 -1.3600  0.5276  2.5184
 1009MOL0     H39220   3.364   4.323   8.287  3.0975 -2.6141  0.9544
 1009MOL0     H39221   3.514   4.261   8.248 -1.3936 -1.7391  3.1357
 1009MOL0     H39222   3.559   5.195   7.899  0.2556  1.5875  0.3012
 1009MOL0     H39223   3.737   5.318   7.800 -1.5099 -2.5313 -0.6886
 1009MOL0     H39224   4.020   5.578   7.616 -0.4051 -0.4494  0.2669
 1009MOL0     H39225   4.233   5.679   7.535 -2.7066  0.6759  0.5317
 1009MOL0     H39226   4.024   5.606   7.038  0.4552  1.4709  1.3064
 1009MOL0     H39227   4.018   5.445   6.852 -0.5888  1.3170 -1.3203
 1009MOL0     H39228   3.906   5.124   6.690  0.6760 -1.8730 -0.4411
 1009MOL0     H39229   3.971   4.931   6.567 -1.0215  1.5122  3.1803
 1009MOL0     H39230   4.099   4.775   6.263  4.5343  0.2160 -2.6854
 1009MOL0     H39231   4.060   4.906   6.142  2.8536 -0.0998  0.5914
 1009MOL0     H39232   4.173   4.956   6.415  1.5227 -1.5053 -0.4732
 1009MOL0     H39233   4.172   5.076   6.291  0.5686  0.2343  3.2222
 1009MOL0     H39234   4.332   4.812   6.252  2.3133 -0.0821 -1.3801
 1009MOL0     H39235   4.345   4.963   6.163  1.7430  2.1926  0.9575
 1009MOL0     H39236   4.404   5.064   6.398 -2.5900 -0.4629  0.5990
 1009MOL0     H39237   4.521   4.993   6.297  0.4809  0.6860  0.9619
 1009MOL0     H39238   4.465   4.721   6.632 -0.7668 -0.0473 -0.2970
 1009MOL0     H39239   3.856   5.117   6.206  1.2487 -0.1008  0.2491
 1009MOL0     H39240   3.779   5.325   6.193  0.6328  0.4161 -0.5689
 1009MOL0     H39241   3.680   5.367   6.336 -0.6589 -0.2693 -1.1602
 1009MOL0     H39242   3.843   5.443   6.307  0.7047 -0.8089 -1.2294
 1010MOL0     O39243   5.105   0.372   9.672 -0.8311  0.3058  0.0635
 1010MOL0     C39244   5.069   0.298   9.580 -0.1056  0.5908  0.4636
 1010MOL0     O39245   4.965   0.324   9.508  0.4994  0.7371 -0.2518
 1010MOL0     C39246   4.896   0.445   9.510 -0.6145  0.2315 -0.7836
 1010MOL0     C39247   4.757   0.429   9.525 -0.2574 -0.5244 -0.5239
 1010MOL0     C39248   4.670   0.544   9.536  0.0828 -0.1085  0.7159
 1010MOL0     C39249   4.722   0.671   9.498 -0.5224 -0.0458 -0.7144
 1010MOL0     O39250   4.640   0.779   9.484 -0.3201  0.6285  0.2582
 1010MOL0     C39251   4.542   0.796   9.587 -0.5687  0.5945  0.7171
 1010MOL0     C39252   4.594   0.912   9.686  0.1154  0.4957  0.7410
 1010MOL0     C39253   4.482   0.966   9.772  1.1691  0.6895  0.0531
 1010MOL0     C39254   4.534   1.078   9.861  0.2137  0.8680  0.9308
 1010MOL0     C39255   4.434   1.098   9.975 -0.0762 -0.0858  0.6741
 1010MOL0     C39256   4.477   1.216  10.046  0.1691 -0.9475 -0.4083
 1010MOL0     C39257   4.367   1.252  10.158 -0.0200  0.2361 -0.2784
 1010MOL0     C39258   4.425   1.372  10.250 -0.2229  0.0945  1.0296
 1010MOL0     N39259   4.343   1.384  10.368 -0.0533  0.9219  0.2736
 1010MOL0     C39260   4.259   1.485  10.402 -0.4864 -0.1646  0.1956
 1010MOL0     C39261   4.172   1.441  10.493 -0.0481 -0.1810  0.1564
 1010MOL0     C39262   4.048   1.517  10.533 -0.1119 -0.5849  0.3381
 1010MOL0     C39263   3.918   1.463  10.484  0.3517 -0.4000  0.3322
 1010MOL0     C39264   3.891   1.487  10.334  0.2905 -0.5572 -1.3399
 1010MOL0     C39265   3.790   1.373  10.295 -0.2234 -0.2359 -0.0682
 1010MOL0     O39266   3.845   1.243  10.277  0.3568 -0.1928 -0.3317
 1010MOL0     C39267   3.860   1.192  10.152 -0.9816  1.4469  0.0010
 1010MOL0     C39268   3.784   1.221  10.047 -0.0995 -0.2060  0.1943
 1010MOL0     C39269   3.815   1.168   9.921 -0.2376  0.2231 -0.2050
 1010MOL0     C39270   3.732   1.219   9.804  0.4773  0.1613  0.6955
 1010MOL0     C39271   3.919   1.061   9.914  0.3550 -0.4527 -0.4345
 1010MOL0     C39272   3.953   0.982   9.798  0.1706 -0.2243  0.1372
 1010MOL0     O39273   4.014   0.857   9.823  0.6544 -0.3574  0.8720
 1010MOL0     C39274   4.054   0.784   9.717 -0.5005  0.3744  0.7150
 1010MOL0     C39275   4.054   0.821   9.578  0.0735  0.5086  1.1083
 1010MOL0     C39276   4.131   0.745   9.487 -0.4436  0.0463 -0.2764
 1010MOL0     C39277   4.200   0.624   9.524 -0.6187  0.3267  0.2402
 1010MOL0     O39278   4.290   0.546   9.450  0.0306 -0.2920 -0.5264
 1010MOL0     C39279   4.284   0.563   9.305  0.7911  0.2101 -0.4192
 1010MOL0     C39280   4.332   0.425   9.228  0.0018 -0.9416 -0.4863
 1010MOL0     C39281   4.454   0.363   9.296  0.2932  0.1517 -0.5839
 1010MOL0     C39282   4.506   0.241   9.212  0.4269  0.8127  0.1838
 1010MOL0     C39283   4.612   0.169   9.296  0.3261  0.3427 -1.2564
 1010MOL0     C39284   4.559   0.079   9.412  0.2593 -1.0642 -1.7978
 1010MOL0     C39285   4.660  -0.009   9.474 -0.1751  0.8516  0.7181
 1010MOL0     C39286   4.612  -0.117   9.567  0.2587  0.4674  0.4887
 1010MOL0    Cl39287   4.622  -0.072   9.743 -0.3358 -0.4435  0.4396
 1010MOL0     C39288   4.189   0.583   9.661  0.2184  0.8434  0.4022
 1010MOL0     C39289   4.120   0.660   9.751  1.0777 -0.9417 -0.6307
 1010MOL0     O39290   3.920   1.028   9.691 -0.2119  0.9492  0.8300
 1010MOL0     C39291   4.002   1.045  10.029  0.3952  0.0843 -0.2860
 1010MOL0     C39292   3.972   1.102  10.147 -0.1149 -0.8212 -0.4798
 1010MOL0     N39293   4.214   1.314  10.535 -0.2319 -0.6773  0.5228
 1010MOL0     N39294   4.309   1.280  10.451  0.3298  0.3597  0.1694
 1010MOL0     C39295   4.862   0.684   9.491 -0.8977 -0.1201 -0.2167
 1010MOL0     C39296   4.947   0.570   9.505 -0.0643  0.2225 -0.6752
 1010MOL0     C39297   5.149   0.183   9.552 -0.4512 -0.0502  0.7122
 1010MOL0     C39298   5.226   0.128   9.659 -1.2263 -0.0445  0.7242
 1010MOL0     C39299   5.300   0.015   9.636 -1.1111  0.9715 -1.2049
 1010MOL0     C39300   5.305  -0.047   9.515  0.0928  0.5200 -0.2352
 1010MOL0     O39301   5.371  -0.160   9.502  0.1770 -0.7114  0.7312
 1010MOL0     C39302   5.319  -0.279   9.454 -0.5401  0.8119 -0.3763
 1010MOL0     C39303   5.201  -0.325   9.524  0.2038 -0.6007  0.2745
 1010MOL0     C39304   5.101  -0.385   9.415 -0.0783 -0.2707 -0.6228
 1010MOL0     C39305   5.024  -0.279   9.331  0.4717  0.8534 -0.4455
 1010MOL0     C39306   4.894  -0.329   9.301 -0.2750  0.2036  0.6534
 1010MOL0     C39307   4.786  -0.389   9.288  0.6831  0.2333 -0.8310
 1010MOL0     C39308   5.228  -0.002   9.409  0.2418  0.3780  0.6537
 1010MOL0     C39309   5.158   0.114   9.421  0.2873 -0.3689 -0.5959
 1010MOL0     C39310   5.075   0.174   9.308  0.3173  0.0304  0.6680
 1010MOL0     H39311   4.727   0.327   9.550 -0.2544 -0.3403  0.2372
 1010MOL0     H39312   4.566   0.545   9.567 -0.6926  3.6007 -1.3393
 1010MOL0     H39313   4.503   0.711   9.643  1.7196 -0.6767  0.5149
 1010MOL0     H39314   4.452   0.826   9.534  0.1496 -1.0062 -1.5676
 1010MOL0     H39315   4.682   0.880   9.744 -1.6067 -0.5154  2.9803
 1010MOL0     H39316   4.618   0.994   9.619 -0.4151 -2.2544 -3.1861
 1010MOL0     H39317   4.399   1.001   9.710 -2.6957 -0.2050  4.1471
 1010MOL0     H39318   4.439   0.888   9.837 -1.6101  1.4579 -0.7364
 1010MOL0     H39319   4.637   1.068   9.897  0.5273  5.3533  1.8814
 1010MOL0     H39320   4.553   1.158   9.789  1.1166 -1.7331 -1.9393
 1010MOL0     H39321   4.440   1.017  10.049  3.4459  0.1553  0.8458
 1010MOL0     H39322   4.329   1.099   9.944 -0.7127 -0.7005  2.7026
 1010MOL0     H39323   4.580   1.200  10.076  1.1597  1.6591 -2.1245
 1010MOL0     H39324   4.490   1.295   9.972 -0.5807 -0.4375 -0.0221
 1010MOL0     H39325   4.343   1.163  10.217  3.9548  0.8751  2.7561
 1010MOL0     H39326   4.276   1.286  10.110 -3.4307 -2.3135  3.6100
 1010MOL0     H39327   4.526   1.345  10.282 -0.8746 -1.2926  2.0488
 1010MOL0     H39328   4.430   1.463  10.190  0.4572 -0.8422 -0.3906
 1010MOL0     H39329   4.245   1.580  10.352 -1.4193 -0.4097 -0.0345
 1010MOL0     H39330   4.060   1.622  10.509 -1.0007 -0.5612 -0.0448
 1010MOL0     H39331   4.039   1.512  10.642 -0.5378 -2.6827  0.2634
 1010MOL0     H39332   3.909   1.355  10.505  1.8613 -0.6188  0.0216
 1010MOL0     H39333   3.843   1.518  10.541 -0.8309 -1.2192 -0.3943
 1010MOL0     H39334   3.840   1.582  10.319  0.4761 -0.4049 -1.0155
 1010MOL0     H39335   3.984   1.491  10.276  1.9238  1.9750  1.1913
 1010MOL0     H39336   3.705   1.365  10.364 -0.5744 -1.4060 -0.5959
 1010MOL0     H39337   3.729   1.403  10.209 -1.9959 -0.7554  0.9421
 1010MOL0     H39338   3.701   1.290  10.048  1.9318  2.4835 -1.2312
 1010MOL0     H39339   3.676   1.131   9.772 -0.7283  0.2489  2.4580
 1010MOL0     H39340   3.793   1.254   9.719 -0.3703 -1.4034 -0.6285
 1010MOL0     H39341   3.671   1.303   9.837  0.0516 -0.1718  0.7561
 1010MOL0     H39342   4.016   0.905   9.522  2.3696 -0.4630 -2.1947
 1010MOL0     H39343   4.145   0.770   9.382  1.1540  4.0300  0.7171
 1010MOL0     H39344   4.184   0.584   9.265  0.4258  1.5364  1.1099
 1010MOL0     H39345   4.348   0.648   9.281 -3.3642  3.8960  0.3064
 1010MOL0     H39346   4.242   0.363   9.227 -0.1064 -0.7850 -0.5582
 1010MOL0     H39347   4.361   0.460   9.129  0.2315 -0.9065 -0.4088
 1010MOL0     H39348   4.426   0.330   9.396 -1.0241  2.7494 -0.0055
 1010MOL0     H39349   4.550   0.416   9.294  0.5996 -0.3819 -0.2463
 1010MOL0     H39350   4.545   0.277   9.116 -3.1441 -1.3754 -2.3176
 1010MOL0     H39351   4.430   0.167   9.187 -0.4986  1.0726  2.0497
 1010MOL0     H39352   4.658   0.100   9.224  0.5683 -1.3005  0.3791
 1010MOL0     H39353   4.691   0.235   9.332  2.2013 -1.0854 -2.5536
 1010MOL0     H39354   4.480   0.019   9.368 -1.3778 -0.5389  0.2602
 1010MOL0     H39355   4.518   0.138   9.495  1.5538  0.1776 -1.9958
 1010MOL0     H39356   4.748   0.044   9.511  2.5058 -0.7315 -2.7750
 1010MOL0     H39357   4.694  -0.064   9.386  0.1854  0.6653  0.9725
 1010MOL0     H39358   4.640  -0.221   9.546 -0.9231  0.0640  0.7781
 1010MOL0     H39359   4.504  -0.118   9.547  0.5540  0.8981 -1.2525
 1010MOL0     H39360   4.240   0.492   9.689 -4.0120 -2.2732 -0.9344
 1010MOL0     H39361   4.136   0.634   9.856  2.4029  0.4975 -0.4599
 1010MOL0     H39362   4.091   0.985  10.046  0.3656  0.2454  0.4925
 1010MOL0     H39363   4.033   1.096  10.236 -2.2879 -2.4949  1.0006
 1010MOL0     H39364   4.897   0.784   9.468 -2.0732 -0.0090 -1.6781
 1010MOL0     H39365   5.055   0.580   9.506 -0.0891  1.9789  3.3193
 1010MOL0     H39366   5.210   0.175   9.755  0.5330 -0.7668  1.4101
 1010MOL0     H39367   5.348  -0.042   9.715  2.6844  2.4552 -2.1904
 1010MOL0     H39368   5.297  -0.260   9.349 -1.4281 -0.6945 -0.5006
 1010MOL0     H39369   5.389  -0.363   9.461 -2.7146 -0.9900  2.0114
 1010MOL0     H39370   5.152  -0.243   9.577  0.9094  1.8495 -2.6511
 1010MOL0     H39371   5.227  -0.405   9.595  1.7910 -2.5470 -2.3207
 1010MOL0     H39372   5.155  -0.435   9.335 -0.9421  0.2671 -1.5758
 1010MOL0     H39373   5.037  -0.454   9.472  0.3185  1.4793  2.1252
 1010MOL0     H39374   5.084  -0.246   9.245  2.1946  1.0330  0.7725
 1010MOL0     H39375   4.996  -0.198   9.399 -1.6579 -1.1659  1.2067
 1010MOL0     H39376   4.703  -0.454   9.303 -0.2417  1.2338 -1.4133
 1010MOL0     H39377   5.226  -0.056   9.315 -2.6175 -2.4535  2.1754
 1010MOL0     H39378   5.093   0.282   9.299  1.1035 -0.2540 -2.0712
 1010MOL0     H39379   5.086   0.144   9.203 -2.4122 -1.4743  0.7387
 1010MOL0     H39380   4.970   0.155   9.331  0.6560 -1.3503  1.1530
 1011MOL0     O39381  11.169   6.197  11.049  0.4516 -0.5880 -0.9910
 1011MOL0     C39382  11.122   6.097  11.094 -0.4786 -0.1096 -0.4757
 1011MOL0     O39383  11.145   5.974  11.052 -0.2168 -0.5835 -0.2447
 1011MOL0     C39384  11.225   5.949  10.938  0.0872 -0.3938  0.5970
 1011MOL0     C39385  11.302   6.039  10.874 -0.3745 -0.0904  1.0590
 1011MOL0     C39386  11.376   5.990  10.760 -0.5499  0.3651 -0.3173
 1011MOL0     C39387  11.369   5.856  10.706  0.0262  0.0349  0.1128
 1011MOL0     O39388  11.440   5.828  10.598 -0.9831  0.0627  0.2942
 1011MOL0     C39389  11.366   5.773  10.486 -0.2693 -0.4793 -1.1493
 1011MOL0     C39390  11.463   5.743  10.369 -0.1752  0.2705 -0.0194
 1011MOL0     C39391  11.417   5.629  10.275  0.2559 -0.2854 -0.7712
 1011MOL0     C39392  11.502   5.608  10.152  1.0600 -0.0530 -0.5590
 1011MOL0     C39393  11.482   5.470  10.087 -0.8513  0.2763 -0.5067
 1011MOL0     C39394  11.360   5.460  10.008  0.1693 -0.6002  0.3834
 1011MOL0     C39395  11.309   5.321   9.974 -0.2111 -0.1155  0.9233
 1011MOL0     C39396  11.261   5.233  10.092  0.1304  0.8515  1.1205
 1011MOL0     N39397  11.312   5.095  10.063 -0.7103 -0.3795  0.3427
 1011MOL0     C39398  11.444   5.049  10.091  1.2474 -0.9919  1.0609
 1011MOL0     C39399  11.458   4.921  10.050  0.7448  0.3853  0.4471
 1011MOL0     C39400  11.583   4.844  10.067  0.2772 -0.1900 -0.6592
 1011MOL0     C39401  11.669   4.828   9.937  0.9833 -0.6569  0.0324
 1011MOL0     C39402  11.629   4.724   9.839  0.1769  0.5634  0.6559
 1011MOL0     C39403  11.737   4.698   9.732  0.3192  0.6157  0.2260
 1011MOL0     O39404  11.845   4.630   9.787  0.2620 -0.5885  0.0104
 1011MOL0     C39405  11.961   4.634   9.717 -0.4304 -0.7043  0.4500
 1011MOL0     C39406  12.049   4.745   9.732  0.3304  0.3678  0.8374
 1011MOL0     C39407  12.175   4.758   9.661  0.4353  1.3356  0.4195
 1011MOL0     C39408  12.260   4.883   9.699 -0.1757  0.3879  0.8846
 1011MOL0     C39409  12.205   4.655   9.563  0.4667 -0.5182  0.8140
 1011MOL0     C39410  12.314   4.660   9.464 -0.0099  0.0993  0.5048
 1011MOL0     O39411  12.317   4.560   9.362  0.3456 -0.3692  0.0938
 1011MOL0     C39412  12.425   4.533   9.279 -0.5714  0.4081  0.3210
 1011MOL0     C39413  12.410   4.425   9.188 -0.0365  0.4925 -0.9184
 1011MOL0     C39414  12.512   4.376   9.109  0.1388  0.6168 -0.3699
 1011MOL0     C39415  12.641   4.437   9.123  0.9224 -0.2116 -0.0973
 1011MOL0     O39416  12.746   4.400   9.047 -0.5364  0.8358  0.2700
 1011MOL0     C39417  12.748   4.269   8.989  0.6121 -0.7193 -0.3345
 1011MOL0     C39418  12.894   4.252   8.944  0.2411 -0.2614 -0.1149
 1011MOL0     C39419  12.988   4.219   9.065 -0.2843  0.1048 -0.1700
 1011MOL0     C39420  13.137   4.208   9.028  0.9895  0.1460 -0.3014
 1011MOL0     C39421  13.227   4.206   9.151  0.2107  0.2532 -0.9745
 1011MOL0     C39422  13.244   4.070   9.212 -0.2420  0.2437 -0.5217
 1011MOL0     C39423  13.318   3.961   9.135  0.3270  0.2077 -0.0853
 1011MOL0     C39424  13.335   3.834   9.215 -0.0564  0.1711  0.2019
 1011MOL0    Cl39425  13.206   3.780   9.327 -0.3449  0.3836 -0.3529
 1011MOL0     C39426  12.664   4.527   9.229  0.2900 -0.3089  0.4861
 1011MOL0     C39427  12.555   4.572   9.302 -0.5257 -1.2149 -0.1294
 1011MOL0     O39428  12.399   4.739   9.487 -0.2621  0.0803  1.2114
 1011MOL0     C39429  12.122   4.536   9.568 -0.1062  0.4649  0.4828
 1011MOL0     C39430  11.999   4.529   9.640 -0.2472  0.5037  0.3599
 1011MOL0     N39431  11.325   4.892   9.991  0.4992 -0.3414 -0.4885
 1011MOL0     N39432  11.245   5.004   9.997 -0.7645 -0.8075  0.4135
 1011MOL0     C39433  11.272   5.773  10.767 -0.3933 -0.7550 -0.5234
 1011MOL0     C39434  11.206   5.817  10.882  1.3181 -0.7911 -1.6069
 1011MOL0     C39435  11.016   6.121  11.193 -0.8857  0.5726  0.5303
 1011MOL0     C39436  11.020   6.231  11.284 -1.0884  0.0595 -0.5676
 1011MOL0     C39437  10.925   6.264  11.375 -0.1807  0.0769  0.4047
 1011MOL0     C39438  10.813   6.186  11.374  0.2749  0.1358  0.7279
 1011MOL0     O39439  10.712   6.209  11.464  0.5519  0.5301  0.5153
 1011MOL0     C39440  10.689   6.112  11.565 -0.0325 -0.1559 -0.8855
 1011MOL0     C39441  10.567   6.160  11.637 -0.0119 -0.6689  0.2607
 1011MOL0     C39442  10.437   6.090  11.593  0.0967  0.4009  0.1694
 1011MOL0     C39443  10.319   6.151  11.681 -0.3449 -0.8713 -0.3186
 1011MOL0     C39444  10.192   6.139  11.614  0.4760 -0.3753 -0.2199
 1011MOL0     C39445  10.076   6.113  11.584  0.3188 -0.3982  0.7357
 1011MOL0     C39446  10.816   6.072  11.302 -0.0139  0.5111 -0.7555
 1011MOL0     C39447  10.898   6.037  11.202  0.7049 -0.2968  0.5225
 1011MOL0     C39448  10.856   5.916  11.127  1.0541 -0.0942  1.1026
 1011MOL0     H39449  11.327   6.140  10.905  0.9749 -0.2494  0.5924
 1011MOL0     H39450  11.446   6.054  10.706  3.4343 -3.9146 -0.8226
 1011MOL0     H39451  11.302   5.853  10.450  1.6264  3.4951  3.2352
 1011MOL0     H39452  11.327   5.672  10.505  0.5633 -0.6012 -0.0082
 1011MOL0     H39453  11.463   5.837  10.312 -0.0425  0.7698  0.7759
 1011MOL0     H39454  11.562   5.722  10.411 -0.6848  2.6833  2.7439
 1011MOL0     H39455  11.423   5.537  10.334 -2.0012 -0.8306 -1.2948
 1011MOL0     H39456  11.310   5.644  10.259 -0.0126 -0.7962  0.4689
 1011MOL0     H39457  11.474   5.682  10.076  0.2509 -0.8043 -1.0140
 1011MOL0     H39458  11.602   5.633  10.188 -0.4229  4.0028  1.4201
 1011MOL0     H39459  11.488   5.400  10.171  1.0427  3.0509  1.8193
 1011MOL0     H39460  11.567   5.438  10.027 -0.5182 -1.9478  1.0239
 1011MOL0     H39461  11.272   5.509  10.051  0.5386  1.8883 -1.4760
 1011MOL0     H39462  11.383   5.515   9.916  1.6155  0.6131  1.4193
 1011MOL0     H39463  11.400   5.277   9.933 -0.7720  1.2611 -2.0877
 1011MOL0     H39464  11.240   5.321   9.889 -1.5736 -0.8190  1.9717
 1011MOL0     H39465  11.295   5.272  10.189 -0.9526  0.0207  1.8661
 1011MOL0     H39466  11.152   5.236  10.082  0.3094  2.6214 -0.9146
 1011MOL0     H39467  11.525   5.111  10.127  0.2742  0.5266  0.7342
 1011MOL0     H39468  11.555   4.745  10.101  0.8242  0.0434  0.5035
 1011MOL0     H39469  11.640   4.889  10.148  2.1497 -1.5700 -1.1340
 1011MOL0     H39470  11.653   4.914   9.871 -0.2491 -2.3447 -2.0165
 1011MOL0     H39471  11.775   4.817   9.960  0.6590 -3.4710  0.5417
 1011MOL0     H39472  11.608   4.628   9.887  0.7708  0.3215  0.4331
 1011MOL0     H39473  11.536   4.739   9.783  0.2604  0.0139  0.3685
 1011MOL0     H39474  11.700   4.618   9.667 -1.2203  0.3531  1.3534
 1011MOL0     H39475  11.765   4.790   9.680  0.9797 -0.3017 -1.0826
 1011MOL0     H39476  12.018   4.831   9.791  0.4119  2.0158 -1.4039
 1011MOL0     H39477  12.359   4.894   9.654  0.4443 -0.9294  1.8524
 1011MOL0     H39478  12.273   4.866   9.806  0.7636 -1.0366  0.5723
 1011MOL0     H39479  12.201   4.975   9.697  1.8094  1.7142 -0.2252
 1011MOL0     H39480  12.321   4.363   9.185 -0.4612  0.9552 -5.4333
 1011MOL0     H39481  12.490   4.294   9.042  2.8176  0.0530 -0.6858
 1011MOL0     H39482  12.714   4.196   9.064  0.0106  0.6858  0.8285
 1011MOL0     H39483  12.670   4.282   8.914 -1.7785  2.3583  2.3584
 1011MOL0     H39484  12.904   4.165   8.879 -0.1612  0.3581 -1.0335
 1011MOL0     H39485  12.935   4.341   8.894  0.8553  0.1002  0.9788
 1011MOL0     H39486  12.974   4.120   9.108  0.2938 -0.9598 -2.2759
 1011MOL0     H39487  12.963   4.299   9.136 -0.3138 -0.9593  1.0401
 1011MOL0     H39488  13.158   4.283   8.952  0.6078  0.0788 -0.4751
 1011MOL0     H39489  13.164   4.113   8.981  1.8962  0.1759  0.1337
 1011MOL0     H39490  13.327   4.234   9.114 -0.0796  0.6933 -1.4374
 1011MOL0     H39491  13.195   4.281   9.224 -0.3756  0.7148 -1.6976
 1011MOL0     H39492  13.142   4.046   9.242 -0.3678  2.6911  1.3790
 1011MOL0     H39493  13.305   4.078   9.303  0.7431  1.1423 -1.2278
 1011MOL0     H39494  13.415   4.000   9.103 -1.4548  4.3201 -1.0713
 1011MOL0     H39495  13.260   3.931   9.048 -2.0484  2.2376  0.6842
 1011MOL0     H39496  13.420   3.871   9.273  1.1440 -2.0642 -0.0430
 1011MOL0     H39497  13.382   3.763   9.146  0.4985  1.9704 -1.3821
 1011MOL0     H39498  12.763   4.561   9.255  0.6975  0.1186 -1.4612
 1011MOL0     H39499  12.587   4.640   9.380 -0.9788 -0.0515 -0.9251
 1011MOL0     H39500  12.143   4.456   9.497 -0.5075  0.1962  0.6671
 1011MOL0     H39501  11.924   4.453   9.621  2.1896 -2.1831  0.7764
 1011MOL0     H39502  11.278   5.673  10.724  1.5111 -0.7804 -0.2535
 1011MOL0     H39503  11.148   5.743  10.936  0.2624  1.8538  1.1765
 1011MOL0     H39504  11.114   6.286  11.290 -0.8897 -0.2967 -0.3705
 1011MOL0     H39505  10.924   6.350  11.442 -1.7941  0.2254  0.2330
 1011MOL0     H39506  10.667   6.011  11.529 -2.1030 -0.3126  0.6164
 1011MOL0     H39507  10.772   6.105  11.635 -2.1306  0.1085  1.7897
 1011MOL0     H39508  10.554   6.267  11.619 -2.3610 -0.3933  2.8301
 1011MOL0     H39509  10.580   6.159  11.746 -3.5625 -0.7812  0.8181
 1011MOL0     H39510  10.433   6.115  11.487  1.1709  3.3750  0.7159
 1011MOL0     H39511  10.454   5.983  11.604  1.3778  0.5309 -0.3165
 1011MOL0     H39512  10.336   6.259  11.679  0.2386 -0.9554 -2.1773
 1011MOL0     H39513  10.316   6.116  11.784  1.2546 -2.6650 -0.8072
 1011MOL0     H39514   9.970   6.108  11.569  0.6474 -0.3074 -1.9836
 1011MOL0     H39515  10.730   6.007  11.316 -1.2611  1.9965 -1.1011
 1011MOL0     H39516  10.921   5.895  11.041 -1.0368 -0.0364 -0.5577
 1011MOL0     H39517  10.853   5.818  11.176  0.3928 -1.9321 -2.3313
 1011MOL0     H39518  10.761   5.936  11.079  1.9646 -1.0215 -1.2057
 1012MOL0     O39519   2.546  11.322   6.947  0.1597 -0.3236  0.2611
 1012MOL0     C39520   2.480  11.405   7.005  0.2058  0.5255 -0.8225
 1012MOL0     O39521   2.395  11.381   7.109  0.5287 -0.2404 -0.4349
 1012MOL0     C39522   2.339  11.259   7.110 -0.3961 -0.6170 -0.3294
 1012MOL0     C39523   2.245  11.212   7.010 -0.2742 -0.2164  0.5845
 1012MOL0     C39524   2.176  11.093   7.034 -0.6303  0.9923  0.2167
 1012MOL0     C39525   2.203  11.018   7.152 -0.6744  0.0702 -0.2792
 1012MOL0     O39526   2.132  10.904   7.178 -0.3913  0.0798  0.2236
 1012MOL0     C39527   2.104  10.863   7.313  0.3136 -0.7805  0.0320
 1012MOL0     C39528   2.057  10.727   7.329 -0.7345 -0.0658  0.6136
 1012MOL0     C39529   2.149  10.625   7.265 -0.2998 -0.1684  0.8935
 1012MOL0     C39530   2.084  10.484   7.280 -0.5439 -1.0976 -0.4514
 1012MOL0     C39531   2.184  10.369   7.255  1.3697 -0.7575 -0.0167
 1012MOL0     C39532   2.287  10.354   7.374 -0.6280  0.0566  0.4886
 1012MOL0     C39533   2.370  10.229   7.350 -0.0579  0.2870  0.1723
 1012MOL0     C39534   2.315  10.109   7.435 -0.2682 -0.3954  0.8312
 1012MOL0     N39535   2.395   9.987   7.432 -1.3019  0.9718  0.5612
 1012MOL0     C39536   2.531   9.979   7.477  0.4860  0.2183  0.6475
 1012MOL0     C39537   2.547   9.844   7.509  0.6406 -0.3020 -0.0596
 1012MOL0     C39538   2.658   9.777   7.577  0.1016 -0.4537 -0.2142
 1012MOL0     C39539   2.611   9.680   7.690  0.3256 -0.0805 -0.5107
 1012MOL0     C39540   2.733   9.607   7.761  0.9963 -0.8865 -0.2525
 1012MOL0     C39541   2.692   9.552   7.899 -0.9036  0.0333 -1.4795
 1012MOL0     O39542   2.804   9.471   7.960 -0.6764  0.2796  0.5001
 1012MOL0     C39543   2.794   9.458   8.093  0.4766 -1.1627  0.2212
 1012MOL0     C39544   2.680   9.409   8.162 -0.1694  0.2765 -1.5430
 1012MOL0     C39545   2.682   9.405   8.303  0.5815  1.3608  0.6944
 1012MOL0     C39546   2.562   9.361   8.372  0.5773 -0.1474 -0.1615
 1012MOL0     C39547   2.796   9.444   8.372  0.0298  0.0774 -0.4912
 1012MOL0     C39548   2.810   9.428   8.519  0.0028 -0.7752 -0.2997
 1012MOL0     O39549   2.695   9.462   8.595 -0.2200  0.2677  0.1719
 1012MOL0     C39550   2.699   9.520   8.722  0.9026 -0.2130  0.1833
 1012MOL0     C39551   2.811   9.557   8.802 -0.1064 -0.2494  0.9414
 1012MOL0     C39552   2.803   9.619   8.928 -0.4087 -0.2286 -0.2738
 1012MOL0     C39553   2.674   9.636   8.983 -0.0937  0.5506 -0.9447
 1012MOL0     O39554   2.664   9.729   9.087  0.2438 -1.3631  0.1786
 1012MOL0     C39555   2.559   9.718   9.183  0.5344 -0.7408 -0.2547
 1012MOL0     C39556   2.586   9.812   9.295  0.1988  0.5916 -0.6718
 1012MOL0     C39557   2.484   9.775   9.413  0.3869  0.1783 -0.0524
 1012MOL0     C39558   2.484   9.887   9.520  0.1309 -0.2451 -0.6118
 1012MOL0     C39559   2.386   9.847   9.633 -0.0588 -0.9519  0.0189
 1012MOL0     C39560   2.421   9.920   9.755 -0.4863  0.1958  0.0627
 1012MOL0     C39561   2.325   9.873   9.876 -0.6489  0.5626  0.8297
 1012MOL0     C39562   2.377   9.920  10.009 -0.3478 -0.1022 -0.3839
 1012MOL0    Cl39563   2.390  10.089  10.021 -0.4443 -0.1197 -0.0482
 1012MOL0     C39564   2.565   9.586   8.916  0.7682 -0.0355 -1.9301
 1012MOL0     C39565   2.580   9.524   8.795  0.7665  1.1246  0.2255
 1012MOL0     O39566   2.919   9.392   8.568  0.1332  0.4038 -0.1014
 1012MOL0     C39567   2.910   9.477   8.297 -0.0820 -0.3580 -1.2314
 1012MOL0     C39568   2.911   9.478   8.156  1.0114 -0.3357  0.1256
 1012MOL0     N39569   2.433   9.774   7.475 -0.7893 -0.2983  0.5025
 1012MOL0     N39570   2.351   9.859   7.426 -0.5509  0.8446  0.0034
 1012MOL0     C39571   2.295  11.067   7.244  0.0983  0.2734 -0.1483
 1012MOL0     C39572   2.360  11.188   7.222  0.1158  0.6546 -0.6250
 1012MOL0     C39573   2.498  11.544   6.968 -0.5302 -0.2913 -0.3889
 1012MOL0     C39574   2.619  11.587   6.919  0.3895  0.0685  0.7231
 1012MOL0     C39575   2.641  11.711   6.858  0.0833  0.0884 -0.3960
 1012MOL0     C39576   2.540  11.800   6.845  0.6560 -0.3923  0.0713
 1012MOL0     O39577   2.578  11.920   6.794 -0.8234  0.3358 -0.1793
 1012MOL0     C39578   2.487  12.028   6.814 -0.2437 -0.0546 -0.3171
 1012MOL0     C39579   2.558  12.161   6.778 -0.5328 -0.3844  0.1276
 1012MOL0     C39580   2.458  12.269   6.724  0.1449 -0.3727 -0.5123
 1012MOL0     C39581   2.537  12.397   6.678  0.7931  0.1478  0.0706
 1012MOL0     C39582   2.444  12.518   6.673  0.4006 -0.1636  0.6646
 1012MOL0     C39583   2.379  12.628   6.680  0.4660  0.0416 -0.7096
 1012MOL0     C39584   2.414  11.762   6.891 -0.1762  0.5948 -0.1182
 1012MOL0     C39585   2.387  11.630   6.941 -0.7457  0.6654 -0.1658
 1012MOL0     C39586   2.251  11.589   6.979  0.4023  0.6816 -0.7672
 1012MOL0     H39587   2.213  11.280   6.931 -1.5629  0.4511  1.6448
 1012MOL0     H39588   2.121  11.059   6.947  1.1940  0.8280 -0.9305
 1012MOL0     H39589   2.018  10.920   7.348 -1.0477 -0.6091 -3.2879
 1012MOL0     H39590   2.191  10.858   7.379  2.5301 -1.0943 -2.7480
 1012MOL0     H39591   2.059  10.695   7.434  1.8689 -1.1843  0.3153
 1012MOL0     H39592   1.953  10.716   7.298 -1.2883  1.6037  1.7454
 1012MOL0     H39593   2.196  10.662   7.173 -2.2757  1.5502  0.4820
 1012MOL0     H39594   2.237  10.623   7.328  0.6551  0.1403 -0.3887
 1012MOL0     H39595   2.036  10.467   7.376 -1.6061  0.6005 -0.6521
 1012MOL0     H39596   2.000  10.478   7.210  1.7198  0.6439 -3.6124
 1012MOL0     H39597   2.236  10.392   7.161  2.0126 -2.8569 -0.2262
 1012MOL0     H39598   2.138  10.272   7.237  0.1804  0.0884 -1.7701
 1012MOL0     H39599   2.349  10.444   7.367 -3.5279  2.1510 -0.3682
 1012MOL0     H39600   2.240  10.351   7.473  0.4652 -0.7152  0.9919
 1012MOL0     H39601   2.472  10.233   7.388 -0.7647  1.9584  2.0863
 1012MOL0     H39602   2.374  10.203   7.243 -0.3096  1.8309 -0.2335
 1012MOL0     H39603   2.308  10.135   7.541 -2.4443 -4.9621  2.0205
 1012MOL0     H39604   2.214  10.092   7.396  1.2571 -0.0832 -3.9340
 1012MOL0     H39605   2.610  10.053   7.487 -0.3413  1.3313 -0.6007
 1012MOL0     H39606   2.718   9.864   7.604  3.1133 -2.1329 -1.0541
 1012MOL0     H39607   2.716   9.723   7.502  1.7746  1.4321 -0.3514
 1012MOL0     H39608   2.548   9.733   7.762 -2.3825 -3.3136 -0.2466
 1012MOL0     H39609   2.545   9.601   7.654  0.3068 -1.1564  1.7289
 1012MOL0     H39610   2.755   9.527   7.690  0.4290  0.7939 -2.4119
 1012MOL0     H39611   2.816   9.676   7.777 -0.0526  1.1181 -2.8081
 1012MOL0     H39612   2.669   9.641   7.959  1.4610  0.0970 -0.5822
 1012MOL0     H39613   2.603   9.488   7.887  0.6013 -2.3042 -0.8856
 1012MOL0     H39614   2.604   9.362   8.101  0.8488 -2.1033 -1.0930
 1012MOL0     H39615   2.582   9.280   8.443 -0.3231 -0.4612 -0.2466
 1012MOL0     H39616   2.493   9.324   8.296  3.1173  1.5755 -3.5757
 1012MOL0     H39617   2.519   9.453   8.415  1.0708  1.7734 -3.4433
 1012MOL0     H39618   2.910   9.552   8.759 -1.2434  1.7218 -2.2860
 1012MOL0     H39619   2.896   9.658   8.967  2.3700 -3.8325 -2.6075
 1012MOL0     H39620   2.468   9.764   9.142  0.7765  1.3946  1.4494
 1012MOL0     H39621   2.533   9.614   9.203 -0.2147 -0.8195 -1.5300
 1012MOL0     H39622   2.690   9.795   9.325 -0.6533 -1.8678  1.2839
 1012MOL0     H39623   2.566   9.913   9.260 -1.6166  0.5953  0.2552
 1012MOL0     H39624   2.493   9.676   9.458  1.5828 -0.0918 -0.8402
 1012MOL0     H39625   2.382   9.781   9.373  0.7526  1.7132 -0.8191
 1012MOL0     H39626   2.470   9.987   9.479 -2.3571  0.2914  1.2793
 1012MOL0     H39627   2.586   9.889   9.561 -0.6062  0.2037  1.3281
 1012MOL0     H39628   2.283   9.871   9.604 -1.8227 -0.8967  5.3154
 1012MOL0     H39629   2.397   9.744   9.668  1.4763 -0.8751 -0.1553
 1012MOL0     H39630   2.429  10.029   9.761  1.2524  0.1808 -1.4278
 1012MOL0     H39631   2.526   9.897   9.775  0.1956  1.5190 -1.7753
 1012MOL0     H39632   2.327   9.764   9.889  0.8039  0.0027 -2.9852
 1012MOL0     H39633   2.226   9.916   9.854 -0.0222  2.3805  1.3801
 1012MOL0     H39634   2.478   9.881  10.023  1.1812  3.3505 -0.9702
 1012MOL0     H39635   2.316   9.890  10.095  0.2589  1.6069  0.6881
 1012MOL0     H39636   2.465   9.601   8.955  0.9649  2.1098 -2.1613
 1012MOL0     H39637   2.494   9.476   8.749  1.5611  0.9929 -1.1820
 1012MOL0     H39638   3.004   9.499   8.346 -0.7700  0.0626 -0.0501
 1012MOL0     H39639   2.999   9.503   8.099  0.2999  2.2128  0.0406
 1012MOL0     H39640   2.316  11.014   7.336 -2.3511 -1.9675 -0.7518
 1012MOL0     H39641   2.411  11.234   7.306 -2.1370  0.4909  0.9110
 1012MOL0     H39642   2.702  11.516   6.924  1.3208  1.1297  0.8554
 1012MOL0     H39643   2.743  11.743   6.835  1.5097 -1.6766  2.8585
 1012MOL0     H39644   2.392  12.015   6.760 -1.7935  0.6571  2.0906
 1012MOL0     H39645   2.458  12.026   6.919 -0.2903  1.8975 -0.2434
 1012MOL0     H39646   2.630  12.138   6.699 -1.5045  2.2508 -1.7079
 1012MOL0     H39647   2.620  12.201   6.858  0.1625  2.0759 -1.5161
 1012MOL0     H39648   2.384  12.225   6.656 -0.0477  0.2701 -0.7248
 1012MOL0     H39649   2.395  12.298   6.809  1.0092 -1.1933  0.4411
 1012MOL0     H39650   2.569  12.389   6.574  1.9025 -0.1823  0.4284
 1012MOL0     H39651   2.617  12.420   6.750 -1.5085  1.5765  2.3519
 1012MOL0     H39652   2.324  12.720   6.683 -0.3882 -0.4899  1.5241
 1012MOL0     H39653   2.321  11.819   6.886 -1.5329 -1.5964 -3.2014
 1012MOL0     H39654   2.222  11.585   7.085 -2.0469  1.1669 -1.3597
 1012MOL0     H39655   2.174  11.657   6.942 -2.7216 -2.5019 -0.7078
 1012MOL0     H39656   2.218  11.502   6.921  2.2780  0.8067 -2.1237
 1013MOL0     O39657   2.402  10.280   6.934 -0.5642 -0.5936  0.5998
 1013MOL0     C39658   2.416  10.162   6.913 -0.5621  1.4184 -0.3167
 1013MOL0     O39659   2.358  10.099   6.808 -0.9274 -0.1148 -0.1199
 1013MOL0     C39660   2.321  10.170   6.698 -0.2510  1.0188 -0.8963
 1013MOL0     C39661   2.372  10.156   6.576  0.8280  0.2435  0.8682
 1013MOL0     C39662   2.322  10.221   6.460 -0.2577  0.4609  0.4664
 1013MOL0     C39663   2.212  10.297   6.477  0.1483 -0.0086  0.2499
 1013MOL0     O39664   2.176  10.392   6.381 -0.1020  0.6820  0.2285
 1013MOL0     C39665   2.034  10.402   6.355  0.9429 -0.5292  0.4489
 1013MOL0     C39666   1.998  10.403   6.204 -0.7681  0.2385 -0.3248
 1013MOL0     C39667   2.067  10.290   6.119 -0.3270 -0.1783  0.3586
 1013MOL0     C39668   2.047  10.149   6.172  0.6311 -0.4164  0.3358
 1013MOL0     C39669   2.100  10.032   6.082 -0.2299 -0.2654 -0.0202
 1013MOL0     C39670   2.155   9.917   6.154 -0.9756 -0.1881  0.1474
 1013MOL0     C39671   2.233   9.824   6.063  0.6527  0.6194  0.3189
 1013MOL0     C39672   2.339   9.889   5.973  0.4371 -0.4724  0.1073
 1013MOL0     N39673   2.449   9.951   6.048 -0.1225 -0.2115 -0.9348
 1013MOL0     C39674   2.503  10.073   6.021  0.3003  0.2996  0.0682
 1013MOL0     C39675   2.594  10.094   6.115  0.1763 -0.4062  0.1886
 1013MOL0     C39676   2.675  10.218   6.122 -1.1003 -1.6563  0.3129
 1013MOL0     C39677   2.808  10.203   6.044 -0.3078 -0.7791 -0.3865
 1013MOL0     C39678   2.802  10.191   5.895 -0.3711  0.5559 -0.3786
 1013MOL0     C39679   2.756  10.310   5.824  0.1893 -0.4861  0.6316
 1013MOL0     O39680   2.623  10.314   5.846 -1.0877  0.2406 -0.1770
 1013MOL0     C39681   2.557  10.436   5.818  0.3350  0.4623  0.4072
 1013MOL0     C39682   2.439  10.463   5.884  0.0522 -0.5723 -1.0302
 1013MOL0     C39683   2.362  10.585   5.873 -0.0485  0.6999 -0.8469
 1013MOL0     C39684   2.243  10.609   5.961  0.8429 -0.1406 -0.6789
 1013MOL0     C39685   2.412  10.680   5.789 -0.6151  0.0683 -0.3424
 1013MOL0     C39686   2.364  10.816   5.788  1.1006  1.6266 -0.1240
 1013MOL0     O39687   2.452  10.908   5.815 -0.2148 -0.3194  0.1565
 1013MOL0     C39688   2.412  11.038   5.843 -0.7039  0.0599 -0.0298
 1013MOL0     C39689   2.392  11.130   5.734  0.2626  1.3191  0.2296
 1013MOL0     C39690   2.339  11.252   5.756  1.0153  0.2676 -0.0174
 1013MOL0     C39691   2.273  11.277   5.876 -0.2465  0.4278  0.4635
 1013MOL0     O39692   2.210  11.400   5.874  1.0432 -0.7366  1.2376
 1013MOL0     C39693   2.159  11.439   6.003  1.1324  0.8562  1.1710
 1013MOL0     C39694   2.135  11.588   5.991  0.2305 -0.6720  0.5571
 1013MOL0     C39695   2.022  11.626   5.902 -0.3314  0.7412  0.6919
 1013MOL0     C39696   2.001  11.781   5.884 -0.6715  0.3602 -0.5050
 1013MOL0     C39697   1.907  11.811   5.768 -0.0933 -0.4227 -0.6758
 1013MOL0     C39698   1.770  11.744   5.762 -0.3863  0.4984  0.3077
 1013MOL0     C39699   1.682  11.777   5.633  0.0388  0.1798  0.0248
 1013MOL0     C39700   1.563  11.676   5.614 -0.5657  0.6991 -0.8362
 1013MOL0    Cl39701   1.645  11.515   5.571  0.1049 -0.3135  0.0751
 1013MOL0     C39702   2.302  11.188   5.990  0.2940 -0.4253 -0.1063
 1013MOL0     C39703   2.364  11.071   5.968 -0.0166  0.9160  0.5051
 1013MOL0     O39704   2.252  10.823   5.740  0.1198  0.0540  0.4242
 1013MOL0     C39705   2.531  10.652   5.713 -0.0706  0.4178  1.4018
 1013MOL0     C39706   2.602  10.536   5.722 -0.7590  0.7541  0.4751
 1013MOL0     N39707   2.603   9.989   6.205 -0.4341  0.0079  0.6728
 1013MOL0     N39708   2.512   9.901   6.160 -0.3992  0.3815  0.1746
 1013MOL0     C39709   2.147  10.302   6.601 -0.8841  0.3849  0.7318
 1013MOL0     C39710   2.203  10.236   6.713 -0.4888 -0.0947  0.1977
 1013MOL0     C39711   2.512  10.085   6.990  0.6816  0.4170  0.2379
 1013MOL0     C39712   2.474   9.963   7.043  0.8611  0.6482  0.1961
 1013MOL0     C39713   2.561   9.897   7.131  1.1557  0.5154 -0.6770
 1013MOL0     C39714   2.685   9.951   7.163 -1.3644 -0.3551  0.2362
 1013MOL0     O39715   2.767   9.875   7.241  0.6944  0.2032 -0.3826
 1013MOL0     C39716   2.910   9.865   7.221 -0.3795  0.8822  0.8851
 1013MOL0     C39717   2.983   9.798   7.341 -0.6483 -1.0943 -0.6485
 1013MOL0     C39718   2.977   9.887   7.470 -0.5997  0.9612  0.0394
 1013MOL0     C39719   3.040   9.800   7.576 -0.3583  0.1800 -0.5588
 1013MOL0     C39720   3.033   9.852   7.711  0.1410 -1.0193  0.4659
 1013MOL0     C39721   3.030   9.884   7.827 -0.0516 -1.0573  0.7191
 1013MOL0     C39722   2.732  10.071   7.104 -0.1397 -0.6118  0.1794
 1013MOL0     C39723   2.645  10.142   7.018 -0.0367 -0.0151  0.2656
 1013MOL0     C39724   2.681  10.283   6.986  0.3452  0.8952  0.9383
 1013MOL0     H39725   2.456  10.092   6.551  0.0714 -0.1710 -0.7558
 1013MOL0     H39726   2.365  10.208   6.361 -0.8467  4.0246 -0.4090
 1013MOL0     H39727   1.984  10.488   6.400  1.0786  1.0411 -2.2103
 1013MOL0     H39728   1.976  10.317   6.392  0.1328 -0.1710  0.0207
 1013MOL0     H39729   1.889  10.399   6.193 -1.1304 -0.1292  2.5196
 1013MOL0     H39730   2.033  10.500   6.169 -0.3731  0.0113 -0.5701
 1013MOL0     H39731   2.036  10.299   6.015  5.3239  3.2515 -1.4672
 1013MOL0     H39732   2.168  10.333   6.114 -1.5324  3.0752  1.1769
 1013MOL0     H39733   2.097  10.147   6.269 -1.6524  0.1749  1.5870
 1013MOL0     H39734   1.940  10.128   6.180  0.3985 -2.7634 -4.6589
 1013MOL0     H39735   2.176  10.077   6.018  0.8623 -1.0493  0.6842
 1013MOL0     H39736   2.025   9.993   6.012 -2.7527  0.9319  1.8384
 1013MOL0     H39737   2.210   9.973   6.230 -0.3233  0.8935 -1.0579
 1013MOL0     H39738   2.076   9.866   6.210 -1.6615 -0.6080 -1.1395
 1013MOL0     H39739   2.164   9.766   6.001  0.0427  1.4836  0.1687
 1013MOL0     H39740   2.276   9.740   6.118 -0.2323  0.1202  0.2555
 1013MOL0     H39741   2.379   9.813   5.906 -0.3312  0.5502 -1.5735
 1013MOL0     H39742   2.300   9.966   5.906  0.5637  0.4398  1.0573
 1013MOL0     H39743   2.468  10.143   5.946 -1.0425 -0.6804 -0.2426
 1013MOL0     H39744   2.706  10.239   6.224 -0.8587  0.6722 -0.1901
 1013MOL0     H39745   2.618  10.303   6.082 -0.3865 -1.1258  0.4166
 1013MOL0     H39746   2.867  10.293   6.057  0.3628 -1.3521  0.6461
 1013MOL0     H39747   2.862  10.117   6.085  2.6465  1.6466  1.2168
 1013MOL0     H39748   2.904  10.166   5.864 -0.8978 -3.1690  0.3754
 1013MOL0     H39749   2.737  10.111   5.859 -1.8134  1.7613 -0.5311
 1013MOL0     H39750   2.808  10.403   5.844  1.8050 -1.0200 -0.8036
 1013MOL0     H39751   2.770  10.285   5.718  0.4074 -2.9270  1.1660
 1013MOL0     H39752   2.406  10.394   5.961 -2.6875 -0.6910 -2.2054
 1013MOL0     H39753   2.246  10.547   6.051 -0.7758 -0.2629 -0.6744
 1013MOL0     H39754   2.146  10.583   5.918  0.0951  0.0919  0.7903
 1013MOL0     H39755   2.252  10.707   6.008 -1.1494 -1.3472  2.5643
 1013MOL0     H39756   2.425  11.102   5.634  0.9626  1.8604  0.3063
 1013MOL0     H39757   2.330  11.323   5.674  0.4876 -0.1013 -0.2848
 1013MOL0     H39758   2.059  11.395   6.015  0.1432  2.0347 -1.8133
 1013MOL0     H39759   2.229  11.407   6.081  1.8920 -2.4373 -0.6656
 1013MOL0     H39760   2.115  11.635   6.088  4.7988  1.9704  0.4935
 1013MOL0     H39761   2.228  11.634   5.958 -0.2969  0.3630  0.4780
 1013MOL0     H39762   1.937  11.577   5.951 -0.6633  0.2882 -0.2909
 1013MOL0     H39763   2.059  11.576   5.812  2.1247  0.5331  1.7510
 1013MOL0     H39764   2.098  11.831   5.872 -1.4102  2.5787  1.8814
 1013MOL0     H39765   1.971  11.818   5.982  1.1960 -0.5065  0.4492
 1013MOL0     H39766   1.884  11.918   5.774 -1.1051 -0.7100  1.4537
 1013MOL0     H39767   1.959  11.774   5.680  1.5529 -0.5884  0.3334
 1013MOL0     H39768   1.716  11.778   5.852  4.2927  0.5673  3.4335
 1013MOL0     H39769   1.790  11.638   5.776 -0.3434  0.3384 -0.9057
 1013MOL0     H39770   1.743  11.776   5.542 -1.8008  1.2150 -1.2956
 1013MOL0     H39771   1.642  11.877   5.655  1.7163  0.8951 -0.0149
 1013MOL0     H39772   1.489  11.709   5.541  1.2861  0.5671 -2.8946
 1013MOL0     H39773   1.523  11.641   5.710  3.5203 -0.9638  0.4812
 1013MOL0     H39774   2.280  11.210   6.094 -0.7616  0.7055 -0.5372
 1013MOL0     H39775   2.382  11.003   6.051  4.2635  1.2578  0.0732
 1013MOL0     H39776   2.560  10.723   5.636 -2.4176  2.0418  1.9217
 1013MOL0     H39777   2.682  10.524   5.650 -0.3808 -3.0170  1.3179
 1013MOL0     H39778   2.046  10.343   6.606 -1.2370 -0.0353 -1.6351
 1013MOL0     H39779   2.154  10.239   6.809 -1.7650  0.1173 -0.4312
 1013MOL0     H39780   2.377   9.920   7.021  1.3822 -1.4757  1.7207
 1013MOL0     H39781   2.536   9.796   7.159 -0.6874  0.7497 -1.3583
 1013MOL0     H39782   2.931   9.808   7.130 -0.3565  0.8801  0.8915
 1013MOL0     H39783   2.954   9.962   7.200  3.9062 -0.8145  0.9098
 1013MOL0     H39784   3.086   9.777   7.312  1.2819  3.2477  1.9494
 1013MOL0     H39785   2.933   9.701   7.354 -2.6416 -0.5105 -3.1976
 1013MOL0     H39786   3.038   9.979   7.465  0.1971  0.6038  2.1470
 1013MOL0     H39787   2.876   9.919   7.496 -2.7006  0.1521 -5.6158
 1013MOL0     H39788   3.143   9.777   7.549 -0.8096 -1.3168 -1.1050
 1013MOL0     H39789   2.994   9.700   7.571  2.9974 -1.4721 -1.4181
 1013MOL0     H39790   3.034   9.905   7.932 -1.4582  2.1728  0.2640
 1013MOL0     H39791   2.826  10.119   7.129  1.1185 -1.7300 -2.1335
 1013MOL0     H39792   2.643  10.309   6.887  2.1258 -0.8425 -0.2895
 1013MOL0     H39793   2.641  10.351   7.062  0.5458 -0.1670  2.0277
 1013MOL0     H39794   2.789  10.299   6.991  0.8194 -1.5426  0.1407
 1014MOL0     O39795   1.678   1.820  10.514  0.0788 -0.1466 -0.0194
 1014MOL0     C39796   1.587   1.737  10.529 -0.0551 -0.0501 -1.4924
 1014MOL0     O39797   1.523   1.669  10.430 -0.1839  0.7678 -0.2329
 1014MOL0     C39798   1.467   1.730  10.319 -0.4730  0.0002  0.1022
 1014MOL0     C39799   1.443   1.870  10.315 -0.0183  0.7466  0.2150
 1014MOL0     C39800   1.407   1.927  10.198 -0.1892  0.0078 -0.0755
 1014MOL0     C39801   1.382   1.851  10.077  0.4262  0.2274 -0.1506
 1014MOL0     O39802   1.345   1.900   9.956  0.0898 -0.7570  0.4887
 1014MOL0     C39803   1.400   2.027   9.919  0.4410 -0.6506 -0.2146
 1014MOL0     C39804   1.348   2.068   9.782  0.3604 -0.3694 -0.2051
 1014MOL0     C39805   1.203   2.107   9.765  0.8620 -0.0081  0.4048
 1014MOL0     C39806   1.162   2.135   9.612 -0.8607  0.1853 -0.0625
 1014MOL0     C39807   1.096   2.004   9.550 -0.2625 -0.2134 -0.1829
 1014MOL0     C39808   1.084   2.000   9.400 -0.8636  0.2709  1.0721
 1014MOL0     C39809   0.941   1.970   9.353  0.2873 -0.5531  0.5571
 1014MOL0     C39810   0.859   1.849   9.400  1.2260  0.3184  0.1302
 1014MOL0     N39811   0.733   1.876   9.475 -0.1810 -0.0746  0.3049
 1014MOL0     C39812   0.614   1.907   9.412 -0.4381  0.0170 -0.1262
 1014MOL0     C39813   0.533   1.950   9.512 -0.5797  0.1563 -0.4791
 1014MOL0     C39814   0.398   2.017   9.487 -0.5367 -1.1957  1.0599
 1014MOL0     C39815   0.284   1.927   9.531 -0.0854 -0.5928  0.3850
 1014MOL0     C39816   0.227   1.829   9.438  0.3411 -0.7596  0.3977
 1014MOL0     C39817   0.236   1.692   9.486  0.7633 -1.0645 -0.1948
 1014MOL0     O39818   0.129   1.674   9.590  0.6710 -0.0407  0.6478
 1014MOL0     C39819   0.149   1.570   9.668  0.4395 -0.5797 -0.1300
 1014MOL0     C39820   0.188   1.444   9.623  0.6735 -0.3119 -0.1831
 1014MOL0     C39821   0.199   1.341   9.709  0.4262 -0.2033 -0.1314
 1014MOL0     C39822   0.274   1.221   9.671 -0.4482 -0.0953  0.6991
 1014MOL0     C39823   0.150   1.356   9.842 -0.5818  0.3476  0.4274
 1014MOL0     C39824   0.154   1.235   9.945 -0.2516 -1.5632  0.4046
 1014MOL0     O39825   0.176   1.277  10.070  0.8901 -0.9028 -0.0084
 1014MOL0     C39826   0.157   1.186  10.173  0.6228  1.4886 -0.4427
 1014MOL0     C39827   0.033   1.116  10.188  0.8578 -0.3622  0.0372
 1014MOL0     C39828   0.020   1.025  10.301  0.6147  0.4048  0.0854
 1014MOL0     C39829   0.122   1.008  10.386  0.4876 -0.5057  0.0465
 1014MOL0     O39830   0.101   0.945  10.500 -0.3870  0.8374  0.2460
 1014MOL0     C39831  -0.017   0.864  10.528 -0.3220 -0.7869  0.1639
 1014MOL0     C39832   0.023   0.799  10.659  0.4206 -1.0638 -0.3430
 1014MOL0     C39833   0.083   0.673  10.615  0.7140  1.5050  0.1481
 1014MOL0     C39834   0.125   0.587  10.742  0.5032  0.1895  0.4812
 1014MOL0     C39835   0.166   0.438  10.706 -0.2034 -0.0522  0.2672
 1014MOL0     C39836   0.097   0.352  10.820  0.7969 -0.8702  0.3052
 1014MOL0     C39837   0.122   0.201  10.806  0.7938  1.1878 -0.7217
 1014MOL0     C39838   0.100   0.130  10.669  0.4966  0.5853 -0.6277
 1014MOL0    Cl39839   0.082  -0.048  10.704  0.0362 -0.4671 -0.3406
 1014MOL0     C39840   0.247   1.074  10.369 -0.3278  0.8102 -0.3624
 1014MOL0     C39841   0.258   1.165  10.266  1.2322 -0.0607 -1.3340
 1014MOL0     O39842   0.138   1.123   9.912 -0.0724  1.0854  0.5589
 1014MOL0     C39843   0.093   1.478   9.881 -0.7213  1.5090  0.1025
 1014MOL0     C39844   0.094   1.583   9.796 -0.5522  0.1666  0.7106
 1014MOL0     N39845   0.596   1.935   9.634  0.8423  0.3626  0.2255
 1014MOL0     N39846   0.714   1.874   9.609  0.0525  0.0918 -0.9446
 1014MOL0     C39847   1.402   1.711  10.091 -0.2201 -0.1846  0.1076
 1014MOL0     C39848   1.445   1.647  10.211 -0.8705  0.0277 -0.2234
 1014MOL0     C39849   1.568   1.680  10.666 -0.6032 -0.1479  0.2256
 1014MOL0     C39850   1.644   1.579  10.702  0.2269 -0.3272  0.8115
 1014MOL0     C39851   1.635   1.528  10.831  0.4360  1.4594 -0.4260
 1014MOL0     C39852   1.551   1.576  10.929  0.1113  1.0265 -0.2195
 1014MOL0     O39853   1.538   1.502  11.043 -0.0190  0.7094 -0.9566
 1014MOL0     C39854   1.418   1.527  11.120 -0.1869  0.1782 -0.4028
 1014MOL0     C39855   1.453   1.479  11.262 -0.5978  0.2014  0.4038
 1014MOL0     C39856   1.527   1.569  11.350 -0.6859 -0.1904  0.0287
 1014MOL0     C39857   1.455   1.702  11.382  0.4876 -1.1129  0.2117
 1014MOL0     C39858   1.521   1.773  11.495  0.1687  0.1506  0.3285
 1014MOL0     C39859   1.582   1.842  11.572 -0.3436  0.7799 -0.4032
 1014MOL0     C39860   1.478   1.687  10.892 -0.4106  0.9009 -0.6222
 1014MOL0     C39861   1.486   1.736  10.763  0.1773  0.1099  0.3497
 1014MOL0     C39862   1.413   1.868  10.737 -0.0231  0.1798  0.2180
 1014MOL0     H39863   1.456   1.924  10.408  0.5745 -2.9014  2.4407
 1014MOL0     H39864   1.388   2.034  10.199 -1.1343 -0.1503  0.3315
 1014MOL0     H39865   1.507   2.014   9.905  0.5541 -0.7426  0.6588
 1014MOL0     H39866   1.387   2.101   9.999  1.3520  2.2257 -2.5787
 1014MOL0     H39867   1.398   2.161   9.753  3.1112 -1.1202  1.7798
 1014MOL0     H39868   1.379   2.000   9.702 -0.1113 -0.0844 -0.6353
 1014MOL0     H39869   1.145   2.024   9.808  1.3358 -2.2495 -2.9240
 1014MOL0     H39870   1.178   2.199   9.818 -1.3580 -1.0014  1.2512
 1014MOL0     H39871   1.091   2.218   9.615 -0.5520  0.4594  2.7487
 1014MOL0     H39872   1.246   2.162   9.547 -0.3229 -1.2932 -0.0249
 1014MOL0     H39873   0.994   2.000   9.590 -0.2761  0.6220 -0.1050
 1014MOL0     H39874   1.152   1.920   9.590 -1.3210  0.3777  2.8337
 1014MOL0     H39875   1.123   2.093   9.358  0.5660 -0.0190  1.6958
 1014MOL0     H39876   1.138   1.918   9.351 -1.8569  0.7024 -0.8511
 1014MOL0     H39877   0.958   1.972   9.245 -0.9002  0.1973  0.3659
 1014MOL0     H39878   0.871   2.052   9.374 -1.6416 -1.3081 -2.3761
 1014MOL0     H39879   0.830   1.789   9.313 -3.5789  1.3380  0.7532
 1014MOL0     H39880   0.934   1.784   9.446  0.7600  0.2802  0.8577
 1014MOL0     H39881   0.613   1.925   9.305  2.2546  2.4355  0.1087
 1014MOL0     H39882   0.382   2.050   9.384  1.6473 -0.3900  0.9334
 1014MOL0     H39883   0.396   2.103   9.554 -0.4231  2.2692 -2.9092
 1014MOL0     H39884   0.329   1.877   9.617  2.5781 -0.4322 -0.8245
 1014MOL0     H39885   0.201   1.988   9.567 -0.8520  0.1620 -2.4367
 1014MOL0     H39886   0.126   1.844   9.400 -0.0696  1.9859  2.3167
 1014MOL0     H39887   0.298   1.821   9.356  1.3954 -0.7606  1.2834
 1014MOL0     H39888   0.231   1.630   9.396 -0.9279 -0.1271 -0.7756
 1014MOL0     H39889   0.338   1.669   9.518 -0.2736 -3.8430  1.4760
 1014MOL0     H39890   0.204   1.435   9.516 -2.0342  1.0450 -0.7983
 1014MOL0     H39891   0.359   1.200   9.738 -0.8852  0.6461  1.5048
 1014MOL0     H39892   0.318   1.243   9.574  0.0454 -0.1614  0.9028
 1014MOL0     H39893   0.210   1.134   9.685 -1.8659  0.3764 -2.2650
 1014MOL0     H39894  -0.040   1.124  10.109  1.5218 -1.3578 -0.7021
 1014MOL0     H39895  -0.073   0.973  10.322  2.5830 -3.5854 -0.0137
 1014MOL0     H39896  -0.099   0.930  10.561  2.5157  2.0192  2.2056
 1014MOL0     H39897  -0.046   0.791  10.452 -0.3838 -0.1421 -0.4377
 1014MOL0     H39898   0.081   0.878  10.708 -2.0462  0.8604 -0.2544
 1014MOL0     H39899  -0.072   0.778  10.710 -0.1740  0.7439 -0.6055
 1014MOL0     H39900   0.172   0.675  10.551  1.8360  3.8545  1.6291
 1014MOL0     H39901   0.000   0.616  10.571  1.9723 -1.3366  1.1573
 1014MOL0     H39902   0.041   0.587  10.812  0.6361  0.6402  0.6456
 1014MOL0     H39903   0.211   0.627  10.796  0.7640 -0.1032  0.2866
 1014MOL0     H39904   0.124   0.407  10.610 -0.1656  1.2453 -0.1912
 1014MOL0     H39905   0.275   0.428  10.697 -0.2860 -0.8212  0.0280
 1014MOL0     H39906  -0.011   0.367  10.826  1.1552  1.6325  2.4061
 1014MOL0     H39907   0.134   0.380  10.919  0.3387 -2.4458  0.9532
 1014MOL0     H39908   0.046   0.163  10.875 -0.6932  0.5494 -2.6368
 1014MOL0     H39909   0.220   0.163  10.836 -1.7652 -6.1772  0.5994
 1014MOL0     H39910   0.187   0.151  10.606  0.1389  2.6201 -0.4960
 1014MOL0     H39911   0.014   0.182  10.628  0.0192 -1.1264 -1.9355
 1014MOL0     H39912   0.317   1.035  10.441  0.9722  0.4791 -1.7413
 1014MOL0     H39913   0.340   1.234  10.252  0.5935  0.8711 -0.6620
 1014MOL0     H39914   0.053   1.500   9.980 -3.1705  1.6596 -0.8494
 1014MOL0     H39915   0.060   1.684   9.815 -3.1530 -0.0814 -1.8460
 1014MOL0     H39916   1.384   1.653  10.001 -0.5816 -0.3327  0.2716
 1014MOL0     H39917   1.470   1.542  10.224 -0.4041  0.2677  0.9461
 1014MOL0     H39918   1.729   1.551  10.642 -1.4607 -2.7977 -0.5978
 1014MOL0     H39919   1.698   1.446  10.863  0.7002  1.3379 -1.2295
 1014MOL0     H39920   1.377   1.628  11.124  0.3855  0.3751  0.6781
 1014MOL0     H39921   1.346   1.454  11.081  1.1072 -2.7863  2.2474
 1014MOL0     H39922   1.514   1.389  11.250 -0.2450  0.6541 -1.7480
 1014MOL0     H39923   1.370   1.444  11.323 -0.0582 -0.6215  0.6796
 1014MOL0     H39924   1.555   1.511  11.438 -1.7005 -0.9622 -0.1360
 1014MOL0     H39925   1.617   1.603  11.298 -1.2366 -0.8732 -1.4284
 1014MOL0     H39926   1.358   1.667  11.419  0.8780  0.8446  3.4468
 1014MOL0     H39927   1.453   1.760  11.289  3.7349 -1.1653  0.0038
 1014MOL0     H39928   1.634   1.923  11.619 -1.3396  0.9326  0.4662
 1014MOL0     H39929   1.412   1.735  10.963  1.6163  0.2521  1.8645
 1014MOL0     H39930   1.387   1.870  10.631 -3.7935  1.3779  1.0081
 1014MOL0     H39931   1.317   1.868  10.790 -0.8769  0.5907 -1.2542
 1014MOL0     H39932   1.477   1.953  10.763  0.0177  1.1757 -2.7287
 1015MOL0     O39933   8.103   6.098  11.516 -0.8576  0.1055  0.6275
 1015MOL0     C39934   8.167   6.041  11.422 -1.0738 -0.5422  0.1702
 1015MOL0     O39935   8.214   6.114  11.311  0.0796  0.3083  0.0143
 1015MOL0     C39936   8.160   6.236  11.292 -0.3445 -0.7690  0.5009
 1015MOL0     C39937   8.067   6.264  11.190 -0.4667 -0.6759  0.4638
 1015MOL0     C39938   8.036   6.398  11.160  0.1495 -0.3955  0.2965
 1015MOL0     C39939   8.070   6.505  11.241  0.7322 -0.4335 -0.6301
 1015MOL0     O39940   8.039   6.636  11.222  0.0430  0.0548 -0.2844
 1015MOL0     C39941   7.904   6.661  11.200  0.0038  0.4012 -0.5420
 1015MOL0     C39942   7.853   6.752  11.314  0.4093 -0.3498  0.1171
 1015MOL0     C39943   7.815   6.660  11.435  1.2666  0.7735 -0.4031
 1015MOL0     C39944   7.759   6.733  11.552 -0.4472  0.1195  0.1531
 1015MOL0     C39945   7.696   6.635  11.655 -0.5277 -0.4792 -0.3325
 1015MOL0     C39946   7.693   6.718  11.793 -0.3210  0.0053  0.5104
 1015MOL0     C39947   7.613   6.673  11.906 -1.1310  0.4744  0.1493
 1015MOL0     C39948   7.465   6.672  11.878  0.3522 -0.5986 -0.6099
 1015MOL0     N39949   7.415   6.818  11.864 -0.0543  0.4660 -0.5741
 1015MOL0     C39950   7.419   6.909  11.967 -0.4984  0.6568 -1.1259
 1015MOL0     C39951   7.319   6.996  11.931  0.1859 -0.9382  0.3698
 1015MOL0     C39952   7.267   7.128  11.996  0.2584  0.4965 -0.1695
 1015MOL0     C39953   7.263   7.246  11.893  0.1647  0.0619  0.4148
 1015MOL0     C39954   7.237   7.379  11.967 -0.2225 -0.8691  0.4787
 1015MOL0     C39955   7.275   7.499  11.872  0.1484 -0.6047 -0.4745
 1015MOL0     O39956   7.419   7.523  11.869  0.1458  0.5566  0.1918
 1015MOL0     C39957   7.472   7.609  11.966  0.9482 -0.2494 -0.0435
 1015MOL0     C39958   7.599   7.657  11.935  0.4012 -0.0072  0.5470
 1015MOL0     C39959   7.659   7.750  12.015  0.5876 -0.3259  0.4419
 1015MOL0     C39960   7.778   7.821  11.948  0.2380 -0.0759  0.4410
 1015MOL0     C39961   7.595   7.782  12.137 -0.3069  0.8066  0.1531
 1015MOL0     C39962   7.644   7.884  12.238 -0.3636 -0.1389  0.0221
 1015MOL0     O39963   7.557   7.908  12.342 -0.0621  0.1349  0.3866
 1015MOL0     C39964   7.586   8.016  12.420  0.4125  0.3136  1.2017
 1015MOL0     C39965   7.547   7.999  12.552  0.1447 -0.3697 -0.5374
 1015MOL0     C39966   7.566   8.106  12.643  0.3541 -0.3501 -0.0760
 1015MOL0     C39967   7.621   8.224  12.600  0.2271  0.1831 -0.0885
 1015MOL0     O39968   7.627   8.331  12.683  0.2763  0.2851 -1.1294
 1015MOL0     C39969   7.504   8.369  12.746 -0.6617 -0.2495 -0.9427
 1015MOL0     C39970   7.540   8.473  12.855 -0.0192  1.0594  0.1436
 1015MOL0     C39971   7.417   8.525  12.929 -0.5382  0.4004  0.6355
 1015MOL0     C39972   7.466   8.620  13.036 -1.2157 -0.9212  0.1051
 1015MOL0     C39973   7.344   8.702  13.092  0.9675 -1.1203  1.1998
 1015MOL0     C39974   7.240   8.624  13.182  0.1272  0.6522 -0.7386
 1015MOL0     C39975   7.116   8.710  13.232 -1.0092 -0.6672  0.0011
 1015MOL0     C39976   7.031   8.646  13.334 -0.3840  1.0959  0.0511
 1015MOL0    Cl39977   6.937   8.526  13.251  0.4293  0.3365  0.0619
 1015MOL0     C39978   7.644   8.246  12.469  0.0037 -0.5765 -0.2273
 1015MOL0     C39979   7.625   8.141  12.378 -0.3200 -0.1251  0.5788
 1015MOL0     O39980   7.759   7.936  12.222  0.2271  0.3569 -0.0137
 1015MOL0     C39981   7.476   7.721  12.170  0.2913  0.5164 -1.0320
 1015MOL0     C39982   7.404   7.643  12.084 -0.0104 -0.3925  0.0162
 1015MOL0     N39983   7.265   6.958  11.808  0.2737 -0.6511 -0.2036
 1015MOL0     N39984   7.320   6.846  11.772 -0.4095 -0.6114  0.8805
 1015MOL0     C39985   8.162   6.469  11.331 -0.2627 -0.8968  0.1180
 1015MOL0     C39986   8.198   6.341  11.369 -0.5890  0.7744 -0.3885
 1015MOL0     C39987   8.179   5.899  11.420 -0.3779 -0.4342  0.1889
 1015MOL0     C39988   8.172   5.830  11.298  0.3241  0.6478 -0.4933
 1015MOL0     C39989   8.186   5.691  11.290  0.5920 -0.5136 -0.4297
 1015MOL0     C39990   8.193   5.621  11.411 -0.0559  0.4035  0.1712
 1015MOL0     O39991   8.205   5.489  11.393 -0.5301 -0.2805  0.5152
 1015MOL0     C39992   8.130   5.402  11.477  0.2546  0.9385 -0.2142
 1015MOL0     C39993   7.992   5.375  11.413 -0.1111  0.7742  0.1017
 1015MOL0     C39994   7.929   5.236  11.468  0.2388 -0.6338 -0.3296
 1015MOL0     C39995   7.934   5.194  11.613  0.7401 -0.0201 -0.6095
 1015MOL0     C39996   7.855   5.303  11.683  0.4964 -0.4032 -0.8555
 1015MOL0     C39997   7.789   5.376  11.749 -0.0331 -1.0359  0.3969
 1015MOL0     C39998   8.209   5.689  11.530 -0.0775  0.2877 -0.0180
 1015MOL0     C39999   8.201   5.828  11.540  0.1968 -0.0319  0.7356
 1015MOL0     C40000   8.202   5.888  11.676 -0.3805  0.0971 -0.2296
 1015MOL0     H40001   8.036   6.185  11.122 -1.0947 -0.8184  0.9024
 1015MOL0     H40002   7.990   6.438  11.069  0.2031  1.2091  0.9376
 1015MOL0     H40003   7.840   6.573  11.198  0.0259  0.3712  0.1312
 1015MOL0     H40004   7.895   6.728  11.113 -2.0317 -0.4166 -1.0126
 1015MOL0     H40005   7.925   6.820  11.360 -1.5663  1.1551  1.0926
 1015MOL0     H40006   7.766   6.805  11.275  0.8205 -1.9130 -3.3463
 1015MOL0     H40007   7.742   6.589  11.394  0.7572  1.8642 -1.4113
 1015MOL0     H40008   7.904   6.605  11.467  0.7775  0.4327  0.4167
 1015MOL0     H40009   7.848   6.783  11.591  0.1755  0.5614 -1.7516
 1015MOL0     H40010   7.688   6.812  11.525  0.7560  0.9943 -0.5032
 1015MOL0     H40011   7.755   6.544  11.668  1.8703  0.7257 -2.0452
 1015MOL0     H40012   7.597   6.611  11.615  0.0029  1.5548 -3.1585
 1015MOL0     H40013   7.794   6.737  11.830  0.6951 -1.2491 -1.4283
 1015MOL0     H40014   7.653   6.818  11.773  2.9212  0.9790 -1.9575
 1015MOL0     H40015   7.631   6.738  11.993  1.4837  2.1662 -1.5163
 1015MOL0     H40016   7.653   6.574  11.931 -2.2850 -0.2315 -0.6934
 1015MOL0     H40017   7.454   6.619  11.782  2.8642  1.6888 -2.3065
 1015MOL0     H40018   7.407   6.619  11.954  1.2642  1.5195  1.6686
 1015MOL0     H40019   7.481   6.908  12.055 -1.4789  0.9078 -0.4169
 1015MOL0     H40020   7.323   7.139  12.089 -0.5811 -3.1219  0.9273
 1015MOL0     H40021   7.164   7.112  12.028  0.5295 -2.2413 -0.4394
 1015MOL0     H40022   7.363   7.248  11.848 -0.5717 -2.3575 -1.5383
 1015MOL0     H40023   7.184   7.231  11.820 -0.3903  2.6445  0.4103
 1015MOL0     H40024   7.129   7.381  11.984 -0.6049  1.9864 -1.6063
 1015MOL0     H40025   7.283   7.382  12.067 -0.7445 -0.7362  0.7136
 1015MOL0     H40026   7.244   7.467  11.771  1.4140 -2.5459 -0.2982
 1015MOL0     H40027   7.216   7.589  11.895  4.0168  2.0890 -0.2100
 1015MOL0     H40028   7.650   7.637  11.841  1.1992  1.6039  0.6109
 1015MOL0     H40029   7.759   7.848  11.843 -0.5426  2.8971  1.2629
 1015MOL0     H40030   7.872   7.766  11.953 -0.9878 -2.5789 -1.3471
 1015MOL0     H40031   7.796   7.919  11.993  0.3332  1.3436 -2.4197
 1015MOL0     H40032   7.502   7.913  12.599 -0.4032  0.6888  0.9411
 1015MOL0     H40033   7.539   8.099  12.748  2.5264  0.7791  0.6317
 1015MOL0     H40034   7.429   8.410  12.678  0.8940 -0.5700 -2.9673
 1015MOL0     H40035   7.459   8.288  12.804 -1.0338  0.4314 -0.2478
 1015MOL0     H40036   7.610   8.428  12.925  0.9684  1.1650 -0.7472
 1015MOL0     H40037   7.607   8.558  12.835  1.5154  0.3335  1.9552
 1015MOL0     H40038   7.375   8.437  12.980 -2.6175 -0.8805 -2.9634
 1015MOL0     H40039   7.344   8.572  12.864  1.7456  0.6966 -1.8881
 1015MOL0     H40040   7.543   8.688  12.998 -1.1702  0.2174  2.0953
 1015MOL0     H40041   7.518   8.574  13.120 -0.3334 -0.3345 -0.1164
 1015MOL0     H40042   7.377   8.786  13.153  0.5964  1.5363 -1.9503
 1015MOL0     H40043   7.296   8.754  13.009  2.6252 -0.0568  0.8622
 1015MOL0     H40044   7.289   8.585  13.271 -2.9107 -2.2746 -0.1398
 1015MOL0     H40045   7.208   8.531  13.135 -0.5290 -1.5902  3.5907
 1015MOL0     H40046   7.058   8.735  13.143 -0.6540 -2.0016 -0.6308
 1015MOL0     H40047   7.151   8.803  13.280  0.2889 -0.0085 -2.0849
 1015MOL0     H40048   6.973   8.711  13.402  0.6555  0.3854  1.6825
 1015MOL0     H40049   7.100   8.584  13.391 -0.4058  0.5933 -0.4704
 1015MOL0     H40050   7.654   8.347  12.432 -2.9274  0.1381  0.6259
 1015MOL0     H40051   7.631   8.172  12.274 -0.8479 -0.8346  0.3291
 1015MOL0     H40052   7.445   7.710  12.273  0.5704 -1.9149 -1.1481
 1015MOL0     H40053   7.310   7.595  12.107 -0.7648  1.9087  2.1936
 1015MOL0     H40054   8.206   6.561  11.369 -2.8870  1.0791 -1.2546
 1015MOL0     H40055   8.278   6.323  11.440  2.4498  1.0992 -3.4529
 1015MOL0     H40056   8.147   5.883  11.207 -0.1531  4.0600  1.4377
 1015MOL0     H40057   8.202   5.644  11.193  1.2653 -1.0348 -0.0774
 1015MOL0     H40058   8.183   5.307  11.485  0.0025  0.8682  0.8816
 1015MOL0     H40059   8.125   5.431  11.583 -0.0182 -1.1643  0.4060
 1015MOL0     H40060   7.997   5.367  11.304 -3.8321  3.2432 -0.4664
 1015MOL0     H40061   7.925   5.459  11.435 -1.3123 -0.1870  0.2415
 1015MOL0     H40062   7.826   5.242  11.431  1.0122 -2.4149 -3.0823
 1015MOL0     H40063   7.986   5.155  11.421  1.7066  0.9637 -1.4655
 1015MOL0     H40064   8.038   5.185  11.648 -0.0546 -0.4604  1.8045
 1015MOL0     H40065   7.888   5.096  11.629  1.0664  0.1703  1.8167
 1015MOL0     H40066   7.737   5.437  11.819  1.4631  0.6975  0.1013
 1015MOL0     H40067   8.219   5.632  11.622 -2.6269 -0.1325  0.0861
 1015MOL0     H40068   8.103   5.880  11.721 -1.1392  3.3776 -0.9898
 1015MOL0     H40069   8.262   5.824  11.741 -1.0102 -0.5751 -0.3018
 1015MOL0     H40070   8.241   5.990  11.691  2.8062 -1.1415  0.8122
 1016MOL0     O40071   4.857   0.774   4.754 -0.3022 -1.1159  0.0046
 1016MOL0     C40072   4.848   0.897   4.775  0.5537 -0.7243  0.0344
 1016MOL0     O40073   4.832   0.957   4.897  0.1912 -1.0982  0.6612
 1016MOL0     C40074   4.893   0.907   5.004 -0.1127 -0.0034 -0.4004
 1016MOL0     C40075   4.849   0.800   5.073  0.2389 -0.2749  0.6572
 1016MOL0     C40076   4.910   0.764   5.194 -0.0323  0.2261  0.2678
 1016MOL0     C40077   5.025   0.825   5.238  0.0164  0.0799  0.4171
 1016MOL0     O40078   5.078   0.783   5.362 -0.0193 -0.6986  0.3548
 1016MOL0     C40079   5.079   0.642   5.395 -0.3523 -0.2052  0.1289
 1016MOL0     C40080   5.163   0.557   5.305 -0.7618 -0.5504  0.1629
 1016MOL0     C40081   5.318   0.559   5.318 -0.1587 -0.8663 -0.1097
 1016MOL0     C40082   5.377   0.493   5.444  1.0756 -1.5158  0.0870
 1016MOL0     C40083   5.527   0.486   5.453 -0.2024  0.1351  0.7083
 1016MOL0     C40084   5.582   0.629   5.462  0.7700 -0.4965  0.2374
 1016MOL0     C40085   5.739   0.630   5.459 -0.2269  0.4538  0.2303
 1016MOL0     C40086   5.788   0.565   5.332 -0.1266 -0.4670  1.0410
 1016MOL0     N40087   5.871   0.655   5.250 -0.0414 -0.0207  0.6621
 1016MOL0     C40088   5.833   0.760   5.171 -0.1078  0.4870 -0.6331
 1016MOL0     C40089   5.945   0.817   5.131  0.1299 -0.0667  0.7051
 1016MOL0     C40090   5.947   0.939   5.049  0.8273  0.1598 -0.3323
 1016MOL0     C40091   5.873   0.946   4.912 -0.6527  0.9351  0.0306
 1016MOL0     C40092   5.923   1.040   4.807 -0.4419 -0.2667  0.3614
 1016MOL0     C40093   5.832   1.056   4.677 -1.1478 -0.1748 -0.5823
 1016MOL0     O40094   5.852   1.182   4.617  0.2828 -0.0454  0.5083
 1016MOL0     C40095   5.811   1.225   4.492  0.4962 -0.0804 -0.1191
 1016MOL0     C40096   5.848   1.346   4.445  0.0791 -0.7214 -0.4038
 1016MOL0     C40097   5.783   1.395   4.330 -0.6788 -0.0568 -0.5986
 1016MOL0     C40098   5.808   1.546   4.305  0.3028  0.2817  0.2769
 1016MOL0     C40099   5.702   1.314   4.254  0.6349 -0.0612  0.7623
 1016MOL0     C40100   5.648   1.362   4.118 -0.4155 -0.0924 -0.8747
 1016MOL0     O40101   5.726   1.448   4.041 -0.3534 -0.1626  0.2165
 1016MOL0     C40102   5.667   1.513   3.934 -0.7612 -0.7766  0.4160
 1016MOL0     C40103   5.655   1.648   3.941  1.0110 -0.3055  0.0520
 1016MOL0     C40104   5.574   1.714   3.850 -0.3602 -1.2812  0.4570
 1016MOL0     C40105   5.509   1.652   3.742 -0.5139 -0.2509  0.8325
 1016MOL0     O40106   5.432   1.727   3.653 -0.2296  0.6744 -0.6144
 1016MOL0     C40107   5.298   1.733   3.688 -0.5767  0.6088 -0.6098
 1016MOL0     C40108   5.214   1.737   3.551  0.9452  0.5934  0.4937
 1016MOL0     C40109   5.177   1.598   3.487  0.4454  0.6897  0.4311
 1016MOL0     C40110   5.162   1.612   3.326 -0.0111  0.0885 -0.0613
 1016MOL0     C40111   5.024   1.553   3.280 -0.2059 -0.0293  0.6903
 1016MOL0     C40112   5.032   1.514   3.128  0.9419 -0.2853 -0.4702
 1016MOL0     C40113   4.893   1.489   3.064  0.1967 -0.3848  0.5485
 1016MOL0     C40114   4.854   1.348   3.062  0.0861 -0.1524 -0.7412
 1016MOL0    Cl40115   4.780   1.306   3.220 -0.2555  0.2116 -0.3961
 1016MOL0     C40116   5.523   1.514   3.725 -0.2149 -1.2885 -0.4806
 1016MOL0     C40117   5.607   1.452   3.821  0.3832  0.6623  0.8283
 1016MOL0     O40118   5.534   1.324   4.094 -0.5918 -0.2671 -0.5160
 1016MOL0     C40119   5.678   1.175   4.294  0.2694 -0.9225  0.7318
 1016MOL0     C40120   5.734   1.139   4.415  0.2280 -0.3160 -1.9535
 1016MOL0     N40121   6.055   0.739   5.155  0.2083  0.1293  0.4922
 1016MOL0     N40122   6.008   0.641   5.238 -0.1890  0.1361  1.0984
 1016MOL0     C40123   5.074   0.932   5.167 -0.9280 -0.1017 -0.4316
 1016MOL0     C40124   5.014   0.969   5.039  0.5029  0.1060  0.3428
 1016MOL0     C40125   4.827   0.970   4.651 -0.1619  0.2283  0.0821
 1016MOL0     C40126   4.742   0.917   4.547  0.1938 -0.2675  0.4551
 1016MOL0     C40127   4.704   0.982   4.432 -0.3582 -0.2833 -0.2086
 1016MOL0     C40128   4.754   1.108   4.398  0.9637 -0.2692 -0.7092
 1016MOL0     O40129   4.704   1.175   4.290  0.0738  0.6415 -0.1894
 1016MOL0     C40130   4.645   1.296   4.340  1.1171  0.4819 -0.2944
 1016MOL0     C40131   4.501   1.264   4.396  1.1105  0.0323  0.0652
 1016MOL0     C40132   4.388   1.254   4.288  0.4937  0.4306 -1.4120
 1016MOL0     C40133   4.409   1.147   4.179  0.5407 -0.0011  0.6871
 1016MOL0     C40134   4.472   1.206   4.063  0.6052  1.0881 -0.0301
 1016MOL0     C40135   4.534   1.243   3.966  0.4406 -0.3813  0.7291
 1016MOL0     C40136   4.840   1.157   4.496 -0.2683 -0.1641 -0.2894
 1016MOL0     C40137   4.881   1.094   4.610 -1.2248  0.5029 -0.0488
 1016MOL0     C40138   4.980   1.163   4.701 -0.2278  0.5042  0.1021
 1016MOL0     H40139   4.761   0.749   5.036 -1.1017  2.4282 -0.1787
 1016MOL0     H40140   4.859   0.692   5.257 -0.1928  1.8252  2.0652
 1016MOL0     H40141   4.978   0.605   5.414 -0.4575  0.5488  1.1477
 1016MOL0     H40142   5.123   0.647   5.495 -4.7711  1.4360  2.2655
 1016MOL0     H40143   5.122   0.457   5.323  0.2595 -0.3553  5.0850
 1016MOL0     H40144   5.146   0.585   5.201 -0.5189 -0.1074  0.2386
 1016MOL0     H40145   5.361   0.501   5.236  0.4528 -0.7731  0.1444
 1016MOL0     H40146   5.344   0.665   5.318  0.6680 -0.9997  2.6447
 1016MOL0     H40147   5.353   0.554   5.531  1.5830 -3.6003  1.7763
 1016MOL0     H40148   5.338   0.391   5.446 -1.5392 -0.5938  3.1596
 1016MOL0     H40149   5.572   0.429   5.371  2.1659  1.6630  0.8500
 1016MOL0     H40150   5.558   0.422   5.536 -2.9866 -2.6795 -0.2510
 1016MOL0     H40151   5.546   0.692   5.380 -0.4061 -0.3035  0.8696
 1016MOL0     H40152   5.564   0.692   5.550  1.6835 -0.3458  0.3231
 1016MOL0     H40153   5.775   0.573   5.545 -0.2379 -3.3500 -2.0583
 1016MOL0     H40154   5.776   0.733   5.459  0.9243  0.0792 -1.2055
 1016MOL0     H40155   5.811   0.462   5.361 -2.7323 -0.5068  3.3252
 1016MOL0     H40156   5.705   0.537   5.267  0.6104 -2.9892  1.0438
 1016MOL0     H40157   5.730   0.793   5.177  0.1695  1.7108 -1.9674
 1016MOL0     H40158   6.054   0.959   5.035  0.1972  3.8633 -1.1091
 1016MOL0     H40159   5.913   1.027   5.105  0.4171 -0.0001 -0.3267
 1016MOL0     H40160   5.878   0.845   4.872  0.8961  0.8021  0.4973
 1016MOL0     H40161   5.773   0.976   4.946 -1.8494 -0.7462 -1.7812
 1016MOL0     H40162   5.918   1.143   4.844  2.4731  1.3687 -3.1581
 1016MOL0     H40163   6.029   1.029   4.780 -0.1253  2.1957  0.3895
 1016MOL0     H40164   5.852   0.980   4.601 -0.4683  2.4915 -3.2721
 1016MOL0     H40165   5.725   1.046   4.696 -0.8959 -4.7902 -0.5258
 1016MOL0     H40166   5.905   1.414   4.508 -0.8553 -0.4996  0.2258
 1016MOL0     H40167   5.892   1.552   4.236 -0.0228 -3.0204 -0.5944
 1016MOL0     H40168   5.825   1.593   4.402 -0.1963  3.6301 -1.1364
 1016MOL0     H40169   5.718   1.595   4.266 -0.6207 -0.2657  1.6455
 1016MOL0     H40170   5.701   1.702   4.023  2.3864  3.2003 -2.7997
 1016MOL0     H40171   5.552   1.820   3.864 -2.2919 -1.1503 -2.5145
 1016MOL0     H40172   5.273   1.661   3.766 -3.4096 -0.6911 -2.5443
 1016MOL0     H40173   5.283   1.833   3.731 -2.0971  0.6595 -1.1974
 1016MOL0     H40174   5.124   1.795   3.576  1.5114  0.5395  2.8003
 1016MOL0     H40175   5.275   1.800   3.485 -0.6166 -0.4867 -2.1768
 1016MOL0     H40176   5.080   1.582   3.535  0.7542 -1.3180  0.4856
 1016MOL0     H40177   5.238   1.512   3.517 -2.4579 -1.6260  0.1699
 1016MOL0     H40178   5.240   1.547   3.286  2.4421  1.1106  2.7411
 1016MOL0     H40179   5.166   1.716   3.293 -0.6380  0.3814  0.7490
 1016MOL0     H40180   4.987   1.471   3.341  0.7141 -0.8632  0.1637
 1016MOL0     H40181   4.955   1.638   3.288  2.7359  2.4960  1.6242
 1016MOL0     H40182   5.110   1.438   3.115  1.3827 -0.2563  1.5936
 1016MOL0     H40183   5.067   1.597   3.066  1.9978  0.6243  1.2427
 1016MOL0     H40184   4.891   1.523   2.960  1.4922 -3.4442 -0.6044
 1016MOL0     H40185   4.811   1.535   3.119 -2.8106 -3.2865 -1.1432
 1016MOL0     H40186   4.943   1.291   3.035 -0.5879 -0.8168 -1.6064
 1016MOL0     H40187   4.771   1.320   2.998 -2.3849 -4.1199  3.6102
 1016MOL0     H40188   5.470   1.458   3.649 -0.2477 -0.5385 -1.0135
 1016MOL0     H40189   5.610   1.343   3.821  3.8722  0.6072 -0.7090
 1016MOL0     H40190   5.622   1.108   4.229  2.9770 -0.6241 -2.1300
 1016MOL0     H40191   5.727   1.037   4.452  2.1900  0.6270  1.4280
 1016MOL0     H40192   5.152   0.992   5.211  0.5815 -1.6869 -0.8484
 1016MOL0     H40193   5.041   1.060   4.987  0.0919 -0.8189 -1.5636
 1016MOL0     H40194   4.715   0.814   4.566  2.0234 -0.9713 -0.5182
 1016MOL0     H40195   4.620   0.941   4.375 -0.4757 -0.3463  0.0077
 1016MOL0     H40196   4.700   1.347   4.420  1.1509 -0.4542  0.2891
 1016MOL0     H40197   4.642   1.372   4.261 -0.0416  1.1397  0.3409
 1016MOL0     H40198   4.462   1.348   4.455 -1.2732 -0.6499 -0.4316
 1016MOL0     H40199   4.496   1.173   4.457  0.9762  0.5120  0.7800
 1016MOL0     H40200   4.298   1.226   4.344  0.0299  2.2855 -1.1473
 1016MOL0     H40201   4.372   1.354   4.248  0.5647  1.6869  1.4133
 1016MOL0     H40202   4.310   1.116   4.145 -0.2771  0.0901  2.8345
 1016MOL0     H40203   4.456   1.056   4.217  0.5027 -0.5789 -0.6248
 1016MOL0     H40204   4.578   1.275   3.874 -2.3020  1.0229 -0.2027
 1016MOL0     H40205   4.885   1.254   4.476 -2.8182  0.6973 -2.4607
 1016MOL0     H40206   5.082   1.127   4.686 -0.9940 -1.3064 -1.0827
 1016MOL0     H40207   4.980   1.268   4.671  0.8645  0.4311 -0.1813
 1016MOL0     H40208   4.953   1.161   4.807 -2.8289  4.5315 -0.2694
 1017MOL0     O40209   0.933   2.999   1.184  0.4252  0.2528 -0.1149
 1017MOL0     C40210   0.825   3.050   1.135  0.5942  0.0726  0.3731
 1017MOL0     O40211   0.781   3.181   1.160 -0.4486  0.5004  0.5396
 1017MOL0     C40212   0.866   3.267   1.208 -0.4436  0.7258 -0.2910
 1017MOL0     C40213   0.803   3.364   1.285 -1.0551 -0.2671  0.3408
 1017MOL0     C40214   0.869   3.455   1.359  0.4692  0.4619  0.0329
 1017MOL0     C40215   1.008   3.461   1.353  0.0936 -0.2570  0.4493
 1017MOL0     O40216   1.090   3.560   1.418  0.1641  0.0992  0.5689
 1017MOL0     C40217   1.020   3.640   1.516  0.0208  1.2106  0.6413
 1017MOL0     C40218   1.110   3.707   1.610  0.1351 -0.7512 -0.2966
 1017MOL0     C40219   1.148   3.636   1.745 -0.0338  0.3961 -0.1165
 1017MOL0     C40220   1.267   3.715   1.807 -0.0583 -0.4755  0.0904
 1017MOL0     C40221   1.300   3.698   1.962  0.2776 -0.9514  0.3478
 1017MOL0     C40222   1.435   3.761   2.008 -0.2756 -0.6018  0.6111
 1017MOL0     C40223   1.460   3.906   1.961  0.1194  0.0882 -0.5997
 1017MOL0     C40224   1.379   4.006   2.043  0.2761 -0.6907 -0.0842
 1017MOL0     N40225   1.424   4.142   1.996 -0.3589 -0.4684  0.4612
 1017MOL0     C40226   1.543   4.207   2.027  0.7049 -0.0138  0.1786
 1017MOL0     C40227   1.532   4.332   1.985  0.1800  0.4299  0.1241
 1017MOL0     C40228   1.644   4.431   2.022  0.2895  0.0626  0.2935
 1017MOL0     C40229   1.583   4.494   2.147 -0.1841  0.2706 -0.3638
 1017MOL0     C40230   1.677   4.613   2.203  0.7586 -0.0962  0.8872
 1017MOL0     C40231   1.623   4.674   2.334  0.0997 -0.6792 -0.1388
 1017MOL0     O40232   1.738   4.675   2.425 -1.2645  0.3931 -0.0293
 1017MOL0     C40233   1.733   4.765   2.527 -0.8586 -0.6455 -0.0814
 1017MOL0     C40234   1.613   4.834   2.571  0.4300 -0.2425 -0.2418
 1017MOL0     C40235   1.617   4.936   2.664 -0.0652 -0.4612  0.3600
 1017MOL0     C40236   1.522   5.048   2.689  0.2150  0.2793 -0.3529
 1017MOL0     C40237   1.728   4.939   2.751 -0.5178 -0.3032  0.6127
 1017MOL0     C40238   1.742   5.011   2.878 -0.8391 -1.0207 -0.4258
 1017MOL0     O40239   1.866   5.069   2.898 -0.2449  0.0136 -0.3061
 1017MOL0     C40240   1.892   5.162   2.998 -0.9576  0.1152 -0.0314
 1017MOL0     C40241   2.018   5.176   3.040 -0.5516 -0.4343 -0.2609
 1017MOL0     C40242   2.053   5.276   3.131  0.0436 -0.9669  0.3371
 1017MOL0     C40243   1.961   5.367   3.178 -1.0199  0.9701 -0.4158
 1017MOL0     O40244   1.987   5.438   3.291  0.2376  0.0411  0.3692
 1017MOL0     C40245   1.891   5.536   3.340  0.5046 -0.7883  0.9113
 1017MOL0     C40246   1.944   5.627   3.450 -0.3329  0.5016 -0.2638
 1017MOL0     C40247   2.015   5.532   3.554  0.0828 -0.3946  0.1640
 1017MOL0     C40248   2.096   5.612   3.657  0.2657 -0.3380 -0.1018
 1017MOL0     C40249   2.225   5.683   3.608 -0.2849 -0.1770  0.3399
 1017MOL0     C40250   2.341   5.715   3.703  0.2223 -0.5036  0.4319
 1017MOL0     C40251   2.392   5.593   3.758  0.1649 -0.9721  0.4589
 1017MOL0     C40252   2.499   5.609   3.861 -0.3401  0.1225 -0.1871
 1017MOL0    Cl40253   2.456   5.656   4.031  0.7376  0.5999  0.0966
 1017MOL0     C40254   1.832   5.357   3.123  1.0248  0.0956 -0.1296
 1017MOL0     C40255   1.794   5.262   3.032  0.1262  0.4998  0.0647
 1017MOL0     O40256   1.646   5.026   2.962  0.3578 -0.1583  0.0453
 1017MOL0     C40257   1.838   4.856   2.714  0.0509 -0.4950 -0.9917
 1017MOL0     C40258   1.848   4.775   2.601  1.0613 -0.5844 -0.5408
 1017MOL0     N40259   1.405   4.344   1.931  0.7827  0.7793 -0.8530
 1017MOL0     N40260   1.335   4.230   1.949 -0.7933 -0.8685 -1.3558
 1017MOL0     C40261   1.076   3.370   1.270  0.1157  0.4067 -0.0009
 1017MOL0     C40262   1.000   3.274   1.195  0.4699 -0.2098  1.3494
 1017MOL0     C40263   0.739   2.964   1.050 -0.1162  0.5239  0.4904
 1017MOL0     C40264   0.672   3.030   0.941  0.0109  0.0816 -0.3923
 1017MOL0     C40265   0.590   2.966   0.852 -0.4002 -0.2789 -0.8452
 1017MOL0     C40266   0.576   2.829   0.858 -0.0271 -0.4582 -0.9581
 1017MOL0     O40267   0.489   2.760   0.786  0.6813 -0.7769 -0.0860
 1017MOL0     C40268   0.455   2.806   0.656 -0.2518  0.4305 -0.3455
 1017MOL0     C40269   0.392   2.703   0.571 -0.1189 -0.3859  0.0877
 1017MOL0     C40270   0.272   2.637   0.647  0.3117 -0.1029  0.9146
 1017MOL0     C40271   0.168   2.574   0.547  0.1680  0.8208  0.1973
 1017MOL0     C40272   0.230   2.453   0.488  0.0163 -0.4222 -0.1994
 1017MOL0     C40273   0.265   2.355   0.430  0.4811  0.0297 -0.1720
 1017MOL0     C40274   0.635   2.764   0.969  0.3965 -0.6858  0.0106
 1017MOL0     C40275   0.720   2.829   1.062 -0.9796 -0.2395 -0.6461
 1017MOL0     C40276   0.785   2.744   1.172 -0.3111 -0.3520  0.3390
 1017MOL0     H40277   0.695   3.358   1.281 -1.0428 -1.1709  1.1105
 1017MOL0     H40278   0.811   3.521   1.423 -1.4896 -1.7080  0.6349
 1017MOL0     H40279   0.944   3.587   1.574 -0.9981  2.8572  0.8929
 1017MOL0     H40280   0.969   3.720   1.461 -1.6025 -1.9385 -2.8558
 1017MOL0     H40281   1.199   3.751   1.563 -1.7323  2.5753 -1.0435
 1017MOL0     H40282   1.059   3.794   1.652  2.9876 -0.6412  3.4910
 1017MOL0     H40283   1.058   3.638   1.807 -2.3062  2.0050 -3.2076
 1017MOL0     H40284   1.177   3.531   1.734 -0.8090 -0.3376  3.5565
 1017MOL0     H40285   1.358   3.683   1.755 -0.7805 -3.6393  0.5818
 1017MOL0     H40286   1.253   3.820   1.779 -2.5406 -0.8798 -0.3573
 1017MOL0     H40287   1.302   3.590   1.977  2.6193 -1.0860 -0.5811
 1017MOL0     H40288   1.227   3.743   2.030 -0.1372  4.6625 -3.1606
 1017MOL0     H40289   1.424   3.758   2.117  2.0261 -0.5859  0.8973
 1017MOL0     H40290   1.519   3.695   1.985  1.3849  0.7573  2.4073
 1017MOL0     H40291   1.438   3.913   1.854 -1.3436  0.4274 -0.2968
 1017MOL0     H40292   1.568   3.918   1.976 -0.1511 -0.2296  2.1923
 1017MOL0     H40293   1.270   3.996   2.038 -0.6035  3.3987  3.7808
 1017MOL0     H40294   1.395   4.001   2.151 -1.2973 -1.1608  0.1537
 1017MOL0     H40295   1.623   4.158   2.082  1.5624  2.0307  0.8555
 1017MOL0     H40296   1.652   4.513   1.950 -1.9214  0.2041  0.1474
 1017MOL0     H40297   1.741   4.384   2.041 -0.3650 -0.3927  3.0310
 1017MOL0     H40298   1.486   4.543   2.132 -0.9469  0.4704  3.9699
 1017MOL0     H40299   1.555   4.412   2.213  0.3724  0.4896  0.1554
 1017MOL0     H40300   1.777   4.569   2.208  1.7909  1.9224 -0.5317
 1017MOL0     H40301   1.694   4.690   2.127  1.7039  0.1690  1.3464
 1017MOL0     H40302   1.580   4.771   2.308 -1.2604 -1.4372 -0.8408
 1017MOL0     H40303   1.543   4.607   2.369 -2.4548  1.2930 -1.8034
 1017MOL0     H40304   1.514   4.811   2.534  0.2809 -2.2174  1.2525
 1017MOL0     H40305   1.469   5.026   2.783 -0.3348  1.6235 -0.3141
 1017MOL0     H40306   1.451   5.070   2.608  1.4881  0.8076 -1.3531
 1017MOL0     H40307   1.573   5.144   2.704 -1.0522  0.8969  0.2496
 1017MOL0     H40308   2.087   5.100   3.006  2.7294  2.2059 -0.0778
 1017MOL0     H40309   2.151   5.304   3.167 -0.0479  0.5500 -0.5235
 1017MOL0     H40310   1.845   5.592   3.258 -1.2478 -1.3644  1.4567
 1017MOL0     H40311   1.814   5.482   3.397 -0.0483 -0.7977  0.1712
 1017MOL0     H40312   2.015   5.700   3.409  0.7366  1.3206  2.7617
 1017MOL0     H40313   1.863   5.691   3.485 -1.0106  1.4525 -3.2628
 1017MOL0     H40314   2.088   5.468   3.504  1.9486  0.6762  1.4296
 1017MOL0     H40315   1.936   5.481   3.610 -3.3735  2.5749 -1.6038
 1017MOL0     H40316   2.117   5.534   3.730  3.6844 -1.0422 -1.6113
 1017MOL0     H40317   2.033   5.690   3.702  1.1955  0.0339  0.6098
 1017MOL0     H40318   2.270   5.607   3.543  0.0380 -0.8552  1.3296
 1017MOL0     H40319   2.189   5.772   3.555  2.5420  0.9501  0.1495
 1017MOL0     H40320   2.303   5.780   3.782 -2.3245 -1.9440  0.5063
 1017MOL0     H40321   2.426   5.766   3.657  2.3374 -2.1437  2.2593
 1017MOL0     H40322   2.427   5.543   3.668  0.2874  0.1778 -0.1487
 1017MOL0     H40323   2.315   5.531   3.805 -0.4718 -0.6692 -0.1795
 1017MOL0     H40324   2.569   5.686   3.827  0.9472 -1.5052 -1.4260
 1017MOL0     H40325   2.555   5.516   3.872 -0.9037 -0.1741  0.2417
 1017MOL0     H40326   1.762   5.437   3.143  2.5325  1.2366  0.8303
 1017MOL0     H40327   1.689   5.262   3.004  0.6894  1.3695 -2.3221
 1017MOL0     H40328   1.926   4.859   2.777 -1.7058 -0.2891  1.6268
 1017MOL0     H40329   1.940   4.725   2.572  0.7846 -0.7125 -1.2013
 1017MOL0     H40330   1.180   3.388   1.245 -0.4761  3.6351 -0.6536
 1017MOL0     H40331   1.042   3.206   1.122  0.5557  1.9609 -0.7538
 1017MOL0     H40332   0.690   3.136   0.924 -0.8380 -0.0356 -2.2093
 1017MOL0     H40333   0.547   3.022   0.770  2.8301  3.5778 -0.2006
 1017MOL0     H40334   0.387   2.891   0.663 -0.6292  0.0702  0.5463
 1017MOL0     H40335   0.546   2.851   0.615 -0.6808  0.4874 -1.2407
 1017MOL0     H40336   0.463   2.619   0.563 -2.0261 -2.2254  1.3700
 1017MOL0     H40337   0.385   2.741   0.469  2.4502  0.4635  0.1591
 1017MOL0     H40338   0.302   2.564   0.723  1.9417 -0.6629 -0.2223
 1017MOL0     H40339   0.210   2.713   0.695 -1.9412 -1.2354 -0.0348
 1017MOL0     H40340   0.137   2.642   0.467  1.5521  1.0831 -0.1483
 1017MOL0     H40341   0.077   2.548   0.602 -2.2572 -2.1747 -4.5033
 1017MOL0     H40342   0.317   2.266   0.400  0.2332 -0.3648  0.5423
 1017MOL0     H40343   0.606   2.662   0.992  1.1334 -0.7349  0.7855
 1017MOL0     H40344   0.758   2.639   1.163  0.1333 -0.5534  1.2285
 1017MOL0     H40345   0.894   2.746   1.158 -0.6777 -0.2997 -3.7427
 1017MOL0     H40346   0.750   2.771   1.272 -0.3127 -0.8161  0.4625
 1018MOL0     O40347   5.317   4.966   4.458  0.3765  0.4257  0.7139
 1018MOL0     C40348   5.245   4.900   4.538  0.1064  0.3553 -0.7036
 1018MOL0     O40349   5.287   4.780   4.600  0.1414  0.4132  0.0424
 1018MOL0     C40350   5.412   4.735   4.555  0.5339  0.3467 -0.4796
 1018MOL0     C40351   5.407   4.642   4.459 -0.0506  1.0219  0.3624
 1018MOL0     C40352   5.529   4.584   4.407 -0.3313  0.4580  0.1104
 1018MOL0     C40353   5.651   4.625   4.452 -0.7986  0.1492  0.2909
 1018MOL0     O40354   5.779   4.583   4.398 -0.3807  0.0213 -0.6146
 1018MOL0     C40355   5.799   4.546   4.270  0.0035  0.0425  0.5242
 1018MOL0     C40356   5.747   4.404   4.219 -0.6541 -0.3078 -0.1351
 1018MOL0     C40357   5.704   4.403   4.073  0.3405  0.3649  0.1034
 1018MOL0     C40358   5.794   4.467   3.971 -0.2055  0.1665  0.1680
 1018MOL0     C40359   5.747   4.457   3.830  0.1563  1.0076  0.6451
 1018MOL0     C40360   5.674   4.322   3.791  0.0390 -0.2451  0.4527
 1018MOL0     C40361   5.648   4.329   3.635  0.8676 -0.2489 -0.2085
 1018MOL0     C40362   5.514   4.395   3.600  0.1164  0.2302 -0.4953
 1018MOL0     N40363   5.510   4.537   3.631 -0.4519  0.1409  0.9814
 1018MOL0     C40364   5.579   4.626   3.554 -1.1201 -0.2104 -0.1960
 1018MOL0     C40365   5.550   4.753   3.612  0.2737 -0.6371  0.4318
 1018MOL0     C40366   5.609   4.880   3.558  0.8385  0.2572  0.0753
 1018MOL0     C40367   5.558   4.932   3.420 -0.9156 -0.0145 -0.1975
 1018MOL0     C40368   5.644   5.060   3.385 -0.3065 -0.0084  0.7511
 1018MOL0     C40369   5.576   5.128   3.265  0.0189  0.0107 -0.5610
 1018MOL0     O40370   5.578   5.049   3.138 -0.8803 -0.6907  0.0534
 1018MOL0     C40371   5.530   5.098   3.017  0.2498  0.7404 -0.1291
 1018MOL0     C40372   5.532   5.013   2.904  1.3740 -0.2547  0.6015
 1018MOL0     C40373   5.486   5.059   2.784  0.4741  0.3018 -0.0884
 1018MOL0     C40374   5.505   4.963   2.673  0.2528 -0.4186 -0.4063
 1018MOL0     C40375   5.414   5.174   2.782  0.1248 -0.2412  1.1211
 1018MOL0     C40376   5.353   5.232   2.655 -0.1370 -0.1182 -0.0590
 1018MOL0     O40377   5.416   5.203   2.538 -0.7248 -0.0846 -0.2514
 1018MOL0     C40378   5.361   5.238   2.421 -0.0387  0.1914 -0.0625
 1018MOL0     C40379   5.452   5.267   2.321  0.8169 -1.1763 -0.1322
 1018MOL0     C40380   5.409   5.313   2.197 -0.5388 -0.6357  0.5903
 1018MOL0     C40381   5.269   5.317   2.172  0.2395 -0.2017  0.2403
 1018MOL0     O40382   5.228   5.347   2.041  0.3407 -0.6428 -0.1063
 1018MOL0     C40383   5.126   5.446   2.027  0.5696  0.1702 -0.4950
 1018MOL0     C40384   5.186   5.574   1.989  0.6506 -0.5362  0.6651
 1018MOL0     C40385   5.278   5.560   1.869  0.1787  0.8206  0.2134
 1018MOL0     C40386   5.349   5.685   1.827 -0.1595 -1.1526  0.1236
 1018MOL0     C40387   5.470   5.650   1.744 -0.5629 -0.8666  0.9771
 1018MOL0     C40388   5.590   5.576   1.821  0.3521 -1.1610  0.0790
 1018MOL0     C40389   5.721   5.616   1.763  0.7217 -0.0329  0.1696
 1018MOL0     C40390   5.834   5.564   1.832 -0.7897  0.4206  0.1589
 1018MOL0    Cl40391   5.838   5.379   1.824  0.1431 -0.0437  0.1748
 1018MOL0     C40392   5.180   5.290   2.270 -0.3441  0.1601 -0.7012
 1018MOL0     C40393   5.227   5.249   2.391 -0.1830 -0.2134  0.4611
 1018MOL0     O40394   5.241   5.285   2.668  0.0612  0.4706  0.7150
 1018MOL0     C40395   5.402   5.252   2.907 -0.8643  0.2750  0.2218
 1018MOL0     C40396   5.464   5.218   3.020  0.4848  0.1400  1.1858
 1018MOL0     N40397   5.467   4.722   3.724 -1.2178 -0.0368 -0.2222
 1018MOL0     N40398   5.440   4.593   3.726  0.4129 -0.2413 -0.2966
 1018MOL0     C40399   5.655   4.722   4.549 -1.5566  0.6236 -0.7760
 1018MOL0     C40400   5.536   4.780   4.599  0.6846 -0.1150 -1.4705
 1018MOL0     C40401   5.110   4.955   4.581 -0.2472 -0.2401 -0.0538
 1018MOL0     C40402   5.083   5.091   4.546 -0.0299  0.5522 -0.5842
 1018MOL0     C40403   4.975   5.163   4.571 -0.0293  0.6347  0.6214
 1018MOL0     C40404   4.873   5.096   4.649  0.0428 -0.7112 -0.4282
 1018MOL0     O40405   4.769   5.171   4.690  0.2098  0.0465 -0.2974
 1018MOL0     C40406   4.694   5.138   4.806 -0.3369  0.0538 -0.3248
 1018MOL0     C40407   4.562   5.220   4.808  0.1982 -1.2402 -0.6705
 1018MOL0     C40408   4.459   5.167   4.905  0.3038  0.6404 -0.2448
 1018MOL0     C40409   4.326   5.248   4.902  0.4433 -0.3410  0.6217
 1018MOL0     C40410   4.248   5.207   5.022  0.4566 -0.1118 -0.6042
 1018MOL0     C40411   4.202   5.179   5.129  0.0440  1.1207 -0.1091
 1018MOL0     C40412   4.895   4.958   4.688 -0.1150  0.9352  0.7794
 1018MOL0     C40413   5.010   4.882   4.655 -0.0445 -0.4336  0.6323
 1018MOL0     C40414   5.025   4.741   4.706  0.9527  0.7689 -0.9404
 1018MOL0     H40415   5.322   4.595   4.411  1.6492 -2.2836  0.2930
 1018MOL0     H40416   5.514   4.524   4.318  2.4098 -1.0942  0.5900
 1018MOL0     H40417   5.908   4.535   4.264  0.2292  1.5182  1.3942
 1018MOL0     H40418   5.776   4.629   4.202  0.4378  0.9726  1.4658
 1018MOL0     H40419   5.837   4.342   4.228  0.1645  0.2970 -3.0241
 1018MOL0     H40420   5.674   4.360   4.287  1.3574  1.6724  3.6367
 1018MOL0     H40421   5.684   4.301   4.037  1.0209  0.0819  0.5189
 1018MOL0     H40422   5.600   4.436   4.078 -0.4468 -2.1410  2.1456
 1018MOL0     H40423   5.799   4.572   4.000 -1.1599 -0.4575  2.9045
 1018MOL0     H40424   5.896   4.428   3.974 -0.6251 -0.9737  0.1702
 1018MOL0     H40425   5.830   4.482   3.764  2.2225  1.3112  3.2135
 1018MOL0     H40426   5.669   4.532   3.812 -2.4144 -1.8963 -1.4481
 1018MOL0     H40427   5.727   4.232   3.824  0.7988 -0.4339 -1.1830
 1018MOL0     H40428   5.576   4.326   3.840  0.7854 -1.7164  2.1489
 1018MOL0     H40429   5.649   4.223   3.610  2.9498  0.2366 -2.5738
 1018MOL0     H40430   5.728   4.382   3.583  0.2937 -0.2559 -1.1093
 1018MOL0     H40431   5.493   4.387   3.493 -0.7673 -3.0616 -0.1797
 1018MOL0     H40432   5.435   4.344   3.656  2.1409 -2.1220  0.4095
 1018MOL0     H40433   5.646   4.603   3.472  1.1543  2.1340  0.8505
 1018MOL0     H40434   5.718   4.875   3.550  1.2310  4.7662  0.3424
 1018MOL0     H40435   5.603   4.953   3.639 -0.6085 -1.1578  1.3113
 1018MOL0     H40436   5.580   4.848   3.354  3.1108 -0.5790  1.6069
 1018MOL0     H40437   5.452   4.958   3.434 -0.4746  1.0043  1.5913
 1018MOL0     H40438   5.648   5.133   3.466  0.2753 -0.6359  1.2946
 1018MOL0     H40439   5.743   5.029   3.351 -0.6674  0.1198 -0.4682
 1018MOL0     H40440   5.475   5.159   3.294  1.0843  2.8824  0.3897
 1018MOL0     H40441   5.638   5.217   3.253  2.3022 -1.1752  1.5168
 1018MOL0     H40442   5.580   4.916   2.911  1.2083 -0.2875  1.3838
 1018MOL0     H40443   5.567   4.877   2.700  0.3018 -0.9454 -2.0732
 1018MOL0     H40444   5.559   5.005   2.587  2.4121 -5.2983 -1.7853
 1018MOL0     H40445   5.404   4.926   2.650 -0.2807  0.3861  0.5531
 1018MOL0     H40446   5.559   5.250   2.324  0.4675 -3.6834  0.3461
 1018MOL0     H40447   5.479   5.331   2.115 -1.7856  0.5680 -0.2637
 1018MOL0     H40448   5.065   5.408   1.944 -4.2466 -1.7716  3.4170
 1018MOL0     H40449   5.063   5.454   2.116 -1.0375  0.0453 -1.5820
 1018MOL0     H40450   5.110   5.650   1.967  0.3450 -0.5962  1.4644
 1018MOL0     H40451   5.246   5.607   2.074  0.7880 -0.5266  0.5643
 1018MOL0     H40452   5.215   5.528   1.785  0.7502  2.4897 -0.8937
 1018MOL0     H40453   5.345   5.476   1.889  0.0426  0.2033 -1.7245
 1018MOL0     H40454   5.385   5.734   1.918  3.3383  1.7163 -2.5136
 1018MOL0     H40455   5.281   5.757   1.781  1.0057  1.4261  2.2076
 1018MOL0     H40456   5.447   5.590   1.655 -1.4586  0.9548 -0.0693
 1018MOL0     H40457   5.501   5.748   1.706 -1.4564 -0.5906  0.9412
 1018MOL0     H40458   5.568   5.469   1.818 -0.7233 -1.0537  2.1742
 1018MOL0     H40459   5.591   5.600   1.928  1.5999  1.2436 -0.3916
 1018MOL0     H40460   5.721   5.725   1.760 -3.0888  0.1024  0.6593
 1018MOL0     H40461   5.731   5.581   1.659  4.2635  0.4612  0.2014
 1018MOL0     H40462   5.834   5.582   1.940  1.1651  0.6211  0.1584
 1018MOL0     H40463   5.924   5.595   1.777  0.2347 -4.1412 -1.1877
 1018MOL0     H40464   5.075   5.277   2.245 -0.2347  0.7016 -1.4836
 1018MOL0     H40465   5.145   5.223   2.456 -0.9835 -1.5161 -1.0104
 1018MOL0     H40466   5.345   5.345   2.907  1.2384  1.7008 -2.3178
 1018MOL0     H40467   5.448   5.285   3.104  0.7462  2.8456 -0.7542
 1018MOL0     H40468   5.752   4.736   4.595  1.7293  2.5634 -7.1472
 1018MOL0     H40469   5.528   4.843   4.687  3.4035 -3.2844  1.2866
 1018MOL0     H40470   5.154   5.149   4.489  0.8239  1.7545  1.5915
 1018MOL0     H40471   4.977   5.270   4.549  2.9034  0.4591 -0.4986
 1018MOL0     H40472   4.663   5.033   4.806  0.2878 -0.1625  1.0494
 1018MOL0     H40473   4.747   5.136   4.902 -0.4520 -0.1025 -0.2637
 1018MOL0     H40474   4.513   5.223   4.711 -0.5095  0.5800 -0.3043
 1018MOL0     H40475   4.586   5.326   4.825  2.2111 -1.7409  0.0352
 1018MOL0     H40476   4.427   5.066   4.877 -0.2350  0.9288 -0.6813
 1018MOL0     H40477   4.502   5.174   5.005 -2.0355  1.7995  0.7485
 1018MOL0     H40478   4.267   5.225   4.813  0.4362 -3.3127  1.2996
 1018MOL0     H40479   4.350   5.355   4.894  0.1501 -0.4153 -2.6282
 1018MOL0     H40480   4.176   5.134   5.223  1.4094  1.3536  0.4016
 1018MOL0     H40481   4.811   4.917   4.743  2.7205 -1.9557  3.3749
 1018MOL0     H40482   5.070   4.727   4.805  0.0238  1.8354 -0.3414
 1018MOL0     H40483   4.923   4.703   4.717  0.3090  2.3267 -1.3618
 1018MOL0     H40484   5.076   4.676   4.634 -1.4385 -0.6417 -1.4745
 1019MOL0     O40485  10.748   9.980   4.208 -0.7217 -0.4028  0.7034
 1019MOL0     C40486  10.654   9.900   4.181 -0.5632 -0.2333  0.0795
 1019MOL0     O40487  10.531   9.932   4.134  0.6487  0.4959  0.4300
 1019MOL0     C40488  10.525  10.033   4.043 -0.3636  0.3634 -0.0455
 1019MOL0     C40489  10.395  10.081   4.016  0.4761 -0.5490 -0.2968
 1019MOL0     C40490  10.369  10.176   3.925 -0.6671  0.1336  0.8482
 1019MOL0     C40491  10.478  10.227   3.845  0.4574  0.1220 -0.5750
 1019MOL0     O40492  10.444  10.300   3.735 -0.4182  0.2971  0.2517
 1019MOL0     C40493  10.545  10.332   3.643  0.4308 -0.5493  0.1362
 1019MOL0     C40494  10.471  10.425   3.539 -0.0303  0.6177  0.0817
 1019MOL0     C40495  10.542  10.543   3.485 -0.1319  0.0487 -0.9017
 1019MOL0     C40496  10.670  10.498   3.411 -0.1224  0.8459 -0.2671
 1019MOL0     C40497  10.776  10.603   3.372  0.4179 -0.7819 -0.5895
 1019MOL0     C40498  10.721  10.716   3.293  0.4583  0.1316  0.1424
 1019MOL0     C40499  10.648  10.693   3.154 -1.4864  0.8327 -0.5360
 1019MOL0     C40500  10.616  10.837   3.097  0.7919  0.5631  0.6063
 1019MOL0     N40501  10.526  10.910   3.181 -0.0676 -0.8525 -0.4730
 1019MOL0     C40502  10.553  11.034   3.242  0.4037  0.0728 -0.5747
 1019MOL0     C40503  10.428  11.076   3.290 -0.5155  0.2839 -0.6244
 1019MOL0     C40504  10.408  11.207   3.365  0.7238  0.7835 -0.8338
 1019MOL0     C40505  10.319  11.299   3.285  0.0377  0.2157  0.0249
 1019MOL0     C40506  10.169  11.282   3.332  0.3392 -0.1623  0.0997
 1019MOL0     C40507  10.134  11.362   3.461  0.1953 -0.6001  0.3390
 1019MOL0     O40508  10.011  11.327   3.524 -0.5023 -0.1843  0.6988
 1019MOL0     C40509   9.891  11.322   3.457 -0.7331 -0.0643  0.1454
 1019MOL0     C40510   9.877  11.396   3.341 -0.4888  0.0462  0.2259
 1019MOL0     C40511   9.751  11.406   3.285  1.2302  0.4914 -0.0240
 1019MOL0     C40512   9.725  11.504   3.181  0.0281  0.5509 -0.9406
 1019MOL0     C40513   9.633  11.330   3.336  0.0741 -0.2895  0.0289
 1019MOL0     C40514   9.503  11.321   3.268 -0.5810 -0.2491 -0.3350
 1019MOL0     O40515   9.399  11.271   3.346 -0.0950  0.0170  0.4425
 1019MOL0     C40516   9.304  11.216   3.270  0.0394 -0.1569  0.0268
 1019MOL0     C40517   9.327  11.093   3.220  0.3638  0.6524 -0.5292
 1019MOL0     C40518   9.220  11.023   3.151 -0.7134 -0.2216 -0.8816
 1019MOL0     C40519   9.089  11.084   3.130  0.2202 -0.6582 -0.1101
 1019MOL0     O40520   8.990  11.029   3.051 -0.5315 -0.4858  0.6170
 1019MOL0     C40521   9.014  10.908   2.978 -0.8598 -0.4044  0.6614
 1019MOL0     C40522   9.021  10.765   3.036 -0.3337 -0.1570 -0.2314
 1019MOL0     C40523   8.889  10.720   3.115  0.2127  0.7698  0.6179
 1019MOL0     C40524   8.908  10.626   3.230 -0.5955 -0.7787  0.0950
 1019MOL0     C40525   8.777  10.604   3.304 -0.7866 -0.1884  1.1746
 1019MOL0     C40526   8.796  10.537   3.437 -0.0186 -0.0611  0.4115
 1019MOL0     C40527   8.669  10.464   3.485  0.9179 -0.5383  0.3889
 1019MOL0     C40528   8.708  10.418   3.625 -0.6492 -0.3541 -1.1937
 1019MOL0    Cl40529   8.673  10.540   3.746 -0.3461  0.0754  0.5191
 1019MOL0     C40530   9.074  11.207   3.196  0.6037 -0.2694 -0.3351
 1019MOL0     C40531   9.180  11.274   3.269  0.0010 -0.4987  0.6403
 1019MOL0     O40532   9.492  11.339   3.144  1.1042  1.0290  0.3539
 1019MOL0     C40533   9.657  11.254   3.445 -0.1218  0.0474  0.4717
 1019MOL0     C40534   9.785  11.252   3.510  0.1018 -0.6875 -0.1304
 1019MOL0     N40535  10.336  10.992   3.241  0.1019  0.8464  0.2080
 1019MOL0     N40536  10.393  10.893   3.172  0.3391  0.8566  0.1827
 1019MOL0     C40537  10.604  10.173   3.875  0.1724  0.3650  0.1655
 1019MOL0     C40538  10.629  10.072   3.963  0.4688 -0.9533 -1.0046
 1019MOL0     C40539  10.677   9.750   4.198  0.2017 -0.5200 -1.1026
 1019MOL0     C40540  10.651   9.663   4.095 -0.8574 -0.0042 -0.8288
 1019MOL0     C40541  10.667   9.527   4.102 -0.6213  0.2846 -0.3335
 1019MOL0     C40542  10.724   9.466   4.210 -0.1575  0.3210  0.0763
 1019MOL0     O40543  10.741   9.327   4.204 -0.3747  0.1338 -0.2911
 1019MOL0     C40544  10.846   9.279   4.289 -0.5334 -0.3469  0.1590
 1019MOL0     C40545  10.858   9.129   4.278 -0.7072 -0.0737  0.1742
 1019MOL0     C40546  10.758   9.072   4.386  0.1582 -1.6285 -0.4101
 1019MOL0     C40547  10.753   8.914   4.389 -0.3176 -0.0054  1.1108
 1019MOL0     C40548  10.872   8.873   4.464  0.5666 -0.3232 -1.0404
 1019MOL0     C40549  10.971   8.840   4.530 -0.0146  1.8072 -0.1962
 1019MOL0     C40550  10.763   9.551   4.325  0.3974  0.2047  0.4954
 1019MOL0     C40551  10.733   9.688   4.314  0.6309  0.1629 -0.4303
 1019MOL0     C40552  10.760   9.766   4.440  0.6621  0.4332 -0.8136
 1019MOL0     H40553  10.321  10.047   4.087  1.3248 -0.6014  0.5841
 1019MOL0     H40554  10.269  10.217   3.913  0.8799  4.4451  0.9246
 1019MOL0     H40555  10.603  10.246   3.606  0.5037 -0.6325  0.4425
 1019MOL0     H40556  10.618  10.395   3.693 -0.2180  0.9159 -0.7089
 1019MOL0     H40557  10.435  10.363   3.455 -1.1569 -0.7942  1.5374
 1019MOL0     H40558  10.388  10.470   3.594  1.4046  2.3926  0.8777
 1019MOL0     H40559  10.472  10.580   3.410 -0.5855 -0.0329 -0.5206
 1019MOL0     H40560  10.568  10.612   3.566  1.4146 -1.2056 -0.2704
 1019MOL0     H40561  10.725  10.426   3.472  1.5506  2.2229 -0.0767
 1019MOL0     H40562  10.640  10.437   3.325  0.9540 -0.0222 -0.0505
 1019MOL0     H40563  10.853  10.554   3.311 -0.6693 -0.3491 -2.3805
 1019MOL0     H40564  10.815  10.650   3.463  1.0500 -0.8559 -0.8134
 1019MOL0     H40565  10.645  10.753   3.363 -2.4089 -1.4426 -1.8997
 1019MOL0     H40566  10.804  10.786   3.283 -2.4171  4.3312  2.5121
 1019MOL0     H40567  10.563  10.631   3.183 -2.0687  0.4596 -2.8178
 1019MOL0     H40568  10.711  10.633   3.087 -3.2282  0.3865 -1.8207
 1019MOL0     H40569  10.706  10.893   3.074 -0.9168  2.5889 -1.7239
 1019MOL0     H40570  10.558  10.836   3.004  0.8227  5.2274  0.2939
 1019MOL0     H40571  10.646  11.086   3.263 -0.6464  1.5331  0.7576
 1019MOL0     H40572  10.496  11.256   3.408  0.9050 -1.8074  2.1007
 1019MOL0     H40573  10.351  11.191   3.457 -0.8655  5.2210 -0.8159
 1019MOL0     H40574  10.340  11.405   3.300 -0.0533  0.2057  0.2133
 1019MOL0     H40575  10.310  11.271   3.179 -1.7427 -2.6418  0.8120
 1019MOL0     H40576  10.103  11.322   3.255 -3.0665 -2.7662  1.4108
 1019MOL0     H40577  10.151  11.175   3.349  2.5904 -1.3791 -3.8048
 1019MOL0     H40578  10.223  11.344   3.522  2.4528  1.7799 -1.9977
 1019MOL0     H40579  10.136  11.470   3.446  1.1343 -0.7000 -0.3391
 1019MOL0     H40580   9.956  11.463   3.308  1.2035 -0.7146  2.4966
 1019MOL0     H40581   9.715  11.458   3.082  1.4914  0.7137 -1.1911
 1019MOL0     H40582   9.799  11.585   3.183  2.1994 -1.2515 -2.1531
 1019MOL0     H40583   9.646  11.563   3.226  1.2419  0.7261  1.0632
 1019MOL0     H40584   9.426  11.049   3.227 -0.4032 -0.9448  1.4868
 1019MOL0     H40585   9.236  10.924   3.108 -2.7325 -1.5112  1.1145
 1019MOL0     H40586   8.938  10.904   2.900 -1.2729  2.0219  0.8676
 1019MOL0     H40587   9.111  10.926   2.932 -1.2519  4.4263  1.2176
 1019MOL0     H40588   9.051  10.687   2.965  3.1327 -1.4710  2.4171
 1019MOL0     H40589   9.112  10.774   3.095  0.8973  1.4945 -2.2570
 1019MOL0     H40590   8.816  10.673   3.049 -1.6962  0.1572  3.0220
 1019MOL0     H40591   8.840  10.816   3.138  1.3646  1.3261  0.8366
 1019MOL0     H40592   8.979  10.672   3.299  3.9471 -2.7390 -2.7885
 1019MOL0     H40593   8.950  10.528   3.204  0.2453 -0.8515  1.6048
 1019MOL0     H40594   8.703  10.684   3.312 -1.7948 -0.9500 -0.2202
 1019MOL0     H40595   8.728  10.533   3.238 -1.5578  0.3623  1.1501
 1019MOL0     H40596   8.827  10.627   3.492  1.3488 -0.8705  1.0166
 1019MOL0     H40597   8.884  10.472   3.431  1.2147  1.6508 -1.0971
 1019MOL0     H40598   8.643  10.386   3.413 -0.0364 -0.1977  0.3485
 1019MOL0     H40599   8.584  10.531   3.504  2.1655  0.6419  2.1707
 1019MOL0     H40600   8.812  10.384   3.629  0.2075  1.3729 -4.8654
 1019MOL0     H40601   8.654  10.326   3.651  0.0932 -0.4686  0.0171
 1019MOL0     H40602   8.976  11.253   3.191  1.0737  0.9686  1.0932
 1019MOL0     H40603   9.174  11.373   3.314 -1.3184 -1.3628  2.5036
 1019MOL0     H40604   9.577  11.187   3.477 -1.7177  2.2780  1.4635
 1019MOL0     H40605   9.794  11.198   3.603 -0.5820 -0.6286 -0.0221
 1019MOL0     H40606  10.683  10.200   3.807  1.2933  2.4562  2.1529
 1019MOL0     H40607  10.728  10.031   3.979  0.1903 -0.8827  1.1563
 1019MOL0     H40608  10.594   9.696   4.009 -3.9914  1.6794  1.6833
 1019MOL0     H40609  10.621   9.456   4.034  2.1335 -0.7702 -1.2430
 1019MOL0     H40610  10.931   9.333   4.246 -1.6328 -0.2995 -2.0650
 1019MOL0     H40611  10.820   9.300   4.393 -0.6344 -0.8314  0.2369
 1019MOL0     H40612  10.962   9.098   4.293 -0.3619 -0.7729 -2.9093
 1019MOL0     H40613  10.832   9.085   4.181 -2.1353  1.1717 -0.0412
 1019MOL0     H40614  10.780   9.100   4.490 -1.4984  0.6448 -0.5867
 1019MOL0     H40615  10.655   9.108   4.375  0.1936 -1.4766 -0.2559
 1019MOL0     H40616  10.756   8.886   4.284  0.4819 -0.0431  1.1383
 1019MOL0     H40617  10.657   8.895   4.437 -2.0862  3.9118 -0.4251
 1019MOL0     H40618  11.051   8.809   4.594 -1.0540 -1.2669 -0.2183
 1019MOL0     H40619  10.818   9.504   4.405 -1.1052  0.3059  1.6399
 1019MOL0     H40620  10.810   9.702   4.513  2.1697  0.3677 -1.8334
 1019MOL0     H40621  10.817   9.859   4.432 -0.6426  1.4615  1.2087
 1019MOL0     H40622  10.662   9.795   4.479 -0.0125  0.5649 -2.5244
 1020MOL0     O40623   4.685   8.212   8.418  0.0960  0.2157 -0.1116
 1020MOL0     C40624   4.671   8.212   8.291 -0.4087  0.1926 -1.3308
 1020MOL0     O40625   4.653   8.102   8.224  0.3042  0.1325  0.5668
 1020MOL0     C40626   4.674   7.979   8.273 -0.4750 -0.6509 -0.2762
 1020MOL0     C40627   4.751   7.890   8.196 -0.0449 -0.4386 -0.3989
 1020MOL0     C40628   4.750   7.754   8.249 -0.4600  0.1142  0.2788
 1020MOL0     C40629   4.692   7.710   8.365 -0.2011  0.7583 -0.2538
 1020MOL0     O40630   4.707   7.582   8.407  0.0314  0.6527  0.0113
 1020MOL0     C40631   4.590   7.508   8.454  0.4109 -1.1600  0.0086
 1020MOL0     C40632   4.590   7.366   8.395 -1.0575  0.0551 -0.4286
 1020MOL0     C40633   4.506   7.357   8.270 -0.0324  0.7518 -0.0194
 1020MOL0     C40634   4.497   7.213   8.217 -0.0027 -0.2440  0.0575
 1020MOL0     C40635   4.376   7.210   8.115  0.0136  0.0063  0.5006
 1020MOL0     C40636   4.381   7.083   8.034  0.2959 -0.6324  0.3628
 1020MOL0     C40637   4.251   7.066   7.963  0.2839 -0.5797 -0.5797
 1020MOL0     C40638   4.139   6.993   8.040 -0.0759  0.6538  0.4885
 1020MOL0     N40639   4.005   6.983   7.978  0.9171 -0.0508 -0.8638
 1020MOL0     C40640   3.944   7.085   7.895  0.4598  0.3386  0.6021
 1020MOL0     C40641   3.826   7.030   7.869 -0.0270 -1.0929  0.4084
 1020MOL0     C40642   3.713   7.096   7.792  0.2554 -0.4292 -0.3894
 1020MOL0     C40643   3.588   7.003   7.770  0.5015  0.0185  0.5255
 1020MOL0     C40644   3.469   7.091   7.721  1.3356 -0.5235  0.7341
 1020MOL0     C40645   3.336   7.012   7.680  0.1599  0.2355 -0.1504
 1020MOL0     O40646   3.311   6.912   7.780 -0.0624  0.6164  0.0813
 1020MOL0     C40647   3.271   6.934   7.911 -0.6436 -0.9975 -0.6275
 1020MOL0     C40648   3.242   6.818   7.988  0.6465 -0.5546 -0.5319
 1020MOL0     C40649   3.192   6.831   8.119  0.4902  0.2101  0.1830
 1020MOL0     C40650   3.190   6.713   8.214 -0.2222 -0.6073 -0.2280
 1020MOL0     C40651   3.132   6.950   8.162 -0.8663 -0.5493 -0.4855
 1020MOL0     C40652   3.058   6.974   8.286 -0.4878  0.3893  0.0143
 1020MOL0     O40653   2.975   6.874   8.337  0.0456  0.7342  0.3312
 1020MOL0     C40654   2.922   6.882   8.463  0.2939 -0.2677 -0.2361
 1020MOL0     C40655   2.790   6.932   8.494 -0.3864 -0.5904 -0.3206
 1020MOL0     C40656   2.735   6.924   8.623 -0.0265 -0.2855  1.1961
 1020MOL0     C40657   2.802   6.862   8.725 -0.4644 -0.2322  0.3678
 1020MOL0     O40658   2.747   6.861   8.852  0.5910  0.1581  0.2508
 1020MOL0     C40659   2.813   6.799   8.956 -1.0178  0.6239 -0.0670
 1020MOL0     C40660   2.739   6.836   9.079 -0.7869  0.1992 -0.2723
 1020MOL0     C40661   2.815   6.820   9.214 -0.1921 -0.9491 -0.0842
 1020MOL0     C40662   2.846   6.949   9.282 -0.2817  0.0988 -0.2791
 1020MOL0     C40663   2.930   6.929   9.410 -0.5663  0.2339 -0.2586
 1020MOL0     C40664   2.970   7.057   9.473 -0.7519 -0.9815 -0.1567
 1020MOL0     C40665   3.051   7.049   9.602 -0.3587 -0.4534 -0.9205
 1020MOL0     C40666   2.987   6.976   9.719  1.6922  0.2546  0.3238
 1020MOL0    Cl40667   2.851   7.079   9.780  0.0698  0.0209 -0.0269
 1020MOL0     C40668   2.928   6.804   8.691 -0.2838  0.6569 -0.4705
 1020MOL0     C40669   2.986   6.818   8.566 -0.2509 -0.1266 -0.1931
 1020MOL0     O40670   3.077   7.082   8.337  0.0064  0.0187  0.3223
 1020MOL0     C40671   3.164   7.066   8.086  1.8686  0.2583  0.3074
 1020MOL0     C40672   3.228   7.057   7.961 -0.7500 -0.5149  0.4909
 1020MOL0     N40673   3.810   6.908   7.928  0.7299  0.5965  0.5589
 1020MOL0     N40674   3.917   6.884   8.004  1.1022 -0.0601 -0.4616
 1020MOL0     C40675   4.614   7.799   8.431 -0.9291 -0.4042 -0.5907
 1020MOL0     C40676   4.601   7.931   8.391  0.4396 -0.0428 -0.3592
 1020MOL0     C40677   4.694   8.342   8.211  0.5185  0.4340 -1.0329
 1020MOL0     C40678   4.641   8.346   8.080  0.5539  0.2718 -0.3766
 1020MOL0     C40679   4.672   8.444   7.993 -0.5816 -0.4236  0.9005
 1020MOL0     C40680   4.739   8.559   8.031 -0.4038  1.0503  0.4281
 1020MOL0     O40681   4.769   8.639   7.928 -0.4734 -0.5721  0.0065
 1020MOL0     C40682   4.836   8.762   7.955 -0.9480 -0.5559  0.6014
 1020MOL0     C40683   4.846   8.837   7.832 -0.8973  0.0612  0.7602
 1020MOL0     C40684   4.906   8.750   7.717  0.3291 -0.3832  0.1994
 1020MOL0     C40685   5.027   8.669   7.754 -0.9787  0.1025  0.0649
 1020MOL0     C40686   5.134   8.746   7.813 -0.5940 -0.1513  0.2765
 1020MOL0     C40687   5.220   8.810   7.862 -0.7050 -0.0512  0.8204
 1020MOL0     C40688   4.773   8.569   8.168  0.0712 -0.2952 -0.4630
 1020MOL0     C40689   4.755   8.461   8.260 -0.0070 -0.1164 -0.4885
 1020MOL0     C40690   4.823   8.475   8.398 -0.5580 -0.9569  0.6124
 1020MOL0     H40691   4.802   7.934   8.111 -0.6423  4.2683  1.3704
 1020MOL0     H40692   4.817   7.681   8.205 -1.6761 -0.0338 -1.3854
 1020MOL0     H40693   4.499   7.556   8.419  0.0914  0.3167  2.6024
 1020MOL0     H40694   4.579   7.505   8.563  1.4671  0.3520  0.1877
 1020MOL0     H40695   4.693   7.333   8.381 -0.4571  1.6650  0.0303
 1020MOL0     H40696   4.546   7.296   8.467 -0.9981 -1.0495 -1.4482
 1020MOL0     H40697   4.406   7.388   8.299 -0.0786  2.2007 -1.5056
 1020MOL0     H40698   4.546   7.425   8.193 -0.9860 -0.0175 -1.2227
 1020MOL0     H40699   4.581   7.174   8.159  0.2598  0.4454 -0.0396
 1020MOL0     H40700   4.478   7.139   8.295 -0.3268 -2.3959 -1.9486
 1020MOL0     H40701   4.375   7.295   8.046  0.0617  0.7923  1.4514
 1020MOL0     H40702   4.280   7.213   8.168  0.5177  0.6929  1.4026
 1020MOL0     H40703   4.466   7.094   7.966  1.8233 -2.1064  1.9503
 1020MOL0     H40704   4.400   6.991   8.090  0.1270 -1.7271 -1.3057
 1020MOL0     H40705   4.270   7.005   7.874  2.6949  0.8045 -1.1189
 1020MOL0     H40706   4.223   7.160   7.915 -1.5692 -2.3309 -3.1148
 1020MOL0     H40707   4.179   6.897   8.074  1.1825  1.4327  1.2622
 1020MOL0     H40708   4.138   7.047   8.134  1.3061 -2.7840  2.6663
 1020MOL0     H40709   3.973   7.181   7.855 -0.9123  0.1674 -0.9379
 1020MOL0     H40710   3.757   7.115   7.694 -1.8696  2.5746 -0.9035
 1020MOL0     H40711   3.681   7.190   7.838 -4.0499 -0.5567 -2.6489
 1020MOL0     H40712   3.624   6.927   7.700  2.9722  1.8625 -0.3408
 1020MOL0     H40713   3.555   6.954   7.862  1.2017 -3.6552 -0.9943
 1020MOL0     H40714   3.445   7.172   7.790  1.6743  0.9663 -0.8030
 1020MOL0     H40715   3.498   7.144   7.629  2.5114  1.2920  2.0587
 1020MOL0     H40716   3.241   7.065   7.668 -0.1304 -0.2754 -0.1360
 1020MOL0     H40717   3.360   6.962   7.586  0.6998  0.5200 -0.1694
 1020MOL0     H40718   3.287   6.727   7.950 -2.4565 -3.1958  1.5523
 1020MOL0     H40719   3.094   6.663   8.224 -0.8445  0.8472  1.5704
 1020MOL0     H40720   3.224   6.744   8.314 -0.9201 -0.8978  0.1031
 1020MOL0     H40721   3.259   6.633   8.184  0.5240  1.4727 -4.9471
 1020MOL0     H40722   2.736   6.970   8.408  0.0055  1.5749  0.3260
 1020MOL0     H40723   2.635   6.966   8.623 -0.1399 -0.2745 -2.1769
 1020MOL0     H40724   2.814   6.692   8.933 -1.8284 -0.3321  3.7101
 1020MOL0     H40725   2.914   6.841   8.961 -1.8268  2.7997 -0.6524
 1020MOL0     H40726   2.697   6.937   9.076  2.0661  1.5102  0.7159
 1020MOL0     H40727   2.660   6.761   9.089 -0.4595 -0.1455 -0.2360
 1020MOL0     H40728   2.917   6.781   9.201  1.3163  1.5557  2.9506
 1020MOL0     H40729   2.754   6.756   9.278 -1.0471  2.4110  2.7560
 1020MOL0     H40730   2.757   7.010   9.301 -2.7310 -2.8803 -1.3834
 1020MOL0     H40731   2.905   7.009   9.213  1.4193 -1.3434 -0.1386
 1020MOL0     H40732   2.876   6.860   9.475 -2.6291 -0.2072 -2.3299
 1020MOL0     H40733   3.020   6.873   9.382 -0.4494 -0.0825  0.7088
 1020MOL0     H40734   2.883   7.123   9.478  1.0984  1.7751 -1.9351
 1020MOL0     H40735   3.035   7.110   9.403 -1.5300 -3.2916 -2.8277
 1020MOL0     H40736   3.091   7.145   9.635 -0.0230 -0.5505 -1.0314
 1020MOL0     H40737   3.146   6.997   9.582 -1.7280 -1.7442 -5.0781
 1020MOL0     H40738   3.056   6.972   9.804  0.2442  2.2593  1.7158
 1020MOL0     H40739   2.959   6.872   9.702 -2.9219  0.6715  3.5472
 1020MOL0     H40740   2.982   6.740   8.760 -2.4902  0.3237  1.0403
 1020MOL0     H40741   3.089   6.790   8.545  0.3591  1.8281 -0.0515
 1020MOL0     H40742   3.119   7.163   8.104  0.2671 -0.2748 -0.5607
 1020MOL0     H40743   3.257   7.153   7.918  3.0375 -1.5073  0.4807
 1020MOL0     H40744   4.553   7.749   8.505 -2.5885  0.2119 -1.4751
 1020MOL0     H40745   4.535   8.002   8.441  1.7654 -0.6189  2.3951
 1020MOL0     H40746   4.595   8.257   8.038  0.2469  0.8771 -1.3404
 1020MOL0     H40747   4.638   8.439   7.891 -0.9443  2.4924  0.7979
 1020MOL0     H40748   4.789   8.828   8.028 -1.2116 -0.7855  0.6415
 1020MOL0     H40749   4.935   8.742   7.995 -0.2300  0.3370 -0.6637
 1020MOL0     H40750   4.911   8.923   7.848  2.0977 -1.5658 -1.6667
 1020MOL0     H40751   4.747   8.882   7.818  0.9678  4.0279 -1.2264
 1020MOL0     H40752   4.829   8.690   7.668  1.2055 -0.8199 -0.6773
 1020MOL0     H40753   4.934   8.825   7.642  0.7021  0.0538  0.7664
 1020MOL0     H40754   5.056   8.626   7.658  2.1688  3.7548 -0.8812
 1020MOL0     H40755   5.008   8.579   7.812  0.9581 -0.8231 -0.6404
 1020MOL0     H40756   5.310   8.835   7.915 -0.1201  0.2021 -0.2679
 1020MOL0     H40757   4.811   8.664   8.205  0.2724 -1.2338  1.9364
 1020MOL0     H40758   4.737   8.498   8.461  1.0885  1.4435  2.1771
 1020MOL0     H40759   4.873   8.378   8.411  1.4798  0.0550  0.7951
 1020MOL0     H40760   4.891   8.560   8.411  1.1288 -2.3988  1.8060
 1021MOL0     O40761   7.754   7.349   0.091 -0.5702 -0.4348  0.0309
 1021MOL0     C40762   7.657   7.294   0.119  0.6584  0.2856 -0.4130
 1021MOL0     O40763   7.637   7.229   0.238  1.1028  0.4759 -0.5785
 1021MOL0     C40764   7.732   7.191   0.323  0.1393 -0.1090  0.6210
 1021MOL0     C40765   7.844   7.126   0.268 -1.0566 -0.0725 -0.5589
 1021MOL0     C40766   7.947   7.069   0.347  0.8752  0.2918  0.3975
 1021MOL0     C40767   7.945   7.101   0.480 -0.4048  0.3007  0.7165
 1021MOL0     O40768   8.041   7.078   0.575  0.0149 -0.0784 -0.4748
 1021MOL0     C40769   8.178   7.086   0.536  0.2487  1.3056 -1.0451
 1021MOL0     C40770   8.240   6.949   0.489  1.2803  0.0230 -1.1506
 1021MOL0     C40771   8.244   6.840   0.604  0.2832 -0.6839 -0.0438
 1021MOL0     C40772   8.353   6.733   0.587  0.2935  0.3239  0.4156
 1021MOL0     C40773   8.351   6.640   0.711 -0.5157 -0.4592 -0.0457
 1021MOL0     C40774   8.471   6.548   0.694 -0.4833  0.4760  0.5071
 1021MOL0     C40775   8.475   6.442   0.816  0.1275  0.6726  1.6160
 1021MOL0     C40776   8.510   6.525   0.938 -0.1497  0.6058  0.3713
 1021MOL0     N40777   8.655   6.555   0.946  0.6129 -0.7868 -0.1292
 1021MOL0     C40778   8.763   6.491   0.885 -0.1936 -0.7388  1.3426
 1021MOL0     C40779   8.876   6.536   0.934 -1.3518 -0.1056 -0.5301
 1021MOL0     C40780   9.012   6.489   0.906  0.0803  0.0386  0.0020
 1021MOL0     C40781   9.093   6.598   0.833 -0.1965 -0.0426 -0.8680
 1021MOL0     C40782   9.032   6.632   0.698 -1.0974 -1.1079  0.5542
 1021MOL0     C40783   9.118   6.735   0.624  0.5355 -0.2157 -0.1354
 1021MOL0     O40784   9.122   6.712   0.477  0.1438 -0.9906 -0.8537
 1021MOL0     C40785   9.004   6.750   0.417 -0.5365  1.0140 -0.1841
 1021MOL0     C40786   8.919   6.652   0.364  0.3336  0.3113 -0.5479
 1021MOL0     C40787   8.796   6.686   0.312  0.0380 -0.1331  0.1274
 1021MOL0     C40788   8.721   6.568   0.260 -0.9821  0.1864 -0.0176
 1021MOL0     C40789   8.759   6.820   0.308 -0.7908 -0.1373  0.2731
 1021MOL0     C40790   8.621   6.860   0.261 -0.5167  0.7452  0.2345
 1021MOL0     O40791   8.606   6.963   0.179 -0.9253  0.4964  0.0276
 1021MOL0     C40792   8.474   6.984   0.143  0.3561 -0.8430  0.7829
 1021MOL0     C40793   8.426   6.929   0.023  0.4882 -0.3814  1.0308
 1021MOL0     C40794   8.296   6.957  -0.018  0.6321  0.8437  1.0550
 1021MOL0     C40795   8.221   7.063   0.041  0.0529  0.0737  0.9873
 1021MOL0     O40796   8.105   7.108  -0.007  0.2375 -0.0883 -0.2714
 1021MOL0     C40797   8.059   7.081  -0.143  0.8469  0.2472 -0.0920
 1021MOL0     C40798   7.936   7.164  -0.173  0.5672 -0.1918 -0.1954
 1021MOL0     C40799   7.890   7.140  -0.319 -1.8863 -0.5036 -0.2935
 1021MOL0     C40800   7.768   7.221  -0.344  0.2515  0.7845  0.2141
 1021MOL0     C40801   7.701   7.187  -0.474  0.4802 -0.4095  1.1881
 1021MOL0     C40802   7.555   7.145  -0.447 -0.1963  1.4228 -0.4080
 1021MOL0     C40803   7.469   7.183  -0.568 -0.0742  0.6439  1.2741
 1021MOL0     C40804   7.490   7.089  -0.685  0.0528 -1.0371  0.1652
 1021MOL0    Cl40805   7.371   6.966  -0.666  0.0201 -0.2584 -0.2300
 1021MOL0     C40806   8.276   7.130   0.152 -0.1741 -0.6449  0.2899
 1021MOL0     C40807   8.402   7.090   0.198  0.2421  0.0240  0.0958
 1021MOL0     O40808   8.539   6.787   0.306  0.1685 -0.3882 -0.3526
 1021MOL0     C40809   8.851   6.919   0.348 -0.7277 -0.2260  0.9078
 1021MOL0     C40810   8.968   6.889   0.411 -1.0606  0.2406  0.4682
 1021MOL0     N40811   8.839   6.638   1.026 -0.2372  0.3544  0.1616
 1021MOL0     N40812   8.710   6.661   1.020  0.8340  0.2886 -0.8864
 1021MOL0     C40813   7.832   7.162   0.537 -0.7952  0.6233 -0.3841
 1021MOL0     C40814   7.724   7.206   0.458 -0.0774  0.0157  0.7335
 1021MOL0     C40815   7.540   7.285   0.021  0.3538 -0.8718 -0.1501
 1021MOL0     C40816   7.476   7.162   0.010 -0.1910  0.1036 -0.9718
 1021MOL0     C40817   7.362   7.137  -0.072 -0.2366 -0.2594  0.0720
 1021MOL0     C40818   7.319   7.240  -0.157 -0.3291  0.0181 -0.7799
 1021MOL0     O40819   7.205   7.235  -0.232  0.9250 -0.2574  0.1825
 1021MOL0     C40820   7.165   7.100  -0.245 -0.0183  0.0269  0.3978
 1021MOL0     C40821   7.056   7.071  -0.352  0.9744  0.2756 -0.4055
 1021MOL0     C40822   7.022   6.929  -0.355 -0.3179 -0.0042  0.0950
 1021MOL0     C40823   6.888   6.892  -0.423  0.5633  0.3669  0.5723
 1021MOL0     C40824   6.774   6.917  -0.335  1.3573 -0.3254  0.8547
 1021MOL0     C40825   6.678   6.960  -0.269 -0.2528 -1.1089  0.8328
 1021MOL0     C40826   7.387   7.361  -0.160  0.1274 -0.6224  0.1985
 1021MOL0     C40827   7.493   7.391  -0.071 -0.7062  0.8020 -0.9281
 1021MOL0     C40828   7.554   7.523  -0.067  0.2412  0.1338  0.8912
 1021MOL0     H40829   7.853   7.127   0.160  0.6885  0.4361 -0.4415
 1021MOL0     H40830   8.034   7.020   0.303  1.5018  1.3846  0.3692
 1021MOL0     H40831   8.215   7.132   0.628 -3.6654  2.0212  0.3813
 1021MOL0     H40832   8.189   7.164   0.460  1.0314  2.8011  0.5460
 1021MOL0     H40833   8.192   6.915   0.396  1.0464 -1.4293 -0.5224
 1021MOL0     H40834   8.343   6.969   0.460  0.8795  1.2598 -1.8088
 1021MOL0     H40835   8.264   6.890   0.699  1.2732 -2.7459  0.8913
 1021MOL0     H40836   8.142   6.801   0.613 -0.9599  1.7298 -2.3395
 1021MOL0     H40837   8.329   6.681   0.493 -2.4839 -0.6449  1.5592
 1021MOL0     H40838   8.445   6.789   0.566  0.1747 -0.5115 -3.0533
 1021MOL0     H40839   8.262   6.576   0.711 -1.8361  1.2137 -2.4843
 1021MOL0     H40840   8.352   6.704   0.799  1.0000 -2.0609  1.1880
 1021MOL0     H40841   8.456   6.484   0.607  0.1282  1.6577 -0.4849
 1021MOL0     H40842   8.564   6.604   0.680 -0.3099 -0.0257 -0.3988
 1021MOL0     H40843   8.552   6.368   0.793  0.6102  2.2048 -2.4662
 1021MOL0     H40844   8.381   6.387   0.825 -0.8121  2.0735  0.7553
 1021MOL0     H40845   8.457   6.620   0.947  0.8029  1.1908 -0.0040
 1021MOL0     H40846   8.476   6.457   1.017 -0.6166  0.5436  0.1206
 1021MOL0     H40847   8.759   6.433   0.794 -2.1646  4.4838 -2.4083
 1021MOL0     H40848   9.000   6.392   0.857 -1.7600 -0.2359  0.8833
 1021MOL0     H40849   9.056   6.471   1.005  1.1968 -0.0959 -0.5042
 1021MOL0     H40850   9.090   6.684   0.901  3.1471 -1.7319  1.7490
 1021MOL0     H40851   9.196   6.562   0.827 -0.3270 -1.1500  1.9647
 1021MOL0     H40852   9.042   6.538   0.644 -0.3393 -0.0739 -1.1987
 1021MOL0     H40853   8.929   6.670   0.700 -0.2704  1.3906 -0.2824
 1021MOL0     H40854   9.099   6.838   0.655 -1.6444 -0.3620 -0.7829
 1021MOL0     H40855   9.217   6.718   0.666  0.3941  0.8954  0.6839
 1021MOL0     H40856   8.961   6.553   0.357 -0.9773 -0.2753 -0.4345
 1021MOL0     H40857   8.637   6.547   0.327  2.1115 -1.9825  3.5744
 1021MOL0     H40858   8.792   6.485   0.249  1.5786  2.4432 -1.9752
 1021MOL0     H40859   8.691   6.602   0.160 -1.9780 -0.4615  0.0496
 1021MOL0     H40860   8.480   6.866  -0.047 -0.2036  1.6552 -1.5041
 1021MOL0     H40861   8.255   6.912  -0.108  1.8386 -0.6708  1.2179
 1021MOL0     H40862   8.135   7.101  -0.219  0.8186  0.0570 -0.1698
 1021MOL0     H40863   8.020   6.979  -0.133 -2.4841  1.6123  2.7352
 1021MOL0     H40864   7.860   7.132  -0.101  1.3229 -0.2175  0.6087
 1021MOL0     H40865   7.970   7.267  -0.157  0.2675 -0.2648  1.0349
 1021MOL0     H40866   7.875   7.033  -0.337 -2.4914 -0.7521  1.5418
 1021MOL0     H40867   7.972   7.171  -0.385 -0.5476 -3.6307 -0.2799
 1021MOL0     H40868   7.791   7.328  -0.342  3.4331  0.2036  0.7014
 1021MOL0     H40869   7.709   7.182  -0.260  0.2412  1.1361  0.3693
 1021MOL0     H40870   7.692   7.277  -0.536 -1.8730 -0.9818  0.5800
 1021MOL0     H40871   7.752   7.125  -0.548  1.8989  2.7597 -0.6961
 1021MOL0     H40872   7.518   7.210  -0.367  0.8502  1.0646  0.3851
 1021MOL0     H40873   7.551   7.045  -0.404 -1.6887  1.3458 -0.6594
 1021MOL0     H40874   7.489   7.287  -0.593  1.8547  0.0842  0.2855
 1021MOL0     H40875   7.366   7.191  -0.531 -0.8900 -3.7161  0.5257
 1021MOL0     H40876   7.593   7.052  -0.693  1.4677  2.4365  0.5144
 1021MOL0     H40877   7.477   7.149  -0.775  2.0459  1.5999  1.4984
 1021MOL0     H40878   8.228   7.213   0.204 -0.5585  0.3636 -1.5964
 1021MOL0     H40879   8.433   7.134   0.292 -3.1176  2.7631  0.1274
 1021MOL0     H40880   8.817   7.020   0.329 -1.9282 -0.9315 -0.9760
 1021MOL0     H40881   9.044   6.954   0.453  2.9146 -2.4338 -1.8465
 1021MOL0     H40882   7.804   7.172   0.641 -1.5033 -0.7589 -0.4109
 1021MOL0     H40883   7.642   7.256   0.508 -0.4176  0.9858 -0.7350
 1021MOL0     H40884   7.511   7.078   0.070 -3.3748 -0.3210  0.5033
 1021MOL0     H40885   7.329   7.034  -0.082  0.0532 -0.5634  1.7898
 1021MOL0     H40886   7.244   7.032  -0.279 -1.5263 -1.5162 -0.1820
 1021MOL0     H40887   7.127   7.062  -0.149  0.6265 -2.6692 -0.3280
 1021MOL0     H40888   7.111   7.087  -0.444  0.8991 -2.0699 -0.9277
 1021MOL0     H40889   6.971   7.139  -0.345  0.2582 -0.5095 -1.2438
 1021MOL0     H40890   7.100   6.879  -0.414 -0.2291  2.7014 -2.2609
 1021MOL0     H40891   7.021   6.897  -0.250 -0.3782  1.8835  0.7094
 1021MOL0     H40892   6.886   6.787  -0.454  0.4863  0.1093  1.4383
 1021MOL0     H40893   6.891   6.936  -0.524  0.4784 -3.5131 -1.3148
 1021MOL0     H40894   6.608   7.004  -0.200 -2.9465  2.4053 -3.5601
 1021MOL0     H40895   7.344   7.438  -0.223 -0.3704 -1.6971 -0.8176
 1021MOL0     H40896   7.556   7.564   0.034 -2.2209  1.5380  0.4655
 1021MOL0     H40897   7.651   7.511  -0.116  0.8048 -0.2014  2.0651
 1021MOL0     H40898   7.488   7.593  -0.120 -1.7316 -2.2987 -0.0361
 1022MOL0     O40899   1.500   4.020   8.291  0.8166  0.4294 -0.0647
 1022MOL0     C40900   1.509   4.141   8.312 -1.1624 -0.1419  0.6509
 1022MOL0     O40901   1.611   4.208   8.260  0.2783 -0.4915  0.5926
 1022MOL0     C40902   1.737   4.155   8.253  0.3604 -0.4642 -0.3741
 1022MOL0     C40903   1.828   4.203   8.343 -0.5119 -0.1684  0.2920
 1022MOL0     C40904   1.957   4.161   8.352 -0.7672 -0.0010  0.6533
 1022MOL0     C40905   2.003   4.055   8.284 -0.1764  0.2751 -0.0863
 1022MOL0     O40906   2.144   4.023   8.279  0.2835  0.1899 -0.7242
 1022MOL0     C40907   2.179   3.891   8.294  1.1801  0.6170  0.5149
 1022MOL0     C40908   2.203   3.865   8.445  0.1219  0.7882  0.7676
 1022MOL0     C40909   2.223   3.711   8.465 -1.0735 -0.5923 -0.2749
 1022MOL0     C40910   2.372   3.674   8.448 -0.6569 -0.1788  0.0182
 1022MOL0     C40911   2.393   3.535   8.388 -0.4599  0.7002 -0.6075
 1022MOL0     C40912   2.550   3.511   8.379  0.1681 -0.0404 -0.8375
 1022MOL0     C40913   2.571   3.359   8.342 -0.0246 -0.2879 -0.1122
 1022MOL0     C40914   2.604   3.275   8.463  0.3006 -0.5896  0.3004
 1022MOL0     N40915   2.621   3.135   8.426 -0.0978 -0.2076 -1.4514
 1022MOL0     C40916   2.520   3.043   8.398 -0.5501  0.4011  0.2764
 1022MOL0     C40917   2.596   2.939   8.338 -0.0428  0.4110 -0.2565
 1022MOL0     C40918   2.553   2.797   8.293  0.9334  0.3733  0.7683
 1022MOL0     C40919   2.577   2.783   8.143 -0.5758 -0.6499 -0.3745
 1022MOL0     C40920   2.563   2.632   8.107 -0.1503 -0.2458  0.3301
 1022MOL0     C40921   2.498   2.614   7.965 -0.0002 -0.4719 -0.3786
 1022MOL0     O40922   2.573   2.697   7.878 -0.3416  0.8108 -0.4022
 1022MOL0     C40923   2.528   2.711   7.748  0.3832 -1.4475  0.4557
 1022MOL0     C40924   2.491   2.602   7.668 -0.5929 -0.0258 -0.0755
 1022MOL0     C40925   2.450   2.626   7.533  0.1912 -0.0968 -0.0966
 1022MOL0     C40926   2.430   2.494   7.448  0.8551 -0.3150  0.3713
 1022MOL0     C40927   2.446   2.763   7.481 -0.2920  0.6807  0.2784
 1022MOL0     C40928   2.413   2.797   7.347  0.2544 -0.0440  0.7358
 1022MOL0     O40929   2.369   2.688   7.264 -0.0587 -0.6324  0.1346
 1022MOL0     C40930   2.388   2.709   7.125  0.2386  0.1613 -1.2395
 1022MOL0     C40931   2.280   2.741   7.041  0.5567  1.1131 -0.1493
 1022MOL0     C40932   2.306   2.765   6.906 -0.8944 -0.5287  0.0791
 1022MOL0     C40933   2.436   2.751   6.850  0.0540 -0.6538 -0.4739
 1022MOL0     O40934   2.444   2.750   6.713 -0.1972  0.9435  0.2976
 1022MOL0     C40935   2.559   2.819   6.663  0.0317  0.0379 -0.3534
 1022MOL0     C40936   2.583   2.764   6.525 -0.1648  0.1379 -1.2083
 1022MOL0     C40937   2.662   2.621   6.533  0.2694  1.3113 -1.6226
 1022MOL0     C40938   2.635   2.555   6.404  0.3970  1.7685 -0.5044
 1022MOL0     C40939   2.695   2.415   6.409  0.3353 -0.0961 -0.0539
 1022MOL0     C40940   2.594   2.303   6.431 -0.0836 -0.3824 -0.2900
 1022MOL0     C40941   2.656   2.163   6.416 -0.4480 -0.7678 -0.0512
 1022MOL0     C40942   2.767   2.138   6.516 -0.0897 -1.0194 -0.0065
 1022MOL0    Cl40943   2.706   2.156   6.688  0.3580 -0.2749 -0.3369
 1022MOL0     C40944   2.540   2.721   6.935  0.1271  0.6549  0.7914
 1022MOL0     C40945   2.517   2.709   7.070  0.1607 -0.2857 -0.1418
 1022MOL0     O40946   2.421   2.910   7.314 -0.3159 -0.5082  0.0218
 1022MOL0     C40947   2.485   2.865   7.565 -0.6364 -0.1456  1.2940
 1022MOL0     C40948   2.525   2.844   7.697  0.0436  0.4491  0.0371
 1022MOL0     N40949   2.732   2.981   8.331 -0.0326 -0.5464  0.1332
 1022MOL0     N40950   2.737   3.096   8.381 -0.7600  0.5261 -0.5025
 1022MOL0     C40951   1.907   3.984   8.199 -0.1154  0.0161  0.3678
 1022MOL0     C40952   1.774   4.035   8.180  0.2945 -0.4502  0.1915
 1022MOL0     C40953   1.414   4.230   8.382  1.2373  0.6500 -0.7495
 1022MOL0     C40954   1.458   4.345   8.440 -0.0752  0.8461 -0.1970
 1022MOL0     C40955   1.366   4.436   8.495  0.0830 -0.0071  1.6178
 1022MOL0     C40956   1.230   4.409   8.504 -0.2248 -0.4036  0.8237
 1022MOL0     O40957   1.136   4.480   8.574  0.8934  0.3503 -0.5922
 1022MOL0     C40958   1.171   4.601   8.624  0.4845 -0.3989  0.7067
 1022MOL0     C40959   1.241   4.587   8.765 -0.1706  0.3521  0.8326
 1022MOL0     C40960   1.256   4.732   8.813  0.1985 -0.4662 -0.1169
 1022MOL0     C40961   1.252   4.731   8.965 -0.2714 -0.1541  0.1919
 1022MOL0     C40962   1.235   4.864   9.013 -0.1212  0.3789  0.9272
 1022MOL0     C40963   1.239   4.969   9.049  0.1622 -0.3491 -0.7517
 1022MOL0     C40964   1.188   4.282   8.458  0.1794  0.0546  0.3440
 1022MOL0     C40965   1.276   4.188   8.402  0.1501  0.3093 -1.0176
 1022MOL0     C40966   1.216   4.052   8.357  0.2755  0.2076  0.3579
 1022MOL0     H40967   1.799   4.276   8.418 -3.5022 -3.0299  2.2278
 1022MOL0     H40968   2.022   4.200   8.430  1.9371  0.0586 -1.4945
 1022MOL0     H40969   2.270   3.881   8.234 -0.1597 -0.0572 -1.5446
 1022MOL0     H40970   2.102   3.827   8.250  0.5054  1.9106 -0.2318
 1022MOL0     H40971   2.289   3.923   8.478  0.3198  1.9514 -1.5718
 1022MOL0     H40972   2.111   3.901   8.492 -1.9998 -0.6107 -1.9526
 1022MOL0     H40973   2.180   3.674   8.558 -0.1253 -2.0378 -0.3819
 1022MOL0     H40974   2.167   3.656   8.389 -0.3064  0.1308 -1.4024
 1022MOL0     H40975   2.429   3.746   8.389 -1.8173  0.2231 -0.6576
 1022MOL0     H40976   2.418   3.680   8.547  5.4087  2.8584 -2.4692
 1022MOL0     H40977   2.350   3.540   8.288 -3.7821 -0.9976  0.5967
 1022MOL0     H40978   2.353   3.460   8.457  1.1004  0.7720  0.4262
 1022MOL0     H40979   2.584   3.582   8.303 -0.0732  2.8357  1.5549
 1022MOL0     H40980   2.595   3.525   8.478  1.4713 -0.4522 -1.3459
 1022MOL0     H40981   2.658   3.365   8.276 -0.9383 -0.2519 -1.3614
 1022MOL0     H40982   2.488   3.318   8.283  0.8927  2.0819 -3.2849
 1022MOL0     H40983   2.703   3.310   8.494 -0.4756  1.9399  0.1078
 1022MOL0     H40984   2.530   3.292   8.542 -1.9553  2.9168 -2.2700
 1022MOL0     H40985   2.412   3.045   8.399 -0.5889 -0.7605  1.8780
 1022MOL0     H40986   2.448   2.769   8.302  1.3970 -2.6055 -1.4614
 1022MOL0     H40987   2.609   2.729   8.357  2.0559 -0.6883 -1.2218
 1022MOL0     H40988   2.496   2.840   8.096 -1.3605  0.3339  2.0163
 1022MOL0     H40989   2.672   2.821   8.103 -1.3865  1.7239 -0.2239
 1022MOL0     H40990   2.664   2.589   8.112 -0.1344 -0.1802  4.5501
 1022MOL0     H40991   2.512   2.592   8.196  0.3575  1.9067  1.6505
 1022MOL0     H40992   2.507   2.506   7.945  2.2311 -0.0727 -2.0491
 1022MOL0     H40993   2.394   2.645   7.958 -1.0003 -2.8775  2.1233
 1022MOL0     H40994   2.509   2.502   7.708  1.7424 -0.6260 -2.3684
 1022MOL0     H40995   2.493   2.500   7.359 -0.2044 -2.5159 -0.5900
 1022MOL0     H40996   2.323   2.495   7.423  0.5932 -0.6419  1.4072
 1022MOL0     H40997   2.459   2.409   7.510 -0.4341  0.2919  1.8932
 1022MOL0     H40998   2.178   2.741   7.078  0.3529 -0.0613 -0.6928
 1022MOL0     H40999   2.215   2.794   6.854 -0.5724 -1.5539 -1.1155
 1022MOL0     H41000   2.540   2.927   6.657 -0.6188 -0.1425 -3.0937
 1022MOL0     H41001   2.651   2.803   6.720 -0.1767 -2.6523 -0.6409
 1022MOL0     H41002   2.487   2.757   6.474 -0.5809 -1.1117 -0.3043
 1022MOL0     H41003   2.648   2.835   6.472 -1.1920  3.1822  1.3066
 1022MOL0     H41004   2.617   2.552   6.605 -0.6362  3.4654 -0.0083
 1022MOL0     H41005   2.770   2.615   6.546 -0.0520  0.5182  1.8029
 1022MOL0     H41006   2.678   2.614   6.322  0.0383 -0.2111 -2.2024
 1022MOL0     H41007   2.531   2.553   6.372  0.3101  3.3746 -0.4386
 1022MOL0     H41008   2.749   2.393   6.316  2.9076 -2.3958  1.8125
 1022MOL0     H41009   2.767   2.398   6.490 -2.1138 -1.7107  1.9620
 1022MOL0     H41010   2.515   2.299   6.356  0.9253  1.8599 -1.5834
 1022MOL0     H41011   2.542   2.316   6.526  0.7917  2.1239 -0.0544
 1022MOL0     H41012   2.692   2.158   6.313  1.1559 -1.7943  0.5283
 1022MOL0     H41013   2.585   2.082   6.435  2.4554 -3.3269  0.5755
 1022MOL0     H41014   2.863   2.188   6.502 -0.3208 -0.2875  0.9140
 1022MOL0     H41015   2.803   2.035   6.506  2.0430 -0.1947 -1.5469
 1022MOL0     H41016   2.636   2.697   6.891 -0.0787  1.6709 -0.2609
 1022MOL0     H41017   2.595   2.680   7.140 -2.2796 -3.6274  1.4814
 1022MOL0     H41018   2.481   2.971   7.544  1.4773  0.2032  2.3270
 1022MOL0     H41019   2.551   2.921   7.769  0.5398  2.0878 -1.8103
 1022MOL0     H41020   1.908   3.887   8.149 -3.7677 -0.2057  0.4667
 1022MOL0     H41021   1.694   3.998   8.116 -0.6927  0.3675  0.9104
 1022MOL0     H41022   1.560   4.382   8.442  0.1372  0.3073  2.5255
 1022MOL0     H41023   1.406   4.532   8.523  0.1873  0.7488 -0.8428
 1022MOL0     H41024   1.243   4.651   8.559 -0.6036  1.4265  0.8240
 1022MOL0     H41025   1.073   4.649   8.636 -0.2578 -1.8710  0.7314
 1022MOL0     H41026   1.339   4.543   8.746 -1.7307 -2.2479 -1.9745
 1022MOL0     H41027   1.177   4.525   8.827 -0.5866  0.0309  0.0878
 1022MOL0     H41028   1.348   4.774   8.771  0.3525  1.6127  2.0552
 1022MOL0     H41029   1.176   4.800   8.783 -0.9712 -0.4727  2.6402
 1022MOL0     H41030   1.345   4.689   9.007  1.9668  3.4547 -0.6862
 1022MOL0     H41031   1.162   4.673   8.987 -2.3529  2.7200 -0.1909
 1022MOL0     H41032   1.227   5.070   9.082  1.5145 -0.6331  0.7234
 1022MOL0     H41033   1.086   4.248   8.472 -0.2494  2.1347  3.1755
 1022MOL0     H41034   1.230   4.025   8.252 -0.9441  0.4869  0.1102
 1022MOL0     H41035   1.273   3.981   8.418 -0.2255 -1.2944 -0.8765
 1022MOL0     H41036   1.107   4.055   8.369  0.0106  0.9522 -1.8794
 1023MOL0     O41037  10.271   4.051   6.438 -0.2515 -0.3187  0.2859
 1023MOL0     C41038  10.228   4.114   6.335 -0.0075 -0.0034 -1.3824
 1023MOL0     O41039  10.304   4.169   6.243  0.0658 -0.2779  0.2366
 1023MOL0     C41040  10.439   4.167   6.247  0.0592 -0.2178 -0.7185
 1023MOL0     C41041  10.505   4.126   6.130 -0.1547 -0.3084 -0.4195
 1023MOL0     C41042  10.648   4.123   6.145 -1.0844  0.3343 -0.2737
 1023MOL0     C41043  10.720   4.155   6.256  0.8259 -0.1281  0.3389
 1023MOL0     O41044  10.851   4.128   6.266  0.5572  0.6407 -0.6101
 1023MOL0     C41045  10.879   4.037   6.371  0.1951 -0.6349 -0.2173
 1023MOL0     C41046  10.978   3.930   6.328 -0.5498  0.1858 -0.1186
 1023MOL0     C41047  10.926   3.846   6.204 -0.1390 -0.0540 -0.4921
 1023MOL0     C41048  11.009   3.732   6.145  0.7478  0.5724  0.6293
 1023MOL0     C41049  10.960   3.593   6.205 -0.6332  0.3764  0.4353
 1023MOL0     C41050  11.001   3.564   6.355  0.6981  0.0445  0.1400
 1023MOL0     C41051  10.953   3.419   6.390 -0.4461 -0.2496 -0.3126
 1023MOL0     C41052  10.973   3.407   6.546 -0.0553 -0.0338 -0.0617
 1023MOL0     N41053  10.939   3.268   6.576 -0.3689 -0.9894  1.0994
 1023MOL0     C41054  10.818   3.205   6.555  0.1675  0.4916  0.0030
 1023MOL0     C41055  10.846   3.074   6.549 -0.3856 -0.5336 -0.0816
 1023MOL0     C41056  10.756   2.957   6.544 -0.0682  0.1795 -0.2814
 1023MOL0     C41057  10.746   2.879   6.675 -1.0366 -0.7800  0.5257
 1023MOL0     C41058  10.618   2.813   6.691  0.0422  0.4435 -0.4596
 1023MOL0     C41059  10.586   2.765   6.830  0.5308 -0.1624  0.4655
 1023MOL0     O41060  10.676   2.652   6.855 -0.2422  0.6225  0.1718
 1023MOL0     C41061  10.714   2.620   6.985  0.9113  0.5625  0.2402
 1023MOL0     C41062  10.784   2.504   7.007  0.3038  0.2650  0.3496
 1023MOL0     C41063  10.835   2.458   7.126  0.0604  0.1698 -0.5413
 1023MOL0     C41064  10.916   2.329   7.131 -0.1402  0.7059 -0.7323
 1023MOL0     C41065  10.810   2.539   7.240 -0.5955 -0.1739 -0.0835
 1023MOL0     C41066  10.853   2.503   7.377 -0.4562  0.2729  0.0729
 1023MOL0     O41067  10.831   2.597   7.473 -0.0763  0.2086 -0.2496
 1023MOL0     C41068  10.903   2.575   7.586  1.0590  0.8096  0.4826
 1023MOL0     C41069  10.830   2.524   7.695 -0.9525 -0.2239 -0.1971
 1023MOL0     C41070  10.889   2.542   7.823 -1.0210  0.3117 -0.4265
 1023MOL0     C41071  11.017   2.602   7.840  1.0162 -1.2635 -0.3848
 1023MOL0     O41072  11.053   2.628   7.969  0.1711  0.3923  0.0736
 1023MOL0     C41073  11.135   2.744   7.990 -0.5685 -0.2021 -0.5276
 1023MOL0     C41074  11.153   2.766   8.139  0.7486  0.6500 -0.2255
 1023MOL0     C41075  11.208   2.909   8.173  0.7986 -0.6284 -0.3233
 1023MOL0     C41076  11.245   2.904   8.313  0.4369  0.1700 -0.7343
 1023MOL0     C41077  11.311   3.032   8.362  0.4688 -0.3766  0.5074
 1023MOL0     C41078  11.329   3.051   8.509 -0.1606  0.2658 -0.4828
 1023MOL0     C41079  11.422   3.181   8.507 -0.3434  0.8734 -0.0338
 1023MOL0     C41080  11.448   3.215   8.638  0.3452 -1.2185 -0.2328
 1023MOL0    Cl41081  11.627   3.251   8.655 -0.0748 -0.0702 -0.1029
 1023MOL0     C41082  11.086   2.646   7.721 -0.0385 -0.0454 -1.3570
 1023MOL0     C41083  11.029   2.633   7.598  0.5371  0.1291  0.2402
 1023MOL0     O41084  10.909   2.391   7.392  0.0284 -0.6573 -0.0365
 1023MOL0     C41085  10.742   2.662   7.223 -0.9020 -0.5264 -0.4640
 1023MOL0     C41086  10.695   2.700   7.095  0.2805 -0.2695 -0.8482
 1023MOL0     N41087  10.982   3.058   6.572  0.9687 -0.1335  0.3505
 1023MOL0     N41088  11.036   3.174   6.594 -0.2927 -0.3974 -0.3054
 1023MOL0     C41089  10.643   4.196   6.373 -0.2270  0.1771 -0.4579
 1023MOL0     C41090  10.506   4.200   6.364  0.6176  0.8104  0.2873
 1023MOL0     C41091  10.073   4.133   6.331 -0.2877  0.7943  0.7257
 1023MOL0     C41092   9.994   4.061   6.433 -0.4249 -0.7580  0.1581
 1023MOL0     C41093   9.854   4.082   6.434 -0.2168 -0.2073  0.2443
 1023MOL0     C41094   9.790   4.147   6.334 -0.7993 -0.1544  0.5693
 1023MOL0     O41095   9.660   4.162   6.336  0.4627 -0.0120  0.3693
 1023MOL0     C41096   9.584   4.189   6.209 -0.6265 -0.0900 -0.0957
 1023MOL0     C41097   9.452   4.116   6.202  0.2831 -0.0942  0.5739
 1023MOL0     C41098   9.477   3.965   6.170  0.0053  0.1754 -0.4283
 1023MOL0     C41099   9.342   3.891   6.133  0.1762 -0.8715  0.1432
 1023MOL0     C41100   9.252   3.890   6.248  0.5961 -0.2650  0.3577
 1023MOL0     C41101   9.170   3.888   6.341  0.9411  0.0854 -0.2532
 1023MOL0     C41102   9.865   4.228   6.252 -0.4925  0.1748 -0.5126
 1023MOL0     C41103  10.008   4.229   6.257 -0.3819 -0.7515  1.3359
 1023MOL0     C41104  10.084   4.318   6.172  0.0165  0.3060 -0.1392
 1023MOL0     H41105  10.448   4.109   6.039 -1.1349 -1.1399  0.3308
 1023MOL0     H41106  10.712   4.084   6.066 -1.1163  1.7209 -1.0380
 1023MOL0     H41107  10.781   3.998   6.402  0.5570 -0.3793  1.3331
 1023MOL0     H41108  10.921   4.095   6.454  0.9320  1.5156 -2.0093
 1023MOL0     H41109  11.073   3.982   6.314  0.4551 -1.5786 -0.1849
 1023MOL0     H41110  11.001   3.850   6.399  1.8810 -1.8532 -2.9250
 1023MOL0     H41111  10.828   3.813   6.241  0.3327 -1.5013 -0.5008
 1023MOL0     H41112  10.906   3.927   6.134 -3.0400  0.1363  0.4300
 1023MOL0     H41113  10.982   3.725   6.039 -1.5353 -3.3911  1.2961
 1023MOL0     H41114  11.116   3.746   6.166  1.4510 -3.3123  0.3022
 1023MOL0     H41115  11.000   3.509   6.147  1.7738  1.8661 -0.1870
 1023MOL0     H41116  10.851   3.601   6.192 -0.4055  1.5928 -1.0566
 1023MOL0     H41117  11.110   3.567   6.363  0.6593  0.1038  0.6865
 1023MOL0     H41118  10.947   3.637   6.416 -3.2945 -2.4056 -0.0797
 1023MOL0     H41119  11.019   3.347   6.341  0.3661  0.7427 -0.7081
 1023MOL0     H41120  10.849   3.403   6.361 -1.0919  0.5817  1.4102
 1023MOL0     H41121  11.076   3.427   6.574 -0.8089  2.5257  1.2330
 1023MOL0     H41122  10.898   3.474   6.589 -2.4581 -0.9551 -2.5255
 1023MOL0     H41123  10.720   3.252   6.548 -0.4804 -0.8858 -0.6593
 1023MOL0     H41124  10.787   2.883   6.470  0.7684  2.2074 -2.0590
 1023MOL0     H41125  10.657   2.993   6.515  0.1518  2.1212  1.2410
 1023MOL0     H41126  10.829   2.808   6.678  0.8215  1.2736  0.2884
 1023MOL0     H41127  10.757   2.943   6.763 -0.2432  1.6408 -1.2243
 1023MOL0     H41128  10.536   2.874   6.652  2.0688  1.4674 -3.5745
 1023MOL0     H41129  10.633   2.719   6.636  1.2677  1.3010 -1.6616
 1023MOL0     H41130  10.582   2.856   6.891 -3.5774 -1.1229  1.9677
 1023MOL0     H41131  10.482   2.733   6.835 -0.2495  0.4190 -5.3815
 1023MOL0     H41132  10.800   2.443   6.919  0.4371 -1.1277  1.3202
 1023MOL0     H41133  11.015   2.348   7.174 -0.7182  0.8899  0.5759
 1023MOL0     H41134  10.919   2.291   7.029  0.8980 -1.2365 -0.0286
 1023MOL0     H41135  10.861   2.256   7.192  3.0606 -0.2965  1.2287
 1023MOL0     H41136  10.726   2.498   7.680 -0.9408  0.5375 -1.8018
 1023MOL0     H41137  10.821   2.512   7.902  1.1142  2.4893  2.4389
 1023MOL0     H41138  11.230   2.730   7.937 -1.7664  0.1506 -2.9008
 1023MOL0     H41139  11.089   2.827   7.935  0.9183 -0.1806 -1.8090
 1023MOL0     H41140  11.058   2.746   8.191 -0.3075 -1.3544 -2.6992
 1023MOL0     H41141  11.238   2.701   8.162 -0.1224 -1.6426 -2.8658
 1023MOL0     H41142  11.131   2.983   8.149  0.6595 -1.1328 -1.5055
 1023MOL0     H41143  11.296   2.928   8.110  0.6167  1.7482  0.0405
 1023MOL0     H41144  11.315   2.823   8.332 -0.7962 -0.5716  0.8800
 1023MOL0     H41145  11.149   2.888   8.363 -0.3784  4.5643 -0.4210
 1023MOL0     H41146  11.410   3.031   8.315  1.1576 -0.8770  1.8960
 1023MOL0     H41147  11.252   3.116   8.326 -1.1587 -0.9202  1.7979
 1023MOL0     H41148  11.373   2.963   8.557 -0.5340  0.9120  1.1067
 1023MOL0     H41149  11.233   3.066   8.559 -2.5188  1.4949 -4.8226
 1023MOL0     H41150  11.374   3.268   8.462  1.8496  2.3966  0.4313
 1023MOL0     H41151  11.516   3.151   8.461 -2.8674 -3.3948 -3.2090
 1023MOL0     H41152  11.416   3.140   8.712 -0.4727  2.1727  3.1355
 1023MOL0     H41153  11.392   3.302   8.672 -1.1553 -1.4866 -1.8481
 1023MOL0     H41154  11.177   2.706   7.723  0.6228 -1.0247 -0.8990
 1023MOL0     H41155  11.066   2.680   7.508 -1.0847  1.8392  0.3958
 1023MOL0     H41156  10.746   2.724   7.312  2.1409 -4.4757  2.5379
 1023MOL0     H41157  10.637   2.791   7.087 -1.8641 -1.2153  2.1042
 1023MOL0     H41158  10.690   4.232   6.464 -1.7166  0.1908  0.3412
 1023MOL0     H41159  10.448   4.219   6.454  1.1779 -1.9077  1.3237
 1023MOL0     H41160  10.046   3.994   6.501  1.7704 -0.0685 -0.7391
 1023MOL0     H41161   9.790   4.035   6.508  1.3567 -1.7913  0.6697
 1023MOL0     H41162   9.565   4.297   6.215 -2.2051 -0.4105  1.6063
 1023MOL0     H41163   9.632   4.163   6.115  1.2082  1.6132  0.3028
 1023MOL0     H41164   9.410   4.146   6.105 -2.0064 -2.8537  0.5970
 1023MOL0     H41165   9.387   4.140   6.286 -0.4273  1.6617 -0.4209
 1023MOL0     H41166   9.555   3.948   6.095  1.0112 -4.0742  1.2944
 1023MOL0     H41167   9.515   3.908   6.255  1.1729 -2.7777 -2.7510
 1023MOL0     H41168   9.361   3.789   6.100 -2.1972 -0.5410 -2.6459
 1023MOL0     H41169   9.294   3.940   6.048  3.9526  0.4754 -1.4516
 1023MOL0     H41170   9.111   3.885   6.430  1.4527  3.3801  0.3432
 1023MOL0     H41171   9.813   4.285   6.177  0.1223  2.3547  0.6184
 1023MOL0     H41172  10.011   4.381   6.121  0.2548 -0.0245 -0.8907
 1023MOL0     H41173  10.140   4.380   6.242 -0.5327 -0.3882  0.9516
 1023MOL0     H41174  10.143   4.265   6.097 -0.0875 -0.1353  0.0847
 1024MOL0     O41175   2.573   5.313   9.844  0.0289  0.2633  0.0180
 1024MOL0     C41176   2.511   5.338   9.738  0.1830  1.3732 -1.3517
 1024MOL0     O41177   2.382   5.305   9.721 -0.2914  0.2948 -0.4062
 1024MOL0     C41178   2.311   5.268   9.830 -0.0156 -0.0365 -1.0197
 1024MOL0     C41179   2.295   5.360   9.929  0.2823  0.2594  0.0589
 1024MOL0     C41180   2.223   5.332  10.046  0.2990  1.0309  0.5175
 1024MOL0     C41181   2.173   5.202  10.057 -0.5414 -0.0416  0.3865
 1024MOL0     O41182   2.100   5.152  10.156 -0.6434  0.1431 -0.5033
 1024MOL0     C41183   2.010   5.245  10.223 -0.0963  1.2353  0.0915
 1024MOL0     C41184   1.893   5.160  10.290 -0.3903 -0.0917 -0.3689
 1024MOL0     C41185   1.823   5.097  10.171  0.0107 -0.6827  0.9480
 1024MOL0     C41186   1.753   4.970  10.206 -0.4771  0.6717 -0.8450
 1024MOL0     C41187   1.645   4.944  10.099 -0.6415  0.4072 -1.0339
 1024MOL0     C41188   1.703   4.876   9.978 -0.1705 -0.1167  0.3643
 1024MOL0     C41189   1.612   4.873   9.856  0.0954  1.1096 -0.3730
 1024MOL0     C41190   1.661   4.776   9.748 -0.0552 -0.1339  0.6061
 1024MOL0     N41191   1.801   4.800   9.707 -0.9063  0.2540  0.1626
 1024MOL0     C41192   1.828   4.888   9.606  0.1131  0.4356 -0.4228
 1024MOL0     C41193   1.955   4.916   9.626  0.1615 -0.3579  0.3576
 1024MOL0     C41194   2.030   5.021   9.543  1.0489 -0.6212 -0.6130
 1024MOL0     C41195   2.133   4.942   9.460 -0.2716 -0.0422 -0.0618
 1024MOL0     C41196   2.241   5.039   9.425 -0.0208  0.3611  0.7174
 1024MOL0     C41197   2.361   4.985   9.352 -0.5419  0.3502  0.1217
 1024MOL0     O41198   2.457   5.094   9.327  0.1663 -0.1256  0.8880
 1024MOL0     C41199   2.558   5.083   9.237  0.2316  0.7667  0.0811
 1024MOL0     C41200   2.586   4.964   9.168 -0.5353 -0.6955 -0.1068
 1024MOL0     C41201   2.669   4.949   9.059 -0.4329 -0.3814 -0.5653
 1024MOL0     C41202   2.710   4.814   9.016  0.6726  0.1810  0.3130
 1024MOL0     C41203   2.738   5.064   9.021 -0.9298  0.2789  0.2659
 1024MOL0     C41204   2.852   5.068   8.919  0.5358 -0.9545  0.2765
 1024MOL0     O41205   2.894   5.196   8.878  0.5499  0.2130  0.8236
 1024MOL0     C41206   2.971   5.218   8.766 -0.7351 -0.9085 -0.2784
 1024MOL0     C41207   3.011   5.121   8.665 -0.3478  0.1555  0.1303
 1024MOL0     C41208   3.092   5.169   8.554  0.4657  0.3557  0.1497
 1024MOL0     C41209   3.121   5.306   8.549 -0.7045 -1.2816  0.9497
 1024MOL0     O41210   3.180   5.336   8.424  0.0736  0.2282  0.6425
 1024MOL0     C41211   3.216   5.475   8.398 -0.3911 -0.4590 -0.2395
 1024MOL0     C41212   3.298   5.482   8.268 -0.0594  0.6252 -0.4220
 1024MOL0     C41213   3.221   5.420   8.141  0.4486  0.0101  0.2546
 1024MOL0     C41214   3.105   5.511   8.081  0.3956  0.2086 -0.7279
 1024MOL0     C41215   3.125   5.674   8.085  0.2972 -0.1972 -0.0872
 1024MOL0     C41216   3.015   5.742   8.002  0.7795 -0.5689  0.8989
 1024MOL0     C41217   3.050   5.890   8.006 -0.9065 -0.4459 -0.5630
 1024MOL0     C41218   2.963   5.974   7.911  0.2742 -0.0040 -0.3773
 1024MOL0    Cl41219   3.004   5.973   7.734  0.4077 -0.1876  0.2602
 1024MOL0     C41220   3.080   5.397   8.649 -0.2055  1.1635 -0.6528
 1024MOL0     C41221   3.004   5.352   8.761  0.1617  0.4751 -0.5298
 1024MOL0     O41222   2.903   4.968   8.886 -0.2673  0.1756 -0.4156
 1024MOL0     C41223   2.711   5.183   9.086 -0.4161 -0.7347 -0.2965
 1024MOL0     C41224   2.619   5.194   9.192  0.0862  0.4711 -0.3151
 1024MOL0     N41225   2.014   4.840   9.727  0.6452  0.1460 -0.1045
 1024MOL0     N41226   1.917   4.778   9.784  0.0254 -0.1769 -0.0094
 1024MOL0     C41227   2.185   5.114   9.951 -0.2402 -0.0439  0.1245
 1024MOL0     C41228   2.253   5.146   9.842 -0.9859  0.7970 -0.3647
 1024MOL0     C41229   2.581   5.430   9.639 -0.3360  0.0663  0.5047
 1024MOL0     C41230   2.722   5.462   9.663  0.3532 -0.0228  0.4281
 1024MOL0     C41231   2.792   5.535   9.575 -0.3394  0.5291 -0.5485
 1024MOL0     C41232   2.731   5.583   9.460  0.0673  0.0208  0.3666
 1024MOL0     O41233   2.801   5.673   9.382  0.7287 -0.3984  0.8398
 1024MOL0     C41234   2.755   5.713   9.248  1.0031  0.1303  0.4132
 1024MOL0     C41235   2.797   5.603   9.149  0.3264 -0.4238  0.2983
 1024MOL0     C41236   2.711   5.623   9.020  0.5201 -0.0157 -0.1780
 1024MOL0     C41237   2.559   5.579   9.033 -0.1194  0.7471 -0.1173
 1024MOL0     C41238   2.510   5.536   8.908  0.0782  0.3399 -0.1763
 1024MOL0     C41239   2.475   5.503   8.794  0.6990 -0.2238 -0.3609
 1024MOL0     C41240   2.599   5.562   9.433  0.6584 -0.1525 -0.1709
 1024MOL0     C41241   2.527   5.482   9.522  0.9755 -0.3895  0.1846
 1024MOL0     C41242   2.380   5.453   9.489  0.6131 -0.8049 -0.1207
 1024MOL0     H41243   2.344   5.457   9.925  1.3719 -0.2111  1.2633
 1024MOL0     H41244   2.223   5.400  10.131 -1.3149  0.8850  0.6652
 1024MOL0     H41245   1.965   5.305  10.143 -0.2277 -0.6454 -1.3000
 1024MOL0     H41246   2.067   5.307  10.292  1.9729  1.9761 -2.1346
 1024MOL0     H41247   1.935   5.075  10.345 -3.1080  1.1952  4.2315
 1024MOL0     H41248   1.825   5.219  10.352 -0.4850 -0.4238 -0.1530
 1024MOL0     H41249   1.754   5.176  10.139  0.3219 -0.4188  0.9278
 1024MOL0     H41250   1.886   5.088  10.083  0.5265  2.6855  0.8381
 1024MOL0     H41251   1.820   4.883  10.206 -1.6286 -0.2432 -0.0952
 1024MOL0     H41252   1.710   4.992  10.304  1.0805  0.8492 -0.1764
 1024MOL0     H41253   1.593   5.033  10.061 -1.2972 -0.0478 -1.2249
 1024MOL0     H41254   1.576   4.872  10.145  3.6249 -4.4355 -1.3358
 1024MOL0     H41255   1.792   4.934   9.952 -0.3742  0.2512  0.4834
 1024MOL0     H41256   1.725   4.770   9.993 -4.8423 -1.2938  0.5802
 1024MOL0     H41257   1.597   4.972   9.814  2.4742  2.9036  2.5912
 1024MOL0     H41258   1.512   4.843   9.890  0.5592  1.4919  1.4551
 1024MOL0     H41259   1.658   4.673   9.784  0.4749 -0.4970 -0.3481
 1024MOL0     H41260   1.609   4.796   9.654  0.1479 -0.2047  0.4771
 1024MOL0     H41261   1.752   4.922   9.536 -0.5778 -1.6433 -0.7438
 1024MOL0     H41262   2.050   5.100   9.616 -0.0398 -1.3664  0.5277
 1024MOL0     H41263   1.958   5.067   9.475 -0.1701 -0.8516  0.4921
 1024MOL0     H41264   2.184   4.863   9.516 -1.6535  0.1483  1.5536
 1024MOL0     H41265   2.089   4.898   9.370  1.5134 -1.8566 -0.1162
 1024MOL0     H41266   2.200   5.125   9.372 -0.9630 -0.3660  0.2374
 1024MOL0     H41267   2.278   5.075   9.521 -1.0365  2.4347  0.3979
 1024MOL0     H41268   2.414   4.914   9.416 -1.6663 -0.9656 -0.3562
 1024MOL0     H41269   2.332   4.949   9.253  0.1371  0.3332 -0.0704
 1024MOL0     H41270   2.536   4.869   9.187  1.4540 -1.8392 -0.3490
 1024MOL0     H41271   2.815   4.808   9.045  0.0144  1.5362  3.3761
 1024MOL0     H41272   2.700   4.803   8.907  0.1050 -0.4875  0.4274
 1024MOL0     H41273   2.661   4.729   9.064  4.0940 -1.2942  1.5179
 1024MOL0     H41274   2.988   5.015   8.666 -2.1663  0.5077 -0.4327
 1024MOL0     H41275   3.117   5.097   8.476  0.2865 -1.5229  1.7469
 1024MOL0     H41276   3.130   5.541   8.378  1.3653  2.1132  0.1601
 1024MOL0     H41277   3.268   5.516   8.485 -0.9801  1.5135 -0.7693
 1024MOL0     H41278   3.312   5.590   8.254  3.0508  0.9635  3.5381
 1024MOL0     H41279   3.388   5.421   8.274  0.0406  0.4898 -2.5478
 1024MOL0     H41280   3.183   5.319   8.158  1.8115 -0.5085  0.2765
 1024MOL0     H41281   3.289   5.405   8.057 -2.5831 -0.3368 -2.3516
 1024MOL0     H41282   3.013   5.480   8.131  0.9807 -1.4006 -0.6031
 1024MOL0     H41283   3.095   5.481   7.976  1.8056 -2.1833 -0.2532
 1024MOL0     H41284   3.128   5.714   8.186 -1.2580  0.7583 -0.3808
 1024MOL0     H41285   3.222   5.692   8.038  0.5315 -1.4085 -0.0993
 1024MOL0     H41286   2.914   5.728   8.041 -0.5900 -0.6366 -2.3686
 1024MOL0     H41287   3.009   5.700   7.902  0.2810 -0.1202  0.7370
 1024MOL0     H41288   3.156   5.900   7.984 -1.1771  1.1967 -1.3082
 1024MOL0     H41289   3.023   5.925   8.107 -4.0287 -3.3782 -0.1873
 1024MOL0     H41290   2.969   6.081   7.930  1.9899  0.4986 -3.2239
 1024MOL0     H41291   2.861   5.939   7.930  1.5585 -2.9136  2.0656
 1024MOL0     H41292   3.103   5.503   8.650 -0.2723  1.2441  2.8310
 1024MOL0     H41293   2.960   5.432   8.820 -2.1508  1.1977 -3.0569
 1024MOL0     H41294   2.760   5.267   9.039  2.0092 -1.6417  0.4560
 1024MOL0     H41295   2.590   5.285   9.244 -0.9089  0.8554 -1.5007
 1024MOL0     H41296   2.152   5.012   9.964  1.5145 -0.3137  3.6019
 1024MOL0     H41297   2.262   5.080   9.756 -1.2093  1.7198 -1.1164
 1024MOL0     H41298   2.765   5.416   9.752  1.5840 -1.6029 -0.9303
 1024MOL0     H41299   2.899   5.544   9.595 -0.8422 -0.3202  3.4684
 1024MOL0     H41300   2.647   5.728   9.252  0.9151 -0.4218  3.9960
 1024MOL0     H41301   2.795   5.807   9.210  3.4226 -1.7687 -2.1711
 1024MOL0     H41302   2.798   5.503   9.193  1.5209 -0.9991 -0.9771
 1024MOL0     H41303   2.902   5.623   9.127  1.5576 -2.8613  3.2525
 1024MOL0     H41304   2.719   5.726   8.985 -0.1073  0.2388  0.3982
 1024MOL0     H41305   2.750   5.555   8.944 -2.3471 -1.6665 -0.3141
 1024MOL0     H41306   2.496   5.666   9.051 -0.1104  0.7444 -0.0709
 1024MOL0     H41307   2.552   5.518   9.124  0.6200 -0.4052 -0.8083
 1024MOL0     H41308   2.457   5.475   8.692  2.4571  0.7003 -0.9879
 1024MOL0     H41309   2.536   5.596   9.352  0.5466  0.4134  0.1482
 1024MOL0     H41310   2.372   5.346   9.468 -1.0322 -0.6813 -0.2402
 1024MOL0     H41311   2.316   5.488   9.571  1.6816  0.2090  0.3095
 1024MOL0     H41312   2.342   5.489   9.393 -2.8854 -0.8925  1.1053
  11.62361  11.62361  11.62361
